/*--------------------------------*- C++ -*----------------------------------*\
  =========                 |
  \\      /  F ield         | OpenFOAM: The Open Source CFD Toolbox
   \\    /   O peration     | Website:  https://openfoam.org
    \\  /    A nd           | Version:  10
     \\/     M anipulation  |
\*---------------------------------------------------------------------------*/
FoamFile
{
    format      ascii;
    class       volScalarField;
    location    "4.7";
    object      nut;
}
// * * * * * * * * * * * * * * * * * * * * * * * * * * * * * * * * * * * * * //

dimensions      [0 2 -1 0 0 0 0];

internalField   nonuniform List<scalar> 
12920
(
1.51959
5.74595
2.2539
4.73688
2.51358
3.22478
1.78164
1.88729
1.26155
1.13823
0.854476
0.760367
0.65414
0.612873
0.559939
0.511259
0.456059
0.39895
0.371631
0.354847
5.51623
6.10108
5.11182
5.39066
2.41
4.22037
2.20156
2.77717
2.04914
2.01782
1.48758
1.4109
1.25437
1.27667
1.22688
1.21385
1.16839
1.12435
1.08475
1.1036
11.5712
10.0167
6.74487
6.02851
3.20779
4.82403
2.68886
3.48992
2.1772
2.2793
1.68454
1.70755
1.47997
1.5028
1.39377
1.37135
1.31706
1.2872
1.25
1.29639
3.56598
10.2583
5.91814
5.83568
3.24195
4.65244
2.48172
3.61868
2.11197
2.46619
1.80019
1.84681
1.54272
1.50188
1.35324
1.30611
1.24385
1.23197
1.21273
1.28942
14.3071
13.1749
10.1832
7.41629
3.71218
5.07837
2.91027
3.24029
2.34762
2.553
1.982
1.98489
1.65554
1.57263
1.37766
1.29607
1.21311
1.18936
1.17433
1.25024
17.0074
13.3985
8.29455
8.2828
4.58121
6.28047
3.88245
4.12486
2.83686
2.5298
2.09554
2.06053
1.84674
1.75311
1.576
1.4324
1.27086
1.16744
1.10924
1.17693
14.1799
13.2067
9.20008
8.5673
4.62561
6.13754
3.84002
3.96628
2.86457
2.78535
2.35986
2.36194
2.06152
1.95069
1.69741
1.54209
1.33002
1.16264
1.05644
1.06598
5.06468
11.6002
8.81191
8.84342
4.66495
5.57709
1.33872
1.26056
0.882769
0.99445
0.816886
0.717941
0.621251
0.562275
1.82307
1.51572
1.33619
1.17689
1.05369
1.00414
5.78302
7.94355
4.67979
6.84175
4.05917
1.61733
0.485667
0.275964
0.216912
0.219555
0.208327
0.195174
0.187696
0.160063
0.46476
1.34538
1.25666
1.14333
1.05043
0.962292
2.23271
9.95551
9.78766
7.43835
4.95096
1.75826
0.339673
0.168738
0.155545
0.14972
0.151502
0.160021
0.151511
0.126856
0.3991
1.32397
1.21928
1.11661
1.04758
0.9807
2.10897
10.7136
9.55817
10.5167
6.96541
1.97899
0.452432
0.196661
0.211689
0.192874
0.191484
0.187443
0.172082
0.162604
0.555139
1.55594
1.35136
1.22114
1.12085
1.03908
7.81032
15.6315
13.3496
9.53622
7.1285
2.47836
0.457014
0.246962
0.252836
0.194833
0.194706
0.202709
0.18887
0.16525
0.538602
1.49483
1.30728
1.23084
1.1822
1.12862
2.76743
11.473
10.6763
9.0224
4.67445
4.87257
1.23353
1.09623
0.928466
0.759218
0.707557
0.691655
0.632704
0.566917
1.68779
1.42538
1.28096
1.19266
1.17269
1.15413
6.78474
11.0566
10.2481
7.92904
5.55402
6.37222
4.44801
4.46133
3.6505
3.46177
2.96766
2.50729
2.06862
1.76887
1.5757
1.4515
1.35094
1.22959
1.17495
1.13277
2.07851
8.12466
9.34637
8.79951
5.63806
6.11247
4.46681
4.48018
3.86556
3.61036
3.02448
2.46184
1.97088
1.686
1.56615
1.50327
1.42471
1.29699
1.21432
1.14079
1.77255
7.88793
6.62789
7.53288
5.65387
6.25056
4.4739
4.44179
3.71832
3.32846
2.53282
1.9829
1.53955
1.35139
1.27343
1.26295
1.24749
1.1927
1.16437
1.12984
0.224944
5.6961
4.93821
6.60792
3.96561
3.94688
2.93467
2.92045
2.56442
2.24998
1.74228
1.53911
1.32462
1.29348
1.20041
1.14474
1.09138
1.06129
1.06073
1.09862
0.221436
3.90678
3.17946
4.10001
3.34704
3.68429
2.86674
2.65555
2.25348
1.98443
1.54952
1.37668
1.2357
1.23762
1.14026
1.04578
0.932239
0.88309
0.87788
0.947521
4.22814
7.85356
5.43637
6.62671
3.20031
3.68246
2.55593
2.57011
1.87166
1.67391
1.31877
1.25301
1.21282
1.27625
1.21445
1.09184
0.899742
0.787081
0.726451
0.758229
0.450609
5.8613
2.01534
3.06117
1.48149
1.98142
1.37578
1.66783
1.16571
1.06465
0.826736
0.780434
0.705019
0.655763
0.592483
0.523397
0.472887
0.412355
0.376699
0.339651
1.34339
17.6649
12.6201
19.0244
15.9837
17.1293
10.432
11.492
7.73779
7.53814
5.71976
5.33724
4.65212
4.52245
4.22962
3.9942
3.67437
3.34159
3.18841
3.04275
13.2609
32.132
42.2454
24.0079
20.6398
20.4941
19.683
19.8531
17.9358
16.834
14.4713
14.8248
15.1071
15.9865
16.3429
16.4978
16.3189
16.3599
16.4062
16.3524
9.3387
41.8062
46.939
30.1346
27.9958
23.9752
21.7453
21.4858
19.222
18.7705
17.0284
17.2738
16.9797
17.4943
17.4567
17.5863
17.5248
17.674
17.6856
17.4612
3.91242
49.0144
40.4676
24.6368
25.1431
21.2736
19.5455
20.1826
19.5646
19.46
18.4837
18.0233
17.2496
16.9909
16.6506
16.5605
16.6915
17.0191
17.3937
17.3874
16.0614
34.6418
26.3404
21.3062
19.709
20.112
19.2567
20.2614
20.2607
20.3868
19.3286
18.8419
17.7182
17.1594
16.414
16.0753
16.1916
16.5989
16.9711
16.951
30.8092
39.545
22.106
24.4152
25.2981
28.0406
26.7055
25.0313
21.503
20.3701
19.1028
18.8654
18.4228
17.9733
17.3058
16.6248
16.0071
15.7817
16.0793
16.0416
20.528
37.5205
30.6402
29.2484
24.5041
27.9378
26.2533
23.7004
21.6564
19.8538
19.9039
19.5288
19.0229
18.6012
17.674
16.9294
16.0029
15.1705
14.8967
14.9091
24.5245
39.7492
31.963
32.509
24.1747
27.1684
20.759
20.169
19.8517
20.4695
19.8784
19.0768
18.0472
17.1862
18.4059
16.9176
15.6669
14.7092
14.1123
14.072
16.9381
29.7379
26.2196
30.0579
23.2036
20.9352
19.2013
17.1653
17.4506
18.1832
18.267
17.9057
16.7723
15.2983
14.8916
16.2607
15.8079
14.9566
13.7212
13.0887
15.2295
46.1994
52.2703
33.4841
20.912
17.9176
17.9264
15.7023
15.6013
15.8743
15.9259
13.5399
11.4185
10.5845
11.5102
14.9844
15.183
15.1187
14.7856
13.7763
3.51597
45.6325
50.7545
49.8628
36.0214
21.5395
15.8034
15.1148
17.3332
17.0051
15.3957
13.7367
13.9791
14.1228
15.2155
16.4465
15.6223
15.3006
14.8549
14.254
5.59971
57.1355
65.1243
48.7002
32.1765
23.6096
19.1911
18.5762
18.7431
16.3857
17.2024
17.1463
16.2921
15.0307
15.153
16.2231
15.7947
15.6221
15.3681
14.6706
6.68159
39.2495
47.2564
42.9795
34.2054
31.3566
23.7167
21.9536
20.903
18.7667
19.0508
18.5145
17.3242
15.9293
17.1802
16.1216
15.8858
15.8663
15.7668
15.2527
16.6527
45.6455
50.4751
39.2054
36.1036
33.6595
30.952
30.1098
28.4759
26.9716
24.9894
22.6458
20.5074
19.0047
18.1665
17.3627
16.8292
16.3543
16.0749
15.4356
5.28162
31.1182
45.1885
43.7912
38.5194
35.9741
34.008
32.7894
30.2264
28.0511
25.1642
22.4654
19.4537
18.0717
18.2134
17.9662
17.3418
16.6931
16.0418
15.0975
1.10551
23.3836
33.3745
33.9645
34.6596
35.0346
33.7963
32.5888
29.47
26.1948
21.5676
18.0804
15.7977
15.5385
16.4759
16.8462
16.6881
16.2853
15.7924
14.8691
1.24698
18.6079
23.726
28.3204
27.6425
26.997
23.9403
23.3323
21.7214
18.8995
15.4697
14.824
15.2002
15.7502
15.603
15.2059
14.9124
14.9664
14.9568
14.4974
0.319846
11.1099
21.9574
24.2742
25.3713
27.6018
26.7352
25.7763
22.5638
18.0443
12.6668
12.4564
15.148
16.2463
15.6096
14.2985
13.0015
13.021
13.1165
13.2953
11.0877
26.8322
29.5684
28.8874
26.428
27.0045
24.7371
22.1792
16.4402
13.1311
12.2556
14.6376
15.721
16.0347
15.6098
13.4732
11.6657
10.2786
10.2917
11.3223
6.44406
17.5741
13.4081
11.1623
7.46574
7.12896
8.17105
8.96639
6.90057
6.2267
5.09347
4.75914
4.11021
3.4614
2.78124
2.32017
2.10943
2.14674
2.12742
2.05404
5.85427
26.0816
22.9255
23.175
20.347
18.6071
12.4938
13.5776
9.80222
10.0994
7.82856
7.5922
6.59726
6.2936
5.68267
5.26908
4.82048
4.38115
4.16004
3.92413
22.5208
37.2559
53.5469
40.1264
33.5936
32.0733
30.8233
29.9025
27.1081
26.1892
24.7815
25.3519
25.8489
26.2328
26.2368
25.8389
25.2169
24.608
24.1355
23.2501
6.42757
49.0578
57.2953
48.9776
44.0407
38.4269
35.7003
33.4909
30.8514
29.7026
28.5295
28.6631
28.5146
28.6324
28.3139
27.9042
27.3778
26.8408
26.4157
25.5831
18.247
57.619
57.0713
46.5675
44.015
37.5468
34.9696
33.6875
32.2184
31.1163
29.963
29.2153
28.4333
27.9868
27.4489
27.0897
26.9073
26.6693
26.5004
25.9568
28.7682
51.2241
49.8246
40.9251
39.6596
36.6736
34.7812
34.073
33.1174
32.0178
30.5402
29.3594
28.0747
27.2911
26.5428
26.114
26.0441
25.9663
25.8401
25.4262
17.5937
51.1055
48.3337
43.3147
44.3382
43.7227
39.9447
37.488
34.2772
32.521
30.9565
29.7827
28.5313
27.4383
26.3781
25.5348
24.9699
24.6781
24.6296
24.2539
46.963
53.1143
52.1635
47.1808
45.5985
45.1113
40.8275
37.3686
34.8619
32.5702
31.5806
30.2921
28.9015
27.6586
26.2228
25.1548
24.191
23.4479
23.1232
22.8839
46.6613
51.1503
52.0747
50.0979
44.3168
44.714
39.4456
36.2049
34.5004
33.1795
31.5443
30.2021
28.4365
26.9706
25.7441
24.4818
23.3932
22.5308
21.9271
21.7389
26.322
47.7488
52.2984
52.1217
43.9221
40.5545
36.9462
33.7983
32.1599
31.2551
30.2081
28.4263
26.1959
24.1728
22.7388
22.9025
22.7331
21.9327
21.0353
20.8325
19.2201
62.9615
72.1549
56.2421
42.1331
36.398
35.2947
31.2053
29.666
29.0974
24.2305
16.7728
14.1837
15.008
17.0556
20.4883
21.1697
21.4933
21.1799
20.437
19.203
58.5461
70.0494
68.1881
51.3958
39.9653
32.0458
30.1752
30.0466
29.3058
6.79992
8.5039
18.8952
21.0475
21.4819
21.6239
21.2923
21.1196
20.862
20.3815
33.4958
63.6078
72.9821
69.6117
50.2587
41.2631
36.5116
33.5904
31.1533
29.1835
28.8268
27.8074
26.2059
24.393
23.2786
22.9558
22.4111
22.0202
21.5984
21.0083
25.6774
45.4889
53.2984
59.7965
52.7041
48.8772
42.0263
37.622
35.1128
32.9359
32.2417
30.5654
28.6042
26.4975
25.999
24.6481
23.9167
23.4272
23.0335
22.3872
14.0904
44.5596
62.6024
57.8116
55.3236
51.9491
47.913
45.7699
42.5549
39.7207
36.4952
33.58
31.1865
29.3633
27.7553
26.3588
25.438
24.6599
24.1536
23.2535
14.4331
36.7346
55.9776
61.2107
57.3046
54.6544
51.33
48.2951
43.9606
40.2824
36.4354
33.1898
30.5875
29.1008
28.2102
27.0669
26.0556
25.0869
24.3646
23.2754
14.6082
32.1558
49.1811
52.6139
53.2855
53.5447
51.0506
47.4659
42.2801
37.2539
32.4301
29.4952
27.7572
27.1601
26.9057
26.1949
25.4416
24.6009
23.905
22.8993
5.90708
35.946
40.0958
45.2446
46.3376
45.3695
41.582
39.2344
34.3594
30.5856
27.5185
26.6728
26.2036
25.646
24.9411
24.1625
23.6139
23.1379
22.7206
22.0367
3.61069
31.6617
36.9704
40.9984
40.4058
42.6703
40.6385
38.1931
31.9541
26.4987
22.8909
23.2119
25.0871
24.5665
23.4921
22.3335
21.4209
21.0822
20.7567
20.5284
23.2077
39.474
38.0987
39.5693
39.5189
39.2497
35.7444
31.4078
25.7599
23.4729
22.628
22.746
22.2329
21.8527
21.3254
20.4312
18.9772
18.0598
16.9691
17.8092
19.1958
26.2497
12.5617
12.2466
14.3252
15.0962
13.1631
13.5228
9.4344
8.53656
6.51888
5.769
4.67652
3.89058
3.20123
3.04769
3.09085
3.07044
2.67374
2.12846
8.22274
28.7313
27.2271
24.5935
21.5207
18.7788
12.6386
13.523
10.6261
10.6233
8.63138
8.0886
7.02865
6.4791
5.82181
5.32949
4.91926
4.43802
4.1585
3.7088
47.2691
50.4003
55.8858
48.2198
39.5713
37.7802
35.929
34.0768
31.682
30.6844
29.9351
29.9962
29.9081
29.7445
29.2298
28.3355
27.3607
26.293
25.4561
24.2919
20.5141
58.8688
62.2808
58.19
51.5091
45.6782
42.3639
38.8552
36.4827
35.0971
34.2093
33.8278
33.438
32.9045
32.1965
31.1971
30.2968
29.3303
28.5912
27.6181
72.3143
65.8651
59.9649
57.7965
53.605
46.5318
43.3027
40.0568
37.9881
36.2722
35.0483
33.9269
33.1455
32.3814
31.7135
30.9524
30.3702
29.6637
29.1226
28.3677
15.8762
59.3169
60.4537
54.6836
52.5429
47.2224
44.5776
41.5018
39.5462
37.3254
35.5554
33.7934
32.5773
31.4749
30.6724
29.9603
29.4978
28.9023
28.4624
27.8523
31.0751
57.5898
62.0324
56.2169
55.6552
52.2122
47.9088
44.1669
41.0379
38.3702
36.341
34.3044
32.6105
31.0098
29.7609
28.7555
28.0687
27.5072
27.0851
26.5711
63.3247
63.7791
68.199
60.1681
58.2807
53.9412
48.8506
44.7024
41.4928
38.6237
36.7227
34.4563
32.3683
30.4499
28.8353
27.6509
26.7281
26.0002
25.5427
25.1295
46.0576
69.7659
68.9606
62.7878
57.821
54.5206
49.3309
44.9381
41.5252
38.8194
36.3928
34.2215
31.7996
29.7981
27.0395
26.2339
25.4929
24.8056
24.3557
24.026
40.49
73.3622
73.0815
64.6565
56.347
52.1455
46.4389
42.9218
39.6559
37.0921
34.6888
31.6684
28.9363
26.8706
24.9834
24.523
24.4686
24.0124
23.575
23.3198
64.1383
73.7843
78.8006
66.509
54.0542
47.8477
45.8068
40.7339
37.6247
35.3978
28.2928
21.0007
18.9088
19.289
20.6314
22.5717
23.2624
23.4466
23.2237
22.9784
61.8568
74.9403
80.9358
75.1295
59.5465
49.5437
43.196
39.4446
36.7305
33.9955
14.6691
14.8174
21.1014
21.974
21.8975
22.2603
22.6228
22.8691
22.8258
22.8114
50.7725
84.4044
85.5452
74.1316
59.3852
51.0141
46.2286
41.2701
37.2991
34.7283
32.703
30.4767
28.1661
26.0091
24.096
23.7494
23.6751
23.5779
23.4461
23.2643
18.7071
62.5279
68.2908
72.2291
62.9854
58.6098
51.7694
45.7105
42.1537
39.3486
37.402
34.8735
32.4037
29.7922
27.8409
26.7288
25.9677
25.4202
25.0362
24.412
18.4843
55.3654
70.6122
69.0888
66.5105
62.1993
56.6819
53.1988
48.5407
44.9568
41.1828
38.0831
35.2416
32.9036
30.7336
29.0545
27.9199
26.9758
26.3249
25.4232
9.13721
62.2638
69.3659
72.4623
69.3759
65.7225
60.1876
54.9876
49.6485
45.2878
41.1451
37.8317
35.1416
33.0511
31.3094
29.6829
28.5076
27.4245
26.6488
25.639
28.0945
58.8384
65.6275
66.6288
67.2009
64.8561
59.9366
53.8665
47.7553
42.1571
37.8323
34.8899
32.9343
31.422
30.1772
28.8401
27.8405
26.8238
26.0813
25.1366
32.4741
57.5442
59.4226
61.0212
60.5757
57.5066
51.9313
47.1327
41.295
36.6661
33.4987
31.5619
30.222
28.8636
27.8672
26.8119
26.0519
25.2618
24.646
23.96
12.9051
53.291
52.7561
53.3648
53.7006
53.4792
49.0186
41.9666
37.6579
31.1337
29.8918
27.2422
28.0909
26.7357
25.657
24.6383
23.8786
23.2315
22.7034
22.3638
37.7227
47.0286
48.01
47.8013
48.9377
46.0346
41.9891
35.2649
30.8586
27.5516
25.6076
24.187
23.3967
22.8869
22.4061
21.6159
20.7934
20.0637
19.2574
18.6619
20.4335
10.4807
14.3028
12.917
16.6885
15.6838
15.0695
13.3179
10.3239
8.70606
6.60261
5.22441
4.1624
3.56234
3.51805
3.69849
3.67838
3.29638
2.51037
2.22283
5.84554
15.9865
10.3259
13.1066
6.96272
9.32387
4.52057
7.52423
4.11123
5.00093
3.38627
3.45745
2.75663
2.67654
2.33746
2.16818
1.91647
1.68925
1.51734
1.41111
29.5926
58.4907
56.4154
49.2935
24.7719
37.7157
19.6048
33.5066
16.975
22.992
16.7339
19.4028
16.7069
17.6114
16.0621
15.8727
14.7535
13.9132
13.0764
13.7387
74.531
80.6288
63.2083
61.4943
30.7732
46.4451
22.9602
38.7622
19.5967
27.2975
19.1614
22.8488
18.9909
20.2906
18.1946
18.2233
16.9985
16.3418
15.5024
16.8444
41.7406
74.1048
55.519
61.4869
34.9611
47.9389
24.2302
40.2907
20.73
30.1758
19.9574
23.6692
19.2858
20.4267
18.3492
18.3991
17.3037
16.7465
15.9673
17.4234
65.0121
67.3843
64.8717
59.5559
36.36
49.9918
26.9533
40.6683
22.5708
28.9207
20.3918
23.3213
18.8943
19.8224
17.6799
17.8079
16.7624
16.3481
15.6719
17.185
54.0742
61.3574
53.9079
61.4882
37.6927
54.8029
29.6163
41.0784
25.871
28.96
22.58
22.8183
19.4942
18.9636
17.3429
16.784
15.9501
15.3787
14.8136
16.2882
60.4471
53.2325
58.86
65.6224
36.4227
55.9423
34.0228
41.0338
29.3848
30.5998
23.4737
23.5623
19.3571
18.5055
16.2949
15.8086
14.8775
14.3915
13.8877
15.3538
57.9132
79.4959
65.4802
67.8478
41.0957
51.9735
50.5435
46.3928
41.4107
38.8114
35.2257
32.8885
29.7681
27.8021
15.8062
14.6662
14.0271
13.4693
13.1753
14.7209
11.4225
53.985
56.6973
68.6926
38.1379
54.2211
48.3453
42.7981
37.8701
34.9038
31.4455
28.3201
25.6982
23.9842
22.7738
14.2646
13.7174
13.1179
12.8381
14.3874
81.9371
81.9421
85.0996
68.3628
55.8298
50.9877
46.8594
39.2431
35.4137
32.715
27.5836
22.3257
20.1368
20.0273
20.8578
14.2097
13.8356
13.2371
12.9188
14.4857
48.711
91.5303
93.1739
76.2765
38.1532
51.6482
44.4596
37.508
33.9156
31.3241
24.9702
20.9189
19.7131
19.7081
20.2911
14.1618
13.9404
13.4426
13.2824
14.8955
65.3975
98.105
97.8507
72.8021
59.4282
52.8284
46.5418
38.7909
34.0896
31.111
28.2097
25.4754
23.3232
21.6738
21.1288
14.6641
14.5051
13.9183
13.8378
15.4511
13.5233
44.1803
62.4457
78.1412
40.5119
56.2381
52.56
46.1014
41.1429
38.122
35.2824
32.4744
29.5504
26.8829
16.9326
15.8942
15.4086
14.8788
14.6999
16.2086
56.0196
72.2411
69.2836
75.1551
62.9301
66.4063
48.3875
53.1533
36.1014
35.6678
28.6366
26.0938
22.227
20.1053
17.9791
16.9245
16.2596
15.5774
15.3515
16.6927
74.612
70.636
77.9048
83.9733
59.1068
68.5551
40.7367
41.8636
33.0049
32.7291
27.773
25.4532
22.113
20.1397
18.4083
17.6022
16.8383
16.0459
15.7162
16.952
79.2464
73.6631
77.3274
76.0326
70.8591
68.597
49.4748
51.7824
34.8478
33.1473
25.7608
23.0893
19.8985
18.6441
17.2307
16.6858
16.106
15.4625
15.291
16.5664
78.7386
71.0261
71.4961
69.7913
53.1693
61.006
35.6842
37.9098
26.0943
25.733
20.4914
19.5199
17.3463
17.0016
16.0282
15.7809
15.2394
14.6729
14.4784
15.9739
51.9219
62.7013
51.9286
60.6069
49.5068
55.2955
37.0612
39.593
25.8837
25.1231
18.9718
17.321
15.0649
14.7199
14.031
13.9113
13.4597
13.1338
13.4013
15.2876
11.4659
26.5119
51.0379
49.7096
40.3887
45.4781
28.1541
33.9762
18.9355
19.5945
13.9026
14.0337
12.3257
12.5436
11.8927
11.7469
11.2425
10.7048
10.4481
11.8136
19.6924
21.1811
5.58198
9.72422
6.55015
15.1785
5.96943
9.55052
3.90054
3.81249
2.3083
2.06181
1.74053
1.78802
1.79865
1.83965
1.68255
1.45486
1.29133
1.3006
26.3061
28.3858
9.62753
34.6023
29.8681
32.7116
10.2907
18.1949
8.28485
6.87026
27.1698
20.7676
9
8.27969
8.01769
29.0993
28.5107
33.4534
8.54655
33.8821
32.1755
6.71737
28.2226
27.3234
7.53829
8.19261
31.5642
29.9738
0.316698
0.32676
0.209937
11.479
12.3448
12.5983
12.6256
0.223416
0.189698
0.159852
12.3701
12.815
11.8807
11.535
0.216177
0.159531
0.155693
12.8993
13.6002
11.6321
11.8304
0.215576
0.153132
0.15144
13.9885
14.2908
11.9137
12.4701
0.195197
0.15448
0.165826
14.2921
14.2051
12.6315
12.2786
0.19092
0.167288
0.161128
14.1696
13.6162
11.9546
10.7325
0.165564
0.154575
0.133148
13.3567
12.434
10.2777
9.19552
0.117381
0.127365
0.0881503
12.1532
12.0573
8.92599
8.72204
0.188181
0.421346
0.207203
12.2532
11.95
11.627
11.47
0.154297
0.191877
0.189917
11.4339
11.4657
11.598
12.6935
0.152203
0.194354
0.191294
11.5926
11.809
12.9277
12.947
0.148402
0.186559
0.180495
11.8905
12.2265
12.8781
12.3829
0.158374
0.177011
0.172459
12.2443
11.3621
11.8896
10.7257
0.156903
0.173093
0.170555
10.939
9.80667
10.5114
10.1885
0.132212
0.165606
0.154352
9.47545
8.76651
10.1579
10.2217
0.0896783
0.151797
0.126431
8.5848
8.57804
10.2255
10.9383
0.213576
0.448431
0.254077
10.684
10.8435
11.2538
12.5539
0.207084
0.242226
0.246255
11.2256
13.1627
13.1014
14.6641
0.200563
0.246542
0.206871
13.461
13.2964
14.5674
13.0261
0.190765
0.191787
0.200077
13.1846
12.9019
12.7413
13.2511
0.189271
0.207239
0.208152
12.5889
11.7242
13.3851
13.2442
0.175762
0.204531
0.193271
11.5125
11.1463
13.1151
12.7169
0.165154
0.188955
0.174649
11.1258
11.1562
12.5714
11.9881
0.12957
0.169983
0.129999
11.0874
11.4281
11.7592
11.6888
0.258505
0.44308
0.284472
12.9453
13.6516
13.0105
14.927
0.251694
0.282641
0.287113
14.046
15.0354
15.3818
15.2676
0.212996
0.282053
0.243338
14.7844
12.8467
14.7219
12.7729
0.189836
0.215869
0.174664
12.474
12.9926
12.1229
11.8061
0.203499
0.173956
0.181993
13.1981
13.3006
12.0637
12.4667
0.193366
0.184482
0.185209
13.2263
12.8205
12.4022
11.9459
0.170992
0.182872
0.173759
12.6092
11.8646
11.6635
10.9844
0.123181
0.173349
0.145506
11.5962
11.5879
10.6676
10.8028
17.3858
18.84
17.1241
31.9136
30.9861
32.5386
29.4769
17.476
16.1751
15.6602
30.2231
29.4377
28.3647
27.0742
17.9235
15.7357
15.9462
29.0999
28.7023
26.9366
26.7439
18.3425
16.044
16.5324
28.6583
28.2205
26.7353
26.1386
18.0149
16.5676
15.6392
27.9492
26.9488
25.3894
21.9089
17.1173
15.109
13.3845
26.5411
25.0792
20.7524
17.9909
15.639
12.8211
11.5111
24.5374
23.0021
17.3881
16.1581
14.635
11.2028
10.4856
22.585
21.9306
15.9473
15.7852
16.3361
16.9151
15.5413
31.1963
28.5964
28.7366
27.1934
15.513
15.6141
16.5672
27.7288
26.6902
27.0039
26.9781
15.7884
16.7651
16.7201
26.565
26.3406
26.9084
26.3805
16.1071
16.6812
15.5095
26.3208
24.6858
26.0274
15.0334
14.2247
14.6585
12.6997
23.1747
18.0458
13.0155
9.99393
11.8135
12.3427
12.1555
16.6603
13.9545
9.71697
12.5144
10.7399
12.3136
12.8092
13.6739
13.9292
14.0691
17.0755
10.2445
12.8709
13.1857
14.0936
14.823
17.494
18.3472
14.6714
16.5063
16.8379
28.0267
26.5304
30.3938
29.2301
17.0618
17.3937
18.7336
26.7232
27.3784
29.2673
28.8394
17.0848
18.5222
16.8566
27.3205
26.5717
28.3015
26.7025
16.0653
16.6278
17.1701
26.4526
14.568
26.535
26.3747
13.9612
17.2908
17.0961
12.733
10.9566
26.212
25.5351
13.8257
16.9331
16.4061
11.7479
17.0044
25.2708
24.3982
14.1941
16.2026
15.4457
18.3811
20.0018
24.0688
22.9784
13.8574
15.1608
14.4105
20.031
19.7959
22.5943
21.6954
18.2611
20.2625
20.18
32.5671
30.6867
34.6446
33.1612
19.1499
20.3172
19.626
30.4321
29.2382
32.4917
30.4735
16.677
19.0285
16.9645
28.5393
26.7313
29.7636
27.8021
17.0045
16.4319
16.3305
26.5446
26.6482
27.4587
27.4569
17.2553
16.5855
16.8811
26.6216
26.1668
27.4966
27.0797
16.568
16.738
16.144
25.9088
24.8932
26.7508
25.6169
15.3544
15.781
14.935
24.4799
23.2026
25.1301
23.7975
14.2762
14.5419
13.7232
22.7784
21.7901
23.2623
22.2737
34.6647
36.6634
32.9802
41.654
42.5054
45.0963
40.9029
32.6352
31.856
30.3043
41.4557
39.3256
39.7094
37.3654
31.406
30.0711
29.6327
38.5394
36.7935
36.8272
35.4976
30.5739
29.5414
28.3408
36.3489
34.8785
35.0665
32.444
28.913
27.2977
23.0083
34.2585
32.1647
30.8072
25.7336
26.7815
21.7391
18.9416
31.4804
29.474
24.4534
21.8886
24.6012
18.3927
17.3511
28.8148
27.1567
21.4005
20.6085
23.4031
17.2031
17.1064
26.7301
25.9653
20.55
20.7291
32.1071
32.7795
30.6543
43.6915
40.2046
41.4229
38.7215
29.8817
30.3497
29.9105
39.1336
36.9359
38.0131
36.3019
29.2184
29.7318
28.8574
36.4211
35.118
35.791
34.2272
29.3269
28.7375
28.6537
31.4203
27.7183
30.8699
30.8791
14.6944
22.0442
18.5058
24.9684
15.89
22.484
17.3858
14.332
7.0051
11.8305
19.4982
17.7026
9.092
14.6096
14.7368
13.945
17.7257
17.6125
18.0176
16.3851
19.2567
15.9578
18.2355
19.1621
18.3001
19.4213
19.6538
20.4413
30.1666
34.4887
32.7233
40.9959
38.5331
43.0011
40.2484
30.2354
32.53
31.505
37.9436
36.3398
39.4198
36.964
28.9934
30.8921
29.2985
35.7951
34.1743
36.1715
34.3118
24.572
16.9302
28.8845
26.2062
25.9743
3.53961
30.8044
18.0892
6.2914
20.0486
2.53775
19.3582
2.44177
18.5244
16.9933
27.0188
26.0374
10.6544
18.9918
29.5045
28.1037
20.9886
25.6711
24.4869
20.5654
22.0911
27.6053
26.1393
20.7231
24.078
22.9914
22.1071
21.7507
25.6703
24.429
34.0612
39.198
36.5332
44.5579
41.162
42.9634
43.683
31.8944
35.6903
33.4523
40.149
37.3424
42.475
39.7251
29.4024
32.7123
30.7907
36.4985
34.5871
38.8749
36.7737
28.9648
30.4438
30.265
34.159
32.9447
36.3052
35.3944
28.1276
30.1899
29.5083
32.4941
31.0424
35.0135
33.5854
26.654
29.1112
27.8475
30.5276
28.9338
33.0346
31.4342
24.8417
27.3028
25.8879
28.3856
26.7906
30.8353
29.0799
23.1817
25.3156
24.077
26.2813
24.834
28.4746
26.9881
43.9955
46.9271
42.5015
47.9619
44.8898
48.4249
42.9478
40.5439
41.2656
38.662
43.8005
40.7229
41.533
38.3673
37.6244
38.0255
36.3928
39.4465
36.9838
37.529
35.5151
35.3873
35.8486
32.9826
36.3091
34.0487
34.7833
31.6476
32.3912
31.3529
26.4642
33.0818
30.5211
30.2688
26.2865
29.6061
25.2158
22.6773
29.7778
27.7384
25.1877
22.7672
27.2915
22.172
21.3675
27.045
25.5679
22.3088
21.6239
26.0962
21.3058
21.4473
25.1741
24.3128
21.541
21.4067
41.879
43.4583
40.3908
47.7849
42.4215
46.0485
40.8153
38.2412
39.5381
37.4292
40.9734
37.8827
39.5186
36.6475
36.0192
36.8164
35.0319
37.0872
35.1918
36.0032
34.0758
30.8347
33.901
17.263
34.4057
30.5939
33.1046
26.5875
22.2589
15.1107
12.5383
28.7816
24.1693
24.3419
20.3405
19.0886
12.883
16.4941
23.0372
20.8082
19.744
19.2105
19.0752
17.6912
19.6472
20.4888
20.2985
19.2236
19.5872
20.2245
19.9424
20.5751
20.3587
20.6883
19.6911
19.8948
40.2202
44.9284
41.6321
45.6948
40.5965
46.693
41.5343
37.3774
40.6218
37.8048
39.3424
36.4234
40.1156
36.6009
34.9009
36.9557
34.935
35.7635
33.7781
35.6115
33.4652
16.4526
34.4096
32.4643
32.8569
26.7728
32.7641
30.406
13.4698
31.7797
29.9877
24.8176
21.5118
29.5982
27.3982
20.0933
29.4574
27.8857
21.0945
20.7219
26.7113
24.657
21.9921
27.3454
25.8265
20.5916
20.4963
24.131
22.8611
21.661
25.3526
24.142
20.4499
20.211
22.4708
21.4073
42.4318
47.8576
45.0792
47.8623
42.2169
45.1424
45.8304
38.1823
43.7832
40.8626
40.7045
37.0252
44.2838
40.6972
35.2427
39.9546
37.719
36.0119
33.7218
39.5353
36.984
33.2369
37.2013
36.0631
33.0495
30.9725
36.3542
34.687
31.0474
35.5889
33.9541
30.271
28.2233
33.9765
31.9916
28.7416
33.3645
31.6806
27.5402
25.4941
31.332
29.4909
26.5277
31.0451
29.1941
24.9561
23.4979
28.7559
26.7934
24.5743
28.5534
27.0414
23.0386
21.7479
26.1283
24.5897
43.913
47.0379
41.2335
26.1273
33.3065
20.768
21.4774
39.3327
39.8403
36.7333
28.2307
18.5403
21.5011
19.4291
35.5586
35.8754
33.7445
18.4531
19.6093
19.1026
17.2433
32.48
33.0092
29.9232
18.5434
15.766
16.6622
14.6847
29.0279
28.6371
25.015
15.5392
15.3169
14.118
12.9116
26.3671
24.0117
21.9878
14.6942
13.4366
12.7614
14.0589
24.3644
21.6268
21.0559
13.3686
13.2212
13.9595
13.7638
23.1898
20.9663
20.8055
12.9073
11.7971
13.672
13.2113
40.6792
45.0749
39.029
26.9014
20.8455
26.4523
20.0866
36.2319
37.7281
34.9041
20.7535
19.2287
19.8916
18.3645
33.4512
34.1944
32.4473
18.6316
16.7674
17.6063
15.955
29.1668
31.6032
26.5491
16.2031
14.2043
15.5118
13.4482
23.4165
24.5953
20.6778
13.5738
12.0841
12.7964
11.1928
20.3626
19.9296
18.7696
11.8556
13.2755
10.7917
11.9213
19.9991
18.7889
19.147
14.0228
13.8415
13.2352
14.0595
20.2293
19.2269
19.3843
13.7648
13.1063
13.9868
13.7556
38.7738
45.4411
39.6062
28.8829
20.0939
26.1115
21.4428
34.6346
38.1539
34.689
19.8374
18.3064
20.9033
19.2353
32.1281
33.7148
31.6221
17.5446
15.9432
18.372
16.4657
26.6882
30.9577
28.5597
15.5117
13.4715
15.9422
14.3814
21.5673
27.7378
25.4839
12.8038
11.227
13.9014
12.8427
19.7875
24.744
22.9336
10.8943
12.0197
12.6649
13.9619
19.7419
22.5599
21.5478
13.299
14.1231
14.7674
14.4776
19.5593
21.2149
20.332
14.0532
13.3372
14.3724
14.081
40.3541
48.4837
44.7101
38.5672
23.0745
43.9709
29.6812
35.0912
43.0468
39.0269
22.0296
19.6724
29.8716
21.3146
31.7855
37.7561
35.2261
19.1118
17.1331
21.0617
19.4092
28.9351
34.5709
32.7817
16.6019
15.1123
20.1843
17.7495
26.1538
32.0495
30.0986
14.6218
13.6818
17.817
16.6157
23.7591
29.4611
27.6642
13.5573
15.0395
16.5638
15.2517
22.0774
26.944
25.1047
14.9065
14.5547
15.161
14.3737
20.6065
24.4878
23.1757
14.4085
13.3437
14.2369
13.4445
25.3696
27.9203
21.5372
27.4724
25.2406
29.6767
20.718
22.3568
28.2555
18.6738
26.285
24.893
29.9003
4.89706
12.6009
13.7227
12.1171
2.56982
18.2554
8.81165
3.01783
30.8766
33.2669
33.8047
34.0561
32.5682
32.6919
32.4762
26.5123
28.6383
32.3454
24.1722
31.1461
21.5851
28.8252
23.1275
26.8848
33.2813
20.362
31.5183
4.94584
28.602
13.2446
2.77195
15.1536
12.9731
9.33737
3.12597
20.279
12.5988
19.9857
12.1363
18.4549
13.7696
20.2564
11.2525
5.78098
11.2122
7.31445
2.11118
9.41105
7.02957
1.84386
4.9876
7.71326
6.81079
3.86789
8.30294
5.16425
3.15701
15.4272
25.9334
24.6309
20.6781
23.3431
18.1394
17.942
13.431
19.3431
22.4728
14.5216
21.1037
12.136
15.9364
6.35923
2.53367
12.5205
8.21871
7.55147
2.36665
10.8599
5.53828
4.19468
9.4098
8.01861
5.82091
3.24664
9.79701
20.897
10.5146
21.063
2.70905
22.8851
3.01701
19.3434
30.2119
29.0856
28.9631
31.2097
28.5346
31.1573
30.948
29.0352
26.9244
28.7663
30.1906
27.6984
28.0612
30.5921
25.7202
26.7791
18.105
33.4466
3.85512
32.3636
29.5657
21.6291
2.7942
10.9729
23.1046
3.1121
19.9257
25.3905
31.6315
32.8153
33.7696
33.4038
32.7286
32.4382
32.7235
30.2343
31.4165
30.1203
32.8075
29.128
31.9449
31.3453
18.2371
5.90992
19.0292
3.64365
19.0242
2.66998
18.332
26.7786
26.3052
27.9268
29.7813
25.8324
27.308
29.3913
26.4251
25.2281
27.63
28.6478
25.4924
26.1355
29.019
18.568
2.63832
7.03835
21.8792
2.60498
19.0406
21.0788
18.7896
4.06693
6.8658
20.7539
2.90185
18.9136
20.6708
27.6265
30.8973
29.1469
30.9987
28.2432
30.4163
28.4085
27.219
29.5294
27.485
30.4749
26.8829
29.9675
27.8848
1.26917
1.29304
1.19378
6.69615
8.6858
6.70716
8.32463
0.93466
1.14492
0.961819
10.0167
8.85073
9.75026
10.3232
0.985431
0.809936
0.836093
9.34846
10.9195
10.6251
11.1934
0.897948
0.906745
0.864752
11.4147
11.2446
11.41
11.4172
0.756193
0.766332
0.746256
11.3142
11.2307
11.226
10.9352
0.665793
0.730167
0.700574
11.1054
10.733
10.6836
10.425
0.586941
0.654467
0.618592
10.4735
10.4433
10.0115
9.8147
0.45652
0.594386
0.49068
9.94181
12.4164
9.19904
11.3502
1.06768
1.49718
0.939164
7.09286
8.03344
6.80101
9.1996
2.86917
0.417764
0.400337
2.43135
2.64783
2.43128
0.322499
3.55657
0.249719
0.227913
3.33373
3.43093
3.56146
0.207106
3.52483
0.215283
0.174385
3.3799
3.48852
3.49852
0.169738
4.07252
0.225638
0.182984
4.63592
4.87461
4.01138
0.183142
4.23371
0.201044
0.175214
5.13657
5.14815
4.1599
0.177043
4.32711
0.19413
0.18616
5.22277
5.21422
4.32326
0.187445
3.99514
0.179571
0.177494
5.00579
4.9099
4.10185
0.170993
3.57024
0.150759
0.147845
4.58479
4.57209
3.61816
0.139648
0.356433
0.389864
0.292615
8.85231
11.0674
7.25038
9.65132
0.981528
1.9443
1.22544
7.62512
9.32096
7.78452
9.46319
2.86936
0.254711
0.345752
2.32684
2.86472
2.34209
0.253853
3.28933
0.155608
0.163694
3.22369
3.22307
3.2268
0.15462
3.77299
0.155613
0.156552
3.48133
3.5207
3.65726
0.157536
3.80049
0.147774
0.152529
3.60659
3.65858
3.78574
0.151334
3.81821
0.154062
0.151973
3.86265
3.90377
3.81347
0.153534
3.70255
0.161034
0.159177
3.76697
3.76226
3.68577
0.160233
3.42126
0.145055
0.151858
3.52121
3.41366
3.51437
0.146472
3.11511
0.121088
0.13086
3.09201
3.03855
3.14119
0.127134
0.307026
0.493188
0.406696
7.05605
9.2637
8.04234
10.5298
1.32234
1.92777
1.36797
8.82895
9.72927
8.76252
9.89758
2.7686
0.327769
0.431326
2.66431
2.86568
2.55205
0.325516
4.18079
0.195915
0.206632
3.6005
3.99809
3.72406
0.208557
4.92036
0.211703
0.226048
4.70605
4.73418
4.91889
0.224866
4.53599
0.190383
0.19584
4.5394
4.51837
4.54986
0.193529
4.49091
0.190831
0.199208
4.46093
4.38981
4.55947
0.19964
4.10955
0.184777
0.194585
4.20687
4.11873
4.22938
0.191075
3.94943
0.169106
0.180063
3.77926
3.73956
3.91323
0.177848
3.87667
0.159517
0.167802
3.75698
3.75533
3.89712
0.164126
0.432777
0.565797
0.436243
8.86432
11.3152
8.89296
11.0725
1.47103
2.32943
1.34508
9.07395
10.5432
8.99207
10.0423
2.9659
0.344457
0.444799
2.71901
3.23125
2.55333
0.326237
5.06937
0.246399
0.240132
4.58551
4.9387
4.58567
0.243157
5.27611
0.250024
0.266474
5.30473
5.16804
5.46859
0.263921
3.90838
0.185502
0.199695
4.19319
4.08101
4.18003
0.183992
4.13289
0.200276
0.183478
4.2874
4.32205
4.0348
0.18903
4.25935
0.200463
0.196593
4.32977
4.30568
4.26558
0.194679
3.993
0.182923
0.182317
4.21049
4.139
4.08407
0.175895
3.62038
0.160044
0.157533
3.90157
3.85722
3.67785
0.152898
0.420133
0.505962
0.466589
8.37256
9.83016
7.14189
6.79205