/*--------------------------------*- C++ -*----------------------------------*\
  =========                 |
  \\      /  F ield         | OpenFOAM: The Open Source CFD Toolbox
   \\    /   O peration     | Website:  https://openfoam.org
    \\  /    A nd           | Version:  10
     \\/     M anipulation  |
\*---------------------------------------------------------------------------*/
FoamFile
{
    format      ascii;
    class       volScalarField;
    location    "4.7";
    object      omega_0;
}
// * * * * * * * * * * * * * * * * * * * * * * * * * * * * * * * * * * * * * //

dimensions      [0 0 -1 0 0 0 0];

internalField   nonuniform List<scalar> 
12920
(
132.349
112.955
101.625
100.84
99.7582
89.1552
79.337
74.0839
66.7982
61.2635
55.9992
52.3164
49.9989
48.4074
47.1871
45.2579
43.3212
40.8035
39.6383
38.2111
175.963
183.845
153.833
105.874
89.325
85.2764
82.6407
82.1237
79.8571
74.5627
67.1849
62.7894
60.1384
59.3209
58.9058
58.4079
58.0292
57.4234
57.1162
56.2851
235.166
196.828
168.292
118.405
102.873
95.9031
88.0261
84.6573
76.8209
71.9553
66.1453
63.463
61.1702
60.3633
59.4197
58.7302
58.4083
58.1404
58.1021
57.7428
142.391
201.52
159.77
115.24
103.318
92.2883
83.1223
76.7552
70.9446
66.9388
63.4445
61.2852
59.3662
58.0516
56.8542
55.9379
55.5847
55.6467
56.0679
56.5518
314.177
264.45
211.423
145.412
116.915
102.717
95.0459
84.8208
78.3585
73.1682
68.6609
65.6844
62.9386
60.6315
58.2765
56.2908
55.1376
54.5196
54.5047
54.7862
351.913
262.645
198.386
164.623
134.302
124.915
111.795
103.156
88.3285
77.6369
71.6633
68.9493
67.0536
65.0546
62.499
59.4263
56.3751
53.676
52.2124
51.905
371.266
259.971
205.56
170.281
135.564
121.724
102.364
89.8747
79.5183
73.9027
73.5723
72.979
71.4417
69.124
65.7666
62.2705
58.2336
53.9126
51.0953
49.1306
199.621
233.989
215.394
174.554
133.407
116.425
176.756
136.207
127.617
126.914
126.955
122.832
118.046
112.728
70.0643
64.1367
60.1822
55.8329
52.3679
48.6531
208.2
177.636
148.203
135.551
112.287
175.14
306.845
195.696
185.123
195.224
198.755
193.863
190.348
175.503
106.465
62.6095
60.5873
57.5059
54.7109
49.4821
136.887
199.166
194.591
147.019
107.894
138.924
220.88
173.038
168.825
170.955
175.691
176.512
169.756
156.823
98.2354
61.5295
59.5099
57.6234
56.3126
52.107
107.217
213.963
219.353
208.999
173.493
246.805
315.655
198.613
201.914
193.604
191.278
185.91
176.076
169.052
109.672
63.7989
59.9121
57.9988
56.8589
53.2374
232.948
309.328
262.594
187.892
140.503
208.203
292.042
219.444
219.816
186.108
178.337
181.225
178.364
170.694
108.528
61.9514
57.7372
56.4145
55.937
53.5334
119.602
227.345
219.37
176.762
136.207
119.937
181.294
156.01
147.534
129.818
124.575
123.771
121.695
115.372
67.3975
61.1821
57.0833
54.6481
53.9488
52.2556
237.79
251.263
202.705
157.2
134.152
126.618
113.594
109.454
103.533
99.5242
94.055
86.4507
78.6002
71.501
66.4652
62.0195
58.5498
55.2766
53.2744
50.8794
108.449
161.204
196.336
174.182
149.374
139.343
128.246
123.218
115.428
109.021
100.259
89.3775
79.1007
70.289
65.0134
61.3278
58.6173
55.8333
53.6138
50.654
99.3421
157.08
160.837
149.719
144.022
139.388
129.34
124.16
116.03
106.215
93.2368
80.4847
70.0854
61.8942
57.8414
55.4555
54.3825
53.0604
52.0555
50.031
59.9848
123.584
133.215
131.747
123.549
116.24
109.112
105.885
101.005
90.6677
77.9945
67.4372
60.5968
56.712
53.995
51.4182
49.7763
48.884
48.572
47.8844
41.2308
108.365
132.645
132.274
127.012
121.387
111.576
105.356
100.727
93.2478
80.767
68.5929
60.9848
57.3551
54.3693
51.0391
47.5319
45.2646
44.0388
43.8406
102.665
153.306
148.927
130.682
106.972
99.3876
92.9841
86.9765
78.9944
71.6739
64.5711
60.4899
59.7015
60.3234
60.0288
57.2298
52.251
48.2997
45.1515
42.8166
65.3323
114.03
99.9754
90.4971
81.8094
76.2446
68.903
66.2628
60.7382
57.2042
53.6962
53.2057
53.4973
53.4742
52.5732
49.5649
47.2144
44.1953
42.7919
39.7152
39.1688
55.7711
56.4787
60.8485
61.5227
53.9205
44.6766
41.0453
38.3982
36.4303
33.5875
31.8967
30.681
30.0807
29.5988
28.7764
27.9479
26.8056
26.3322
25.2565
364.384
123.539
76.3263
62.5708
53.2731
50.3201
46.366
45.7578
44.5276
43.513
41.1132
38.269
35.3989
33.41
32.3516
31.612
31.2445
30.7173
30.4001
29.8807
148.25
123.109
81.8407
60.2437
51.3119
49.2778
44.5331
42.2688
38.9909
37.5195
35.5984
34.0027
32.5167
31.2463
30.4945
29.82
29.4656
29.0702
28.9923
28.9543
149.53
123.789
81.3989
64.5719
56.4351
51.2435
45.6537
39.3671
35.0749
32.2335
30.91
30.2687
30.0009
29.7028
29.4326
29.1339
28.835
28.4183
28.2977
28.4718
216.169
145.546
110.818
87.2339
71.4838
62.2826
54.331
46.5042
40.0049
35.6872
33.3171
32.2795
31.7069
31.2745
30.6895
30.084
29.2099
28.2414
27.6078
27.6817
276.71
154.16
127.828
98.3692
73.9037
65.0592
55.1489
50.8776
44.6193
39.6493
36.5453
34.7688
33.4589
32.5313
31.5031
30.5768
29.4356
27.8824
26.5093
26.0793
209.5
153.14
114.458
92.593
73.7367
61.6055
50.7729
44.0444
39.2919
37.2448
35.8708
35.3938
34.2089
33.0741
31.9007
30.9003
29.7268
28.0806
26.6164
25.2005
189.992
177.102
128.182
97.718
75.307
59.5765
62.0517
50.3891
43.7505
39.0774
38.303
37.4878
36.324
34.5489
31.2176
31.0941
30.7691
29.4119
28.0669
25.7885
171.419
132.737
99.2939
78.6778
62.4403
59.482
60.7922
51.623
44.2327
40.9375
39.3696
37.0626
35.3461
33.611
31.3331
30.5033
31.2178
31.2183
30.7663
28.1424
239.318
121.146
90.6758
71.0791
60.725
52.7474
53.9419
49.7427
42.4954
40.4667
38.7175
37.2917
35.8232
34.1175
31.7501
29.9675
30.3574
30.6646
31.0601
30.3264
113.309
131.198
121.287
96.4833
76.7699
79.8109
76.2195
55.5674
42.2634
39.7024
38.604
37.4355
34.3705
31.6719
29.3523
28.551
28.7583
29.1479
29.9123
29.7496
162.305
188.171
131.506
79.4038
62.7738
67.1528
67.8815
54.7523
45.5056
41.6535
35.6118
33.9412
33.493
33.432
31.8462
29.6641
28.6106
28.1561
28.2151
28.1398
166.035
171.17
124.484
78.6901
63.8452
59.938
62.4819
55.4888
50.1277
45.6766
41.7438
40.6062
40.1888
39.039
34.6487
32.1262
29.6028
27.7377
26.9787
26.497
308.475
145.38
102.17
77.765
68.9584
65.492
57.4348
53.4062
49.2082
47.4551
45.75
44.2103
41.8709
38.7701
35.4332
32.4694
29.9272
27.9298
26.473
25.72
230.634
144.951
127.409
97.0472
78.8073
70.7982
61.5654
57.44
53.5286
51.3934
49.4249
46.9389
44.0876
38.9339
33.9451
30.636
28.7364
27.4531
26.5602
25.9368
109.816
130.892
114.216
94.347
80.8929
72.6609
64.3186
60.6686
56.8967
53.8539
51.0398
46.9844
42.5184
35.8381
30.9416
28.1215
26.8255
26.0786
25.7045
25.5883
93.4234
125.942
114.12
91.0025
76.7392
70.1372
66.2035
64.6742
61.978
57.7602
50.9149
41.5307
34.471
30.1561
28.056
26.6303
25.6118
24.6387
24.0956
23.9431
64.6241
101.164
110.25
107.262
94.1851
76.2028
65.699
63.9381
64.4529
65.8918
63.4803
49.0591
34.8825
29.5146
27.8596
27.3008
26.3904
24.5448
23.2395
22.5994
200.726
167.652
114.425
80.4558
66.5923
60.2471
56.4213
54.9062
54.084
51.8178
44.2601
35.5448
31.7716
31.1752
31.6571
33.1351
33.948
33.3477
30.8636
26.1333
77.9046
89.3899
64.8543
50.0473
44.0392
42.5005
41.4876
39.6152
36.4533
33.7907
32.0997
31.2059
30.3975
29.0638
27.2698
25.304
24.1232
23.9747
23.7643
22.4674
61.558
83.1354
80.1301
73.8103
69.9573
58.716
47.581
43.0832
40.493
38.6912
36.7797
35.5284
34.5223
33.5863
32.6675
31.4779
30.5343
29.2804
28.731
27.3963
170.118
131.165
81.631
55.7675
48.8113
43.5264
39.1572
37.9605
35.8007
35.1836
33.3467
32.2236
30.7894
30.2572
29.7785
29.6142
29.4622
29.3857
29.3391
29.2504
132.643
140.582
90.3841
54.1997
45.0454
39.5912
36.2967
34.0545
31.6739
30.8289
29.4821
28.8236
28.0127
27.6291
27.2981
27.1497
27.0733
27.0677
27.0821
27.0699
275.065
176.423
82.7505
54.346
46.8749
40.2688
36.7855
32.1163
29.369
27.5109
26.7647
26.4373
26.3234
26.2882
26.2355
26.1953
26.1186
26.0891
26.124
26.2657
284.169
133.535
80.1094
59.6338
53.8275
47.3807
42.1064
36.3563
32.1373
29.2652
27.9601
27.4589
27.1458
26.9472
26.6127
26.3148
25.889
25.5337
25.3832
25.4754
189.192
130.663
85.1148
66.241
56.261
50.6869
43.2618
39.2864
34.4152
31.3987
29.7917
28.9537
28.2737
27.7121
27.0346
26.3524
25.6016
24.8028
24.2314
24.1006
220.956
166.068
90.1268
65.9254
54.488
48.4131
40.5198
35.2775
32.4258
30.7473
30.2937
29.924
29.1645
28.4734
27.6036
26.7681
25.8089
24.7751
23.9565
23.3156
174.215
145.999
94.1966
67.8914
53.7893
45.891
45.2297
39.5044
35.087
33.3128
32.3717
31.6909
30.5434
29.5159
28.7459
27.995
27.1398
25.8524
24.9196
23.6966
212.439
139.855
85.9618
59.9387
46.4866
44.6933
44.1149
39.7386
36.4548
34.9472
33.8264
32.4025
31.195
30.1694
29.8718
30.0446
29.3005
28.1617
27.2223
25.1702
170.497
131.032
85.6188
55.8678
45.7135
41.088
42.8776
39.1077
35.9221
34.9874
37.4174
41.0146
39.2144
35.08
32.8732
31.1048
30.3699
29.6643
29.1878
27.54
250.475
160.485
125.24
82.333
57.4716
50.522
46.5336
40.0646
35.6142
33.9762
94.2885
65.3443
33.4924
29.1263
28.2909
28.6663
28.7841
28.9065
28.8913
28.1073
205.341
191.793
152.561
75.307
50.3177
46.7848
47.0863
41.3343
36.6128
33.3674
30.566
29.371
28.747
28.2691
27.7593
27.3514
27.0602
27.0707
27.1936
26.9074
151.573
184.559
141.524
72.5317
54.1119
50.4407
48.4913
42.0917
38.1481
34.8641
33.3927
32.6377
31.9094
30.7043
28.7839
27.2772
26.2269
25.5511
25.3776
25.1576
213.52
168.787
104.41
69.0965
60.5003
56.1423
47.9006
43.8397
40.22
38.6557
37.1508
35.4985
33.5671
31.253
29.1582
27.2585
25.8693
24.9077
24.3902
24.2524
182.847
185.12
144.972
98.1975
74.1042
62.7892
52.8954
48.0097
43.7765
41.3431
39.0669
36.7458
34.2351
30.941
28.1797
26.2884
25.1759
24.5168
24.1401
24.0887
365.589
182.485
125.374
94.6458
77.0443
65.3625
55.7744
50.7767
46.0774
42.7009
39.3673
35.8841
32.5679
28.8341
26.3756
24.8569
24.1323
23.7521
23.5996
23.6751
108.311
141.186
114.156
83.2141
67.0393
60.2044
54.6241
52.8451
48.9851
44.6766
38.2513
32.3992
28.2802
25.8351
24.5052
23.6056
23.0077
22.6158
22.4236
22.4632
100.262
136.634
119.138
100.342
85.4253
71.1168
59.803
57.6739
55.8507
53.3559
45.3817
34.6218
28.2572
25.5878
24.3887
23.6897
22.9964
22.2574
21.7696
21.7315
133.911
149.605
115.735
72.0099
59.0566
53.9001
49.9417
48.3324
44.9125
39.8341
33.5789
29.9812
27.8619
27.2816
26.9103
26.8349
26.7132
26.1818
25.103
23.6101
155.016
130.633
75.7819
52.5677
50.3347
48.0144
46.7952
42.8514
39.3827
36.1032
33.8413
31.875
29.8014
27.211
24.8749
24.0803
24.1546
24.2184
23.7811
21.2197
86.9312
91.5177
86.4575
78.2902
72.3827
59.3406
48.0681
42.9019
40.657
38.723
37.338
36.0274
34.8895
33.7706
32.7204
31.5027
30.6166
29.3198
28.65
26.8844
219.282
157.426
98.2937
60.6365
53.0536
42.5768
40.1192
36.2854
35.5234
34.1207
33.7089
33.2279
33.1849
33.2258
33.3517
33.5507
33.7534
33.9448
34.0655
34.0716
226.42
204.618
120.801
60.5812
48.2556
38.667
37.1062
33.0293
32.1609
30.4944
30.3094
29.7613
29.826
29.7791
29.9404
30.0641
30.2856
30.3853
30.4476
30.3721
606.294
293.15
114.462
59.5097
48.8145
38.9107
36.9724
31.5725
30.3762
28.2466
28.3053
27.9382
28.233
28.2784
28.541
28.6522
28.8637
28.9578
29.0867
29.1137
170.841
173.434
92.1065
56.9711
52.9821
42.8793
40.3682
33.8639
31.8839
28.995
28.848
28.2617
28.4065
28.2647
28.318
28.2381
28.2252
28.1812
28.2086
28.2943
180.218
125.129
84.0125
59.528
55.8837
46.3231
41.526
35.8144
32.9528
30.3228
29.9801
29.2282
29.0971
28.6604
28.3462
27.8893
27.5723
27.2234
27.0711
27.0733
388.458
123.432
83.2241
57.9847
54.5247
45.4485
39.8612
33.8763
32.6361
30.5678
30.9924
30.4028
30.2525
29.6364
29.0596
28.2943
27.6511
27.0392
26.6468
26.4551
265.25
134.665
88.0372
58.9048
51.8053
43.8567
41.8944
37.4635
34.5111
33.7584
32.8284
32.5035
31.5327
31.0016
31.5672
30.1527
29.0473
28.006
27.3353
26.7984
372.201
140.349
86.7607
56.1582
45.7695
42.6089
42.2014
38.2379
36.3208
35.9132
35.034
34.2901
33.4505
32.9491
33.3753
33.3239
31.5704
30.0316
29.0379
27.9543
236.64
146.7
94.7693
56.3982
44.6271
39.8389
41.2049
37.8275
36.6101
36.3519
39.3527
41.5168
39.558
37.6018
36.5904
35.1777
33.5829
32.1424
31.1967
29.6749
238.784
181.952
145.209
81.7256
53.5816
43.4779
40.0984
37.4844
36.0152
35.6626
61.3354
51.3016
36.1787
33.8942
34.0211
33.8196
33.0252
32.217
31.6756
30.4847
196.3
193.329
168.549
85.4757
51.5311
44.0083
43.1328
38.3936
35.3242
33.4589
32.2084
31.6103
31.3545
31.1993
31.648
31.4268
30.9466
30.6422
30.4826
29.8648
128.657
160.652
135.489
71.4632
57.0617
50.4522
45.6292
38.3553
35.4845
33.5036
33.0562
32.3982
31.7405
30.7846
30.5502
29.461
29.0199
28.7526
28.7403
28.6453
168.446
177.455
112.794
68.0167
63.0379
54.3217
46.5271
41.7123
38.8874
37.2965
36.0285
34.3961
32.9412
31.1602
29.8569
28.6744
28.044
27.7073
27.6754
27.8504
172.447
172.58
150.983
105.881
78.7078
61.7468
52.4179
46.1547
42.1464
39.2419
37.2377
34.9352
33.0346
30.7526
29.1841
28.0164
27.4526
27.2422
27.2317
27.5237
215.448
155.35
131.853
96.4986
79.7624
63.5325
54.8973
47.9376
43.5106
39.5853
36.9061
33.9459
31.7797
29.501
28.2003
27.2539
26.8763
26.761
26.7696
27.1158
196.222
176.726
118.916
78.0861
66.5493
56.1625
52.1492
47.7158
43.7055
39.1386
35.0152
31.4883
29.2245
27.6662
26.8157
26.1941
25.9006
25.823
25.8335
26.1418
117.352
154.96
131.25
94.1518
77.8325
64.1443
57.25
52.7557
48.7243
43.0724
37.3316
32.5114
29.5711
27.8753
26.912
26.1961
25.7429
25.5578
25.5371
25.9719
264.983
139.55
98.7138
65.9418
59.9176
50.6303
48.541
43.6173
40.3924
36.0858
33.2813
31.6229
30.2694
29.4628
28.7247
28.2472
27.9313
27.7518
27.6353
27.8297
146.227
81.513
61.2046
52.9074
54.7793
49.7733
47.927
42.1834
38.9781
35.063
32.5885
29.3615
26.7161
24.5306
23.8384
23.7784
23.6471
22.9462
21.0596
19.5952
85.2637
92.5615
84.9977
76.356
65.1447
52.401
44.2802
40.8461
38.7786
36.5736
35.0648
33.5366
32.3573
31.3282
30.3396
29.1213
27.8666
26.3357
25.2256
23.6415
266.214
201.527
125.196
71.0005
71.4838
48.9845
56.7049
42.4224
48.9518
41.1363
45.7556
42.3074
45.5802
44.3446
46.4757
46.2215
47.4628
47.31
47.525
46.9912
431.534
337.833
168.02
73.7196
66.6327
45.4539
52.2213
39.2728
44.3302
37.2242
40.9422
37.6795
40.4101
39.1228
40.8939
40.4458
41.3951
41.1085
41.2342
40.8626
339.747
227.623
132.813
70.49
65.8521
45.9272
51.5479
37.6214
41.7992
34.9569
38.3285
35.5925
38.1437
37.1877
38.7927
38.5212
39.4205
39.2878
39.5084
39.3685
270.271
213.383
124.602
68.3449
70.7606
47.7812
54.1885
39.2955
42.9328
35.5742
38.8348
35.6528
38.105
36.8163
38.2924
37.7858
38.5566
38.3079
38.5042
38.5231
349.057
143.956
102.043
64.3161
72.477
50.1354
54.3644
40.249
41.5868
36.3595
38.6193
36.6702
38.1421
37.1795
37.7332
37.2739
37.5647
37.3345
37.3939
37.5083
254.727
132.578
95.6614
62.1976
73.7432
49.9109
52.7366
39.8802
41.8847
36.9244
40.4467
37.9339
39.9291
38.4429
38.8193
37.6814
37.6543
37.0884
37.0555
37.1491
278.353
153.151
104.362
61.7465
68.4201
51.3995
47.6342
41.5692
41.3891
39.5903
40.5198
39.5866
39.8804
38.9838
42.4647
40.1688
39.003
38.1524
37.7378
37.6714
205.805
164.991
106.732
61.2022
59.5754
48.3707
50.7887
45.4249
46.0812
45.6551
45.5631
44.8414
44.4589
43.9882
44.369
43.6928
41.2519
39.7277
39.1914
38.827
333.368
156.133
104.209
61.3306
54.6741
44.6151
48.3094
48.8093
48.9719
47.5632
47.7435
47.9344
47.9466
47.4833
46.6253
45.2897
42.9318
41.462
40.7528
39.9589
298.866
230.306
164.371
81.3098
66.1109
46.9914
47.0353
48.4525
48.0122
45.7352
47.3756
47.161
47.1371
46.8487
45.9267
44.4645
42.5783
41.5246
41.0754
40.3154
359.348
230.459
181.414
88.6289
62.8466
48.9126
50.3971
47.0171
45.408
44.0271
43.7207
43.8553
44.4263
44.4952
43.9862
42.594
41.15
40.5884
40.3133
39.9368
215.178
206.066
158.1
74.7703
78.5972
59.9445
51.4634
42.6986
41.9447
40.4536
41.0708
40.2946
40.3205
39.6197
41.8747
40.2053
39.6398
39.3764
39.2703
39.3942
365.621
236.521
121.062
68.2507
77.3784
56.2293
55.0966
46.8716
46.9386
44.3249
44.4275
42.8398
42.278
40.8096
40.0829
39.1333
38.8154
38.648
38.6399
39.2854
504.156
259.433
182.267
102.107
95.6386
65.9797
65.4339
52.989
51.2192
46.1448
45.566
42.9098
42.076
40.1608
39.4222
38.3134
38.0961
38.078
38.1484
39.1159
341.676
161.7
139.103
90.7767
89.8025
64.6941
64.8731
52.8395
52.3859
46.4122
46.2663
42.9873
42.3851
40.1145
39.6035
38.3879
38.1639
37.9793
37.8914
38.8371
411.166
161.35
128.114
76.4402
83.3188
60.9646
65.763
52.7117
53.2363
45.4325
45.0388
40.9687
40.6427
38.4818
38.2059
37.2118
37.1722
37.0464
36.9885
37.7932
178.675
168.602
152.706
91.1088
87.8564
65.1946
69.3894
55.8189
56.2838
47.0045
47.1198
43.2277
42.7964
39.8991
39.2754
37.8118
37.6245
37.2688
37.0056
37.9974
160.78
138.523
119.856
69.4561
81.6718
54.8266
64.8355
47.2057
53.4551
44.4726
48.4
44.0031
44.8836
42.2839
42.1812
41.018
41.1257
41.1113
41.1271
42.161
161.551
94.2025
61.6625
52.8881
54.7203
48.0828
45.4436
38.7887
35.3261
30.8299
27.708
25.0822
23.8603
23.0522
23.0865
22.8809
22.2892
21.1341
20.0633
19.9633
36.1791
35.1383
75.1028
35.48
37.7058
35.8257
86.6688
40.6527
76.8035
71.2943
39.3419
42.3866
86.6023
72.9455
90.2925
33.4758
31.4431
34.7533
98.9742
33.1508
32.1256
81.5758
30.9475
29.8653
99.806
80.9177
31.8634
31.1266
213.012
242.31
197.443
76.9883
64.1377
63.1593
59.2089
184.221
184.696
169.567
58.5598
50.8513
56.6865
48.6178
190.479
169.659
171.986
49.3738
46.2324
47.4633
45.8576
200.071
171.85
174.222
45.1553
43.9896
45.2966
43.2067
193.964
176.704
181.505
43.3415
41.3375
42.5159
40.9174
192.015
181.247
175.076
40.7783
39.3557
40.3896
38.7561
178.642
171.463
160.192
38.9477
37.3095
38.3762
37.249
151.74
157.235
132.441
36.8772
34.7216
36.9376
34.6322
182.421
242.448
186.258
62.4291
58.9199
69.4219
59.4973
167.656
182.699
189.586
55.7706
47.9181
55.5224
47.1811
170.539
192.177
192.973
46.7457
44.8874
45.7203
43.8312
173.905
191.298
188.845
44.4551
42.9666
43.5587
42.5423
177.02
186.296
180.591
42.4132
40.9431
42.3328
41.1589
172.632
180.479
178.196
40.3953
38.8621
40.7068
39.3927
159.587
175.328
167.207
38.5165
37.3102
38.8268
36.6469
133.281
165.366
150.175
36.973
34.6497
35.9831
33.0395
209.5
330.862
239.028
94.1028
70.8144
97.5171
74.6137
200.561
228.664
219.88
62.8822
48.3349
66.1762
50.9514
196.802
217.866
194.793
46.3482
44.0889
49.0353
46.5254
191.923
186.358
185.099
43.6718
42.0747
45.5148
40.6098
187.232
186.593
184.68
41.5887
40.4116
39.5338
38.1689
178.856
183.088
179.44
40.1562
38.8978
37.9352
37.015
170.435
178.026
173.443
38.1723
35.8145
36.7091
36.2681
151.752
171.861
151.035
35.3207
32.9087
36.1668
34.5693
224.638
284.276
230.655
82.7816
67.0495
79.4437
66.9864
220.317
231.238
234.349
61.673
51.674
63.2353
57.5443
196.516
232.925
214.97
50.2794
47.9381
56.6362
54.8904
177.313
200.864
175.575
46.6506
40.7369
53.5787
48.0862
181.171
174.727
178.011
39.5554
38.0986
46.4888
44.5255
179.524
180.636
183.914
37.9019
37.512
44.401
44.6874
172.895
184.717
181.254
37.4893
37.6235
44.8061
44.787
149.343
181.938
165.759
37.6064
35.5935
44.567
41.742
55.523
53.5992
52.3475
46.6405
43.0052
43.8198
42.2175
45.5968
50.4758
44.0113
41.3054
38.4247
40.8285
37.5067
41.5994
42.9998
41.4265
37.4323
35.7706
36.9386
35.9644
39.9025
40.9522
39.2703
35.5442
34.7611
35.6989
34.9737
37.5625
38.6924
37.2977
34.3378
33.0057
34.9411
35.2987
35.7493
36.8666
35.5902
32.7102
31.7114
35.3099
34.8673
33.9763
35.2563
34.2823
31.3836
30.4398
34.5147
33.42
32.4026
33.9959
32.8144
30.2079
29.5276
33.0563
32.1266
52.2775
59.3105
53.0197
44.4696
42.2068
46.602
42.2585
43.4838
49.8763
43.1086
40.6081
37.272
40.5824
37.0509
40.8515
41.8416
40.0479
36.7254
35.7767
36.3543
35.1857
39.1536
39.6796
39.1281
35.5343
35.7681
35.2332
49.0425
37.6777
39.1623
38.6442
36.4436
38.49
51.1828
52.2666
36.1698
38.2809
36.5024
38.7717
38.4268
51.0266
40.6622
34.4797
35.656
33.136
37.6745
34.8782
37.275
31.5295
32.7969
32.4986
30.7088
34.1329
32.4731
30.6628
28.9472
61.7134
78.1232
64.0762
51.2536
44.6995
52.3931
46.0018
43.9787
57.7631
46.0687
42.3396
37.3707
43.6934
38.5351
40.1831
44.4315
41.983
36.4852
35.1518
37.5058
35.2743
38.7388
40.9437
36.6177
34.7932
51.3258
34.422
31.8739
37.8208
35.6349
34.2009
53.8494
53.2188
31.2702
30.0736
35.2837
33.9402
33.0675
48.9304
35.171
29.7807
28.965
32.116
32.8057
32.3563
32.6446
29.2589
28.7281
28.2038
30.4448
32.2497
31.6556
28.7952
27.977
28.0676
27.5311
58.7697
65.5525
59.0686
50.3237
45.2459
51.329
46.9084
46.7956
56.192
51.3325
43.3705
39.0136
44.9667
41.1597
42.9756
50.1919
47.8053
37.9917
35.4067
40.0947
37.314
36.6453
46.2406
41.7763
34.4181
31.6192
36.174
33.7232
34.1611
40.5816
39.0925
30.9947
29.881
33.1772
32.3948
33.5425
38.9685
39.0367
29.6559
29.1614
32.2472
32.0536
33.4878
39.0243
38.7698
29.0424
28.7192
31.944
31.407
32.5664
38.4508
37.3397
28.5884
27.881
31.1094
30.0062
41.1289
42.2812
40.5498
42.0033
38.9109
40.9258
38.5743
37.3416
39.2814
36.5528
37.9757
36.3929
37.6222
36.108
35.0986
36.0978
35.3275
35.8075
35.2012
35.9107
35.6213
34.2262
35.1098
34.755
35.1648
34.5591
35.5097
35.6568
32.6618
34.9026
35.902
34.2523
33.5203
36.1291
37.4139
31.5075
36.0085
35.5918
33.3589
32.679
37.4563
36.8569
30.3593
35.1831
33.9707
32.4477
31.9278
36.5123
35.6176
29.5497
33.5874
32.6206
31.8251
31.348
35.3477
34.6914
40.5272
43.8613
40.3088
41.0697
38.4051
40.3779
37.7149
36.3603
38.9299
36.1013
37.4486
35.9923
36.9692
35.6225
35.1706
35.5454
34.7096
35.8137
35.5142
35.3743
35.1331
36.122
34.9937
35.0113
34.8235
35.5856
34.9373
34.9159
54.1548
38.7033
44.7258
38.6502
47.3609
40.3227
50.5438
40.2269
66.4517
44.4573
42.4038
40.6537
65.1787
44.284
35.9368
39.4473
32.2887
39.7962
37.5436
40.4476
35.222
33.0979
31.3474
29.5108
36.949
35.5256
34.5362
33.3392
41.8162
47.8162
43.1172
40.6254
38.0528
42.2477
39.2402
36.3106
41.3372
37.1998
37.2611
35.6153
38.1814
35.6945
34.572
36.3011
34.2355
35.2895
34.7929
35.0956
33.6354
40.7742
55.5643
34.1251
39.9317
36.5702
251.229
33.9158
45.1925
93.3531
40.6245
212.602
40.3796
200.291
45.9778
36.9201
29.5754
28.7802
63.7557
38.3704
30.8969
30.3297
29.5929
28.556
28.0586
35.5358
32.5364
30.2177
30.012
28.3951
27.9309
27.4749
32.2352
32.046
29.9674
29.8624
42.9113
48.6338
44.6691
43.2828
39.582
45.6618
40.8887
37.5528
42.8169
39.1632
38.4021
35.6746
39.1675
36.0766
34.2157
38.1504
35.5122
34.9882
33.3161
35.2905
33.3623
31.0848
34.5646
32.6165
32.8046
31.5664
32.8312
31.9101
29.5842
32.1889
31.5327
31.2804
30.6805
31.7047
31.2972
28.8747
31.3893
31.1234
30.5371
30.2014
31.1609
30.8232
28.4017
30.9968
30.4002
30.1186
29.9107
30.6513
30.1349
27.6957
30.1343
29.1786
29.8336
29.6818
29.8997
29.2535
39.128
41.3052
38.8576
46.9068
43.2224
45.86
44.3099
36.8005
38.0077
36.803
42.2989
41.5414
43.8454
43.5129
35.9426
36.6761
36.4924
41.74
41.7544
43.5786
43.1235
35.314
36.386
36.4769
41.5625
41.0048
42.8631
42.5666
34.4411
36.8785
37.8477
41.0396
40.7094
42.6724
42.7805
33.6586
37.8494
37.3334
40.4742
39.9517
42.7267
42.8409
33.04
37.0855
36.4463
39.9429
39.7283
42.8182
42.6218
32.3911
36.2408
35.5739
39.5809
38.9807
42.5079
42.1267
38.6388
40.143
37.8814
44.8768
44.0926
43.1358
43.3934
36.7212
37.304
36.3294
43.8504
43.7061
43.4195
43.3777
36.398
36.1519
35.8688
43.7236
42.9851
43.0827
42.0456
38.0312
36.2636
58.4076
42.737
42.9476
41.8813
45.056
41.5416
60.0865
56.9215
43.4025
43.7872
45.9767
45.7363
40.152
53.5801
42.2482
43.6803
43.6981
45.1298
43.5987
38.0243
39.842
36.3731
43.6636
43.3194
43.5034
43.0102
36.3799
35.8821
34.8463
43.1734
42.6248
42.875
42.4442
38.0895
41.8161
39.1656
43.1877
43.4592
45.1736
43.7175
36.2644
38.2247
36.0656
43.3789
43.0929
43.0405
41.6677
35.5019
35.5507
34.2758
42.7255
41.5981
41.3918
40.1226
59.6919
33.86
32.9925
41.3455
44.0383
39.7664
39.1739
57.3271
32.7816
32.1734
44.7784
44.5736
39.0881
38.8766
38.0433
31.9853
31.5902
43.9005
42.2754
38.8847
39.5678
34.1068
31.5432
31.4817
42.2964
42.1143
39.7497
39.9548
33.6779
31.4732
31.3406
42.0537
41.9114
39.995
40.0491
39.5033
45.5289
40.4464
46.6485
43.6644
49.1153
42.5714
35.9231
38.777
35.9204
42.7303
41.0281
41.1007
39.2549
33.8894
35.2186
33.5437
40.7198
39.6338
38.9441
37.8314
32.4389
33.1095
32.4111
39.3045
38.7729
37.5995
37.4749
31.7237
32.2582
31.9125
38.6948
38.5501
37.5146
37.222
31.3991
31.7797
31.4481
38.578
39.1615
37.1307
36.963
31.2441
31.298
30.8452
39.2442
39.373
36.9772
36.7333
31.0605
30.6494
30.0353
39.403
39.5547
36.6919
36.4522
46.3565
49.8678
48.9961
73.3621
65.8848
75.0363
76.6918
45.3899
48.6424
48.5488
65.583
71.2344
76.3516
78.1049
46.0031
48.7028
48.2122
73.5033
71.7759
78.8748
82.0082
45.3165
47.8332
47.4414
71.5141
74.8327
82.9011
85.1823
45.1654
47.5317
47.5188
76.4348
74.9966
85.6023
84.6057
44.3862
47.46
47.4077
74.976
76.7435
83.7329
80.9869
44.1839
47.3418
47.0984
77.7607
76.7858
80.8694
80.7992
43.0883
46.9794
46.3094
77.0205
77.689
80.8932
81.9609
48.8753
46.4751
48.3033
69.81
77.4323
67.0745
77.8722
48.8931
48.5097
48.6743
77.6742
79.3305
78.6701
80.797
48.007
48.4347
46.7329
80.3023
85.0013
82.4382
89.2435
47.4459
46.307
47.8123
86.2134
88.5729
90.6373
93.9691
47.9224
48.4819
48.3713
88.926
87.7238
94.6685
93.7936
48.0067
48.0514
47.943
86.6083
82.4243
92.0651
85.303
47.6064
47.892
47.5025
81.5012
81.2295
83.3238
81.6853
46.7257
47.386
46.6659
81.3448
82.3241
81.7371
82.0285
48.3846
48.9998
48.262
69.97
78.5098
73.2895
77.0612
48.3303
47.6604
46.4715
78.9419
80.3543
76.5337
76.0917
46.2313
46.2535
44.8032
81.8444
88.3308
76.5701
80.4916
46.8217
44.351
43.8792
89.5665
92.7426
81.6707
83.6228
47.4357
43.8688
43.8978
93.7605
94.0454
84.1568
84.5762
47.1162
44.0943
44.929
92.2961
85.2367
83.8205
79.9471
46.921
45.0299
45.09
83.1817
81.462
79.0289
79.0014
46.2579
45.1012
44.791
81.4764
81.9843
79.1877
80.0831
47.8571
52.6439
45.145
72.8698
74.9061
72.1652
65.3371
45.6177
43.8376
42.7887
74.2688
74.1443
65.3292
68.2666
44.3717
42.7204
41.7377
74.3067
76.8921
68.9392
67.576
43.7122
41.5858
41.7653
77.8546
79.7564
67.8768
70.3673
43.7348
41.8717
41.551
80.2949
80.7467
70.8723
70.6662
44.3811
41.4679
41.4078
80.2916
77.7379
70.8829
72.5061
44.4734
41.4771
41.2435
77.6407
77.9844
72.8803
73.127
44.2941
41.2321
40.7434
78.2335
79.9624
73.482
74.0714
40.2856
35.2879
41.5995
36.9673
37.7464
35.5205
46.1476
46.4857
35.206
50.5037
40.158
38.7622
35.6505
193.541
74.8559
57.9736
68.954
224.225
49.1415
91.1089
248.217
36.5045
34.9867
35.6252
35.5336
35.1496
35.0925
36.5376
41.072
37.5071
36.2386
44.6056
35.8532
47.2287
39.7738
48.0012
41.2386
35.8175
55.6053
35.904
202.732
40.7917
76.925
234.228
64.8977
79.7707
93.405
259.207
54.2711
56.6121
39.8417
50.217
42.5749
49.2065
41.7421
56.721
99.7449
62.5461
76.6313
205.765
65.2246
97.3288
185.552
97.7479
64.6259
75.4574
106.715
65.5325
87.8082
124.574
55.1948
39.3159
40.8273
48.2019
41.0396
51.687
50.8321
57.1742
43.0808
41.8909
52.1959
42.3901
57.0014
52.1164
100.285
214.133
69.3107
85.5612
98.6488
196.206
70.9049
98.0985
106.765
67.295
81.0892
86.8274
132.902
70.5439
45.2808
79.1039
40.5736
225.053
39.4024
238.9
46.2301
33.3214
33.666
32.7156
32.9638
33.3917
33.2349
32.3482
33.5107
33.0529
32.0328
31.3683
33.2737
33.4559
31.8263
41.1472
41.0371
61.2178
34.3469
245.559
33.9982
37.5394
46.2502
230.478
88.9056
43.1725
244.944
47.393
41.5414
33.3943
32.8586
33.5546
32.7231
33.2085
32.353
33.6329
33.7686
31.5996
34.0807
32.4036
33.8106
31.9542
33.9484
43.5634
94.0447
38.7961
139.904
39.8762
190.538
42.171
32.8598
32.7223
30.5334
30.9648
32.3381
33.2269
30.6074
32.4104
31.471
30.1775
29.9947
31.9171
31.9504
30.2838
46.3914
217.917
98.2026
43.3302
205.879
47.1772
43.0515
44.4586
134.215
96.2785
40.9864
185.647
42.9455
42.3827
33.368
31.2736
34.0128
31.6093
33.6848
30.9683
33.7881
32.9276
30.416
33.0257
31.3596
32.4791
30.6786
33.433
143.28
172.583
146.73
102.439
80.1383
100.402
81.3218
131.145
133.494
128.495
66.429
64.2866
66.2523
60.4704
125.885
126.931
128.01
60.3387
52.5078
56.3063
53.4035
127.586
131.039
131.942
50.687
50.841
51.8466
51.4947
124.486
131.5
130.164
50.0799
48.9428
51.0996
50.5213
120.627
128.716
126.769
48.6551
48.4259
49.8946
49.0919
114.932
123.736
119.996
47.3993
45.6909
48.0048
46.4282
102.151
116.972
106.314
44.8371
37.6536
45.5122
38.0338
167.257
153.344
146.517
94.3408
86.651
90.4472
72.4945
128.416
267.476
277.717
152.531
139.929
148.835
248.202
82.9408
184.55
187.194
95.1311
87.4239
90.7456
176.071
78.0788
186.085
169.21
85.0194
83.4181
78.1105
170.27
76.7569
199.164
184.916
73.7715
72.8577
77.1176
186.4
73.5839
195.79
186.506
70.1045
69.015
74.6866
187.207
71.1187
193.469
190.82
66.6491
66.0612
72.0284
190.72
67.6608
186.133
185.293
64.8678
63.5987
68.7459
181.817
62.5637
170.738
169.336
60.327
58.5832
64.1362
164.768
93.4872
97.7337
85.0452
38.082
32.9672
38.2437
31.1774
133.401
154.387
142.284
72.8591
68.5343
87.5236
74.7158
105.247
203.499
215.864
122.767
109.326
120.443
196.129
78.1211
168.469
167.53
87.6248
81.8971
82.545
165.384
70.9886
169.781
169.327
74.2811
73.8242
71.9338
171.538
71.0522
171.601
174.158
72.2212
71.6042
71.1521
174.736
70.2136
176.793
176.167
70.1845
69.6395
70.707
176.348
66.9447
175.879
175.267
68.5714
67.1583
68.3299
174.895
64.0154
166.405
169.944
64.6724
63.9506
64.6462
167.116
61.2691
153.68
158.43
61.9709
61.0274
62.2464
156.063
86.6204
105.629
95.627
37.9925
31.3296
37.9197
31.4257
204.782
251.162
210.701
141.833
108.959
147.019
113.005
154.012
267.619
316.932
179.331
150.002
183.304
268.306
86.31
196.869
203.366
94.0955
84.2602
96.5564
203.126
74.8299
201.894
208.36
74.1096
73.4604
75.7036
207.638
71.3176
192.348
193.603
71.6525
71.1818
72.0317
192.324
69.2934
189.598
192.417
69.9783
69.3351
69.6706
191.243
69.3612
184.306
186.602
68.3363
68.3518
69.3059
184.317
64.7368
173.514
176.379
67.7017
66.4394
66.5162
175.016
61.5878
167.482
170.787
62.4022
61.5707
62.149
169.067
97.3756
110.231
96.5963
37.8729
31.5948
38.9752
33.0246
182.205
192.944
172.404
112.985
95.8111
102.738
89.998
139.228
257.699
285.422
163.44
138.767
163.33
250.18
90.5291
219.116
218.347
95.997
88.858
96.2357
220.584
83.7292
217.102
226.986
81.3818
80.2294
84.7408
224.049
75.6589
179.533
188.518
75.5304
72.982
78.1156
178.37
67.267
179.89
172.476
66.7859
66.4121
68.1856
174.416
66.6107
181.069
178.807
65.9929
65.903
66.5436
179.061
67.449
176.657
177.114
64.8812
64.8296
67.1718
175.282
67.2389
168.603
168.56
64.4466
64.1432
67.4925
166.632
95.3138
106.829
102.037
42.0004
37.028
48.7202
47.5024
161.618
184.656
160.565
104.914
85.4517
105.144
84.0877
151.994
151.719
150.035
74.2878
69.9097
73.3064
72.3091
139.023
148.139
142.869
66.7913
64.6961
71.1032
68.3871
125.611
140.518
138.16
62.2904
58.5513
66.2719
66.4538
124.191
138.135
135.83
55.6494
54.3459
66.0341
65.7339
123.213
135.286