/*--------------------------------*- C++ -*----------------------------------*\
  =========                 |
  \\      /  F ield         | OpenFOAM: The Open Source CFD Toolbox
   \\    /   O peration     | Website:  https://openfoam.org
    \\  /    A nd           | Version:  10
     \\/     M anipulation  |
\*---------------------------------------------------------------------------*/
FoamFile
{
    format      ascii;
    class       volScalarField;
    location    "4.7";
    object      omega;
}
// * * * * * * * * * * * * * * * * * * * * * * * * * * * * * * * * * * * * * //

dimensions      [0 0 -1 0 0 0 0];

internalField   nonuniform List<scalar> 
12920
(
129.83
113.255
101.459
100.647
99.6895
89.3672
79.3808
74.0877
66.8168
61.2832
56.0104
52.3106
49.9776
48.3797
47.1698
45.2575
43.3362
40.8169
39.64
38.2012
176.736
185.033
154.398
106.246
89.4224
85.2372
82.5291
82.0024
79.7946
74.5889
67.2238
62.8072
60.1332
59.3022
58.8867
58.3907
58.0124
57.41
57.1053
56.2798
233.916
197.554
169.026
118.797
102.874
95.8251
87.9614
84.6049
76.8207
71.9623
66.1533
63.4576
61.1564
60.3441
59.4028
58.7119
58.3869
58.121
58.0853
57.7344
142.776
202.017
160.239
115.415
103.303
92.2838
83.1183
76.7591
70.9538
66.9457
63.4479
61.283
59.3626
58.047
56.8499
55.9301
55.5706
55.6287
56.0433
56.5347
312.464
263.431
211.004
146.007
117.075
102.68
95.0276
84.8362
78.3718
73.1787
68.6686
65.6885
62.9439
60.6425
58.2912
56.3003
55.1387
54.5119
54.4934
54.7703
346.129
263.7
198.267
164.515
134.31
124.799
111.727
103.174
88.4236
77.7027
71.6692
68.9285
67.0352
65.0489
62.5105
59.4516
56.4041
53.6972
52.2158
51.8967
365.705
260.974
205.084
170.18
135.613
121.725
102.467
89.9822
79.5611
73.8778
73.5169
72.9269
71.4158
69.1164
65.7767
62.2946
58.2761
53.9549
51.1236
49.1385
197.79
232.712
214.912
174.871
133.7
116.536
177.077
136.329
127.657
126.84
126.927
122.816
118.057
112.75
70.0934
64.1614
60.2087
55.8722
52.409
48.675
206.711
178.331
148.313
135.603
112.368
175.5
307.147
196.587
185.334
194.959
198.89
193.825
190.391
175.65
106.493
62.5834
60.582
57.5258
54.7541
49.5164
147.674
198.628
194.42
147.301
108.027
139.192
221.128
173.596
168.717
170.96
175.63
176.435
169.838
156.95
98.2594
61.5198
59.5047
57.6234
56.3231
52.1514
108.793
213.381
218.817
208.856
173.902
247.556
317.393
199.018
201.959
193.817
191.392
185.954
176.155
169.121
109.696
63.8112
59.9079
57.9927
56.8638
53.2751
233.687
309.582
263.399
188.388
140.835
208.795
293.307
219.719
220.023
186.856
178.215
181.194
178.464
170.838
108.617
61.9879
57.7412
56.3961
55.9264
53.5561
114.049
227.337
220.039
177.555
136.626
120.069
181.57
155.94
147.638
129.995
124.568
123.747
121.728
115.452
67.4638
61.2358
57.1158
54.6557
53.9529
52.2641
234.7
252.077
202.941
157.259
134.146
126.544
113.539
109.381
103.498
99.5125
94.0929
86.5319
78.6825
71.5656
66.5118
62.0601
58.5841
55.306
53.299
50.8921
115.789
161.293
195.897
174.331
149.37
139.237
128.155
123.143
115.4
109.036
100.341
89.4968
79.2168
70.3699
65.0532
61.3504
58.6373
55.856
53.6393
50.6656
98.8911
156.931
160.76
149.61
143.75
139.178
129.233
124.097
116.039
106.338
93.3734
80.61
70.198
61.9652
57.8705
55.462
54.3821
53.065
52.0649
50.0331
56.858
122.871
132.79
131.507
123.507
116.203
109.045
105.803
101.033
90.8229
78.1683
67.5637
60.6639
56.7464
54.0219
51.4399
49.7822
48.8809
48.5671
47.8784
41.6875
107.721
132.567
132.279
127.017
121.364
111.595
105.363
100.744
93.3755
80.9797
68.7691
61.0735
57.3942
54.4103
51.0874
47.572
45.2867
44.0442
43.8346
104.552
154.041
149.443
130.957
107.13
99.3695
92.9762
87.0426
79.0548
71.7507
64.6581
60.5147
59.6814
60.2991
60.0367
57.3166
52.325
48.3517
45.1945
42.8378
64.0228
114.633
100.41
90.6534
81.7779
76.2244
68.8688
66.227
60.7278
57.1877
53.655
53.1354
53.4302
53.4249
52.5657
49.6118
47.2475
44.225
42.8158
39.7307
38.489
55.8733
56.5557
60.6779
61.4404
54.0726
44.7506
41.0457
38.3936
36.4365
33.5994
31.8973
30.6712
30.0662
29.5881
28.7744
27.9523
26.8082
26.3335
25.2569
374.686
127.995
76.4996
62.569
53.262
50.2889
46.3055
45.6961
44.4742
43.4742
41.1047
38.2776
35.4104
33.414
32.3468
31.6047
31.2372
30.7105
30.3943
29.875
146.34
124.028
82.342
60.3072
51.2911
49.2631
44.5333
42.2616
38.9745
37.4972
35.5795
33.9898
32.5077
31.2388
30.4856
29.8111
29.4566
29.0598
28.9802
28.9436
146.653
124.489
81.5623
64.6127
56.437
51.2612
45.6743
39.3999
35.0893
32.2357
30.9
30.2543
29.9857
29.6903
29.4215
29.1242
28.8276
28.4108
28.2859
28.4579
225.836
144.285
110.174
87.3793
71.5984
62.297
54.3453
46.5386
40.0377
35.7017
33.3142
32.2681
31.6907
31.2608
30.6789
30.0781
29.2098
28.2421
27.6013
27.6696
264.2
153.44
127.129
98.3936
74.0542
65.0686
55.1459
50.8685
44.6367
39.6646
36.5507
34.7623
33.4472
32.5206
31.4951
30.5719
29.44
27.8927
26.514
26.073
208.589
153.932
114.276
92.6073
73.8567
61.6765
50.8095
44.0802
39.2812
37.2282
35.8453
35.3716
34.1965
33.0655
31.8942
30.8985
29.733
28.0922
26.6298
25.203
188.672
176.345
128.317
97.8418
75.4887
59.6668
62.0974
50.4208
43.7542
39.0457
38.2691
37.4587
36.3203
34.5475
31.2125
31.0871
30.7686
29.4289
28.0858
25.7981
168.572
133.102
99.3991
78.8139
62.5528
59.5692
60.7898
51.6622
44.2221
40.9039
39.3496
37.0517
35.3388
33.611
31.3315
30.4862
31.2009
31.2079
30.771
28.1658
244.844
121.065
90.612
71.1076
60.7434
52.7853
53.8831
49.8167
42.4743
40.4291
38.7082
37.2921
35.8158
34.1081
31.7376
29.9457
30.3367
30.6444
31.0451
30.3246
113.309
131.016
121.102
96.5546
76.7966
79.7911
76.2389
55.8151
42.2843
39.6777
38.5939
37.4321
34.3847
31.6697
29.3468
28.539
28.7434
29.1251
29.8935
29.7408
158.119
186.88
132.097
79.6869
62.7684
67.2084
67.9908
54.9016
45.5059
41.6861
35.6251
33.9232
33.4736
33.4221
31.8547
29.6764
28.6114
28.1468
28.2029
28.1307
167.779
170.517
125.716
79.0864
63.85
59.8748
62.4781
55.483
50.0909
45.6905
41.7422
40.588
40.178
39.0457
34.673
32.1512
29.624
27.7463
26.9776
26.4921
314.441
145.643
102.301
77.6933
68.8524
65.4311
57.419
53.3888
49.1923
47.4295
45.729
44.2042
41.8838
38.7997
35.4626
32.4951
29.9458
27.9443
26.48
25.7168
259.297
144.393
127.247
97.0283
78.7815
70.7585
61.5507
57.4114
53.498
51.3612
49.4025
46.934
44.117
38.9943
33.9928
30.6573
28.7448
27.457
26.5598
25.9299
110.136
130.308
114.028
94.1692
80.7592
72.5908
64.2869
60.6326
56.8697
53.8346
51.0338
47.0018
42.5725
35.9125
30.9907
28.1417
26.8292
26.0769
25.6985
25.5778
94.8388
125.452
113.702
90.8655
76.6972
70.0673
66.1129
64.5926
61.9303
57.7848
51.0263
41.6578
34.551
30.1936
28.0708
26.6383
25.6176
24.6411
24.093
23.9354
70.7788
100.609
109.355
106.554
94.1032
76.2677
65.6674
63.8097
64.2844
65.7605
63.5032
49.4019
35.0591
29.565
27.8674
27.3034
26.407
24.5649
23.25
22.5965
207.494
165.751
114.196
80.5116
66.6251
60.2062
56.3572
54.8056
53.982
51.7884
44.4054
35.6487
31.7964
31.1629
31.6272
33.1007
33.9361
33.3631
30.9342
26.1741
78.5286
90.0146
65.6059
50.2094
44.0638
42.4817
41.458
39.6169
36.4745
33.8003
32.0939
31.1951
30.3962
29.0735
27.2874
25.32
24.1217
23.9669
23.7611
22.4851
60.525
82.9861
80.112
73.7141
69.8861
58.832
47.6626
43.0837
40.4837
38.6837
36.7731
35.5173
34.5111
33.5778
32.6646
31.4798
30.5396
29.2842
28.7344
27.4006
177.621
131.695
81.785
55.7929
48.799
43.525
39.137
37.9297
35.7713
35.1582
33.3371
32.216
30.7805
30.2442
29.7634
29.5984
29.4468
29.3713
29.3258
29.2383
130.19
140.119
91.4474
54.4025
45.0543
39.5914
36.2869
34.0462
31.6588
30.8109
29.4653
28.8084
27.998
27.6139
27.2824
27.1338
27.057
27.0517
27.067
27.056
270.23
179.031
83.3875
54.4369
46.869
40.2719
36.7919
32.1291
29.3707
27.5047
26.7509
26.4211
26.3061
26.2717
26.2194
26.1805
26.1043
26.0743
26.1091
26.25
295.019
133.465
80.2762
59.6319
53.8181
47.3658
42.1095
36.373
32.15
29.2662
27.9497
27.4435
27.129
26.9323
26.5994
26.3039
25.88
25.5236
25.3708
25.4605
189.047
131.33
85.2286
66.2712
56.2593
50.6649
43.2579
39.2823
34.4242
31.3988
29.7814
28.9403
28.2599
27.7005
27.0254
26.3461
25.599
24.8006
24.2259
24.0901
215.522
165.185
90.3714
66.0141
54.5275
48.4407
40.5429
35.2938
32.4155
30.727
30.2691
29.9046
29.1507
28.4636
27.5969
26.7652
25.8104
24.7772
23.9575
23.3109
168.499
146.525
94.2845
68.002
53.8546
45.9201
45.2414
39.4947
35.0755
33.2774
32.3479
31.6674
30.5369
29.5081
28.7403
27.9925
27.1432
25.8585
24.9262
23.697
202.737
141.64
86.1393
60.0681
46.5368
44.7106
44.1041
39.73
36.4361
34.9091
33.8069
32.3882
31.188
30.1612
29.8652
30.0369
29.2969
28.1632
27.2312
25.1786
170.816
130.686
85.5254
55.8965
45.7212
41.0767
42.8293
39.1202
35.8909
34.9526
37.3483
40.9728
39.2217
35.0662
32.8545
31.0876
30.3549
29.6515
29.1811
27.5456
251.628
160.504
125.056
82.5032
57.6106
50.5851
46.5572
40.11
35.6018
33.8949
93.9365
65.6143
33.5478
29.1132
28.2706
28.6419
28.7586
28.8835
28.8732
28.1024
199.648
189.578
151.825
75.6559
50.3875
46.8083
47.0921
41.3657
36.6142
33.376
30.5607
29.3575
28.7348
28.2619
27.7554
27.3432
27.0457
27.0532
27.177
26.8974
146.903
180.882
142.154
73.1949
54.1894
50.417
48.4902
42.0911
38.139
34.8621
33.3794
32.6241
31.9046
30.7098
28.792
27.283
26.226
25.5446
25.3683
25.1479
225.24
170.001
104.585
69.0612
60.4045
56.0722
47.8849
43.828
40.2087
38.6367
37.1375
35.4968
33.5756
31.2681
29.1722
27.2682
25.8733
24.907
24.3846
24.2425
181.622
184.752
144.401
98.2162
74.138
62.7899
52.9064
48.0102
43.7714
41.3332
39.0616
36.7496
34.2547
30.9693
28.1984
26.295
25.1753
24.5124
24.1323
24.0775
354.842
186.54
125.21
94.4631
76.9251
65.316
55.7653
50.7723
46.0791
42.7072
39.3806
35.9062
32.6022
28.8673
26.3935
24.8613
24.129
23.7453
23.5902
23.663
113.583
140.724
113.892
83.1842
67.0422
60.1702
54.5861
52.8079
48.9867
44.7289
38.337
32.4694
28.3219
25.8524
24.5115
23.6067
23.0059
22.6111
22.4165
22.4535
103.656
135.299
119.092
100.113
85.3032
71.1517
59.7892
57.602
55.7684
53.3528
45.5527
34.7751
28.3291
25.6109
24.3958
23.6934
23.002
22.2612
21.7684
21.7244
136.497
147.815
115.367
72.1271
59.0913
53.8673
49.8889
48.2845
44.9108
39.894
33.6534
30.0187
27.8735
27.28
26.905
26.8296
26.7125
26.1947
25.1261
23.6213
151.522
131.607
77.0469
52.8104
50.3142
47.9772
46.78
42.8746
39.4057
36.1181
33.8497
31.8859
29.8229
27.2392
24.891
24.0782
24.1493
24.2209
23.801
21.2674
85.7779
91.3912
86.4397
78.2048
72.32
59.4292
48.1428
42.9055
40.6463
38.7104
37.3262
36.016
34.8807
33.7651
32.7188
31.504
30.6203
29.3248
28.6572
26.8955
214.758
158.932
98.7453
60.6788
53.0909
42.5931
40.1274
36.2798
35.5111
34.1076
33.6947
33.2124
33.1673
33.2079
33.3332
33.5324
33.7354
33.929
34.0527
34.0617
245.102
207.237
122.737
60.9855
48.3331
38.6793
37.1113
33.0364
32.1576
30.4852
30.2969
29.748
29.8107
29.7638
29.9238
30.0476
30.2695
30.371
30.4358
30.3631
580.26
299.605
116.771
59.7541
48.8687
38.9177
36.9897
31.5918
30.3806
28.2394
28.292
27.9241
28.2162
28.2626
28.5248
28.637
28.8489
28.9436
29.0746
29.1036
168.568
172.653
92.9985
57.0003
52.9926
42.892
40.3884
33.8931
31.8981
28.9957
28.8391
28.2502
28.3926
28.2522
28.3053
28.2265
28.2135
28.1691
28.1968
28.2833
182.675
125.382
84.0945
59.5072
55.8578
46.3276
41.5514
35.8331
32.9637
30.3213
29.9711
29.2187
29.0871
28.6527
28.339
27.8828
27.5662
27.2163
27.0625
27.0643
391.94
124.233
83.32
57.9947
54.539
45.4892
39.8959
33.8938
32.6331
30.5565
30.9752
30.3931
30.2436
29.6319
29.0563
28.2922
27.6494
27.0359
26.6417
26.4482
264.851
134.442
88.0762
58.9421
51.8441
43.8787
41.9048
37.4464
34.4933
33.7277
32.8068
32.4822
31.5198
30.9874
31.5674
30.1557
29.0506
28.0074
27.3352
26.7946
395.023
143.295
86.9327
56.235
45.8142
42.6121
42.1782
38.2221
36.297
35.879
35.012
34.2687
33.4324
32.9283
33.3635
33.3267
31.5768
30.0365
29.0438
27.955
240.345
145.451
94.4656
56.3628
44.646
39.8227
41.1797
37.8242
36.5789
36.3198
39.2822
41.4852
39.5417
37.5739
36.5717
35.1714
33.5808
32.1418
31.2016
29.6794
245.96
181.942
144.743
81.9541
53.7905
43.5533
40.0996
37.4833
35.995
35.6254
61.3095
51.4092
36.1831
33.8571
33.986
33.8011
33.0106
32.207
31.6717
30.485
199.876
191.896
167.249
85.6766
51.6337
44.0347
43.1167
38.4062
35.3198
33.4484
32.1908
31.5892
31.3324
31.1763
31.627
31.4124
30.9318
30.629
30.4737
29.8615
135.799
160.366
136.239
72.1903
57.1701
50.4931
45.6716
38.3681
35.4844
33.4931
33.0422
32.3864
31.7332
30.7793
30.551
29.459
29.0124
28.7433
28.7312
28.6376
166.098
178.643
113.752
68.05
62.9723
54.2919
46.5462
41.7323
38.9009
37.3029
36.0373
34.4101
32.9569
31.1762
29.8683
28.6793
28.0428
27.7017
27.6675
27.8405
170.988
173.16
150.631
105.694
78.8457
61.843
52.4907
46.2123
42.1821
39.266
37.2562
34.9555
33.0573
30.7736
29.1966
28.0198
27.4501
27.2357
27.2232
27.5126
220.596
155.368
131.324
96.2713
79.678
63.5425
54.9398
47.9889
43.553
39.6231
36.936
33.9767
31.8087
29.5225
28.2114
27.2559
26.8728
26.7543
26.7613
27.1044
200.714
174.427
118.518
78.1774
66.6253
56.2311
52.1964
47.7714
43.7665
39.2062
35.0743
31.532
29.251
27.6783
26.8204
26.1936
25.8963
25.8163
25.8255
26.1316
113.747
153.698
131.624
94.2514
77.8838
64.2258
57.2851
52.792
48.7713
43.1579
37.4267
32.5788
29.6081
27.8932
26.9216
26.2002
25.7434
25.5541
25.5312
25.9603
269.741
138.046
99.0109
65.9847
59.9832
50.6585
48.5606
43.6529
40.4373
36.1308
33.3138
31.6429
30.284
29.4746
28.7323
28.2513
27.9336
27.7524
27.6341
27.826
144.723
83.0411
61.4264
52.9145
54.7291
49.7779
47.933
42.214
39.0002
35.0817
32.6098
29.3905
26.7417
24.5431
23.838
23.7776
23.6524
22.9729
21.0988
19.6054
84.054
92.258
85.0921
76.349
65.2075
52.4855
44.2982
40.831
38.7614
36.5556
35.05
33.521
32.3425
31.3144
30.3299
29.1167
27.8675
26.3387
25.2311
23.6429
253.809
202.448
125.814
70.8711
71.6825
48.9782
56.8769
42.4908
49.1113
41.2364
45.8903
42.4209
45.7108
44.4724
46.6128
46.3626
47.6106
47.4718
47.6919
47.0919
426.521
335.39
171.031
74.259
66.9722
45.4262
52.3765
39.3319
44.466
37.3026
41.0559
37.767
40.5168
39.2218
41.0037
40.5559
41.5116
41.2344
41.3628
40.9335
325.472
229.865
134.175
70.459
66.0607
45.8514
51.708
37.6602
41.9236
35.0099
38.423
35.6593
38.2342
37.2721
38.8902
38.6198
39.5264
39.4028
39.6268
39.4329
270.185
210.051
124.268
68.1697
70.8815
47.7866
54.3145
39.3747
43.0456
35.6447
38.9281
35.7264
38.1974
36.9037
38.3917
37.8848
38.6615
38.4194
38.6167
38.583
352.679
147.492
102.389
64.178
72.5978
50.1306
54.4976
40.3383
41.6826
36.4257
38.6967
36.7454
38.2313
37.2708
37.831
37.3736
37.668
37.4436
37.5025
37.5661
262.154
132.465
95.8142
62.0741
73.9175
49.9436
52.7824
39.9423
41.9348
36.9802
40.5152
38.0127
40.0218
38.5421
38.9292
37.7899
37.7636
37.2005
37.1638
37.2059
270.964
152.632
104.46
61.6032
68.4947
51.4385
47.7145
41.595
41.471
39.6335
40.6351
39.68
40.0091
39.1042
42.5977
40.2944
39.1258
38.2745
37.8521
37.7303
214.515
167.447
107.533
61.1422
59.7201
48.4713
50.8463
45.4713
46.1479
45.7272
45.6428
44.9159
44.5369
44.0619
44.5201
43.8423
41.3866
39.8594
39.3129
38.8891
338.866
155.755
103.804
61.2277
54.6203
44.5906
48.38
48.9188
49.0811
47.6613
47.8096
48.0188
48.0249
47.5618
46.7668
45.4323
43.0636
41.5958
40.8795
40.022
285.056
228.009
164.009
81.4814
66.4073
47.0896
47.1054
48.5724
48.1358
45.8036
47.4143
47.2115
47.212
46.9206
46.0545
44.5903
42.6957
41.6476
41.1917
40.3722
379.452
227.273
179.464
88.4454
62.747
48.9219
50.4591
47.1382
45.5144
44.1232
43.8107
43.9393
44.5045
44.5677
44.1084
42.7073
41.2539
40.7017
40.4189
39.9863
213.799
208.509
159.695
75.2997
78.8096
60.0725
51.6415
42.7895
42.0611
40.5553
41.203
40.4152
40.449
39.7356
41.9787
40.3046
39.7389
39.4791
39.3651
39.4364
344.619
238.969
122.284
68.2424
77.2379
56.1594
55.1008
46.889
46.9893
44.372
44.4952
42.9158
42.367
40.9025
40.1839
39.2329
38.9132
38.7475
38.7299
39.3233
492.482
262.816
181.83
102.146
95.6929
66.079
65.5696
53.1418
51.3445
46.2346
45.654
43.0002
42.1718
40.2581
39.5218
38.4057
38.1856
38.1695
38.231
39.1489
339.624
163.135
138.97
90.564
89.6165
64.6445
64.875
52.8795
52.4476
46.4732
46.3393
43.0789
42.4871
40.2181
39.7079
38.4858
38.2577
38.0737
37.9742
38.8692
411.774
162.549
127.816
76.2975
83.2394
61.0343
65.8714
52.8658
53.3845
45.5612
45.1553
41.0811
40.7519
38.5828
38.3023
37.2995
37.2573
37.1335
37.0667
37.8226
175.643
168.086
152.62
91.2093
87.8533
65.1768
69.4092
55.9011
56.388
47.1086
47.2193
43.3426
42.9215
40.022
39.388
37.9109
37.7199
37.3653
37.0852
38.0217
160.636
139.839
119.38
69.3207
81.6033
54.8319
64.9039
47.3
53.5541
44.5716
48.5075
44.1313
45.0181
42.4158
42.3031
41.1293
41.232
41.224
41.2363
42.2064
158.517
95.3666
61.9321
52.9076
54.6781
48.1164
45.4606
38.8086
35.3457
30.8493
27.7258
25.0906
23.8588
23.0455
23.079
22.879
22.2993
21.1485
20.0655
19.9539
36.1154
35.0883
75.053
35.4453
37.623
35.7813
86.6378
40.5945
76.7428
71.1895
39.2564
42.3381
86.5715
72.9811
89.8067
33.4785
31.4432
34.7091
98.5843
33.1404
32.1122
81.6937
30.9437
29.8555
99.5208
81.0774
31.8492
31.1112
214.486
242.753
198.148
77.0715
64.2611
63.1671
59.1697
184.679
185.495
169.578
58.6504
50.8624
56.7478
48.6305
190.705
169.606
171.915
49.3755
46.2344
47.4425
45.818
200.165
171.805
174.1
45.1383
43.9679
45.2669
43.2026
194.024
176.547
181.402
43.331
41.3336
42.5142
40.9192
192.086
181.163
175.14
40.7745
39.3511
40.3941
38.7477
178.849
171.568
160.324
38.9445
37.3157
38.3638
37.2361
151.829
157.364
132.516
36.8842
34.726
36.9265
34.6271
183.112
242.75
186.575
62.3683
58.9466
69.363
59.6028
167.618
182.824
189.475
55.8698
47.9325
55.6381
47.2127
170.538
192.198
193.173
46.727
44.8477
45.7218
43.7919
173.846
191.487
189.01
44.4166
42.9567
43.525
42.5257
176.969
186.565
180.592
42.4091
40.9483
42.3216
41.1564
172.656
180.434
178.243
40.4028
38.8525
40.7023
39.388
159.722
175.41
167.292
38.5037
37.2972
38.827
36.6524
133.336
165.434
150.134
36.9612
34.6436
35.9859
33.0376
210.516
332.544
239.791
94.2281
71.1525
97.738
75.019
200.458
229.217
220.12
63.2112
48.4238
66.5676
51.052
197.176
218.186
195.579
46.3799
44.0615
49.0732
46.5143
191.986
186.882
184.927
43.6485
42.0684
45.535
40.6411
187.275
186.496
184.733
41.582
40.3986
39.5429
38.144
178.94
183.125
179.498
40.1408
38.8984
37.9112
37.0032
170.487
178.109
173.542
38.1811
35.8168
36.6954
36.2543
151.707
171.974
151.104
35.3192
32.9056
36.155
34.5708
225.241
284.283
230.301
82.9896
67.2837
79.435
66.9943
220.473
230.851
234.255
61.8849
51.7166
63.2568
57.4718
197.46
232.753
215.587
50.2855
47.93
56.5612
54.8337
177.336
201.555
175.739
46.6861
40.7818
53.5751
48.1336
181.122
174.666
177.847
39.5732
38.0772
46.527
44.5071
179.585
180.419
183.811
37.8789
37.4906
44.376
44.6491
173.037
184.606
181.323
37.4653
37.6049
44.7759
44.7691
149.42
181.948
165.897
37.591
35.5999
44.561
41.7591
55.5797
53.5677
52.304
46.6478
43.0107
43.7769
42.2015
45.5945
50.5121
44.0158
41.3059
38.4142
40.836
37.4896
41.5833
42.9789
41.3896
37.4173
35.7392
36.9102
35.928
39.8763
40.9208
39.2608
35.5079
34.7391
35.6661
34.9502
37.5525
38.6868
37.2972
34.3196
32.9951
34.9168
35.2774
35.7407
36.8682
35.5844
32.698
31.7061
35.2928
34.863
33.9756
35.2478
34.2719
31.3785
30.4362
34.5119
33.4124
32.4016
33.9865
32.8062
30.2027
29.5243
33.0469
32.1147
52.2823
59.2622
53.1061
44.4112
42.2126
46.5661
42.2987
43.4871
49.9658
43.1287
40.6288
37.2537
40.6159
37.0445
40.8123
41.8371
40.0108
36.6961
35.7398
36.336
35.1602
39.1395
39.6488
39.1048
35.4997
35.7248
35.2019
48.9613
37.6761
39.1456
38.6381
36.3975
38.4477
51.1253
52.2434
36.1628
38.2763
36.5109
38.7395
38.4223
51.0502
40.7432
34.4703
35.6668
33.1405
37.6823
34.872
37.3346
31.5275
32.7881
32.4988
30.7013
34.1218
32.4571
30.6513
28.926
61.967
78.2217
64.3817
51.2755
44.7792
52.4325
46.0851
44.0446
58.0481
46.14
42.4145
37.3823
43.7723
38.5552
40.1544
44.4536
41.9747
36.4784
35.1359
37.5093
35.2729
38.7265
40.9602
36.6428
34.7618
51.2532
34.429
31.8793
37.8138
35.6433
34.1827
53.8184
53.2789
31.2694
30.0635
35.2962
33.9223
33.057
49.0624
35.2434
29.7701
28.9561
32.1172
32.7939
32.3453
32.6882
29.2553
28.719
28.1955
30.4393
32.2408
31.6565
28.7863
27.9613
28.0604
27.5277
58.9284
65.5722
59.08
50.3296
45.2955
51.3089
46.9111
46.8248
56.2086
51.2852
43.4173
39.0243
44.9722
41.141
42.9761
50.1479
47.7905
37.9934
35.4143
40.0826
37.3204
36.6784
46.2652
41.812
34.4333
31.6253
36.1898
33.7272
34.1446
40.6059
39.0801
30.9934
29.8687
33.1768
32.3804
33.5245
38.9505
39.0131
29.6429
29.1492
32.2325
32.0394
33.4731
39.0061
38.7635
29.0304
28.7114
31.9339
31.4052
32.5694
38.4534
37.356
28.5828
27.8809
31.1119
30.0169
41.1258
42.2402
40.5386
41.9827
38.8986
40.8949
38.5695
37.3283
39.284
36.5308
37.9589
36.373
37.6159
36.0784
35.0638
36.067
35.291
35.7831
35.1643
35.8764
35.5861
34.2042
35.0767
34.7249
35.1275
34.5369
35.4773
35.6176
32.6485
34.8702
35.8729
34.2296
33.5006
36.0833
37.3818
31.5005
35.9868
35.5889
33.3381
32.6656
37.4308
36.8448
30.3531
35.1806
33.9621
32.4318
31.9121
36.4995
35.5988
29.5444
33.5766
32.6085
31.8066
31.3357
35.3278
34.6746
40.5315
43.8474
40.3367
41.0366
38.4064
40.3628
37.7176
36.3376
38.9504
36.089
37.4458
35.9629
36.9656
35.6006
35.1342
35.5241
34.6745
35.7798
35.4794
35.348
35.1012
36.0363
34.9564
34.9708
34.7879
35.526
34.8964
34.8731
53.9361
38.6311
44.5867
38.5581
47.2317
40.2281
50.3078
40.2295
66.5209
44.5829
42.3664
40.6474
65.3097
44.3587
35.9286
39.5275
32.2818
39.7878
37.5219
40.4838
35.1933
33.0821
31.3302
29.4849
36.9244
35.5026
34.5011
33.2974
41.8662
47.8454
43.1694
40.6275
38.0585
42.2454
39.2532
36.3114
41.3869
37.2115
37.2633
35.5991
38.1936
35.6914
34.5473
36.3014
34.2333
35.2682
34.7656
35.0879
33.6242
40.8116
55.2761
34.1118
39.9124
36.5686
251.388
33.9047
45.2641
93.0914
40.6601
212.555
40.4158
200.115
46.0537
37.0255
29.5652
28.7704
64.0291
38.4413
30.8815
30.3116
29.5856
28.5458
28.0486
35.5622
32.5098
30.1985
29.9909
28.3748
27.9216
27.4673
32.2037
32.0079
29.9457
29.8381
42.9448
48.6225
44.6752
43.2663
39.5952
45.6653
40.9054
37.5604
42.8243
39.1534
38.4143
35.6741
39.1802
36.0718
34.2201
38.145
35.5199
34.9841
33.3092
35.2871
33.3577
31.0848
34.5754
32.615
32.7972
31.553
32.8253
31.8942
29.5713
32.184
31.5187
31.2649
30.6618
31.6887
31.2793
28.8623
31.375
31.1116
30.518
30.1824
31.1439
30.8091
28.3929
30.9874
30.3989
30.0996
29.8923
30.6397
30.1258
27.6914
30.1356
29.1858
29.8153
29.6607
29.8922
29.2454
39.117
41.2774
38.8561
46.9172
43.2394
45.8909
44.3769
36.7801
38.0023
36.775
42.3116
41.56
43.9111
43.5708
35.908
36.6441
36.46
41.7693
41.7833
43.6365
43.1644
35.2929
36.3562
36.4403
41.5825
41.0328
42.8968
42.5876
34.4207
36.836
37.8187
41.0704
40.7389
42.6892
42.7986
33.643
37.8238
37.3166
40.495
39.9766
42.7449
42.8656
33.0216
37.0675
36.4234
39.9682
39.7545
42.8421
42.6453
32.3754
36.2175
35.5546
39.6015
39.0003
42.5315
42.1546
38.6411
40.1317
37.8816
44.9087
44.1608
43.1632
43.4611
36.6936
37.2986
36.3086
43.9197
43.7711
43.4927
43.4514
36.366
36.1274
35.8339
43.7872
43.019
43.1497
42.0669
37.9629
36.2212
58.3078
42.7628
42.9475
41.8912
45.0269
41.5032
60.0317
56.9362
43.3999
43.794
45.9589
45.7369
40.1381
53.6215
42.2804
43.6912
43.7166
45.1339
43.6087
37.998
39.8498
36.3382
43.6821
43.3379
43.5159
43.02
36.3553
35.8427
34.8036
43.1921
42.6501
42.8846
42.4576
38.0918
41.8124
39.177
43.2265
43.531
45.2067
43.7923
36.2483
38.2349
36.0617
43.4562
43.1678
43.1157
41.736
35.4689
35.5426
34.2632
42.7915
41.6207
41.4579
40.1571
59.6118
33.8473
32.9763
41.3581
44.019
39.7931
39.189
57.4029
32.7648
32.1552
44.7701
44.5783
39.1015
38.8875
38.0758
31.9668
31.5683
43.9115
42.2889
38.8963
39.5948
34.0735
31.52
31.456
42.3122
42.126
39.7763
39.9766
33.6373
31.4466
31.3125
42.0648
41.9235
40.0151
40.0668
39.5177
45.5367
40.4683
46.6814
43.7377
49.1923
42.6325
35.9223
38.7937
35.9181
42.8002
41.0901
41.1569
39.3016
33.8799
35.2165
33.5377
40.7807
39.673
38.9896
37.8742
32.423
33.101
32.394
39.3376
38.7972
37.638
37.5162
31.7031
32.241
31.8948
38.7171
38.5675
37.5537
37.259
31.3773
31.7628
31.4335
38.5966
39.1918
37.163
36.9986
31.2216
31.285
30.8332
39.2734
39.3971
37.0105
36.7651
31.0352
30.6378
30.0223
39.4253
39.5742
36.7205
36.4769
46.4015
49.9396
49.1029
72.9144
65.2746
74.7932
76.3221
45.4453
48.747
48.649
65.0351
70.8889
75.9883
77.7941
46.0772
48.8041
48.3196
73.1952
71.4518
78.5753
81.6973
45.3903
47.9385
47.5372
71.2054
74.5891
82.5918
84.9208
45.2449
47.625
47.6104
76.2336
74.8098
85.3625
84.4345
44.4596
47.5476
47.4903
74.7999
76.6049
83.5822
80.8589
44.259
47.423
47.1794
77.641
76.6797
80.7434
80.6787
43.1619
47.0606
46.4017
76.909
77.6126
80.7758
81.9005
48.9814
46.5283
48.409
69.4678
77.079
66.6871
77.527
49.0015
48.6243
48.7946
77.3338
79.0314
78.3461
80.496
48.117
48.558
46.8114
80.0016
84.6711
82.1209
88.8683
47.513
46.3742
47.8399
85.8827
88.2867
90.2545
93.6142
48.0044
48.5164
48.4154
88.6645
87.541
94.3317
93.5213
48.0858
48.0994
48.0156
86.4503
82.2934
91.847
85.166
47.6843
47.9643
47.5735
81.3617
81.0956
83.1733
81.5218
46.8169
47.4576
46.748
81.2138
82.2516
81.575
81.9013
48.4973
49.0787
48.3865
69.4817
78.1467
72.8136
76.6624
48.4525
47.7864
46.5872
78.6101
80.0527
76.1701
75.7705
46.3095
46.3661
44.904
81.5274
87.9541
76.2557
80.147
46.8536
44.4389
43.9551
89.1871
92.3839
81.3238
83.3062
47.4814
43.9456
43.9797
93.4167
93.7692
83.8549
84.3182
47.1928
44.1792
45.0096
92.0734
85.0944
83.5885
79.7527
46.9927
45.1087
45.1639
83.0274
81.2927
78.8254
78.8019
46.3389
45.174
44.8691
81.3092
81.8762
78.9893
79.9081
47.9806
52.7272
45.2296
72.2236
74.4746
71.5461
64.8777
45.7266
43.9275
42.8762
73.8837
73.8068
64.8469
67.8877
44.471
42.8083
41.8225
73.9887
76.5552
68.5768
67.2803
43.8031
41.6679
41.8464
77.5165
79.4442
67.5389
70.0738
43.8212
41.9538
41.6316
79.9983
80.4868
70.5806
70.414
44.461
41.5445
41.487
80.0537
77.5267
70.6245
72.2704
44.547
41.5527
41.3183
77.429
77.7779
72.647
72.9151
44.373
41.3022
40.818
78.0306
79.8346
73.2695
73.8639
40.0793
35.2413
41.4547
36.881
37.6295
35.4621
45.901
45.9504
35.1624
50.5146
40.1236
38.6285
35.5856
193.614
73.9231
57.7168
68.9094
224.516
48.8529
90.3155
248.485
36.4145
34.951
35.5852
35.4948
35.1074
35.05
36.4695
40.8535
37.4139
36.1818
44.4288
35.7907
46.9713
39.6236
47.4224
41.1872
35.7666
55.5618
35.834
202.748
40.6155
75.9527
234.57
64.5919
79.6533
92.595
259.499
53.8988
56.4449
39.7735
50.1236
42.5069
49.0983
41.6564
56.5972
99.2711
62.3444
76.5702
206.032
65.0694
96.6923
185.763
97.4519
64.5404
75.3509
106.637
65.4065
87.749
124.612
54.9795
39.2184
40.7459
48.0409
40.9429
51.4473
50.6958
57.0208
43.0191
41.8235
52.1245
42.3066
56.8913
52.0206
99.8177
214.414
69.0934
85.5329
98.0194
196.381
70.7679
97.796
106.783
67.2859
81.0619
86.8151
132.903
70.436
45.338
78.6209
40.5981
225.109
39.4072
239.046
46.3059
33.3173
33.6606
32.7204
32.9616
33.3914
33.2257
32.3468
33.5098
33.0554
32.0364
31.3635
33.2761
33.4571
31.8237
41.1916
41.0321
60.8238
34.3197
245.754
33.9838
37.5274
46.3062
230.568
88.4498
43.198
245.145
47.4729
41.5423
33.3838
32.852
33.539
32.7126
33.1948
32.3466
33.6171
33.7605
31.5901
34.0704
32.3914
33.8078
31.9463
33.9324
43.6474
94.0433
38.854
140.098
39.9233
190.318
42.2565
32.8647
32.7246
30.5267
30.9578
32.3405
33.23
30.5987
32.4143
31.4717
30.1687
29.9842
31.9185
31.9543
30.2739
46.4714
217.888
97.9597
43.3696
205.721
47.2597
43.0955
44.5382
134.403
96.2479
41.0385
185.447
43.0212
42.4299
33.3714
31.2629
34.0053
31.5948
33.6843
30.9568
33.7847
32.931
30.4035
33.025
31.3445
32.4829
30.6663
33.4311
143.619
172.993
146.942
102.573
80.3773
100.613
81.5136
131.263
133.613
128.538
66.5365
64.3832
66.3356
60.4929
125.884
126.893
127.904
60.4181
52.5582
56.3237
53.3942
127.565
130.886
131.853
50.6718
50.8221
51.8133
51.4494
124.492
131.437
130.106
50.0603
48.9146
51.0605
50.4844
120.64
128.656
126.734
48.6285
48.415
49.8617
49.0665
114.959
123.739
120.012
47.4066
45.7055
47.9974
46.4222
102.136
116.999
106.289
44.8481
37.6678
45.5097
38.0038
167.426
153.763
146.661
94.5414
86.838
90.7759
72.6431
128.582
268.294
278.304
152.694
140.21
148.921
248.862
83.0701
185.373
188.003
95.5929
87.7606
90.9838
176.619
78.0543
186.441
169.276
85.2246
83.609
78.0966
170.226
76.6893
199.158
184.669
73.8821
72.896
77.0652
186.29
73.5654
195.965
186.427
70.1866
69.0526
74.6675
187.078
71.1109
193.473
190.702
66.6758
66.0844
72.0027
190.616
67.6388
186.32
185.358
64.89
63.6397
68.7272
181.904
62.5807
170.922
169.457
60.3879
58.6314
64.152
164.9
93.5423
97.7427
84.9835
38.0923
32.9631
38.2411
31.1522
133.414
154.447
142.24
73.0111
68.4771
87.5948
74.6963
105.33
203.858
216.115
122.808
109.37
120.428
196.511
78.2522
168.696
167.848
87.8509
82.1101
82.7438
165.484
70.948
169.728
169.201
74.2466
73.7616
71.9122
171.529
71.0161
171.611
174.243
72.1865
71.5765
71.1068
174.844
70.2238
176.755
176.192
70.1992
69.6362
70.7338
176.361
66.9521
175.802
175.179
68.5896
67.1713
68.3581
174.808
63.9757
166.52
170.009
64.6385
63.9085
64.6106
167.22
61.2614
153.806
158.54
61.9512
61.016
62.2285
156.159
86.589
105.633
95.6322
37.9854
31.3084
37.9127
31.4054
205.62
252.024
211.546
142.234
109.23
147.329
113.293
154.366
269.369
318.755
179.696
150.524
183.719
270.084
86.6651
196.959
203.562
94.6079
84.6028
97.0777
203.15
74.8658
201.983
208.44
74.1313
73.4639
75.7437
207.821
71.3257
192.449
193.826
71.6614
71.1737
72.0555
192.402
69.2629
189.74
192.472
69.973
69.3237
69.6612
191.344
69.3036
184.348
186.661
68.2871
68.2911
69.2453
184.398
64.7544
173.578
176.419
67.6954
66.4613
66.5571
175.051
61.5748
167.555
170.871
62.4034
61.5616
62.1413
169.158
97.3866
110.282
96.6176
37.8652
31.57
38.9748
33.0153
182.7
193.307
172.459
113.165
95.9858
102.77
89.9556
139.563
258.824
286.286
163.817
139.21
163.576
250.926
90.6525
219.244
218.353
96.3678
89.11
96.4588
220.419
83.8063
217.554
227.196
81.4271
80.3295
84.7803
224.514
75.7857
179.941
189.511
75.6082
73.1363
78.1975
179.037
67.2591
179.781
172.477
66.7973
66.3785
68.2393
174.257
66.5577
181.057
178.768
65.948
65.8644
66.4995
179.061
67.3954
176.788
177.225
64.8559
64.8002
67.1251
175.435
67.2246
168.751
168.727
64.432
64.1372
67.4714
166.788
95.35
106.871
102.101
42.0072
37.0319
48.7178
47.5066
161.648
184.925
160.641
104.998
85.5764
105.224
84.1992
151.983
151.631
149.944
74.2954
69.8567
73.2342
72.1158
139.257
148.014
142.921
66.7455
64.6478
70.9531
68.2677
125.677
140.454
138.15
62.2984
58.5905
66.1876
66.3383
124.175
138.041
135.833
55.6669
54.3334
65.939
65.6435
123.213
135.254
131.841
53.5963
53.4544
64.7051
64.5792
118.449