/*--------------------------------*- C++ -*----------------------------------*\
  =========                 |
  \\      /  F ield         | OpenFOAM: The Open Source CFD Toolbox
   \\    /   O peration     | Website:  https://openfoam.org
    \\  /    A nd           | Version:  10
     \\/     M anipulation  |
\*---------------------------------------------------------------------------*/
FoamFile
{
    format      ascii;
    class       volScalarField;
    location    "4.7";
    object      p;
}
// * * * * * * * * * * * * * * * * * * * * * * * * * * * * * * * * * * * * * //

dimensions      [0 2 -2 0 0 0 0];

internalField   nonuniform List<scalar> 
12920
(
-661176
-675190
-761372
-753080
-760153
-719031
-700062
-651970
-617706
-565902
-521276
-466057
-413046
-354174
-295672
-233700
-171476
-106567
-42967.7
7663.04
-760895
-658894
-817340
-769734
-776586
-726288
-705683
-656465
-622159
-570070
-524475
-468647
-415323
-356104
-297410
-235084
-172618
-107329
-43271
7321.13
-786351
-752271
-826796
-791926
-790762
-743604
-720422
-670684
-633266
-578333
-531399
-474402
-420185
-360116
-300679
-237772
-174742
-108868
-44251.8
6749.34
-868908
-792493
-878863
-825480
-831062
-773518
-746841
-690470
-648182
-590847
-542291
-484012
-427916
-366552
-305694
-241783
-177763
-111118
-45710
6017.15
-1.24789e+06
-926308
-951706
-878338
-874151
-804331
-773481
-713595
-665303
-607524
-555400
-494848
-436974
-373957
-311789
-246628
-181488
-113816
-47488.6
5147.2
-1.18107e+06
-1.04336e+06
-1.01056e+06
-927917
-921932
-846570
-804372
-744656
-689010
-629347
-570587
-508486
-447293
-383028
-319031
-252770
-186009
-117069
-49483.1
4105.44
-1.36275e+06
-1.14458e+06
-1.08764e+06
-982440
-960032
-884356
-834764
-767725
-713140
-647238
-588326
-521861
-459092
-392376
-327583
-259733
-191232
-120744
-51863.7
2971.33
-1.35954e+06
-1.21023e+06
-1.14591e+06
-1.04147e+06
-1.00275e+06
-920491
-872878
-804988
-744935
-681488
-619127
-553426
-487675
-420456
-338174
-268165
-197197
-124991
-54561.7
1742.33
-1.17539e+06
-1.1577e+06
-1.14502e+06
-1.06332e+06
-1.03259e+06
-961206
-905025
-837941
-772386
-708707
-644335
-576285
-508962
-440776
-364453
-277145
-203564
-129645
-57713.9
388.203
-1.58035e+06
-1.27917e+06
-1.29449e+06
-1.1475e+06
-1.0932e+06
-1.00102e+06
-934617
-864756
-797343
-730530
-660983
-591207
-521636
-451768
-373482
-284278
-209265
-133737
-60428.9
-1019.82
-1.49712e+06
-1.32696e+06
-1.28542e+06
-1.18736e+06
-1.12435e+06
-1.04389e+06
-968945
-892733
-819975
-748052
-676310
-604272
-532425
-460811
-380928
-289858
-213679
-136888
-62556.9
-1917.36
-1.79163e+06
-1.47542e+06
-1.38707e+06
-1.24422e+06
-1.16725e+06
-1.07399e+06
-998971
-918704
-841205
-764898
-690553
-616984
-543136
-469524
-387243
-294271
-217094
-139457
-64240.8
-2724.41
-1.92481e+06
-1.49656e+06
-1.37764e+06
-1.25133e+06
-1.17105e+06
-1.07487e+06
-1.01512e+06
-931815
-852651
-774664
-698020
-621295
-545004
-469264
-375763
-297784
-220019
-141446
-65668.2
-3343.54
-1.60835e+06
-1.40863e+06
-1.38367e+06
-1.25991e+06
-1.19181e+06
-1.09497e+06
-1.01878e+06
-931255
-854456
-773940
-695015
-614446
-536258
-457436
-379055
-300375
-222163
-143111
-66779.9
-3846.61
-1.30014e+06
-1.28957e+06
-1.34865e+06
-1.24641e+06
-1.19121e+06
-1.10269e+06
-1.02717e+06
-942783
-862912
-779987
-700734
-620272
-540926
-460971
-381952
-302684
-224085
-144561
-67776.1
-4282.72
-1.11796e+06
-1.21746e+06
-1.2959e+06
-1.22479e+06
-1.19186e+06
-1.11086e+06
-1.04337e+06
-957589
-878500
-792698
-709924
-626589
-545820
-464484
-384645
-304791
-225724
-145794
-68653.4
-4692.81
-1.24796e+06
-1.29344e+06
-1.39625e+06
-1.28111e+06
-1.22284e+06
-1.13095e+06
-1.0531e+06
-964438
-884421
-797409
-714356
-630591
-549314
-467468
-387350
-306899
-227372
-146909
-69330
-5158.58
-1.57767e+06
-1.41857e+06
-1.39762e+06
-1.28989e+06
-1.23626e+06
-1.14362e+06
-1.06885e+06
-978509
-894552
-806228
-723070
-636339
-553327
-470781
-389836
-308834
-228883
-147898
-70111.6
-5484.74
-1.88723e+06
-1.5946e+06
-1.51326e+06
-1.34486e+06
-1.26997e+06
-1.15908e+06
-1.07545e+06
-980792
-897723
-808039
-724473
-638368
-555912
-472911
-391967
-310386
-229984
-148928
-70797.1
-5955.14
-1.87461e+06
-1.62541e+06
-1.49096e+06
-1.34716e+06
-1.27146e+06
-1.16007e+06
-1.07942e+06
-983095
-900340
-809864
-726156
-639906
-557252
-473990
-392777
-310974
-230511
-149604
-71960.4
-6333.87
-792262
-687126
-760966
-752826
-759625
-718624
-699689
-651659
-617850
-566225
-521394
-466053
-413045
-354138
-295637
-233664
-171463
-106554
-42942.2
7594.76
-734979
-640746
-811179
-770382
-776830
-726192
-705730
-656924
-622519
-569866
-524467
-468552
-415292
-356041
-297372
-235051
-172601
-107291
-43208.5
7155.04
-910192
-753622
-823975
-792582
-791482
-743937
-721309
-671082
-633267
-578297
-531427
-474322
-420172
-360055
-300652
-237739
-174729
-108832
-44212.5
6534.87
-833456
-768456
-874915
-826073
-831622
-774272
-747271
-690811
-648316
-591188
-542400
-483993
-427912
-366502
-305658
-241748
-177754
-111098
-45684.1
5768.08
-1.22737e+06
-918876
-951513
-876847
-873735
-804349
-773276
-714151
-665641
-607681
-555570
-494909
-437008
-373939
-311773
-246596
-181483
-113794
-47472.4
4894.89
-1.15025e+06
-1.03373e+06
-1.0058e+06
-925916
-922323
-846598
-805720
-744183
-689047
-629008
-570776
-508577
-447299
-383016
-319014
-252755
-186011
-117051
-49479
3850.92
-1.48103e+06
-1.14789e+06
-1.08766e+06
-982598
-960853
-882771
-834644
-767640
-713645
-647680
-588161
-521756
-458928
-392102
-327578
-259704
-191214
-120698
-51821.7
2776.8
-1.43561e+06
-1.20627e+06
-1.14416e+06
-1.04033e+06
-1.00413e+06
-919398
-872302
-805062
-744343
-681919
-619174
-553552
-487790
-420614
-338059
-268178
-197142
-124906
-54470.6
1552.94
-1.15308e+06
-1.13656e+06
-1.14323e+06
-1.06333e+06
-1.0334e+06
-960531
-904623
-837531
-772190
-709389
-644224
-576257
-509077
-440928
-365073
-277348
-203568
-129640
-57715.8
159.662
-1.57968e+06
-1.2827e+06
-1.29049e+06
-1.14814e+06
-1.09362e+06
-1.00102e+06
-934679
-865310
-797322
-730073
-660918
-591294
-521693
-451917
-374064
-284456
-209375
-133767
-60373
-1087.17
-1.42574e+06
-1.32081e+06
-1.28493e+06
-1.18578e+06
-1.12401e+06
-1.04338e+06
-968126
-892549
-820269
-748118
-676471
-604408
-532426
-461011
-381720
-290057
-213795
-136868
-62485.7
-2063.35
-1.65822e+06
-1.45679e+06
-1.38218e+06
-1.24398e+06
-1.16698e+06
-1.073e+06
-998718
-918705
-841180
-765128
-690759
-617030
-543193
-469759
-388007
-294517
-217195
-139470
-64175.9
-2894.54
-1.90476e+06
-1.50575e+06
-1.38065e+06
-1.25251e+06
-1.17125e+06
-1.07378e+06
-1.01375e+06
-931301
-852908
-774815
-698066
-621343
-545078
-469494
-375973
-297903
-220066
-141435
-65611.6
-3512.91
-1.61087e+06
-1.41559e+06
-1.37929e+06
-1.25938e+06
-1.19194e+06
-1.09539e+06
-1.01922e+06
-932453
-854914
-774004
-695121
-614626
-536399
-457606
-379117
-300414
-222180
-143080
-66725.6
-4012.62
-1.41948e+06
-1.29843e+06
-1.34968e+06
-1.24721e+06
-1.19227e+06
-1.10325e+06
-1.02744e+06
-941717
-861994
-780417
-700981
-620375
-540947
-460992
-381986
-302700
-224118
-144562
-67714.1
-4441.14
-1.10908e+06
-1.22909e+06
-1.29669e+06
-1.22751e+06
-1.19288e+06
-1.11174e+06
-1.04373e+06
-957678
-878415
-792307
-709980
-626625
-545824
-464476
-384661
-304798
-225759
-145801
-68615.3
-4853.22
-1.40049e+06
-1.31128e+06
-1.40269e+06
-1.27975e+06
-1.22192e+06
-1.13042e+06
-1.05335e+06
-965177
-884796
-797064
-714021
-630540
-549301
-467453
-387328
-306885
-227388
-146896
-69286.4
-5306.99
-1.69282e+06
-1.43093e+06
-1.3994e+06
-1.29135e+06
-1.23782e+06
-1.14356e+06
-1.06896e+06
-978122
-895076
-806508
-723022
-636181
-553432
-470838
-389990
-308865
-228911
-147951
-70080.9
-5658.19
-1.94438e+06
-1.58471e+06
-1.51073e+06
-1.34576e+06
-1.2702e+06
-1.15997e+06
-1.07582e+06
-980926
-897611
-808061
-724514
-638436
-555978
-472909
-391897
-310385
-229967
-148860
-70763.6
-6137.35
-1.94523e+06
-1.63717e+06
-1.48912e+06
-1.34777e+06
-1.2714e+06
-1.16029e+06
-1.07975e+06
-983054
-900222
-809868
-726235
-639980
-557280
-474040
-392805
-310979
-230509
-149515
-71925.3
-6350.23
-760495
-677722
-752978
-749673
-758351
-717587
-699054
-651372
-618011
-566374
-521461
-465992
-412998
-354067
-295571
-233598
-171427
-106516
-42884.7
7438.19
-719936
-678817
-798531
-772158
-777041
-726182
-706236
-657289
-622693
-569677
-524444
-468397
-415244
-355947
-297317
-234998
-172570
-107232
-43168.8
6823.9
-926343
-758391
-818246
-792040
-791464
-744313
-722129
-671465
-633356
-578413
-531480
-474258
-420161
-359957
-300607
-237681
-174715
-108831
-44194.1
6105.09
-755143
-761317
-869524
-827861
-831238
-775075
-747903
-691464
-648684
-591778
-542550
-483951
-427893
-366397
-305597
-241687
-177746
-111086
-45734.2
5269.22
-1.16244e+06
-884368
-946647
-875697
-872931
-804910
-773663
-714480
-666335
-607933
-555787
-494942
-437030
-373883
-311729
-246532
-181480
-113780
-47543.7
4380.59
-1.15753e+06
-1.01449e+06
-999241
-925910
-923081
-846253
-806780
-743822
-688988
-628958
-570945
-508648
-447328
-383033
-318986
-252707
-186008
-117051
-49593.3
3333.86
-1.39624e+06
-1.13278e+06
-1.08769e+06
-982373
-961350
-881907
-834580
-767569
-713729
-648104
-588013
-522045
-458762
-392125
-327564
-259626
-191184
-120630
-51816.3
2306.39
-1.33205e+06
-1.18203e+06
-1.14649e+06
-1.04148e+06
-1.00536e+06
-918184
-870497
-805268
-744080
-681952
-619083
-553595
-487903
-420853
-338114
-268182
-197053
-124819
-54419.9
1038.68
-1.02114e+06
-1.1017e+06
-1.1426e+06
-1.0629e+06
-1.03403e+06
-959785
-903699
-837276
-772507
-709382
-644021
-576473
-509324
-441281
-365794
-277691
-203573
-129837
-57773.6
-195.374
-1.39997e+06
-1.28016e+06
-1.28091e+06
-1.14696e+06
-1.09387e+06
-1.00103e+06
-934680
-865929
-797424
-729564
-660832
-591409
-521758
-452156
-374824
-284848
-209545
-133707
-60263.8
-1401.63
-1.36266e+06
-1.31476e+06
-1.28472e+06
-1.18387e+06
-1.12231e+06
-1.04216e+06
-966697
-892651
-820418
-747453
-677031
-604348
-532457
-461439
-382553
-290481
-213958
-136691
-62334.9
-2363.92
-1.71681e+06
-1.45688e+06
-1.38086e+06
-1.24245e+06
-1.1661e+06
-1.07221e+06
-999338
-918856
-841520
-765652
-691321
-617176
-543305
-470140
-388799
-294928
-217349
-139495
-64061.8
-3193.98
-1.81583e+06
-1.50289e+06
-1.38176e+06
-1.25295e+06
-1.17129e+06
-1.07287e+06
-1.01255e+06
-930930
-852683
-774792
-698088
-621424
-545152
-469758
-376413
-298072
-220166
-141426
-65528.4
-3838.08
-1.64216e+06
-1.43228e+06
-1.37301e+06
-1.25969e+06
-1.19236e+06
-1.0955e+06
-1.01931e+06
-932931
-854864
-773986
-695255
-614849
-536644
-457885
-379214
-300478
-222240
-143099
-66712.8
-4400.48
-1.47771e+06
-1.32365e+06
-1.34706e+06
-1.24927e+06
-1.19315e+06
-1.10334e+06
-1.02746e+06
-941099
-861704
-780605
-701075
-620402
-540979
-461064
-382035
-302735
-224169
-144594
-67759.3
-4875.59
-1.16674e+06
-1.22727e+06
-1.29868e+06
-1.22843e+06
-1.19389e+06
-1.11247e+06
-1.04391e+06
-957523
-878082
-792064
-710047
-626659
-545843
-464509
-384714
-304833
-225844
-145850
-68670.4
-5280.04
-1.40388e+06
-1.3188e+06
-1.39621e+06
-1.27507e+06
-1.22114e+06
-1.1298e+06
-1.05373e+06
-965331
-884955
-796530
-714063
-630566
-549319
-467458
-387309
-306879
-227437
-146936
-69363.7
-5690.68
-1.71267e+06
-1.43942e+06
-1.39758e+06
-1.29194e+06
-1.23825e+06
-1.14364e+06
-1.06897e+06
-977989
-895295
-806630
-722699
-636090
-553626
-470945
-390194
-309003
-229005
-147970
-70041.4
-5972.12
-1.83716e+06
-1.58468e+06
-1.50591e+06
-1.3464e+06
-1.27023e+06
-1.16006e+06
-1.07596e+06
-980965
-897532
-808164
-724624
-638600
-556007
-472878
-391762
-310304
-229953
-148816
-70732.2
-6333.56
-1.81205e+06
-1.62875e+06
-1.48121e+06
-1.34864e+06
-1.27013e+06
-1.16083e+06
-1.07983e+06
-983080
-900147
-809913
-726301
-640087
-557418
-474033
-392726
-310937
-230491
-149459
-71676.2
-6478.36
-693611
-670769
-747050
-748738
-757941
-716967
-698703
-651293
-618136
-566407
-521492
-465891
-412919
-353944
-295478
-233507
-171373
-106466
-42796.2
7181.79
-718851
-689636
-782346
-772307
-776367
-726219
-706685
-657515
-622894
-569620
-524461
-468237
-415180
-355821
-297240
-234921
-172519
-107162
-43025.6
6387.41
-1.12382e+06
-788409
-813578
-792093
-791189
-744629
-722800
-671875
-633577
-578893
-531592
-474348
-420169
-359840
-300548
-237609
-174697
-108812
-44181.4
5427.1
-758328
-739364
-855923
-827280
-829406
-775428
-748224
-692076
-649144
-592169
-542701
-483942
-427865
-366258
-305518
-241607
-177733
-111069
-45791.6
4523.01
-832869
-852444
-932771
-875182
-872045
-805235
-774415
-714662
-667006
-608222
-555941
-494914
-437018
-373798
-311671
-246446
-181480
-113777
-47629.3
3639.23
-1.00568e+06
-980726
-991778
-924838
-923949
-845786
-807272
-743501
-689322
-629252
-571103
-508665
-447365
-383088
-318955
-252659
-186029
-117096
-49746.6
2587.33
-1.33364e+06
-1.09463e+06
-1.08889e+06
-982356
-962047
-880994
-834753
-767628
-713781
-648448
-588066
-522627
-458882
-392605
-327613
-259538
-191195
-120624
-51932
1556.69
-1.28711e+06
-1.15523e+06
-1.14962e+06
-1.04211e+06
-1.00683e+06
-917449
-869085
-805724
-744601
-681601
-618839
-553365
-487835
-420895
-338504
-268225
-197066
-125021
-54533.6
319.398
-1.35892e+06
-1.09146e+06
-1.15081e+06
-1.062e+06
-1.0346e+06
-959506
-902845
-837250
-773139
-709056
-643750
-576612
-509414
-441497
-366119
-278062
-203975
-129884
-57728.7
-915.659
-1.42682e+06
-1.28594e+06
-1.2783e+06
-1.14576e+06
-1.09455e+06
-1.00189e+06
-935198
-866374
-797379
-729284
-660798
-591350
-521821
-452376
-375319
-285117
-209556
-133614
-60120.6
-1992.49
-1.44111e+06
-1.32074e+06
-1.28323e+06
-1.18294e+06
-1.12108e+06
-1.04124e+06
-966691
-892999
-820558
-749187
-677213
-604525
-532737
-461779
-383192
-290928
-213892
-136635
-62171.5
-2909.63
-1.69964e+06
-1.444e+06
-1.37919e+06
-1.24151e+06
-1.16543e+06
-1.07238e+06
-999247
-918884
-841959
-766184
-691708
-617355
-543460
-470458
-389150
-295290
-217502
-139346
-63905.2
-3694.4
-1.94057e+06
-1.51684e+06
-1.38343e+06
-1.25367e+06
-1.17136e+06
-1.07246e+06
-1.01223e+06
-930529
-852210
-774433
-697876
-621459
-545171
-469969
-376868
-298239
-220272
-141359
-65427
-4390.27
-1.62071e+06
-1.44073e+06
-1.36768e+06
-1.25931e+06
-1.19224e+06
-1.09537e+06
-1.01917e+06
-932787
-854260
-773745
-695276
-615174
-537023
-458293
-379319
-300536
-222306
-143147
-66744.7
-5012.97
-1.42478e+06
-1.32555e+06
-1.34323e+06
-1.25017e+06
-1.19357e+06
-1.10349e+06
-1.02742e+06
-941166
-862144
-780774
-701200
-620519
-541074
-461153
-382069
-302774
-224240
-144642
-67896.1
-5591.6
-1.27259e+06
-1.27116e+06
-1.29975e+06
-1.23057e+06
-1.19469e+06
-1.11301e+06
-1.04391e+06
-957739
-878030
-792124
-710346
-626788
-545925
-464546
-384777
-304880
-225939
-145955
-68813.6
-5987.26
-1.41593e+06
-1.33438e+06
-1.39709e+06
-1.27383e+06
-1.22201e+06
-1.12978e+06
-1.05407e+06
-964828
-884818
-796547
-714214
-630598
-549392
-467480
-387385
-306930
-227564
-147087
-69490.9
-6304.7
-1.66011e+06
-1.43295e+06
-1.39707e+06
-1.29264e+06
-1.2383e+06
-1.14375e+06
-1.06904e+06
-977892
-895457
-806268
-722567
-636011
-553833
-471070
-390273
-309099
-229034
-147963
-70076.4
-6514.52
-1.92551e+06
-1.56376e+06
-1.5051e+06
-1.34582e+06
-1.27103e+06
-1.16054e+06
-1.0762e+06
-981179
-897597
-808350
-724712
-638745
-556035
-472783
-391707
-310282
-229944
-148733
-70611.1
-6703.27
-1.9447e+06
-1.64179e+06
-1.48121e+06
-1.34945e+06
-1.27009e+06
-1.16082e+06
-1.08001e+06
-983144
-900233
-810036
-726491
-640177
-557503
-474094
-392676
-310908
-230484
-149356
-71463.4
-6686.28
-597138
-658326
-740592
-747065
-757583
-716674
-698737
-651301
-618094
-566234
-521403
-465752
-412833
-353828
-295406
-233398
-171302
-106398
-42630
6991.21
-731550
-695693
-764990
-771194
-775162
-725808
-707010
-657680
-623095
-569901
-524511
-468304
-415097
-355711
-297118
-234811
-172450
-107042
-42783.2
5973.5
-1.08838e+06
-801041
-804770
-789641
-791128
-744563
-723252
-672345
-633896
-579324
-531746
-474569
-420188
-359808
-300485
-237538
-174670
-108773
-44100.7
4788.73
-707902
-744872
-849479
-826415
-828560
-775598
-748354
-692202
-649388
-592361
-542690
-483988
-427777
-366199
-305433
-241554
-177723
-111075
-45764.7
3873.52
-841982
-836651
-932963
-873715
-870435
-805432
-774981
-714704
-667493
-608280
-555903
-494891
-436904
-373746
-311599
-246426
-181487
-113819
-47607.7
3009.72
-877676
-942999
-986499
-923478
-924687
-845422
-807027
-743200
-689537
-629212
-571146
-508738
-447358
-383097
-318910
-252626
-186057
-117192
-49788.3
1966.37
-1.18463e+06
-1.0957e+06
-1.08037e+06
-983233
-961832
-880345
-835239
-767707
-713968
-648715
-588640
-523083
-459496
-393235
-327711
-259616
-191285
-120827
-52066.7
912.465
-1.07349e+06
-1.13949e+06
-1.15109e+06
-1.04367e+06
-1.00782e+06
-917196
-868519
-806870
-744457
-681532
-618299
-552794
-487471
-420638
-339143
-268490
-197309
-125134
-54590.3
-220.552
-1.16989e+06
-1.07813e+06
-1.1471e+06
-1.06085e+06
-1.03375e+06
-959951
-901728
-837601
-773054
-708358
-643178
-576191
-508953
-441133
-366121
-278440
-204189
-129846
-57593.2
-1421.73
-1.57502e+06
-1.28787e+06
-1.27714e+06
-1.14436e+06
-1.09485e+06
-1.00319e+06
-936149
-866651
-797595
-729309
-660794
-591326
-521793
-452491
-375658
-285244
-209539
-133528
-59975.7
-2519.44
-1.33124e+06
-1.3156e+06
-1.27956e+06
-1.18228e+06
-1.12053e+06
-1.04133e+06
-967265
-893445
-820765
-748933
-677222
-604960
-532951
-462015
-383580
-290961
-213922
-136565
-61978.7
-3437.52
-1.75778e+06
-1.42213e+06
-1.38191e+06
-1.24012e+06
-1.16475e+06
-1.07184e+06
-998312
-918883
-842194
-766562
-691868
-617469
-543614
-470744
-389095
-295683
-217510
-139276
-63717.3
-4214.72
-1.81228e+06
-1.50712e+06
-1.37886e+06
-1.25315e+06
-1.17125e+06
-1.07239e+06
-1.01258e+06
-930151
-852194
-774242
-697321
-620952
-544796
-469914
-376987
-298346
-220334
-141314
-65281
-4905.99
-1.56041e+06
-1.44724e+06
-1.36399e+06
-1.25931e+06
-1.19224e+06
-1.09516e+06
-1.01889e+06
-932137
-853631
-772976
-694558
-615284
-537043
-458523
-379344
-300553
-222366
-143139
-66691.7
-5486.3
-1.47803e+06
-1.33718e+06
-1.3433e+06
-1.25011e+06
-1.19366e+06
-1.10337e+06
-1.02735e+06
-941734
-862283
-780882
-701275
-620591
-541114
-461189
-382076
-302811
-224269
-144617
-67858.7
-6007.36
-1.32174e+06
-1.28035e+06
-1.30192e+06
-1.23145e+06
-1.195e+06
-1.11302e+06
-1.04359e+06
-957521
-877703
-792382
-710737
-626900
-545966
-464551
-384885
-304939
-226108
-146035
-68804.1
-6398.74
-1.30666e+06
-1.32631e+06
-1.39149e+06
-1.27126e+06
-1.22252e+06
-1.12958e+06
-1.05405e+06
-964723
-884756
-796497
-714301
-630612
-549541
-467545
-387562
-307081
-227621
-147089
-69485.5
-6764.9
-1.54111e+06
-1.42072e+06
-1.39938e+06
-1.29365e+06
-1.23777e+06
-1.14363e+06
-1.06886e+06
-977406
-895403
-806151
-722626
-636036
-554024
-471197
-390159
-309059
-229049
-147928
-70026.9
-6949.12
-1.85105e+06
-1.56198e+06
-1.49651e+06
-1.34659e+06
-1.27123e+06
-1.16099e+06
-1.07627e+06
-981411
-897576
-808361
-724703
-638858
-556022
-472779
-391675
-310237
-229941
-148663
-70389.4
-7014.32
-1.8196e+06
-1.62497e+06
-1.47971e+06
-1.34974e+06
-1.26943e+06
-1.16115e+06
-1.08e+06
-983240
-900290
-810136
-726675
-640232
-557582
-474069
-392635
-310894
-230474
-149274
-71243.8
-6862.21
-678118
-743306
-690636
-729324
-678054
-743370
-690840
-608766
-672705
-620743
-660788
-608737
-672971
-620809
-695085
-761471
-706380
-747566
-695358
-761798
-706759
-623894
-687945
-632594
-677337
-624115
-688292
-632801
-856516
-925991
-875629
-904658
-856307
-925941
-875792
-789318
-858493
-807200
-837616
-789411
-858677
-807341
-726346
-790763
-742546
-772190
-726727
-790882
-742141
-662970
-725773
-674225
-709286
-663057
-725354
-674081
-594520
-656978
-605078
-644268
-594439
-656914
-605092
-527131
-587807
-536048
-576250
-527307
-587855
-536141
-459019
-518847
-466856
-509047
-459169
-518929
-466891
-391035
-449469
-396744
-440886
-391547
-449538
-397057
-882053
-960088
-903855
-934659
-882405
-959997
-903706
-813639
-885543
-832695
-865123
-813710
-885484
-832819
-747703
-815001
-761650
-797299
-747354
-815104
-761640
-678354
-743832
-690522
-730219
-678253
-743807
-690638
-608637
-672684
-618931
-660930
-608661
-672727
-619005
-539012
-601097
-547561
-591262
-539065
-601169
-547548
-469269
-529744
-476340
-521676
-469319
-529732
-476388
-398898
-458528
-405098
-451863
-399205
-458641
-405521
-911318
-991000
-932381
-968127
-911034
-990262
-931939
-837833
-913254
-855227
-892574
-838153
-912825
-854992
-766093
-835653
-779336
-820180
-766137
-835750
-779483
-694325
-760805
-705440
-748127
-694440
-760933
-705569
-622230
-687069
-632063
-676384
-622340
-687189
-632222
-550363
-613850
-558846
-604356
-550356
-613923
-558872
-478717
-540550
-485716
-532426
-478771
-540584
-485816
-406967
-467453
-412324
-460921
-407468
-467613
-412860
-938078
-1.01578e+06
-955855
-998688
-937923
-1.01513e+06
-956127
-860726
-934152
-876792
-918679
-860656
-933955
-877028
-783652
-854759
-797189
-841125
-783821
-854980
-797302
-709046
-775377
-720660
-765038
-709161
-775617
-720800
-635305
-700164
-645305
-690662
-635440
-700293
-645351
-561555
-625057
-569924
-617009
-561580
-625098
-569964
-487895
-549865
-494716
-543172
-487991
-549893
-494792
-414068
-474860
-419920
-469670
-414592
-474962
-420312
-856279
-925972
-875875
-903739
-856039
-925661
-876168
-789492
-858795
-807413
-837274
-789718
-859079
-807672
-726861
-790958
-741966
-772322
-727260
-791254
-741528
-663065
-725191
-674033
-709410
-662899
-724798
-673916
-594441
-656895
-605112
-644098
-594665
-656853
-605175
-527391
-587890
-536177
-576443
-527812
-587991
-536255
-459236
-518957
-466918
-509280
-459622
-519019
-467025
-391756
-449583
-397158
-441207
-392833
-449749
-397680
-882576
-959596
-903668
-934592
-883153
-958382
-903726
-813771
-885502
-832835
-865802
-814042
-885669
-832813
-747185
-815112
-761631
-797438
-746738
-815063
-761951
-678233
-743774
-690693
-729674
-678154
-744377
-690731
-608679
-672758
-619098
-660861
-608745
-672714
-618731
-539085
-601228
-547537
-591387
-539136
-601111
-547471
-469351
-529722
-476426
-521739
-469469
-529692
-476628
-399326
-458721
-405669
-452095
-399887
-459015
-406271
-910975
-990191
-931846
-966709
-910914
-989305
-931819
-838261
-912753
-854950
-892604
-838428
-912677
-855116
-766165
-835838
-779563
-820390
-766643
-836128
-779875
-694532
-761017
-705675
-748978
-694959
-761353
-706178
-622458
-687284
-632275
-676767
-621956
-687755
-632490
-550349
-613948
-558889
-604264
-550323
-614090
-558972
-478816
-540608
-485874
-532434
-479055
-540709
-486080
-407621
-467702
-413033
-461351
-408269
-467983
-413754
-937996
-1.01493e+06
-956236
-999074
-938208
-1.01421e+06
-956309
-860622
-933919
-876893
-918828
-860691
-933931
-876719
-783910
-854973
-797367
-841421
-784254
-854944
-797724
-709249
-775734
-720869
-765504
-709680
-776191
-721060
-635477
-700357
-645376
-691181
-635614
-700439
-645425
-561594
-625111
-569979
-617131
-561659
-625087
-569953
-488045
-549918
-494861
-543273
-488245
-549904
-494959
-414729
-475056
-420410
-470050
-415412
-475169
-420967
-855993
-925769
-876257
-902941
-855835
-925871
-876432
-789932
-859146
-807772
-837198
-790426
-859360
-808038
-727368
-791315
-741420
-773041
-727326
-791366
-741160
-662784
-724702
-673883
-709181
-662385
-724465
-673770
-594742
-656840
-605191
-643871
-595160
-656779
-605188
-527956
-588021
-536264
-576638
-528291
-588013
-536255
-459771
-519033
-467062
-509461
-460268
-519033
-467149
-392955
-449804
-397718
-441520
-393303
-449942
-398059
-883316
-958276
-903797
-934949
-883748
-958422
-904160
-814133
-885753
-832793
-866266
-814376
-886092
-832747
-746628
-815041
-762163
-797375
-746358
-814973
-762229
-717493
-712440
-734722
-729467
-717532
-712352
-734695
-647032
-643421
-664878
-660799
-647105
-643397
-664842
-539151
-601197
-547469
-591383
-539190
-601305
-547635
-469512
-529704
-476706
-521813
-469633
-529879
-476924
-399957
-459097
-406334
-452326
-400434
-459349
-406893
-910946
-989394
-931838
-966506
-911200
-989109
-931897
-838463
-912686
-855218
-892890
-838580
-912749
-855593
-766844
-836237
-779994
-820499
-767011
-836641
-780324
-736982
-730514
-753777
-746601
-736248
-728885
-754199
-662491
-659005
-680867
-677996
-662382
-660584
-681029
-550335
-614159
-559010
-604526
-550507
-614328
-559134
-479136
-540751
-486152
-532637
-479361
-540888
-486361
-408353
-468071
-413827
-461696
-408940
-468316
-414293
-938264
-1.01419e+06
-956199
-999256
-938308
-1.01359e+06
-955508
-860764
-933837
-876695
-918890
-860989
-933243
-876702
-784387
-854990
-797904
-841868
-784780
-855020
-798504
-709841
-776397
-721116
-766065
-710206
-777057
-721255
-635671
-700437
-645442
-691641
-635837
-700331
-645407
-561686
-625074
-569951
-617314
-561776
-624881
-569842
-488316
-549903
-495020
-543418
-488519
-549705
-495022
-415464
-475257
-421042
-470383
-415908
-475214
-421409
-855843
-926060
-876484
-901913
-855841
-926400
-876581
-790534
-859432
-808116
-837486
-790865
-859575
-808321
-727215
-791381
-741087
-773180
-726674
-791533
-740957
-662147
-724398
-673727
-708612
-661515
-724278
-673597
-595241
-656754
-605173
-643412
-594994
-656667
-605092
-528181
-587994
-536231
-576396
-527692
-587927
-536109
-460243
-519016
-467165
-509143
-459945
-518935
-467161
-393124
-449974
-398006
-441291
-393042
-450035
-398114
-883851
-958666
-904327
-935815
-884100
-959164
-904891
-814452
-886232
-832769
-866607
-814663
-886671
-832897
-746288
-814979
-761977
-797547
-746221
-815074
-761830
-678052
-744474
-691038
-729257
-678024
-744123
-691193
-608700
-673028
-618916
-660797
-608676
-673282
-619525
-539195
-601328
-547744
-591333
-539167
-601702
-547966
-469667
-529979
-477002
-521810
-469735
-530180
-477189
-400450
-459439
-406902
-452481
-400809
-459640
-407259
-911330
-989217
-931916
-966978
-911759
-989144
-931967
-838638
-912769
-855683
-893346
-838808
-912823
-855852
-766875
-836766
-780426
-820724
-766766
-837008
-780747
-695335
-761900
-706791
-748818
-695271
-762218
-706824
-622218
-688317
-632811
-677140
-622991
-688371
-632867
-550610
-614357
-559175
-604951
-550834
-614438
-559273
-479439
-540934
-486427
-532937
-479627
-541054
-486605
-408981
-468391
-414309
-461979
-409419
-468589
-414613
-938298
-1.01359e+06
-955224
-998500
-938252
-1.01335e+06
-954614
-861034
-933056
-876742
-918887
-861106
-932561
-876605
-784904
-855046
-798733
-842143
-785210
-854867
-798926
-710278
-777246
-721369
-766489
-710397
-777398
-721727
-635884
-700432
-645434
-691854
-635971
-700817
-645568
-561808
-624813
-569833
-617451
-561894
-624774
-569769
-488581
-549632
-495057
-543578
-488760
-549281
-495048
-415904
-475213
-421410
-470675
-416161
-474940
-421725
-855846
-926666
-876588
-900554
-855876
-926690
-876532
-790895
-859590
-808373
-838188
-790920
-859563
-808385
-726439
-791592
-740984
-773082
-726217
-791627
-740994
-661302
-724290
-673560
-708226
-661006
-724345
-673512
-594739
-656636
-605060
-642857
-594464
-656600
-604984
-527516
-587907
-536059
-575933
-527157
-587861
-535927
-459812
-518907
-467147
-508673
-459544
-518890
-467111
-392845
-450047
-398036
-440933
-392891
-450080
-398313
-884164
-959516
-905059
-936351
-884259
-960161
-905300
-814710
-886799
-832932
-866705
-814741
-886975
-832988
-746280
-815100
-761876
-797612
-746309
-815134
-761922
-678024
-744222
-691233
-729355
-678020
-744322
-691262
-608679
-673327
-619494
-660811
-608672
-673356
-619492
-539143
-601694
-547970
-591304
-539019
-601639
-547897
-469733
-530185
-477219
-521724
-469753
-530119
-477240
-400742
-459673
-407200
-452520
-401091
-459694
-407579
-911890
-989245
-931984
-967383
-912069
-988937
-931938
-838856
-912868
-855893
-893573
-838937
-912797
-855926
-766811
-837068
-780814
-820835
-766844
-837142
-780908
-695327
-762289
-706834
-749011
-695397
-762401
-706869
-622955
-688379
-632876
-677322
-623002
-688411
-632834
-550849
-614451
-559289
-604961
-550818
-614415
-559231
-479661
-541079
-486655
-532921
-479686
-541055
-486661
-409381
-468639
-414513
-462033
-409689
-468644
-414791
-938259
-1.01369e+06
-954585
-997603
-938149
-1.01326e+06
-954357
-861119
-932538
-876599
-918787
-861110
-932603
-876295
-785274
-854900
-798927
-842255
-785344
-854954
-798807
-710409
-777428
-721950
-766693
-710440
-777469
-722036
-635976
-700942
-645762
-691922
-635894
-701022
-645935
-561912
-624942
-569882
-617460
-561859
-625026
-570102
-488813
-549388
-495193
-543647
-488818
-549536
-495424
-416059
-475032
-421774
-470796
-416331
-475225
-422248
-700248
-695366
-682564
-678079
-700221
-695307
-682571
-723173
-739991
-726016
-742841
-722819
-740298
-724187
-704885
-686597
-708849
-689684
-704754
-686599
-708028
-717454
-729384
-712263
-734527
-712291
-734621
-717413
-700227
-678057
-695255
-682551
-695269
-682561
-700167
-723174
-742649
-739890
-726074
-740263
-724179
-722757
-704870
-689521
-686617
-708976
-686587
-707852
-704735
-629474
-626108
-612031
-608782
-629516
-626112
-611992
-650450
-668649
-654742
-672046
-650621
-668595
-654392
-632473
-615350
-637600
-621546
-632727
-615096
-638462
-647016
-660786
-643388
-664857
-643389
-664828
-647058
-629447
-608772
-626087
-611978
-626106
-611984
-629445
-650422
-672006
-668665
-655012
-668578
-654434
-650589
-632396
-621859
-615244
-637724
-615123
-638439
-632585
-718333
-712944
-699242
-695889
-717799
-713022
-699514
-739946
-757568
-743100
-761580
-739650
-757756
-743228
-721726
-702870
-724802
-706569
-721381
-703152
-724980
-737070
-746313
-730562
-753982
-728892
-754226
-736529
-718485
-695977
-713083
-699589
-713087
-699627
-718176
-740059
-761691
-757835
-743441
-757845
-743355
-739987
-721863
-706696
-703285
-725172
-703297
-725105
-721798
-644055
-641183
-625716
-626399
-643877
-644177
-625908
-665916
-684363
-669440
-688114
-665800
-684563
-669578
-647409
-629110
-651028
-632694
-647341
-629168
-651149
-662572
-678177
-659328
-681185
-660769
-681130
-662639
-644106
-626716
-641376
-625948
-644328
-626028
-644086
-666025
-688231
-684719
-669729
-684692
-669680
-666095
-647484
-632773
-629329
-651274
-629252
-651244
-647576
-840986
-886018
-853700
-872384
-840381
-885486
-853540
-776547
-819029
-786035
-805021
-776519
-819007
-786067
-716461
-755630
-725853
-744647
-716313
-755623
-725601
-652950
-692314
-661341