/*--------------------------------*- C++ -*----------------------------------*\
  =========                 |
  \\      /  F ield         | OpenFOAM: The Open Source CFD Toolbox
   \\    /   O peration     | Website:  https://openfoam.org
    \\  /    A nd           | Version:  10
     \\/     M anipulation  |
\*---------------------------------------------------------------------------*/
FoamFile
{
    format      ascii;
    class       surfaceScalarField;
    location    "4.7";
    object      phi;
}
// * * * * * * * * * * * * * * * * * * * * * * * * * * * * * * * * * * * * * //

dimensions      [0 3 -1 0 0 0 0];

internalField   nonuniform List<scalar> 
38556
(
424.499
-265.997
2202.38
893.987
-410.763
-58.7258
894.093
178.236
-178.342
866.654
165.167
-137.729
906.557
272.483
-312.387
924.732
200.796
-218.971
979.547
147.88
-202.694
1029.92
77.1621
-127.538
1062.63
23.8323
-56.5409
1102.44
-10.8858
-28.9213
1123.74
-30.5064
9.20752
1151
-41.7921
14.5277
1170.13
-47.8816
28.7564
1195.29
-45.2275
20.0611
1216.49
-40.441
19.2461
1241.3
-30.6535
5.83786
1261.53
-24.4742
4.24501
1273.48
-16.7551
4.80935
1284.53
-15.9422
4.88907
-18.8125
8.58722
-1132.66
-451.402
672.331
-113.4
-203.762
-1226.26
739.664
-102.129
-572.699
754.64
84.802
65.3893
844.515
146.974
35.6336
881.767
150.922
12.6211
952.679
64.0911
12.8774
999.356
28.0661
2.41917
1022.9
-30.2068
30.4944
1031.29
-34.8219
15.5491
1008.95
-51.172
43.0047
980.694
-48.2294
34.692
949.384
-55.0104
38.4388
933.722
-54.7051
25.1392
929.582
-57.6912
21.3901
936.296
-54.877
17.5097
949.407
-55.9805
18.3953
968.856
-46.6536
10.4494
984.841
-37.1808
5.25358
-25.1507
-1.15088
-190.33
-154.898
-102.024
590.84
-246.047
-738.886
840.827
126.468
-478.585
805.2
135.845
-15.4159
851.817
93.174
7.18375
831.55
133.395
37.7937
856.305
0.645813
38.6901
858.134
12.9084
13.3292
859.007
-51.6731
20.5921
858.864
-40.0161
5.33758
848.562
-62.8218
21.9516
841.115
-53.0171
12.2352
835.077
-68.5317
19.5591
835.292
-66.9174
11.997
841.084
-76.9316
13.4491
850.308
-72.8313
8.72991
862.142
-76.4166
8.60222
879.454
-65.3208
1.35537
897.414
-49.2373
-5.90378
-24.0195
-10.1408
-23.1544
1028.59
-1546.3
449.58
-64.702
-654.079
701.796
55.5239
-181.272
677.118
16.1443
144.379
757.952
-67.6269
79.9671
739.719
54.747
96.8809
752.129
-67.555
55.7901
714.312
23.4172
27.3088
713.571
-64.7376
13.8053
704.043
-32.3585
1.87029
717.938
-81.7324
5.01577
731.836
-72.0352
5.11993
755.714
-103.935
11.5247
775.677
-100.276
13.3958
795.241
-112.389
15.893
812.971
-105.405
14.843
827.293
-104.245
13.5068
843.738
-89.7799
8.01419
865.629
-70.238
-0.890049
-31.6336
-4.49658
621.798
245.449
-1785.15
1221.77
120.662
-785.336
1225.12
59.1842
-7.01297
1156.93
-60.4028
144.74
989.771
-127.251
226.784
964.644
-14.8458
94.7204
914.132
-87.2462
70.2034
864.087
42.8445
30.6173
818.732
-35.586
16.2029
785.872
4.23298
-3.73153
775.896
-68.9177
-2.83851
782.802
-76.1452
-2.79568
797.688
-122.997
4.17533
813.081
-120.863
5.1946
824.11
-134.555
11.1365
832.879
-126.793
12.6194
835.919
-118.822
11.5378
835.666
-96.0697
6.54317
842.868
-76.6647
-0.775646
-35.8181
-3.00353
984.657
1667.85
-1284.73
1347.62
477.189
-719.49
1296.62
33.7328
76.4555
1256.24
-47.9926
27.9655
1091.15
-85.8514
123.691
1045.89
45.4016
-14.9889
1028.26
-82.4134
12.7971
968.196
139.192
-36.2807
917.448
6.39901
8.76282
858.752
60.8163
2.11248
823.651
-57.2658
23.4497
813.115
-76.4735
10.8643
820.793
-133.026
2.35007
829.477
-128.096
-1.45058
834.664
-138.408
-1.33405
839.769
-132.105
0.207306
834.729
-118.872
5.08927
821.311
-88.0083
5.35596
811.975
-67.2527
-0.0755108
-30.3334
-3.334
947.134
572.57
197.924
971.428
39.2781
413.617
1178.62
-192.508
19.0535
1182.78
-69.9987
17.8387
1060.15
-94.9232
131.708
906.302
226.012
-26.7649
810.801
28.2907
8.13503
-21.8091
25.0799
-26.6081
744.055
31.9223
-2.98261
70.9379
34.818
71.242
704.437
39.9756
-1.01538
-8.65254
31.927
-16.217
724.541
3.88909
22.3354
9.05976
1.16103
4.26674
758.342
-14.0177
8.32823
-34.2754
-16.6277
-34.4742
796.041
-32.6009
8.79938
-31.03
-30.0989
-29.2421
820.381
-40.0184
2.82651
-43.6826
-36.3037
-40.1867
840.226
-40.1811
-3.18074
-36.4039
-35.7489
-32.4264
847.264
-144.617
-0.828186
852.056
-132.829
-4.06768
847.699
-115.485
0.968886
830.491
-74.4662
3.66629
811.728
-54.5442
6.05484
-22.3214
1.33759
1472.59
-538.669
2101.49
1721.13
-31.2109
-178.049
1450.15
-2.35732
80.8288
1326.52
86.1412
-32.5127
1047.67
31.7445
152.183
226.416
75.018
8.24781
225.993
219.692
217.455
115.731
72.7286
112.397
196.304
52.8408
5.56116
-158.035
162.221
29.0256
-1.28934
-177.351
171.831
47.1178
-1.62243
-161.24
173.47
-4.36834
-3.97254
-189.698
200.42
-20.6625
-4.07686
-205.71
214.742
-42.6236
0.990194
-220.033
222.676
-44.5236
1.86228
-222.838
225.629
-45.4743
2.50222
894.016
-43.6311
4.07729
-225.567
-225.698
-213.922
-214.484
-42.7677
-38.7964
-37.8443
900.025
-144.505
5.6666
892.544
-120.062
12.0585
875.629
-68.1516
10.6002
852.622
-40.8304
9.29316
-11.2816
2.96829
1598.65
-41.1836
-945.335
1365.68
392.095
-190.327
1046.9
56.596
259.823
929.649
120.238
83.1531
192.011
68.1235
152.705
165.292
199.688
183.574
204.482
68.7046
-6.15754
-20.0294
-54.9628
52.6694
22.3874
-0.0645318
-43.0043
-8.80891
42.359
9.30497
0.149196
-46.9205
-9.93404
48.4952
7.48388
0.875488
-51.8083
-1.91042
53.874
0.0818172
-0.237116
-57.6891
5.88972
58.6
-6.64312
-0.157486
-58.6519
10.4351
58.6766
-10.6614
0.201563
-58.6192
11.2338
58.6158
-11.5637
0.333305
-58.3189
11.2727
58.5269
-11.8526
0.371909
-59.3417
238.178
-50.3232
3.18277
-59.0024
-58.2876
-58.0369
952.351
-166.237
4.18443
-238.622
-237.05
-229.637
-229.494
959.437
-131.533
4.38462
957.078
-78.8632
13.0713
929.463
-30.5119
17.2958
0.141464
11.1508
-533.212
-1637.54
-2694.09
-207.759
58.1788
8.46223
455.105
-238.797
-367.471
494.734
24.3618
56.2472
82.5171
9.12123
154.623
108.942
94.8525
112.801
-64.7933
105.829
35.2688
6.2123
-21.175
-38.303
43.2444
15.224
1.0097
-8.99832
-53.4897
54.8019
5.80705
1.87908
1.80761
-55.9358
56.5059
-3.61279
1.23506
6.97417
-58.7111
59.8571
-9.16927
1.04915
9.33465
-62.1198
61.9917
-9.99628
0.789727
9.93672
-59.5518
58.453
-9.37219
0.53426
12.0365
-57.1181
57.1382
-12.2469
0.190352
13.93
-57.5636
57.8522
-14.624
0.405445
-58.6702
53.5081
232.07
-56.5815
1.04932
-56.7531
-58.1436
-56.4796
921.442
-184.608
-13.1384
-231.15
-217.07
-227.442
-214.271
953.259
-137.612
-25.7374
990.084
-100.466
-15.2222
1000.43
-37.9876
-2.86876
8.49121
-1.22664
650.073
-1184.41
-560.686
1313.12
66.2898
-671.155
1324.58
72.7909
-323.05
1414.92
214.364
-280.343
301.837
266.111
-117.513
315.302
325.014
333.289
-22.4483
292.651
47.8794
-16.2447
-1.51035
-66.5218
64.4944
5.12513
-1.58732
3.32066
-60.851
59.8717
-1.36305
-0.978241
6.57366
-58.9962
58.8328
-5.77995
-0.630244
12.4058
-58.8452
58.8022
-12.4034
0.0406021
11.6259
-58.2356
57.7343
-11.0282
-0.0964733
8.61861
-56.4757
56.2141
-8.23807
-0.118975
12.0913
-54.7382
53.7972
-11.6143
0.463948
14.6389
-52.1009
51.9801
-14.7239
0.205886
-52.1668
58.3723
207.514
-60.1313
0.0185792
-51.7262
-51.3117
-50.5686
837.123
-196.389
-11.5981
-208.361
-206.312
-202.158
-196.913
862.136
-140.671
-21.9544
912.536
-111.974
-38.8924
958.118
-53.178
-30.3913
13.3486
-19.0725
-1303.17
-717.811
-1522.45
-273.887
195.719
-1158.71
529.6
296.97
-1027.67
660.369
356.355
-272.76
157.127
382.095
-84.1322
151.885
156.183
163.321
-81.6068
180.953
73.2236
-15.4426
-16.9853
-52.7642
55.3566
14.7414
-0.348482
-8.45335
-58.669
58.9509
8.65134
-0.479915
2.35361
-59.2716
58.7157
-1.14219
-0.655589
10.8085
-55.7487
54.0542
-9.57817
0.464168
8.17947
-49.8385
49.1811
-7.68524
0.163231
7.52315
-48.9492
49.132
-7.7515
0.0455597
11.5677
-50.3235
50.789
-11.7913
-0.241857
15.2301
-52.374
52.7273
-15.4045
-0.178919
-53.6823
60.6732
210.694
-59.2428
-0.385045
-53.9327
-51.7979
-52.3264
829.105
-203.971
2.59441
-208.57
-213.363
-196.882
-205.303
830.12
-140.695
-0.990859
847.243
-106.669
-22.4281
879.087
-47.9806
-37.0413
24.2321
-30.5632
157.621
175.226
877.961
621.374
291.751
-559.786
956.97
664.667
-703.292
1055.07
481.643
-223.392
1079.66
439.452
-81.9427
257.825
168.592
-29.3352
-47.6358
-6.42746
-38.244
3.63005
261.104
252.561
257.59
-3.41234
246.685
32.613
0.956019
-8.63879
-2.84077
-7.53709
-5.81669
-231.494
227.967
31.2311
-3.99508
-7.5822
-4.0617
-6.24864
0.983284
-235.22
242.383
-7.9909
-1.69088
-0.57148
1.99492
0.112229
6.83405
-234.446
226.161
-18.5693
4.47781
4.81357
6.40136
4.32704
7.85163
-220.57
219.83
-29.1585
1.65282
6.60081
7.5399
6.25325
9.40074
-219.777
222.572
-39.2626
-0.410977
9.18349
9.30811
8.98652
13.0793
-228.412
230.973
-53.0594
-1.36074
13.102
12.9122
12.7656
15.4331
-231.024
229.815
-59.3733
0.149267
15.2786
15.0041
14.7176
880.732
-211.232
14.6781
57.6966
56.3953
51.5026
51.4869
-227.544
-235.039
-212.033
-226.644
855.547
-194.816
16.0297
832.015
-124.098
6.93565
818.115
-88.7369
-4.03236
824.326
-31.4685
-22.7228
32.4543
-20.9173
-1670.05
980.77
950.746
-346.451
211.653
-1243.5
399.605
413.318
-494.707
604.095
294.031
-16.8785
809.295
231.324
2.928
838.834
111.824
27.2287
917.025
138.699
6.9734
-49.9497
-66.8167
-46.0878
-61.0088
966.03
0.690047
0.924116
-29.5104
-5.23433
-18.5951
2.72046
989.038
-21.7727
-25.4526
10.2023
0.137628
13.3943
0.482813
1004.54
-73.2687
-33.4201
21.9107
23.3651
22.4086
23.5051
1021.7
-106.289
-27.8266
30.2963
29.5481
29.6273
27.4815
1025.93
-169.893
-10.6532
41.8562
48.6344
40.1383
45.6845
1001.01
-180.182
6.08549
51.0551
52.3377
47.6246
48.0041
962.942
-213.208
20.5156
57.8435
61.4471
53.9122
57.5554
917.388
-178.5
12.8218
872.283
-157.673
7.96179
839.649
-92.1323
0.66794
812.761
-62.4898
0.640561
802.091
-15.0864
-5.71105
30.7122
-4.90066
652.127
65.0795
-836.893
417.189
182.597
263.995
837.03
149.556
-156.079
1000.34
159.442
-28.7221
1094.86
149.79
-12.9815
1110.34
100.733
-4.39182
1148.29
137.98
-37.2306
1150.99
77.2011
-79.2089
1147.18
61.6391
-79.5994
1149.8
-5.12888
-70.7631
1144.94
-53.9095
-47.5231
1120.82
-134.264
-11.5021
1049.97
-129.15
19.8122
955.116
-147.137
28.785
874.869
-112.501
14.2479
824.102
-104.372
-2.5343
802.483
-63.8662
-6.64757
791.628
-45.209
-6.42556
789.391
-10.4139
-2.43548
19.7357
2.62441
-315.208
-381.679
2172.2
198.124
5.06021
-335.795
649.936
-71.1759
-231.08
821.47
-44.2705
32.1777
1009.41
-32.8553
-5.29898
1121.52
-16.0085
4.63548
1183.76
83.1564
-7.41403
1219.49
89.0567
-47.588
1211.1
113.818
-43.7941
1201.78
60.6558
-56.463
1173.82
-31.0666
5.12247
1128.89
-120.766
31.4258
1036.66
-87.0334
50.1198
925.356
-83.3083
47.4729
847.158
-58.9973
24.694
800.179
-65.3067
7.91369
782.244
-45.8204
-0.109976
773.515
-31.2076
-5.27315
775.569
-9.82035
-2.64703
6.3487
2.5928
582.487
-264.836
3952.84
511.333
-227.691
303.905
741.504
-344.274
42.9265
984.501
-281.226
-6.04145
1121.77
-209.735
39.6141
1228.98
-178.084
54.866
1293.36
-73.2665
92.0367
1330.68
-25.3744
77.1138
1305.96
79.6945
58.8425
1243.84
80.0451
42.7339
1100.86
36.4496
75.4635
963.864
-44.5613
60.7882
878.225
-39.7563
38.3624
821.845
-45.9249
18.9963
789.218
-37.0992
10.7286
761.515
-47.1334
9.52972
744.995
-39.2921
9.99146
734.881
-24.3321
3.23855
733.735
-8.80104
0.126715
2.1934
-1.43392
810.442
-527.034
1955.59
1023.59
-232.326
-208.513
1149.11
65.0458
-534.845
1271.28
-117.252
-286.137
1230.69
-68.9406
-100.203
1289
-163.84
-72.5592
1353.87
-114.826
-23.3124
1458
-105.405
-24.0941
1521.54
6.32017
9.82727
1508.02
51.1568
42.4141
1324.05
105.129
115.287
1103.06
78.5632
97.8703
957.449
63.4149
42.4367
884.279
26.0514
1.19432
853.801
-2.52216
-4.09857
823.441
-24.7642
7.99028
781.488
-25.3029
27.9639
738.739
-2.62069
21.0374
715.352
2.80019
11.7857
0.716699
2.32278
-405.916
-295.649
-393.061
87.0348
-175.227
-550.05
711.726
17.7295
-577.375
933.344
-159.443
-179.426
985.475
-116.453
-4.61871
1018.05
-194.026
-2.38945
1011.17
-121.598
13.6578
1030.62
-92.6164
-32.2411
1042.93
-12.0414
6.05197
1040.65
30.9168
22.5209
1012.44
80.218
53.1129
983.203
91.4983
16.3066
968.81
95.2109
-17.4031
986.212
64.0598
-55.4099
1024.9
14.5114
-55.7255
1044.88
-24.8018
-19.9419
1021.79
-28.7514
26.5381
961.602
-10.348
67.9181
878.541
5.48571
80.3755
24.1288
20.499
279.641
-359.126
804.019
-699.604
1225.04
-403.289
1341.52
-275.929
1240.07
-14.9977
1115.18
-69.1396
947.429
46.1549
903.349
-48.5368
929.215
-37.9076
990.153
-30.0203
1071.01
-0.639903
1185.51
-23.0059
1332.86
-52.1351
1479.95
-83.0317
1562.53
-68.0649
1586.31
-48.586
1592.06
-34.5014
1603.13
-21.414
1576.68
31.9295
50.8581
1039.65
1153.58
908.223
1277.48
88.2865
-384.843
1079.43
253.157
-233.451
1062.14
85.9083
-206.338
968.924
135.83
-355.006
927.368
85.5173
-262.932
899.807
66.0323
-241.165
908.941
5.2419
-141.915
925.268
-24.668
-48.2001
957.879
-38.8945
-22.6372
988.908
-50.3669
28.545
1024.17
-50.4105
29.6801
1053.54
-49.6399
49.0255
1085.11
-43.097
31.5889
1110.01
-38.3001
32.6402
1131.87
-32.3329
16.3156
1150.59
-29.5682
15.0943
1165.76
-23.2746
12.9092
1181.82
-22.726
11.555
-19.6453
15.6889
970.68
336.938
-2708.59
16.8214
-43.9452
-140.174
555.92
-95.2531
-763.388
586.254
10.8481
110.115
703.499
57.9248
-3.70608
712.607
72.9152
16.1156
779.606
-2.57799
14.4879
797.751
-10.6176
0.133896
817.603
-47.39
33.3635
819.837
-37.9853
12.4059
816.099
-48.7772
45.1526
809.702
-37.9874
28.6665
807.089
-42.061
33.4731
810.018
-38.829
17.9417
818.038
-40.8199
15.89
829.282
-37.9559
11.8892
842.324
-37.7708
13.5561
855.942
-30.9412
4.49785
864.04
-23.8394
-1.73046
-14.4409
-9.36885
1417
-339.243
891.065
934.631
158.239
-458.702
683.131
253.877
-576.215
645.393
106.829
-73.6593
700.091
59.7028
-49.2919
674.35
89.2216
47.2292
706.603
-34.5456
38.4041
694.527
-3.5898
18.3778
700.363
-59.3814
26.7471
696.316
-34.0566
5.45553
698.855
-53.3225
23.9576
700.25
-36.9082
9.76144
707.77
-49.7053
19.6831
715.335
-44.607
10.2107
726.628
-52.1115
13.4474
737.379
-47.6504
7.67436
748.479
-48.4319
8.16273
759.106
-39.2611
-0.951674
765.842
-27.3501
-9.12915
-12.6078
-14.1402
374.994
1562.16
400.969
263.171
406.297
-790.314
474.173
359.963
-498.36
483.293
121.405
120.684
635.227
-16.4158
4.15192
612.274
98.1105
110.945
646.536
-67.0085
53.9916
606.322
34.2159
29.7173
613.119
-67.868
15.4947
601.242
-22.7174
2.40834
617.582
-71.0168
6.37019
628.65
-48.1178
5.26128
651.189
-73.8674
13.1474
668.098
-61.6798
13.5598
685.928
-70.9483
16.9001
700.144
-61.7814
14.7571
712.034
-60.4521
13.6375
722.95
-49.0998
6.93722
732.907
-34.8422
-3.35477
-13.7634
-7.59284
-712.024
-127.11
-871.767
-71.124
-103.461
-916.479
513.904
37.9322
-270.01
646.064
5.18886
128.797
764.581
-66.8279
158.679
757.833
106.065
93.5146
745.272
-64.8387
80.5943
693.24
91.0925
25.7727
664.853
-46.2313
22.9533
638.75
1.40117
-1.74752
637.915
-73.1146
0.0948351
644.813
-56.182
-1.62911
660.833
-92.7985
7.08597
674.632
-76.6733
6.38928
687.683
-85.7187
12.8552
696.642
-71.0934
12.973
701.961
-65.7686
11.5353
704.523
-50.1763
5.05816
709.592
-37.9108
-2.7764
-14.8406
-5.49167
343.027
-143.538
1343.54
474.87
-59.0407
-895.753
861.791
-69.6341
-202.899
836.164
14.858
43.9227
805.122
-28.9204
116.826
771.167
153.389
-28.3591
780.882
-79.9335
18.1774
720.956
152.998
-38.2605
696.339
-30.8216
17.9703
664.433
28.5011
6.91876
661.486
-72.0906
25.3731
665.302
-61.0734
11.9391
674.663
-104.324
4.51536
681.307
-85.4464
0.67885
685.06
-92.382
1.5759
689.927
-77.6199
1.86665
690.704
-66.9238
5.46782
686.791
-45.5198
4.61248
684.399
-34.0566
-1.53817
-13.203
-4.5636
306.866
-1104.31
1363.52
592.601
-203.498
272.338
723.773
-267.031
85.2776
746.493
-36.251
46.2274
791.008
-64.2542
122.527
672.314
278.873
-33.5554
630.769
14.1913
15.6152
-32.5566
8.95462
-36.4577
585.327
36.4252
-4.12759
65.1752
37.4441
60.5404
579.383
19.0176
-1.54815
-24.927
9.41894
-27.8549
607.507
-2.1105
25.6491
0.614674
-2.16636
0.725891
639.522
-18.0255
7.76093
-34.2338
-18.1057
-33.1725
668.702
-25.382
16.0079
-26.5801
-22.3525
-23.1475
687.589
-30.0667
3.64448
-34.7156
-26.9647
-32.2818
703.085
-27.9815
1.92331
-27.4151
-24.3631
-26.2863
705.147
-97.1986
1.92544
704.532
-78.6353
-2.4368
700.467
-65.2254
3.33595
690.655
-36.2782
4.23615
682.027
-25.3463
5.97333
-7.54692
-0.0760478
925.013
-1222.32
1168
1022.31
-371.907
-106.933
840.423
-194.289
189.969
808.927
-21.7479
-15.5195
734.479
0.858415
161.519
166.658
77.6664
3.14592
164.875
154.981
153.234
112.817
77.9347
110.286
-18.5404
147.14
41.3626
10.8875
0.229578
-118.729
131.03
24.7057
-0.810819
1.08949
-147.554
147.055
22.3439
-3.91681
4.93959
-140.461
153.465
-13.9525
-6.10183
4.45526
-167.237
173.58
-24.1626
-4.66122
-0.952082
-175.294
183.749
-34.8462
1.96112
-1.885
-187.973
190.778
-34.0111
3.02384
-2.57445
-190.431
193.989
-33.2285
4.26329
762.24
-29.6613
11.2478
-193.054
-194.871
-181.942
-184.165
-30.4133
-25.351
-27.1511
760.719
-81.7377
10.2897
747.689
-56.7861
16.65
731.044
-22.4649
13.4317
712.443
-9.05024
11.5978
3.4747
2.46017
922.289
-190.832
79.8261
921.746
39.2384
-600.93
703.117
-29.2483
313.411
604.832
131.564
28.1267
159.022
53.5788
106.153
149.034
149.521
141.086
8.11202
172.535
66.0556
-10.0148
1.06759
-18.0845
-45.8064
43.1908
21.6247
-1.99227
-0.995283
-36.4155
-6.42637
37.2273
5.56177
1.04806
-2.77243
-42.4042
-4.3176
44.6401
2.00308
2.85099
0.775825
-46.612
3.09504
47.7333
-4.02139
-0.970786
0.159472
-49.2259
6.85425
49.936
-7.5019
-0.221949
-0.128057
-50.0444
8.79113
50.3767
-9.17781
0.182462
-0.602978
-50.8117
8.71269
51.1157
-9.22527
0.811529
-0.686136
-51.2065
8.27497
51.6565
-9.00252
0.963709
-52.5966
-3.56756
211.927
-35.4537
5.71391
-52.8528
-51.2512
-51.5805
824.406
-90.1032
10.956
-210.819
-212.264
-199.059
-200.67
813.746
-50.2064
8.46549
796.502
-11.8236
19.6738
769.748
13.9451
21.054
22.8804
9.13022
-425.242
-1478.05
-4069.7
-108.524
-13.5998
-255.417
178.086
-165.746
-517.583
230.42
114.994
20.4834
80.3753
13.0509
82.7986
93.6252
78.8193
89.953
-11.8488
-60.1203
105.64
35.9121
10.7924
-2.55078
-18.3374
-36.4682
40.9259
13.767
2.66349
-5.73105
-4.90689
-48.0398
48.8957
3.46383
6.31823
-3.79767
2.08516
-50.4997
51.1105
-3.11625
4.21792
-2.60216
5.7844
-52.8141
53.2488
-6.35169
2.73477
-2.05527
7.57387
-53.6731
53.4773
-7.47587
2.15307
-1.34206
8.97196
-52.6662
52.4306
-8.77435
1.38005
-0.590464
10.2953
-52.3781
52.5256
-10.5117
0.659399
-0.852921
10.5796
-53.3781
53.7117
-10.9717
0.911452
-54.5098
-0.684733
36.9358
215.609
-38.6308
0.572491
-53.4382
-53.3943
-52.4595
829.904
-102.488
-12.4755
-214.218
-204.111
-203.597
-196.256
835.376
-57.3666
-24.0495
837.838
-17.1614
-12.3457
822.731
27.409
-1.22657
39.9615
-3.75419
1457.32
-893.157
-213.113
1270.28
-42.0981
-455.625
1068.49
27.727
-314.73
998.576
186.949
-282.384
224.007
171.431
-136.196
227.948
201.976
204.949
16.8202
-25.4421
224.074
33.6
-25.0456
-0.490743
-3.15405
-54.2501
54.7205
3.09634
0.07804
-1.9551
2.32242
-53.2329
52.5387
-2.31087
2.63774
-0.138708
5.28415
-51.1192
50.849
-5.37956
0.504274
-0.81152
8.06968
-50.4366
50.3319
-8.21468
1.06123
0.100072
7.65843
-49.5542
49.3351
-7.27069
-0.268667
0.167228
8.1441
-48.9881
48.8303
-7.81809
-0.335482
-0.728222
10.3476
-48.121
47.8759
-10.0845
0.710192
-0.410618
11.1934
-47.5461
47.6174
-11.218
0.363917
-47.9127
0.758017
39.446
189.744
-40.4942
-1.72974
-46.766
-47.1267
-45.9184
757.819
-118.268
-20.2333
-190.485
-183.733
-183.338
-175.848
781.221
-69.2416
-33.482
801.886
-34.6335
-42.0852
805.315
22.3833
-28.794
45.5176
-20.8795
933.857
8.71813
2343.48
473.889
-51.7356
-689.106
361.565
94.8659
-982.48
397.265
213.026
-334.538
101.223
197.958
-138.343
120.385
90.011
113.329
25.9187
-41.4659
130.901
17.1821
-31.3129
-0.954954
-2.59205
-42.8815
46.3301
-1.08561
1.18403
-1.42172
0.741894
-50.6112
50.4518
-0.888461
1.72768
0.315456
4.02353
-48.302
47.5356
-3.51657
-0.0559431
-1.00016
7.12136
-45.1088
44.345
-6.40277
1.04531
-0.37236
6.5218
-43.138
43.0571
-6.39393
0.325383
0.024989
7.55805
-43.2403
43.3795
-7.63869
-0.0834656
0.453851
10.0232
-43.9937
44.1668
-10.172
-0.478197
0.314937
11.5122
-44.8523
45.0372
-11.6527
-0.359364
-45.6888
-0.00620443
40.9465
180.046
-40.5475
-0.345195
-45.5875
-44.536
-44.2815
715.616
-127.493
-1.28097
-179.38
-181.213
-170.5
-171.422
727.738
-70.7965
-11.5574
743.315
-42.2586
-30.3805
752.447
14.6928
-38.4822
42.9636
-30.9679
392.174
872.067
-496.418
937.971
64.4316
-1221.75
884.054
437.696
-992.205
891.904
279.109
-297.325
914.602
212.819
-119.502
213.138
-49.9118
-35.9099
17.2085
37.4118
27.861
46.5787
219.085
201.249
208.558
7.9225
4.52564
200.638
-7.94898
-5.11828
1.71647
8.87224
2.52962
2.10784
5.17469
-177.527
174.03
-0.612874
-4.0085
-1.01901
2.5241
-0.668941
4.81208
2.16094
-178.922
182.799
-17.6628
-2.95716
2.43184
4.93796
2.40052
6.38072
-5.74363
-175.844
175.241
-19.9915
5.60039
4.1836
6.1968
3.97619
7.17818
-1.27412
-178.158
181.109
-28.3238
0.843299
5.85874
7.06075
5.70569
8.76364
1.04746
-181.274
183.692
-35.7223
-1.31179
8.19586
8.61622
7.99244
11.1601
1.85191
-186.792
187.579
-43.7415
-1.82771
10.6361
10.8711
10.2627
12.0021
-1.88674
-186.823
186.601
-46.1077
2.22616
11.4696
11.5506
10.9675
714.393
-147.21
20.0127
40.5692
39.5598
36.0697
35.2328
-184.704
-190.662
-171.633
-176.951
707.035
-118.613
14.5082
699.966
-58.7967
2.00419
699.041
-34.4214
-10.9435
702.66
13.0542
-24.7034
38.2029
-21.3476
-1046.93
1452.32
-161.831
-215.466
75.805
-2086.34
304.826
310.569
-887.872
494.41
150.85
-78.2031
688.304
70.9526
-49.0993
691.359
-39.2864
13.5487
748.647
45.2827
4.5942
-12.8905
-40.2599
-9.14228
-37.8994
769.471
-58.4618
-6.78721
3.96329
15.6434
8.04682
17.6962
778.662
-51.078
-30.721
19.3188
4.85431
19.3493
3.63251
779.543
-107.869
-30.6051
25.3047
26.8369
25.2846
26.7472
783.218
-124.737
-19.8095
30.0748
27.438
29.3698
26.1629
782.631
-167.5
-2.8367
38.5656
43.0749
37.1939
41.4362
771.263
-161.771
13.2268
42.953
42.5897
40.5933
39.8608
753.801
-170.408
26.7002
45.7775
48.4641
42.5413
44.9033
729.546
-125.555
15.4223
703.987
-94.4568
9.36384
688.256
-42.3687
-0.02861
679.379
-22.3994
-2.50468
680.02
14.0854
-7.38308
31.5051
-5.03761
90.0413
164.83
-2690.59
236.458
247.818
-54.4345
861.959
200.718
-671.73
985.073
160.165
-161.151
1036.53
92.4425
-85.9284
1012.96
19.676
-39.7828
996.262
65.0865
-40.3381
947.42
-9.6433
-79.1847
905.298
-18.3597
-70.1965
870.781
-71.6777
-72.4377
845.23
-106.126
-40.5826
823.971
-149.855
-7.88963
792.212
-130.787
20.5878
747.487
-127.444
30.5458
703.125
-81.2513
14.3059
674.131
-65.9426
-2.05439
663.191
-32.1091
-5.96729
659.829
-18.5888
-6.87417
665.874
7.98326
-2.37793
21.4756
2.38277
1054.22
-75.3224
3671.26
847.854
448.722
-330.33
754.344
292.517
-229.369
880.679
142.576
-76.5679
951.782
57.1078
-41.0671
987.922
7.12668
-18.9549
983.242
73.9083
-11.5555
965.199
21.6129
-60.8013
924.138
23.8761
-44.969
892.382
-45.7983
-50.586
867.913
-92.2473
15.712
846.337
-132.061
35.2086
802.781
-88.8939
51.7824
746.444
-71.2156
47.5816
700.627
-37.89
27.15
670.333
-36.4705
8.7344
658.506
-20.3427
-0.0493442
652.232
-11.7873
-5.79999
656.312
3.64498
-2.38953
11.5473
2.28195
-130.729
914.917
2228.68
449.819
500.516
-328.437
705.779
116.449
-36.9658
925.021
-3.18363
-79.5239
1004.79
-29.8979
46.8546
1059.88
-46.168
53.0623
1082.51
43.972
99.3451
1074.6
49.2426
57.395
1021.22
80.3872
55.7088
955.321
31.6843
31.1542
865.628
-9.12336
82.0329
786.41
-55.3602
63.3055
727.004
-33.9465
42.8207
683.188
-30.1181
21.7149
658.918
-14.5635
11.6724
640.418
-17.6723
9.23057
631.637
-11.2031
9.63228
625.979
-5.1954
2.30501
627.384
2.76403
-0.397492
7.45696
-3.12508
1665.39
1213.68
-904.124
1923.79
745.608
-711.999
1625.14
508.576
-628.323
1583.74
80.6525
-328.572
1380.15
134.567
-61.0814
1291.86
-7.70585
-22.7259
1214.49
70.9543
27.068
1202.99
46.1548
-9.49993
1179.47
98.4245
15.3035
1135.58
79.0897
38.9001
1006.76
91.2621
143.724
873.86
55.8562
119.551
780.208
43.9795
58.163
724.199
19.4129
7.67218
696.587
10.3729
-1.42304
676.382
0.0280574
10.4945
658.857
7.0513
27.2343
637.127
20.8186
16.7532
623.338
21.5811
6.75824
11.9706
-2.517
268.266
254.813
-2274.57
526.064
408.319
-470.56
681.555
184.287
-408.576
791.848
-56.7845
-152.283
824.786
42.0292
54.981
858.144
-39.7647
-3.68921
884.121
49.239
9.39677
895.968
43.4942
-41.4274
886.207
98.2778
15.9596
861.433
95.6544
30.7297
833.485
114.067
58.2562
808.355
93.5246
3.76826
791.357
73.8737
-30.2996
780.541
36.2593
-61.4408
777.075
9.25564
-51.1418
777.538
-1.83983
-18.5377
773.625
5.22727
32.275
762.126
37.1213
63.1147
739.838
64.0849
60.1596
49.3481
-0.896071
157.166
-2132.05
486.194
-620.313
805.635
-538.444
718.63
-245.708
686.213
59.4487
650.456
-73.1475
696.953
48.8967
729.131
-37.221
785.617
3.88453
841.142
10.1092
911.096
43.4731
985.737
-4.12254
1045.1
-37.629
1078.93
-80.5954
1098.13
-78.0067
1106.77
-59.0721
1114.04
-36.5459
1163.21
-33.4556
1242.46
16.764
58.6359
827.278
177.509
837.691
1010.74
-211.629
-356.673
1151.98
-59.574
-315.119
1169.36
-58.5748
-165.145
1046.41
41.3802
-273.433
951.003
28.7436
-196.273
843.583
34.5645
-168.31
814.252
-14.2631
-98.3201
819.5
-36.3476
-17.1004
844.589
-41.829
-5.89691
879.707
-46.3033
39.7302
917.431
-39.9456
31.9013
953.487
-35.9031
48.8724
987.71
-29.2717
26.6381
1014.55
-24.4362
30.2316
1035.31
-21.1126
16.6749
1052.16
-19.4366
17.6795
1066.3
-15.5858
14.3533
1083.25
-16.213
10.8163
-12.1677
15.3314
-93.8792
814.803
-4709.58
261.079
-90.0207
-616.74
393.687
-122.503
-833.067
468.039
-25.0376
2.22604
578.923
16.8548
-90.0649
579.083
39.8338
4.8654
646.32
-20.2975
2.11215
645.246
-14.4776
1.42307
664.287
-46.9544
24.929
660.272
-28.3538
2.94611
669.078
-38.0712
28.1143
672.618
-24.6471
9.82727
683.652
-28.9857
15.5217
693.129
-25.117
4.31074
705.924
-27.2426
5.90042
718.121
-24.7727
3.35276
730.609
-24.1552
5.78707
740.664
-19.164
-1.97873
745.01
-14.3326
-7.95716
-6.93269
-14.7151
1505.57
1062.48
2290.02
927.68
140.228
-111.063
642.994
205.909
-619.941
588.903
76.0162
-120.621
588.976
40.5995
-73.1095
557.288
73.8943
44.8559
590.984
-43.0064
27.4168
571.386
3.3117
20.1867
581.908
-53.4445
22.7157
573.999
-21.7737
6.7838
583.003
-41.0426
17.9253
585.956
-23.9184
6.07972
598.694
-35.3325
13.2911
607.416
-28.4927
4.86517
620.043
-35.1455
8.72351
629.637
-30.4759
3.78267
639.205
-30.5471
4.98696
645.535
-23.4572
-2.98815
647.086
-15.4341
-9.57864
-5.97828
-13.0017
49.3698
1679.72
1168.89
296.259
253.223
-1150.2
406.104
353.095
-755.392
425.217
154.698
22.8901
508.16
19.5725
-57.7644
490.659
116.66
85.6801
540.353
-68.6128
29.9031
502.212
47.594
23.5758
519.355
-66.0082
10.9152
506.245
-7.66234
1.40735
525.195
-58.4511
4.82906
532.693
-30.0617
3.90621
553.176
-52.24
9.57225
566.091
-36.3573
8.50886
581.818
-45.6096
11.637
593.015
-36.2241
9.30899
603.204
-36.1277
9.0293
610.871
-27.2076
3.02065
615.241
-18.2982
-4.86107
-5.74548
-7.38351
-414.911
-638.199
-2087.36
-114.505
-133.13
-830.532
414.565
133.186
-579.171
508.304
77.8826
111.873
609.177
-5.05276
82.4311
586.263
162.388
70.7003
600.837
-65.4933
62.901
554.083
102.957
17.1641
545.157
-53.5242
19.3952
525.932
8.61552
1.19956
531.545
-65.6923
1.72282
536.992
-36.7257
-0.412319
552.534
-67.2549
6.55892
562.955
-44.9747
4.58589
575.236
-54.5369
9.50227
582.751
-38.892
8.125
588.771
-38.2085
7.59672
591.8
-26.8912
1.71307
594.842
-20.1727
-3.94417
-5.96181
-5.56653
837.897
-745.505
2930.07
494.512
-81.334
-604.164
619.425
16.8214
-211.446
606.575
79.2375
55.4182
617.691
15.4982
85.1596
584.964
182.522
-15.7659
614.741
-91.1555
14.0622
554.952
155.065
-30.5791
551.391
-53.2988
21.306
532.014
27.8229
7.08861
541.864
-69.2512
19.0814
548.306
-40.2025
8.97471
559.184
-78.0756
4.45865
564.343
-51.5236
2.06884
568.724
-59.5548
2.21219
572.809
-42.7393
1.6293
575.137
-38.7709
3.70233
575.198
-24.3109
1.97124
575.137
-19.011
-2.63949
-5.55283
-4.08229
344.985
-1127.73
1745.28
454.466
-160.927
242.45
582.6
-195.929
169.894
583.213
20.1476
104.704
641.982
-22.3441
101.6
517.849
290.269
-17.1691
502.475
2.7474
20.0612
-39.6317
-2.60387
-40.7398
468.33
38.2054
-2.30084
56.8311
38.615
53.7325
481.61
1.07873
-1.82686
-31.3182
-4.05922
-32.0014
507.168
-1.27296
22.4307
1.66748
0.44035
4.64892
536.817
-16.999
4.03943
-31.6542
-15.946
-30.5801
557.66
-17.3983
17.6428
-17.3612
-14.2663
-13.6548
574.445
-21.5028
4.55797
-28.4805
-18.5766
-27.2138
586.12
-18.0796
7.50807
-19.9547
-14.7945
-15.9542
586.778
-61.576
3.28828
583.807
-41.0743
-1.13019
580.65
-35.626
3.34815
575.178
-16.6491
2.0463
571.557
-12.4391
3.02251
-1.78793
-1.07643
751.782
-656.055
1801.82
597.054
-197.854
84.7207
548.438
-167.108
209.765
552.809
-3.36934
3.62664
570.513
6.31874
115.152
126.695
79.1491
3.80568
125.712
117.893
116.809
109.088
78.5678
106.208
-10.3507
112.243
25.4826
2.06769
0.937351
-88.9867
105.926
20.3204
0.00889288
3.51587
-123.618
125.682
0.0882007
-4.5896
6.12359
-118.737
131.611
-14.6503
-5.62005
4.34541
-143.719
147.867
-21.7886
-3.70344
-2.32501
-147.185
154.837
-26.2069
3.48161
-2.80846
-158.652
161.307
-24.7342
3.38414
-4.39303
-159.782
163.698
-23.1082
5.50542
635.287
-17.9666
17.5497
-161.781
-164.076
-150.687
-152.339
-23.2999
-14.2481
-18.7676
629.448
-35.9943
11.0494
617.309
-21.5275
14.6902
604.574
-3.17368
12.6907
592.272
1.74942
9.71128
8.13884
0.718284
1090.48
1306.55
2189.52
728.486
496.619
-933.41
563.689
37.7533
273.347
445.168
143.769
-0.490239
127.878
31.6521
43.8757
121.82
118.899
113.515
6.5986
138.855
66.0747
-4.50117
1.5348
-13.9316
-36.7746
34.1446
17.2141
-2.18736
-1.55575
-29.5943
-2.69977
31.4117
1.1472
1.29099
-2.32679
-37.0873
-0.338454
38.9563
-1.13233
1.92859
0.981039
-39.2057
4.00553
40.2898
-5.09124
-0.979458
0.468024
-41.4764
5.9849
42.1997
-6.70126
-0.474906
-0.20259
-42.1524
6.77767
42.6388
-7.39673
0.335286
-0.92965
-43.162
6.23904
43.7097
-6.90306
1.04597
-1.2224
-43.6985
5.54355
44.303
-6.32298
1.39731
-44.7419
-6.329
180.104
-22.2107
7.27128
-45.1555
-43.2528
-43.6518
680.455
-36.2226
14.0214
-176.804
-178.336
-163.965
-164.187
664.894
-10.6629
13.1614
647.323
19.5662
14.505
628.273
27.5598
14.2934
25.4236
3.71871
156.165
904.535
-391.616
198.587
461.23
-262.45
100.028
-90.2386
-291.032
141.949
121.503
0.828686
63.6826
-15.0871
10.334
72.7055
58.4513
66.3138
-14.5943
-57.2445
91.2062
30.0006
14.3145
-3.81776
-14.8396
-32.583
36.4676
10.9106
3.86203
-6.38015
-0.7972
-41.5224
42.1035
0.541069