/*--------------------------------*- C++ -*----------------------------------*\
  =========                 |
  \\      /  F ield         | OpenFOAM: The Open Source CFD Toolbox
   \\    /   O peration     | Website:  https://openfoam.org
    \\  /    A nd           | Version:  10
     \\/     M anipulation  |
\*---------------------------------------------------------------------------*/
FoamFile
{
    format      ascii;
    class       surfaceScalarField;
    location    "4.7";
    object      phi_0;
}
// * * * * * * * * * * * * * * * * * * * * * * * * * * * * * * * * * * * * * //

dimensions      [0 3 -1 0 0 0 0];

internalField   nonuniform List<scalar> 
38556
(
429.308
-506.2
1179.89
1011.19
-374.98
-206.9
1033.63
149.904
-172.342
997.868
172.241
-136.483
1036.3
271.823
-310.253
1050.75
198.427
-212.876
1104.08
144.61
-197.939
1153.44
73.6401
-123.008
1186.54
23.1541
-56.2476
1226.03
-8.05604
-31.4412
1249.37
-32.0014
8.66311
1278.28
-43.3129
14.4069
1299
-49.4563
28.7334
1325.54
-46.6461
20.1036
1347.94
-41.6898
19.2983
1373.82
-31.8098
5.92573
1395.21
-25.6651
4.27709
1408.1
-17.728
4.83673
1419.65
-16.5271
4.97877
-20.0325
7.08336
-1028.39
-506.237
492.247
160.67
-251.881
-1312.16
901.233
-77.1757
-513.483
900.474
105.35
67.6504
979.008
158.993
34.2954
1010.84
153.755
12.8368
1077.8
64.3068
13.3497
1123.83
26.8462
0.756081
1146.44
-26.8574
27.4034
1156.22
-35.0284
17.1941
1136.01
-55.0803
43.2872
1109.42
-51.9235
35.2034
1080.41
-58.9791
38.5333
1066.64
-58.2134
25.3386
1064.22
-60.8348
21.5619
1072.2
-57.4905
17.6998
1086.24
-58.1799
18.4763
1106.23
-48.3489
10.6334
1122.56
-38.5574
5.6992
-26.2028
-4.05075
157.369
178.087
-1214.11
756.202
-91.8378
-758.877
968.55
149.887
-439.41
924.056
161.989
-12.145
976.214
96.6768
10.1577
955.431
137.012
37.5276
981.074
5.08389
33.5798
984.416
14.0556
9.44815
987.703
-50.8041
20.6594
987.471
-39.7225
4.92631
979.452
-68.7796
21.7185
972.996
-58.1199
12.6528
968.983
-74.5514
19.5847
970.518
-72.1209
12.3729
977.661
-81.6105
13.6324
987.838
-76.5874
8.92038
1000.5
-79.4369
8.59467
1018.21
-67.582
1.52516
1036.32
-50.8546
-5.81168
-24.6836
-14.0517
67.8179
770.138
-1190.63
557.041
-80.5815
-500.48
812.655
62.5395
-168.266
800.945
32.1481
141.551
881.83
-52.4812
68.273
867.575
59.2427
92.0239
882.295
-59.9693
50.3341
846.518
25.2632
24.569
846.666
-63.6124
12.6603
836.85
-27.1682
-2.73837
852.536
-88.5845
4.11951
867.275
-78.2059
5.34709
892.47
-111.337
11.5903
913.085
-106.683
13.9468
933.338
-118.13
16.2676
951.676
-110.084
15.1577
966.652
-107.875
13.4624
983.442
-92.3641
7.9922
1005.34
-71.9978
-0.755482
-32.2565
-8.59034
889.488
300.624
-1412.56
1300.59
90.6554
-582.336
1331.26
77.8133
-45.9472
1267.86
-60.2414
155.79
1109.25
-125.514
231.646
1086.95
-11.162
92.7002
1040.95
-85.8033
71.8343
994.183
47.7492
24.2823
947.122
-31.068
14.5166
918.999
4.6737
-3.71927
910.223
-75.4309
-4.37748
918.099
-82.9238
-3.15732
934.606
-131.838
3.99302
950.754
-128.285
5.45322
962.748
-141.516
11.3926
972.221
-132.566
13.0095
975.99
-123.147
11.5025
976.11
-98.96
6.47626
983.49
-78.4467
-0.930854
-36.5935
-7.13472
1048.86
1373.15
-357.648
1397.28
332.565
-590.323
1397.86
11.6686
65.5663
1374.24
-57.2209
20.5903
1216
-92.1622
124.893
1169.96
57.8272
-22.9465
1154.18
-71.5896
1.56268
1100.7
133
-31.77
1048.95
10.1329
10.5456
992.848
55.3871
5.39161
958.664
-63.1022
21.8549
949.877
-84.0564
9.91948
958.655
-142.837
2.22148
967.838
-136.116
-1.35221
974.07
-146.56
-1.18822
980.037
-138.985
0.451955
975.629
-123.829
5.08975
962.63
-91.2287
5.26709
953.561
-69.358
-0.0196732
-31.1174
-7.5469
1206.83
573.453
-10.3245
1071.6
119.737
348.053
1319.99
-223.754
-12.9646
1315.15
-55.1082
2.73193
1183.54
-82.3702
121.812
1040.72
218.019
-17.3731
942.676
15.2596
8.10777
-3.23731
14.6838
-8.35678
882.393
19.3329
-2.5199
76.79
22.6776
77.0031
841.728
27.3604
-3.5717
8.58438
18.764
-0.339449
862.89
-10.9802
18.7761
21.524
-13.6262
18.5314
899.172
-27.432
10.1564
-26.0118
-29.6484
-26.4484
934.612
-44.9107
9.83401
-22.884
-42.3974
-19.138
960.064
-51.2925
4.46085
-38.9676
-47.6288
-34.8608
978.238
-51.0051
-0.32628
-30.7456
-46.6815
-25.5309
987.725
-155.603
-0.444538
993.653
-141.208
-3.70559
989.743
-121.082
1.16374
972.544
-77.9789
3.94845
954.117
-56.8355
5.90461
-23.0296
-2.36952
1720.9
-586.379
1240.99
1911.68
145.151
-216.197
1591.89
67.2264
28.8099
1464.99
118.237
-46.445
1182.02
59.3345
141.27
260.541
63.1287
12.253
262.699
254.007
254.395
117.669
60.8601
114.482
225.347
44.9441
5.50985
-198.66
193.692
24.8786
-0.578086
-215.426
201.69
41.5409
-0.443867
-201.705
203.371
-7.17026
-5.4761
-228.992
231.771
-25.8251
-4.3851
-244.14
245.732
-47.3968
0.894058
-259.1
255.268
-49.054
1.59367
-260.602
257.158
-49.7382
2.17795
1036.46
-52.9821
5.46462
-263.251
-261.345
-251.98
-250.299
-37.5751
-48.224
-31.8738
1043.24
-153.708
5.72287
1035.52
-125.956
12.5986
1018.41
-71.9017
11.0329
995.493
-43.4128
9.49039
-12.0446
-0.14243
1768.07
59.1964
-1419.84
1461.88
489.344
-37.9978
1158
67.1857
303.92
1057.72
134.695
83.8207
226.324
85.6498
147.657
203.251
233.58
220.59
235.9
59.5209
-5.96767
-16.9342
-63.9356
60.5615
20.3295
-0.0211924
-53.3772
-5.40386
50.5769
7.98891
0.215237
-56.7526
-6.87259
56.2285
6.36895
1.02774
-61.8779
1.77002
61.1362
-0.413087
-0.615284
-67.8218
9.00985
66.7327
-7.8166
-0.104187
-68.376
13.0877
66.8494
-11.7842
0.223054
-68.3133
13.7571
66.8704
-12.6135
0.299336
-67.9267
13.7188
66.7427
-12.8611
0.32631
-69.1377
270.61
-53.5866
2.73166
-68.1645
-68.1714
-67.2635
1098.27
-171.085
2.80565
-276.435
-273.5
-267.699
-266.062
1103.78
-135.901
4.42754
1100.66
-81.7474
12.9706
1072.67
-32.2969
16.8744
-0.0441982
7.48797
-502.455
-1938.3
-2071.61
65.9764
-5.70242
-73.385
672.408
-208.43
-330.816
683.568
66.8847
56.6515
126.695
37.302
150.789
156.366
138.135
159.931
-59.1375
148.015
32.1202
5.69687
-20.1825
-47.6066
52.8132
14.0317
0.944155
-8.63954
-62.5506
63.5014
6.01613
1.67264
1.24742
-64.4156
64.7487
-2.84822
1.26766
7.19893
-67.4838
68.6518
-9.56416
1.19724
9.68204
-70.921
70.7687
-10.3562
0.826512
10.3664
-68.1873
67.1052
-9.79271
0.508363
12.4962
-65.8521
65.8895
-12.7133
0.179694
14.3271
-66.343
66.6547
-15.0122
0.373521
-67.7149
55.2992
267.505
-57.9375
0.90128
-65.5547
-67.1899
-65.3085
1068.06
-188.45
-15.0756
-267.987
-252.997
-264.316
-250.316
1099.39
-140.602
-26.6328
1135.4
-102.444
-15.3099
1144.53
-39.3399
-2.09367
8.04978
-3.78661
986.439
-1194.73
234.755
1484.92
105.355
-609.543
1468.51
113.578
-305.598
1572.2
221.801
-258.598
339.551
279.321
-105.832
357.828
362.834
375.796
-24.0102
332.172
45.837
-14.4477
-1.63942
-75.71
74.0092
4.56111
-1.22092
2.3705
-69.9248
68.9237
-0.394332
-0.975044
6.43863
-67.7976
67.6517
-5.52385
-0.768846
12.9008
-67.7302
67.676
-12.9132
0.0666405
11.9398
-67.1037
66.58
-11.3432
-0.0727473
9.00464
-65.2938
65.058
-8.61607
-0.152689
12.5649
-63.5566
62.6256
-12.0854
0.451414
15.0735
-61.0154
60.9123
-15.1421
0.171771
-61.2782
59.5124
243.598
-61.1333
-0.0982505
-60.6148
-60.487
-59.4985
984.794
-199.287
-13.6962
-245.238
-242.583
-239.155
-233.285
1009.81
-142.495
-23.12
1059.42
-113.295
-38.765
1103.82
-53.8381
-29.902
13.15
-22.4385
-898.98
-798.832
-851.272
7.26955
289.394
-1090.29
742.524
337.112
-958.789
845.751
370.552
-251.977
199.479
389.935
-73.5332
199.504
198.837
210.85
-82.276
220.709
74.8726
-13.8259
-16.7234
-62.2062
65.1489
14.2705
-0.489886
-8.45651
-67.9172
68.1641
8.58533
-0.375691
1.25352
-68.5526
68.0484
-0.21899
-0.530298
11.2781
-64.6667
62.9251
-9.9603
0.423792
8.43157
-58.7837
58.1423
-7.89989
0.109744
7.87618
-57.988
58.1639
-8.0749
0.0227815
12.0251
-59.3361
59.7821
-12.22
-0.250972
15.6174
-61.3676
61.7166
-15.7538
-0.212682
-62.8728
61.2496
245.753
-58.5618
-0.28949
-62.9094
-61.0372
-61.3322
977.239
-204.761
1.27826
-245.917
-250.28
-234.402
-242.443
977.934
-141.076
-2.1147
994.8
-107.128
-23.0339
1026.02
-48.0685
-36.9853
24.0578
-34.1138
487.065
828.099
1056.57
853.125
527.949
-604.615
1155.61
747.193
-712.569
1225.42
523.601
-222.852
1235.47
460.555
-80.6729
293.201
180.285
-16.7993
-58.4861
-5.43911
-50.6709
7.97608
300.425
288.006
296.972
-7.86132
282.596
35.7816
3.77624
-7.34692
-7.31951
-6.42504
-8.56145
-269.748
264.146
34.8428
-2.69195
-5.93021
-7.29193
-4.76589
-3.38665
-273.78
276.828
-0.543183
-1.52535
1.9878
-2.19095
2.61057
3.26363
-272.345
260.734
-13.2854
4.34686
7.44073
2.887
6.95765
5.55615
-257.684
254.88
-27.2091
1.71494
8.94061
5.19267
8.60879
7.72785
-256.934
257.987
-38.4214
-0.373096
11.2686
7.67573
11.0697
11.7356
-265.32
266.147
-52.4189
-1.31129
14.9615
11.5808
14.6254
14.1923
-267.671
264.889
-58.7174
0.0761114
17.0089
13.76
16.4625
1027.97
-211.564
12.5631
52.538
62.5844
46.1008
57.7868
-264.468
-271.291
-249.165
-263.056
1003.03
-194.718
14.8946
979.671
-123.949
6.23544
965.79
-88.7945
-4.45183
971.867
-31.2539
-22.8919
32.4562
-24.5953
-1573.29
1370.79
1368.28
-139.292
396.136
-1302.19
564.402
504.757
-461.258
756.267
345.845
-14.1091
958.966
251.421
6.43572
988.228
128.103
22.9199
1067.18
142.001
6.03479
-57.7988
-60.2698
-54.4509
-54.4667
1111.41
18.9039
-10.5721
-38.1539
3.75873
-29.8925
11.7261
1132.83
-6.64853
-29.5459
-5.38887
10.9856
-2.04143
11.219
1151.95
-71.5312
-33.4321
9.02251
33.5678
9.59859
33.6541
1168.38
-108.085
-28.2677
22.7941
38.6624
21.8112
36.6529
1171.62
-172.83
-11.8929
36.6686
56.4859
34.73
53.5973
1145.72
-182.468
4.78558
46.194
59.5499
42.5244
55.3126
1108.73
-214.189
18.8796
52.7022
67.4202
48.5729
63.6129
1063.85
-178.616
11.9246
1019.29
-157.566
7.41149
987.039
-92.0749
0.375231
960.389
-62.6355
0.491675
949.895
-14.8909
-5.86937
30.7437
-8.33707
576.106
145.125
-889.136
486.907
275.542
209.793
945.902
211.315
-165.553
1130.08
197.508
-35.8413
1230.61
174.792
-23.9043
1251.87
117.009
-10.1581
1290.24
145.938
-42.3161
1295.3
81.3636
-67.521
1293.11
64.0235
-68.4769
1294.05
0.880187
-73.3564
1289.19
-54.2662
-48.952
1265.57
-137.468
-11.7404
1194.26
-130.798
19.6327
1100.21
-148.301
28.1663
1021.21
-113.095
13.4808
971.407
-104.784
-2.98273
950.41
-63.9977
-7.07997
939.83
-45.3623
-6.69294
937.675
-10.3242
-2.41136
19.5316
0.333095
-541.531
-442.393
1493.99
202.472
8.19286
-476.654
709.49
-54.1042
-241.599
916.196
-24.2053
15.0075
1126.14
-15.3733
-19.7739
1251.93
-2.71661
-6.0669
1322.92
85.4106
-10.4691
1363.52
90.4942
-49.7293
1358.14
112.689
-43.2812
1350.1
60.7577
-51.8428
1320.93
-30.6609
5.56466
1275.28
-123.131
31.3193
1182.01
-87.6393
50.105
1071.03
-84.3088
46.9938
993.884
-59.9608
24.0106
947.782
-66.1763
7.49464
930.387
-46.3043
-0.298618
921.959
-31.3005
-5.63414
924.068
-9.76984
-2.66302
5.81604
0.325353
321.465
-519.944
4157.42
539.77
-411.454
201.341
847.788
-402.52
40.3991
1110.16
-306.904
20.3279
1257.1
-217.245
54.9349
1371.67
-180.062
62.7674
1436.33
-69.1266
89.8809
1473.41
-15.0192
68.438
1451.29
81.0232
53.7843
1388.76
77.3048
45.9765
1244.85
34.0578
79.1923
1109.03
-47.6373
60.3328
1024.93
-41.4428
37.8972
969.386
-47.5471
18.784
937.158
-38.4967
10.7638
909.857
-48.3942
9.5187
893.857
-39.8989
9.59511
883.959
-24.3975
2.99456
882.546
-8.71583
0.359507
1.90814
-4.71833
792.581
-1060.21
1302.02
1125.91
-430.963
-313.819
1258.35
18.6961
-553.653
1383.4
-141.74
-290.219
1354.72
-78.8747
-109.694
1424.1
-178.615
-70.8282
1496.9
-119.99
-21.9311
1608.24
-106.931
-19.4271
1668.97
14.8506
5.4435
1654.3
51.3808
40.5931
1468.47
104.573
115.315
1246.75
76.1735
97.9052
1103.63
61.3218
40.3598
1031.65
24.2494
0.176196
1001.37
-2.42004
-5.79231
971.199
-26.027
7.80394
929.756
-25.9796
27.5234
887.494
-2.32901
20.1939
864.77
2.34465
11.6634
0.669764
-0.191703
20.0119
-488.598
-26.1499
325.11
-281.696
-454.365
884.772
-2.90629
-538.06
1097.48
-180.019
-174.429
1138.43
-120.776
0.94759
1167.41
-197.396
-10.1912
1158.12
-122.042
11.3416
1177.8
-92.239
-34.3777
1191.42
-7.56041
8.79692
1188.69
31.6751
22.4371
1160.35
80.0797
52.824
1131.19
90.6536
14.6811
1116.86
93.9258
-18.2747
1134.35
62.4075
-55.6417
1172.97
13.0767
-54.1142
1191.87
-25.724
-19.209
1167.92
-29.1661
27.1399
1107.52
-10.5752
68.646
1025.1
5.01768
79.7426
25.3438
16.4141
787.894
795.31
1042.31
-536.112
1395.19
-355.784
1495.44
-280.275
1381.2
-6.52891
1258.17
-74.3695
1091.34
44.7898
1049.95
-50.8486
1078.87
-36.4804
1140.64
-30.0966
1221.81
-1.09073
1336.42
-23.9579
1483.38
-53.0285
1628.85
-83.0719
1709.19
-67.2565
1731.76
-48.2927
1737.22
-34.6301
1747.7
-21.0527
1719.5
33.2171
49.6721
1206.91
1349.27
1090.08
1403.99
69.5995
-473.58
1215.19
235.213
-218.754
1186.52
89.8478
-197.658
1094.83
136.562
-355.123
1052.35
85.4007
-255.798
1025.45
64.3158
-235.357
1034.15
5.61855
-137.328
1051.13
-24.813
-48.4123
1083.95
-40.2525
-24.0045
1116.62
-52.1257
28.1202
1153.04
-51.7905
29.7756
1183.65
-51.1018
49.2199
1216.36
-44.4484
31.847
1242.38
-39.6163
32.896
1265.28
-33.6026
16.6239
1285.16
-30.8318
15.2338
1301.29
-24.2702
12.9736
1317.86
-23.2766
11.6858
-21.0708
13.0812
990.46
108.873
-3145.95
268.124
-80.2864
-439.937
720.78
-70.5889
-660.337
743.72
32.3934
102.165
844.803
68.9118
0.862045
848.917
77.4203
16.703
909.885
4.90667
11.7903
926.792
-7.6137
-2.91895
946.295
-48.6452
31.7327
948.716
-38.9139
13.4344
947.027
-52.4162
45.2671
941.865
-40.944
29.5185
941.117
-45.5266
33.7065
945.422
-41.8684
18.4538
954.812
-43.6681
16.224
966.996
-40.3594
12.2721
980.757
-39.8458
13.7294
994.872
-32.6082
4.8559
1003.29
-25.2279
-0.762829
-15.6127
-14.2276
1585.23
269.145
756.772
1078.98
276.234
-609.146
816.88
289.54
-537.441
774.903
128.109
-65.8833
830.447
68.0782
-44.5532
805.828
91.469
48.0977
837.215
-24.5713
31.6711
826.79
-2.1974
14.4566
833.82
-60.8703
25.8545
829.403
-32.4977
2.92739
833.719
-58.3096
23.2958
835.585
-39.9457
9.78839
844.777
-54.7406
19.6072
853.211
-48.8722
10.9427
865.612
-56.2383
13.8018
877.093
-51.0251
8.10497
888.884
-51.2144
8.17182
899.813
-41.4246
-0.587455
906.791
-28.917
-9.10051
-13.445
-20.4169
276.942
1413.04
1163.86
416.345
373.59
-737.238
604.284
343.67
-410.336
618.997
126.465
128.482
767.055
-13.8885
2.18193
746.01
96.1693
108.369
782.427
-58.3589
47.7036
743.234
37.5749
23.9901
750.062
-67.4131
12.3752
738.474
-20.6868
-2.96144
755.782
-76.8021
5.30417
767.235
-51.6332
5.58128
790.853
-80.0718
13.3039
808.21
-66.8697
14.5871
826.697
-75.9622
17.505
841.32
-65.8601
15.3692
853.655
-63.7271
13.6401
864.797
-51.5388
6.96523
874.867
-36.5444
-3.19804
-14.5601
-14.1296
-449.551
-137.443
-650.475
229.226
-155.398
-732.126
660.545
56.6163
-190.212
773.444
24.6451
144.711
892.255
-68.8226
167.769
886.733
105.197
89.1943
876.22
-53.3245
77.313
829.238
86.1354
22.7037
798.717
-39.9076
17.5327
776.042
0.991089
-2.7221
776.579
-80.1652
-1.55154
783.798
-60.3601
-1.64937
801.115
-100.434
7.03832
815.348
-82.6218
6.97312
829.21
-91.7848
13.3526
838.706
-76.0328
13.6859
844.647
-69.6495
11.4844
847.354
-52.9074
5.1371
852.564
-39.679
-3.00623
-15.7084
-12.034
332.783
-627.83
1452.38
597.063
-235.037
-774.963
983.43
-124.567
-139.617
964.841
17.8536
45.9713
933.779
-24.5329
111.666
902.5
143.195
-29.6656
914.08
-70.4387
7.09707
858.857
144.654
-35.0654
833.556
-25.2795
21.2182
803.377
28.3466
8.21442
801.11
-80.1346
24.0917
805.67
-66.1245
11.124
815.626
-112.593
4.42412
822.648
-91.6815
0.685437
827.402
-99.565
1.83772
832.999
-83.5221
2.3438
834.355
-71.3289
5.41411
830.705
-48.4872
4.49663
828.494
-36.057
-1.43103
-14.0529
-11.1466
712.376
-1271.73
2056.4
752.671
-298.87
371.591
881.155
-312.913
46.8975
888.443
-18.4273
31.7247
924.283
-49.2398
110.679
812.291
265.68
-27.8662
768.993
3.28158
14.3285
-14.678
-3.43244
-18.5327
727.613
24.2031
-4.46107
71.3924
25.2399
67.1403
722.579
6.0927
-5.14646
-8.63315
-4.3541
-11.7768
749.948
-16.7418
20.7258
16.2852
-16.7115
16.1963
783.349
-30.9173
9.20872
-26.2112
-30.9324
-24.5268
810.089
-37.8467
13.0053
-13.4867
-34.8611
-9.84121
830.051
-41.6173
5.44938
-28.3022
-38.606
-25.0184
843.286
-39.3265
1.29372
-17.9286
-35.8773
-13.4044
848.174
-107.045
2.14751
848.524
-85.9598
-1.6183
845.036
-70.1964
3.5195
835.337
-39.3808
4.54181
826.951
-27.4279
5.66088
-8.25712
-6.10699
1343.19
-1036.81
1555.95
1199.62
-347.91
-23.5871
993.429
-218.693
140.778
955.772
7.00104
-34.2156
878.907
21.0479
147.847
203.012
65.6093
7.16724
203.619
192.01
192.453
114.899
65.7734
112.298
-20.6723
177.828
33.6864
15.4515
-0.509935
-161.467
163.853
22.4532
-0.126988
-1.10774
-187.501
177.262
20.0158
-2.57662
6.0777
-181.387
184.338
-18.9393
-6.83129
4.6221
-207.331
205.598
-29.2119
-4.59498
-0.891372
-214.515
214.925
-39.3948
2.02969
-1.56166
-228.224
223.67
-38.3343
2.83249
-2.06395
-229.122
225.457
-37.2774
3.68064
906.373
-39.5673
12.3348
-231.957
-231.188
-221.302
-220.701
-22.7902
-35.3812
-17.4006
905.897
-90.2097
10.449
892.761
-61.8587
17.3962
876.122
-25.0418
13.3335
857.709
-10.3693
10.8446
2.51277
-2.59059
1045.33
-54.5294
-532.081
1033.62
155.57
-529.766
817.513
-2.59891
303.933
742.536
140.974
24.825
194.587
66.1092
97.3471
187.766
185.29
180.141
8.42314
204.917
57.209
-10.3532
1.00809
-14.9026
-55.1091
51.3315
19.5814
-1.90925
-1.132
-47.2034
-3.62429
45.52
5.2428
1.19687
-2.86868
-52.5722
-1.13947
52.2378
1.60005
2.7425
1.11774
-56.6975
6.52039
55.4087
-5.16669
-1.18255
-0.0398906
-59.6141
9.81283
58.3693
-8.53755
0.00937707
-0.161337
-59.9332
11.4138
58.6655
-10.1927
0.207905
-0.499371
-60.797
11.2814
59.5238
-10.1987
0.689783
-0.545475
-61.0526
10.7944
59.9645
-9.95458
0.793698
-62.6965
-2.93067
244.401
-38.5801
4.85022
-62.2321
-61.4016
-60.9775
971.881
-93.5109
8.63036
-249.427
-249.182
-238.016
-237.78
959.54
-53.3566
8.26637
941.85
-11.9793
17.5989
915.518
12.6188
20.2173
21.8577
3.70686
-250.031
-1760.25
-3347.57
202.811
-43.4817
-327.175
409.252
-124.817
-415.039
432.731
139.976
34.1699
124.586
44.4534
77.6393
141.79
123.042
138.12
-11.0384
-55.0273
147.827
32.2697
10.5541
-2.46332
-17.5045
-45.7874
50.579
12.6143
2.56203
-5.21289
-5.35993
-57.1409
58.0269
3.70415
5.98257
-3.69181
1.58612
-59.3001
59.8001
-2.46247
4.06818
-3.00899
5.97688
-61.8102
62.2377
-6.56528
3.16993
-2.17631
7.85838
-62.6465
62.4362
-7.781
2.3093
-1.30633
9.35292
-61.5974
61.359
-9.15545
1.34728
-0.568322
10.6594
-61.3236
61.475
-10.8812
0.638779
-0.770725
10.9023
-62.3483
62.683
-11.2926
0.826398
-63.639
-0.428476
38.4943
251.32
-39.817
0.261456
-62.3143
-62.5332
-61.3439
977.32
-105.693
-15.2666
-251.284
-240.296
-240.783
-232.582
982.445
-59.6163
-25.4983
984.492
-17.7233
-11.6128
968.685
26.1122
0.219537
39.0287
-8.83349
1662.14
-1086.49
461.294
1421.75
-7.90401
-404.733
1213.88
74.2981
-296.847
1153.4
204.134
-262.274
261.831
189.824
-117.951
270.561
239.915
247.843
13.6049
-27.3084
264.103
34.2813
-22.8493
-0.81734
-3.15177
-63.8264
64.6223
2.93812
0.235026
-1.9695
1.5783
-62.5369
61.7517
-1.42517
2.60156
-0.0503278
5.14001
-60.2635
59.9976
-5.28803
0.464251
-1.02823
8.35974
-59.5859
59.3342
-8.56153
1.48172
0.0236078
7.95834
-58.5517
58.3129
-7.55009
-0.193014
0.273964
8.53016
-58.0548
57.909
-8.17562
-0.482616
-0.699247
10.7302
-57.2022
56.9635
-10.4671
0.674801
-0.314202
11.5166
-56.6792
56.7564
-11.5426
0.263075
-57.1761
0.939
40.5171
226.37
-41.3909
-2.09996
-55.7827
-56.414
-54.9624
906.776
-121.034
-23.5802
-227.705
-220.395
-220.735
-212.717
929.933
-70.8409
-35.0529
949.765
-35.4423
-40.8773
952.337
21.7605
-28.1228
44.8604
-26.7472
1125.71
192.939
2415.74
640.363
42.1828
-655.027
560.45
162.557
-967.134
582.324
239.773
-309.49
144.755
217.239
-127.252
168.653
133.709
161.512
22.8401
-45.3631
171.554
26.0798
-30.3554
0.220512
-4.1276
-52.5751
56.4311
0.103942
-0.0528577
-1.32614
-0.26708
-60.1598
59.9201
0.240606
1.59239
0.434652
3.79987
-57.8218
56.9426
-3.13509
-0.220274
-0.840168
7.34681
-54.3624
53.5464
-6.55329
0.862685
-0.233118
6.77709
-52.3577
52.2633
-6.62757
0.178047
0.073799
7.89412
-52.4862
52.6144
-7.95404
-0.142068
0.485832
10.3812
-53.2413
53.3938
-10.506
-0.513663
0.403908
11.8033
-54.0794
54.2367
-11.918
-0.446371
-55.0908
-0.172393
41.3262
215.821
-39.4604
-0.209624
-54.7856
-53.949
-53.4794
865.947
-127.667
-3.82973
-217.308
-218.862
-208.658
-209.378
877.257
-71.066
-13.2001
892.274
-42.5015
-30.9918
900.746
14.5818
-38.2781
42.5269
-36.962
801.209
1438.16
22.9036
1163.01
270.132
-1194.36
1076.72
525.415
-989.139
1061.34
326.136
-293.833
1073.44
242.797
-118.34
249.04
-7.32174
-24.3601
-6.05401
43.0153
5.29833
52.2145
258.827
237.477
248.508
2.62347
-2.06319
236.01
1.62663
0.0395379
3.04748
3.68825
4.06847
-2.26083
2.67339
-216.621
210.1
8.20328
-2.47812
0.807647
-1.70931
1.28502
0.972279
2.90001
-218.238
218.227
-11.9846
-2.78557
4.89577
1.1715
4.84113
3.13998
-5.70677
-214.537
210.931
-15.9502
5.90509
6.70623
3.0205
6.49118
5.03753
-1.25012
-216.244
216.934
-26.4317
0.817682
8.17308
4.93809
8.02558
7.08505
1.02707
-219.156
219.747
-34.6894
-1.31785
10.2759
6.94241
10.0854
9.67516
1.73122
-224.488
223.539
-42.7835
-1.74353
12.5188
9.38234
12.1684
10.5744
-1.71284
-224.296
222.344
-45.1251
2.01375
13.2846
10.1056
12.811
864.354
-146.973
16.4359
34.4384
46.192
29.6568
42.1235
-222.282
-227.631
-209.46
-214.291
856.998
-118.258
12.8416
849.799
-58.5852
0.95409
848.582
-34.4252
-11.3109
852.02
13.0851
-24.8333
37.9133
-27.4244
-960.811
1502.17
-61.7283
-16.4599
272.455
-2248.86
468.902
396.373
-817.579
648.596
204.093
-71.7598
837.491
111.999
-51.6605
842.081
-2.08551
13.0932
898.421
65.8737
3.33489
-28.9924
-33.3547
-26.2811
-30.8852
917.141
-48.3291
-11.7087
-13.2652
25.2427
-8.39978
27.1677
924.744
-46.4256
-29.6646
4.5919
15.5879
4.59039
14.1716
928.815
-108.12
-30.1633
13.8003
36.7652
13.5418
36.6726
932.117
-126.634
-21.2914
22.7604
36.57
21.6408
35.3849
930.994
-170.005
-5.73033
32.9315
51.1309
31.3286
49.5737
918.957
-163.542
10.495
37.446
50.0921
34.8386
47.4925
902.662
-170.859
23.617
39.9446
54.7324
36.4476
51.293
878.772
-125.216
14.0582
853.538
-94.1847
8.57235
838.024
-42.1987
-0.497367
829.234
-22.4071
-2.73634
829.938
14.0662
-7.554
31.3496
-10.6445
-24.9386
-18.7788
-3055.05
335.02
331.117
-208.828
970.123
254.823
-659.105
1112.75
194.412
-168.79
1172.84
120.285
-92.275
1155.44
46.0727
-40.9207
1141.16
77.5122
-39.6683
1091.83
5.50524
-72.0253
1049.85
-6.90298
-66.0211
1016.4
-73.4353
-74.5975
991.761
-109.208
-41.7355
971.449
-152.75
-8.68327
939.803
-132.232
19.969
895.801
-128.196
29.5041
852.21
-81.4578
13.3143
823.875
-66.1529
-2.67934
813.337
-32.1276
-6.61287
810.158
-18.6576
-7.26388
816.219
7.87975
-2.28567
21.186
-1.20416
891.263
149.721
3765.37
813.924
440.557
-508.755
811.436
266.898
-251.186
975.22
137.515
-91.8802
1069.89
58.4728
-52.6299
1118.87
18.8596
-27.8318
1122.5
76.6749
-13.2639
1109.91
30.4564
-62.0945
1072.48
31.1177
-43.8721
1041.52
-45.6062
-48.709
1017
-94.0601
14.9332
995.213
-133.992
34.351
951.252
-89.4908
51.3244
895.091
-71.8602
46.8191
849.812
-38.3283
26.1607
820.092
-37.0005
8.06249
808.684
-20.5786
-0.439715
802.635
-11.7628
-6.48031
806.81
3.51682
-2.47464
10.9921
-1.26815
-216.216
620.622
1146.6
573.588
365.061
-512.967
822.787
76.2959
-18.1976
1053.56
-25.3979
-47.5327
1139.28
-22.4938
50.1853
1200.91
-36.936
56.9254
1224.28
48.8345
94.3509
1218.04
51.4823
53.6574
1168.94
80.6193
53.3794
1102.29
30.9042
36.1153
1011.94
-6.06277
81.5465
934.251
-58.3413
62.3731
875.975
-35.1865
41.8684
832.886
-31.1968
21.2099
809.035
-15.1818
11.4685
790.879
-18.3751
9.04863
782.543
-11.3646
8.71751
776.963
-4.95486
1.76699
778.181
2.41959
0.23862
7.25977
-8.60862
1768.33
896.709
-1366.92
2059.5
578.226
-818.152
1738.48
467.301
-623.645
1697.8
55.8319
-330.768
1506.09
118.022
-58.5
1425.88
-3.6992
-23.8567
1356.28
68.5428
27.9663
1350.52
46.7045
-8.88881
1326.89
97.1629
12.53
1282.7
77.9379
37.7437
1154.87
90.4123
146.676
1021.33
53.7243
119.377
928.966
42.2472
55.2889
873.637
18.2706
6.03812
846.593
9.5422
-3.47207
826.506
0.0385086
9.47717
809.349
6.71432
26.601
787.961
20.4397
16.1872
774.36
21.1783
6.50578
12.2798
-7.39846
557.984
224.894
-1617.62
721.863
303.77
-343.787
848.041
157.851
-354.788
954.816
-74.2897
-151.082
977.225
40.7439
55.8167
1009.75
-40.7341
-5.67817
1032.49
49.9757
7.16193
1044.29
44.2052
-43.6794
1034.9
98.3329
17.0257
1010.61
95.2293
29.4334
983.148
113.443
57.2528
958.081
92.3519
1.1202
940.967
72.3503
-31.2636
929.935
34.9264
-61.2651
926.484
8.52348
-49.6449
926.774
-2.06307
-17.3969
922.54
5.16284
32.9247
911.126
37.1669
63.3329
889.173
63.5345
59.3391
50.1285
-6.13081
595.829
-170.057
710.845
-347.358
978.27
-465.358
867.097
-243.392
833.358
67.9541
798.851
-80.5973
846.245
47.3722
878.727
-39.1256
936.303
4.27618
992.18
9.25573
1062.13
42.4053
1136.02
-5.49648
1194.11
-38.7747
1226.9
-80.9355
1245.46
-77.2889
1253.67
-58.5669
1260.84
-36.633
1310.03
-33.0748
1388.77
18.0115
55.3779
948.522
-123.063
94.2643
1146.68
-220.908
-450.831
1287.2
-89.2283
-270.044
1291.79
-49.3367
-152.913
1169.99
37.9468
-271.264
1074.46
28.5999
-188.873
969.869
33.8373
-164.603
941.054
-12.397
-96.1163
947.811
-37.8694
-17.2998
973.051
-42.9308
-6.31422
1009.54
-47.8091
39.4391
1048.03
-40.9877
32.2759
1085.1
-37.1675
49.3184
1120.19
-30.44
27.1981
1147.99
-25.6481
30.7443
1169.66
-22.3047
17.2507
1187.58
-20.6394
17.9542
1202.66
-16.5295
14.4288
1219.91
-16.889
11.3216
-14.0555
11.7217
366.722
812.481
-4837.97
545.472
-104.473
-735.122
584.581
-101.552
-687.122
638.22
-5.61553
4.80464
727.782
32.6296
-83.382
723.748
41.8899
7.44624
782.846
-11.3518
-2.11829
779.908
-11.4844
-0.893248
798.525
-47.9144
23.1602
793.875
-27.7436
2.89764
804.341
-40.7395
27.7311
808.433
-26.1714
10.61
820.871
-31.6629
15.7642
831.167
-27.4001
5.11845
845.039
-29.6634
6.36712
857.971
-26.8546
3.88952
871.08
-26.0425
6.02395
881.399
-20.8227
-1.1708
885.977
-15.5734
-6.65603
-8.27605
-21.269
1661.87
1576.58
1821.67
1065
254.146
-370.895
778.177
234.841
-587.006
723.167
96.0429
-112.532
724.779
55.1162
-68.6521
696.213
73.4517
45.1028
728.074
-31.7616
20.2199
709.739
4.83203
16.475
720.342
-53.8763
21.2135
712.22
-18.402
1.70731
722.125
-44.2297
16.8807
725.163
-23.1372
3.71622
739.195
-39.0498
12.9622
748.307
-31.3282
5.7592
761.859
-38.5681
9.15422
772.026
-33.2634
4.34644
782.15
-32.9979
5.00377
788.783
-25.3009
-2.74268
790.063
-16.8566
-9.09742
-6.8085
-21.1807
65.6757
1428.44
1512.05
419.89
248.003
-1085.31
537.43
338.251
-631.285
565.399
156.721
39.8356
647.724
19.835
-44.8622
632.73
112.937
83.878
682.989
-59.8862
25.5685
645.119
47.6372
19.0554
661.317
-65.1594
7.45996
648.472
-7.73197
-0.786791
667.674
-62.3917
4.26433
675.044
-28.702
3.77576
696.357
-56.9324
9.87386
709.353
-39.6171
9.87959
725.598
-49.7102
12.4024
737.045
-39.4304
10.0898
747.586
-38.9363
9.03761
755.349
-29.3169
3.21773
759.433
-19.832
-4.30697
-6.50973
-15.6536
-209.797
-451.946
-1036.01
104.544
-146.814
-651.65
559.886
136.977
-444.28
645.639
95.443
120.235
743.526
-1.80778
91.5244
722.709
155.501
67.4485
738.211
-54.2275
56.1523
695.864
97.3616
15.3257
685.438
-51.0145
13.8139
667.641
7.91769
-0.574472
674.727
-71.7947
0.765466
679.981
-35.4807
-0.125139
696.515
-73.4355
7.00807
707.059
-48.7694
5.58146
720.015
-59.4982
10.1841
727.799
-42.5824
9.05377
734.332
-41.4845
7.5001
737.339
-29.1928
2.00616
740.132
-21.875
-3.75622
-6.82286
-13.6836
854.536
-1176.87
3913.44
597.276
-276.874
-387.642
748.181
-22.1267
-131.419
745.053
90.0873
54.4552
753.178
26.2932
75.4393
723.472
170.471
-14.93
755.267
-87.8026
8.87767
699.267
146.074
-27.7774
693.788
-43.6918
19.3739
675.849
28.3138
5.7575
685.931
-76.1769
18.3921
692.681
-40.4431
9.33567
703.651
-84.5545
4.57374
709.234
-55.5335
1.8663
714.382
-65.4142
2.60591
719.056
-47.0687
2.15572
721.83
-42.3579
3.51385
721.833
-26.6661
1.96698
721.622
-20.6874
-2.40762
-6.40351
-12.2301
661.694
-1254.7
2302.05
622.134
-242.828
377.105
755.137
-233.76
125.528
734.147
45.6137
97.1878
783.147
-4.26122
92.2331
663.544
275.086
-12.879
647.421
-10.9658
17.8616
-22.6281
-16.7582
-24.8602
615.465
25.8
-2.83094
63.6703
26.0719
60.8578
630.005
-12.6485
-1.77351
-15.1374
-17.9719
-15.8469
654.247
-15.4208
18.7671
16.6815
-13.7345
18.5041
683.617
-29.9031
4.32391
-22.1269
-28.8759
-19.7562
703.038
-29.9876
13.347
-3.60401
-27.0286
0.414186
719.697
-33.4452
3.78606
-19.3184
-30.6687
-16.1175
729.56
-29.935
2.0628
-6.84994
-26.8883
-2.49259
732.93
-69.6291
2.99185
730.742
-46.4225
-0.0755659
728.179
-39.4584
3.18272
722.634
-18.7831
2.20413
718.697
-14.2525
3.1629
-2.3381
-9.08912
1061.15
-371.813
2684.19
758.426
-67.1654
103.478
717.797
-182.5
130.147
709.506
30.9749
-11.2863
723.911
28.5486
100.633
165.639
66.8588
6.68767
166.403
157.277
158.103
111.09
66.0428
108.064
-15.8131
143.895
20.1701
6.42024
0.401455
-133.063
140.055
18.4325
-0.0255957
4.04101
-164.957
156.179
-2.1301
-5.78132
6.39864
-160.882
163.439
-19.3135
-5.06244
3.95997
-184.598
180.279
-26.55
-2.9939
-2.67486
-187.603
186.603
-30.5663
4.25324
-2.92163
-199.628
194.201
-28.8852
3.78925
-4.08129
-199.696
195.239
-26.9155
5.51909
781.799
-28.4656
13.6446
-201.82
-201.198
-191.013
-189.8
-10.2538
-24.9185
-5.26863
777.318
-42.1314
10.6387
764.976
-23.9786
14.259
752.295
-2.47225
9.70335
739.777
0.799305
8.31019
7.59375
-6.46955
1061.3
1608.63
1122.99
819.973
540.176
-895.784
681.9
48.454
211.053
590.477
151.851
-4.62877
164.922
42.7835
36.2624
162.115
156.171
154.118
7.29603
172.239
57.1527
-4.90637
1.56394
-10.6293
-46.3667
42.3588
15.221
-2.14777
-1.62589
-40.436
0.320069
39.5624
0.761539
1.41794
-2.04743
-47.5012
2.97288
46.6719
-1.59029
1.4941
0.911732
-49.3751
7.25229
48.181
-6.11704
-0.852906
0.193337
-51.9263
8.90432
50.6761
-7.663
-0.184416
-0.184704
-52.1849
9.4761
50.9368
-8.34464
0.301423
-0.80253
-53.3775
8.91686
52.148
-7.8134
0.928494
-1.02163
-53.7619
8.22172
52.5694
-7.21752
1.20993
-55.1359
-5.70217
212.238
-25.2376
7.00949
-54.7217
-53.6703
-53.2458
830.407
-35.6944
9.9933
-216.421
-215.894
-203.87
-202.022
812.748
-7.35994
9.30725
795.531
18.2291
14.1142
776.624
25.6527
14.2708
24.1905
-2.3958
274.211
813.945
-19.7508
416.979
412.774
-342.541
335.362
-25.94
-259.028
354.691
144.5
22.1924
108.958
18.6258
5.36988
122.153
103.925
116.082
-13.1877
-52.6584
133.989
28.7377
12.0776
-3.55066
-14.0775
-41.9702
46.1563
9.9082
3.53394
-6.09365
-1.24751
-50.8526
51.4279
0.953567
5.8122
-4.22898
2.6779
-52.8155
53.2695