/*--------------------------------*- C++ -*----------------------------------*\
  =========                 |
  \\      /  F ield         | OpenFOAM: The Open Source CFD Toolbox
   \\    /   O peration     | Website:  https://openfoam.org
    \\  /    A nd           | Version:  10
     \\/     M anipulation  |
\*---------------------------------------------------------------------------*/
FoamFile
{
    format      ascii;
    class       volScalarField;
    location    "4.7";
    object      turbidity_0;
}
// * * * * * * * * * * * * * * * * * * * * * * * * * * * * * * * * * * * * * //

dimensions      [0 0 0 0 0 0 0];

internalField   nonuniform List<scalar> 
12920
(
-0.0663955
-0.0682356
-0.0708036
-0.0802973
-0.075734
-0.0895643
-0.109175
-0.13603
-0.169107
-0.20114
-0.231841
-0.259406
-0.28498
-0.308471
-0.329335
-0.347749
-0.364633
-0.380673
-0.39648
-0.411629
-0.0582668
-0.0525406
-0.0665265
-0.0972698
-0.114235
-0.132874
-0.153734
-0.174646
-0.196968
-0.220342
-0.248437
-0.28249
-0.321163
-0.359171
-0.391794
-0.417015
-0.435219
-0.447164
-0.453951
-0.454679
-0.0734719
-0.0608353
-0.0688908
-0.108201
-0.132355
-0.151007
-0.175919
-0.199556
-0.231982
-0.263197
-0.297785
-0.332099
-0.367111
-0.399418
-0.427708
-0.451023
-0.46909
-0.480273
-0.482158
-0.477137
-0.0318913
-0.0706827
-0.0946707
-0.12914
-0.157204
-0.18654
-0.219788
-0.264316
-0.303102
-0.341644
-0.369922
-0.393883
-0.411256
-0.427889
-0.444158
-0.462568
-0.482224
-0.501696
-0.516299
-0.5221
-0.0312365
-0.0460282
-0.074539
-0.105675
-0.126967
-0.149684
-0.172968
-0.209043
-0.246925
-0.285099
-0.316592
-0.341663
-0.357905
-0.372853
-0.388477
-0.409549
-0.436839
-0.469471
-0.500703
-0.524908
-0.0241058
-0.0435328
-0.0710964
-0.0975106
-0.115153
-0.123493
-0.146923
-0.170955
-0.212215
-0.255748
-0.284086
-0.299814
-0.304396
-0.311206
-0.322311
-0.342293
-0.373078
-0.415288
-0.460867
-0.502893
-0.0495563
-0.0607752
-0.0805127
-0.101676
-0.123412
-0.143986
-0.180249
-0.22097
-0.251087
-0.264633
-0.24536
-0.232283
-0.222481
-0.223291
-0.233758
-0.25411
-0.286191
-0.331494
-0.386369
-0.448954
-0.0239022
-0.0350275
-0.0542711
-0.0827998
-0.115874
-0.15108
-0.15901
-0.180176
-0.20305
-0.174595
-0.146816
-0.124958
-0.113802
-0.110673
-0.132527
-0.163653
-0.193808
-0.225986
-0.263412
-0.310262
-0.0233859
-0.0470447
-0.0713519
-0.104098
-0.148361
-0.156066
-0.159217
-0.161407
-0.166074
-0.148887
-0.11728
-0.0963379
-0.088521
-0.0898173
-0.107456
-0.147623
-0.174755
-0.199033
-0.22419
-0.255316
-0.0343242
-0.0654013
-0.0707573
-0.114376
-0.158554
-0.159024
-0.15593
-0.143187
-0.121468
-0.106997
-0.0983903
-0.0920407
-0.0942503
-0.106417
-0.135076
-0.168822
-0.187785
-0.20557
-0.224316
-0.245944
-0.027861
-0.0323727
-0.0426375
-0.0582113
-0.0823771
-0.0914062
-0.101534
-0.107811
-0.106784
-0.106092
-0.105492
-0.102961
-0.115968
-0.142923
-0.181752
-0.212881
-0.223513
-0.225819
-0.230559
-0.243051
-0.0627893
-0.0345315
-0.0387325
-0.0667986
-0.102194
-0.106165
-0.108893
-0.107871
-0.107134
-0.115579
-0.1268
-0.139556
-0.164337
-0.192218
-0.234647
-0.28948
-0.30074
-0.291581
-0.274984
-0.268538
-0.027998
-0.0414197
-0.0489467
-0.0757042
-0.107142
-0.134223
-0.134728
-0.128938
-0.129823
-0.140324
-0.161096
-0.185535
-0.213311
-0.244224
-0.318527
-0.359619
-0.383574
-0.385187
-0.364709
-0.344083
-0.0613708
-0.0391489
-0.0605273
-0.0958984
-0.121669
-0.140504
-0.153751
-0.164376
-0.175508
-0.188472
-0.207572
-0.234225
-0.268086
-0.307787
-0.35141
-0.394198
-0.431287
-0.457831
-0.466119
-0.455615
-0.0232973
-0.0457307
-0.069289
-0.0957222
-0.111952
-0.12061
-0.124995
-0.126562
-0.133422
-0.147089
-0.171637
-0.206695
-0.247782
-0.297087
-0.350297
-0.398811
-0.439085
-0.472599
-0.497131
-0.508566
-0.0448579
-0.0665479
-0.0783758
-0.0988697
-0.110336
-0.118093
-0.124082
-0.128807
-0.139296
-0.157662
-0.186511
-0.222019
-0.263069
-0.314731
-0.372579
-0.427551
-0.473056
-0.507678
-0.535446
-0.55381
-0.0221023
-0.0571682
-0.0717487
-0.0888344
-0.105313
-0.119512
-0.131374
-0.142441
-0.156389
-0.178967
-0.212473
-0.256366
-0.306159
-0.354159
-0.400694
-0.446796
-0.49292
-0.534068
-0.5656
-0.586611
-0.0133452
-0.0351925
-0.0438808
-0.0578667
-0.0763967
-0.0984957
-0.119661
-0.137072
-0.150644
-0.166283
-0.190891
-0.232061
-0.281256
-0.323552
-0.361402
-0.402497
-0.452991
-0.509941
-0.55825
-0.593481
-0.0159278
-0.0393126
-0.0463764
-0.0665186
-0.0926132
-0.115687
-0.142358
-0.165899
-0.190858
-0.215229
-0.240196
-0.260892
-0.268581
-0.267553
-0.276445
-0.298854
-0.330387
-0.375089
-0.429705
-0.485964
-0.0203842
-0.0370283
-0.0483482
-0.0551046
-0.0725117
-0.0973349
-0.130465
-0.155664
-0.180006
-0.199528
-0.215509
-0.219151
-0.216261
-0.212529
-0.214713
-0.222172
-0.233179
-0.248724
-0.269208
-0.294649
-0.0332027
-0.0214806
-0.0131094
-0.0092456
-0.00770162
-0.00916317
-0.0139059
-0.0219591
-0.0338256
-0.0470147
-0.0634724
-0.0751236
-0.0821918
-0.0796867
-0.0726605
-0.0622017
-0.053723
-0.0476539
-0.0446215
-0.0467228
-0.0591969
-0.0142828
-0.00964794
-0.0239456
-0.0242556
-0.0243884
-0.0301649
-0.0348572
-0.0509355
-0.0663805
-0.0865371
-0.0971412
-0.100217
-0.0930102
-0.0838962
-0.0726711
-0.0618662
-0.0489205
-0.0369835
-0.0277801
-0.00792442
-0.00835817
-0.00796873
-0.0171657
-0.0164608
-0.0201791
-0.0272408
-0.0307025
-0.0453414
-0.0562276
-0.0735735
-0.0813617
-0.0872243
-0.0842175
-0.0807519
-0.0721411
-0.0620181
-0.048472
-0.0380899
-0.0326288
-0.0189684
-0.0148576
-0.0146365
-0.0382474
-0.0368256
-0.0462671
-0.0516799
-0.0474205
-0.0484499
-0.0532199
-0.0657424
-0.080414
-0.0952617
-0.106442
-0.113386
-0.113665
-0.106343
-0.0907238
-0.0727848
-0.0604337
-0.0148186
-0.026536
-0.0358588
-0.0452321
-0.0498404
-0.0511464
-0.0511467
-0.0458564
-0.0416493
-0.0425686
-0.0491116
-0.05936
-0.0723231
-0.0864688
-0.0999481
-0.109562
-0.111146
-0.103947
-0.0918322
-0.0826486
-0.0187344
-0.0249598
-0.042663
-0.032434
-0.025994
-0.0188858
-0.022275
-0.0251039
-0.0360682
-0.0414482
-0.0450848
-0.0435801
-0.0439554
-0.0493249
-0.0578041
-0.068762
-0.0788259
-0.0821005
-0.0778023
-0.0737276
-0.00755933
-0.021655
-0.0271307
-0.0267865
-0.0336563
-0.0247372
-0.0333423
-0.0376115
-0.0438867
-0.0462342
-0.0394981
-0.0354127
-0.0329389
-0.0334563
-0.037361
-0.0436611
-0.0534217
-0.0647054
-0.072116
-0.0745083
-0.00915643
-0.0114476
-0.0187991
-0.0209827
-0.0374585
-0.0337468
-0.0460294
-0.0495088
-0.0423169
-0.0372085
-0.032906
-0.0307922
-0.0298373
-0.0322547
-0.0344546
-0.0378896
-0.0418191
-0.046343
-0.0531339
-0.0601091
-0.00858357
-0.0171998
-0.0248615
-0.0297501
-0.0541287
-0.0464426
-0.0397962
-0.0756877
-0.0867303
-0.0709666
-0.0602397
-0.048207
-0.0414221
-0.0472964
-0.0511685
-0.0438293
-0.0470391
-0.0522359
-0.0581696
-0.0632713
-0.0208921
-0.0116359
-0.0090073
-0.0346173
-0.0671268
-0.0618605
-0.0627689
-0.0929098
-0.0917533
-0.0856906
-0.0783166
-0.0673071
-0.0593131
-0.063581
-0.0520034
-0.0355965
-0.0360856
-0.039828
-0.0479105
-0.0578524
-0.00668071
-0.00749174
-0.00785814
-0.0109094
-0.0229626
-0.0325003
-0.0498033
-0.0640404
-0.0525527
-0.0609901
-0.0641859
-0.0568749
-0.0523679
-0.0495134
-0.0401927
-0.0319323
-0.0301186
-0.030422
-0.0345758
-0.04187
-0.0105541
-0.0106992
-0.00753337
-0.0108766
-0.0247964
-0.030036
-0.0367692
-0.0382007
-0.0420111
-0.0665005
-0.0631011
-0.0447817
-0.0361283
-0.0382236
-0.0474741
-0.0460467
-0.0417862
-0.0381291
-0.0372794
-0.0400499
-0.0107187
-0.00827528
-0.00610788
-0.00916742
-0.0160637
-0.0189726
-0.0213221
-0.0260573
-0.0326723
-0.0440168
-0.0382286
-0.0336314
-0.0360451
-0.0451806
-0.0581917
-0.0639243
-0.0616477
-0.0561587
-0.0514879
-0.0499032
-0.0277658
-0.00642274
-0.00569891
-0.00916831
-0.0115014
-0.0122879
-0.0125279
-0.0122513
-0.0135431
-0.0167893
-0.0230998
-0.0332566
-0.0459597
-0.0567483
-0.0601208
-0.0626489
-0.0659314
-0.0691057
-0.0697188
-0.0701593
-0.0221594
-0.025782
-0.0144967
-0.0128283
-0.0101548
-0.0079317
-0.00668146
-0.00673542
-0.0087791
-0.0147924
-0.0255203
-0.0410807
-0.0587921
-0.0669438
-0.060847
-0.0540345
-0.0532452
-0.0583122
-0.0686726
-0.0805064
-0.0244061
-0.0167272
-0.0162731
-0.0173288
-0.0149
-0.0125361
-0.0101292
-0.0101691
-0.013983
-0.0258046
-0.0450212
-0.0665522
-0.0852333
-0.0912385
-0.0828525
-0.0715466
-0.0640174
-0.0621943
-0.0665644
-0.0758152
-0.0226552
-0.018479
-0.0176117
-0.0198384
-0.0258332
-0.0313589
-0.0377379
-0.0427562
-0.0521869
-0.0660264
-0.0839809
-0.09302
-0.0944694
-0.0914058
-0.091179
-0.0909928
-0.0867715
-0.0753314
-0.0653363
-0.0610996
-0.00579368
-0.0071268
-0.00772602
-0.00743252
-0.00831217
-0.0122601
-0.019704
-0.0302065
-0.0457641
-0.0658931
-0.0870095
-0.089409
-0.0746608
-0.0669353
-0.0757395
-0.095461
-0.113646
-0.110639
-0.0984041
-0.0837405
-0.0076899
-0.00777159
-0.00665617
-0.0090301
-0.0162112
-0.0249268
-0.0353903
-0.0484923
-0.0665883
-0.0792884
-0.0796095
-0.0601921
-0.0445896
-0.0394886
-0.0456691
-0.0646196
-0.0991474
-0.128595
-0.133086
-0.110979
-0.0214097
-0.00715606
-0.00697922
-0.0112503
-0.0276168
-0.0348452
-0.0432746
-0.0460425
-0.0514027
-0.0524925
-0.0490095
-0.0417818
-0.0354524
-0.0318564
-0.0312038
-0.033337
-0.0397342
-0.0540983
-0.0798472
-0.10686
-0.0376806
-0.0142327
-0.00789838
-0.00712949
-0.00652983
-0.00764477
-0.0115197
-0.0177155
-0.0247663
-0.030082
-0.034955
-0.0365712
-0.0362656
-0.0328845
-0.028837
-0.0245058
-0.0210484
-0.0185167
-0.0170789
-0.0170545
-0.00571876
-0.00558147
-0.00630135
-0.0116097
-0.0117692
-0.0146515
-0.0190716
-0.0233285
-0.0295833
-0.0325652
-0.0352241
-0.0314248
-0.0263336
-0.0202547
-0.016594
-0.0143699
-0.0136756
-0.0138657
-0.0151951
-0.0174625
-0.00346434
-0.0066612
-0.00616291
-0.00729769
-0.00860878
-0.0107915
-0.0137539
-0.016086
-0.0203677
-0.0218356
-0.024988
-0.0241772
-0.0242558
-0.0223661
-0.021569
-0.0204149
-0.0202089
-0.0209781
-0.023242
-0.0267946
-0.0333504
-0.015501
-0.00732872
-0.0108988
-0.0109101
-0.015213
-0.0173187
-0.0174719
-0.0201511
-0.0230298
-0.0276828
-0.0317174
-0.0357674
-0.0375563
-0.0380319
-0.0364553
-0.0342492
-0.0323867
-0.0325941
-0.0351636
-0.015865
-0.0116097
-0.0106931
-0.0173377
-0.0193763
-0.0202958
-0.020249
-0.019599
-0.02076
-0.0241867
-0.0274759
-0.0323438
-0.0366689
-0.0406018
-0.0430063
-0.0431915
-0.0411772
-0.0385129
-0.0373133
-0.0384655
-0.00302909
-0.00535932
-0.00925904
-0.00953587
-0.00885327
-0.0101487
-0.0132695
-0.0153987
-0.0178156
-0.0193506
-0.0200057
-0.0217599
-0.0237822
-0.0269344
-0.0296971
-0.0319901
-0.0330695
-0.0328694
-0.0324596
-0.0332582
-0.00848809
-0.00968579
-0.00984263
-0.00961587
-0.0113685
-0.0115821
-0.0150007
-0.0164055
-0.0157803
-0.015997
-0.0146425
-0.0150099
-0.0158229
-0.0177904
-0.0204936
-0.0237337
-0.0271683
-0.0299593
-0.0315647
-0.0324878
-0.00441359
-0.00690868
-0.00946585
-0.00895218
-0.0136829
-0.0127749
-0.0155071
-0.016476
-0.0144266
-0.0121423
-0.0114152
-0.0116401
-0.0125724
-0.0139684
-0.0158141
-0.0187592
-0.0224789
-0.0264919
-0.030542
-0.0340024
-0.00607078
-0.0120717
-0.0126065
-0.0104711
-0.016334
-0.0141907
-0.0137369
-0.0231985
-0.0213707
-0.0160429
-0.0130198
-0.011906
-0.0135014
-0.0165829
-0.0182709
-0.0187535
-0.0223932
-0.0270243
-0.0319169
-0.0360795
-0.00681776
-0.00906828
-0.00700783
-0.0121741
-0.0213865
-0.0219527
-0.0232686
-0.0304702
-0.0296762
-0.0276029
-0.0225264
-0.0175629
-0.0165929
-0.0181912
-0.0168904
-0.0166999
-0.0199074
-0.0244723
-0.0301053
-0.0350814
-0.00825688
-0.00733899
-0.00685612
-0.00749415
-0.0134497
-0.0169896
-0.0232703
-0.0270213
-0.0244115
-0.0233757
-0.018205
-0.0143563
-0.0141685
-0.0145475
-0.0140203
-0.0166324
-0.0190163
-0.0225087
-0.0269988
-0.0313262
-0.0143952
-0.0125621
-0.0086556
-0.00722155
-0.00963441
-0.0103948
-0.0113925
-0.0138918
-0.0177888
-0.019271
-0.0149502
-0.0127461
-0.013804
-0.0159382
-0.0186372
-0.0213799
-0.0226187
-0.024532
-0.0273228
-0.0304334
-0.00511124
-0.00672463
-0.00520291
-0.00506309
-0.00614414
-0.006465
-0.00733788
-0.00997097
-0.0115558
-0.0127652
-0.0120786
-0.0133887
-0.0159593
-0.0194261
-0.0241067
-0.0264924
-0.0280259
-0.0295395
-0.0311288
-0.0330586
-0.00828776
-0.00488145
-0.00450858
-0.00442304
-0.00423102
-0.00409217
-0.00467145
-0.00551265
-0.00712973
-0.00965551
-0.0127125
-0.0161739
-0.0193444
-0.0219532
-0.023944
-0.0263717
-0.0291684
-0.031765
-0.0338253
-0.0357145
-0.0162781
-0.0187563
-0.0143709
-0.0100333
-0.00645692
-0.00453066
-0.0039912
-0.00505245
-0.00740465
-0.0114291
-0.0160195
-0.0205269
-0.0236291
-0.0237476
-0.02184
-0.0213197
-0.0226877
-0.0252747
-0.028805
-0.03232
-0.0310001
-0.0170662
-0.0140034
-0.0124909
-0.0101667
-0.00765035
-0.00607339
-0.00756285
-0.0114236
-0.0179366
-0.025018
-0.0306614
-0.0340903
-0.0322286
-0.0274873
-0.0237948
-0.0221438
-0.0221098
-0.0235762
-0.0260295
-0.0101275
-0.0120195
-0.0108408
-0.00954073
-0.0109753
-0.0124294
-0.0154061
-0.019003
-0.0259109
-0.0329838
-0.0393992
-0.039478
-0.0371083
-0.0334838
-0.0306951
-0.0279649
-0.0253247
-0.0228992
-0.0220213
-0.0226539
-0.00303167
-0.00571469
-0.00459348
-0.00393708
-0.00524191
-0.00898221
-0.0148776
-0.0231044
-0.0340134
-0.0435269
-0.0485986
-0.0415332
-0.0325332
-0.0286433
-0.0291273
-0.0311338
-0.0322428
-0.0294896
-0.0272964
-0.0263873
-0.00213467
-0.00462793
-0.0052237
-0.00838932
-0.013592
-0.0205755
-0.0278429
-0.0347059
-0.0409093
-0.0385094
-0.0316567
-0.0237429
-0.0219506
-0.0241868
-0.0291179
-0.0357283
-0.0448254
-0.0502963
-0.0504688
-0.0479254
-0.0159798
-0.00992816
-0.00474463
-0.00770202
-0.0187933
-0.0228596
-0.0271459
-0.0274076
-0.0276811
-0.0247272
-0.0214863
-0.0182268
-0.0175666
-0.020082
-0.026099
-0.0356305
-0.0477953
-0.0616203
-0.0785546
-0.100728
-0.0178302
-0.00738292
-0.00563625
-0.00587725
-0.00599816
-0.00723635
-0.0104812
-0.0146105
-0.0181136
-0.0199909
-0.0214428
-0.0211034
-0.0199558
-0.0176895
-0.0153774
-0.0131487
-0.011422
-0.0102268
-0.00963811
-0.0097328
-0.00537101
-0.00453057
-0.00519654
-0.00761499
-0.00883091
-0.0107641
-0.0124498
-0.0127527
-0.0135724
-0.0121894
-0.0118155
-0.0105066
-0.0102733
-0.0107294
-0.0119421
-0.0136715
-0.0157433
-0.0180306
-0.0203241
-0.0224612
-0.00528818
-0.00683398
-0.00631357
-0.00619228
-0.00717511
-0.00813232
-0.00898013
-0.0092643
-0.0102167
-0.0101287
-0.0111623
-0.0115837
-0.0129156
-0.0142665
-0.016197
-0.0183628
-0.0207751
-0.0232113
-0.0254976
-0.0273756
-0.0567479
-0.0271045
-0.00850007
-0.0064638
-0.00737414
-0.00886398
-0.0102131
-0.0107069
-0.012137
-0.0130586
-0.0148274
-0.0161152
-0.0177507
-0.0189194
-0.0202422
-0.0215381
-0.0230776
-0.0247823
-0.0265325
-0.0280508
-0.00249967
-0.00668432
-0.00654457
-0.00909897
-0.00954465
-0.0108218
-0.0117637
-0.0125846
-0.01349
-0.0151173
-0.0164738
-0.0182404
-0.0196113
-0.0206494
-0.021322
-0.0216609
-0.0219584
-0.0225505
-0.0235564
-0.0248639
-0.00176852
-0.00299445
-0.00459976
-0.00563647
-0.00648611
-0.0083833
-0.00981572
-0.0110958
-0.0115759
-0.0126907
-0.0134203
-0.0148701
-0.015972
-0.0170586
-0.0177198
-0.0181686
-0.0184364
-0.0186866
-0.0191614
-0.0200685
-0.00702656
-0.00470493
-0.00492531
-0.00602334
-0.00727444
-0.00853544
-0.00901551
-0.00977068
-0.00925195
-0.0102295
-0.0106234
-0.0120176
-0.0132843
-0.0147269
-0.0159458
-0.0168358
-0.0175204
-0.0179003
-0.0182183
-0.0187298
-0.00648931
-0.00604325
-0.00577986
-0.00578388
-0.00706618
-0.00796225
-0.00846851
-0.00882012
-0.00804688
-0.00746904
-0.00784886
-0.00851498
-0.00976782
-0.0115267
-0.0149059
-0.0167467
-0.0182074
-0.0192725
-0.0201093
-0.0207687
-0.0076306
-0.00836805
-0.00651992
-0.00575843
-0.00659126
-0.00749052
-0.00810896
-0.00931045
-0.00782869
-0.00673607
-0.00676055
-0.00744094
-0.00843974
-0.00963694
-0.0122982
-0.0169151
-0.0193245
-0.0212604
-0.0225552
-0.0229303
-0.00764018
-0.00791702
-0.00645237
-0.00616914
-0.00699795
-0.00901418
-0.00997633
-0.0108793
-0.00957967
-0.00814683
-0.00747505
-0.00802772
-0.00907957
-0.0102312
-0.0126371
-0.0169832
-0.0193773
-0.0213423
-0.0225676
-0.022507
-0.00508479
-0.00550023
-0.00572358
-0.0057394
-0.00743722
-0.00834089
-0.0103507
-0.0109963
-0.00930125
-0.00779709
-0.00760553
-0.00805208
-0.00890891
-0.0104113
-0.0136133
-0.0170752
-0.0190507
-0.0207753
-0.0219103
-0.0222273
-0.00761108
-0.00764137
-0.00701844
-0.00555562
-0.00557846
-0.00554911
-0.0057324
-0.00684243
-0.00699168
-0.0068243
-0.00729216
-0.00849711
-0.0103353
-0.0126126
-0.0158417
-0.0179437
-0.0193364
-0.0205478
-0.021473
-0.0221251
-0.00174756
-0.0022872
-0.00227875
-0.00323771
-0.00400175
-0.00433025
-0.00489942
-0.00602012
-0.0067053
-0.00751273
-0.00848609
-0.00979666
-0.0114747
-0.0137339
-0.0163516
-0.0180479
-0.0194886
-0.0206961
-0.0217688
-0.0229665
-0.00205147
-0.00292254
-0.0031292
-0.00311778
-0.00317316
-0.00355086
-0.00452617
-0.00578848
-0.00706245
-0.00844165
-0.00954352
-0.0105706
-0.0117295
-0.0130722
-0.0146231
-0.0163004
-0.0181221
-0.019932
-0.0217485
-0.0237145
-0.00655276
-0.00875089
-0.00957372
-0.00738632
-0.00459892
-0.00382753
-0.00450911
-0.00622711
-0.00806106
-0.0099087
-0.0109984
-0.0115679
-0.0118094
-0.0119124
-0.0124099
-0.0136438
-0.015391
-0.0173784
-0.0195835
-0.0218142
-0.00887507
-0.00840471
-0.00879303
-0.00693044
-0.0049729
-0.00466382
-0.00555027
-0.00813562
-0.0107008
-0.0129268
-0.0144178
-0.0146935
-0.0144665
-0.0134223
-0.0128311
-0.0131943
-0.0142961
-0.0158019
-0.0175658
-0.0194849
-0.0128549
-0.0134569
-0.0088453
-0.00656704
-0.00690267
-0.00824564
-0.010548
-0.0132907
-0.0164835
-0.0178726
-0.018416
-0.0167252
-0.015245
-0.0140865
-0.0138979
-0.0142541
-0.015064
-0.0161856
-0.017532
-0.019104
-0.00274521
-0.00604379
-0.0047262
-0.0044872
-0.00625944
-0.00974121
-0.0143028
-0.0189171
-0.0233437
-0.0236823
-0.0222644
-0.0176536
-0.0147683
-0.0140325
-0.0145435
-0.0154329
-0.0163749
-0.017156
-0.0182531
-0.0194218
-0.00387631
-0.00352495
-0.00529578
-0.00930108
-0.0125338
-0.0160763
-0.0192594
-0.0194794
-0.0196213
-0.0163506
-0.0146
-0.0144521
-0.0156593
-0.0173432
-0.0193955
-0.0220756
-0.0257546
-0.0292388
-0.0333262
-0.0362437
-0.00628225
-0.00369399
-0.00491414
-0.00883927
-0.0153639
-0.0145314
-0.0162615
-0.0144269
-0.0138909
-0.0123342
-0.0117671
-0.0128399
-0.0165695
-0.0232081
-0.0322114
-0.0427447
-0.0547067
-0.0685197
-0.0851304
-0.100786
-0.00480499
-0.00405416
-0.00334594
-0.00349022
-0.00476134
-0.00817964
-0.0117036
-0.0132676
-0.0135936
-0.0126173
-0.0116807
-0.0101392
-0.00930269
-0.0090322
-0.00981648
-0.0114943
-0.0140622
-0.0175493
-0.0219167
-0.026593
-0.00411422
-0.00417451
-0.00446907
-0.00626108
-0.00732663
-0.00819831
-0.00864776
-0.00896833
-0.00996249
-0.0113402
-0.0132461
-0.0154834
-0.0177388
-0.0199186
-0.0218
-0.0234889
-0.0248941
-0.0260624
-0.0269732
-0.0275611
-0.00783502
-0.00915417
-0.00772803
-0.00652758
-0.00694041
-0.00754545
-0.00838592
-0.00940603
-0.0107969
-0.0123009
-0.0137238
-0.0150642
-0.0160508
-0.0168644
-0.0174219
-0.0178467
-0.0181737
-0.0184308
-0.0186637
-0.0188981
-0.00440799
-0.00751217
-0.00646397
-0.00643011
-0.00736677
-0.00827769
-0.00928517
-0.010174
-0.0112217
-0.0121908
-0.0130841
-0.0139089
-0.0146463
-0.0153346
-0.0160186
-0.0166749
-0.0173485
-0.0179991
-0.0186413
-0.0192643
-0.0057166
-0.00619332
-0.00586276
-0.00694104
-0.00802145
-0.00902226
-0.00973152
-0.0104871
-0.0112131
-0.0120205
-0.0127505
-0.0134874
-0.014248
-0.0149938
-0.0158393
-0.0167047
-0.0176823
-0.0186989
-0.0197452
-0.020694
-0.00230993
-0.00217954
-0.00416875
-0.0057738
-0.00738151
-0.00867348
-0.00910671
-0.00994529
-0.0106597
-0.0114945
-0.012299
-0.0131401
-0.014064
-0.0150533
-0.0161881
-0.017386
-0.0186332
-0.0198585
-0.0210077
-0.0219287
-0.00235418
-0.00229316
-0.00388431
-0.0055971
-0.00686877
-0.00796801
-0.00819413
-0.00938068
-0.0101682
-0.011199
-0.0121181
-0.0131334
-0.0141648
-0.0152714
-0.016425
-0.0176571
-0.0188416
-0.0199483
-0.020863
-0.0215297
-0.00364598
-0.00390604
-0.00398663
-0.00476103
-0.00570222
-0.00685995
-0.0069695
-0.00832707
-0.00875822
-0.00956868
-0.0105295
-0.0114766
-0.0124182
-0.0133227
-0.0156272
-0.0166052
-0.0175431
-0.0183455
-0.0189357
-0.019313
-0.000538804
-0.00375178
-0.00411988
-0.00454998
-0.0053283
-0.00635059
-0.00672087
-0.00655295
-0.00695951
-0.00781229
-0.00903578
-0.0103869
-0.0116735
-0.0126316
-0.0131366
-0.0148877
-0.0157523
-0.0164719
-0.0169685
-0.0172038
-0.00538733
-0.00658163
-0.00538316
-0.00474577
-0.00527806
-0.00586549
-0.00610741
-0.0059382
-0.00637575
-0.00759585
-0.00911748
-0.0106811
-0.0120358
-0.0130104
-0.0128881
-0.0140839
-0.0149366
-0.0157757
-0.0165103
-0.0169452
-0.00872966
-0.010553
-0.00673687
-0.00502543
-0.0053936
-0.00577577
-0.00606821
-0.00617622
-0.00666078
-0.00765369
-0.0088115
-0.010647
-0.0124194
-0.0134331
-0.013292
-0.0143964
-0.0153064
-0.0163268
-0.0173589
-0.0182243
-0.0102447
-0.0128692
-0.0102871
-0.00564849
-0.00501686
-0.00524348
-0.00537361
-0.00569749
-0.00633569
-0.00744364
-0.00906985
-0.0109278
-0.0124934
-0.0134162
-0.0138138
-0.0159476
-0.0169094
-0.0180128
-0.0190907
-0.0200502
-0.000888593
-0.00224694
-0.00255824
-0.00333491
-0.00412346
-0.00490978
-0.0053227
-0.00643433
-0.0075436
-0.00898427
-0.0105321
-0.0120335
-0.0133109
-0.0143193
-0.0176388
-0.0188752
-0.0201382
-0.0214565
-0.0226229
-0.0237013
-0.00326651
-0.00233896
-0.00234995
-0.00304602
-0.00394943
-0.00500039
-0.00603516
-0.00717717
-0.00854795
-0.0101077
-0.0118803
-0.0137544
-0.0156213
-0.0174846
-0.0193176
-0.0211357
-0.0228856
-0.0246613
-0.0263492
-0.027941
-0.00866948
-0.00472643
-0.00461477
-0.00378658
-0.00404642
-0.00526126
-0.00630946
-0.00744604
-0.00863525
-0.0101902
-0.0119495
-0.0139644
-0.0160163
-0.0181575
-0.0202403
-0.022208
-0.0240268
-0.025753
-0.0273175
-0.0286209
-0.01018
-0.00740108
-0.00559701
-0.00430888
-0.00474541
-0.00615971
-0.0072304
-0.00846828
-0.00956599
-0.0109632
-0.0125861
-0.0144928
-0.0165471
-0.0188267
-0.0210425
-0.0231224
-0.0249149
-0.0264437
-0.0275678
-0.0282819
-0.0155217
-0.00761423
-0.00590301
-0.00609136
-0.00699299
-0.00816848
-0.00914062
-0.0100051
-0.0110721
-0.0120316
-0.0134666
-0.0151276
-0.0171815
-0.0194957
-0.0218851
-0.0243109
-0.0266521
-0.028866
-0.0307218
-0.0320344
-0.00224237
-0.00278195
-0.00311445
-0.00538774
-0.00776089
-0.0095536
-0.0111624
-0.0116333
-0.0126775
-0.0129538
-0.0137426
-0.0146943
-0.0161957
-0.0180429
-0.0200803
-0.0223473
-0.0248328
-0.0275673
-0.0302778
-0.0325423
-0.00124257
-0.00262576
-0.00476225
-0.00757249
-0.00909735
-0.00961287
-0.0107015
-0.0110609
-0.0122212
-0.0134407
-0.0149845
-0.0166876
-0.0182979
-0.0200435
-0.0219518
-0.0241567
-0.0264796
-0.0288394
-0.031078
-0.0324273
-0.00835567
-0.00417411
-0.00483001
-0.00611535
-0.00859532
-0.00761087
-0.00849946
-0.00824557
-0.00933698
-0.0110803
-0.0142279
-0.0184613
-0.0234352
-0.0286425
-0.0340357
-0.0398747
-0.0464266
-0.0537194
-0.0630254
-0.0686426
-0.0239548
-0.0262853
-0.0237294
-0.0105546
-0.00909617
-0.011009
-0.0093847
-0.0185298
-0.0221466
-0.0170716
-0.00883238
-0.00874403
-0.00905358
-0.0088358
-0.0198521
-0.0197534
-0.0168143
-0.0102092
-0.00930238
-0.00846123
-0.00823866
-0.0149105
-0.0157858
-0.013572
-0.00907865
-0.00883865
-0.00839373
-0.00934426
-0.160809
-0.160199
-0.155286
-0.149882
-0.158049
-0.152457
-0.151091
-0.165603
-0.151474
-0.134644
-0.16006
-0.161685
-0.148501
-0.135401
-0.156625
-0.128822
-0.114558
-0.159576
-0.143461
-0.130609
-0.117871
-0.124586
-0.110816
-0.101843
-0.134962
-0.115117
-0.1143
-0.10541
-0.100283
-0.0993507
-0.0931604
-0.110134
-0.0986603
-0.102933
-0.0974035
-0.0894147
-0.0917406
-0.090965
-0.0959885
-0.0917769
-0.096467
-0.0973707
-0.0889144
-0.0920158
-0.0982793
-0.0916209
-0.0940845
-0.0988235
-0.105175
-0.0936078
-0.101016
-0.109621
-0.0956199
-0.10086
-0.107561
-0.114089
-0.147953
-0.136571
-0.120413
-0.149009
-0.143978
-0.127748
-0.117274
-0.12656
-0.11707
-0.11027
-0.140308
-0.127224
-0.115199
-0.109826
-0.109797
-0.108579
-0.105283
-0.123138
-0.11315
-0.108325
-0.106159
-0.10036
-0.104797
-0.103228
-0.110503
-0.103833
-0.105867
-0.103945
-0.093165
-0.10212
-0.0985001
-0.101895
-0.0976782
-0.102946
-0.101336
-0.092586
-0.0982085
-0.103653
-0.0971895
-0.0996918
-0.102192
-0.110335
-0.102817
-0.107738
-0.124895
-0.10173
-0.109689
-0.11448
-0.12801
-0.117376
-0.131399
-0.149265
-0.11249
-0.119608
-0.132105
-0.139618
-0.107068
-0.0986349
-0.104153
-0.0978203
-0.104712
-0.0942885
-0.100558
-0.107394
-0.10525
-0.106213
-0.105819
-0.105009
-0.100731
-0.097686
-0.10586
-0.106412
-0.1103
-0.104488
-0.106023
-0.0989533
-0.111392
-0.106264
-0.112761
-0.119094
-0.106785
-0.106391
-0.115246
-0.120849
-0.102759
-0.120258
-0.124694
-0.105514
-0.104644
-0.121685
-0.126948
-0.110829
-0.127948
-0.144683
-0.106273
-0.116815
-0.129889
-0.141238
-0.135916
-0.15173
-0.173464
-0.12156
-0.136146
-0.145545
-0.160068
-0.161609
-0.180363
-0.19925
-0.140328
-0.146924
-0.165071
-0.179254
-0.108233
-0.11619
-0.114925
-0.100806
-0.100261
-0.111487
-0.101481
-0.106839
-0.114079
-0.113744
-0.0990557
-0.0957706
-0.0960763
-0.0952277
-0.112488
-0.115359
-0.12422
-0.097938
-0.113571
-0.100736
-0.119651
-0.124481
-0.128333
-0.142532
-0.118387
-0.127445
-0.126039
-0.140534
-0.135258
-0.148505
-0.165271
-0.129392
-0.135579
-0.145253
-0.154614
-0.157446
-0.171929
-0.190798
-0.138118
-0.147722
-0.158478
-0.171541
-0.185455
-0.19856
-0.219291
-0.151861
-0.168659
-0.179438
-0.203204
-0.211558
-0.227811
-0.249965
-0.17499
-0.193211
-0.213924
-0.239159
-0.063861
-0.0469937
-0.0778968
-0.0353485
-0.0363783
-0.0393656
-0.0384953
-0.0869526
-0.0882448
-0.0978209
-0.0370576
-0.0352916
-0.0388873
-0.0374802
-0.0751484
-0.0965315
-0.0898999
-0.0336547
-0.0274472
-0.0365404
-0.0340908
-0.0625025
-0.0874314
-0.0794271
-0.0254838
-0.0212172
-0.0332116
-0.0295672
-0.051404
-0.0765083
-0.0671778
-0.0202083
-0.0181526
-0.0281103
-0.0240079
-0.0417483
-0.0639865
-0.057545
-0.0178824
-0.0183824
-0.0229909
-0.0218023
-0.0449995
-0.0572747
-0.061063
-0.0189348
-0.0212318
-0.021998
-0.0236604
-0.0552567
-0.0631548
-0.0681718
-0.0221032
-0.024599
-0.0243622
-0.0261187
-0.0879108
-0.0570477
-0.0644317
-0.0433719
-0.0415652
-0.0445444
-0.0413927
-0.0933166
-0.0651521
-0.0613518
-0.041368
-0.0393328
-0.0404332
-0.0379537
-0.0872191
-0.0606585
-0.0642417
-0.038736
-0.0373717
-0.0373922
-0.0361111
-0.0803765
-0.0663599
-0.070698
-0.0366617
-0.0330401
-0.0357403
-0.0334608
-0.0704597
-0.0709139
-0.065172
-0.0314645
-0.026467
-0.0320333
-0.0256378
-0.0599919
-0.061823
-0.0546987
-0.025027
-0.0227462
-0.0238314
-0.0218838
-0.061942
-0.0541613
-0.054603
-0.0226917
-0.023818
-0.0220249
-0.0231281
-0.0673248
-0.0545481
-0.0524873
-0.024368
-0.0256906
-0.0234096
-0.0232274
-0.0645651
-0.0435528
-0.0503345
-0.0410092
-0.0411638
-0.0349033
-0.0324928
-0.0539871
-0.0480602
-0.0418896
-0.0397587
-0.0360616
-0.0318469
-0.03166
-0.0580885
-0.0439945
-0.0601479
-0.0353312
-0.0338335
-0.0319021
-0.0314869
-0.0647176
-0.0646662
-0.0648286
-0.0333383
-0.0299128
-0.0306404
-0.0267238
-0.0589089
-0.062326
-0.0526621
-0.028052
-0.0228332
-0.025481
-0.0232173
-0.0530031
-0.0492069
-0.0405345
-0.0220244
-0.0219079
-0.0230379
-0.0239051
-0.0503036
-0.0389015
-0.0381026
-0.0222768
-0.0234885
-0.0244773
-0.0263742
-0.0473399
-0.0388943
-0.0433026
-0.0236879
-0.0231898
-0.0269354
-0.0278271
-0.039637
-0.0288215
-0.0267677
-0.0272969
-0.027532
-0.0242149
-0.023233
-0.0383751
-0.0274014
-0.0323445
-0.0280595
-0.0304514
-0.0234708
-0.0260754
-0.0610592
-0.035276
-0.0477279
-0.0312007
-0.0314783
-0.0272584
-0.0295095
-0.0668971
-0.053005
-0.0548551
-0.0306782
-0.0267905
-0.0295617
-0.0275334
-0.0488915
-0.0505038
-0.0379484
-0.0256005
-0.0236519
-0.0267994
-0.0259862
-0.0370721
-0.0357929
-0.0340435
-0.023589
-0.0248497
-0.0265376
-0.029207
-0.0369969
-0.0347266
-0.0383208
-0.0255925
-0.0281777
-0.0307332
-0.0348671
-0.0442067
-0.0409954
-0.0503727
-0.0290385
-0.0309274
-0.0365589
-0.040673
-0.0209252
-0.0168084
-0.0253396
-0.0125308
-0.0128081
-0.013026
-0.0131816
-0.0226413
-0.0273998
-0.0280223
-0.0126389
-0.011286
-0.0130882
-0.0119492
-0.0171217
-0.0273878
-0.0253545
-0.0106945
-0.00907404
-0.0114882
-0.0101561
-0.0136014
-0.0245142
-0.0211061
-0.00870176
-0.00820321
-0.00969632
-0.0086045
-0.011934
-0.0198532
-0.0167506
-0.00817367
-0.0083918
-0.0084322
-0.00849703
-0.0128866
-0.0161406
-0.0159492
-0.00854007
-0.0090811
-0.00866223
-0.00934618
-0.0157545
-0.0163233
-0.0180122
-0.00927909
-0.00996223
-0.00959671
-0.0103519
-0.0189367
-0.0185893
-0.019817
-0.0102339
-0.0111895
-0.0106075
-0.0114431
-0.0295301
-0.0230735
-0.0279306
-0.0149413
-0.0143585
-0.0164433
-0.0156323
-0.0300579
-0.0283814
-0.0279276
-0.014102
-0.0129275
-0.0152958
-0.0139532
-0.0283755
-0.0277531
-0.0273242
-0.0125207
-0.0111303
-0.0134276
-0.0114777
-0.0204851
-0.0265643
-0.0295326
-0.0198394
-0.0285271
-0.0188433
-0.0215126
-0.0162912
-0.0210843
-0.0244424
-0.015603
-0.0227766
-0.0146987
-0.0172542
-0.016441
-0.0158324
-0.0144478
-0.00889096
-0.0095584
-0.00896256
-0.00951492
-0.0177697
-0.0145382
-0.0150514
-0.00980057
-0.0104988
-0.00972778
-0.0103889
-0.0189968
-0.0151158
-0.0150724
-0.0107259
-0.0114694
-0.0106319
-0.011524
-0.0274101
-0.0175473
-0.0180114
-0.0170191
-0.0154236
-0.0133239
-0.011765
-0.0247285
-0.0175982
-0.0177077
-0.0148035
-0.012934
-0.0114944
-0.0103908
-0.0243606
-0.0185676
-0.0201498
-0.0123312
-0.0104639
-0.00995625
-0.00875672
-0.0150463
-0.0229727
-0.0217954
-0.0171854
-0.0213444
-0.0161866
-0.0155542
-0.0121413
-0.0167691
-0.0184108
-0.0135449
-0.0172802
-0.0127543
-0.0128273
-0.0140243
-0.0132189
-0.0132732
-0.00891809
-0.00950597
-0.00976274
-0.0110864
-0.0145164
-0.0135617
-0.0147364
-0.00974931
-0.0104993
-0.0115128
-0.0127202
-0.0145584
-0.0151421
-0.0162021
-0.0107718
-0.0117441
-0.013108
-0.0142553
-0.0135114
-0.00874643
-0.00961474
-0.00953824
-0.010372
-0.00807937
-0.00900998
-0.016481
-0.0104143
-0.0127152
-0.0105372
-0.0100458
-0.00932339
-0.00942731
-0.0197186
-0.0134568
-0.0152289
-0.00970417
-0.00874121
-0.00940994
-0.00940523
-0.0160529
-0.0153577
-0.0134518
-0.00854279
-0.00862493
-0.00950946
-0.010134
-0.0129219
-0.0128091
-0.0124232
-0.0088661
-0.0100059
-0.010527
-0.0118297
-0.0133575
-0.012807
-0.0143838
-0.0104762
-0.0119816
-0.0124899
-0.0143068
-0.0153954
-0.015133
-0.0172642
-0.0124754
-0.0138785
-0.0150302