/*--------------------------------*- C++ -*----------------------------------*\
  =========                 |
  \\      /  F ield         | OpenFOAM: The Open Source CFD Toolbox
   \\    /   O peration     | Website:  https://openfoam.org
    \\  /    A nd           | Version:  10
     \\/     M anipulation  |
\*---------------------------------------------------------------------------*/
FoamFile
{
    format      ascii;
    class       volScalarField;
    location    "4.7";
    object      turbidity;
}
// * * * * * * * * * * * * * * * * * * * * * * * * * * * * * * * * * * * * * //

dimensions      [0 0 0 0 0 0 0];

internalField   nonuniform List<scalar> 
12920
(
-0.0641766
-0.0684778
-0.071052
-0.0804291
-0.0758866
-0.0894597
-0.10892
-0.135704
-0.168755
-0.200852
-0.231655
-0.259287
-0.284909
-0.308451
-0.329371
-0.34783
-0.364735
-0.380778
-0.396583
-0.411743
-0.0593898
-0.0521754
-0.0664198
-0.0972361
-0.11426
-0.132877
-0.153724
-0.174676
-0.197018
-0.220381
-0.248394
-0.282332
-0.320933
-0.358969
-0.391703
-0.417064
-0.435401
-0.447457
-0.454332
-0.455157
-0.0734514
-0.0605977
-0.068723
-0.107977
-0.132399
-0.151125
-0.175968
-0.199627
-0.231985
-0.263208
-0.297767
-0.332064
-0.367063
-0.399395
-0.42774
-0.451129
-0.469287
-0.480597
-0.482601
-0.47765
-0.0322708
-0.0704513
-0.0946134
-0.129081
-0.157221
-0.186487
-0.21971
-0.264104
-0.302946
-0.341524
-0.36991
-0.39394
-0.411371
-0.428008
-0.444263
-0.462645
-0.482291
-0.501798
-0.516508
-0.522442
-0.0322418
-0.04603
-0.0743288
-0.105393
-0.126928
-0.14975
-0.172957
-0.208887
-0.24672
-0.284928
-0.316507
-0.341669
-0.357999
-0.372947
-0.388525
-0.40951
-0.436708
-0.469293
-0.500586
-0.524927
-0.0239536
-0.043398
-0.0708552
-0.097318
-0.115211
-0.123768
-0.146976
-0.170876
-0.211894
-0.255423
-0.284028
-0.299929
-0.304586
-0.311344
-0.322355
-0.342202
-0.372826
-0.4149
-0.460478
-0.502605
-0.0491419
-0.0608876
-0.0805014
-0.101633
-0.123367
-0.143962
-0.180054
-0.220641
-0.251057
-0.264889
-0.24589
-0.232679
-0.222748
-0.22341
-0.233763
-0.253982
-0.2859
-0.331029
-0.385777
-0.448321
-0.0236633
-0.0351224
-0.0540937
-0.0824131
-0.115476
-0.150787
-0.158855
-0.180041
-0.203222
-0.175181
-0.147263
-0.125257
-0.113943
-0.110688
-0.132411
-0.163522
-0.193693
-0.225847
-0.263192
-0.309912
-0.0229867
-0.0466847
-0.0711849
-0.103868
-0.147994
-0.155808
-0.159087
-0.161431
-0.166207
-0.149413
-0.117733
-0.0965746
-0.0885668
-0.0897603
-0.107377
-0.14758
-0.174749
-0.199056
-0.224186
-0.255212
-0.0374742
-0.0656969
-0.0706817
-0.114386
-0.158538
-0.159051
-0.156084
-0.143579
-0.121787
-0.10716
-0.0985218
-0.0921098
-0.0941414
-0.106234
-0.135004
-0.168952
-0.187938
-0.205705
-0.224423
-0.245986
-0.0285241
-0.0325031
-0.042638
-0.0580635
-0.082063
-0.0912113
-0.101317
-0.107718
-0.1068
-0.106071
-0.105579
-0.102987
-0.115724
-0.14264
-0.181689
-0.213178
-0.223955
-0.226272
-0.230896
-0.243222
-0.0632523
-0.0345075
-0.0386076
-0.0666274
-0.101956
-0.105883
-0.108679
-0.107839
-0.107084
-0.115356
-0.126683
-0.139361
-0.164023
-0.191942
-0.23447
-0.289685
-0.301265
-0.292323
-0.275687
-0.269007
-0.027102
-0.0414192
-0.0486767
-0.0752993
-0.10676
-0.134008
-0.134693
-0.129056
-0.129805
-0.140159
-0.160805
-0.185221
-0.212975
-0.243877
-0.318232
-0.359492
-0.383758
-0.385755
-0.365478
-0.344774
-0.0607825
-0.0389455
-0.060351
-0.0958478
-0.1217
-0.140657
-0.153922
-0.164617
-0.175667
-0.188525
-0.207488
-0.234015
-0.267786
-0.307411
-0.351027
-0.393889
-0.431119
-0.457877
-0.466437
-0.456172
-0.0251432
-0.0459107
-0.0693294
-0.0957051
-0.112119
-0.120935
-0.125374
-0.126845
-0.133568
-0.147074
-0.171428
-0.206366
-0.247365
-0.296563
-0.349785
-0.398459
-0.438875
-0.472508
-0.497205
-0.508839
-0.0442889
-0.0665661
-0.0785032
-0.0990758
-0.110622
-0.118429
-0.124422
-0.129071
-0.139413
-0.157557
-0.186308
-0.221737
-0.262682
-0.314182
-0.371992
-0.427095
-0.472802
-0.507572
-0.53547
-0.553988
-0.0206338
-0.0571957
-0.0718796
-0.0888729
-0.105343
-0.119599
-0.131538
-0.142616
-0.156466
-0.178833
-0.21211
-0.255839
-0.305634
-0.353743
-0.400356
-0.446484
-0.492643
-0.533904
-0.565604
-0.586754
-0.0132606
-0.0352059
-0.0438018
-0.0577643
-0.0762947
-0.0983678
-0.119602
-0.137095
-0.15074
-0.16631
-0.190642
-0.231437
-0.280627
-0.323201
-0.361165
-0.402204
-0.452552
-0.509493
-0.557991
-0.593442
-0.0165937
-0.039459
-0.0463978
-0.0664582
-0.0925363
-0.115622
-0.142255
-0.1658
-0.190808
-0.215146
-0.240049
-0.260906
-0.268853
-0.267844
-0.276508
-0.298744
-0.330143
-0.374611
-0.429113
-0.485426
-0.0206099
-0.0369801
-0.0483285
-0.0551805
-0.0725141
-0.0971073
-0.130192
-0.155551
-0.179944
-0.199565
-0.21571
-0.219557
-0.216736
-0.212899
-0.214914
-0.22225
-0.233185
-0.248632
-0.269049
-0.294417
-0.0334937
-0.0216839
-0.0133046
-0.0093233
-0.00772712
-0.00912702
-0.0138052
-0.0217993
-0.0336049
-0.0467719
-0.0632035
-0.0749622
-0.0821768
-0.0798431
-0.0729242
-0.0624811
-0.053951
-0.0478294
-0.0447277
-0.0467271
-0.0598616
-0.0150492
-0.00962331
-0.0238497
-0.0242706
-0.0243895
-0.030092
-0.0347836
-0.0507524
-0.0661618
-0.0863222
-0.0970777
-0.100323
-0.0932572
-0.0841792
-0.0729834
-0.0621909
-0.0492313
-0.037242
-0.0279462
-0.00789233
-0.00832926
-0.00795617
-0.0170252
-0.0164864
-0.0202286
-0.0272688
-0.0306936
-0.0452127
-0.0560878
-0.0734114
-0.0813089
-0.0872564
-0.0843592
-0.0809335
-0.0723803
-0.0622892
-0.0487307
-0.0382725
-0.0327225
-0.0174424
-0.0148625
-0.0145384
-0.0382265
-0.0370078
-0.0463619
-0.0517925
-0.0475895
-0.0484969
-0.0531597
-0.0655883
-0.0802342
-0.0951024
-0.10635
-0.113375
-0.113759
-0.106557
-0.0910357
-0.073069
-0.0606263
-0.0154653
-0.0262014
-0.0355882
-0.0452944
-0.0500976
-0.0513021
-0.0512818
-0.0460311
-0.0417684
-0.0425558
-0.0490179
-0.0592027
-0.0721152
-0.0862422
-0.099746
-0.109438
-0.111153
-0.104077
-0.091998
-0.0827774
-0.0177238
-0.0245749
-0.042388
-0.0326492
-0.0263292
-0.0190658
-0.0222621
-0.0250864
-0.0359422
-0.0413846
-0.0451341
-0.0436435
-0.043938
-0.0492206
-0.0576431
-0.0685649
-0.078674
-0.0820714
-0.0778592
-0.073782
-0.00752505
-0.021805
-0.0270244
-0.0268086
-0.0337876
-0.0248584
-0.0332634
-0.0375169
-0.0437975
-0.0462847
-0.0395924
-0.0354832
-0.0329685
-0.0334385
-0.0372976
-0.0435574
-0.0532665
-0.0645454
-0.0720351
-0.0744777
-0.00955408
-0.0114388
-0.0187191
-0.0209431
-0.0374175
-0.033781
-0.0460013
-0.0495385
-0.0423712
-0.037285
-0.0329667
-0.0308448
-0.0298678
-0.0322389
-0.0344121
-0.0378589
-0.0417998
-0.0463138
-0.0530701
-0.0600158
-0.00814291
-0.0169933
-0.0249532
-0.0298019
-0.0541072
-0.0464869
-0.0398763
-0.0750742
-0.0868208
-0.071282
-0.0604788
-0.0484989
-0.0415486
-0.0472552
-0.0511089
-0.0438
-0.0469835
-0.0521824
-0.0581272
-0.0632281
-0.0206097
-0.011622
-0.00898783
-0.0345651
-0.0672007
-0.0620279
-0.062552
-0.0928895
-0.0919802
-0.0858498
-0.0785233
-0.0675866
-0.0593831
-0.0634817
-0.0519844
-0.0356043
-0.0360623
-0.0397557
-0.0477714
-0.057682
-0.00649767
-0.00746646
-0.00784225
-0.0108755
-0.0227068
-0.0322343
-0.0493773
-0.0641598
-0.0526254
-0.0608218
-0.0641951
-0.057
-0.0524372
-0.0495222
-0.0402001
-0.0319859
-0.0301567
-0.0304162
-0.034509
-0.0417549
-0.00944562
-0.0107082
-0.00758761
-0.0108249
-0.0246229
-0.0299298
-0.0367556
-0.0384038
-0.0417678
-0.0662144
-0.0633415
-0.0449873
-0.0361645
-0.0381502
-0.0474049
-0.0461203
-0.0418746
-0.0381927
-0.0372843
-0.0400018
-0.0109195
-0.00826454
-0.00613645
-0.0090931
-0.0159433
-0.0189029
-0.0212514
-0.0259734
-0.032521
-0.0438826
-0.0383109
-0.0336515
-0.0359967
-0.0450786
-0.0581497
-0.0639261
-0.0617296
-0.0562434
-0.0515432
-0.0499111
-0.0286161
-0.00635917
-0.00568291
-0.00913664
-0.0114961
-0.0123389
-0.0125586
-0.0122503
-0.0135135
-0.0167273
-0.0229982
-0.0331144
-0.0458172
-0.0567064
-0.0601406
-0.0626447
-0.0658763
-0.0690578
-0.0696998
-0.0701335
-0.0233475
-0.0258112
-0.0145
-0.0128375
-0.010205
-0.00797745
-0.00671119
-0.00673282
-0.00873908
-0.0146909
-0.0253603
-0.0408797
-0.0586307
-0.0670006
-0.0610587
-0.0541587
-0.0532605
-0.0582382
-0.0685262
-0.0803516
-0.0240296
-0.0169225
-0.0162646
-0.0173335
-0.0149314
-0.0125859
-0.0101735
-0.0101666
-0.0139051
-0.0256085
-0.0447519
-0.0663285
-0.0850956
-0.0913466
-0.0831311
-0.0717844
-0.0641351
-0.0622189
-0.0665025
-0.0757095
-0.0231438
-0.0186136
-0.0176451
-0.019792
-0.0257651
-0.0313235
-0.0377306
-0.0427772
-0.0520784
-0.0658315
-0.0838198
-0.093048
-0.0945918
-0.0915366
-0.0912445
-0.0910651
-0.0869154
-0.0755188
-0.0654722
-0.061158
-0.00632159
-0.0071651
-0.00768381
-0.00741917
-0.00828023
-0.01215
-0.019521
-0.0299527
-0.0454039
-0.0654841
-0.0867504
-0.0896332
-0.0750995
-0.0670686
-0.075604
-0.0952183
-0.113573
-0.110844
-0.0986758
-0.0839485
-0.00775297
-0.00773704
-0.00666866
-0.00899337
-0.0160702
-0.0247807
-0.0352058
-0.0482204
-0.0662251
-0.0790912
-0.0797847
-0.0606251
-0.0448687
-0.0395666
-0.0455576
-0.0642983
-0.0987076
-0.128443
-0.13347
-0.111461
-0.0217317
-0.00727458
-0.00695873
-0.0111591
-0.0273572
-0.0347201
-0.0432289
-0.0459893
-0.0513488
-0.0525245
-0.0491401
-0.0419521
-0.035583
-0.0319217
-0.0312136
-0.0332915
-0.0396
-0.0538277
-0.0794206
-0.106364
-0.0370018
-0.0145434
-0.00801519
-0.00714973
-0.0065412
-0.00761981
-0.0114414
-0.0176041
-0.0246495
-0.0299927
-0.0348864
-0.0365602
-0.0363089
-0.0329728
-0.028942
-0.0246045
-0.0211294
-0.0185778
-0.0171166
-0.0170644
-0.00588014
-0.00556958
-0.0062797
-0.0115876
-0.0117583
-0.014616
-0.0190138
-0.0232687
-0.0295042
-0.0325258
-0.0352254
-0.0315119
-0.0264537
-0.0203695
-0.0166721
-0.0144203
-0.0137027
-0.0138692
-0.0151778
-0.0174302
-0.00335062
-0.00656534
-0.00617331
-0.00728018
-0.0085919
-0.0107765
-0.0137321
-0.016062
-0.0203294
-0.021821
-0.0249754
-0.0242021
-0.0242886
-0.0224124
-0.0216079
-0.0204487
-0.0202277
-0.0209737
-0.0232147
-0.0267473
-0.031731
-0.0157553
-0.00739275
-0.0109285
-0.010908
-0.0152283
-0.017337
-0.0174864
-0.0201319
-0.0229991
-0.0276371
-0.0316779
-0.0357382
-0.0375568
-0.0380569
-0.036503
-0.0343019
-0.0324222
-0.0325929
-0.0351293
-0.0168254
-0.0115348
-0.0106281
-0.0173359
-0.0194492
-0.0203295
-0.0202895
-0.0196182
-0.0207519
-0.0241469
-0.0274285
-0.0322803
-0.0366058
-0.0405482
-0.0429767
-0.0431973
-0.0412117
-0.0385497
-0.0373254
-0.0384484
-0.00335541
-0.0053108
-0.00920696
-0.00956666
-0.00890191
-0.0101632
-0.0132372
-0.0153767
-0.0177918
-0.0193365
-0.0200025
-0.0217388
-0.0237471
-0.026887
-0.029653
-0.0319562
-0.0330563
-0.0328747
-0.0324636
-0.0332468
-0.0082636
-0.00973853
-0.00986301
-0.00963337
-0.011401
-0.0115736
-0.0149693
-0.016387
-0.0157811
-0.0160088
-0.0146532
-0.0150064
-0.015807
-0.0177605
-0.0204544
-0.0236886
-0.0271237
-0.0299265
-0.0315493
-0.0324759
-0.0043832
-0.00688435
-0.00947819
-0.00895854
-0.0137025
-0.0127817
-0.0154846
-0.0164866
-0.0144541
-0.0121626
-0.0114203
-0.0116335
-0.0125612
-0.0139553
-0.0157897
-0.0187235
-0.0224357
-0.0264446
-0.0304949
-0.0339592
-0.00551205
-0.0118841
-0.0126712
-0.0105052
-0.0163583
-0.014219
-0.0137466
-0.0231109
-0.0214647
-0.0161161
-0.0130689
-0.0119202
-0.0134802
-0.0165493
-0.018249
-0.0187241
-0.0223444
-0.0269685
-0.0318605
-0.0360278
-0.00640481
-0.00907937
-0.00701914
-0.0121619
-0.0214183
-0.0219745
-0.0231998
-0.0305006
-0.0297533
-0.0276944
-0.0226486
-0.0176379
-0.0165861
-0.018162
-0.0168806
-0.0166702
-0.0198599
-0.0244063
-0.030025
-0.0350103
-0.00819229
-0.00735206
-0.00685758
-0.00748656
-0.0133428
-0.016893
-0.0231755
-0.0270869
-0.0244312
-0.0233787
-0.0182791
-0.0143861
-0.0141647
-0.014544
-0.0140174
-0.0166153
-0.0189851
-0.0224596
-0.0269362
-0.0312657
-0.0138721
-0.012487
-0.0086897
-0.00722826
-0.00961132
-0.010393
-0.0113919
-0.0139007
-0.017723
-0.0193022
-0.0150033
-0.0127532
-0.0137844
-0.0159181
-0.0186296
-0.0213738
-0.0226052
-0.0245057
-0.0272823
-0.030389
-0.00486554
-0.00654287
-0.00520402
-0.00506457
-0.00612854
-0.00645394
-0.00731275
-0.00993619
-0.0115251
-0.012762
-0.01208
-0.0133688
-0.0159299
-0.0193903
-0.0240831
-0.0264725
-0.0280079
-0.0295189
-0.031103
-0.0330288
-0.00826159
-0.00481121
-0.00449337
-0.0044229
-0.00423642
-0.00409671
-0.00466974
-0.00550131
-0.0071093
-0.00962609
-0.0126796
-0.0161412
-0.0193204
-0.0219414
-0.0239256
-0.0263417
-0.0291308
-0.0317313
-0.0337973
-0.0356884
-0.0154477
-0.0185378
-0.014306
-0.0100942
-0.00652732
-0.00456918
-0.00400186
-0.00503724
-0.00737048
-0.0113796
-0.0159711
-0.0204908
-0.0236239
-0.0237886
-0.0218815
-0.0213281
-0.0226705
-0.0252425
-0.0287647
-0.032281
-0.0310348
-0.017532
-0.0140318
-0.0124971
-0.0101951
-0.00769154
-0.00609802
-0.00754514
-0.0113694
-0.0178631
-0.0249509
-0.0306267
-0.0341001
-0.0323106
-0.0275797
-0.0238508
-0.0221644
-0.0221098
-0.0235601
-0.0260043
-0.0109928
-0.0120726
-0.010876
-0.00956434
-0.0109647
-0.0124234
-0.0153863
-0.0189655
-0.0258212
-0.0328961
-0.0393813
-0.0395461
-0.0371859
-0.0335526
-0.0307431
-0.0280094
-0.0253671
-0.0229295
-0.0220318
-0.0226472
-0.00297974
-0.00566374
-0.00463612
-0.00395722
-0.00521351
-0.00890561
-0.0147635
-0.0229452
-0.0338075
-0.043378
-0.0486264
-0.0417549
-0.0327116
-0.0287023
-0.0291214
-0.0311219
-0.0322731
-0.0295489
-0.0273308
-0.0263969
-0.00213939
-0.00458475
-0.00521083
-0.00834842
-0.0135028
-0.0204728
-0.0277088
-0.0345807
-0.0408139
-0.0385726
-0.0318273
-0.0238653
-0.0219789
-0.0241512
-0.0290456
-0.0356363
-0.0447352
-0.0503128
-0.0505565
-0.0479529
-0.0148786
-0.0101185
-0.0049022
-0.00765305
-0.0186634
-0.0228021
-0.0271147
-0.0274118
-0.0277055
-0.0247961
-0.0215767
-0.0182884
-0.0175809
-0.0200402
-0.0259956
-0.0354674
-0.0475853
-0.061367
-0.0782067
-0.100271
-0.0179605
-0.00759035
-0.00566802
-0.00586912
-0.00599204
-0.00721151
-0.010422
-0.0145453
-0.01806
-0.0199588
-0.0214259
-0.0211142
-0.0199876
-0.0177351
-0.0154263
-0.0131935
-0.0114584
-0.010253
-0.00965293
-0.00973383
-0.00514114
-0.00453804
-0.00518393
-0.00759252
-0.00881501
-0.0107443
-0.01243
-0.0127489
-0.0135689
-0.0122054
-0.0118326
-0.0105262
-0.010282
-0.0107264
-0.0119296
-0.0136518
-0.0157187
-0.0180034
-0.0202968
-0.0224355
-0.00612915
-0.00687344
-0.00634046
-0.00619505
-0.00716394
-0.00812602
-0.00897507
-0.00926387
-0.0102135
-0.0101309
-0.0111591
-0.0115817
-0.0129073
-0.0142547
-0.0161793
-0.0183407
-0.0207494
-0.0231845
-0.0254715
-0.0273534
-0.0548307
-0.0280948
-0.00885416
-0.00648805
-0.00736618
-0.00886072
-0.0102077
-0.0107045
-0.0121275
-0.0130502
-0.0148143
-0.0161049
-0.0177401
-0.018912
-0.0202339
-0.0215278
-0.0230632
-0.0247643
-0.0265129
-0.0280337
-0.00226128
-0.0066771
-0.00655793
-0.0090958
-0.00955642
-0.0108177
-0.0117625
-0.0125762
-0.0134818
-0.0151013
-0.0164583
-0.0182227
-0.0195972
-0.0206395
-0.0213172
-0.0216598
-0.0219568
-0.0225441
-0.023545
-0.0248499
-0.0018581
-0.0029768
-0.00459295
-0.0056396
-0.00648392
-0.0083726
-0.00980141
-0.0110854
-0.0115713
-0.0126823
-0.0134127
-0.0148566
-0.0159592
-0.0170472
-0.0177125
-0.0181641
-0.0184344
-0.0186845
-0.0191565
-0.0200596
-0.00740559
-0.00473878
-0.00494013
-0.00602197
-0.00727134
-0.00852158
-0.00901194
-0.00976807
-0.00925363
-0.0102252
-0.0106166
-0.0120036
-0.0132691
-0.0147114
-0.0159329
-0.0168267
-0.0175144
-0.0178972
-0.0182161
-0.018725
-0.00643648
-0.00604711
-0.00579461
-0.00578455
-0.00707027
-0.00795726
-0.0084617
-0.00882333
-0.00805962
-0.00747112
-0.00784563
-0.00850425
-0.00975221
-0.0115024
-0.0148842
-0.0167273
-0.0181932
-0.0192629
-0.0201025
-0.0207621
-0.00770586
-0.00825974
-0.00654318
-0.00576554
-0.00659382
-0.00748254
-0.00810599
-0.00930879
-0.00785164
-0.00674378
-0.00675697
-0.00743145
-0.00842833
-0.00962195
-0.0122698
-0.0168867
-0.019298
-0.0212403
-0.0225435
-0.0229265
-0.00757092
-0.00791087
-0.00645395
-0.00616924
-0.00699746
-0.00901058
-0.00996837
-0.010903
-0.00961115
-0.00817098
-0.0074794
-0.00801864
-0.00906734
-0.0102172
-0.0126135
-0.016956
-0.0193491
-0.0213197
-0.0225539
-0.0225072
-0.00537839
-0.00556668
-0.0057245
-0.00573933
-0.00741401
-0.00832089
-0.0103406
-0.0110201
-0.00932387
-0.0078125
-0.00760643
-0.00804617
-0.00889666
-0.0103923
-0.0135907
-0.0170552
-0.0190281
-0.0207557
-0.0218976
-0.0222232
-0.0079115
-0.00765964
-0.00703704
-0.00556995
-0.00557935
-0.00555
-0.00573015
-0.00684149
-0.00699519
-0.00682621
-0.00728552
-0.00848352
-0.0103165
-0.0125897
-0.0158226
-0.0179293
-0.0193214
-0.0205346
-0.021463
-0.0221179
-0.00183039
-0.0022972
-0.00228522
-0.00322254
-0.00399142
-0.00432397
-0.00488787
-0.00601001
-0.00669875
-0.00750543
-0.00847688
-0.0097829
-0.0114558
-0.0137087
-0.016332
-0.0180305
-0.0194737
-0.0206838
-0.0217579
-0.0229541
-0.00202239
-0.00288133
-0.00311489
-0.00311809
-0.0031746
-0.00354774
-0.00451915
-0.00577699
-0.00705102
-0.00843067
-0.00953483
-0.0105626
-0.0117201
-0.0130605
-0.0146073
-0.016283
-0.0181036
-0.0199141
-0.0217307
-0.0236949
-0.00571007
-0.00859837
-0.0094791
-0.00741427
-0.00464894
-0.00384009
-0.00449969
-0.00620593
-0.00804022
-0.00989274
-0.0109922
-0.0115682
-0.0118142
-0.0119183
-0.0124066
-0.0136315
-0.0153742
-0.0173596
-0.0195631
-0.0217934
-0.00906305
-0.00843865
-0.00878082
-0.00695293
-0.00499677
-0.00466903
-0.00553888
-0.00810985
-0.0106751
-0.012911
-0.0144121
-0.014702
-0.0144841
-0.0134451
-0.0128429
-0.0131921
-0.0142853
-0.0157878
-0.0175494
-0.0194672
-0.0130103
-0.0133657
-0.00888249
-0.00659051
-0.00690244
-0.00823256
-0.0105204
-0.0132573
-0.0164505
-0.0178666
-0.0184361
-0.0167625
-0.015273
-0.0141034
-0.013903
-0.0142524
-0.0150576
-0.0161754
-0.0175198
-0.0190901
-0.00249424
-0.00593433
-0.00477139
-0.00449641
-0.00623104
-0.00969347
-0.0142358
-0.0188546
-0.0232884
-0.0236896
-0.0223395
-0.0177452
-0.0148164
-0.0140425
-0.0145385
-0.0154262
-0.0163706
-0.0171501
-0.0182433
-0.019412
-0.00390225
-0.00353745
-0.00528823
-0.00927175
-0.0124909
-0.0160385
-0.0192151
-0.0194745
-0.0196329
-0.016396
-0.0146351
-0.0144551
-0.0156461
-0.0173245
-0.0193718
-0.0220448
-0.0257203
-0.0292092
-0.0332867
-0.0362189
-0.00627894
-0.00382039
-0.00490675
-0.00879681
-0.0153263
-0.0145382
-0.0162661
-0.0144505
-0.0139164
-0.0123645
-0.011787
-0.012825
-0.0165148
-0.0231127
-0.0320823
-0.0425919
-0.0545249
-0.0682932
-0.0848611
-0.10055
-0.0046199
-0.00407446
-0.00336558
-0.00348726
-0.0047368
-0.00813008
-0.0116597
-0.0132502
-0.01359
-0.012628
-0.0116965
-0.0101605
-0.0093184
-0.00903765
-0.0098088
-0.0114735
-0.0140287
-0.0175028
-0.0218588
-0.0265299
-0.00378115
-0.00419544
-0.00446881
-0.00624549
-0.00731241
-0.00819203
-0.00864679
-0.00896617
-0.00995596
-0.0113294
-0.0132315
-0.0154655
-0.0177202
-0.0199004
-0.0217839
-0.0234748
-0.0248818
-0.0260521
-0.0269651
-0.0275561
-0.00770934
-0.00909432
-0.00777274
-0.00654603
-0.00693653
-0.00754139
-0.00837997
-0.00939824
-0.010787
-0.0122895
-0.0137133
-0.0150544
-0.0160433
-0.0168584
-0.0174176
-0.0178436
-0.0181714
-0.0184289
-0.018662
-0.0188964
-0.00403516
-0.00741143
-0.00648828
-0.00643068
-0.0073596
-0.00827159
-0.00927909
-0.0101673
-0.0112151
-0.0121844
-0.0130783
-0.0139038
-0.0146415
-0.0153302
-0.0160143
-0.0166706
-0.0173443
-0.0179945
-0.0186368
-0.0192599
-0.00566562
-0.00618765
-0.00586962
-0.00693644
-0.00801388
-0.00901533
-0.00972766
-0.0104816
-0.0112085
-0.0120153
-0.0127457
-0.0134828
-0.0142434
-0.0149891
-0.0158341
-0.0166991
-0.0176759
-0.0186917
-0.0197379
-0.0206874
-0.00240273
-0.00218358
-0.00416515
-0.00576616
-0.00737225
-0.00866651
-0.00910299
-0.00994069
-0.0106554
-0.0114897
-0.0122942
-0.013135
-0.0140581
-0.0150467
-0.0161806
-0.0173778
-0.0186247
-0.01985
-0.0209998
-0.0219224
-0.00242165
-0.00230787
-0.00388378
-0.00559173
-0.00686276
-0.00796284
-0.0081921
-0.00937535
-0.0101632
-0.011193
-0.0121119
-0.0131265
-0.0141576
-0.0152635
-0.0164168
-0.0176485
-0.0188333
-0.0199407
-0.0208567
-0.0215252
-0.00352839
-0.00390448
-0.00398639
-0.00476131
-0.00569979
-0.0068583
-0.00696842
-0.00832406
-0.00875936
-0.00956428
-0.0105239
-0.0114695
-0.0124115
-0.0133155
-0.0156202
-0.0165983
-0.0175365
-0.0183401
-0.0189317
-0.0193105
-0.000491619
-0.00360643
-0.00411359
-0.00454777
-0.00532484
-0.00634582
-0.00672111
-0.00655498
-0.0069563
-0.00780382
-0.00902496
-0.0103748
-0.0116628
-0.0126244
-0.0131329
-0.014883
-0.0157468
-0.0164678
-0.0169658
-0.0172024
-0.00556913
-0.0065405
-0.00538105
-0.00474613
-0.00527747
-0.00586768
-0.00611136
-0.00593963
-0.00636763
-0.00758134
-0.00910227
-0.0106676
-0.0120249
-0.0130032
-0.0128874
-0.0140794
-0.0149307
-0.01577
-0.0165053
-0.0169422
-0.00801596
-0.0104749
-0.00678752
-0.00503795
-0.00539096
-0.00577156
-0.00606775
-0.0061755
-0.00665338
-0.00764242
-0.00879636
-0.0106287
-0.0124058
-0.0134267
-0.0132922
-0.0143916
-0.0152998
-0.0163193
-0.0173512
-0.018218
-0.0108444
-0.0128369
-0.0102862
-0.00565821
-0.0050187
-0.00524352
-0.00537172
-0.00569416
-0.00632844
-0.00743231
-0.00905516
-0.0109125
-0.012482
-0.0134103
-0.0138121
-0.0159431
-0.0169024
-0.0180047
-0.0190825
-0.0200433
-0.000813647
-0.00217923
-0.00255107
-0.00332797
-0.00411661
-0.00490315
-0.00531624
-0.00642628
-0.00753565
-0.00897278
-0.0105213
-0.0120231
-0.0133036
-0.0143132
-0.0176323
-0.0188673
-0.0201294
-0.0214471
-0.022614
-0.0236936
-0.00306233
-0.00236897
-0.00235097
-0.00304301
-0.00394607
-0.00499568
-0.00603084
-0.0071717
-0.00854131
-0.0100989
-0.0118703
-0.0137428
-0.0156092
-0.0174719
-0.0193053
-0.0211235
-0.0228736
-0.0246493
-0.0263371
-0.0279301
-0.00856109
-0.00482357
-0.00460495
-0.00379347
-0.00404416
-0.0052521
-0.00630124
-0.0074378
-0.00862716
-0.0101805
-0.0119388
-0.0139522
-0.016003
-0.0181429
-0.0202265
-0.0221954
-0.024015
-0.0257417
-0.0273072
-0.0286123
-0.0102574
-0.00740791
-0.00560574
-0.00431427
-0.00474259
-0.00615327
-0.00722375
-0.00846251
-0.00955982
-0.0109561
-0.0125777
-0.0144815
-0.0165334
-0.0188104
-0.0210263
-0.0231081
-0.0249029
-0.0264336
-0.0275605
-0.0282771
-0.0158769
-0.00764745
-0.00591138
-0.0060881
-0.00698609
-0.00816107
-0.00913343
-0.00999974
-0.0110669
-0.0120264
-0.0134597
-0.0151168
-0.0171674
-0.0194798
-0.0218685
-0.0242946
-0.0266364
-0.0288516
-0.0307096
-0.0320257
-0.00218264
-0.00278894
-0.00310953
-0.00537089
-0.00774352
-0.00954338
-0.0111517
-0.0116301
-0.0126732
-0.0129547
-0.0137469
-0.0146899
-0.0161845
-0.0180295
-0.0200665
-0.0223318
-0.0248155
-0.0275492
-0.0302603
-0.0325279
-0.00128441
-0.00262464
-0.00474883
-0.0075595
-0.00909068
-0.00960825
-0.010696
-0.0110576
-0.0122152
-0.013432
-0.0149735
-0.0166754
-0.0182856
-0.0200303
-0.0219377
-0.0241407
-0.0264629
-0.0288226
-0.0310623
-0.0324249
-0.00805979
-0.00422679
-0.00482295
-0.00610365
-0.00859209
-0.00761817
-0.00850392
-0.00824937
-0.00933309
-0.0110644
-0.0141959
-0.0184176
-0.0233848
-0.0285899
-0.0339812
-0.0398148
-0.0463555
-0.0536378
-0.0629334
-0.0686021
-0.0240756
-0.0263028
-0.0238071
-0.0105962
-0.00912253
-0.0110482
-0.00940567
-0.0186243
-0.0222362
-0.0171514
-0.008851
-0.00874284
-0.00906852
-0.00883411
-0.0199277
-0.0197816
-0.0168669
-0.0102388
-0.0093171
-0.00847559
-0.00823841
-0.0149525
-0.0158339
-0.0135956
-0.00909068
-0.00883888
-0.00838898
-0.00933097
-0.160783
-0.160181
-0.155473
-0.149797
-0.157926
-0.152421
-0.151208
-0.165651
-0.151759
-0.135062
-0.159998
-0.161772
-0.148714
-0.135738
-0.157037
-0.1292
-0.11481
-0.159749
-0.143887
-0.130927
-0.118126
-0.125077
-0.111036
-0.102008
-0.135407
-0.115469
-0.114534
-0.105599
-0.100575
-0.0995071
-0.0932738
-0.110445
-0.0988806
-0.103109
-0.0975165
-0.0895016
-0.0918249
-0.0909278
-0.0961722
-0.0918517
-0.0965464
-0.0973384
-0.0888756
-0.0919397
-0.0981379
-0.0916585
-0.0940392
-0.0987623
-0.105074
-0.0935307
-0.100872
-0.109504
-0.0955557
-0.10078
-0.107461
-0.114021
-0.148288
-0.136974
-0.120636
-0.149145
-0.144242
-0.128075
-0.117439
-0.126922
-0.117225
-0.110363
-0.140622
-0.127518
-0.115309
-0.109917
-0.109989
-0.108662
-0.105318
-0.123407
-0.113343
-0.108402
-0.106186
-0.100492
-0.104823
-0.103305
-0.110677
-0.103982
-0.1059
-0.104041
-0.0932653
-0.102226
-0.0985911
-0.102038
-0.0977632
-0.103052
-0.101377
-0.0925198
-0.0982536
-0.103505
-0.0972385
-0.0996219
-0.10218
-0.11018
-0.102636
-0.107534
-0.124611
-0.101632
-0.109563
-0.114297
-0.127835
-0.117244
-0.131124
-0.149094
-0.112372
-0.119549
-0.131959
-0.139636
-0.106927
-0.0983696
-0.103988
-0.0976673
-0.104572
-0.0939548
-0.100459
-0.107397
-0.105123
-0.106177
-0.10573
-0.105042
-0.100715
-0.0977087
-0.105847
-0.106369
-0.110144
-0.104503
-0.105974
-0.0988411
-0.111116
-0.106314
-0.112586
-0.119014
-0.106757
-0.106475
-0.115027
-0.120837
-0.102836
-0.120218
-0.124624
-0.105611
-0.104661
-0.121684
-0.126881
-0.110643
-0.127816
-0.144393
-0.106224
-0.116638
-0.129791
-0.141058
-0.135616
-0.151417
-0.173173
-0.121361
-0.135969
-0.145338
-0.159844
-0.161438
-0.180092
-0.199057
-0.140184
-0.146956
-0.164861
-0.179151
-0.108166
-0.116093
-0.114926
-0.100719
-0.100311
-0.111493
-0.101726
-0.106824
-0.114094
-0.113652
-0.0991453
-0.0957513
-0.0963391
-0.0949493
-0.112289
-0.115236
-0.123964
-0.0977608
-0.113225
-0.100412
-0.119243
-0.124332
-0.128091
-0.142206
-0.118102
-0.127355
-0.125692
-0.140281
-0.13511
-0.148188
-0.164941
-0.129331
-0.13551
-0.145024
-0.15446
-0.157148
-0.171612
-0.190457
-0.138031
-0.147537
-0.158305
-0.171212
-0.185164
-0.198231
-0.218946
-0.15163
-0.16836
-0.179074
-0.20274
-0.211347
-0.227489
-0.249644
-0.174708
-0.193013
-0.213481
-0.238792
-0.063275
-0.0469386
-0.0773514
-0.0354011
-0.0363375
-0.0394616
-0.0384963
-0.0869396
-0.0878783
-0.0980075
-0.0370367
-0.035369
-0.0389088
-0.0375995
-0.0755557
-0.0967837
-0.0901602
-0.0337572
-0.0275733
-0.0366655
-0.0342023
-0.0627492
-0.0876894
-0.0797024
-0.0255955
-0.0213021
-0.0333275
-0.0297066
-0.0517063
-0.0767952
-0.0674951
-0.0202828
-0.0181981
-0.0282522
-0.0241231
-0.0419385
-0.0642965
-0.057701
-0.0179121
-0.0183704
-0.0230858
-0.0218233
-0.0449898
-0.0573605
-0.0609923
-0.0189113
-0.0211901
-0.0219986
-0.0236239
-0.0551864
-0.0630624
-0.0681004
-0.02206
-0.0245603
-0.0243221
-0.0260879
-0.0876971
-0.057063
-0.0644383
-0.0434412
-0.0416033
-0.0446412
-0.0414586
-0.0935601
-0.0652214
-0.0614551
-0.0414435
-0.0394398
-0.0405017
-0.0379958
-0.0873827
-0.060685
-0.0641027
-0.0388317
-0.0374565
-0.0374225
-0.0361327
-0.0805651
-0.0662252
-0.0706716
-0.036757
-0.0331767
-0.035765
-0.0335314
-0.070733
-0.0709415
-0.0653659
-0.0316096
-0.0266011
-0.0321233
-0.0257592
-0.0601331
-0.0620325
-0.0548003
-0.025142
-0.0227789
-0.0239223
-0.0218964
-0.0618606
-0.0542143
-0.0546015
-0.0227008
-0.0237859
-0.0220215
-0.023111
-0.0672577
-0.0545416
-0.0524857
-0.024332
-0.0256638
-0.023397
-0.0232387
-0.0644823
-0.0432471
-0.0504434
-0.0408509
-0.0412302
-0.034852
-0.0325357
-0.0541882
-0.0483079
-0.0418983
-0.0398499
-0.0361163
-0.0318801
-0.0316452
-0.0579078
-0.0438459
-0.0598117
-0.0353692
-0.0338597
-0.0318852
-0.0315165
-0.0646841
-0.0644471
-0.0649412
-0.0333654
-0.0299914
-0.0306926
-0.0267992
-0.0590329
-0.0624782
-0.0528273
-0.0281383
-0.0228939
-0.0255486
-0.0232441
-0.0530892
-0.0493682
-0.040632
-0.0220658
-0.021905
-0.0230505
-0.0238861
-0.0503315
-0.0389617
-0.038065
-0.0222659
-0.0234762
-0.0244532
-0.0263526
-0.0473357
-0.0388349
-0.0432097
-0.0236831
-0.0232118
-0.0269202
-0.0278467
-0.0398213
-0.0288838
-0.026775
-0.0272945
-0.027513
-0.0242083
-0.0232342
-0.0382544
-0.0273591
-0.0322077
-0.0280269
-0.0303992
-0.0234462
-0.0260078
-0.0606535
-0.0350788
-0.0473904
-0.0311554
-0.0315002
-0.0271819
-0.0294747
-0.0670658
-0.0526694
-0.0549977
-0.0307277
-0.0268673
-0.0295467
-0.0275722
-0.0491313
-0.0507277
-0.0381117
-0.0256679
-0.0236745
-0.0268312
-0.0259808
-0.0371484
-0.0358963
-0.0340466
-0.0235966
-0.0248224
-0.0265146
-0.0291501
-0.0369442
-0.034705
-0.0382486
-0.0255592
-0.028144
-0.0306741
-0.0348062
-0.0440965
-0.0408971
-0.0501986
-0.0290099
-0.0309329
-0.0365076
-0.0406325
-0.0207947
-0.016765
-0.0252414
-0.0125418
-0.0128062
-0.0130341
-0.0131879
-0.0227171
-0.027356
-0.0281093
-0.0126479
-0.0113131
-0.0131069
-0.0119902
-0.0172088
-0.0274836
-0.0254494
-0.0107229
-0.00909499
-0.0115286
-0.0101927
-0.013658
-0.0246149
-0.0212226
-0.00871775
-0.0082054
-0.00973134
-0.00862491
-0.01196
-0.0199674
-0.0168295
-0.00817339
-0.00838483
-0.00844581
-0.00849413
-0.0128729
-0.0162004
-0.0159503
-0.00853192
-0.00907125
-0.00865598
-0.00933569
-0.0157223
-0.0163108
-0.01798
-0.00926931
-0.00995067
-0.00958593
-0.0103407
-0.0189044
-0.0185576
-0.0197975
-0.0102218
-0.0111738
-0.0105961
-0.011429
-0.0295087
-0.0230493
-0.0279334
-0.0149482
-0.0143836
-0.0164598
-0.0156563
-0.0301396
-0.0284055
-0.0279525
-0.0141366
-0.0129701
-0.0153227
-0.0139829
-0.028456
-0.0277678
-0.0273403
-0.0125616
-0.011172
-0.0134576
-0.0115108
-0.0205698
-0.026668
-0.0296087
-0.0199199
-0.0286194
-0.0189316
-0.0215871
-0.0163683
-0.0212028
-0.0245632
-0.0156881
-0.0228986
-0.0147743
-0.0173387
-0.0164502
-0.0158938
-0.0144544
-0.00888547
-0.00954742
-0.00895747
-0.00950488
-0.0177404
-0.0145343
-0.0150427
-0.00978942
-0.010488
-0.00971742
-0.0103781
-0.0189801
-0.0151098
-0.0150691
-0.0107151
-0.0114563
-0.0106204
-0.011508
-0.0274434
-0.0175395
-0.0180627
-0.0170224
-0.0154597
-0.0133535
-0.0117785
-0.0247714
-0.0176586
-0.017689
-0.0148401
-0.0129662
-0.0115079
-0.0104116
-0.0243683
-0.0185263
-0.0201523
-0.0123615
-0.0104913
-0.00997781
-0.00877454
-0.0150752
-0.0230301
-0.0218046
-0.0172142
-0.0213706
-0.0162332
-0.0155742
-0.0121744
-0.0168369
-0.0184657
-0.0135895
-0.017334
-0.0127956
-0.0128644
-0.0140248
-0.013233
-0.0132643
-0.0089144
-0.0094964
-0.00974813
-0.0110722
-0.0145119
-0.0135485
-0.014721
-0.00973959
-0.0104896
-0.0114995
-0.0127101
-0.0145582
-0.0151285
-0.0161974
-0.0107614
-0.0117293
-0.0130985
-0.0142466
-0.0135236
-0.00875298
-0.009588
-0.0095319
-0.0103572
-0.0080714
-0.00899365
-0.0164229
-0.0103739
-0.0126758
-0.0105294
-0.0100598
-0.00930903
-0.00942932
-0.0197197
-0.0134089
-0.0152069
-0.00972089
-0.00875574
-0.00940893
-0.0094052
-0.0161128
-0.0153538
-0.0134932
-0.00855369
-0.00862122
-0.00950725
-0.010124
-0.0129402
-0.0128382
-0.0124193
-0.00885829
-0.00999066
-0.010514
-0.0118093
-0.0133416
-0.0127936
-0.0143578
-0.0104594
-0.0119643
-0.0124663
-0.0142804
-0.0153739
-0.0151044
-0.0172305
-0.012459
-0.0138657
-0.0150038