/*--------------------------------*- C++ -*----------------------------------*\
  =========                 |
  \\      /  F ield         | OpenFOAM: The Open Source CFD Toolbox
   \\    /   O peration     | Website:  https://openfoam.org
    \\  /    A nd           | Version:  10
     \\/     M anipulation  |
\*---------------------------------------------------------------------------*/
FoamFile
{
    format      ascii;
    class       volVectorField;
    location    "4.7";
    object      U_0;
}
// * * * * * * * * * * * * * * * * * * * * * * * * * * * * * * * * * * * * * //

dimensions      [0 1 -1 0 0 0 0];

internalField   nonuniform List<vector> 
12920
(
(47.8211 -29.7604 76.2831)
(12.1891 -19.7153 2.43741)
(118.812 28.018 -8.17212)
(44.186 15.4139 -3.62353)
(110.143 26.2464 -10.4518)
(70.2066 17.409 -7.07237)
(107.14 14.6136 -6.52901)
(93.3399 7.0549 -4.19448)
(112.861 2.76662 -2.30745)
(107.787 -0.683318 -1.35951)
(118.453 -3.22304 -0.131292)
(117.01 -4.36012 0.180979)
(123.325 -4.92343 0.59737)
(123.778 -3.90789 0.398091)
(128.459 -3.04653 0.3249)
(129.908 -1.14951 -0.0823246)
(133.758 0.0338159 -0.159764)
(135.421 0.745828 -0.067339)
(135.611 0.275774 -0.0154065)
(128.621 -1.2867 0.118228)
(-55.5816 -19.3569 42.8846)
(-167.78 -38.053 -54.159)
(119.026 -9.25716 -14.4477)
(25.8823 9.67459 0.744398)
(107.948 19.8593 1.47572)
(63.7457 18.1634 0.417448)
(106.044 11.3978 0.387804)
(89.708 5.54756 0.021694)
(110.616 -0.0393583 0.70666)
(102.322 -2.54025 0.60847)
(110.072 -4.59208 1.36119)
(102.476 -5.42518 1.31697)
(103.647 -5.8901 1.4329)
(98.9616 -6.16492 1.05075)
(100.552 -5.91282 0.8945)
(99.9119 -5.67992 0.768208)
(102.225 -5.5174 0.780878)
(104.158 -4.50993 0.523892)
(105.831 -3.65549 0.35052)
(98.5954 -2.61124 0.0359437)
(19.858 -92.1924 -150.266)
(-46.1217 -34.3819 -29.1548)
(127.469 -10.7626 -13.8427)
(35.2453 1.37701 1.02595)
(111.357 1.82601 1.41926)
(61.2467 3.44511 1.1102)
(99.7866 -4.53932 0.969253)
(77.0405 -4.15231 0.200569)
(96.4462 -9.5707 0.518725)
(84.6385 -7.85993 0.196784)
(93.8377 -9.12602 0.673923)
(87.0271 -7.08975 0.501765)
(91.5818 -7.61962 0.682472)
(88.4824 -6.839 0.475208)
(91.6241 -7.32936 0.478007)
(91.2972 -6.68765 0.337151)
(93.7626 -6.79742 0.321578)
(95.2525 -5.62511 0.0960382)
(96.9796 -4.2929 -0.140734)
(90.2605 -2.64716 -0.372709)
(76.0338 66.1073 -5.3892)
(-75.2109 -15.5876 -18.3187)
(129.393 24.7832 0.844611)
(9.3158 14.8536 5.85042)
(110.275 5.2005 4.46759)
(47.8524 11.4731 2.92391)
(96.963 -1.88845 1.85322)
(61.7876 1.92719 0.8395)
(84.9732 -6.54529 0.41623)
(67.8036 -4.7791 -0.0128658)
(80.3495 -8.61863 0.0846558)
(74.8245 -7.92265 0.161685)
(82.6714 -9.95215 0.348189)
(82.0204 -9.76076 0.463132)
(86.7472 -10.6666 0.538768)
(87.4393 -9.9461 0.530647)
(90.5638 -10.0612 0.480658)
(91.7632 -8.58032 0.312173)
(93.6573 -6.29346 0.0345411)
(87.6465 -2.45243 -0.19788)
(123.069 19.5752 -119.02)
(53.5709 -32.9236 -44.6824)
(166.282 -32.8061 -4.60779)
(89.9792 -25.7493 7.46178)
(128.629 -30.5494 10.3332)
(82.6495 -9.44345 3.92227)
(109.305 -19.965 2.52036)
(84.3993 -2.53034 0.894692)
(95.0041 -13.2753 0.343482)
(79.4431 -5.90783 -0.191858)
(86.7259 -14.1208 -0.277344)
(81.2156 -11.6734 -0.185001)
(87.4237 -15.5627 0.0311306)
(86.5595 -14.0972 0.123166)
(90.425 -15.0436 0.328772)
(90.2069 -13.6689 0.422473)
(92.355 -12.7429 0.40607)
(92.179 -10.7466 0.281953)
(92.005 -8.64747 0.0253272)
(85.1251 -4.20516 -0.164189)
(111.452 28.9833 40.799)
(94.9184 23.6641 -4.49847)
(173.466 29.4159 10.9375)
(99.5856 -0.0782419 2.42148)
(140.606 -12.1118 4.81364)
(95.7902 -3.56495 -0.0877362)
(117.661 -8.74632 -0.211311)
(100.035 3.15671 -1.11521)
(103.867 -0.0508816 -0.0562498)
(91.7949 1.62401 0.0902566)
(91.9413 -6.66941 0.652493)
(86.4875 -9.84591 0.278621)
(89.8077 -14.4812 0.0121272)
(89.5463 -14.7254 -0.108753)
(91.6332 -15.7114 -0.146145)
(91.7307 -14.875 -0.0743958)
(93.074 -13.3679 0.141448)
(91.8871 -10.0892 0.2093)
(89.9853 -7.67703 0.0313043)
(81.3632 -3.3787 -0.201881)
(221.638 226.507 -81.9129)
(29.7008 20.8434 21.8814)
(170.667 -46.2438 1.77282)
(91.1908 -24.0928 0.988934)
(142.536 -18.3758 4.96572)
(88.8974 3.58236 0.371108)
(99.9096 -17.0653 0.235492)
(76.8781 14.5388 -0.100279)
(81.9325 -4.43019 -0.29857)
(73.5938 3.71793 0.512808)
(83.7295 -12.2123 0.376638)
(83.6401 -11.8015 0.325086)
(90.1457 -18.3611 0.1779)
(90.3005 -15.7713 -0.00850979)
(93.5203 -16.4797 -0.0816109)
(93.2223 -15.1505 -0.200151)
(94.9876 -13.0884 -0.0562761)
(93.4393 -9.30172 0.0994144)
(90.9698 -6.91711 0.214833)
(80.8709 -3.16743 -0.0382283)
(177.842 -154.215 -8.85039)
(167.216 -34.0787 -8.51113)
(195.491 -18.2077 3.38611)
(126.658 -2.15234 -0.334283)
(142.046 -12.0172 4.16744)
(90.1119 26.2459 0.811698)
(98.9882 14.9178 -0.545648)
(66.9768 2.59486 -0.478958)
(78.8499 17.533 -0.420508)
(72.2645 -6.88104 -0.872869)
(86.9062 -9.03388 -0.638648)
(91.4654 -20.805 0.172658)
(97.6499 -20.9552 0.339306)
(97.7104 -21.7798 0.462669)
(98.1336 -17.8684 0.244345)
(99.1902 -15.6809 0.177743)
(100.015 -13.0059 0.329297)
(98.4529 -7.61591 0.294791)
(95.9012 -5.26942 0.282779)
(84.7539 -1.82147 0.0271)
(215.398 33.924 -40.5272)
(115.55 38.0273 2.71381)
(157.957 16.4356 10.0833)
(75.0884 8.84056 4.28562)
(112.102 11.2683 6.04734)
(77.2066 19.6319 -0.605468)
(95.6594 28.6095 0.362567)
(75.7505 6.87369 -0.0910652)
(84.045 10.2151 0.156763)
(92.3553 -1.24946 -0.663492)
(102.407 -13.592 -0.167194)
(102.396 -21.0985 0.187928)
(102.499 -21.7637 0.212432)
(102.153 -21.8921 0.24109)
(104.266 -22.3159 0.474535)
(104.919 -17.664 0.128294)
(106.356 -14.1426 0.120023)
(106.726 -8.18 0.363317)
(104.953 -4.33746 0.515074)
(91.8625 -0.966841 0.314305)
(87.1901 -91.7411 -103.558)
(-139.956 4.8836 2.51096)
(113.965 -41.3439 -6.73102)
(24.1059 -6.4811 1.83465)
(87.9014 -11.4399 6.52169)
(29.5661 12.2133 0.298331)
(72.8085 22.4785 0.293554)
(95.4759 6.99549 0.490877)
(97.6508 -7.19371 0.452402)
(103.745 -17.308 0.446723)
(108.162 -19.4244 0.296204)
(103.335 -18.6978 0.177999)
(100.339 -22.3616 0.0386498)
(101.478 -25.3682 0.132285)
(101.984 -24.4906 0.0910363)
(101.533 -19.3473 -0.314763)
(104.536 -14.9879 -0.891614)
(108.351 -9.47253 -0.633346)
(110.906 -2.95441 -0.163219)
(100.854 0.734597 -0.0755498)
(75.276 -175.48 49.0099)
(105.453 -8.37878 -26.076)
(166.215 -8.31012 -12.9671)
(135.106 4.7866 -10.0105)
(165.942 7.63809 -4.77279)
(123.417 5.18942 -2.56156)
(113.289 -1.58112 0.485851)
(106.249 -8.31274 -0.825183)
(103.67 -14.1502 -0.504126)
(103.855 -24.4197 -0.0451001)
(102.61 -21.9398 -0.0597713)
(99.7538 -16.6946 -0.104566)
(96.3452 -21.8545 0.211102)
(92.6218 -25.9048 0.0561208)
(92.3788 -25.6226 -0.081163)
(93.8023 -20.4112 -0.108866)
(95.7519 -14.7008 -0.438403)
(99.3235 -12.074 -1.2933)
(104.854 -5.54891 -1.14655)
(99.0886 0.703678 -0.72369)
(-37.3379 -164.9 -27.0423)
(-120.238 -6.03145 -27.1333)
(102.595 3.6903 -33.5641)
(52.4841 18.9991 -9.08146)
(102.13 28.369 -2.14991)
(71.9528 29.3163 -1.84912)
(98.4926 22.1725 0.0509367)
(104.738 9.58429 -0.420742)
(105.693 -4.94737 -0.255042)
(98.1718 -20.5738 0.158138)
(89.0796 -15.8091 0.0188971)
(88.2795 -15.2384 0.0173104)
(90.872 -21.3521 -0.128455)
(94.032 -26.641 -0.142301)
(95.1138 -26.1368 -0.251053)
(94.2114 -20.9114 0.2201)
(94.0304 -15.007 0.22876)
(94.8568 -11.5111 -0.547966)
(96.4453 -5.76869 -1.26521)
(91.9802 1.72435 -1.15381)
(141.58 -34.2189 49.5521)
(27.0268 32.6815 -16.2071)
(139.785 51.0158 -19.067)
(98.907 45.1912 -6.01297)
(138.617 42.7236 -1.71789)
(111.364 9.6931 -0.305989)
(116.476 5.58705 -0.0734312)
(102.215 4.98847 -0.650413)
(108.286 -2.31678 -0.313175)
(103.055 -9.56346 0.441444)
(98.6998 -13.1412 0.219156)
(98.6296 -17.3109 -0.055026)
(103.088 -23.1172 -0.261265)
(102.648 -25.7905 -0.3104)
(100.75 -23.1353 0.346444)
(97.9915 -21.5842 0.517426)
(95.7785 -14.4131 0.34476)
(93.8053 -10.6993 0.0523729)
(91.7631 -4.34236 -0.738668)
(85.9735 2.94494 -0.805869)
(-135.056 227.822 -37.1983)
(-145.998 61.2631 -34.7678)
(92.3032 76.6261 -7.71238)
(28.1442 44.3848 -0.0401588)
(112.142 33.7813 1.30665)
(82.9471 14.2561 1.16209)
(107.679 19.2515 0.247858)
(103.963 -0.618638 -0.387969)
(112.255 -1.74095 -1.10146)
(110.024 -10.5657 -1.3201)
(114.372 -12.3453 -1.28368)
(114.208 -18.7058 -0.767637)
(113.969 -19.4974 -0.0513354)
(109.362 -23.0824 0.464359)
(106.051 -20.6674 0.306041)
(100.498 -18.5745 0.180126)
(96.8799 -11.2851 0.000756768)
(94.4686 -7.74375 0.0864368)
(90.215 -2.30399 -0.144102)
(83.2631 3.40414 -0.247457)
(184.959 63.0544 -42.9889)
(-69.4497 14.1058 11.9366)
(126.498 17.4869 5.78166)
(78.3978 16.6209 2.04703)
(136.5 9.60368 1.06792)
(113.836 2.74255 0.403001)
(131.943 3.30151 -1.18322)
(125.716 -1.10822 -2.25897)
(129.362 -3.73576 -2.53627)
(126.214 -7.54746 -2.85703)
(128.11 -12.3141 -2.14056)
(125.719 -18.7095 -0.758502)
(122.382 -19.1561 0.610611)
(111.419 -21.5887 0.97064)
(102.755 -16.4556 0.445864)
(95.4906 -14.014 -0.134095)
(92.3285 -7.94859 -0.294737)
(91.7422 -5.34441 -0.242483)
(88.9025 -1.02223 -0.0886728)
(82.255 2.59228 0.024649)
(-31.5458 -9.70123 13.1028)
(-87.9969 46.8956 -11.0704)
(102.257 23.9446 -8.73926)
(49.7327 21.2058 2.39755)
(119.886 19.0761 0.326165)
(110.397 13.7975 0.540059)
(134.488 17.517 -0.201485)
(131.154 10.8126 -1.44158)
(137.551 10.5488 -1.55789)
(132.477 3.966 -2.02031)
(133.855 -2.53952 -0.288347)
(127.059 -11.6891 0.850713)
(123.317 -9.29725 1.71006)
(108.445 -9.75926 1.65433)
(100.141 -7.39221 0.7967)
(92.8251 -7.87546 0.265944)
(90.386 -5.54689 -0.0213591)
(89.7745 -4.21874 -0.188983)
(87.3581 -1.34014 -0.112107)
(81.2242 1.21636 0.0198954)
(93.2715 -76.5716 116.961)
(-51.0724 -56.5006 23.1659)
(110.196 -58.8048 2.79584)
(79.1848 -41.1202 2.23341)
(132.817 -32.0793 1.84951)
(124.348 -20.8747 2.19386)
(146.64 -5.33194 3.08874)
(143.07 3.17771 2.71379)
(148.988 8.87015 2.00409)
(140.739 5.14499 1.90797)
(134.035 -5.95824 2.68075)
(112.075 -14.9423 2.05547)
(105.135 -9.93907 1.19721)
(95.1266 -8.44582 0.561771)
(92.9618 -5.72807 0.365412)
(88.6414 -6.22431 0.35321)
(86.9598 -4.36247 0.360319)
(85.8776 -2.504 0.132101)
(83.6224 -0.850219 0.0235429)
(76.6421 -0.0936035 -0.109357)
(152.483 -89.3918 -7.95438)
(52.2215 -42.1045 -20.6338)
(150.136 -10.7405 -24.8139)
(119.962 -19.9903 -12.8152)
(148.491 -16.6282 -6.65916)
(131.12 -21.064 -4.40881)
(150.636 -14.6952 -2.44032)
(152.325 -10.7294 -1.06736)
(167.421 2.89982 0.127266)
(167.217 6.63094 1.74028)
(161.107 9.81375 3.18195)
(130.923 3.11285 2.86216)
(114.686 0.0403573 0.969165)
(101.932 -2.37618 -0.186981)
(99.2726 -2.90194 -0.263881)
(95.7917 -4.15735 0.230107)
(92.6008 -4.19678 1.00575)
(87.8268 -2.79419 0.779738)
(82.4751 -1.19607 0.527595)
(74.1873 0.492083 0.114798)
(84.8468 -125.766 -66.5858)
(-82.3494 -70.5946 -25.6529)
(125.241 -2.97664 -18.4495)
(75.7787 -23.2234 -6.65131)
(131.84 -8.74561 -0.943708)
(106.118 -19.8129 -0.572074)
(124.544 -11.7421 0.459218)
(110.406 -12.1268 -0.986362)
(122.374 -2.22487 0.085778)
(115.773 2.45462 0.531235)
(118.573 10.3865 1.62847)
(111.124 11.2823 0.715134)
(110.94 11.2495 -0.343071)
(108.542 6.42723 -1.81074)
(113.626 1.84473 -2.01632)
(116.692 -1.56451 -0.691614)
(116.884 -1.35912 0.683874)
(112.182 2.04511 2.29501)
(103.19 1.54334 3.17919)
(86.103 -0.380566 1.01883)
(85.0297 63.449 -29.0957)
(38.7301 18.7654 1.32473)
(173.548 5.84557 2.73261)
(127.117 -12.7544 -9.31924)
(166.491 -15.6934 -2.71427)
(123.723 -20.4397 -2.59195)
(124.789 -14.6232 1.56376)
(97.673 -7.81119 -1.79971)
(109.055 -0.473741 -2.22438)
(106.524 2.86911 -2.19396)
(118.165 4.8193 -1.47296)
(124.371 6.1894 -1.72745)
(139.667 7.08507 -2.82266)
(154.588 5.636 -3.52193)
(168.07 0.441581 -2.34117)
(171.103 -3.79048 -1.41768)
(171.806 -4.63828 -1.07063)
(172.342 -4.3324 -0.793014)
(172.192 -0.805307 1.34459)
(157.463 5.11545 2.31654)
(147.271 132.008 28.8631)
(82.0059 41.9819 -13.1408)
(123.641 44.6918 -5.1478)
(75.0018 9.09814 -7.22941)
(117.609 10.157 -14.1581)
(74.8789 5.08104 -9.80531)
(102.771 6.69395 -9.24185)
(81.4013 0.439607 -5.56662)
(100.365 -2.70641 -2.32771)
(92.4599 -4.96319 -1.28563)
(104.849 -6.38221 0.777922)
(103.503 -6.42569 0.971476)
(111.36 -6.34415 1.70808)
(112.305 -4.95546 1.23899)
(117.766 -4.2542 1.24682)
(119.111 -3.10035 0.573913)
(122.451 -2.65077 0.482109)
(124.318 -1.91535 0.427983)
(124.984 -2.23832 0.41921)
(118.647 -2.49414 0.500346)
(281.49 148.981 37.7219)
(-134.925 -15.1041 -25.8973)
(104.892 -11.8146 -24.6128)
(2.75998 1.61468 4.09245)
(99.7295 9.53334 1.24011)
(43.7842 7.88047 0.730391)
(92.6925 3.17874 0.509829)
(68.0419 -0.805515 -0.142787)
(92.1235 -4.36984 1.38166)
(79.5583 -4.77501 0.80133)
(90.3394 -5.40799 2.10278)
(83.3727 -5.02699 1.53441)
(88.3996 -4.78261 1.67351)
(85.5775 -4.67169 1.00397)
(89.0076 -4.29037 0.850356)
(88.8847 -4.08612 0.669324)
(91.6001 -3.85652 0.707793)
(93.0886 -3.14324 0.334086)
(94.0623 -2.48926 0.092214)
(86.1654 -1.58808 -0.395782)
(260.817 -141.064 51.3212)
(26.4436 -19.3844 -34.8799)
(114.924 -8.10476 -21.8715)
(15.6774 -2.5161 -1.78317)
(100.327 -2.68694 -1.08734)
(42.0292 0.201474 1.61814)
(87.9952 -7.31168 1.39258)
(58.8976 -4.65767 0.57571)
(82.1493 -9.75936 1.12459)
(66.9155 -6.40759 0.209863)
(78.9558 -7.78486 1.05655)
(71.7389 -5.31543 0.528109)
(78.5186 -6.06815 0.892245)
(75.8689 -5.09501 0.530739)
(80.0414 -5.55205 0.625149)
(79.7475 -4.8797 0.392877)
(82.4672 -4.80561 0.376295)
(83.4932 -3.85159 0.0194885)
(84.3608 -2.80757 -0.343831)
(76.5318 -1.5715 -0.731619)
(134.263 124.878 -83.7374)
(-89.447 50.7087 -12.6077)
(109.526 42.6369 -11.8034)
(-17.2427 14.0754 5.6199)
(100.759 4.67942 1.75477)
(32.3902 7.57655 4.13503)
(87.5993 -6.09167 2.11328)
(49.9636 -0.802819 1.02127)
(75.4558 -8.39761 0.529002)
(57.0165 -4.6565 -0.145506)
(70.6927 -7.87926 0.198826)
(64.2958 -6.06919 0.252909)
(72.4399 -7.57644 0.573648)
(71.1525 -6.89398 0.664976)
(75.8862 -7.40169 0.779245)
(76.1573 -6.66891 0.690786)
(78.9931 -6.43076 0.595743)
(79.9529 -5.14665 0.325903)
(80.9916 -3.40954 -0.127958)
(73.7108 -1.29705 -0.51278)
(39.2907 46.0798 -27.4114)
(-108.713 -16.2869 -13.1441)
(96.9614 -3.81132 1.98268)
(11.0219 -7.23953 6.36602)
(108.095 -19.3853 8.52963)
(57.189 0.736283 3.53628)
(93.9427 -15.3402 3.28883)
(65.3144 1.6092 0.937786)
(80.012 -12.2658 0.638575)
(63.4537 -3.79996 -0.094224)
(73.2441 -12.508 -0.127175)
(66.8678 -8.25699 -0.11455)
(73.9811 -11.7507 0.26125)
(72.3382 -9.0822 0.304266)
(76.6751 -9.9316 0.584126)
(76.346 -8.14981 0.620655)
(78.638 -7.57375 0.512176)
(78.7452 -6.03276 0.242603)
(78.8974 -4.45276 -0.126709)
(71.5693 -1.83061 -0.439409)
(134.079 -78.3442 -108.262)
(-61.9192 -42.2466 -47.8306)
(139.854 -2.78356 -2.52773)
(41.7278 -5.23443 0.281027)
(115.391 -7.28736 4.87616)
(62.4916 6.5215 -1.39173)
(95.5718 -6.134 0.178731)
(72.7494 5.89838 -1.41081)
(81.2148 -3.41134 0.763226)
(69.9855 -0.951898 0.354735)
(74.4999 -9.16354 1.03283)
(71.2439 -8.72302 0.467446)
(75.2187 -12.0516 0.131181)
(74.5435 -10.6694 -0.0159102)
(76.6477 -10.9394 0.0470681)
(76.4059 -9.13973 0.106865)
(78.0303 -7.87291 0.260201)
(77.7277 -5.61396 0.220623)
(76.9258 -4.12466 -0.0700894)
(68.9273 -1.58223 -0.438603)
(155.756 -86.2964 13.0419)
(-13.4068 -19.9319 10.0258)
(135.773 -39.7214 -2.91)
(29.8708 -6.09441 -0.773379)
(117.49 -8.03543 5.02482)
(59.6831 9.31013 -1.35864)
(81.9665 -19.0274 0.479146)
(58.2762 14.1514 -0.180229)
(68.5604 -8.88844 -0.338927)
(61.7555 1.60936 0.811382)
(72.2615 -13.0615 0.429528)
(70.9704 -9.34541 0.45264)
(77.0727 -14.7767 0.180513)
(76.4864 -11.0029 -0.0324216)
(79.4603 -11.9263 0.0134577)
(78.4829 -9.85972 -0.102538)
(79.8156 -8.12532 0.146692)
(78.7444 -5.25593 0.225385)
(77.3516 -3.81302 0.265692)
(68.566 -1.51449 -0.216832)
(186.159 -129.71 92.9363)
(82.1596 -55.7591 -5.53899)
(139.853 -40.7758 2.81756)
(55.9685 -13.1607 -1.74155)
(109.36 -14.1589 7.01854)
(59.966 30.1473 0.705934)
(78.1536 9.38141 3.09752)
(53.8572 5.23566 -0.276521)
(67.3243 7.21999 -0.0168729)
(64.0326 -9.10228 -1.06364)
(76.8778 -11.3135 -0.755841)
(78.7018 -17.5142 0.156814)
(84.7058 -16.6464 0.345352)
(84.5441 -16.7881 0.449976)
(84.9597 -12.7903 0.0829769)
(85.6433 -10.0016 0.25224)
(85.3519 -7.83747 0.690281)
(83.7378 -3.95656 0.627807)
(81.3312 -2.47779 0.51357)
(71.2458 -0.485711 -0.0833246)
(134.226 -43.3581 -17.1689)
(46.9062 -12.8437 1.36157)
(130.613 -6.6536 12.9351)
(30.1238 3.72398 2.12066)
(92.8982 7.56614 5.46886)
(66.6992 19.495 -1.43053)
(80.2109 26.2598 -0.464548)
(66.4409 3.51076 0.822123)
(77.1063 1.66277 2.02931)
(83.099 -10.1889 -0.836331)
(88.3369 -15.4159 -0.0473056)
(88.6201 -18.2961 0.0197972)
(90.1396 -17.7023 0.333264)
(90.7398 -17.0376 0.369509)
(93.5253 -16.5974 0.335895)
(92.8214 -10.721 -0.0269751)
(92.5785 -6.56578 0.235122)
(90.9064 -2.54522 0.700254)
(88.2258 -0.542 0.850016)
(76.5736 0.771289 0.26168)
(74.7498 -62.8621 -66.3398)
(-94.3798 -5.02237 -7.44307)
(91.7888 -35.4328 -18.0527)
(-15.4866 -0.115069 2.22957)
(76.3341 -10.6182 5.65099)
(34.0086 10.9361 1.76947)
(69.7066 18.5827 1.93848)
(86.2824 2.86116 3.63327)
(89.0647 -6.8992 2.40898)
(93.5131 -13.5288 1.9083)
(94.6231 -15.4576 1.34012)
(92.8307 -17.3232 0.797989)
(92.62 -19.2916 0.375526)
(94.3984 -19.528 0.433923)
(94.83 -17.3774 -0.248747)
(93.2774 -10.8823 -0.967974)
(94.1767 -6.157 -1.28658)
(94.7018 -1.19136 -0.608336)
(93.642 2.29071 -0.0502981)
(82.4584 3.25922 -0.283549)
(210.596 -180.271 -32.2408)
(107.656 -9.34347 -24.3799)
(152.279 0.889664 -11.5792)
(96.7133 10.7741 -11.2865)
(120.362 7.81138 -4.15447)
(97.9575 4.76682 -2.84704)
(97.1329 -0.654108 0.912984)
(93.9165 -7.7113 1.56368)
(90.6316 -12.4684 0.0647858)
(90.1517 -17.0979 0.498247)
(89.4605 -15.5043 -0.251158)
(87.9172 -15.6904 -0.209406)
(85.9069 -18.9601 0.491162)
(85.0046 -20.135 0.0518253)
(84.9266 -17.8262 -0.611532)
(85.4419 -12.3656 -1.06935)
(88.0656 -7.37515 -1.46561)
(90.5676 -3.43977 -1.81677)
(91.0968 2.29013 -1.23639)
(82.0877 4.3233 -0.985745)
(194.841 -100.609 -3.34282)
(24.3298 -22.3222 -46.8242)
(91.6101 -12.6965 -43.8321)
(24.8989 7.99862 -11.7776)
(76.3363 11.8861 -3.8752)
(50.205 10.4255 -4.21074)
(83.2731 -1.19556 0.776554)
(91.1198 -3.49944 0.927692)
(86.9428 -9.18904 -0.214905)
(81.3643 -14.2594 0.449124)
(78.5374 -13.2007 0.0394342)
(78.9212 -14.8778 -0.0640331)
(80.0682 -18.4566 -0.354371)
(81.2959 -20.3852 -0.410142)
(82.0978 -18.1242 -0.353733)
(82.1551 -13.292 -0.238462)
(83.134 -8.01787 -0.42655)
(84.9764 -4.60164 -1.28276)
(85.2315 1.50513 -1.6615)
(77.7297 4.45266 -1.48694)
(134.801 60.676 47.9015)
(87.6803 8.16892 -39.36)
(141.469 27.3658 -40.1891)
(80.9784 25.7103 -12.0822)
(123.427 20.5451 -4.57909)
(93.0988 -10.5427 -0.855661)
(98.4339 -8.64625 -0.35927)
(79.6729 -4.01347 -0.526484)
(84.5974 -8.16894 -0.526404)
(80.1506 -10.4244 0.913145)
(82.8908 -13.0389 0.14966)
(83.1106 -16.0886 -0.254528)
(85.4499 -19.3611 -0.392858)
(84.5083 -19.9192 0.163918)
(82.8812 -16.0879 0.541523)
(82.1953 -13.7906 0.630382)
(81.4757 -7.39653 0.148072)
(81.2805 -4.68613 -0.38736)
(80.1212 0.915746 -1.05912)
(73.166 3.9139 -1.07478)
(-48.9791 237.484 90.91)
(-107.995 41.9848 -73.6844)
(81.8994 59.3342 -25.2511)
(16.3959 24.9223 -0.557639)
(101.504 12.7972 -0.923427)
(68.5989 -2.12612 0.762276)
(91.9728 7.61863 -0.0535296)
(84.8441 -9.69147 -0.679349)
(91.6751 -6.52416 -1.37204)
(87.7901 -13.9376 -1.38909)
(90.7571 -13.6246 -1.02835)
(89.168 -18.2102 -0.239151)
(89.5608 -17.4037 0.410104)
(87.0706 -18.3428 1.00505)
(85.9123 -14.7253 0.632632)
(82.4725 -11.0479 0.40181)
(80.7127 -5.22398 0.0214082)
(79.8447 -2.86689 -0.0528421)
(77.7655 1.31928 -0.313179)
(71.2017 3.53944 -0.431638)
(119.574 67.4734 -96.684)
(-99.1905 4.41197 -1.2481)
(129.56 11.9927 -19.2321)
(79.4623 7.23084 -4.62447)
(132.17 -1.42361 -2.76074)
(106.12 -5.45588 -1.39743)
(120.005 -2.24189 -2.02523)
(107.111 -5.50515 -3.19127)
(106.686 -6.77152 -2.98712)
(99.2111 -11.5162 -3.23293)
(98.4877 -14.7223 -1.87489)
(94.4606 -18.6144 -0.233368)
(93.4518 -17.4416 0.969418)
(88.117 -17.6215 1.31005)
(83.9811 -11.7047 0.632772)
(79.353 -8.86166 -0.108178)
(77.923 -4.04548 -0.286487)
(77.7444 -2.19509 -0.287739)
(76.1304 1.14148 -0.113585)
(70.2288 2.58571 -0.0586614)
(124.517 -2.87677 157.01)
(29.9643 71.3078 -32.427)
(108.832 44.2444 -10.9794)
(64.556 29.4548 -1.85065)
(118.064 18.1585 -1.81394)
(100.147 8.12382 -0.869979)
(117.784 10.1449 -0.700997)
(106.909 0.923427 -2.50117)
(110.25 0.134314 -1.79128)
(101.494 -8.14159 -2.10638)
(101.871 -11.0735 0.686452)
(96.9299 -14.8124 1.63943)
(96.1964 -11.2876 2.3161)
(88.2377 -9.70539 2.14224)
(84.1334 -5.81666 1.13985)
(79.0477 -5.30406 0.339424)
(77.6996 -3.07078 -0.0305359)
(77.2141 -2.02181 -0.272534)
(75.2619 0.153737 -0.138903)
(69.3734 1.54881 -0.0558616)
(20.947 -35.2823 98.6253)
(-53.5211 -6.15781 -16.6854)
(110.147 -17.9367 -2.98315)
(75.3367 -16.5772 -1.18781)
(124.503 -14.808 2.27681)
(108.434 -10.2816 2.73151)
(127.848 -0.0759791 4.16381)
(118.193 0.933477 2.72103)
(121.806 2.24734 2.34416)
(110.388 -3.77328 1.90133)
(106.032 -9.94223 3.68911)
(92.4 -13.9653 2.83301)
(88.8866 -8.29885 1.85232)
(80.6162 -6.02192 0.952786)
(79.2365 -2.97162 0.51028)
(75.7859 -2.95361 0.423104)
(75.1005 -1.68002 0.409799)
(74.5892 -0.758562 0.102622)
(72.7528 0.334718 -0.0245983)
(66.1499 0.602597 -0.306386)
(254.023 105.735 68.7683)
(182.345 56.4362 -10.2008)
(207.162 32.9582 -21.07)
(160.433 9.54899 -11.526)
(171.252 5.45341 -2.54744)
(139.069 -2.46769 -1.34418)
(142.679 4.29955 0.569833)
(131.244 4.39618 -0.510241)
(135.958 9.45195 0.235185)
(128.992 6.67245 1.45016)
(124.213 6.08713 6.20702)
(104.09 0.0444079 5.11278)
(95.4173 -0.372822 2.27035)
(85.3042 -1.53495 0.198519)
(83.2986 -1.00373 -0.202269)
(79.7771 -1.44411 0.406765)
(78.6828 -1.16454 1.21789)
(76.7465 -0.621056 0.82953)
(72.9299 0.0203034 0.399452)
(65.243 0.775959 -0.188675)
(168.502 52.3232 -0.299598)
(-8.18752 34.7486 -10.4219)
(132.157 30.3629 -26.4691)
(60.8898 -8.48784 -8.45597)
(118.245 9.04415 0.84045)
(86.358 -3.26687 -0.476289)
(112.212 6.57397 0.32692)
(96.9307 2.74094 -1.80407)
(108.562 8.81543 0.540088)
(97.4906 7.89677 1.25967)
(100.427 11.1704 2.61925)
(92.872 9.75191 0.457813)
(93.6595 7.8298 -1.17129)
(89.7567 4.3938 -2.66741)
(90.5519 2.30136 -2.36825)
(89.1773 1.16253 -0.875443)
(90.0838 2.21162 1.5052)
(88.7965 4.40384 3.283)
(86.3737 4.00819 3.29168)
(75.1712 1.39616 0.330006)
(135.932 -7.08736 -12.6777)
(-15.7881 19.9521 -67.1382)
(161.391 8.8294 -34.1975)
(50.2409 -7.19019 -13.7223)
(117.66 -1.9297 1.9472)
(59.2115 -5.83469 -3.36932)
(95.8544 1.54714 1.95614)
(76.1677 4.66614 -2.1582)
(95.4749 9.5277 -0.70288)
(90.8655 10.1417 -0.211903)
(103.518 10.7004 1.38973)
(106.4 8.05511 -0.214004)
(116.861 6.17938 -1.42388)
(118.626 2.15693 -3.20143)
(122.603 -0.906311 -3.11271)
(122.588 -1.74297 -2.45898)
(123.522 -1.33419 -1.6853)
(124.47 2.85948 -0.794902)
(131.911 8.36879 1.33391)
(131.245 8.28904 1.78117)
(145.784 51.3143 68.2291)
(29.2926 1.81845 -9.8022)
(125.298 -2.83433 -5.3372)
(86.4872 -13.9607 -6.36418)
(127.002 -1.24966 -12.9496)
(81.1205 -0.169268 -9.82373)
(100.952 4.05157 -9.32514)
(71.5912 -1.68707 -5.37192)
(91.0535 -4.21183 -1.65308)
(80.4214 -5.57498 -0.7089)
(94.2051 -6.22672 1.46264)
(92.1897 -5.49545 1.44148)
(101.221 -4.96066 2.27376)
(102.294 -3.57189 1.345)
(108.162 -2.85734 1.42881)
(109.449 -2.14289 0.784645)
(112.605 -1.92652 0.72944)
(114.291 -1.46817 0.594504)
(114.995 -1.8662 0.528437)
(108.882 -1.84386 0.56592)
(59.8574 -15.5182 -257.384)
(-60.8784 -32.7908 -18.5214)
(83.4616 -20.6703 -23.2482)
(-9.54097 -3.59233 3.20437)
(91.2444 4.63078 -1.50711)
(27.6428 2.91527 0.606918)
(82.8394 -0.243922 0.11135)
(51.2727 -2.97883 -0.163118)
(78.706 -5.45181 1.10145)
(62.1979 -4.61149 0.287133)
(75.7163 -4.67744 1.53253)
(68.4273 -3.78202 0.866928)
(75.7853 -3.38268 1.03417)
(73.3243 -3.25654 0.493641)
(77.7339 -2.8999 0.465591)
(77.5727 -2.7982 0.327906)
(80.4658 -2.55079 0.3982)
(81.5792 -2.04418 0.0357177)
(82.2296 -1.56975 -0.228229)
(74.1395 -0.82701 -0.821846)
(283.393 116.548 -6.07281)
(35.5722 -4.32843 -7.48958)
(107.473 -7.38371 -17.9382)
(13.947 -4.07987 -2.88582)
(91.519 -4.01014 -2.4187)
(28.5256 -0.0255058 2.01652)
(78.708 -7.47282 0.973741)
(45.2198 -3.25047 0.6611)
(71.5568 -8.50102 0.90626)
(53.667 -4.23818 0.00551959)
(67.8098 -6.20523 0.795776)
(59.5882 -3.62347 0.245975)
(67.7001 -4.7329 0.675179)
(64.7079 -3.65426 0.355299)
(69.4244 -4.17209 0.492107)
(68.8164 -3.48553 0.274801)
(71.5826 -3.36945 0.282687)
(72.1824 -2.60772 -0.114535)
(72.6528 -1.84387 -0.467391)
(64.4364 -0.897642 -0.982891)
(55.1308 143.504 217.471)
(-70.0314 33.291 -40.6948)
(92.4482 33.665 -24.1272)
(-14.7515 10.6721 3.23684)
(88.498 3.65228 -0.831157)
(18.5464 5.43706 4.13216)
(77.9522 -7.60874 1.43641)
(38.3703 -0.876412 0.804176)
(66.604 -8.2155 0.323719)
(46.9708 -3.31954 -0.102056)
(62.0007 -6.63888 0.144945)
(54.4593 -4.3018 0.182529)
(62.9957 -5.79083 0.482499)
(60.8379 -4.84768 0.525973)
(65.6097 -5.27201 0.64067)
(65.3758 -4.53632 0.549835)
(68.0795 -4.25061 0.484398)
(68.7729 -3.20392 0.192063)
(69.4106 -2.00903 -0.245047)
(61.6999 -0.687806 -0.750519)
(89.5823 47.7671 -36.6874)
(-122.838 -18.5107 -36.8191)
(91.2928 3.99217 -19.606)
(-3.47507 1.38306 6.29219)
(96.5414 -11.219 5.20092)
(36.3896 5.81324 3.33493)
(81.0134 -14.1962 2.72709)
(49.0663 3.47466 0.690485)
(68.4372 -12.0277 0.557809)
(51.1167 -1.95495 -0.0671023)
(63.045 -10.8891 -0.0232894)
(55.6739 -5.35921 -0.0649181)
(63.4806 -8.96181 0.265348)
(60.9641 -5.75196 0.248351)
(65.4855 -6.85388 0.491234)
(64.7745 -5.03847 0.48108)
(67.1328 -4.82818 0.396183)
(67.2742 -3.5563 0.127674)
(67.4707 -2.53164 -0.216435)
(59.9979 -0.851508 -0.663617)
(245.195 -178.457 200.648)
(-36.9731 -44.6698 -15.9696)
(117.153 3.84212 -10.064)
(12.8097 -0.34576 3.61036)
(100.163 -2.64242 4.03437)
(39.2208 10.3787 -0.707634)
(81.3362 -7.69376 0.298959)
(53.8291 6.09576 -1.39186)
(66.7034 -6.14206 0.729952)
(55.2754 -1.29278 0.190438)
(62.5146 -9.05188 0.811968)
(59.1162 -6.5308 0.377303)
(63.7485 -9.48534 0.156544)
(62.6459 -7.27203 0.0299255)
(64.9027 -7.61728 0.0945767)
(64.5793 -5.61152 0.0923417)
(66.0833 -5.01934 0.1622)
(66.1871 -3.37276 0.0960912)
(65.7853 -2.48647 -0.170786)
(58.1967 -0.78343 -0.60787)
(163.465 -74.0841 189.482)
(-36.3058 -20.976 21.7874)
(127.517 -25.8483 5.91263)
(9.8785 0.976877 3.07484)
(105.875 -4.03221 4.48556)
(41.1883 10.6148 -0.706665)
(69.5135 -21.0074 0.826344)
(44.6832 14.2273 -0.230429)
(58.776 -11.0953 -0.166176)
(51.6725 1.81758 0.78146)
(62.3937 -12.3478 0.285381)
(59.8626 -6.36931 0.522261)
(65.8901 -11.7545 0.226443)
(64.6559 -7.23734 0.129402)
(67.6112 -8.47759 0.129681)
(66.3422 -6.17752 -0.0186936)
(67.4192 -5.2213 0.132202)
(66.7788 -3.14199 0.120699)
(65.8599 -2.35908 0.117918)
(57.9117 -0.752624 -0.438304)
(181.551 -132.722 103.347)
(11.0298 -42.0596 10.893)
(113.901 -39.005 10.5637)
(21.5518 -9.20421 -0.884234)
(93.7405 -9.92998 5.1187)
(42.806 31.0734 0.287442)
(63.1821 2.54896 1.76476)
(43.3658 6.06701 -0.299768)
(58.2591 -1.10666 -0.834457)
(55.4152 -8.59648 -0.928189)
(66.8418 -11.0074 -0.602653)
(67.0708 -13.7703 0.503844)
(72.7539 -12.9362 0.48266)
(72.1788 -12.583 0.723719)
(72.4116 -8.90666 0.684227)
(72.4968 -5.87218 0.555491)
(71.8858 -4.63197 0.733247)
(70.6856 -1.93318 0.508827)
(68.6991 -1.24778 0.383202)
(59.732 -0.0017052 -0.313305)
(154.806 57.1828 85.3659)
(4.6985 17.9184 -20.6075)
(122.565 -2.04487 15.1257)
(9.43222 3.83781 0.151555)
(82.1831 4.56659 2.71901)
(53.1402 19.9853 -0.978022)
(64.7167 19.8683 -0.801544)
(56.3783 -1.30314 0.96436)
(68.7995 -3.87522 1.02512)
(71.296 -11.9838 -0.672151)
(75.7084 -14.025 -0.221914)
(76.0011 -15.1297 0.0619192)
(78.1404 -13.7436 0.526809)
(78.7386 -12.6352 0.665244)
(80.7955 -11.6194 0.819162)
(78.8267 -5.39448 0.526791)
(77.4767 -2.27977 0.451775)
(75.6508 0.0963254 0.666859)
(73.248 0.773881 0.70463)
(63.2144 1.15207 -0.0877273)
(81.5152 122.33 -82.7206)
(-34.4129 26.8688 -10.8756)
(76.9608 -23.5598 -13.8932)
(-20.8463 1.41717 0.731082)
(64.8108 -11.9561 0.953751)
(29.1661 9.60623 2.08335)
(63.0369 14.076 2.53846)
(75.4981 -1.56597 3.82444)
(78.3811 -7.99303 2.4428)
(80.6702 -12.1542 1.44853)
(81.432 -13.317 1.00614)
(81.3457 -14.7502 0.728012)
(81.7603 -15.1753 0.568961)
(83.1542 -14.2222 0.540042)
(82.6014 -11.24 -0.0103102)
(80.2271 -4.76927 -0.463401)
(79.8466 -1.11696 -0.816576)
(79.2285 2.27237 -0.32233)
(77.2944 3.60422 0.0128452)
(66.6843 3.37905 -0.569456)
(107.293 92.4616 62.9795)
(49.9128 47.0851 -8.24196)
(132.86 7.24696 -12.9179)
(70.7167 10.0818 -9.86871)
(99.5681 4.07812 -5.23998)
(70.8706 -0.348395 -2.60634)
(72.5548 -5.73966 1.82407)
(77.516 -7.37855 2.1883)
(77.9244 -9.81309 0.71318)
(77.8672 -11.8512 1.77218)
(79.1942 -12.5337 -2.25907)
(78.0402 -14.0744 -0.385967)
(76.3237 -15.3526 0.33203)
(76.6442 -14.9611 -0.0544814)
(76.3493 -11.7537 -0.7401)
(75.5106 -6.63772 -1.03806)
(76.6265 -2.5419 -1.41559)
(77.3914 0.757841 -1.37949)
(76.1589 4.31219 -0.964449)
(66.7658 4.43541 -1.12161)
(109.49 -97.8436 166.107)
(58.0037 -26.8827 -12.2825)
(106.798 -25.583 -34.1973)
(25.6004 -0.571944 -12.8174)
(66.4251 3.02282 -5.83682)
(36.9045 0.062138 -3.41969)
(68.2613 -11.5006 0.920375)
(74.3723 -5.75875 1.15022)
(71.6571 -7.77042 0.240497)
(69.1097 -9.74028 0.260788)
(68.7731 -10.6107 -0.0945391)
(69.3157 -12.8254 -0.191945)
(70.1929 -15.1368 -0.440283)
(71.129 -15.5126 -0.511836)
(71.7825 -12.5172 -0.335942)
(71.4527 -8.19915 -0.258583)
(72.1584 -3.71879 -0.685855)
(73.4867 -0.824719 -1.21844)
(72.5044 3.54416 -1.36051)
(64.3382 4.24679 -1.39422)
(240.831 30.4513 -19.9485)
(189.983 -17.6884 -56.601)
(172.056 14.7354 -40.7174)
(81.9705 17.2367 -11.0662)
(115.434 11.9782 -4.6008)
(78.2995 -16.6687 -0.858853)
(82.3719 -11.8523 0.208076)
(63.3832 -5.46365 -0.13584)
(68.3978 -7.16528 -0.0629117)
(65.3644 -8.6025 0.85699)
(69.3396 -11.3783 0.101895)
(69.0724 -13.7912 -0.14112)
(70.7735 -15.5792 -0.158304)
(70.058 -15.0758 0.36275)
(69.4301 -10.6938 0.561776)
(69.7312 -8.86678 0.338675)
(69.7647 -3.7119 -0.104925)
(69.9851 -1.7988 -0.517013)
(68.7958 2.38857 -0.907627)
(61.5394 3.27805 -1.08509)
(86.7844 111.219 -130.646)
(-5.70743 36.6574 -115.416)
(83.0773 50.2701 -37.9013)