/*--------------------------------*- C++ -*----------------------------------*\
  =========                 |
  \\      /  F ield         | OpenFOAM: The Open Source CFD Toolbox
   \\    /   O peration     | Website:  https://openfoam.org
    \\  /    A nd           | Version:  10
     \\/     M anipulation  |
\*---------------------------------------------------------------------------*/
FoamFile
{
    format      ascii;
    class       volScalarField;
    location    "6.8";
    object      k;
}
// * * * * * * * * * * * * * * * * * * * * * * * * * * * * * * * * * * * * * //

dimensions      [0 2 -2 0 0 0 0];

internalField   nonuniform List<scalar> 
12920
(
66.82
1099.16
1311.67
1197.97
1022.08
867.061
517.156
283.374
192.021
144.736
115.498
100.128
93.2217
89.6893
87.3379
86.4922
85.8614
85.7868
87.1612
87.3778
72.889
1348.65
1291.43
1200.14
1053.5
763.554
570.735
468.394
362.675
272.679
208.133
167.245
148.739
146.086
147.944
152.884
155.68
156.439
160.913
161.618
625.113
1373.95
1256.44
871.242
675.637
587.973
517.96
457.064
373.442
301.355
237.257
186.129
153.232
133.035
121.397
110.537
103.611
96.6507
94.4345
90.8144
641.634
1478.75
1337.12
1090.81
946.968
777.174
603.363
473.543
352.566
264.551
198.458
155.557
125.588
106.584
93.0675
83.3916
77.182
72.5598
70.6178
66.1893
874.277
2172.68
1757.15
1360.14
1147.48
933.881
662.485
485.758
351.775
268.276
207.12
170.427
144.694
125.273
105.271
87.7971
76.6862
70.1992
67.2818
63.9421
607.173
1733.07
1604.25
1334.69
1094.25
868.39
631.906
471.109
361.311
296.651
253.944
224.577
207.809
197.021
179.779
146.985
111.955
86.5005
74.1347
68.3844
83.9948
1032.56
1393.14
1437.75
1239.21
922.735
671.81
494.503
373.196
303.261
257.196
223.714
197.756
182.586
171.342
155.795
132.046
105.007
85.3232
75.8683
639.596
2188.59
2124.91
1772.7
1364.19
1106
657.716
375.84
264.235
194.723
167.984
146.673
131.884
120.272
205.58
173.806
133.974
102.236
84.427
76.1493
705.321
1577.67
1421.6
1215.06
1126.7
781.317
547.784
274.19
162.551
111.057
103.194
106.526
107.393
106.337
172.26
222.217
153.895
106.684
85.5986
77.0591
76.8132
748.89
1254.72
1176.21
872.976
503.693
298.671
171.333
125.114
126.232
125.188
142.497
144.004
122.789
156.522
217.068
167.419
117.237
94.5999
83.1073
703.221
1861.37
1852.48
1151.38
702.915
366.286
170.744
86.8954
102.193
126.24
133.446
134.673
126.464
92.9948
90.7816
170.169
156.456
123.891
104.333
87.5339
5896.78
5157.23
2433.95
1276.96
742.176
320.49
161.957
102.641
104.195
98.5662
57.1482
46.4246
46.4509
41.1561
115.786
156.327
137.921
115.073
101.519
88.0851
2494.53
1955.19
1606.59
1239.6
977.076
789.197
471.12
303.769
227.92
161.868
123.052
110.02
107.187
110.881
160.544
136.367
119.678
105.326
99.7695
89.0925
1958.29
1617.97
1227.54
950.227
805.437
565.058
482.843
360.936
286.738
214.201
173.163
142.813
127.685
119.051
112.54
105.226
100.539
96.3304
94.1742
86.7074
2468.66
2045.35
1551.19
940.173
710.291
487.38
397.322
307.131
244.445
195.121
159.02
132.379
113.816
101.627
93.3441
88.1858
84.9356
83.1628
81.656
77.8005
848.095
3049.93
1743.49
763.739
618.241
427.815
340.722
268.886
219.896
185.529
154.61
135.127
117.235
105.75
96.3184
90.768
86.5477
84.2396
82.3552
81.4901
4927.42
4234.4
2093.65
907.865
634.173
418.1
308.955
222.635
181.367
155.504
138.34
127.287
117.291
111.332
105.145
101.531
97.8797
95.6939
94.8059
95.3746
1552.67
2903.73
2411.34
1503.37
914.523
561.593
363.318
261.873
196.57
164.167
142.557
132.81
125.61
123.611
122.029
121.884
121.363
121.328
121.468
122.056
1140.65
2256.34
2006.97
1458.84
1041.28
699.171
441.421
299.634
220.832
186.38
164.856
153.078
141.586
134.436
129.53
128.519
129.128
131.023
134.98
140.138
2316.42
1919.5
1535.88
1272.04
944.227
664.365
462.183
336.701
253.363
198.688
162.103
138.744
120.994
105.421
89.4726
75.8101
67.3761
64.5765
64.6601
65.595
432.087
2725.3
2646.1
1845.98
1071.17
709.067
514.577
421.909
335.664
263.572
213.435
192.968
184.937
182.577
182.253
183.273
184.748
187.935
197.321
196.29
2182.19
5575.92
3829.4
2823.96
1694.78
1418.18
1200.92
1083.1
841.084
652.246
507.553
434.852
406.846
401.922
403.387
409.223
412.736
414.136
418.531
412.574
1208.55
6530.58
3845.01
1955.46
1548.83
1398.93
1229.86
1141.29
930.073
782.97
621.215
497.722
418.013
368.495
335.886
309.74
293.314
279.101
274.484
267.859
7408.41
5444.92
3721.95
2565.85
2234.62
1862.06
1447.46
1185.26
893.296
702.771
533.018
424.059
345.969
293.867
256.859
232.447
217.395
207.727
203.501
194.837
15072.7
10033
4713.05
3326.05
2679.41
2164.67
1542.97
1175.66
873.875
693.086
546.42
458.163
389.626
340.384
291.643
248.203
218.195
201.616
194.14
187.446
4111.19
5187.92
3631.18
3088.54
2557.09
2125.86
1552.09
1201.45
934.952
778.989
668.098
595.949
544.697
509.575
465.12
383.374
284.962
226.861
208.281
199.586
1177.74
1576.09
2522.88
3270.72
2970.15
2289.05
1633.52
1234.29
959.729
801.264
684.634
598.255
527.548
490.476
462.034
416.131
345.663
275.792
232.797
219.548
448.779
4982.71
4941.12
4215.85
3158.27
2565.69
1870.73
1315.92
932.329
718.012
609.43
528.507
469.927
433.133
456.731
406.203
321.721
260.189
231.617
220.88
3224.5
4488.24
3240.21
3169.41
2750.44
2247.81
1786.91
1301.07
898.583
690.847
600.446
549.993
504.386
464.607
461.54
432.432
317.393
250.852
227.293
219.114
1776.54
3947.58
3773.77
2864.3
1957.22
1655.67
1385.26
1097.06
861.218
756.346
700.438
662.083
582.081
466.8
436.034
424.585
335.381
265.143
240.63
229.776
6713.82
7249.6
4765.09
2551.95
1600.79
1179.01
825.738
704.656
680.513
660.869
604.719
525.061
444.484
301.529
295.135
347.761
327.372
284.447
264.121
245.815
17322.8
7962.51
4346.49
3134.54
1628.01
1088.7
911.072
804.414
680.848
543.754
414.893
372.039
327.483
310.68
309.066
309.859
293.391
274.385
266.025
252.654
8394.35
3915.53
3699.08
3439.9
2649.21
2063.43
1568.63
1204.81
833.32
603.641
464.542
393.975
371.382
355.303
329.458
302.017
286.035
276.594
272.116
257.951
3633.95
4760.47
3445.21
2670.35
2155.78
1539.24
1279.4
939.016
715.767
536.49
433.193
366.704
329.358
308.268
290.727
275.981
268.569
264.46
262.118
250.477
5756.71
6095.28
4089.71
2387.11
1834.37
1266.82
1046.74
810.391
633.354
507.87
410.965
349.055
303.906
276.538
256.448
246.053
239.041
236.226
234.284
230.047
2374.04
7355.68
4373.82
1921.91
1659.41
1091.98
896.515
693.138
565.496
478.112
401.15
356.874
314.193
291.046
268.99
258.354
248.33
244.891
243.886
244.622
3537.15
7416.4
5251.12
2195.36
1600.8
1049.6
811.654
586.962
486.236
415.367
371.716
344.618
322.306
310.777
299.1
293.526
287.338
285.207
285.235
287.274
5922.78
7427.38
5597.92
3205.5
1966.31
1338.79
874.928
675.709
514.404
443.653
390.238
367.42
350.086
345.127
342.551
343.469
345.081
348.827
351.167
355.741
2535.92
6056.05
4670.11
3156.02
1970.28
1450.12
965.169
773.914
596.533
534.422
463.5
435.314
400.917
384.514
368.112
362.659
363.641
372.685
384.064
399.817
3222.87
3258.33
2612.01
2018.98
1470.22
1153.57
892.156
700.929
539.207
430.63
355.611
311.033
274.863
238.721
194.872
154.193
129.317
123.476
125.138
135.108
6724.52
4741.9
2532.77
1534.08
985.806
789.176
661.602
551.115
434.062
354.279
304.803
279.953
263.098
249.146
238.781
228.786
223.889
218.014
214.826
203.867
8804.64
10203.4
5660.81
3219.41
2245.98
2058.83
1733.01
1468.28
1126.83
923.551
763.299
678.589
626.682
602.097
589.682
583.656
575.584
569.726
559.415
525.838
12006
11940.9
6769.37
3125.39
2427.16
2129.18
1780.06
1569.32
1256.38
1053.39
844.766
699.987
595.198
523.973
476.558
439.968
416.781
397.094
389.458
377.739
12689.3
9815.15
5587.21
3591.13
2991.56
2451.82
1898.27
1551.74
1190.5
950.995
737.224
594.624
486.471
415.866
366.919
334.767
314.855
302.182
295.207
287.523
22534.7
13957.4
6755.79
4659.27
3581.56
2730.89
1944.26
1494.28
1144.99
924.561
743.844
621.282
524.186
452.617
391.571
344.407
313.374
295.468
284.879
278.103
8941.16
8255.95
5889.51
4785.45
3712.45
2845.35
2030.3
1568.29
1245.45
1038.7
886.611
773.984
688.018
611.793
535.253
451.402
378.528
334.743
311.031
297.368
5398.95
7029.27
6437.29
5236.4
3912.6
2952.91
2118.38
1607.94
1275.94
1062.89
908.199
794.343
705.35
643.106
582.059
513.333
441.484
381.474
345.405
328.51
742.558
7441.71
6725.76
5442.21
4032.74
3218.55
2496.5
1765.22
1289.2
1016.54
857.382
739.177
656.444
598.667
564.367
485.861
411.077
364.354
339.893
329.712
10346.2
6680.61
5192.23
4060.31
3394.87
2909.04
2477.64
1795.87
1290.18
1014.66
857.848
752.156
667.349
605.699
569.332
475.642
386.217
343.852
326.512
321.487
3258.82
6686.53
5334.32
3417.63
2499.05
2177.51
1948.12
1561.78
1273.81
1081.62
950.554
825.865
685.087
583.92
555.851
475.921
395.124
352.714
334.99
326.743
21074.3
11770.4
6258.51
3284.29
2252.58
1711.24
1375.41
1180.17
1052.32
964.376
667.989
479.809
406.351
376.711
417.856
426.99
393.556
368.563
352.653
339.182
26869.5
9054.81
5608.99
3770.11
2364.22
1741.88
1540.91
1253.52
1008.2
813.757
688.241
604.528
516.598
450.938
387.251
388.904
378.475
372.362
366.497
351
9168.88
6830.76
6365.45
5226.16
3723.98
2816.15
2225.44
1601.89
1088.6
811.07
640.639
551.495
505.207
462.082
424.87
400.245
390.195
384.062
376.771
355.047
11030.9
6341.73
5319.7
3948.12
3040.91
2112.3
1712.52
1225.37
918.406
696.419
576.199
499.11
454.227
427.309
404.454
388.111
379.227
372.713
365.856
348.693
6368.64
8792.7
5409.36
3196.66
2507.5
1695.28
1417.76
1076.91
845.231
671.024
553.177
475.185
424.112
392.344
370.581
358.586
350.69
346.294
343.113
340.594
14495.8
11897.9
5493.46
2703.89
2219.55
1410.85
1211.98
913.885
761.577
636.106
543.737
485.085
436.408
410.015
387.307
376.999
367.421
365.437
365.423
368.248
6913.3
10527.7
6398.75
2930.8
2106.54
1369.44
1096.3
802.832
679.844
583.592
525.96
490.099
463.049
450.347
438.307
434.019
428.839
428.898
429.702
433.513
10829.8
10096.3
6544.84
3633.5
2350.52
1690.4
1188.51
915.433
712.701
622.725
555.219
528.676
507.554
503.847
502.688
506.44
511.606
520.535
525.411
531.039
9487.33
7755.51
5105.74
3590.72
2460.15
2024.2
1400.22
1112.31
823.265
719.463
613.454
578.817
533.775
516.394
503.106
503.752
513.837
537.969
558.666
580.285
9922.71
4141.09
2601.31
2004.42
1605.43
1307.33
1026.6
813.962
645.994
533.237
453.664
395.053
342.297
289.253
239.274
199.416
177.108
167.557
165.94
166.554
4054
6406.44
2961.71
1724.61
1204.14
931.293
735.507
585.568
475.162
404.63
360.983
329.646
308.021
287.086
273.034
252.487
241.186
219.998
207.541
176.845
34394.1
20600.4
8129.18
4008.13
3129.97
2690.79
2188.18
1778.83
1423.2
1223.67
1063.22
970.532
901.173
852.464
820.4
791.44
762.788
735.537
695.844
645.839
19162.6
13194.5
7192.08
3870.07
3314.37
2649.37
2254.57
1910.74
1567
1306.61
1082.86
921.236
803.615
713.359
652.05
600.867
569.141
542.045
528.42
514.99
11298.3
11147.7
7777.02
4524.43
3789.48
2898.05
2315.25
1861.93
1478.29
1180.34
944.643
769.49
647.011
560.628
503.836
464.112
440.796
425.402
416.188
411.136
27758.8
11916.3
8094.08
5356.87
4310.87
3034.74
2288.4
1753.61
1415.96
1146.98
951.435
791.067
676.009
584.783
517.405
467.311
436.788
417.73
405.606
402.078
23989
9846.72
8151.85
6045.79
4693.2
3273.75
2428.76
1883.35
1557.37
1294.87
1117.8
956.414
836.226
724.178
632.145
549.956
495.433
461.543
438.104
427.631
2917.47
8873.74
8438.17
6292.55
4732.47
3353.84
2481.36
1888.85
1557.06
1299.8
1131.33
988.539
880.82
785.204
697.707
616.92
554.188
509.934
482.204
471.075
7932.18
10002.3
8067.4
6161.54
4826.48
3693.65
2877.17
2029.21
1547.42
1243.64
1060.41
920.621
819.85
735.229
666.009
584.711
528.334
497.421
479.403
475.132
33706.1
9656.16
6234.49
4437.96
3898.2
3321.84
2865.88
2056.28
1542.92
1239.64
1043.09
904.487
799.152
722.958
650.556
550.094
493.788
471.249
462.434
462.265
11335.4
9227.12
6342.89
3833.75
2968.26
2516.01
2288.71
1867.37
1556.08
1310.35
1107.44
918.055
762.822
697.737
647.357
554.823
498.504
475.661
466.109
461.797
10921.4
10984.6
8412.07
3980.02
2830.57
2107.54
1770.7
1534.66
1359.27
1208.13
929.599
654.259
515.379
509.73
544.503
533.693
506.166
491.312
480.499
472.256
22567.7
9707.88
6648.66
4085.83
2979.28
2238.77
1991.93
1568.48
1264.61
1054
904.333
761.717
635.978
540.742
494.183
517.896
513.214
507.828
497.921
481.239
13499.6
8987.95
8199.78
6255.59
4551.39
3293.11
2642.12
1794.14
1256.07
969.22
789.911
696.043
630.017
577.516
559.065
538.604
531.235
520.447
506.669
483.953
34283.5
9610.15
6965.12
4639.96
3776.55
2437.31
2057.2
1406
1103.05
832.303
727.043
636.296
598
565.445
544.293
526.333
516.207
506.038
495.487
481.948
16252.4
15453.4
6626.61
3746.91
3109.38
1985.65
1756.9
1289.04
1054.93
821.552
705.645
610.9
563.368
527.646
508.048
494.927
488.16
485.252
483.773
484.995
17182.5
13083.9
6431.91
3337.86
2699.37
1656.49
1506.28
1101.12
967.929
791.571
704.616
627.201
582.362
552.633
533.674
525.234
518.906
520.225
521.987
529.286
13179.9
12063.4
7219.21
3503.28
2572.86
1610.37
1361.62
983.978
880.589
753.834
701.005
654.068
630.343
616.385
608.541
606.938
605.511
608.495
611.358
618.24
9158.78
10592.3
7614.69
3948.87
2763.36
1905.72
1462.58
1094.78
912.157
804.189
744.775
713.725
698.412
697.433
700.575
711.201
721.856
736.079
743.149
749.552
13488.4
7087.81
5009.37
3572.78
2846.71
2350.09
1723.8
1335.2
1008.25
881.075
767.106
739.32
699.962
692.182
689.944
701.634
730.256
761.172
785.113
806.835
7903.41
3359
2085.72
1776.41
1550.32
1273.29
1003.2
798.307
640.672
533.03
454.472
388.605
328.75
274.277
234.324
208.959
197.251
191.22
189.954
187.576
2175.87
4607.81
2823.96
1643.47
1259.28
902.481
679.414
535.053
449.653
395.088
359.727
328.873
302.427
269.88
236.2
201.276
174.172
150.087
136.649
120.954
19299.4
12637.2
8861.89
4189.56
4341.41
3062.56
2932.1
2141.33
1964
1653.53
1584.53
1436.14
1376.22
1255.25
1200.06
1123.59
1080.71
1015.2
957.044
897.607
17591.2
12288.7
8563.85
4408.81
4433.13
2943.44
2938.4
2229.14
2049.84
1607.71
1477.9
1240.12
1157.18
1015.72
955.035
875.676
840.849
798.443
779.927
764.46
25037.8
16600.1
10522.9
4995.13
4842.22
3212.66
2986.07
2179.43
1938.41
1446.56
1279.1
1026.63
932.557
808.939
760.521
706.855
688.217
667.257
656.159
651.343
19637.5
12994.1
9928.57
5621.33
5274.55
3197.25
2826.61
1989.03
1821.69
1407.87
1278.88
1033.05
944.057
812.13
757.963
700.99
680.55
660.75
653.088
654.168
21591.8
11201.9
9948.23
6297.79
5756.41
3465.67
3039.67
2220.85
2016.16
1617.86
1467.08
1218.14
1086.17
928.888
835.644
757.172
725.505
702.992
687.681
684.425
14210.3
10483.9
10051.7
6486.76
5753.28
3574.83
2917.41
2168.09
1925.22
1581.47
1452.63
1254.17
1151.53
1006.95
908.751
825.486
783.727
756.523
744.558
744.792
15710.5
10994.7
10606.6
6784.33
6037.15
4126.05
3240.36
2279.82
1860.01
1522.82
1357.01
1193.32
1088.73
969.077
883.099
798.028
760.92
749.69
743.854
745.908
24810.4
11441.6
7370.01
4964.48
4592.41
3680.89
3222.54
2311.27
1846.15
1522.29
1313.51
1159.41
1051.8
956.513
861.05
766.879
731.302
722.518
724.356
726.431
24744.4
11407.6
7939.84
4333.45
3624.72
2782.41
2646.19
2240.82
1927.02
1608.76
1322.32
1095.02
999.715
959.67
874.665
780.282
734.982
720.936
716.707
711.089
20133.5
14762.5
9866.08
4389.86
3684.39
2442.05
2158.41
1954.12
1790.84
1535.5
1236.85
921.446
792.39
827.848
821.626
776.745
747.025
730.543
725.409
718.269
22170.7
11945.2
8345.97
4731.92
3741.89
2623.63
2398.76
1924.04
1634.61
1392.38
1171.57
980.299
877.046
806.965
776.743
781.405
765.776
747.609
736.948
722.314
11614.1
10663.3
11303.1
7159.92
5774.79
3587.27
2974.49
1930.08
1508.21
1174.71
1047.83
932.218
883.897
823.375
823.966
792.609
777.077
755.501
740.608
723.1
33039.5
14825.5
9249.7
5396.19
4815.63
2720.87
2620.19
1590.74
1425.13
993.111
980.063
836.408
843.659
790.928
788.552
757.235
753.271
737.092
731.824
726.522
82300.3
31055.6
9234.79
4575.39
4047.63
2295.65
2299.06
1523.07
1394.61
1005.96
954.282
808.48
794.257
743.394
738.434
721.422
724.581
726.013
730.897
741.068
20029.9
13085.8
7574.92
4337.38
3428.24
2067.23
1991.61
1315.19
1310.87
987.46
974.882
827.622
827.303
772.118
779.488
765.103
774.36
777.967
785.421
798.915
21983.3
12800.7
8558.94
4458.05
3247.01
1973.47
1784.46
1186.82
1202.15
968.956
980.436
880.965
893.096
859.006
873.3
868.502
880.801
887.756
895.36
906.123
23412.4
14149.6
9296.51
4626.94
3408.35
2103.9
1883.29
1243.35
1244
1022.46
1051.45
963.933
994.817
968.861
1000.78
1006.48
1034.55
1049.25
1060.84
1068.1
11306.7
8061.37
5262.91
3790.19
3554.41
2393.17
2209.8
1443.26
1342.26
1065.93
1052.04
979.537
994.042
984.572
1013.18
1037.63
1089.81
1121.56
1146.96
1163.28
2718.32
2021.21
1756.77
1602.21
1357.95
1085.35
840.676
659.165
527.687
418.617
337.294
275.663
237.009
212.121
198.841
190.153
187.32
185.28
184.007
178.911
980.482
1016.29
784.934
1254.54
1114.85
1173.51
911.206
858.819
717.927
591.856
1070.66
938.848
823.928
672.05
737.541
816.596
723.595
1143.56
902.127
1010.34
907.769
525.502
698.388
631.277
810.143
617.754
873.749
765.944
310.366
375.618
217.837
1361.47
1177.76
1264.67
1084.06
178.88
190.08
138.691
1068.82
818.253
995.26
786.925
116.345
130.476
125.317
744.788
603.9
743.385
662.218
102.15
124.497
116.125
570.934
516.466
639.668
590.899
106.423
116.545
131.461
505.825
483.319
585.339
576.131
107.533
135.874
139.161
475.394
452.52
570.709
537.047
107.04
138.68
128.454
444.49
420.581
520.8
456.52
83.6091
122.412
85.8737
413.799
403.626
435.316
399.95
190.77
193.531
97.5777
1103.32
987.227
652.389
587.175
130.22
90.4438
98.5567
915.596
741.873
582.371
594.181
125.558
106.796
129.946
712.054
659.263
602.413
614.79
124.658
133.145
139.853
642.603
610.025
613.172
597.833
138.714
141.151
143.765
606.534
598.854
588.4
552.495
144.888
143.738
140.147
592.405
552.881
538.694
489.877
130.303
138.004
121.076
533.444
453.601
470.452
367.327
84.5126
105.723
50.1226
425.68
387.937
321.284
268.466
93.7382
165.423
93.6178
606.68
562.472
635.554
607.418
94.4043
88.9625
87.654
555.458
559.239
593.878
541.899
122.71
87.6271
82.8212
564.555
571.328
524.131
458.98
132.512
77.6103
56.4033
569.809
550.686
430.473
343.921
135.032
51.8578
50.9653
538.874
499.412
325.873
304.002
129.352
53.8022
67.22
486.007
439.783
303.274
293.862
109.432
67.5331
54.2301
422.882
324.63
284.035
237.722
46.642
46.9629
41.6185
278.546
241.173
234.336
251.531
103.883
286.567
156.781
676.295
670.745
903.929
877.1
103.186
154.68
147.078
655.06
592.902
848.507
734.247
103.079
138.386
109.365
572.416
497.557
686.247
542.283
64.1817
99.7451
77.2831
461.448
353.3
499.571
401.734
47.6922
74.618
71.5371
331.932
301.764
384.686
335.789
46.8165
68.0798
54.8106
294.985
264.528
323.573
295.226
40.9356
53.8841
62.1537
256.529
245.483
294.465
303.68
48.3793
67.3474
63.8397
250.869
271.979
307.238
300.704
1442.99
1587.03
1290.43
2336.29
1898.3
2062.11
1685.8
984.891
1188.23
948.266
1704.38
1314.33
1565.87
1290.39
731.364
894.835
783.631
1212
1001.31
1220.92
1055.28
617.577
753.613
690.511
947.449
834.395
1010.79
910.618
563.283
679.782
653.074
804.184
732.755
884.991
811.424
516.299
641.991
593.407
710.219
651.39
785.567
700.373
473.382
572.661
500.758
633.207
587.857
670.812
594.37
443.079
479.924
441.851
575.731
547.414
577.504
549.934
1180.43
894.634
759.511
1831.84
1570.13
1329.94
1176.51
899.281
743.702
726.374
1470.92
1244.76
1137.47
1050.41
780.098
725.894
717.626
1190.96
1053.33
1028.33
960.379
709.161
710.469
678.222
1014.79
926.469
945.431
806.438
674.577
661.032
603.508
901.602
824.868
758.187
634.989
606.564
583.808
520.482
796.445
700.899
603.232
518.176
493.662
495.958
383.167
666.747
576.824
488.882
408.493
429.328
343.527
301.73
558.162
538.462
399.92
416.159
721.076
850.293
765.574
1250.33
1115.18
1289.41
1148.29
683.205
739.978
659.394
1077.49
992.608
1093.71
947.172
667.848
634.285
552.798
970.377
903.078
905.149
786.262
623.758
521.146
432.558
889.336
744.526
749.565
658.219
544.433
413.335
385.145
692.779
562.972
635.196
579.738
465.636
380.017
355.589
526.554
446.602
561.087
498.084
339.318
341.28
294.743
424.805
363.354
474.973
420.594
275.431
289.975
284.619
356.039
381.787
406.909
363.352
833.674
1223.91
1076.36
1400.31
1222.36
1785.85
1503.55
710.204
1025.38
859.888
1159.3
988.125
1401.1
1123.51
583.164
798.583
629.2
938.077
795.827
1037.17
821.698
436.47
582.93
473.705
752.311
650.173
770.872
644.409
380.812
452.211
391.804
627.275
574.52
614.198
533.494
337.443
378.514
348.673
556.506
497.991
518.06
479.758
308.607
347.122
348.377
479.877
439.272
473.495
449.462
304.532
348.894
328.357
426.751
377.184
441.755
403.078
1993.65
2173.51
1774.57
2779.43
2208.85
2418.46
1993.42
1394.73
1652.69
1373.16
1998.72
1588.58
1869.85
1581.9
1072.09
1300.75
1124.53
1482.33
1249.48
1503.09
1302.89
891.863
1076.74
965.492
1184.54
1037.12
1245.83
1101.4
777.556
935.349
848.411
996.297
894.719
1058.77
937.432
687.265
818.508
724.466
864.159
785.344
898.073
789.478
618.776
693.685
619.532
762.7
706.43
759.474
696.53
571.12
603.942
573.772
690.11
640.599
683.016
642.878
1662.52
1454.01
1287.33
2204.83
1895.25
1751.82
1569.63
1330.98
1242.99
1139.49
1792.85
1552.75
1515.15
1379.68
1123.73
1111.91
1028.33
1486.61
1307.4
1340.43
1228.08
1098.74
1044.66
1073.18
1142.51
1041.39
1101.67
1134.66
949.366
920.863
943.92
994.093
912.144
959.475
986.508
720.504
566.705
498.588
894.918
772.226
629.124
538.215
599.844
474.886
423.279
738.241
674.325
519.349
507.844
562.609
422.617
446.302
663.74
635.969
515.409
540.892
1223.01
1423.03
1251.67
1676.25
1502.45
1743.26
1518.08
1079.58
1189.64
1027.09
1449.29
1317.98
1439.74
1244.65
969.927
981.048
853.877
1280.35
1174.13
1190.55
1049.46
897.898
907.933
892.236
1015.59
846.981
874.479
956.374
637.989
618.048
683.023
519.979
637.605
472.441
688.025
419.268
608.38
533.457
562.357
482.427
728.997
622.562
376.77
508.501
448.676
469.178
461.509
592.062
514.918
410.747
431.478
380.01
466.96
506.129
492.727
445.83
1325.46
1958.69
1606.52
1891.46
1586.74
2320.83
1847.36
1063.03
1491.64
1186.8
1494.06
1262.63
1700.18
1337.34
857.595
1094.78
871.58
1198.98
1035.76
1236.6
1005.98
712.277
820.601
690.766
991.216
883.708
955.544
816.288
626.137
658.299
573.389
852.358
757.498
779.214
686.734
536.539
557.154
514.746
724.425
631.815
667.979
611.671
467.448
506.301
474.602
605.874
535.198
597.501
548.306
392.335
464.82
421.08
512.547
452.148
535.037
487.401
2263.24
2492.77
2062.16
3125.59
2438.34
2730.52
2302.38
1648.44
1938.95
1648.75
2237.72
1852.65
2181.84
1891.83
1306.75
1568.61
1360.91
1753.94
1508.41
1809.69
1576.59
1085.88
1300.37
1143.89
1435.62
1269.25
1502.76
1306.2
936.507
1097.31
966.433
1226.03
1110.37
1248.88
1096.4
822.416
924.97
815.903
1075.67
989.622
1052.9
962.208
740.714
787.522
729.35
966.927
900.688
944.084
898.547
665.086
715.765
667.065
877.186
795.832
881.406
810.243
1969.08
1845.17
1656.39
2540.23
2226.71
2121.82
1944.65
1624.77
1600.6
1460.24
2129.31
1885.98
1893.95
1760.62
1367.49
1418.37
1293.4
1812.42
1589.63
1711.55
1536.36
1156.07
1244.25
1043.7
1515.61
1311.84
1464.1
1256.63
964.483
962.405
761.542
1250.11
1079.4
1179.53
949.273
794.233
704.068
580.756
1028.94
927.581
879.273
744.79
707.496
558.692
548.952
912.108
882.729
734.654
755.817
661.794
557.923
575.56
870.802
809.999
764.249
758.203
1589.15
1844.56
1600.25
2051.97
1878.16
2138.67
1872.6
1399.01
1518.66
1318.17
1829.38
1704.66
1790.05
1597.87
1242.2
1263
1118.64
1659.05
1496.02
1544.55
1379.62
1014.49
1077.53
966.402
1432.96
1233.03
1324.6
1166.91
711.577
928.924
807.057
1154.86
920.946
1114.4
953.117
535.801
765.844
651.796
850.866
711.111
901.823
787.14
503.275
620.049
542.181
697.36
712.645
764.027
712.126
541.447
521.035
476.237
721.727
729.867
698.351
664.5
1665.93
2443.73
1911.91
2296.42
1922.77
2723.58
2091.17
1329.2
1756.74
1381.9
1818.45
1580.45
1915.47
1539.38
1099.49
1280.64
1052.09
1519.39
1345.79
1449.55
1236.05
939.352
1001.82
858.569
1289.5
1135.76
1178.54
1026.88
798.118
820.552
727.47
1087.93
950.008
991.733
903.451
663.239
707.861
647.136
906.883
810.899
878.451
811.665
562.964
631.679
579.866
789.013
730.171
796.223
747.869
481.205
566.526
516.07
712.029
664.437
732.988
683.468
2505.4
2829.1
2403.8
3594.94
2816.41
3232.34
2839.71
1940.64
2284.97
1999.47
2645.25
2338.27
2722.53
2458.36
1596.66
1917.52
1674.31
2248.93
1967.08
2377.1
2103.79
1356.03
1595.2
1385.21
1895.36
1739.66
2011.9
1770.25
1194.68
1325.19
1167.99
1701.4
1561.17
1702.94
1525.98
1073.69
1125.17
1045.76
1528.88
1449.66
1485.75
1440.72
981.952
1031.38
986.116
1432.7
1343.88
1430.05
1368.46
866.648
967.032
884.837
1316.88
1220.75
1344.54
1251.13
2335.26
2225.99
2063.68
3051.14
2791.58
2614.61
2551.02
2001.14
2017.79
1891.68
2700.85
2481.58
2516.89
2418.38
1689.53
1840.87
1644.57
2404.47
2132.64
2363.37
2118.35
1387.56
1563.73
1337.35
2034.79
1770.68
2010.97
1732.19
1144.65
1258.17
1019.12
1695.33
1493.64
1642.27
1361.32
1008.72
947.293
828.935
1445.99
1403.46
1286.56
1226.77
973.872
828.617
861.589
1405.91
1363.84
1253.38
1280.87
886.388
867.063
845.172
1342.76
1252.09
1276.18
1225.98
1997.95
2251.24
1986.01
2567.47
2490.59
2684.25
2473.96
1837.71
1905.73
1721.59
2458.81
2372.14
2393.21
2235.12
1608.19
1668.71
1494.03
2321.48
2092.48
2180.01
1966.35
1316.75
1431.51
1253.88
1992.23
1717.53
1882.73
1658.07
994.2
1196.47
1023.58
1625.3
1338.3
1586.65
1375.02
795.563
970.263
866.309
1260.17
1193.32
1316.58
1260.65
821.169
850.88
810.001
1218.03
1245.45
1260.11
1214.28
819.365
797.161
757.537
1242.11
1202.82
1197.98
1154.7
2028.13
2818.33
2155.36
2844.43
2494.06
3199.9
2486.08
1693.44
1973.75
1611.68
2382.58
2177.44
2280
1993.52
1454.42
1529.74
1320.34
2123.67
1903.95
1932.6
1695.64
1223.01
1255.95
1105.75
1821.7
1620.62
1592.13
1478.65
1024.7
1072.27
986.594
1559.62
1383.11
1451.05
1353.46
893.913
957.629
894.176
1334.97
1291.77
1299.27
1263.23
824.654
879.728
835.329
1278.64
1220.02
1250.19
1205.79
756.334
818.505
766.889
1199.83
1151.07
1176.09
1142.69
1061.29
1011.22
976.053
1028.89
1008.12
1064.22
1024.11
1080.41
1048
968.548
1062.28
1022.92
1109.44
960
1029.42
937.701
872.673
682.033
979.352
979.29
790.668
1151.7
1199.45
1205
1248.98
1154.44
1192.6
1202.35
1110.97
1073.19
1159.28
1111.19
1113.05
1068.99
1157.7
1132.81
1106.85
1227.76
1108.25
1168.59
990.157
1184.26
1082.42
712.147
1076.87
1018.43
1026.69
823.687
1134.48
910.035
890.313
844.8
887.987
878.506
924.151
870.734
889.228
896.529
659.03
608.728
859.55
930.568
555.476
835.994
781.018
610.344
526.017
817.132
794.39
521.229
983.872
1033.68
1026.94
1063.59
994.358
1026.23
1016.2
939.647
914.034
983.161
918.408
954.585
894.688
968.072
924.251
634.402
1018.37
763.187
972.142
580.631
963.064
866.284
541.082
849.058
721.027
815.964
539.16
906.456
815.952
814.759
733.766
604.409
787.051
711.614
747.274
873.553
840.153
782.083
881.457
807.379
907.581
846.875
833.466
736.559
751.115
786.408
771.529
794.746
815.639
973.591
1071.9
1100.86
1089.69
945.487
1024.04
1053.47
891.827
651.744
1002.88
924.036
770.622
816.839
992.335
942.196
945.618
1042.23
974.789
974.987
911.01
1009.1
901.414
847.936
926.347
940.957
859.884
879.012
969.873
599.387
556.713
559.796
422.73
596.196
412.083
555.987
723.572
703.741
674.778
758.42
673.249
758.229
731.425
691.311
617.384
653.241
678.799
645.291
658.135
705.488
696.569
562.025
738.665
856.943
509.028
751.45
794.923
650.498
454.12
662.738
680.431
444.283
600.848
735.471
780.165
817.031
882.383
838.215
819.582
785.951
838.144
742.211
723.547
750.285
802.412
703.505
755.162
794.282
496.991
673.684
506.197
1038.74
985.425
1085.46
1043.34
321.395
384.166
301.869
849.715
706.661
927.292
756.665
224.85
243.544
204
593.464
519.756
627.071
541.353
181.33
176.922
164.881
457.936
417.946
478.436
446.392
157.14
157.523
152.259
388.841
369.581
425.388
408.755
139.889
148.035
144.478
347.581
328.535
391.162
376.68
124.416
141.309
139.121
311.481
303.104
363.098
355.311
92.5724
137.586
120.05
290.647
306.036
344.699
373.69
715.139
666.665
577.321
1273.08
1257
1213.99
1219.82
623.036
436.979
456.061
682.971
649.968
658.964
356.935
448.699
232.988
215.472
487.156
443.524
486.804
188.211
332.362
141.385
135.63
325.269
297.619
355.161
124.298
275.616
104.203
107.398
240.464
231.288
288.323
102.226
280.181
103.515
101.36
229.037
230.901
275.587
104.108
295.296
106.986
110.802
240.969
242.217
293.11
112.583
295.898
107.44
117.081
250.506
250.479
297.228
117.486
274.028
104.926
114.704
254.993
253.082
279.378
111.731
135.23
172.894
140.108
360.026
372.717
364.2
393.234
426.874
443.404
326.394
948.908
981.111
782.77
660.126
418.515
247.939
272.236
483.185
488.296
427.499
216.143
316.979
154.582
134.444
427.438
395.824
335.482
121.621
324.157
123.751
110.117
344.127
343.416
309.328
113.321
355.234
125.86
128.939
348.812
345.843
353.894
130.652
368.15
127.83
134.536
345.733
353.805
361.749
137.787
378.809
144.536
147.225
373.044
373.132
379.404
147.74
349.123
141.78
144.505
358.702
347.912
360.327
141.766
256.004
112.398
120.462
292.156
271.495
283.663
107.31
129.434
120.992
102.665
336.93
374.541
272.094
312.627
276.027
355.95
267.154
658.795
576.778
652.68
578.731
226.592
130.339
167.876
246.54
227.167
243.78
127.765
238.38
86.8053
85.4286
228.123
238.772
230.018
84.4843
262.704
110.52
90.3008
291.157
307.198
260.523
92.2958
266.206
129.4
97.5329
332.022
335.457
263.997
101.153
270.904
134.594
108.591
335.643
334.796
269.859
110.519
279.618
133.888
117.839
326.64
322.676
279.944
118.281
259.688
123.586
115.286
299.906
291.513
267.991
112.452
121.705
73.1504
78.4287
198.103
154.302
155.763
61.3476
86.926
95.7747
81.7605
210.892
271.616
216.009
242.872
254.034
357.086
342.729
593.385
594.503
669.195
681.399
283.885
128.157
165.837
255.82
260.986
264.686
136.574
342.402
102.522
117.361
295.752
300.485
334.881
117.982
331.109
104.86
119.514
296.668
293.287
338.814
118.907
242.202
87.3393
103.994
251.975
217.923
275.491
91.7562
175.172
52.4334
66.688
141.871
130.431
178.108
65.3552
121.554
46.4211
51.5426
117.924
112.361
141.481
45.861
89.9462
45.0477
37.5537
93.0017
89.004
90.5162
37.1711
152.318
44.3178
43.7522
97.6504
123.806
126.977
53.6274
93.0977
126.755
101.976
241.155
251.229
258.937
267.768
363.126
469.84
346.88
824.141
857.872
825.098
890.968
265.933
296.064
261.235
820.127
730.364
860.139
724.08
198.031
224.833
184.419
614.491
537.871
606.227
517.037
138.019
153.34
133.376
443.527
378.297
436.223
360.414
116.464
119.431
105.384
335.873
308.598
321.689
294.104
107.007
100.48
97.735
286.694