/*--------------------------------*- C++ -*----------------------------------*\
  =========                 |
  \\      /  F ield         | OpenFOAM: The Open Source CFD Toolbox
   \\    /   O peration     | Website:  https://openfoam.org
    \\  /    A nd           | Version:  10
     \\/     M anipulation  |
\*---------------------------------------------------------------------------*/
FoamFile
{
    format      ascii;
    class       volScalarField;
    location    "6.8";
    object      k_0;
}
// * * * * * * * * * * * * * * * * * * * * * * * * * * * * * * * * * * * * * //

dimensions      [0 2 -2 0 0 0 0];

internalField   nonuniform List<scalar> 
12920
(
77.0739
1129.46
1315.63
1193.49
1023
862.685
506.376
279.05
190.772
144.168
115.212
100.068
93.2664
89.773
87.4449
86.6101
85.9799
85.9118
87.3089
87.5021
79.115
1344.26
1286.02
1202.78
1054.79
758.464
568.976
467.703
361.298
271.436
207.273
166.808
148.69
146.232
148.151
153.102
155.836
156.595
161.106
161.722
703.199
1375.89
1248.67
869.111
675.894
589.084
518.771
457.07
372.766
300.452
236.366
185.479
152.867
132.852
121.262
110.432
103.532
96.6046
94.4086
90.8026
653.739
1474.01
1332.52
1094.44
949.06
777.691
602.772
472.403
351.24
263.394
197.633
155.026
125.24
106.378
92.9257
83.3072
77.1341
72.5362
70.591
66.1597
911.063
2191.93
1754.34
1363.63
1151.24
934.163
660.742
484.143
350.554
267.41
206.598
170.167
144.549
125.112
105.056
87.6212
76.5872
70.1599
67.2607
63.9345
660.719
1776.1
1616.78
1339.19
1096
867.495
629.942
469.561
360.404
296.243
253.796
224.597
207.982
197.162
179.619
146.576
111.541
86.2519
74.0327
68.3691
88.9472
1055.41
1407.67
1444.57
1235.93
920.57
670.133
493.148
372.3
302.81
256.943
223.546
197.69
182.617
171.349
155.659
131.734
104.675
85.1279
75.8282
691.101
2216.43
2136.97
1770.05
1364.65
1105.75
656.314
374.139
263.135
194.159
167.783
146.556
131.812
120.259
205.705
173.532
133.532
101.905
84.2638
76.1168
745.263
1609.71
1433.27
1217.71
1130.24
783.851
546.71
272.153
161.407
110.735
103.39
106.702
107.59
106.476
172.276
221.842
153.217
106.252
85.4261
77.0296
76.1732
776.075
1263.56
1177.5
871.552
503.236
297.642
170.14
124.775
126.269
125.402
142.91
144.107
122.247
156.362
217.224
166.802
116.81
94.4362
83.0607
676.757
1847.31
1845.35
1145.96
701.566
365.413
170.008
86.9855
102.682
126.494
133.575
134.713
126.329
91.4601
91.2975
170.523
156.285
123.612
104.136
87.4283
6365.29
5217.92
2403.53
1267.37
740.081
319.343
161.553
102.854
104.333
98.24
56.7819
46.2182
46.1101
41.1256
116.103
156.273
137.79
114.881
101.384
88.022
2253.62
1919.91
1601.35
1237.02
976.908
787.629
469.336
303.01
227.306
161.253
122.843
109.939
107.336
110.984
160.42
136.25
119.557
105.256
99.7221
89.0583
1954.53
1623.35
1227.37
949.632
804.241
564.08
482.081
360.397
286.317
213.91
172.983
142.7
127.622
119.022
112.519
105.222
100.546
96.3558
94.1884
86.6663
2407.85
2040.5
1557.16
940.231
709.773
486.725
396.812
306.739
244.128
194.908
158.872
132.275
113.749
101.592
93.3328
88.1942
84.9568
83.1912
81.6631
77.79
762.809
3042.75
1736.29
761.554
617.996
427.726
340.595
268.74
219.792
185.45
154.547
135.085
117.199
105.728
96.3133
90.7766
86.566
84.261
82.3706
81.5177
5104.24
4259.16
2070.32
903.482
633.883
417.604
308.49
222.303
181.252
155.47
138.347
127.306
117.317
111.364
105.176
101.561
97.9073
95.7288
94.8489
95.4311
1673.04
2898.89
2415.64
1507.68
915.183
561.159
362.94
261.54
196.382
164.087
142.549
132.852
125.687
123.707
122.128
121.981
121.449
121.409
121.545
122.141
1137.65
2264.29
2011.06
1465.39
1045.77
699.535
440.428
298.939
220.51
186.305
164.852
153.066
141.557
134.422
129.552
128.58
129.216
131.144
135.121
140.259
2493.9
1934.38
1546.78
1278.88
946.304
663.789
461.217
335.978
252.873
198.416
161.988
138.709
120.947
105.303
89.2971
75.6729
67.343
64.6288
64.7337
65.6799
412.969
2750.97
2655.85
1820.85
1057
702.355
511.771
421.541
334.817
262.768
213.071
193.046
185.165
182.861
182.558
183.587
185.064
188.312
197.687
196.527
2044.98
5539.78
3767.05
2804.98
1682.75
1415.56
1203.75
1083.2
837.742
649.296
505.714
434.192
406.853
402.203
403.734
409.617
413.056
414.442
418.806
412.603
1457.47
6628.03
3755.59
1943.68
1550.07
1402.41
1232.74
1141.99
928.037
780.773
618.905
496.027
417.119
367.954
335.5
309.477
293.145
279.013
274.454
267.829
7425.63
5396.02
3688
2571.32
2238.48
1863.01
1445.97
1182.54
890.029
699.845
530.824
422.653
344.978
293.244
256.453
232.224
217.289
207.685
203.455
194.787
15762.1
10019.5
4680.06
3331.18
2684.12
2163.01
1538.52
1172.06
871.077
691.053
545.082
457.415
389.13
339.956
291.118
247.735
217.92
201.514
194.104
187.445
4439.42
5265.4
3631.19
3090.88
2561.63
2124.1
1547.97
1197.85
932.704
777.842
667.583
595.828
544.853
509.751
464.708
382.128
283.752
226.397
208.164
199.581
1007.77
1552.81
2561.3
3285.19
2964.62
2281.84
1628.55
1231.09
957.678
800.117
683.84
597.679
527.262
490.51
461.956
415.568
344.709
274.928
232.447
219.518
471.124
5087.34
4959.62
4201.56
3155.6
2562.45
1866.44
1310.91
929.383
716.763
608.907
528.155
469.82
433.241
456.794
405.395
320.65
259.559
231.393
220.854
3473.45
4458.19
3240.94
3179.89
2753.45
2248.96
1784.03
1294.46
895.513
689.93
600.731
550.322
504.61
464.858
461.867
431.403
316.121
250.296
227.119
219.104
1825.18
3982.78
3781.1
2859.51
1954.38
1654.55
1382.04
1092.24
860.11
756.376
701.442
662.585
581.416
465.746
436.639
424.261
334.113
264.627
240.46
229.735
5888.68
7098.82
4734.77
2545.61
1597.15
1176.34
824.398
705.048
681.37
661.16
604.431
524.718
443.499
299.477
295.926
347.931
326.965
284.116
263.895
245.668
18382.9
7700.33
4328.94
3122.55
1622.31
1087.93
911.795
804.867
680.688
542.265
414.056
371.219
326.669
311.52
308.775
309.799
293.192
274.24
265.935
252.581
7389.27
3863.66
3709.53
3449.98
2643.4
2057.53
1563.46
1201.8
831.046
601.954
463.782
393.778
371.688
355.304
329.267
301.895
285.981
276.609
272.124
257.865
3466.6
4819.41
3438.97
2667.24
2152.01
1535.87
1276.95
937.203
714.582
535.657
432.742
366.442
329.214
308.198
290.671
275.969
268.628
264.541
262.159
250.377
5729.54
6042.57
4096.38
2384.8
1832.55
1264.99
1045.39
809.182
632.447
507.202
410.536
348.761
303.73
276.441
256.409
246.067
239.093
236.292
234.303
230.051
1970.77
7306.51
4358.72
1917.12
1659.27
1091.28
895.867
692.473
565.083
477.793
400.947
356.737
314.106
291.003
268.982
258.379
248.381
244.966
243.965
244.714
3585.3
7552.91
5229.52
2190.65
1598.85
1048.43
810.393
586.154
485.844
415.185
371.679
344.632
322.374
310.87
299.203
293.626
287.439
285.327
285.36
287.418
5913.16
7524.61
5582.07
3211.14
1964.68
1337.66
873.563
674.945
513.919
443.43
390.192
367.485
350.236
345.329
342.783
343.719
345.33
349.057
351.382
355.948
2406.72
6076.8
4677.82
3163.69
1973.42
1450.08
964.284
773.012
596.106
534.152
463.343
435.181
400.784
384.41
368.054
362.724
363.832
373.054
384.433
400.142
3242.04
3295.97
2624.28
2023.61
1472.72
1154.66
892.13
700.069
538.307
430.04
355.42
311.017
274.755
238.29
194.214
153.641
129.148
123.583
125.329
135.426
6487.18
4691.49
2499.46
1518.1
979.269
788.394
662.385
550.198
432.858
353.585
304.659
280.096
263.281
249.328
238.961
228.971
224.094
218.217
215
203.941
9583.92
10162.6
5468.99
3190.26
2241.53
2060.39
1733.41
1464.67
1122.55
920.481
761.24
677.503
626.141
601.973
589.693
583.734
575.644
569.697
559.241
525.337
12943
12333.9
6607.09
3088.92
2426.27
2131.26
1779.8
1567.09
1253.22
1050.36
841.943
697.917
593.737
522.981
475.82
439.431
416.386
396.802
389.235
377.522
12821.4
9752.45
5540.34
3591.92
2992.82
2450.87
1894.85
1547.7
1186.33
947.392
734.381
592.585
484.994
414.912
366.267
334.363
314.604
302.013
295.055
287.401
22358.6
14062.2
6713.27
4661.96
3580.36
2725.65
1938.09
1489.77
1141.66
922.069
741.988
619.973
523.179
451.783
390.819
343.845
313.026
295.268
284.747
278.034
8891.48
8307.64
5893.71
4788.35
3711.03
2838.54
2023.47
1563.77
1242.69
1037.01
885.526
773.269
687.464
611.151
534.303
450.28
377.667
334.271
310.742
297.248
5647.12
7124.32
6461.73
5224.95
3898.64
2943.12
2111.74
1603.89
1273.36
1061.21
906.931
793.416
704.707
642.616
581.38
512.413
440.504
380.714
344.985
328.351
799.597
7647.41
6752.04
5433.07
4028.38
3212.6
2490.44
1759.46
1286.04
1014.87
856.37
738.464
656.054
598.465
563.666
484.729
410.106
363.781
339.585
329.595
11280.6
6629.31
5187.19
4069.66
3393.37
2906.84
2472.88
1788.5
1287.02
1013.4
857.479
751.893
667.142
605.728
569.137
474.149
385.206
343.377
326.281
321.39
3365.99
6771.25
5321.09
3409.26
2495.54
2175.25
1944.81
1558.04
1272.62
1081.22
950.52
825.151
683.742
583.646
555.937
474.797
394.235
352.267
334.735
326.592
21576.3
11547.4
6206.89
3272.22
2249.09
1709.19
1374.81
1179.8
1052.29
964.733
667.115
478.806
405.224
376.61
418.362
426.725
393.007
368.211
352.347
338.964
27047.9
8831.7
5596.67
3757.33
2359.98
1741.47
1540.66
1252.9
1007.3
812.392
687.425
603.448
515.871
450.421
386.716
388.718
378.298
372.231
366.327
350.765
8763.73
6864.52
6390.72
5224.39
3718.14
2807.26
2218.14
1597.39
1085.79
809.327
639.714
551.18
505.123
461.77
424.632
400.111
390.143
384.006
376.61
354.747
10860.5
6337.41
5317.27
3940.7
3034.42
2107.25
1708.77
1222.69
916.808
695.378
575.652
498.757
454.013
427.161
404.324
388.034
379.184
372.648
365.688
348.452
6384.44
8712.41
5396.92
3191.01
2504.14
1692.29
1415.75
1075.17
843.993
670.099
552.59
474.772
423.853
392.172
370.478
358.53
350.655
346.251
343.044
340.536
14629.2
11905.7
5446.29
2697.07
2218.59
1409.12
1210.87
912.786
760.93
635.587
543.402
484.837
436.255
409.917
387.259
376.979
367.428
365.46
365.444
368.29
7084.07
10618.4
6377.63
2925.86
2103.7
1368.15
1094.75
801.853
679.336
583.29
525.836
490.05
463.083
450.414
438.393
434.097
428.913
428.974
429.775
433.587
10791.4
10096.1
6533.65
3636.29
2349.25
1690.61
1187.14
914.404
712.011
622.366
555.1
528.675
507.656
504.008
502.889
506.683
511.858
520.741
525.571
531.158
9372.58
7809.16
5115.02
3601.15
2466.25
2025.49
1398.7
1110.2
821.841
718.6
612.916
578.374
533.392
516.104
503.001
503.783
514.173
538.407
559.055
580.567
9952.83
4125.89
2603.55
2007.7
1609.1
1308.86
1026.59
813.195
645.367
532.865
453.548
394.907
341.928
288.645
238.619
198.975
176.98
167.631
166.096
166.72
4277.64
6313.72
2903.31
1715.27
1200.57
930.606
734.515
584.33
474.253
404.232
360.875
329.677
308.086
287.159
273.058
252.481
241.166
219.883
207.368
176.607
34232.6
20402
7919.44
3968.76
3129.55
2690.3
2183.98
1773.01
1418.36
1220.56
1060.94
969.021
900.018
851.607
819.666
790.752
762.029
734.631
694.656
644.819
18842.1
12941.1
7073.26
3845.35
3313.81
2647.88
2251.79
1906.22
1562.5
1302.57
1079.4
918.62
801.496
711.714
650.724
599.813
568.28
541.327
527.786
514.445
11222.9
11141.8
7733.37
4526.41
3787.62
2893.92
2309.55
1855.96
1472.9
1175.78
941.045
766.813
645.042
559.249
502.841
463.426
440.288
424.998
415.827
410.821
26997.5
11800.7
8073.79
5356.42
4305.24
3025.37
2281.28
1748.39
1412.18
1143.83
948.96
789.073
674.417
583.476
516.348
466.551
436.251
417.335
405.301
401.831
23445.2
9756.2
8161.42
6054.66
4686.92
3263
2420.5
1878.13
1554
1292.39
1115.86
954.72
834.671
722.676
630.725
548.774
494.592
460.929
437.645
427.32
2972.67
8929.93
8459.76
6259.76
4714.71
3339.92
2473.91
1884.16
1554.03
1297.48
1129.47
986.954
879.416
783.84
696.347
615.657
553.156
509.175
481.664
470.718
8663.63
10169.4
8054.27
6151.3
4819.47
3683.92
2869.38
2023.19
1543.99
1241.4
1058.76
919.287
818.782
734.2
664.538
583.368
527.383
496.779
478.975
474.812
35272.2
9525.62
6224.01
4442.65
3891.74
3315.3
2859.13
2049.32
1539.7
1237.75
1041.89
903.481
798.394
722.32
649.278
548.628
492.915
470.724
462.071
461.934
11536.4
9198.91
6316.2
3822.53
2964.92
2512.99
2285.59
1864.47
1554.44
1308.93
1106.02
916.284
761.443
697.298
646.21
553.526
497.674
475.12
465.662
461.389
10460.1
10962.6
8366.18
3966.58
2826.09
2104.98
1770.15
1533.73
1358.39
1206.47
927.575
652.212
514.247
509.681
544.047
532.957
505.572
490.796
479.981
471.797
22902.7
9584.3
6627.7
4070.26
2976.9
2238.48
1990.22
1566.87
1263.06
1052.39
902.791
760.016
634.829
539.507
493.407
517.545
512.887
507.438
497.413
480.739
13299.2
9017.61
8214.6
6260.04
4543.51
3284.43
2634.64
1788.91
1253.06
967.342
788.824
695.374
629.481
576.899
558.757
538.36
530.957
520.063
506.133
483.426
33030.3
9252.27
6945.34
4627.92
3768.54
2432.01
2052.68
1403.39
1101.5
831.347
726.611
635.962
597.797
565.229
544.076
526.104
515.956
505.72
495.077
481.539
16918.6
15154.1
6595.28
3736.7
3104.88
1982.42
1754.83
1287.29
1053.79
820.631
705.105
610.495
563.113
527.44
507.892
494.785
488.035
485.107
483.605
484.802
17522.5
13112.8
6397.16
3330.64
2697.35
1654.05
1505.46
1099.77
967.393
791.117
704.366
626.993
582.251
552.556
533.639
525.207
518.898
520.21
521.953
529.212
13722.2
12187.8
7200.45
3497.43
2570.51
1608.77
1360.27
983.132
880.328
753.668
701.019
654.121
630.475
616.528
608.695
607.054
605.589
608.557
611.376
618.172
9304.56
10566.7
7608.97
3946.38
2762.25
1906.44
1461.37
1093.91
911.672
803.966
744.78
713.788
698.599
697.649
700.83
711.495
722.119
736.256
743.237
749.488
13583.7
7109.97
5024.28
3586.86
2853.98
2352.45
1721.85
1332.38
1006.23
879.738
766.298
738.664
699.451
691.842
689.779
701.798
730.616
761.491
785.317
806.862
8049.34
3310.7
2080.62
1780.3
1554.4
1274.84
1003.18
797.632
640.28
532.802
454.278
388.236
328.192
273.707
233.937
208.811
197.263
191.308
190.054
187.671
2125.35
4579.57
2791.63
1639.85
1256.3
901.031
678.292
534.345
449.396
395.106
359.831
328.954
302.385
269.663
235.868
200.933
173.876
149.872
136.497
120.887
19502.5
12400.7
8725.49
4159.49
4333.47
3048.96
2919.98
2126.17
1953.41
1645.87
1577.86
1430.1
1370.45
1249.85
1195.07
1118.87
1076.03
1010.63
952.658
894.631
18064.2
12128.9
8456.66
4386.25
4419.08
2924.44
2927.55
2215.25
2039.33
1598.84
1470.4
1233.86
1151.59
1010.75
950.641
871.759
837.259
795.2
776.936
762.391
25540.6
16749.6
10543.4
4992.85
4839.94
3200.4
2975.1
2166.98
1927.7
1437.98
1272.12
1021.03
927.923
805.113
757.271
704.049
685.63
664.854
653.886
649.769
19996.7
12983.7
9924.85
5612.21
5260.31
3173.82
2813.69
1979.23
1814.11
1401.27
1273.22
1028.24
939.828
808.505
754.842
698.288
678.075
658.475
650.942
652.636
20847.1
11100.3
10010
6324.93
5756
3451.34
3029.27
2212.98
2008.93
1611.56
1461.2
1212.76
1081.24
924.52
831.891
754.094
722.837
700.538
685.361
682.8
13823.7
10525.8
10061.4
6475.29
5733.13
3555.78
2906.47
2160.43
1918.73
1575.88
1447.48
1249.41
1146.91
1002.61
904.817
822.063
780.722
753.871
742.111
743.026
15588.2
11010.2
10601.6
6794.9
6027.74
4114.64
3229.8
2273.11
1856.1
1520.04
1354.87
1191.44
1086.99
967.114
879.014
794.803
758.179
747.212
741.472
744.176
22141.9
11510.6
7342.66
4972.63
4575.04
3665.41
3214.32
2305.5
1843.12
1520.19
1312
1158.21
1050.78
955.236
859.169
763.629
728.704
720.14
722.039
724.673
24720
11314
7891.28
4337.1
3612.33
2779.4
2644.42
2239.31
1925.45
1606.49
1319.98
1092.95
998.938
958.924
872.912
777.047
732.29
718.446
714.274
709.293
20849.2
14842.6
9830.31
4387.85
3676.56
2438.9
2158.87
1953.97
1789.91
1533.18
1233.93
918.745
791.612
827.718
820.691
773.838
744.352
727.994
722.917
716.428
22775.2
11953.4
8271.59
4740.69
3723.76
2623.64
2397.53
1922.8
1633.32
1390.42
1169.41
978.512
876.182
806.219
776.18
778.837
763.228
745.075
734.404
720.443
10554.5
10698.9
11371.1
7173.65
5756.61
3574.93
2967.06
1924.75
1506.03
1173.27
1047.4
931.837
883.844
823.066
821.507
790.232
774.585
753.001
738.113
721.285
33850.6
14340.8
9139.2
5412.83
4788.62
2720.2
2611.89
1586.06
1421.31
990.787
978.19
834.36
841.909
788.901
786.544
755.046
751.076
734.858
729.631
724.913
86563.9
30063.6
9054.78
4565.91
4029.06
2297.13
2292.48
1518.21
1390.68
1003.04
951.962
806.5
792.461
741.606
736.675
719.609
722.74
724.144
729.046
739.674
20777.5
13063.1
7534.85
4350.24
3416.25
2073.52
1986.05
1314.95
1308.19
985.369
973.021
825.762
825.684
770.378
777.847
763.366
772.598
776.167
783.625
797.555
20904.7
12914.9
8541.16
4465.02
3235.22
1978.71
1778.5
1186.99
1199.72
967.185
978.68
879.268
891.515
857.355
871.652
866.718
878.937
885.794
893.373
904.612
23543
14167.2
9284.82
4630.33
3402.73
2109.81
1878.3
1242.91
1241.6
1020.61
1049.62
962.091
993.073
967.01
998.975
1004.52
1032.43
1046.97
1058.5
1066.29
11179.3
8068.95
5280.35
3812.44
3553.19
2395.94
2203.62
1437.94
1337.57
1062.45
1049.02
976.838
991.562
982.139
1010.98
1035.45
1087.5
1119.06
1144.3
1161.09
2516.72
2009.36
1761.46
1607.09
1360.94
1085.83
840.76
658.733
527.38
418.171
336.816
275.314
236.832
212.091
198.9
190.266
187.467
185.422
184.136
178.996
980.5
1016.62
784.205
1253.44
1113.87
1172.08
910.114
858.319
717.261
590.549
1069.61
937.469
822.96
670.256
736.66
815.384
722.743
1142.08
900.496
1009
906.578
524.418
697.667
630.494
808.496
615.831
872.551
764.509
308.048
374.666
216.605
1359.47
1171.63
1263.53
1079.25
177.489
188.815
137.939
1062.95
814.713
990.344
784.283
115.74
130
125.291
741.882
602.683
741.679
661.967
102.27
124.434
116.248
570.149
516.87
639.382
591.741
106.588
116.754
132.019
506.291
483.911
586.406
577.224
107.659
136.315
139.371
475.891
453.001
571.594
537.235
107.105
138.83
128.195
444.848
420.957
520.677
455.737
83.64
122.031
85.6837
414.054
403.992
434.609
400.075
189.555
192.222
97.2712
1100.51
982.155
649.61
586.863
129.536
90.5129
99.1429
910.681
739.787
582.713
595.67
125.675
107.498
130.46
711.05
659.288
603.982
615.896
124.779
133.563
140.166
642.728
610.998
614.117
598.444
139.229
141.473
143.955
607.709
599.872
588.904
552.588
145.064
143.899
140.126
593.203
552.852
538.714
489.399
129.905
137.982
120.096
533.074
452.289
469.704
364.204
84.2383
104.344
49.4964
424.455
387.984
318.45
268.819
93.6257
164.816
93.5877
605.973
562.865
636.187
608.111
94.8907
89.0138
87.6536
556.099
560.39
594.366
541.828
123.026
87.5958
82.6246
565.655
572.014
523.95
458.016
132.647
77.2122
55.9618
570.289
550.643
429.116
342.64
135.102
51.5033
50.8822
538.733
499.287
324.857
303.638
129.214
53.9063
66.9718
485.889
439.307
302.874
292.889
108.321
67.1916
53.1863
422.226
321.281
282.526
237.292
45.9991
46.4718
42.206
275.712
241.398
234.555
252.143
104.115
286.609
157.173
677.871
671.83
904.23
876.977
103.292
155.411
146.738
655.759
592.968
848.547
733.348
103.021
138.283
108.894
572.475
496.586
685.032
540.643
63.6498
99.4243
77.0448
459.95
352.101
497.797
401.182
47.4682
74.6316
71.2981
331.084
301.225
384.178
335.105
46.551
67.7821
54.7319
294.188
263.423
322.877
295.484
40.7181
53.9856
62.626
255.687
245.715
294.948
304.51
49.0775
67.754
64.0242
252.199
272.356
307.802
300.581
1435.85
1585.02
1285.57
2332.38
1890.22
2059.22
1680.83
980.986
1183.33
945.647
1697.12
1310.47
1561.34
1288.16
729.957
893.06
783.192
1208.86
999.791
1219.2
1054.53
617.728
753.251
691.258
946.292
834.142
1010.26
910.853
563.649
680.705
653.926
803.986
732.709
885.256
811.433
516.562
642.617
593.346
710.11
651.294
785.371
699.635
473.612
572.299
499.991
633.095
587.91
669.946
593.856
443.533
479.326
442.191
575.829
547.58
577.26
550.166
1175.43
891.21
758.973
1828.75
1565.61
1327.91
1175.71
897.232
743.727
727.506
1466.91
1243.09
1136.99
1050.68
779.929
727.106
718.5
1189.81
1052.82
1028.67
960.534
710.026
711.232
678.6
1014.52
926.737
945.548
806.038
675.319
661.265
603.28
901.854
824.673
757.673
633.948
606.247
583.517
519.668
796.025
699.813
602.037
516.373
492.363
494.794
380.286
665.49
575.996
486.86
407.338
429.657
341.332
302.491
557.753
538.758
399.617
417.175
721.214
850.388
766.097
1249.72
1114.83
1289.89
1148.17
684.076
740.252
659.156
1077.29
992.774
1093.34
946.534
668.323
633.964
551.779
970.552
902.991
904.489
785.118
623.581
519.817
431.343
889.261
743.909
748.324
657.315
544.07
412.373
384.726
692.07
561.878
634.46
579.079
464.952
379.484
354.517
525.552
445.508
560.292
496.939
336.445
339.834
294.436
423.491
362.484
473.883
420.315
275.95
290.289
284.971
355.823
382.667
406.626
362.896
834.544
1223.25
1075.75
1400.58
1222.41
1783.63
1501.5
710.065
1025.31
858.638
1158.96
987.381
1399.65
1121.51
582.039
797.23
627.405
937.319
794.537
1035.18
819.795
435.329
581.167
473.012
750.93
649.245
769.145
643.525
380.231
451.623
391.055
626.504
573.694
613.292
532.729
336.466
377.853
348.938
555.528
497.066
517.429
479.913
309.022
347.631
348.989
479.131
439.158
473.715
449.521
304.651
349.358
328.203
426.513
376.564
441.631
402.647
1985.41
2170.11
1769.64
2773.31
2200.49
2414.52
1988.88
1390.89
1648.33
1371.02
1991.63
1584.88
1866.04
1579.75
1070.45
1299.05
1123.7
1479.18
1247.49
1501.24
1301.56
891.402
1076.11
965.509
1182.84
1036.11
1244.63
1100.54
777.3
935.363
848.142
995.342
893.92
1057.88
936.325
687.017
818.05
723.573
863.365
784.702
896.864
788.284
618.724
692.745
619.093
762.119
706.001
758.403
696.072
571.198
603.752
573.931
689.706
640.033
682.675
642.409
1658.23
1452.12
1286.48
2201.84
1891.61
1750.54
1568.58
1329.39
1242.41
1139.53
1789.79
1551.09
1514.24
1379.07
1123.12
1112
1028.53
1485.13
1306.22
1339.82
1226.76
1098.36
1044.45
1072.94
1141.93
1041.23
1101.24
1134.22
948.672
920.719
943.773
993.748
911.811
959.015
986.012
719.242
565.251
496.558
893.415
770.682
626.448
536.326
599.184
472.863
422.697
736.876
673.867
517.902
507.634
562.856
422.478
447.277
663.473
635.566
515.716
541.044
1222.54
1423.26
1251.33
1675.8
1501.61
1743.07
1517.04
1079.54
1189.06
1026.34
1448.48
1317.34
1438.57
1243.43
969.95
980.271
852.709
1279.69
1172.68
1189.32
1048.11
896.305
906.707
891.277
1015.38
845.484
871.982
955.364
638.12
616.926
682.686
519.061
637.272
471.3
688.151
418.21
607.463
532.31
560.221
481.172
727.476
621.299
376.419
507.494
448.211
468.189
461.253
590.944
513.856
411.567
430.939
379.531
467.05
506.164
491.598
445.071
1325.21
1955.68
1604.05
1890.09
1585.58
2316.56
1843.8
1062.11
1489.95
1184.59
1492.65
1261.24
1697.26
1334.48
856.261
1092.68
869.7
1197.61
1034.25
1233.98
1004.03
711.366
818.95
689.813
989.746
882.493
953.79
815.057
625.188
657.342
572.619
851.084
756.036
777.947
685.845
535.619
556.539
514.807
722.904
630.738
667.178
611.326
467.089
506.4
474.495
604.905
534.191
597.128
547.76
391.637
464.573
420.633
511.451
451.256
534.433
486.729
2255.05
2488.69
2057.83
3117.89
2430.92
2726.94
2298.97
1644.71
1935.31
1646.55
2231.57
1849.12
2178.97
1889.66
1304.57
1566.66
1359.34
1750.75
1506.01
1807.58
1574.44
1084.57
1298.9
1142.67
1433.41
1267.64
1500.61
1304.12
935.428
1096.07
965.024
1224.46
1108.97
1246.82
1094.37
821.558
923.506
814.596
1074.32
988.456
1050.98
960.867
740.045
786.371
728.751
965.751
899.447
942.928
897.528
664.29
715.228
666.351
875.813
794.107
880.3
808.59
1965.66
1843.89
1655.27
2538.25
2224.16
2121.48
1943.81
1623.02
1599.59
1459.44
2127.13
1884.17
1893.22
1759.7
1366.04
1417.52
1292.23
1810.6
1587.48
1710.37
1534.18
1154.71
1242.69
1041.93
1513.39
1309.52
1461.75
1253.83
962.801
960.514
759.107
1247.77
1077.03
1176.59
946.221
792.628
701.376
578.922
1026.65
926.097
876.249
743.103
706.944
557.316
548.7
910.906
881.835
733.438
755.349
661.167
558.058
575.472
869.826
808.383
763.758
757.147
1588.21
1844.1
1599.05
2052.01
1877.46
2138.32
1871.46
1398.18
1517.35
1316.81
1828.73
1703.78
1788.91
1596.66
1241.04
1261.63
1117.15
1657.94
1493.88
1543.22
1377.77
1012.53
1076.04
964.946
1430.71
1230.21
1322.59
1164.58
709.488
927.412
805.338
1151.94
918.083
1111.98
950.694
534.367
764.094
650.408
848.066
709.441
899.536
785.497
502.908
618.771
540.95
696.099
712.072
762.511
710.763
541.281
519.798
475.478
721.195
728.831
697.094
663.397
1664.53
2439.35
1908.22
2294.53
1921.27
2720.52
2087.57
1327.65
1753.63
1378.95
1816.89
1579.01
1912.38
1536.82
1097.86
1277.97
1050.11
1517.89
1343.93
1447.16
1234.23
937.895
1000.01
857.211
1287.51
1133.58
1176.72
1025.6
796.434
819.195
726.492
1085.69
947.849
990.445
902.448
662.016
706.967
646.606
904.877
809.445
877.467
810.934
561.776
631.145
579.172
787.62
728.815
795.475
747.063
480.319
565.815
515.387
710.708
663.263
732.133
682.506
2498.43
2825.78
2401.17
3585.13
2808.91
3227.16
2832.46
1937.32
2282.75
1997.63
2638.31
2329.01
2715.04
2449.06
1594.35
1915.66
1672.21
2239.36
1957.41
2367.1
2092.58
1354.43
1593.06
1383.12
1885.8
1729.78
2000.6
1758.94
1193.32
1323.14
1166.1
1691.48
1551.52
1691.81
1515.72
1072.61
1123.45
1044.76
1519.39
1440.15
1475.94
1431.03
980.747
1030.58
985.315
1423.06
1334.19
1420.55
1358.99
865.088
966.136
883.559
1307.17
1210.3
1335.06
1240.38
2333.5
2226.18
2063.45
3049.63
2784.48
2615.16
2545.36
1999.71
2017.59
1891.02
2693.37
2472.11
2510.33
2409.01
1687.38
1839.86
1642.35
2394.31
2120.77
2353.09
2105.69
1385.2
1561.3
1334.52
2022.75
1758.7
1998.18
1719.28
1142.41
1255.23
1016.14
1683.54
1483.01
1629.57
1350.31
1007.63
944.453
827.707
1435.93
1394.11
1276.44
1218.3
973.243
827.829
861.52
1396.4
1354.43
1244.72
1272.23
885.152
866.919
844.509
1333.36
1241.88
1267.5
1216.2
1997.78
2251.21
1985.24
2568.48
2484.83
2683.23
2467.16
1837.11
1904.96
1720.68
2452.22
2362.86
2386.01
2225.98
1606.07
1667.62
1492.25
2311.32
2079.94
2170.31
1955.3
1313.93
1429.52
1251.52
1979.45
1704.69
1871.39
1646.63
991.358
1194.05
1021.24
1612.68
1327.48
1575.27
1364.89
794.29
968.12
865.095
1250.22
1184.87
1307.03
1251.58
821.056
849.901
809.227
1209.44
1236.99
1250.74
1205.64
818.777
796.48
757.086
1233.65
1193.47
1189.45
1145.47
2026.94
2814.71
2151.97
2836.76
2486.68
3189.32
2481.88
1692.28
1970.85
1609.55
2375.16
2168.45
2274.54
1985.13
1452.61
1527.79
1318.73
2114.01
1893.8
1922.96
1689.17
1220.87
1254.38
1104.79
1811.43
1610.19
1584.47
1471.41
1022.72
1071.41
985.952
1549.2
1373.74
1442.45
1346.69
892.924
957.062
893.889
1326.04
1282.62
1291.57
1256.34
823.855
879.503
834.991
1269.53
1211.49
1242.12
1198.6
755.855
818.182
766.556
1191.39
1141.92
1168.18
1134.67
1060.94
1011.18
975.999
1028.62
1008.06
1063.92
1023.74
1080.08
1047.9
967.905
1062.07
1023.06
1109.11
957.881
1029.03
937.563
871.558
680.679
979.39
978.739
788.819
1151.06
1198.63
1203.98
1247.96
1153.75
1191.9
1201.36
1110.28
1072.58
1158.31
1110.03
1112.44
1068.23
1156.64
1131.97
1106.06
1226.8
1106.84
1168
987.932
1183.05
1081.33
710.559
1075.28
1016.94
1025.53
821.67
1132.91
909.161
890.012
844.055
887.195
877.977
923.541
869.66
888.102
896.128
658.178
607.419
858.847
929.756
553.998
834.436
779.335
609.246
524.301
816.05
792.432
519.546
982.799
1032.99
1025.79
1062.3
993.563
1025.33
1014.76
938.405
912.951
981.907
916.661
953.657
893.271
966.482
922.634
632.887
1016.61
762.292
970.787
578.899
961.061
864.264
539.572
846.936
719.773
813.975
537.572
904.335
815.287
813.481
733.405
603.23
786.313
709.697
747.231
872.443
839.124
780.914
880.25
806.323
906.553
845.723
832.621
735.937
750.114
785.544
770.719
794.108
814.642
972.004
1070.99
1099.61
1088.72
942.942
1023.01
1051.82
890.991
650.227
1001.16
922.75
768.341
816.544
990.763
941.004
944.374
1040.99
973.493
973.904
909.821
1007.78
900.392
846.954
925.146
939.728
859.031
877.935
968.592
599.368
555.539
559.345
422.041
595.82
411.175
555.931
723.037
703.182
674.117
757.647
672.72
757.669
730.644
690.769
616.839
652.56
677.852
644.752
657.548
704.643
696.457
560.885
737.09
855.785
507.743
751.371
793.696
650.095
453.102
661.318
679.256
443.349
600.46
734.171
779.399
816.091
881.212
836.966
818.798
784.967
836.968
741.448
722.379
749.062
801.069
702.685
754.092
793.105
495.054
671.973
503.983
1036.5
983.712
1083.6
1040.14
319.768
381.968
300.066
846.673
704.075
922.158
752.356
223.793
242.179
203.057
591.355
518.517
623.929
539.449
180.901
176.464
164.747
457.215
417.763
477.694
446.379
156.884
157.53
152.341
388.727
369.704
425.562
408.983
139.715
148.162
144.621
347.633
328.734
391.41
376.992
124.286
141.482
139.331
311.674
303.542
363.468
355.743
92.4463
137.775
120.317
290.965
306.631
345.152
374.009
716.073
667.926
577.868
1274.14
1257.5
1216.54
1220.48
621.768
435.347
455.191
682.975
648.772
658.804
356.018
446.007
231.066
214.116
483.931
440.807
483.784
186.923
331.378
140.35
134.719
323.459
296.212
353.553
123.741
275.725
104.073
107.126
240.176
231.441
288.043
102.105
281.206
103.722
101.638
229.776
231.732
276.63
104.434
296.221
107.108
111.083
241.781
243.157
294.048
112.887
296.475
107.567
117.361
251.257
251.402
297.959
117.707
274.058
104.901
114.709
255.426
253.78
279.504
111.652
135.33
172.751
140.388
360.216
373.002
364.547
393.555
426.02
441.842
325.088
948.985
978.765
779.673
656.847
415.36
247.008
270.867
481.675
485.978
425.616
214.845
314.852
153.461
133.296
423.66
392.588
332.467
120.614
325.765
123.629
110.04
343.668
343.304
309.932
113.728
355.991
125.848
129.217
349.182
346.073
354.696
130.884
369.44
128.373
134.944
346.788
355.337
362.978
138.281
379.557
144.834
147.524
374.021
373.988
380.263
147.949
348.92
141.733
144.547
358.874
347.771
360.442
141.694
254.37
111.826
119.694
291.079
270.33
281.991
106.54
129.819
120.962
103.448
337.329
375.061
272.704
313.598
275.31
355.031
266.601
657.263
575.505
652.039
578.313
226.559
129.918
167.204
245.96
226.961
243.392
127.425
239.061
86.9762
85.4365
228.846
239.821
230.669
84.5675
262.615
110.974
90.291
292.467
308.354
260.696
92.1799
265.919
129.601
97.3871
332.655
335.954
263.708
101.036
270.68
134.721
108.394
335.952
335.083
269.524
110.391
279.678
133.894
117.824
326.862
322.802
280.042
118.216
259.017
123.39
115.075
299.805
291.191
267.755
112.158
119.934
71.9541
76.8802
194.317
151.585
152.197
60.3302
87.6326
96.3933
82.1415
211.716
272.745
216.772
243.19
253.984
357.309
343.45
593.155
595.469
669.595
682.248
285.587
127.96
165.66
256.345
261.971
265.593
136.743
342.844
102.647
117.614
296.638
301.003
335.735
118.147
330.994
104.962
119.545
297.011
293.517
338.94
118.892
240.358
86.5723
103.406
250.685
216.103
274.109
90.9892
175.289
52.1803
66.5748
141.208
130.082
178.084
65.297
119.942
46.2214
51.0006
117.267
111.41
139.972
45.3426
89.7366
44.584
37.3417
92.0503
88.3317
90.1065
37.0189
154.047
44.7597
44.4085
98.9681
126.13
129.646
54.4899
93.0682
126.782
101.932
241.241
251.224
258.816
267.512
361.932
467.77
345.642
822.334
856.296
823.199
889.209
265.367
295.324
260.547
818.253
728.703
857.461
721.341
197.368
224.352
183.944
612.744
536.263
603.642
515.287
137.669
152.894
133.1
442.06
377.389
434.711
359.53
116.317
119.306
105.293
335.303
308.162
321.035
293.817
107.067
100.466
97.7348