/*--------------------------------*- C++ -*----------------------------------*\
  =========                 |
  \\      /  F ield         | OpenFOAM: The Open Source CFD Toolbox
   \\    /   O peration     | Website:  https://openfoam.org
    \\  /    A nd           | Version:  10
     \\/     M anipulation  |
\*---------------------------------------------------------------------------*/
FoamFile
{
    format      ascii;
    class       volScalarField;
    location    "6.8";
    object      nut;
}
// * * * * * * * * * * * * * * * * * * * * * * * * * * * * * * * * * * * * * //

dimensions      [0 2 -1 0 0 0 0];

internalField   nonuniform List<scalar> 
12920
(
0.170735
4.77737
2.96649
2.82064
2.15883
2.11114
1.46926
1.08962
0.75895
0.62361
0.498631
0.447781
0.415879
0.403536
0.390017
0.383984
0.373244
0.367507
0.365584
0.355957
0.232517
8.26038
3.90462
4.29921
3.14268
2.63512
2.05659
2.0675
1.6084
1.31921
1.02545
0.896886
0.822628
0.855956
0.876138
0.918098
0.929631
0.929314
0.948726
0.974299
0.88128
8.31808
5.4055
6.24084
3.17433
3.54713
2.48424
2.37243
1.78728
1.51412
1.19481
1.02526
0.902792
0.862096
0.807406
0.756332
0.709836
0.667211
0.650509
0.650068
1.27232
6.54468
6.5344
7.40458
5.13058
5.14607
3.16544
2.66984
1.88905
1.5344
1.17751
1.0258
0.855834
0.779536
0.690483
0.638891
0.591017
0.559239
0.543484
0.543978
1.22522
10.4214
7.14007
7.66734
5.33066
5.73276
3.63961
3.11799
2.13769
1.77117
1.34397
1.15808
0.979508
0.877083
0.73855
0.639672
0.570093
0.535929
0.51736
0.523076
1.37009
9.23477
6.70134
7.53505
4.8089
4.94742
3.32904
2.77279
2.09565
1.81518
1.53878
1.38011
1.26444
1.19743
1.07776
0.884633
0.688383
0.575868
0.531303
0.544001
0.197923
4.27299
3.739
5.51804
4.62843
4.78637
3.58773
3.02605
2.26938
1.94494
1.61808
1.41602
1.22287
1.11971
1.02073
0.91732
0.778111
0.639586
0.558289
0.557771
1.3631
10.4396
7.3409
8.77027
5.55352
5.53615
1.48683
1.02189
0.746531
0.601782
0.525405
0.47078
0.417051
0.371562
1.28776
1.0837
0.845792
0.671972
0.581816
0.569203
1.72136
8.83057
7.50178
7.81936
5.99147
2.44461
0.691833
0.354436
0.219189
0.161004
0.161398
0.172105
0.170499
0.161344
0.505032
1.38447
0.987105
0.723626
0.600695
0.574795
0.126891
3.13998
5.80948
7.69747
5.09591
1.88837
0.433197
0.218676
0.157811
0.161578
0.163144
0.189916
0.195965
0.168612
0.442075
1.34469
1.06056
0.777676
0.645371
0.603689
3.08969
7.12793
7.88561
7.63798
4.21189
1.59698
0.319342
0.147815
0.158527
0.175276
0.173021
0.167245
0.155455
0.117239
0.253717
1.06696
0.986351
0.795956
0.676355
0.606883
16.5978
16.0329
8.49612
8.0551
4.0389
1.85377
0.305854
0.177483
0.162565
0.147213
0.0829908
0.0601612
0.058327
0.0556785
0.356904
1.03089
0.89711
0.751981
0.66287
0.612428
4.96939
10.0206
5.05075
5.48732
3.77056
4.14627
1.13147
0.980955
0.740243
0.638008
0.475726
0.439719
0.388982
0.395161
1.18671
0.98243
0.83314
0.724353
0.673462
0.633906
8.33102
9.018
4.35781
6.92459
3.79389
5.34278
3.15569
3.9888
2.3796
2.23839
1.54549
1.37192
1.09794
1.01585
0.897359
0.824691
0.749604
0.705842
0.670972
0.645107
5.2174
10.1682
6.65254
6.88549
3.89714
4.96101
2.74075
3.15386
1.97179
1.87323
1.39792
1.24835
1.02034
0.91834
0.815007
0.755993
0.70071
0.671606
0.644723
0.634847
2.48779
12.4166
7.67692
6.21497
3.67302
4.64534
2.54873
3.68338
1.85471
2.04787
1.37063
1.33585
1.04699
0.978043
0.841039
0.792143
0.729291
0.700224
0.67105
0.68422
5.84094
14.5705
6.95829
6.78275
3.92479
4.59454
2.43816
3.35324
1.61037
1.80121
1.27412
1.28858
1.07355
1.04021
0.931204
0.888237
0.821754
0.78841
0.765162
0.787409
2.9518
8.59908
9.54129
8.6947
5.34728
5.32381
2.73507
3.22003
1.62583
1.67521
1.20939
1.22272
1.05847
1.06662
1.00183
0.994078
0.955046
0.936442
0.920033
0.93346
6.88728
8.8685
9.27988
8.55807
5.31973
5.417
2.62838
2.45991
1.56704
1.55892
1.24706
1.22363
1.06337
1.01867
0.94521
0.923405
0.891103
0.888462
0.902777
0.942954
4.41598
9.80081
5.72644
7.10017
3.75118
3.31254
1.94148
1.5931
1.1082
0.928082
0.732055
0.64274
0.547312
0.478323
0.400111
0.342048
0.30806
0.302127
0.305192
0.314455
1.22861
12.6323
15.1103
8.82704
5.32685
3.77307
4.00003
4.48249
3.74086
3.22271
2.62954
2.47322
2.36591
2.36925
2.35275
2.35955
2.34247
2.38969
2.41843
2.41109
6.62048
33.2437
31.918
24.9112
15.3095
14.9396
16.6803
19.4211
17.8751
15.6424
13.5668
13.3791
14.0827
14.6509
14.8095
14.9702
14.9354
14.818
14.7231
14.3151
2.00355
32.0629
34.2623
23.8796
21.0935
21.0235
20.5802
21.3482
18.9713
17.2689
15.0968
14.1968
14.3279
14.5178
14.2512
13.7255
13.3263
12.8581
12.6566
12.1909
15.7568
35.3197
32.2686
27.7167
30.3959
29.8944
26.5369
24.0731
20.4313
18.4331
16.2759
15.2289
14.3352
13.4151
12.4968
11.81
11.3587
11.1293
11.0612
10.7878
48.7949
47.1695
34.6617
31.1823
31.8672
32.4718
28.6168
25.4587
21.9375
19.8021
17.5353
16.3037
14.9518
13.9179
12.4795
11.2232
10.4807
10.2606
10.354
10.4524
21.3476
35.0714
29.0665
28.1227
28.2099
29.7088
27.5342
25.5389
23.0099
21.4172
19.8498
18.528
17.234
16.182
14.7478
12.1399
9.11955
8.10033
9.27361
10.3725
2.49001
12.8318
21.4272
28.244
31.8286
30.981
27.1308
24.6043
22.3764
20.9708
19.4482
17.7182
15.9596
14.9509
14.0262
12.5507
10.4826
8.75108
8.73279
10.118
1.96374
35.2199
39.5114
40.0748
35.8546
35.1808
25.9784
21.5164
18.7513
16.9044
16.2763
15.4846
14.4554
13.5888
14.9762
13.2178
10.6233
9.31312
9.77443
10.6322
5.12805
22.845
29.0002
36.2438
35.2429
28.9871
23.0808
19.6215
16.5248
15.2605
15.8521
16.2778
15.8711
14.9235
15.0083
14.1923
10.6842
9.55638
10.1297
10.7424
4.16148
30.6447
38.8217
38.7439
29.1804
23.7933
19.5903
16.6856
15.5438
16.4275
17.1116
17.3372
16.047
13.628
13.8706
14.4891
11.6272
9.93229
10.2995
10.7465
16.5983
40.916
51.3824
35.1895
25.2974
18.9986
13.789
13.8704
15.8408
16.3272
15.2615
13.0584
11.0851
7.8342
9.00942
12.2794
11.7257
10.5421
10.3768
10.6902
39.2185
40.0091
36.8324
34.7884
22.5774
17.1522
15.4793
16.8479
16.4978
13.8658
10.9734
10.105
8.52568
8.8263
11.1094
11.8919
11.2071
10.5755
10.5029
10.7944
13.5443
24.7564
28.4899
31.7374
30.9631
31.3275
24.7217
22.1787
18.6937
15.8338
14.9213
13.9744
13.5397
13.5047
13.9264
12.6161
11.828
11.4297
11.2253
11.0459
16.4213
29.3382
30.9262
30.1685
30.2509
27.9006
26.6481
22.3457
19.8668
16.7923
15.3792
14.0894
13.4717
13.0443
12.4353
11.8545
11.4584
11.2276
11.1345
11.0221
19.3517
48.1331
43.8019
33.5139
31.0276
26.7779
25.014
22.0202
19.1387
17.0043
15.0798
13.9857
12.9689
12.3431
11.6731
11.4361
11.1466
11.0974
11.1162
11.2773
7.92351
47.8728
50.0007
31.1494
31.3873
24.5755
23.1367
20.2966
18.2937
16.7318
15.2253
14.4749
13.5364
13.1764
12.575
12.4095
12.0923
12.0987
12.2087
12.3192
7.21351
39.67
51.0827
34.5489
31.1692
25.1549
22.4221
18.781
17.0252
15.7344
14.9817
14.5579
14.1754
14.0547
13.8475
13.8224
13.7131
13.725
13.7969
13.8475
18.7381
48.965
52.2862
41.0861
28.3135
23.8044
19.5123
18.6251
16.6273
15.8953
15.1119
14.8517
14.6227
14.65
14.6921
14.8114
14.9449
15.1118
15.2126
15.3061
16.2585
41.3754
37.4416
28.4951
19.4698
17.9269
15.8974
16.5674
15.9784
16.0616
15.1918
14.8342
14.3271
14.1678
14.0151
14.1111
14.2899
14.6488
15.0626
15.4737
6.57004
22.7868
23.2466
25.1973
15.7327
17.2367
11.1701
10.7176
7.41883
6.53085
5.04635
4.53238
3.84589
3.34466
2.67864
2.1552
1.8315
1.7805
1.79654
1.96322
12.9613
35.9039
17.0489
13.3607
9.85033
9.14533
7.3813
6.75494
5.32299
4.69608
4.00125
3.75509
3.47073
3.28909
3.1055
2.97293
2.86803
2.75233
2.64745
2.54247
26.3046
37.8809
44.2779
38.3446
30.4398
31.8511
32.4121
31.9909
28.2982
25.7763
23.4066
22.4354
21.6463
21.1195
20.6816
20.3715
19.9212
19.5074
19.0275
17.8144
23.9277
36.3981
42.5202
40.3373
39.6024
38.9875
36.4702
34.4318
30.2103
27.7276
25.303
23.9789
22.917
21.8929
20.8156
19.888
19.1819
18.4589
18.0999
17.4106
30.7654
54.6852
49.6094
43.3989
46.0535
45.5243
41.0199
36.6346
31.9687
29.1146
26.3383
24.3556
22.1282
20.3377
18.7887
17.7328
16.9923
16.5228
16.2586
15.9114
57.6664
66.7468
54.5413
50.5254
50.9359
49.5866
43.8025
38.7443
34.0437
30.7717
27.5356
25.1082
22.6272
20.6547
18.7156
17.3091
16.4422
16.0338
15.8519
15.6587
33.1832
53.3407
47.6924
51.3315
52.0134
50.5794
45.011
40.394
36.3602
33.2545
30.3582
27.6385
25.1046
22.6933
20.1348
17.4566
15.6895
15.5634
15.9772
16.1248
14.3018
43.7865
41.7266
46.4053
51.7996
50.9179
45.0566
40.3469
36.3403
33.2736
30.319
27.5002
24.8759
22.8184
20.7424
18.5201
16.5996
15.8914
16.0578
16.5142
3.69832
47.2713
52.1115
57.0707
54.3364
52.8095
45.9803
38.9158
33.8868
30.5176
28.4174
26.138
24.0073
22.1315
20.7587
18.2947
16.6519
16.2052
16.3679
16.6003
29.4688
48.7611
56.7724
56.599
53.3272
48.6581
44.2084
37.4904
31.6116
28.7396
27.5068
26.0564
24.2005
22.4295
20.8859
17.7978
15.8965
15.5879
15.7784
16.0789
13.3716
49.9723
60.3285
57.593
48.2216
42.5578
37.8401
32.7939
30.106
28.7835
27.3825
25.0607
21.8793
19.6737
19.5458
17.6638
15.8719
15.414
15.378
15.6797
50.7574
53.9292
68.7987
55.8044
45.6077
37.9362
31.8427
30.0024
29.0694
28.3847
9.03724
7.04601
7.98274
9.45674
13.1759
15.6543
15.2589
15.1568
15.1774
15.5999
78.3569
61.9597
60.4922
53.8561
43.5947
37.4742
34.5691
32.7909
29.1698
24.7834
21.2663
18.4389
15.7699
15.1544
14.1149
14.9368
15.098
15.5906
15.839
16.2131
29.4252
47.4101
48.3089
50.6242
48.8787
49.1741
44.3235
37.8676
30.9485
25.9935
23.3039
21.2266
20.3065
19.3353
18.199
17.4212
17.0965
17.0611
16.9574
16.7105
42.9858
44.8075
51.2412
50.0215
49.1751
46.2298
42.3873
35.9338
30.593
26.5422
23.9631
22.1535
20.8417
19.9853
19.0338
18.3084
17.8565
17.5764
17.3663
17.08
14.0232
58.502
60.5238
51.8807
49.4873
43.6368
40.13
34.8639
30.2989
26.8792
24.1398
22.3496
20.8758
19.8869
18.973
18.4946
18.0843
17.8906
17.793
17.8253
44.0764
59.9563
67.8881
52.1111
48.944
39.9247
37.1191
32.154
29.0031
26.3848
24.1633
22.8567
21.4771
20.8209
19.9928
19.6652
19.2272
19.1335
19.1229
19.2008
28.9365
70.3676
74.3349
54.65
46.5188
38.992
34.9073
29.9885
27.2924
25.2935
23.9394
23.1931
22.5045
22.2462
21.8582
21.7392
21.4889
21.4507
21.4255
21.4112
31.6675
64.1112
67.4572
53.6655
39.6256
36.4668
32.3182
29.6116
26.2537
24.6766
23.297
22.7847
22.3395
22.3299
22.3432
22.4937
22.7026
23.0335
23.1971
23.2434
39.9494
57.1502
49.6798
40.1112
31.1793
31.0384
28.2158
27.4834
24.0871
22.4342
20.4206
19.8476
19.1023
19.0097
19.0396
19.3366
19.7705
20.6545
21.3449
21.9336
16.8083
28.9787
22.943
25.1145
19.9041
20.2873
14.0487
13.2726
9.1299
8.15843
6.4331
5.75803
4.80881
4.09044
3.3437
2.84499
2.56245
2.45733
2.43403
2.49106
13.027
45.2646
21.0019
23.1958
15.0334
13.3944
9.11691
7.71524
6.19744
5.61984
4.93133
4.5439
4.09938
3.77592
3.45752
3.09509
2.8524
2.48756
2.29587
2.02154
64.8446
61.3679
56.8117
50.3416
44.9086
44.0158
40.4557
33.3113
32.0057
27.4227
26.3631
23.8894
22.7238
21.5794
20.647
19.5047
18.456
17.218
15.9724
14.6127
42.9733
58.2882
61.1395
55.2652
53.0792
49.2988
44.4389
40.4751
35.8377
31.0644
29.2
25.6932
24.5091
22.6839
21.4548
20.4531
19.66
18.9712
18.4683
17.9758
51.3807
64.975
63.8811
58.976
58.8579
54.9281
48.1103
42.5463
37.2559
32.9215
29.6125
25.8221
23.4726
21.3955
19.5429
18.4035
17.5281
16.9731
16.6426
16.3987
62.5749
78.4392
72.4101
67.0012
64.9142
58.7435
50.5789
44.1351
38.7196
34.3437
30.473
27.1206
24.2994
22.0929
20.2093
18.7821
17.6187
16.8759
16.3565
16.0538
56.9325
69.2515
68.0403
71.492
68.4215
61.6501
52.9601
46.7361
41.7042
37.2684
33.5589
29.9478
26.9227
24.0133
21.3298
19.5163
18.6688
18.1047
17.3698
16.8493
9.83065
41.2674
57.3256
67.6901
68.3882
62.4163
53.87
47.2509
41.9707
37.6536
33.8739
30.4921
27.5456
25.0404
22.4729
19.9775
18.7316
18.3688
18.0715
17.788
25.1639
51.3385
62.211
72.0442
68.4276
63.677
56.5185
47.9259
41.3552
36.2795
32.6344
29.2724
26.6036
24.1732
20.9266
19.6774
18.9786
18.5736
17.9968
17.719
66.5404
61.07
73.3058
69.4768
65.2172
59.9842
55.477
46.438
39.4759
34.3321
30.5905
27.329
24.8289
22.9705
20.1064
17.5135
17.455
17.3485
17.0853
17.0503
43.6958
63.0406
75.3392
68.8953
59.427
53.5393
48.7959
42.2792
37.3343
33.1427
29.2161
25.1378
21.5677
20.1878
18.5989
16.789
16.7699
16.8373
16.7413
16.8474
45.7428
76.447
77.7157
68.8382
58.0417
49.8531
43.7644
38.9368
34.7137
31.1802
15.8377
11.8943
11.3987
12.8106
14.8046
15.7566
16.376
16.5474
16.5245
16.9238
80.748
74.5159
75.4264
67.2666
58.194
50.9436
46.3551
40.0047
33.553
28.585
24.8066
21.2993
18.2196
15.5259
13.9446
15.6224
16.8702
17.475
17.2593
17.3318
33.5306
60.6887
65.8334
68.2035
63.601
59.8593
53.8841
43.6929
35.0062
28.2934
24.547
21.8353
20.1891
18.6228
18.0174
18.5705
18.8788
18.9588
18.2455
18.0296
78.4196
62.7596
68.3599
64.6915
61.7461
55.509
49.0912
40.8512
34.207
29.9242
26.5796
24.4739
22.8371
21.8063
20.9866
20.3786
19.9384
19.577
19.2072
18.6373
51.3029
75.1762
71.8184
64.0004
59.468
51.3377
46.4056
39.3721
34.57
30.4573
27.3692
25.1618
23.4623
22.2548
21.2876
20.6054
20.0361
19.6713
19.3879
19.118
57.0174
78.008
76.3312
62.3247
56.1444
46.3178
42.4243
36.3889
32.9872
29.8121
27.2837
25.6306
23.9794
23.0908
22.07
21.5788
20.9724
20.7106
20.5477
20.5338
51.0753
79.9458
79.0999
63.099
52.5336
44.4405
38.9519
33.6943
30.8398
28.6207
26.9483
26.0295
25.0431
24.593
24.0221
23.7549
23.3161
23.0932
22.9401
22.8977
17.7202
65.8455
70.9296
59.7145
47.3119
43.3242
37.3409
33.0179
28.9615
27.2884
25.5498
24.9723
24.355
24.3296
24.242
24.4392
24.5889
24.8383
24.9288
24.9506
55.5387
59.6444
54.3991
45.7735
39.4978
39.2617
34.4213
30.7489
25.4726
22.9923
20.7513
20.3773
19.817
19.1149
19.4946
19.527
20.3864
20.9359
21.4909
21.9153
18.3997
28.4399
21.5692
23.6364
21.438
20.0209
14.0417
12.3678
8.82436
7.61511
6.0951
5.24113
4.32546
3.63739
3.12965
2.87483
2.74896
2.69138
2.68202
2.68338
4.44101
30.8303
13.6414
22.7848
7.42052
11.1207
4.04162
3.67361
2.57274
2.37087
1.99494
1.81536
1.59533
1.41579
1.23165
1.0781
0.95171
0.851528
0.789234
0.784884
49.7691
61.746
37.2895
55.6296
31.7607
39.0229
21.4978
19.3243
15.1959
14.5842
13.1051
12.4418
11.6077
10.8548
10.3925
9.97096
9.67144
9.3578
8.96269
9.49113
54.9095
74.4903
44.4232
60.8934
33.2517
43.4478
24.2927
25.1369
18.3012
16.9967
14.3131
13.0281
11.785
10.7974
10.1934
9.63395
9.26573
9.03312
8.90046
9.66437
46.9384
80.8106
75.6253
68.9349
46.4121
52.8355
27.4364
25.5308
18.4186
15.9054
13.0888
11.3933
10.1865
9.35114
8.83559
8.50552
8.25465
8.16342
8.06641
8.86753
38.136
83.5887
83.2985
77.1864
44.5358
49.5825
28.2181
27.6093
19.7956
17.7843
14.3404
12.3629
10.7581
9.70116
8.99598
8.56353
8.26789
8.18161
8.08502
8.80845
61.604
50.9738
81.5935
81.9016
57.9005
60.577
31.4619
28.7934
22.0145
19.0932
16.1805
13.8748
12.118
10.6536
9.71225
9.15065
8.78436
8.57554
8.38528
9.11595
44.826
69.34
67.0348
84.2717
47.5041
55.245
34.6998
31.0258
23.5994
20.5882
17.2259
15.1259
13.2058
11.7375
10.515
9.72215
9.24773
9.07759
8.8972
9.58457
52.2069
51.2185
55.209
82.8091
52.2478
55.2105
52.6815
45.867
38.7278
32.8453
28.8111
25.198
22.4813
19.8078
10.4255
9.61678
9.20485
9.08306
8.97398
9.6742
61.897
63.4062
69.248
76.6636
44.6604
62.8614
55.4218
45.3053
37.002
30.6132
26.0952
22.9771
20.8337
19.1075
16.9471
9.44551
8.91189
8.81021
8.73715
9.41168
61.4996
70.8014
55.555
71.9841
38.9232
54.8849
49.148
40.3477
33.8511
28.5251
23.7834
19.8139
18.0013
17.5955
16.3526
9.57618
8.89271
8.70243
8.61167
9.27425
45.4726
83.0607
69.3498
72.8583
38.7842
51.1348
44.2681
35.7566
30.7112
26.5947
21.5741
16.452
13.805
14.6981
15.1855
9.6546
8.99953
8.8101
8.69189
9.32488
55.1943
81.6138
52.158
73.4233
34.8142
53.5131
45.923
35.7252
28.9647
24.4712
20.7864
17.6739
15.8262
14.664
14.5264
9.86691
9.31786
9.09351
8.86575
9.4175
21.4921
64.6271
69.1401
79.4411
43.4169
48.1636
51.7713
40.8982
31.1419
25.1899
21.6828
19.5872
18.1597
17.1397
10.7724
10.0202
9.59085
9.30185
9.03905
9.5619
55.6813
75.2533
48.8998
70.316
36.1424
56.2231
27.245
39.5062
19.8765
21.7655
14.5264
14.5191
11.9896
11.6402
10.5179
10.1823
9.66275
9.4862
9.26222
9.89408
111.898
91.6826
50.6934
69.4081
33.386
50.7812
23.7216
37.18
18.511
19.2245
14.0305
13.5347
11.6939
11.2535
10.5148
10.1884
9.82771
9.76428
9.67922
10.4177
49.4194
85.052
62.0571
61.5669
34.1733
44.9466
21.952
34.8867
17.0688
22.9072
13.9491
14.9499
11.9739
12.1417
10.9982
11.0248
10.531
10.5999
10.5201
11.3435
39.3635
83.9715
66.1223
63.0272
32.3248
42.5141
20.1879
31.3463
15.6165
20.8503
13.85
15.2195
12.8858
13.255
12.3468
12.3536
11.9128
11.9206
11.8258
12.6125
64.776
62.0116
69.3108
61.7901
39.1483
41.6678
22.2274
29.2776
15.5935
19.5175
13.7736
15.1103
13.2185
13.8156
13.1464
13.4132
13.1246
13.2833
13.2527
14
32.7765
57.8156
56.5483
49.8879
31.9845
38.4201
20.5071
22.6397
13.2713
13.3143
10.7147
11.0948
10.2953
10.7008
10.5687
10.9532
11.2565
11.6533
11.9236
12.766
9.59894
12.4532
9.28771
22.4381
8.36745
11.6675
5.20435
5.0204
3.19444
2.73369
2.00586
1.71203
1.43095
1.32508
1.23694
1.20704
1.18244
1.17996
1.1809
1.20413
27.7747
28.1329
8.72574
32.9632
30.4081
31.0256
9.05129
25.75
7.81148
8.17673
29.4998
26.6156
8.24631
9.29697
10.1632
24.6588
21.6017
31.329
10.7226
28.7441
25.3628
7.57762
20.6932
18.1557
9.57884
8.3939
24.2136
20.938
0.396027
0.517431
0.270716
13.581
13.868
13.9199
13.6788
0.236823
0.233976
0.172582
13.6417
12.3411
13.0694
11.9489
0.164183
0.163654
0.160098
11.9444
11.1148
11.9563
12.3747
0.156586
0.160298
0.156149
11.0374
11.4257
12.4008
12.6888
0.170575
0.160208
0.187521
11.7063
12.2651
13.0473
13.8837
0.171624
0.194828
0.199812
12.3687
12.4033
13.9864
13.6746
0.164225
0.19878
0.182246
12.3418
11.9601
13.4178
12.1712
0.122247
0.172819
0.119481
11.8018
11.8667
11.7464
11.5078
0.248089
0.350884
0.165088
13.1366
12.9088
8.36727
8.98532
0.163927
0.150275
0.151976
12.3177
11.4034
9.49255
11.4912
0.159876
0.161234
0.182311
11.5903
12.5056
12.1269
13.2871
0.161646
0.182718
0.181569
12.6481
13.0851
13.3832
13.4808
0.18402
0.180496
0.178978
13.3261
13.8191
13.323
12.5032
0.196548
0.177868
0.173149
13.8304
13.366
12.1645
11.0705
0.178791
0.170566
0.153498
13.0589
11.5757
10.6691
8.55906
0.116281
0.135184
0.0663049
11.0491
11.0409
7.59489
7.1592
0.162562
0.316126
0.165232
8.35871
9.28194
9.37003
10.8536
0.149771
0.154535
0.143813
9.74982
11.4612
11.2468
11.7934
0.174865
0.140588
0.124497
11.9565
12.6685
11.7377
10.4892
0.174155
0.114526
0.0784478
12.7196
12.599
9.80805
7.85518
0.169108
0.0705495
0.0641443
12.3935
11.5068
7.52401
7.36143
0.159225
0.066778
0.082411
11.153
10.0708
7.41563
7.21939
0.137024
0.0828622
0.0689004
9.69797
7.52928
6.93063
5.57732
0.0619028
0.0609409
0.0590685
6.51408
6.40627
5.58934
7.58919
0.183277
0.483685
0.286196
9.85491
11.8555
11.5197
13.8082
0.16474
0.279698
0.242371
12.2288
12.5699
14.2069
13.8324
0.154353
0.226916
0.186808
12.4785
11.2804
13.3451
11.6711
0.0939743
0.174223
0.139511
10.5021
8.20887
11.1183
10.2606
0.064042
0.135921
0.131795
7.87227
7.53197
10.3319
10.298
0.0586005
0.123286
0.0928493
7.37588
6.51441
10.0393
9.0815
0.0536244
0.0893839
0.101642
6.21113
5.93707
9.01898
9.58753
0.0706669
0.109465
0.103771
6.44833
8.45553
9.828
10.5524
20.5007
21.2485
18.6381
39.4199
35.7864
36.0904
31.9757
17.1469
17.7248
16.0365
33.7061
29.2989
30.5348
27.7157
15.3916
15.9532
16.1676
28.3241
26.2512
27.2502
26.3517
15.6197
16.1824
16.5302
25.9173
25.3959
26.1027
25.6826
16.2817
16.8666
17.5288
25.3053
24.7097
25.6138
24.9873
16.0608
17.5572
16.961
24.4111
23.2897
24.6079
22.9581
15.1957
16.5831
15.0302
22.8675
21.6226
22.2962
20.4741
14.1463
14.5664
13.7807
21.202
20.1801
20.0767
19.5467
17.5092
13.8754
13.1681
33.5432
30.3327
27.3808
26.2888
15.4035
13.6215
15.4935
29.1375
27.081
26.3139
26.6797
16.3099
16.0807
17.1133
26.8878
26.4475
26.758
26.4009
16.8975
17.1606
16.8618
26.2703
25.794
26.0937
16.015
17.4183
16.4456
14.8942
25.6054
24.541
14.5191
12.2385
16.5078
14.3536
12.813
24.0046
21.9375
11.9376
11.267
14.1912
12.281
9.90732
21.148
19.0656
11.1304
10.6367
13.1895
9.01368
8.56626
18.6864
18.8436
10.7433
12.5744
13.4537
14.9771
15.4959
27.3248
26.3806
29.0472
28.6592
15.4193
15.7498
15.8687
26.3451
26.3523
28.271
26.6348
16.3325
15.6782
14.055
26.2743
25.3651
25.947
23.2785
15.7399
13.255
11.0414
25.411
15.7772
22.3008
19.5638
13.6101
10.6397
10.2006
14.1255
10.9864
18.8172
16.8065
11.5642
10.0978
9.40347
10.3228
9.39856
16.1179
14.119
8.72807
8.9252
7.60273
9.42133
9.31111
13.4955
12.5562
7.79558
7.66583
9.17299
9.36234
11.1117
12.53
12.0853
16.612
19.0915
19.4535
30.147
29.8474
30.1116
33.9383
16.7488
19.5213
18.2966
29.4287
27.4716
32.921
29.1654
14.7723
17.5539
15.3153
26.6431
23.6405
27.8386
24.3211
11.3657
14.6415
13.4716
22.5584
19.825
23.3616
21.229
10.3575
13.4443
13.014
19.2124
17.5196
20.8114
19.3002
8.91937
12.6607
11.5595
16.8464
14.8104
18.8121
17.6662
8.19836
11.4869
12.0632
14.2999
14.0496
17.5627
17.6865
10.1256
12.3159
12.4773
14.1877
13.3216
17.6728
16.9651
39.6377
40.3246
35.6665
53.4233
47.5342
49.0583
43.7468
32.7371
34.1575
31.0611
45.0819
39.7786
42.035
37.9603
29.2599
30.4412
29.0579
38.3587
34.9023
36.8542
33.9449
27.7915
28.662
27.7567
33.832
31.4077
33.0388
30.5511
26.489
27.4924
26.3478
30.6407
28.4541
29.7656
27.3637
24.6814
25.8264
23.8865
27.7263
25.8585
26.5336
24.1045
22.868
23.184
21.4349
25.3097
23.9059
23.4037
21.9751
21.2123
21.0825
20.4883
23.4634
22.1737
21.6987
20.8962
34.0398
31.8945
30.254
46.6962
42.3412
41.9319
39.0458
30.4628
30.0834
29.7719
40.8636
37.4464
38.2006
35.804
29.1173
29.6307
28.6438
36.5242
33.829
35.0425
32.6758
30.0702
28.4556
28.8897
30.7723
28.4649
30.2642
30.8151
25.9618
26.9222
26.1883
28.6129
25.4038
27.9605
26.9498
22.6996
8.68916
9.62217
25.6405
22.89
9.82354
10.8977
19.9579
9.85892
10.5796
22.1118
20.7543
11.2785
12.852
19.7832
11.0568
13.5635
20.603
20.4174
13.5859
15.964
30.241
33.5919
32.3087
41.6181
38.6723
43.1394
39.7665
29.3477
31.6817
29.4321
37.7523
35.111
38.4047
34.4318
27.6268
28.5872
25.6509
34.2842
31.75
33.1843
29.7639
15.615
17.3744
25.836
25.182
21.1886
3.5156
27.1593
8.20695
8.38725
12.8536
1.66532
11.8107
1.57424
8.74074
7.55982
17.3346
15.1469
8.12093
9.16474
19.9495
17.4362
9.08441
14.5563
13.5858
9.63953
11.2083
16.7672
14.9184
11.9351
13.3579
12.4665
11.8271
14.5592
14.347
13.3846
33.4655
36.7967
37.5706
44.5644
40.7332
40.5932
44.4779
30.171
36.2341
31.8097
39.2604
34.8091
42.3507
36.4159
25.8852
30.3267
26.4517
33.4083
29.5932
34.5888
29.7956
21.9743
25.4087
22.9688
28.4697
25.5397
28.5164
25.3551
19.2085
22.4242
20.667
24.6603
22.0418
24.5578
22.3609
16.28
20.1612
19.013
21.1669
18.8714
21.8311
20.5493
15.2803
18.894
18.693
18.2763
16.5049
20.2469
19.0404
13.7381
18.5502
17.5734
15.8775
14.1247
18.6343
17.287
48.8832
50.8993
45.1915
55.2535
49.0232
52.0532
44.9608
41.0138
43.3966
38.962
46.497
40.5578
42.8654
37.55
35.5343
37.7137
34.3277
38.513
33.5326
35.9468
31.741
31.4792
33.2707
30.3653
32.0889
28.5383
30.4807
26.9543
28.1048
29.4577
26.7961
27.3861
24.7176
25.869
22.9175
25.3854
25.9086
23.4043
23.9491
22.1266
21.9825
19.8491
23.4111
22.7274
21.4051
21.5874
20.2604
19.4615
18.683
21.7117
21.1325
20.2688
19.8172
18.3178
18.4135
17.1699
43.8549
44.1607
40.6104
50.0954
43.6983
46.0206
40.0386
38.4496
39.5217
36.459
41.7985
36.8659
38.3158
33.9642
34.1545
35.5429
32.9011
35.3642
31.5648
33.0121
30.1566
30.2148
31.6149
17.3633
30.3248
26.8088
29.0431
24.7866
26.1485
15.6589
13.5575
25.6983
22.5648
23.1007
18.7998
22.3173
13.2309
12.7099
21.518
18.9741
17.6155
14.8043
20.3386
12.7785
13.8041
18.5838
18.0954
14.5
14.9388
19.8705
14.396
16.1697
17.9445
17.0031
15.2145
15.4896
40.1032
45.1526
40.8326
45.4117
39.0929
46.065
38.9704
35.6688
39.2252
34.7416
37.2887
32.9069
36.8145
31.5199
32.0315
33.3885
29.9706
32.0022
29.4359
30.1309
27.3812
17.8136
28.9742
25.8164
28.4525
24.2618
26.5386
23.7984
12.491
24.704
21.4123
22.5704
18.2579
22.8307
19.9105
11.299
20.4083
17.7322
17.0535
14.1125
18.8563
16.1029
12.3184
16.9618
14.8781
13.7353
14.0239
15.5079
14.3341
14.9356
14.3083
13.4385
14.2956
14.8548
14.0866
13.5946
41.732
47.4733
45.3881
47.4096
39.7961
47.1711
43.8006
35.0438
43.0782
36.7913
37.54
31.7621
41.1952
34.1328
29.6769
34.8588
29.7895
30.1814
26.7798
31.9035
26.773
25.6963
28.4916
25.2178
25.9014
23.193
25.6004
22.4923
22.1742
24.3815
22.0936
22.2998
19.7682
21.5878
19.5927
18.9014
21.5589
20.1896
18.8709
16.698
19.1267
17.8375
16.1732
19.8201
18.4047
16.1733
14.9047
17.4506
16.3423
13.9778
17.9885
16.7437
14.5576
13.7143
16.0448
15.1563
47.8168
50.9289
43.5319
26.7291
21.4552
24.5461
18.4205
39.0916
41.4015
36.0282
19.6131
14.4296
17.5361
14.8024
32.0096
34.4051
30.0811
13.9592
12.1852
14.1488
11.7452
27.1808
28.7577
25.1304
11.6906
10.2915
11.0927
9.49775
23.6655
24.0533
21.265
10.2264
9.59705
9.12693
8.41251
21.3264
20.4843
19.0652
9.47589
8.92627
8.39793
9.502
19.5558
18.8406
18.2238
8.96439
8.57258
9.46815
9.24836
17.6748
17.9449
16.7086
8.54769
7.95317
9.16489
8.5819
42.2901
44.9002
38.4856
22.5877
17.6718
21.8474
15.5767
35.3599
36.7783
32.6844
16.9675
14.6852
15.1799
13.5777
29.8345
31.6039
28.3491
13.8825
11.4939
12.8255
10.7342
24.8838
27.1445
23.4422
10.82
9.1372
10.0909
8.29346
20.7453
22.0369
18.1098
8.72153
7.86167
7.83301
6.70279
18.14
16.8986
14.4818
7.79532
8.96985
6.48567
7.68817
17.7631
14.463
15.2361
9.45451
9.29571
8.71288
9.29988
16.6011
15.4541
15.5118
9.2197
8.79585
9.23453
8.7767
37.4939
44.8065
37.1889
20.1456
15.0286
19.8591
14.6768
31.7458
35.1036
30.319
14.6948
13.2399
14.2909
12.8595
27.6797
29.0567
25.8931
12.5009
10.4951
12.205
10.2907
22.9672
24.9603
22.1299
9.84995
8.19429
9.72409
8.36629
17.6842
21.1858
18.4067
7.752
6.60403
8.02007
7.25047
13.8887
17.4429
15.4878
6.38356
7.60401
7.19692
8.64353
14.4653
15.1649
14.4909
8.65981
9.25838
9.28754
9.14229
15.0006
14.3284
13.9036
9.19931
8.85051
9.04664
8.62133
37.9729
50.5734
42.1503
17.6137
14.9184
20.6236
18.8151
30.3613
39.5306
32.4149
14.4636
12.6592
16.7559
11.6531
25.4937
30.2209
25.6186
12.3363
10.4662
11.1935
11.3875
21.6574
24.5252
21.6573
9.91824
8.63971
10.6674
9.49937
18.4149
20.8493
19.1168
8.33987
7.78388
9.23686
9.51178
16.1626
18.6664
17.4847
7.80692
9.34207
9.08158
8.8379
14.9316
17.1184
16.1979
9.28326
9.1184
8.64955
8.75867
13.9731
15.9201
15.1418
9.02435
8.62526
8.48849
8.00947
29.0307
28.1233
26.9709
29.2076
27.7547
29.7574
27.9621
26.8783
28.8065
17.6282
26.1906
27.3971
30.397
4.93571
22.6125
22.3987
11.2945
2.27468
24.4962
20.4608
2.83238
31.1882
32.1751
32.1156
32.8611
31.4916
32.1541
31.8585
29.9807
30.0808
31.2776
29.268
30.811
28.706
30.6186
27.6254
26.51
32.4146
17.8769
31.5981
4.92401
30.1677
23.102
2.90216
23.735
11.3186
20.7511
3.15317
26.4274
24.8957
26.3737
23.7028
26.4509
24.5445
27.2307
23.9396
18.0767
20.9858
7.16183
2.00819
19.8641
19.1121
1.93096
17.0629
18.2016
7.0872
5.01273
18.8414
16.908
3.639
26.3685
29.3097
28.5667
27.9728
28.4951
27.5163
26.7176
25.1719
26.72
27.5989
24.2912
27.6223
24.1009
25.4792
18.1189
2.62861
21.9405
7.80998
19.2888
2.63449
20.4415
17.0753
5.08364
18.4455
8.25157
16.8656
3.4254
19.2955
11.1419
12.2006
14.2988
1.9852
16.6511
2.56152
9.51311
24.6256
24.9262
23.6074
26.5511
23.5216
26.825
25.4429
21.7516
19.8728
22.5844
23.1617
21.5365
19.7769
24.2908
16.4081
25.5823
19.0872
29.7202
3.85723
28.4577
24.0895
11.7039
2.80498
13.0198
15.8672
3.1321
10.065
18.6055
25.9113
27.9391
29.1645
27.6784
28.2668
26.8219
27.4988
22.8651
24.4118
22.9514
26.5349
20.7841
25.6117
25.0146
8.14721
7.41359
10.1833
3.45279
10.8525
1.71631
7.74085
17.2221
18.5485
19.8085
22.1157
17.3856
18.3999
21.095
16.3541
15.4361
18.9949
19.2057
16.3977
15.3786
20.1633
8.78276
2.43295
8.84344
14.297
2.37773
9.27024
13.2145
8.75566
3.74878
8.0348
11.6714
2.64326
8.37965
12.3356
18.0893
23.284
21.3333
23.0593
19.3252
22.1746
19.9298
17.1769
20.1388
17.7133
21.9799
16.1965
21.1586
18.7769
1.26004
1.50964
1.17802
8.07622
9.39744
8.39973
9.86975
0.881938
0.98709
0.822185
9.77117
9.07524
10.5254
9.87825
0.671337
0.68053
0.595214
8.44845
7.94155
9.31029
8.69809
0.559034
0.55061
0.527819
7.64333
7.3275
8.32782
8.53176
0.501054
0.509539
0.501341
7.22044
7.20913
8.798
8.91799
0.443423
0.495049
0.478477
7.19348
6.99449
8.93635
8.86666
0.389672
0.460823
0.445697
6.87055
6.89683
8.74322
8.63424
0.279967
0.430497
0.365979
6.69893
8.02752
8.38272
10.3659
1.82883
2.4206
1.60092
9.91649
10.6947
9.73628
11.3412
3.48457
0.561624
0.611789
3.20501
3.38583
3.14343
0.464136
3.76007
0.302773
0.276006
3.38728
3.22672
3.78397
0.241464
3.594
0.19322
0.180271
2.90403
2.74633
3.65033
0.167747
3.44793
0.154232
0.151952
2.56337
2.53065
3.50302
0.147944
3.96676
0.163672
0.156449
2.74605
2.81654
3.82074
0.163214
4.37456
0.173059
0.176673
3.16368
3.22192
4.30509
0.179318
4.50095
0.169335
0.183086
3.55988
3.59189
4.49755
0.181545
4.27537
0.157942
0.171479
3.90416
3.89065
4.3361
0.165556
0.396454
0.498508
0.40689
8.75038
9.95364
8.9664
10.9768
1.26012
1.82108
1.08034
8.58497
10.5179
7.17441
7.22215
2.97179
0.347393
0.418044
2.90836
3.372
2.61679
0.318314
3.02313
0.194861
0.188125
3.68891
3.64061
3.00399
0.167071
3.90692
0.15635
0.145673
3.87006
4.06482
3.55692
0.148494
4.59658
0.161904
0.166765
4.44517
4.45492
4.54619
0.168871
4.80945
0.167642
0.171699
4.57431
4.70244
4.7351
0.175265
4.85774
0.193829
0.187103
4.92135
4.92468
4.87259
0.188369
4.60047
0.193615
0.187941
4.82354
4.72593
4.69599
0.185668
3.79094
0.154823
0.160971
4.19296
4.0537
3.96227
0.144956
0.371782
0.335489
0.293317
8.39878
10.9009
6.87969
10.0201
0.969451
1.62524
0.924458
6.63142
6.85958
6.7208
7.17511
1.93976
0.235459
0.324598
1.81261
1.91482
1.80767
0.23418
3.06051
0.143893
0.146932
2.64246
2.9612
2.74773
0.141499
3.76193
0.166859
0.14254
3.98374
4.20296
3.72913
0.142598
3.67983
0.175514
0.137852
4.44661
4.47305
3.67081
0.138942
3.77285
0.172314
0.14138
4.45811
4.45361
3.72863
0.142257
3.90844
0.165548
0.146995
4.31091
4.25595
3.92427
0.146708
3.6153
0.152424
0.14143
3.99627
3.89276
3.74049
0.138365
1.70024
0.093594
0.0981445
2.68234
2.16339
2.11048
0.0786131
0.251749
0.277297
0.242646
5.46297
9.11236
6.05453
8.86886
0.900162
1.67889
1.07888
6.32228
7.25446
6.75234
7.63642
2.47784
0.234972
0.311789
1.97479
2.32765
2.0298
0.237489
4.08709
0.171767
0.196254
3.47684
3.71376
3.79892
0.193197
4.29207
0.160368
0.185952
3.96069
3.93315
4.36855
0.184101
3.31015
0.129712
0.162213
3.33272
2.88744
3.67659
0.143413
2.78478
0.0752495
0.105165
2.04793
1.94309
2.67096
0.102951
2.16691
0.0587622
0.0748865
1.95892
1.87432
2.53966
0.0641871
1.64218
0.0570359