/*--------------------------------*- C++ -*----------------------------------*\
  =========                 |
  \\      /  F ield         | OpenFOAM: The Open Source CFD Toolbox
   \\    /   O peration     | Website:  https://openfoam.org
    \\  /    A nd           | Version:  10
     \\/     M anipulation  |
\*---------------------------------------------------------------------------*/
FoamFile
{
    format      ascii;
    class       volScalarField;
    location    "6.8";
    object      p;
}
// * * * * * * * * * * * * * * * * * * * * * * * * * * * * * * * * * * * * * //

dimensions      [0 2 -2 0 0 0 0];

internalField   nonuniform List<scalar> 
12920
(
1.17299e+06
1.15043e+06
1.0117e+06
939597
832115
766828
680431
612243
537922
476007
413717
358741
305081
255376
207387
161914
117333
73302.4
28464.1
-15807.7
1.33113e+06
1.19151e+06
1.02052e+06
937084
827482
757110
672086
604414
531587
471068
409602
355129
301971
252807
205365
160538
116610
73165.4
28985
-14571.1
1.29973e+06
1.19195e+06
1.04671e+06
942198
827488
752065
663713
596683
522979
462682
401367
347883
296065
247993
201664
157930
115159
72612.7
29567.2
-13105.1
1.23347e+06
1.14896e+06
982247
912107
792003
721145
637199
573759
505545
447582
390223
338827
288722
242058
196829
153998
112418
71259.4
29456
-12450.8
1.18315e+06
1.12969e+06
965003
884732
773954
701442
617272
553188
486247
431829
376842
328027
279844
234897
190935
149124
108234
68710.1
28124.3
-12781.9
985939
1.0716e+06
877640
818988
710174
649424
575167
519527
461516
411282
361188
315056
269813
226889
184463
143800
104026
64981.1
25799.8
-13951.8
906895
953786
786306
756399
660019
603832
535563
487979
433783
388238
341432
299158
256944
217239
177025
137802
99477
61657.5
23407.3
-15126.3
707379
807471
711043
687410
586240
548003
510263
465658
418105
374287
331649
291381
252130
214736
168326
130812
94198.4
57952.3
21069
-16061.6
867661
718182
634872
620450
523492
518545
480112
434732
391483
350852
312220
275179
239268
204644
163693
122154
88189.8
53765.4
18403.6
-16987.6
763388
630098
548409
518490
445299
457060
427535
388574
351573
316469
282625
249912
218271
187337
152373
112497
81608.2
49397.7
15641
-18152.7
157719
399902
347355
388925
342831
377950
364535
337795
309238
280498
251953
224152
197014
170002
139227
104105
75592.4
45180.6
12946.9
-19370.2
396600
307968
266231
278775
243124
286674
286465
273742
257861
239959
222001
199596
177458
155016
128167
96810.6
69975.7
41226.2
10409.9
-20261.1
-256990
-9209.33
-7434.52
109256
119276
173212
182433
192643
191711
187450
179122
167975
153278
135872
110295
88529.1
64218
37451.2
8195.46
-20917.5
-87224.2
-85585.5
-31290
84169.5
68524.5
120014
117615
143368
139921
148342
142370
138710
127642
115845
98952
80462.1
58438.8
33826.5
6134.54
-21244.4
-396224
-279088
-169520
6404.86
3091.22
66991.9
79333.9
107337
113262
121345
121950
120939
113055
103399
89070.3
72654
52856.2
30054.3
4095.31
-21345.6
-611308
-406719
-257519
-63305.8
-36398
33547.6
48385.3
86811.5
88460.5
104196
103069
106397
99307.6
92620.2
79551.4
65239.4
47076.7
26095.5
1683.22
-21924.3
-684173
-374515
-242938
-108613
-66771.2
7654.37
25180.7
65457.7
71210.5
88444
89013.1
93133.6
87777.7
82270.4
70915.4
58063.9
41440
21850.8
-1158.19
-23119
-261928
-282039
-267972
-117123
-89780
-13512.9
339.962
45561
52369.4
73113.7
74848.2
81006.8
76757.9
72812.5
62748.5
51319.5
35877.3
17445
-4505.82
-25044
-655118
-290600
-260002
-119970
-99007.9
-24393.1
-12299.2
31003.9
39444.2
61279.6
64952.7
71920.2
69038.5
65888.6
56792.2
45954.8
31223
13487.7
-7860.01
-27423.8
40527.9
-136368
-211307
-109247
-97483.6
-28853.4
-15811.7
25023.8
34714.8
55469.6
59893.3
67030.9
65009.8
62191.9
53509.1
43020.1
28470.5
10963.6
-10061.8
-29554.1
1.20088e+06
1.14325e+06
1.00522e+06
938650
832563
764822
679240
612274
537877
476060
413874
358834
305144
255416
207407
161886
117285
73277.8
28477.9
-15765.6
1.20137e+06
1.18565e+06
1.01884e+06
937114
826759
756959
671765
604548
531468
470810
409627
355262
302049
252852
205352
160486
116560
73134
29035.6
-14237.6
1.34056e+06
1.19869e+06
1.04051e+06
939533
827053
752015
663528
596448
522672
462456
401300
347847
296043
247967
201617
157886
115113
72633.6
29770.8
-12529.6
1.08255e+06
1.14799e+06
977966
910433
791721
721328
637416
573726
505389
447831
390355
338911
288749
242046
196806
153994
112461
71331.7
29751.4
-11676.6
1.13724e+06
1.14246e+06
962232
885057
773547
700433
616560
553219
486500
431964
376910
328078
279831
234863
190903
149133
108353
68857.9
28476.9
-11981.2
1.00702e+06
1.08653e+06
873703
820458
709782
649337
574696
519801
461704
411413
361275
315109
269829
226828
184371
143749
104092
65234.3
26192.1
-13135.3
886398
945888
788087
757431
659073
604486
536053
488232
434075
388488
341650
299331
257028
217188
176892
137751
99530
61843
23841.6
-14323.2
726501
806372
710765
687079
585725
548476
510295
466186
418438
374653
331855
291548
252128
214576
167992
130720
94263.6
58185.9
21461
-15212.3
804410
706784
637008
620048
522771
519275
480618
435128
391798
351167
312450
275294
239356
204822
164093
122201
88306.3
54017.5
18779.8
-16141.3
726044
620019
548316
515104
445499
458044
427939
388451
351470
316396
282547
249817
218182
187385
152191
112561
81747.6
49634.8
16018.6
-17358.4
250742
403811
351074
387471
343238
378456
364929
337526
308698
279790
251572
223937
196808
169797
139359
104261
75723.2
45381.4
13278.4
-18538.2
473505
316796
267749
277960
243271
285911
285797
273305
257687
240185
220917
199227
177389
154987
128246
96966.7
70120.8
41404.7
10778.4
-19386
-323422
-14900.8
-10185.8
106830
117230
172481
181698
192132
191035
186899
179171
167973
153121
135743
110355
88618.8
64341.2
37669.4
8542.09
-19997.6
-140255
-96026.3
-29006.1
81050.9
67783.8
119829
117226
143198
140020
148808
142792
139029
127827
115943
99067.8
80596.1
58570.8
34000.3
6472.39
-20253.9
-390035
-285719
-173148
5665.99
1758.87
66449.5
79520.2
107124
113336
121380
122180
121154
113292
103592
89256
72824.2
53018.2
30242.5
4461.21
-20331.8
-514718
-398795
-262788
-68771.8
-37175.8
33349.2
49219.5
86941.8
88545.1
104315
103172
106623
99554.3
92855.1
79775.7
65434
47267.1
26302.8
2068.4
-20891.1
-659432
-418676
-261216
-107995
-67055.1
8188.3
26447.7
65582.3
71428.7
88390.4
89169
93255.1
87999.4
82455.1
71122.6
58248.1
41634.9
22057.7
-797.013
-22150.6
-270456
-283039
-275890
-115956
-90186.6
-12997
566.996
45742.2
52371
73224.9
74985.7
81030.4
76745.4
72736.6
62698.8
51327.5
35949.3
17554.5
-4220.88
-24228
-642733
-299473
-268141
-119679
-98652.9
-23748.9
-12119
31264.8
39568.8
61282.6
64787.5
71751.8
68866.6
65756.4
56706.9
45828.7
31148.9
13522.2
-7750.07
-26972
-61936
-152481
-217674
-107995
-97019.8
-28130.3
-15507
25381.5
34773.5
55512.5
59817.1
66946.3
64961.5
62143.2
53390.4
43003.6
28510
10993.6
-9981.9
-29366.8
1.12112e+06
1.13791e+06
1.00076e+06
941146
835776
768044
679440
612685
537753
476180
413994
358926
305231
255450
207425
161818
117205
73226.4
28538.6
-15286.1
1.33501e+06
1.1766e+06
1.02001e+06
936252
828467
757805
671563
604874
531510
470784
409487
355204
302045
252869
205301
160454
116558
73097.5
29264.6
-13427.6
1.27584e+06
1.19497e+06
1.03646e+06
937738
826647
752097
663556
596335
522481
462373
401395
348074
296131
248032
201598
157810
115046
72673.5
30155.9
-11443.6
1.15077e+06
1.14156e+06
975532
906831
791067
721391
637617
573868
505431
447984
390484
339039
288804
242046
196783
154011
112524
71481.6
30308.8
-10294.2
1.09164e+06
1.1348e+06
963191
885812
773371
699802
616206
553294
486619
432145
377053
328197
279851
234833
190862
149163
108562
69146.6
29161.1
-10548
988663
1.08042e+06
878005
822978
709478
649659
574685
520144
461969
411586
361461
315241
269873
226766
184256
143717
104223
65571.6
26898.4
-11634.2
872643
927355
787700
759813
656995
604804
536466
488738
434569
388943
342049
299643
257163
217141
176753
137685
99665.9
62199.6
24564.7
-12824.4
783707
814193
712444
687835
584550
549335
510563
466961
418912
375209
332172
291812
252161
214468
167563
130650
94449.9
58574.8
22197.2
-13672.7
657494
673358
631623
615914
521838
520955
482162
435809
392207
351524
312675
275462
239499
204812
164039
122174
88594.9
54423
19534.3
-14618.6
695636
606338
547197
509472
445235
459556
429312
388363
351181
316052
282297
249715
218143
187380
151806
112627
82053.3
50017.4
16722.1
-15758.4
354122
417766
361191
386577
342829
378890
365844
336733
307518
279032
250222
223265
196427
169632
139327
104410
76041.7
45781.1
13949.8
-16882.1
351238
312267
263047
274562
243089
285323
284791
272218
256834
238850
219621
198698
177174
154903
128117
97180.2
70429.1
41838.2
11407.8
-17693.9
-376786
-33874.3
-14943.8
105922
115928
172150
180099
191594
189929
187196
179417
167864
152956
135573
110323
88812.7
64632.2
37984
9168.87
-18226.8
-56122.2
-90746.7
-26853.6
80166.9
67336.1
119397
117248
143061
140413
149325
143193
139488
128083
116108
99281.3
80839.3
58825
34315.3
7132.97
-18396.2
-303255
-265589
-169303
4282.07
30.2807
65813.6
80080.7
107172
113654
121743
122534
121418
113662
103878
89550.3
73112.7
53309.8
30588.1
5170.39
-18447.8
-478197
-393915
-265265
-73448.5
-38547.5
32284.3
49838.4
86627.7
88650.1
104338
103414
106906
99944.6
93225.9
80096.8
65727.7
47596.4
26673.4
2791.65
-19010.6
-695408
-392054
-268677
-108735
-67590.5
7981.46
27559.5
65247.6
71624.9
88079.2
89476.1
93376.4
88354.3
82751.1
71471.2
58555.7
41980.3
22434.5
-105.959
-20321.3
-304567
-298903
-277153
-119688
-90102.5
-12360.2
1330.04
46186.5
52195.4
73390.1
75082.2
81063
76668.5
72505.8
62433.5
51121.2
35921.7
17690.2
-3673.57
-22546.5
-597368
-317559
-267573
-117755
-97175.7
-22537.7
-11459.6
31929.9
40085.2
61332.2
64662.3
71526.7
68639.4
65636.2
56629.7
45887.8
31244.6
13611.5
-7499.22
-26006.8
-78870.3
-167339
-221905
-104944
-96621
-27033.4
-15221.4
25994.9
34822.6
55592.8
59681.3
66824.2
64900.5
62139.7
53412
43012.7
28600.9
11141.4
-9800.41
-28889.2
1.02578e+06
1.10607e+06
993105
939659
836260
768166
679304
612866
537735
476255
414030
358981
305276
255446
207308
161684
117042
73130.3
28598.8
-14575.6
1.19594e+06
1.16291e+06
1.01605e+06
935119
828142
757987
671525
605069
531560
470888
409532
355252
302058
252875
205247
160336
116431
73072.5
29511.8
-12038.2
1.31815e+06
1.21986e+06
1.03327e+06
936338
826069
752145
663652
596349
522313
462367
401475
348266
296221
248111
201568
157766
115016
72723
30616.7
-9408.63
1.05246e+06
1.14153e+06
971496
905005
790107
721704
637827
574118
505500
448156
390598
339158
288839
242031
196743
154025
112608
71674.6
31033.9
-8087.62
1.15064e+06
1.14993e+06
959569
886015
772333
699295
615988
553317
486877
432342
377231
328331
279899
234803
190822
149202
108770
69472.2
30102.2
-8239.85
1.02742e+06
1.09572e+06
872223
824277
707895
650224
575032
520462
462302
411839
361728
315391
269938
226694
184130
143683
104377
65951.4
27809.1
-9229.5
718254
923449
790552
763335
655404
604840
536515
489271
435096
389478
342552
300019
257329
217119
176673
137647
99833.1
62609.3
25480.7
-10361.7
858108
831766
712609
688440
582407
550024
510858
467830
419252
375826
332412
292145
252245
214499
167429
130685
94688.1
59037
23163.6
-11180.1
582568
679336
630907
611866
520652
522873
483762
436308
392412
351671
312755
275534
239535
204609
163681
122369
88980.2
54940
20541
-12166.6
672937
609069
547154
505343
443879
460554
430903
388254
350824
315764
282164
249639
218086
187032
151141
112889
82447.2
50548.2
17615.2
-13274.2
393184
405775
365587
383578
340580
378063
366157
335520
306237
277285
249752
222849
196072
169608
138951
104655
76452
46313.6
14842.8
-14273.5
211765
293162
260409
271769
242500
284504
284384
270781
255385
237439
218559
198035
176859
154655
127627
97538.9
70886.6
42303
12278
-15029.4
-396437
-36524.6
-14985.5
106864
114276
171202
178085
191385
189344
187501
179364
167711
152799
135345
110258
89133.1
64989.3
38383
10028.1
-15439.5
-195451
-76580.6
-30511.9
76476.1
66069.6
119233
117685
143076
140739
149340
143127
139998
128390
116434
99594.2
81168.9
59166.1
34719.6
8053.92
-15452.9
-234727
-277163
-170755
275.312
-2609.72
65090
80738.6
106823
114121
122006
122845
121499
114094
104187
89921.1
73488.5
53697.6
31043.6
6175.57
-15421.6
-506850
-402572
-263382
-79090.6
-39921.8
29430.5
49802.4
85639.1
88529.3
103684
103519
106933
100453
93622.1
80497.2
66020.1
48029.7
27170.2
3727.38
-15980.9
-694620
-399264
-280645
-112686
-68924.4
4989.6
28421
63699.6
71272.2
87272.2
89793.7
93271.7
88769.6
82808.6
71723.2
58728.6
42423.6
22957.3
750.397
-17290.5
-383003
-315495
-286852
-127844
-90431.6
-12558.8
2682.31
45652.9
52007.1
73448.3
75024.5
80903.8
76447.2
72379.4
62381.5
51114.6
36007.7
17868.3
-3109.16
-19765.6
-665434
-351353
-264707
-116278
-95633.8
-21156.7
-10786.5
33204.5
40350.6
61606.7
64577
71370.2
68645.4
65652.4
56626.9
45974.8
31387.2
13788.3
-7115.91
-24155.2
-131306
-195846
-222304
-100813
-95920.3
-25556.8
-14936.2
26768.9
35034.9
55691
59743.3
66901.7
64832.5
62104.5
53440.8
43065
28695.6
11285.3
-9603.79
-28035.5
997719
1.10364e+06
989307
941287
838313
769231
679803
613200
537762
476339
414051
359007
305256
255431
207174
161513
116895
73006.7
28652.4
-13337.6
1.20947e+06
1.14639e+06
1.01163e+06
935150
828491
758637
671957
605390
531558
470968
409590
355326
302096
252874
205169
160215
116305
73009.9
29657.2
-10026.5
1.39702e+06
1.20549e+06
1.03265e+06
936719
825412
752371
663944
596487
522278
462411
401553
348402
296295
248141
201527
157719
114956
72755.9
31023
-6751.95
1.26081e+06
1.14908e+06
968368
904575
789358
722781
638266
574445
505639
448324
390722
339245
288865
242007
196697
154020
112674
71835.9
31642.9
-5353.51
1.30379e+06
1.15283e+06
960402
887216
771368
699234
616063
553391
487268
432570
377483
328487
279975
234789
190800
149240
108953
69686.4
30835.8
-5489.15
1.11745e+06
1.08588e+06
877405
823244
707606
651272
575743
520774
462774
412098
362046
315566
270041
226660
184034
143682
104532
66279.6
28588.1
-6404.19
786678
936169
787700
764938
653398
604610
536557
489899
435575
390080
343101
300455
257599
217206
176715
137672
100006
62941.5
26207.3
-7470.2
860076
844193
712894
687739
580326
550625
511550
468638
419229
376402
332551
292524
252504
214865
167744
130808
94922.2
59425
23977
-8231.04
517367
686545
625976
606350
519555
523640
485311
436489
392429
351630
312744
275591
239535
204423
162993
122880
89398.1
55364
21331.7
-9179.32
604681
602107
543483
502399
440937
459253
432186
388118
350595
315592
282118
249535
217966
186768
150149
113411
82873.3
50984.5
18344
-10225.7
422570
405298
367230
381959
338392
376062
365631
334248
305331
277166
249455
222206
195863
169551
138013
105253
76903
46785.9
15565.2
-11134.2
204257
283255
257319
271036
242338
282782
284662
269514
254038
236554
217828
197487
176513
154359
126468
98223.2
71374
42742.6
12968.4
-11817.8
-455851
-49578.7
-17590.4
108950
113176
170815
177020
191602
188713
187623
178901
167501
152422
134985
110474
89579.2
65357.2
38752.7
10709.8
-12105.7
-193415
-81417.6
-29715.4
74905.2
64132.1
119957
117786
142824
140401
148541
142607
140413
128751
116979
99985.5
81501.7
59517.9
35096.8
8792.78
-11935.3
-263416
-259668
-167071
-2657.05
-4386.87
64412.5
80547.3
105975
114565
121630
123173
121480
114582
104403
90296.4
73901.2
54100.7
31477.2
6943.2
-11737.3
-367232
-378276
-255682
-80554.5
-41009.8
27433.1
49339.7
83731.5
87689.4
102440
103499
106685
101025
93733.7
80914.8
66210.7
48479
27639.6
4458.98
-12146.8
-653265
-384831
-282450
-113734
-69843.6
3482.09
27679
60922.9
70470.7
86296
90074.3
93072.1
89080
82837.4
71903.9
58789.1
42819.1
23386.2
1479.76
-13375.2
-448764
-334158
-290548
-131926
-90143.6
-15393.2
3381.3
43349.9
51614.8
73403.1
75312
80931.7
76563
72442.6
62498.4
51236.7
36286.8
18149.5
-2683.98
-16112
-646152
-367626
-262276
-116882
-94835.9
-20253.2
-10328.1
34963.8
40505.2
62008.5
64543.6
71412
68607
65666.6
56629.6
46047.8
31512.8
13931.5
-6903.08
-21288.5
-236033
-218791
-221883
-95056.8
-95743.3
-23747.6
-14785.5
27560
35168.1
56058.4
59746.9
66979.1
64767.5
62105.8
53455.5
43129.1
28779.4
11384.2
-9511.19
-26877.6
290668
287099
266691
315804
290518
286714
266242
257840
258983
236630
282165
257760
258503
236090
257414
249510
233297
278662
256682
248242
232344
230444
227684
210644
249496
229802
226810
210049
447817
443532
410842
480411
448174
443919
410806
403883
400662
371402
434991
404142
400601
371376
362506
361874
334402
391706
362702
361851
334352
323322
325336
298922
351081
323548
325305
298949
285934
290203
264831
312399
286078
290213
264814
249890
256424
231913
275261
250011
256394
231873
215463
223775
199908
239323
215530
223734
199938
181649
191923
169051
204766
181635
191990
169016
398195
382596
358715
427831
398107
382951
358651
360655
351031
327793
388477
360590
350897
327556
325120
320091
297114
351510
325081
319835
296836
291035
289510
267030
316436
290989
289230
266849
258015
259602
237731
282578
257962
259421
237617
226122
230507
209166
249846
226049
230347
209016
195037
202143
181042
218201
195020
201986
180914
164866
174053
153421
187339
164857
173917
153480
344749
309573
295934
364772
344682
309190
295534
316372
291517
277668
337630
316077
291162
277224
287717
272643
257135
308907
287320
272292
257077
259038
252065
236213
280083
258771
251894
235211
231041
230100
211707
251727
230922
229291
211407
203734
205623
188033
224011
203626
205439
188002
176705
182246
164538
196878
176602
182189
164482
150005
158606
141085
169872
150033
158569
141182
277383
218292
219110
286060
277046
217799
218831
262209
217607
217569
273490
262078
217381
217074
244393
213036
209092
257781
244677
212792
208518
226902
204908
199715
240252
226587
204749
199782
205414
194230
185417
221301
204942
194565
185160
182964
180490
169036
199353
182946
180307
168879
160764
163248
149896
177422
160714
163146
149835
138129
144194
130511
154998
138234
144132
130487
448321
444017
410806
481906
448898
445157
410878
404269
400593
371360
435669
404697
400585
371269
362784
361831
334329
392134
363082
361722
334198
323634
325288
298952
351462
323924
325178
298881
286132
290208
264808
312645
286328
290139
264783
250062
256385
231869
275435
250223
256366
231881
215548
223732
199982
239475
215484
223748
200020
181648
192054
169048
204830
181322
192043
168667
398095
383142
358615
429055
398143
384153
358401
360548
350821
327407
388386
360371
350441
326781
325040
319676
296652
351270
324801
319016
295887
290958
289023
266748
316162
290765
287657
266594
257937
259318
237596
282380
257862
259015
237648
226024
230265
208936
249736
225969
229816
208640
195044
201910
180846
218147
195112
201629
180628
164900
173839
153631
187434
164638
173685
153670
344633
308876
295302
365690
344269
308302
294369
315886
290941
277032
336984
315084
290021
276297
287068
272133
256863
307849
286111
271343
255447
258595
251533
234786
278358
257854
250005
233621
230864
228934
211251
250776
231276
227956
210783
203558
205335
187966
223643
203283
205017
187762
176535
182131
164454
196535
176302
181932
164370
150140
158553
141278
169637
150155
158498
141185
276829
217663
218663
285075
275976
217381
217867
261973
217255
216872
272532
261380
216729
216450
244614
212662
208371
257090
243872
212387
208005
226209
204707
199805
239252
225093
204961
199764
204752
194633
184998
219906
204199
194664
184545
182926
180207
168810
198831
182786
179899
168605
160692
163099
149805
177235
160612
162948
149663
138300
144107
130539
154935
138203
144001
130496
449032
445408
410915
483629
449425
446706
411041
404803
400585
371230
436244
405100
400586
371108
363142
361669
334138
392407
363279
361508
333978
323980
325120
298840
351675
324139
324969
298775
286365
290101
264775
312764
286440
290049
264772
250255
256363
231891
275535
250303
256372
231910
215416
223754
199963
239540
215145
223730
199718
181286
191954
168593
204669
180689
191641
167991
398166
384423
358281
430640
398227
385292
357807
360293
350264
326530
388286
360041
349638
325762
324689
318756
295699
350905
324422
317996
295016
298494
307581
306767
315943
298692
307480
306562
266500
274107
274429
282215
266601
274047
274263
225960
229393
208537
249657
225947
228922
208264
195086
201533
180588
218111
194879
201312
180554
164602
173682
153763
187117
164073
173685
153463
344070
308050
294003
366255
343303
307630
292824
314763
289650
275967
335842
313770
288443
274693
285923
270926
254921
306532
285084
269458
253527
263208
271771
269426
279088
263085
269852
269266
236152
242975
243069
248394
236365
240901
242983
203175
204905
187679
222745
202827
204388
187368
176259
181859
164336
196146
176240
181593
164184
150244
158469
141216
169644
149960
158318
140873
275653
217102
217488
284485
274611
216794
216716
261099
216508
216298
271150
260237
216326
215951
243463
212217
207826
255785
242271
211757
207338
224774
204957
199662
237748
223902
204859
199406
204028
194594
184391
218810
203460
194371
183975
182717
179805
168556
198212
182463
179589
168463
160578
162918
149625
176947
160417
162865
149483
138216
143979
130569
154740
137861
143909
130459
449423
446888
411075
485233
449467
447940
411131
405153
400581
371071
436511
405294
400539
371000
363259
361460
333938
392469
363180
361346
333832
324154
324933
298782
351669
324166
324824
298798
286425
290056
264781
312769
286348
290070
264803
250292
256378
231907
275575
250202
256387
231875
215044
223704
199640
239531
214749
223610
199456
180630
191544
167917
204459
179851
191295
167113
398238
385405
357617
432047
398239
385625
356993
359964
349413
325526
388152
359792
348757
324952
324372
317774
294834
350637
324229
317237
294579
290523
286701
265761
315632
290491
287109
265045
257732
258172
236823
282132
257654
257639
236024
225936
229167
208189
249576
225874
228850
208042
194809
201265
180560
217993
194640
201178
180579
164020
173679
153470
186818
163269
173669
152787
343002
307405
292420
365838
342007
307230
291322
313458
288037
274234
334560
312683
286907
273015
284736
268990
253148
305512
284293
267821
252278
256805
247902
232044
277257
256480
247137
231394
230248
226512
209801
249548
229101
225842
209189
202720
204174
187248
222323
202469
203640
186922
176218
181490
164114
195899
176176
181190
163890
149983
158246
140848
169556
149352
158023
140120
274251
216400
216462
284657
273269
216542
215847
259918
216273
215838
269785
258891
216197
215470
241928
211613
207118
254319
241126
211295
206518
223646
204803
199339
236723
223083
204717
199118
203260
194303
183848
217968
202760
194163
183465
182369
179555
168478
197593
182111
179570
168482
160343
162883
149461
176589
160111
162975
149290
137823
143917
130550
154408
137111
143902
129941
449320
447985
411130
486022
449338
448335
411092
405230
400516
370997
436405
405177
400464
370974
363073
361324
333803
392541
363079
361291
333740
324092
324788
298802
351650
324071
324721
298732
286273
290068
264793
312827
286219
290002
264662
250137
256367
231862
275669
250162
256268
231821
214636
223582
199416
239625
214553
223545
199384
179724
191233
167058
204354
178853
191182
166237
398224
385323
356760
432437
398105
384891
356183
359761
348547
324814
388000
359681
348069
324529
324187
317104
294476
350506
324089
316831
294282
290477
287030
264926
315494
290375
286873
264899
257605
257533
235902
282012
257480
257555
235878
225852
228768
208025
249452
225853
228839
208178
194602
201168
180584
217958
194579
201299
180631
163246
173666
152761
186734
162435
173692
151953
341628
307041
291029
365196
340938
306922
290571
312488
286596
272688
333623
312114
286098
272144
284163
267527
252079
304982
283942
267062
251808
256391
246962
231255
277014
256339
246712
231085
228959
225694
209054
249427
228904
225533
208924
202420
203519
186839
222227
202536
203419
186837
176176
181108
163837
195970
176219
181090
163836
149345
157980
140079
169572
148537
157981
139291
273011
216515
215667
284855
272623
217428
215733
258586
216182
215275
269065
258043
215814
214846
240940
211203
206365
253611
240676
211175
206387
222963
204753
199027
236292
222788
204369
198553
202642
194153
183371
217644
202518
193746
183497
182044
179664
168487
197392
182014
179373
168401
160061
163054
149257
176462
160062
162686
149360
137083
143980
129886
154364
136270
143687
128989
290244
299045
282472
290572
290474
298932
282275
290094
297497
282019
287363
290095
297294
285122
281971
274438
274156
268325
282184
274128
275750
298384
315857
307372
306400
307409
306427
298375
290151
290521
298855
282224
298869
282190
290196
289968
287221
297001
281621
297115
285059
289694
281830
268081
274081
273673
273999
275452
281851
258733
265903
251009
257820
258763
265860
251029
258584
266615
251539
260417
258933
266265
252833
250976
243681
243814
236687
251225
243563
243729
266427
282171
273993
274195
274007
274182
266386
258663
257792
265796
250845
265822
250980
258552
258432
260246
266268
251099
266134
252682
258599
250818
236461
243367
243221
243458
243444
250899
256493
264474
249800
255548
256434
262565
249762
252994
259447
244178
249050
253459
258946
243768
247215
241589
238751
232992
247546
241340
238398
262987
278992
271210
268491
269741
268979
262194
256198
255231
263762
248981
262175
249462
255581
252639
248627
258245
243033
258542
243387
252379
246871
232672
240666
237707
241023
238047
246546
229350
236328
223576
230907
229749
233991
223333
229293
235508
222066
227421
229438
235306
221843
223347
217305
216335
210492
223368
217278
216152
235857
248039
242341
242273
240538
242674
235614
229040
230719
235577
222929
233514
223111
228999
229024
227127
234652
221274
235010
221575
228661
223097
210290
216731
215634
217071
215913
222689
493120
494000
470891
510328
493229
494144
471016
445131
446691
425237
465838
445215
446826
425401
399419
401637
381517
418237
399480
401777
381645
355842
359544
340510
374418
355935
359700
340676
314485
319355
301267
331734
314539
319480
301385
274714
280992
263624
291446
274747
281084
263721
236695
243947
227375
252138
236686
243972
227390
200551
208549
193308
214663
200383
208483
193108
495036
493655
465200
518735
495186
493961
465340
458350
471172
471061
479918
471223
470988
458319
413682
425330
423885
434761
425376
423894
413664
372414
382665
381893
391526
382707
381917
372395
333562
342428
342521
350905
342479
342545
333531
296467
304188
305012
312264
304232
305036
296444
260884
267523
269092
275195
267551
269096
260877
226489
232215
234355
239275
232242
234350
226483
193385
198575
200615
204671
198566
200652
193330
152203
158419
145133
163940
152087
158405
144967
433067
422607
398966
457489
433428
422816
399293
403722
417848
414255
427487
417851
414253
403685
367332
379109
376303
388541
379096
376291
367347
332615
342651
341168
351561
342657
341150
332628
299325
307968
307478
316459
307970
307472
299328
266983
274365
274975
282616
274359
274960
267001
235634
241933
243392
249897
241914
243366
235661
205209
210506
212784
218247
210483
212756
205234
175318
179716
182771
187313
179706
182744
175352
137324
144887
131696
152316
137363
145033
131682
362546
338982
321828
378062
362775
339069
321662
341804
358252
348887
364497
358278
348801
341799
317547
330672
323951
337756
330627
323897
317607
291663
302091
298211
309180
302024
298152
291744
264790
273301
271726
280428
273243
271631
264867
237758
244915
244526
251919
244881
244469
237806
211337
217324
217870
224123
217295
217840
211359
185499
190231
192000
196981
190206
191987
185526
159591
163258
166102
169972
163232
166074
159606
126300
133711
121844
139297
126263
133775
121803
278746
241167
232220
286454
278330
241194
232167
262792
283907
267193
286319
283861
267145
262824
252840
270045
255565
273706
270018
255494
252840
239659
253408
243130
257863
253500
243135
239623
225093
235792
228696
240151
235927
228740
225001
208349
216956
212785
221923
216794
212799
208357
188460
194043
193509
199550
194019
193449
188488
167689
172027
172747
177456
172016
172742
167694
146175
149402
151551
155014
149409
151548
146169
117919
122885
114111
128235
117891
122944
114102
188959
155084
161024
181935
188597
154425
160732
195351
166171
173346
192448
195189
166026
173227
189770
168403
169897
191416
189417
168494
170030
186757
169795
171382
187039
186799
170316
171529
174549
165338
162361
179033
174653
165687
162396
163073
157602
154391
167989
163040
157667
154372
145718
145013
138342
153211
145673
145029
138310
128132
129235
122885
135820
128106
129231
122936
493428
494279
471262
510960
493712
495056
471630
445468
447160
425760
466554
445768
447522
426159
399603
402044
381879
418712
399766
402316
382111
356095
359950
340934
374924
356290
360208
341224
314628
319674
301551
332041
314753
319868
301724
274791
281220
263862
291690
274850
281362
264007
236650
244014
227379
252156
236592
244045
227342
200280
208334
192956
214515
199940
208138
192530
495732
494346
465740
520207
496438
495149
466411
458996
471852
471482
481061
458751
472159
471928
413909
425732
424044
435314
413835
425914
424123
372616
382989
382063
391925
372560
383118
382120
333792
342755
342671
351281
333728
342881
342720
296642
304455
305164
312531
296593
304550
305209
260997
267713
269148
275350
260959
267788
269174
226623
232399
234393
239401
226585
232453
234419
193373
198473
200804
204837
193424
198414
200819
152164
158215
144971
164067
151741
158068
144548
433943
423246
399911
459019
434687
424259
400723
404053
418110
414648
428328
403878
418289
415108
367162
379009
376206
388428
367224
378970
376166
332369
342570
340994
351415
332461
342508
340905
299155
307893
307369
316336
299227
307839
307278
266803
274291
274828
282504
266858
274257
274758
235429
241832
243224
249788
235490
241803
243166
205085
210439
212635
218166
205115
210434
212591
175403
179836
182717
187424
175390
179848
182750
137566
145221
131888
152055
137299
145311
131748
363382
338515
321047
379084
363818
338299
320545
341899
358526
349127
365222
341882
358654
349315
316852
330294
323568
337384
317102
330107
323366
290589
301502
297533
308448
290946
301238
297204
263841
272704
270852
279372
264145
272369
270482
237191
244613
244026
251372
237384
244465
243807
211137
217114
217663
223888
211195
217036
217586
185277
190044
191834
196727
185348
189963
191763
159477
163076
165941
169722
159499
163041
165890
126407
133792
121923
139383
126311
133778
121801
277656
241099
232130
285801
277254
241311
232019
262211
283378