/*--------------------------------*- C++ -*----------------------------------*\
  =========                 |
  \\      /  F ield         | OpenFOAM: The Open Source CFD Toolbox
   \\    /   O peration     | Website:  https://openfoam.org
    \\  /    A nd           | Version:  10
     \\/     M anipulation  |
\*---------------------------------------------------------------------------*/
FoamFile
{
    format      ascii;
    class       surfaceScalarField;
    location    "6.8";
    object      phi_0;
}
// * * * * * * * * * * * * * * * * * * * * * * * * * * * * * * * * * * * * * //

dimensions      [0 3 -1 0 0 0 0];

internalField   nonuniform List<scalar> 
38556
(
1507.61
640.961
758.637
2265.29
377.877
-1135.55
2795.82
105.618
-636.153
3155
132.997
-492.18
3002.82
195.075
-42.8889
2517.95
299.616
185.255
1776.31
220.285
521.352
1409
77.3419
289.969
1265.88
-7.09067
150.213
1193.59
-32.7923
105.077
1154.83
-62.7405
101.5
1133.81
-79.8576
100.878
1125.13
-89.323
98.0065
1122.34
-82.475
85.2622
1125.1
-74.3511
71.5887
1139.65
-71.2535
56.706
1164.83
-69.3625
44.1818
1192.61
-65.9494
38.1704
1252.96
-76.2046
15.8529
-62.409
15.8912
785.326
668.461
607.63
1500.71
553.116
-890.622
2006.61
-6.63114
-393.648
2212.34
39.746
-112.484
2075.64
73.1113
258.662
1854.07
181.384
339.8
1520.81
198.583
354.97
1341.87
111.805
144.471
1254.62
33.663
46.4989
1187.93
5.30047
28.6015
1103.23
-22.5593
44.5163
1020.34
-33.6838
36.7183
953.761
-39.9223
17.1751
909.202
-30.4127
-7.50381
893.562
-26.2203
-32.491
890.267
-22.4229
-45.5356
898.633
-21.6301
-56.0984
913.195
-24.2911
-56.2197
935.557
-19.9984
-78.5688
2.29488
-78.0944
245.562
1780.51
3262.44
354.635
216.566
227.476
975.816
-211.354
-416.458
965.576
-88.6699
138.657
1017.27
-98.8251
120.24
1056.72
12.5474
129.39
1127.74
2.81651
124.745
1175.74
7.75811
56.0446
1190.11
-10.6653
29.9626
1181.21
-0.117183
14.3136
1110.95
23.2347
24.4744
1003.89
42.8122
30.5575
895.477
41.8809
26.6118
826.49
35.6684
2.90645
796.873
21.3432
-17.9474
783.836
8.75875
-18.1443
781.327
0.0363438
-19.1574
785.082
-10.3722
-17.6745
797.008
-12.5323
-19.3919
3.74614
-8.15033
-1008.52
1120.61
3255.48
-158.11
-594.921
-38.9238
581.5
-664.455
-286.509
735.824
-333.914
90.9192
886.516
-273.373
23.8551
975.289
-81.7532
5.52694
1033.3
-69.883
14.692
1043.65
-0.0203931
-2.5724
1011.13
15.8944
5.9587
956.48
58.8734
-4.3399
873.344
88.5639
17.8063
799.2
105.105
11.8516
748.753
90.4488
1.87903
713.202
76.1026
-4.88327
695.041
47.9973
-8.49316
684.376
25.318
-5.89454
684.92
3.18174
-3.68874
688.598
-10.0383
-4.0121
688.56
-6.54911
-5.9451
11.9909
-2.17763
1649.65
978.252
2384.08
1382.67
-347.464
19.5282
1175.64
-525.513
68.083
1156.22
-423.315
108.823
1058.3
-227.8
52.3453
999.72
-15.4375
-7.73553
947.445
-5.29292
-12.3147
909.211
67.2959
-29.083
875.852
59.7472
-10.4931
847.893
103.198
-16.3669
824.809
109.898
1.7498
808.51
122.223
-0.819706
793.006
107.696
-1.74279
779.321
98.7621
-8.97418
761.096
71.5016
-5.2799
733.403
52.5214
0.490061
710.388
24.5054
1.69095
697.498
-0.35926
3.21066
693.965
-8.09612
5.07972
11.4124
5.48137
1461.58
84.4363
2269.11
1306.96
-669.789
476.946
1200.71
-696.79
277.527
1286.2
-606.086
97.2733
1190.42
-293.561
161.546
1105.16
-5.4661
75.2846
1043
14.0259
42.8485
995.146
110.471
4.67482
955.319
93.0513
6.52311
932.103
129.538
-3.12376
926.215
121.395
-5.6085
928.695
129.63
-9.88745
939.172
112.892
-15.6728
958.405
100.251
-20.7223
971.575
76.5096
-18.178
963.257
64.5066
-3.66663
904.494
54.5642
28.7038
814.657
40.3319
49.1458
744.802
32.5133
29.246
30.1585
11.4355
1217.88
-618.485
529.239
1288.04
-1102.96
363.01
1328.34
-569.346
-167.738
1457.61
-417.639
-317.72
1319.91
-67.5416
-88.3202
1147.94
159.494
7.01152
1018.63
43.4782
30.4068
8.70625
48.8326
11.9166
956.087
36.2795
24.519
35.5401
39.5148
37.1574
911.196
40.2526
18.2705
19.8863
40.301
19.2315
893.973
38.1006
10.8796
30.2538
37.8311
29.6971
894.092
37.6096
8.40255
20.2479
36.1339
18.8816
905.711
33.4375
10.9798
21.1445
32.1895
20.2603
921.755
28.7323
15.8161
12.3614
27.7365
12.2014
949.184
20.5739
11.7973
8.2446
21.7148
10.4913
980.892
31.0842
13.7179
994.677
32.0869
18.6342
982.973
41.1651
25.1024
922.9
63.3165
37.0891
835.004
74.0457
46.363
52.0675
22.0796
733.181
-922.547
2463.54
1222.65
-911.095
-681.335
1342.55
-327.148
-362.101
1402.32
-231.577
-245.832
1268.8
128.948
-62.9693
299.266
65.6138
-61.2983
306.215
293.241
296.436
84.9786
66.4992
77.3442
290.102
56.917
-4.275
-259.337
255.803
40.3642
-0.549915
-241.704
238.767
41.6891
1.50018
-219.093
221.115
32.9755
3.10402
-210.984
214.653
32.8854
1.05447
-203.643
211.669
25.4495
-0.0377582
-205.76
215.587
18.4798
0.425912
-211.365
224.79
5.78499
1.36359
911.715
1.29118
-0.569006
-223.194
-226.362
-216.049
-213.209
-6.49913
5.88145
-1.92203
917.251
25.3039
1.24694
890.964
55.5127
11.9397
838.352
92.7738
23.1541
790.634
99.0647
22.6997
62.3406
11.5512
657.71
-219.555
-596.063
597.733
-649.107
-202.01
637.067
-476.525
110.043
767.379
-223.412
-138.477
205.584
93.0542
-5.75593
190.614
213.916
198.915
231.287
46.9339
-7.02335
-21.9318
-60.0157
62.2751
19.1925
0.479838
-61.3561
-18.4347
63.5833
17.2266
-1.01909
-61.0434
-14.2737
62.206
12.7127
0.398404
-57.0396
-12.0388
57.4555
11.0457
0.577254
-51.9701
-10.9708
53.0541
9.79987
0.086903
-49.83
-9.02357
51.6088
7.92359
-0.678738
-50.9254
-6.33238
53.4172
4.91409
-1.07349
-54.3064
-2.25912
56.8429
0.903569
-1.18096
-57.5753
240.727
-8.12518
-1.37993
-58.9163
-56.418
-57.0209
910.274
38.9543
-4.74165
-234.279
-238.207
-221.915
-224.782
859.418
91.7651
14.6034
804.658
125.87
21.6645
778.232
116.53
8.96111
67.9989
4.54144
2064.39
1655.08
-535.568
1181.94
3.9561
229.384
840.459
11.1647
-146.207
801.602
-20.9934
-163.562
180.357
133.325
33.5793
173.811
188.982
184.602
-42.673
196.922
37.3191
-11.2118
-15.9292
-53.8751
56.3832
14.188
-0.766964
-16.8417
-63.2871
64.5152
15.151
0.462471
-14.151
-65.8823
66.2271
13.6392
0.166948
-13.1015
-66.5738
66.0332
13.5087
0.133297
-13.9597
-65.1898
64.9127
14.2068
0.0299219
-11.2963
-63.9578
63.6188
12.4893
-0.854008
-8.15345
-62.7121
62.5985
9.6901
-1.42311
-3.88382
-62.5323
62.5248
5.32868
-1.43741
-62.661
4.73312
245.702
0.0730238
-3.16621
-63.0957
-60.5152
-61.0703
913.809
80.0592
-19.5114
-240.58
-240.258
-227.042
-227.522
869.881
129.651
6.04277
826.325
152.812
16.6134
804.317
141.772
-3.23443
86.9612
-9.12084
-518.737
770.07
521.496
-181.914
1.69004
-334.556
654.909
-66.9583
-758.699
639.69
26.6965
-32.4708
157.873
91.6208
36.5493
160.768
161.011
165.192
-37.2219
168.782
27.8144
-1.50154
-8.99673
-40.8674
41.5332
6.46085
1.87007
-7.88016
-45.6097
47.1587
5.91889
0.412316
-7.97511
-51.7738
53.4842
6.0517
0.213001
-10.5929
-59.2774
60.9769
8.83763
0.0557419
-12.6662
-64.5517
65.6484
11.5437
0.0257807
-13.7379
-68.5994
69.1664
13.4787
-0.307865
-13.1799
-70.0258
70.0245
13.6134
-0.432247
-9.42748
-68.6887
67.9932
9.26794
0.855125
-63.9554
-7.40569
243.418
16.5036
-0.880365
-62.9034
-62.8534
-61.9237
900.119
122.513
-33.1744
-235.144
-229.271
-225.263
-219.72
883.696
153.845
-7.7719
870.841
166.327
-0.659835
859.983
159.341
-6.71037
105.127
-5.56754
2185.38
1690.54
-274.952
1629.31
488.413
69.3432
1110.04
299.837
152.474
902.376
214.912
19.4487
135.651
195.604
168.77
165.822
152.231
175.919
-19.6997
137.782
12.0416
5.52737
-1.93392
-42.1301
43.3167
-0.637917
1.38523
-0.659978
-46.1815
47.7886
-1.45828
0.511171
-0.237416
-52.9197
54.3612
-2.01863
0.814489
1.65965
-56.7826
56.8381
-3.50606
1.79092
-2.616
-57.5481
58.0097
0.0098991
2.14445
-10.4866
-64.3975
66.583
7.3439
0.957254
-12.7829
-68.1031
67.4107
11.7966
1.67877
-7.72168
-63.9727
62.1445
8.43157
1.11831
-56.9748
-24.3879
219.619
31.4023
-3.97085
-55.3825
-56.1545
-54.1506
847.509
139.648
-35.6535
-217.358
-204.372
-209.752
-197.508
853.944
166.348
-18.9388
856.261
170.783
-6.77352
852.744
159.47
3.38833
106.883
7.84113
1644.03
440.46
-1300.77
1595.89
78.3022
458.25
1421.55
540.385
-66.2035
1386.04
333.431
-83.0065
1231.7
414.476
-64.537
290.424
38.7639
-58.755
-0.222547
51.7759
2.17835
45.2455
290.914
283.91
287.468
6.53124
273.413
18.0015
-15.106
0.954282
6.10708
0.523346
4.55635
-243.323
216.782
14.7516
-4.00396
3.5623
4.41336
3.26228
4.46044
-219.269
207.898
0.424172
-0.996715
2.03824
4.06207
1.38283
3.29254
-188.533
169.405
9.69253
1.4857
1.50145
2.51972
0.636277
0.875765
-170.827
165.81
10.0252
-1.94503
-1.61916
0.165987
-2.48595
-2.8874
-163.242
163.289
23.957
-4.05088
-6.51386
-3.47718
-7.075
-7.0478
-174.515
181.753
31.0817
-2.66056
-10.7568
-7.10514
-10.7499
-7.53571
-185.355
186.838
36.1703
-1.2696
-10.7451
-7.45912
-10.6434
736.94
126.644
-13.9261
-27.8554
-43.2435
-28.0153
-42.9999
-187.728
-172.119
-180.391
-167.307
764.608
124.027
-12.046
787.512
149.759
-6.31482
810.072
148.422
-0.199047
824.402
138.201
6.93998
99.0959
10.5421
212.062
1671.34
-1218.92
487.054
-116.793
-79.8985
743.14
357.872
-73.573
706.586
323.404
46.58
705.016
401.659
14.3878
619.742
91.8289
32.2084
617.018
256.79
18.229
-48.7159
-89.126
-47.472
-86.981
587.552
24.523
23.4905
-21.826
7.58695
-16.7736
12.4656
581.952
117.788
-0.299568
-11.6285
-43.5219
-11.1245
-45.614
567.782
31.2099
6.27501
-8.53839
-2.14267
-9.54542
-3.08831
573.183
81.3375
3.7489
-8.25137
-34.5696
-11.1307
-36.5351
587.923
50.0316
7.10339
-13.4172
-21.8122
-14.2426
-22.4033
617.677
82.4212
4.86492
-18.3537
-39.9674
-19.0888
-39.6304
647.958
74.6765
5.69487
-22.1466
-34.4247
-21.0328
-33.0475
675.374
92.145
7.0826
704.304
91.8348
3.26229
734.05
111.557
8.45558
762.884
108.255
11.3325
782.978
107.579
10.5273
87.4267
11.5657
-50.46
1072.74
-798.74
331.35
-131.407
-367.195
552.951
235.013
-98.7423
547.464
313.325
15.5656
617.627
324.974
6.52228
593.979
101.63
13.8461
654.523
186.467
9.77958
625.647
49.9442
3.4557
624.901
112.321
6.21285
600.754
53.9823
1.37436
592.13
83.7824
6.17926
583.232
55.5858
3.34376
587.129
71.7326
6.79164
593.856
60.87
7.08012
607.218
71.7401
7.04293
626.716
66.6675
5.66864
649.432
80.2421
8.59919
672.173
76.6361
8.87759
689.635
83.6391
6.47814
72.6316
10.6009
-651.518
663.215
259.806
-47.9404
469.383
-1204.37
303.224
427.714
-543.865
304.487
325.335
-13.2726
456.964
218.823
-46.3252
428.957
98.6615
30.9757
496.922
110.583
7.91873
510.766
44.6474
-8.54755
544.679
81.8939
-3.48605
555.034
51.8188
-8.19087
567.411
70.6767
0.728947
573.792
53.0451
-3.84038
582.445
61.2815
1.79792
591.885
51.8325
-0.402897
604.807
56.2034
2.61523
616.362
52.8361
2.27564
631.855
59.9338
4.81554
648.195
57.0671
3.22913
663.104
66.7695
1.96081
61.3152
6.4084
2999.96
227.057
-3184.22
1361.96
1578.65
528.741
912.92
895.791
-19.0404
467.226
624.856
146.173
440.379
286.604
-40.9356
368.319
201.495
-30.7736
457.482
54.619
-33.1984
458.805
52.9646
-9.64075
504.653
38.1737
-2.12706
512.719
46.1669
-2.41401
534.366
48.0878
0.941602
544.154
47.1627
-3.90608
560.949
46.1804
-1.69307
574.49
41.4595
-3.1683
592.122
39.629
-1.05829
611.564
35.9965
-2.60181
633.041
40.2738
-1.81698
652.079
38.9372
-0.908503
670.209
52.1881
-3.54763
51.2518
2.36301
664.878
226.666
1690.67
262.402
1742.12
239.009
553.317
989.906
-385.03
563.698
853.964
-239.49
583.663
474.522
-207.882
561.427
317.817
-94.0861
557.108
70.9592
-12.0215
560.887
60.3797
-11.1934
573.471
20.0614
5.52793
582.574
44.5428
-7.47829
594.489
38.1909
-2.01834
604.124
48.7374
-11.2096
615.74
43.7965
-9.23209
627.461
43.0553
-13.3177
642.438
36.4445
-11.7914
658.546
33.7629
-13.8739
679.383
31.8789
-12.4421
699.163
31.7576
-12.6005
722.717
43.488
-14.8538
42.849
-5.31777
-359.194
800.611
439.789
304.857
951.65
126.415
671.592
696.752
-73.5823
860.483
607.059
58.0137
867.595
341.685
125.725
869.218
247.479
68.7156
764.759
80.0777
95.3407
709.061
74.7714
41.3061
658.737
35.9777
34.4078
643.762
62.072
-2.55461
642.948
56.6644
-17.6593
651.755
72.0235
-32.0928
666.107
67.0139
-37.5703
681.731
67.0148
-39.5827
702.451
54.6398
-38.9156
733.887
40.3156
-37.9886
767.773
34.1847
-36.192
791.753
39.033
-31.2549
819.389
50.0697
-34.2185
50.4313
-25.7526
601.393
1748.42
933.507
619.536
1044.8
585.456
1208.46
443.403
1185.16
364.985
1243.94
188.699
1205.78
118.236
1217.78
62.7699
1177.08
76.6832
1160.58
78.5701
1133.13
84.111
1129.95
75.2019
1129.5
67.4703
1139.61
56.8994
1142.74
51.5162
1134.34
48.7079
1112.83
55.6964
1096.11
55.7553
1099.57
46.6087
42.4727
1452.98
294.492
-1406.5
1317.13
-181.867
-817.836
1476.91
-364.932
-430.993
1508.83
-188.104
-336.003
1400.04
-52.2271
118.131
1325.03
49.8658
210.399
1262.63
79.1146
504.634
1217.99
47.0486
287.565
1169.39
3.99551
194.819
1143.09
-11.4455
142.821
1132.67
-34.2442
146.169
1137.16
-44.3733
140.755
1147.33
-47.3747
135.212
1164.64
-42.9885
110.942
1184.38
-34.0654
85.911
1210.39
-34.0049
64.7055
1236.74
-29.1543
46.988
1270.18
-33.1875
37.9181
1331.26
-38.3154
-6.91625
-19.584
-1.5597
200.013
-798.308
-1587.32
557.542
-279.174
-1150.84
1114.75
-362.508
-953.277
1166.63
-142.236
-210.231
1224.85
-52.8605
201.072
1221.44
91.5924
301.483
1189.03
129.122
337.372
1142.58
104.515
133.455
1076.53
58.9845
57.558
1024.63
40.7652
28.2957
975.314
12.2491
47.3356
935.767
1.16702
30.7254
904.611
-7.32302
8.28007
881.823
-7.05334
-20.6514
870.913
-6.22737
-49.4194
866.909
-9.57373
-65.9627
869.811
-12.3658
-75.7882
877.585
-16.7548
-80.4257
885.664
-15.519
-109.444
-0.37951
-99.026
731.185
984.399
6471.86
739.249
-221.683
161.921
719.324
-146.849
-612.192
759.945
-59.5793
15.3789
856.548
-77.364
48.1402
903.019
59.4975
115.015
974.403
54.3088
128.172
1000.96
80.5089
53.4943
993.027
56.5759
40.3033
963.067
65.1379
19.9004
907.877
57.2902
34.6243
847.311
59.8641
32.4261
790.049
46.728
29.8228
747.07
36.4723
2.35978
725.124
19.9991
-22.2272
713.727
7.26789
-23.5892
709.55
-2.0593
-25.2866
709.428
-10.3261
-23.9813
713.726
-11.1527
-28.0573
1.81723
-11.0177
-463.875
563.707
510.965
-57.1623
-433.496
-233.823
522.789
-290.378
-722.932
676.128
-120.59
-1.40929
784.888
-142.801
-19.4677
846.929
5.27036
-2.28537
893.736
-4.52244
26.7144
897.848
77.0968
-3.272
870.153
76.0922
14.1374
822.78
106.213
1.95839
766.43
105.985
25.4615
718.066
106.556
13.5242
679.402
83.8689
3.40209
649.684
68.0857
-6.7787
632.221
39.8566
-10.8879
621.201
20.6349
-8.24223
619.499
2.05851
-6.10487
620.012
-8.66123
-6.18979
618.699
-5.40606
-10.3789
6.94422
-2.04545
819.818
174.294
396.893
755.328
-182.554
-166.922
878.166
-239.063
-106.071
941.563
-140.863
65.6997
891.4
-76.879
36.5863
829.69
71.6859
-12.4413
782.92
33.6666
-3.73284
751.239
106.572
-26.8775
732.734
87.0143
-2.90962
715.732
120.991
-14.1434
705.17
112.57
5.7267
695.817
114.51
0.579003
685.083
93.499
-0.638532
672.045
81.8952
-9.74669
655.867
55.7378
-4.98281
637.127
39.5413
0.323229
625.311
12.0243
3.54135
618.618
-3.63654
4.87831
617.64
-4.79999
5.45236
6.76822
8.59954
121.854
-699.164
2942.9
564.626
-324.941
176.561
808.058
-307.572
102.605
906.872
-188.364
45.9596
901.619
-54.9575
144.878
875.324
117.774
55.4922
844.197
60.3373
47.3043
811.699
135.985
7.7601
791.836
100.041
13.3604
777.559
131.668
0.476504
773.256
112.293
-1.02827
773.075
113.474
-8.67071
774.28
90.9315
-14.3104
775.296
80.1064
-19.9496
771.587
61.0341
-19.765
754.634
53.6852
-0.858104
717.384
41.1424
36.8359
677.027
33.7651
52.101
648.125
24.0146
29.3335
18.803
15.422
2006.33
-599.763
-2340.33
2673.69
-483.153
-146.141
1963.74
-99.4258
334.069
1422.99
-71.1336
105.799
1050.95
155.147
73.6194
873.04
269.672
33.019
785.151
55.4103
35.6803
17.2994
54.1765
16.0669
749.043
43.1509
30.1781
39.806
43.4581
40.0193
731.121
38.9591
24.3221
17.9545
38.0646
16.9333
729.821
36.7169
14.9525
28.542
35.8226
27.8128
739.405
33.5322
12.9394
16.6576
32.3327
15.6498
755.714
29.7726
13.6818
18.2219
28.7933
17.6751
773.341
25.2212
18.0705
10.5744
24.7206
10.5335
789.064
21.3031
11.8329
10.008
21.7901
11.2472
802.116
48.5139
13.1859
802.62
52.0906
19.7242
778.864
59.2526
30.7479
737.666
67.1162
44.9368
701.817
57.1661
49.06
33.5388
25.8219
1470.12
439.143
1346.46
1287.39
-463.669
-518.079
1147.73
-2.00385
-319.863
1131.3
-68.9958
-231.543
1013.64
220.284
-10.4516
239.783
76.5857
-47.1649
244.156
227.699
230.773
86.0555
77.2067
86.9236
1.43547
232.543
65.0802
-3.86456
-3.13513
-204.347
204.466
41.3771
4.79005
-4.24642
-193.661
193.665
37.7376
5.46432
-4.5788
-179.192
186.137
29.3058
5.04509
-1.94552
-179.373
185.914
27.4012
1.5354
-0.474435
-177.938
187.771
20.2776
0.136604
-1.66449
-183.284
193.497
15.2403
1.43271
-2.80438
-188.879
200.305
9.71338
2.9684
767.023
13.199
1.32129
-195.246
-194.819
-185.935
-185.011
4.20573
15.92
7.28637
752.484
64.3447
3.53155
723.817
81.0617
18.7977
698.646
86.5343
28.9072
684.12
71.9894
22.4027
36.9229
16.2484
-383.718
364.93
2910.4
65.3093
-659.873
-454.834
428.191
-364.7
109.857
509.239
-155.455
-133.066
175.266
114.031
-35.2713
158.762
164.671
146.308
15.8938
204.451
55.3224
-23.8154
1.89734
-20.8628
-54.7301
57.5232
18.7358
-2.56337
0.988879
-54.1032
-16.3663
54.856
15.3719
-0.747272
-1.77234
-51.5661
-12.7254
52.661
11.4364
1.96644
-1.94141
-48.3934
-10.5083
49.3505
9.53448
1.95813
-0.121948
-46.3903
-9.21168
47.9679
7.88078
-0.124736
1.83026
-46.0646
-7.02475
47.8908
5.54752
-2.17917
2.50768
-47.1668
-4.98281
49.2859
3.09068
-2.73465
2.27423
-48.9123
-3.05295
50.9731
0.929802
-2.21187
-50.1224
2.91579
207.556
3.89929
-1.35664
-50.9115
-49.0675
-49.7145
742.725
86.9895
6.48546
-197.958
-201.898
-186.884
-189.856
708.85
109.564
19.9763
688.612
105.822
22.6147
683.785
77.9148
7.86244
35.8235
8.24312
793.518
770.223
567.114
767.98
-86.2874
-318.663
570.458
-42.7075
-270.679
498.513
-59.1791
-187.892
143.542
100.191
6.51168
137.758
131.695
126.426
12.1434
-41.0496
164.151
25.691
-17.3937
1.06723
-14.5281
-46.2813
49.4739
11.932
-1.66375
-1.20022
-14
-55.2398
56.3714
12.4916
1.57699
-2.55097
-12.2071
-57.7174
57.5917
11.8396
3.04411
-1.28783
-11.8074
-56.7448
56.4004
11.8648
1.57487
0.480301
-9.96344
-55.959
55.865
10.3448
-0.7676
2.86382
-7.07789
-55.6266
55.4582
7.70723
-3.32475
3.725
-3.83861
-54.9002
54.6564
4.38728
-4.02987
2.82165
-0.872231
-54.0968
54.0162
0.958566
-2.82745
-53.6071
3.52659
-5.3775
210.36
7.23483
-2.79405
-54.2136
-52.349
-52.7799
755.858
115.402
-7.06467
-205.051
-205.566
-192.914
-193.185
726.302
132.499
12.6623
711.936
123.831
12.9714
705.402
88.2412
-7.0266
39.635
-5.76739
-602.116
71.7521
-396.027
84.5977
-102.712
-1004.85
398.44
-87.3075
-1027.94
407.115
-14.658
-85.6665
127.338
51.2093
-10.503
132.569
118.967
124.274
3.43662
-25.354
141.43
17.088
-9.26253
-4.40391
-7.01956
-37.853
40.1002
4.87745
4.29882
-3.56264
-7.20438
-44.477
45.8969
5.21061
4.13652
-2.2006
-7.82969
-49.9121
51.2618
5.91575
2.76482
-1.80941
-9.1633
-55.2827
56.5027
7.33325
2.41954
-1.3762
-9.35065
-59.0607
59.8215
8.19601
1.7701
0.607515
-8.58077
-61.6903
62.1041
8.33681
-0.777425
1.16254
-6.38471
-62.0416
61.6328
6.78967
-1.15862
-1.74065
-2.04987
-59.763
59.1016
2.63333
1.81863
-56.2863
2.40216
-12.8078
213.944
21.4058
-3.89575
-55.7737
-54.6625
-54.3255
759.919
131.932
-20.3983
-205.733
-201.266
-193.058
-189.167
746.726
139.025
-1.10495
742.207
129.023
-1.33276
734.408
94.6194
-5.28939
46.3676
-0.928153
1264.2
1113.55
496.697
1013.63
-44.2469
261.455
828.841
24.2092
225.742
637.283
113.642
82.7064
122.179
128.079
197.993
149.12
116.306
143.584
-15.8559
-7.7969
131.616
-1.96298
16.1785
-4.15734
-0.361436
-41.3592
43.2286
-1.88361
4.53301
-2.48076
-0.247183
-45.6176
46.3708
-0.848013
2.82279
-2.66828
-0.857967
-49.0196
49.7574
-0.236344
3.02476
-3.94921
-2.32691
-51.532
52.0981
1.48428
4.2257
-3.60586
-4.52569
-54.529
55.3848
3.77056
3.50523
-1.09329
-7.66266
-57.9891
58.3389
7.41165
0.994454
-2.9274
-7.47405
-58.2556
57.4304
8.07484
3.15181
-2.92482
-5.94325
-54.1063
53.1521
7.15702
2.66524
-51.2054
6.61361
-28.3915
196.734
32.4099
-8.19671
-49.5457
-50.0125
-48.4057
728.284
123.778
-25.4085
-193.137
-181.686
-182.413
-173.14
728.629
129.662
-9.92118
731.855
118.084
0.939452
729.291
92.0183
8.55332
53.4454
11.0432
1041.28
370.827
-2842.41
1770.09
-417.758
102.951
1659.1
208.485
-139.49
1520.69
172.306
-3.25844
1206.7
323.964
53.5671
258.033
-13.1352
1.48357
13.9333
53.348
16.8882
54.1066
263.175
247.616
252.492
5.32167
14.367
228.381
12.8525
-9.28954
0.441157
5.36337
0.596442
3.29626
0.0687131
-189.559
166.656
10.6281
2.89215
1.48256
3.21638
1.31799
1.78553
-0.995762
-174.902
165.785
7.26873
1.99932
-1.00535
1.40588
-1.34192
-0.675228
-1.73266
-151.161
141.649
17.3867
1.49507
-2.59958
-1.11013
-3.2517
-2.30169
4.31554
-151.459
151.051
18.3288
-6.04737
-5.38182
-2.6802
-5.82545
-4.93332
6.15551
-149.569
149.766
27.3239
-7.02187
-8.24069
-5.13376
-8.34698
-6.66683
4.25502
-158.452
162.325
30.3018
-5.14576
-10.0942
-6.56682
-9.95569
-6.81429
2.72553
-164.357
165.984
32.5506
-3.68124
-9.9312
-6.68366
-9.79267
652.099
104.921
-7.99659
-25.3307
-40.2714
-24.4902
-38.4593
-167.687
-156.075
-160.808
-149.828
671.374
96.4114
-3.95456
687.111
106.551
1.05953
701.585
95.0528
8.3587
706.072
83.1561
11.3147
57.5944
13.849
1011.59
236.035
-1261.52
723.401
-320.53
111.065
704.875
246.961
-93.5222
654.598
266.358
2.8055
615.187
359.613
18.1493
505.836
82.2466
46.1783
492.917
269.204
18.259
-43.9586
-83.8317
-44.8524
-83.6719
456.643
20.2401
28.3196
-11.6648
15.3383
-8.13592
15.6676
458.116
130.106
-2.24111
-13.9192
-48.6609
-16.3833
-50.6746
454.541
29.7971
7.98447
-9.87301
-3.58726
-10.2815
-4.18979
476.132
84.5642
2.1352
-13.2719
-37.9968
-14.6837
-38.5887
499.171
45.448
9.76025
-14.246
-21.7114
-14.1487
-21.0382
534.044
75.3777
6.05192
-18.4165
-38.1682
-17.9038
-36.9492
564.256
59.8633
9.9025
-18.4921
-30.6455
-17.0031
-28.1432
590.337
74.9492
10.9734
613.543
68.3589
8.10939
635.731
79.8624
12.9554
654.231
72.0957
15.7896
663.585
72.007
12.3231
56.657
15.7843
-607.668
-334.188
253.427
39.9268
5.29566
-1340.62
422.595
192.074
-426.523
442.866
293.366
-31.7135
512.277
298.874
-2.14892
483.933
95.859
28.5773
546.075
201.567
15.2749
508.297
54.724
6.74966
511.414
121.047
12.1556
489.282
50.2283
3.07409
491.218
78.4861
10.322
489.786
44.6928
5.53028
502.246
59.945
9.76441
513.833
45.6144
9.74217
530.271
55.0928
10.4608
549.726
47.1367
7.43592
569.763
57.4749
10.9495
587.343
52.3926
11.0005
600.402
58.2801
7.14625
48.9408
15.1493
1179.24
-660.188
-1650.17
352.15
296.807
-668.787
183.95
383.591
-567.183
212.609
297.05
-45.6155
336.238
204.097
-75.1773
319.851
92.8348
50.3868
406.217
115.455
7.66524
410.881
43.5165
-2.0042
447.438
79.2164
1.78669
454.277
42.1531
-6.95422
471.802
55.5899
6.09979
480.796
34.639
-2.78097
495.812
41.4322
5.29502
508.989
31.0968
0.9383
525.778
35.4926
5.42591
539.854
32.1264
3.21023
556.792
38.4982
6.85455
572.504
36.4399
3.46946
586.026
45.3263
1.39284
40.5178
10.2128
810.813
-274.216
-2523.34
134.426
861.85
640.086
319.296
634.737
-455.056
210.899
464.014
87.6053
332.336
155.652
-113.928
291.434
119.732
-16.7684
392.53
13.2285
-32.068
393.834
38.5632
-5.99059
442.689
26.5242
1.71014
449.646
34.1737
-1.39174
472.15
30.8589
3.16845
481.374
26.9888
-5.47947
498.432
23.795
-1.11369
512.072
19.0532
-4.76434
530.109
16.9619
-0.565045
548.526
14.4206
-3.31211
568.527
17.7307
-1.05094
585.852
19.079
-0.872303
601.957
31.0378
-5.36388
30.4622
5.56418
-145.802
444.54
-1237.7
-315.761
1226.3
44.5142
332.895
570.589
-969.539
392.993
473.728
-309.301
442.863
163.058
-265.157
442.392
118.958
-92.8402
467.081
-20.8956
-2.58725
479.325
28.3606
-13.2342
505.075
-3.91688
10.2193
517.615
24.8578
-10.7033
535.244
16.4343
-5.22312
547.465
20.8286
-17.2697
562.256
14.4336
-14.6619
575.701
11.9225
-19.6322
591.774
5.90082
-16.8028
608.003
2.91099
-18.5931
626.705
1.25036
-14.6639
643.8
4.7934
-15.4093
663.068
15.7087
-18.7927
17.3652
-2.18647
0.849599
379.246
-205.953
173.545
737.03
442.993
493.365
394.539
-217.352
709.777
268.221
47.1085
779.83
94.7806
123.95
808.218
92.5733
66.7114
738.103
21.9938
122.565
705.552
48.7651
53.4531
673.205
18.152
44.6858
668.352
35.4807
-8.32443
670.758
21.2827
-24.914
680.512
27.639
-48.6572
692.096
17.9158
-52.6361
704.658
16.1997
-56.4215
719.706
2.05381
-50.1171
737.398
-5.48464
-47.2852
753.625
-8.06913
-43.0992
766.945
1.63656
-41.4178
783.3
12.1994
-47.0645
14.4451
-32.5164
198.828
535.549
622.128
933.266
909.145
692.978
1097.86
522.914
1103.68
453.937
1171.67
213.288
1146.52
165.378
1175.37
82.6895
1165.76
104.443
1184.96
94.85
1189.28
101.075
1206.08
86.0422
1212.44
79.0252
1217.56
67.974
1205.33
65.8013
1178.87
69.6797
1146.12
80.3859
1127.05
76.4611
1126.05
59.8014
53.1286
468.016
-163.178
-4331.3
587.015
-474.794
-462.04
909.161
-415.35
-337.79
896.218
-134.588
-188.473
933.008
-62.6585
143.999
981.318
27.7224
134.366
1059.23
53.6032
373.118
1091.43
48.4204
206.95
1087.54
26.213
172.489
1089.29
10.7321
130.339
1101.54
-1.96056
135.883
1128.18
-8.39909
122.51
1158.42
-10.1
115.072
1192.55
-7.12338
83.9387
1224.11
1.06146
53.287
1255.02
3.0155
30.7814
1288.2
4.69766
9.11146
1317.51
2.38532
6.21925
1328.97
11.1989
-29.5756
21.4342
-20.0991
1900.27
-1032
2225.13
1426.43
-947.669
-204.126
1040.44
-430.005
-552.631
903.516
-65.1436
-142.749
910.914
-23.9059
154.92
938.965
97.8916
203.263
973.391
113.779
242.77
962.278
105.583
87.4059
921.775
73.1933
51.081
887.274
54.5238
19.005
865.327
35.1823
32.1394
850.26
24.462
12.932
838.122
13.9314
-3.61358
827.621
11.0431
-28.3169
820.221
8.62381
-49.5813
817.655
3.47
-63.8516
817.527
-0.473536
-70.4892
819.56
-6.08905
-73.9834
818.735
-3.48418
-93.9359
4.56397
-77.3974
2268.02
-747.222
2431.26
1862.03
-590.557
210.804
992.635
-97.9554
-74.847
750.448
70.494
121.929
747.523
-16.02
43.1785
754.864
115.926
89.6411
811.89
87.5223
97.4034
821.597
114.115
35.2554
813.364
83.6571
38.0726
785.422
86.2677
16.0982
753.884
69.9688
31.3756
722.383
66.0292
22.3595
696.706
48.4433
20.9883
672.55
38.3037
-0.744188
653.93
21.5423
-16.5261
642.89
9.15615
-18.2353
636.712
0.506566
-20.0891
633.049
-7.41
-18.9969
631.363
-6.45257
-23.4039
2.57921
-5.39502
445.313
43.0913
-985.718
593.123
-205.043
-767.148
502.916
-112.631
-618.049
627.753
-28.2409
-27.5106
669.666
-66.3204
-11.0804
708.152
68.2317
6.92286
750.013
38.2048
34.1702
750.036
110.48
0.340158
732.448
95.2876
20.0949
696.752
117.998
5.92433
664.094
104.107
23.9813
633.135
99.4492
11.0632
605.64
74.579
4.76105
582.416
59.9189
-5.16957
566.876
33.5921
-7.39843
556.817
16.9513
-5.97869
554.195
1.79655
-4.77287
552.645
-6.70978
-5.34031
549.927
-3.89469
-10.219
4.21517
0.524117
708.971
756.693
-320.88
735.939
-176.846
-222.086
772.164
-186.084
-68.8432
802.142
-76.3564
83.8369
741.307
-25.0032
56.1049
675.886
117.771
3.43906
646.155
54.7886
9.41468
622.526
123.507
-16.2748
617.503
91.6585
5.7421
607.784
120.949
-7.37581
605.656
102.966
8.99561
600.237
102.933
2.514
593.076
79.2136
1.88772
581.098
69.0306
-6.88079
567.616
43.5233
-1.43232
555.286
28.3406
1.26435
549.805
7.31743
3.50091
546.569
-2.61598
4.02097
547.69
-2.91617
3.35219
3.88479
9.5277
190.294
486.45
2720.82
700.53
-297.172
-213.35
676.703
-313.491
253.838
734.205
-141.039
53.1401
709.098
6.50186
138.48
689.568
147.983
44.8109
684.161
59.7866
47.7128
665.61
142.189
7.62854
661.396
93.747
15.4866
653.737
125.953
3.13131
653.336
98.9673
3.37229
651.292
100.695
-4.38928
648.194
76.3461
-8.34483
640.144
69.8343
-12.7036
622.765
52.9676
-11.8299
600.552
45.7126
3.98195
583.849
32.6369
28.22
573.075
25.4101
34.8484
564.904
16.068
18.5206
11.7404
14.2924
975.511
-439.794
1278.29
1461.38
-426.694
-502.486
1262.41
-26.9055
246.451
1067.11
-8.43197
168.497
815.866
210.652
120.709
673.462
292.04
31.366
610.534
52.0129
32.4064
14.5682
48.1826
11.2249
592.469
43.5904
24.9759
39.9214
42.5883
39.3566
593.519
35.3625
20.406
14.7754
33.4643
13.0104
601.774
34.3307
13.2897
26.4188
33.0898
25.5218
616.519
29.8433
12.8294
13.6014
28.4522
12.4356
632.229
27.1783
12.5949
16.4743
26.3131
16.1063
645.446
23.4869
15.185
9.75416
23.1397
9.63356
649.448
21.8441
10.5668
11.1923
22.0335
12.0286
649.122
55.932
10.5475
639.421
59.3409
15.7964
619.876
57.2993
25.6304
603.375
53.6565
33.1916
597.227
40.018
31.2581
21.3214
20.6856
1683.75
107.399
3548.71
1032.42
-178.181
-115.262
871.181
164.652
-350.185
855.971
14.9783
-239.745
785.353
256.899
13.9192
186.855
80.2929
-29.4034
190.159
172.088
174.776
89.0817
78.7095
87.6698
-2.08085
181.032
60.7108
-0.793831
-6.28974
-155.491
160.31
37.8233
7.23804
-6.47668
-153.662
157.114
32.8893
5.49785
-5.00336
-146.586
156.004
25.2584
4.65739
-1.46572
-151.276
159.109
22.814
0.661624
-0.161423
-152.387
162.631
16.9695
0.126724
-1.47837
-158.451
168.025
14.2596
1.13177
-2.98768
-162.542
172.482
12.0745
2.81784
632.211
19.4374
6.63174
-165.709
-166.02
-155.381
-155.15
9.47651
20.7747
10.9818
612.389
76.0618
6.63213
596.32
75.0087
17.1577
591.011
67.2023
20.6704
592.136
47.9214
13.374
22.7853
15.2645
-1372.54
465.879
4384.87
-519.438
-456.158
-1029.96
258.93
-262.325
-241.533
329.353
-115.319
-73.1918
136.229
120.633
-53.4423
119.343
122.497
105.722
24.1132
161.23
57.5216
-26.3428
1.9361
-19.7106
-43.5369
45.925
17.9518
-2.56546
-0.352775
-42.7014
-13.5919
43.7244
12.3461
0.575629
-2.37976
-42.1607
-10.9084
43.5972
9.56684
2.28486
-1.75855
-41.0083
-8.66334
42.4091
7.51261
1.5085
0.613581
-40.9407
-7.48671
42.6954
5.91911
-0.80067
2.50327
-41.2431
-5.58035
42.9823
3.84698
-2.50914
2.66252
-42.0726
-4.48773
43.9718
2.42615
-2.50009
1.74648
-42.9894
-3.93122
44.8074
1.84782
-1.4811
-43.1227
0.46332
176.609
12.5347
0.994296
-43.7446
-41.8843
-42.4125
610.322
96.9849
17.3627
-165.006
-168.252
-153.286
-155.578
593.928
93.4208
17.958
591.773
76.9
15.0712
596.483
45.9753
5.09868
20.4274
9.39501
1538.9
1004.12
1554.44
770.335
58.8994
-65.1592
455.077
-35.1605
-182.586
349.286
-68.146
-129.274
109.133
85.2457
-15.5085
105.004
97.5347
95.0214
14.3599
-40.1732
125.742
22.1555
-12.9509
0.336765
-13.8138
-36.9401
39.8637
10.8637
-0.310183
-2.40737
-11.1683
-44.4917
45.4803
10.061
2.52614
-3.40247
-9.9793
-47.5482
47.9503
9.7014
3.27827
-1.94534
-8.99201
-48.7574
48.8553
9.07677
1.76268
-49.0883
1.48805
-6.67592
49.0539
6.86739
-1.64508
-48.7197
4.09174
-4.15474
4.41522
-4.02447
48.392
3.95093
-1.98439
-47.4796
47.2021
2.00381
-3.69283
2.17567
-1.32432
-46.6423
46.5232
1.22508
-1.95733
-45.807
2.31927
-14.044
177.572
16.1665
-1.44898
-45.983
-44.3328
-44.4416