/*--------------------------------*- C++ -*----------------------------------*\
  =========                 |
  \\      /  F ield         | OpenFOAM: The Open Source CFD Toolbox
   \\    /   O peration     | Website:  https://openfoam.org
    \\  /    A nd           | Version:  10
     \\/     M anipulation  |
\*---------------------------------------------------------------------------*/
FoamFile
{
    format      ascii;
    class       volScalarField;
    location    "6.8";
    object      turbidity_0;
}
// * * * * * * * * * * * * * * * * * * * * * * * * * * * * * * * * * * * * * //

dimensions      [0 0 0 0 0 0 0];

internalField   nonuniform List<scalar> 
12920
(
-0.00838779
-0.0150841
-0.0221877
-0.0307866
-0.0435195
-0.0649112
-0.102507
-0.152942
-0.198621
-0.237963
-0.274778
-0.309286
-0.338649
-0.360591
-0.375561
-0.385131
-0.391237
-0.394992
-0.395585
-0.397484
-0.0113497
-0.024263
-0.0398269
-0.0543859
-0.0689018
-0.0897083
-0.118526
-0.151306
-0.184934
-0.222023
-0.263582
-0.306536
-0.340813
-0.354766
-0.351726
-0.34243
-0.333127
-0.326546
-0.314282
-0.30895
-0.0538251
-0.0582159
-0.0667353
-0.0928059
-0.111945
-0.129893
-0.149888
-0.170889
-0.193234
-0.219341
-0.253405
-0.29975
-0.353203
-0.401956
-0.438734
-0.473852
-0.506499
-0.536649
-0.562033
-0.585106
-0.0357065
-0.0717754
-0.0764501
-0.0930351
-0.108706
-0.127841
-0.151408
-0.179734
-0.21693
-0.264835
-0.323136
-0.385935
-0.446395
-0.497855
-0.545155
-0.590394
-0.632012
-0.668724
-0.702619
-0.738041
-0.0129799
-0.0398886
-0.0608971
-0.0791386
-0.0953445
-0.112439
-0.139785
-0.171981
-0.212453
-0.25589
-0.304718
-0.352086
-0.397161
-0.442439
-0.494421
-0.551087
-0.60911
-0.666793
-0.723233
-0.774087
-0.0109247
-0.0322977
-0.0484024
-0.0675258
-0.0913831
-0.118224
-0.147263
-0.177777
-0.209857
-0.240603
-0.269174
-0.295308
-0.318179
-0.341572
-0.367761
-0.401048
-0.444141
-0.510675
-0.599981
-0.689307
-0.00791961
-0.0231325
-0.0381498
-0.0540951
-0.0803836
-0.110657
-0.141339
-0.174112
-0.207736
-0.240116
-0.268418
-0.291856
-0.310261
-0.325874
-0.342638
-0.365057
-0.397638
-0.447265
-0.518074
-0.598013
-0.0119469
-0.0255066
-0.0372571
-0.0519647
-0.0731625
-0.0984806
-0.108623
-0.128409
-0.154509
-0.177123
-0.199084
-0.208941
-0.206366
-0.187706
-0.157317
-0.199374
-0.262938
-0.345667
-0.433829
-0.506468
-0.0123089
-0.0360232
-0.0542619
-0.0668574
-0.0837864
-0.0877741
-0.0968084
-0.110918
-0.125321
-0.13884
-0.147781
-0.144261
-0.125611
-0.101571
-0.0837768
-0.11953
-0.184286
-0.265858
-0.343124
-0.394278
-0.00804127
-0.0312756
-0.0556488
-0.0804661
-0.107913
-0.104697
-0.0993797
-0.0964083
-0.101598
-0.10585
-0.108718
-0.105935
-0.0965946
-0.0859115
-0.080041
-0.104214
-0.151726
-0.21174
-0.266904
-0.305046
-0.027312
-0.0605153
-0.068668
-0.108489
-0.141968
-0.140089
-0.13576
-0.131001
-0.124887
-0.113747
-0.102331
-0.0934068
-0.0865707
-0.0803197
-0.0848497
-0.102739
-0.138154
-0.182698
-0.227388
-0.266555
-0.0343819
-0.0593961
-0.0743952
-0.0995763
-0.135332
-0.142541
-0.150884
-0.154118
-0.154793
-0.154898
-0.147913
-0.125194
-0.103046
-0.0955405
-0.104373
-0.108001
-0.139037
-0.178112
-0.220258
-0.261724
-0.01903
-0.0388255
-0.0591167
-0.0800658
-0.107846
-0.141781
-0.152101
-0.165969
-0.175553
-0.182028
-0.186979
-0.177313
-0.162212
-0.148652
-0.143766
-0.160306
-0.183774
-0.214613
-0.250677
-0.291483
-0.0484783
-0.0751729
-0.0923763
-0.120556
-0.149195
-0.191317
-0.212162
-0.247187
-0.270439
-0.30488
-0.32545
-0.34354
-0.340794
-0.333028
-0.319732
-0.313352
-0.31357
-0.327191
-0.353001
-0.391345
-0.0635421
-0.0532283
-0.0901994
-0.133928
-0.171902
-0.2115
-0.240823
-0.274498
-0.305254
-0.34158
-0.375775
-0.411356
-0.435466
-0.452408
-0.458045
-0.462202
-0.466507
-0.480785
-0.504574
-0.540476
-0.0309611
-0.0537611
-0.0885026
-0.152596
-0.184181
-0.218204
-0.251796
-0.283341
-0.316583
-0.350004
-0.38813
-0.42511
-0.462157
-0.496139
-0.524765
-0.550332
-0.572514
-0.596791
-0.62239
-0.65128
-0.0446911
-0.0703403
-0.074064
-0.12609
-0.163833
-0.214168
-0.266215
-0.31847
-0.362596
-0.400313
-0.433267
-0.464266
-0.495474
-0.526203
-0.556965
-0.585012
-0.611579
-0.636762
-0.658026
-0.677907
-0.0281747
-0.0659857
-0.0690755
-0.097957
-0.126262
-0.171041
-0.223378
-0.276475
-0.327873
-0.370348
-0.408828
-0.43727
-0.464374
-0.487109
-0.510054
-0.530771
-0.55218
-0.571379
-0.587158
-0.602198
-0.0296243
-0.0681882
-0.0795401
-0.0997464
-0.12344
-0.158487
-0.199306
-0.248081
-0.29198
-0.326007
-0.349733
-0.370839
-0.392826
-0.414638
-0.435939
-0.453726
-0.468496
-0.482572
-0.492921
-0.504242
-0.0820251
-0.0828131
-0.0940767
-0.109022
-0.127134
-0.148711
-0.168358
-0.190853
-0.214501
-0.243164
-0.271703
-0.299398
-0.323669
-0.3454
-0.36544
-0.386942
-0.412329
-0.441075
-0.469831
-0.495572
-0.00151435
-0.00388466
-0.00732981
-0.0139124
-0.0291939
-0.0498344
-0.0720047
-0.0870199
-0.101279
-0.117536
-0.134425
-0.147831
-0.156498
-0.159765
-0.158878
-0.153788
-0.145999
-0.135057
-0.11804
-0.104649
-0.0133987
-0.00993253
-0.0150914
-0.0246771
-0.0399613
-0.0469658
-0.0486007
-0.0457519
-0.0518735
-0.064296
-0.0756796
-0.0735459
-0.0597458
-0.0455164
-0.037162
-0.0336423
-0.0334155
-0.0353364
-0.0383482
-0.0435124
-0.0320363
-0.0175352
-0.0122276
-0.0242142
-0.032917
-0.0366435
-0.0389566
-0.0392805
-0.0457263
-0.0551477
-0.0679113
-0.0734468
-0.0671445
-0.0574406
-0.0550796
-0.0587687
-0.0658341
-0.0748664
-0.0850891
-0.0967217
-0.0423494
-0.0235759
-0.0178278
-0.0182457
-0.0142497
-0.0147143
-0.0204038
-0.0278712
-0.0389918
-0.0478239
-0.0571644
-0.0596059
-0.0596431
-0.0628657
-0.0690768
-0.0766662
-0.0844175
-0.091551
-0.0984186
-0.107226
-0.0203086
-0.0206726
-0.021528
-0.020084
-0.0161174
-0.0133793
-0.0154895
-0.0202772
-0.0267085
-0.033534
-0.0417778
-0.050736
-0.0640473
-0.0811776
-0.101822
-0.119814
-0.129526
-0.130699
-0.124852
-0.118102
-0.0103048
-0.00822387
-0.0138361
-0.0215194
-0.0261392
-0.0231115
-0.0210338
-0.0196316
-0.0206373
-0.0228936
-0.0271615
-0.0342971
-0.0454966
-0.0631576
-0.0899426
-0.128557
-0.172705
-0.192253
-0.173372
-0.140375
-0.00304686
-0.00462621
-0.00395875
-0.00636635
-0.0142283
-0.0202554
-0.0259158
-0.0280988
-0.0291285
-0.0291806
-0.0326973
-0.0420479
-0.0561956
-0.0722365
-0.0936762
-0.121804
-0.153549
-0.179372
-0.183317
-0.157744
-0.00322164
-0.00241497
-0.00305766
-0.00471174
-0.00797986
-0.0125542
-0.0160826
-0.0256958
-0.0359399
-0.0411012
-0.0357186
-0.0343367
-0.0398681
-0.0494893
-0.0649192
-0.0891517
-0.115603
-0.132828
-0.129629
-0.111849
-0.00736741
-0.0165709
-0.0173971
-0.00939291
-0.0112225
-0.0129114
-0.0155992
-0.0244542
-0.0467496
-0.0578327
-0.0404425
-0.0280944
-0.0265903
-0.029624
-0.0382861
-0.0685689
-0.0922949
-0.103114
-0.0948308
-0.0796725
-0.00431937
-0.0108931
-0.0112434
-0.0157683
-0.0312022
-0.0319951
-0.0334851
-0.0462475
-0.060985
-0.0582011
-0.0410821
-0.0275126
-0.0278201
-0.0369403
-0.0395385
-0.0523957
-0.0696324
-0.07778
-0.0719912
-0.0625655
-0.0142264
-0.0193915
-0.0187258
-0.0308388
-0.0512417
-0.0566668
-0.0748453
-0.0866574
-0.0746056
-0.0575442
-0.0451649
-0.0391193
-0.0472014
-0.0672153
-0.0552918
-0.0431585
-0.0533482
-0.0597248
-0.0593374
-0.0553115
-0.019107
-0.026055
-0.0242938
-0.0315819
-0.0600275
-0.0693702
-0.0774776
-0.0820414
-0.0890164
-0.113712
-0.131371
-0.125274
-0.11416
-0.0982148
-0.0514001
-0.0394695
-0.0477128
-0.0540753
-0.0573812
-0.0564977
-0.00972117
-0.0141912
-0.0126989
-0.0145626
-0.0212021
-0.0245124
-0.0262022
-0.0296914
-0.0424254
-0.0635174
-0.0748033
-0.0805608
-0.0764859
-0.063584
-0.0509305
-0.0532837
-0.0572225
-0.0609905
-0.0651113
-0.0675102
-0.0103244
-0.0249207
-0.0223433
-0.0268631
-0.0269847
-0.0297599
-0.0285471
-0.0349127
-0.0409243
-0.0543707
-0.0658407
-0.0759909
-0.0798854
-0.0819119
-0.0821443
-0.0821323
-0.0837998
-0.0869517
-0.0917962
-0.098382
-0.0117748
-0.0112965
-0.0162848
-0.0233667
-0.0239012
-0.0243631
-0.0252306
-0.0268794
-0.0346867
-0.0415949
-0.0534073
-0.0627143
-0.0734215
-0.0820554
-0.0888223
-0.093048
-0.0982066
-0.102864
-0.10742
-0.11224
-0.0104143
-0.0105573
-0.0159881
-0.034423
-0.0221559
-0.0276257
-0.0256259
-0.0264212
-0.0301441
-0.033592
-0.0398324
-0.0451434
-0.0530412
-0.0592824
-0.0676363
-0.0736568
-0.0804878
-0.0833611
-0.0841353
-0.0832843
-0.00162095
-0.0210363
-0.0142587
-0.0244635
-0.0234839
-0.0289746
-0.033736
-0.0402278
-0.0431189
-0.0435935
-0.0435999
-0.0437246
-0.0454208
-0.0473977
-0.0501159
-0.052304
-0.0543912
-0.0553737
-0.0552918
-0.0544688
-0.0342243
-0.0201302
-0.0184241
-0.0237374
-0.0346669
-0.0391567
-0.043928
-0.0402143
-0.0425481
-0.0412315
-0.0408039
-0.0396228
-0.0386664
-0.0377026
-0.0372131
-0.0369506
-0.0371238
-0.0372928
-0.0374415
-0.037443
-0.00910294
-0.0233673
-0.0351988
-0.045989
-0.0640865
-0.0701544
-0.0720958
-0.059321
-0.0464163
-0.0352528
-0.0329197
-0.0337152
-0.0353289
-0.0366266
-0.0378963
-0.0380527
-0.0371332
-0.0362107
-0.0367433
-0.0388223
-0.0219847
-0.0416481
-0.0612403
-0.0714426
-0.0762044
-0.0685244
-0.0596339
-0.0563091
-0.064683
-0.0779918
-0.0927073
-0.104528
-0.115137
-0.125696
-0.139324
-0.156848
-0.17689
-0.192542
-0.199111
-0.198794
-0.00703642
-0.0063976
-0.00929182
-0.0125304
-0.0220937
-0.0310902
-0.0419949
-0.049371
-0.0592697
-0.0692463
-0.0780981
-0.0836249
-0.0861041
-0.0851371
-0.0815756
-0.0760505
-0.0690328
-0.0608641
-0.051479
-0.0447406
-0.0122258
-0.0110039
-0.00899895
-0.0113954
-0.0186651
-0.0199781
-0.0208349
-0.0221493
-0.0261915
-0.0290415
-0.029721
-0.0265763
-0.0225865
-0.0201267
-0.019439
-0.0199242
-0.0212649
-0.0231925
-0.0257698
-0.0293396
-0.0344221
-0.0227114
-0.012005
-0.00932574
-0.0121351
-0.0148914
-0.0184874
-0.0219961
-0.0266371
-0.0296993
-0.0315499
-0.0304739
-0.0283939
-0.0274712
-0.0284878
-0.0306477
-0.03317
-0.0356601
-0.0379903
-0.0402017
-0.0138601
-0.00900562
-0.0090235
-0.00907432
-0.00910841
-0.0110519
-0.0145457
-0.0183054
-0.0220923
-0.0244786
-0.0265113
-0.0275709
-0.0288488
-0.0303719
-0.0319593
-0.0331671
-0.0338963
-0.0341937
-0.0343924
-0.0351322
-0.00500144
-0.00774646
-0.00938774
-0.00957355
-0.0088851
-0.00937238
-0.0112516
-0.0140422
-0.017163
-0.020645
-0.0251471
-0.0302624
-0.0361617
-0.0411517
-0.0451375
-0.0465994
-0.0455486
-0.0424803
-0.0389111
-0.0365772
-0.00308045
-0.00225211
-0.00380953
-0.00625359
-0.00813985
-0.00855583
-0.00953215
-0.0109873
-0.0131826
-0.0166302
-0.0217929
-0.0290559
-0.0389698
-0.0510685
-0.06501
-0.078338
-0.0860457
-0.0788518
-0.0622555
-0.0490184
-0.000711093
-0.00149243
-0.00252856
-0.00452405
-0.00751138
-0.00919817
-0.0109399
-0.0119803
-0.0134139
-0.0161406
-0.0209443
-0.0281378
-0.0375204
-0.048552
-0.0608456
-0.0728852
-0.0817783
-0.0828034
-0.0741017
-0.0610193
-0.000612099
-0.000950952
-0.00184616
-0.00332373
-0.00557946
-0.007976
-0.00947511
-0.012593
-0.014408
-0.0156742
-0.0178246
-0.0222861
-0.0293027
-0.0389281
-0.0520629
-0.0605737
-0.0650033
-0.0632457
-0.0567581
-0.0504806
-0.00857063
-0.00496445
-0.00561365
-0.0059487
-0.00817167
-0.00911988
-0.0100674
-0.0134438
-0.0174999
-0.0167488
-0.0145654
-0.015237
-0.0178346
-0.023956
-0.039304
-0.0513697
-0.0541457
-0.0508746
-0.0447368
-0.0395849
-0.00217651
-0.00528841
-0.00748611
-0.0110725
-0.0166134
-0.0165692
-0.0166797
-0.0201513
-0.0209822
-0.0170129
-0.0139661
-0.0166016
-0.0207722
-0.0211759
-0.0265021
-0.038559
-0.0417383
-0.0394422
-0.0350967
-0.0317808
-0.019428
-0.0170446
-0.014851
-0.0193834
-0.0261239
-0.0280822
-0.035357
-0.0374714
-0.0334982
-0.0311592
-0.0333445
-0.0414623
-0.0503877
-0.0463089
-0.0258019
-0.0291624
-0.0319192
-0.0316254
-0.0305193
-0.0299695
-0.0180342
-0.0160887
-0.0182545
-0.0237307
-0.0337622
-0.0343112
-0.033708
-0.0350598
-0.040871
-0.0550195
-0.0702546
-0.0776779
-0.0734393
-0.0467396
-0.0222642
-0.0244581
-0.0272658
-0.0288577
-0.0301638
-0.0308473
-0.00393259
-0.00738445
-0.00885734
-0.0118476
-0.0162737
-0.0175017
-0.0178998
-0.018978
-0.0235278
-0.030743
-0.0355792
-0.0370786
-0.0330269
-0.028214
-0.0270456
-0.0288655
-0.03086
-0.0329615
-0.0349979
-0.0360065
-0.0161587
-0.0160756
-0.0136438
-0.0165257
-0.017502
-0.0161815
-0.0159454
-0.0174228
-0.0206057
-0.0250252
-0.0284423
-0.0316506
-0.0333617
-0.0351629
-0.0366527
-0.0383371
-0.0403411
-0.0425785
-0.0446144
-0.0457904
-0.00390862
-0.00718323
-0.0115456
-0.0151101
-0.0146655
-0.013045
-0.0136715
-0.0147377
-0.0180353
-0.0205703
-0.0242329
-0.0270444
-0.0303404
-0.0334004
-0.036448
-0.0387774
-0.0409492
-0.0422165
-0.0424675
-0.0416534
-0.0086752
-0.00995917
-0.0116973
-0.014711
-0.0118627
-0.0125153
-0.0128992
-0.0140051
-0.016068
-0.0176414
-0.020035
-0.0217282
-0.0240873
-0.0258437
-0.0280104
-0.029344
-0.03058
-0.0305576
-0.0299311
-0.0287537
-0.00152705
-0.00962214
-0.0110963
-0.0129054
-0.0134446
-0.0142496
-0.0150888
-0.0166848
-0.0177161
-0.0181622
-0.0186439
-0.0188293
-0.0192912
-0.0196085
-0.0201228
-0.0204553
-0.0208152
-0.0208926
-0.0208147
-0.0206075
-0.0103204
-0.01142
-0.0141116
-0.0182215
-0.0233945
-0.0201044
-0.0183545
-0.0163204
-0.016686
-0.0167211
-0.0168989
-0.0168667
-0.0168602
-0.0167735
-0.0167203
-0.0165572
-0.0164311
-0.0163677
-0.0165097
-0.0168986
-0.00992512
-0.0212343
-0.0305003
-0.0364851
-0.0431429
-0.0387747
-0.032344
-0.0232813
-0.0191525
-0.0184016
-0.0201824
-0.0226264
-0.0255887
-0.0282597
-0.0306588
-0.0317909
-0.0316293
-0.0301689
-0.0282715
-0.026703
-0.0195848
-0.0291355
-0.0405156
-0.0430999
-0.0408043
-0.0304893
-0.023835
-0.0211625
-0.0241383
-0.0293993
-0.0357482
-0.0414632
-0.0475417
-0.0551721
-0.065856
-0.0795001
-0.0934399
-0.103475
-0.107083
-0.10517
-0.00373189
-0.00541458
-0.0067717
-0.00863011
-0.0148063
-0.0190153
-0.0255648
-0.0300328
-0.0353254
-0.0392277
-0.042033
-0.0424971
-0.0411249
-0.0376341
-0.0327143
-0.0273982
-0.0226013
-0.0193727
-0.0177633
-0.0175955
-0.0107996
-0.00813377
-0.00638191
-0.00739218
-0.0103809
-0.011602
-0.0133943
-0.0145578
-0.0155554
-0.0153947
-0.0148952
-0.01402
-0.0138084
-0.0140784
-0.0146545
-0.0153638
-0.0162563
-0.0173584
-0.0186828
-0.020246
-0.0110637
-0.00483542
-0.00493648
-0.00761336
-0.010451
-0.0127096
-0.0150873
-0.0163761
-0.017532
-0.0175644
-0.0175594
-0.0171416
-0.0169717
-0.0171059
-0.0174766
-0.0178311
-0.0180572
-0.0181468
-0.0182476
-0.0183434
-0.00166007
-0.00433076
-0.00555338
-0.0063626
-0.00800333
-0.0102899
-0.0123944
-0.0138728
-0.0151902
-0.0158896
-0.0165299
-0.0167177
-0.0167434
-0.0165722
-0.0162897
-0.0159439
-0.0156506
-0.0154965
-0.0155613
-0.0159591
-0.00397626
-0.00530468
-0.00523718
-0.00572922
-0.00668583
-0.0082863
-0.00995814
-0.0117593
-0.0136864
-0.0154617
-0.0173623
-0.01873
-0.0197432
-0.0199339
-0.0197567
-0.0190522
-0.0181116
-0.0171307
-0.0164727
-0.0164098
-0.00197553
-0.00221296
-0.00359607
-0.00473228
-0.00581949
-0.00696626
-0.00827051
-0.00997927
-0.0121839
-0.0148649
-0.0182272
-0.0218113
-0.0257054
-0.0289951
-0.0317586
-0.0332946
-0.0321216
-0.0271076
-0.0219022
-0.0190589
-0.000145775
-0.000991086
-0.0027304
-0.00442256
-0.00586307
-0.00681102
-0.00792802
-0.00944773
-0.0115321
-0.0144396
-0.0180727
-0.0221664
-0.0262997
-0.0298819
-0.032827
-0.0346043
-0.034655
-0.0320491
-0.0277743
-0.0238561
-0.000635477
-0.0011679
-0.00249137
-0.00388472
-0.00535875
-0.00659116
-0.00735248
-0.00896616
-0.0105147
-0.012718
-0.0155727
-0.0190843
-0.0232035
-0.0273702
-0.0283409
-0.0290292
-0.0284097
-0.02626
-0.0234997
-0.0212185
-0.00955751
-0.00364351
-0.00452744
-0.00603495
-0.00728486
-0.00746061
-0.00765181
-0.00898408
-0.0100208
-0.0104937
-0.0114394
-0.0131416
-0.0167538
-0.021933
-0.0275493
-0.0253853
-0.0236522
-0.0207323
-0.0176491
-0.0153179
-0.00328168
-0.00533252
-0.00692729
-0.00944738
-0.0109528
-0.0106167
-0.0104618
-0.0107479
-0.0102078
-0.00996108
-0.0115032
-0.0129193
-0.0131238
-0.0156703
-0.0220394
-0.0208397
-0.0192701
-0.0167895
-0.0145569
-0.0129988
-0.00189629
-0.00571689
-0.0103381
-0.0141293
-0.0155309
-0.0168835
-0.0203042
-0.0218687
-0.0230579
-0.0267097
-0.0315415
-0.0313678
-0.0221262
-0.0165142
-0.0185778
-0.0173341
-0.0165994
-0.015492
-0.0145504
-0.0137681
-0.00980352
-0.012035
-0.0151195
-0.0171289
-0.0183529
-0.0187196
-0.0182418
-0.0208515
-0.0261001
-0.0351153
-0.0416699
-0.0385521
-0.0257748
-0.0168105
-0.0160856
-0.0153108
-0.0155843
-0.0154437
-0.0149786
-0.0141337
-0.00525909
-0.0062623
-0.00834434
-0.0114274
-0.0137286
-0.0131465
-0.0128746
-0.0134862
-0.0157501
-0.0183589
-0.0187811
-0.0178746
-0.0166431
-0.0162121
-0.0162723
-0.0169211
-0.0171984
-0.0170245
-0.0163976
-0.0153211
-0.0259604
-0.0126246
-0.0116986
-0.0127608
-0.0121079
-0.0105974
-0.0110574
-0.0119166
-0.0132198
-0.0146464
-0.0154464
-0.0165026
-0.0171495
-0.0180917
-0.0188323
-0.0192296
-0.0191913
-0.0186833
-0.0178748
-0.0169411
-0.00662385
-0.00900425
-0.0107807
-0.0112023
-0.0101023
-0.00947862
-0.0101859
-0.0108962
-0.0122888
-0.0130289
-0.0141333
-0.014807
-0.0156932
-0.0162888
-0.0167856
-0.016715
-0.0164945
-0.0158979
-0.0151995
-0.0147449
-0.00729923
-0.0105358
-0.0103731
-0.0102324
-0.00907547
-0.00944449
-0.009912
-0.0105472
-0.0114136
-0.0118215
-0.0125009
-0.0127002
-0.0131299
-0.0131766
-0.0133606
-0.0132259
-0.0132055
-0.012998
-0.0129774
-0.0132909
-0.00380197
-0.0092116
-0.0101316
-0.0098507
-0.00971317
-0.0101233
-0.0106191
-0.0112868
-0.0116091
-0.0116714
-0.0116882
-0.011587
-0.0115681
-0.0115386
-0.01159
-0.0116587
-0.0118292
-0.0120896
-0.0125124
-0.0131672
-0.00476476
-0.00765821
-0.0107899
-0.0127446
-0.0137178
-0.0116482
-0.0116752
-0.0120246
-0.012803
-0.0132756
-0.0137145
-0.0139473
-0.0141437
-0.0141144
-0.0139634
-0.0136327
-0.0132999
-0.0131219
-0.0131966
-0.0136031
-0.0164636
-0.0197313
-0.0228261
-0.0241098
-0.0246481
-0.0191634
-0.015398
-0.0132193
-0.0137062
-0.0154243
-0.0176544
-0.0200788
-0.0226833
-0.0249611
-0.0267245
-0.0272376
-0.0265479
-0.0247919
-0.0224705
-0.0201313
-0.0161333
-0.0213547
-0.0224204
-0.0190952
-0.0166566
-0.0117543
-0.00986812
-0.00931283
-0.0105164
-0.0124032
-0.0150367
-0.0182412
-0.0229436
-0.0296267
-0.0383558
-0.0475856
-0.0548634
-0.0582338
-0.0567555
-0.0517999
-0.000895236
-0.00584376
-0.0073069
-0.00828344
-0.0106075
-0.0113991
-0.0138753
-0.0144048
-0.0155183
-0.0155358
-0.0152583
-0.013918
-0.0123856
-0.01091
-0.0101953
-0.0108523
-0.0122642
-0.0137042
-0.0147079
-0.0151469
-0.0015616
-0.00564431
-0.00798523
-0.00870521
-0.00916076
-0.00926127
-0.00957127
-0.00941612
-0.00954177
-0.00954535
-0.00981048
-0.0101628
-0.0106976
-0.0113378
-0.0120418
-0.01274
-0.0133793
-0.01398
-0.0146597
-0.0154172
-0.00210328
-0.00590808
-0.00894946
-0.00980296
-0.0102095
-0.0104678
-0.0111246
-0.0111832
-0.0115526
-0.011428
-0.0114234
-0.0112634
-0.0112396
-0.0113663
-0.0116931
-0.0121853
-0.012829
-0.0135789
-0.0143839
-0.015147
-0.00360872
-0.00714076
-0.00753995
-0.00828276
-0.0088433
-0.00960615
-0.0103894
-0.0107799
-0.0110706
-0.010958
-0.0108944
-0.0107904
-0.0108907
-0.011181
-0.0116552
-0.0122483
-0.0129176
-0.0136207
-0.0143289
-0.0149738
-0.00222455
-0.00461015
-0.00510419
-0.00625618
-0.00728022
-0.00857617
-0.00957363
-0.0102708
-0.0107414
-0.0108611
-0.0110481
-0.0110785
-0.011268
-0.0114935
-0.0119005
-0.0123523
-0.0128831
-0.0134798
-0.0141354
-0.0147811
-0.00189558
-0.00313559
-0.00453704
-0.00547432
-0.00639322
-0.00769995
-0.00878848
-0.00973784
-0.0105725
-0.0111415
-0.0117332
-0.0121364
-0.0126031
-0.0129742
-0.0134275
-0.0138251
-0.0139482
-0.0139263
-0.0142208
-0.0147875
-0.000981445
-0.00257636
-0.0041055
-0.00506504
-0.00595308
-0.00714895
-0.00826126
-0.00940654
-0.0103193
-0.0111983
-0.0119583
-0.0126374
-0.0131336
-0.0135126
-0.0139223
-0.014199
-0.0143152
-0.0142351
-0.014267
-0.0145755
-0.000514426
-0.000835407
-0.00238687
-0.00441355
-0.00573217
-0.00684859
-0.0074177
-0.00878715
-0.00982222
-0.010816
-0.0115116
-0.0122007
-0.0126354
-0.0129784
-0.0127138
-0.0127577
-0.0128205
-0.012903
-0.0131342
-0.0135577
-0.00256066
-0.00288395
-0.00455535
-0.00616518
-0.00702728
-0.00725888
-0.00742602
-0.00822393
-0.00920281
-0.0100072
-0.0109228
-0.0117573
-0.0122466
-0.0123715
-0.0120498
-0.0116159
-0.0114979
-0.0116085
-0.0119494
-0.0124144
-0.00309183
-0.00384925
-0.00601583
-0.00803354
-0.00870612
-0.0087336
-0.00848812
-0.00850296
-0.00899377
-0.00989538
-0.0107022
-0.0116045
-0.0122144
-0.0120686
-0.0099863
-0.0104364
-0.0105936
-0.0109473
-0.0114954
-0.0120745
-0.00465568
-0.00854146
-0.00991224
-0.0109417
-0.0106384
-0.0118014
-0.0133252
-0.0144719
-0.0154996
-0.0157861
-0.0143682
-0.0128174
-0.0122653
-0.0114077
-0.00904834
-0.00997943
-0.0104244
-0.0110134
-0.0117355
-0.0124451
-0.00529745
-0.0115411
-0.0124439
-0.0121508
-0.0110622
-0.0118842
-0.011505
-0.013051
-0.0151441
-0.0162794
-0.0144733
-0.0124606
-0.0113113
-0.00983666
-0.00791224
-0.00995062
-0.0107507
-0.0116272
-0.0125793
-0.0134902
-0.00296905
-0.00414117
-0.00778636
-0.0108528
-0.0108817
-0.00959796
-0.00938631
-0.00985879
-0.00998429
-0.0100256
-0.00973093
-0.00935616
-0.0088704
-0.00844605
-0.00994601
-0.0107186
-0.0115835
-0.0126151
-0.0137338
-0.0148322
-0.0187522
-0.0116837
-0.00995696
-0.00978181
-0.00894008
-0.00831963
-0.0085478
-0.00843327
-0.00835738
-0.00852021
-0.00854632
-0.00893832
-0.00923477
-0.00983776
-0.0105099
-0.0112767
-0.0121802
-0.0132463
-0.0144456
-0.0156518
-0.0202689
-0.0113023
-0.00878446
-0.00856425
-0.00800413
-0.00789306
-0.0080904
-0.00805411
-0.00809715
-0.0080689
-0.00827423
-0.00854948
-0.0090156
-0.00960329
-0.0103564
-0.0112366
-0.0123056
-0.0135319
-0.0148701
-0.0161403
-0.00482095
-0.00905453
-0.00900326
-0.00835623
-0.00789441
-0.00796898
-0.00792543
-0.00798888
-0.00796557
-0.00801436
-0.00819302
-0.00846189
-0.00892479
-0.00951376
-0.0103009
-0.0112399
-0.0123682
-0.0136553
-0.0150613
-0.0163708
-0.00314649
-0.00688859
-0.00888452
-0.00867532
-0.0085365
-0.00859017
-0.00853412
-0.00854393
-0.00842115
-0.00843682
-0.00854706
-0.00882023
-0.00926245
-0.00986141
-0.0106254
-0.0115328
-0.0125957
-0.0138034
-0.0151352
-0.0164021
-0.00822863
-0.00585502
-0.00777712
-0.00861249
-0.00902095
-0.00950486
-0.0101363
-0.0102583
-0.0104087
-0.0102535
-0.0102079
-0.0101085
-0.0101656
-0.0103194
-0.0106812
-0.0112347
-0.0120139
-0.0129907
-0.0141449
-0.0153171
-0.0128514
-0.0127683
-0.0112024
-0.0111857
-0.0108956
-0.0103562
-0.0111443
-0.0127107
-0.0143511
-0.0158276
-0.0169502
-0.0172621
-0.0169956
-0.0159967
-0.0148212
-0.013651
-0.0128261
-0.0125747
-0.0129208
-0.0137676
-0.00887345
-0.013012
-0.00848552
-0.00655409
-0.0065391
-0.00615575
-0.00670628
-0.0078034
-0.00959258
-0.0122425
-0.0156911
-0.0196158
-0.0233666
-0.0261091
-0.0273444
-0.0265675
-0.0238558
-0.0201407
-0.0163796
-0.0139615
-0.0141751
-0.0214895
-0.022539
-0.0115804
-0.0122428
-0.02062
-0.0250119
-0.0155626
-0.0237978
-0.0293728
-0.0126864
-0.0142052
-0.0268879
-0.0312074
-0.0322335
-0.0606546
-0.0694169
-0.0283644
-0.0325818
-0.0427888
-0.0490385
-0.0389616
-0.0714297
-0.0751594
-0.0342681
-0.0380543
-0.0505813
-0.0522767
-0.106984
-0.087106
-0.0912151
-0.0911677
-0.0999746
-0.0806717
-0.0877828
-0.12111
-0.0932417
-0.100292
-0.105683
-0.119445
-0.0908305
-0.099898
-0.135481
-0.10258
-0.108417
-0.123956
-0.133137
-0.102977
-0.110955
-0.146028
-0.110201
-0.114715
-0.13511
-0.133428
-0.11273
-0.109914
-0.14695
-0.115496
-0.113968
-0.128844
-0.104624
-0.103759
-0.0754183
-0.13149
-0.112031
-0.103229
-0.0948027
-0.0715323
-0.0663609
-0.0484147
-0.107572
-0.099781
-0.0900718
-0.0653487
-0.0545304
-0.0457239
-0.0461552
-0.0874007
-0.0872365
-0.0798772
-0.0529491
-0.054352
-0.048211
-0.0549452
-0.0958603
-0.114611
-0.116765
-0.094765
-0.0938456
-0.111895
-0.115066
-0.100213
-0.117018
-0.115708
-0.0951133
-0.100251
-0.115502
-0.113236
-0.104901
-0.114588
-0.109665
-0.102111
-0.106642
-0.111043
-0.101044
-0.108331
-0.107785
-0.102347
-0.107458
-0.10335
-0.0969919
-0.0826958
-0.107339
-0.100639
-0.0958805
-0.0978305
-0.0733975
-0.0776756
-0.0641076
-0.099302
-0.0943701
-0.0898596
-0.0655352
-0.0498101
-0.0606496
-0.0559015
-0.0884486
-0.0882787
-0.0832314
-0.0476444
-0.049707
-0.056673
-0.0654326
-0.0790064
-0.0813984
-0.0768069
-0.0522245
-0.058761
-0.068939
-0.072746
-0.131686
-0.150335
-0.151454
-0.133066
-0.129691
-0.146843
-0.149416
-0.126944
-0.151586
-0.151214
-0.129154
-0.124678
-0.150131
-0.15178
-0.116775
-0.151033
-0.149905
-0.121937
-0.110154
-0.152148
-0.151947
-0.104992
-0.148327
-0.138083
-0.105418
-0.0903735
-0.150965
-0.144108
-0.0953858
-0.133375
-0.116566
-0.0854668
-0.0726247
-0.140608
-0.127107
-0.0881765
-0.110957
-0.0972841
-0.0693339
-0.0649746
-0.122261
-0.109814
-0.0818339
-0.0938715
-0.0878699
-0.06587
-0.0735948
-0.106857
-0.101379
-0.0776163
-0.0876991
-0.0908855
-0.0763327
-0.0780729
-0.0996145
-0.0880205
-0.153663
-0.151339
-0.158251
-0.145949
-0.15062
-0.147813
-0.149348
-0.154627
-0.159841
-0.163131
-0.151739
-0.154181
-0.14884
-0.154381
-0.155163
-0.164407
-0.167414
-0.154829
-0.156189
-0.156658
-0.161645
-0.150778
-0.168309
-0.169171
-0.156224
-0.153625
-0.162587
-0.160891
-0.131882
-0.168882
-0.160023
-0.151538
-0.14063
-0.157892
-0.147261
-0.107596
-0.154439
-0.137078
-0.136004
-0.122441
-0.144775
-0.138168
-0.0956592
-0.132672
-0.124554
-0.118621
-0.109495
-0.134743
-0.118581
-0.0982863
-0.12312
-0.118609
-0.106095
-0.0889517
-0.110736
-0.0843904
-0.0205633
-0.0189968
-0.0302611
-0.015187
-0.0191138
-0.0176774
-0.0230161
-0.0405726
-0.0366576
-0.0543517
-0.0213137
-0.0260887
-0.0246856
-0.0278845
-0.0576032
-0.0580432
-0.0630589
-0.0272565
-0.0276714
-0.0281137
-0.0264092
-0.0463005
-0.0627185
-0.0507886
-0.0267517
-0.0228979
-0.0251509
-0.0202794
-0.029893
-0.0444871
-0.0305075
-0.0215607
-0.0191228
-0.0187651
-0.0166704
-0.0263506
-0.0279643
-0.0258759
-0.0188673
-0.0194373
-0.0168293
-0.018927
-0.0285659
-0.0266251
-0.0313472
-0.0201233
-0.0234187
-0.0198275
-0.0219386
-0.0336937
-0.0331607
-0.0368774
-0.0253951
-0.0340822
-0.0223927
-0.0247325
-0.0407516
-0.0640165
-0.078722
-0.0285703
-0.0281805
-0.0440274
-0.0428144
-0.0593584
-0.0790011
-0.0691936
-0.0286747
-0.0290618
-0.0409356
-0.0340116
-0.0600048
-0.063601
-0.0471058
-0.0285749
-0.0256562
-0.0318544
-0.0270151
-0.0462258
-0.0429464
-0.0325572
-0.0243303
-0.0199633
-0.0259779
-0.0245905
-0.0295782
-0.0305737
-0.0279506
-0.0187329
-0.0176725
-0.024871
-0.028541
-0.0265739
-0.028152
-0.0331163
-0.0182808
-0.0219351
-0.0306544
-0.0387628
-0.0345159
-0.0365518
-0.0512134
-0.0233009
-0.0257416
-0.0416244
-0.0463291
-0.0410939
-0.0559767
-0.0599461
-0.0257819
-0.025497
-0.0453487
-0.035666
-0.0863316
-0.075671
-0.0885875
-0.0533578
-0.0498933
-0.0561581
-0.0543061
-0.0788817
-0.090824
-0.0987052
-0.0481776
-0.0422919
-0.0541306
-0.055961
-0.0614901
-0.102659
-0.117988
-0.0404954
-0.0364426
-0.0575608
-0.06608
-0.0477176
-0.122421
-0.127554
-0.0355454
-0.0345634
-0.0697308
-0.079056
-0.0396115
-0.126421
-0.11714
-0.0349743
-0.0388879
-0.0809055
-0.0832231
-0.043564
-0.113339
-0.104404
-0.0409628
-0.0488463
-0.0835934
-0.0841491
-0.0628066
-0.102718
-0.097999
-0.0516961
-0.0558618
-0.0832985
-0.0714553
-0.0678437
-0.0947277
-0.0757827
-0.0542773
-0.0406791
-0.0641122
-0.0403797
-0.081803
-0.0540156
-0.0422456
-0.0540404
-0.0492138
-0.0425229
-0.0351452
-0.0859393
-0.0395396
-0.0406667
-0.0485828
-0.0493651
-0.0338912
-0.0343321
-0.1062
-0.0454171
-0.0665006
-0.0505955
-0.0590193
-0.0357482
-0.0431282
-0.129627
-0.0753958
-0.0935467
-0.0634062
-0.0767628
-0.0462962
-0.0551018
-0.127883
-0.0967122
-0.105383
-0.0800462
-0.0859991
-0.0575506
-0.0643418
-0.116853
-0.107952
-0.110348
-0.087203
-0.0875538
-0.0657128
-0.0638586
-0.10382
-0.108006
-0.0915549
-0.0854597
-0.068593
-0.060579
-0.0461992
-0.0738751
-0.0836836
-0.0610217
-0.0601991
-0.0371698
-0.0411111
-0.0301815
-0.0120942
-0.0120978
-0.0161248
-0.00992679
-0.0113308
-0.0114206
-0.0124746
-0.0168148
-0.0177624
-0.0207287
-0.0118181
-0.0123501
-0.0125727
-0.0122304
-0.0174011
-0.0207893
-0.0187177
-0.0124007
-0.0123223
-0.0119939
-0.0113518
-0.0147606
-0.0174937
-0.0141255
-0.0123582
-0.0126153
-0.0112263
-0.0112412
-0.0148481
-0.0136589
-0.0141692
-0.0128308
-0.0135851
-0.0114002
-0.0121645
-0.0168822
-0.0147481
-0.0167482
-0.0141681
-0.0168319
-0.0124118
-0.0130332
-0.0217767
-0.0172972
-0.018362
-0.0183239
-0.0240039
-0.0133262
-0.0154948
-0.0326133
-0.018759
-0.0223349
-0.0266917
-0.035241
-0.0169133
-0.0235902
-0.0190241
-0.0288197
-0.0316806
-0.0145707
-0.0136309
-0.0205696
-0.0197834
-0.0214004
-0.0307584
-0.0262393
-0.013394
-0.0124854
-0.0192966
-0.0181686
-0.0181964
-0.0247508
-0.0217917
-0.0121724
-0.0115881
-0.0180807
-0.0193368
-0.0136056
-0.0158318
-0.0166294
-0.013492
-0.0156779
-0.0130677
-0.013788
-0.0159298
-0.0141669
-0.0148654
-0.0133133
-0.0155079
-0.0138881
-0.014894
-0.0199501
-0.0317326
-0.0390438
-0.0145598
-0.0147502
-0.0314568
-0.0277471
-0.0214048
-0.0410029
-0.0411779
-0.0146534
-0.0152352
-0.0255835
-0.0194817
-0.0220796
-0.0387266
-0.0286323
-0.0160701
-0.0211741
-0.0182357
-0.0182074
-0.0379832
-0.0358807
-0.0399185
-0.0265839
-0.0255298
-0.0282576
-0.0287728
-0.0344713
-0.0410589
-0.0458754
-0.0252594
-0.0249613
-0.0294264
-0.0326854
-0.0318507
-0.0481446
-0.0572389
-0.0251772
-0.0272321
-0.0342594
-0.040465
-0.0438035
-0.0312565
-0.0464315
-0.0300078
-0.0469447
-0.0317352
-0.0427232
-0.0502385
-0.0347465
-0.0493739
-0.0376415
-0.0504695
-0.0397476
-0.0484765
-0.048577
-0.0759448
-0.0759599
-0.0381528
-0.0330847
-0.0514041
-0.0431085
-0.0495926
-0.074093
-0.0587456
-0.030264
-0.0218252
-0.0386066
-0.0247582
-0.0320441
-0.0510925
-0.0309366
-0.0197419
-0.0180284
-0.0214398
-0.0174223
-0.0344883
-0.0245685
-0.0213594
-0.0259409
-0.0255381
-0.0217878
-0.0197115
-0.0387897
-0.0211104
-0.0233571
-0.0260294
-0.0287942
-0.0197068
-0.0211816
-0.0507484
-0.0251483
-0.0335277
-0.0302601
-0.0368523
-0.0221398
-0.0265289
-0.067191
-0.0369261
-0.0459999
-0.0395508
-0.0469127
-0.0281463
-0.0315966
-0.0764668
-0.0484027
-0.0541118
-0.0486172
-0.0501279
-0.0320247
-0.0315017
-0.0765598
-0.054717
-0.0506746
-0.0490143
-0.0400905
-0.0303409
-0.0251283
-0.0546041
-0.0472233
-0.0350114
-0.0355942
-0.0230351
-0.0231434
-0.0186563
-0.0285756
-0.0313141
-0.0244307
-0.0202623
-0.0169781
-0.0177751
-0.0167843
-0.00851687
-0.00876531
-0.00987496
-0.00754246
-0.00801023