/*--------------------------------*- C++ -*----------------------------------*\
  =========                 |
  \\      /  F ield         | OpenFOAM: The Open Source CFD Toolbox
   \\    /   O peration     | Website:  https://openfoam.org
    \\  /    A nd           | Version:  10
     \\/     M anipulation  |
\*---------------------------------------------------------------------------*/
FoamFile
{
    format      ascii;
    class       volScalarField;
    location    "6.8";
    object      turbidity;
}
// * * * * * * * * * * * * * * * * * * * * * * * * * * * * * * * * * * * * * //

dimensions      [0 0 0 0 0 0 0];

internalField   nonuniform List<scalar> 
12920
(
-0.00833417
-0.0151319
-0.022163
-0.0306147
-0.0431639
-0.0640663
-0.100998
-0.151473
-0.197668
-0.237323
-0.274265
-0.308874
-0.338394
-0.360519
-0.375643
-0.385325
-0.391497
-0.395301
-0.395941
-0.397815
-0.0112802
-0.024167
-0.039581
-0.0541238
-0.068608
-0.0891258
-0.117784
-0.150693
-0.184415
-0.22147
-0.262959
-0.305949
-0.340511
-0.354925
-0.352118
-0.342889
-0.333549
-0.326951
-0.314701
-0.309138
-0.0491231
-0.0582546
-0.0667593
-0.0926587
-0.111926
-0.129807
-0.14976
-0.170792
-0.193127
-0.219136
-0.252993
-0.299079
-0.352466
-0.401432
-0.438378
-0.473538
-0.506224
-0.536446
-0.561897
-0.585048
-0.0355981
-0.0718085
-0.0764254
-0.0931723
-0.108841
-0.12791
-0.15135
-0.179538
-0.216527
-0.264175
-0.322288
-0.38505
-0.445645
-0.4973
-0.544698
-0.590036
-0.631768
-0.668561
-0.702466
-0.737854
-0.0129171
-0.0393207
-0.0605845
-0.0790325
-0.0953812
-0.1125
-0.139616
-0.171673
-0.212039
-0.255424
-0.304271
-0.351727
-0.39688
-0.442115
-0.493974
-0.550583
-0.608592
-0.666306
-0.722771
-0.77371
-0.01073
-0.0319195
-0.0482572
-0.0673299
-0.0911154
-0.117978
-0.147011
-0.177524
-0.209616
-0.240435
-0.26911
-0.295345
-0.318289
-0.341671
-0.36779
-0.400969
-0.443794
-0.509802
-0.598781
-0.688244
-0.00809603
-0.0231715
-0.0380647
-0.0537847
-0.0798973
-0.110246
-0.14103
-0.173844
-0.207489
-0.239925
-0.268326
-0.291875
-0.310391
-0.326071
-0.342814
-0.365107
-0.397459
-0.446715
-0.517137
-0.597015
-0.0118811
-0.0256272
-0.0372386
-0.0518123
-0.0729114
-0.098187
-0.108336
-0.128096
-0.154232
-0.176957
-0.199041
-0.209156
-0.206868
-0.188386
-0.157488
-0.199134
-0.262237
-0.344614
-0.432743
-0.505713
-0.0122802
-0.0359499
-0.0544638
-0.0670404
-0.0839118
-0.0877822
-0.0966488
-0.11073
-0.125128
-0.138726
-0.147827
-0.144611
-0.126154
-0.102068
-0.0838904
-0.119164
-0.18354
-0.2649
-0.342358
-0.393968
-0.00789826
-0.0307248
-0.0553482
-0.0802769
-0.107797
-0.104627
-0.0992943
-0.0962426
-0.101454
-0.105813
-0.10879
-0.106138
-0.0968408
-0.0861135
-0.080108
-0.104054
-0.151304
-0.211184
-0.266507
-0.304882
-0.0282957
-0.0605749
-0.0683552
-0.108277
-0.141796
-0.139898
-0.135553
-0.130803
-0.124862
-0.113871
-0.102512
-0.0935875
-0.0867312
-0.0804507
-0.0847972
-0.10273
-0.137951
-0.182384
-0.22708
-0.2663
-0.0328041
-0.0587432
-0.0743575
-0.0994879
-0.135144
-0.142445
-0.150769
-0.154039
-0.154733
-0.154879
-0.148036
-0.12555
-0.103288
-0.0954337
-0.104418
-0.108045
-0.138894
-0.177844
-0.219952
-0.261419
-0.0202504
-0.0390036
-0.0590424
-0.0799921
-0.107626
-0.14128
-0.151631
-0.16576
-0.175424
-0.181956
-0.186947
-0.177453
-0.162327
-0.148791
-0.143896
-0.160336
-0.183683
-0.214417
-0.250402
-0.291141
-0.0476931
-0.0753424
-0.0921773
-0.120284
-0.148844
-0.191095
-0.211987
-0.247064
-0.270363
-0.304767
-0.325362
-0.343498
-0.340856
-0.33317
-0.319938
-0.31354
-0.313656
-0.32711
-0.352753
-0.390948
-0.0644903
-0.0534523
-0.0903193
-0.133798
-0.171731
-0.211411
-0.240756
-0.274478
-0.305206
-0.341509
-0.375685
-0.411261
-0.435436
-0.452451
-0.45817
-0.462335
-0.466575
-0.480714
-0.504358
-0.540126
-0.0330959
-0.0532417
-0.0882308
-0.152433
-0.184214
-0.21832
-0.251902
-0.283397
-0.316617
-0.34999
-0.38809
-0.425043
-0.462094
-0.496077
-0.524745
-0.550325
-0.572498
-0.596732
-0.622277
-0.651136
-0.0430396
-0.0691966
-0.0745357
-0.125851
-0.163889
-0.214005
-0.266007
-0.318272
-0.362484
-0.400261
-0.433267
-0.464273
-0.495483
-0.526206
-0.556969
-0.585027
-0.611601
-0.636804
-0.658075
-0.677997
-0.0269686
-0.0658711
-0.0692685
-0.0980705
-0.126261
-0.17089
-0.22322
-0.276285
-0.327742
-0.370264
-0.408814
-0.437317
-0.464448
-0.487205
-0.510151
-0.530866
-0.552269
-0.571488
-0.587298
-0.602402
-0.0304906
-0.0685842
-0.0797119
-0.0999321
-0.123538
-0.158426
-0.199087
-0.247808
-0.291806
-0.326038
-0.34984
-0.370898
-0.392811
-0.414583
-0.43586
-0.453688
-0.468499
-0.482605
-0.493001
-0.504349
-0.0780355
-0.0829849
-0.0941531
-0.109087
-0.127156
-0.148729
-0.168399
-0.190875
-0.214455
-0.24306
-0.271591
-0.299332
-0.323673
-0.345465
-0.365525
-0.386964
-0.412242
-0.440908
-0.46966
-0.495454
-0.001751
-0.00388104
-0.00730587
-0.0137328
-0.0286977
-0.0492399
-0.071648
-0.086963
-0.101177
-0.117349
-0.134235
-0.14775
-0.156544
-0.159928
-0.159132
-0.154107
-0.146363
-0.135492
-0.118535
-0.105102
-0.0139021
-0.0100476
-0.0148839
-0.0243739
-0.0396907
-0.0470515
-0.0490794
-0.0461765
-0.0518528
-0.0640845
-0.0755763
-0.073757
-0.0601377
-0.0458078
-0.037319
-0.0337
-0.0334092
-0.0352911
-0.0382742
-0.0433798
-0.0295307
-0.0180105
-0.0123518
-0.0241882
-0.0329184
-0.0368246
-0.0392113
-0.0394393
-0.0456826
-0.0549911
-0.0677208
-0.0734652
-0.0674194
-0.0576451
-0.0551121
-0.0586926
-0.0656976
-0.0746964
-0.0848898
-0.0965022
-0.0446014
-0.0235036
-0.0177528
-0.0183896
-0.0143767
-0.014754
-0.0203541
-0.0277342
-0.0387843
-0.0476522
-0.0570857
-0.0596536
-0.0596651
-0.062804
-0.0689629
-0.0765364
-0.0842917
-0.0914382
-0.0982993
-0.107077
-0.0205657
-0.0206118
-0.021521
-0.020243
-0.0163034
-0.0134405
-0.0154501
-0.0201972
-0.0266124
-0.0334426
-0.0416772
-0.0506033
-0.0638139
-0.0808566
-0.101448
-0.119504
-0.129376
-0.130711
-0.12498
-0.118223
-0.0101912
-0.0084551
-0.0138902
-0.0214035
-0.0262404
-0.0232987
-0.0211815
-0.0196736
-0.0206515
-0.022881
-0.0271201
-0.0342074
-0.0453285
-0.0628626
-0.0894581
-0.127845
-0.172053
-0.192211
-0.173905
-0.140967
-0.0030532
-0.0046813
-0.00399768
-0.00626406
-0.0139804
-0.0201209
-0.025849
-0.0280946
-0.0291462
-0.0291983
-0.0326535
-0.0419107
-0.055996
-0.0719878
-0.0933462
-0.121378
-0.153093
-0.1791
-0.18353
-0.158315
-0.00355072
-0.00252323
-0.00303358
-0.0046637
-0.00792109
-0.0124914
-0.0160088
-0.0254921
-0.0357593
-0.0410989
-0.035824
-0.0343489
-0.0398062
-0.0493789
-0.0646469
-0.0887603
-0.115218
-0.132688
-0.129867
-0.112224
-0.0068935
-0.0164214
-0.0174339
-0.00948478
-0.0111777
-0.0128488
-0.0154887
-0.0241459
-0.0463345
-0.0578596
-0.0408216
-0.0282285
-0.0265816
-0.0295508
-0.0380847
-0.0681685
-0.0919455
-0.103049
-0.0950508
-0.0799519
-0.00408949
-0.0108223
-0.0112186
-0.0156924
-0.0309646
-0.0317845
-0.0331933
-0.0456684
-0.0609243
-0.0585182
-0.0415485
-0.0276682
-0.0277071
-0.0367272
-0.0395581
-0.0521729
-0.0693897
-0.0777361
-0.072117
-0.0627267
-0.0149964
-0.0193255
-0.0186322
-0.0306778
-0.0510122
-0.0564098
-0.0745791
-0.0867302
-0.0749333
-0.0578053
-0.0452675
-0.0390195
-0.0467762
-0.0668085
-0.0556808
-0.0431194
-0.0532129
-0.0596576
-0.0593618
-0.0553812
-0.0176754
-0.0258348
-0.0244634
-0.0314663
-0.0598288
-0.0692888
-0.0776208
-0.0823074
-0.0890949
-0.11342
-0.131304
-0.125368
-0.114273
-0.0986485
-0.0519101
-0.0394162
-0.0475844
-0.0539809
-0.0573338
-0.0565207
-0.0100538
-0.0144499
-0.0127796
-0.0145616
-0.0211563
-0.0244533
-0.0261734
-0.029655
-0.0422468
-0.0632684
-0.0746979
-0.0805708
-0.0767017
-0.0638435
-0.0509171
-0.0532079
-0.0571332
-0.0609124
-0.0650484
-0.0674793
-0.0103547
-0.0245957
-0.0223076
-0.0268515
-0.0269863
-0.0298146
-0.0286238
-0.0349369
-0.040855
-0.054228
-0.0657021
-0.0758731
-0.0798095
-0.0818573
-0.0820961
-0.0820815
-0.0837493
-0.0869016
-0.091721
-0.0982742
-0.0118047
-0.0111851
-0.0162646
-0.0233489
-0.0239622
-0.0244248
-0.0252786
-0.0268793
-0.0346364
-0.0415219
-0.0533188
-0.0626278
-0.0733398
-0.0819889
-0.0887665
-0.0930083
-0.098167
-0.102833
-0.107368
-0.11219
-0.0103981
-0.0105444
-0.0159009
-0.0342891
-0.0222285
-0.0276787
-0.0256535
-0.0264131
-0.0301192
-0.0335608
-0.0397909
-0.0451
-0.0529835
-0.0592313
-0.0675708
-0.0736101
-0.0804551
-0.0833654
-0.0841579
-0.0833454
-0.00180514
-0.0211613
-0.014315
-0.0247085
-0.0234616
-0.0289171
-0.0336624
-0.0401451
-0.043064
-0.043576
-0.0435965
-0.0437215
-0.0454071
-0.0473803
-0.0500962
-0.0522897
-0.0543848
-0.0553814
-0.055315
-0.0545111
-0.034173
-0.0204372
-0.0182947
-0.0236648
-0.0344686
-0.0390434
-0.0438736
-0.0402468
-0.0425558
-0.0412437
-0.0408095
-0.0396335
-0.0386781
-0.0377142
-0.037221
-0.0369546
-0.0371241
-0.0372926
-0.0374431
-0.037449
-0.00972703
-0.0234533
-0.0349409
-0.0457074
-0.0638567
-0.0700842
-0.0722982
-0.0596659
-0.0467798
-0.0354248
-0.0329541
-0.0336969
-0.0352956
-0.0365972
-0.0378685
-0.0380491
-0.037158
-0.0362221
-0.0367264
-0.0387754
-0.0247717
-0.0418621
-0.061181
-0.0714387
-0.0764397
-0.0689999
-0.0601151
-0.0565603
-0.0646989
-0.0778878
-0.0926074
-0.104476
-0.11511
-0.125637
-0.139195
-0.156617
-0.176639
-0.192415
-0.19915
-0.198991
-0.00730309
-0.00645916
-0.0092348
-0.0124434
-0.0219015
-0.0309654
-0.0420405
-0.0494049
-0.0591863
-0.0691353
-0.0780396
-0.0836592
-0.0862203
-0.085321
-0.0818029
-0.0763021
-0.0693013
-0.0611539
-0.0517325
-0.0449261
-0.0113311
-0.0112531
-0.00907046
-0.011325
-0.018591
-0.0201141
-0.0210272
-0.0222129
-0.0261519
-0.0290119
-0.0297522
-0.0266691
-0.0226722
-0.0201723
-0.0194513
-0.0199144
-0.0212377
-0.0231503
-0.0257134
-0.0292619
-0.0344401
-0.0230808
-0.012438
-0.00940225
-0.0121041
-0.0148995
-0.018479
-0.0219466
-0.0265607
-0.0296487
-0.0315378
-0.030517
-0.0284505
-0.027486
-0.0284656
-0.0306073
-0.0331241
-0.0356143
-0.0379436
-0.0401594
-0.0137097
-0.00901221
-0.00898399
-0.0090765
-0.00910794
-0.0110286
-0.014495
-0.0182453
-0.0220361
-0.0244463
-0.0264996
-0.0275662
-0.0288303
-0.0303448
-0.0319319
-0.0331469
-0.033884
-0.0341879
-0.0343849
-0.0351176
-0.00532212
-0.00767374
-0.00933505
-0.00957999
-0.00890465
-0.00936661
-0.0112235
-0.0140066
-0.0171246
-0.0205998
-0.0250828
-0.0301786
-0.0360603
-0.0410594
-0.0450675
-0.046572
-0.0455656
-0.0425299
-0.0389638
-0.036612
-0.00350956
-0.00229006
-0.00379734
-0.0062188
-0.00815662
-0.00856682
-0.00952929
-0.0109727
-0.0131571
-0.0165851
-0.0217176
-0.028941
-0.0388037
-0.050855
-0.0647626
-0.0781101
-0.085982
-0.079066
-0.0625496
-0.0492162
-0.000691371
-0.00146599
-0.00250288
-0.00446903
-0.00744765
-0.0091685
-0.0109174
-0.0119692
-0.0133983
-0.0161043
-0.0208763
-0.0280329
-0.037383
-0.0483873
-0.060665
-0.0727203
-0.0816853
-0.0828664
-0.0743236
-0.0612428
-0.000678045
-0.00094934
-0.00182952
-0.00329637
-0.00554316
-0.00793787
-0.00943318
-0.0125418
-0.0143848
-0.015663
-0.0177899
-0.0222165
-0.029194
-0.0387725
-0.0519108
-0.0604612
-0.0649755
-0.0633304
-0.0568947
-0.0505848
-0.00827221
-0.00494508
-0.0056211
-0.00594469
-0.00813137
-0.00907815
-0.0100194
-0.013346
-0.0174553
-0.0167998
-0.0145876
-0.0152264
-0.0177916
-0.0238338
-0.0390517
-0.051245
-0.0541351
-0.0509609
-0.0448423
-0.0396649
-0.00215787
-0.00518434
-0.00744324
-0.0110274
-0.0165233
-0.0165038
-0.0166027
-0.0200586
-0.0210425
-0.0171259
-0.0139781
-0.0165131
-0.0206897
-0.0211778
-0.0263606
-0.0384511
-0.0417208
-0.0395032
-0.0351671
-0.0318285
-0.0185959
-0.0169247
-0.0147837
-0.019323
-0.0260247
-0.0279921
-0.0352707
-0.0374983
-0.0335007
-0.0310716
-0.033128
-0.0411798
-0.050191
-0.0465354
-0.0259188
-0.0291015
-0.0318995
-0.0316429
-0.0305386
-0.0299748
-0.0180772
-0.0161639
-0.0182444
-0.0236602
-0.0337366
-0.034362
-0.0338157
-0.0351146
-0.0408269
-0.0548282
-0.0700859
-0.077583
-0.0737012
-0.0473375
-0.0223546
-0.0244134
-0.0272344
-0.0288388
-0.0301477
-0.030836
-0.00414057
-0.00745585
-0.00887539
-0.0118365
-0.0162478
-0.017483
-0.0179041
-0.0189686
-0.0234648
-0.0306737
-0.035566
-0.037138
-0.0331329
-0.0282662
-0.0270186
-0.0288313
-0.030825
-0.0329287
-0.0349682
-0.0359888
-0.015749
-0.0160328
-0.0136058
-0.0164626
-0.0174855
-0.0162087
-0.0159636
-0.0174193
-0.0205788
-0.0249849
-0.0284084
-0.0316186
-0.0333361
-0.0351378
-0.0366246
-0.0383064
-0.0403093
-0.0425485
-0.0445848
-0.0457692
-0.00384964
-0.00717896
-0.0115192
-0.0150847
-0.0146931
-0.0130727
-0.0136828
-0.0147279
-0.0180125
-0.0205461
-0.0242076
-0.0270212
-0.0303156
-0.0333754
-0.0364219
-0.0387552
-0.0409322
-0.0422119
-0.0424707
-0.041671
-0.00834546
-0.00991506
-0.0116678
-0.0146983
-0.0118931
-0.0125278
-0.0129009
-0.0139959
-0.0160556
-0.0176283
-0.0200201
-0.0217149
-0.0240717
-0.0258309
-0.0279972
-0.0293371
-0.0305797
-0.0305687
-0.0299493
-0.0287787
-0.00154069
-0.00961845
-0.0110778
-0.0129253
-0.0134273
-0.0142401
-0.0150753
-0.0166678
-0.0177043
-0.0181571
-0.0186413
-0.0188287
-0.0192899
-0.019608
-0.020122
-0.0204556
-0.0208165
-0.0208966
-0.0208206
-0.0206146
-0.0100749
-0.0113787
-0.0140109
-0.0181326
-0.0233014
-0.0201117
-0.0183818
-0.0163398
-0.0166896
-0.016721
-0.0168979
-0.0168672
-0.0168611
-0.0167752
-0.0167231
-0.0165621
-0.0164362
-0.0163706
-0.0165086
-0.0168936
-0.0100447
-0.0210631
-0.030324
-0.0363569
-0.0431121
-0.0388552
-0.0325305
-0.0234451
-0.019235
-0.0184109
-0.0201548
-0.0225862
-0.0255451
-0.0282213
-0.0306347
-0.0317937
-0.0316596
-0.0302162
-0.0283175
-0.0267377
-0.0199828
-0.0292629
-0.0406675
-0.0433403
-0.0411692
-0.0308604
-0.0241001
-0.0212811
-0.0241537
-0.0293618
-0.0357082
-0.0414299
-0.0474951
-0.0550742
-0.0656805
-0.0792654
-0.0932295
-0.103365
-0.107103
-0.105309
-0.00355458
-0.00545273
-0.00676089
-0.00860058
-0.0147344
-0.0189757
-0.0255685
-0.0300192
-0.0352916
-0.0392168
-0.0420655
-0.0425857
-0.0412612
-0.0378019
-0.0328944
-0.0275661
-0.0227329
-0.0194622
-0.0178051
-0.0175994
-0.0110444
-0.00826834
-0.00643951
-0.00737183
-0.010358
-0.0116176
-0.0134111
-0.0145675
-0.0155657
-0.0154201
-0.0149294
-0.0140516
-0.0138247
-0.0140842
-0.0146539
-0.0153576
-0.0162434
-0.0173388
-0.0186569
-0.0202151
-0.0124594
-0.00520586
-0.00494012
-0.00757045
-0.01041
-0.0126777
-0.0150552
-0.0163554
-0.0175175
-0.0175646
-0.0175651
-0.0171508
-0.0169768
-0.0171022
-0.0174694
-0.0178247
-0.018053
-0.0181448
-0.0182453
-0.0183414
-0.00167523
-0.00431419
-0.00554391
-0.00635752
-0.00798377
-0.010267
-0.0123725
-0.0138575
-0.0151781
-0.0158835
-0.016527
-0.0167179
-0.0167445
-0.0165748
-0.0162938
-0.0159487
-0.0156544
-0.0154983
-0.0155604
-0.0159543
-0.00402497
-0.00528799
-0.00523759
-0.00573025
-0.00667494
-0.00826865
-0.0099398
-0.0117411
-0.0136652
-0.0154394
-0.0173374
-0.0187087
-0.0197262
-0.0199269
-0.0197564
-0.0190601
-0.018124
-0.017144
-0.0164812
-0.0164116
-0.00213029
-0.00221215
-0.00359092
-0.00472258
-0.00581405
-0.00695721
-0.00825741
-0.00996139
-0.0121578
-0.0148302
-0.0181805
-0.0217566
-0.0256437
-0.0289381
-0.0317113
-0.0332706
-0.0321621
-0.027202
-0.0219778
-0.0190959
-0.000152355
-0.000958042
-0.00268137
-0.00439204
-0.00584231
-0.00679914
-0.0079164
-0.00943226
-0.0115092
-0.0144057
-0.0180286
-0.0221148
-0.0262484
-0.0298378
-0.0327937
-0.0345923
-0.0346757
-0.0321105
-0.0278513
-0.0239097
-0.000611722
-0.00115307
-0.00246881
-0.00386623
-0.00534075
-0.00657565
-0.00733644
-0.00894798
-0.0104963
-0.0126912
-0.0155374
-0.0190384
-0.0231507
-0.0273201
-0.0283254
-0.0290312
-0.0284351
-0.0263047
-0.0235426
-0.0212494
-0.00970682
-0.00368155
-0.00451973
-0.00602383
-0.00726411
-0.00744666
-0.00763543
-0.00896079
-0.0100157
-0.0104938
-0.0114324
-0.0131194
-0.0167006
-0.0218594
-0.0274932
-0.0253938
-0.0236889
-0.0207813
-0.017692
-0.0153499
-0.00320791
-0.00527739
-0.00690024
-0.00942122
-0.0109276
-0.0106001
-0.0104419
-0.0107452
-0.0102227
-0.00995454
-0.0114629
-0.0128976
-0.0131152
-0.0156157
-0.0219775
-0.0208473
-0.019301
-0.0168269
-0.0145866
-0.0130189
-0.00197003
-0.00561992
-0.0102288
-0.0140862
-0.0155034
-0.0168408
-0.0202617
-0.021828
-0.0229719
-0.0265647
-0.0314217
-0.0314019
-0.0222528
-0.0165465
-0.018546
-0.0173394
-0.0166134
-0.0155073
-0.0145621
-0.0137779
-0.00966396
-0.0119864
-0.0150687
-0.0171132
-0.0183752
-0.0187465
-0.0182647
-0.0208475
-0.0260547
-0.0350219
-0.0416518
-0.0386984
-0.0260114
-0.0168868
-0.0160776
-0.0153084
-0.0155827
-0.0154467
-0.0149854
-0.0141453
-0.00545297
-0.00629517
-0.00835123
-0.0114102
-0.0137149
-0.0131568
-0.012897
-0.0134787
-0.0157291
-0.0183538
-0.0188012
-0.0178996
-0.016655
-0.0162096
-0.0162628
-0.0169122
-0.0171945
-0.0170283
-0.0164066
-0.0153356
-0.0264826
-0.0127234
-0.0116654
-0.012747
-0.0121276
-0.0106171
-0.0110628
-0.0119128
-0.0132119
-0.0146364
-0.01544
-0.016494
-0.0171418
-0.0180828
-0.0188242
-0.0192257
-0.0191939
-0.0186932
-0.0178861
-0.0169541
-0.00635352
-0.00904156
-0.0107744
-0.0112081
-0.0101246
-0.0094878
-0.0101863
-0.01089
-0.012281
-0.0130229
-0.0141276
-0.0148028
-0.0156887
-0.0162866
-0.0167855
-0.0167193
-0.0165023
-0.0159096
-0.01521
-0.0147543
-0.00689521
-0.010489
-0.010373
-0.0102418
-0.00908607
-0.00944725
-0.00991051
-0.0105431
-0.0114098
-0.0118186
-0.0124987
-0.0126998
-0.0131294
-0.0131782
-0.0133624
-0.0132296
-0.0132092
-0.0130021
-0.0129793
-0.0132904
-0.00370781
-0.00916446
-0.01012
-0.00985939
-0.00971015
-0.0101209
-0.0106142
-0.0112814
-0.0116068
-0.011671
-0.0116892
-0.0115883
-0.0115694
-0.0115395
-0.0115904
-0.0116586
-0.0118281
-0.0120872
-0.0125083
-0.0131614
-0.0046045
-0.00762159
-0.0107284
-0.0127092
-0.0137109
-0.0116596
-0.0116787
-0.012021
-0.0127967
-0.0132697
-0.0137094
-0.0139437
-0.0141418
-0.0141157
-0.0139684
-0.0136406
-0.0133078
-0.013127
-0.0131967
-0.013599
-0.0167245
-0.0196307
-0.0227459
-0.0240782
-0.0246565
-0.0192315
-0.0154712
-0.0132503
-0.0137031
-0.0154023
-0.0176238
-0.0200432
-0.0226448
-0.0249276
-0.0267048
-0.0272412
-0.0265752
-0.0248369
-0.0225211
-0.0201768
-0.0159353
-0.021557
-0.0226142
-0.0193225
-0.0168674
-0.0118891
-0.00994384
-0.00934135
-0.0105176
-0.0123891
-0.0150126
-0.0181993
-0.0228671
-0.0295033
-0.0381931
-0.0474244
-0.0547603
-0.0582178
-0.0568292
-0.051942
-0.000863067
-0.00582248
-0.00729933
-0.0082755
-0.0105905
-0.0113964
-0.0138863
-0.0144244
-0.0155373
-0.0155682
-0.0153044
-0.0139773
-0.0124463
-0.0109559
-0.0102117
-0.0108404
-0.0122396
-0.0136805
-0.0146921
-0.0151403
-0.00151113
-0.00561498
-0.00794834
-0.00869606
-0.00915808
-0.0092652
-0.00957948
-0.00942642
-0.00954872
-0.00955073
-0.00981314
-0.0101616
-0.0106929
-0.0113301
-0.0120321
-0.0127306
-0.0133716
-0.0139734
-0.0146527
-0.0154096
-0.00202552
-0.00582671
-0.0088937
-0.00978764
-0.010205
-0.010465
-0.0111191
-0.0111809
-0.0115491
-0.0114279
-0.011424
-0.0112652
-0.0112406
-0.0113651
-0.0116901
-0.0121808
-0.012823
-0.0135719
-0.0143764
-0.0151402
-0.00346362
-0.00706503
-0.00754201
-0.0082835
-0.00884073
-0.00960257
-0.0103848
-0.0107772
-0.0110698
-0.0109601
-0.0108972
-0.0107926
-0.0108905
-0.0111785
-0.0116509
-0.0122429
-0.0129117
-0.0136144
-0.0143227
-0.0149682
-0.00211016
-0.00460181
-0.00510777
-0.00625072
-0.00727169
-0.00856707
-0.00956624
-0.0102659
-0.0107382
-0.0108602
-0.0110471
-0.0110782
-0.0112664
-0.0114912
-0.0118969
-0.0123484
-0.0128785
-0.0134746
-0.0141297
-0.0147755
-0.00195894
-0.00314044
-0.00453694
-0.00547168
-0.0063885
-0.00769271
-0.00878066
-0.00973087
-0.0105659
-0.011136
-0.0117275
-0.0121313
-0.0125976
-0.0129695
-0.0134225
-0.0138222
-0.013951
-0.0139297
-0.0142188
-0.0147828
-0.000993006
-0.00256687
-0.00409086
-0.00505751
-0.00594572
-0.00714016
-0.00825298
-0.00939844
-0.0103125
-0.0111912
-0.011952
-0.0126316
-0.01313
-0.0135102
-0.0139205
-0.0141995
-0.0143183
-0.01424
-0.0142691
-0.0145735
-0.00052704
-0.000829119
-0.00236403
-0.00439589
-0.00572294
-0.00684103
-0.00740953
-0.00877499
-0.00981375
-0.0108072
-0.0115053
-0.0121942
-0.0126324
-0.0129762
-0.012714
-0.0127596
-0.0128228
-0.0129046
-0.0131329
-0.0135547
-0.00314479
-0.00287163
-0.00454443
-0.00615906
-0.00701866
-0.0072535
-0.00741971
-0.00821541
-0.00919534
-0.01
-0.0109137
-0.011749
-0.0122425
-0.0123713
-0.0120516
-0.0116199
-0.0115015
-0.0116091
-0.0119469
-0.0124106
-0.00307263
-0.0038404
-0.00599032
-0.00801936
-0.00869938
-0.00872896
-0.00848512
-0.00849913
-0.00898399
-0.00988317
-0.0106924
-0.0115928
-0.0122086
-0.0120734
-0.00999393
-0.0104383
-0.010594
-0.0109449
-0.0114908
-0.0120695
-0.00437938
-0.00846713
-0.00988898
-0.0109332
-0.0106362
-0.0117846
-0.0133104
-0.0144537
-0.0154758
-0.0157829
-0.0143882
-0.0128256
-0.0122677
-0.0114183
-0.00905554
-0.00997798
-0.0104213
-0.0110085
-0.0117292
-0.012439
-0.00508428
-0.0114539
-0.0124285
-0.0121571
-0.0110726
-0.0118889
-0.0115048
-0.0130515
-0.0151411
-0.0163
-0.0145128
-0.0124807
-0.0113259
-0.0098555
-0.00791703
-0.00994577
-0.0107443
-0.0116198
-0.0125711
-0.0134824
-0.00349834
-0.00420675
-0.0077622
-0.0108332
-0.0108845
-0.0096088
-0.00939626
-0.00985584
-0.00998676
-0.0100299
-0.00973561
-0.0093609
-0.00887518
-0.00844904
-0.00994165
-0.0107125
-0.0115764
-0.0126066
-0.0137242
-0.0148229
-0.0168106
-0.0118401
-0.00997671
-0.0097873
-0.00895422
-0.00832558
-0.00854938
-0.0084354
-0.00835882
-0.00852065
-0.00854664
-0.00893622
-0.00923255
-0.00983359
-0.010505
-0.011271
-0.0121733
-0.013238
-0.0144356
-0.0156419
-0.019741
-0.0116061
-0.00881406
-0.00857025
-0.00801125
-0.00789504
-0.00809134
-0.0080547
-0.00809804
-0.0080694
-0.00827386
-0.00854787
-0.0090128
-0.00959935
-0.0103512
-0.01123
-0.0122974
-0.0135222
-0.0148593
-0.01613
-0.00451861
-0.00904218
-0.00900298
-0.00836031
-0.00789661
-0.00797036
-0.00792643
-0.00798946
-0.0079662
-0.0080143
-0.00819242
-0.00846002
-0.00892171
-0.00950945
-0.0102952
-0.0112328
-0.0123595
-0.0136452
-0.0150501
-0.0163602
-0.00327255
-0.00690255
-0.00887163
-0.00867613
-0.00853514
-0.00858973
-0.0085332
-0.00854438
-0.00842157
-0.00843672
-0.00854611
-0.00881819
-0.00925915
-0.00985694
-0.0106197
-0.0115259
-0.0125875
-0.013794
-0.0151247
-0.0163919
-0.00812434
-0.00591011
-0.00775832
-0.00860922
-0.00901955
-0.00950143
-0.0101328
-0.010256
-0.0104074
-0.0102537
-0.0102081
-0.0101091
-0.0101656
-0.0103186
-0.0106791
-0.0112309
-0.012008
-0.0129828
-0.0141356
-0.0153075
-0.0129394
-0.0127203
-0.0111879
-0.0111872
-0.0108936
-0.0103618
-0.0111401
-0.0126969
-0.0143356
-0.0158121
-0.0169391
-0.0172601
-0.0170029
-0.0160125
-0.0148409
-0.0136705
-0.0128407
-0.0125814
-0.0129192
-0.01376
-0.009463
-0.0132334
-0.00858581
-0.00660395
-0.00657413
-0.00616653
-0.00670516
-0.00779231
-0.00956871
-0.012204
-0.0156387
-0.0195557
-0.0233098
-0.0260701
-0.027334
-0.0265943
-0.023917
-0.0202161
-0.0164457
-0.0140019
-0.0142222
-0.0214867
-0.0224207
-0.0115778
-0.0122108
-0.0204964
-0.024838
-0.0154913
-0.0236447
-0.0291371
-0.0126455
-0.014158
-0.0267089
-0.0310922
-0.032046
-0.0604662
-0.069236
-0.0282058
-0.0323843
-0.0426604
-0.0489231
-0.0386824
-0.0712641
-0.0750219
-0.0340772
-0.0379518
-0.0504842
-0.0522814
-0.106822
-0.0870948
-0.0911271
-0.090892
-0.0995985
-0.0805746
-0.0875825
-0.120974
-0.0931275
-0.100143
-0.105263
-0.119242
-0.0906657
-0.0997344
-0.135401
-0.102445
-0.108349
-0.123736
-0.13307
-0.102818
-0.11088
-0.1461
-0.110146
-0.114738
-0.135074
-0.133777
-0.112706
-0.110263
-0.147304
-0.115558
-0.114178
-0.129335
-0.105513
-0.104304
-0.0760844
-0.132119
-0.112277
-0.10353
-0.0955842
-0.0723021
-0.0669441
-0.048648
-0.108246
-0.100075
-0.0903085
-0.0658464
-0.0549375
-0.0458377
-0.0459783
-0.0878735
-0.0874522
-0.0800497
-0.0530695
-0.054446
-0.0479828
-0.0547582
-0.0957163
-0.114448
-0.116575
-0.0945469
-0.0936131
-0.11173
-0.114909
-0.100044
-0.116842
-0.115627
-0.0949052
-0.100078
-0.115367
-0.113268
-0.104844
-0.114547
-0.109724
-0.101964
-0.106614
-0.111151
-0.101353
-0.108371
-0.107866
-0.102475
-0.107487
-0.103719
-0.097355
-0.0831921
-0.107515
-0.10078
-0.0960433
-0.0983623
-0.0740088
-0.0781682
-0.0644433
-0.0995497
-0.0945358
-0.0900277
-0.0660684
-0.0500072
-0.0609079
-0.0558584
-0.0886629
-0.0884456
-0.0833979
-0.0477188
-0.0494802
-0.056514
-0.0650621
-0.0791728
-0.0815617
-0.0768948
-0.0519546
-0.0585989
-0.0686019
-0.0727497
-0.13146
-0.150235
-0.151379
-0.132904
-0.129506
-0.146753
-0.149347
-0.126875
-0.151517
-0.151154
-0.128995
-0.124673
-0.150063
-0.151718
-0.116872
-0.150966
-0.149882
-0.121993
-0.110379
-0.152088
-0.151922
-0.105164
-0.148357
-0.138239
-0.105687
-0.0907056
-0.150967
-0.144203
-0.0955699
-0.133572
-0.116877
-0.0857914
-0.0728429
-0.140735
-0.127311
-0.0883417
-0.111265
-0.0975131
-0.0694925
-0.0648626
-0.122462
-0.109949
-0.0819796
-0.0940663
-0.0878816
-0.0656617
-0.0732762
-0.106953
-0.10143
-0.0776268
-0.0876277
-0.0906948
-0.0760618
-0.0781318
-0.0997076
-0.0884286
-0.153569
-0.151103
-0.158099
-0.145841
-0.150525
-0.147584
-0.149275
-0.154569
-0.159712
-0.163069
-0.151656
-0.154121
-0.148791
-0.154269
-0.155124
-0.1643
-0.167359
-0.154773
-0.156154
-0.156519
-0.161561
-0.150859
-0.168231
-0.169187
-0.156203
-0.153678
-0.16252
-0.160974
-0.132224
-0.168869
-0.160257
-0.151629
-0.140841
-0.158022
-0.147342
-0.107885
-0.154701
-0.137305
-0.13623
-0.122653
-0.144833
-0.138302
-0.0956397
-0.132813
-0.124547
-0.118806
-0.10966
-0.13494
-0.119028
-0.0981088
-0.123072
-0.118654
-0.106318
-0.0894826
-0.111287
-0.0849828
-0.0203311
-0.0188038
-0.029778
-0.0150838
-0.0189583
-0.0175382
-0.0228665
-0.0400992
-0.0360927
-0.0540079
-0.0211564
-0.0259802
-0.0245468
-0.0278403
-0.0574153
-0.0578204
-0.0631272
-0.0271791
-0.0277053
-0.0281096
-0.0265003
-0.0466648
-0.0628908
-0.0513033
-0.026823
-0.0230145
-0.0252632
-0.0204038
-0.0300854
-0.044977
-0.0307598
-0.0216628
-0.0191905
-0.0188682
-0.0166742
-0.0263828
-0.0281351
-0.0258513
-0.0188991
-0.0194528
-0.0168026
-0.0188436
-0.0285266
-0.0265511
-0.0311866
-0.0200944
-0.023378
-0.0197407
-0.0218784
-0.0336197
-0.033001
-0.0367999
-0.0252788
-0.0339122
-0.0223447
-0.0246516
-0.0401812
-0.0635616
-0.078628
-0.0284135
-0.0280519
-0.043899
-0.0428781
-0.0591502
-0.0790575
-0.0696697
-0.0285695
-0.0290722
-0.0410451
-0.0341638
-0.0602433
-0.064155
-0.0476374
-0.0286219
-0.0257686
-0.0319953
-0.0270934
-0.0467366
-0.0434319
-0.0328184
-0.0244524
-0.0200742
-0.026034
-0.0245523
-0.0298128
-0.0307619
-0.027965
-0.0188184
-0.0176442
-0.0247955
-0.0283482
-0.02652
-0.0281102
-0.0328637
-0.0182165
-0.0218062
-0.0304274
-0.0384794
-0.034296
-0.0362162
-0.0507262
-0.0231728
-0.025684
-0.041351
-0.0462608
-0.0410227
-0.0555447
-0.0599832
-0.025757
-0.0254826
-0.0453987
-0.0359222
-0.0863085
-0.0755878
-0.0886768
-0.0533103
-0.0499321
-0.0561859
-0.0543621
-0.0791866
-0.0909301
-0.0987075
-0.0482375
-0.0423512
-0.0541729
-0.0559328
-0.0617688
-0.102593
-0.117777
-0.0405379
-0.0364221
-0.0574994
-0.0658994
-0.0478581
-0.122225
-0.127499
-0.0355062
-0.0344403
-0.0695242
-0.0788679
-0.0395766
-0.126423
-0.117243
-0.0348202
-0.0386417
-0.0807434
-0.0830974
-0.0432274
-0.113429
-0.104405
-0.0406907
-0.0485328
-0.0834652
-0.0840867
-0.0622854
-0.102694
-0.0981159
-0.0513981
-0.0558151
-0.083323
-0.071916
-0.0679942
-0.0949675
-0.0763844
-0.0543767
-0.0410524
-0.0646911
-0.0409174
-0.0820652
-0.0542634
-0.0424723
-0.0541838
-0.0493146
-0.0426941
-0.0352561
-0.0860849
-0.0397358
-0.0406299
-0.0486573
-0.0493667
-0.0339689
-0.0342829
-0.105958
-0.0452899
-0.0661252
-0.0505673
-0.0588535
-0.0356779
-0.0429767
-0.129486
-0.0749795
-0.0933247
-0.0631995
-0.0765553
-0.0461417
-0.0549786
-0.127968
-0.0965892
-0.105243
-0.0798683
-0.0858724
-0.0574582
-0.0642804
-0.116958
-0.10786
-0.110476
-0.0870888
-0.087601
-0.0657192
-0.0640763
-0.104129
-0.108283
-0.092122
-0.0856304
-0.0691821
-0.0609081
-0.0465924
-0.0745589
-0.0843201
-0.0615201
-0.060855
-0.0376526
-0.0414897
-0.0303597
-0.0120115
-0.0120272
-0.0160004
-0.00988326
-0.0112907
-0.0113793
-0.0124577
-0.016738
-0.0176446
-0.0207096
-0.0117881
-0.0123457
-0.0125658
-0.012247
-0.0174235
-0.0208081
-0.0188143
-0.0124018
-0.012333
-0.0120136
-0.0113662
-0.014801
-0.0176016
-0.0141868
-0.0123648
-0.0126266
-0.011236
-0.0112325
-0.0148542
-0.0136901
-0.0141334
-0.0128321
-0.0135923
-0.0113847
-0.0121384
-0.0168723
-0.0146991
-0.0166883
-0.0141498
-0.016806
-0.0123872
-0.0130147
-0.0217196
-0.0172438
-0.0183318
-0.0182532
-0.0239141
-0.0133055
-0.0154386
-0.0324486
-0.0187266
-0.0222222
-0.0265492
-0.0351038
-0.016836
-0.0234525
-0.018908
-0.0286856
-0.0317176
-0.0145484
-0.0136261
-0.0205437
-0.0197885
-0.021427
-0.0308352
-0.02635
-0.0133981
-0.0125065
-0.0193021
-0.0181506
-0.0183081
-0.0248507
-0.0218246
-0.0121936
-0.0115941
-0.0180478
-0.0192414
-0.0136174
-0.0159354
-0.0167355
-0.0135434
-0.0157654
-0.0131019
-0.0138225
-0.0158388
-0.0141466
-0.0148436
-0.0132825
-0.0154489
-0.013839
-0.0148259
-0.0198528
-0.0314839
-0.0388072
-0.0145198
-0.0147403
-0.0313928
-0.0278242
-0.0213923
-0.0408046
-0.0412359
-0.014649
-0.0152077
-0.0256885
-0.0195813
-0.0220243
-0.0388799
-0.0288389
-0.0160225
-0.0210603
-0.0183068
-0.0181755
-0.037992
-0.0358688
-0.0399459
-0.0265606
-0.0255023
-0.0282666
-0.0287634
-0.0344912
-0.0410758
-0.0458282
-0.0252267
-0.0248948
-0.0294064
-0.0326313
-0.0317847
-0.0480694
-0.0570695
-0.0250942
-0.0270925
-0.0341898
-0.040346
-0.0435939
-0.0311281
-0.0462671
-0.0298664
-0.0467616
-0.0315606
-0.0425438
-0.0500274
-0.0345036
-0.0491605
-0.0374304
-0.0502444
-0.0395211
-0.0482643
-0.0483338
-0.0758179
-0.0759764
-0.0381083
-0.0331999
-0.0514628
-0.0433658
-0.0496962
-0.0742226
-0.0592716
-0.0304114
-0.0219845
-0.0389169
-0.025039
-0.0323551
-0.0516788
-0.0313313
-0.0198686
-0.0180219
-0.0216548
-0.0174562
-0.0345634
-0.0246685
-0.0214124
-0.025994
-0.0255422
-0.0218541
-0.0197313
-0.0387749
-0.0211423
-0.0233079
-0.0260228
-0.0287589
-0.019713
-0.0211499
-0.0505868
-0.0250811
-0.0333776
-0.0302106
-0.0367444
-0.0221032
-0.0264685
-0.0670022
-0.0367798
-0.0458921
-0.039432
-0.046815
-0.0280987
-0.0315922
-0.0763456
-0.0483334
-0.0541011
-0.0485441
-0.050171
-0.032056
-0.0315819
-0.0766881
-0.054783
-0.0509193
-0.0491155
-0.0403741
-0.0304606
-0.0252649
-0.0551928
-0.0475472
-0.0353109
-0.0359149
-0.0232792
-0.0232825
-0.0187265
-0.0289096
-0.0315823
-0.0245272
-0.0204425
-0.0170079
-0.017825
-0.0167871
-0.00849034
-0.00874138
-0.00985581
-0.00753132
-0.00800155
-0.00816562
-0.00832463
-0.00980136
-0.0100929
-0.0101462