/*--------------------------------*- C++ -*----------------------------------*\
  =========                 |
  \\      /  F ield         | OpenFOAM: The Open Source CFD Toolbox
   \\    /   O peration     | Website:  https://openfoam.org
    \\  /    A nd           | Version:  10
     \\/     M anipulation  |
\*---------------------------------------------------------------------------*/
FoamFile
{
    format      ascii;
    class       volVectorField;
    location    "6.8";
    object      U_0;
}
// * * * * * * * * * * * * * * * * * * * * * * * * * * * * * * * * * * * * * //

dimensions      [0 1 -1 0 0 0 0];

internalField   nonuniform List<vector> 
12920
(
(182.178 107.414 1.70044)
(162.823 17.3149 -73.5619)
(283.782 9.28381 -47.9715)
(307.707 18.5249 -40.8517)
(336.191 23.4861 -18.7817)
(296.525 29.6189 -5.07413)
(226.599 9.17639 15.9045)
(157.383 -5.78602 9.34758)
(148.739 -10.7255 4.37842)
(133.175 -10.8627 3.04934)
(132.354 -10.9888 2.92893)
(127.223 -10.9984 2.87717)
(127.363 -11.1545 2.65613)
(126.21 -11.256 2.32742)
(126.724 -10.9871 1.94913)
(127.27 -11.742 1.45971)
(129.578 -12.0534 1.20391)
(132.215 -11.6149 1.3942)
(134.421 -14.8293 0.877316)
(144.896 -14.288 0.562906)
(131.729 2.68426 68.4148)
(89.1114 46.0026 -18.1581)
(216.838 8.24499 -2.68367)
(217.104 4.63295 -4.97332)
(239.304 12.3544 5.97609)
(205.946 26.5956 11.5305)
(185.75 32.44 13.0861)
(147.043 19.347 5.1202)
(146.09 8.31079 1.3407)
(133.663 3.57561 0.927922)
(130.909 -2.00194 1.51285)
(118.584 -5.35888 1.41462)
(113.801 -7.039 0.778808)
(106.054 -5.50605 -0.0236761)
(104.745 -4.09444 -0.832459)
(103.32 -2.64691 -1.2625)
(103.949 -1.865 -1.71836)
(104.891 -1.54566 -1.54337)
(106.223 -0.312305 -2.2581)
(109.844 1.93687 -2.49724)
(113.419 186.862 56.0935)
(-49.0375 75.5518 51.9601)
(144.218 -1.45725 -3.37723)
(79.4495 4.86687 9.46123)
(131.845 3.22867 6.85943)
(102.265 10.6761 5.53157)
(130.915 7.20302 4.53898)
(124.141 2.74742 2.02767)
(135.487 -2.64279 0.901535)
(131.53 -3.34365 0.315266)
(131.487 -3.66272 0.572007)
(119.564 -2.27183 0.981405)
(109.696 -1.59598 0.795729)
(98.6761 -1.0726 0.0767193)
(95.8199 -1.4869 -0.527544)
(93.1514 -2.04793 -0.512131)
(93.0534 -2.60053 -0.538328)
(92.5363 -3.30692 -0.463573)
(93.0893 -3.52573 -0.476487)
(95.1625 -1.26378 -0.143575)
(-31.5355 137.104 67.833)
(-121.256 -48.8788 -7.12598)
(105.854 -54.4697 1.50719)
(48.6698 -27.3952 6.30775)
(111.989 -29.541 2.97822)
(96.2683 -10.8818 0.897741)
(121.611 -9.26957 0.537062)
(114.697 -3.36319 -0.0705748)
(120.053 -1.77249 -0.0455543)
(111.172 1.68031 -0.276207)
(108.1 6.88808 0.460585)
(95.9847 9.75133 0.384415)
(92.8712 9.16649 0.048016)
(86.5088 7.61942 -0.122391)
(85.6153 5.29887 -0.220932)
(83.2045 3.40703 -0.138139)
(83.4273 2.17162 -0.0684413)
(83.1026 1.21402 -0.0862484)
(83.4988 1.13071 -0.0952726)
(83.0279 2.11714 -0.0351941)
(257.166 75.6606 134.5)
(121.589 -62.2517 11.8699)
(157.169 -71.605 7.20292)
(113.811 -40.5995 6.19694)
(137.439 -23.6904 2.92116)
(105.721 -4.84414 0.113845)
(117.857 -5.60742 -0.575113)
(101.717 2.54681 -1.05173)
(106.855 2.74085 -0.47761)
(98.2924 8.14655 -0.598346)
(99.5072 9.05897 -0.0219853)
(95.0988 10.0186 -0.0404803)
(95.6146 7.94975 -0.0790519)
(92.5827 6.92298 -0.305515)
(92.6922 3.79094 -0.17676)
(89.3317 1.27234 0.0268039)
(87.1412 -2.12845 0.0102913)
(84.522 -3.42186 0.10023)
(84.0072 -2.49854 0.186519)
(83.7637 0.374771 0.196168)
(308.903 113.254 91.46)
(89.7699 -8.40248 29.4472)
(159.864 -53.3785 12.422)
(123.121 -58.8902 4.61606)
(152.181 -34.1543 6.80484)
(119.667 -3.69936 3.46294)
(126.414 -0.148899 1.39163)
(113.37 5.88965 0.149627)
(113.788 5.82417 0.0767645)
(107.353 9.94346 -0.194196)
(108.229 11.3379 -0.293668)
(106.94 13.2198 -0.392804)
(108.304 12.8058 -0.58338)
(109.34 12.246 -0.795028)
(111.873 10.0288 -0.635121)
(112.153 8.87156 -0.196605)
(110.062 6.76826 0.715967)
(100.308 2.849 1.59212)
(91.5828 0.79468 1.03133)
(86.4788 1.85986 0.38958)
(269.369 -67.57 122.09)
(68.2038 -134.029 1.78108)
(172.458 -99.9618 -32.4716)
(140.366 -70.7028 -26.4251)
(169.205 -28.6923 -8.07723)
(129.71 -1.19047 -0.640218)
(126.564 -0.99773 0.955162)
(110.057 13.2877 0.753518)
(109.93 9.41363 0.507611)
(103.257 13.5415 0.283244)
(104.995 10.6201 0.188201)
(104.233 11.0678 0.315374)
(106.694 8.37841 0.504237)
(107.832 6.85552 0.443875)
(111.921 4.70927 0.488442)
(114.116 3.60885 0.613739)
(114.466 3.82444 0.765796)
(111.464 4.94709 1.08024)
(101.943 5.56725 1.54965)
(94.2148 4.17301 0.763208)
(120.845 -44.1672 108.541)
(85.8262 -86.6645 -28.4251)
(183.732 -16.4139 -16.5741)
(134.956 -21.2587 -10.9695)
(160.334 7.09904 -3.67139)
(131.17 25.7245 -3.0361)
(137.695 16.9934 -1.3501)
(116.829 6.14685 -0.683788)
(112.207 11.2943 -0.055756)
(102.481 7.97173 0.307851)
(100.58 9.68639 0.0161489)
(97.7802 7.11729 -0.137883)
(99.2078 5.87692 -0.121204)
(101.788 1.99601 -0.00150274)
(105.49 0.529952 0.194278)
(106.814 2.25671 0.122923)
(106.3 4.09005 0.2593)
(101.391 7.54626 0.639993)
(95.3029 9.13158 0.775921)
(92.1567 6.18047 0.383867)
(137.81 -156.819 -48.1327)
(32.3149 -107.18 -9.48946)
(124.979 -53.0187 4.34153)
(44.5604 -28.2943 -3.43724)
(122.624 14.2196 0.10496)
(95.623 18.3365 -0.62904)
(115.437 30.1176 0.940049)
(114.942 24.3109 -0.384384)
(113.587 16.9609 0.0866095)
(106.358 13.5655 0.168644)
(98.8215 11.9608 -0.0635205)
(95.9646 9.05271 -0.319497)
(98.3413 4.76318 -0.477399)
(103.748 -1.32968 -0.449341)
(109.049 -5.41137 0.257394)
(107.525 1.92063 -0.0709576)
(104.324 6.66769 0.415961)
(97.0343 10.7987 0.77491)
(92.948 10.5122 0.359413)
(92.1654 6.26175 0.138416)
(306.994 128.863 -0.368708)
(122.23 -10.9145 38.7056)
(144.558 -46.4256 3.47837)
(63.2443 -30.1056 -4.2478)
(118.61 -4.08345 1.39106)
(81.4088 13.7573 -1.90616)
(105.474 20.9997 -0.543875)
(118.744 24.1927 0.16045)
(121.771 20.6455 -0.144021)
(121.823 19.5037 -0.101086)
(119.867 21.4794 0.025783)
(117.83 18.0311 -0.280206)
(115.935 13.2472 -0.557478)
(115.716 6.4696 -0.658638)
(113.957 -2.43996 -0.215753)
(107.8 5.14583 -0.647339)
(104.811 11.2778 0.0853726)
(98.8183 14.1482 0.725436)
(95.5827 12.6662 0.0221613)
(94.9928 7.32632 -0.311566)
(113.588 97.4729 20.2596)
(-181.315 -16.5558 11.6063)
(141.973 20.9661 -23.4522)
(32.6381 8.41083 -1.15616)
(112.879 19.1391 1.54004)
(72.7103 11.0497 -0.562647)
(82.2264 8.55387 1.0295)
(90.907 7.35317 -0.14343)
(100.756 8.49888 -0.0517271)
(112.663 13.8651 -0.105607)
(120.197 18.0448 -0.0875481)
(126.127 20.8158 -0.142231)
(127.795 20.7054 -0.208287)
(125.257 14.6203 0.299617)
(114.598 3.97266 -0.0996093)
(105.674 10.0026 -1.04437)
(104.477 14.1846 -0.368726)
(102.043 16.1027 0.0246621)
(101.369 15.5328 -0.185021)
(100.423 10.0301 -0.221205)
(262.864 119.129 -21.1436)
(165.397 4.68662 -9.77617)
(186.057 -44.0777 2.47235)
(78.102 -18.4722 -2.05491)
(123.249 -14.0276 3.70785)
(53.4361 0.110682 -0.0719237)
(85.4169 -4.55875 0.69218)
(91.8877 -5.70902 0.0371094)
(102.613 -5.89157 0.261377)
(107.022 -7.76008 0.64577)
(108.556 -1.45614 0.858154)
(121.166 13.6482 0.486184)
(124.393 18.971 0.776703)
(116.639 12.3207 0.267291)
(103.433 10.2823 -0.254339)
(99.4524 13.4626 -1.18773)
(100.588 16.033 -0.737613)
(100.115 16.8837 -0.281432)
(100.356 16.2264 0.0177077)
(100.137 11.0296 0.24404)
(264.767 59.7898 79.2672)
(106.141 29.2026 45.8048)
(203.551 53.2498 -0.783376)
(135.811 32.225 -7.05462)
(161.793 33.9248 -6.38138)
(126.747 -10.0894 -4.43961)
(135.381 -5.67982 -2.76758)
(105.6 -14.0151 -1.14584)
(103.65 -8.73329 -0.4198)
(86.0362 -6.4728 0.11029)
(84.5058 -0.755738 -0.137821)
(80.8853 6.13752 -0.43011)
(88.111 12.3705 -0.268043)
(89.8399 12.8621 -0.0795936)
(88.133 14.2282 -0.336924)
(90.5287 13.6919 -0.491836)
(93.264 16.7587 -0.339154)
(94.527 17.0117 -0.1653)
(97.031 15.5673 0.162174)
(98.1852 10.3557 0.339885)
(85.8664 24.072 -68.5638)
(-41.2881 -46.6932 -7.92242)
(181.354 51.5022 -6.44591)
(29.0867 26.184 1.7732)
(131.03 45.8858 0.123847)
(55.6809 4.22618 0.70429)
(96.6955 35.2004 0.626404)
(66.0523 -4.29849 0.662762)
(83.2167 13.5322 0.000763943)
(69.108 -1.9248 0.124102)
(76.8871 8.06825 0.135333)
(71.8067 2.75816 0.218975)
(78.0073 8.70186 0.175707)
(78.4191 7.1338 0.166033)
(82.913 9.86413 0.20642)
(84.1003 10.2656 0.0351529)
(87.9305 12.6895 0.207802)
(89.54 12.4547 0.306207)
(92.8065 11.982 0.333806)
(94.4731 9.53303 0.374251)
(86.3056 199.743 2.56859)
(-53.2781 -31.3336 18.0658)
(171.671 -14.5844 6.62067)
(11.7091 17.9507 2.40941)
(120.559 22.3914 0.500355)
(49.8024 -0.700452 0.166147)
(98.8029 11.1835 0.178114)
(71.3058 -0.193183 -0.036269)
(86.0699 6.25284 0.0118629)
(74.1856 2.36465 -0.0665843)
(78.7813 5.80662 0.0838041)
(73.445 4.62155 0.0422474)
(75.6871 6.4651 0.169942)
(74.5947 6.49416 0.200593)
(76.2663 7.7827 0.184001)
(77.2669 7.42386 0.158895)
(79.6 9.22604 0.249409)
(81.2018 8.93408 0.26478)
(83.2813 9.44137 0.225469)
(85.6447 8.0107 0.353501)
(51.1709 -51.5459 13.2176)
(-88.3127 -25.8938 -53.6249)
(149.8 36.1519 -19.2885)
(-19.9451 30.6928 0.130921)
(111.08 35.269 -0.938948)
(26.7023 9.31724 0.650306)
(89.7092 21.1185 0.161735)
(51.7698 2.76819 -0.489252)
(80.9378 12.3098 -0.310526)
(65.2075 3.93626 -0.415213)
(77.5952 8.5438 -0.148175)
(70.5861 4.53519 -0.194453)
(76.1952 6.54476 -0.0351991)
(73.5074 4.74389 -0.0617946)
(76.7279 5.77838 0.0463951)
(76.4189 5.36617 0.0572058)
(78.3532 6.40754 0.130397)
(79.0876 6.14196 0.113574)
(80.6566 7.12858 0.101685)
(83.1409 6.51233 0.229921)
(597.48 146.341 -251.612)
(92.6266 119.879 -48.4766)
(226.687 48.9107 0.188899)
(10.8988 29.6133 4.658)
(118.097 3.40281 -0.465715)
(16.9511 2.70082 -1.46722)
(87.8741 -3.81032 -1.16454)
(45.669 0.171886 -0.529419)
(77.2203 1.41119 -0.196561)
(60.7453 3.48777 -0.123699)
(73.8922 4.29127 -0.0577936)
(67.5318 4.71559 -0.110919)
(73.5191 4.87644 -0.0786121)
(71.8514 4.79703 -0.0951701)
(75.0586 4.85523 -0.059301)
(75.6853 4.62784 -0.0814206)
(78.29 5.15481 -0.0656398)
(79.4861 4.92815 -0.0302409)
(81.1656 6.00357 -0.0765728)
(84.2402 5.64666 0.0720351)
(245.585 -28.9597 31.6417)
(-59.3021 204.477 4.91205)
(144.065 111.63 -6.03513)
(29.7931 90.3942 -7.24028)
(112.821 50.4243 -6.18568)
(49.9297 34.9773 -3.27747)
(92.7781 9.43472 -0.666333)
(59.9522 6.7376 -0.51124)
(83.1274 2.55435 0.0941534)
(68.4589 3.71661 -0.203657)
(79.822 3.79049 -0.0487166)
(73.6357 3.62222 -0.260029)
(79.2108 3.48212 -0.218216)
(77.0864 2.84975 -0.33626)
(80.2861 2.53125 -0.330911)
(80.462 2.15006 -0.395985)
(82.7909 2.52961 -0.385708)
(84.2083 2.53721 -0.368687)
(85.8046 4.15319 -0.413489)
(90.2333 4.43287 -0.185244)
(54.2671 55.2248 -48.0691)
(-47.2918 159.608 -4.64432)
(122.059 101.595 -1.81212)
(66.6519 85.4387 1.62085)
(131.361 44.9615 4.18151)
(88.9536 29.0327 2.59508)
(112.781 2.87052 2.75595)
(80.9006 3.85823 1.26719)
(91.6732 -1.05493 0.885061)
(76.4937 4.15253 -0.0285081)
(84.143 3.06099 -0.54227)
(78.75 5.51378 -0.911531)
(83.648 4.77414 -1.12415)
(82.5702 5.27937 -1.17414)
(85.6264 4.3429 -1.22933)
(87.0252 4.19614 -1.24072)
(91.2393 3.46624 -1.22904)
(93.3284 3.42158 -0.945593)
(95.0908 4.18397 -0.975019)
(100.479 3.9264 -0.763903)
(77.9552 235.295 -30.9181)
(37.3382 73.9864 7.20193)
(152.524 51.6363 14.395)
(108.266 41.9313 13.3998)
(155.488 25.7617 11.0544)
(127.353 21.1536 5.92251)
(148.31 13.1463 3.25925)
(132.671 10.7287 1.7211)
(140.658 7.49096 2.09918)
(130.605 7.71568 2.3164)
(132.601 7.68642 2.45645)
(127.763 8.48499 2.18017)
(129.672 8.27101 1.85876)
(128.69 7.86483 1.47641)
(130.545 6.36502 1.28263)
(129.695 3.68789 1.15302)
(128.236 3.14866 1.30501)
(125.052 4.14309 1.32405)
(123.958 5.58797 1.15696)
(127.496 5.98077 1.08735)
(226.831 54.4855 103.48)
(74.9356 -34.6777 -8.20222)
(187.063 -34.19 -4.60128)
(141.88 -17.1545 0.517707)
(174.24 -8.64235 15.5104)
(136.51 -3.0622 17.8892)
(148.762 -4.68625 25.0491)
(132.283 -6.60351 13.7377)
(135.413 -8.1719 7.69627)
(126.814 -7.81316 5.37833)
(128.399 -7.80115 5.31972)
(126.575 -7.33103 5.26816)
(128.788 -6.899 5.2486)
(129.483 -6.26827 4.52974)
(132.13 -5.41863 3.7658)
(133.836 -5.72031 3.04085)
(137.201 -4.88581 2.29172)
(139.002 -5.53899 1.65543)
(143.221 -7.05631 0.410916)
(151.817 -4.50769 0.68945)
(153.442 -39.1989 -106.067)
(-40.635 -14.3186 -50.5778)
(157.279 -45.8715 -28.6319)
(97.6499 -23.8977 -3.46508)
(150.219 -4.17427 13.9763)
(124.837 10.7551 15.2142)
(140.501 18.5154 15.285)
(125.653 14.3318 6.45762)
(127.409 8.33574 2.28982)
(116.476 4.75604 1.25975)
(115.47 0.466322 2.09916)
(108.373 -1.95868 1.54335)
(107.028 -2.92967 0.610538)
(102.867 -2.60602 -0.570347)
(102.34 -1.60615 -1.78417)
(101.027 -1.22487 -2.42281)
(101.362 -1.00063 -2.81862)
(101.542 -1.0872 -2.97915)
(102.319 -0.520731 -4.03808)
(103.614 0.790468 -3.66886)
(120.696 -17.6581 240.337)
(49.9775 -24.4043 -28.2732)
(116.997 -20.1465 -31.5334)
(54.6399 -3.21921 0.307758)
(116.107 -5.03016 2.46765)
(85.5754 8.06621 4.89389)
(116.989 7.05678 5.52383)
(107.165 6.13507 2.38933)
(117.648 2.40831 1.5551)
(109.858 2.39067 0.754486)
(109.684 0.885277 1.36648)
(100.805 1.30458 1.44263)
(97.1537 0.744698 1.32042)
(90.1038 0.614347 0.149056)
(88.4778 -0.0629189 -0.913525)
(86.0969 -0.91864 -0.949283)
(86.0456 -1.61045 -0.994982)
(85.1467 -2.24226 -0.929787)
(85.3682 -2.38241 -0.982564)
(86.158 -0.763941 -0.353448)
(79.6985 127.45 104.178)
(-102.231 -35.7137 2.36829)
(96.5872 -21.1076 -26.4906)
(45.387 -9.94978 0.703569)
(104.038 -16.4493 -0.938932)
(83.6069 0.301381 -0.502578)
(108.584 0.247008 0.799981)
(99.4547 6.00107 -0.219749)
(106.072 6.20304 0.329879)
(97.0398 8.44266 -0.140638)
(95.4071 9.22805 1.0201)
(87.2012 9.62732 0.596226)
(85.3688 7.82425 0.120167)
(80.0782 6.10161 -0.267828)
(79.3065 3.60026 -0.456691)
(76.9263 1.9513 -0.330918)
(77.063 0.817637 -0.222563)
(76.4031 0.15623 -0.195662)
(76.5707 0.275088 -0.262157)
(76.0294 1.22552 -0.0468946)
(192.949 6.36414 56.86)
(21.6283 -37.7378 -2.7916)
(125.407 -30.1013 -1.86985)
(87.1044 -13.656 2.4941)
(120.734 -10.5823 0.923582)
(88.0721 2.31329 -0.778953)
(101.805 -0.793212 -0.446525)
(84.815 7.40446 -1.29021)
(92.1467 6.46374 -0.388024)
(84.2176 10.8421 -0.706899)
(87.1625 10.1909 0.163461)
(83.4941 10.4169 -0.0304766)
(84.6877 7.94612 -0.0704464)
(81.9485 6.81516 -0.424204)
(81.9382 3.8335 -0.250763)
(79.1061 1.75846 0.00889256)
(78.1827 -1.00354 0.134336)
(76.5249 -2.09159 0.237007)
(76.2875 -1.44425 0.32406)
(76.229 0.224146 0.419865)
(134.555 31.0006 119.542)
(-31.4071 5.104 20.6169)
(126.336 -29.2748 7.26678)
(78.5076 -23.6503 3.42041)
(120.048 -12.9975 6.16299)
(93.4976 5.78364 2.32769)
(106.339 3.25389 1.68651)
(93.6144 8.66407 0.201914)
(96.7041 7.52221 0.415783)
(91.5455 10.8223 -0.0881706)
(92.9697 10.7275 -0.169314)
(91.4311 11.2667 -0.398804)
(92.6308 9.9496 -0.666348)
(92.0142 8.94567 -0.880992)
(92.631 6.79066 -0.83039)
(91.527 5.75096 -0.0922368)
(89.2067 2.99258 1.62019)
(83.9689 0.959665 2.39126)
(80.5706 0.304932 1.44683)
(78.1344 1.06689 0.754002)
(256.406 -122.58 -74.361)
(238.042 -63.7687 25.2837)
(284.006 -40.3245 20.0108)
(156.676 -20.7054 0.915714)
(145.979 -0.272127 0.393689)
(99.1647 13.7904 1.14969)
(101.809 4.81258 1.55053)
(87.5607 15.6131 1.27925)
(90.9645 9.13052 1.02843)
(86.0945 13.091 0.622805)
(89.3233 9.40085 0.512904)
(88.9541 9.7653 0.581714)
(91.994 6.81015 0.779948)
(92.861 6.08252 0.490171)
(94.9336 4.77516 0.604516)
(95.3555 4.52961 0.904451)
(94.8072 4.88669 1.30243)
(90.4228 5.52479 1.94783)
(86.1675 4.34801 2.30233)
(83.3754 2.67644 1.23427)
(243.555 17.2112 81.2917)
(111.802 -35.1787 -30.0172)
(171.64 19.0176 -13.7666)
(106.406 -0.309581 -9.60049)
(134.879 21.2751 -1.35388)
(104.604 32.675 -2.13564)
(114.431 21.312 -0.803259)
(95.2716 9.3483 0.634986)
(93.1225 10.8403 0.833737)
(87.449 7.60042 0.867146)
(88.1051 8.01121 0.285906)
(87.6654 5.73229 0.025618)
(90.1249 4.70408 0.234469)
(92.2084 2.86955 0.502653)
(91.9943 4.16681 -0.218727)
(91.3349 5.49383 0.00828517)
(88.9475 6.69269 0.721315)
(85.4911 7.73011 1.27151)
(83.379 6.95586 1.15521)
(82.7587 3.98031 0.768114)
(42.5043 17.1009 37.801)
(-74.0311 -71.1403 -4.12338)
(106.927 -27.7922 8.18303)
(11.1056 -19.1869 -6.93309)
(103.797 19.1406 -1.20864)
(85.1241 21.6843 -3.56182)
(105.483 27.4011 -1.43667)
(100.038 21.3084 -0.512623)
(96.8597 15.1074 1.32199)
(91.6392 11.6928 1.35733)
(88.9758 9.5885 0.0257616)
(88.6169 6.17516 -1.2567)
(90.6838 2.82402 -1.66957)
(93.5296 -0.262031 -1.40688)
(95.4423 -0.209134 -0.272202)
(91.0745 6.86837 -0.238012)
(87.4731 9.23206 0.75837)
(83.9853 9.36194 1.03309)
(82.9344 7.27134 0.468504)
(83.4275 3.39055 0.373611)
(124.942 58.9029 -45.6754)
(60.0676 -49.1682 -25.1689)
(122.678 -51.7162 -14.9227)
(25.1296 -26.9881 -9.43868)
(95.9658 -4.5278 0.759868)
(68.7459 9.05029 -2.86371)
(92.4444 17.5331 -1.11547)
(103.796 18.6974 0.868871)
(106.695 17.1179 1.84852)
(104.954 17.2639 0.911437)
(103.936 14.8638 -0.375742)
(103.082 10.5359 -1.94609)
(101.902 5.38078 -2.51098)
(100.939 0.001714 -1.87871)
(99.0444 1.247 -0.446195)
(92.2244 10.0415 -0.902744)
(88.9204 12.3031 0.411084)
(86.0963 11.5637 0.68424)
(85.5107 8.1864 -0.210571)
(85.3242 3.72567 -0.276149)
(25.8055 35.6509 7.11492)
(-100.771 0.664958 -45.4713)
(112.158 15.4307 -35.1839)
(3.86995 -1.30304 -1.08322)
(95.8266 12.6278 1.45549)
(61.2611 5.538 -1.47101)
(77.9886 5.7381 2.63225)
(87.3594 6.80159 2.44774)
(95.8069 8.49254 1.61069)
(104.703 11.3757 1.32199)
(111.046 12.9006 1.17747)
(114.298 12.3447 -0.264869)
(113.905 9.60049 -0.754048)
(110.158 2.50734 1.14766)
(101.519 6.08023 -0.572829)
(91.8682 12.2796 -1.51865)
(90.2952 13.7165 -0.269372)
(88.9144 12.8816 -0.0716684)
(88.8325 9.28782 -0.259546)
(87.9674 4.17178 -0.112562)
(183.936 15.0759 9.13741)
(69.2958 -32.6039 18.1172)
(160.334 -42.6708 9.97877)
(42.9997 -17.296 3.33579)
(107.512 -16.0442 9.24482)
(51.8317 -5.81432 2.52203)
(83.471 -6.95185 2.65335)
(88.4742 -5.13971 1.61719)
(94.0322 -3.35003 1.73382)
(98.0136 -0.485453 2.50618)
(103.274 4.3754 2.39437)
(108.338 10.7565 0.733524)
(107.909 11.2433 1.98941)
(100.769 9.64299 1.86611)
(93.5704 11.5907 -1.10172)
(88.0348 13.0758 -1.5885)
(88.1765 13.5309 -0.747991)
(87.4802 12.6281 -0.190105)
(88.2874 9.53305 0.390558)
(87.7044 5.13525 0.566718)
(150.171 61.9462 -194.308)
(110.862 -30.038 -6.30655)
(228.028 1.54965 -6.71759)
(159.097 5.28499 0.145659)
(165.558 20.5576 0.804939)
(117.109 -16.7524 -0.781432)
(120.288 -7.40044 -2.59617)
(83.6052 -10.4976 0.157724)
(86.3719 -4.25625 0.192987)
(72.6763 -0.171561 0.266211)
(77.9245 4.19294 -0.921075)
(75.3691 8.43088 -1.11853)
(80.7005 11.3691 -0.788597)
(81.1524 11.4616 -0.53621)
(80.0603 11.6852 -0.706321)
(81.5224 10.8465 -0.480633)
(83.5835 11.8837 -0.154669)
(84.1294 10.7246 0.201767)
(85.8157 8.75731 0.548816)
(85.8172 5.5704 0.720859)
(190.857 -1.66517 -101.375)
(16.6971 -84.2165 -3.51645)
(171.191 25.5516 1.04728)
(28.2956 15.5504 1.08887)
(122.813 38.8392 0.85969)
(44.8653 1.46977 1.44756)
(85.3068 34.452 0.665414)
(52.4997 -6.65338 1.10067)
(70.8762 14.2172 -0.112798)
(56.7847 -2.60813 0.288351)
(66.8042 8.5515 0.115462)
(62.5311 2.33135 0.306651)
(69.6738 7.96566 0.200784)
(70.072 5.43705 0.247803)
(74.6223 7.99563 0.340157)
(75.4448 7.55833 0.222463)
(78.4842 8.89212 0.491508)
(79.3994 8.01594 0.670327)
(81.3416 7.76568 0.650322)
(82.0982 6.01888 0.78665)
(-13.4522 -21.5274 -50.6575)
(-89.1094 -23.8265 -48.5957)
(154.274 -15.0809 -15.0337)
(0.601788 16.3297 -1.57145)
(110.844 20.3758 -0.339983)
(37.7983 0.0958098 0.630932)
(89.3178 14.5755 0.504411)
(58.8797 1.34189 0.144365)
(75.2837 8.41843 0.283447)
(62.3356 2.66565 -0.022706)
(68.5844 6.00816 0.301165)
(63.582 3.91444 0.145947)
(67.0258 5.71396 0.37079)
(66.3809 5.14881 0.362237)
(68.5899 6.16938 0.389303)
(69.6362 5.38588 0.304106)
(71.9058 6.65074 0.462092)
(73.0432 6.12037 0.505571)
(74.5871 6.53119 0.405784)
(76.5096 5.37429 0.724673)
(281.035 -90.2919 27.1219)
(-3.39911 -3.56374 -35.3472)
(128.461 28.3704 -25.0341)
(-26.0047 27.6938 -2.19361)
(99.5205 31.634 -3.21018)
(13.5322 7.40208 1.38735)
(81.8026 21.0977 0.305031)
(41.0417 2.28158 -0.423968)
(72.0978 12.0895 -0.129744)
(54.6157 2.53184 -0.461712)
(68.3047 7.18599 0.0790126)
(60.8588 2.65901 -0.189971)
(67.5154 4.83304 0.134017)
(64.978 2.87899 -0.00738117)
(68.7918 4.00458 0.191697)
(68.64 3.43885 0.141998)
(70.9037 4.40777 0.285369)
(71.6001 4.09413 0.195454)
(73.1158 4.97499 0.109776)
(75.2855 4.42403 0.471844)
(314.689 -105.542 -41.1178)
(-65.4969 46.48 72.159)
(149.454 43.7111 -5.7734)
(-28.5299 26.3574 5.7232)
(104.895 3.3716 -3.9413)
(8.4919 3.00988 -1.42266)
(81.3151 -2.44428 -1.54524)
(38.904 0.4053 -0.646126)
(71.2541 1.00261 -0.0614762)
(54.3183 1.98227 -0.220491)
(67.8324 2.2767 0.0253027)
(61.2061 2.31667 -0.226106)
(67.3632 2.35512 -0.0917787)
(65.5587 2.28249 -0.155422)
(68.9316 2.37156 -0.0406731)
(69.4397 2.34647 -0.115194)
(71.965 2.84567 -0.0584548)
(72.9477 2.84746 -0.0378437)
(74.5328 3.87366 -0.183707)
(77.2198 3.58081 0.21071)
(177.957 115.372 79.9809)
(-137.293 148.951 13.9561)
(119.695 70.8187 -29.414)
(10.3522 62.1227 -12.4971)
(98.7219 23.4857 -10.8672)
(35.7001 17.2835 -4.39001)
(83.7958 0.12481 -0.493296)
(50.7483 3.04249 -0.6625)
(76.3324 0.705984 0.380485)
(61.5595 2.1297 -0.408997)
(73.84 1.88685 -0.119425)
(67.7603 1.52157 -0.609841)
(73.7973 1.19723 -0.495752)
(71.7996 0.565377 -0.731556)
(75.221 0.258032 -0.640511)
(75.3909 -0.0422896 -0.73222)
(77.7532 0.26558 -0.603044)
(78.7116 0.608065 -0.591099)
(80.2854 2.02568 -0.645612)
(83.7906 2.28537 -0.137516)
(127.895 -26.1335 72.5751)
(-60.1711 110.289 15.7466)
(106.245 55.2111 -7.60555)
(47.4682 36.534 2.22601)
(121.444 9.107 5.86956)
(80.8762 6.21218 2.94103)
(108.758 -6.35147 4.86591)
(79.5658 -0.187263 2.19164)
(92.1227 -3.60724 1.83008)
(78.8533 1.07757 -0.107475)
(86.5512 -0.315838 -0.822549)
(81.7362 1.65048 -1.6516)
(86.2751 0.712087 -1.87762)
(84.9881 1.05195 -2.00977)
(87.6714 0.116825 -1.9002)
(88.3101 -0.0360899 -1.81862)
(90.5601 -0.515966 -1.66556)
(91.1111 -0.0861684 -1.5287)
(92.3056 0.69303 -1.71208)
(95.9443 0.906341 -1.19431)
(59.9056 215.138 148.255)
(-14.8004 79.344 40.7391)
(139.816 37.2912 29.7473)
(94.7817 23.4605 22.4082)
(146.911 11.5679 18.5797)
(119.447 12.8329 9.48423)
(141.882 9.50075 6.5259)
(127.185 9.43772 3.40342)
(137.683 6.35825 4.09496)
(131.292 5.39808 3.98372)
(136.731 3.89055 4.27327)
(134.79 3.41613 3.82411)
(137.777 2.45985 3.54464)
(137.095 1.89312 3.05861)
(137.666 -0.125677 2.79474)
(135.049 -1.27664 2.73929)
(131.762 -1.32662 3.18109)
(128.172 0.134214 3.16744)
(127.007 1.4822 2.60768)
(129.703 1.75259 2.3649)
(127.373 -59.0999 -151.026)
(-35.5193 -67.5972 -35.9917)
(147.776 -36.9952 -27.6007)
(69.2397 -12.6598 -24.4217)
(125.597 -12.5732 -3.82368)
(91.739 -5.79887 1.48439)
(124.4 -5.79341 16.2238)
(116.434 -4.13729 9.52305)
(125.819 -4.51964 7.89144)
(120.109 -3.81565 6.16035)
(124.447 -3.69768 6.40994)
(124.536 -2.96321 6.01243)
(129.164 -2.41577 5.60294)
(131.333 -1.56822 4.37265)
(135.864 -0.468588 3.10138)
(138.013 0.0891437 2.08645)
(141.917 0.513592 1.42161)
(144.565 0.264801 1.3556)
(147.195 1.67874 -0.898053)
(147.565 3.21389 -0.696457)
(272.843 -23.7101 59.6301)
(139.216 -49.6784 -31.661)
(160.699 -51.2623 -43.8225)
(77.6978 -17.9065 -12.8556)
(119.708 -2.6523 4.0241)
(91.6391 9.54621 9.57282)
(117.47 14.5436 11.9597)
(105.671 12.177 4.40601)
(111.191 8.73828 2.44124)
(101.5 5.21748 1.04692)
(102.8 2.77149 1.64166)
(98.802 0.835471 0.89378)
(99.266 0.0095855 0.067306)
(97.1554 -0.139786 -1.04159)
(97.1267 0.40497 -2.12908)
(96.0446 0.343716 -2.84853)
(96.3834 0.356432 -3.26172)
(95.8519 0.192833 -3.48195)
(96.3068 0.66932 -4.59903)
(96.141 1.30177 -3.94737)
(273.544 -149.703 273.296)
(210.028 -131.093 41.8659)
(164.644 -30.3928 -15.7434)
(60.2748 6.28913 0.322902)
(109.107 0.272848 1.2312)
(70.6216 10.5238 4.37237)
(102.673 7.95305 4.94232)
(88.7943 8.36121 1.97434)
(100.318 4.79491 1.76681)
(91.1918 4.67243 0.841648)
(92.9355 3.17259 1.47725)
(86.7667 3.19082 1.19748)
(86.1765 2.09952 1.09563)
(82.3397 1.81065 0.0781124)
(81.282 0.931384 -0.839136)
(79.0455 -0.00748752 -0.934362)
(78.9444 -0.75342 -1.0164)
(77.6961 -1.39678 -0.948271)
(77.6742 -1.23722 -1.06384)
(77.4152 -0.103847 -0.361614)
(114.854 -39.2832 -65.6485)
(35.1383 -4.99799 -19.4244)
(89.3697 2.92595 -30.5996)
(46.3038 5.16111 -0.724351)
(94.9195 -6.90073 -0.673073)
(69.1699 7.1155 0.11311)
(95.3772 4.98713 1.48465)
(83.7246 10.1895 -0.0102506)
(92.2765 9.08471 0.792617)
(83.21 10.4175 0.191818)
(83.8893 9.47477 1.06753)
(78.1211 8.97935 0.543513)
(77.4266 6.83142 0.190267)
(73.2443 5.26952 -0.252698)
(72.6943 2.92103 -0.403177)
(70.4902 1.451 -0.317928)
(70.6491 0.414734 -0.236735)
(69.7913 -0.13116 -0.20726)
(69.8648 0.0572173 -0.338022)
(69.1151 0.803601 -0.0239749)
(170.724 87.516 0.663712)
(31.867 -25.063 -6.56487)
(115.511 -18.5488 -4.25837)
(72.949 -5.3018 2.74393)
(107.329 -4.40884 2.00687)
(70.8769 6.57279 -0.0865994)
(88.42 1.71339 0.226509)
(70.7152 9.80323 -0.919043)
(80.5114 7.44947 0.00537912)
(72.7438 11.2243 -0.441127)
(77.0917 9.56224 0.32744)
(73.6807 9.63355 0.0729243)
(75.4099 7.04636 0.0260626)
(72.8754 5.98079 -0.362413)
(72.885 3.2253 -0.154976)
(70.5709 1.48715 0.0153436)
(70.4283 -0.672439 0.179659)
(69.2699 -1.4574 0.265728)
(69.3099 -0.972776 0.288558)
(69.3376 0.0722858 0.466898)
(111.455 50.4014 91.7412)
(11.8534 -2.90217 -5.64721)
(114.586 -27.4334 5.42435)
(61.3953 -15.6286 1.35927)
(102.351 -6.42219 5.61388)
(72.3879 9.35853 2.15545)
(90.1333 3.9125 2.15593)
(77.6349 9.63802 0.330602)
(83.4003 7.46472 0.610858)
(78.6969 10.4466 0.0599087)
(81.0769 9.42824 0.0565098)
(79.3424 9.70751 -0.274372)
(80.3554 7.95892 -0.475265)
(79.0373 7.17789 -0.714228)
(78.6351 4.91388 -0.738635)
(75.8814 3.73182 0.0489855)
(74.2153 1.49601 1.40976)
(72.3924 0.491476 1.88245)
(71.5583 0.123943 1.20313)
(70.5965 0.621256 0.797014)
(151.953 49.4388 -104.255)
(107.059 -54.7145 -44.8724)
(187.947 -44.6199 5.51683)
(110.301 -17.4082 7.16909)
(120.247 5.0019 4.84342)
(77.2233 16.2531 1.39014)
(83.651 4.14024 1.44534)
(70.4875 15.9076 1.24519)
(76.6944 7.97303 1.02992)
(72.7533 12.3342 0.658934)
(77.0762 8.02123 0.597833)
(76.6332 8.7623 0.570598)
(79.6227 5.86003 0.703999)
(79.5644 5.75169 0.454286)
(80.1935 4.99247 0.464286)
(79.507 4.92432 0.725837)
(78.2947 4.64337 1.24003)
(75.446 4.30614 1.75684)
(74.5432 2.91178 1.90355)
(74.1994 1.67669 1.24508)
(282.048 -103.334 88.6233)
(90.9268 -27.7174 -13.3169)
(145.025 38.1072 -8.32888)
(73.8992 9.30655 -8.93148)
(112.212 27.1998 0.184925)
(80.9162 34.6935 -1.67484)
(93.6852 19.7005 -0.00472322)
(76.4427 9.70793 1.15037)
(77.2797 9.41471 1.01102)
(74.6052 6.76974 0.831597)
(76.843 6.59622 0.134823)
(77.3423 4.77408 -0.0167276)
(79.9574 4.22641 0.187192)
(81.2951 3.42332 0.475392)
(79.257 5.46512 0.25535)
(77.2174 6.56581 0.272493)
(75.2078 6.52801 0.839579)
(73.8581 6.23661 1.15517)
(73.6585 4.96223 0.938854)
(74.2037 2.55273 0.855046)
(-48.1601 45.7515 159.803)
(-161.779 -34.7084 -42.9314)
(87.1537 -10.5747 -2.03045)
(-11.8759 -14.3209 -5.66549)
(89.6044 20.6148 -2.60125)
(67.4432 23.0608 -4.34745)
(85.3936 26.3407 -1.42086)
(80.5658 16.9218 0.324198)
(80.8053 12.4247 1.55083)
(79.0906 8.9004 1.10399)
(79.4909 6.9177 -0.446243)
(80.0718 3.88129 -1.62251)
(81.7364 2.02924 -1.66212)
(83.321 1.29592 -0.995443)
(83.2393 2.82577 0.0229173)
(77.3143 8.16109 0.698388)
(74.9283 8.17319 0.908972)
(73.6491 6.97158 0.906922)
(74.0763 4.45648 0.385723)
(74.9535 2.00577 0.462115)
(252.767 57.7048 90.6729)
(76.4965 -44.4206 -1.61595)
(112.749 -49.1469 -7.79599)
(6.9659 -24.4577 -7.63113)
(84.0222 -4.55558 -0.741164)
(52.3828 8.14887 -2.7059)
(75.2115 16.3371 -0.364029)
(84.7602 14.5126 1.54335)
(89.4815 13.6257 2.14759)
(90.9423 12.5405 0.954115)
(91.6712 9.23988 -1.07845)
(90.9147 5.39135 -2.4641)
(89.4266 1.78981 -2.49694)
(88.4538 0.72254 -1.35767)
(85.9326 5.30056 -0.324164)
(78.9045 10.7785 0.233625)
(76.6922 10.1132 0.680198)
(75.6661 8.14747 0.49213)
(76.0224 4.59055 -0.21017)
(75.8531 2.04221 -0.0630506)
(276.866 79.1396 -76.0763)
(3.36829 27.897 -30.588)
(116.03 16.4627 -43.4858)
(-5.47464 -4.39596 -4.72029)
(85.1803 9.56626 -2.30858)
(48.8352 1.61996 -2.07356)
(66.3904 2.34729 3.01981)
(78.1971 4.95955 2.99436)
(87.635 7.53498 2.4271)
(95.6135 10.2403 3.50321)
(101.853 8.58778 1.04556)
(104.044 7.33968 -0.622679)
(100.058 3.8579 -0.27726)
(94.8482 2.50102 0.856156)
(86.4224 7.93157 -0.646481)
(78.7328 11.2779 -0.234484)
(78.2045 10.8801 0.166914)
(77.3847 8.27159 0.0029048)
(77.7147 4.42167 -0.0672798)
(77.1913 1.80042 0.14749)
(108.319 -84.7151 -15.1245)
(8.07421 -16.9566 3.98333)
(142.835 -36.1622 4.57995)
(17.0674 -13.5974 3.03088)
(96.0787 -15.5816 6.83794)
(41.875 -10.498 2.81056)
(74.3403 -10.527 3.06942)
(79.192 -4.24302 1.91523)
(84.6241 -0.347514 1.92579)
(88.8806 3.82435 2.47259)
(92.8759 7.06731 1.62818)
(92.8691 9.52553 0.506609)
(90.06 9.21818 1.61372)
(87.3799 9.89218 0.70318)
(82.0524 10.7073 -1.15884)
(76.4593 10.1815 -0.535554)
(76.9696 9.70393 0.019416)
(76.4323 7.6742 0.354513)
(77.208 4.80181 0.538941)
(76.8027 2.54991 0.571006)
(90.2404 3.26797 -112.712)
(67.0147 -9.23998 8.59739)
(176.68 25.542 -6.00858)
(115.102 17.817 -0.746657)
(139.82 21.0512 3.25474)
(93.0069 -20.1216 0.848794)
(101.678 -6.84705 0.636585)
(68.4189 -7.91666 1.10919)
(75.1083 -0.535585 0.313509)
(64.4518 3.29111 -0.0215139)
(71.3214 6.75313 -1.15371)
(68.55 8.8901 -1.11375)
(73.3317 10.3128 -0.900669)
(73.0879 9.73809 -0.613566)
(71.4379 8.95382 -0.0694079)
(72.6072 7.46874 0.11621)
(74.0739 7.78518 0.259405)
(74.3426 6.22671 0.585868)
(75.3288 5.05148 0.635171)
(75.1605 3.18487 0.700096)
(107.05 -66.8578 46.6094)
(-51.2279 -77.5481 12.5839)
(162.104 44.164 -9.21984)
(15.7131 17.3232 -0.563329)
(113.522 34.7245 0.636443)
(32.585 -1.33161 1.67187)
(75.4514 33.7158 0.71075)
(41.0161 -9.14343 1.10005)
(61.9185 14.6186 -0.114338)
(48.0073 -3.57315 0.275818)
(59.5412 8.55247 -0.0898346)
(55.1989 1.33977 0.336273)
(62.6321 6.89473 0.191623)
(62.5431 3.59604 0.430589)
(66.9539 5.8711 0.48535)
(67.2819 5.22515 0.423592)
(69.7627 6.09188 0.590156)
(70.1196 5.18039 0.717093)
(71.5592 5.23524 0.628406)
(72.1302 3.91 0.818453)
(195.967 -117.419 104.315)
(-8.58087 -25.8163 -45.0971)