/*--------------------------------*- C++ -*----------------------------------*\
  =========                 |
  \\      /  F ield         | OpenFOAM: The Open Source CFD Toolbox
   \\    /   O peration     | Website:  https://openfoam.org
    \\  /    A nd           | Version:  10
     \\/     M anipulation  |
\*---------------------------------------------------------------------------*/
FoamFile
{
    format      ascii;
    class       volScalarField;
    location    "6.2";
    object      k;
}
// * * * * * * * * * * * * * * * * * * * * * * * * * * * * * * * * * * * * * //

dimensions      [0 2 -2 0 0 0 0];

internalField   nonuniform List<scalar> 
12920
(
1912.74
952.279
687.421
666.839
625.7
554.954
492.795
467.956
458.426
444.239
400.902
261.541
163.045
135.584
124.818
109.571
92.2128
75.0985
60.9485
47.6613
6558.47
1720.12
1394.92
984.232
698.833
601.099
467.191
410.368
336.971
296.971
251.053
209.251
169.389
138.926
113.048
92.7413
82.2823
79.1616
79.4534
85.4928
6380.3
2176.68
1737.6
1097.44
741.248
568.102
372.632
298.851
234.871
207.505
176.045
152.067
126.209
105.51
91.2731
84.5123
81.6649
80.4206
80.3962
80.3712
5237.61
1939.52
1668.28
867.128
619.312
411.927
322.854
259.408
215.084
190.277
160.561
137.375
114.345
98.9332
88.0556
81.8291
77.4436
74.4378
72.5655
71.483
11897.6
4891.84
2957.6
1442.51
999.783
674.023
485.567
307.486
230.88
184.609
156.176
136.146
117.061
103.5
93.1994
87.0425
82.635
79.209
77.422
76.0625
2568.12
2116.24
1682.65
1447.28
1174.87
1054.54
872.351
671.522
467.155
268.04
178.382
141.741
123.423
110.684
103.221
99.6043
98.2248
95.2568
92.7618
86.1482
8183.17
2338.58
1649.46
1221.1
974.109
916.683
783.422
694.708
553.293
366.798
231.798
164.482
139.694
128.836
119.913
116.009
114.715
112.873
111.305
104.845
10616.5
4052.8
1933.55
1361.97
1090.1
941.821
567.681
324.818
292.912
233.132
172.013
105.768
92.7729
88.2289
145.393
125.22
112.666
108.925
108
103.862
3078.04
2706.42
1969.02
1690.45
1277.54
674.708
383.143
220.213
182.505
136.073
121.24
86.383
58.3032
61.0428
107.604
140.066
113.349
102.798
98.6387
88.7147
3507.66
2327.48
1932.7
1787.39
1402.87
767.711
338.108
223.399
285.939
259.081
172.731
108.794
58.2695
75.3673
123.912
128.814
105.248
91.5742
82.8462
76.4566
2788.12
1708.18
1584.39
1326.46
959.946
492.213
239.83
215.573
213.87
157.305
139.828
95.1908
67.8152
69.2126
96.0678
135.232
114.496
94.3289
78.8589
73.0329
3891.71
1919.27
1245.96
1008.45
711.116
319.171
152.402
179.585
189.992
130.001
107.338
81.7345
75.5122
70.9883
124.21
163.894
119.26
91.6903
77.9357
74.1852
5139.12
3237.92
1637.98
891.212
647.39
553.76
287.425
174.13
142.506
148.585
147.796
144.102
135.563
130.749
191.684
137.627
99.7674
83.241
77.7033
77.7772
3080.14
3718.72
2868.67
1626.06
873.73
590.866
392.544
281.556
242.868
230.646
224.404
206.44
185.903
159.061
128.217
105.406
93.4589
88.5816
87.9814
90.229
886.381
2479.83
1961.86
1062.29
815.075
701.399
466.885
336.144
252.119
210.829
181.98
159.136
140.646
124.728
113.885
107.898
106.752
108.603
113.863
118.045
864.417
2590.65
1388.22
768.812
743.39
659.96
467.791
354.562
259.547
213.595
177.012
157.131
140.653
130.915
126.681
127.423
130.915
134.626
140.811
143.76
1296.64
2500.97
1257.53
732.645
690.072
529.627
405.906
318.332
250.391
216.605
188.116
175.075
163.981
161.222
158.573
158.048
158.871
159.948
163.292
167.037
1073.97
2005
1138.66
714.633
606.678
530.106
403.412
335.404
273.247
252.076
235.819
233.74
229.125
229.339
228.873
228.386
227.269
223.134
218.257
204.133
1149.98
789.801
428.836
480.187
517.125
475.152
363.591
322.319
278.661
262.453
242.192
234.803
225.375
219.664
209.432
199.126
188.606
175.991
169.811
159.047
636.969
293.351
174.967
305.735
431.709
444.628
396.099
308.432
248.755
213.726
185.845
165.631
148.881
131.891
117.759
106.461
102.047
94.5477
89.5946
77.4873
284.068
932.887
1127.97
1199.02
1149.65
1065.59
1011.2
997.812
962.153
831.121
551.339
370.156
312.015
290.614
260.749
221.864
190.062
160.439
139.083
115.662
6258.64
4609.85
2988.41
2171.56
1610.64
1469.64
1167.58
1082.67
873.439
775.879
632.027
555.635
473.099
402.163
328.404
275.364
253.196
248.583
251.46
265.197
14865.3
5900.27
3678.14
2427.05
1704.72
1386.38
944.784
807.546
637.114
570.083
481.174
422.456
350.344
304.09
268.799
252.569
244.458
241.318
239.942
238.667
9145.7
5161.41
3553.12
1880.83
1548.7
1036.16
848.912
672.69
571.279
497.252
421.119
365.912
309.62
276.278
250.141
235.596
224.506
218.39
215.097
214.26
12545
5654.79
3712.47
3078.36
2280.72
1725.22
1179.88
805.509
564.396
489.133
408.434
363.772
316.566
288.976
265.237
252.039
241.086
234.451
230.354
228.611
5323.98
6609.19
4375.33
3689.62
2845.56
2754.02
2209.63
1635.88
899.904
560.366
431.461
378.074
338.786
312.482
294.896
284.268
279.567
275.69
271.831
259.925
14030.1
5701.15
4063.14
3008.02
2308.69
2354.17
2086.8
1893.92
1318.33
790.856
517.101
418.336
380.84
356.603
333.596
323.64
323.103
325.576
326.886
315.187
16317.2
7999.93
4487.23
3447.13
2476.18
2189.19
1725.06
1469.61
1177.57
810.609
546.101
395.272
349.814
326.508
338.368
310.96
305.568
310.466
316.005
306.906
11068.2
7933.76
4459.27
3928.12
2682.08
2162.51
1720.72
1539.55
1239.22
932.51
671.518
430.672
349.285
330.053
322.074
297.372
273.963
269.596
264.95
249.549
4791.75
5126.12
4044.58
4005.38
2956.25
2388.13
1678.59
1448.9
1433.17
1293.64
923.167
475.635
376.718
351.769
313.646
269.952
246.554
237.629
228.441
223.238
8858.57
3331.79
2508.64
2562.21
1942.69
1591.46
1283.36
1149.48
1021.97
863.82
692.758
423.822
339.347
286.586
259.885
289.674
260.737
234.124
220.286
220.996
6427.84
5190.89
2299.54
2131.07
1516.51
1185.9
952.094
907.869
804.867
648.96
540.362
448.18
396.447
355.345
352.24
332.017
261.508
229.695
221.522
225.211
24597.6
5613.43
2843.74
2091.99
1685.39
1420.81
1030.17
787.662
634.316
596.072
571.857
539.102
488.784
446.049
394.815
297.722
245.743
231.326
229.88
235.862
8754.94
8608.04
4087.37
2564.77
1798.54
1561.28
1064.95
786.873
664.941
615.391
566.601
514.22
447.042
383.679
323.143
288.779
268.749
265.927
267.462
276.279
5137.21
6792.67
4442.83
2459.64
2055.4
1741.27
1144.69
882.774
658.682
562.793
476.774
421.325
373.927
342.565
323.521
316.773
318.431
326.561
336.627
345.842
3879.27
7210.7
3744.79
1993.29
1937.27
1635.13
1129.11
895.696
667.776
573.62
481.136
435.923
395.695
380.251
375.127
377.751
383.586
391.817
402.646
410.417
2971.73
6065.11
3288.07
1954.79
1797.44
1291.91
1014.6
817.278
670.079
598.671
534.395
506.692
483.63
476.507
470.33
469.321
472.241
476.059
485.051
489.702
1588.75
5667.2
3201.17
2042.11
1646.53
1333.54
1018.08
880.9
754.616
709.917
669.829
659.801
647.349
645.33
645.802
648.755
654.606
650.463
641.235
604.741
3156.55
1602.49
878.427
1340.63
1318.6
1209.57
920.166
833.926
735.356
704.639
665.858
657.25
644.469
641.367
630.485
610.761
587.242
553.52
528.317
485.488
275.676
162.865
156.986
485.843
863.775
901.628
773.669
597.964
478.203
416.039
359.676
328.445
304.846
294.063
286.004
270.664
261.193
245.575
234.454
203.198
907.355
1631.34
1659.3
1565.72
1355.33
1216
1158.3
1104.14
984.378
740.401
532.153
421.321
362.4
310.002
263.179
220.962
192.345
165.579
152.366
133.982
1361.83
5499.96
4041.94
2734.92
1950.17
1787.61
1411.46
1292.57
1032.02
924.374
767.813
700.843
608.259
535.133
467.236
422.937
400.043
390.069
387.043
389.247
9691.88
7970.07
4340.89
2747.23
2129.52
1636.73
1242.4
1059.63
863.612
764.51
647.487
575.105
492.305
442.728
401.962
381.054
366.862
359.692
356.122
355.349
18198.6
8696.51
4277.69
2477.92
1985.97
1328.12
1152.26
902.001
789.193
667.24
569.986
497.16
432.925
394.885
364.858
347.433
334.851
328.821
326.24
326.968
13379.4
6251.91
4729.51
3586.08
2700.84
1870.95
1388.53
1029.35
822.157
692.822
580.055
506.198
445.082
407.712
379.259
362.851
350.363
343.898
340.441
340.103
16266.6
8118.29
5342.37
4395.7
3264.36
2911.74
2161.35
1599.2
1066.63
796.048
634.215
541.295
482.184
442.286
418.765
403.65
394.613
386.949
381.202
371.314
26693.3
7007.25
4943.38
3687.99
2946.29
2810.54
2307.35
1955.42
1385.41
969.853
724.691
605.116
536.689
495.317
466.012
453.999
449.863
444.857
438.565
417.994
15297.1
9672.34
5756.13
4054.54
3041.83
2651.15
2233.49
1902.33
1426.9
1014.85
745.265
591.265
513.594
470.595
456.464
440.408
438.816
437.62
431.43
407.536
13214.8
9805.73
5805.09
4454
3114.36
2693.03
2317.5
2043.25
1554.45
1171.69
817.023
597.225
510.962
460.35
422.899
392.396
382.639
378.563
366.976
353.475
11056.8
7516.08
5188.47
4650.86
3240.8
2694.74
2177.34
1929.81
1754.68
1408.96
940.239
619.666
523.721
452.625
389.042
350.356
339.621
334.018
327.944
330.382
10136.8
5358.44
3982.8
3721.05
2610.33
2118.12
1752.63
1508.08
1303.74
1104.1
638.03
437.039
382.584
336.807
343.12
367.625
341.913
326.466
323.042
333.517
7421.55
6662.8
3847.82
3266.69
2338.51
1858.82
1524.44
1269.37
1057.07
889.11
744.167
634.535
552.85
485.601
449.439
393.511
345.892
330.71
330.996
345.417
15336.7
7617.42
4163.88
2921.2
2431.57
1925.68
1534.4
1226.1
994.169
911.548
829.897
753.997
653.697
569.192
457.456
387.255
357.061
351.171
353.804
369.131
20357.5
9195.77
4912.55
3339.79
2587.19
2114.41
1464.87
1108.09
945.685
830.275
738.416
651.907
562.465
492.908
439.393
413.701
403.102
403.717
408.477
422.622
7042.2
9516.26
5877.15
3487.06
2881.41
2242.5
1490.28
1155.62
908.794
764.832
652.457
579.645
522.768
490.687
472.024
469.972
471.863
479.859
489.145
498.012
11641.2
9720.88
4911.94
2982.95
2696.57
2024.04
1456.41
1139.36
905.507
781.276
672.794
618.303
573.2
559.442
553.949
555.81
559.896
566.809
575.235
578.397
11787.8
8080.42
4459.21
2791.75
2365.53
1635.76
1347.36
1086.14
932.179
844.697
772.336
739.5
709.967
697.936
687.629
682.723
683.367
682.454
684.917
677.77
2496.95
7750.15
4623.4
2842.79
2306.45
1700.95
1376.91
1186.08
1053.63
1001.88
953.853
942.916
922.89
915.548
904.203
890.9
879.045
852.767
832.048
780.186
13017.1
6683.94
2338.3
2513.57
2011.37
1531.01
1145.21
1052.43
945.64
934.354
906.392
919.364
918.894
924.771
912.247
885.156
845.974
802.904
767.274
693.531
2929.69
808.147
594.479
1082.47
1204.86
1131.02
883.942
686.43
547.084
462.037
405.856
373.297
352.842
338.001
327.241
310.526
299.715
279.905
266.972
232.832
2072.85
2255.72
2347.06
2095.53
1506.98
1209.9
1106.75
997.208
806.96
608.785
485.638
398.034
328.198
268.23
226.232
195.42
175.006
156.412
148.68
133.322
9240.26
6815.36
5179.85
3222.58
2234.03
1882.62
1533.58
1345.95
1134.06
1007.99
886.386
815.093
731.388
668.638
612.542
576.293
553.616
541.794
533.309
533.564
15771
8381.43
4982.98
3160.18
2473.51
1756.5
1463.19
1190.5
1038.9
891.201
790.661
703.711
631.855
581.062
543.66
521.104
506.94
499.299
496.199
498.739
20245.9
9976.03
5098.68
3046.76
2277.74
1574.28
1376.41
1060.23
960.579
786.857
705.118
615.883
561.546
520.087
493.583
475.39
465.212
460.846
460.235
464.532
8961.56
7827.85
5354.8
3751.85
2909.34
1872.97
1576.67
1160.42
1027.43
833.802
734.188
636.687
580.314
535.84
509.648
491.079
479.819
473.954
472.016
474.727
10800.9
9201.79
6403.14
4426.01
3467.11
2560.51
2052.93
1468.81
1173.94
917.863
789.264
678.908
623.541
576.863
554.976
535.97
524.762
515.094
508.65
504.233
23732.9
9984.49
5785.43
3991.41
3452.83
2775.71
2287.54
1776.53
1357.98
1038.72
868.04
747.997
684.616
638.046
612.252
597.074
587.253
573.372
560.71
543.056
13034.4
10898.8
7015.02
4409.98
3533.31
2801.74
2405.26
1941.97
1460.99
1093.25
878.139
738.453
655.921
608.62
597.182
587.202
581.76
569.461
552.231
530.874
22669
10777.3
6846.2
4628.97
3424.43
2908.63
2555.15
2105.48
1573.36
1190.24
889.524
730.2
640.252
582.388
537.993
517.972
511.135
500.659
487.395
483.897
33990.9
12101.8
6719.69
4854.22
3405.52
2806.79
2364.19
2063.52
1715.71
1289.2
925.785
727.462
623.494
547.813
485.942
463.995
459.123
455.838
455.41
467.153
11776.4
7567.02
5392.15
4095.06
2951.16
2332.66
1978.18
1679.93
1422.46
1177.76
747.291
573.206
485.206
445.643
457.681
468.289
454.79
451.464
455.563
478.018
25340.5
12956.9
5533.7
3852.14
2925.13
2250.66
1896.69
1504.8
1250.67
1077.53
924.58
792.321
679.417
596.046
534.879
478.429
460.967
460.639
468.772
494.896
19037.1
9867.37
5375.47
3646.82
3090.88
2275.17
1873.34
1502.34
1247.62
1143.18
1017.68
898.725
763.657
651.709
536.322
498.946
490.63
492.605
501.544
523.881
19566
13397.2
6484.78
3974.2
3328.3
2397.7
1761.55
1314.3
1162.58
966.867
871.269
752.657
669.815
607.039
568.056
555.166
552.477
555.966
564.343
581.374
19749.4
14363.1
7797.8
4359.43
3600.21
2435.27
1746.19
1324.16
1110.36
912.29
806.399
719.74
670.026
641.509
631.078
630.321
633.275
641.15
648.789
657.916
16563.9
10603.3
6063.39
3805.17
3322.67
2216.5
1719.53
1295.28
1116.23
947.474
855.631
789.497
754.327
739.224
734.427
733.638
736.131
739.793
743.985
744.016
9156.95
10532.5
6100.55
3638.94
2805.59
1899.15
1614.19
1281.39
1167.39
1049.29
994.839
948.02
923.173
901.995
891.556
881.109
878.823
870.578
866.978
848.716
9191.27
12223.2
6826.3
3651.54
2747.77
1920.73
1653.22
1392.14
1318.93
1242.36
1219.07
1193.92
1178.26
1154.22
1133.6
1100.98
1075.55
1034.41
1004.49
945.315
12115.7
10862
4966.88
3324.34
2221.27
1560.97
1250.52
1151.93
1112.64
1123.01
1139.88
1176.76
1186.68
1187.98
1163.3
1118.38
1065.12
1012.98
956.759
871.644
4374.63
2122.81
1604.75
1510.23
1322.26
1081.9
845.36
658.833
533.751
455.504
412.11
384.255
366.205
347.419
332.16
309.737
292.12
266.073
252.533
220.253
4253.12
4195.02
3967.97
2796.24
1524.37
1093.65
911.053
703.016
552.892
437.739
351.883
275.738
227.634
195.084
170.84
151.22
136.217
125.769
118.96
115.85
6842.99
9319.12
6893.54
3831.53
2723.58
1842.38
1745.15
1270.79
1239.8
975.051
966.033
845.501
838.055
763.462
749.204
710.747
705.29
688.996
685.808
690.971
28632.1
9077.37
5739.23
4218.36
2915.35
2033
1712.01
1289.24
1195.61
946.415
915.736
782.013
766.691
698.706
691.312
661.324
660.315
650.558
652.269
661.478
26988.7
10798.1
5903.07
4173.81
2679.6
2122.95
1622
1297.22
1125.78
885.435
837.096
708.975
696.004
639.841
636.813
614.298
616.235
611.672
615.088
626.15
13957.4
8387.38
5954.83
4777.33
3245.7
2281.84
1867.11
1370.42
1244.86
940.62
888.18
743.124
723.869
662.2
655.992
630.267
628.205
619.799
621.214
629.167
7275.05
8698.42
7841.42
4884.73
3962.95
2514.95
2202.46
1491.63
1316.76
996.62
931.55
788.61
762.447
705.363
695.958
669.006
662.099
649.286
645.789
650.192
29086.6
13110.6
6970.39
4996.59
4122.65
2874.42
2459.52
1780.15
1406.85
1110.56
1001.54
864.809
833.119
774.2
759.723
732.021
718.176
694.556
681.994
677.26
15585.7
12270.7
8528.28
5017.53
4361.29
2962.44
2545.45
1953.64
1492.71
1170.83
1006.12
879.624
820.063
771.881
749.87
732.796
714.03
688.731
670.762
665.874
24797.7
12990.3
8044.39
5296.93
3922.62
3081.62
2745.52
2076.47
1561.04
1199.79
991.222
874.824
805.383
754.394
711.536
660.837
645.401
625.466
621.482
630.503
26754.8
15725.5
8845.95
5355.83
3879.29
2903.03
2532.43
2118.35
1641.66
1229.53
970.025
827.203
767.056
718.867
655.041
603.386
597.075
593.197
599.954
625.392
24826.6
11072.4
6986.24
4898.57
3473.35
2545.72
2163.48
1823.52
1514.52
1216.82
953.996
749.306
665.656
658.703
637.809
600.548
595.292
595.919
608.826
639.196
30281.2
11662.6
7043.96
4776.38
3655.86
2555.77
2209.41
1719.28
1454.32
1255.13
1084.65
925.206
827.467
750.775
671.034
607.885
609.948
612.483
628.248
658.224
21309.7
11445.5
6857.36
4573.31
4047.33
2809.83
2210.85
1709.51
1489.15
1311.66
1177.72
1000.75
869.777
743.964
655.815
646.151
646.124
653.416
663.312
688.118
20324
16994
9186.5
4790.09
4429.68
2675.64
2211.2
1567.14
1414.23
1088.64
1025.52
843.455
802.647
731.528
718.786
706.34
711.796
714.461
722.381
740.937
11959.9
15563.7
11305.6
5332.29
4564.25
2697.11
2171.38
1502.69
1346.36
1039.53
972.8
847.339
828.486
791.409
793.33
787.904
793.041
795.984
799.12
809.517
11063.5
11364.6
7608.73
4740.09
4113.02
2539.47
2141.42
1469.44
1391.17
1092.36
1066.23
942.707
945.688
902.627
909.769
893.233
897.304
890.462
888.666
886.721
22345.8
13721.1
7559.48
4635.73
3475.47
2333.71
2007.42
1498.07
1458.59
1220.87
1227.62
1116.42
1121.98
1066.66
1067.83
1039.46
1036.87
1015.05
1004.01
979.191
38471.9
18822.2
7942.94
4726.29
3410.9
2250.53
2070.42
1559.52
1647.84
1428.25
1490.51
1380.92
1399.65
1322.74
1308.42
1241.13
1214.46
1153
1119.23
1060.49
12502.9
9985.68
6571.75
3695.77
2721.16
1603.99
1556.54
1261.54
1412.99
1304.83
1430.19
1379.05
1423.97
1360.1
1333.03
1248.49
1195.81
1119.84
1058.69
995.385
2491.29
2597.45
1964.12
1444.29
1139.47
853.987
662.37
528.317
452.118
403.397
375.315
352.015
333.008
307.292
283.23
254.03
230.59
204.659
189.96
166.387
1057.66
1181.81
788.913
1317.82
1011.16
1195.93
708.439
667.711
693.833
532.723
922.896
738.691
621.344
556.603
731.458
923.984
775.806
1165.92
718.699
1051.82
899.592
469.128
724.112
609.652
625.471
510.183
850.064
734.813
227.852
339.804
219.864
1377.19
1305.89
1355.49
1273.3
198.754
220.996
257.03
1298.82
1168.57
1270.21
1282.75
139.748
262.409
238.781
1061.26
856.377
1274.48
1198.48
126.968
223.921
176.606
789.71
632.664
1154.37
919.951
100.683
167.421
128.458
583.611
431.983
825.752
519.68
59.0616
105.646
56.7646
368.606
294.215
426.633
313.751
60.4744
56.2067
68.9813
290.419
287.322
312.559
312.975
50.5778
71.5535
65.7281
283.969
279.777
309.666
295.625
218.919
313.948
220.555
1333.85
1241.64
1228.84
1107.43
271.041
224.206
228.655
1234.62
1262.68
1072.45
1005.82
280.895
223.852
199.28
1263.9
1203.3
988.141
904.413
181.195
185.677
158.915
1153.15
940.07
865.648
761.957
133.82
156.567
130.774
850.608
526.016
715.71
477.686
58.3903
101.281
65.2517
428.314
321.013
398.451
323.174
72.7508
66.6008
73.8243
320.123
318.346
317.172
292.176
67.4596
73.4522
54.6727
313.427
295.872
280.823
246.003
202.796
186.238
183.746
1067.24
1022.35
838.051
865.533
221.395
207.106
215.138
1007.46
938.025
874.688
826.457
169.558
203.526
148.568
906.945
791.642
784.669
642.058
141.177
134.243
116.073
755.058
666.589
603.795
526.567
121.241
113.572
91.5224
633.13
443.471
499.753
401.279
66.6769
82.4471
74.7628
380.331
313.994
378.857
338.876
70.7182
74.0241
70.3067
304.823
273.702
327.944
298.625
50.5277
68.2184
54.9754
262.113
232.11
289.294
276.053
149.723
231.236
103.614
738.498
773.5
761.505
682.002
199.25
96.4789
92.0169
786.644
756.554
629.171
531.631
142.906
92.6281
95.9515
721.854
602.724
523.989
495.013
111.137
94.2524
85.4735
568.8
496.812
483.311
452.35
87.8435
82.1195
75.9263
473.007
403.372
441.342
414.273
76.104
75.2129
75.2802
387.982
354.779
409.743
387.778
72.4138
74.862
75.3425
344.814
318.061
379.648
361.607
57.8845
76.1864
69.5887
310.571
294.547
358.069
349.642
1552.03
1691.4
1512.31
2213.89
2020.78
2156.28
1953.18
1355.17
1498.26
1478.29
1970.87
1634.83
1923.51
1813.14
1013.01
1458.57
1360.24
1514.91
1244.91
1760.04
1534.54
735.571
1303.05
1010.02
1143.52
877.147
1427.05
1055.42
493.603
898.32
561.043
796.285
605.311
934.427
637.617
357.317
472.795
374.739
560.42
492.084
582.17
507.913
335.664
369.818
356.551
476.87
441.946
492.837
450.004
315.262
349.945
325.097
431.825
404.615
436.418
398.105
1470.66
1500.51
1271.84
2094.37
1889.25
1829.76
1589.35
1439.57
1226.33
1140.34
1853.19
1761.42
1535.39
1407.31
1349.85
1117.71
1020.04
1720.59
1520.84
1366.15
1213.63
1033.27
981.03
843.592
1425.15
1075.33
1165.89
876.922
565.924
779.009
516.109
951.504
643.734
782.425
551.996
382.008
446.165
370.625
588.043
511.865
513.013
447.129
359.921
359.122
321.472
495.235
447.261
426.772
368.791
323.032
308.054
266.092
432.095
392.533
353.254
319.198
1176.78
1035.27
999.027
1662.83
1490.43
1441.46
1301.17
1056.64
993.394
913.649
1441.53
1300.11
1258.3
1108.68
900.823
868.687
726.374
1253.64
1103.35
1056.32
913.949
743.076
688.717
597.354
1063.58
786.376
875.432
738.947
480.311
562.862
455.664
699.902
496.324
689.205
573.841
352.945
432.272
385.951
459.045
396.197
549.442
494.494
299.318
373.329
339.595
379.331
335.354
478.293
434.198
252.729
329.453
308.933
324.995
307.246
422.004
398.727
912.76
1021.25
843.854
1399.33
1241.01
1461.86
1218.35
842.988
772.93
645.941
1193.86
1049.49
1118.47
935.272
683.039
627.233
578.747
1001.77
872.069
897.267
808.058
568.386
565.532
530.503
836.695
733.94
790.343
739.583
465.44
517.324
485.941
698.051
612.992
720.458
671.276
408.565
480.31
451.349
592.022
536.253
658.736
604.705
364.252
440.643
415.271
518.516
471.087
586.268
537.638
330.377
409.479
387.449
457.934
422.472
523.804
478.946
2111.52
2250.85
2037.27
2514.37
2235.81
2415.59
2174.13
1673.25
2002
1857.89
2111.67
1692.5
2113.42
1862.53
1275.7
1791.11
1523.53
1581.62
1292.15
1762.18
1427.17
897.805
1407.34
1040.29
1191.94
938.189
1312.22
1001.45
637.241
925.636
661.623
870.559
728.952
914.803
735.513
527.932
614.154
540.789
697.272
625.834
700.542
625.384
471.31
523.254
474.256
606.429
560.02
604.317
547.824
428.197
459.207
416.471
547.789
509.754
531.015
483.755
1969.59
1897.95
1658.87
2330.91
2106.8
2036.71
1800.86
1809.83
1603.63
1461.94
2050.15
1833.4
1739.3
1555.44
1513.81
1413.98
1242.65
1742.11
1426.65
1489.62
1278.24
1248.63
1295.46
1371.25
1381.03
1271.91
1266.99
1350.69
825.5
830.461
932.496
930.167
824.428
832.242
922.069
542.975
510.381
459.244
702.215
620.795
562.444
512.05
469.246
438.286
379.05
597.512
535.776
488.27
433.36
409.514
364.375
333.808
518.052
472.687
422.814
402.848
1561.63
1554.32
1378.51
1934.31
1711.59
1815.22
1561.6
1354.43
1326.1
1160.78
1648.13
1463.39
1488.93
1294.8
1142.25
1106.84
963.466
1402.02
1217.9
1238.75
1092.81
941.456
993.927
1025.74
1117.06
938.49
886.481
1058.53
471.883
562.813
625.752
452.403
555.589
398.567
535.185
396.229
585.169
526.932
497.896
463.429
704.733
623.66
344.884
509.158
461.041
447.977
412.993
600.048
542.155
323.588
447.98
420.234
407.663
399.314
527.236
490.998
1327.19
1598
1320.36
1815.39
1534.96
1898.53
1560.07
1107.02
1213.58
1018.98
1454.2
1258.27
1439.56
1227.71
925.102
974.662
877.051
1205.35
1070.1
1175.84
1067.37
781.085
858.159
801.542
1032.95
918.615
1045.17
969.408
656.88
779.553
723.554
880.887
783.544
940.568
863.498
572.598
708.618
645.658
755.058
672.306
839.939
751.586
500.206
624.569
568.621
647.5
583.258
723.909
649.041
444.601
552.405
498.74
565.299
513.126
626.306
553.212
2245
2451.33
2192.96
2682.84
2231.2
2563.56
2233.82
1681.82
2121.06
1837.91
2067.49
1654.67
2125.48
1762.21
1286.55
1730.36
1392.51
1548.69
1265.83
1642.57
1316.34
951.316
1283.13
996.448
1184.92
1001.25
1223.9
1004.37
759.929
919.206
760.459
956.53
857.603
950.772
837.484
659.368
727.776
653.91
832.929
772.664
811.094
755.001
594.514
633.343
578.719
757.937
718.597
741.16
699.631
541.917
562.205
513.31
706.519
668.78
684.781
639.066
2128.97
2071.31
1832.18
2470.48
2184.64
2176.64
1921.94
1815.46
1767.66
1570.11
2088.41
1755.66
1845.22
1606.84
1394.13
1499.63
1279.18
1640.76
1321.19
1523.85
1280.87
1004.51
1202.61
836.818
1229.55
1007.61
1202.36
979.311
762.066
757.021
639.306
951.94
830.275
918.277
774.054
646.295
617.725
540.518
800.433
736.822
733.045
640.118
564.814
515.731
465.781
723.272
684.252
626.302
608.376
501.324
456.864
436.017
669.9
625.605
602.767
579.822
1746.37
1886.2
1610.19
2100.31
1846.86
2072.72
1750.81
1486.85
1533.18
1334.39
1771.76
1552.52
1664.99
1458.46
1231.49
1278.37
1131.45
1479.02
1263.93
1401.75
1242.7
832.006
1089.81
942.187
1198.3
981.992
1195.81
1055.7
600.722
894.023
776.149
917.292
761.099
1009.38
881.134
504.334
743.541
655.894
718.292
626.528
843.182
757.928
450.391
631.67
574.654
614.597
603.08
740.682
697.101
434.097
559.734
519.346
599.496
581.079
682.476
636.375
1590.57
1994.26
1623.8
2117.21
1747.03
2244.55
1783.7
1303.62
1499.37
1285.64
1651.96
1443.65
1651.99
1443.77
1115.31
1233.24
1125.5
1391.55
1248.36
1398.59
1288.95
962.628
1101.95
1019.5
1205.3
1083.87
1254.06
1153.17
823.066
988.519
905.419
1043.71
928.19
1118.9
1016.67
704.699
878.95
783.754
892.416
806.701
979.707
874.689
614.575
754.458
675.557
785.563
727.252
844.147
761.008
539.672
651.262
572.507
707.826
648.135
732.603
651.973
2244.68
2628.07
2269.92
3077.3
2449.89
2954.11
2527.28
1668.93
2149.25
1763.28
2243.59
1842.41
2367.95
1926.87
1276.26
1640.55
1314.6
1727.47
1442.3
1795.93
1463.76
1032.16
1225.34
1021.3
1353.71
1224.66
1377.56
1200.65
898.416
972.952
868.417
1186.74
1111.36
1160.98
1068.1
818.81
843.968
797.944
1078.36
1044.22
1049.15
1034.61
766.833
786.957
748.249
1028.96
988.019
1029.33
985.627
715.465
733.501
685.878
968.414
918.89
969.985
906.317
2226.3
2236.08
1974.53
2871.04
2503.72
2574.58
2297.78
1760.71
1892.25
1638.37
2358.31
1934.98
2188.15
1878.83
1319.09
1550.28
1294.74
1805.17
1470.55
1776.36
1482.79
1021.03
1215.48
1009.09
1383.08
1195.16
1395.48
1200.63
855.466
951.138
802.396
1151.27
1042.86
1145.16
980.356
775.962
759.418
679.499
1019.72
1007.49
937.22
911.245
733.035
673.817
666.263
1009.53
973.162
928.526
928.599
671.54
660.313
631.445
958.032
886.375
919.19
861.642
1902.89
2152.77
1818.1
2528.7
2243.12
2554.42
2192.05
1592.79
1729.11
1517.81
2138.28
1856.02
2078.74
1832.21
1285.78
1459.08
1289.21
1763.26
1493.21
1757.7
1552.23
1015.73
1238.14
1094.14
1412.3
1218.41
1487.72
1326.31
794.012
1046.76
912.475
1157.31
978.304
1272.27
1116.53
669.933
873.525
797.743
933.195
906.92
1075.54
1034.18
663.108
784.724
744.877
925.205
928.942
1029.49
988.434
633.308
729.842
678.868
920.353
861.207
970.781
899.503
1817.53
2351.82
1847.91
2670.42
2194.32
2752.08
2148.25
1507.39
1714.22
1507.84
2073.17
1832.77
2005.13
1837.9
1302.38
1466.06
1350.5
1765.84
1576.57
1777.04
1608.95
1126.85
1309.01
1201.83
1517.8
1368.88
1557.36
1452.54
962.243
1165.79
1055.46
1319
1174.09
1408.45
1261
846.337
1014.1
908.644
1135.5
1082.36
1214.68
1118.62
770.68
877.916
793.888
1066.31
1004.22
1087.46
991.29
688.054
764.3
684.218
982.63
902.192
960.228
880.479
1139.41
1177.15
1047.13
1038.61
1161.66
1152.2
1028.72
1198.48
1286.09
1069.84
1177.49
1211.3
1280.95
973.473
1085.42
998.537
914.835
633.952
1106.31
975.431
754.868
1222.29
1349.1
1210.78
1300.12
1237.52
1325.52
1198.65
1116.76
1022.47
1108.52
1002.11
1128.4
1012.4
1098.75
1173.76
1179.61
1258.6
1037.32
1270.72
950.015
1158.57
1061.14
594.947
950.354
852.252
953.344
719.132
1051.68
745.583
737.655
663.682
691.508
732.36
751.797
686.213
782.497
890.653
610.697
556.566
789.2
872.975
495.124
702.606
637.306
558.774
488.878
698.445
651.561
477.817
830.442
924.146
847.057
914.832
837.884
915.474
839.968
761.705
715.171
786.057
732.473
768.142
709.07
780.021
780.926
522.457
864.622
563.678
859.785
468.484
794.09
716.708
483.286
697.336
554.138
670.457
464.936
740.816
763.831
848.335
712.666
537.09
816.793
668.758
630.809
941.251
968.073
880.807
969.004
907.107
1008.79
923.931
852.161
748.205
829.505
814.115
828.318
764.888
869.721
972.724
1137.24
1041.62
1117.45
902.364
1089.88
1023.16
788.517
508.53
858.205
765.973
654.68
650.937
884.697
979.685
1011.59
1080.83
1006.34
1046.59
965.858
1018.58
890.582
856.011
856.958
953.305
804.26
911.383
936.92
421.523
499.243
458.246
388.295
495.12
356.728
412.133
630.698
674.945
678.626
762.178
612.885
690.06
717.502
585.317
524.674
640.873
649
563.546
547.801
680.473
498.886
425.271
564.64
679.06
378.399
557.674
617.585
453.851
392.438
519.524
542.142
348.742
444.598
568.485
675.847
805.076
789.235
806.659
732.319
761.213
734.33
632.014
691.754
651.725
768.792
595.116
724.182
689.351
398.939
542.229
424.282
986.575
997.398
959.018
963.249
312.75
355.778
298.082
969.972
911.747
939.686
847.287
269.683
254.455
228.81
776.78
684.137
714.308
640.216
217.156
207.435
193.245
526.28
415.924
563.443
488.544
127.948
170.593
139.335
329.24
267.023
415.427
343.624
99.8517
109.111
95.5849
232.603
217.305
268.279
245.261
88.5462
91.1087
90.7779
216.031
215.851
243.353
246.105
78.09
90.5681
83.2532
211.585
222.395
243.384
260.94
557.991
688.347
547.838
1257.23
1246.09
1300.7
1256.5
581.842
296.26
364.541
592.137
597.345
574.793
293.232
622.37
213.236
224.201
631.205
629.93
617.545
219.211
544.264
163.563
202.518
509.494
447.203
595.304
186.478
476.11
132.139
159.744
353.994
333.045
491.109
157.213
347.58
117.45
135.095
268.042
255.469
378.002
128.189
163.027
73.5795
90.3347
165.606
135.476
217.512
72.3496
146.709
58.3604
52.9205
121.31
126.978
137.073
54.0676
167.47
61.735
62.1938
141.103
141.639
166.38
63.2542
92.8091
121.84
96.8873
241.2
248.349
254.905
259.365
560.756
727.236
528.784
1378.04
1241.26
1293.16
1148.98
550.731
259.078
332.913
548.622
550.964
546.447
253.712
664.568
234.377
224.902
638.243
674.444
638.201
236.256
764.309
290.377
278.777
776.344
779.216
751.68
286.718
622.251
225.68
265.521
697.916
626.128
699.474
226.401
475.546
165.244
172.582
507.157
472.763
505.988
165.781
199.271
83.2694
108.455
270.157
200.837
268.002
82.3892
183.733
61.4096
61.3676
160.316
174.444
169.037
65.786
195.942
75.957
76.9897
195.772
195.413
197.48
76.9485
96.0388
111.069
78.2769
248.139
253.532
219.053
217.106
388.224
403.454
321.472
947.34
939.461
789.49
773.489
464.644
200.333
225.917
438.903
500.506
416.456
188.536
591.652
223.17
211.84
592.475
600.424
579.488
220.142
513.726
199.932
207.881
565.003
536.985
548.866
191.939
379.778
148.882
146.316
438.314
415.036
402.321
138.199
341.045
137.802
128.91
386.509
375.387
351.361
126.806
188.806
75.5692
89.7998
226.376
186.173
218.151
74.8273
182.95
70.2957
69.5235
181.474
183.54
183.455
70.2618
159.327
66.3021
66.5256
171.079
165.236
165.178
63.4655
68.3618
104.291
85.5946
199.323
204.401
227.713
244.289
257.547
350.605
309.519
626.91
631.31
677.354
641.403
284.847
129.355
155.852
276.029
312.816
267.976
120.593
395.801
197.961
127.015
469.268
499.728
369.728
145.005
383.391
173.732
155.896
481.207
446.138
402.922
148.354
302.618
120.782
119.165
347.024
324.653
318.386
112.48
248.721
102.08
97.301
285.655
269.445
261.908
92.6149
213.583
78.573
79.7963
220.02
214.633
217.879
77.7857
199.883
74.7388
75.5596
201.488
197.839
203.177
74.7559
192.424
69.7573
72.9144
185.641
182.245
193.25
72.9008
101.646
138.474
110.222
270.606
282.865
300.996
311.776
219.561
301.639
216.687
563.804
558.857
600.129
598.307
147.081
185.894
164.688
484.675
422.75
529.815
441.049
146.64
137.158
126.363
390.368
390.376
414.64
403.769
148.46
130.119
139.822
393.123
400.211
414.057
423.109
145.814
142.681
142.939
395.828
385.854
425.155
424.267
141.081
143.553
141.619
381.598
373.78