/*--------------------------------*- C++ -*----------------------------------*\
  =========                 |
  \\      /  F ield         | OpenFOAM: The Open Source CFD Toolbox
   \\    /   O peration     | Website:  https://openfoam.org
    \\  /    A nd           | Version:  10
     \\/     M anipulation  |
\*---------------------------------------------------------------------------*/
FoamFile
{
    format      ascii;
    class       volScalarField;
    location    "6.2";
    object      k_0;
}
// * * * * * * * * * * * * * * * * * * * * * * * * * * * * * * * * * * * * * //

dimensions      [0 2 -2 0 0 0 0];

internalField   nonuniform List<scalar> 
12920
(
1759.02
960.892
689.891
670.443
629.841
557.549
495.447
470.733
461.356
446.86
401.655
259.302
162.298
135.64
124.925
109.563
92.1396
75.0005
60.8542
47.6413
6612.32
1733.5
1397.78
989.964
701.688
602.214
467.603
410.176
336.912
296.78
250.834
208.927
169.191
138.757
112.889
92.6459
82.2764
79.2122
79.5224
85.6135
6388.99
2186.6
1745.84
1105.91
745.277
569.761
373.597
299.241
235.156
207.643
176.146
152.069
126.15
105.447
91.2738
84.5476
81.7157
80.4738
80.4517
80.4149
5151.42
1931.98
1664.43
867.505
619.774
412.683
322.998
259.851
215.43
190.557
160.755
137.462
114.401
98.9686
88.095
81.8686
77.481
74.4708
72.5977
71.5184
12013.4
4949.97
3001.51
1447.84
1002.11
673.09
484.216
306.994
230.583
184.748
156.342
136.266
117.14
103.554
93.249
87.0905
82.6806
79.25
77.4669
76.1058
2504.12
2093.64
1686.37
1452.02
1180.3
1056.97
873.856
671.265
465.866
267.136
178.169
141.798
123.497
110.75
103.296
99.6872
98.3052
95.3148
92.8103
86.1717
8611.1
2321.11
1647.58
1226.04
978.602
919.817
785.972
695.989
553.263
365.88
231.315
164.434
139.779
128.951
120.033
116.139
114.846
112.985
111.411
104.895
9888.48
4090.66
1928.69
1357.4
1093.42
944.163
569.592
325.4
294.42
233.844
171.845
105.934
92.995
88.44
145.564
125.33
112.765
109.036
108.106
103.918
2886.7
2652.52
1968.99
1697.81
1280
677.46
386.311
221.444
182.227
136.657
121.889
86.3933
58.5823
61.2877
107.816
140.12
113.409
102.894
98.7273
88.7414
3464.15
2300.58
1947.64
1800.73
1405.87
768.09
338.019
223.76
286.245
257.127
172.447
107.967
58.4652
75.574
124.045
128.815
105.276
91.6023
82.8775
76.4795
2590.9
1714.86
1603.85
1336.27
964.341
493.516
241.539
216.306
213.574
156.617
139.858
94.416
68.1313
69.3081
96.1281
135.388
114.545
94.3113
78.8391
73.0451
3780.42
1874.24
1248.18
1013.48
712.296
318.144
152.466
181.223
189.606
129.58
107.278
81.7336
75.6682
71.0997
124.45
163.929
119.196
91.6504
77.9337
74.2152
5495.5
3244.18
1632.42
889.003
647.801
553.979
287.508
174.083
142.877
148.88
148.052
144.387
135.748
130.961
191.734
137.512
99.6939
83.2412
77.7396
77.8299
3120.28
3740.28
2883.96
1624.41
870.156
588.954
391.723
281.219
243.166
231.086
224.76
206.663
186.027
159.084
128.168
105.385
93.4835
88.6332
88.0494
90.3083
988.845
2530.38
1959.63
1058.83
816.366
702.212
466.338
335.688
252.163
210.943
182.091
159.231
140.708
124.776
113.941
107.975
106.857
108.727
114.006
118.164
971.29
2605.9
1371.42
768.929
745.73
661.299
467.76
354.407
259.528
213.589
177.059
157.189
140.723
131.001
126.806
127.568
131.078
134.789
140.979
143.897
1229.95
2489.86
1253.97
733.325
691.11
530.202
406.06
318.417
250.422
216.637
188.199
175.167
164.111
161.371
158.729
158.198
159.026
160.099
163.462
167.178
1070.26
1992.65
1130.01
714.351
608.305
531.291
403.822
335.505
273.376
252.25
236.083
234.014
229.417
229.64
229.181
228.67
227.535
223.356
218.428
204.191
1139.37
770.299
423.708
483.008
520.149
476.138
363.903
322.666
278.96
262.713
242.403
235.003
225.545
219.754
209.462
199.152
188.602
176.007
169.861
159.133
581.007
277.87
173.149
312.108
436.117
447.497
396.81
308.66
249.053
213.986
186.059
165.791
148.975
131.919
117.791
106.552
102.157
94.6245
89.6437
77.4989
275.893
935.153
1132.83
1205.8
1156.29
1070.54
1016.96
1003.26
966.386
829.918
547.94
368.764
312.157
290.927
260.834
221.804
189.977
160.345
138.975
115.646
6017.77
4609.73
2991.54
2186.29
1614.49
1472.81
1169.31
1083.06
873.525
775.254
631.446
555.198
472.724
401.521
327.806
275.001
253.126
248.648
251.57
265.341
15382.9
5917.75
3698.44
2446.47
1710.98
1390.82
946.729
808.569
637.799
570.515
481.398
422.346
350.157
303.886
268.734
252.58
244.521
241.38
240.01
238.719
9124.03
5193.47
3565.35
1888.15
1550.42
1038.06
849.148
673.851
572.001
497.886
421.504
366.089
309.734
276.332
250.206
235.655
224.566
218.444
215.162
214.313
12913.7
5668.61
3728.77
3085.86
2286.7
1723.35
1175.98
803.646
564.329
489.382
408.808
363.952
316.727
289.066
265.326
252.12
241.163
234.523
230.437
228.668
5278.15
6599.99
4378.56
3698.59
2859.04
2761.1
2212.94
1630.6
895.399
559.432
431.638
378.179
338.932
312.605
295.03
284.412
279.72
275.809
271.91
259.915
14459.2
5718.33
4063.04
3021.84
2317.46
2362.62
2095.37
1895.63
1315.38
787.88
516.579
418.539
381.064
356.821
333.822
323.879
323.371
325.823
327.085
315.218
16067.1
8051.09
4478.79
3450.79
2481.37
2190.93
1728.2
1469.51
1177.46
809.178
545.36
395.511
350.162
326.802
338.558
311.124
305.799
310.714
316.195
306.942
11030.8
7884.75
4442.68
3932.9
2686.2
2164.72
1724.47
1540.81
1235.82
931.322
671.78
430.068
349.779
330.409
322.307
297.398
274.065
269.723
265.035
249.517
4939.36
5149.86
4062.32
4026.11
2957.41
2387.53
1679.07
1452.06
1436.76
1294.03
920.3
473.751
377.251
352.079
313.795
269.866
246.512
237.62
228.397
223.201
8576.06
3392.45
2541.99
2584.07
1954.79
1598.11
1288.51
1151.54
1022.45
863.629
692.214
423.207
339.693
286.703
259.986
289.75
260.636
234.008
220.2
220.963
6480.72
5167.56
2296.56
2139.54
1521.19
1186.93
952.532
909.891
804.914
648.755
540.245
448.605
396.789
355.609
352.511
331.821
261.29
229.614
221.511
225.233
23282.5
5612.32
2835.07
2094.74
1687.56
1421.78
1029.64
786.782
634.853
596.933
572.524
539.671
489.185
446.347
394.596
297.409
245.648
231.343
229.944
235.948
8505.66
8654.71
4079.39
2564.58
1801.42
1559.15
1063.24
786.131
665.496
616.404
567.148
514.54
447.114
383.589
323.025
288.736
268.807
266.038
267.596
276.43
5140.23
6807.3
4409.58
2454.66
2059.03
1742.64
1143.44
881.735
658.685
562.913
476.955
421.463
374.02
342.657
323.653
316.962
318.658
326.83
336.897
346.069
4366.72
7266.12
3699.44
1992.95
1943.03
1636.98
1129.06
895.358
667.7
573.591
481.205
435.992
395.84
380.433
375.406
378.041
383.894
392.132
402.962
410.681
2863.98
6028.93
3274.32
1955.15
1799.94
1293.27
1014.99
817.469
670.203
598.795
534.584
506.893
483.917
476.811
470.652
469.647
472.588
476.39
485.373
489.937
1534.75
5659.54
3180.94
2045.83
1649.12
1335.79
1018.93
881.436
755.145
710.417
670.441
660.397
647.995
645.98
646.503
649.462
655.214
650.997
641.583
604.763
2618.77
1485.94
863.916
1353.37
1325.91
1211.76
921.085
834.776
736.079
705.254
666.42
657.732
644.925
641.695
630.555
610.73
587.113
553.367
528.176
485.387
207.786
153.009
155.21
498.687
873.508
907.191
774.388
598.221
478.522
416.309
359.891
328.72
305.253
294.496
286.359
270.934
261.441
245.756
234.561
203.133
948.755
1643.24
1662.46
1570.36
1359.52
1221.24
1164.07
1108.95
985.842
738.631
530.734
421.153
362.528
310.027
263.121
220.9
192.306
165.559
152.369
134.016
1451.8
5527.74
4041.07
2746.45
1954.32
1790.43
1413.35
1293.23
1032.09
923.958
767.859
700.618
607.923
534.59
466.799
422.643
399.92
390.022
387.054
389.25
9913.19
8039.46
4363.62
2764.92
2135.77
1642.89
1244.94
1061.7
864.776
765.287
647.843
575.051
492.176
442.548
401.884
381.012
366.866
359.705
356.155
355.38
19006.1
8799.85
4297.44
2486.06
1989.23
1330.5
1153.29
903.882
790.078
668.137
570.391
497.383
433.047
394.932
364.912
347.473
334.902
328.873
326.303
327.022
13442.4
6275.43
4752.88
3599.62
2705.66
1870.85
1386.51
1029.81
822.543
693.335
580.39
506.358
445.212
407.773
379.335
362.919
350.435
343.966
340.514
340.156
15729.6
8227.64
5358.17
4422.12
3275.35
2916.79
2162.27
1595.97
1064.55
795.635
634.231
541.342
482.29
442.392
418.888
403.77
394.722
387.018
381.234
371.309
26066.9
6975.96
4946.62
3707.05
2953.37
2818.64
2314.02
1955.45
1385
968.764
724.632
605.141
536.865
495.496
466.241
454.213
450.067
445.005
438.641
417.933
14317.7
9627.61
5766.96
4062.09
3046.44
2653.7
2236.48
1901.22
1426.97
1014.1
745.037
591.392
513.853
470.808
456.651
440.629
439.031
437.785
431.498
407.432
13588.8
9875.69
5813.79
4466.09
3118.12
2695.49
2321.77
2043.32
1553.18
1171.03
816.689
597.274
511.238
460.568
423.017
392.447
382.741
378.621
366.935
353.402
10951.4
7442.79
5212.68
4670.66
3244.87
2695.31
2180.55
1934.19
1758.06
1408.41
937.992
619.452
523.955
452.757
389.048
350.232
339.551
333.94
327.863
330.335
9996.49
5400.85
4009.75
3741.95
2619.53
2123.99
1756.77
1510.37
1304.89
1104.92
638.366
437.263
382.33
336.614
343.092
367.508
341.76
326.335
322.956
333.504
7569.43
6617.42
3856.01
3279.03
2343.3
1859.43
1523.24
1270.41
1057.55
889.525
744.522
635.071
553.036
485.66
449.406
393.22
345.704
330.648
330.976
345.477
15286.7
7567.98
4158.41
2926.72
2434.7
1926.68
1533.83
1226.31
995.299
912.825
830.837
754.409
653.938
569.178
457.107
387.034
357.007
351.205
353.881
369.264
19658.9
9125.37
4888.01
3342.8
2590.03
2112.42
1463.99
1108.21
946.582
831.369
738.902
652.176
562.455
492.81
439.349
413.73
403.221
403.869
408.662
422.823
7413.05
9537.17
5798.77
3481.66
2885.28
2244.06
1489.66
1155.38
909.224
765.151
652.727
579.848
522.926
490.842
472.247
470.236
472.152
480.171
489.449
498.275
12329.5
9744.98
4891.16
2984.29
2703.25
2026.63
1456.93
1139.67
905.835
781.532
673.049
618.514
573.485
559.75
554.337
556.195
560.292
567.202
575.601
578.704
11194.8
7906.82
4444.27
2791.7
2368.77
1637.28
1348.45
1086.79
932.81
845.212
772.875
739.983
710.494
698.429
688.132
683.198
683.846
682.884
685.292
678.043
2552.28
7720.13
4590
2843.25
2311.53
1703.78
1378.68
1187.52
1054.89
1003.05
955.009
943.983
923.923
916.477
905.091
891.636
879.668
853.181
832.316
780.191
13260.7
6446.13
2284.23
2529.27
2015.59
1531.76
1146.33
1053.69
946.832
935.533
907.57
920.479
919.964
925.581
912.734
885.31
845.949
802.762
767.043
693.14
2879.7
784.166
600.184
1097.39
1213.25
1135.29
883.556
686.31
546.993
462.122
406.103
373.68
353.282
338.437
327.617
310.846
299.994
280.068
267.063
232.809
1918.82
2253.78
2344.13
2096.2
1505.57
1212.55
1110.87
1000.2
807.3
608.584
485.646
398.121
328.142
268.171
226.209
195.435
175.025
156.447
148.718
133.351
8895.79
6821.97
5207.84
3237.53
2236.7
1885.35
1535.39
1347.12
1134.97
1008.86
887.17
815.481
731.471
668.561
612.474
576.268
553.665
541.893
533.441
533.683
15824.9
8499.66
5022.04
3177.95
2481.07
1762.95
1466.32
1193.93
1040.97
893.163
791.652
704.382
632.219
581.357
543.903
521.362
507.19
499.567
496.468
499.017
20139.5
10138.7
5131.62
3057.91
2282.38
1577.65
1378.31
1062.72
962.029
788.513
705.979
616.706
562.047
520.524
493.936
475.718
465.513
461.157
460.531
464.83
8566.99
7848.33
5384.59
3763.38
2914.31
1874.26
1577.21
1162.52
1028.61
835.417
735.056
637.458
580.829
536.298
510.027
491.442
480.153
474.288
472.331
475.035
10845.1
9277.56
6431.4
4446.43
3472.81
2563
2052.69
1469.27
1174.42
918.9
789.927
679.594
624.088
577.395
555.451
536.422
525.155
515.449
508.949
504.524
23907
9879.96
5779.74
4003.55
3457.9
2783.69
2291.92
1778.21
1359.65
1039.68
869.012
748.703
685.304
638.705
612.898
597.651
587.743
573.785
561.015
543.303
12842.9
10828.8
7024.61
4416.42
3537.68
2805.22
2408.15
1941.71
1462.36
1093.67
878.855
739
656.552
609.15
597.808
587.801
582.251
569.852
552.47
531.068
22302.3
10724.6
6854.66
4640.5
3429.05
2911.66
2559.61
2105.73
1574.06
1190.78
889.933
730.803
640.737
582.743
538.289
518.376
511.457
500.897
487.547
484.09
33030.9
11819.6
6730.45
4868.87
3409.47
2809.47
2369.23
2068.26
1717.7
1289.37
925.631
727.958
623.81
547.916
485.953
464.143
459.252
455.967
455.531
467.357
11335
7488.61
5414.75
4109.37
2954.86
2336.99
1982.03
1682.84
1424.3
1179.32
749.23
574.199
484.929
445.313
457.575
468.384
454.866
451.589
455.705
478.276
27458.5
12886.5
5520.27
3855.95
2929.23
2251.75
1895.97
1506.43
1252.26
1078.93
925.702
792.986
679.544
595.979
534.774
478.443
461.085
460.83
469.011
495.235
19416.5
9923.71
5366.8
3654.79
3093.28
2275.82
1873.85
1504.07
1249.81
1145.39
1019.16
899.496
764.052
651.746
536.364
499.104
490.892
492.924
501.917
524.313
18900.1
13288
6433.6
3974.9
3330.41
2395.99
1761.31
1315.4
1163.86
968.393
872.036
753.333
670.165
607.386
568.411
555.61
552.957
556.486
564.881
581.935
20367
14484.2
7726.94
4351.79
3602.69
2435.8
1745.92
1324.98
1111.36
913.312
807.139
720.475
670.631
642.154
631.766
631.034
633.991
641.893
649.502
658.611
15466.6
10488.7
6044.37
3809.18
3328.27
2218.75
1720.24
1296.47
1117.17
948.509
856.391
790.352
755.134
740.115
735.318
734.558
737.039
740.714
744.846
744.851
9288.97
10548.6
6070.87
3641.93
2806.76
1900.86
1615.43
1282.95
1168.72
1050.72
996.062
949.297
924.352
903.189
892.699
882.246
879.92
871.627
867.934
849.571
9357.75
12415.5
6757.28
3648.88
2751.99
1924.16
1655.66
1395.05
1321.27
1244.84
1221.23
1196.05
1180.12
1155.98
1135.16
1102.35
1076.76
1035.46
1005.33
945.982
13211.8
10925.5
4909.72
3331.11
2220.48
1561.64
1251.87
1154.28
1115.01
1125.59
1142.44
1179.13
1188.81
1189.72
1164.55
1119.24
1065.73
1013.39
956.863
871.57
3858.79
2115.16
1611.23
1516.91
1327.09
1083.39
845.276
658.539
533.632
455.67
412.47
384.658
366.586
347.733
332.401
309.894
292.215
266.116
252.549
220.224
4257.96
4218.35
3989.76
2789.63
1517.33
1094.72
912.844
703.924
553.557
438.299
352.098
275.818
227.667
195.137
170.859
151.214
136.206
125.761
118.95
115.852
6525.61
9287.88
6992.15
3814.64
2743.27
1837.95
1754.97
1272.96
1246.33
978.459
970.868
849.16
841.723
766.691
752.31
713.744
708.177
691.853
688.622
693.847
25736.2
9101.95
5782.41
4200.81
2936.23
2025.37
1722.02
1286.72
1201.73
947.413
920.092
784.637
770.089
701.506
694.253
664.042
663.04
653.23
654.927
664.23
26650.6
10885.7
5956.61
4160.49
2694.28
2115.57
1628.88
1294.2
1130.3
884.675
840.469
710.614
698.823
642.103
639.389
616.692
618.715
614.132
617.553
628.719
14432
8318.66
5972.21
4761.42
3249.35
2273.11
1868.45
1367.2
1247.02
940.555
891.185
745.256
726.759
664.654
658.653
632.751
630.729
622.275
623.692
631.72
7287.27
8777.03
7932.87
4874.56
3980.2
2507.49
2203.55
1490.6
1319.17
998.497
934.379
791.184
765.3
708.03
698.672
671.61
664.686
651.832
648.309
652.787
29728.4
13163
6943.67
4983.05
4132.36
2869.76
2459.19
1783.31
1409.65
1113.83
1004.83
868.105
836.275
777.307
762.798
734.953
720.969
697.238
684.594
679.892
15976.9
12272
8529.95
4998.84
4364.88
2971.03
2547.17
1956.17
1495.43
1172.96
1008.08
881.329
821.506
773.491
752.9
735.76
716.769
691.33
673.252
668.421
25982.8
12845.9
8023.91
5279.66
3923.87
3090.21
2749.96
2078.04
1562.79
1201.35
992.835
876.36
806.708
755.748
713.026
663.457
647.828
627.755
623.777
632.913
26921
15838.2
8828.97
5346.51
3872.53
2906.18
2536.87
2121.47
1642.97
1230.86
971.431
828.652
768.315
720.107
656.391
605.649
599.22
595.346
602.149
627.803
25176.1
11069.1
6990.49
4894.87
3472.15
2548.95
2165.54
1825.57
1516.48
1218.61
956.077
750.727
666.526
659.763
639.024
602.715
597.398
598.061
611.062
641.637
29614.2
11451.3
6991.2
4789.88
3651.55
2554.72
2206
1720.81
1456.49
1257.22
1086.3
926.354
828.446
751.823
672.111
610.016
612.101
614.683
630.565
660.721
21228.5
11547.9
6862.96
4597.28
4045.26
2808.32
2211.56
1712.15
1490.94
1314.43
1178.96
1002.06
870.481
744.864
658.013
648.393
648.399
655.785
665.76
690.711
20980.7
17142.9
9142.83
4798.16
4429.15
2673.52
2215.66
1567.4
1418.93
1091.09
1028.64
845.821
805.085
733.876
721.227
708.846
714.329
717.066
725.03
743.704
12187
15686.4
11225.9
5331.3
4565.02
2701.84
2171.54
1505.83
1349.32
1042.42
975.557
850.051
831.125
794.148
796.1
790.737
795.854
798.855
801.994
812.481
11371.8
11472.9
7557.89
4767.27
4115.85
2548.07
2142.26
1473.05
1393.58
1095.4
1068.72
945.702
948.482
905.691
912.748
896.331
900.341
893.57
891.75
889.895
23272.2
13937.7
7552.86
4657.89
3477.87
2342.95
2008.32
1503.38
1460.73
1224.81
1230.29
1119.98
1125
1070.07
1071.04
1042.83
1040.11
1018.33
1007.23
982.493
39517.5
18951.6
7897.54
4757.66
3411.28
2261.04
2071.24
1565.59
1650.55
1433.04
1493.74
1385.2
1403.01
1326.54
1311.76
1244.55
1217.66
1156.19
1122.3
1063.75
12154.4
9935.77
6561.05
3713.92
2717.25
1609.23
1557.67
1265.94
1415.94
1309.04
1433.58
1382.96
1427.21
1363.29
1335.76
1251.06
1198.11
1122.08
1060.75
997.815
2253.33
2599.56
1963.65
1448.41
1141.13
853.998
662.258
528.344
452.449
403.76
375.75
352.322
333.268
307.402
283.271
253.989
230.522
204.569
189.88
166.319
1055.66
1183.1
789.008
1317.62
1010.4
1196.13
709.628
666.88
693.55
532.713
922.178
738.824
622.641
557.951
732.053
924.422
776.036
1167.04
720.385
1052.84
900.382
469.681
724.371
610.276
627.196
511.223
850.873
735.552
229.784
341.206
220.31
1378.27
1307.15
1356.8
1276.35
198.782
221.311
256.889
1299.46
1164.58
1273.44
1285.11
140.198
261.549
237.705
1056.94
853.669
1276.33
1199.36
127.758
223.035
176.057
788.192
633.184
1154.35
917.854
100.94
167.185
127.926
584.11
430.976
823.493
516.831
59.2937
104.959
56.8232
367.707
294.641
424.373
314.215
60.8005
56.3876
69.2423
290.908
287.683
313.141
313.43
50.726
71.7604
65.736
284.318
280.166
310.027
295.926
219.34
315.344
221.073
1332.72
1243.71
1232.31
1109.32
271.783
224.65
228.702
1237.3
1265.91
1074.07
1007.1
279.985
223.611
198.423
1266.68
1203.9
989.222
903.766
180.486
184.534
158.628
1152.78
938.002
864.894
761.398
133.182
156.463
130.014
848.129
522.677
714.802
474.897
58.4812
100.339
65.4761
425.861
321.526
396.808
323.712
73.0307
66.9217
74.0101
320.741
318.782
317.691
292.42
67.4689
73.6115
54.6563
313.772
296.164
280.993
246.115
203.615
187.805
185.192
1071.82
1025
841.852
868.916
221.447
208.218
215.105
1009.48
938.631
877.477
826.874
168.774
202.924
147.921
907.125
790.805
784.381
641.296
141.109
133.814
116.112
754.413
666.572
603.317
526.575
120.589
113.631
91.2686
632.846
441.508
499.552
401.245
66.9145
82.3818
74.9568
379.332
314.491
379.213
339.33
70.8876
74.2121
70.4174
305.269
273.893
328.361
298.873
50.4969
68.3102
55.0258
262.254
232.178
289.516
276.333
151.483
230.739
102.827
739.429
776.18
761.188
681.214
199.516
95.9894
91.9776
789.028
757.231
628.579
532.258
142.343
92.6443
95.8387
721.783
602.11
524.65
495.463
111.116
94.0649
85.3977
568.366
496.694
483.719
452.63
87.724
82.0636
75.9746
472.786
403.553
441.613
414.701
76.2621
75.282
75.3447
388.326
355.137
410.221
388.004
72.5262
74.8804
75.4214
345.149
318.325
379.899
361.97
57.9568
76.2697
69.6351
310.836
294.882
358.497
350.039
1554.22
1694.41
1516.04
2217.61
2022.21
2160.47
1957.71
1352.25
1502.11
1481.34
1971.1
1632.88
1927.96
1816.65
1011.26
1461.23
1361.59
1513.1
1243.59
1763.06
1534.85
736.102
1303.31
1007.86
1142.65
877.099
1426.28
1053.38
492.735
895.809
558.354
795.95
604.946
932.097
636.382
357.804
471.009
375.197
560.357
492.423
581.704
508.223
336.053
370.333
356.94
477.201
442.189
493.14
450.222
315.556
350.277
325.287
432.082
404.899
436.62
398.256
1473.31
1505.39
1274
2096.67
1893.27
1833.69
1592.14
1443.46
1228.19
1142.01
1857.34
1765.81
1537.95
1409.53
1351.25
1119.15
1019.97
1724.37
1521.63
1367.98
1214.03
1031.02
980.898
842.991
1424.83
1073.07
1166.41
876.698
562.866
777.803
513.859
948.838
642.428
781.634
551.404
382.495
445.049
371.042
587.571
512.172
512.924
447.201
360.292
359.508
321.659
495.525
447.464
426.777
368.737
323.203
308.195
266.127
432.284
392.715
353.234
319.259
1179.48
1038.94
1002.09
1667.02
1493.1
1443.23
1303.22
1057.49
996.053
914.139
1443.72
1301.47
1260.11
1109.29
900.481
868.573
725.939
1254.68
1103.67
1056.6
914.165
743.004
688.507
597.363
1064.07
786.39
875.73
739.095
478.836
562.69
455.838
699.506
496.146
689.341
574.424
353.338
432.73
386.433
459.055
396.224
550.103
494.897
299.472
373.76
339.845
379.274
335.241
478.605
434.312
252.74
329.68
309.118
324.9
307.263
422.104
398.861
914.833
1020.29
842.67
1397.99
1241.99
1460.88
1217.59
843.634
771.997
646.226
1194.99
1050.13
1118
935.667
682.691
627.591
579.184
1002.1
872.295
897.788
808.804
568.33
565.958
530.787
836.967
734.147
791.161
740.103
465.747
517.592
486.414
698.285
613.522
720.997
671.846
408.943
480.787
451.568
592.562
536.559
659.28
604.892
364.517
440.878
415.616
518.761
471.228
586.498
537.83
330.599
409.867
387.708
458.071
422.591
524.042
479.057
2112.96
2255.58
2041.92
2518.8
2237.42
2421.03
2179.01
1672.08
2006.53
1861.16
2111.84
1692.83
2117.95
1865.1
1274.8
1793.8
1523.41
1581.91
1292.4
1763.98
1427.05
897.741
1406.42
1038.47
1192.18
938.518
1311.9
1000.77
637.078
923.639
660.812
870.7
729.298
914.157
735.619
528.249
613.936
541.052
697.682
626.21
700.827
625.682
471.538
523.508
474.42
606.757
560.283
604.57
547.922
428.386
459.357
416.515
548.025
509.997
531.098
483.755
1973.9
1901.89
1661.84
2335.55
2111.75
2040.52
1804.43
1813.97
1606.41
1464.2
2054.96
1836.49
1742.65
1557.82
1514.12
1415.8
1243.18
1744.33
1426.75
1491.52
1279.18
1248.06
1294.25
1371.24
1380.4
1271.3
1265.92
1350.54
824.119
828.341
930.433
928.399
822.431
830.698
920.506
543.231
510.611
459.201
702.509
621.071
563.138
511.951
469.394
438.161
378.917
597.728
535.83
488.065
433.066
409.592
364.289
333.776
518.073
472.669
422.544
402.637
1564.33
1555.79
1380.33
1938.1
1714.6
1815.8
1563.34
1355.91
1327.75
1161.49
1650.88
1465.34
1490.67
1296.17
1142.76
1107.27
963.848
1403.63
1218.99
1239.96
1093.87
941.506
994.867
1026.38
1118.34
938.973
890.029
1059.27
471.97
562.978
626.069
453.413
555.855
399.404
535.161
396.078
585.827
527.254
498.598
463.18
705.351
623.779
344.639
509.384
461.064
447.57
412.563
600.043
541.952
323.513
447.993
420.236
407.284
399.071
527.036
490.834
1327.99
1597.45
1319.88
1814.39
1535.97
1899.03
1560.71
1107.76
1213.35
1019.52
1455.55
1259.69
1440.55
1229.12
925.497
975.261
877.929
1206.57
1071.21
1177.19
1068.95
781.403
859.068
802.174
1034.02
919.491
1046.78
970.493
657.44
780.157
724.124
881.75
784.231
941.609
864.214
572.848
709.132
645.814
755.622
672.454
840.609
751.769
500.271
624.751
568.732
647.565
583.137
724.127
649.023
444.585
552.555
498.721
565.167
512.936
626.285
552.991
2246.67
2456.93
2197.77
2686.54
2232.85
2568.13
2237.22
1682.49
2125.4
1840.25
2068.22
1655.88
2128.34
1763.62
1287.1
1732.01
1392.69
1550
1267.21
1643.72
1317.37
951.878
1283.19
996.252
1186.1
1002.6
1224.97
1005.47
760.532
919.075
760.855
957.915
859.072
951.979
838.892
659.92
728.271
654.335
834.319
773.958
812.496
756.26
594.924
633.707
578.92
759.213
719.852
742.391
700.774
542.187
562.382
513.308
707.73
670.049
685.897
640.167
2133.99
2075.27
1835.9
2474.74
2188.52
2179.85
1924.95
1818.23
1771.15
1572.55
2091.81
1757.3
1848.08
1609.03
1394.49
1501.62
1280.47
1642.05
1322.31
1525.82
1282.61
1004.28
1203.57
838.601
1230.68
1008.77
1204.01
981.407
762.487
758.879
640.708
953.184
831.686
920.416
775.849
646.679
618.783
540.559
801.811
738.01
734.549
640.936
564.949
515.634
465.537
724.423
685.329
627.049
609.129
501.289
456.633
435.749
670.947
626.683
603.543
580.688
1749.48
1886.94
1612.07
2102.93
1849.42
2071.99
1752.4
1488.99
1535.11
1336.09
1774.19
1554.7
1666.89
1460.68
1232.93
1279.92
1132.81
1481.07
1265.77
1403.96
1244.82
833.916
1091.14
943.325
1200.14
984.204
1197.89
1057.65
601.97
895.142
777.01
919.545
762.808
1011.26
882.582
504.215
744.243
656.036
719.73
627.221
844.442
758.754
450.024
631.7
574.505
615.222
603.778
741.497
697.92
433.801
559.594
519.166
600.231
581.935
683.327
637.313
1591.84
1995.35
1624.88
2115.04
1748.39
2244.77
1785.54
1305.39
1500.78
1287.42
1653.8
1445.96
1654.22
1445.99
1116.75
1234.9
1127.43
1393.85
1250.6
1400.82
1291.52
963.796
1103.87
1020.84
1207.49
1085.8
1256.74
1155.18
823.88
989.789
906.322
1045.55
929.628
1120.81
1018.2
704.917
879.759
784.065
893.699
807.633
981.206
875.794
614.513
754.81
675.621
786.494
728.129
845.238
761.863
539.464
651.309
572.312
708.695
649.033
733.474
652.714
2246.9
2633.06
2273.16
3081.92
2446.95
2959.39
2536.34
1670.74
2151.96
1764.69
2245.25
1844.75
2376.75
1934.15
1278.07
1641.78
1315.91
1730.82
1440.89
1802.32
1468.55
1033.76
1226.69
1022.64
1355.05
1227.23
1382.82
1206.93
900.034
974.366
869.936
1192.14
1113.52
1167.63
1075.04
820.137
845.449
799.276
1084.24
1049.58
1056.39
1042.45
768.226
788.273
749.544
1036.54
992.805
1037.27
993.021
716.776
734.785
687.108
975.369
925.073
977.35
914.333
2229.84
2239.03
1977.14
2876.75
2514.26
2579.32
2308.26
1762.22
1894.68
1640.38
2368.44
1943.55
2198.44
1889.35
1320.41
1552.15
1296.45
1812.92
1477.08
1786.5
1492.27
1022.37
1217.14
1011.07
1389.73
1202.24
1404.58
1210.03
856.959
953.153
804.113
1158.55
1050.2
1154.5
988.386
777.238
760.911
680.464
1027.16
1015.46
944.846
918.839
734.287
674.772
667.312
1017.67
980.805
936.559
936.481
672.743
661.395
632.533
965.576
893.447
926.944
869.654
1905
2150.91
1819.16
2533.92
2253.59
2556.82
2202.94
1594.8
1730.61
1519.86
2148.74
1867.07
2089.96
1844.4
1287.58
1461.17
1291.27
1774.08
1503.57
1770.02
1564.12
1017.78
1240.12
1095.92
1422.41
1228.43
1499.36
1337.17
795.659
1048.47
913.783
1166.94
986.237
1282.83
1125.65
670.795
874.674
798.602
940.672
914.461
1084.33
1043.28
664.129
785.626
745.902
933.219
936.864
1038.82
997.261
634.4
730.908
679.926
928.175
868.612
979.48
908.355
1818.46
2351.23
1850.2
2674.29
2206.19
2763.33
2163.86
1509.54
1716.73
1509.84
2085.16
1845.21
2016.52
1850.5
1304.56
1468.1
1353.1
1778.82
1588.99
1790.36
1623.48
1128.6
1311.62
1203.64
1529.85
1380.22
1567.98
1465.4
963.521
1167.4
1056.85
1330.15
1183.9
1420.33
1272.92
847.268
1015.47
909.691
1144.95
1092.16
1224.24
1129.39
771.707
878.924
794.853
1076.08
1013.25
1097.07
1000.99
689.08
765.294
685.073
991.445
910.675
968.351
890.063
1138.39
1175.54
1045.41
1036.95
1160.47
1150.82
1027.32
1198.72
1286.43
1071.13
1178.21
1211.5
1281.17
975.148
1085.36
997.669
915.327
635.522
1105.96
975.026
756.707
1221.8
1348.61
1210.35
1300.27
1236.72
1325.45
1198.42
1115.95
1021.23
1107.89
1001.57
1127.35
1011.39
1098.3
1174.11
1179.79
1259.1
1037.37
1271.06
951.633
1159
1061.31
597.044
950.791
853.034
953.331
721.354
1052.14
744.65
736.095
662.881
691.052
730.861
750.769
685.817
781.843
889.318
610.325
557.785
787.772
872.276
496.215
702.308
636.874
558.456
489.419
697.382
651.633
478.823
829.638
922.897
846.578
914.327
836.888
914.431
839.701
761.291
715.022
785.908
732.774
767.576
709.05
780.067
780.913
524.297
865.065
565.238
859.656
470.231
794.672
716.922
484.597
698.041
555.94
670.852
466.469
741.544
763.487
849.103
713.104
538.449
817.21
670.765
630.666
941.519
968.529
881.206
969.59
907.367
1009.4
924.443
852.266
748.315
829.803
814.444
828.531
764.937
870.11
972.985
1138.53
1043.84
1118.68
906.412
1090.9
1024.21
788.072
510.049
859.93
766.783
656.746
650.658
885.532
980.188
1012.37
1081.95
1007.28
1047.45
966.531
1019.47
890.85
856.513
857.628
954.14
804.488
911.931
937.611
421.768
499.744
458.787
388.888
495.527
357.521
412.645
630.981
674.998
679
762.559
613.038
690.187
717.985
585.843
525.227
641.408
649.64
563.965
548.373
681.077
499.034
426.68
566.399
679.94
379.742
557.653
618.519
454.159
393.395
521.184
542.994
349.817
445.101
569.439
676.316
805.631
789.956
807.492
732.663
761.84
735.085
632.627
692.424
652.406
769.618
595.715
724.877
690.1
400.153
544.42
425
987.277
997.112
957.964
961.579
313.993
355.233
297.171
968.536
909.853
937.384
843.921
271.156
254.237
229.003
774.241
682.333
712.285
639.223
217.637
207.863
193.728
524.576
414.85
563.229
488.833
128.025
170.793
139.246
328.291
266.643
415.521
343.14
100.112
109.105
95.733
232.716
217.519
268.209
245.704
88.8291
91.3132
90.9694
216.241
215.943
243.824
246.453
78.2796
90.7462
83.346
211.722
222.575
243.678
261.312
561.465
690.206
549.051
1259.38
1248.43
1302.07
1258.22
583.765
299.13
367.239
593.559
598.682
576.811
295.03
622.185
214.295
225.082
630.629
628.671
618.206
219.709
540.248
163.573
201.598
504.297
443.229
591.31
185.503
475.403
132.946
159.828
352.122
331.217
490.624
157.292
347.411
118.114
135.223
268.125
255.286
377.814
128.366
161.987
73.6315
90.0027
164.709
134.996
215.787
72.0529
147.306
58.6925
53.1113
121.615
127.227
137.501
54.3138
167.688
62.0213
62.3747
141.206
141.633
166.644
63.4163
92.9877
122.033
96.9198
241.354
248.461
255.063
259.533
560.223
728.775
529.831
1377.7
1238.56
1294.94
1150.48
550.962
259.196
332.932
548.28
550.982
546.461
253.822
665.902
234.635
225.37
639.422
675.782
639.522
236.707
765.152
290.202
279.39
777.19
779.273
753.581
286.807
617.358
223.59
263.337
694.261
621.559
695.42
223.884
474.18
165.033
172.299
506.21
471.377
505.083
165.562
197.576
82.5609
107.562
267.515
199.029
265.208
81.6788
184.606
61.7924
61.6099
160.955
175.363
169.847
66.2145
196.206
76.1215
77.1738
196.111
195.706
197.805
77.1113
96.0501
111.139
78.2413
248.235
253.592
219.054
217.084
389.986
405.029
323.364
952.121
944.448
794.056
778.22
466.808
201.531
227.071
441.066
503.067
418.1
189.406
592.406
223.537
212.45
593.983
601.277
580.96
220.344
512.53
199.388
207.442
564.513
536.029
548.046
191.328
379.027
148.386
145.827
436.722
413.885
401.092
137.905
340.96
137.845
129.014
386.411
375.096
351.474
126.888
188.794
75.2384
89.2226
224.543
185.776
216.909
74.6653
183.386
70.5654
69.7959
182.166
184
183.988
70.4806
159.382
66.3681
66.602
171.151
165.304
165.266
63.5282
68.351
104.443
85.6975
199.388
204.522
227.894
244.499
257.322
349.035
308.772
627.654
631.942
677.91
641.818
285.272
130.168
155.417
276.447
314.859
267.576
120.547
397.341
198.871
127.918
472.287
501.911
371.282
145.916
382.794
173.199
156.009
480.753
445.176
403.041
147.999
302.195
120.556
118.844
346.122
324.125
317.78
112.265
248.367
101.937
97.2011
285.354
268.942
261.547
92.5047
213.715
78.663
79.8415
220.125
214.819
217.97
77.8747
200.062
74.8784
75.6901
201.746
198.067
203.389
74.8734
192.699
69.8832
73.06
185.828
182.45
193.509
73.0538
101.784
138.718
110.287
270.865
283.144
301.287
312.021
219.673
301.536
216.702
563.89
558.668
600.28
598.184
147.167
185.381
164.193
483.522
422.271
529.738
441.339
147.03
136.983
126.53
390.845
390.961
414.837
404.513
148.739
130.367
140.125
393.838
400.841
415.005
424.163
146.095
142.975
143.24
396.35
386.459
426.172
425.227
141.287
143.795
141.786
382.178
374.116
421.629