/*--------------------------------*- C++ -*----------------------------------*\
  =========                 |
  \\      /  F ield         | OpenFOAM: The Open Source CFD Toolbox
   \\    /   O peration     | Website:  https://openfoam.org
    \\  /    A nd           | Version:  10
     \\/     M anipulation  |
\*---------------------------------------------------------------------------*/
FoamFile
{
    format      ascii;
    class       volScalarField;
    location    "6.2";
    object      omega_0;
}
// * * * * * * * * * * * * * * * * * * * * * * * * * * * * * * * * * * * * * //

dimensions      [0 0 -1 0 0 0 0];

internalField   nonuniform List<scalar> 
12920
(
180.195
138.471
117.168
115.62
112.12
105.386
99.3825
96.9035
95.9536
94.4079
89.305
71.3665
56.5888
51.8692
49.7886
46.6037
42.7211
38.5333
34.705
30.7263
360.409
186.148
166.632
140.466
118.178
109.363
96.3168
90.1549
81.721
76.6833
70.4858
64.3073
57.8794
52.4145
47.2722
42.8341
40.3874
39.644
39.7269
41.2328
349.747
208.445
186.395
148.578
121.858
106.42
86.1561
77.0692
68.3172
64.1821
59.1111
54.9081
49.9968
45.7081
42.5397
40.9522
40.2654
39.9596
39.9546
39.9421
319.344
195.618
181.495
131.14
110.902
90.5153
80.0512
71.838
65.4036
61.511
56.4859
52.2197
47.6353
44.3044
41.8022
40.2996
39.2051
38.4356
37.9494
37.6671
487.281
315.652
245.742
169.708
141.117
115.437
97.8435
77.9457
67.5688
60.5423
55.7041
51.9993
48.2074
45.3231
43.0097
41.5662
40.5006
39.6512
39.204
38.8574
215.426
202.591
183.032
169.964
153.33
144.933
131.734
115.33
95.9548
72.6363
59.3916
53.0308
49.4971
46.8742
45.2726
44.478
44.1682
43.4866
42.9093
41.3399
425.171
213.827
180.685
156.254
139.623
135.283
125.037
117.576
104.719
85.0465
67.6368
57.0838
52.6588
50.5871
48.8097
48.0151
47.7477
47.3561
47.0235
45.6153
422.54
286.276
195.221
163.762
147.464
136.99
212.84
160.795
153.225
136.393
116.65
91.732
85.9937
83.862
53.7519
49.8687
47.3049
46.5214
46.3215
45.4042
237.382
227.498
197.735
183.877
159.442
232.213
351.403
265.806
240.248
208.753
197.194
165.505
136.678
139.758
92.5707
52.7115
47.4287
45.1888
44.2631
41.9521
260.391
212.321
197.334
189.663
167.125
246.785
327.207
266.65
301.502
284.385
233.682
184.231
136.413
155.051
99.2194
50.5303
45.6893
42.6219
40.5432
38.9467
214.656
184.952
179.476
163.379
138.593
198.012
277.648
262.438
260.077
222.401
210.695
172.262
147.363
148.354
87.326
51.8369
47.662
43.2346
39.5295
38.0598
268.762
190.211
157.454
142.127
118.922
158.468
219.81
240.998
244.942
202.381
184.403
160.997
155.078
150.282
99.4322
57.0072
48.5922
42.6139
39.3072
38.3684
336.887
253.631
179.397
132.472
113.334
104.809
150.921
117.454
106.596
108.78
108.457
107.116
103.828
101.994
61.6556
52.1837
44.4365
40.6237
39.2702
39.2982
254.128
273.326
239.561
179.248
131.007
107.847
88.0147
74.6137
69.4776
67.7558
66.8117
64.0466
60.7506
56.1624
50.3959
45.7033
43.0574
41.934
41.8005
42.3366
150.633
226.512
196.853
144.597
127.313
118.045
96.0688
81.5094
70.7042
64.6848
60.102
56.2031
52.8287
49.7476
47.5418
46.2869
46.0535
46.4601
47.5778
48.4304
145.955
227.697
163.796
123.47
121.794
114.602
96.2759
83.7902
71.7184
65.0687
59.2538
55.8352
52.8337
50.9819
50.1684
50.324
51.0153
51.7317
52.9052
53.4425
149.013
221.554
157.431
120.613
117.147
102.562
89.729
79.4553
70.4594
65.539
61.0962
58.9476
57.0657
56.5925
56.1291
56.035
56.1826
56.3714
56.963
57.6007
145.096
197.932
148.948
118.947
109.963
102.736
89.5084
81.5613
73.6326
70.744
68.4556
68.1587
67.4892
67.5244
67.4574
67.3787
67.2087
66.5824
65.8358
63.6374
147.782
122.045
91.1264
98.2032
101.862
97.2458
84.9654
80.0222
74.4067
72.2076
69.3567
68.2907
66.8989
66.0229
64.449
62.8424
61.1501
59.077
58.0424
56.1868
102.922
72.1556
58.3068
79.5696
93.481
94.5035
88.7573
78.2452
70.3049
65.1714
60.7687
57.3593
54.3632
51.146
48.3318
45.9826
45.0296
43.3316
42.1693
39.2011
29.541
54.6581
60.1587
62.0402
60.7428
58.4152
56.9634
56.5712
55.4894
51.2584
41.5549
34.1349
31.4753
30.3956
28.7688
26.5208
24.5422
22.5457
20.9875
19.152
181.433
116.982
80.4053
71.1682
60.317
55.4711
49.4239
47.0363
43.2532
41.2032
37.7201
35.1617
32.9928
31.3825
29.9386
28.1108
26.193
24.512
23.2087
22.5512
320.284
118.682
83.5742
73.4214
60.5774
53.9122
44.2079
39.0519
34.6938
32.5973
30.707
29.3312
27.7784
26.2331
24.5741
22.8964
21.5299
20.5446
20.0382
19.8088
230.218
115.109
82.2957
65.3372
53.2661
44.0004
40.1121
35.1779
32.6613
30.0964
28.077
26.2528
24.5283
22.866
21.4688
20.2971
19.5162
18.9609
18.6716
18.6276
249.586
159.47
127.826
94.3078
72.7243
59.9178
56.9589
46.9779
41.1696
33.3996
29.4526
26.6626
24.5991
22.7595
21.5407
20.5876
20.0748
19.7977
19.8129
19.8631
153.959
155.631
123.074
104.971
87.0887
85.9521
82.8562
83.0991
74.2275
49.0833
34.9913
28.2869
25.189
23.2773
22.2872
21.8253
21.8176
21.9372
22.3286
22.2996
267.38
134.761
101.564
89.4289
80.0012
80.3628
77.8138
80.5682
77.25
62.7368
44.2861
33.1621
27.7877
25.4103
24.5157
24.2769
24.4158
24.9945
25.7973
25.7155
230.856
151.026
111.108
92.4671
77.1902
69.9589
73.7801
69.5316
67.9547
62.7777
53.1309
38.4995
30.3987
27.3902
24.475
24.5976
24.5389
24.5861
24.9963
24.8483
189.377
185.794
162.798
117.847
88.0548
85.8819
83.6525
79.982
76.1679
63.5593
57.8076
49.9226
33.0169
27.2521
24.8569
24.0518
23.5442
22.9423
22.6068
21.5646
163.27
163.442
137.771
109.323
89.2858
89.2525
82.3321
64.378
64.2012
74.0981
68.1755
49.1275
31.8143
26.878
26.1238
25.6002
24.4996
23.3095
22.0894
20.642
326.824
172.887
141.941
115.555
90.4517
76.4262
63.2296
51.2155
49.6584
53.7557
54.3589
44.319
33.9279
31.15
29.027
25.8987
25.2473
23.8172
21.8955
20.6462
212.896
180.459
133.635
104.91
78.2065
65.9004
52.4429
45.0745
43.0295
42.5541
39.9085
36.24
32.1674
29.9047
27.2733
26.2907
25.6345
22.801
20.7137
20.2768
369.644
126.795
96.3632
72.0761
61.1178
50.9125
52.4735
48.0156
43.7009
38.6202
35.5597
34.1467
32.8093
31.3104
28.6823
27.6861
24.3133
21.2599
20.1262
20.1345
193.984
183.433
159.019
108.293
73.2973
55.9207
44.5812
39.5612
37.0188
35.1353
33.4637
32.2838
30.7798
28.9859
27.0054
24.6647
22.7212
21.6342
21.3154
21.6017
230.281
149.54
114.11
97.0386
77.1677
61.2803
46.8906
40.8321
36.1193
32.245
29.7827
28.0427
26.6578
25.2641
24.1453
23.3631
22.8544
22.836
23.0228
23.7291
162.529
143.34
86.4083
73.9906
65.6982
56.2704
46.0603
40.0755
34.7171
31.2221
28.6621
26.9494
25.7154
24.8401
24.415
24.263
24.3563
24.7026
25.0348
25.7232
183.407
130.183
77.6497
60.3423
56.1195
49.0252
42.7959
37.7894
33.7256
31.0684
28.9718
27.8179
27.0313
26.7792
26.7822
26.9481
27.3622
27.6617
28.1493
28.6012
184.126
138.377
85.7366
71.5327
63.9659
53.0926
45.4215
39.8393
35.7684
33.6665
32.3812
32.017
31.9681
32.1283
32.6555
33.437
34.3839
34.8169
34.9048
34.0406
160.148
117.963
86.8197
84.1605
70.1577
53.7163
44.1223
40.1891
37.4249
36.1193
35.1203
34.7546
34.6414
34.7156
34.9459
35.1579
35.1174
34.7075
34.3122
32.7545
22.984
21.3915
22.1091
40.3584
52.9516
53.8159
49.5725
43.5651
38.971
36.3509
33.7981
32.3063
31.1402
30.5891
30.1597
29.3324
28.8133
27.9323
27.2844
25.3805
56.0575
72.5018
72.7783
70.6972
65.7716
62.3774
60.921
59.4412
55.9575
48.3397
40.9727
36.5424
33.9168
31.3604
28.8863
26.4668
24.6958
22.9153
21.9854
20.6217
116.503
120.523
83.7351
64.8904
57.7105
53.0625
48.3108
45.5349
41.565
39.5931
36.4131
34.5653
32.0202
30.0164
28.0875
26.4543
25.1889
24.22
23.7072
23.4284
164.692
131.525
76.7977
57.8614
50.4076
43.3336
37.4666
34.2602
31.166
29.6641
27.7801
26.5524
24.9653
23.7167
22.5005
21.5799
20.9029
20.4543
20.1997
20.0928
300.608
141.979
71.4334
51.4712
44.8579
35.8706
34.3316
29.8782
28.3307
26.1505
24.5703
23.098
21.7878
20.7255
19.8901
19.302
18.9435
18.7605
18.7002
18.7786
236.323
114.247
87.6757
71.3441
57.971
45.751
43.4325
34.9407
31.1535
27.3083
24.874
23.0537
21.6724
20.6051
19.9246
19.492
19.2797
19.2338
19.2681
19.3877
285.296
151.63
102.521
85.1202
70.458
66.7092
60.8798
54.9598
45.0176
33.1386
26.9728
23.7653
22.1304
21.1305
20.7135
20.5765
20.6155
20.7265
20.8804
20.8592
385.652
115.416
85.9068
73.2555
66.105
66.1843
61.1066
58.6819
50.7128
39.8024
31.0572
26.0237
23.7767
22.7817
22.5415
22.5925
22.8797
23.1875
23.344
23.0451
190.197
135.963
95.3878
72.0789
60.9215
57.9293
56.8952
55.3904
49.8889
43.5591
35.5812
28.1166
24.4559
23.2446
23.506
23.4598
23.4918
23.4943
23.4328
22.7966
195.735
167.384
112.681
81.0087
63.0547
61.1802
60.6038
59.5298
52.4592
46.3639
39.6783
31.4328
25.533
23.5944
23.3116
23.9062
23.0743
22.4291
21.8027
20.9184
232.803
138.759
102.297
86.4924
65.6443
60.5304
55.9353
52.6619
53.6732
53.98
42.8276
32.098
26.462
24.9076
25.3269
25.6653
24.1613
22.7085
21.5396
20.7104
258.481
135.395
109.578
88.7843
63.776
53.3767
46.8305
42.7338
42.2827
43.1546
79.5636
55.3942
41.8645
35.4608
29.3162
25.7745
24.3378
22.7396
21.5802
20.8634
214.255
140.787
102.043
77.1581
56.8576
48.3828
42.6886
39.1875
36.3457
34.7133
33.7437
31.9357
29.4433
27.6215
25.4929
24.6664
22.9699
21.3862
20.5625
20.3594
216.22
118.402
81.6182
62.0362
53.1378
44.573
41.7535
39.7275
36.2707
33.9508
31.8395
30.8105
28.9428
27.0951
25.0352
23.1362
21.294
20.2538
19.927
20.0162
317.014
147.317
106.067
81.0062
60.07
48.154
38.6072
33.5683
31.6831
29.5899
28.4406
26.9777
25.4987
24.0013
22.6807
21.5663
20.831
20.5496
20.5554
20.8904
173.519
167.206
105.81
85.2915
69.1974
52.5631
39.4527
33.8356
29.9005
27.0242
25.2736
23.9139
22.9792
22.2492
21.7597
21.4707
21.399
21.547
21.799
22.3758
234.186
166.851
87.3668
64.6765
58.9156
46.6089
38.4337
32.9611
29.1963
26.7097
25.0069
23.925
23.1632
22.7904
22.6408
22.6898
22.898
23.235
23.5355
24.0382
365.05
169.033
76.5676
54.1101
49.1631
39.8677
36.2067
31.8385
29.3347
27.4816
26.2385
25.6248
25.2366
25.2191
25.2711
25.4617
25.8127
26.026
26.4084
26.5551
157.568
185.096
90.3394
61.688
53.0796
43.3667
38.4933
34.8242
32.3683
31.1884
30.3942
30.3374
30.3026
30.4795
30.8094
31.1475
31.431
31.4371
31.3419
30.6243
292.354
215.824
112.089
79.5962
57.0863
45.9002
39.6013
37.1286
35.2361
34.4991
33.756
33.8279
33.8034
33.9865
33.9865
33.8993
33.5847
33.0303
32.6356
31.6679
94.1516
49.008
43.8516
59.4628
62.2631
60.1175
52.9176
46.6487
41.6471
38.289
35.9025
34.4478
33.4986
32.7883
32.2576
31.4191
30.8641
29.8164
29.1119
27.1743
75.1742
84.5423
86.268
81.5569
69.0606
62.0854
59.4733
56.4091
50.6106
43.9259
39.2478
35.5393
32.2588
29.1619
26.7855
24.8996
23.5642
22.2802
21.7234
20.5704
209.906
128.261
95.1503
68.4963
62.8849
55.3241
52.6079
48.0625
45.117
42.9553
40.204
38.6076
36.289
34.8703
33.5795
32.8828
32.4449
32.2053
32.1038
31.9778
195.431
128.693
80.4937
57.5264
51.5575
42.079
39.9466
35.9537
34.9858
33.1879
32.232
30.7962
29.8872
29.0128
28.5337
28.1995
28.0437
27.9504
27.8845
27.9471
239.965
142.272
74.956
52.6276
44.5814
36.7746
35.7294
31.2039
31.0002
28.6678
28.1734
26.8483
26.4911
25.9945
25.8823
25.8085
25.8626
26.0172
26.1095
26.4374
155.684
120.461
79.8839
61.5209
52.95
40.5703
39.6445
33.0504
32.0259
29.0465
28.2299
26.8218
26.4362
25.9131
25.8104
25.7618
25.7984
25.9397
26.0448
26.3812
223.408
167.43
100.115
70.2766
62.2664
51.3089
48.1938
40.0372
35.9931
30.7826
28.6896
27.0811
26.6647
26.3178
26.3772
26.439
26.5461
26.6824
26.7813
27.0295
313.919
144.981
83.1661
65.5617
62.9658
55.3432
50.4517
44.3665
39.4984
33.5913
30.7709
28.5184
28.2699
27.9925
28.037
28.1851
28.3376
28.3274
28.1894
28.0832
156.339
131.533
94.3038
65.7647
59.2365
52.8888
50.6554
46.6222
41.1129
36.0449
32.3833
29.8082
29.0612
29.0357
31.3758
29.9631
29.4541
29.0166
28.4941
28.1886
265.962
143.25
96.6309
68.1396
57.6489
54.5703
53.3252
49.7249
43.2396
39.0807
34.5943
32.0511
31.1645
31.221
32.5676
31.8703
29.5762
28.4622
27.7684
27.6367
456.234
180.689
100.941
73.4659
57.8021
52.7746
50.0244
49.3256
47.2798
42.5981
36.4209
33.2108
33.4075
33.8247
34.6003
32.6813
29.9086
28.5865
27.9296
27.8761
217.126
128.053
93.8565
69.3962
54.5051
47.2528
44.284
43.2263
42.5306
41.0873
61.2277
50.897
41.9307
38.516
35.9384
32.6855
30.0158
28.7717
28.1688
27.9367
406.852
216.777
92.584
65.2244
54.148
46.4517
43.7556
41.3595
39.3999
37.7019
36.8844
35.9236
35.3698
34.4985
33.5275
31.0409
28.7154
27.8223
27.4435
27.3713
243.947
134.697
81.318
61.4835
56.1795
46.1592
43.3267
40.5139
38.1395
37.9192
36.5647
35.7504
33.5589
31.9316
30.0022
27.8929
27.0423
26.8528
26.7953
26.8855
235.17
175.736
99.9967
70.3528
60.1928
46.9554
40.6701
34.4146
33.8297
31.0023
30.8678
29.1256
28.4839
27.4333
26.9777
26.6467
26.5578
26.6768
26.8432
27.2477
282.728
206.123
117.049
77.6549
65.7393
48.3114
40.3681
34.4835
32.0997
29.2115
28.3874
27.1868
27.0135
26.7626
26.7571
26.7949
27.0084
27.3501
27.6111
28.1369
257.677
157.023
92.3248
64.5953
58.9719
44.4141
40.0129
33.8014
32.2297
29.5718
28.9797
28.0869
27.9809
27.8865
27.9821
28.1514
28.4589
28.767
29.0667
29.4628
160.015
168.705
92.3318
58.7614
50.6341
40.3142
38.6043
33.8183
33.0884
31.2629
31.0605
30.6009
30.6403
30.6419
30.7727
30.9495
31.2518
31.3963
31.677
31.7167
241.72
243.246
111.219
64.4227
54.613
43.9019
42.0305
38.0274
37.619
36.4856
36.4231
36.2526
36.2844
36.3246
36.4096
36.4232
36.4449
36.2714
36.2067
35.7584
219.257
225.74
116.45
72.2248
57.5049
47.5526
45.2923
42.1635
41.5687
40.864
40.7149
40.9254
40.9385
41.0303
40.8688
40.6327
40.3795
40.0842
39.822
39.4299
102.942
81.6439
71.6465
69.5297
64.9948
58.6524
51.7696
45.6885
41.1349
38.0249
36.1884
34.9508
34.12
33.2288
32.4849
31.3623
30.4515
29.0574
28.3056
26.4295
115.926
115.976
112.825
93.8883
69.1871
58.9513
53.8624
47.2816
41.9273
37.3093
33.4283
29.5819
26.8751
24.8827
23.2815
21.9007
20.786
19.9734
19.4255
19.1721
165.869
148.611
119.294
80.5291
78.6542
56.3283
61.9014
48.3375
51.7691
45.2346
47.7152
44.825
46.118
44.6586
45.2204
44.6738
44.9724
44.6171
44.5405
44.4037
287.194
130.868
89.6706
73.6004
61.4012
49.5158
48.603
41.4615
42.8283
39.1087
40.8046
38.6382
39.7096
38.5867
39.1569
38.6659
38.9167
38.7023
38.7582
38.893
267.576
141.368
84.9535
71.5096
52.9593
50.8274
43.2157
39.4428
38.6951
35.6003
36.7989
35.1072
36.1978
35.5094
36.214
36.053
36.5204
36.6271
36.864
37.28
206.756
117.961
83.4703
75.1779
57.8053
50.4631
45.9689
39.4753
39.8105
35.9111
37.185
35.3828
36.3078
35.5499
36.156
35.9774
36.3566
36.4506
36.6757
37.0756
180.261
167.287
117.229
69.8596
66.9831
49.2151
49.0883
39.7539
39.3447
35.7276
36.7759
35.4121
36.1216
35.8047
36.3608
36.4154
36.8245
36.9932
37.2037
37.5473
337.205
180.737
92.0624
74.7184
69.5016
53.6498
51.4368
43.8484
40.8934
37.6749
38.2936
37.0744
38.1714
37.7109
38.0773
38.0992
38.3911
38.286
38.2738
38.2662
209.485
145.924
106.535
69.7824
70.0825
54.5709
51.3883
46.3771
42.6612
40.2812
40.6882
40.6799
41.8819
42.0369
41.9509
40.0212
39.4926
39.0036
38.5864
38.4233
281.227
155.699
100.23
71.7293
63.7137
56.4985
55.3696
49.4646
46.2347
45.3104
45.8564
47.1948
48.2404
48.6715
47.9435
41.861
39.6351
38.6038
38.1952
38.1153
294.062
207.203
114.768
72.677
63.7956
53.8716
53.6685
53.578
51.5034
49.8089
49.7305
51.6488
53.181
52.8078
50.0308
42.0593
39.6013
38.711
38.402
38.4009
353.387
160.388
97.5389
71.5276
61.1135
51.9491
50.4215
51.9321
52.3228
51.2617
53.0847
53.4256
55.2743
54.3863
50.515
42.2752
39.7158
38.8619
38.4908
38.3615
394.722
172.703
100.708
71.102
64.7733
53.0743
53.6267
52.0427
52.4041
52.4997
52.7719
53.0927
53.3758
52.721
49.5013
41.1479
38.9152
38.1117
37.8419
37.8917
236.334
150.495
94.3788
71.0785
70.5486
57.4546
52.7799
47.5451
47.966
47.7535
48.2984
47.3802
46.7863
45.6307
40.5222
38.205
37.4447
37.3215
37.1539
37.398
233.334
205.347
123.453
72.8132
75.0393
52.5794
51.8303
42.0635
42.3697
37.6958
39.6172
37.1255
38.1927
37.0373
37.0867
36.6061
36.7774
36.8607
37.022
37.5255
206.307
199.857
150.855
81.1257
75.2162
52.8768
51.4022
41.3049
40.862
36.8854
37.5854
36.0432
36.7593
36.237
36.5773
36.5611
36.9366
37.2308
37.4484
38.0286
160.81
153.41
104.755
73.5545
68.0589
51.0136
51.4315
41.0305
42.588
37.655
39.1347
37.0188
38.0361
37.2342
37.8431
37.6233
38.052
38.1544
38.3996
38.8067
259.64
184.01
102.776
73.2689
61.6533
51.4779
50.1655
41.9151
43.6622
39.4347
41.1362
39.2656
40.3695
39.6205
40.2523
40.064
40.4512
40.4256
40.5918
40.585
425.273
245.594
113.667
82.7672
67.4417
53.4703
55.176
45.7
49.4863
44.7188
47.0958
44.813
46.0188
44.9531
45.4687
44.9033
45.0944
44.6642
44.7126
44.1716
220.118
171.651
117.475
73.6822
74.0601
54.3728
59.7593
49.0242
54.5213
49.4304
53.0928
50.8386
52.5652
51.4135
52.0016
51.3561
51.485
50.9463
50.8382
50.3888
81.4738
90.8084
78.9188
67.856
60.1955
52.0372
45.8234
40.9359
37.8976
35.805
34.5462
33.4478
32.5292
31.2347
29.9803
28.384
27.0393
25.4699
24.539
22.9673
46.3855
47.3449
97.3123
43.7863
37.9798
43.2169
111.796
34.2636
94.5693
60.2181
36.2005
32.283
110.175
68.5119
81.5296
36.2804
38.4982
40.8751
88.7681
36.6077
38.7269
61.5302
38.8114
37.7396
87.3798
67.9422
39.0243
38.0798
271.13
329.518
264.617
98.4234
88.1502
94.447
78.4441
251.116
265.158
285.353
87.6637
87.7996
75.1928
74.2536
211.227
287.531
273.938
86.05
74.0453
75.5731
81.438
201.92
265.389
235.932
70.5358
65.57
82.4554
80.783
179.087
230.105
200.929
64.5142
61.9624
75.3743
61.4941
137.387
181.754
134.309
59.3079
43.1238
58.9429
41.8183
139.227
133.952
148.501
38.6821
32.0354
36.891
30.3719
127.063
151.102
144.48
31.1166
28.4663
29.7103
27.9394
264.023
316.829
265.132
98.5154
75.425
94.5848
66.5353
294.071
267.231
269.379
70.4208
67.6047
61.4273
56.6221
297.493
266.175
250.325
68.552
76.1098
56.7392
60.0746
238.797
241.182
224.167
79.2572
81.0365
62.6799
66.9207
204.948
222.75
202.371
76.9062
61.1434
65.6315
56.6108
136.294
177.45
144.359
57.8826
40.8854
52.6362
38.9019
152.514
146.072
153.413
36.3103
30.5078
36.0616
32.8727
146.363
152.966
131.687
29.9333
28.1769
32.6028
30.9709
254.714
245.027
243.437
75.0192
59.6725
63.8501
52.8482
265.076
257.758
261.169
56.923
54.4021
51.4315
50.5369
230.81
253.269
216.089
54.4457
56.2524
50.2644
49.4513
211.568
205.666
191.953
57.5984
60.3197
49.4265
48.2766
194.945
189.901
169.875
59.5619
53.9317
47.3076
44.3641
145.945
161.563
154.388
50.7474
39.0496
42.9141
37.6603
150.125
153.614
149.555
36.7651
33.7686
36.399
33.8823
126.542
147.281
132.219
33.417
31.3763
33.3811
30.6228
220.673
269.914
179.505
61.1331
50.9295
70.126
54.9813
251.727
173.942
170.643
49.4842
48.4538
51.4689
47.2622
212.025
171.459
174.235
48.1005
47.1209
46.2046
41.8113
187.715
172.547
164.471
47.1425
45.6485
41.2551
39.1429
166.673
161.267
155.252
44.5331
41.68
38.5595
36.5285
155.688
154.598
154.621
40.6936
36.8139
36.2085
34.4919
151.781
154.133
154.73
35.7167
33.459
34.0789
32.795
135.742
155.637
148.73
32.9614
30.4543
32.5805
31.5901
79.9334
80.2168
70.7577
64.4304
63.1292
61.6101
57.8875
79.1621
68.7966
69.1102
63.197
59.0695
57.7417
58.784
66.2723
70.6599
75.4091
56.7061
51.5505
59.2564
59.6959
59.047
76.2724
72.7086
49.8808
45.2139
59.2392
50.94
53.779
66.7854
53.5052
43.3433
36.8078
46.9773
37.2455
36.3304
50.2035
35.7032
33.9259
27.4681
34.4966
27.7672
27.9686
32.1139
27.1587
26.0744
23.8412
26.3784
24.2646
25.804
26.5875
25.7449
23.4915
22.7912
23.9617
23.5198
67.7683
78.432
58.7859
59.9096
55.2088
54.6836
47.4237
63.0343
55.0844
51.9724
54.5746
55.2165
46.2569
45.6461
71.5075
52.223
56.3969
56.0839
58.7427
46.0161
48.5153
73.7018
58.9407
61.6498
58.8146
51.807
49.6646
62.6253
52.905
59.3261
48.9916
47.4903
37.0272
60.8318
46.6544
35.1079
45.314
34.8363
34.2962
27.926
41.854
34.499
27.363
32.815
30.4076
26.6399
24.7658
33.4875
31.8104
26.0853
30.1346
29.3409
24.5217
24.0251
31.2466
29.6171
53.2543
54.5291
47.5507
49.1756
44.562
44.7126
41.0864
49.4883
46.4152
45.0937
43.7412
43.1197
40.327
38.4243
52.389
44.8264
44.7465
43.3188
44.9133
38.0534
37.6409
55.6832
44.8561
43.6476
45.3719
58.7893
37.4373
38.2107
47.3118
42.7057
39.7338
57.8576
48.6572
38.2131
36.8408
35.6018
38.427
34.2227
45.4671
39.1631
35.8491
32.5754
31.5362
33.1614
31.0152
37.8796
34.7783
31.6306
29.5121
29.8499
30.5605
28.7357
33.7471
30.76
28.9381
26.8308
46.2191
56.4494
49.316
43.8053
40.4806
46.0635
41.7524
43.4938
46.791
43.3282
39.7324
37.5521
40.3558
37.7526
42.5162
42.2648
38.479
36.9449
35.9913
36.8162
33.954
40.9511
37.8578
35.7452
35.6556
34.5339
33.453
31.6477
37.2011
35.0956
33.2808
34.116
32.6281
31.1274
29.8138
33.049
32.9908
31.6627
31.9541
29.8815
29.6263
28.6531
30.3252
31.2963
30.1285
29.2826
27.8706
28.3388
27.1818
28.3749
29.8696
29.1482
27.4563
26.0221
26.8683
25.7259
59.7321
58.1877
55.3797
54.4543
52.6514
52.5018
51.0685
54.512
55.3578
55.8507
51.3935
45.86
50.9507
49.3748
47.9668
55.8657
55.0405
44.4689
41.1541
48.5618
45.1948
41.5554
54.0278
45.7235
39.7298
35.6461
43.5204
37.6204
33.6866
42.4084
34.2436
34.3456
31.2206
35.8756
32.0489
26.5631
32.0527
27.0905
30.3469
28.7171
31.232
29.9935
23.8623
26.0987
24.5495
28.4345
28.0825
29.8573
29.6384
22.9405
24.3052
23.8489
28.0046
27.559
29.5367
29.1001
52.9714
50.7633
45.738
50.6102
49.6146
45.8796
44.1973
53.1987
44.976
44.5894
49.5617
48.7038
44.0489
43.6485
54.4648
44.8353
46.3524
48.1396
45.3237
43.4224
42.0695
47.704
52.606
52.6812
49.6311
51.9891
47.8247
48.7719
37.8917
39.5768
43.4706
39.3765
40.2092
36.7772
40.5036
27.3753
48.2816
37.027
31.437
30.2662
54.3878
40.6963
25.1045
35.7565
33.4233
30.1964
30.145
39.2093
36.3696
24.3744
32.6104
30.2297
30.0759
29.551
35.5143
33.1361
43.3536
43.3492
40.3817
44.1774
42.6821
42.8794
40.9504
42.1859
39.6715
37.7251
42.4654
41.9437
40.3936
38.7763
43.1437
37.3105
36.547
41.7261
40.5164
38.3818
37.0069
77.3006
67.4929
41.6414
48.4107
53.69
251.584
41.6517
103.756
75.4239
69.4178
194.19
67.6454
178.018
108.163
44.0356
36.6644
33.1046
60.4547
45.0209
37.2368
34.994
36.956
32.1083
29.842
42.5506
37.9276
34.4561
33.0035
31.4154
29.2021
26.9647
36.7218
33.58
32.4987
30.7195
39.8959
44.3774
40.9288
42.7711
40.767
44.3027
41.3043
36.9666
39.6024
37.0493
40.1405
38.2416
39.9904
37.6502
35.1583
36.135
33.6173
37.7546
36.4104
37.0443
35.7751
33.9807
33.1679
31.5295
35.8775
35.3228
35.5515
34.4242
32.5543
31.0305
29.8627
35.2111
34.4039
34.0225
33.2529
30.0013
29.6878
28.7061
33.9934
32.9396
33.0755
31.9302
28.0559
28.3591
27.1755
32.6633
31.7413
31.5158
30.3383
26.1426
26.8369
25.6062
31.3676
30.0528
29.943
28.4893
51.3142
51.7527
50.5578
53.6884
50.0755
52.8718
52.0066
44.3917
50.3328
48.272
48.2424
44.508
51.4665
49.0942
40.3619
47.3556
43.8439
44.1059
42.9265
48.4111
46.353
35.5643
42.2903
37.4651
42.2745
41.5274
45.6628
44.4627
32.5571
36.144
33.551
41.7701
42.6988
44.4471
45.3029
31.2384
33.1479
33.0013
42.8149
43.4837
45.7947
47.2916
31.2393
33.1291
33.3413
43.8028
44.387
47.6084
47.7937
30.6718
33.295
32.6562
44.3485
43.8651
47.6561
46.9077
49.4128
45.5796
44.633
51.6147
51.7149
48.2086
49.0518
48.0136
44.5952
44.1867
51.4452
49.6647
49.2575
49.2574
44.0981
43.8621
41.9325
49.0546
46.8618
48.956
47.2815
37.7687
42.0873
66.5743
46.1081
44.6052
46.6406
48.5049
33.6812
66.27
53.5876
44.4911
45.0658
48.7872
48.3244
33.1706
48.0063
40.7271
45.6318
47.6443
48.0318
49.445
33.8456
39.972
38.3904
48.1217
48.4024
50.067
50.2973
33.1101
37.8144
35.7412
48.2358
47.3057
49.9353
48.4059
43.3353
43.6685
42.0248
47.7034
48.4428
49.0134
48.4877
42.8049
41.5525
40.2395
48.6592
48.9334
48.3687
48.395
40.8612
39.925
38.5565
48.7472
47.2965
48.4932
47.7281
61.4244
38.0803
39.1574
46.9108
49.3187
47.3541
47.3369
54.26
39.3195
38.538
49.5904
48.9438
47.4528
47.6043
43.2519
37.9409
36.839
48.65
49.9087
47.7703
48.8523
39.296
36.6517
35.876
50.45
50.4916
49.147
49.0508
36.017
35.4929
33.7714
50.0883
48.4805
48.7557
47.5452
41.9345
45.3562
42.3168
49.9318
48.6289
51.5178
47.9377
39.7688
40.939
38.7956
48.3156
48.1047
46.5003
45.4753
38.2203
38.357
37.6723
48.267
48.0231
45.925
46.8695
37.0165
37.5419
36.5954
47.7205
47.4489
46.801
46.5598
36.2111
36.2553
35.6911
47.4989
47.7131
46.6542
46.7603
35.4664
35.521
34.3707
47.8398
48.4585
46.5522
45.7567
34.8127
33.964
32.9347
48.5966
48.3846
45.5831
45.181
33.1098
32.5479
30.9214
48.1086
47.0451
44.8277
43.564
51.2019
54.8113
53.9754
66.6209
60.3296
65.6606
64.9893
46.4571
53.3672
51.2001
58.1139
56.7274
63.8132
61.9215
45.7
50.7136
49.5575
56.7059
57.3392
61.8124
64.2096
45.3721
49.2675
49.2591
57.0277
58.7434
65.2053
67.5124
47.059
49.5752
50.8658
59.4258
60.9665
68.1726
69.0837
47.9187
51.2478
52.3053
60.939
62.1819
68.9894
68.0826
48.7336
52.4976
52.4119
62.4466
62.6212
67.8845
67.1874
47.8304
52.243
51.0563
62.4863
60.453
67.0835
65.033
53.9279
50.6673
52.0325
65.2433
65.6802
63.6147
66.2198
51.9439
52.2482
52.4084
64.7711
63.0512
65.8416
65.8259
50.184
52.2505
51.2716
63.2177
66.748
66.9922
72.7079
49.4946
50.8305
51.7561
68.0299
70.516
74.2594
77.5247
51.0735
52.1424
52.7221
71.2022
71.8262
78.3264
78.4779
52.8982
53.0015
54.6269
71.5053
69.5996
77.1549
73.1002
53.0312
55.0343
54.6879
69.1044
67.8972
71.9959
69.6315
51.4134
54.2727
52.2814
67.7095
65.0914
69.198
66.1863
51.6849
52.2987
52.1412
64.9168
66.7887
68.4217
68.5857
52.3954
52.0771
52.379
66.3678
66.4759
67.7325
67.3072
51.5322
52.5752
52.3868
67.6888
73.4895
67.6425
71.3389
52.7426
52.1719
52.4289
75.1217
78.3132
72.4037
74.1341
53.2478
52.6313
53.1274
78.8804
78.5776
74.2882
73.9797
54.9092
53.3265
53.8269
77.193
73.2018
73.1786
70.726
54.8222
53.9885
53.5986
72.1129
69.7531
70.1007
68.9428
52.3457
53.2948
51.7069
69.3069
66.0777
68.6928
66.3979
52.3211
55.4744
51.1263
72.2585
68.7649
70.7673
64.2775
52.1336
49.6806
48.9762
67.7165
67.2225
62.457
63.8335
52.6273
49.7005
50.7433
67.2644
69.6178
63.8808
63.3947
52.635
50.575
50.4737
70.3726
71.7236
63.1101
64.3722
53.0937
50.6729
50.8332
71.8954
71.673
64.5915
64.405
53.3245
50.5536
49.9504
71.1175
69.5126
64.0912
64.7004
52.9963
49.8559
49.5746
69.2003
68.4651
64.6425
64.5719
51.2877
49.2265
47.736
68.3078
66.1234
64.307
62.3619
45.8451
49.9154
46.8885
42.248
50.0312
45.224
43.2585
51.7374
49.9608
71.2772
49.8536
51.9662
46.9135
196.267
54.4369
51.9205
92.3381
231.396
53.0946
53.2886
249.841
44.314
46.1532
41.9342
43.4129
44.2233
45.5572
42.0404
42.7174
39.4522
39.943
39.0727
41.8934
40.641
40.6911
49.1334
49.1777
42.5881
73.9841
44.4019
197.373
44.2897
52.3812
225.29
46.682
105.085
51.5804
245.028
46.8712
35.6337
36.7421
34.7799
32.5825
37.326
34.5239
33.5505
47.0382
48.8295
89.4554
216.765
45.4261
50.5993
202.375
44.1489
38.1989
76.535
85.1095
41.8202
39.2995
137.667
36.4867
37.169
34.6553
37.446
35.1367
38.4913
35.9603
34.7863
31.9325
33.3625
33.4583
33.4016
33.1458
34.6859
46.7433
211.142
45.5508
106.093
49.5269
198.001
43.9146
44.406
89.4662
38.9253
90.687
39.7595
138.418
41.9655
103.855
81.1264
69.8429
211.621
66.3353
230.695
109.103
42.8894
38.56
36.5898
35.7634
41.2381
37.9816
36.3016
50.7513
49.1802
37.5723
39.0784
46.2889
54.9983
37.8028
74.5237
48.3751
68.8641
40.2845
240.641
41.1808
53.1262
98.3795
205.311
86.2466
69.8824
227.656
101.675
66.0562
42.6428
35.8595
38.1266
36.9135
37.8257
36.3838
40.9982
49.9126
38.9926
48.3293
37.8697
53.6259
37.8165
45.7481
97.7708
72.7207
60.4321
98.5874
65.5168
159.548
84.5033
56.0884
50.062
38.7494
39.5712
49.992
56.2572
39.5485
55.0868
48.6293
38.4048
38.4536
49.5186
53.1329
39.2156
96.3209
187.852
84.5441
69.834
173.235
100.434
68.7476
91.1126
98.3408
80.2339
62.3423
149.511
80.7991
66.938
54.3339
39.4309
49.0256
38.9714
54.5831
39.3936
48.8633
53.3069
38.335
46.8478
38.6849
51.2507
39.0701
48.2086
178.381
208.171
183.709
118.749
96.1373
117.87
100.932
158.123
167.685
153.263
83.0825
80.7477
93.3842
86.0026
147.038
141.923
134.816
79.5662
78.9099
78.6629
73.9265
131.502
128.525
124.098
77.4221
75.3795
71.5043
70.4667
100.762
116.431
105.025
69.5309
62.4895
68.6638
66.3279
89.2087
92.9967
87.1942
53.4279
47.3558
59.8929
49.5092
84.0613
85.194
85.031
42.9557
39.3713
42.4682
37.5951
78.902
84.9214
81.3683
38.4103
33.4484
36.0849
29.7951
211.68
234.214
208.863
134.72
111.412
134.649
109.724
165.227
309.479
342.453
190.796
162.967
190.578
306.77
123.48
261.385
267.719
125.199
122.484
127.177
264.285
122.286
227.793
252.252
124.119
122.747
122.15
241.904
104.378
205.964
225.197
104.232
101.983
109.866
223.413
99.9212
194.088
207.17
100.37
99.4778
100.571
201.892
89.0044
152.82
168.559
92.4147
88.3971
93.7856
150.788
59.8231
136.831
130.029
71.4652
67.1234
65.3818
131.576
53.049
140.574
140.876
60.6256
60.0656
53.7533
142.015
85.9672
98.4406
87.6925
33.4957
29.7472
32.7798
28.893
210.628
240.623
205.143
144.125
115.118
144.791
115.216
155.202
286.699
324.805
187.732
155.936
187.159
283.703
101.057
273.002
267.685
107.259
103.283
105.573
274.316
103.165
303.306
298.052
106.04
107.211
101.894
301.675
109.613
264.974
287.644
112.684
113.705
108.44
264.953
105.208
228.627
233.596
109.382
106.444
107.415
229.001
88.14
161.029
183.826
94.9601
90.0392
94.1268
160.164
57.3307
140.477
140.084
63.3983
57.64
62.087
145.437
54.4638
155.561
156.651
53.9059
53.7626
54.5928
156.561
87.2826
93.8937
78.7514
33.6141
30.0076
34.3064
29.8594
176.244
179.513
160.596
117.461
89.8348
111.026
80.1567
118.861
253.567
268.905
153.232
124.414
148.957
245.63
93.0889
266.53
260.014
95.6374
93.7562
94.2495
264.515
89.7529
251.117
256.216
91.4832
89.9449
91.5739
245.92
80.998
216.619
214.705
84.4606
84.52
81.8593
208.941
82.9677
209.173
202.409
87.8002
88.9469
82.3145
200.706
77.7957
154.095
167.61
88.7285
81.5944
82.7601
153.692
59.1074
149.901
149.085
61.2623
58.5322
61.4423
149.751
55.2505
145.147
145.412
56.2053
55.2852
56.2837
142.005
73.6233
91.0659
82.4968
34.199
27.9667
33.8919
28.8993
142.746
165.854
156.194
99.4143
74.9563
97.0434
82.4484
108.287
203.862
221.527
124.376
100.818
129.486
195.424
79.3828
251.81
202.294
83.1522
83.7631
79.3575
215.94
76.9339
233.982
222.544
85.6143
83.4032
79.2567
216.382
71.6912
195.354
193.88
76.2485
75.131
72.441
188.514
68.3861
179.668
175.487
72.3237
71.1708
69.3251
171.178
66.6413
158.041
159.175
68.9959
67.5418
67.3036
157.252
59.5293
154.25
155.075
61.4769
59.7678
61.0261
154.224
55.725
149.012
152.381
56.487
55.3886
56.4026
152.382
89.9142
104.967
93.5497
34.7416
30.0359
35.8817
31.8248
131.984
154.507
131.03
85.7552
70.8379
86.2613
68.2886
108.055
121.042
113.88
62.8355
59.3763
62.4715
58.875
108.147
104.15
100.226
56.9372
52.7261
55.8111
51.3303
108.72
101.792
105.521
50.274
48.4225
50.7116
49.8492
107.748
106.599
106.693
46.4701
45.3158
47.6103
45.8374
105.93