/*--------------------------------*- C++ -*----------------------------------*\
  =========                 |
  \\      /  F ield         | OpenFOAM: The Open Source CFD Toolbox
   \\    /   O peration     | Website:  https://openfoam.org
    \\  /    A nd           | Version:  10
     \\/     M anipulation  |
\*---------------------------------------------------------------------------*/
FoamFile
{
    format      ascii;
    class       volScalarField;
    location    "6.2";
    object      omega;
}
// * * * * * * * * * * * * * * * * * * * * * * * * * * * * * * * * * * * * * //

dimensions      [0 0 -1 0 0 0 0];

internalField   nonuniform List<scalar> 
12920
(
186.763
138.036
116.962
115.302
111.756
105.147
99.1183
96.6146
95.6475
94.1329
89.2447
71.7064
56.73
51.8621
49.7714
46.6109
42.7443
38.5645
34.7377
30.736
362.103
185.404
166.485
140.109
117.958
109.278
96.2929
90.1863
81.7361
76.7137
70.5259
64.3655
57.922
52.4545
47.313
42.8616
40.3918
39.6325
39.71
41.2028
355.936
208.229
186.062
148.086
121.567
106.292
86.0711
77.0311
68.2863
64.1673
59.1006
54.913
50.0148
45.7269
42.543
40.9455
40.2539
39.9469
39.9414
39.9322
319.609
195.73
181.672
131.157
110.859
90.4615
80.0305
71.7824
65.3595
61.4707
56.4596
52.2092
47.6288
44.3001
41.7956
40.2916
39.197
38.4281
37.9417
37.6586
488.078
313.297
243.964
169.44
140.966
115.529
97.9885
78.0226
67.6191
60.5265
55.6793
51.9815
48.1956
45.3146
43.0009
41.5567
40.4909
39.642
39.1934
38.8476
222.835
203.754
182.866
169.684
152.986
144.773
131.636
115.373
96.1139
72.7816
59.4389
53.0261
49.4861
46.8627
45.2581
44.4606
44.1513
43.4746
42.8996
41.3369
413.223
214.538
180.75
155.922
139.302
135.054
124.842
117.478
104.742
85.1776
67.7263
57.1021
52.6473
50.5671
48.7871
47.9894
47.7213
47.3332
47.0024
45.6072
442.813
284.808
195.563
164.063
147.248
136.829
212.553
160.655
152.816
136.191
116.749
91.665
85.8846
83.7548
53.7258
49.852
47.2871
46.4986
46.3
45.3943
239.252
229.343
197.596
183.485
159.316
231.807
350.093
265.062
240.449
208.224
196.652
165.56
136.332
139.445
92.4758
52.7115
47.422
45.1701
44.246
41.9487
262.092
213.587
196.522
188.964
166.966
246.826
327.481
266.444
301.359
285.626
233.917
185.082
136.196
154.847
99.1918
50.5403
45.6898
42.6195
40.5391
38.9429
226.663
184.404
178.335
162.78
138.284
197.85
276.828
261.969
260.31
222.932
210.688
173.085
147.024
148.288
87.3194
51.8137
47.6589
43.2452
39.5391
38.0585
273.795
192.783
157.324
141.763
118.846
158.854
219.939
239.785
245.268
202.763
184.493
161.034
154.943
150.193
99.3534
57.0142
48.6168
42.6307
39.3114
38.3621
330.11
253.634
179.917
132.772
113.338
104.81
151.012
117.507
106.455
108.668
108.366
107.016
103.765
101.919
61.6603
52.2187
44.4621
40.6279
39.2624
39.2852
248.744
272.338
239.139
179.475
131.357
108.068
88.1343
74.6754
69.4395
67.6928
66.7598
64.0157
60.7356
56.1655
50.4133
45.7136
43.0549
41.9231
41.7848
42.3174
140.03
224
197.125
144.9
127.232
118.002
96.1626
81.5874
70.7125
64.6753
60.0897
56.1913
52.8219
49.7418
47.5329
46.2718
46.0317
46.4326
47.5466
48.4058
138.781
227.318
164.907
123.481
121.604
114.513
96.3091
83.8314
71.7378
65.0796
59.2536
55.8298
52.8248
50.9674
50.1448
50.2953
50.9825
51.699
52.8728
53.4172
156.171
222.199
157.688
120.588
117.066
102.536
89.7327
79.4609
70.4679
65.5423
61.0891
58.9361
57.0459
56.5677
56.1027
56.0088
56.1552
56.3443
56.9329
57.5765
145.68
198.779
149.691
119.018
109.829
102.641
89.485
81.5653
73.6268
70.7247
68.4207
68.1203
67.4479
67.4807
67.4131
67.3379
67.1707
66.551
65.8126
63.6317
150.31
123.591
91.6619
97.8662
101.559
97.1678
84.9471
79.9893
74.3749
72.1765
69.3306
68.2641
66.8763
66.0122
64.4478
62.8418
61.1545
59.0773
58.0367
56.174
107.336
74.2294
58.5957
78.6698
92.9944
94.1999
88.7047
78.2341
70.275
65.14
60.7408
57.3371
54.3516
51.1457
48.3295
45.9659
45.0079
43.3169
42.1614
39.2016
29.586
54.4699
59.9512
61.852
60.5687
58.2797
56.8025
56.4185
55.3721
51.3137
41.6948
34.205
31.4704
30.3814
28.7672
26.5277
24.5508
22.5551
20.9983
19.155
198.196
116.692
80.2501
71.1001
60.2236
55.3961
49.3739
47.0029
43.221
41.1995
37.7379
35.1771
32.9978
31.3877
29.9484
28.1262
26.21
24.5255
23.219
22.5505
312.158
118.138
83.3001
73.1635
60.3802
53.7728
44.1285
39.0049
34.6638
32.5746
30.6906
29.3245
27.7783
26.2379
24.5818
22.9056
21.5375
20.548
20.0394
19.8076
228.542
114.649
82.3384
65.3934
53.2282
43.966
40.098
35.1474
32.6495
30.0754
28.0622
26.2413
24.5223
22.8635
21.469
20.2976
19.5163
18.96
18.6708
18.6248
242.07
157.773
127.271
94.2871
72.7028
59.9775
57.0188
47.0341
41.2946
33.423
29.4605
26.659
24.5967
22.7575
21.5387
20.5853
20.0713
19.7928
19.8084
19.8574
154.01
155.04
122.442
104.649
86.9107
85.7771
82.6048
82.9541
74.3302
49.3099
35.0816
28.3061
25.1929
23.2756
22.2828
21.8187
21.8098
21.9283
22.3208
22.2923
262.867
133.986
101.12
89.2356
79.8058
80.0815
77.5211
80.3174
77.1197
62.9078
44.4132
33.2153
27.8006
25.4093
24.5077
24.2644
24.4012
24.9757
25.7814
25.7035
232.16
149.963
110.99
92.3941
77.1821
69.9027
73.6993
69.4228
67.7623
62.758
53.1918
38.5608
30.4152
27.3835
24.4637
24.585
24.5266
24.5725
24.9821
24.8385
189.145
183.832
161.846
117.825
88.2622
85.9734
83.5166
79.7439
76.2216
63.5711
57.7381
50.0126
33.0781
27.2493
24.845
24.0463
23.5421
22.9383
22.6033
21.5637
162.131
163.304
138.269
109.587
89.3873
89.2403
82.3391
64.275
63.8834
73.7683
68.4097
49.2558
31.8902
26.8701
26.107
25.5955
24.499
23.3098
22.0932
20.6436
330.385
171.576
141.561
115.351
90.4931
76.4821
63.1908
51.1333
49.5171
53.5533
54.4313
44.4294
33.9526
31.134
29.0198
25.8943
25.2432
23.8205
21.903
20.6474
208.012
179.376
132.904
104.766
78.2651
66.0819
52.5285
45.0149
42.9571
42.4727
39.9199
36.2721
32.181
29.9011
27.2669
26.2815
25.6326
22.8161
20.7195
20.2741
394.638
126.544
96.565
72.0828
61.1048
50.9092
52.4506
47.9655
43.6725
38.5957
35.5462
34.1233
32.7888
31.3011
28.674
27.6866
24.3331
21.2688
20.1267
20.1292
201.718
181.322
158.035
108.617
73.5874
56.0806
44.6182
39.5448
36.9914
35.1166
33.4467
32.271
30.7704
28.9842
27.0076
24.6717
22.7253
21.6322
21.3102
21.5928
232.683
149.614
113.631
96.7237
77.1121
61.3059
46.9057
40.84
36.1165
32.2397
29.7768
28.0348
26.6529
25.2606
24.1417
23.3585
22.8474
22.827
23.0128
23.7169
157.919
143.388
86.7665
73.8684
65.5988
56.2531
46.0501
40.081
34.7143
31.2229
28.6582
26.9449
25.7099
24.8333
24.4067
24.2532
24.345
24.69
25.023
25.7112
192.044
131.797
77.6607
60.2675
56.0573
49.0135
42.7773
37.7842
33.7179
31.0659
28.9656
27.8115
27.0214
26.7677
26.7687
26.933
27.3463
27.6468
28.1354
28.5899
185.675
138.182
85.6799
71.3115
63.815
53.0713
45.394
39.8331
35.757
33.6572
32.3647
31.999
31.9463
32.1046
32.6258
33.4038
34.3533
34.792
34.8862
34.0338
167.194
120.439
86.7048
83.7914
70.1148
53.7642
44.1225
40.1798
37.4032
36.1004
35.0957
34.7307
34.615
34.6893
34.9191
35.1347
35.1
34.7007
34.3088
32.7594
25.6758
22.033
22.191
39.7768
52.644
53.6494
49.5672
43.5659
38.9643
36.3432
33.791
32.2945
31.1204
30.5672
30.1419
29.3189
28.8007
27.9233
27.2799
25.3867
54.8646
72.2048
72.6257
70.5855
65.6761
62.2466
60.7723
59.316
55.9267
48.4094
41.035
36.5541
33.9146
31.3628
28.893
26.4736
24.7009
22.9188
21.9869
20.6203
116.167
121.044
83.6553
64.7287
57.6171
52.9929
48.2596
45.5045
41.5435
39.5878
36.4127
34.5764
32.0325
30.0339
28.1031
26.4693
25.2006
24.2284
23.712
23.4313
164.281
130.536
76.3909
57.6115
50.2819
43.2251
37.4163
34.2184
31.1398
29.6467
27.7722
26.5553
24.9709
23.7258
22.5087
21.5877
20.9085
20.4582
20.2027
20.0945
288.961
140.417
71.1872
51.4016
44.8084
35.8413
34.3235
29.8488
28.3191
26.1339
24.562
23.0936
21.7869
20.7274
19.8922
19.3043
18.9451
18.7615
18.7011
18.7792
234.444
113.728
87.3483
71.2287
57.917
45.7874
43.4907
34.9627
31.1871
27.3109
24.8737
23.0533
21.6723
20.6065
19.9252
19.4925
19.2793
19.2331
19.2675
19.3875
292.412
149.675
101.876
84.6892
70.2679
66.5777
60.7584
54.9886
45.1396
33.2145
27.0004
23.774
22.1328
21.1312
20.7123
20.5744
20.6129
20.7242
20.8796
20.8593
390.375
115.505
85.5762
72.9513
65.8853
65.9765
60.9195
58.6225
50.7266
39.8837
31.1064
26.0456
23.783
22.7808
22.5367
22.5865
22.8721
23.1807
23.3397
23.0445
202.798
136.203
95.2252
71.9339
60.8413
57.8428
56.7995
55.3506
49.8484
43.5854
35.627
28.1464
24.4633
23.2446
23.5021
23.4528
23.4844
23.4876
23.4281
22.798
190.077
165.338
112.269
80.9759
63.0764
61.1334
60.5114
59.4706
52.4777
46.3695
39.6942
31.4801
25.5507
23.5956
23.311
23.9061
23.0732
22.4284
21.8037
20.9211
235.255
139.846
102.268
86.3748
65.6274
60.5201
55.8853
52.5401
53.5159
53.9059
42.9321
32.1549
26.4803
24.9075
25.3256
25.6642
24.1616
22.7114
21.5435
20.7125
256.319
134.879
109.214
88.5727
63.7853
53.3716
46.7865
42.6667
42.1965
43.104
79.6542
55.3548
41.7879
35.4239
29.3211
25.775
24.3391
22.744
21.5837
20.8649
209.246
141.209
101.545
77.0598
56.8812
48.4495
42.7144
39.1522
36.3163
34.694
33.7531
31.9534
29.4473
27.6225
25.4993
24.6685
22.9762
21.3915
20.5648
20.3592
216.597
118.737
81.6425
61.9845
53.1055
44.5665
41.7501
39.6999
36.2424
33.9297
31.8227
30.7987
28.9386
27.1
25.0405
23.1456
21.3027
20.2572
19.9273
20.0146
325.729
147.801
105.815
81.0036
60.1421
48.2284
38.6196
33.5579
31.6652
29.5694
28.4313
26.9727
25.4999
24.0055
22.6856
21.5706
20.8328
20.5486
20.5535
20.8865
166.227
166.7
106.511
85.0407
69.1076
52.5647
39.4639
33.8421
29.898
27.0218
25.2709
23.9117
22.9782
22.2483
21.7583
21.4686
21.3956
21.5425
21.7941
22.3703
228.632
166.941
87.5607
64.5463
58.8048
46.5803
38.4266
32.9616
29.1944
26.7094
25.0043
23.923
23.1601
22.7872
22.6359
22.6845
22.8914
23.2284
23.5292
24.0321
370.167
174.605
76.7999
54.0865
49.1133
39.8485
36.1913
31.8324
29.3277
27.4779
26.2325
25.6198
25.229
25.2114
25.2621
25.4523
25.8033
26.0176
26.4014
26.5504
155.184
185.445
91.0228
61.6769
53.0146
43.3423
38.4728
34.8123
32.3541
31.1771
30.378
30.3217
30.2849
30.4614
30.7895
31.1298
31.4163
31.4256
31.3351
30.6254
278.074
216.14
112.75
79.5322
57.113
45.9155
39.586
37.1145
35.2167
34.4828
33.7358
33.8081
33.7828
33.969
33.971
33.8902
33.5811
33.0305
32.6379
31.6737
95.5849
49.8792
43.6373
59.0061
62.0428
60.0163
52.9459
46.6633
41.6588
38.2907
35.895
34.4323
33.4793
32.7683
32.2403
31.4042
30.8512
29.809
29.1087
27.1779
78.0248
84.5612
86.2396
81.5515
69.1139
62.0248
59.3672
56.3326
50.6096
43.9416
39.2533
35.5405
32.2661
29.169
26.7899
24.901
23.5649
22.2791
21.7219
20.569
221.911
127.795
94.5878
68.2779
62.8338
55.2473
52.5677
48.0101
45.0857
42.9242
40.1822
38.6
36.2836
34.8675
33.5702
32.8715
32.4287
32.1882
32.0853
31.9623
200.339
127.142
79.855
57.3047
51.4265
41.981
39.8847
35.8862
34.9373
33.1399
32.205
30.7776
29.8707
28.9988
28.518
28.1838
28.0269
27.9336
27.8667
27.9288
242.919
140.324
74.5646
52.5115
44.5176
36.7396
35.7
31.1649
30.974
28.6349
28.1534
26.828
26.4729
25.9778
25.8646
25.7908
25.8444
25.9982
26.0898
26.4171
160.526
120.084
79.5376
61.4214
52.8839
40.5708
39.6531
33.0231
32.01
29.0184
28.2087
26.8024
26.4176
25.8963
25.7927
25.7446
25.7808
25.9221
26.0264
26.3628
222.784
165.97
99.6655
70.0361
62.1663
51.2704
48.1668
40.0366
36.0105
30.7758
28.6765
27.0646
26.6469
26.2999
26.3587
26.4211
26.5289
26.6665
26.7656
27.0135
309.729
145.675
83.0556
65.386
62.8256
55.2091
50.3662
44.3384
39.4826
33.5899
30.7681
28.5067
28.256
27.9739
28.0172
28.1656
28.3206
28.3122
28.1767
28.0708
161.115
132.087
94.1052
65.6479
59.1403
52.816
50.5896
46.6233
41.0909
36.0509
32.3854
29.8013
29.0445
29.0182
31.3521
29.9406
29.4349
29.0013
28.4826
28.1767
269.522
144.194
96.5586
68.0635
57.5888
54.5123
53.2504
49.7219
43.2357
39.0805
34.5991
32.0464
31.1514
31.2073
32.5511
31.8483
29.5606
28.4495
27.7563
27.6222
462.133
184.44
100.85
73.3473
57.762
52.7243
49.9345
49.2311
47.2331
42.6058
36.4441
33.2134
33.4015
33.822
34.597
32.6634
29.8961
28.5745
27.916
27.86
217.455
129.043
93.5429
69.269
54.496
47.2138
44.2269
43.1626
42.4841
41.0708
61.1956
50.8809
41.909
38.5181
35.9406
32.6689
30.003
28.7583
28.1538
27.9208
379.432
217.484
92.8461
65.2063
54.1175
46.4481
43.7481
41.3159
39.3631
37.6791
36.8735
35.9211
35.3644
34.4991
33.5274
31.0257
28.702
27.8071
27.4265
27.3545
241.18
134.07
81.3362
61.3764
56.1301
46.125
43.2981
40.4702
38.0892
37.8698
36.5277
35.7279
33.5474
31.928
29.9906
27.8802
27.0267
26.8352
26.7762
26.8672
241.749
176.374
100.365
70.333
60.1912
46.9781
40.658
34.3905
33.8023
30.9698
30.8473
29.1084
28.473
27.4215
26.9643
26.6305
26.54
26.6577
26.8232
27.2277
274.302
204.419
117.675
77.6243
65.6964
48.3042
40.3588
34.4658
32.0793
29.1921
28.3702
27.1703
26.9967
26.7442
26.7381
26.775
26.9876
27.329
27.5898
28.1157
278.415
159.322
92.4957
64.4908
58.8839
44.3816
39.9919
33.7813
32.208
29.5526
28.9606
28.0672
27.96
27.8647
27.9594
28.128
28.4351
28.7435
29.0433
29.4399
155.307
167.873
92.8013
58.7396
50.6036
40.2919
38.5776
33.7938
33.0606
31.2369
31.0336
30.5731
30.6126
30.6139
30.7447
30.9214
31.2243
31.37
31.6522
31.6936
235.867
238.341
112.731
64.4915
54.5541
43.8549
41.9881
37.9846
37.5763
36.4448
36.3809
36.2113
36.2449
36.2853
36.3722
36.3885
36.4125
36.2421
36.1804
35.7362
202.432
221.901
117.998
72.2757
57.4781
47.5213
45.2543
42.1213
41.5244
40.8151
40.6647
40.876
40.8904
40.9887
40.8306
40.6007
40.3492
40.0569
39.7964
39.4079
110.647
81.9194
71.4982
69.3737
64.8882
58.6284
51.7863
45.7095
41.1468
38.0225
36.1753
34.9344
34.1039
33.2153
32.4748
31.3561
30.4486
29.057
28.3067
26.4331
116.229
115.688
112.509
94.0781
69.3835
58.9342
53.8163
47.2583
41.908
37.2907
33.4231
29.5819
26.8761
24.882
23.2828
21.9034
20.7881
19.975
19.4267
19.172
171.554
148.58
117.855
80.9076
78.1597
56.3746
61.6037
48.2364
51.543
45.0906
47.5112
44.6535
45.9337
44.4863
45.0455
44.5006
44.8
44.4461
44.3708
44.2358
318.05
129.927
89.0452
74.113
61.024
49.7435
48.3712
41.4799
42.6496
39.0322
40.642
38.5138
39.5582
38.4494
39.0128
38.5276
38.7778
38.5654
38.6218
38.7546
270.71
140.111
84.3641
71.834
52.7594
51.1168
43.0557
39.5404
38.5679
35.5756
36.6735
35.0171
36.0718
35.3952
36.0879
35.9303
36.394
36.5003
36.7364
37.1485
201.054
118.418
83.3233
75.5944
57.7182
50.7407
45.9102
39.555
39.7243
35.8691
37.0675
35.2807
36.181
35.4319
36.0294
35.8538
36.2306
36.3243
36.5487
36.9451
178.642
165.506
116.056
69.9852
66.7241
49.2712
49.0232
39.7369
39.2701
35.6487
36.6677
35.3028
36.0018
35.6846
36.2359
36.2898
36.6969
36.8643
37.0742
37.4147
327.812
179.602
92.2222
75.0684
69.2913
53.6878
51.443
43.7703
40.8174
37.5802
38.186
36.9533
38.0509
37.5835
37.946
37.9654
38.2567
38.1515
38.1395
38.1316
208.758
145.772
106.423
70.0129
70.0369
54.434
51.352
46.326
42.593
40.2163
40.6073
40.5878
41.7895
41.9328
41.8062
39.8799
39.354
38.8667
38.4521
38.2896
268.337
157.079
100.381
72.0627
63.6855
56.3502
55.3155
49.4413
46.1874
45.2469
45.7693
47.0925
48.1382
48.5638
47.8148
41.7122
39.4987
38.4721
38.0649
37.9848
293.48
205.081
115.087
72.7886
63.931
53.7821
53.5784
53.5039
51.4385
49.7241
49.6164
51.5189
53.0542
52.6862
49.894
41.9144
39.4693
38.5811
38.2724
38.2704
345.605
160.172
97.5709
71.6117
61.1297
51.8724
50.3697
51.8583
52.23
51.1703
52.9875
53.3121
55.1349
54.2544
50.3786
42.1311
39.5845
38.7326
38.3619
38.2326
394.447
175.613
101.754
70.9597
64.8275
53.0411
53.6326
51.9606
52.2932
52.3759
52.6468
52.9657
53.247
52.5959
49.3713
41.0083
38.7873
37.986
37.7163
37.7648
237.661
149.317
94.3183
70.7611
70.598
57.4349
52.7124
47.4502
47.8692
47.623
48.1935
47.2642
46.685
45.5204
40.3862
38.0791
37.3228
37.1988
37.031
37.273
229.13
203.226
123.967
72.7153
75.0759
52.5515
51.7023
42.0322
42.2407
37.6025
39.4964
37.0134
38.0743
36.9202
36.9675
36.487
36.6576
36.7389
36.899
37.399
201.326
198.475
151.368
81.1254
75.2306
52.7603
51.3716
41.2094
40.7591
36.7766
37.4736
35.9289
36.6441
36.1197
36.4593
36.4408
36.8155
37.1069
37.3235
37.9
155.169
152.275
105.152
73.2358
68.0355
50.8489
51.389
40.9269
42.5007
37.5446
39.0293
36.9024
37.9225
37.1145
37.7236
37.5005
37.929
38.0284
38.2727
38.6759
249.171
181.773
102.8
72.9562
61.5965
51.2722
50.1322
41.7839
43.5878
39.312
41.0326
39.1409
40.2523
39.4939
40.1279
39.9347
40.3232
40.2945
40.4608
40.4506
416.826
244.419
114.206
82.27
67.4447
53.2513
55.1578
45.5602
49.4119
44.5854
46.9903
44.6801
45.8964
44.8183
45.3383
44.7676
44.9604
44.5269
44.5759
44.0304
226.448
172.021
117.707
73.418
74.0902
54.2372
59.7619
48.9009
54.4658
49.2924
52.9887
50.6917
52.4366
51.2652
51.8597
51.2049
51.337
50.7931
50.6851
50.2302
84.5527
90.8166
78.931
67.7893
60.1705
52.0528
45.8384
40.9425
37.8879
35.7913
34.5275
33.4338
32.5172
31.2298
29.979
28.3872
27.044
25.4762
24.5446
22.9714
46.4858
47.2655
97.0553
43.7974
38.0276
43.2287
111.544
34.3299
94.2927
60.2454
36.2443
32.3068
109.958
68.5207
81.6335
36.2545
38.4889
40.8651
88.6634
36.5971
38.7113
61.5364
38.8145
37.7602
87.2592
67.9504
39.0165
38.0868
270.007
329.021
264.382
98.1219
87.8221
94.3502
78.2851
251.133
264.982
285.488
87.3347
87.5791
74.9589
73.8852
210.905
288.066
274.623
85.9919
74.1118
75.1575
81.1238
201.33
266.015
236.347
70.5354
65.4515
82.2084
80.7783
178.956
230.315
201.465
64.4062
61.9024
75.587
61.553
137.158
182.485
134.27
59.344
43.2309
59.0221
41.9903
138.889
133.754
148.218
38.7592
32.0349
37.0074
30.376
126.862
150.889
144.417
31.1101
28.4598
29.7031
27.9262
263.8
316.306
264.84
98.5074
75.4542
94.4455
66.5268
293.648
266.974
269.371
70.35
67.3305
61.3799
56.4709
298.049
266.357
250.919
68.2283
75.7016
56.5745
59.8093
239.307
241.987
224.381
78.8835
80.9599
62.3798
66.8246
205.564
222.844
203.118
77.1231
61.2404
65.6866
56.7366
136.215
178.432
144.131
57.9987
41.0588
52.8048
39.0131
152.219
145.713
153.236
36.422
30.5096
36.1225
32.8571
146.308
152.823
131.685
29.924
28.1616
32.5815
30.958
254.168
244.101
242.397
74.9389
59.6045
63.8172
52.7404
265.064
257.025
261.241
56.8406
54.2703
51.309
50.4194
231.414
253.736
216.638
54.31
56.0561
50.1666
49.3469
211.628
206.051
191.944
57.3823
60.2465
49.3221
48.2539
195.617
189.882
170.171
59.5843
54.019
47.3061
44.4003
145.706
161.673
154.213
50.8872
39.1373
42.9722
37.6949
149.969
153.445
149.471
36.808
33.7533
36.4194
33.8771
126.575
147.217
132.129
33.3986
31.3643
33.3756
30.6243
219.229
270.568
180.621
61.241
50.898
70.2748
55.053
251.596
174.513
170.827
49.4138
48.3499
51.4753
47.2294
212.513
171.445
174.376
48.0172
47.0294
46.1863
41.7855
187.763
172.754
164.603
47.0514
45.6414
41.2229
39.1466
166.832
161.358
155.256
44.5398
41.7009
38.5665
36.5321
155.55
154.547
154.612
40.7258
36.8416
36.2123
34.4969
151.692
154.134
154.69
35.7342
33.4573
34.0796
32.7873
135.603
155.558
148.638
32.9585
30.454
32.5714
31.5755
79.7
80.1495
70.5951
64.3076
63.0234
61.4998
57.7405
79.062
68.5673
68.7668
63.1049
59.0657
57.5742
58.5848
66.351
70.2813
75.1329
56.7176
51.5558
59.0705
59.5688
58.971
76.0385
72.7831
49.8731
45.1937
59.1429
51.0355
53.7934
66.9567
53.585
43.3428
36.8586
47.0818
37.3219
36.4202
50.3083
35.8243
33.9841
27.499
34.5689
27.8085
27.975
32.1944
27.1616
26.0966
23.8429
26.4057
24.2664
25.7917
26.5816
25.7258
23.4899
22.7845
23.9597
23.5122
67.7526
78.3441
58.7595
59.8695
55.1116
54.6224
47.3615
62.7691
55.0235
51.8182
54.4451
55.0259
46.1781
45.5281
71.129
52.0529
56.1309
55.8825
58.5763
45.8837
48.3793
73.6931
58.6592
61.6
58.6871
51.9242
49.54
62.7396
53.0172
59.4547
49.1168
47.6199
37.1123
60.9688
46.7569
35.2268
45.4497
34.9096
34.372
27.9652
41.9172
34.4819
27.3639
32.851
30.3919
26.6649
24.7652
33.4583
31.7772
26.0639
30.1152
29.3248
24.5175
24.0167
31.2194
29.6058
53.1875
54.513
47.4653
49.1289
44.4976
44.6948
41.0354
49.3568
46.3179
44.9972
43.6692
43.0224
40.2749
38.3759
52.188
44.7354
44.6424
43.2135
44.8079
38.0029
37.5877
55.6437
44.7589
43.6396
45.2784
58.8841
37.3965
38.2157
47.4051
42.7162
39.7736
57.9665
48.6991
38.2269
36.8715
35.6556
38.4783
34.2516
45.4869
39.1224
35.8807
32.5878
31.5219
33.1786
31.0109
37.833
34.7411
31.6357
29.5051
29.8343
30.5551
28.7307
33.7155
30.7455
28.9317
26.8311
46.189
56.541
49.3423
43.8398
40.4533
46.0952
41.7509
43.4127
46.7758
43.2891
39.6926
37.5132
40.338
37.7273
42.4298
42.2334
38.4469
36.9066
35.9499
36.7951
33.9348
40.9485
37.8232
35.7425
35.6236
34.5389
33.4316
31.646
37.2266
35.0953
33.2769
34.1285
32.6493
31.1239
29.8073
33.071
32.9841
31.6569
31.9758
29.8909
29.6182
28.6483
30.3227
31.2862
30.1174
29.2874
27.8677
28.3322
27.1797
28.3695
29.8554
29.1311
27.4538
26.0231
26.865
25.723
59.6585
58.081
55.247
54.3664
52.6127
52.3992
50.9682
54.527
55.2155
55.7034
51.3821
45.8545
50.8553
49.3165
47.9852
55.7328
54.9609
44.4693
41.1585
48.516
45.1937
41.5581
53.9822
45.8066
39.7369
35.6545
43.5361
37.6597
33.7352
42.4946
34.306
34.3607
31.2371
35.9116
32.0698
26.5879
32.1084
27.1206
30.3593
28.7209
31.2482
30.0001
23.8661
26.119
24.5536
28.4362
28.0834
29.8622
29.6447
22.9386
24.3069
23.8471
28.0046
27.5569
29.5431
29.1051
52.87
50.7119
45.6718
50.5279
49.5157
45.8215
44.1246
53.0435
44.8976
44.4878
49.4637
48.6298
43.9749
43.5854
54.3555
44.7263
46.2548
48.0796
45.3138
43.3667
42.0523
47.7209
52.5947
52.5848
49.604
51.9545
47.8473
48.7276
37.9811
39.6695
43.5893
39.4592
40.316
36.8501
40.6058
27.4033
48.31
36.983
31.4554
30.2735
54.4172
40.6645
25.1066
35.7068
33.3866
30.203
30.1531
39.1833
36.3698
24.3722
32.5828
30.223
30.0849
29.5603
35.5211
33.1517
43.2918
43.3338
40.3379
44.1252
42.6218
42.8611
40.9116
42.103
39.6286
37.6877
42.4046
41.8904
40.357
38.7463
43.0699
37.2721
36.5109
41.6788
40.498
38.3536
36.9915
76.4562
67.7597
41.5961
48.4134
53.5516
251.303
41.6007
103.31
75.5065
69.3782
194.034
67.6367
177.878
107.585
43.9568
36.6876
33.1115
60.4212
44.9757
37.2461
34.9972
36.9084
32.1098
29.837
42.5138
37.921
34.4592
33.0117
31.4053
29.1988
26.9687
36.7241
33.5952
32.5092
30.7337
39.8693
44.3964
40.9229
42.7748
40.7338
44.2995
41.2794
36.9361
39.5833
37.0273
40.1046
38.2126
39.9593
37.6189
35.1303
36.1155
33.5998
37.7285
36.3929
37.0172
35.7474
33.9837
33.1492
31.527
35.8654
35.318
35.524
34.4088
32.5716
31.0264
29.857
35.2101
34.41
34.0073
33.2413
30.0086
29.6812
28.7039
34.0005
32.9439
33.0645
31.9305
28.0556
28.3556
27.1774
32.6676
31.7504
31.5159
30.3469
26.1474
26.8373
25.6071
31.3784
30.0659
29.951
28.4997
51.2821
51.6507
50.4625
53.6408
50.051
52.787
51.9308
44.3888
50.2459
48.2227
48.2365
44.4949
51.3998
49.0491
40.3633
47.318
43.8434
44.0781
42.8926
48.3674
46.3028
35.5667
42.3001
37.4847
42.2368
41.4779
45.6075
44.3883
32.5558
36.1606
33.553
41.7088
42.6242
44.3657
45.2048
31.2255
33.1461
32.9925
42.7341
43.4026
45.6938
47.1898
31.225
33.1196
33.3343
43.7191
44.3035
47.5073
47.6962
30.6624
33.2882
32.6563
44.2629
43.7708
47.5603
46.8018
49.3137
45.5163
44.5567
51.5268
51.6282
48.1449
48.9726
47.9534
44.5193
44.127
51.3668
49.6096
49.1778
49.1814
44.0921
43.8111
41.9157
49.002
46.809
48.8818
47.2171
37.7952
42.0852
66.6405
46.0524
44.535
46.5831
48.4699
33.6879
66.3431
53.6328
44.4143
44.9746
48.7478
48.2676
33.1647
48.0245
40.7083
45.5355
47.5419
47.9687
49.3497
33.8424
39.956
38.3914
48.0191
48.3036
49.9649
50.1931
33.1149
37.8187
35.7539
48.1392
47.1998
49.8336
48.2972
43.2714
43.6441
41.9804
47.6514
48.3702
48.9881
48.4194
42.7513
41.5092
40.2006
48.5836
48.854
48.2934
48.3049
40.8423
39.8881
38.5336
48.6677
47.228
48.4009
47.6388
61.3915
38.0633
39.1441
46.8477
49.2644
47.2677
47.2547
54.2467
39.3113
38.5392
49.5322
48.8827
47.3706
47.5222
43.2263
37.9439
36.8353
48.5833
49.8117
47.6861
48.752
39.2935
36.6473
35.8759
50.3462
50.3857
49.0434
48.9486
36.0295
35.494
33.7814
49.9852
48.3714
48.655
47.4381
41.8931
45.337
42.2816
49.9143
48.5572
51.4892
47.8633
39.7293
40.8986
38.753
48.2368
48.0108
46.4178
45.3799
38.1928
38.3194
37.6303
48.17
47.9245
45.8294
46.7582
37.0027
37.5008
36.5655
47.6236
47.3554
46.6853
46.4488
36.2076
36.2272
35.6672
47.4053
47.6196
46.5452
46.6558
35.4609
35.4997
34.3611
47.7445
48.3571
46.4457
45.6589
34.8123
33.9551
32.9338
48.4935
48.2846
45.4858
45.0887
33.12
32.5478
30.9292
48.01
46.9392
44.7324
43.4646
51.1686
54.7271
53.9041
66.5375
60.4378
65.5452
64.6885
46.4245
53.3032
51.1452
57.9844
56.535
63.4868
61.553
45.6397
50.6555
49.4817
56.4547
57.279
61.4513
63.8343
45.2988
49.1837
49.1523
56.7807
58.4551
64.8071
67.0678
46.9605
49.4613
50.7405
59.0636
60.6861
67.7122
68.6009
47.8186
51.1231
52.1818
60.5538
61.809
68.4986
67.615
48.6266
52.3753
52.2914
62.0034
62.2615
67.4197
66.7378
47.719
52.1234
50.9349
62.0537
60.034
66.6317
64.5191
53.8489
50.6047
51.9583
65.1452
65.344
63.5506
65.8838
51.8817
52.1722
52.3244
64.4128
62.6544
65.4762
65.3799
50.1058
52.1636
51.1837
62.8201
66.3117
66.5186
72.1337
49.3879
50.7438
51.6779
67.5716
70.0157
73.6601
76.8591
50.9444
52.0591
52.6178
70.686
71.2909
77.649
77.8112
52.7703
52.8897
54.493
70.9672
69.1001
76.5097
72.5348
52.9083
54.897
54.5555
68.6188
67.4355
71.4576
69.1417
51.2896
54.1423
52.1548
67.2484
64.6092
68.713
65.6587
51.6165
52.2898
52.0766
64.8345
66.449
68.3959
68.2254
52.3062
51.9999
52.2774
65.9961
66.0161
67.3368
66.8264
51.4392
52.4682
52.271
67.1974
72.884
67.1324
70.7419
52.6499
52.0575
52.3124
74.4836
77.6205
71.7873
73.488
53.14
52.513
53.0038
78.1905
77.9138
73.643
73.3483
54.7734
53.2011
53.6957
76.5524
72.634
72.5603
70.1639
54.688
53.8562
53.4697
71.571
69.2602
69.5556
68.427
52.2182
53.1671
51.582
68.8182
65.5725
68.1794
65.8414
52.2517
55.4447
51.0295
72.1645
68.3686
70.4246
63.7374
52.0273
49.5758
48.8674
67.2993
66.7394
62.0156
63.3532
52.505
49.5903
50.611
66.7486
69.0358
63.3429
62.8161
52.5107
50.4408
50.3458
69.7788
71.1031
62.6029
63.7819
52.9668
50.5508
50.7095
71.2702
71.0618
64.0181
63.8207
53.1964
50.4286
49.8302
70.5196
68.9604
63.5596
64.1134
52.8706
49.738
49.4558
68.6564
67.9438
64.0886
64.0029
51.1651
49.1058
47.6156
67.7903
65.5786
63.7804
61.767
45.9215
49.9786
46.9997
42.3317
50.0956
45.2898
43.359
51.841
49.8724
71.3557
49.8508
51.9688
46.8856
196.246
54.6258
52.0634
92.1399
231.152
53.1947
53.4831
249.644
44.3521
46.1542
41.9661
43.4179
44.2576
45.5479
42.077
42.7918
39.5184
39.9884
39.1382
41.9521
40.7273
40.7504
49.2693
49.2117
42.5997
74.0361
44.4055
197.359
44.3678
52.5829
224.932
46.8222
104.797
51.7773
244.76
47.0023
35.7087
36.821
34.8523
32.6331
37.4163
34.5853
33.6084
47.2169
49.007
89.2095
216.549
45.5789
50.8016
202.149
44.2741
38.2905
76.4249
85.0535
41.9483
39.3865
137.506
36.5591
37.2321
34.6923
37.5083
35.1916
38.5756
36.0128
34.8459
31.9695
33.3929
33.489
33.4474
33.1897
34.7284
46.9126
210.784
45.6928
105.944
49.7211
197.616
44.0349
44.5297
89.3599
38.9879
90.5794
39.842
138.17
42.067
102.977
81.2532
69.7825
211.448
66.2046
230.505
108.433
42.7302
38.5206
36.5627
35.7468
41.1592
37.9514
36.2726
50.5354
49.1332
37.55
39.048
46.2112
54.8126
37.7628
73.6667
48.4004
69.1304
40.2669
240.326
41.1363
52.9487
97.4731
205.108
86.2007
69.6793
227.472
100.957
65.8173
42.4921
35.8481
38.1087
36.8969
37.8024
36.3596
40.9282
49.7093
38.964
48.2582
37.8488
53.4508
37.7801
45.6633
97.3641
72.7587
60.4076
98.4024
65.4973
159.393
84.2838
55.9647
50.0378
38.7573
39.5547
49.9718
56.1156
39.5378
54.9929
48.6175
38.4216
38.4646
49.5021
53.0793
39.2156
95.8089
187.598
84.4414
69.6614
172.971
99.8168
68.5938
90.7145
98.2039
80.2483
62.2872
149.302
80.601
66.821
54.2179
39.4143
48.9732
38.9666
54.4497
39.382
48.819
53.2232
38.3432
46.8291
38.6867
51.2149
39.068
48.18
178.155
207.803
183.603
118.499
95.9972
117.548
100.696
157.814
167.858
153.529
82.9881
80.5039
93.27
86.0397
146.654
142.005
134.774
79.2975
78.645
78.7044
73.9394
131.387
128.403
123.96
77.28
75.3033
71.415
70.3602
100.77
116.391
105.094
69.543
62.5391
68.5673
66.287
89.1103
93.0266
87.1398
53.4715
47.373
59.9691
49.5987
83.9389
85.1044
84.9441
42.9537
39.3368
42.5218
37.6096
78.797
84.8398
81.307
38.3761
33.4161
36.0744
29.7907
211.031
233.978
208.685
134.558
111.088
134.548
109.592
164.572
308.067
341.342
189.973
162.265
189.78
305.949
122.988
260.749
267.231
124.647
121.811
126.751
264.021
122.074
227.809
252.905
123.781
122.546
121.808
242.6
104.473
205.378
225.186
104.099
101.636
110.15
223.393
99.8026
193.583
207.129
100.123
99.244
100.404
201.809
89.1605
152.844
168.983
92.3181
88.4251
93.7713
151.196
59.8869
136.46
129.81
71.4551
67.0434
65.4906
131.272
53.0019
140.277
140.676
60.5048
59.9024
53.7067
141.846
85.8813
98.3838
87.6782
33.4679
29.7136
32.7641
28.8865
210.798
240.426
205
144.011
115.086
144.625
115.115
155.243
286.767
325.007
187.719
156.088
187.132
283.779
100.984
272.843
267.402
107.217
103.123
105.568
274.044
102.985
303.435
297.729
105.82
107
101.699
301.656
109.452
266.351
289.061
112.498
113.603
108.271
266.534
105.39
228.832
233.827
109.604
106.668
107.586
229.208
88.4086
161.847
184.738
95.0692
90.2509
94.2902
160.981
57.3983
140.018
139.811
63.6312
57.7418
62.2934
144.941
54.4215
155.407
156.477
53.8691
53.723
54.5523
156.414
87.2839
93.8899
78.7777
33.5969
29.9948
34.2909
29.8489
175.877
179.237
160.152
117.384
89.7708
111.038
80.1451
118.645
252.864
268.409
152.907
124.229
148.59
245.139
92.9619
266.312
259.624
95.5294
93.6671
94.0932
264.403
89.7694
251.518
256.546
91.4606
89.9483
91.5509
246.382
80.9284
217.004
215.112
84.4047
84.4389
81.8511
209.194
82.8899
209.161
202.347
87.7144
88.8433
82.2288
200.669
78.0701
154.506
168.256
88.8658
81.9488
82.8266
153.916
59.0962
149.628
148.81
61.3442
58.5324
61.4889
149.538
55.2152
145.109
145.365
56.1605
55.2484
56.2448
141.971
73.6305
91.0174
82.446
34.1921
27.9789
33.8906
28.9019
142.864
166.387
156.496
99.5232
75.1455
97.3044
82.7156
108.571
203.22
222.057
124.496
100.947
129.536
195.567
79.1962
251.189
201.457
82.9362
83.5504
79.2117
215.163
76.9703
234.417
222.48
85.5241
83.453
79.2046
216.693
71.6724
195.576
194.18
76.2422
75.1001
72.4189
188.73
68.3647
179.841
175.612
72.3285
71.1648
69.3106
171.317
66.6356
157.98
159.159
68.9929
67.5504
67.2703
157.186
59.5338
154.132
154.966
61.492
59.7677
61.052
154.127
55.7004
148.902
152.249
56.4739
55.3715
56.3873
152.243
89.8513
104.894
93.5295
34.7316
30.0226
35.8701
31.8107
132
154.652
131.104
85.766
70.8149
86.2548
68.2455
108.041
121.26
114.12
62.7457
59.2973
62.4388
58.8961
107.991
104.236
100.18
56.9135
52.7084
55.8027
51.312
108.617
101.688
105.425
50.2483
48.4108
50.6778
49.8372
107.647
106.492
106.59
46.4651
45.3052
47.6072
45.8159
105.861
106.797
106.048
44.5701
43.3889
45.7688
45.0897