/*--------------------------------*- C++ -*----------------------------------*\
  =========                 |
  \\      /  F ield         | OpenFOAM: The Open Source CFD Toolbox
   \\    /   O peration     | Website:  https://openfoam.org
    \\  /    A nd           | Version:  10
     \\/     M anipulation  |
\*---------------------------------------------------------------------------*/
FoamFile
{
    format      ascii;
    class       surfaceScalarField;
    location    "6.2";
    object      phi;
}
// * * * * * * * * * * * * * * * * * * * * * * * * * * * * * * * * * * * * * //

dimensions      [0 3 -1 0 0 0 0];

internalField   nonuniform List<scalar> 
38556
(
-444.465
-1585.28
481.857
369.993
-472.626
-341.832
399.318
-330.95
301.625
547.14
-384.12
236.297
649
-270.491
168.632
867.737
-375.557
156.82
1036.8
-290.676
121.615
1292.49
-309.636
53.9473
1459.99
-190.086
22.583
1515.04
-114.649
59.5981
1332.59
30.0988
152.354
1131.21
67.1153
134.26
997.028
90.139
44.046
929.121
83.5741
-15.6674
892.103
67.5224
-30.5037
866.47
57.5938
-31.961
844.104
44.1129
-21.7467
823.421
35.0376
-14.3554
794.491
28.1436
0.786993
6.16409
6.49484
-378.845
-717.053
-1594.96
-487.526
-398.589
34.645
5.79184
-421.743
-402.525
-88.3159
-392.149
102.137
85.1315
-376.255
-67.6833
157.826
-306.68
-141.571
249.299
-235.603
-146.546
308.492
-195.345
-173.485
373.952
-105.634
-149.912
444.465
-44.6431
-140.519
521.522
39.3727
-86.3305
581.236
71.6819
-64.2805
615.198
85.7176
-29.5405
627.797
83.5002
-12.5251
609.423
67.2362
18.6597
577.519
56.2555
33.2429
535.355
44.1044
42.1722
501.955
33.1091
35.328
477.772
28.7671
23.56
14.6574
-0.123924
-701.393
-791.051
22.822
-354.542
-405.825
-339.615
155.993
-540.831
-391.448
151.84
-395.126
7.13008
196.126
-392.51
-28.0313
231.62
-253.147
-89.0268
208.48
-211.07
-1.39324
221.117
-155.76
-52.2219
239.473
-113.986
-10.0046
278.818
-55.6397
-28.3481
324.956
-5.91684
-0.84878
361.835
39.3049
-4.50214
382.752
50.6354
14.1656
389.931
60.3061
16.0145
381.78
53.4239
21.9633
369.678
51.4117
16.9455
357.836
44.1092
11.8376
350.508
38.214
2.22337
349.143
29.5629
0.568858
14.5012
-5.11288
116.81
-747.827
-1184.05
-125.962
-257.234
94.1804
134.873
-498.706
-302.96
-61.619
-348.31
149.676
17.4225
-415.085
-56.466
-68.185
-188.911
21.3716
60.4573
-284.008
-55.7044
48.4708
-126.405
-17.3687
135.646
-200.222
-0.939908
169.127
-74.273
-14.8473
223.459
-59.5503
-0.698691
251.428
19.691
-8.35507
273.313
22.2853
6.46563
279.123
50.5832
3.9126
282.404
41.7578
8.38465
283.407
45.1017
5.30744
288.328
33.925
5.26289
294.632
29.1839
2.72683
302.78
16.4075
5.00688
3.81537
1.66949
576.223
152.269
-2812.14
888.281
-314.037
-255.254
482.001
-272.58
180.154
327.035
-274.334
80.9906
230.29
-343.108
24.767
252.789
-155.949
-55.4608
242.21
-290.117
16.6878
225.79
-109.414
-0.56971
214.74
-246.516
57.3444
221.096
-113.064
32.4341
257.7
-129.25
33.0969
278.261
-10.867
9.99643
291.868
-4.73809
13.4171
296.355
44.2402
1.85599
301.141
33.3475
3.62467
305.154
40.9704
0.117812
312.407
25.8739
0.797365
322.401
20.2932
-1.10316
333.014
1.63701
4.1583
-6.9365
-0.186085
860.741
-162.653
-442.088
1188.57
-282.359
-359.507
1105.96
-119.053
-70.9122
1156.69
-252.653
-72.4187
1052.44
-256.603
17.7441
1122.39
-184.081
-41.8149
1102.18
-295.396
25.4912
1050.58
-114.948
57.1322
762.146
-153.903
195.823
494.897
-11.7177
165.902
364.281
-94.6941
96.0599
316.135
11.874
25.4055
304.79
-5.69818
12.3053
303.633
42.9244
2.47272
308.732
28.1946
0.0536719
322.1
33.1805
-5.57813
346.587
8.67831
-7.29157
379.344
-4.12613
-8.3377
400.89
-21.9185
2.00905
-19.7248
0.171823
346.719
-192.11
551.554
33.0636
1.29298
30.0028
551.893
-238.489
-399.393
562.437
-337.737
74.5394
754.575
-532.985
84.2447
889.036
-281.524
-37.0189
993.541
-92.0503
26.0817
-121.312
-92.5757
-120.046
1081.69
-71.8228
5.18629
-39.2249
-65.173
-32.0641
985.425
-28.4723
69.6986
-34.7609
-27.3094
-36.7928
765.102
13.2796
129.12
28.5536
12.0547
25.5976
524.726
15.9634
137.978
-9.82872
13.2765
-11.7076
414.281
13.2824
72.285
12.2191
13.1002
11.4325
379.358
11.1701
23.1372
-6.13629
9.37943
-8.32546
365.466
15.5155
7.93725
11.5443
13.5713
8.24803
371.894
16.8153
4.95115
398.121
11.6851
-4.73169
437.489
-26.6444
-4.0449
481.205
-43.2764
-4.56614
504.75
-46.6129
1.14935
-28.5661
-1.39659
28.8045
362.356
-3560.44
100.665
604.275
-674.842
671.904
-133.537
-676.192
851.238
-313.11
-203.961
806.476
-518.824
30.6014
209.874
-71.0793
-53.487
210.751
202.221
203.146
-48.9138
-76.0525
-51.5073
198.909
-74.7232
-6.36122
-175.972
183.655
-72.7776
-6.72866
-194.052
191.035
-24.7113
-0.743814
-178.024
173.665
8.27727
9.36104
-166.033
148.257
24.6697
9.06911
-120.811
110.696
13.3093
10.088
-103.05
98.5842
11.8109
3.82462
-89.7436
93.2046
12.9142
-0.859613
395.23
9.92681
-7.65419
-93.4369
-97.5473
-88.0171
-91.1623
-5.81664
5.46074
-10.1683
430.959
-27.0418
2.99803
458.312
-58.1543
4.15686
487.11
-67.544
-4.53076
500.248
-56.3366
-3.41424
-23.4918
-10.953
1572.22
395.779
-1884.38
2093.06
744.243
-660.81
1581.23
427.363
-49.0641
1222.14
-34.6388
80.6232
185.047
-269.132
196.584
181.906
206.367
202.539
196.592
-83.7229
1.09932
16.0134
-56.0071
57.1285
-16.5755
-0.559306
-60.5344
18.456
63.2213
-20.6161
-0.52685
-65.0098
7.28407
63.304
-8.33987
2.76153
-49.5749
-2.17055
47.9615
3.19083
0.593084
-45.1701
-4.77286
45.6492
2.85143
1.44231
-41.8093
-4.50583
39.3027
4.90422
2.10825
-29.7644
-4.56562
28.3803
5.02351
0.926166
-24.5334
-3.93202
24.9116
3.87251
-0.318728
-25.1443
107.53
7.66468
-3.64552
-25.9878
-24.8662
-25.6238
454
-30.8999
-10.0697
-107.977
-117.545
-103.038
-111.513
449.489
-48.8836
-4.76014
446.193
-53.2667
-10.9814
434.349
-36.6075
-7.88441
-3.59834
-15.0497
1925.29
-975.774
-2133.47
1969.38
413.015
287.133
1516.8
463.623
416.326
1334.04
75.4145
72.6995
254.322
-66.7231
94.5028
242.969
272.061
267.781
80.6851
246.746
-65.6425
-7.46706
24.4216
-56.3353
54.3027
-22.7477
0.358663
24.3725
-51.5686
51.1158
-21.5212
-2.3986
15.4048
-52.757
56.1192
-14.8402
-3.92683
-6.42864
-71.7493
73.7286
5.28092
-0.831505
-8.12464
-67.1226
62.4511
11.6194
1.17673
-8.73231
-49.1043
45.6091
10.2113
2.01623
-9.17392
-33.0678
30.3405
10.5577
1.34348
-5.31265
-27.9725
28.2259
5.85661
-0.797409
-30.3532
-5.7061
130.94
4.1566
-4.66715
-32.3925
-30.0851
-31.893
514.103
-7.34761
-13.4747
-131.514
-138.649
-122.903
-131.115
496.272
-25.016
-6.03561
480.292
-31.0445
-6.24246
455.54
-8.95088
-2.90507
16.8976
-9.6777
613.794
-2719.78
-700.092
667.175
-648.153
1007.79
793.361
-288.4
625.837
823.193
-146.655
192.238
136.638
-66.5913
270.402
116.199
156.626
143.197
48.2201
134.489
-50.4539
4.38263
12.9082
-34.8048
35.6116
-14.007
0.292032
11.5526
-39.9449
41.6716
-10.8544
-2.42483
9.0128
-44.2574
44.3586
-7.00474
-2.10923
-3.76338
-44.7137
45.4003
4.61034
-1.53352
-16.539
-47.6781
47.9249
16.165
0.127187
-16.0419
-44.6348
41.2689
17.2012
2.20655
-12.0349
-35.2107
35.0163
11.7609
0.468304
-5.70188
-36.1037
36.5324
5.30052
-0.0273251
-36.8703
-3.30204
144.412
6.20833
-0.5392
-37.3768
-36.0085
-36.5231
534.412
15.1638
-12.6338
-139.827
-139.796
-132.793
-131.874
518.656
-6.85947
-2.4009
499.83
-7.04979
-5.16819
472.93
20.8991
-2.94979
34.5943
-6.50008
644.982
-1735.6
-2192.03
1122.82
-695.487
-430.506
1064.81
-466.177
235.785
889.291
-140.269
169.137
129.969
-18.6074
268.579
135.525
150.417
156.817
54.5188
124.824
-62.5726
13.1988
15.4466
-34.6831
35.0644
-15.8922
0.0643844
7.64811
-34.7199
36.2812
-5.72037
-3.48909
-0.393614
-41.5386
41.8146
2.43428
-2.31668
-9.56693
-39.7715
39.0796
11.4424
-1.18349
-15.8313
-38.0934
37.5942
16.4125
-0.0820283
-18.3759
-36.3945
36.3843
17.7778
0.608221
-10.4732
-37.6909
37.8842
9.97828
0.301625
-5.09116
-37.8219
37.4368
5.46278
0.0134384
-35.7279
-10.3098
139.951
14.1669
-2.58382
-35.8216
-34.8231
-34.8514
514.269
34.3656
-3.38387
-135.64
-138.331
-127.219
-128.896
479.391
17.8296
10.189
448.699
20.937
2.7052
430.314
38.0128
1.27098
36.5846
-1.56501
526.741
-217.844
1689.09
644.344
-444.413
-368.677
458.869
-356.359
75.6578
488.459
-134.12
-35.7394
563.651
-119.445
25.6468
129.946
-313.765
3.25847
75.2206
118.34
68.1422
109.315
126.909
124.967
121.319
15.7553
125.208
-38.9747
2.18904
4.34136
16.2247
5.20224
2.06834
-101.952
107.908
-16.8487
4.66104
0.19754
2.79959
1.16631
-3.96305
-126.232
131.665
1.87647
12.7257
-7.58861
-2.40086
-6.08242
-11.6832
-120.135
122.986
36.3848
6.8971
-12.8975
-10.0535
-11.4989
-13.687
-136.85
146.312
41.1255
4.77882
-15.5686
-12.1344
-13.9762
-12.3832
-145.612
151.185
38.7809
3.0227
-12.7079
-10.8447
-11.4403
-7.85073
-156.939
157.374
30.6048
0.821836
-8.83886
-7.02945
-8.14236
-5.58229
-150.411
146.56
27.0724
0.210371
-6.70251
-4.99835
-6.14829
513.064
82.2395
0.786768
-14.5479
-18.4316
-10.6374
-15.4227
-140.783
-139.737
-129.407
-127.124
472.232
54.7536
20.4445
419.201
50.6633
20.1966
390.013
42.5448
7.58061
378.27
43.4068
6.34874
27.8647
3.60416
518.694
-145.638
-877.282
1518.85
-708.185
-736.38
1278.39
-321.168
205.266
1056.78
-98.2049
185.691
786.581
-4.60289
155.359
607.74
-150.84
15.9152
495.777
115.782
14.7452
23.8815
-30.4233
19.9679
-31.9893
422.115
-119.956
13.5784
35.62
51.993
39.1799
53.2459
398.425
96.0328
15.8369
1.89984
-47.5514
0.765485
-43.2937
413.224
3.60248
23.0256
-17.1427
-9.24806
-11.4006
-3.63559
440.55
116.041
7.87659
-31.3489
-47.9162
-27.9531
-44.0249
456.736
71.2251
6.45376
-27.7451
-23.0308
-23.3597
-19.7293
463.793
111.837
8.29085
-28.8858
-38.1689
-25.6479
-34.4816
458.084
79.0498
10.4808
-23.1315
-23.3896
-18.4652
-18.8357
441.181
84.9696
14.1732
415.612
67.5853
12.7375
392.625
61.629
12.0208
382.031
47.0651
6.07381
384.402
34.5587
6.47743
11.1614
5.22053
1552.13
-361.356
1581.19
1312.34
-495.421
27.0238
1081.46
-6.54172
-83.7522
932.753
33.2107
17.2959
725.348
225.944
-23.1423
621.88
-5.29035
-42.0812
590.107
175.947
-28.3925
491.991
-8.46105
-13.379
434.54
134.29
19.194
390.454
44.305
3.38315
379.788
116.986
9.72042
373.979
70.9013
6.13366
376.818
101.521
7.47709
373.903
74.5641
7.40046
371.835
80.4907
6.54697
370.278
63.7543
5.38796
377.631
51.9988
2.27688
390.233
36.5355
-2.07214
409.095
19.4137
-3.71728
-5.47609
-3.94785
637.371
870.388
3439.83
659.521
-172.48
-345.092
576.15
235.22
-158.39
521.424
-15.7981
103.735
587.603
211.907
-52.142
532.975
54.3296
-4.99208
524.606
202.545
-18.2291
472.685
67.8988
-24.4394
443.073
162.843
1.05916
413.249
82.4994
-8.37093
402.555
124.76
2.92156
391.728
84.5489
-2.8208
390.775
100.108
2.36566
388.973
77.3174
-0.95133
390.501
77.8547
1.10775
393.316
63.979
-3.03926
404.269
47.4355
-6.39003
417.405
34.2934
-10.8936
436.877
13.7036
-13.7623
-9.28958
-15.3419
-587.62
2300.03
-1757.87
-108.484
431.368
-1082.98
216.94
370.793
-460.997
197.287
61.9513
-58.0958
418.834
93.3854
-103.025
386.643
62.4849
24.0363
438.306
163.988
-13.1068
407.554
105.859
-7.20811
418.234
157.341
-5.177
398.472
112.854
-10.5933
406.148
127.007
-9.92271
403.179
101.482
-13.9646
413.769
103.021
-13.5026
421.554
84.1503
-14.6176
435.679
75.8215
-12.0923
452.589
57.9725
-10.9032
476.468
33.178
-9.62122
499.136
21.1879
-9.56247
523.454
0.458833
-11.0738
-10.793
-17.1719
-353.165
2423.22
391.852
-150.464
715.955
-487.289
415.251
347.967
-542.889
403.808
110.405
-37.0103
517.819
-30.3526
9.7274
494.413
73.3714
12.5188
517.832
129.61
10.9591
501.413
145.475
-23.1974
509.323
158.62
-9.18835
506.533
140.446
-24.8018
518.777
135.569
-20.8069
534.093
117.271
-31.1047
558.394
107.808
-29.0884
591.497
83.7329
-32.6852
634.062
62.0146
-28.758
686.908
36.8379
-31.7117
729.356
14.9569
-24.2271
754.546
8.94715
-12.9491
759.625
4.09322
-8.71329
9.3101
-17.3327
646.084
3316.97
-1070.16
584.751
1214.98
-437.69
683.403
400.445
-151.131
634.133
89.6612
70.0145
488.98
10.5724
104.227
451.58
75.2772
35.4939
468.211
95.5004
17.4785
489.847
141.097
-17.2578
536.103
137.499
-25.1353
570.602
143.609
-37.6617
616.986
122.328
-33.1433
663.663
104.653
-34.0597
712.722
81.9694
-23.2201
766.511
53.5808
-23.6365
808.187
28.6373
-8.29943
831.937
9.50047
3.58776
842.448
-6.0475
10.4925
841.125
-9.81153
20.0826
827.967
-11.128
28.3785
-0.765028
17.494
1405.35
-1219.05
1377.53
1242.8
1111.66
666.318
1060.32
140.999
985.123
85.7688
975.063
85.3363
914.749
155.815
910.238
145.609
905.831
141.905
939.684
109.756
968.448
93.5643
1010.22
62.8853
1041.66
50.5232
1078.33
16.9152
1103.32
3.64661
1119.14
-6.32382
1124.85
-11.755
1124.01
-8.9744
1109.84
3.04461
9.5733
512.547
-262.293
3380.99
-18.6922
-85.2918
274.699
294.201
-163.115
151.846
543.478
-178.228
165.249
692.504
-61.4304
81.0356
924.188
-196.962
122.097
1068.59
-112.471
89.6887
1228.78
-142.065
35.8174
1273.28
-58.3306
36.4168
1278.2
-34.8721
89.546
1159.58
69.3798
201.6
1047.98
81.9465
163.913
947.643
84.2334
60.1453
885.791
59.2349
-13.0512
844.577
36.8495
-26.1387
810.628
23.4081
-21.4208
777.12
13.8332
-2.07148
751.898
6.79715
4.06886
735.805
6.15414
10.7268
1.10888
9.78837
-1098.89
-689.105
826.153
-537.036
-185.519
-426.985
-289.985
-276.736
-535.956
-265.978
-249.922
149.823
6.40552
-217.818
-183.68
75.2161
-187.835
-219.509
212.442
-132.836
-263.407
281.667
-123.733
-261.041
346.171
-57.5684
-215.178
397.037
-23.5242
-202.734
444.97
43.4556
-108.338
479.732
60.0526
-77.1488
493.188
65.685
-24.4485
492.084
56.4249
-8.61132
475.383
43.1845
29.0251
456.217
36.203
39.6139
435.219
31.3022
45.7017
419.976
25.3639
32.0048
407.252
23.3001
19.1375
11.7996
-7.65679
-660.48
-825.904
253.484
-506.156
-219.133
-460.325
-237.719
-390.568
-546.052
-221.159
-320.178
60.8261
0.266443
-332.13
-135.145
-14.6926
-188.56
-73.3434
74.4344
-180.123
-43.2334
91.2704
-122.733
-70.0574
142.242
-94.3501
-24.1943
179.354
-47.784
-41.2
227.599
-8.13065
2.49232
259.875
28.7681
-5.49351
281.076
36.0066
22.6429
288.568
44.3733
20.5743
287.703
39.1454
26.8668
284.064
38.9637
17.8237
280.756
33.6383
12.8098
278.698
28.3938
1.25158
279.173
20.7821
2.61188
8.56756
-5.08334
-576.586
-950.788
573.182
-391.595
-144.683
-165.261
-212.463
-418.501
-454.159
-230.496
-306.937
154.469
-155.35
-379.588
-84.1546
-188.695
-164.412
30.5688
-55.892
-277.128
-91.5019
-81.1369
-108.907
-5.95071
51.1423
-194.211
-33.358
75.3975
-69.5979
-17.2882
131.544
-68.8422
3.86609
155.377
2.85558
-6.27516
181.614
0.802171
15.4327
191.475
33.2516
5.17291
203.213
24.8377
10.955
210.679
31.0736
5.73184
220.771
22.726
6.08284
229.44
20.3045
2.14676
237.728
9.90326
7.59729
2.05475
1.50593
-920.326
-954.461
-514.958
-273.102
-584.295
-462.866
-46.1414
-395.39
-69.9173
-46.6475
-345.377
119.937
36.3679
-391.67
-46.1664
-12.4606
-159.176
-11.8685
76.2839
-326.382
-22.8026
51.1799
-107.059
22.687
102.036
-243.275
55.552
118.214
-95.1565
41.8148
161.72
-121.869
42.618
178.005
-15.3425
11.9093
194.683
-20.1967
17.7384
202.404
25.4603
1.92642
213.074
11.5971
6.19534
221.058
23.4576
-0.250504
231.284
11.6617
1.63535
241.624
10.9238
-2.06272
249.954
-1.49677
7.22905
-4.58966
-0.333354
363.345
-1311.27
2145.88
448.372
-662.192
-366.639
617.754
-421.784
-213.9
700.925
-400.825
-100.141
608.437
-322.347
40.9103
626.422
-172.507
-46.4691
587.278
-300.613
38.8655
529.822
-58.2638
65.7927
399.738
-134.221
216.852
294.292
-4.79616
180.988
238.406
-79.84
109.916
212.598
1.82373
34.0476
210.133
-24.817
19.3911
213.25
21.5999
3.21563
223.568
-1.26927
2.60215
239.037
8.42018
-6.00981
257.827
-9.50406
-4.91601
277.815
-9.25533
-8.14694
289.321
-16.5409
5.54702
-11.118
-0.0681024
76.5568
-349.586
660.415
153.621
-251.045
-458.208
266.042
-511.43
-422.167
292.055
-453.631
101.333
472.087
-528.054
109.92
510.894
-182.927
-65.4058
562.463
-80.0876
51.2967
-109.417
-80.0594
-107.833
580.575
-39.2658
11.1716
-10.6609
-27.9441
-4.49022
508.677
-16.9729
105.973
-31.6854
-16.353
-33.5861
408.371
14.2295
148.229
24.8987
14.788
22.4844
323.306
11.4063
154.822
-13.4295
6.39572
-15.9917
282.45
11.6907
77.4312
8.34835
11.0169
6.47766
265.883
5.32913
30.211
-10.6754
1.99715
-11.9748
264.796
11.1548
8.61126
2.1028
9.4205
-0.664807
278.507
-17.8312
7.80215
302.793
-17.0048
-3.59306
327.225
-34.61
-3.37096
347.872
-29.9141
-4.55463
354.327
-25.9777
4.13147
-12.0418
-2.94327
-345.093
-341.486
-4123.39
-67.4373
-261.497
-942.045
295.851
-675.595
-875.316
446.244
-585.024
-222.962
512.827
-568.979
4.94345
142.728
-66.3423
-68.7739
142.093
125.697
124.495
-36.049
-60.9111
-26.5237
6.68577
136.885
-66.5273
-14.403
15.4885
-115.989
125.986
-47.9573
-16.7936
4.45398
-133.53
126.187
-11.8874
-2.19578
-15.2393
-110.291
109.001
9.36298
21.3949
-19.5342
-105.694
93.6443
16.8556
26.134
-17.8876
-77.5184
77.6019
9.2204
20.2744
-7.6786
-75.3195
74.3665
5.79798
8.16279
0.280472
-68.659
73.8447
5.7161
-0.0274756
313.753
-2.10497
-9.35178
-74.4001
-79.2701
-68.2524
-73.5844
-13.5606
-4.34166
-14.3723
340.957
-45.1271
3.91627
357.262
-50.8409
4.08201
368.589
-41.4547
-4.31675
363.74
-24.0158
-0.526947
-6.573
-12.9055
734.541
-441.472
-2801.96
926.95
-400.858
-713.858
581.427
-258.082
-121.053
490.58
-434.271
20.717
116.874
-453.144
159.39
110.582
95.845
88.6388
-9.04167
149.018
-88.1026
-1.34214
-2.14249
14.707
-44.0028
44.5351
-14.9161
1.81921
0.478564
-43.4035
12.3489
44.0339
-13.373
-0.0848965
-4.53864
-41.9232
1.64747
40.9557
-0.584744
4.44344
-3.07224
-33.3452
-3.34195
32.5799
3.52849
3.65092
-4.79976
-30.215
-4.62859
30.1457
3.97628
5.52143
-6.2176
-25.1164
-4.04275
24.3223
4.38707
6.66737
-2.59307
-21.7858
-3.23964
22.1221
2.85514
2.64133
0.340137
-20.5041
-2.00185
21.42
1.33719
-0.591316
-21.7954
3.8743
91.7222
-4.58429
-5.09125
-22.8412
-21.1739
-22.2155
357.513
-47.5764
-5.2572
-89.6036
-97.6331
-83.0974
-89.5423
353.226
-48.5482
-2.76606
348.157
-36.5298
-10.8368
333.35
-12.8396
-4.25362
1.64129
-16.7
930.555
-514.482
12.1077
957.144
-193.214
52.9
823.361
-25.1745
317.201
756.798
-277.878
-17.1301
171.817
-293.719
66.253
167.515
145.589
140.703
14.889
92.4738
179.138
-86.2186
-28.4651
0.377015
20.1061
-45.3245
46.2487
-19.6481
-1.75918
5.22108
14.5571
-43.8472
43.6677
-13.6772
-5.92138
9.09842
0.443583
-45.7546
46.8274
-1.27945
-9.33541
0.991488
-8.11465
-48.0961
47.2457
8.56678
-0.59324
-5.61514
-6.83549
-40.0321
37.0574
8.98496
6.44038
-6.19297
-7.31225
-29.6045
27.9385
8.54573
6.62551
-1.57088
-4.43041
-26.0222
25.8738
5.03442
1.11531
2.13574
-0.954345
-26.1055
26.3014
1.05126
-2.42857
-26.9526
6.11487
7.87705
109.597
-7.96772
-6.57921
-28.3781
-26.2006
-27.5104
402.581
-32.6572
-7.41077
-106.947
-114.573
-98.0795
-103.965
384.321
-34.4546
-1.86908
367.516
-21.8982
-4.06865
346.628
3.63245
1.51094
10.1485
-12.057
30.6173
-1408.08
-2158.6
304.118
-246.582
787.654
622.993
-217.556
499.345
589.366
-203.051
151.038
114.681
-158.258
308.534
106.255
100.428
94.4098
-15.3699
72.0775
119.017
-71.3155
10.2716
-0.289696
15.5937
-31.3699
32.6359
-16.1096
-0.460333
6.19815
9.40914
-33.3561
33.5906
-8.99376
-6.84795
6.56088
2.17375
-34.3011
34.6491
-1.77612
-7.30653
3.46913
-7.63038
-35.2619
35.2026
7.49712
-3.27665
-2.51026
-12.2946
-34.0479
33.4868
12.2265
3.13936
-5.01422
-11.1911
-31.2953
31.0914
11.3672
5.04203
-0.744269
-5.68529
-31.7421
32.0541
5.57777
0.539718
0.614555
-1.09973
-32.6644
32.7277
1.27478
-0.852859
-31.836
1.85155
6.05671
122.24
-1.29596
-3.0875
-32.1712
-30.7496
-31.0078
418.126
-12.8207
-7.42384
-116.629
-115.436
-105.675
-105.431
397.904
-17.1557
0.52201
377.277
-2.8332
-3.60672
358.114
17.9061
1.93949
17.7956
-9.02688
1192.06
-1038.13
2079.84
718.104
-70.8109
-132.321
729.363
-224.174
231.144
581.767
-51.2884
164.97
119.896
-45.8726
267.529
124.979
110.314
115.242
-20.6941
66.1614
126.091
-66.5748
14.9131
-1.18804
18.4067
-35.0821
35.4207
-18.651
1.09373
5.85848
8.82392
-31.6234
30.878
-8.23043
-5.70662
5.05718
-0.0987906
-30.4361
30.2945
0.341146
-5.1579
1.988
-7.96814
-29.4243
29.2829
7.88562
-1.76403
-1.09967
-11.2306
-29.6656
29.8158
10.6754
1.50471
-1.95518
-10.197
-30.871
31.4119
9.444
2.16731
-0.69773
-5.11124
-32.6129
32.6442
5.02527
0.752431
0.215209
-2.2016
-32.0689
31.7093
2.62277
-0.276794
-30.1559
3.4627
-2.21488
116.287
3.87396
-3.19553
-30.0386
-29.0764
-28.9426
388.559
9.4266
3.94178
-109.686
-109.363
-99.9069
-99.176
362.085
8.11258
11.3951
344.733
15.2743
1.94901
333.402
25.1652
5.34359
18.1683
-2.30818
-168.167
-949.185
-3420.8
-206.914
-298.899
-101.842
290.423
-336.027
-309.827
331.802
-128.813
0.407241
469.12
-152.503
-5.04195
102.813
-334.083
22.4937
79.7784
116.107
85.3134
118.577
98.1509
93.9376
89.2919
14.9418
-6.66572
96.6813
-34.8511
5.153
6.34096
14.6915
6.52121
5.07723
-6.24963
-71.1579
81.766
-27.8526
5.85513
3.45172
5.36615
3.74392
0.85773
-16.999
-102.45
108.119
-0.994649
17.4086
-3.73554
1.14686
-3.35389
-5.65371
-9.90407
-98.7288
104.331
17.6744
10.8555
-7.16914
-4.94275
-6.46204
-7.66771
-7.27907
-116.554
121.973
26.4141
8.39305
-9.53735
-6.93202
-8.81047
-6.76445
-4.26016
-118.709
121.526
24.2175
4.66412
-7.61754
-6.06779
-6.989
-4.38476
-1.48107
-124.258
123.135
19.9042
2.08781
-5.74137
-3.92531
-5.3367
-2.56051
-0.343701
-116.008
114.205
13.911
0.667848
-3.98139
-2.1665
-3.72416
370.528
47.3834
12.8499
-3.86737
-11.8909
-1.0208
-9.38562
-108.353
-104.117
-97.6974
-93.6429
346.493
28.9755
24.9309
320.64
32.7894
21.3728
308.345
28.6988
6.4505
302.827
28.2861
8.74596
13.5492
2.80758
-494.642
-1440.6
71.5795
215.238
-934.902
-810.258
618.636
-482.449
-51.7096
698.316
-191.79
168.988
613.4
-75.0203
162.793
452.391
-176.71
19.5515
360.754
115.048
24.6256
16.4374
-31.3934
12.5379
-30.8735
294.222
-143.06
12.0118
46.9351
56.7182
50.458
57.0468
283.657
90.2228
12.0543
0.287601
-38.5603
-1.62748
-35.975
293.088
-25.6778
23.826
-0.377905
4.17935
4.21405
7.43135
315.175
91.7679
9.45409
-22.4585
-38.0798
-20.0046
-34.8896
324.412
34.205
16.8578
-15.6899
-14.933
-11.6667
-11.5564
330.008
77.789
13.1223
-19.1786
-27.8997
-16.2724
-24.8664
324.918
41.5133
17.7586
-10.8325
-13.9692
-7.48399
-11.4148
314.882
55.2089
16.3833
303.498
40.5483
12.5487
297.258
39.7171
11.3332
296.449
30.7407
4.84064
302.152
21.111
7.94985
4.65652
3.54667
105.869
-942.88
-22.6019
606.782
-807.004
-601.787
847.312
-277.416
-529.316
834.816
-110.613
-51.3852
636.104
128.092
-27.5421
497.242
-56.7477
-23.1808
430.483
160.823
-7.40883
329.664
-42.7878
-12.8317
303.451
115.062
20.5673
272.132
8.37482
0.649873
275.881
86.3334
11.4055
273.372
35.1734
7.67359
280.149
69.3243
9.16513
278.692
42.4397
7.93171
280.83
52.2556
7.36192
284.036
37.6134
5.11736
292.283
32.5861
1.16032
303.143
21.8463
-4.03737
316.075
6.9184
-2.45643
-7.86306
-5.27685
610.829
958.538
2692.94
698.303
-364.119
-875.451
438.161
98.1157
-273.779
439.05
-56.2061
48.439
449.542
164.243
-98.7849
377.605
3.0966
7.0998
373.846
163.926
-17.5731
320.889
9.38606
-23.6565
319.811
113.64
3.56021
299.858
29.0881
-9.13166
303.774
80.2017
5.13714
297.782
42.6596
-4.31497
302.93
63.2163
3.32665
302.94
44.1919
-2.71324
307.376
48.4044
0.522368
310.806
36.311
-5.16645
319.039
26.4283
-8.4656
328.751
15.9629
-14.7223
340.367
-4.12884
-14.3311
-16.3157
-17.8852
433.672
904.289
-342.407
167.227
40.0765
-1220.73
141.444
128.842
-465.94
133.311
-15.5502
-90.6182
286.332
54.6119
-146.416
262.998
14.477
35.9908
324.076
109.644
-19.9027
294.914
41.6221
-10.283
322.71
89.8083
-9.14137
310.124
46.8
-15.7189
327.959
65.3516
-12.9068
328.772
46.0939
-18.2123
342.861
50.6203
-14.9951
349.99
40.0663
-17.6208
362.092
36.9752
-12.7648
373.634
26.9361
-13.0715
388.295
14.0448
-11.8985
401.539
6.07666
-12.9197
410.945
-10.7665
-13.8428
-18.2767
-21.8573
-371.165
372.703
594.408
-432.994
338.606
-723.99
76.6906
132.136
-1055.87
146.435
-14.2401
-108.065
365.736
-72.9909
-81.9708
344.334
24.8288
23.5689
408.703
57.2551
-1.02057
399.325
58.6481
-30.8459
427.942
67.4607
-15.4572
433.761
52.8056
-36.6263
453.476
50.458
-25.6278
466.666
40.0776
-38.2785
484.351
34.0301
-30.1836
501.272
25.8995
-35.4397
519.438
17.9393
-27.8883
536.789
9.43959
-31.5661
549.642
1.27383
-24.3092
558.13
0.210138
-15.57
554.938
-4.67835
-11.6096
-5.81442
-25.6989
1155
1338.7
-2150.46
954.506
468.903
-367.494
716.135
214.774
4.60191
579.095
69.279
123.535
418.643
52.7203
138.968
383.839
92.1901
2.93713
414.441
71.7502
-27.6192
439.869
88.0406
-72.0782
491.59
68.7183
-78.1135
525.442
69.1222
-87.8308
566.377
45.6213
-69.2411
600.013
36.6674
-64.2864
630.948
20.1389
-40.2634
654.346
15.6933
-36.8281
670.683
9.31945
-16.0163
680.907
8.40016
-5.59717
684.132
6.81043
1.73088
684.893
9.69205
9.83982
680.078
9.07237
19.4426
11.2966
2.82263
-10.5296
12.2703
887.186
813.992
1079.31
688.964
1099.19
190.398
953.736
283.948
928.922
202.34
888.895
267.591
903.874
218.671
909.869
204.629
942.583
146.165
961.319
120.449
987.109
73.7629
1000.48
57.2914
1012.65
20.4378
1015.95
9.6708
1018.21
-0.18514
1014.65
-1.3834
1013.04
2.32329
1008.35
16.8033
22.136
627.264
-163.38
1520.56
366.096
-226.948
762.815
632.207
-179.27
65.0048
823.798
-53.6361
27.2942
831.614
152.88
-79.6614
963.622
15.3453
-25.2556
986.072
80.9816
-13.7436
1036.7
9.36554
-24.1739
988.608
54.4166
30.0905
959.071
50.2858
68.7965
901.446
103.118
156.108
869.424
92.9459
102.988
805.748
74.7395
49.0818
755.144
42.7151
-5.16195
713.031
22.0409
-6.0663
683.685
10.1429
-2.21794
666.121
5.85709
9.63531
657.197
3.58092
9.41181
651.481
7.24577
9.19687
4.95717
5.1454
1679.97
161.021
4346.36
283.593
119.795
622.653
-242.921
-175.625
-13.0872
-200.938
-158.663
212.867
37.081
-109.389
-159.43
100.078
-98.2003
-168.96
204.119
-60.2045
-226.263
245.32
-71.5714
-221.305
284.582
-22.4379
-177.585
307.779
-6.12462
-169.52
336.089
44.1071
-77.6373
357.216
48.7086
-54.0386
361.601
48.9987
-3.09236
355.163
37.6677
2.87364
345.381
29.3253
31.5226
339.072
25.7447
30.3202
334.111
24.585
31.9353
331.587
21.1335
16.9765
326.905
20.71
10.3556
10.3017
-11.1953
142.661
-90.794
3468.2
-263.795
-149.796
215.722
-397.415
-310.635
-277.422
-302.579
-276.96
84.2869
-167.641
-265.665
-113.807
-158.496
-142.49
-38.198
-35.8849
-154.957
-71.0915
-27.3282
-97.271
-52.9145
54.7477
-85.488
-43.22
80.7649
-40.5186
-32.8233
131.579
-12.6592
8.44495
159.078
19.076
-3.35958
182.895
23.6612
24.1631
192.156
32.3239
16.6568
198.613
27.923
21.8121
201.131
29.4415
11.6089
203.697
25.2616
9.56806
205.242
21.329
-0.48862
207.882
15.7426
4.93844
5.94258
0.0973323
-87.4363
-269.608
1387.44
-239.339
-230.186
67.0311
-360.987
-360.11
-283.036
-318.653
-293.082
128.257
-233.536
-352.242
-82.6946
-243.582
-152.091
50.2163
-157.184
-271.282
-61.5758
-161.804
-98.5208
-0.0808466
-44.105
-185.945
-50.5997
-21.5336
-63.9481
-16.43
53.2758
-75.9567
-7.64592
73.3331
-5.86812
-1.38814
103.768
-10.5295
19.1889
115.915
21.0095
4.3396
132.228
12.3228
10.2426
142.104
21.3607
3.93575
153.982
14.6975
4.76921
162.739
14.2541
0.465244
171.514
6.0579
8.5062
1.21174
5.07714
-542.559
-370.561
-580.848
-526.607
-484.568
-224.435
-302.505
-414.186
-239.944
-216.171
-398.248
138.768
-176.127
-398.734
-39.7185
-204.863
-161.913
26.6892
-116.875
-351.794
-30.2784
-121.828
-99.5
28.6193
-10.6045
-244.28
2.66285
17.8281
-76.4605
25.8946
76.9546
-121.944
29.4794
92.6436
-18.6144
8.96666
115.405
-33.9197
18.3667
125.525
12.0983
0.717144
139.516
-2.33392
6.86169
148.555
12.9291
-0.857458
158.893
3.99703
1.99756
167.883
6.17366
-2.97228
175.613
-3.16898
8.72522
-3.24581
3.50223
-269.347
-480.166
-176.178
-153.657
-543.418
-423.479
271.873
-533.234
-520.382
318.705
-447.715
-97.5066
262.099
-328.375
27.1579
235.74
-143.065
-38.9582
212.19
-325.954
36.5752
148.978
-13.9833
43.4873
134.569
-159.339
146.321
118.009
-2.47059
123.557
123.342
-94.7953
77.4352
119.395
-3.28942
22.6694
129.033
-41.4189
17.2516
135.96
5.75979
2.62752
148.75
-16.0554
3.53351
162.914
-2.7189
-4.5262
177.356
-14.3284
-1.03202
190.641
-9.22737
-6.03114
198.6
-12.9025
7.32157
-6.65623
2.86014
-171.615
-365.332
-1003.02
-225.082
-320.451
-627.708
-29.5019
-622.414
-528.567
-5.2724
-462.836
92.2247
236.272
-480.35
20.3508
169.281
-94.056
-47.424
217.136
-77.4415
45.7052
-105.411
-80.1523
-105.213
193.096
-6.89707
3.20771
10.9155
1.44187
12.561
178.67
-21.3493
88.1441
-38.4673
-25.9998
-41.2686
157.138
14.4614
103.581
18.7851
14.4261
16.0368
162.411
-3.62077
111.425
-21.2201
-8.2738
-23.5564
165.472
8.77287
50.7016
3.17582
7.691
0.739252
171.972
-2.48508
20.9302
-14.9572
-4.73467
-16.4604
179.087
6.67104
4.37172
-4.34232
5.67081
-5.11601
195.318
-33.8641
9.37979
213.054
-23.5768
-0.471038
227.423
-30.4613
-1.607
237.99
-20.265
-4.08396
239.549
-16.0926
5.7624
-5.25017
-1.44923
-132.189
-935.663
-6828.47
9.22892
-455.865
-948.049
148.552
-799.859
-837.194
247.22
-633.01
-151.454
317.801
-537.149
-8.83878
83.7831
-44.1731
-49.9173
81.8873
67.2985
64.6278
-9.3161
-35.4457
-3.7738
11.2083
72.0378
-61.2457
-15.6588
18.9271
-45.0484
54.0187
-21.6361
-13.1585
-0.476096
-61.4017
52.1613
-12.8585
1.2258
-23.1323
-40.0036
46.5043
8.28639
22.8066
-29.0681
-52.1114
48.7852
3.99083
24.7827
-19.8257
-42.6809
49.5541
4.9988
16.7266
-7.07263
-51.7993
52.6562
-1.06905
4.79965
-0.223959
-49.1445
55.0897
0.867904
0.0818885
228.493
-7.11857
-6.05535
-55.0956
-60.8474
-47.9441
-53.6315
-16.6018
-7.98256
-16.4317
246.016
-43.0263
5.84173
254.214
-38.5019
3.92452
258.437
-24.6538
-4.15048
251.295
-11.5567
2.07892
-1.83638
-9.21295
797.205
-466.378
-1074.04
615.494
-585.778
-402.234
273.455
-400.268
-178.605
205.742
-526.954
-17.6262
59.1809
-461.882
99.2023
50.9194
44.3756
36.1859
4.95125
86.5407
-67.6855
-8.79874
-2.60153
11.5327
-27.7258
27.4605
-10.3405
1.67468
-0.0986884
-23.1143
6.85779
22.9414
-6.93887
0.352597
-2.73674
-21.7928
0.727939
21.3104
0.363525
2.12773
-4.56184
-16.3851
-2.61849
16.7354
2.30927
4.5207
-6.67752
-16.3707
-3.07914
16.8809
2.66532
6.58112
-6.39781
-14.8364
-2.47766
15.7913
2.08986
5.83069
-2.03654
-16.2374
-1.05724
17.1552
0.679618
1.49637
0.967213
-16.4488
-0.0134004
17.3857
-0.767499
-1.12318
-17.4939
4.62181
71.7048
-9.42488
-3.90018
-18.4308
-16.6665
-17.5288
259.406
-46.2498
3.50832
-67.9136
-73.6546
-59.4523
-63.9276
254.57
-37.8666
1.43508
249.113
-21.7398
-8.29379
238.75
-5.57926
0.13199
0.505254
-12.2611
35.9331
-633.641
1054.7
452.385
-387.381
-561.948
555.463
-253.102
66.9572
471.691
-417.673
-42.6384
100.271
-333.298
56.115
95.2399
81.142
76.5923
25.0821
84.067
105.565
-87.4582
-26.9847
1.74259
15.1602
-28.2571
29.7296
-16.0441
-2.33121
6.78788
7.13908
-29.8617