/*--------------------------------*- C++ -*----------------------------------*\
  =========                 |
  \\      /  F ield         | OpenFOAM: The Open Source CFD Toolbox
   \\    /   O peration     | Website:  https://openfoam.org
    \\  /    A nd           | Version:  10
     \\/     M anipulation  |
\*---------------------------------------------------------------------------*/
FoamFile
{
    format      ascii;
    class       volScalarField;
    location    "6.2";
    object      turbidity;
}
// * * * * * * * * * * * * * * * * * * * * * * * * * * * * * * * * * * * * * //

dimensions      [0 0 0 0 0 0 0];

internalField   nonuniform List<scalar> 
12920
(
-0.0333997
-0.0421819
-0.0582311
-0.0839872
-0.106194
-0.125374
-0.139931
-0.15053
-0.154958
-0.158771
-0.167507
-0.185948
-0.20709
-0.221985
-0.237067
-0.258636
-0.291251
-0.334591
-0.385195
-0.434514
-0.0558323
-0.0578553
-0.0641394
-0.0964271
-0.12375
-0.142934
-0.166115
-0.181327
-0.196159
-0.208725
-0.227709
-0.251616
-0.284035
-0.321274
-0.363254
-0.408986
-0.455449
-0.493955
-0.516001
-0.516116
-0.0409646
-0.0525004
-0.0589475
-0.0897835
-0.122952
-0.155341
-0.202428
-0.238168
-0.273643
-0.2966
-0.322006
-0.351633
-0.388637
-0.432538
-0.482572
-0.533812
-0.580614
-0.618758
-0.647922
-0.675424
-0.0380832
-0.0615943
-0.0640314
-0.108742
-0.145869
-0.193214
-0.230276
-0.268524
-0.301617
-0.328177
-0.360084
-0.394557
-0.439472
-0.491095
-0.54941
-0.609229
-0.666505
-0.718087
-0.76453
-0.805617
-0.0232572
-0.0379148
-0.0535924
-0.0823519
-0.115589
-0.162101
-0.196207
-0.247751
-0.280649
-0.333727
-0.374546
-0.41245
-0.45482
-0.502504
-0.553196
-0.601541
-0.644173
-0.679838
-0.708581
-0.731098
-0.0176439
-0.0269302
-0.0424344
-0.0588233
-0.0755098
-0.0925023
-0.107328
-0.127597
-0.160715
-0.233914
-0.324627
-0.400347
-0.456332
-0.500871
-0.535061
-0.557335
-0.573148
-0.587617
-0.600376
-0.616433
-0.0461235
-0.0433023
-0.0531785
-0.073599
-0.0888085
-0.0991989
-0.108838
-0.121656
-0.141508
-0.184673
-0.252732
-0.33758
-0.404113
-0.449026
-0.471147
-0.473616
-0.460967
-0.448053
-0.446179
-0.458523
-0.017206
-0.0302201
-0.0449915
-0.0646797
-0.0863789
-0.101967
-0.101389
-0.102761
-0.113587
-0.14006
-0.179761
-0.232259
-0.297008
-0.337894
-0.283686
-0.277658
-0.26628
-0.267119
-0.282658
-0.309368
-0.0105334
-0.0228452
-0.036512
-0.0575517
-0.0824946
-0.0854156
-0.0860678
-0.0822588
-0.0847476
-0.100382
-0.114533
-0.136506
-0.190649
-0.223052
-0.192552
-0.15277
-0.176104
-0.203544
-0.239148
-0.281296
-0.0206272
-0.0306735
-0.0439721
-0.0602803
-0.0801482
-0.0824144
-0.0872173
-0.090568
-0.0857748
-0.0797601
-0.0778667
-0.089865
-0.132646
-0.151804
-0.131284
-0.13735
-0.163318
-0.193797
-0.231782
-0.275498
-0.0313199
-0.0418581
-0.0578293
-0.0811392
-0.111211
-0.114486
-0.112557
-0.104605
-0.097284
-0.0841665
-0.0787118
-0.088166
-0.115868
-0.123832
-0.115557
-0.123839
-0.151967
-0.185843
-0.227804
-0.273768
-0.0213452
-0.0354509
-0.0542766
-0.086466
-0.129303
-0.141835
-0.145518
-0.122767
-0.1092
-0.0978169
-0.0913559
-0.0992151
-0.110764
-0.108392
-0.104164
-0.122595
-0.160663
-0.205812
-0.254125
-0.301953
-0.0256111
-0.0416343
-0.072443
-0.10856
-0.143758
-0.172647
-0.167191
-0.159667
-0.146102
-0.131498
-0.127209
-0.126974
-0.124805
-0.119807
-0.145192
-0.185195
-0.236741
-0.293595
-0.347601
-0.399804
-0.0410738
-0.0481159
-0.0602248
-0.0896637
-0.127979
-0.169818
-0.207934
-0.242593
-0.24559
-0.253594
-0.247125
-0.253057
-0.257496
-0.276672
-0.30806
-0.356936
-0.412083
-0.469338
-0.523423
-0.576002
-0.0442388
-0.0815646
-0.0888922
-0.104381
-0.117003
-0.13535
-0.178175
-0.219874
-0.261751
-0.299333
-0.321257
-0.346525
-0.368522
-0.40086
-0.436331
-0.476199
-0.512673
-0.541646
-0.561948
-0.576426
-0.0385989
-0.0588388
-0.0943003
-0.122888
-0.129233
-0.150046
-0.181732
-0.218609
-0.267183
-0.312514
-0.354217
-0.391989
-0.425097
-0.455405
-0.480411
-0.496522
-0.503561
-0.502297
-0.494172
-0.490097
-0.0273675
-0.0455617
-0.0867871
-0.128492
-0.139848
-0.170846
-0.20199
-0.239819
-0.283942
-0.324029
-0.361718
-0.392491
-0.419679
-0.441958
-0.462416
-0.476768
-0.483733
-0.484424
-0.476268
-0.466029
-0.027871
-0.0478613
-0.0685142
-0.100527
-0.132832
-0.164398
-0.201569
-0.234467
-0.273044
-0.300886
-0.325956
-0.341065
-0.355317
-0.363076
-0.369694
-0.374276
-0.379221
-0.387847
-0.397351
-0.405581
-0.0263552
-0.0392454
-0.0598911
-0.092058
-0.132437
-0.175552
-0.210791
-0.234326
-0.259484
-0.278939
-0.299609
-0.31535
-0.330974
-0.342721
-0.354827
-0.364994
-0.374679
-0.386169
-0.399912
-0.414657
-0.0375301
-0.0410582
-0.0562304
-0.0767489
-0.0994414
-0.129684
-0.160257
-0.192337
-0.220176
-0.244467
-0.264562
-0.281272
-0.294775
-0.30525
-0.312642
-0.317336
-0.32219
-0.330796
-0.344501
-0.361549
-0.00567508
-0.016772
-0.0323991
-0.0379901
-0.0440566
-0.0488698
-0.052115
-0.0529015
-0.0576503
-0.0681468
-0.0786914
-0.0758465
-0.0577461
-0.0399151
-0.0293279
-0.0249046
-0.0255818
-0.0309371
-0.0415578
-0.0555478
-0.0066287
-0.00938581
-0.0133271
-0.0211816
-0.0275001
-0.0305448
-0.0335889
-0.035554
-0.0389632
-0.04243
-0.0490656
-0.0552745
-0.0669251
-0.0863698
-0.114563
-0.137003
-0.141578
-0.126545
-0.0966869
-0.0662385
-0.0191103
-0.00593322
-0.00861041
-0.0167062
-0.0286454
-0.0368227
-0.0485346
-0.0513381
-0.0566688
-0.0615657
-0.0715881
-0.0841657
-0.101229
-0.112338
-0.115583
-0.105352
-0.0884775
-0.0722748
-0.0666825
-0.0719571
-0.00923837
-0.00892457
-0.00862533
-0.0236431
-0.0291426
-0.0384301
-0.0497677
-0.0502881
-0.0570986
-0.0576398
-0.0660715
-0.0759541
-0.0896501
-0.0976115
-0.102612
-0.10227
-0.102569
-0.103075
-0.107258
-0.113541
-0.0082988
-0.0157977
-0.015334
-0.0149785
-0.0231433
-0.0422225
-0.0648164
-0.0836709
-0.100737
-0.0920187
-0.0885885
-0.0837635
-0.0863072
-0.0862696
-0.0891333
-0.0910955
-0.0963982
-0.102996
-0.11153
-0.117072
-0.00214395
-0.00388997
-0.00597577
-0.00778658
-0.0119993
-0.0207368
-0.0367142
-0.0630213
-0.0988703
-0.119583
-0.114614
-0.0955416
-0.0830263
-0.0755067
-0.0740056
-0.0777111
-0.0858878
-0.0984393
-0.11621
-0.133007
-0.00493324
-0.00448658
-0.00808094
-0.0124507
-0.0186794
-0.0225059
-0.0316441
-0.0481035
-0.0719648
-0.100583
-0.114209
-0.104203
-0.0821338
-0.0666463
-0.0610901
-0.0624683
-0.0689632
-0.0799528
-0.0958884
-0.113826
-0.00190599
-0.00582143
-0.0120375
-0.0143953
-0.0180744
-0.0205932
-0.0240557
-0.0377987
-0.0574176
-0.0883417
-0.113612
-0.118898
-0.0897338
-0.0599947
-0.0531875
-0.06172
-0.0677616
-0.0715977
-0.0767971
-0.0827252
-0.00264026
-0.0092045
-0.0197618
-0.0226712
-0.0260422
-0.0246266
-0.0283458
-0.035653
-0.0566363
-0.0708761
-0.0933385
-0.118367
-0.0975919
-0.0508129
-0.0459357
-0.0549922
-0.0584641
-0.0594307
-0.0604258
-0.0614486
-0.00258314
-0.0128367
-0.0185774
-0.0186713
-0.0263122
-0.0275935
-0.0305847
-0.0275348
-0.0309671
-0.0475703
-0.0732844
-0.103677
-0.0863628
-0.0459851
-0.0430186
-0.0465648
-0.0501908
-0.0526932
-0.0543408
-0.0553402
-0.0270107
-0.0295296
-0.0351383
-0.0368496
-0.0460672
-0.0414135
-0.0338497
-0.031081
-0.0359112
-0.0481487
-0.0706875
-0.0951561
-0.0834676
-0.0593002
-0.0419537
-0.0390163
-0.0465733
-0.0528723
-0.056471
-0.0575703
-0.00638839
-0.0193648
-0.0361806
-0.0458089
-0.0639426
-0.0648748
-0.0598437
-0.0509114
-0.0481481
-0.0583559
-0.0789368
-0.0914764
-0.0817468
-0.0613054
-0.0352893
-0.0466459
-0.0572389
-0.0596728
-0.0586564
-0.0590518
-0.0210876
-0.014794
-0.0266376
-0.0265897
-0.0359618
-0.0377741
-0.0508951
-0.0785502
-0.0920425
-0.0867594
-0.0806175
-0.0744934
-0.0669254
-0.0560935
-0.0594713
-0.0745111
-0.0815966
-0.0785901
-0.0751687
-0.0773596
-0.0213535
-0.0217498
-0.0369432
-0.0365099
-0.037443
-0.0352633
-0.0482419
-0.0595516
-0.065216
-0.0611095
-0.0588257
-0.0613551
-0.069766
-0.084241
-0.100698
-0.113066
-0.120481
-0.123722
-0.126472
-0.131667
-0.0513322
-0.0165322
-0.020167
-0.0272884
-0.0260478
-0.0265631
-0.0381966
-0.0454566
-0.0573959
-0.0575352
-0.0623939
-0.0702268
-0.0806187
-0.0899273
-0.0946958
-0.0941857
-0.0883444
-0.0812925
-0.0758491
-0.0740297
-0.0176605
-0.0121144
-0.0131981
-0.025994
-0.0201817
-0.0210712
-0.0295899
-0.0359564
-0.0474228
-0.0515904
-0.0581771
-0.0600949
-0.0628335
-0.0603808
-0.0573817
-0.0518085
-0.0466403
-0.0428174
-0.0407413
-0.0421588
-0.00470359
-0.00993956
-0.0154149
-0.0189246
-0.0188945
-0.0255082
-0.0319461
-0.0388992
-0.0456367
-0.0472841
-0.0485181
-0.0477279
-0.0471555
-0.0456381
-0.0442745
-0.0422908
-0.0401679
-0.0384355
-0.0375713
-0.0384105
-0.00338461
-0.0134548
-0.0206058
-0.0317
-0.0425131
-0.0379635
-0.0411637
-0.0392321
-0.0396301
-0.0383665
-0.0373809
-0.0358449
-0.0352584
-0.0349797
-0.0356112
-0.0368893
-0.038902
-0.0411836
-0.0433255
-0.0447306
-0.00353364
-0.0127677
-0.0238055
-0.0321033
-0.0453058
-0.0351497
-0.0309291
-0.0293359
-0.0317838
-0.0350028
-0.0402415
-0.0465259
-0.0548855
-0.0643974
-0.0752191
-0.086008
-0.0934384
-0.0975748
-0.0982613
-0.0877201
-0.00226479
-0.0214728
-0.0193358
-0.0162143
-0.0242528
-0.0406719
-0.0636755
-0.0819027
-0.0980314
-0.107
-0.112713
-0.110183
-0.102408
-0.0870823
-0.0706072
-0.0572391
-0.0480561
-0.0442849
-0.049702
-0.064295
-0.0100448
-0.0134567
-0.0125393
-0.0116846
-0.0137255
-0.018694
-0.0231963
-0.0275455
-0.0335452
-0.0398882
-0.0426853
-0.0363802
-0.0265845
-0.0201404
-0.0176284
-0.0176094
-0.0190718
-0.0213673
-0.023887
-0.0260845
-0.000417675
-0.00364044
-0.00787138
-0.0124166
-0.0148979
-0.0171015
-0.019436
-0.0210759
-0.0237523
-0.0258649
-0.0290654
-0.0327086
-0.0391038
-0.0466461
-0.0536814
-0.0548211
-0.0487381
-0.0388843
-0.0300365
-0.0254124
-0.0029423
-0.00458094
-0.0067548
-0.0114647
-0.016186
-0.0198419
-0.023897
-0.0259928
-0.0289318
-0.0316392
-0.0357166
-0.0392133
-0.0422871
-0.0413383
-0.0377472
-0.0320224
-0.0275387
-0.0254136
-0.0262428
-0.0293883
-0.0186517
-0.00752776
-0.00649673
-0.0112159
-0.0149881
-0.0190038
-0.0238786
-0.024511
-0.0277085
-0.0288655
-0.031564
-0.0330163
-0.0342029
-0.0331886
-0.0320093
-0.0306025
-0.0303079
-0.0305265
-0.0316569
-0.0332147
-0.00594724
-0.00419392
-0.00473683
-0.00853608
-0.0144648
-0.0221473
-0.0330405
-0.0362318
-0.0413482
-0.0356476
-0.0341521
-0.0323443
-0.0320158
-0.0312171
-0.0315602
-0.0318221
-0.0328019
-0.0335418
-0.0344009
-0.0346122
-0.00334584
-0.00288548
-0.00480957
-0.00749605
-0.0122337
-0.0194858
-0.0308136
-0.0443038
-0.0587502
-0.0534572
-0.0427177
-0.0345355
-0.0322746
-0.0324787
-0.0343304
-0.0364886
-0.0391134
-0.0414995
-0.0440738
-0.0448338
-0.00387667
-0.00429551
-0.00663529
-0.00958094
-0.0132919
-0.017555
-0.0223878
-0.0328371
-0.0444663
-0.0517037
-0.0480265
-0.0389992
-0.034551
-0.0352166
-0.0388145
-0.0425053
-0.0461497
-0.0493315
-0.0521039
-0.052692
-0.0012278
-0.00468355
-0.00728243
-0.00809995
-0.00915591
-0.0116945
-0.0135147
-0.0232694
-0.0347082
-0.0493424
-0.0525737
-0.0423917
-0.034503
-0.0359908
-0.0441639
-0.0470435
-0.0473376
-0.0457807
-0.0434849
-0.0397913
-0.00174341
-0.00766034
-0.0118046
-0.0113512
-0.0120554
-0.0114952
-0.0135618
-0.0189853
-0.0271686
-0.0378192
-0.0491417
-0.0460671
-0.0342505
-0.0369701
-0.0447553
-0.0387036
-0.0348918
-0.0308114
-0.0276437
-0.0248887
-0.00290074
-0.00497482
-0.00831904
-0.0115665
-0.0143488
-0.013943
-0.0136321
-0.0136369
-0.0177839
-0.0297162
-0.0418737
-0.0394
-0.0279825
-0.0297747
-0.0339238
-0.033063
-0.0315876
-0.0284639
-0.0253331
-0.0227741
-0.0119605
-0.0180679
-0.0226472
-0.0219352
-0.0240195
-0.0203424
-0.0181781
-0.017377
-0.0196899
-0.0279222
-0.0338265
-0.0301687
-0.0230721
-0.022703
-0.0274158
-0.0366958
-0.036501
-0.0328419
-0.0285395
-0.0248272
-0.0063655
-0.014867
-0.0237912
-0.0230244
-0.0294516
-0.0276543
-0.0281092
-0.0276193
-0.026816
-0.0307986
-0.0329539
-0.0295484
-0.0250053
-0.0222268
-0.0311193
-0.039307
-0.0350574
-0.0287489
-0.0241988
-0.021755
-0.0106748
-0.00882825
-0.0114848
-0.0125671
-0.0162467
-0.0188264
-0.024639
-0.0376197
-0.0427873
-0.0391494
-0.0346771
-0.0312507
-0.0290436
-0.0322994
-0.0421292
-0.0406919
-0.0347319
-0.0280277
-0.024038
-0.0228406
-0.0268479
-0.0121933
-0.0169905
-0.0165328
-0.0166374
-0.0168474
-0.0224884
-0.0252173
-0.0271478
-0.027572
-0.029715
-0.0344406
-0.0400156
-0.0451591
-0.0468927
-0.0449336
-0.0420732
-0.0391988
-0.0371857
-0.0364117
-0.0168657
-0.0127275
-0.00975987
-0.0107722
-0.0117682
-0.013371
-0.0186035
-0.0205342
-0.0241197
-0.0256575
-0.0293575
-0.0329032
-0.0360392
-0.0367666
-0.0358327
-0.0334203
-0.03075
-0.0286977
-0.027513
-0.0274641
-0.0120367
-0.0109003
-0.00849192
-0.00922827
-0.0100954
-0.0123616
-0.0164601
-0.0187181
-0.0218148
-0.0226103
-0.02444
-0.0245182
-0.0249307
-0.0238522
-0.0229502
-0.0218087
-0.0211574
-0.0210277
-0.0214608
-0.0227448
-0.00509733
-0.00800022
-0.0102511
-0.0106239
-0.0113793
-0.0142201
-0.01665
-0.0178983
-0.0189606
-0.0185695
-0.0187152
-0.0183526
-0.0183365
-0.0181207
-0.0181472
-0.0182292
-0.0185631
-0.0192009
-0.0201952
-0.0215754
-0.00297478
-0.00861433
-0.0121277
-0.0135654
-0.0146599
-0.0142807
-0.015169
-0.0149375
-0.0150679
-0.0147645
-0.0148129
-0.0149281
-0.0154207
-0.0160462
-0.0169096
-0.0179039
-0.019072
-0.0203259
-0.0217248
-0.0230863
-0.00626364
-0.00923959
-0.0143292
-0.0159076
-0.0178546
-0.0151588
-0.0165343
-0.0168815
-0.0184421
-0.0188881
-0.0205303
-0.0217104
-0.0235917
-0.0254076
-0.0272214
-0.0285866
-0.0294127
-0.0299137
-0.0301389
-0.0289616
-0.00466745
-0.00952247
-0.00999372
-0.0119273
-0.0192312
-0.0301499
-0.0452382
-0.0574828
-0.0667892
-0.0688869
-0.0655931
-0.0563426
-0.0452209
-0.0337078
-0.0249688
-0.0194853
-0.0171723
-0.0178625
-0.0217507
-0.0282335
-0.00845909
-0.00898158
-0.00612123
-0.00417918
-0.0039453
-0.0058945
-0.00972527
-0.0141673
-0.018588
-0.0207468
-0.0202712
-0.0167711
-0.0146368
-0.014991
-0.0168318
-0.018955
-0.0206957
-0.0218339
-0.0223387
-0.0222955
-0.00209748
-0.00377287
-0.0058522
-0.00869463
-0.00897684
-0.0113587
-0.0131052
-0.0145595
-0.0159688
-0.0170363
-0.0186615
-0.0206313
-0.0229417
-0.0242565
-0.024503
-0.0226739
-0.0201479
-0.0180932
-0.017181
-0.0171462
-0.00339546
-0.00345852
-0.00578998
-0.00951445
-0.0123183
-0.0147089
-0.0163827
-0.0173373
-0.0183138
-0.0188225
-0.0195293
-0.0192793
-0.0187792
-0.0171542
-0.0157044
-0.0144959
-0.0140873
-0.0142807
-0.0150277
-0.016206
-0.00928534
-0.00603258
-0.00677272
-0.00978546
-0.0120699
-0.014329
-0.0157185
-0.0162189
-0.0167059
-0.0164657
-0.0163271
-0.0156727
-0.0152247
-0.0145339
-0.0143295
-0.0143558
-0.0148219
-0.0154529
-0.0163662
-0.0174533
-0.000859889
-0.00313567
-0.00524575
-0.00801949
-0.0114696
-0.0146608
-0.0182119
-0.0182775
-0.019326
-0.0173679
-0.0166515
-0.0155968
-0.015189
-0.0147878
-0.0149792
-0.0151648
-0.0156491
-0.0161276
-0.0167545
-0.0173903
-0.00121294
-0.00203574
-0.00434213
-0.00641137
-0.0105334
-0.01447
-0.0198658
-0.0232207
-0.0264022
-0.0217773
-0.0187044
-0.0168558
-0.0165765
-0.0164521
-0.0166715
-0.0167738
-0.0169494
-0.0170719
-0.0173329
-0.0173867
-0.00218941
-0.00418011
-0.00643948
-0.00785971
-0.00990557
-0.0117806
-0.0139648
-0.0186255
-0.0227702
-0.0232301
-0.021417
-0.0195102
-0.0194106
-0.0198357
-0.0206271
-0.0205782
-0.0202835
-0.0197992
-0.019392
-0.018589
-0.000993454
-0.00385279
-0.00527691
-0.00594921
-0.00644863
-0.00815033
-0.00901251
-0.015035
-0.0187836
-0.0230181
-0.0225377
-0.0214125
-0.0219799
-0.0239531
-0.0224924
-0.0213947
-0.0191406
-0.0167323
-0.0150062
-0.0137662
-0.00419476
-0.00724165
-0.00790863
-0.00789822
-0.00820351
-0.00808159
-0.00881778
-0.0110998
-0.0152004
-0.020315
-0.0229654
-0.0237405
-0.0251789
-0.027619
-0.0244732
-0.0142577
-0.0121742
-0.010787
-0.0101087
-0.0100528
-0.00619371
-0.00554685
-0.00778731
-0.00947092
-0.0102408
-0.00984251
-0.00963041
-0.00999643
-0.0125071
-0.0168684
-0.0200306
-0.0222224
-0.0235456
-0.0227661
-0.0181475
-0.0120595
-0.0107182
-0.00978757
-0.00958201
-0.00993515
-0.00325465
-0.0106537
-0.0157402
-0.0139637
-0.0140872
-0.0129199
-0.0125258
-0.0125013
-0.013302
-0.0149948
-0.0168012
-0.0184645
-0.0190112
-0.0188216
-0.0190985
-0.0144439
-0.0123926
-0.0107722
-0.0102746
-0.0105411
-0.0118246
-0.00983349
-0.0115277
-0.0128934
-0.015061
-0.0151252
-0.0162082
-0.0171021
-0.0164724
-0.0161913
-0.0160394
-0.0158534
-0.0162907
-0.0186889
-0.021165
-0.0136706
-0.0114334
-0.0101086
-0.010105
-0.0107966
-0.00506899
-0.00593986
-0.00692861
-0.00851881
-0.0103618
-0.0120517
-0.014691
-0.0190812
-0.0196223
-0.0180584
-0.0169909
-0.0176004
-0.019728
-0.0217065
-0.0154915
-0.0132241
-0.0112396
-0.0102845
-0.0104471
-0.0112663
-0.00983165
-0.00861854
-0.00864558
-0.00965295
-0.0104671
-0.0112724
-0.0134029
-0.0139244
-0.0145286
-0.0155103
-0.0164125
-0.0173308
-0.0174534
-0.0167526
-0.0153274
-0.0138183
-0.0130818
-0.0127377
-0.0128607
-0.0134822
-0.0198856
-0.0123566
-0.00807645
-0.00790985
-0.00869972
-0.00983697
-0.0121739
-0.012409
-0.013593
-0.013908
-0.0147187
-0.0146297
-0.0143887
-0.0135051
-0.0127836
-0.0122222
-0.0120477
-0.0123055
-0.0129445
-0.0139934
-0.00780066
-0.00679952
-0.00646251
-0.00718575
-0.00800214
-0.00930868
-0.0110588
-0.0114705
-0.0123796
-0.0122019
-0.012467
-0.0120462
-0.01191
-0.0116384
-0.0116789
-0.0119748
-0.0125618
-0.0134031
-0.0144647
-0.0156702
-0.00300783
-0.00766986
-0.00911558
-0.00868492
-0.00886369
-0.00985232
-0.0104618
-0.0105729
-0.0108686
-0.0108086
-0.0109857
-0.0110779
-0.0112786
-0.0115391
-0.0119331
-0.0125004
-0.0132664
-0.014213
-0.0153353
-0.0165503
-0.00539928
-0.00866829
-0.0104851
-0.0109489
-0.0110622
-0.0103483
-0.0104298
-0.0100276
-0.00999651
-0.0100564
-0.010398
-0.0108582
-0.0114611
-0.0121082
-0.012816
-0.0135634
-0.0143792
-0.015227
-0.0161423
-0.0170364
-0.00428234
-0.00801895
-0.0111338
-0.012449
-0.016046
-0.0175309
-0.0200604
-0.018679
-0.0176462
-0.0150541
-0.0135492
-0.0127223
-0.0128837
-0.0135215
-0.0144004
-0.0153357
-0.0162658
-0.0172409
-0.0182299
-0.0191397
-0.00832569
-0.00785546
-0.0103489
-0.0149561
-0.0220244
-0.0305979
-0.039435
-0.0445677
-0.0452986
-0.0397258
-0.0318455
-0.0228611
-0.0161996
-0.0117923
-0.0099454
-0.00983759
-0.0110005
-0.0131089
-0.0159339
-0.0190319
-0.00960687
-0.00733675
-0.00533148
-0.00365846
-0.00300968
-0.00432986
-0.00666353
-0.00839581
-0.00988067
-0.0108766
-0.0125354
-0.0141635
-0.0155639
-0.0161056
-0.0158362
-0.015111
-0.0142873
-0.0136142
-0.0132663
-0.0132112
-0.000854423
-0.0029383
-0.00508439
-0.00729296
-0.00719892
-0.00940832
-0.0102045
-0.0114068
-0.0120435
-0.0126865
-0.0130207
-0.0129287
-0.0129897
-0.0128002
-0.0130346
-0.0133954
-0.0141686
-0.0152937
-0.0166545
-0.0181007
-0.00413309
-0.00304149
-0.00551422
-0.0093195
-0.0111707
-0.0122759
-0.0121897
-0.0117769
-0.0114447
-0.0110118
-0.0110208
-0.0109793
-0.0113372
-0.0118165
-0.0125829
-0.0134722
-0.0144239
-0.0153321
-0.0161396
-0.0167619
-0.0060873
-0.00464526
-0.00682632
-0.00954958
-0.0107781
-0.0112843
-0.0108019
-0.0105181
-0.0102728
-0.0101968
-0.0104441
-0.0107804
-0.0113675
-0.0120187
-0.0127672
-0.0135189
-0.0142619
-0.0149695
-0.0156502
-0.0162654
-0.00123783
-0.00273339
-0.00550211
-0.0081926
-0.00974267
-0.0106629
-0.0106809
-0.0105808
-0.0105142
-0.010318
-0.0105033
-0.0107849
-0.0113214
-0.0119182
-0.0126011
-0.0132894
-0.0140118
-0.0147485
-0.0155144
-0.0162271
-0.000369706
-0.00086287
-0.0030127
-0.00639858
-0.00881829
-0.0101431
-0.0110593
-0.0112987
-0.0116054
-0.0108418
-0.0106902
-0.0108304
-0.0112889
-0.0118359
-0.0124591
-0.0131395
-0.0138881
-0.0146999
-0.0155558
-0.0163419
-0.00129514
-0.00306826
-0.00491648
-0.00649618
-0.00793353
-0.00902009
-0.00997024
-0.0107608
-0.0113629
-0.0113051
-0.0110887
-0.0110717
-0.0113635
-0.0118471
-0.0124215
-0.012933
-0.0135699
-0.0143282
-0.0151409
-0.0158871
-0.00091526
-0.00337474
-0.00446037
-0.00593806
-0.00730335
-0.00843285
-0.00909521
-0.0107445
-0.0112224
-0.0119058
-0.0114087
-0.011051
-0.0108739
-0.011222
-0.0118644
-0.0123209
-0.0127677
-0.0134035
-0.0141066
-0.0147374
-0.00436977
-0.00598807
-0.00616332
-0.00744807
-0.00850031
-0.00862042
-0.0089053
-0.0106741
-0.0121888
-0.0130833
-0.0126479
-0.0109026
-0.00959032
-0.0091389
-0.00935867
-0.0111453
-0.0118094
-0.0124909
-0.0131482
-0.0136882
-0.00420137
-0.00510134
-0.00648554
-0.00841531
-0.00928558
-0.00957308
-0.00975038
-0.0105999
-0.0128765
-0.0146101
-0.0140474
-0.0106209
-0.00840793
-0.00757312
-0.00813215
-0.0107235
-0.011514
-0.0122608
-0.0129383
-0.0134951
-0.00869054
-0.00770277
-0.00977467
-0.0101667
-0.00997964
-0.01023
-0.0106292
-0.011643
-0.0129735
-0.0141278
-0.0131772
-0.0101504
-0.00804459
-0.00760712
-0.00806059
-0.0108508
-0.0117538
-0.0126367
-0.0134686
-0.0141835
-0.00657985
-0.0052928
-0.00797208
-0.0103496
-0.0101217
-0.0103523
-0.0100736
-0.0109124
-0.0115185
-0.0116007
-0.0104532
-0.00832645
-0.00701401
-0.00677344
-0.00771272
-0.0114277
-0.0126387
-0.0138148
-0.014886
-0.0157798
-0.00381029
-0.00490162
-0.00639003
-0.00820577
-0.00884156
-0.00888553
-0.0092725
-0.00969277
-0.00948905
-0.00896459
-0.0083134
-0.00773255
-0.00755079
-0.00785048
-0.0111379
-0.0123862
-0.0137424
-0.0151933
-0.0165807
-0.0177138
-0.00388426
-0.00724079
-0.00670527
-0.00750843
-0.00806296
-0.00814239
-0.00810498
-0.00779347
-0.00767589
-0.00809985
-0.00834814
-0.00893473
-0.00954804
-0.0104018
-0.0114502
-0.0127352
-0.014201
-0.015797
-0.0174183
-0.0187861
-0.0039521
-0.008657
-0.00780232
-0.00677118
-0.0073753
-0.00764474
-0.00779105
-0.00748588
-0.00756223
-0.0077316
-0.00813629
-0.00867665
-0.00943303
-0.0104019
-0.0116077
-0.0130117
-0.0145788
-0.0162487
-0.0179251
-0.0193195
-0.00249202
-0.00500245
-0.00532099
-0.00627404
-0.0070823
-0.00749423
-0.00756255
-0.00753611
-0.00764607
-0.00785772
-0.00827826
-0.00887322
-0.00969001
-0.0107049
-0.0119096
-0.013284
-0.014816
-0.016459
-0.0181489
-0.0195957
-0.0102751
-0.0114278
-0.00907486
-0.00800837
-0.00770125
-0.00774815
-0.00765836
-0.0077489
-0.00793572
-0.0082863
-0.00878311
-0.00945029
-0.0102695
-0.0112353
-0.0123458
-0.0135911
-0.0149897
-0.0165385
-0.018189
-0.0197561
-0.0171085
-0.0146324
-0.0123223
-0.0101918
-0.00886898
-0.00808816
-0.00799376
-0.0079248
-0.0081367
-0.00848384
-0.0089594
-0.00953318
-0.0102371
-0.0110624
-0.0120282
-0.013121
-0.0143476
-0.0157298
-0.0172442
-0.0187371
-0.00332784
-0.0094991
-0.0101825
-0.00948466
-0.0117263
-0.0118032
-0.0122371
-0.0101353
-0.00917865
-0.00867323
-0.00898777
-0.00959342
-0.0102398
-0.0108942
-0.0116
-0.012449
-0.013506
-0.0148515
-0.0164645
-0.0182787
-0.00492784
-0.00861699
-0.0113926
-0.0145012
-0.0197694
-0.0224901
-0.0245697
-0.0214447
-0.017488
-0.0122156
-0.00946481
-0.00812044
-0.00834333
-0.00914343
-0.0101699
-0.0111693
-0.0120902
-0.0130548
-0.0142903
-0.0158467
-0.0392968
-0.0278126
-0.0325562
-0.0188589
-0.0222377
-0.0172467
-0.0198068
-0.0423693
-0.0335141
-0.0331717
-0.0226637
-0.0229137
-0.0199916
-0.019431
-0.0330548
-0.0292105
-0.0325303
-0.0167696
-0.0179613
-0.0171565
-0.0172709
-0.0319824
-0.0327296
-0.0303216
-0.0180842
-0.0182873
-0.0172503
-0.0170898
-0.0830888
-0.0867265
-0.0877904
-0.0823946
-0.0804656
-0.0799509
-0.0730167
-0.0826307
-0.0877566
-0.0850236
-0.080345
-0.0856091
-0.0681062
-0.0601162
-0.0959513
-0.0834106
-0.0796478
-0.0890146
-0.0993025
-0.0617212
-0.0739227
-0.110946
-0.0793675
-0.0794245
-0.103374
-0.115558
-0.0774873
-0.0844864
-0.127385
-0.0798265
-0.0877756
-0.12111
-0.140227
-0.0878893
-0.107894
-0.175561
-0.0943088
-0.127494
-0.151092
-0.179677
-0.117167
-0.139352
-0.218285
-0.140451
-0.16271
-0.184816
-0.173427
-0.138779
-0.107733
-0.222242
-0.163539
-0.153726
-0.163965
-0.134087
-0.0960668
-0.0749575
-0.0904635
-0.0926062
-0.0959824
-0.0826185
-0.0746222
-0.086577
-0.0711471
-0.0875076
-0.0957451
-0.0919994
-0.0671278
-0.0520288
-0.0628325
-0.0515319
-0.0809413
-0.0900514
-0.0830442
-0.0517759
-0.0638352
-0.0517334
-0.0600204
-0.0778257
-0.0811092
-0.0777228
-0.0694307
-0.0801431
-0.0651457
-0.0786335
-0.084162
-0.0775524
-0.0823881
-0.0837752
-0.103098
-0.0824961
-0.098862
-0.120775
-0.0871063
-0.111344
-0.112027
-0.132087
-0.106007
-0.121695
-0.151522
-0.118958
-0.129516
-0.130763
-0.10158
-0.122038
-0.111173
-0.142683
-0.129489
-0.123189
-0.09177
-0.0760581
-0.107449
-0.101172
-0.10639
-0.126076
-0.117182
-0.0986021
-0.0681
-0.114825
-0.0802485
-0.0994121
-0.114015
-0.107887
-0.0606356
-0.053582
-0.0703024
-0.0618848
-0.0874406
-0.10635
-0.0985517
-0.0547528
-0.064024
-0.0637628
-0.0751968
-0.0789332
-0.0949698
-0.0877954
-0.0686033
-0.0807971
-0.0798485
-0.0914437
-0.0836653
-0.0873872
-0.0921323
-0.0844079
-0.0996996
-0.094803
-0.106784
-0.109602
-0.0957178
-0.108405
-0.106146
-0.120349
-0.110886
-0.118105
-0.124122
-0.111239
-0.112613
-0.121341
-0.115084
-0.11819
-0.112054
-0.11741
-0.11116
-0.104251
-0.112292
-0.105035
-0.108034
-0.090908
-0.128511
-0.157177
-0.147304
-0.138017
-0.100407
-0.153194
-0.146129
-0.111551
-0.142207
-0.12524
-0.0868577
-0.0707482
-0.14253
-0.130041
-0.100984
-0.119958
-0.109245
-0.0714531
-0.0811115
-0.124523
-0.114305
-0.091591
-0.107018
-0.104628
-0.0856188
-0.0965921
-0.113373
-0.114624
-0.0960859
-0.104954
-0.107964
-0.0996807
-0.109967
-0.11561
-0.118634
-0.108982
-0.109141
-0.11041
-0.113143
-0.117736
-0.119096
-0.117297
-0.110097
-0.109703
-0.105148
-0.117224
-0.109768
-0.115547
-0.105777
-0.101832
-0.103276
-0.0979831
-0.105101
-0.0859875
-0.100776
-0.083213
-0.0330008
-0.0263531
-0.0262379
-0.0233408
-0.0276327
-0.0223011
-0.0208556
-0.0509803
-0.026435
-0.0307588
-0.0299266
-0.0369085
-0.0209826
-0.0248829
-0.0664271
-0.0337462
-0.0468083
-0.0391368
-0.0447169
-0.0269405
-0.0336791
-0.0868488
-0.0527209
-0.0707161
-0.0488106
-0.0604451
-0.0362561
-0.0468263
-0.112366
-0.0766439
-0.0996323
-0.06389
-0.0669311
-0.0509181
-0.0577327
-0.110435
-0.107506
-0.104012
-0.0641732
-0.0491351
-0.0555669
-0.0390785
-0.0576089
-0.0904955
-0.0520773
-0.0444681
-0.0388059
-0.0348937
-0.0316914
-0.0446441
-0.045898
-0.0407156
-0.0390637
-0.0427933
-0.0323489
-0.0360118
-0.028163
-0.035176
-0.0298267
-0.0252092
-0.0205646
-0.0269731
-0.0218284
-0.0290791
-0.029537
-0.032065
-0.019642
-0.0215912
-0.0208142
-0.0216933
-0.0417875
-0.0336954
-0.0418647
-0.0235913
-0.0317204
-0.0232024
-0.0304563
-0.0670889
-0.0463776
-0.0633164
-0.0346316
-0.0450212
-0.0332411
-0.0410897
-0.0961903
-0.069602
-0.0907252
-0.0489477
-0.0550956
-0.0437714
-0.047025
-0.0991991
-0.0963954
-0.0911441
-0.0527163
-0.0367817
-0.0448059
-0.0325698
-0.051662
-0.0823214
-0.0587638
-0.0329259
-0.0299058
-0.0295571
-0.0262045
-0.0414099
-0.0544124
-0.0504661
-0.0304471
-0.033669
-0.0262183
-0.0276642
-0.030836
-0.0446764
-0.0417041
-0.0285493
-0.022735
-0.0405717
-0.0333406
-0.0341688
-0.0407852
-0.0413588
-0.0219698
-0.0231629
-0.0309917
-0.0297529
-0.0440002
-0.0427562
-0.0503577
-0.0245935
-0.031101
-0.0307582
-0.0353401
-0.0646243
-0.0542982
-0.0700612
-0.0334905
-0.0410449
-0.0368484
-0.0404608
-0.0902878
-0.0757274
-0.0896838
-0.0434203
-0.0452753
-0.0411788
-0.0395976
-0.0906209
-0.0916923
-0.086113
-0.0429417
-0.0320896
-0.0377418
-0.0315892
-0.0633739
-0.0816453
-0.0662366
-0.0293383
-0.0258528
-0.0300108
-0.0265431
-0.0533829
-0.061232
-0.0474538
-0.0256765
-0.0264277
-0.0257241
-0.0249759
-0.0529429
-0.0569194
-0.0692117
-0.052028
-0.0436356
-0.0491239
-0.0550737
-0.0477209
-0.0737589
-0.0852326
-0.0401624
-0.0355082
-0.0570295
-0.0574012
-0.0544477
-0.0857946
-0.0825822
-0.035631
-0.0381858
-0.0556614
-0.0502576
-0.0737648
-0.0832352
-0.0877871
-0.039151
-0.0411565
-0.0490075
-0.046142
-0.0901746
-0.0890643
-0.0897519
-0.041372
-0.0392779
-0.0452539
-0.0425866
-0.0858196
-0.0888876
-0.083454
-0.037798
-0.0329362
-0.0418015
-0.038929
-0.0666656
-0.0809003
-0.0696736
-0.0314849
-0.0274906
-0.0375395
-0.0322992
-0.0461316
-0.0647573
-0.0495049
-0.0264192
-0.0254711
-0.0309003
-0.030716
-0.0171599
-0.0122535
-0.0129979
-0.0121995
-0.0133928
-0.0114891
-0.0114906
-0.0248691
-0.0136264
-0.0171767
-0.0142255
-0.017277
-0.0116639
-0.0130299
-0.0339394
-0.019065
-0.0274912
-0.018545
-0.0225498
-0.0138777
-0.0180421
-0.0469225
-0.0309151
-0.0407911
-0.0248276
-0.0281055
-0.0197711
-0.0234594
-0.0490575
-0.043543
-0.044626
-0.0282928
-0.0276534
-0.0239288
-0.0241308
-0.0359446
-0.0417249
-0.0311366
-0.0276193
-0.0289412
-0.0244017
-0.0262418
-0.0353162
-0.0296869
-0.0308706
-0.0298159
-0.0326428
-0.026808
-0.0280407
-0.0425628
-0.0319935
-0.0358173
-0.0337881
-0.0368951
-0.0283964
-0.0293837
-0.013415
-0.0158897
-0.0157255
-0.0124901
-0.0114943
-0.0143309
-0.0132684
-0.0160825
-0.0159063
-0.0175109
-0.0115017
-0.0127079
-0.0131078
-0.0135101
-0.0262553
-0.0187338
-0.0252917
-0.0135059
-0.0172917
-0.0139094
-0.015817
-0.0275075
-0.0330825
-0.0289134
-0.0256553
-0.0321586
-0.0284749
-0.0248835
-0.0329115
-0.0435565
-0.040241
-0.0343829
-0.0416276
-0.0347529
-0.0327298
-0.0293036
-0.0316062
-0.0248325
-0.0232219
-0.0250739
-0.0196049
-0.0209289
-0.0288337
-0.0236769
-0.0233453
-0.025601
-0.0266008
-0.0213292
-0.0221468
-0.033117
-0.023777
-0.0258988
-0.0268695
-0.0276277
-0.0224889
-0.0242737
-0.0173488
-0.0238872
-0.0235926
-0.0165589
-0.0144491
-0.0223309
-0.0205618
-0.0186339
-0.0232888
-0.0232477
-0.0141605
-0.0141758
-0.0195538
-0.0177201
-0.0254336
-0.0238462
-0.0276332
-0.0144113
-0.0156871
-0.0174145
-0.0171101
-0.0245881
-0.0300258
-0.027886
-0.0230684
-0.0299279
-0.0252871
-0.0228669
-0.0277567
-0.0339386
-0.0335916
-0.030707
-0.033562
-0.0307135
-0.0279357
-0.0241648
-0.0288777
-0.0248873
-0.0185902
-0.019681
-0.017042
-0.0171718
-0.0224236
-0.023883
-0.0219178
-0.01999
-0.0208624
-0.0173839
-0.0189799
-0.0245475
-0.0217686
-0.0237476
-0.0213338
-0.0237993
-0.0199547
-0.0244437
-0.0278606
-0.0267954
-0.0347602
-0.0250352
-0.0244281
-0.0234038
-0.027624
-0.0266478
-0.0380187
-0.0432256
-0.0233538
-0.0203475
-0.0285124
-0.0279187
-0.0295663
-0.0434015
-0.0407713
-0.0196178
-0.0184069
-0.0269352
-0.0238768
-0.0330025
-0.0398835
-0.0373283
-0.0182404
-0.0179057
-0.0230689
-0.0211074
-0.0306785
-0.0365003
-0.0341198
-0.0177762
-0.0173106
-0.0205589
-0.0192284
-0.0260908
-0.0334363
-0.0306533
-0.01717
-0.0171062
-0.018963
-0.0190577
-0.022473
-0.0294255
-0.0261809
-0.0173365
-0.0193354
-0.0196362
-0.0235156
-0.0245122
-0.0260292
-0.0301807
-0.020546
-0.0258414
-0.0255432
-0.0317749
-0.0101392
-0.00869388