/*--------------------------------*- C++ -*----------------------------------*\
  =========                 |
  \\      /  F ield         | OpenFOAM: The Open Source CFD Toolbox
   \\    /   O peration     | Website:  https://openfoam.org
    \\  /    A nd           | Version:  10
     \\/     M anipulation  |
\*---------------------------------------------------------------------------*/
FoamFile
{
    format      ascii;
    class       volScalarField;
    location    "6.2";
    object      turbidity_0;
}
// * * * * * * * * * * * * * * * * * * * * * * * * * * * * * * * * * * * * * //

dimensions      [0 0 0 0 0 0 0];

internalField   nonuniform List<scalar> 
12920
(
-0.0313409
-0.041701
-0.0578539
-0.0836369
-0.105869
-0.125014
-0.139545
-0.15007
-0.154422
-0.158276
-0.167284
-0.185956
-0.207084
-0.221852
-0.236989
-0.258689
-0.291458
-0.334942
-0.385566
-0.434834
-0.055808
-0.0573441
-0.0641208
-0.0959808
-0.123396
-0.142728
-0.165933
-0.181202
-0.196073
-0.208719
-0.227739
-0.251725
-0.284204
-0.321485
-0.363482
-0.40925
-0.455664
-0.494006
-0.515812
-0.515634
-0.0395706
-0.052262
-0.0588111
-0.0892733
-0.122462
-0.155021
-0.202078
-0.237943
-0.273313
-0.296326
-0.321748
-0.351515
-0.388611
-0.432593
-0.482659
-0.533881
-0.580605
-0.618642
-0.647729
-0.675256
-0.0377674
-0.0612461
-0.063981
-0.10854
-0.14573
-0.192862
-0.230138
-0.268214
-0.301266
-0.327836
-0.359713
-0.394323
-0.439282
-0.490986
-0.54935
-0.609189
-0.666448
-0.718
-0.764408
-0.805446
-0.0228753
-0.0377469
-0.0534302
-0.0822621
-0.115588
-0.162184
-0.196403
-0.247793
-0.280905
-0.333713
-0.374381
-0.412183
-0.454593
-0.502329
-0.553038
-0.601363
-0.643951
-0.679579
-0.708271
-0.730791
-0.0170668
-0.0266742
-0.0423376
-0.0586946
-0.0753378
-0.0924052
-0.107161
-0.127573
-0.160994
-0.234587
-0.325213
-0.400445
-0.45623
-0.500674
-0.534786
-0.557012
-0.572803
-0.587287
-0.600049
-0.616148
-0.0466442
-0.0427861
-0.0530937
-0.0733733
-0.0885056
-0.0988977
-0.108604
-0.121513
-0.141522
-0.185054
-0.253344
-0.338009
-0.404246
-0.448853
-0.47079
-0.473126
-0.460477
-0.447622
-0.445815
-0.458259
-0.0166503
-0.0300624
-0.0450013
-0.0647042
-0.0862996
-0.101903
-0.101343
-0.102815
-0.113787
-0.140454
-0.180105
-0.232696
-0.297295
-0.337881
-0.283272
-0.277134
-0.265782
-0.266733
-0.282388
-0.309222
-0.010312
-0.022849
-0.0365999
-0.0577188
-0.0826244
-0.0854539
-0.0860496
-0.0822153
-0.0850161
-0.100635
-0.114606
-0.136839
-0.191071
-0.22306
-0.1922
-0.152513
-0.175859
-0.203354
-0.239029
-0.281264
-0.020212
-0.0306866
-0.0440632
-0.0602792
-0.0801284
-0.0824317
-0.0873172
-0.0905911
-0.0856954
-0.0796837
-0.077885
-0.0902249
-0.13312
-0.15177
-0.131137
-0.137173
-0.163125
-0.193646
-0.231689
-0.275473
-0.0300576
-0.0416685
-0.0577032
-0.0810253
-0.111195
-0.114457
-0.112432
-0.10451
-0.0971618
-0.0840161
-0.0787567
-0.0884921
-0.116151
-0.123809
-0.115415
-0.123649
-0.151795
-0.185731
-0.227766
-0.273765
-0.0210824
-0.0351916
-0.0540308
-0.0865903
-0.129577
-0.141994
-0.145353
-0.122499
-0.109113
-0.0977105
-0.0914573
-0.0994843
-0.11088
-0.108319
-0.104061
-0.122476
-0.160584
-0.20578
-0.254107
-0.301929
-0.0265655
-0.0414504
-0.0724552
-0.108551
-0.143677
-0.172515
-0.166994
-0.159512
-0.145926
-0.131481
-0.127276
-0.127013
-0.124762
-0.119732
-0.145111
-0.18518
-0.236795
-0.293651
-0.347634
-0.399811
-0.0409125
-0.0475616
-0.0599447
-0.0899354
-0.128333
-0.170128
-0.20798
-0.242524
-0.245287
-0.253243
-0.24689
-0.252834
-0.257372
-0.276623
-0.308137
-0.357091
-0.412259
-0.46948
-0.52353
-0.576045
-0.0473671
-0.082509
-0.0886662
-0.104237
-0.116795
-0.135221
-0.178263
-0.219947
-0.261727
-0.299194
-0.321113
-0.346366
-0.368449
-0.400822
-0.436339
-0.476186
-0.512594
-0.541471
-0.56169
-0.576107
-0.0421073
-0.0589783
-0.0945395
-0.122742
-0.128975
-0.149828
-0.181667
-0.218623
-0.267198
-0.312508
-0.354171
-0.391904
-0.424997
-0.455253
-0.480196
-0.496214
-0.503172
-0.501855
-0.493703
-0.489704
-0.026402
-0.0457978
-0.0868833
-0.128331
-0.139695
-0.170654
-0.201888
-0.239741
-0.28392
-0.323976
-0.361631
-0.392365
-0.419511
-0.441757
-0.462179
-0.476475
-0.483369
-0.484002
-0.475777
-0.465578
-0.0273655
-0.047722
-0.0684267
-0.100365
-0.13262
-0.164254
-0.201473
-0.234421
-0.272977
-0.300774
-0.325764
-0.340824
-0.355038
-0.362755
-0.369333
-0.373937
-0.378891
-0.387529
-0.397066
-0.405341
-0.0264704
-0.0390603
-0.0597036
-0.0920261
-0.132501
-0.175537
-0.210669
-0.234142
-0.259328
-0.27879
-0.299466
-0.315182
-0.33077
-0.342497
-0.354551
-0.364661
-0.374356
-0.385885
-0.39967
-0.414417
-0.0364012
-0.0407184
-0.0561538
-0.0767124
-0.099449
-0.129751
-0.160293
-0.192341
-0.220104
-0.244332
-0.264374
-0.281041
-0.294503
-0.304939
-0.312286
-0.31697
-0.321871
-0.33055
-0.344323
-0.361443
-0.0057493
-0.0169196
-0.0323199
-0.0378684
-0.0439333
-0.0487697
-0.052005
-0.0528628
-0.0577493
-0.0683289
-0.078692
-0.0754783
-0.0572263
-0.0395729
-0.029141
-0.0248311
-0.0255942
-0.0310246
-0.0417211
-0.0557162
-0.00661048
-0.00936626
-0.0133744
-0.0210442
-0.0275409
-0.0305843
-0.0336319
-0.0356011
-0.0390303
-0.0425146
-0.0491241
-0.0553349
-0.0670751
-0.0866374
-0.11483
-0.137101
-0.141389
-0.126156
-0.096228
-0.0659769
-0.0192593
-0.00591246
-0.00860475
-0.0166207
-0.0286735
-0.036849
-0.0485591
-0.0513813
-0.0566955
-0.061611
-0.0716518
-0.084271
-0.101296
-0.112335
-0.115444
-0.105119
-0.0882222
-0.0721217
-0.0666306
-0.0719979
-0.00947774
-0.00885057
-0.00854127
-0.0234411
-0.0291892
-0.0383489
-0.0497233
-0.0502152
-0.0569504
-0.0576022
-0.0660604
-0.0759878
-0.0896549
-0.0976039
-0.102553
-0.102215
-0.102523
-0.103063
-0.10724
-0.113564
-0.00847955
-0.0160502
-0.0152823
-0.0149124
-0.0231938
-0.0423194
-0.0649801
-0.0837506
-0.100571
-0.091783
-0.088334
-0.0836839
-0.086236
-0.0862478
-0.0891096
-0.091098
-0.0964158
-0.103033
-0.111537
-0.117105
-0.00218118
-0.00390206
-0.00598279
-0.00777474
-0.0119965
-0.020843
-0.0369171
-0.0632852
-0.099096
-0.119379
-0.114184
-0.0952823
-0.0828749
-0.0754454
-0.0739952
-0.0777297
-0.0859389
-0.0985246
-0.116315
-0.13312
-0.00452806
-0.00442071
-0.00805811
-0.0123666
-0.0186101
-0.0225572
-0.0317438
-0.0483031
-0.0721761
-0.100671
-0.113956
-0.103798
-0.0818631
-0.0664946
-0.0610275
-0.0624765
-0.0690098
-0.0800401
-0.0960152
-0.113979
-0.00187294
-0.00581444
-0.0120148
-0.0143381
-0.0179787
-0.0206195
-0.0241128
-0.0379426
-0.0576701
-0.0885399
-0.113616
-0.118547
-0.0892857
-0.0598122
-0.0532191
-0.0617732
-0.0677995
-0.0716399
-0.0768478
-0.0827875
-0.00267297
-0.00928935
-0.0199742
-0.0226844
-0.0258509
-0.0245184
-0.0283233
-0.0358563
-0.0567672
-0.0709276
-0.0933966
-0.11834
-0.0969619
-0.0506134
-0.0459848
-0.0550572
-0.0585007
-0.0594489
-0.0604382
-0.0614691
-0.0025333
-0.012863
-0.0184588
-0.0185136
-0.0262083
-0.0275921
-0.0305727
-0.0275031
-0.0311045
-0.0478961
-0.0735149
-0.103877
-0.0857872
-0.0458119
-0.043097
-0.0466143
-0.0502257
-0.0527158
-0.0543541
-0.0553558
-0.0271042
-0.0293509
-0.0348732
-0.0366591
-0.0457674
-0.0410777
-0.0336301
-0.0310885
-0.0360187
-0.0483916
-0.070944
-0.095274
-0.0831283
-0.0591487
-0.0419175
-0.0390628
-0.0466382
-0.0529276
-0.0565008
-0.0575855
-0.00682165
-0.0196754
-0.0363697
-0.0458499
-0.0638511
-0.0647009
-0.0595546
-0.0507506
-0.0481856
-0.0585723
-0.0791642
-0.0914723
-0.0815331
-0.061077
-0.0351991
-0.0467435
-0.0573083
-0.0596829
-0.0586456
-0.0590566
-0.0196839
-0.0147393
-0.0266124
-0.0265597
-0.0359776
-0.0377999
-0.0510353
-0.0787217
-0.0919942
-0.0866773
-0.0805112
-0.0743831
-0.066825
-0.055983
-0.0595673
-0.074592
-0.0815902
-0.0785395
-0.075121
-0.0773594
-0.0202342
-0.0220086
-0.0371112
-0.0363334
-0.0371937
-0.0352291
-0.0483141
-0.0596347
-0.0651758
-0.060998
-0.0587699
-0.0613493
-0.0698225
-0.0843293
-0.100795
-0.11311
-0.120485
-0.123725
-0.12647
-0.131672
-0.0511953
-0.0164522
-0.0203626
-0.0274007
-0.0260324
-0.0265845
-0.0383041
-0.0455409
-0.0573921
-0.0575186
-0.0623816
-0.0702468
-0.0806558
-0.0899435
-0.0946731
-0.0941249
-0.0882616
-0.0812233
-0.075794
-0.0740222
-0.0169865
-0.0120763
-0.0132389
-0.0259142
-0.0201327
-0.021079
-0.0296398
-0.0360172
-0.0474782
-0.0516249
-0.0581974
-0.0601041
-0.0628101
-0.0603417
-0.0573126
-0.0517421
-0.046582
-0.0427797
-0.0407275
-0.042178
-0.00460101
-0.0100236
-0.0154834
-0.0189396
-0.0189121
-0.0254817
-0.032
-0.0389552
-0.0456834
-0.0473029
-0.0485196
-0.0477229
-0.0471407
-0.0456235
-0.044258
-0.0422743
-0.040152
-0.0384239
-0.0375673
-0.0384232
-0.0031625
-0.013494
-0.0207928
-0.0317708
-0.0425999
-0.037895
-0.0411729
-0.0392301
-0.039631
-0.038364
-0.0373691
-0.0358352
-0.0352527
-0.0349819
-0.0356222
-0.0369127
-0.0389339
-0.0412164
-0.0433506
-0.0447531
-0.00347024
-0.013028
-0.024038
-0.0321487
-0.0452904
-0.0349518
-0.0308292
-0.029329
-0.0318186
-0.0350623
-0.040331
-0.0466423
-0.0550305
-0.0645681
-0.0753977
-0.0861536
-0.0934848
-0.0975155
-0.0980987
-0.0874535
-0.00225656
-0.021114
-0.0187826
-0.0159625
-0.0242988
-0.0408622
-0.0638699
-0.0820121
-0.0980788
-0.106966
-0.112604
-0.109961
-0.102071
-0.0866958
-0.0702427
-0.0569535
-0.0478578
-0.0441967
-0.0497902
-0.0645367
-0.0101046
-0.013531
-0.0124735
-0.0115866
-0.0137249
-0.0187136
-0.0232376
-0.0276225
-0.0336562
-0.0399654
-0.0425922
-0.0361318
-0.026372
-0.0200339
-0.0175895
-0.0176093
-0.019093
-0.0213987
-0.0239182
-0.0261091
-0.000403594
-0.00375287
-0.00788821
-0.0123892
-0.0149175
-0.0171186
-0.0194601
-0.0211043
-0.0237818
-0.0258928
-0.0290751
-0.032742
-0.039174
-0.0467283
-0.0537169
-0.0547719
-0.0486117
-0.0387565
-0.0299486
-0.0253814
-0.00305809
-0.00457714
-0.00673098
-0.0114365
-0.0161922
-0.0198405
-0.0239056
-0.0260054
-0.0289436
-0.0316543
-0.035732
-0.0392324
-0.0422765
-0.0413011
-0.0376805
-0.0319583
-0.0274921
-0.0253969
-0.026244
-0.0294058
-0.0190621
-0.00753928
-0.00647544
-0.0111729
-0.0149806
-0.0189657
-0.0238377
-0.0244819
-0.0276648
-0.0288601
-0.0315619
-0.0330171
-0.0341879
-0.0331743
-0.0319881
-0.0305895
-0.0303001
-0.0305267
-0.0316538
-0.0332206
-0.00596633
-0.00420307
-0.0047117
-0.00850576
-0.0144632
-0.0221206
-0.0330562
-0.0361858
-0.0411972
-0.0355676
-0.0340853
-0.0323275
-0.0319971
-0.0312118
-0.0315548
-0.031824
-0.0328046
-0.0335464
-0.0343951
-0.0346139
-0.00322674
-0.00287298
-0.0047958
-0.00749589
-0.0122594
-0.0195362
-0.0309228
-0.0443451
-0.0586698
-0.0531996
-0.0425204
-0.0344685
-0.0322468
-0.0324773
-0.0343339
-0.0364994
-0.0391231
-0.041512
-0.0440773
-0.0448382
-0.00375512
-0.00428121
-0.00662603
-0.00958877
-0.0133229
-0.0175937
-0.0224562
-0.0328855
-0.0444837
-0.0515873
-0.0478179
-0.0388644
-0.0345071
-0.0352141
-0.038823
-0.0425208
-0.0461682
-0.0493517
-0.0521191
-0.0527002
-0.00115771
-0.00466805
-0.00724363
-0.00806688
-0.0091301
-0.0117156
-0.0135356
-0.023341
-0.0347838
-0.0492962
-0.0524081
-0.042225
-0.0344518
-0.0360058
-0.0441938
-0.047065
-0.0473472
-0.045781
-0.0434751
-0.0397772
-0.00179462
-0.00779086
-0.0118951
-0.0113433
-0.0119925
-0.0114879
-0.0135757
-0.019059
-0.0271972
-0.0378339
-0.0490716
-0.0458684
-0.0341856
-0.0370098
-0.0448061
-0.0386992
-0.0348718
-0.0307916
-0.0276262
-0.0248781
-0.00280234
-0.00484201
-0.00820643
-0.0115157
-0.0142936
-0.0139227
-0.0136155
-0.0136469
-0.0178662
-0.0298278
-0.0418821
-0.0392133
-0.0279438
-0.0298089
-0.0339695
-0.0330686
-0.0315752
-0.0284443
-0.025314
-0.0227626
-0.0121653
-0.0179063
-0.0225179
-0.0218792
-0.0238732
-0.0202374
-0.0181229
-0.0173716
-0.0197453
-0.0280175
-0.0338242
-0.0300432
-0.0230325
-0.0227155
-0.0274663
-0.0367285
-0.0365
-0.0328196
-0.0285127
-0.0248084
-0.0066545
-0.0149682
-0.0238538
-0.0229652
-0.0293467
-0.0275709
-0.0280536
-0.0275708
-0.026826
-0.0308503
-0.0329297
-0.0294873
-0.0249614
-0.0222189
-0.0312021
-0.0393158
-0.0350259
-0.0287103
-0.0241688
-0.0217418
-0.0106398
-0.00880153
-0.0114705
-0.012556
-0.0162704
-0.0188535
-0.0247073
-0.0376964
-0.042764
-0.0390927
-0.0346262
-0.0312154
-0.0290312
-0.0323455
-0.0421518
-0.0406665
-0.0346783
-0.0279843
-0.0240088
-0.0228319
-0.0263064
-0.0122293
-0.0171321
-0.0164867
-0.0165822
-0.0168577
-0.0225098
-0.0252409
-0.0271386
-0.0275598
-0.0297218
-0.034458
-0.0400445
-0.0451746
-0.0468858
-0.0449068
-0.0420436
-0.0391789
-0.0371673
-0.0364037
-0.0181243
-0.0126296
-0.00971801
-0.0107975
-0.0117837
-0.0133899
-0.0186366
-0.0205523
-0.0241198
-0.0256665
-0.0293661
-0.032914
-0.0360413
-0.036759
-0.0358117
-0.0333971
-0.0307297
-0.0286848
-0.0275048
-0.0274661
-0.0124719
-0.0109682
-0.0084683
-0.00921275
-0.0101039
-0.012375
-0.01648
-0.0187345
-0.0218249
-0.0226176
-0.0244404
-0.0245186
-0.0249205
-0.0238427
-0.0229366
-0.0217987
-0.0211512
-0.0210271
-0.0214648
-0.0227548
-0.00497248
-0.00809308
-0.0102698
-0.0106223
-0.0113903
-0.0142253
-0.016664
-0.0179077
-0.0189637
-0.0185698
-0.0187124
-0.0183514
-0.018333
-0.0181188
-0.0181457
-0.0182295
-0.0185655
-0.019206
-0.0202025
-0.0215862
-0.00310256
-0.00869801
-0.0121779
-0.0135695
-0.014666
-0.0142668
-0.0151737
-0.0149383
-0.0150675
-0.0147644
-0.0148129
-0.0149302
-0.0154248
-0.0160526
-0.0169177
-0.0179137
-0.0190827
-0.0203374
-0.0217364
-0.0230997
-0.00656403
-0.00933119
-0.0144427
-0.0158891
-0.017798
-0.0151336
-0.0165384
-0.0168802
-0.0184441
-0.0188875
-0.0205319
-0.0217197
-0.0236104
-0.0254335
-0.0272459
-0.0286048
-0.0294205
-0.0299052
-0.0301148
-0.0289475
-0.00485355
-0.00934608
-0.00984426
-0.0119389
-0.0193423
-0.0303199
-0.0454248
-0.0576101
-0.0668345
-0.0688133
-0.0654161
-0.0560886
-0.0449458
-0.033471
-0.0247977
-0.0193846
-0.0171304
-0.0178732
-0.0218124
-0.0283369
-0.00803726
-0.00893596
-0.0060886
-0.00413758
-0.0039433
-0.0059356
-0.00980167
-0.0142465
-0.0186481
-0.0207493
-0.0201939
-0.0166854
-0.0145985
-0.0149956
-0.016853
-0.0189782
-0.0207147
-0.0218462
-0.0223438
-0.0222951
-0.00207806
-0.00376718
-0.00583852
-0.00867632
-0.0089952
-0.0113694
-0.0131239
-0.0145683
-0.0159739
-0.0170408
-0.018667
-0.0206478
-0.0229603
-0.0242657
-0.024488
-0.0226468
-0.0201186
-0.0180762
-0.0171734
-0.0171449
-0.00330233
-0.00342679
-0.00575017
-0.00949131
-0.012311
-0.0147033
-0.0163852
-0.0173391
-0.0183192
-0.0188267
-0.0195313
-0.0192784
-0.0187653
-0.0171402
-0.015689
-0.0144864
-0.0140818
-0.01428
-0.0150283
-0.016209
-0.00897712
-0.00604089
-0.00675613
-0.00977465
-0.0120612
-0.0143166
-0.0157073
-0.0162134
-0.0166996
-0.0164656
-0.016328
-0.0156723
-0.0152175
-0.0145306
-0.0143255
-0.0143547
-0.0148217
-0.0154543
-0.0163665
-0.0174549
-0.000816397
-0.003121
-0.00522274
-0.00800606
-0.0114598
-0.0146402
-0.0182035
-0.0182558
-0.0192897
-0.0173524
-0.0166362
-0.0155921
-0.0151814
-0.014787
-0.0149769
-0.0151653
-0.0156495
-0.0161287
-0.0167534
-0.0173911
-0.0012219
-0.00203983
-0.00433708
-0.00640275
-0.0105405
-0.0144734
-0.0198988
-0.0231978
-0.0263235
-0.0216977
-0.0186597
-0.0168452
-0.0165677
-0.0164509
-0.0166686
-0.0167733
-0.0169486
-0.0170719
-0.0173301
-0.0173856
-0.00221886
-0.00419509
-0.00645647
-0.00786654
-0.00993154
-0.011781
-0.0139848
-0.0186202
-0.0227483
-0.0231713
-0.0213601
-0.0194877
-0.0194034
-0.0198345
-0.0206244
-0.0205777
-0.0202834
-0.0197989
-0.019389
-0.0185871
-0.000994799
-0.00382835
-0.00525127
-0.00592637
-0.0064331
-0.00815629
-0.00901659
-0.0150352
-0.0187944
-0.0229703
-0.0224955
-0.0213914
-0.0219762
-0.0239585
-0.0224966
-0.0213942
-0.0191352
-0.0167265
-0.0150005
-0.0137622
-0.00413139
-0.00729941
-0.00791871
-0.00788093
-0.00817871
-0.00807972
-0.00882179
-0.0111151
-0.0152171
-0.0203049
-0.022937
-0.0237265
-0.025186
-0.0276358
-0.0244767
-0.014249
-0.0121674
-0.0107825
-0.0101065
-0.0100521
-0.00600289
-0.00545945
-0.00773647
-0.00944121
-0.0102141
-0.00982851
-0.00962149
-0.00999876
-0.0125253
-0.0168847
-0.0200244
-0.0222323
-0.0235547
-0.0227757
-0.0181385
-0.0120493
-0.0107113
-0.0097839
-0.0095803
-0.00993581
-0.00306863
-0.0106485
-0.0157318
-0.0139513
-0.0140398
-0.0128923
-0.0125054
-0.0124963
-0.0133077
-0.0150032
-0.0168071
-0.0184734
-0.0190156
-0.0188334
-0.0191068
-0.0144366
-0.0123834
-0.0107662
-0.0102713
-0.0105415
-0.0124401
-0.00977893
-0.0115772
-0.0128937
-0.0150398
-0.0151176
-0.0162152
-0.0170866
-0.0164644
-0.0161913
-0.016035
-0.0158501
-0.0162966
-0.0187104
-0.0211755
-0.0136558
-0.0114215
-0.0101034
-0.0101034
-0.0107984
-0.00518909
-0.00591843
-0.00691722
-0.00851428
-0.0103701
-0.0120621
-0.0147164
-0.0191026
-0.0196127
-0.0180425
-0.0169824
-0.0176042
-0.0197406
-0.0217106
-0.0154753
-0.0132053
-0.0112258
-0.0102803
-0.0104458
-0.011268
-0.0095846
-0.00856279
-0.0086643
-0.00964926
-0.0104631
-0.011282
-0.0134055
-0.0139317
-0.0145289
-0.0155113
-0.0164137
-0.0173299
-0.0174485
-0.0167418
-0.0153158
-0.0138087
-0.0130758
-0.0127359
-0.0128587
-0.0134831
-0.0204753
-0.0123029
-0.00800734
-0.00791187
-0.00870817
-0.00984593
-0.0121819
-0.012413
-0.0135928
-0.0139112
-0.0147173
-0.0146288
-0.0143836
-0.0135002
-0.0127783
-0.012219
-0.0120468
-0.0123058
-0.0129462
-0.0139962
-0.00722021
-0.00677834
-0.0064583
-0.00718664
-0.0080073
-0.00931233
-0.0110635
-0.0114739
-0.0123806
-0.0122028
-0.0124653
-0.0120452
-0.0119076
-0.0116375
-0.0116785
-0.0119757
-0.0125637
-0.0134056
-0.0144678
-0.0156736
-0.00311188
-0.00781827
-0.00912826
-0.00867915
-0.00886595
-0.00985106
-0.0104636
-0.0105741
-0.0108689
-0.0108092
-0.010986
-0.0110786
-0.0112792
-0.0115401
-0.0119347
-0.0125027
-0.0132693
-0.0142164
-0.0153393
-0.0165545
-0.00560568
-0.00872823
-0.0105057
-0.0109479
-0.0110556
-0.010334
-0.0104202
-0.0100157
-0.0099898
-0.0100529
-0.0103981
-0.0108603
-0.0114642
-0.0121118
-0.0128198
-0.0135674
-0.0143834
-0.0152313
-0.0161465
-0.01704
-0.00480254
-0.00812596
-0.0111911
-0.0124566
-0.0160719
-0.0175359
-0.0200541
-0.0186352
-0.0175893
-0.0149986
-0.0135116
-0.0127069
-0.0128831
-0.0135283
-0.0144091
-0.0153444
-0.0162742
-0.0172491
-0.0182375
-0.0191472
-0.00789104
-0.0078169
-0.0103504
-0.0150243
-0.0221374
-0.0307331
-0.0395455
-0.0445973
-0.0452267
-0.0395641
-0.031652
-0.022688
-0.0160744
-0.0117219
-0.00991577
-0.00983581
-0.0110168
-0.0131385
-0.0159729
-0.0190741
-0.00970696
-0.00733545
-0.00529704
-0.00361518
-0.00299746
-0.00434777
-0.0066877
-0.00840688
-0.00988523
-0.0108767
-0.0125292
-0.0141678
-0.0155697
-0.0161079
-0.0158349
-0.0151077
-0.014283
-0.0136109
-0.013264
-0.013211
-0.000812639
-0.00292037
-0.00506762
-0.00728425
-0.00720152
-0.00940965
-0.0102115
-0.0114072
-0.0120458
-0.0126882
-0.0130218
-0.0129282
-0.0129872
-0.012798
-0.0130298
-0.0133927
-0.014167
-0.0152939
-0.0166556
-0.0181024
-0.00375202
-0.00300889
-0.00547045
-0.00930564
-0.0111653
-0.0122784
-0.0121943
-0.0117802
-0.0114481
-0.0110126
-0.0110208
-0.0109782
-0.0113341
-0.0118141
-0.0125809
-0.0134709
-0.0144229
-0.0153313
-0.0161391
-0.0167623
-0.00608723
-0.0046412
-0.0068108
-0.00954683
-0.0107791
-0.0112863
-0.0108036
-0.0105181
-0.0102724
-0.0101957
-0.0104427
-0.0107787
-0.0113657
-0.012017
-0.0127656
-0.0135177
-0.0142609
-0.0149686
-0.0156495
-0.0162653
-0.00128172
-0.00271273
-0.0054859
-0.00819221
-0.0097412
-0.0106621
-0.0106795
-0.0105764
-0.0105107
-0.0103153
-0.0105012
-0.0107833
-0.0113198
-0.0119169
-0.0125999
-0.0132884
-0.0140108
-0.0147475
-0.0155135
-0.0162272
-0.00038691
-0.000865739
-0.00299911
-0.00639205
-0.00881856
-0.010143
-0.0110634
-0.011291
-0.011596
-0.0108315
-0.0106849
-0.0108283
-0.011287
-0.0118348
-0.0124579
-0.0131386
-0.0138872
-0.0146991
-0.0155551
-0.0163421
-0.0013472
-0.00307608
-0.004913
-0.00649171
-0.00793406
-0.00901697
-0.00997049
-0.0107589
-0.0113611
-0.0112974
-0.0110809
-0.0110675
-0.0113619
-0.0118461
-0.0124203
-0.0129325
-0.0135698
-0.014328
-0.0151405
-0.0158872
-0.000966303
-0.00336729
-0.00443951
-0.00592335
-0.00729423
-0.00843206
-0.00909393
-0.010744
-0.011218
-0.0118992
-0.0114024
-0.0110439
-0.0108751
-0.0112202
-0.0118653
-0.0123205
-0.0127675
-0.0134035
-0.0141066
-0.0147379
-0.0045198
-0.00601109
-0.006159
-0.00743733
-0.00849423
-0.00861842
-0.00890657
-0.0106751
-0.0121854
-0.0130725
-0.0126336
-0.010889
-0.00959171
-0.00914179
-0.00936114
-0.0111452
-0.0118094
-0.0124909
-0.0131482
-0.0136887
-0.00429667
-0.00507114
-0.00647293
-0.00840798
-0.00928326
-0.00956977
-0.00974702
-0.0106009
-0.0128832
-0.0146097
-0.0140331
-0.0106098
-0.00840569
-0.00757194
-0.00813258
-0.0107233
-0.0115139
-0.0122607
-0.0129384
-0.0134955
-0.00882598
-0.00770761
-0.00977868
-0.0101622
-0.009973
-0.0102266
-0.0106311
-0.0116483
-0.0129811
-0.0141309
-0.0131739
-0.0101459
-0.00804379
-0.00760738
-0.00806123
-0.0108504
-0.0117535
-0.0126365
-0.0134687
-0.0141839
-0.00634337
-0.00526568
-0.00800504
-0.0103622
-0.0101219
-0.0103523
-0.0100806
-0.0109173
-0.011524
-0.0116026
-0.0104484
-0.00832029
-0.00701266
-0.00677363
-0.00771316
-0.0114274
-0.0126388
-0.0138148
-0.0148864
-0.0157805
-0.00373574
-0.00489117
-0.00638963
-0.00820993
-0.00884666
-0.00888794
-0.00927587
-0.00969796
-0.0094903
-0.00896142
-0.00831065
-0.00772859
-0.00754935
-0.00784881
-0.011138
-0.0123864
-0.0137431
-0.0151937
-0.0165815
-0.0177151
-0.00402915
-0.0072601
-0.00669199
-0.00751188
-0.00806562
-0.0081436
-0.00810404
-0.00779415
-0.00767548
-0.00809972
-0.00834818
-0.00893383
-0.00954758
-0.0104014
-0.0114502
-0.0127356
-0.0142016
-0.0157974
-0.017419
-0.0187876
-0.00398747
-0.00886994
-0.00778427
-0.00676351
-0.0073791
-0.00764564
-0.0077912
-0.00748499
-0.00756194
-0.00773144
-0.00813618
-0.00867651
-0.0094331
-0.010402
-0.011608
-0.0130123
-0.0145795
-0.0162494
-0.0179259
-0.0193208
-0.00265669
-0.00503925
-0.0053239
-0.00627539
-0.00708545
-0.00749375
-0.00756252
-0.00753563
-0.00764619
-0.00785747
-0.00827842
-0.00887352
-0.00969057
-0.0107056
-0.0119105
-0.0132849
-0.014817
-0.0164599
-0.0181499
-0.0195968
-0.0106889
-0.0114406
-0.00907393
-0.0080038
-0.00770025
-0.00774652
-0.00765811
-0.00774882
-0.00793592
-0.00828675
-0.00878371
-0.00945125
-0.0102705
-0.0112366
-0.0123471
-0.0135926
-0.0149912
-0.0165401
-0.0181906
-0.0197576
-0.0172636
-0.0146076
-0.0123069
-0.0101859
-0.00886158
-0.00808092
-0.00798803
-0.00792187
-0.00813622
-0.00848462
-0.00896049
-0.00953452
-0.0102386
-0.0110642
-0.0120302
-0.0131232
-0.0143499
-0.0157321
-0.0172466
-0.0187392
-0.00331456
-0.00954359
-0.0101823
-0.00947642
-0.0117241
-0.0117768
-0.0121984
-0.0100978
-0.00915435
-0.00866576
-0.00898827
-0.00959667
-0.0102431
-0.0108968
-0.0116025
-0.0124517
-0.0135091
-0.0148554
-0.0164693
-0.0182837
-0.00452035
-0.00859463
-0.011405
-0.0145037
-0.0197869
-0.0224911
-0.0245343
-0.0213616
-0.0173909
-0.0121407
-0.00942151
-0.00810598
-0.00834256
-0.00914944
-0.0101773
-0.0111762
-0.0120963
-0.013061
-0.0142979
-0.0158557
-0.0393382
-0.0279124
-0.0325652
-0.0188854
-0.0222222
-0.0172641
-0.0197968
-0.0422166
-0.033493
-0.0330522
-0.0226377
-0.0228992
-0.0199742
-0.0194227
-0.0330773
-0.0292739
-0.0325361
-0.0167827
-0.0179605
-0.0171605
-0.0172667
-0.0318723
-0.032709
-0.0302458
-0.018081
-0.0182889
-0.0172432
-0.0170821
-0.0830332
-0.0867394
-0.087753
-0.0823782
-0.0804676
-0.0799296
-0.0729011
-0.0827821
-0.0876949
-0.0848923
-0.0804124
-0.0858343
-0.0680374
-0.0603905
-0.0962649
-0.0832673
-0.0795996
-0.0892638
-0.0994794
-0.0620921
-0.074212
-0.111079
-0.0793536
-0.0794312
-0.103528
-0.115697
-0.0776675
-0.0846029
-0.12766
-0.0798679
-0.0880626
-0.121239
-0.140515
-0.0880654
-0.108268
-0.1761
-0.0946929
-0.128066
-0.151399
-0.179885
-0.117559
-0.139449
-0.218479
-0.140955
-0.162793
-0.184851
-0.17314
-0.138669
-0.10735
-0.222091
-0.163512
-0.153533
-0.163568
-0.133823
-0.0957571
-0.0748831
-0.0905225
-0.0924764
-0.0958812
-0.0827132
-0.0744508
-0.0864422
-0.0709234
-0.0874443
-0.0956358
-0.0918558
-0.0669546
-0.0521479
-0.0626605
-0.0516331
-0.0808478
-0.0898944
-0.0829257
-0.052027
-0.0642597
-0.0519081
-0.0604059
-0.0778051
-0.0810164
-0.0777114
-0.0697688
-0.0803038
-0.0655544
-0.0788655
-0.0844175
-0.0775826
-0.0826198
-0.083971
-0.103474
-0.0827241
-0.0991961
-0.12133
-0.0874395
-0.111761
-0.112419
-0.132163
-0.106351
-0.121802
-0.151583
-0.119283
-0.12956
-0.130635
-0.101258
-0.122035
-0.111076
-0.142516
-0.129469
-0.123061
-0.0915244
-0.0760421
-0.107376
-0.101181
-0.106287
-0.125714
-0.116912
-0.0982437
-0.0678337
-0.114206
-0.0796459
-0.0993166
-0.113819
-0.107842
-0.0604885
-0.0537227
-0.0699227
-0.0620359
-0.087255
-0.106303
-0.0984086
-0.054956
-0.0643709
-0.0640082
-0.0755326
-0.0789285
-0.0948333
-0.0878154
-0.0689621
-0.0810114
-0.0801738
-0.0916573
-0.0839029
-0.0874704
-0.0923815
-0.0846266
-0.100015
-0.0950213
-0.107026
-0.109968
-0.0960105
-0.108636
-0.106465
-0.120466
-0.111105
-0.118156
-0.124157
-0.111401
-0.112588
-0.121374
-0.11501
-0.118183
-0.11191
-0.117282
-0.111096
-0.104145
-0.112216
-0.104974
-0.107849
-0.0906586
-0.128204
-0.156973
-0.147113
-0.137748
-0.0996202
-0.152973
-0.145923
-0.11145
-0.141976
-0.125027
-0.0862419
-0.0707895
-0.1423
-0.129765
-0.100866
-0.119816
-0.109218
-0.0716368
-0.0814415
-0.124288
-0.114319
-0.0916322
-0.10703
-0.104746
-0.0859439
-0.0968008
-0.113429
-0.114731
-0.0963302
-0.105098
-0.108128
-0.0998911
-0.110172
-0.11572
-0.118704
-0.109163
-0.109284
-0.110441
-0.113319
-0.117754
-0.119134
-0.117239
-0.110053
-0.109696
-0.105081
-0.11719
-0.109597
-0.115462
-0.105593
-0.101742
-0.103208
-0.0979275
-0.10489
-0.0857184
-0.100574
-0.0829768
-0.0331332
-0.0262747
-0.0261918
-0.0233703
-0.027726
-0.0222541
-0.0208858
-0.0511969
-0.0264316
-0.0309188
-0.0300361
-0.0369882
-0.0210571
-0.0250237
-0.0664332
-0.0339566
-0.0470809
-0.0392081
-0.0447654
-0.027076
-0.0337648
-0.0869063
-0.053009
-0.0709146
-0.0488664
-0.0604844
-0.0363409
-0.0469053
-0.112419
-0.0768429
-0.099901
-0.063888
-0.0668126
-0.0509815
-0.0576095
-0.109856
-0.107704
-0.103537
-0.0639698
-0.0489534
-0.0553514
-0.0388693
-0.0572847
-0.0898825
-0.0517813
-0.0443158
-0.0387942
-0.0347611
-0.0316974
-0.0446278
-0.0457119
-0.0407232
-0.0390685
-0.042841
-0.0323737
-0.0360633
-0.0281041
-0.0350228
-0.0297623
-0.0251865
-0.0205406
-0.0269039
-0.0217919
-0.0291687
-0.029518
-0.0321445
-0.019658
-0.0217174
-0.0208065
-0.0217725
-0.0420608
-0.0338012
-0.0420915
-0.0237344
-0.0318453
-0.0233094
-0.0305894
-0.0673324
-0.0466521
-0.0635909
-0.0347412
-0.0451056
-0.0333589
-0.0411576
-0.0964692
-0.0698642
-0.0909665
-0.0490139
-0.0549662
-0.0438184
-0.0468925
-0.0987394
-0.0965376
-0.0907958
-0.0524972
-0.0365829
-0.044611
-0.0324039
-0.0513889
-0.081914
-0.0585437
-0.0328039
-0.0299108
-0.0294478
-0.0261967
-0.0414269
-0.0542633
-0.0504815
-0.0304703
-0.0337185
-0.026226
-0.0276946
-0.0308136
-0.0442441
-0.0414968
-0.0284133
-0.0227004
-0.0402975
-0.0331323
-0.0342534
-0.0406397
-0.0413962
-0.0219665
-0.0232395
-0.0308566
-0.0297961
-0.0442053
-0.0428391
-0.0505358
-0.0246931
-0.0312194
-0.0308374
-0.0354312
-0.0648866
-0.0545104
-0.0703241
-0.0335979
-0.041113
-0.0369247
-0.0404858
-0.0905044
-0.0759763
-0.0897949
-0.043469
-0.0451456
-0.0411772
-0.0394991
-0.0903306
-0.0917122
-0.0859117
-0.0427596
-0.0319379
-0.0376267
-0.0315077
-0.0631681
-0.0814142
-0.0660102
-0.0292333
-0.0258378
-0.0299459
-0.0265071
-0.0533471
-0.0610145
-0.0472779
-0.0256756
-0.0264476
-0.0256949
-0.0249822
-0.0527558
-0.0570216
-0.0693247
-0.0519842
-0.0434446
-0.0492551
-0.055162
-0.0476962
-0.0738626
-0.085235
-0.0399998
-0.035504
-0.0570576
-0.0573245
-0.0546228
-0.0857202
-0.0826117
-0.035674
-0.0382548
-0.0555687
-0.0502128
-0.0740157
-0.0833106
-0.0878289
-0.0392073
-0.0411644
-0.0489722
-0.0460986
-0.0902478
-0.0890778
-0.0896633
-0.0413574
-0.0391971
-0.0452091
-0.0425456
-0.0856304
-0.0887781
-0.0833141
-0.0377094
-0.0328687
-0.0417662
-0.0388845
-0.0664329
-0.0807603
-0.0694893
-0.0314254
-0.0274447
-0.0374876
-0.0322396
-0.0459422
-0.0645625
-0.0493099
-0.0263811
-0.0254786
-0.0308551
-0.0307425
-0.0172191
-0.0122311
-0.0130102
-0.0122106
-0.0134056
-0.0114771
-0.0115009
-0.0248947
-0.0136559
-0.0172492
-0.0142464
-0.0172987
-0.0116797
-0.0130521
-0.0339567
-0.0191499
-0.0276008
-0.0185698
-0.022567
-0.0139031
-0.0180742
-0.0468786
-0.0310104
-0.0408287
-0.0248306
-0.0280845
-0.0197952
-0.0234421
-0.0488724
-0.0435498
-0.0444749
-0.0282573
-0.0276295
-0.0239008
-0.0241134
-0.0358263
-0.041536
-0.0310407
-0.0276009
-0.0289528
-0.0243977
-0.0262597
-0.0353468
-0.0296467
-0.0309003
-0.029832
-0.032673
-0.0268279
-0.0280662
-0.042617
-0.0320314
-0.0358668
-0.0338218
-0.0369314
-0.0284231
-0.0294077
-0.0134133
-0.0158224
-0.015712
-0.0124769
-0.0114951
-0.014285
-0.0132553
-0.0161441
-0.015905
-0.0175537
-0.0115103
-0.0127308
-0.013103
-0.0135224
-0.0263782
-0.0187974
-0.0253982
-0.0135323
-0.0173246
-0.0139255
-0.0158376
-0.0275662
-0.0331721
-0.02903
-0.0257331
-0.0322521
-0.0285329
-0.0249632
-0.0328441
-0.0435182
-0.0402467
-0.0343511
-0.0415874
-0.0346839
-0.0326972
-0.0292137
-0.0314703
-0.024757
-0.0232209
-0.0250927
-0.0196039
-0.020944
-0.0288599
-0.0236368
-0.0233561
-0.025621
-0.0266237
-0.0213445
-0.0221645
-0.0331636
-0.0237953
-0.0259322
-0.0268935
-0.0276486
-0.0225087
-0.0242978
-0.0173321
-0.0237699
-0.0235246
-0.0165095
-0.014431
-0.0222762
-0.0204954
-0.0186709
-0.0232327
-0.0232546
-0.0141523
-0.0141841
-0.0195023
-0.0177073
-0.0255272
-0.0238768
-0.0277005
-0.0144229
-0.0157031
-0.0174096
-0.0171139
-0.0246362
-0.030092
-0.0279648
-0.0231139
-0.029996
-0.0253348
-0.0229113
-0.0277153
-0.0339076
-0.0335867
-0.0306994
-0.0335249
-0.0306772
-0.0279185
-0.0240955
-0.0287999
-0.0248385
-0.0185931
-0.0196927
-0.017036
-0.0171746
-0.022429
-0.0238431
-0.0219029
-0.0200023
-0.0208803
-0.0173903
-0.0190017
-0.0245773
-0.0217642
-0.0237855
-0.0213551
-0.0238298
-0.0199827
-0.0244901
-0.027817
-0.0268559
-0.034846
-0.0250579
-0.0243921
-0.0234537
-0.0276587
-0.0266285
-0.0380952
-0.0432494
-0.0233126
-0.0203205
-0.0285186
-0.0278865
-0.0296217
-0.0433825
-0.0407351
-0.0196001
-0.018404
-0.0268965
-0.0238479
-0.0329992
-0.0398507
-0.0372823
-0.0182389
-0.0178986
-0.0230404
-0.021084
-0.0306178
-0.0364557
-0.0340822
-0.0177667
-0.0173005
-0.0205399
-0.0192144
-0.0260433
-0.0334034
-0.0306095
-0.0171611
-0.0171075
-0.0189522
-0.0190628
-0.0224518
-0.0293802
-0.0261568
-0.0173428
-0.0193617
-0.019647
-0.0235616
-0.024556
-0.0260204
-0.0302499
-0.0205797
-0.0258931
-0.025584
-0.0318279
-0.0101468
-0.00868238
-0.0093258