/*--------------------------------*- C++ -*----------------------------------*\
  =========                 |
  \\      /  F ield         | OpenFOAM: The Open Source CFD Toolbox
   \\    /   O peration     | Website:  https://openfoam.org
    \\  /    A nd           | Version:  10
     \\/     M anipulation  |
\*---------------------------------------------------------------------------*/
FoamFile
{
    format      ascii;
    class       volVectorField;
    location    "6.2";
    object      U_0;
}
// * * * * * * * * * * * * * * * * * * * * * * * * * * * * * * * * * * * * * //

dimensions      [0 1 -1 0 0 0 0];

internalField   nonuniform List<vector> 
12920
(
(19.0981 -150.13 -72.1783)
(-43.8298 -61.5536 -4.22092)
(93.1245 -34.4247 17.0176)
(22.4885 -45.2403 9.82618)
(82.5556 -38.2774 5.121)
(70.5177 -48.8156 3.30988)
(107.765 -44.986 2.29045)
(117.144 -46.7301 0.344141)
(150.268 -34.0964 -0.621624)
(157.571 -23.6938 1.11432)
(155.674 -3.57332 4.09402)
(124.477 2.70037 3.67281)
(113.242 6.47602 0.941494)
(100.184 6.5058 -0.753603)
(99.1027 6.11838 -1.24306)
(94.2752 6.30622 -1.35297)
(93.5576 5.79882 -1.30923)
(90.3907 5.72218 -1.10386)
(88.8449 4.42105 -0.364675)
(84.672 0.798795 0.0394431)
(125.501 -114.404 -137.296)
(-205.663 -33.9815 15.3231)
(81.0971 -18.659 -11.8818)
(-59.152 -24.5264 1.51487)
(49.0148 -17.5987 1.13642)
(-12.1516 -21.8208 -2.65556)
(46.6405 -14.3839 -2.82249)
(19.0819 -14.4138 -4.17437)
(49.4404 -4.21897 -3.72273)
(39.4372 1.11687 -3.57042)
(59.2229 9.39569 -2.61761)
(59.2836 10.4709 -1.97117)
(69.0491 10.958 -1.10437)
(68.3436 9.7846 -0.509061)
(70.7102 7.00108 0.425341)
(66.063 4.94767 0.996049)
(63.8941 2.8931 1.37214)
(58.1896 1.27031 1.3252)
(56.5622 1.17322 0.948141)
(53.4699 0.56203 0.14673)
(68.3056 -42.9989 24.3196)
(-158.833 -62.7307 -12.4261)
(85.1919 -70.3633 -8.47145)
(-26.017 -57.9604 -0.561373)
(56.3613 -52.8349 0.268728)
(3.25375 -39.8608 -2.20494)
(44.2529 -32.6248 0.15528)
(12.8412 -24.9129 -1.02644)
(37.6059 -17.9015 -0.307458)
(24.1388 -10.4472 -0.698027)
(41.3352 -2.17475 -0.149745)
(37.6492 3.28476 -0.13162)
(46.5858 5.33419 0.294658)
(44.2474 6.18848 0.435569)
(47.2452 5.80229 0.637087)
(43.9834 5.82092 0.552046)
(44.4504 5.56421 0.379779)
(42.1814 5.17364 0.106173)
(42.2399 4.43151 -0.0246195)
(42.0998 2.45779 -0.102318)
(188.112 -76.0456 -134.598)
(-137.853 4.37559 -0.0383936)
(108.174 -22.4359 -9.77513)
(-64.7388 -16.7271 3.24691)
(59.9373 -20.6322 0.748371)
(-42.6659 -7.04068 -0.430522)
(38.5664 -11.0263 -0.411508)
(-13.8208 -5.64143 -0.218948)
(30.0141 -7.01226 -0.0668832)
(10.7247 -1.82296 -0.402614)
(32.5815 -0.133174 -0.312979)
(26.0256 3.30875 -0.323173)
(36.1575 3.58993 0.0251887)
(32.6951 4.81684 0.0779325)
(36.7601 4.06559 0.217502)
(34.5955 3.85561 0.157924)
(36.7081 2.91001 0.154223)
(36.1101 2.33377 0.113714)
(37.2079 1.46248 0.135713)
(37.8934 0.528885 0.103498)
(72.8972 11.1587 -215.622)
(29.489 -14.6994 -26.8074)
(109.923 -61.0848 9.86989)
(-4.68894 -47.5728 3.6975)
(61.0009 -60.9738 1.30781)
(-3.06845 -32.1588 -1.88939)
(50.4168 -46.0314 0.409665)
(11.4789 -22.416 0.0831756)
(38.2925 -34.4044 1.89989)
(17.6794 -14.8226 1.07111)
(35.7822 -13.6214 0.744582)
(29.6688 -0.978156 0.112489)
(38.1265 -0.687068 0.150061)
(34.7905 3.92992 0.0180612)
(38.4712 3.22089 0.0563456)
(36.9099 4.35982 -0.0118489)
(39.0522 3.32511 -0.00740306)
(38.8738 3.21281 -0.0185708)
(40.2406 1.73166 0.0837306)
(41.1017 0.270114 0.0466541)
(66.6951 67.355 -102.451)
(36.4472 -13.7565 -24.2821)
(132.651 18.3319 -3.35282)
(96.3547 -1.36827 -2.07627)
(123.375 -4.80082 -0.466825)
(100.952 -1.55915 -1.7152)
(122.116 -12.3811 0.0963697)
(111.28 -2.89225 1.38354)
(105.59 -16.663 6.11554)
(59.2373 -10.5141 5.49901)
(49.371 -13.7996 2.70617)
(36.65 -2.47399 0.678083)
(39.2554 -1.1833 0.30488)
(36.4142 3.30849 0.0405279)
(38.7023 2.22263 -0.0731389)
(38.4556 2.91043 -0.228374)
(41.3483 1.36669 -0.333888)
(43.7553 0.62272 -0.299227)
(47.065 -1.43983 -0.00971984)
(48.0285 -1.68001 0.0571477)
(147.029 -50.9301 43.0758)
(-170.086 -21.6433 6.10447)
(111.991 -34.8114 -17.3167)
(-4.68494 -41.1313 1.10839)
(95.1757 -50.9462 1.59018)
(70.1477 -38.2658 -0.816654)
(105.334 -53.1645 0.126571)
(107.094 -23.6226 -0.161001)
(116.908 -19.7527 1.59557)
(93.603 4.71758 3.8952)
(70.621 -8.69771 4.12981)
(48.4541 3.07075 2.06973)
(47.8466 -1.37991 0.538863)
(43.1532 3.88066 0.173711)
(44.641 2.14998 0.0362687)
(45.616 2.75477 -0.20703)
(49.9737 -0.150318 -0.161746)
(53.7179 -1.65339 -0.143833)
(57.8864 -3.03414 -0.0304777)
(58.1495 -2.30901 0.0101026)
(69.6518 -54.9452 -128.454)
(-126.523 -6.20319 -23.2321)
(101.225 -57.6169 -16.9542)
(56.4024 -51.7524 -5.69391)
(101.648 -68.0188 1.31347)
(73.6706 -29.406 -1.71927)
(93.5495 -33.1157 -1.57437)
(73.2669 -35.7629 -0.385826)
(83.9713 -9.00409 0.361903)
(75.7285 2.68357 0.99863)
(71.8922 11.4142 0.561281)
(51.7192 3.87237 0.772924)
(48.0178 4.26226 0.0936957)
(43.6969 5.49518 -0.283078)
(45.5682 0.231159 -0.15519)
(49.5019 -1.30268 0.195623)
(53.0619 -5.8085 0.214094)
(55.0578 -7.38439 -0.138658)
(57.96 -6.43318 -0.181261)
(57.2663 -3.39796 -0.296763)
(183.245 -39.3213 -15.8414)
(178.899 49.5939 -13.9174)
(224.813 17.2996 -0.0464315)
(112.406 -29.6348 5.16859)
(118.67 -53.0671 7.89099)
(67.9474 -36.4746 -1.49189)
(97.5698 -28.8113 -0.42478)
(104.506 -35.1504 -0.276772)
(109.449 -13.3237 1.34846)
(83.1676 -0.0161422 0.0960592)
(79.9354 5.34632 0.531747)
(72.6447 5.43383 0.864086)
(53.8368 6.58722 0.232226)
(47.0595 5.37912 -0.225899)
(50.1635 2.88385 -0.61734)
(53.6205 -4.94117 -0.229996)
(53.8597 -6.67074 -0.125609)
(52.6357 -6.71482 -0.354046)
(52.427 -5.01972 -0.326801)
(49.6076 -1.27484 -0.466963)
(244.4 75.8331 -144.534)
(171.113 50.4891 0.0195845)
(215.581 29.7668 16.6853)
(121.673 -3.78726 5.76993)
(142.987 -19.0897 4.66999)
(99.0466 -38.8263 -1.12083)
(94.8633 -46.742 0.830702)
(88.6138 -43.5158 -1.16487)
(93.7894 -29.0108 -1.64632)
(125.653 7.25677 -0.356348)
(111.488 13.1756 0.209023)
(83.7725 12.9878 0.69014)
(58.2154 14.3197 0.59846)
(53.2999 7.7627 -0.333572)
(59.9187 1.20424 -0.597959)
(60.5337 -2.28439 -0.25468)
(59.384 -3.95994 -0.230067)
(56.8686 -4.41202 -0.222493)
(55.3871 -2.36566 -0.217656)
(51.057 0.741359 -0.250772)
(111.388 -205.26 -14.2795)
(-12.8038 1.25453 29.9765)
(139.02 27.904 30.5891)
(61.2624 -2.76922 9.63306)
(104.959 -15.0431 8.25274)
(51.4802 -25.6983 -0.675444)
(64.3842 -25.4481 0.570501)
(72.9294 -20.9953 -0.967681)
(79.2575 -15.4385 -0.673468)
(80.192 4.18197 -0.594323)
(85.0661 24.3013 -0.101226)
(77.1031 25.1443 0.829285)
(64.6148 17.4496 0.184548)
(66.9629 7.65858 -0.00552965)
(67.1028 1.00954 0.0113036)
(62.5108 0.165672 -0.431591)
(61.7881 -1.39558 -0.0846609)
(59.2927 -1.96824 -0.167787)
(57.2903 0.893036 -0.198343)
(52.6789 2.8647 -0.159458)
(79.4099 -364.988 -187.206)
(60.644 -155.798 -42.9228)
(176.607 -97.3635 10.2347)
(76.1348 -43.8119 6.99378)
(109.12 -10.6949 9.61323)
(45.1217 -30.1228 1.27472)
(65.029 -31.7678 0.383281)
(65.3662 -14.6033 -1.5458)
(76.2213 -0.697215 -1.03322)
(71.6438 14.2011 -0.535201)
(69.5197 23.6044 -0.141355)
(66.9776 27.26 0.187529)
(69.6341 14.585 0.125013)
(69.3456 7.11364 0.0231732)
(64.8997 4.45672 -0.282162)
(61.6431 2.3045 -0.135818)
(59.1907 -0.0637806 0.288725)
(54.3078 0.785423 0.149395)
(51.9183 3.48238 -0.0553492)
(49.493 4.20819 -0.0527556)
(73.0442 -72.8434 102.743)
(22.485 -27.2754 -18.5146)
(119.477 -37.7289 4.73693)
(16.0239 -12.9136 -1.08298)
(101.578 -10.9711 1.71882)
(42.8016 -47.7725 -0.191183)
(73.1878 -14.6895 -0.318083)
(51.4656 -6.2409 0.477183)
(64.5911 5.19811 1.37948)
(56.4804 13.818 0.833042)
(68.3111 17.9756 0.573358)
(68.0234 14.9388 0.40588)
(72.987 11.3625 0.132168)
(68.0483 9.31387 -0.00127312)
(61.6523 6.86827 0.155079)
(59.4267 3.7738 0.672249)
(53.2018 3.26399 0.730995)
(48.4424 3.30009 0.320745)
(46.1491 4.12552 0.182966)
(44.8985 3.20907 0.128714)
(112.538 -127.589 -33.8862)
(134.789 -102.152 -30.4411)
(202.051 -58.405 11.358)
(110.024 -30.5283 8.67314)
(124.701 -25.5156 5.61187)
(65.5483 -28.7807 0.644649)
(78.0892 8.68789 0.404094)
(47.2105 -22.9146 0.533484)
(56.6567 9.0598 0.671017)
(45.3047 -3.67945 0.695098)
(56.5777 12.3698 0.279785)
(52.5482 5.86639 0.14698)
(57.712 11.6635 0.210217)
(54.9307 6.8621 0.325658)
(55.2694 7.95817 0.464343)
(51.8157 5.99354 0.463491)
(49.7037 6.01063 0.459264)
(46.9741 4.69969 0.275637)
(46.3369 4.34941 0.214397)
(46.1986 2.38678 0.209052)
(386.534 28.2347 200.726)
(116.122 -45.5408 32.6656)
(175.904 -7.19044 10.431)
(92.9945 4.00708 2.75831)
(117.943 15.9548 -1.171)
(58.915 -12.4724 -1.99823)
(89.0242 5.96846 -1.47064)
(56.4284 -10.3918 -0.421736)
(64.0638 4.54764 0.5554)
(46.5138 -0.293296 0.105478)
(51.869 7.32589 0.224464)
(45.1884 4.89905 0.168368)
(49.1784 8.16906 0.219337)
(46.2014 6.58191 0.25732)
(47.5388 7.28107 0.227716)
(45.9879 6.17588 0.206573)
(46.7466 5.3202 0.118895)
(47.2904 4.06494 -0.00159674)
(48.057 2.27936 -0.130917)
(49.64 -0.270463 -0.134208)
(94.0972 18.7995 48.2253)
(5.45023 -17.9478 -8.37353)
(133.27 10.5145 -1.95253)
(19.1012 -1.7786 5.56297)
(105.835 23.4619 -0.846476)
(43.954 4.1596 -0.711152)
(85.5842 22.0304 -0.842552)
(48.7693 3.09516 -1.25291)
(67.4385 16.522 -0.0950566)
(46.6616 4.87573 -0.278123)
(56.5893 12.0482 0.0303477)
(46.3378 6.34594 -0.0576761)
(51.8425 9.45158 0.0746815)
(47.1056 6.314 0.0195632)
(49.9422 7.06633 0.0720132)
(47.859 5.26572 -0.040333)
(49.8553 4.07362 -0.150234)
(49.9546 2.62196 -0.239162)
(51.1309 1.24058 -0.442359)
(52.3552 -0.938271 -0.490096)
(1.09678 196.043 -182.304)
(-135.753 -3.7465 -43.8702)
(116.557 31.5611 -12.7792)
(-41.4486 -7.56512 -1.20013)
(96.7487 9.40395 -2.79028)
(21.6361 -1.32593 0.384351)
(79.5087 12.9234 -0.572847)
(38.0033 5.1794 -0.18523)
(65.9359 11.858 -0.21906)
(43.6437 7.50853 -0.311887)
(57.3422 9.73825 -0.288291)
(46.9387 7.81471 -0.373839)
(54.0334 8.39032 -0.403346)
(49.9833 7.25778 -0.415677)
(54.0302 7.02818 -0.375577)
(53.2651 6.35257 -0.311199)
(56.7203 4.48788 -0.268371)
(57.8986 3.51127 -0.212278)
(59.9913 1.11184 -0.319169)
(61.0502 -1.15125 -0.497363)
(79.4024 221.613 -25.7934)
(-126.556 49.5005 -29.2837)
(125.221 20.4436 -9.49506)
(-0.125988 6.11235 0.0854891)
(104.139 1.86521 2.24395)
(36.7629 7.8284 0.398072)
(86.5079 15.712 0.566423)
(48.5435 12.6615 -0.643622)
(74.1068 16.0122 -0.227524)
(54.9937 12.1634 -0.649976)
(67.9421 12.9443 -0.652156)
(59.9054 10.3326 -0.956031)
(67.7735 10.3643 -0.995303)
(65.9835 8.11674 -1.13682)
(72.6482 6.93169 -1.07552)
(75.1096 4.26299 -1.1445)
(82.3425 1.28375 -0.872591)
(83.426 0.0511091 -0.388807)
(86.0123 -1.31255 -0.216277)
(82.5857 -1.29723 -0.417309)
(153.892 216.229 -179.466)
(7.52595 75.4963 -38.4813)
(128.103 41.4368 -11.168)
(53.0809 7.58772 -0.69548)
(98.6154 -13.299 2.6952)
(36.1568 2.42304 1.62501)
(79.4603 6.77795 0.949059)
(45.6421 13.2346 -0.0756306)
(75.2919 13.2568 -0.307502)
(59.7563 13.9074 -0.611417)
(76.343 12.4444 -0.588824)
(71.7788 11.7231 -0.642762)
(82.24 9.99192 -0.435658)
(82.943 7.5832 -0.522296)
(91.1023 4.56441 -0.07317)
(91.7603 2.36116 0.407002)
(94.7461 1.0893 0.662398)
(93.5917 1.22419 0.985282)
(93.2669 1.84622 1.25272)
(88.9977 2.93561 0.883561)
(290.174 308.354 -110.114)
(112.905 154.907 47.6341)
(172.069 27.7979 28.7315)
(101.128 5.48349 5.50101)
(136.007 13.0267 -0.559112)
(99.4014 11.239 0.773203)
(120.958 10.634 3.42807)
(95.0411 13.8373 3.8425)
(110.154 13.0321 3.92795)
(99.6383 13.719 3.18543)
(110.741 11.1098 2.78063)
(108.146 8.36903 1.88493)
(115.58 5.74294 1.55573)
(115.632 2.55165 0.3898)
(121.01 0.682913 -0.10264)
(121.013 -0.849664 -0.456079)
(123.047 -2.62309 -0.759946)
(121.908 -3.45864 -0.728824)
(121.691 -4.25309 -0.303081)
(116.915 -3.16154 -0.00116214)
(258.485 82.0087 78.6488)
(-81.8979 -17.8051 -20.4672)
(72.519 -14.982 6.73964)
(19.5488 -22.6073 9.04808)
(85.0591 -12.8137 9.07417)
(76.356 -23.9597 9.37853)
(113.004 -19.0742 7.46846)
(117.765 -18.8075 3.86745)
(136.102 -11.0463 2.32627)
(133.399 -8.30117 3.87628)
(132.225 5.17124 8.35558)
(113.544 7.93703 7.10067)
(107.839 8.34005 2.389)
(95.8389 5.54869 -0.590316)
(94.8167 3.29783 -1.2677)
(89.0628 2.00288 -1.2317)
(87.589 0.87675 -0.430275)
(82.9569 0.119011 0.0202032)
(82.0024 -0.361538 0.458604)
(79.7064 -0.732988 0.419902)
(0.171919 -100.587 -112.77)
(-183.17 4.98357 -25.2302)
(54.6603 -0.66979 -29.0079)
(-87.1121 -7.79267 3.2412)
(42.3712 -0.248931 -5.62203)
(-21.9507 -10.8064 -8.19233)
(42.1359 -4.65684 -9.38511)
(16.0307 -8.63015 -9.62533)
(47.1872 -1.0183 -8.30105)
(36.0476 1.4352 -7.63802)
(53.0472 8.37865 -4.39072)
(49.9772 8.08792 -3.10139)
(57.9169 7.85126 -1.31806)
(54.9199 5.82352 -0.523158)
(56.8901 3.64397 0.988035)
(52.994 2.39344 1.62578)
(52.6829 1.74227 1.96122)
(49.3619 1.23325 1.55072)
(48.9436 1.55317 0.924562)
(46.9779 0.980392 -0.173087)
(92.4381 -22.888 -103.37)
(-158.928 -49.2719 -39.167)
(56.4478 -52.5631 -28.5581)
(-73.7115 -44.2499 -0.279028)
(41.9665 -38.8254 -2.35484)
(-25.1973 -26.6286 -3.80858)
(31.3605 -21.906 -0.830218)
(-2.683 -16.1792 -2.51085)
(28.249 -11.6567 -0.980641)
(13.525 -6.51882 -1.42991)
(32.147 -0.42919 -0.174276)
(27.1345 3.30253 -0.209176)
(36.6057 4.37755 0.688646)
(33.7056 4.7219 0.79787)
(37.4014 4.36058 1.03758)
(34.8375 4.38342 0.750241)
(36.3608 4.17723 0.524634)
(34.7533 3.68693 0.0987353)
(35.2113 3.00852 0.0033131)
(34.9865 1.4373 -0.33176)
(72.1923 -76.9432 40.3206)
(-146.227 35.5129 -9.69984)
(60.616 -9.70369 -19.32)
(-88.7997 -16.0924 5.77639)
(45.6969 -20.952 -1.40757)
(-55.6789 -9.03263 -0.710492)
(29.4709 -14.1321 -1.06059)
(-23.5257 -8.03885 -0.602445)
(22.1635 -9.24015 -0.147876)
(1.01216 -3.87639 -0.409656)
(23.8726 -2.4716 -0.0789299)
(15.9219 1.20206 -0.317861)
(26.8866 1.59971 0.228688)
(23.3599 3.08825 0.156041)
(28.3821 2.64899 0.351845)
(26.8817 2.80022 0.195678)
(29.7035 2.20513 0.215158)
(29.4561 1.86011 0.124144)
(30.71 1.13833 0.216456)
(31.2452 0.401351 -0.110168)
(-42.3793 -16.1822 -18.5595)
(-138.96 -19.3219 -5.8469)
(52.039 -56.5478 2.92958)
(-52.245 -39.0982 2.92095)
(47.1315 -54.6204 1.3392)
(-30.0982 -23.4972 -2.22782)
(34.2171 -42.7086 0.812381)
(-8.98012 -15.9026 0.713263)
(26.0399 -30.7959 2.6549)
(6.49907 -11.8227 1.87026)
(26.4927 -13.2077 1.59984)
(19.1664 -1.64424 0.400677)
(28.3896 -2.38816 0.436707)
(24.8976 2.22599 0.0535942)
(29.336 1.28123 0.0922)
(28.1413 2.61225 -0.0661585)
(30.797 1.7967 -0.0146408)
(30.7379 1.93438 -0.0504472)
(32.0642 0.769265 0.169088)
(32.4936 0.0389572 -0.188036)
(70.0851 -104.238 30.5816)
(-48.1713 -58.6387 -18.9657)
(87.6696 -10.4484 -4.43179)
(43.5266 -24.5071 -3.24892)
(86.3179 -21.5636 2.05626)
(48.0109 -10.8282 -1.21331)
(75.9194 -22.834 1.83581)
(53.7237 -9.3792 3.83645)
(58.7221 -19.436 9.85275)
(33.4463 -9.88963 7.98254)
(35.2548 -12.7724 4.70303)
(25.4518 -3.01694 1.44979)
(29.4852 -2.99182 0.685522)
(26.8808 1.34118 0.0849975)
(29.8635 -0.0581885 -0.0861625)
(29.9972 1.17458 -0.341989)
(32.9749 0.0688231 -0.336998)
(34.1921 0.0283809 -0.299901)
(36.171 -1.09059 0.118192)
(36.3819 -0.950945 -0.150965)
(20.1502 -60.0947 -22.179)
(-100.432 -40.3795 -7.70613)
(76.0293 -58.9874 -17.9784)
(-34.3849 -47.7931 4.42308)
(74.9309 -48.1696 4.60664)
(31.8381 -26.1813 -1.72608)
(68.0766 -43.8162 1.54242)
(57.119 -6.45896 0.6953)
(66.1539 -12.8028 4.20217)
(48.4702 5.85648 6.50563)
(44.5023 -6.69346 6.53769)
(34.1635 1.82452 3.49749)
(35.6153 -3.45082 1.12145)
(32.3752 1.6294 0.325996)
(35.0556 -1.01678 0.189785)
(36.3061 -0.299543 -0.228616)
(40.0421 -2.34535 -0.136367)
(41.394 -2.05901 -0.136637)
(43.3326 -2.28889 0.0794249)
(42.4087 -1.3123 -0.187222)
(-10.4939 -95.5025 -196.719)
(-125.726 -47.6104 -44.6192)
(66.7013 -89.6909 -35.392)
(5.54021 -68.0474 -10.097)
(74.1475 -69.6373 0.728402)
(41.5801 -20.8963 -2.3945)
(68.9979 -30.4643 -2.31206)
(50.5449 -24.39 -2.85666)
(59.5208 -6.03689 -0.787207)
(48.5886 2.45672 3.00288)
(48.0633 6.52761 3.80708)
(36.9812 2.79466 3.15697)
(37.5367 1.83243 1.00166)
(35.4186 2.70959 -0.0282609)
(37.7955 -3.33025 -0.469969)
(40.8328 -3.79957 0.164502)
(43.5376 -5.19729 0.175876)
(44.1793 -4.28381 -0.15393)
(44.9499 -3.06611 -0.0919004)
(42.7527 -1.13759 -0.549178)
(126.483 -137.669 -117.534)
(51.4655 -82.4634 -31.3569)
(111.206 -54.8138 -0.534318)
(19.2612 -67.1266 1.70087)
(70.0734 -60.7846 7.59633)
(50.0843 -36.6309 0.8036)
(77.7288 -26.6416 1.36184)
(75.2836 -23.9423 -0.251231)
(72.7999 -3.98855 2.9899)
(58.1243 2.64092 1.9808)
(55.4234 5.74661 3.29939)
(46.5489 5.42815 4.31261)
(42.5702 3.69332 1.78772)
(40.9208 1.50227 -0.312898)
(44.2258 -1.31124 -0.729056)
(43.8947 -6.29683 -0.556317)
(44.0759 -5.80549 -0.260469)
(43.0562 -4.53353 -0.411276)
(42.2422 -1.88701 -0.259354)
(39.4283 -0.142094 -0.684395)
(200.828 -42.7458 -65.8996)
(47.2265 -56.4222 24.4014)
(140.878 -35.8833 15.2506)
(55.1905 -47.6014 -1.09327)
(95.9042 -47.966 2.82227)
(72.2963 -45.125 -3.5097)
(80.8937 -38.3528 -0.117321)
(76.0604 -27.3856 -3.54277)
(81.1321 -4.57818 -6.03523)
(83.9991 10.8678 -0.454775)
(69.1823 10.3643 3.86999)
(53.439 10.876 4.18504)
(49.2747 6.25398 0.833133)
(49.8519 0.705555 -1.50509)
(51.9664 -4.09105 -1.08397)
(49.3999 -4.40108 -0.813082)
(48.0517 -4.73469 -0.250874)
(45.714 -3.18912 -0.158647)
(43.819 -0.632697 0.0169524)
(40.7254 0.626841 -0.456339)
(94.9523 -61.6713 -153.479)
(-59.4857 -23.3651 32.5852)
(127.407 -0.0749836 25.6734)
(34.6425 -32.9688 6.7904)
(84.8991 -33.5452 12.7085)
(47.979 -35.5775 2.11291)
(59.5383 -29.9867 0.086191)
(60.6957 -18.0624 -3.93077)
(62.8642 -6.03742 -4.44944)
(64.692 9.62375 -2.22886)
(62.9225 17.8175 1.86382)
(58.193 16.353 3.32203)
(59.3757 7.55694 0.43672)
(60.7243 0.914972 -0.455231)
(57.4499 -2.01788 -0.631976)
(51.1485 -2.78222 -0.895063)
(49.8234 -2.57206 -0.123567)
(46.9969 -1.24309 -0.0889366)
(44.9365 1.4743 -0.00688136)
(41.9039 1.61331 -0.377911)
(189.031 -192.883 -1.55509)
(14.6281 -46.1866 3.72867)
(147.899 -56.3278 15.4726)
(31.982 -26.6137 5.68876)
(92.3195 -11.1018 10.9593)
(47.5331 -31.879 2.49391)
(65.741 -36.1539 0.764992)
(58.3783 -18.242 -3.6719)
(57.062 -2.66917 -3.60201)
(55.22 10.126 -1.33694)
(56.2342 15.3779 0.810386)
(58.513 13.732 1.34042)
(60.9629 6.51624 0.496358)
(59.6523 2.71366 -0.133859)
(54.9028 0.7189 -0.55722)
(48.8578 -0.257496 -0.293996)
(46.6288 -0.81971 0.341497)
(43.3634 0.738436 0.197561)
(41.9044 2.28397 0.152177)
(39.9732 2.10136 -0.130083)
(119.441 -115.684 -104.089)
(-123.761 -0.0110123 -16.9059)
(109.233 -31.263 -4.3813)
(-7.51957 -11.6523 -2.24757)
(93.6906 -16.1156 -0.11692)
(31.2977 -50.5846 0.545175)
(62.3404 -16.3147 0.987991)
(39.271 -10.1056 0.965295)
(54.7774 0.343734 2.98001)
(48.1949 6.15675 1.84625)
(59.0417 10.39 1.43741)
(56.6451 8.57317 0.858927)
(59.3549 6.72972 0.408452)
(54.1812 4.09978 0.120051)
(47.0278 3.06096 0.0827806)
(45.1961 1.43194 1.0186)
(42.074 1.99559 0.99398)
(39.6972 2.22147 0.478537)
(38.3929 2.74143 0.388712)
(37.4565 1.61388 0.0863654)
(34.7451 -117.243 53.6339)
(-52.0303 -92.553 -18.7171)
(120.236 -57.3124 8.43039)
(56.2719 -30.301 7.8301)
(107.423 -27.13 6.90746)
(48.0039 -29.99 0.656988)
(64.5703 7.91527 1.10038)
(32.7089 -26.6023 0.626273)
(45.1858 7.42966 0.681594)
(33.0708 -7.43213 1.14011)
(44.454 9.48644 0.381759)
(39.0927 1.64675 0.415131)
(44.3846 7.78279 0.525195)
(41.1455 2.57312 0.696357)
(42.0648 4.84132 0.754934)
(39.4041 3.30016 0.627384)
(39.3905 3.73992 0.568349)
(37.9937 3.03009 0.388207)
(37.9718 2.71076 0.34799)
(37.9597 1.102 0.114631)
(115.327 -210.094 30.2108)
(4.37871 -92.0184 -12.034)
(139.23 -39.6561 -11.5607)
(79.3785 -16.2127 -0.591803)
(111.895 3.71927 -1.47273)
(47.2801 -16.48 -1.39604)
(75.619 6.54366 -0.694244)
(37.0743 -11.2824 -0.421472)
(50.364 4.92506 0.89174)
(33.1319 -2.38727 -0.134968)
(41.3189 5.29306 0.390442)
(34.5627 1.92721 0.36379)
(39.332 5.26282 0.412227)
(36.3429 3.43123 0.401915)
(38.0398 4.48173 0.348172)
(36.9469 3.49335 0.260195)
(38.2586 3.23698 0.100939)
(38.511 2.50467 -0.0428391)
(39.1632 1.24664 -0.145107)
(39.7531 -0.2498 -0.275046)
(144.515 114.407 99.6362)
(39.9567 -46.1476 -27.4815)
(109.973 -7.15344 -9.40672)
(13.2623 -7.89696 3.93761)
(94.9415 16.1752 -3.65529)
(26.0276 -1.94969 -0.349211)
(72.3422 18.2979 -1.03313)
(30.6572 -3.14472 -1.43399)
(55.0605 12.2639 0.0359269)
(33.7722 -0.199258 -0.551738)
(46.524 8.03388 0.107582)
(36.2591 2.31821 -0.116646)
(42.852 5.95949 0.121439)
(38.1856 3.0856 -0.0520193)
(41.4059 4.24277 0.0393266)
(39.4737 2.74705 -0.188721)
(41.4868 2.31492 -0.328777)
(41.0689 1.25812 -0.443349)
(42.0378 -0.172349 -0.566387)
(41.9591 -1.45466 -0.728608)
(134.638 149.999 -0.366732)
(-68.1742 -16.5846 -57.6223)
(97.5581 20.8814 -15.4061)
(-40.3469 -8.89437 -2.61917)
(83.1102 7.39494 -5.42818)
(7.23984 -4.69109 1.0572)
(68.895 8.92224 -1.01637)
(25.0269 -0.383346 -0.668306)
(56.168 6.36096 -0.420042)
(33.8596 2.1209 -0.589928)
(49.2247 4.93808 -0.553628)
(39.0869 3.57216 -0.73053)
(46.804 4.55178 -0.668772)
(42.772 3.92514 -0.725947)
(46.735 3.99866 -0.567667)
(45.606 3.3755 -0.539836)
(48.3772 2.09742 -0.462187)
(48.4254 1.25113 -0.37546)
(49.6883 -1.00771 -0.489466)
(48.6456 -2.0447 -0.859132)
(125.616 -69.6227 -55.3374)
(-146.716 -23.546 -33.8029)
(93.5818 -17.1548 -33.7939)
(-39.2401 -9.8089 -2.71101)
(92.1839 -4.2916 -1.63313)
(16.8965 2.17097 0.449326)
(76.1275 9.072 0.179723)
(36.521 4.83862 -1.23349)
(65.5996 8.19718 -0.513288)
(46.9163 4.53644 -1.25863)
(61.3235 5.52223 -0.989945)
(53.2392 3.60699 -1.48492)
(60.8033 3.78321 -1.30248)
(57.9139 2.68005 -1.47617)
(62.4359 2.24185 -1.22625)
(62.0128 1.09132 -1.36946)
(65.0414 -0.0628894 -1.00405)
(64.4457 -0.600717 -0.458616)
(65.3975 -1.58397 -0.330768)
(62.0168 -1.89085 -0.906744)
(229.925 104.184 -23.4907)
(77.3403 70.509 -12.9241)
(137.764 34.2999 -0.204245)
(49.0689 -1.28358 5.2916)
(91.9667 -15.8741 5.82293)
(28.1208 -1.54743 1.19676)
(73.7738 -0.907297 0.362216)
(40.2403 3.8192 -1.31202)
(70.6307 2.91501 -1.67369)
(55.2965 4.03101 -2.36525)
(71.6649 2.87554 -2.033)
(66.129 3.03203 -2.05295)
(74.9804 1.86864 -1.36729)
(73.5167 1.53104 -1.31951)
(77.787 0.558276 -0.539404)
(77.2135 0.167083 -0.0599646)
(78.8422 -0.177212 0.252552)
(77.6566 0.275798 0.731688)
(77.8112 0.313498 1.12099)
(74.7515 0.474511 0.528678)
(68.1453 65.9261 -67.5094)
(40.3644 13.3391 40.7925)
(157.431 -1.84293 22.4904)
(110.319 10.999 3.67977)
(135.228 24.5106 6.64362)
(93.9133 18.5788 6.13422)
(117.089 13.55 9.14574)
(93.6777 12.5965 7.86822)
(110.23 9.5657 7.45712)
(100.332 8.67539 5.59106)
(110.56 5.31378 4.71286)
(106.807 3.48516 3.12145)
(112.147 1.54938 2.46206)
(110.58 1.08379 0.957697)
(112.688 0.917294 0.389097)
(111.612 1.18353 -0.0231083)
(112.104 1.24342 -0.132092)
(110.715 1.40563 0.0690717)
(110.662 1.32676 0.637733)
(107.718 1.59895 0.884405)
(261.74 -94.2698 181.676)
(-61.4414 -88.7174 45.218)
(106.042 -31.3858 9.91374)
(57.6487 -6.96092 4.20481)
(101.825 16.9491 -1.13237)
(86.7678 8.88923 0.632626)
(109.855 11.9678 -0.0407178)
(103.383 6.29267 -0.773683)
(111.43 7.98965 0.771261)
(100.493 7.69335 3.57863)
(101.104 12.4233 7.87305)
(93.2908 11.8968 5.9519)
(92.6124 8.7399 2.14306)
(82.7554 4.84766 -0.593089)
(81.7253 1.94082 -0.909026)
(75.8033 0.390605 -0.509992)
(75.4526 -0.413075 0.25279)
(72.9266 -0.652445 0.41746)
(73.0909 -0.404152 0.527785)
(71.734 -0.118278 0.41104)
(438.744 32.2131 55.0877)
(-23.764 36.4115 -11.8277)
(59.5475 9.95761 -16.7749)
(-74.384 3.97658 7.5075)
(44.6433 12.9314 -6.80471)
(-19.0199 -1.3405 -8.44321)
(43.2772 3.33795 -10.9949)
(13.1258 -3.37714 -10.635)
(42.7883 2.43651 -8.86629)
(27.9588 2.47182 -8.18932)
(43.2173 7.71553 -4.18126)
(37.8321 6.26643 -2.91954)
(45.4123 5.54592 -0.763317)
(40.9482 3.19979 -0.246112)
(43.3425 1.99446 1.14865)
(40.4294 1.34345 1.46184)
(41.7419 1.41425 1.59845)
(40.0586 1.36295 1.1152)
(40.4903 1.78829 0.642153)
(39.2549 1.06591 -0.553137)
(181.418 -18.6744 -0.505364)
(-68.5809 -28.8254 -22.0668)
(38.6415 -38.9818 -23.6093)
(-86.1322 -36.0745 2.16293)
(31.2114 -28.9563 -4.14954)
(-40.4271 -18.0372 -3.14454)
(23.0545 -14.7652 -1.34111)
(-13.8856 -10.9448 -2.60728)
(20.3529 -8.01919 -1.05967)
(3.17978 -4.16089 -1.42555)
(23.1613 0.112553 0.0384207)
(16.5903 2.78607 -0.207386)
(26.8939 3.26965 0.832931)
(23.5413 3.58343 0.753967)
(28.1264 3.27543 0.954937)
(26.0597 3.35623 0.579212)
(28.3849 3.18111 0.416829)
(27.2098 2.76512 0.0457965)
(27.8874 2.30329 0.0382669)
(27.7644 0.967652 -0.478044)
(102.292 79.3223 -16.3107)
(-85.8145 29.079 -22.1601)
(40.5779 -3.87185 -18.9032)
(-93.3342 -15.1115 5.10257)
(30.3146 -18.4084 -3.72313)
(-63.557 -9.15681 0.910812)
(20.7311 -14.768 -1.64178)
(-31.6784 -8.52314 -0.460998)
(15.1614 -10.3081 -0.0201605)
(-7.68964 -4.83483 -0.316809)
(16.3532 -3.92561 0.230423)
(7.20478 -0.157784 -0.185067)
(19.1357 0.163064 0.365527)
(15.3576 1.83557 0.144302)
(21.0379 1.48411 0.331948)
(19.7123 1.91413 0.123204)
(22.9222 1.52335 0.162498)
(22.7097 1.37112 0.0828151)
(23.8983 0.834468 0.204669)
(24.4537 0.270749 -0.369858)
(58.4344 -32.9472 -32.625)
(-167.053 -26.8423 -37.4993)
(25.3811 -51.526 -12.6941)
(-77.7222 -37.1582 5.78999)
(31.582 -50.7107 -0.922567)
(-50.6633 -19.727 -0.305055)
(20.8718 -41.6489 0.296526)
(-24.1931 -12.6132 1.27868)
(15.6421 -28.4684 2.36279)
(-3.81833 -9.49784 1.76794)
(17.9788 -13.182 1.73658)
(10.0485 -2.04229 0.519053)
(20.3358 -3.61219 0.647292)
(16.7236 1.1051 0.0410502)
(21.7831 -0.00895 0.0955773)
(20.6609 1.56475 -0.104404)
(23.5141 0.890842 -0.00414769)
(23.351 1.23542 -0.0532477)
(24.4676 0.315321 0.209901)
(24.8361 -0.0189465 -0.451914)
(67.0823 -8.52452 25.2939)
(-129.841 -38.7745 -29.0921)
(63.3282 -22.3902 -18.9652)
(-3.1128 -36.8921 -4.20156)
(58.1594 -28.8622 1.3693)
(3.54767 -13.9685 -1.67508)
(43.5601 -30.0775 1.5368)
(9.48005 -10.4322 2.6915)
(26.9543 -21.9879 8.06607)
(11.1281 -8.43924 6.61623)
(22.2299 -12.9098 3.80336)
(15.0216 -3.35898 1.24358)
(20.9763 -4.39845 0.752804)
(18.6968 -0.0284485 0.0627026)
(22.213 -1.45899 0.0220022)
(22.3262 0.163291 -0.301485)
(25.141 -0.554606 -0.175076)
(25.7226 -0.228476 -0.205693)
(26.9674 -0.917648 0.151348)
(27.0473 -0.585514 -0.415818)
(45.0034 -2.91641 -27.6594)
(-163.451 -37.5274 -36.9328)
(57.2665 -68.7163 -21.2195)
(-65.6817 -45.965 2.90909)
(59.5206 -42.4358 3.94932)
(-5.0775 -17.0472 -2.5448)
(38.7746 -42.0703 2.05983)
(15.381 3.28396 0.301932)
(30.4512 -15.5136 4.66764)
(16.9064 4.9222 5.56971)
(25.4721 -9.68029 5.51917)
(20.5089 0.715761 2.69374)
(25.4932 -5.3959 0.960471)
(23.2842 0.165618 0.205167)
(26.7341 -2.74689 0.336801)
(27.6613 -1.49229 -0.112265)
(30.4801 -2.61 -0.139103)
(30.7788 -1.7638 -0.0990947)
(31.7029 -1.68796 0.150056)
(30.7031 -0.731646 -0.476863)
(59.4849 -168.552 -282.908)
(-90.5064 -66.9002 -51.2787)
(54.9695 -102.148 -36.999)
(-16.0576 -71.0797 -8.34223)
(59.0425 -65.4509 -0.341551)
(15.9396 -12.1852 -2.62506)
(46.1038 -29.6457 -2.32383)
(22.1144 -10.3324 -3.28367)
(30.2379 -7.52196 0.137392)
(21.2003 2.62498 3.41399)
(27.5732 0.297404 3.99437)
(24.3968 1.20395 2.59044)
(28.5414 -0.709992 0.620399)
(27.5834 0.772459 -0.095842)
(29.7073 -4.76773 -0.28127)
(31.6142 -3.85963 0.131381)
(33.4895 -4.05669 0.164767)
(33.4177 -2.61162 -0.0587132)
(33.4466 -1.63724 0.0221945)
(31.4133 -0.324528 -0.718193)
(140.93 -73.5287 -43.7705)
(22.4413 -91.8658 -13.2279)
(76.3798 -67.5308 -6.06356)
(-13.1995 -74.4642 -0.798273)
(49.8995 -58.5156 5.77426)
(23.4181 -26.4268 -1.34816)
(50.7157 -19.6757 0.970556)
(41.8378 -14.116 0.119399)
(40.8797 -2.2808 1.40034)
(31.7325 1.54972 2.58843)
(33.5619 3.06026 4.14337)
(31.3526 2.08444 3.81484)
(34.2487 0.423552 0.823632)
(34.3989 -1.22804 -0.697547)
(36.3843 -3.17107 -0.568739)
(33.8978 -5.82714 0.0378594)
(34.2138 -4.45775 0.000490607)
(33.0437 -2.78882 -0.221674)
(32.2501 -0.737088 -0.0278869)
(30.1867 0.0143701 -0.783711)
(59.6537 -65.3852 163.566)
(-29.1847 -86.7117 -12.3054)
(117.211 -52.7489 9.01476)
(23.42 -58.5442 -2.20176)
(72.8523 -51.8226 2.56662)
(40.3587 -44.2455 -3.81374)
(52.7634 -30.6537 -1.09739)
(53.7306 -15.274 -4.26791)
(53.455 0.0794073 -4.71487)
(48.0055 5.63968 0.64632)
(42.2071 5.79403 4.16401)
(39.991 4.36696 3.14593)
(41.9931 0.255792 -0.488615)
(42.8846 -3.56298 -1.74332)
(41.7752 -5.8752 -0.823051)
(37.2403 -4.6295 0.0348892)
(36.3662 -3.88693 0.101947)
(34.4907 -1.8198 0.0681811)
(33.353 -0.279004 0.231046)
(31.3334 0.187391 -0.654261)
(45.2011 -121.733 -63.9826)
(-77.528 -42.0252 15.3144)
(105.465 -28.0811 18.7498)
(-8.45098 -49.3073 4.42586)
(65.0702 -38.1531 10.7808)
(27.1892 -39.0367 1.21121)
(44.0789 -30.3734 -0.584615)
(46.6353 -15.6212 -4.3617)
(46.8778 -3.08875 -4.68282)
(46.1829 6.72654 -0.848469)
(47.7942 10.3978 1.52224)
(49.506 7.6195 2.01895)
(51.3629 1.06023 -0.260365)
(50.3918 -3.06414 -1.00053)
(44.6937 -3.85581 -0.527005)
(38.7404 -3.99488 -0.0949245)
(37.7256 -2.30628 0.121525)
(35.4936 -0.716833 0.121209)
(34.2341 0.902797 0.238476)
(32.1628 0.518957 -0.585283)
(123.807 -133.171 69.9247)
(-49.1413 -33.8861 -44.6952)
(124.33 -52.1077 3.24476)
(-5.19712 -25.3385 3.94159)
(77.4648 -16.75 8.4387)
(32.1574 -39.1995 1.2287)
(54.5959 -37.8456 0.833175)
(47.6418 -17.9365 -2.70215)
(45.0179 -4.27777 -2.66287)
(44.0135 4.65155 -0.538657)
(46.8751 7.58337 1.51031)
(49.5905 5.65186 1.59178)
(50.8327 1.74224 0.569233)
(49.0662 -0.502969 -0.180057)
(43.9933 -2.00767 -0.483801)
(36.9139 -1.40813 0.311182)
(35.4901 -0.945298 0.342399)
(33.4535 0.361639 0.184562)
(32.5221 1.25334 0.353471)
(31.0701 0.760633 -0.332549)
(58.9714 -25.384 -179.794)
(-45.3355 -12.1355 -18.4686)
(91.1322 -39.3226 -16.8087)
(-13.3405 -15.954 -0.249368)
(85.3593 -22.0829 -1.40353)
(19.8763 -52.7925 1.49196)
(50.5903 -15.3706 0.927372)
(27.2065 -12.8656 0.274335)
(43.522 -1.84968 2.21491)
(37.3302 1.25513 1.7035)
(48.1359 5.60359 1.50103)
(44.5312 3.80513 0.873155)
(47.2353 3.08215 0.575437)
(42.2709 0.789539 0.334824)
(35.005 0.959253 0.85924)
(33.7886 0.17651 0.92561)
(32.485 1.10381 0.802652)
(31.292 1.26566 0.395778)
(30.3686 1.66014 0.448321)
(29.6497 0.626991 -0.187717)
(83.5058 -283.464 -61.0893)
(-81.5782 -101.673 -30.3314)
(101.21 -59.2433 -9.67768)
(33.3053 -34.4458 6.54686)
(95.2106 -30.5248 6.06546)
(31.6065 -31.711 1.12014)