/*--------------------------------*- C++ -*----------------------------------*\
  =========                 |
  \\      /  F ield         | OpenFOAM: The Open Source CFD Toolbox
   \\    /   O peration     | Website:  https://openfoam.org
    \\  /    A nd           | Version:  10
     \\/     M anipulation  |
\*---------------------------------------------------------------------------*/
FoamFile
{
    format      ascii;
    class       volScalarField;
    location    "6.1";
    object      k;
}
// * * * * * * * * * * * * * * * * * * * * * * * * * * * * * * * * * * * * * //

dimensions      [0 2 -2 0 0 0 0];

internalField   nonuniform List<scalar> 
12920
(
1617.24
1741.47
1582.96
1358.3
1223.28
1203.5
1177.01
907.065
443.869
234.675
174.382
165.736
160.725
144.667
117.632
95.0597
76.4521
61.4026
51.6907
47.3705
1099.96
2426.1
1767.1
1260.15
775.545
592.986
464.927
380.073
297.715
254.559
212.843
177.02
141.818
112.658
94.2011
86.1006
84.7678
85.5869
90.1584
99.6239
3146.25
2657.03
2143.08
1468.1
859.133
542.434
371.501
294.542
238.496
204.535
167.362
136.729
112.391
99.2487
91.4759
88.3094
86.6051
85.4416
85.162
83.7901
3243.1
2418.35
1728.38
1133.5
669.612
490.125
354.133
296.786
240.484
205.799
167.857
138.057
114.036
99.6221
89.9235
84.3374
79.7666
76.7926
75.1788
74.505
442.635
1557.78
1902.63
1372.69
797.418
525.777
381.978
281.883
228.422
197.725
166.745
141.199
120.179
106.391
96.8655
91.0511
86.4248
82.9967
81.4334
79.7848
7736.92
2949.65
2210.62
1757.17
1387.08
1190.1
868.261
506.7
299.747
212.864
172.691
146.064
128.986
117.249
111.911
109.04
105.951
99.4939
94.9251
86.6545
3837.1
2680.48
2018.8
1720.63
1297.29
1089.53
917.195
645.002
412.868
264.649
197.087
165.42
150.474
142.528
134.607
130.251
127.658
124.065
119.739
104.31
3248.47
2643.18
2506.98
2117.03
1335.16
932.321
585.516
404.447
310.506
207.864
138.045
114.319
108.324
104.502
158.486
131.744
121.727
120.048
117.952
105.638
1650.02
3562.66
3076.75
2480.41
1766.91
1049.48
576.576
284.469
190.046
176.666
118.282
77.4258
77.7385
76.8292
122.711
135.922
119.035
112.591
103.878
88.4294
5623.96
5342.99
3152.21
1978.85
1211.18
680.643
397.346
276.236
187.811
193.189
107.975
78.4842
93.9555
90.6525
124.147
126.739
106.09
92.5368
84.3326
78.3741
2628.06
2738.02
2451.49
1657.78
979.737
557.051
334.571
202.562
145.244
146.704
101.289
94.0999
88.627
72.4254
99.6588
146.499
110.563
87.211
76.1747
74.718
1513.16
1398.39
1361.5
966.943
575.177
306.532
223.151
152.263
119.171
105.711
94.6707
92.9978
89.9357
90.0291
145.659
150.496
104.61
85.7811
78.0352
77.6714
3474.64
1234.13
908.239
934.419
842.741
588.326
344.212
189.874
171.141
177.069
178.161
161.174
155.855
151.004
171.466
114.275
91.5585
84.0079
82.0819
83.4797
1714.53
2073.37
1757.93
1075.12
704.303
460.472
343.784
291.279
280.976
265.376
243.041
216.388
184.209
147.389
117.783
102.975
96.5826
95.1248
95.4392
98.6366
606.066
1259.52
1238.1
1184
1045.3
700.105
443.171
320.846
264.4
219.866
187.829
164.251
142.997
127.913
120.068
118.601
119.975
124.635
128.838
129.943
657.854
1163.69
1135.87
1099.37
967.511
716.778
482.33
346.142
259.278
214.757
181.883
163.453
148.757
143.576
143.528
145.69
149.931
153.835
158.632
158.765
477.931
1239.71
1197.61
1105.28
840.082
618.982
430.827
325.566
255.881
224.034
200.985
190.066
182.788
180.767
176.5
175.55
176.201
177.521
182.616
182.886
24.3532
245.43
826.823
1040.27
903.223
606.436
427.706
344.61
295.561
281.437
271.828
270.289
267.548
266.9
266.009
262.425
256.232
240.041
229.324
205.843
8.70745
336.108
1054.92
1058
711.945
524.527
408.377
357.59
310.229
287.741
266.051
254.239
239.053
226.551
212.215
199.778
189.578
182.551
179.257
168.413
216.652
897.066
1076.55
1044.68
782.706
556.855
429.695
347.367
281.619
236.046
201.884
174.03
151.212
134.182
126.486
118.766
110.234
96.342
90.4463
79.7977
1790.57
3497.63
2617.76
2286.71
2189.7
2063.56
1610.02
924.703
527.185
398.34
381.077
373.45
350.33
292.067
239.941
200.574
171.227
143.042
127.327
116.181
4077.61
6593.4
3700.24
2688.07
1689.04
1441.72
1131.91
970.95
770.675
686.492
580.8
493.832
391.871
315.094
272.64
256.521
256.696
261.273
272.094
285.053
17955.5
7518.69
4636.11
3177.86
1840.99
1307.35
933.513
787.496
631.44
550.387
445.537
372.993
310.91
281.646
263.334
256.148
251.007
247.755
247.014
245.85
14969.1
5923.67
3911.63
2462.98
1518.27
1182.48
886.459
760.673
615.075
530.305
428.94
362.575
305.777
274.501
252.216
239.562
228.821
223.567
221.829
221.776
500.296
2399.59
4736.54
3739.95
2109.33
1350.31
884.983
719.957
579.87
507.859
425.088
369.605
322.746
295.172
272.972
260.78
249.356
242.74
239.28
237.007
8775.88
6708.62
5490.54
4673.87
3688.26
3010.76
1690.63
976.501
651.81
522.572
442.577
388.217
352.975
326.736
311.627
303.176
297.601
287.585
276.647
259.432
2722.95
4850.83
4911.21
4383.97
3190.41
2864.67
2067.39
1336.62
856.342
594.642
490.43
437.402
405.476
381.662
360.291
354.755
355.241
354.139
345.984
307.98
8156.93
6587.31
5435.49
4052.72
2608.22
2020.57
1592.02
1314.83
1041.99
702.595
495.907
422.516
384.999
359.968
350.051
330.616
332.445
338.709
335.843
300.106
12113.7
10287.5
6080.43
4725.22
3316.41
2763.37
1987.6
1561.65
1319.71
960.25
549.381
427.378
394.272
363.672
331.687
294.017
286.111
282.2
268.648
244.735
11036.7
10596.9
6735.94
4413.17
2572.5
2098.79
1831.52
1751.23
1431.89
998.57
538.973
459.502
423.081
370.589
300.605
258.884
245.486
235.48
224.645
224.142
7526.12
6280.1
6495.21
4828.41
2435.7
1794.76
1435.95
1178.08
934.191
753.94
539.33
440.675
351.843
282.979
270.788
285.996
242.822
220.093
215.552
223.867
4321.83
3695.4
3880.88
2672.92
1471.28
1124.93
1108.38
911.816
715.747
598.886
531.979
476.533
431.41
395.065
375.456
290.702
238.831
224.426
223.876
233.818
9678.6
5048.92
3113.83
2709.36
2090.19
1431.43
1036.24
782.154
756.284
711.94
665.019
587.45
535.265
465.506
339.096
265.524
240.972
237.81
239.478
251.226
12081.2
6156.99
4351.59
2782.48
1900.57
1259.46
948.947
805.955
750.621
678.388
590.564
518.445
430.908
360.094
310.995
289.853
282.765
282.851
286.007
298.34
8377.77
6481.1
3917.61
3076.51
2529.91
1694.82
1065.56
832.248
687.764
575.636
485.883
428.782
380.6
354.128
345.283
345.646
351.297
361.535
369.536
374.681
3018.24
4329.34
3093.25
2817.59
2425.28
1732.1
1139.46
862.156
667.771
574.118
490.649
450.695
420.528
413.72
414.114
417.339
424.646
432.427
441.149
444.009
2011.35
3822.98
3458.18
2686.84
2014.65
1447.14
1032.11
830.711
686.123
620.837
567.216
545.321
528.01
521.938
514.524
513.265
515.958
518.04
523.626
519.144
565.747
3189.17
2817.45
2969.59
2120.79
1477.89
1095.61
928.194
814.88
775.79
746.185
737.464
731.543
731.07
733.983
733.358
726.611
697.434
669.501
598.546
28.6538
1736.76
3022.4
2823.59
1774.52
1297.5
1032.46
914.755
809.755
770.43
723.918
707.092
681.151
664.003
636.169
613.311
580.803
548.976
529.418
483.086
206.853
1370.98
2113.89
2137.36
1660.77
1096.24
795.535
625.048
496.083
433.5
390.709
369.86
352.802
334.233
315.973
296.269
283.125
253.983
233.146
188.987
3395.22
3245.2
2351.26
2267.5
2238.08
2084.45
1517.92
935.633
649.634
545.548
488.642
420.755
350.094
288.636
242.263
206.546
182.749
160.229
151.137
136.437
21341.7
7945.92
4582.52
2956.23
2207.71
1831.97
1396.25
1206.82
970.293
866.1
726.691
630.272
529.029
463.819
420.125
398.37
390.329
387.92
388.546
392.221
19109.5
10121.2
5835.35
3549.89
2296.44
1705.64
1270.05
1063.83
849.733
727.95
595.296
513.874
445.647
410.238
383.52
370.362
360.755
356.187
354.809
355.097
29396
8540.83
4953.35
2862.69
2049.93
1516.23
1225.79
1014.36
818.24
685.762
560.492
481.132
419.532
384.422
358.976
344.435
333.961
329.483
328.442
329.553
989.212
5394.07
6341.44
4334.2
2557.09
1669.44
1256.7
1024.39
822.177
688.127
570.95
493.555
437.686
403.171
378.609
364.357
352.911
347.029
343.793
342.849
7882.52
7824.28
6777.43
5193.47
3646.06
2747.85
1752.04
1251.56
923.984
736.119
614.079
529.197
480.217
444.48
424.963
411.15
399.767
387.934
377.998
366.381
8272.77
8558.5
6049.31
4999.04
3579.95
3090.69
2233.4
1579.93
1101.75
819.975
675.751
589.166
537.677
503.977
480.453
470.652
463.385
450.99
433.607
401.026
11572.1
8233.11
6522.94
4584.1
3117.33
2584.32
2130.71
1757.3
1317.39
917.695
699.593
591.653
530.056
486.878
465.961
457.079
453.492
445.329
422.959
385.991
19468.2
10380
6970.14
4931.09
3577.09
3005.75
2362.02
2056.17
1598.34
1063.94
728.053
602.852
531.355
478.103
421.012
392.556
387.273
375.165
353.201
343.576
13010.8
11538.8
7419.23
4661.12
2923.54
2560.26
2363.63
2130.83
1689.21
1077.33
743.235
626.772
534.32
452.345
370.813
338.409
331.638
322.596
319.798
327.107
8994.78
11017.8
8215.96
5164.55
2788.33
2238.53
1857.15
1532.69
1249.78
976.812
624.541
437.732
343.383
332.991
352.222
348.466
321.16
312.759
315.119
335.893
9766.19
7037.26
6114.02
3650.42
2264.46
1692.63
1604.35
1303
1042.45
880.77
773.265
668.951
576.406
502.2
443.035
354.035
327.433
324.739
330.187
354.262
12155.7
8065.13
5450.71
3896.62
2814.28
1968.95
1555.81
1276.71
1148.51
1016.61
895.975
764.862
655.992
547.134
406.71
364.79
353.157
354.509
362.081
383.408
22310.1
10413.3
5973.6
3950.86
2722.3
1816.69
1397.39
1140.66
1009.5
862.271
729.344
629.463
529.397
467.673
429.836
417.221
414.831
417.293
424.364
439.367
12653.9
9325.01
5095.48
4286.29
3537.26
2229.61
1450.94
1137.3
928.034
765.041
647.074
576.378
522.456
499.203
492.559
492.715
496.917
504.536
510.855
515.234
17340.9
8953.04
4921.85
4114.11
3329.18
2202.35
1473.51
1123.48
902.752
778.485
677.13
628.667
595.117
586.572
584.382
585.388
589.124
593.31
596.974
595.199
4185.55
6208.97
5054.84
3545.99
2657.81
1822.85
1380.05
1124.03
958.073
871.832
804.593
772.352
744.466
730.62
718.863
711.342
709.355
703.334
699.474
680.168
1491.75
5074.97
4967.09
4233.39
2852.85
1946.08
1488.02
1269.02
1126.65
1071.42
1024.3
1008.66
985.841
972.11
951.942
925.606
895.8
852.424
818.783
746.16
344.239
4628.02
4857.41
3708.77
2208.31
1537.84
1250.08
1130.05
1029.94
1010.92
987.795
984.836
971.673
950.113
906.348
866.642
814.035
770.557
724.913
642.499
1035.12
2809.1
2917.62
2361.08
1623.12
1148.51
844.386
658.725
546.828
490.773
452.157
425.648
403.19
381.428
361.16
336.995
319.086
284.813
266.963
227.435
2617.23
2053.76
1844.42
1865.62
1945.33
1828.7
1322.43
880.146
681.593
568.469
467.489
370.875
300.632
251.238
217.054
191.342
172.667
157.221
149.053
132.814
13668.4
6317.81
5263.5
3059.17
2545.71
2026.06
1627.8
1437.76
1185.82
1023.19
863.365
760.942
669.949
612.513
569.211
545.394
531.561
525.301
519.883
520.865
8984.05
10391.3
7562.52
4099.5
2844.11
2045.17
1623.04
1337.54
1089.04
910.677
762.731
667.062
596.338
554.036
523.237
506.867
496.084
491.752
490.76
493.985
19096.9
11230.1
6073.11
3242.43
2571.74
1763.73
1560.79
1248.59
1040.54
854.955
717.912
620.678
557.175
516.384
489.867
473.409
463.779
460.456
460.242
464.069
6478.96
9911.17
7971.72
4447.44
2980.71
1912.09
1627.46
1310.75
1081.97
882.249
743.02
641.047
579.435
536.631
510.183
492.759
481.224
475.355
472.897
474.362
10412.9
8504.15
7438.87
4848.67
3575.85
2464.37
1938.3
1502.27
1196.3
949.609
804.685
691.619
634.452
587.96
564.605
543.11
527.128
513.704
503.839
498.372
34878
8605.94
7000.88
4854.37
3930.25
3153.34
2418.24
1758.98
1327.32
1027.97
871.216
757.691
698.582
656.062
629.588
608.904
589.675
567.845
546.378
526.851
17719
9653.74
7437.96
4826.19
3717.03
3037.53
2527.91
1941.92
1464.45
1067.75
864.183
733.396
659.379
607.741
614.362
601.31
583.114
558.666
529.633
511.665
20000.6
11971
8110.14
5023.88
3931.89
3311.51
2719.19
2204.64
1603.88
1122.14
858.326
722.995
629.282
564.793
511.69
516.762
501.821
481.759
469.654
473.081
14684.5
14238.6
9096.38
4842.65
3297.56
2846.95
2632.5
2209.22
1633.39
1128.11
874.129
717.035
587.093
497.505
433.218
446.034
441.121
438.418
441.32
463.376
13467
11322.6
8816.83
5006.31
3152.61
2487.87
2107.33
1746.11
1411.18
1128.66
846.289
573.785
427.421
399.744
417.064
441.572
433.952
435.528
447.074
480.447
12019.6
9823.21
8531.8
4554.73
3000.8
2162.07
1996.66
1607.12
1312.22
1117.37
958.651
791.562
647.393
548.468
475.956
450.537
448.062
453.816
472.127
503.15
12441.6
10650.4
8362.06
5022.74
3686.52
2550.83
2059.63
1663.79
1437.73
1249.69
1052.18
869.742
709.709
583.089
505.566
491.592
491.454
500.142
515.541
538.859
17469.1
10993
8025.31
5077.76
3550.5
2275.66
1828.8
1438.01
1270.91
1031.81
875.076
747.885
652.701
601.207
576.411
571.296
571.8
578.545
588.427
603.281
19885.3
9838.35
7646.64
6478.39
4461.74
2581.74
1827.08
1448.73
1200.5
967.219
833.379
744.358
692.618
673.522
667.568
667.667
671.21
677.434
681.881
685.287
8274.36
9123.47
7357.75
5564.98
4220.51
2530.23
1821.8
1401.23
1177.82
1012.78
902.619
841.317
806.545
792.642
786.872
785.404
785.608
785.716
784.776
777.517
13547.5
10090.2
6987.18
4324.95
3299.45
2132.25
1753.14
1442.49
1279.12
1165.57
1088.79
1037.5
1000.79
974.739
957.238
942.106
934.213
916.703
905.105
871.867
14314.8
8533.32
7654.78
5416.08
3682.56
2359.25
1900.17
1640.37
1502.17
1431.07
1376.6
1345.36
1303.3
1261.12
1216.39
1161.78
1115.43
1055.71
1010.19
937.57
2672.17
8429.83
6876.14
3971.76
2474.22
1652.12
1433.45
1350.12
1306.14
1322.57
1323.44
1322.61
1299.45
1247.03
1180.82
1111.51
1039.91
975.946
895.281
810.207
1961.24
2759.88
2649.88
2098.28
1497.36
1068.59
793.733
631.894
543.475
491.763
455.831
424.657
401.266
374.666
351.148
319.299
296.623
266.53
251.058
213.492
1080.99
1889.5
1561.06
1526.28
1546.71
1313.59
914.083
714.364
574.573
438.114
330.094
262.474
220.851
189.637
164.591
144.724
130.4
121.404
115.938
114.49
14324.8
7907.44
5736.59
3611.77
3030.37
2068.05
2050.09
1692.24
1599.95
1282.55
1217.6
1081.24
1040.34
961.925
936.186
897.04
885.079
869.281
863.859
870.457
10728.8
9501.98
9015.82
4772.72
3833.71
2341.68
2235.43
1678.45
1569.01
1230.14
1156.39
993.41
958.963
885.582
870.668
840.961
836.772
830.523
831.171
843.934
21325.3
13472.9
7012.02
4142.67
3156.54
2093.41
2001.11
1497.19
1431.63
1124.59
1065.66
912.642
886.172
826.169
815.667
792.451
790.927
788.351
789.934
803.31
13936.5
10054.3
9245.42
4822.87
3844.41
2180.71
2235.19
1672.48
1575.11
1216.91
1135.66
958.732
926.606
855.174
841.775
812.066
806.167
797.696
797.427
806.349
7927.18
9287.14
8602.55
4746.79
3967.07
2463.45
2396.55
1805.4
1646
1269.97
1181.91
1019.66
983.454
919.915
900.745
865.407
850.344
833.866
826.541
831.787
22699.8
11392.5
7841.36
5013.75
4716.74
3226.68
2871.59
1992.48
1742.96
1365.36
1277.9
1108.24
1078.53
1013.56
991.159
942.939
914.101
881.775
860.649
857.646
11352.1
10775.9
9188.87
5141.9
4790.52
3401.97
2910.48
2148.36
1765.58
1358.67
1214.39
1054.28
999.474
940.964
1006.26
951.346
906.488
866.228
842.352
844.524
35582.8
12798.8
9414.12
5410.03
4670.78
3685.18
3185.2
2354.78
1781.01
1380.03
1166.85
1033.47
936.574
873.048
876.249
869.217
809.63
786.372
783.115
805.27
16359.8
14499
10813.5
5159.6
4193.66
3194.57
3043.88
2421.79
1821.49
1395.92
1124.26
925.878
843.276
791.496
778.025
786.568
754.561
752.967
763.292
807.074
27016.8
12747.6
10551.1
5194.48
4038.64
2787.28
2463.36
2106.92
1779.49
1442.06
1146.25
825.569
689.269
711.631
755.147
783.57
758.39
762.775
783.65
824.601
10028
10789.8
11168.7
5480.21
4201.77
2746.01
2530.15
2079.01
1801.49
1539.6
1280.54
1038.12
908.343
813.263
779.789
794.825
782.901
791.683
815.912
853.514
11096
12290.8
11635.4
5943.49
5275.23
3261.42
2708.39
2109.1
1911.93
1651.29
1407.62
1153.73
969.372
827.328
849.529
838.189
839.855
854.402
869.031
896.888
24875.1
11934.8
11448
6038.7
5037.45
2772.13
2553.76
1898.09
1763.32
1359.92
1257.65
1051.57
1007
940.977
939.075
930.339
936.152
945.336
953.915
971.943
12861.6
10076.6
11234.1
7394.96
5731.34
2773.61
2512.25
1923.78
1737.14
1337.24
1246.88
1107.15
1085
1056.06
1054.2
1050.62
1055
1058.29
1059.03
1063.17
7773.03
10264.6
10129.7
6637.2
5482.46
2814.67
2519.37
1856.07
1748.58
1443.61
1385.89
1260.42
1250.19
1210.47
1210.56
1194.32
1193.68
1185.8
1178.23
1165.26
7727.42
11640.2
9458.01
5083.77
4345.46
2482.03
2440.23
1936.33
1890.83
1670.93
1632.52
1520.01
1495.24
1434.55
1419.95
1386.27
1372.51
1338.18
1317.1
1268.6
25988.7
14085
11098.5
6482.72
5172.09
2879.94
2760.71
2302.72
2271.28
2070.35
2042.36
1931.96
1886.13
1778.59
1725.95
1624.32
1575.77
1486.02
1439.23
1356.79
35091.4
17442.8
10895.5
4541.45
3350.63
1949.6
2067.65
1896.73
2014.65
1963.55
2001.18
1953.03
1908.86
1787.59
1707.05
1575.25
1490.05
1384.04
1303.61
1227.84
1475.39
2845.3
2555.01
1759.25
1169.61
824.442
647.691
546.898
482.612
434.944
402.314
370.375
341.231
304.587
272.818
239.092
214.318
189.093
176.38
154.233
791.145
1001.34
709.951
1105.33
888.449
1091
798.143
651.76
637.088
504.624
842.627
730.068
714.404
568.603
698.54
887.269
793.04
1087.92
831.839
1050.63
936.501
482.835
763.453
671.633
739.845
556.595
896.87
771.088
325.464
545.922
354.634
1506.38
1306.54
1688.73
1631.67
200.914
322.76
216.767
1242.77
1141.07
1570.81
1276.95
177.975
193.616
195.188
1098.3
947.219
1220.19
1032.59
137.595
193.733
139.589
856.276
558.272
921.884
557.848
78.2997
111.494
74.5596
472.7
367.503
472.865
387.14
76.4185
75.058
87.0088
357.898
345.71
383.029
375.419
76.4592
89.5856
90.9428
340.365
324.171
370.912
347.44
60.1565
89.609
73.6478
317.95
303.688
337.491
308.254
286.683
345.104
216.445
1445.62
1506.53
1230.67
1106.24
206.424
194.8
151.531
1478.51
1222.1
1048.83
873.923
194.174
148.756
157.026
1170.12
1009.42
842.329
774.38
137.345
157.812
127.087
910.015
545.123
730.769
513.346
77.1822
102.862
90.5306
465.153
396.397
466.378
411.936
91.9949
93.1317
94.3154
393.755
383.052
400.026
356.546
93.2575
92.763
81.8109
376.442
346.606
339.638
288.058
74.3316
78.931
52.208
333.981
303.879
272.705
233.834
222.689
312.706
203.797
1189.29
1086.35
1089.34
945.232
150.502
175.174
131.241
1022.8
827.62
857.959
681.176
146.806
126.483
119.465
787.734
707.608
647.26
558.894
117.372
114.811
100.471
666.651
500.426
529.929
473.151
93.2908
97.8781
96.2357
466.311
411.352
461.955
424.963
92.0544
95.8196
91.1153
395.386
342.255
411.496
370.904
76.016
88.6571
83.6675
323.347
270.721
358.475
329.595
49.3033
83.0731
72.1934
257.616
226.904
321.28
310.845
171.849
235.191
110.457
920.182
853.793
724.755
662.893
122.074
100.916
93.9709
780.194
634.89
643.783
596.477
109.691
94.3993
95.8369
606.284
529.784
582.38
536.391
95.8864
97.1137
99.8087
508.109
462.553
525.536
500.476
93.6411
100.154
90.4189
452.264
420.864
491.87
450.754
90.3586
87.9116
86.7527
410.28
383.638
438.893
424.404
90.0935
90.516
100.777
376.547
357.564
423.64
413.5
74.4102
101.535
81.093
350.345
329.766
403.886
372.426
1635.55
2184.19
1951.94
2262.53
2052.08
2479.54
2272.25
1388.72
1880.06
1596.12
1981.14
1698.73
2206.59
1900.56
1075.98
1501.94
1159.41
1580.14
1190.88
1754.39
1247.3
631.594
1011.79
619.974
1055.26
754.887
1082.17
750.391
440.975
542.256
458.632
692.065
590.023
696.07
609.468
402.092
449.562
427.747
568.474
518.292
588.953
534.367
371.034
419.413
387.707
504.459
466.994
517.012
465.929
335.459
375.922
333.073
455.8
419.889
449.669
398.377
1791.88
1492.75
1295.6
2272.59
2159.23
1853.49
1647.11
1511.11
1232.48
1050.19
2092.36
1816.75
1572.33
1361.17
1134.71
1009.9
884.616
1692.42
1230.83
1294.58
1050.15
610.869
818.735
588.975
1073.43
753.671
969.464
718.444
467.87
541.591
467.587
702.415
617.425
656.708
530.017
433.615
448.725
390.586
595.844
534.806
496.587
415.241
385.075
370.678
314.083
515.065
457.276
393.614
347.655
327.666
298.604
254.714
438.745
390.287
338.689
316.56
1248.18
1302.11
1070.94
1778.31
1544.66
1628.65
1341.72
979.688
980.696
797.763
1467.43
1261.08
1249
1052.36
810.306
758.914
652.131
1199.14
989.207
1002.81
867.18
576.714
619.345
554.037
928.916
702.99
829.446
741.962
463.105
539.073
489.457
643.248
511.09
715.678
633.527
373.496
471.962
422.162
473.94
380.691
606.27
532.703
295.648
407.472
372.815
359.201
324.922
511.857
462.552
249.365
363.017
342.294
322.052
315.007
449.175
420.483
988.963
942.936
821.113
1488.06
1310.09
1346.45
1210.19
750.259
789.148
717.857
1219.07
1019.35
1150.63
1030.36
623.954
699.798
637.762
972.139
851.07
999.801
899.781
545.107
624.284
588.796
819.003
743.46
874.944
808.963
490.274
577.583
529.085
721.427
652.207
786.91
711.972
441.246
516.035
492.028
629.556
567.833
690.471
635.485
404.449
487.648
463.058
549.473
499.605
618.25
557.701
362.146
450.79
404.228
484.171
439.125
536.386
472.127
2145.34
2536.07
2314.06
2618.95
2319.53
2698.13
2406.3
1728.18
2237.27
1891.91
2176.96
1744.27
2275.57
1823.56
1194.43
1741.38
1237.41
1598.02
1206.81
1666.79
1220.61
785.815
1082.47
784.88
1097.76
872.643
1102.26
877.514
626.058
734.944
644.398
822.478
717.554
831.586
724.975
546.481
620.964
558.002
689.96
619.359
694.217
610.708
489.946
538.304
482.394
601.02
551.859
585.681
520.598
438.685
465.147
411.21
538.22
497.647
502.254
449.03
2210.1
1936.78
1722.03
2559.61
2313.37
2133.28
1892.84
1819.98
1642.35
1415.16
2189.28
1781.71
1798.04
1523.13
1224.9
1340.43
1078.29
1638.82
1218.38
1432.33
1165.41
971.951
953.642
1059.11
1081.84
949.166
971.021
1070.61
745.879
707.988
748.232
779.304
711.123
742.882
784.697
556.557
470.535
402.164
695.811
601.851
524.369
437.573
471.599
385.482
353.682
573.487
502.065
419.09
389.033
402.016
348.137
330.041
482.638
436.135
384.53
371.825
1612.39
1718.87
1418.07
2044.57
1782.23
1952.17
1632.04
1317.16
1323.49
1119.13
1693.19
1446.36
1531.29
1305.19
1026.82
1066.76
925.787
1367.49
1140.34
1246.42
1092.64
912.67
887.163
933.053
1007.02
874.911
829.297
979.056
607.152
571.181
674.291
498.795
619.464
451.056
667.271
356.629
641.223
559.421
495.213
405.969
729.577
618.654
331.796
536.393
482.164
392.699
379.231
588.241
520.746
330.23
467.672
434.247
379.357
376.1
504.083
464.116
1398.17
1489.45
1323.94
1896.52
1636.13
1854.35
1633.51
1092.61
1255.69
1119.24
1530.13
1296.95
1539.37
1359.93
914.668
1083.8
971.253
1240.17
1094.97
1311.07
1168.18
798.12
943.742
867.393
1054.64
947.87
1130.76
1020.68
694.813
841.712
756.116
912.325
800.246
981.391
861.01
597.712
731.766
666.192
762.97
660.948
826
728.888
519.342
645.195
574.959
630.968
556.481
696.641
603.795
451.925
551.688
481.393
535.793
479.281
575.452
496.184
2363.87
2770.27
2437.76
3054.58
2499.86
3063.84
2590.75
1749.67
2288.41
1810.71
2302.47
1829.39
2392.61
1871.42
1224.9
1654.62
1231.69
1701.45
1369.78
1728.09
1371.54
906.842
1122.93
910.095
1278.29
1086.56
1279.09
1074.46
751.743
863.432
750.804
1044.24
939.015
1023.07
892.626
648.103
717.954
629.278
906.122
822.87
855.202
770.535
578.516
603.361
538.051
805.111
755.136
751.343
697.995
521.689
519.974
465.521
739.866
691.28
680.493
623.465
2347.59
2196.16
1944.57
2910.55
2511.87
2426.99
2154.06
1776.84
1845.58
1559.34
2336.45
1862.74
2051.52
1759.57
1232.28
1466
1199.94
1726.43
1377.74
1664.22
1390.76
921.056
1130.17
907.704
1286.05
1078.38
1309.06
1105.11
753.854
831.218
647.762
1023.62
877.4
1035.01
819.07
616.528
592.477
471.248
833.988
734.612
750.256
600.587
516.214
445.997
407.373
714.811
667.211
578.208
564.101
451.136
402.392
388.002
651.282
604.968
562.562
545.462
1837.51
2033.09
1705.27
2342.18
2066.58
2330.75
2002.96
1491.77
1603.49
1373.31
1975.7
1723.48
1904.69
1679.01
1182.58
1313.24
1153.98
1640.25
1394.28
1616.81
1427.99
928.057
1109.22
985.011
1321.81
1123.73
1365.49
1188.03
636.699
941.272
802.416
1049
817.919
1127.55
943.027
449.368
756.707
636.012
745.11
592.716
884.888
754.689
401.031
603.783
534.717
571.734
564.076
729.851
677.745
392.725
517.96
475.016
564.421
550.716
661.43
607.629
1715.14
1988.62
1732.69
2349.08
2025.22
2446.3
2073.5
1370.22
1630.63
1439.01
1917.62
1686.37
1946.67
1736.53
1160.77
1386.42
1236.4
1627.98
1451.37
1686.29
1529.64
998.787
1195.64
1071.86
1391.21
1217.16
1471.15
1296.82
832.937
1027.61
895.123
1159.39
987.745
1240.39
1075.67
679.467
856.408
748.086
933.856
809.661
1021.43
878.132
569.69
712.59
614.123
780.288
706.53
836.1
728.896
489.007
584.99
503.036
683.617
613.924
696.377
608.103
2563.15
3195.71
2676.57
3566.33
2810.26
3608.86
3012.29
1897.77
2466.9
1947.91
2589.96
2205.97
2786.75
2324.63
1469.39
1814
1477.96
2130.98
1902.17
2228.56
1968.23
1202.5
1387.79
1181.68
1818.96
1755.45
1891.91
1737.11
1067.28
1129.64
996.676
1743.06
1677.87
1700.3
1596.92
951.149
960.592
897.996
1630.96
1595.85
1577.39
1605.5
888.589
886.524
837.765
1583.23
1549.03
1601.45
1538.83
817.12
819.879
755.636
1522.75
1492.54
1521.14
1490.42
2605.35
2542.13
2269.74
3491.74
2978.51
2990.41
2761.8
1950.72
2170.41
1887.92
2783.95
2367.02
2673.95
2441.86
1486.71
1792.68
1512.78
2265.71
1987.55
2348.71
2065.72
1181.64
1424.73
1203.9
1907.5
1727.22
1971.58
1743.39
969.856
1130.49
900.608
1679.33
1546.08
1669.17
1426.66
849.702
828.599
698.406
1521.6
1561.37
1376.51
1417.6
807.489
693.57
709.954
1578.8
1521.61
1473.48
1476.15
735.992
708.75
678.742
1503.21
1461.93
1464
1439.84
2193.88
2485.66
2160.13
2949.69
2736.88
3105.06
2827.37
1863.42
2064.36
1847.29
2662.55
2463.52
2733.94
2553.56
1523.13
1785.13
1578.2
2376.08
2100.23
2490.71
2230.94
1224.17
1507.69
1306.73
2008.05
1769.79
2142.71
1925.03
901.377
1240.04
1039.3
1688.36
1427.77
1857.74
1642.42
692.51
978.057
867.247
1373.55
1416.51
1594.32
1603.9
711.391
855.07
814.325
1474.65
1483.52
1620.05
1556.3
683.976
796.759
731.395
1471.93
1437.35
1534.12
1492.58
2185.27
2657.53
2223.15
3263.29
2861.02
3394.17
2782.72
1856.82
2088.88
1884.65
2754.02
2574.38
2616.2
2543.26
1608.58
1842.52
1687.82
2529.65
2285.76
2520.16
2354.75
1343.27
1620.44
1429.76
2198.53
1991.04
2246.12
2089.45
1094.22
1373.95
1201.86
1930.48
1729.33
2047.04
1857.99
930.523
1141.09
987.824
1682.94
1666.9
1780.17
1653.3
837.356
947.246
840.235
1656.57
1566
1630.79
1516.88
734.248
806.101
711.447
1540.58
1480.32
1483
1423.23
892.627
858.684
796.526
825.333
860.945
886.742
832.258
975.072
1029.81
906.556
1028.43
947.345
1053.09
867.745
888.659
788.902
801.076
604.488
859.108
818.439
709.463
995.17
1090.46
1013.92
1104.68
990.665
1084.94
1021.04
923.935
857.356
943.748
899.088
914.801
866.359
955.14
994.813
1053.18
1102.4
1003.23
1075.42
889.226
1024.25
919.826
620.056
892.343
907.008
851.91
730.448
956.715
710.437
678.372
650.274
681.045
678.72
710.83
678.002
719.162
732.351
577.674
531.688
691.148
761.039
479.614
670.098
617.728
529.256
446.294
649.304
637.074
445.762
777.841
811.958
802.575
850.783
773.873
818.856
807.283
739.38
706.561
765.696
725.581
739.392
702.46
766.426
749.116
545.29
835.467
653.79
795.221
491.456
783.834
700.041
452.96
692.568
611.112
661.299
457.769
738.163
825.249
786.296
737.027
584.395
806.295
685.662
738.629
914.493
906.309
853.573
942.054
865.026
956.532
907.265
868.99
778.192
822.778
841.703
821.843
821.883
874.231
966.211
1044.87
1021.25
1072.08
880.533
1025.98
1022.01
879.884
617.883
928.351
880.513
728.141
792.879
953.605
965.127
995.859
1056.39
1012.44
1006.29
959.732
1015.32
919.897
889.336
922.826
974.879
871.874
924.671
971.085
566.782
511.437
532.016
394.086
573.529
390.665
523.238
733.329
737.012
732.971
808.965
696.873
777.063
775.161
693.797
624.26
702.521
706.857
659.985
653.925
741.256
657.666
527.104
669.34
810.896
475.445
720.713
744.208
610.667
411.409
594.074
630.095
415.482
563.525
684.098
776.956
853.331
872.809
855.555
824.344
815.938
821.845
732.808
739.818
721.751
813.421
687.596
778.06
772.07
474.111
569.102
437.952
858.103
819.736
846.791
801.164
374.047
357.54
317.083
760.937
700.736
781.095
775.092
264.949
297.259
282.985
636.122
562.987
771.447
749.529
166.535
249.875
192.192
434.292
346.416
670.762
484.111
121.956
146.704
123.874
294.162
275.139
359.232
315.752
110.731
115.547
113.133
265.14
257.708
305.546
300.257
105.526
111.498
110.518
250.515
249.456
292.022
287.085
88.2438
109.185
93.9504
242.857
260.665
276.539
293.596
844.39
1000.48
805.206
1690.5
1518.6
1630.95
1519.13
683.162
462.995
578.541
743.991
668.591
752.602
469.298
555.536
250.337
302.952
521.182
490.597
583.445
270.521
485.984
182.098
194.271
447.869
450.843
481.888
183.71
454.062
171.479
178.157
429.161
391.909
491.174
171.746
202.296
99.2266
112.052
215.346
180.727
250.427
92.3106
181.501
75.6965
70.6954
155.206
157.821
174.413
71.2427
200.855
77.3868
78.7167
168.525
170.568
199.597
79.5228
196.401
76.1212
79.6306
170.008
170.422
197.862
79.323
97.1056
132.425
94.3071
252.005
256.556
253.695
250.141
564.165
656.145
537.534
1193.05
1195.11
1178.59
1160.12
601.786
334.393
383.495
613.907
641.393
591.702
315.023
532.236
258.786
231.105
655.085
600.184
590.393
211.722
452.708
185.043
171.795
466.331
476.33
441.278
173.033
490.871
187.644
188.613
531.611
501.84
512.921
184.52
215.844
87.7112
105.2
256.695
212.58
250.656
87.3706
234.174
83.5078
84.2478
209.823
222.029
224.906
90.3751
234.055
94.5114
95.9576
234.254
233.499
237.343
95.7786
205.29
89.0752
89.6034
216.438
211.993
211.381
87.3857
88.3318
101.535
70.9814
232.236
232.041
199.412
206.357
492.019
518.309
461.578
1045.34
1076.68
970.586
1024.33
535.48
279.641
331.85
536.391
555.569
518.906
276.131
470.291
180.925
196.444
530.423
486.262
507.591
176.563
372.298
144.594
140.545
391.244
388.075
379.815
138.351
337.872
145.062
136.739
388.632
376.759
357.996
133.131
251.432
94.4961
100.192
252.168
241.863
257.367
96.8008
234.209
94.1864
95.3379
238.147
235.147
240.209
94.6647
193.827
84.5668
86.5195
209.034
197.574
204.978
82.5166
159.599
68.308
71.9849
163.151
156.186
164.913
68.8635
78.0576
125.048
104.936
205.959
219.087
254.532
272.799
292.979
286.777
289.102
620.962
738.711
586.215
627.279
339.265
197.953
188.902
401.019
455.084
329.706
153.614
337.971
137.051
120.418
413.156
376.148
347.891
116.217
301.289
116.58
111.883
324.578
315.333
311.28
110.015
263.08
101.906
101.645
278.511
267.207
271.389
99.131
238.538
94.2478
94.0946
245.504
242.294
244.476
92.2543
222.58
92.2031
87.3348
233.777
230.593
223.567
87.1119
230.533
89.8724
89.4196
223.661
222.626
227.117
91.6982
230.776
89.8061
94.9149
218.054
216.022
232.516
94.7952
118.141
155.934
119.542
292.542
299.492
312.416
303.434
246.299
353.397
249.216
543.192
474.875
515.762
488.969
170.921
182.301
166.358
439.556
446.649
465.929
475.705
173.263
167.229
171.987
475.753
483.333
507.47
524.126
178.841
179.347
181.122
484.615
484.056
530.046
529.444
172.696
180.179
171.498
478.212
455.609
518.864
487.089
156.795
160.399
153.938
431.577