/*--------------------------------*- C++ -*----------------------------------*\
  =========                 |
  \\      /  F ield         | OpenFOAM: The Open Source CFD Toolbox
   \\    /   O peration     | Website:  https://openfoam.org
    \\  /    A nd           | Version:  10
     \\/     M anipulation  |
\*---------------------------------------------------------------------------*/
FoamFile
{
    format      ascii;
    class       volScalarField;
    location    "6.1";
    object      nut;
}
// * * * * * * * * * * * * * * * * * * * * * * * * * * * * * * * * * * * * * //

dimensions      [0 2 -1 0 0 0 0];

internalField   nonuniform List<scalar> 
12920
(
5.88131
9.32989
5.04824
5.01376
3.56164
3.50243
3.31693
3.03973
1.69258
1.08787
0.863422
0.902306
0.895715
0.851576
0.709966
0.603401
0.499164
0.415085
0.358465
0.337521
4.79971
10.9589
9.41753
7.96853
6.24781
5.46588
4.44038
4.31886
2.65316
2.36414
1.83524
1.56839
1.24966
1.05118
0.909288
0.895928
0.920342
0.973567
1.05085
1.20438
11.5693
11.6234
8.5952
8.60179
5.39466
5.23318
3.9829
3.85405
2.81559
2.62691
1.97342
1.70259
1.39168
1.31171
1.23917
1.26904
1.27232
1.27696
1.28194
1.27374
8.17562
10.9884
9.32326
7.54515
5.80124
4.96566
4.22159
3.86618
3.48012
3.22034
2.57789
2.2561
1.80348
1.67029
1.50124
1.45668
1.37082
1.30808
1.27033
1.26676
0.991981
7.36076
6.91449
8.35766
5.39483
5.15102
3.83584
3.76976
3.16102
3.15611
2.40164
2.19245
1.82805
1.7258
1.55612
1.50247
1.42106
1.33886
1.29908
1.28789
10.5674
12.3082
7.74981
9.42495
5.78178
6.17484
4.46169
4.21468
3.18629
3.10877
2.53681
2.3372
2.04535
1.92762
1.81349
1.72939
1.59673
1.42227
1.32092
1.24047
4.423
11.6597
6.80906
8.8475
4.94307
5.18775
4.26311
3.93065
3.19256
2.87913
2.4454
2.35284
2.15146
2.0946
1.90421
1.76373
1.59436
1.47658
1.39035
1.28253
6.99739
11.5285
11.2158
10.316
7.52871
6.85772
1.66517
1.31314
1.02404
0.831018
0.696753
0.707823
0.688095
0.665877
2.15333
1.66853
1.49024
1.42417
1.37899
1.34514
3.21559
13.2668
12.3907
11.1515
9.41463
3.01532
0.676776
0.350513
0.271764
0.281255
0.22638
0.203435
0.232389
0.231498
0.704039
1.77306
1.56259
1.51072
1.43655
1.32395
9.50778
16.3723
10.8582
9.9987
7.07569
2.64946
0.715807
0.353368
0.232311
0.293603
0.210296
0.201124
0.25803
0.236459
0.632915
1.53561
1.32952
1.21124
1.16092
1.16369
4.92978
10.365
9.61038
9.15372
7.03189
2.64237
0.763543
0.413433
0.261913
0.262311
0.200496
0.212098
0.205
0.169829
0.510996
1.72577
1.3598
1.13175
1.03626
1.09146
2.25835
8.38956
6.97749
6.98699
5.35538
1.96136
0.836077
0.378213
0.265263
0.229093
0.206602
0.211985
0.214692
0.223738
0.759383
1.94554
1.46196
1.27142
1.17348
1.21644
6.36501
7.95957
5.93764
6.85453
6.50671
5.44826
1.85495
1.10261
0.835557
0.840522
0.791264
0.741655
0.76071
0.78785
2.34425
1.68288
1.51474
1.42928
1.41137
1.45656
3.75688
10.2131
8.87504
7.36082
5.96466
4.82111
4.16276
3.82966
3.76132
3.65614
3.4996
3.30256
2.72479
2.314
1.85728
1.75781
1.67979
1.65673
1.64532
1.67546
0.751008
8.00858
4.89163
7.71214
7.25206
5.94523
4.72625
4.02099
3.64985
3.32876
3.07676
2.87725
2.60411
2.36319
2.18496
2.17475
2.13926
2.10155
2.10298
2.04762
1.87825
4.31838
7.55803
7.42783
6.97759
6.00849
4.92962
4.17717
3.61522
3.29
3.02755
2.86993
2.60781
2.61955
2.48201
2.53503
2.48457
2.44973
2.44139
2.35275
3.69089
3.60294
7.7527
7.44622
6.49757
5.58216
4.6583
4.05071
3.59092
3.35977
3.18185
3.09388
3.00764
2.9023
2.60791
2.50912
2.37425
2.30969
2.30728
2.31326
0.0542138
1.94367
5.72873
7.21911
6.73824
5.52871
4.64322
4.16685
3.84245
3.76398
3.34175
3.28003
2.92893
2.81662
2.55677
2.42521
2.28286
2.13606
2.04032
1.98787
0.0200476
1.57929
5.39074
7.28341
5.99271
5.13952
4.53483
4.24365
3.90839
3.43908
2.65777
2.40389
2.04073
1.8812
1.70496
1.59903
1.51438
1.47593
1.45679
1.45093
0.58898
5.9614
4.93513
7.22943
4.73695
4.17579
2.84197
2.39357
1.77774
1.4958
1.2077
1.0298
0.855532
0.748686
0.691459
0.649236
0.601236
0.529611
0.502447
0.465178
5.26124
19.8241
14.5602
17.7097
15.358
17.1954
13.7122
10.0439
6.6047
6.24465
6.28937
6.74672
6.44668
5.64311
4.7551
4.17942
3.69276
3.20701
2.9202
2.73425
9.34931
35.2357
32.0102
32.8273
24.9009
24.0673
21.7031
20.671
18.5508
17.6976
16.1269
14.507
12.1707
10.4746
9.75084
9.85173
10.5645
11.2824
11.9724
12.5217
42.0136
49.734
39.631
31.8915
24.849
23.4527
20.6205
19.852
17.7701
16.6931
14.6214
12.9825
11.6045
11.2956
11.4068
11.8327
12.101
12.2358
12.3638
12.3563
45.8405
49.0562
43.926
34.8119
25.7784
24.2861
20.8194
20.0838
18.0194
16.8037
14.7877
13.5681
12.4886
12.1702
11.9804
11.9658
11.7845
11.7578
11.7835
11.7788
1.53316
18.4498
38.2518
41.9227
30.1768
22.7415
17.1359
17.1866
16.0336
15.714
14.4982
13.8466
13.1968
13.0522
12.6412
12.5182
12.1281
11.8858
11.7177
11.666
22.939
39.9226
42.7665
39.2292
31.0985
25.5534
16.8978
14.6858
14.0003
14.49
14.4276
14.3618
14.1551
13.8852
13.5721
13.2834
12.9899
12.4479
11.9009
11.3837
3.99248
24.6877
37.041
34.1495
25.8947
24.6838
20.672
16.9105
14.5896
13.5893
14.1597
14.8256
14.9964
14.6438
13.9376
13.6788
13.4238
13.0123
12.5989
11.6293
35.0365
48.0744
45.5935
41.3643
31.2081
25.0539
18.9274
16.7063
14.961
11.4965
11.4646
12.7126
13.0172
12.7231
13.486
12.7344
12.829
12.9368
12.6849
11.8209
25.7457
54.597
44.8174
42.7344
33.6795
25.5915
16.4014
14.4602
16.0247
14.2032
10.0199
11.8948
13.2746
12.9428
12.5961
12.1135
12.1193
12.1043
11.7549
11.4554
57.1263
49.4615
37.9858
37.8595
30.8536
25.4313
21.201
18.5557
14.6087
15.2909
11.0562
13.744
14.3358
12.8407
10.6779
10.0763
10.0332
10.2631
10.4397
10.9895
13.1616
27.9604
30.679
38.6753
33.941
26.4994
21.3385
17.7154
14.4795
14.6316
12.7507
12.2571
10.325
8.8022
9.47249
10.7999
9.59686
9.70024
10.2213
10.9036
12.6023
26.1565
35.7198
35.2262
24.5067
19.9893
18.6635
16.9526
15.0267
14.9027
14.8026
14.3117
13.6012
13.1365
13.3808
10.6982
10.0337
10.6293
10.9772
11.3871
31.3742
34.8632
30.9065
34.3682
32.8928
27.6217
18.4994
14.462
16.0101
17.0257
16.7063
15.511
15.3898
14.385
11.5726
10.3638
10.9291
11.568
11.8017
12.167
25.7018
25.6561
32.1983
34.886
32.2677
25.173
21.3427
19.0655
19.5561
18.6457
17.1953
15.6863
13.9513
12.6229
11.9695
12.2206
12.5905
12.8227
12.9813
13.2827
13.6696
19.5965
19.4012
27.2943
33.0767
28.3474
21.8526
20.2703
19.3984
17.8381
16.232
15.0633
14.2264
13.9144
14.1021
14.4503
14.7656
15.1047
15.2629
15.05
5.00919
30.3403
29.7477
32.4208
34.2842
30.0584
24.4683
21.7813
19.4137
18.3244
16.9379
16.3873
15.9839
16.1038
16.2284
16.3345
16.4743
16.5623
16.7206
16.4397
5.33369
33.7879
36.8702
36.2387
32.9141
27.8827
23.1324
21.4146
20.1098
19.6062
19.0818
18.8636
18.5394
18.3317
17.9625
17.7899
17.6991
17.6684
17.6908
17.5151
2.55737
11.705
22.7422
31.9308
30.4031
26.6775
23.5706
22.6355
21.9902
21.94
21.4725
21.2492
20.9222
20.55
20.1042
19.6953
19.4031
18.7468
18.368
17.7576
0.20161
6.53424
23.4149
32.4124
28.6574
25.4956
22.8586
21.625
20.1962
19.8152
18.8554
18.596
17.917
17.4784
16.9069
16.6418
16.0908
15.6461
15.4649
15.2947
0.390459
10.6629
23.2694
25.8535
22.8693
18.5835
15.828
13.6344
9.58341
8.74401
7.44596
7.01334
6.34477
5.88984
5.42104
5.06771
4.84208
4.40777
4.10259
3.50963
7.97161
28.553
22.7041
26.6328
26.4542
25.5735
18.2685
12.6079
9.00707
8.93808
8.37326
7.91413
6.72196
5.8649
5.08134
4.58192
4.18315
3.75421
3.56547
3.24275
50.9256
33.8492
44.262
44.3309
36.3392
33.7686
29.0442
27.1085
24.2456
22.9681
21.18
19.7164
17.9088
16.8216
16.2749
16.2274
16.4797
16.7412
16.8693
17.1435
45.4422
60.5254
55.8655
49.7181
42.2093
38.3423
33.4499
30.8875
27.5209
25.2769
22.4676
20.5626
19.0666
18.5579
18.2578
18.2163
18.1199
18.1155
18.1679
18.1979
67.3783
65.1021
59.7312
50.6874
43.2707
38.8311
34.9377
32.028
28.4698
25.7988
22.9952
21.2786
19.9181
19.2987
18.7702
18.4835
18.1836
18.0558
18.0173
17.9989
5.40013
28.8398
51.262
59.6827
46.3257
38.2391
33.1771
31.1083
28.088
25.9152
23.5118
22.0237
20.8074
20.1479
19.4336
19.0051
18.5113
18.2318
18.0515
18.0029
25.3411
55.5317
57.7405
53.5614
42.5676
36.9246
30.3076
29.4105
27.7603
26.2959
24.6472
23.3034
22.2307
21.2737
20.5038
19.8486
19.2407
18.6496
18.1891
17.9311
19.2234
34.9374
48.6427
45.7254
38.7019
39.0364
34.8178
30.1436
28.1544
26.4018
25.329
24.3626
23.109
21.8931
20.83
20.1567
19.544
18.9724
18.3464
17.8247
47.6706
59.369
58.575
55.3526
45.4177
41.1035
34.3796
31.904
27.737
23.6115
23.3207
23.0126
21.9661
20.6078
19.4114
18.9403
18.8006
18.5406
17.9105
17.5483
69.0155
67.6656
63.85
59.0946
49.1066
42.0872
34.6167
33.1949
29.5917
24.4178
21.5878
22.3271
21.4413
19.8823
17.7227
16.5293
16.841
16.9023
16.5835
16.9388
61.0059
56.9236
58.1109
58.8452
48.4565
42.8719
37.4587
33.0759
28.1409
25.1211
22.3519
22.4399
20.1283
17.3346
14.2163
13.2287
13.9851
14.6678
15.301
16.1792
22.8652
47.4691
47.1028
57.558
49.9874
43.4779
37.0118
31.2882
27.7676
24.1347
8.98456
6.75003
6.94353
9.05023
12.4151
13.6298
13.5602
14.2465
14.9777
16.4403
33.1024
44.0687
57.5811
54.8635
45.261
37.5232
33.1839
30.2658
27.9242
26.674
25.0616
22.2938
19.9004
18.5662
17.5686
14.8961
15.0673
15.8017
16.4038
17.634
40.9213
57.5234
50.843
50.4633
48.5433
43.4476
35.3558
30.0658
29.0866
28.2547
26.2098
24.3021
22.8092
20.5305
17.1173
16.9332
17.5267
18.0094
18.4312
19.2793
43.2504
45.5015
40.4518
47.1713
48.6323
42.3095
36.5893
32.8859
31.3115
28.7425
26.0146
23.8389
21.5291
20.2918
19.764
20.0086
20.2858
20.431
20.6715
20.8991
40.7747
37.5608
27.5249
36.6985
47.6973
44.6844
37.4142
34.4432
31.5131
28.6985
25.9977
24.4239
23.0995
22.7179
22.8143
22.9513
23.0741
23.1395
23.1427
22.7337
22.4245
43.586
46.1862
48.6686
50.7492
45.6936
38.7116
34.8537
31.4556
29.5351
27.3297
26.4259
25.7251
25.605
25.4982
25.3973
25.2267
25.1026
24.9629
24.418
16.0127
39.5131
55.4435
53.8242
49.5677
42.9311
37.6313
34.8865
32.7094
31.6095
30.4145
29.74
28.8325
28.2763
27.6565
27.1968
26.8566
26.5327
26.2187
25.5542
5.64629
40.9326
45.3492
55.6318
49.6767
42.5508
37.9717
35.7289
34.0884
33.4753
32.3691
31.8724
31.0158
30.2647
29.4097
28.5662
27.7267
26.8423
26.2383
25.0691
2.2923
22.3007
42.584
49.4375
39.8131
34.2054
30.6629
29.4219
28.1209
28.1882
27.8892
27.8625
27.5633
27.1114
26.245
25.5799
24.4963
23.7638
22.6978
20.9278
3.12881
23.9381
23.5007
27.2786
22.6274
19.0276
15.6662
13.7733
11.0879
10.5379
9.31671
8.64358
7.83812
7.25955
6.77006
6.3194
5.99994
5.39489
4.98511
4.27588
3.5184
17.5004
24.0799
24.1734
24.6726
23.9593
16.8407
11.4574
9.00559
8.01887
7.00968
6.0868
5.18359
4.70792
4.21321
3.84893
3.50342
3.16359
2.97866
2.7091
23.54
52.9087
44.8803
47.6794
39.2209
35.5635
30.7342
29.0493
26.1773
21.6749
20.3403
18.2132
17.4741
16.6302
16.2181
15.8357
15.8175
15.7956
15.6359
15.9965
37.8389
59.9794
59.0273
59.4665
50.6952
45.1719
38.4952
35.405
30.6528
28.0946
24.5517
22.8741
20.8078
20.0396
19.0856
18.7661
18.4331
18.3467
18.3253
18.3605
67.6946
72.64
69.3631
59.8356
52.1121
46.1347
41.2168
37.183
32.498
29.2506
25.5622
23.6165
21.4255
20.4668
19.4471
18.9242
18.5066
18.3174
18.2476
18.1673
17.8865
55.9295
67.2603
66.4599
55.2875
47.3465
42.0372
38.2873
33.3652
30.3299
26.3476
24.4339
22.2919
21.3036
20.2631
19.6807
19.1876
18.9037
18.7363
18.5716
31.455
63.2554
67.3228
64.4691
53.7829
48.2965
42.1517
39.7591
35.4668
31.8204
28.3911
25.9624
24.0178
22.6321
21.6891
20.9253
20.3006
19.7938
19.4037
19.0678
63.6977
62.7675
63.1672
58.9275
52.6514
51.9456
46.7268
40.6072
36.5696
32.9996
29.6461
27.2324
24.9496
23.5559
22.4902
21.8039
21.169
20.5805
19.6114
19.5711
46.2832
69.8291
68.3607
63.8732
56.0365
53.2102
47.7453
42.8797
37.4783
32.0401
28.917
25.8658
23.7504
21.9955
19.7389
20.1816
20.151
19.6282
18.7655
18.9436
74.9081
70.0423
75.3857
67.8739
58.8493
53.501
48.3341
44.1051
38.1024
31.2853
27.3901
24.3803
21.8607
19.9205
17.3393
16.6464
17.5085
17.6067
17.5969
17.7036
65.9269
64.4001
72.2105
69.5372
57.3274
51.9867
47.9195
42.7088
36.8977
30.6591
26.7799
23.2363
19.2821
16.5952
14.0119
14.1751
15.3292
15.9547
16.3598
17.1447
50.5278
58.6535
69.3273
69.1348
56.8854
50.5617
45.5046
39.7701
34.8826
31.3616
15.8401
11.2875
10.5059
11.7443
13.1442
14.035
14.9759
15.6715
16.3899
17.7906
30.458
58.3228
66.6821
62.2781
54.1083
47.2107
42.3224
38.0606
34.0552
30.947
28.104
24.0677
20.459
18.313
16.0647
15.1353
16.1464
16.861
17.7353
18.9123
32.5354
70.3646
67.0586
59.4766
55.1608
50.3493
44.7463
39.4259
36.0955
32.854
29.6254
26.3399
23.4782
20.3894
17.802
18.2593
18.7299
19.1091
19.6811
20.4375
42.0013
62.0211
59.7533
63.1581
57.8784
50.7124
44.1815
39.9512
36.7778
33.0722
29.2599
26.9569
24.1076
22.9257
21.9813
21.9326
21.8877
21.9685
22.1543
22.3033
51.9427
47.1219
50.0103
59.0248
60.1337
52.4549
44.0825
40.8877
36.6475
33.3273
29.6721
27.9535
25.9583
25.4652
25.177
25.0778
24.9138
24.8272
24.7451
24.3922
19.8868
57.4749
60.4009
63.8182
61.3066
53.2977
44.5278
40.9427
36.1153
34.4469
30.8667
30.0348
28.627
28.332
27.914
27.7295
27.3966
27.1761
26.9187
26.3476
28.811
67.4326
68.9726
64.9066
57.7401
50.093
43.8406
41.0602
37.3672
36.569
34.0445
33.275
31.9403
31.308
30.605
30.0826
29.6316
29.1037
28.2206
27.3187
33.2005
56.7239
63.103
65.8131
56.5446
48.4742
42.9658
40.9964
37.8632
37.5603
36.0718
35.6826
34.6458
32.8627
31.6905
29.9349
28.7595
27.1779
25.9094
24.61
17.1682
47.5768
54.7211
50.9877
38.8222
33.1894
30.3429
30.6377
29.768
30.8237
30.7995
29.6203
29.1608
27.3986
26.1716
24.6308
23.2759
21.711
19.6652
17.5451
4.38697
10.9003
18.661
22.8657
20.9484
18.0171
14.0128
12.1608
10.6375
9.4934
8.5286
7.7045
7.0993
6.52597
6.05001
5.42536
4.95445
4.2583
3.85547
3.22468
1.40613
14.1607
5.37029
8.80628
7.72788
10.7494
6.64109
6.41818
4.77552
4.19804
3.24388
3.0213
2.62257
2.44325
2.11811
1.90112
1.72749
1.65118
1.60137
1.73991
38.1094
22.6629
56.2218
24.8592
37.5815
33.3202
28.5022
26.4909
23.4434
20.2168
18.7984
17.3848
16.6933
15.6917
15.1949
14.6416
14.443
14.3039
14.2913
14.5352
31.4389
51.9089
59.9623
62.6374
48.4943
40.5319
34.3929
30.8178
26.6797
23.0439
20.9833
18.9739
18.0396
17.0774
16.6657
16.2794
16.158
16.0875
16.0856
16.272
65.2837
80.1625
71.321
33.2791
49.9808
26.2918
36.5649
33.7657
28.0255
24.2044
21.6196
19.3031
18.2867
17.2857
16.8142
16.3621
16.1686
16.0414
15.9909
16.1013
54.6967
67.7554
74.0642
69.6949
53.3317
44.7238
37.9529
35.1309
29.4824
25.2651
22.5285
20.0523
18.9591
17.9105
17.3673
16.8382
16.5725
16.3266
16.2337
16.2607
17.2132
67.5988
72.6923
68.5746
55.3974
46.2142
41.7851
37.9699
32.0581
26.595
24.0104
21.3453
20.2611
18.9938
18.3642
17.5993
17.1541
16.7415
16.5187
16.5045
46.0966
50.0611
68.5905
67.2119
56.621
53.3058
46.4376
38.8899
32.9644
27.9059
25.0043
22.3303
21.1007
19.9644
19.2158
18.2987
17.6668
17.1075
16.7473
16.7418
26.2679
74.924
75.664
68.7546
58.4581
53.9955
49.1238
42.6923
34.1263
27.8173
23.5107
20.6838
18.9306
17.8126
17.5582
17.528
16.9959
16.5365
16.2853
16.4121
83.3725
80.0459
81.0215
71.0144
59.4092
54.9517
48.6126
41.9462
32.3336
25.1046
20.7525
18.014
16.2849
15.1857
14.2719
15.3033
15.3278
15.262
15.3748
15.8326
32.0404
72.1543
78.5187
70.1414
55.0026
50.7633
46.1743
38.4019
29.7469
22.8566
18.4952
15.2765
13.5625
12.9884
12.4389
13.9527
14.3502
14.5895
14.8732
15.73
64.447
56.3648
78.4758
65.2628
53.8257
47.7052
42.1795
33.6224
27.735
23.6225
19.3995
13.8986
11.0473
11.4977
12.0608
13.7811
14.3599
14.7033
15.2371
16.1183
50.434
70.8761
76.6946
52.6378
51.3723
44.8631
39.1431
32.7007
27.6203
23.7036
20.2444
16.8618
14.7366
13.5591
12.7066
14.3781
15.1374
15.5612
16.1241
16.8471
27.6009
69.7715
79.0624
66.7395
55.7571
46.3443
41.3211
37.802
31.6449
27.8954
23.6099
19.5122
17.0717
15.426
15.7507
16.4569
16.8061
17.1217
17.4313
17.8976
68.6636
75.6562
76.0883
71.8541
55.4126
46.3836
40.2438
38.1458
32.9332
28.7849
24.811
21.8785
20.2779
19.3302
19.0308
19.0397
18.9977
19.0581
19.0848
19.1854
50.9903
46.7146
72.4466
73.6228
60.3573
47.0755
39.2104
36.5823
32.2197
27.4425
25.007
22.9954
22.1215
21.7106
21.4894
21.3237
21.1238
20.9658
20.7994
20.5839
14.5604
53.0824
69.88
54.5168
61.5139
43.1432
38.7033
35.6075
31.0513
28.7989
26.4492
25.298
24.4112
24.0454
23.6099
23.3663
23.0606
22.7952
22.4723
21.9991
30.9235
60.9887
77.3042
37.6434
55.8119
33.8412
38.3796
36.9412
32.6332
31.3358
29.2916
28.2101
27.1292
26.3519
25.7374
25.166
24.7183
24.1154
23.6611
22.9086
70.1633
39.0878
76.0815
44.2302
54.3763
41.9336
37.0947
35.5444
33.2473
32.4868
31.259
30.6133
29.5486
28.3454
27.4262
26.1315
25.3405
24.1819
23.4605
22.5597
57.4729
66.8799
63.3698
53.0434
36.6748
29.1468
26.9602
27.6392
27.0007
27.3566
26.9629
26.8334
26.0018
24.6724
23.5326
21.9182
20.768
19.4976
18.4106
17.7551
5.16718
11.3552
21.7245
23.5228
12.1004
12.0125
6.76909
7.06506
5.6257
5.81621
5.04888
4.94849
4.41542
4.05117
3.54341
3.12947
2.77832
2.50113
2.28688
2.22762
22.4079
25.9186
9.33288
30.211
27.3172
24.482
8.42444
22.6497
8.24458
7.5354
26.702
24.6278
7.60994
7.92656
10.1933
26.3736
24.57
25.2596
10.5374
30.8567
28.0811
7.28001
23.6487
20.8473
9.19876
7.58304
26.8206
23.0535
0.39395
0.67313
0.390206
11.1637
10.8386
13.6323
13.979
0.280787
0.342275
0.243663
10.9966
11.7365
13.7608
11.6808
0.280981
0.230882
0.278849
11.9248
11.9137
11.3785
12.7035
0.25311
0.295596
0.252651
11.2128
7.9021
12.4143
8.75218
0.207534
0.212126
0.182102
7.1988
7.86295
7.90604
9.0888
0.244367
0.197039
0.251695
8.50381
9.86927
9.97342
11.3477
0.247326
0.260422
0.256365
10.0053
10.0792
11.4417
11.02
0.179169
0.249228
0.197201
9.95858
10.1177
10.749
10.1646
0.407611
0.75896
0.494528
14.4876
14.8494
14.1447
13.8597
0.246615
0.429589
0.268772
14.2835
11.5481
13.1507
11.0594
0.2793
0.254825
0.26361
11.1875
12.6576
10.9673
12.1022
0.253293
0.268382
0.237304
12.4764
8.85854
11.8981
9.5225
0.187005
0.201463
0.203011
8.1845
9.65036
9.34781
10.3286
0.253676
0.21337
0.221092
10.4554
11.4834
10.4578
9.8237
0.248265
0.217064
0.191558
11.4607
10.7642
9.42082
8.26921
0.182978
0.184406
0.126607
10.4092
9.77778
7.9238
7.33289
0.454555
0.711215
0.410847
14.8977
14.5971
14.5616
13.9783
0.279389
0.362034
0.273677
13.8163
11.3428
13.2087
11.3775
0.260257
0.258788
0.245548
11.1068
11.8271
11.0482
11.1347
0.223261
0.239161
0.212731
11.6076
9.84969
11.1576
11.077
0.206072
0.208786
0.213697
9.76024
10.2375
11.1033
11.0603
0.212563
0.215694
0.21212
10.1569
9.26189
10.9418
10.3241
0.177829
0.208914
0.204485
8.83269
7.74
10.1204
9.78708
0.119692
0.204926
0.183484
7.456
7.16542
9.68845
10.1052
0.440918
0.855618
0.363433
13.4796
13.4757
10.2329
10.2278
0.280786
0.37757
0.232413
12.9522
11.6734
10.4158
11.483
0.236067
0.26197
0.21028
11.4295
11.3402
11.7089
12.3976
0.208225
0.240273
0.209216
11.3589
11.2385
12.4892
12.7583
0.210517
0.228399
0.190166
11.226
11.1807
12.6404
11.8046
0.212676
0.201237
0.194245
11.1121
10.8379
11.5114
11.6175
0.222127
0.219108
0.237148
10.7697
10.6468
11.7434
11.8166
0.187115
0.256159
0.198321
10.553
10.6762
11.5727
11.0026
14.1189
20.715
18.6668
29.9141
29.2982
33.3315
31.0492
16.0234
18.1505
15.4385
29.3265
27.2407
30.0676
25.9339
15.18
14.8067
15.8184
26.5398
23.3743
25.0594
24.0241
10.5318
15.2292
11.2522
21.8602
18.8393
22.6851
19.4407
11.1689
10.6384
12.4104
18.802
19.999
19.4076
20.7825
13.1671
13.2927
14.4476
20.314
20.32
21.0406
20.5379
13.102
14.4408
13.7138
20.0998
19.1717
20.0913
18.437
12.2428
13.3489
11.8474
18.8083
17.664
17.8521
15.96
19.4154
20.2188
17.9368
33.6524
31.0709
32.1478
28.8906
15.2588
17.0145
14.5155
29.7574
25.5008
27.733
24.9936
15.7668
14.3783
15.277
24.712
24.0047
24.6978
23.7021
11.4893
14.8451
12.529
22.7889
19.8295
23.3085
15.1686
12.9829
12.3677
12.8253
19.8545
20.9482
13.7054
11.2574
14.4831
12.7191
11.5887
21.0313
20.0085
10.845
10.097
13.301
11.0857
9.73041
19.4201
17.4745
9.9383
9.88659
11.4017
9.38781
8.41001
16.8169
15.2637
10.0748
10.4853
18.7898
20.7668
18.2716
33.5805
29.4859
32.4161
29.2061
14.7633
17.3245
14.9535
28.1408
25.0695
28.1089
25.2545
14.986
14.5395
14.5254
24.6785
23.4702
24.7119
23.9673
12.9157
14.5561
14.5532
23.7641
15.2508
23.8373
22.8101
12.5685
14.5548
14.1838
13.7039
10.7705
22.1836
19.9328
10.8515
13.9172
12.9199
10.0677
8.65333
19.1597
17.1315
9.05432
12.614
12.0785
8.48308
8.75734
16.6363
15.9125
8.25343
11.9465
11.8687
9.15336
10.2684
15.813
15.9574
17.4626
16.3086
14.2418
29.8037
27.8255
28.6187
25.7131
15.3483
14.1687
15.0231
27.3437
25.5082
25.0235
25.1094
14.8738
15.2693
15.8492
25.0828
24.3808
25.1484
25.1823
14.8339
16.0159
16.1334
24.2221
23.5366
25.1133
24.4547
14.4911
15.9771
14.8498
23.1554
21.5425
23.9552
22.206
13.7508
14.5407
14.5725
20.9515
19.3611
21.7827
21.3519
13.2811
14.7181
14.5982
18.9433
18.0503
21.1967
20.2084
12.5723
14.3327
13.0039
17.7936
16.963
19.6908
17.835
33.2544
37.3535
34.667
45.3671
43.2991
46.4323
43.2967
30.4989
33.5349
29.2202
42.2088
38.0915
41.7972
37.3536
25.9091
28.5046
26.454
36.7272
31.9152
36.1499
31.7082
21.6317
25.0013
22.0656
30.4072
27.5397
30.1352
27.1538
22.2469
22.0159
22.69
27.0281
25.5159
26.6141
24.946
21.764
22.6635
21.5542
24.9207
23.0974
24.2392
21.8457
20.2798
20.9816
19.1149
22.5808
21.0749
21.0583
19.0044
18.5664
18.4993
16.5403
20.6395
19.4952
18.4361
16.8389
34.4664
35.697
32.1664
45.944
42.6262
43.4474
39.9817
28.763
31.0382
28.2928
41.0911
36.887
38.8271
35.5625
26.4479
27.8611
26.2001
35.7816
31.6716
34.5969
31.587
26.1698
23.8094
25.2446
27.2521
24.0623
26.0059
27.4224
23.1986
22.5089
22.0845
24.4074
21.9465
24.3045
23.6507
20.8337
7.59864
8.32762
23.7721
20.9808
8.21783
9.3778
18.004
8.55296
9.49837
20.0754
17.8417
9.75284
10.9776
15.7814
9.94431
10.7875
17.2512
16.0667
11.3992
12.1724
32.5926
35.6566
32.1878
44.0819
39.8266
42.3693
38.7746
28.2704
31.0925
28.2537
38.5358
35.1555
37.5847
34.378
25.9831
27.6675
26.5893
34.2067
31.3731
33.527
31.3802
16.8494
12.5536
25.9163
23.7718
21.7549
3.41043
27.3974
7.55013
8.24664
12.3574
2.44835
11.1283
2.3835
8.18236
6.69876
19.9581
17.7466
7.47537
8.23857
21.8878
19.1022
8.36993
17.2486
16.5788
8.71199
10.444
18.4877
17.4847
10.632
16.4954
16.5609
11.0531
12.2769
17.2868
16.9415
30.7377
33.1589
29.3343
40.6685
37.6277
42.008
37.7863
28.3896
28.4589
28.0484
36.8893
34.3378
36.6778
34.7647
26.9378
27.9554
27.5866
33.5809
31.4927
34.2018
32.416
25.5974
27.4243
26.4101
30.9167
28.9929
31.8344
29.8687
23.01
25.8307
23.9462
28.1704
25.2675
29.1068
26.823
20.3907
23.5072
22.7768
24.2757
21.6244
26.192
24.4524
18.8544
22.5005
21.1971
20.9283
19.3825
23.8357
21.8161
17.5443
20.6253
18.5521
18.9734
17.7448
21.1051
19.0443
45.4285
48.6135
45.0378
50.607
46.1293
49.2498
44.2734
39.6726
43.4611
38.7741
44.4547
38.2933
42.4147
36.0611
32.8432
37.3108
32.2099
35.7269
29.1722
33.6922
27.4497
28.1273
30.6011
27.4064
27.5228
23.786
25.8489
22.1579
25.1288
26.6625
24.3912
22.7497
20.1857
21.1138
18.412
22.3979
23.545
20.92
19.519
17.9125
17.6527
15.8306
20.3396
20.1222
18.16
17.5057
16.4073
15.407
14.4439
18.9836
17.647
16.3145
16.1453
15.4343
14.1788
13.2413
44.2697
45.1617
41.4991
48.3254
43.383
45.5869
39.7165
38.2685
40.2451
36.5484
41.5251
35.2434
37.8072
32.5059
32.1467
35.3765
31.9666
33.064
27.4816
30.964
27.8153
27.5761
30.9149
16.5236
26.0493
22.5857
26.9741
23.4133
24.2051
14.6365
12.1453
21.5346
18.5096
21.8134
17.3366
20.2151
11.7652
11.2359
17.5113
15.1735
15.8442
12.3624
17.1268
11.2354
11.6902
14.6719
13.7482
11.8026
11.4699
15.5986
11.931
12.4019
13.512
12.8114
11.5128
11.4259
41.1444
43.7297
39.8996
44.7987
38.5487
42.4901
36.7483
36.0033
38.5889
34.9997
36.6818
31.6852
34.9592
30.5787
31.7766
33.9969
31.5515
30.2983
27.6538
29.4373
26.5948
18.0671
30.9729
28.4071
27.0245
23.563
26.0003
23.7288
12.0485
27.2083
23.3811
21.9153
17.228
22.7397
19.4328
10.4284
22.1612
19.1243
15.6693
12.1617
18.2335
15.4389
11.3592
18.4134
17.1456
11.6384
11.4443
14.8987
14.0018
12.539
16.8837
16.439
11.5319
11.5293
13.7896
13.027
38.9999
43.6572
39.5049
41.4163
36.8463
41.8755
38.8063
34.9886
38.3624
35.9939
35.1269
30.785
37.5306
33.6844
31.5698
35.2275
32.846
29.6431
26.709
32.1561
28.8599
28.9509
32.137
29.9844
25.9139
23.5911
28.017
25.6663
25.1045
29.1766
26.691
22.698
19.86
24.6861
21.8791
21.2202
25.9842
24.0026
18.9062
16.5609
21.1195
19.031
18.7527
23.3176
21.139
16.0018
14.7764
18.3109
16.3348
17.1449
20.4192
18.5176
14.4396
13.3056
15.8255
14.3837
43.8048
46.9301
41.3947
21.3511
21.0303
26.0603
22.0174
34.9145
39.35
32.5483
15.8811
19.0361
20.2716
18.6332
26.5076
30.2705
24.5669
15.4625
19.2007
18.7488
17.4372
21.7399
23.0725
19.6426
15.2113
17.5104
17.0536
14.8893
18.5801
18.7136
16.4216
17.0328
15.9655
14.3069
13.1348
16.6417
15.8057
14.5631
15.581
14.9493
13.0297
13.9083
15.4114
14.346
13.7485
14.7788
14.3855
14.0464
13.7526
14.5671
13.5384
12.7178
14.1963
14.0529
13.6142
13.2569
40.4639
43.3171
36.5889
21.3004
21.5292
20.8663
20.1317
31.8536
34.6632
29.6979
20.2396
19.0835
19.6568
19.1945
24.2855
28.1464
24.3924
18.4306
17.0156
18.1188
16.6282
19.4621
23.5633
20.6144
16.6813
14.1168
15.843
12.914
15.9817
19.3288
15.3914
13.4731
12.1029
12.1609
10.166
13.7732
13.9865
11.383
11.9579
13.062
9.86677
11.0477
13.1548
11.1324
11.3836
13.5374
13.5021
11.9669
12.877
12.3731
11.4681
11.3197
13.385
13.0704
12.8577
12.7035
35.4011
39.9669
34.0849
16.831
20.059
24.396
21.0893
29.1413
32.4662
28.4714
19.7523
19.3838
20.2647
20.374
24.288
27.3819
24.1722
18.2836
16.7024
19.7109
17.2971
20.7153
23.2251
20.6248
15.9698
13.0568
17.0978
15.2593
15.3533
19.6885
16.8135
12.2815
10.184
14.5352
12.6364
11.2724
15.9257
14.0387
9.85888
11.03
12.3214
13.1766
11.3891
13.7538
13.2855
11.9611
12.9095
13.6429
13.5597
11.4028
13.1167
12.3835
12.8963
12.7124
13.4167
13.0335
34.3043
39.8173
36.6784
20.5624
20.4594
28.99
13.2992
28.696
35.321
31.4661
19.7333
20.0324
16.2798
15.3236
24.6386
29.9627
26.99
20.5222
17.7502
20.3319
14.9106
21.1285
26.1513
23.71
17.5856
16.3961
19.1641
16.5175
17.652
22.7012
20.0762
15.6997
13.871
19.0539
16.2164
15.1027
19.3393
17.3448
13.5525
14.0903
16.4593
15.069
13.8436
16.6583
14.9675
14.1713
13.6779
14.7479
13.793
12.5508
14.5325
13.3152
13.4937
12.973
13.5343
13.1063
25.0019
22.8619
22.3896
24.6202
23.0119
25.1138
24.2025
23.2709
25.5203
16.5108
24.9176
23.6454
27.7062
4.67882
20.1758
19.6723
11.7515
2.67951
21.2703
18.3656
2.93021
27.9093
29.0156
28.9842
30.3555
27.8008
29.1946
29.1347
26.6706
26.3094
28.0419
26.8087
26.9031
25.6812
27.9285
25.0471
25.5661
30.6647
16.538
29.436
4.64964
27.9307
20.919
2.70265
21.8837
10.7861
18.7985
2.96036
24.5177
22.5747
22.6547
21.4341
23.8248
21.7161
24.1338
22.06
16.4958
18.569
7.31786
2.51454
17.8703
17.2479
2.41431
14.9888
16.6703
7.04491
4.40018
16.9231
15.3861
3.36346
24.1338
25.8912
26.0921
25.8174
25.5145
24.8872
24.8397
23.2144
24.4839
25.4026
22.8332
25.0551
22.4795
23.8071
16.5138
2.53617
20.1941
7.09618
17.5589
2.43336
18.6992
14.8319
4.34228
16.7868
7.22139
15.2379
3.34618
17.402
11.7117
12.1104
14.1179
2.64851
17.1847
2.93555
9.17399
26.3684
26.1701
26.0478
28.458
25.0756
28.266
27.9717
23.7185
21.1974
25.4355
25.9547
23.3481
20.9222
27.0611
18.3521
18.9162
18.2565
30.5247
3.70915
28.9824
25.7069
12.8773
2.73183
12.8405
16.4497
3.03265
10.3116
20.0079
27.8943
29.983
30.8205
30.231
29.8421
29.3969
29.3978
25.1264
27.1701
24.623
29.2687
22.2589
28.3762
27.2345
7.52655
7.16245
9.63907
3.33262
10.2664
2.34302
7.3412
17.6901
19.4674
22.7017
24.8024
18.0986
19.0496
23.6787
16.8102
16.1334
21.7753
21.598
17.0643
15.888
22.6329
8.64637
2.52462
8.37632
14.4462
2.45323
9.30621
13.1162
8.48562
3.44661
7.40151
11.4283
2.55095
8.20981
12.14
18.7966
25.9074
22.5585
25.5238
20.2854
24.6661
20.866
17.7817
22.3685
18.3333
24.2801
16.7334
23.5072
19.5579
1.55255
1.63835
1.42098
7.3388
7.43884
6.86245
7.29764
1.21587
1.24893
1.13368
7.5204
7.16829
8.05871
8.64628
0.992069
1.03985
1.00134
7.14673
6.6286
9.02284
8.96546
0.77632
0.900074
0.760567
5.4252
4.89979
8.13675
6.12198
0.751863
0.674146
0.674495
4.84784
5.21165
5.33564
5.73456
0.748748
0.713291
0.739469
5.67216
5.93394
6.62867
7.30979
0.73134
0.733874
0.73222
5.98491
6.20506
7.52964
7.64205
0.573291
0.713409
0.595806
6.12553
7.81581
7.47598
9.5523
1.99044
2.77988
2.05916
10.0009
10.3417
9.92464
10.9844
3.13203
0.539637
0.659929
3.12297
3.13334
3.13043
0.526927
3.69785
0.321016
0.328908
3.23596
3.26071
3.60219
0.296507
4.07789
0.270433
0.244569
3.54225
3.74842
3.80838
0.245256
4.19859
0.2844
0.282871
3.70963
3.40109
4.50262
0.283961
2.12782
0.213137
0.212585
2.04441
1.82741
2.47665
0.19028
2.7779
0.220208
0.190562
1.97145
2.12886
2.47432
0.202298
3.47229
0.246242
0.24334
2.50079
2.61624
3.3988
0.24591
3.52658
0.234674
0.245296
2.71835
2.79601
3.52475
0.237203
0.545728
0.710542
0.519091
7.38228
8.78333
7.31249
8.48771
1.93892
2.73957
2.18383
8.97137
11.082
9.51103
11.529
3.72532
0.55813
0.684377
3.20666
3.80309
3.17845
0.57867
3.91587
0.309573
0.369157
4.4268
4.04266
4.35951
0.315807
3.95795
0.240229
0.23893
3.6075
3.99054
3.5988
0.24336
4.79348
0.304564
0.290413
5.09173
4.80545
5.03076
0.298475
2.61599
0.182836
0.206621
2.74359
2.46233
2.75179
0.183035
3.80874
0.223451
0.208098
3.26245
3.63405
3.54709
0.229463
3.91506
0.258004
0.245845
3.98275
3.98101
3.94809
0.243841
3.54022
0.231101
0.222152
3.7477
3.69936
3.60785
0.214416
0.466824
0.511153
0.375336
6.48709
7.75014
5.60835
7.34082
2.20554
2.54892
2.22843
9.41647
11.8832
9.15969
11.6371
3.66033
0.585154
0.687582
3.14102
3.79953
3.0256
0.561253
4.40649
0.361973
0.389181
4.6875
4.494
4.50648
0.34755
4.12746
0.256645
0.258317
4.0668
4.18801
4.04983
0.251853
4.10227
0.262041
0.255897
4.49403
4.35648
4.29292
0.253097
3.43926
0.195172
0.202276
3.07968
3.19658
3.36845
0.201869
3.56175
0.215347
0.213328
3.56349
3.58427
3.58728
0.214742
3.14427
0.196316
0.200176
3.30863
3.18713
3.25956
0.192302
2.91072
0.162678
0.172567
2.7796
2.72828
2.89153
0.16714
0.401076
0.644682
0.550937
6.10767
8.16786
7.42257
9.0957
1.91977
1.89612
1.90376
7.32074
9.95471
6.74172
8.15314
2.75522
0.635346
0.729797
3.00111
3.8399
2.40077
0.527006
3.98662
0.333296
0.335226
4.27186
4.17746
3.7954
0.30958
4.07708
0.252964
0.27583
4.04887
4.04486
4.13541
0.260409
3.78366
0.220703
0.233742
3.83885
3.73316
3.86659
0.22408
3.57795
0.206779
0.211832
3.4826
3.49138
3.59474
0.206669
3.62153
0.212155
0.202035
3.61394
3.63309
3.57369
0.202163
3.83895
0.216753
0.21356
3.68933
3.71437
3.78018
0.219888
3.86753
0.224942
0.233151
3.7325
3.72196
3.88826
0.233698
0.612289
0.825619
0.624288
8.08078
8.96611
8.1631
8.56242