/*--------------------------------*- C++ -*----------------------------------*\
  =========                 |
  \\      /  F ield         | OpenFOAM: The Open Source CFD Toolbox
   \\    /   O peration     | Website:  https://openfoam.org
    \\  /    A nd           | Version:  10
     \\/     M anipulation  |
\*---------------------------------------------------------------------------*/
FoamFile
{
    format      ascii;
    class       volScalarField;
    location    "6.1";
    object      omega_0;
}
// * * * * * * * * * * * * * * * * * * * * * * * * * * * * * * * * * * * * * //

dimensions      [0 0 -1 0 0 0 0];

internalField   nonuniform List<scalar> 
12920
(
188.431
187.486
178.749
165.64
157.819
156.739
154.456
132.672
92.0264
67.4303
58.7496
57.4606
56.5542
53.5121
48.2132
43.3282
38.8525
34.8302
31.9921
30.6706
142.665
218.379
188.092
158.139
124.234
108.536
96.2053
86.7003
76.6982
70.9725
64.8978
59.1513
52.9083
47.1559
43.1678
41.3252
41.0311
41.2409
42.3633
44.5026
245.748
227.651
207.169
170.703
130.219
103.563
85.7822
76.4075
68.7712
63.6574
57.549
52.0014
47.1753
44.36
42.605
41.8727
41.468
41.1865
41.1153
40.7758
237.776
221.017
185.615
150.467
115.586
98.7862
83.9522
76.8019
69.1335
63.9159
57.7091
52.3206
47.5504
44.4508
42.2369
40.9064
39.7825
39.0355
38.6267
38.4542
99.0847
178.234
194.43
163.341
125.227
101.95
86.7692
74.7456
67.3548
62.6672
57.5294
52.9251
48.825
45.9437
43.8458
42.5109
41.4173
40.5894
40.2059
39.7957
369.898
237.968
208.666
186.124
166.146
153.869
130.913
99.7053
76.8534
64.9421
58.5391
53.838
50.6
48.2539
47.1544
46.5439
45.8649
44.4317
43.387
41.4565
296.354
228.742
200.785
185.06
160.484
147.249
134.938
112.788
90.1585
72.2845
62.4977
57.3078
54.6829
53.2281
51.7332
50.8831
50.3674
49.645
48.7518
45.4577
243.899
229.424
223.914
205.34
162.392
135.836
216.079
179.08
156.873
128.101
104.568
95.2958
92.8198
91.1765
56.0899
51.1273
49.1755
48.8406
48.4035
45.756
188.118
271.644
249.416
223.014
188.085
290.333
430.439
300.786
245.215
237.148
192.846
156.786
157.306
156.375
98.7169
51.897
48.6279
47.2963
45.39
41.8684
359.273
325.894
248.458
197.591
154.819
233.378
358.676
296.84
244.311
248.001
183.305
158.637
173.234
169.92
99.1341
50.1572
45.8682
42.8407
40.9021
39.4316
206.415
230.417
221.372
180.609
139.159
211.223
328.472
253.144
214.952
215.955
178.879
173.457
167.925
151.726
89.0181
53.9132
46.77
41.5448
38.861
38.5056
161.144
167.059
164.405
138.218
106.782
156.58
267.456
218.271
194.282
182.939
173.627
172.054
169.411
169.593
107.679
54.5185
45.4712
41.2261
39.3499
39.2692
241.868
152.882
134.004
136.542
129.671
107.85
165.677
122.884
116.762
118.814
119.111
113.155
111.383
109.62
58.1746
47.5014
42.5939
40.8306
40.3738
40.7198
183.576
203.15
186.805
145.901
117.856
95.3854
82.5652
76.105
74.7576
72.6235
69.4672
65.5248
60.4114
53.9993
48.2921
45.1914
43.7896
43.4706
43.5428
44.2688
111.254
156.966
156.966
153.794
144.184
117.536
93.6852
79.7678
72.4449
66.0497
61.0495
57.0874
53.2597
50.3838
48.8341
48.556
48.8453
49.7897
50.6072
50.8111
111.969
148.811
150.488
148.354
138.729
119.267
97.7905
82.8177
71.692
65.2678
60.0775
56.9628
54.3563
53.4285
53.4271
53.8327
54.6075
55.3125
56.1538
56.1676
97.1132
156.237
154.908
148.761
129.399
110.9
92.4723
80.3526
71.2515
66.6927
63.1877
61.4646
60.2866
59.9484
59.2304
59.0721
59.1798
59.4044
60.2511
60.2771
24.3145
71.1166
130.166
144.619
134.129
109.605
92.0636
82.7037
76.6471
74.828
73.5498
73.3439
72.976
72.8808
72.7531
72.2402
71.3527
69.0156
67.4491
63.8838
13.3499
87.7382
147.209
145.639
118.61
102.06
90.0758
84.2977
78.5161
75.619
72.7168
71.0621
68.8895
67.0445
64.8746
62.9452
61.336
60.2123
59.6671
57.8127
70.2504
136.908
148.061
145.04
124.396
105.162
92.4901
83.133
74.8114
68.4714
63.3055
58.7554
54.7665
51.629
50.1539
48.5821
46.7607
43.7098
42.3623
39.801
80.3238
106.11
91.5131
85.8896
84.15
81.4446
70.9894
53.3636
40.4625
35.5192
34.8479
34.4957
33.3583
30.3906
27.5507
25.1955
23.2776
21.2778
20.0905
19.2079
236.729
189.543
116.579
82.0802
67.9542
60.0254
52.1461
46.949
41.5295
38.7897
36.0127
34.0379
32.1869
30.0651
27.9408
26.0206
24.2839
23.151
22.73
22.7694
314.727
150.051
117.753
100.01
74.0336
55.7126
45.2643
39.6801
35.5348
32.9712
30.4665
28.7247
26.7842
24.9232
23.0734
21.6402
20.7405
20.2486
19.9806
19.9
291.938
120.967
89.2199
70.9189
59.034
48.7669
42.6086
37.9114
34.1525
31.577
29.0187
26.7283
24.4842
22.5527
21.0501
20.0201
19.4185
19.0168
18.8292
18.833
69.3345
114.606
120.374
88.6827
69.9056
59.3985
51.5361
41.8585
36.1575
32.3235
29.325
26.6956
24.4572
22.6161
21.5978
20.8379
20.5684
20.4311
20.4283
20.3228
221.577
168.955
128.98
119.831
119.299
117.922
99.7105
66.1814
46.4172
36.0325
30.6657
27.0293
24.9399
23.5385
22.9721
22.8373
22.9238
23.1162
23.2557
22.7968
157.059
141.146
133.067
129.012
123.81
116.31
99.8746
78.7828
58.5047
43.6744
34.6011
29.4945
27.0457
26.0792
25.8695
25.9561
26.4891
27.2379
27.478
26.4915
158.64
137.244
119.766
98.2019
83.7797
80.8146
84.1148
78.7401
69.6824
61.0986
43.1814
33.219
29.5868
28.3074
25.9731
25.9765
25.9307
26.2007
26.4902
25.3929
268.786
188.497
136.084
110.847
98.7292
108.28
110.411
98.7203
82.5815
67.59
54.7083
35.8656
29.7058
28.1125
26.3498
24.2675
23.6111
23.3191
22.858
21.3632
194.49
216.8
178.449
116.417
83.195
82.5118
86.577
94.8457
98.0662
65.0887
48.5737
33.3789
29.5325
28.8863
28.1695
25.6945
24.4684
22.9409
21.5151
20.3967
215.728
227.761
214.148
124.048
71.5678
67.7416
67.4373
66.7154
64.4936
51.4421
42.1787
35.9384
34.0885
32.1539
28.5822
26.4894
25.2984
22.679
21.085
20.5341
148.579
141.941
108.709
75.765
60.0609
56.3222
59.5804
53.8362
47.6032
40.1287
35.9174
33.2969
31.7261
30.0803
28.072
27.1706
23.7756
21.1063
20.3968
20.5403
211.365
146.145
101.06
78.9898
63.586
51.8411
56.0265
54.1369
47.2841
41.8646
39.8707
37.9072
34.7969
32.3769
29.2971
25.5925
22.0362
20.5577
20.2972
20.6575
374.928
240.794
135.14
79.5907
58.8827
50.0598
44.5002
42.302
38.3967
36.4
34.3562
33.0627
30.8886
28.525
25.974
23.7162
22.4625
22.0673
22.0425
22.4734
436.821
333.634
200.882
112.077
76.3881
59.8225
48.792
41.0586
35.4506
32.2778
29.9417
28.4728
26.7577
25.4563
24.4919
23.9294
23.8053
23.949
24.2253
24.9107
279.83
140.602
103.902
87.0306
70.8137
57.6583
46.5746
39.5883
34.4026
31.341
28.9774
27.5141
26.3207
25.7043
25.5338
25.5666
25.7935
26.1255
26.3995
27.0247
155.761
114.122
93.9923
74.3874
61.2758
51.9678
44.656
38.8174
34.1324
31.6812
29.7404
28.9274
28.5024
28.4949
28.6683
28.874
29.1723
29.3387
29.6139
29.6528
136.042
162.503
124.533
93.1177
69.6564
55.4297
46.4943
41.0319
37.0803
35.3894
34.787
34.7443
35.0066
35.6222
36.5556
37.2758
37.479
37.2265
36.4598
33.7004
58.5873
146.437
129.091
86.8212
61.8513
50.9142
45.2018
42.3462
40.1382
38.9265
38.4408
38.0709
38.0609
38.0247
37.648
36.8666
36.1032
35.0884
34.2293
31.5746
25.4431
67.7018
82.9708
82.9937
72.5402
58.9396
50.2434
44.5176
39.6642
37.1116
35.2577
34.3126
33.5035
32.5979
31.6892
30.6851
29.9879
28.3767
27.1739
24.4674
109.378
102.211
86.6143
85.4663
84.9392
81.6757
68.9184
54.0865
45.2606
41.6257
39.4012
36.5283
33.2965
30.2295
27.6992
25.5828
24.0676
22.5418
21.8988
20.8105
426.11
163.075
91.8854
66.7838
60.7408
54.2987
48.0542
44.5081
40.0019
37.6924
34.2868
31.9455
29.4394
27.4996
25.7931
24.533
23.673
23.1636
23.0262
22.8719
335.894
166.635
104.568
71.4348
54.3879
44.479
37.967
34.4373
30.8637
28.7865
26.48
24.9769
23.3562
22.0902
20.9906
20.3191
19.8991
19.6527
19.521
19.5049
362.66
131.493
82.9205
56.5984
47.4274
39.0948
35.0961
31.687
28.7447
26.5839
24.371
22.6053
21.0527
19.9097
19.115
18.6264
18.3585
18.2411
18.2226
18.3024
133.95
153.891
123.204
72.2599
55.1409
43.6216
37.8379
32.9157
29.265
26.5494
24.2763
22.4032
21.0267
20.0038
19.4767
19.1675
19.0613
19.0307
19.0408
19.0382
167.559
141.915
118.066
97.2771
85.8511
72.9089
57.6097
42.4329
33.232
27.9741
24.9044
22.7018
21.5965
20.8913
20.726
20.7151
20.7777
20.8003
20.7787
20.4254
208.24
154.379
124.924
109.6
92.651
79.1207
64.0096
50.3976
39.0412
31.012
26.6592
24.1768
23.267
23.0254
23.0721
23.3597
23.7187
23.7767
23.6366
22.4893
176.854
139.335
111.935
83.0165
68.7326
62.8815
61.9809
55.0926
47.484
38.8277
29.9696
25.7069
24.1407
23.6383
24.009
24.139
24.128
24.0251
23.6159
21.9837
286.62
153.842
109.519
83.663
72.9962
71.5693
68.3565
62.0265
54.0406
43.518
33.6715
26.9874
24.79
24.0584
23.7669
23.747
22.9952
22.1931
21.2919
20.2752
209.384
204.681
127.256
79.0737
60.3245
59.7412
63.194
64.5313
59.832
42.7721
33.1937
27.9273
26.5656
26.1151
26.0977
25.5821
23.7086
21.9871
20.8944
20.2117
212.224
235.43
174.534
89.061
55.7152
51.5178
50.2218
49.033
44.9473
35.6135
69.5316
64.9606
49.5264
36.797
28.3708
25.566
23.6767
21.9471
21.0346
20.4255
260.623
159.93
106.236
66.5148
50.0334
45.151
48.5085
43.0881
37.3239
33.0082
30.8511
30.0095
28.9671
27.0488
25.2245
23.7535
21.7195
20.544
20.1245
20.0855
184.947
141.321
107.678
77.4489
58.0253
45.316
44.0475
42.5134
39.5246
36.0107
34.2134
31.4792
28.7617
26.6554
23.744
21.5271
20.14
19.6791
19.6407
19.8837
338.261
230.81
148.136
83.7259
55.9425
42.921
38.2124
34.698
32.248
30.001
28.0323
26.4009
24.5828
23.0394
21.7395
20.8454
20.4454
20.4216
20.5266
21.022
286.662
248.981
185.484
116.55
74.0124
49.8386
38.7776
33.0137
29.448
26.6575
24.8878
23.5971
22.6136
21.9707
21.587
21.4671
21.5354
21.8045
22.0745
22.6647
427.005
203.78
106.612
84.6904
65.6834
48.211
38.0618
32.231
28.6959
26.3587
24.7731
23.7893
23.132
22.9092
22.9199
23.0514
23.3557
23.6376
23.9166
24.3776
146.532
123.739
91.5926
66.0921
53.6824
42.4923
36.6858
32.2269
29.291
27.5861
26.455
25.9748
25.8256
25.8448
25.9992
26.1616
26.4177
26.5124
26.6801
26.6176
165.794
124.777
109.998
76.3548
57.4641
45.7608
39.1945
35.5292
33.0548
32.018
31.6572
31.6625
31.8033
32.1407
32.3854
32.4166
32.3184
31.7585
31.2034
29.7566
98.7767
138.021
114.362
75.0198
55.5102
44.9787
40.7919
38.4344
36.6388
35.8813
35.433
35.3609
35.2641
35.0535
34.5348
33.8782
33.2264
32.4196
31.9307
30.6901
59.8788
96.3958
97.2469
86.4424
71.6289
60.3013
51.7075
45.6907
41.6699
39.5082
37.9306
36.8033
35.813
34.8261
33.8794
32.7209
31.8269
30.0549
29.0973
26.8541
84.31
80.1371
76.7009
77.4277
79.1315
76.4656
64.4669
52.6639
46.4793
42.4725
38.4868
34.2663
30.8563
28.2171
26.2332
24.6339
23.4029
22.3354
21.7437
20.525
306.362
120.111
92.5496
64.2288
64.8797
57.0076
52.923
49.4563
45.2432
42.231
38.2557
35.6115
33.9359
32.6274
32.01
31.4752
31.2721
31.0662
30.9163
30.6209
161.759
175.467
128.343
68.9204
56.0765
45.2555
42.1248
37.7261
35.4636
32.3441
30.9855
29.0858
28.5691
27.5576
27.3238
26.9188
26.8211
26.7116
26.6874
26.803
222.749
155.671
87.7906
54.2526
49.4046
38.2601
37.8482
33.5811
31.9858
29.188
28.0322
26.2232
25.9274
25.1488
25.105
24.9312
24.9735
25.0501
25.1327
25.4459
179.837
179.277
118.068
66.7842
53.8697
40.353
38.6688
34.2035
32.386
29.0399
28.1331
26.1679
25.9108
25.1073
25.0931
24.9539
24.9952
25.0609
25.1522
25.4462
183.838
134.851
110.867
75.2873
66.5044
50.9874
45.903
37.7292
33.6763
29.7928
28.2888
26.5779
26.3404
25.9017
25.9507
25.8747
25.8841
25.8696
25.8801
26.0397
438.973
135.791
111.012
82.4069
74.644
60.6443
51.6772
41.9547
36.2208
31.0866
29.3282
27.7638
27.9253
27.7802
27.9186
27.8554
27.7854
27.5211
27.1043
26.8242
226.955
139.208
109.249
75.7053
66.378
57.0688
52.9181
45.2793
39.0246
33.2879
29.8249
28.3047
27.7144
27.586
31.048
29.7225
28.8661
28.0186
27.2026
26.9131
255.407
171.945
107.837
74.1534
66.8934
61.9704
56.2732
49.9915
42.0621
35.818
31.2919
29.6126
28.7448
28.3071
29.4614
30.9714
28.5894
27.286
26.6069
26.628
236.487
224.929
124.944
69.495
57.4898
54.7434
54.9273
51.6884
44.1798
36.743
32.6106
30.8382
30.4198
29.9495
30.8833
31.4013
28.7058
27.4029
26.895
26.9325
273.469
186.125
127.001
72.2561
55.4049
49.2158
46.2974
43.8722
40.3963
35.9414
53.2705
50.8507
40.6809
34.0068
31.6924
31.3982
28.9062
27.7146
27.1949
26.908
231.236
170.351
128.611
73.3753
55.4147
45.7893
47.2676
42.2192
38.4939
36.0775
34.0799
32.8596
31.605
29.9095
29.5872
29.697
27.6724
26.8331
26.5336
26.5056
186.515
152.739
125.469
84.8664
66.9051
50.624
46.0456
42.2087
39.8115
38.0045
35.4615
32.964
30.17
28.5514
28.3222
26.839
26.1521
26.0842
26.1036
26.2664
215.002
178.612
134.643
80.3876
61.263
44.7981
41.3481
35.9713
34.517
31.1535
29.8535
27.6883
27.0053
26.147
26.1344
25.9589
26.0342
26.2442
26.4683
26.9506
318.263
200.837
153.034
106.314
74.1072
49.1518
41.4071
35.3877
32.7113
28.9693
28.0204
26.5604
26.5969
26.3614
26.4249
26.5343
26.8515
27.1969
27.4673
28.0009
183.536
157.612
122.091
87.4973
68.8903
47.4337
40.859
34.1653
32.5418
29.3416
29.1554
27.9313
28.0809
27.8893
28.0981
28.2369
28.5901
28.8295
29.0719
29.4247
234.746
150.3
101.775
66.8152
57.1595
42.5549
39.945
35.0901
34.1634
31.8088
31.8906
31.0975
31.2419
31.051
31.1921
31.2362
31.4483
31.4223
31.5228
31.3859
367.635
150.905
122.201
82.7623
65.1991
48.6276
44.1477
39.9342
39.5682
38.0138
38.0652
37.6222
37.5374
37.3078
37.1538
36.7782
36.5405
35.9694
35.6465
34.8081
153.014
178.053
125.934
77.9979
63.7646
49.7369
47.1759
44.0001
43.7757
42.8075
42.8537
42.5399
42.2068
41.5517
41.0766
40.4014
40.1027
39.6121
39.3133
38.5554
82.0399
93.8431
91.9607
81.5723
68.8685
58.147
50.1175
44.7622
41.5515
39.5388
38.0652
36.7395
35.7098
34.5017
33.3926
31.8342
30.6786
29.0776
28.2188
26.0117
64.8841
78.3274
70.0943
69.9016
70.3991
64.5369
53.7929
47.6264
42.6963
37.2564
32.3314
28.842
26.4618
24.5202
22.8403
21.4165
20.33
19.6188
19.1749
19.059
272.222
160.515
103.226
74.6997
81.1045
62.2123
72.3735
64.2506
68.6432
63.7782
65.1021
62.4924
62.6255
61.5975
61.9093
61.5581
61.5707
61.0565
60.7278
60.1517
211.734
184.997
151.649
76.4109
79.5573
58.0499
65.3812
54.7268
59.1028
53.6245
55.3649
52.5863
53.3967
52.083
52.4701
51.8785
52.0093
51.8467
51.894
52.0852
249.62
169.806
98.9521
67.1176
63.5697
45.9224
55.0366
44.4522
51.3419
46.662
49.521
47.4873
48.6789
48.006
48.7243
48.6424
49.1304
49.3574
49.6124
50.1028
249.7
149.111
125.298
69.3192
72.394
48.8619
59.2128
47.8107
53.7021
48.3878
50.6522
48.0244
49.096
47.9565
48.6829
48.4367
48.8577
49.0707
49.3345
49.8001
171.37
138.4
119.143
69.2747
71.947
49.9908
57.6481
47.7357
51.6063
47.9714
49.4558
47.9858
48.7621
48.6539
49.2716
49.3927
49.7923
50.0292
50.2573
50.6158
279.358
167.149
106.515
74.6512
83.5972
60.7463
62.1488
51.4419
53.1346
49.1451
51.3406
49.8466
51.3423
50.992
51.8175
51.7629
51.9732
51.7713
51.6155
51.4501
168.326
140.953
122.098
75.032
82.2498
63.1675
59.3303
50.3131
51.7555
48.7997
51.5658
50.8527
52.6452
52.6664
57.5916
54.5266
53.5759
52.6115
51.9498
51.6809
393.349
160.516
116.835
76.3726
79.0302
67.3199
65.6887
56.1162
54.951
54.7729
55.9396
57.0581
57.1542
57.1348
61.2652
57.0719
53.0501
51.7458
51.1535
51.078
236.794
201.842
137.811
73.7651
76.5847
63.0094
65.9157
62.9588
61.019
60.8015
60.453
60.2688
61.7722
60.5571
62.4048
56.6312
52.8058
51.8294
51.5393
51.5267
404.84
167.014
135.57
73.9385
75.4507
58.5634
58.3465
62.4341
63.9011
60.8647
58.8057
59.0168
61.9608
61.4935
62.4592
57.1208
53.0389
52.099
51.651
51.3786
167.961
153.657
147.202
84.1646
82.3242
61.2537
64.4343
63.3019
64.9147
64.6174
62.8848
61.1877
61.2106
59.5733
61.2075
55.5387
51.9435
51.095
50.8224
50.8835
192.517
162.942
149.059
89.3243
95.3406
70.7448
65.6197
55.7275
60.2338
59.019
58.7311
56.6106
55.2941
53.3714
54.1818
51.1599
50.1941
50.1232
50.077
50.3348
266.263
158.658
152.271
84.2252
91.6441
59.9596
63.7937
49.9181
53.7681
47.4021
50.8877
48.2475
49.8641
48.8848
49.5674
49.0844
49.5035
49.8317
50.2143
50.8936
253.791
159.158
156.467
100.928
95.7321
59.056
64.4812
52.8157
54.2016
48.9446
50.099
48.3627
49.2776
48.8682
49.287
49.5021
50.1814
50.7178
51.1588
51.8944
240.146
171.198
146.721
91.7311
89.8714
59.1502
65.5124
52.3294
56.6251
50.3489
52.669
50.0556
51.4698
50.5827
51.5271
51.3618
52.0165
52.2728
52.6842
53.2224
140.873
152.238
123.883
72.3893
78.4883
53.3866
64.0087
52.6041
58.2801
53.5803
56.0399
54.1551
55.4067
54.7145
55.4544
55.3634
55.807
55.7666
55.9382
55.6406
376.11
181.987
148.38
94.4829
96.1518
69.0106
74.9965
65.1668
68.7667
64.0969
65.7288
63.46
64.1899
63.0831
63.2654
62.4805
62.5019
61.7585
61.6486
60.4303
488.857
265.837
174.582
85.7891
92.1493
67.1717
77.2665
69.0429
75.1421
72.2406
74.7089
73.2344
73.8618
72.8782
72.9608
72.2765
72.1535
71.3784
71.1959
69.5137
64.5133
94.9728
90.3425
74.783
60.8677
51.1108
45.333
41.6783
39.1531
37.168
35.7434
34.2873
32.9007
31.0736
29.4002
27.5186
26.0522
24.4716
23.6361
22.1042
35.2392
38.5339
75.0761
36.53
32.4906
36.1769
93.8129
28.7589
76.6489
67.3737
31.5296
29.6334
93.2685
72.0221
68.4028
33.6146
32.2413
34.4964
78.8379
34.0283
33.3121
66.3549
32.2442
32.1939
80.4804
71.8886
33.3998
33.423
322.139
419.769
337.853
135.556
120.777
124.497
117.215
252.589
321.103
261.496
113.316
97.4077
114.533
109.589
238.346
248.032
249.46
92.2697
79.4793
107.34
80.9504
208.236
248.412
208.725
76.3489
70.5855
74.0588
63.6441
157.864
186.404
154.312
65.514
46.5775
59.6319
42.4233
156.27
154.984
166.883
41.9825
35.0139
38.3015
33.087
156.255
169.222
170.317
34.0096
32.1753
32.4306
31.5531
138.264
168.994
152.598
31.932
30.0169
31.423
30.3474
303.24
333.14
262.177
100.205
101.991
87.371
80.1754
255.138
248.456
219.504
104.024
106.101
80.1033
79.1582
248.794
217.702
223.532
104.681
79.3739
76.7533
63.8424
206.734
223.919
198.763
72.721
61.3843
61.329
53.7374
157.079
179.737
170.264
56.6269
40.9362
49.7078
39.8216
171.556
172.758
173.48
37.5833
33.3698
38.2322
36.3172
172.343
171.877
161.281
32.8685
32.2285
36.0771
34.8469
153.43
158.425
128.322
32.1125
31.1016
34.4295
31.8784
266.03
317.352
253.466
80.1637
74.6854
75.1195
67.7809
218.487
234.537
203.667
74.2873
73.1107
65.055
59.9277
216.077
200.259
194.457
70.9328
59.7338
58.5816
50.078
191.509
190.502
178.587
57.3585
50.6566
47.3946
42.6639
172.754
176.51
175.235
47.6273
40.1399
41.5592
38.3989
171.249
174.846
170.355
38.9117
36.9666
37.5932
35.9273
155.397
168.052
163.463
36.6225
34.9835
35.4219
33.6771
124.825
162.919
151.36
34.5584
31.6564
33.1639
30.7589
231.99
275.505
188.544
68.5776
63.4716
71.0669
65.0551
196.491
179.49
173.16
60.2914
54.3965
61.9487
52.0422
186.3
173.341
175.036
53.012
46.6291
49.7844
43.3248
174.619
176.066
178.804
44.6606
41.1256
42.0932
39.2869
172.662
178.828
169.732
40.2551
37.6251
38.9535
38.2721
169.717
167.175
166.55
36.9133
35.4035
38.1919
36.5791
169.657
170.371
179.621
34.9709
33.5916
36.1041
35.0324
153.478
180.078
160.181
33.2079
30.8859
34.9247
33.8797
104.736
105.842
104.994
75.8283
70.0747
74.589
73.3134
86.9242
103.965
103.669
67.6446
62.3929
73.5223
73.3047
70.8602
101.503
72.9698
59.5748
50.8781
69.8187
51.7395
59.8718
66.2366
54.9799
48.195
39.9781
47.5735
38.5117
39.3692
50.805
36.8346
36.7296
29.4585
35.783
29.289
30.533
33.7485
29.6114
27.9605
25.5097
27.9723
26.03
28.3359
29.0568
28.2948
25.1044
24.3729
25.7486
25.2908
27.4275
28.1856
28.1519
24.2462
23.7838
25.2087
24.9776
92.7433
74.0444
72.5366
67.6855
69.6729
57.8249
57.1476
99.2592
72.7337
72.4471
70.4936
71.236
56.8046
54.414
71.6111
70.149
57.7565
68.2804
51.0796
52.3155
44.1973
53.0197
55.0468
46.8668
46.9627
37.9195
41.4756
47.2658
35.9392
43.6505
36.4182
35.2996
29.4448
47.8954
47.2339
29.9521
35.2674
33.724
28.3196
26.7452
45.8828
41.1927
28.9771
33.459
32.2908
26.5424
26.1905
39.6618
35.1865
28.777
31.8185
30.2968
26.1114
25.584
33.6315
30.2016
66.6475
62.8263
58.7261
53.0497
52.4792
50.3523
45.9787
66.4696
56.6898
53.3878
52.226
50.282
44.4712
41.6709
53.9632
52.1797
44.797
48.5286
42.0582
40.5573
36.1363
44.5275
42.4642
38.0257
39.0099
45.9319
34.7589
32.496
36.8122
36.9995
34.4907
46.8424
47.4738
32.2286
31.765
34.4291
33.9022
32.6782
47.093
44.0327
31.6316
31.0955
32.6593
32.3057
30.8658
42.3781
37.1153
30.7685
29.0635
30.2167
30.3877
28.8548
35.1883
30.6819
28.401
26.3501
56.7219
57.8832
57.7924
50.1174
47.1502
47.1684
47.1777
48.8897
55.7813
47.8306
44.6193
39.9672
46.0573
41.0918
41.8788
45.8593
40.2605
38.7455
34.8823
39.7981
35.7746
36.7231
38.9895
36.5318
33.7931
31.5823
34.8677
33.1295
33.8273
36.1878
35.6854
31.1525
30.2788
32.8934
32.1063
32.0964
35.5381
33.7834
30.0536
29.3341
31.7271
29.7755
30.4583
33.1461
31.7334
29.0108
27.6787
29.1746
27.6068
28.823
31.463
31.1212
27.2117
25.8916
27.2477
26.487
64.1234
67.9933
66.84
57.7705
53.5692
58.1433
55.5807
56.7047
66.8036
64.7087
51.5983
45.7651
54.4371
48.743
46.0417
60.9101
46.6345
43.4883
37.7557
46.0129
38.4213
36.2601
43.1896
35.5021
36.0532
31.6444
36.5177
32.2815
28.1127
33.322
28.3764
30.3976
28.0984
31.2163
29.0461
25.115
27.3891
25.8997
27.6687
26.8045
28.6277
27.9477
24.1726
25.6708
25.254
26.6062
26.1754
27.8052
27.3866
23.6418
25.1619
24.8765
26.0663
25.5223
27.2358
26.6658
64.244
54.3718
53.6271
55.7406
54.2771
49.1655
47.3503
63.2168
52.9775
49.9622
53.2664
48.2181
46.2963
42.7714
46.1615
48.0193
41.0805
45.7011
38.3959
41.3342
36.824
37.0641
39.9636
41.8446
39.6072
39.36
37.2675
38.9537
32.13
31.4073
33.8272
31.8872
32.3651
30.534
33.1434
26.7311
62.2523
48.4213
29.2645
28.6849
64.0428
46.7466
26.2145
45.1671
37.2629
28.5658
28.1365
43.0244
35.4394
25.4866
35.024
30.6058
27.9736
27.1429
33.7286
30.5491
49.5337
48.2873
44.0829
46.3856
44.7478
46.1319
42.0917
46.5585
42.5919
39.6066
43.9241
41.0956
40.7381
37.9466
39.4642
38.5361
34.7852
39.9239
36.3021
37.1509
34.7975
51.921
53.6904
35.9455
40.6274
39.7168
243.445
35.5915
79.7407
69.264
54.3431
203.821
55.5012
189.347
80.7015
53.3336
32.1132
31.5213
66.3293
49.3498
33.3136
32.3718
39.6552
31.0967
29.0765
45.1178
36.3049
31.8016
29.762
31.0657
28.346
26.2195
34.3105
30.6338
29.1408
27.3846
45.5504
44.9735
45.2118
46.7473
43.5154
44.1552
43.2716
38.4912
44.1763
39.9528
41.4937
37.7594
41.9941
39.1485
33.9387
38.8028
35.2419
36.9139
34.7509
38.3521
36.0405
31.1761
34.4341
32.8827
34.0973
32.6785
35.5151
34.1749
30.1978
32.6205
31.6044
32.3706
31.6579
33.7166
32.0858
29.3164
31.1453
29.2546
31.417
30.5507
31.5181
29.7914
27.5436
28.6769
27.1281
30.1334
28.6922
29.2098
27.657
25.7646
26.7509
25.9614
28.2218
27.0038
27.2506
26.0444
52.0354
56.9884
54.106
60.3655
54.1356
62.1416
58.3859
44.0754
52.6253
46.6217
51.7311
47.6494
56.261
51.7254
37.2363
44.2601
38.1728
47.4817
46.7725
51.0936
49.7659
32.1906
36.6394
33.1682
46.2637
45.4843
49.2784
48.2699
29.8723
32.348
30.7512
45.6974
46.3107
48.2298
48.2616
28.8988
30.4605
30.0462
46.2167
45.7151
48.2306
48.4328
28.4003
29.9508
29.5925
45.7625
45.7973
48.5164
48.0852
27.433
29.4281
28.4902
45.6007
44.59
47.7543
46.8965
53.0039
48.6706
46.8421
60.1219
57.7442
53.1307
54.0423
46.3497
45.8255
42.6009
56.099
52.6619
54.0482
53.892
38.2684
41.3728
37.4916
52.0089
49.9446
53.5202
49.8515
33.3661
36.4881
54.7719
49.1803
47.5346
48.4021
47.041
31.1224
56.7362
53.4476
47.3155
47.163
47.2904
47.1006
30.4721
50.4301
41.9622
47.38
48.1774
47.1699
48.3478
30.111
39.7003
34.8232
48.4717
48.2903
48.7421
48.936
28.8833
33.7003
31.2578
47.9611
47.0345
48.6248
47.558
44.6369
46.5351
42.7208
52.1426
53.3842
54.6684
54.2324
41.3777
41.5281
39.198
53.6171
54.1454
54.2066
54.6552
37.1833
38.5834
36.543
53.8985
50.2729
54.6751
53.458
51.1306
35.7845
34.6352
48.7828
47.5204
52.2884
49.8308
52.8481
34.5531
34.2879
47.6981
47.3307
49.3494
48.2941
43.1014
34.1173
33.2238
47.3669
48.5012
48.2848
48.6347
35.2761
32.7537
31.1442
48.879
49.041
48.7336
48.1552
31.2902
30.6374
28.8521
48.7022
47.5844
47.7202
46.4546
43.9898
45.5639
43.8831
56.5173
54.6913
58.1933
53.2494
39.1298
42.5124
39.9889
54.3153
54.5228
51.6582
51.2711
36.7356
39.3537
37.619
54.6658
54.0994
52.1551
52.7342
34.4696
37.1741
35.7262
53.4399
51.3336
52.246
50.2386
33.1497
35.1932
33.4969
50.8155
49.4844
49.9601
48.892
31.9839
32.9157
31.1301
49.1463
48.6408
48.0999
45.8753
30.3376
30.5228
29.0113
48.5066
47.57
45.4006
44.3771
28.4817
28.6129
27.127
47.1001
45.957
43.7698
42.0853
58.4931
68.1654
64.5894
82.4325
77.221
87.5924
88.2841
54.2611
62.5968
59.6796
75.7417
82.6277
87.8601
92.101
55.2308
59.7253
59.9205
85.8726
92.757
94.8756
105.569
55.0297
59.8953
59.8644
93.5117
101.656
109.026
118.267
57.1289
60.0552
60.3586
103.557
106.46
120.489
123.263
56.8024
60.4282
61.2761
105.877
108.078
122.693
116.734
57.3003
61.4027
60.5572
108.343
108.913
115.234
113.012
55.704
60.178
59.0207
108.426
107.743
112.823
113.932
64.2955
58.655
61.853
85.7549
89.3463
79.8213
91.5922
61.0518
62.4074
63.3375
89.7247
94.6078
93.8567
101.201
60.9636
63.4468
61.804
97.58
110.062
104.917
120.654
60.3894
60.2834
58.1441
114.194
124.127
126.015
137.054
60.3538
58.2068
58.1885
126.475
129.631
139.413
142.594
61.2962
58.8577
60.9567
129.082
120.964
141.712
129.957
61.0006
61.8721
61.9638
117.898
113.792
124.528
115.679
59.093
61.4057
59.56
113.378
113.323
114.882
114.793
61.7481
61.9951
63.1051
80.7354
93.359
90.4475
98.9926
63.6951
63.3083
64.5901
95.5933
102.807
100.043
105.248
62.4901
64.8919
64.9704
106.437
121.898
107.595
117.5
58.8346
64.5916
62.9863
127.334
137.578
120.776
127.927
58.3878
62.6042
61.4496
139.595
142.419
129.644
131.826
61.0336
61.0556
61.3533
141.485
130.043
131.203
123.122
62.0555
61.7391
60.8858
124.668
115.956
120.001
115.865
59.5844
60.3385
58.644
115.155
114.539
115.414
116.046
63.4277
66.6483
60.4624
95.9559
99.2041
97.4529
86.4776
64.4033
58.9477
59.6014
99.9134
105.142
86.8159
95.924
64.9563
61.1993
62.232
107.128
114.545
100.324
102.028
63.2137
61.6529
59.9362
117.054
123.027
102.167
106.081
61.621
60.1405
59.4904
124.612
126.314
108.7
109.34
61.1912
58.6231
56.5473
125.792
119.569
109.334
110.626
60.0806
56.4509
55.7497
118.11
115.587
111.792
110.819
58.0924
55.0786
53.0154
115.252
115.631
110.647
109.85
35.6378
37.4837
35.5075
33.4709
37.3332
35.2495
34.3376
40.6406
40.2476
53.6468
41.1365
39.9338
37.9087
185.569
44.0234
40.049
66.7492
225.654
40.2871
44.5986
242.284
35.5941
37.511
34.9351
36.3376
35.5783
37.0942
34.9943
34.5907
32.5481
33.6161
33.5024
33.9566
33.6964
34.1547
39.5829
41.0307
35.8848
59.0798
36.4568
191.461
36.5661
43.969
229.499
40.78
82.6412
45.3826
246.932
38.9426
31.46
29.9121
30.3348
28.5758
31.2311
29.4326
30.7393
43.6745
39.4396
78.4782
211.441
38.6993
44.1914
198.607
44.9386
37.1378
75.3318
102.335
38.4235
41.5544
132.478
32.2177
31.329
30.7379
32.9303
30.3073
32.8774
32.4862
31.8483
28.8509
30.1268
31.778
29.4954
31.257
32.1861
45.5044
215.003
41.4228
91.7277
45.3792
201.935
42.0175
47.4968
105.204
41.3747
84.8614
43.5775
136.813
42.5356
68.9731
64.5227
51.8999
220.833
46.5041
233.842
79.4339
34.4926
34.5751
32.7406
33.0816
34.4075
33.7931
32.4051
36.404
36.5871
32.3165
32.3851
35.0694
39.0681
32.2716
50.5198
41.0261
54.9631
35.0727
237.641
35.2537
39.2604
66.8776
226.418
71.9043
53.2097
240.441
75.8287
47.2327
34.4236
33.1947
34.2382
33.465
33.6785
32.6195
34.4585
36.3978
32.6887
37.3688
33.2781
38.9783
32.5528
35.5424
74.7241
71.4809
55.1216
119.283
55.7069
166.784
71.1285
41.3019
37.7475
32.2506
32.5709
38.4066
40.6116
32.6946
41.1606
38.6361
32.233
32.7019
38.5991
41.0818
32.7193
75.4167
208.932
79.9736
55.9137
193.951
76.6146
56.571
71.5011
120.26
80.4222
55.0803
162.954
68.4625
56.2154
41.2084
32.8938
38.5935
33.4829
40.481
33.039
39.3057
41.1198
33.0487
39.3186
33.4712
41.025
33.068
39.4118
194.936
212.972
186.904
117.128
110.498
123.668
109.973
172.11
168.792
159.015
101.257
97.7527
97.0566
89.7913
144.849
154.116
150.246
89.0468
84.9842
85.6706
83.7538
114.741
140.61
123.052
80.0721
70.5998
82.5568
79.0934
98.5152
107.677
99.1888
60.5812
52.7322
67.1402
54.9106
93.9166
95.9228
94.9348
46.6886
43.4318
46.0207
41.0579
91.699
94.23
93.8
41.8444
40.2242
38.7891
37.5857
83.7209
93.2358
86.2727
39.6411
33.3242
37.0105
30.7255
259.894
283.589
254.35
169.881
147.377
164.965
138.863
218.911
385.023
431.326
239.322
214.296
241.394
388.455
150.524
282.058
311.586
161.23
150.525
162.189
293.748
119.085
240.586
248.231
126.291
120.12
126.552
242.009
108.165
233.449
238.279
115.686
115.242
109.142
233.526
94.8507
176.692
187.532
105.239
98.7131
101.011
170.286
65.234
155.45
150.302
78.5382
74.0454
70.3179
150.967
57.8633
157.113
158.629
67.2723
65.1765
58.7283
159.387
55.7152
155.758
159.424
62.4366
60.892
56.1443
159.074
87.7518
102.56
86.2596
34.0979
29.1762
34.7046
29.423
212.566
228.925
207.006
133.196
108.104
124.111
100.884
162.632
328.621
351.647
192.554
169.659
187.424
318.23
136.7
286.271
270.973
148.965
149.351
136.316
258.996
114.081
243.184
234.12
129.013
119.13
122.24
235.134
102.433
244
244.981
104.413
104.458
101.959
241.954
82.1523
165.991
181.102
93.2501
85.9761
90.703
165.987
61.4944
163.895
164.639
64.1774
61.0706
63.3373
170.321
59.8253
173.656
174.978
58.8576
58.6928
60.1606
174.776
58.0193
168.463
168.921
57.7784
57.3339
58.6143
166.773
83.3795
89.633
74.965
35.8117
29.8822
35.5513
28.0438
198.219
203.722
192.062
111.485
90.9071
106.371
88.3521
147.261
299.495
327.106
172.138
147.241
172.761
297.707
106.992
238.997
249.171
113.516
108.494
112.996
236.006
90.2236
214.59
211.159
96.2697
92.6642
93.8522
209.682
82.2806
214.551
208.363
86.4633
86.4604
83.3374
205.109
72.9915
173.526
178.305
81.5377
75.4313
76.2217
175.669
65.7712
173.46
174.493
66.8438
65.6325
66.9648
173.849
61.6533
163.981
165.91
63.2061
62.0057
62.8981
161.992
54.7988
147.343
151.369
58.7021
57.2346
56.9943
148.054
78.8546
99.8465
91.3499
33.7072
26.8057
34.2928
29.9925
152.873
151.352
152.063
85.0749
74.4551
87.2101
77.2069
123.838
250.983
246.627
134.541
119.182
138.217
221.665
84.7913
207.456
194.96
96.7334
90.0037
91.7179
191.569
73.8449
192.14
188.346
80.1028
77.8662
75.2425
186.755
69.4856
179.702
179.662
72.4892
71.5473
70.1326
177.493
66.5705
173.271
173.071
70.4529
69.3299
67.9231
171.274
61.4259
171.32
166.704
64.6377
63.4355
62.518
166.54
60.0851
169.401
169.086
60.6259
59.9467
60.1109
171.26
59.7093
169.366
174.107
58.452
58.0717
59.8399
173.982
96.8369
111.349
97.3591
36.2069
33.4178
38.2881
35.4617
140.003
167.966
140.842
94.7908
83.6223
92.2343
79.2242
116.703
120.352
115.28
73.5735
65.5232
69.0387
63.0103
117.509
115.535
117.31
59.9128
56.0811
60.2306
56.0841
119.366
119.62
120.186
53.5785
51.7289
53.611
52.188
117.11
119.764
116.706
50.8363
49.3947
51.3021
49.4941
111.699
112.858
110.655
48.5739
47.0798