/*--------------------------------*- C++ -*----------------------------------*\
  =========                 |
  \\      /  F ield         | OpenFOAM: The Open Source CFD Toolbox
   \\    /   O peration     | Website:  https://openfoam.org
    \\  /    A nd           | Version:  10
     \\/     M anipulation  |
\*---------------------------------------------------------------------------*/
FoamFile
{
    format      ascii;
    class       volScalarField;
    location    "6.1";
    object      turbidity;
}
// * * * * * * * * * * * * * * * * * * * * * * * * * * * * * * * * * * * * * //

dimensions      [0 0 0 0 0 0 0];

internalField   nonuniform List<scalar> 
12920
(
-0.023904
-0.0373181
-0.0519563
-0.0689728
-0.0830018
-0.0914933
-0.0969349
-0.111741
-0.135121
-0.160073
-0.178741
-0.188791
-0.199703
-0.217464
-0.246532
-0.286012
-0.334675
-0.38538
-0.431085
-0.467549
-0.0130002
-0.0317567
-0.0591962
-0.0886907
-0.124143
-0.147608
-0.165859
-0.177361
-0.1939
-0.215431
-0.243142
-0.275058
-0.312607
-0.355384
-0.402281
-0.445543
-0.476414
-0.488409
-0.478667
-0.45829
-0.0196288
-0.0305602
-0.0490466
-0.0786398
-0.118518
-0.163549
-0.201737
-0.232243
-0.259234
-0.288405
-0.321895
-0.360954
-0.40653
-0.456167
-0.50569
-0.5493
-0.584082
-0.611768
-0.637368
-0.666078
-0.030658
-0.0381898
-0.057462
-0.0875547
-0.131496
-0.17084
-0.213411
-0.244815
-0.277187
-0.307757
-0.34457
-0.388292
-0.441274
-0.501258
-0.563407
-0.622214
-0.674746
-0.72073
-0.761651
-0.796904
-0.0154435
-0.029637
-0.0534943
-0.0966019
-0.139283
-0.18089
-0.214014
-0.256923
-0.293735
-0.326569
-0.361155
-0.402262
-0.450487
-0.501728
-0.550674
-0.593117
-0.628628
-0.658565
-0.683672
-0.709444
-0.0205573
-0.028162
-0.0391641
-0.0539524
-0.0653551
-0.07863
-0.103572
-0.158279
-0.233328
-0.304237
-0.361976
-0.410519
-0.452721
-0.487072
-0.510385
-0.525903
-0.539016
-0.554225
-0.572017
-0.598228
-0.0176555
-0.0309243
-0.043804
-0.0550282
-0.0661618
-0.0783493
-0.097086
-0.131375
-0.181031
-0.246564
-0.312897
-0.368771
-0.405064
-0.422394
-0.424637
-0.414819
-0.401883
-0.401648
-0.415758
-0.444568
-0.0216666
-0.0372115
-0.0473902
-0.0615099
-0.0808804
-0.0990918
-0.101564
-0.112251
-0.130187
-0.154829
-0.208091
-0.269825
-0.30621
-0.309153
-0.218015
-0.213215
-0.219162
-0.237066
-0.26737
-0.308537
-0.0134624
-0.0327593
-0.0472311
-0.0610005
-0.0785406
-0.0781163
-0.0806085
-0.0882054
-0.0913827
-0.101213
-0.131657
-0.183122
-0.207745
-0.196931
-0.144422
-0.129619
-0.158012
-0.194668
-0.239484
-0.288951
-0.0163328
-0.0275987
-0.0418149
-0.0681142
-0.0934914
-0.0950083
-0.0912182
-0.0808125
-0.0771038
-0.0825187
-0.103309
-0.139344
-0.14575
-0.131259
-0.112563
-0.119023
-0.148824
-0.188338
-0.234447
-0.281122
-0.0172819
-0.031608
-0.0619782
-0.0930824
-0.115371
-0.112617
-0.109152
-0.0988241
-0.0865279
-0.089469
-0.105813
-0.123105
-0.120182
-0.108088
-0.100724
-0.107166
-0.142476
-0.186431
-0.234219
-0.280928
-0.0201006
-0.0480311
-0.0860536
-0.11973
-0.152646
-0.145049
-0.128034
-0.113101
-0.105789
-0.108289
-0.115
-0.113778
-0.105319
-0.0982125
-0.0936395
-0.116758
-0.16217
-0.21217
-0.26042
-0.305869
-0.0129551
-0.036587
-0.0607704
-0.0885112
-0.123463
-0.158714
-0.163243
-0.160775
-0.147507
-0.138168
-0.13167
-0.125076
-0.118886
-0.114564
-0.146462
-0.19666
-0.253803
-0.308561
-0.357932
-0.40756
-0.0592212
-0.0510612
-0.0603897
-0.101383
-0.143289
-0.181595
-0.207973
-0.226628
-0.232653
-0.238312
-0.239948
-0.248349
-0.264704
-0.293935
-0.335742
-0.387804
-0.440785
-0.492539
-0.539972
-0.583157
-0.0324693
-0.0719418
-0.0673855
-0.0775741
-0.097898
-0.13218
-0.177222
-0.22307
-0.261056
-0.293564
-0.318414
-0.345301
-0.375101
-0.40996
-0.445585
-0.47847
-0.503775
-0.521795
-0.534304
-0.54539
-0.037093
-0.0642271
-0.078927
-0.0934347
-0.110082
-0.13578
-0.174857
-0.220503
-0.26836
-0.313514
-0.353437
-0.388357
-0.418008
-0.440652
-0.455795
-0.461493
-0.45968
-0.454089
-0.448364
-0.452917
-0.0172924
-0.0473684
-0.0729341
-0.0956329
-0.120579
-0.151548
-0.191454
-0.235076
-0.280108
-0.319192
-0.351474
-0.379322
-0.401975
-0.420751
-0.436241
-0.443781
-0.442815
-0.436357
-0.425186
-0.420616
-0.00769567
-0.0272911
-0.0511779
-0.0825817
-0.117476
-0.155195
-0.194106
-0.230033
-0.261398
-0.284361
-0.301548
-0.312472
-0.322149
-0.327315
-0.331665
-0.33821
-0.346212
-0.357502
-0.371974
-0.38498
-0.00980813
-0.0279796
-0.0593328
-0.0990354
-0.13366
-0.162135
-0.19202
-0.218725
-0.243815
-0.264018
-0.281499
-0.293739
-0.303848
-0.31245
-0.321779
-0.333285
-0.347481
-0.363656
-0.379489
-0.389659
-0.0160921
-0.0345915
-0.0537579
-0.0776075
-0.103782
-0.132463
-0.159701
-0.185113
-0.207576
-0.227144
-0.243641
-0.256404
-0.26548
-0.271694
-0.276953
-0.284881
-0.297773
-0.31531
-0.336275
-0.35927
-0.0050378
-0.0160975
-0.0278295
-0.0329308
-0.0375087
-0.0431803
-0.0530875
-0.0621165
-0.0639052
-0.0562575
-0.0416425
-0.0298481
-0.0229521
-0.0203874
-0.0215908
-0.0263249
-0.0349066
-0.0480352
-0.0604592
-0.0679477
-0.00612751
-0.00731779
-0.0215064
-0.0269719
-0.0382489
-0.0392708
-0.0412852
-0.0422412
-0.0446344
-0.0481905
-0.0568755
-0.0727906
-0.0976236
-0.121485
-0.134414
-0.129771
-0.106428
-0.0777421
-0.0542289
-0.0434191
-0.0035511
-0.00520258
-0.0138255
-0.0241341
-0.0391525
-0.0456828
-0.0526412
-0.0556341
-0.0621457
-0.070591
-0.0843268
-0.0983866
-0.107594
-0.105234
-0.0933914
-0.0767045
-0.0646014
-0.0615926
-0.0666302
-0.0795406
-0.00887323
-0.00612619
-0.0108679
-0.017565
-0.03464
-0.0372967
-0.046575
-0.0474647
-0.0525374
-0.0588657
-0.0702179
-0.0816828
-0.0921801
-0.0963493
-0.0968992
-0.0972736
-0.100046
-0.103795
-0.108275
-0.11325
-0.00170221
-0.00163442
-0.00792592
-0.0236666
-0.0427025
-0.0610395
-0.0778329
-0.0789855
-0.0780588
-0.0744536
-0.0768085
-0.0796675
-0.0826219
-0.0838003
-0.0877335
-0.0924836
-0.100533
-0.108238
-0.113934
-0.115463
-0.000985302
-0.00313273
-0.00744098
-0.0144561
-0.024531
-0.0394089
-0.0638037
-0.0843571
-0.0950225
-0.0912132
-0.0834095
-0.0750045
-0.0702819
-0.0698364
-0.073797
-0.081953
-0.0944417
-0.111316
-0.130201
-0.141659
-0.000370688
-0.00653169
-0.0112242
-0.0183064
-0.0277088
-0.036589
-0.0497187
-0.0674914
-0.0837498
-0.0917494
-0.0836162
-0.0693037
-0.0580233
-0.0547992
-0.0583136
-0.0660107
-0.0772177
-0.0930665
-0.113259
-0.130126
-0.00183832
-0.00565499
-0.00945819
-0.0138075
-0.0220236
-0.0318126
-0.0401904
-0.0561091
-0.0718897
-0.0947317
-0.100318
-0.0737475
-0.051203
-0.0468574
-0.0603762
-0.0682942
-0.0723052
-0.0765616
-0.0833996
-0.0890405
-0.00888729
-0.0130095
-0.0167693
-0.0170452
-0.0223648
-0.025625
-0.0367258
-0.0483432
-0.0577541
-0.076544
-0.104582
-0.082782
-0.0444509
-0.0421656
-0.0567948
-0.0607851
-0.0604845
-0.0604776
-0.0619548
-0.0630824
-0.0068038
-0.0196602
-0.0265204
-0.0249699
-0.026886
-0.0252449
-0.0277983
-0.03669
-0.0552717
-0.0696425
-0.0994762
-0.0740119
-0.0424052
-0.0433043
-0.0555024
-0.0508589
-0.0534168
-0.054812
-0.0555125
-0.0555431
-0.0123015
-0.0221775
-0.0295874
-0.0266314
-0.0287592
-0.0295917
-0.0335389
-0.0420075
-0.0551163
-0.0730158
-0.0914999
-0.0753178
-0.0575643
-0.0527457
-0.0371534
-0.047532
-0.0550229
-0.0581542
-0.0582055
-0.0569742
-0.00467421
-0.0267902
-0.0214214
-0.0301717
-0.0548926
-0.0553947
-0.0538237
-0.0555303
-0.0693914
-0.0837366
-0.0860987
-0.0763189
-0.0575149
-0.0375616
-0.0327297
-0.0595529
-0.0617238
-0.0584561
-0.056407
-0.0576929
-0.00353845
-0.0133128
-0.016945
-0.0190894
-0.0316732
-0.0462501
-0.0592409
-0.0843178
-0.082602
-0.0746119
-0.069131
-0.064927
-0.0543599
-0.0483554
-0.0742217
-0.0813433
-0.0780285
-0.0727178
-0.0715192
-0.07552
-0.0412404
-0.0247152
-0.0163346
-0.0208137
-0.0319006
-0.0436623
-0.0532143
-0.0573896
-0.053234
-0.0524256
-0.0560888
-0.065775
-0.0806454
-0.0981804
-0.111888
-0.118292
-0.121799
-0.12507
-0.127114
-0.127823
-0.0437581
-0.0374025
-0.027837
-0.0200299
-0.0243347
-0.0331287
-0.0452497
-0.0488216
-0.050046
-0.054989
-0.0634562
-0.0747632
-0.084583
-0.0901165
-0.089721
-0.084784
-0.0780802
-0.0732915
-0.0706255
-0.072143
-0.0122264
-0.01053
-0.0135372
-0.0160362
-0.0184502
-0.0220854
-0.0312379
-0.0405795
-0.0494855
-0.0545515
-0.0586811
-0.0588001
-0.0572003
-0.0530504
-0.0483324
-0.0436891
-0.0405111
-0.0394268
-0.0407033
-0.0449889
-0.00400571
-0.010935
-0.0143797
-0.0167339
-0.0201189
-0.0264152
-0.0378762
-0.0444647
-0.0478464
-0.0477832
-0.0470054
-0.0458402
-0.0448524
-0.0437769
-0.0424797
-0.0404596
-0.0383797
-0.0371771
-0.0375926
-0.0401202
-0.00356798
-0.0200771
-0.0298189
-0.0289671
-0.0345115
-0.0354146
-0.0387454
-0.0391077
-0.0385445
-0.0367635
-0.0352852
-0.0344449
-0.0347264
-0.0357468
-0.0376426
-0.0401128
-0.042663
-0.0444997
-0.0454806
-0.0457971
-0.00213243
-0.0139274
-0.0263744
-0.0255447
-0.0244505
-0.023967
-0.0276403
-0.0318692
-0.0373307
-0.0437031
-0.0525314
-0.0619808
-0.0728458
-0.0824199
-0.087976
-0.0892579
-0.0867835
-0.0814013
-0.0716175
-0.058135
-0.00584794
-0.00922889
-0.0144357
-0.0231266
-0.0410004
-0.0600465
-0.0777687
-0.0905228
-0.0984429
-0.0979794
-0.0914326
-0.0782176
-0.0628155
-0.0494522
-0.0404229
-0.0360966
-0.0380992
-0.0498825
-0.0711813
-0.0938585
-0.00454831
-0.00732562
-0.0112814
-0.0152564
-0.0201799
-0.0260353
-0.0322363
-0.0348117
-0.0320138
-0.0258576
-0.0198688
-0.0164998
-0.0154467
-0.0160592
-0.017785
-0.0201649
-0.02281
-0.0253226
-0.026934
-0.0277766
-0.00691533
-0.00747738
-0.0114393
-0.014116
-0.0186793
-0.020384
-0.022594
-0.0235651
-0.0250613
-0.0279209
-0.0338674
-0.0420057
-0.0504545
-0.0545298
-0.0519379
-0.0436836
-0.033712
-0.0266891
-0.023542
-0.0235647
-0.00289749
-0.00557443
-0.00978699
-0.0136838
-0.0192852
-0.0225055
-0.0259579
-0.0281601
-0.0314517
-0.0348779
-0.0388953
-0.0407995
-0.039448
-0.0346541
-0.0291533
-0.0250554
-0.0236738
-0.024795
-0.0277809
-0.0324416
-0.00613031
-0.00455736
-0.00622657
-0.00967734
-0.0152267
-0.0178071
-0.0218153
-0.0237718
-0.0268299
-0.0292689
-0.0318372
-0.032727
-0.0325254
-0.0310267
-0.0297707
-0.0293289
-0.0299337
-0.0308518
-0.0319816
-0.0334458
-0.00041684
-0.0013571
-0.00459387
-0.0106016
-0.0175215
-0.0251253
-0.0316663
-0.0313818
-0.0313625
-0.030631
-0.030996
-0.0307666
-0.030672
-0.0306047
-0.0314328
-0.0322882
-0.033446
-0.0340138
-0.0341166
-0.0336652
-0.000668895
-0.00373815
-0.00763838
-0.0114328
-0.0186029
-0.0267762
-0.0382396
-0.0405057
-0.0385598
-0.0337928
-0.0310005
-0.0300409
-0.0311166
-0.0332423
-0.0359414
-0.0385485
-0.0411773
-0.0433709
-0.044798
-0.0435852
-0.00127512
-0.00661629
-0.0119888
-0.0148595
-0.0189099
-0.0215561
-0.0267476
-0.0334411
-0.0368152
-0.0354865
-0.0319602
-0.0307917
-0.0329521
-0.0370346
-0.0416491
-0.0456766
-0.0490513
-0.0517238
-0.0536223
-0.0522297
-0.00183786
-0.00478129
-0.00623736
-0.00718224
-0.00976175
-0.0135499
-0.0175194
-0.025063
-0.0342392
-0.0403238
-0.0352755
-0.0308792
-0.0336644
-0.0404816
-0.0479328
-0.0486742
-0.0470571
-0.0444187
-0.0414254
-0.0368704
-0.00704553
-0.0100804
-0.00910501
-0.00903943
-0.0106168
-0.011663
-0.0159678
-0.0201316
-0.027334
-0.0377682
-0.0375664
-0.0307649
-0.0351478
-0.0435592
-0.0501545
-0.0361182
-0.0313796
-0.0279839
-0.0254606
-0.0231523
-0.00539964
-0.0139695
-0.014469
-0.0127167
-0.0133623
-0.0132546
-0.0142558
-0.0188464
-0.0271425
-0.0339051
-0.0314679
-0.0252103
-0.0287685
-0.0342552
-0.0384036
-0.0328884
-0.0293664
-0.0257276
-0.0229833
-0.0211243
-0.010573
-0.0205603
-0.0208881
-0.0160683
-0.0171907
-0.0173602
-0.0185844
-0.0214521
-0.0271443
-0.0298222
-0.0258896
-0.0217456
-0.0224075
-0.0250389
-0.0354089
-0.0390621
-0.0345728
-0.0292977
-0.0251561
-0.0222981
-0.0100772
-0.0133871
-0.0108953
-0.0166114
-0.024606
-0.0263864
-0.0282944
-0.0294952
-0.0327219
-0.0316206
-0.0287269
-0.0252762
-0.0215956
-0.0253526
-0.0430301
-0.0371651
-0.029339
-0.0237664
-0.0210722
-0.0200175
-0.00414967
-0.0065551
-0.00770202
-0.0106488
-0.0165881
-0.0226048
-0.0283108
-0.0383396
-0.0370404
-0.0333308
-0.0306211
-0.0284798
-0.0313642
-0.0415449
-0.042431
-0.0352886
-0.0279157
-0.0233032
-0.0214623
-0.0213921
-0.0156063
-0.0161181
-0.0129903
-0.0127433
-0.0155718
-0.0193147
-0.0231353
-0.0247809
-0.024276
-0.0271008
-0.031707
-0.0380859
-0.0436622
-0.046552
-0.0452358
-0.0418905
-0.0390732
-0.0371739
-0.0354697
-0.0339743
-0.00755557
-0.0117019
-0.0121599
-0.0108615
-0.012309
-0.0154507
-0.0196793
-0.0212611
-0.0230293
-0.0261243
-0.0302657
-0.033619
-0.0353577
-0.0347217
-0.0327408
-0.0303104
-0.0283215
-0.0271786
-0.026805
-0.0274358
-0.00511765
-0.0053303
-0.00652048
-0.00840633
-0.0105812
-0.0134855
-0.0174073
-0.019939
-0.0220202
-0.0226763
-0.023607
-0.0233729
-0.0228945
-0.0219076
-0.0210955
-0.0205634
-0.0205361
-0.0210528
-0.0221607
-0.0240173
-0.00203546
-0.00732848
-0.00933955
-0.0106156
-0.012365
-0.014812
-0.017744
-0.0183553
-0.0184861
-0.0180319
-0.0178678
-0.0177066
-0.0177018
-0.0177568
-0.0179691
-0.0183155
-0.0189302
-0.0198611
-0.0211612
-0.0228826
-0.00362797
-0.0120219
-0.0140118
-0.0125592
-0.0132282
-0.0135513
-0.0146499
-0.0147825
-0.0146591
-0.0144955
-0.0146911
-0.0151675
-0.0159463
-0.0168751
-0.0179525
-0.0191267
-0.020376
-0.021668
-0.0230895
-0.0245144
-0.00321427
-0.01003
-0.011422
-0.0109147
-0.013114
-0.0143545
-0.0164036
-0.017372
-0.0187038
-0.0199618
-0.0221496
-0.0244448
-0.0267575
-0.028349
-0.0289971
-0.0287227
-0.0280735
-0.0275909
-0.0274718
-0.0282889
-0.00415467
-0.00899428
-0.0149426
-0.0246909
-0.0377435
-0.0502644
-0.0597208
-0.0628052
-0.0593655
-0.0501252
-0.0392637
-0.0288347
-0.0210922
-0.0163921
-0.014383
-0.0147627
-0.0177027
-0.0236236
-0.0319144
-0.0400856
-0.000778301
-0.00163996
-0.00326001
-0.00681059
-0.011357
-0.0153649
-0.0179255
-0.0175507
-0.0153053
-0.0129338
-0.0120317
-0.0130027
-0.0151653
-0.0177525
-0.0200563
-0.021681
-0.0225401
-0.0227225
-0.0224019
-0.0218698
-0.00199019
-0.00518334
-0.00737712
-0.0102925
-0.0123159
-0.0135045
-0.0144977
-0.0151934
-0.0164247
-0.0184436
-0.0212848
-0.0236513
-0.0249478
-0.0240537
-0.0217039
-0.0191235
-0.0173405
-0.0166488
-0.0167151
-0.0171073
-0.000922563
-0.00284129
-0.00588051
-0.0100256
-0.013508
-0.0157005
-0.0172389
-0.0180377
-0.0189827
-0.0192329
-0.0192303
-0.018191
-0.0166435
-0.0149581
-0.013856
-0.0134598
-0.0137079
-0.0143982
-0.0154044
-0.0167431
-0.00333683
-0.00489137
-0.00644499
-0.00935437
-0.0119187
-0.0137753
-0.0153386
-0.015961
-0.0164638
-0.0161643
-0.0158182
-0.0150402
-0.0144478
-0.0139954
-0.0139842
-0.0143228
-0.0149844
-0.0157761
-0.0167086
-0.0177999
-0.000456273
-0.00191861
-0.00441513
-0.00810522
-0.0114129
-0.0146109
-0.0165818
-0.0166936
-0.0167212
-0.0160714
-0.0156151
-0.0149924
-0.0147354
-0.0146694
-0.0149636
-0.0153114
-0.0158372
-0.0163438
-0.016889
-0.017478
-0.00118931
-0.00187241
-0.00390452
-0.00698408
-0.0124549
-0.0156608
-0.0192892
-0.0187109
-0.0179891
-0.0168201
-0.0163692
-0.0161131
-0.0163115
-0.0165346
-0.0167695
-0.0169002
-0.017029
-0.0171225
-0.0171627
-0.0169396
-0.00798676
-0.00690757
-0.00904859
-0.00858888
-0.0108751
-0.0117256
-0.0142296
-0.0168447
-0.0180889
-0.0180655
-0.0180787
-0.0184451
-0.0193698
-0.0202808
-0.0208291
-0.0206806
-0.020174
-0.0194778
-0.0188119
-0.0176517
-0.00280659
-0.0053707
-0.00494255
-0.00497589
-0.00603549
-0.00808514
-0.00973647
-0.0137531
-0.0175316
-0.0194659
-0.0195606
-0.0210754
-0.0231466
-0.0259463
-0.0224511
-0.0203528
-0.0176609
-0.0154522
-0.0139936
-0.0128573
-0.00588083
-0.00763777
-0.0065231
-0.00669153
-0.00753009
-0.00804915
-0.00928042
-0.0112994
-0.0159173
-0.0194107
-0.0217956
-0.0243755
-0.0277109
-0.030042
-0.0233421
-0.0125884
-0.0109583
-0.010094
-0.00972956
-0.00988622
-0.00560325
-0.00952057
-0.00936464
-0.00915153
-0.00983536
-0.0099597
-0.01017
-0.01158
-0.0142262
-0.0171508
-0.0205686
-0.0238599
-0.0241922
-0.0229247
-0.0161332
-0.0108345
-0.00980354
-0.00935873
-0.00945126
-0.00999878
-0.0101756
-0.0142834
-0.0127946
-0.0114829
-0.0121129
-0.0121718
-0.0126898
-0.0134361
-0.0142908
-0.0154304
-0.0174107
-0.0188867
-0.0190906
-0.0205157
-0.0200746
-0.013065
-0.0110017
-0.010024
-0.00999034
-0.0105624
-0.00502179
-0.00855353
-0.00904863
-0.0122746
-0.0139606
-0.0154312
-0.0168472
-0.0178394
-0.0169235
-0.0159523
-0.0154246
-0.0157693
-0.0179623
-0.022539
-0.0215326
-0.0113904
-0.00983027
-0.00955963
-0.0100903
-0.0109755
-0.00199768
-0.00420423
-0.00503387
-0.00704971
-0.0102808
-0.013075
-0.0153384
-0.0181116
-0.0175497
-0.0164462
-0.0169981
-0.0191059
-0.0215602
-0.0217486
-0.0131972
-0.0109545
-0.00989915
-0.00989171
-0.0104793
-0.0114016
-0.00394515
-0.00834034
-0.00771832
-0.00886146
-0.0104221
-0.0120624
-0.0130975
-0.0138048
-0.0140443
-0.0155263
-0.0164262
-0.0171168
-0.016561
-0.0154905
-0.013958
-0.0129021
-0.0125082
-0.0125188
-0.0127379
-0.0132513
-0.00431528
-0.00797471
-0.00797885
-0.00769127
-0.0086577
-0.0103006
-0.0120453
-0.0124736
-0.0132249
-0.0138006
-0.0142237
-0.0140718
-0.0134821
-0.0126978
-0.012107
-0.0118306
-0.0119495
-0.0124237
-0.0131887
-0.0142082
-0.00219346
-0.0043338
-0.00552601
-0.0068339
-0.0079731
-0.00939361
-0.0110145
-0.0115604
-0.0121166
-0.0120219
-0.0119986
-0.0117022
-0.0115074
-0.0114534
-0.0116505
-0.012127
-0.012862
-0.0138025
-0.0149017
-0.0161001
-0.00617366
-0.00926446
-0.00843325
-0.008385
-0.00898054
-0.00970829
-0.0104966
-0.0105401
-0.0106809
-0.0107528
-0.0109141
-0.0110985
-0.0113434
-0.0116814
-0.0121555
-0.0128129
-0.0136756
-0.0147032
-0.0158625
-0.0171048
-0.0108825
-0.011328
-0.0117063
-0.0106631
-0.00976882
-0.00939429
-0.00944143
-0.00949209
-0.00970972
-0.0100695
-0.0105938
-0.0111986
-0.0118794
-0.0125831
-0.0133173
-0.0140799
-0.0149015
-0.0157492
-0.0166237
-0.0174142
-0.00411788
-0.00856462
-0.00977534
-0.01265
-0.0158053
-0.0163749
-0.015726
-0.0136911
-0.0122941
-0.0116934
-0.0119807
-0.0126512
-0.0135195
-0.014381
-0.0152764
-0.0161584
-0.0170942
-0.0181001
-0.019108
-0.0197954
-0.00327276
-0.00987601
-0.0181031
-0.0267839
-0.0349858
-0.0403124
-0.0413336
-0.0364345
-0.0285349
-0.0201291
-0.0139899
-0.0102081
-0.0085954
-0.00848119
-0.00944577
-0.011283
-0.0139153
-0.017164
-0.0204855
-0.0230122
-0.000147457
-0.00109383
-0.0019066
-0.00368471
-0.00619888
-0.00804421
-0.00879128
-0.00862211
-0.00923907
-0.0111453
-0.0137146
-0.0156734
-0.0164669
-0.0162233
-0.0154201
-0.0144478
-0.0136352
-0.0131673
-0.0130406
-0.0131354
-0.00260718
-0.00400282
-0.00631221
-0.00865884
-0.00953305
-0.0107229
-0.0112358
-0.0120688
-0.0127416
-0.0130697
-0.0131121
-0.0127789
-0.0126325
-0.012496
-0.0127005
-0.013306
-0.0143135
-0.0156338
-0.0171118
-0.0186431
-0.000582678
-0.00119443
-0.00440722
-0.00957428
-0.0118725
-0.012642
-0.0124489
-0.0118053
-0.0113597
-0.0108315
-0.0107147
-0.0107583
-0.0111468
-0.0117869
-0.0126518
-0.0136163
-0.0145862
-0.0154805
-0.0162659
-0.0168992
-0.003272
-0.00485415
-0.00666335
-0.00940797
-0.0108718
-0.0112357
-0.0108227
-0.0103713
-0.0101765
-0.0100682
-0.01034
-0.0107469
-0.0113662
-0.0120688
-0.0128336
-0.0135995
-0.0143432
-0.0150508
-0.0157329
-0.016376
-0.000761466
-0.00180721
-0.00444676
-0.00807028
-0.00971209
-0.0106502
-0.0104516
-0.0102474
-0.0101461
-0.0100876
-0.0103586
-0.0107566
-0.0113292
-0.0119661
-0.0126564
-0.013358
-0.0140874
-0.0148333
-0.0156095
-0.0163612
-0.000292472
-0.00156066
-0.0040802
-0.00706712
-0.00923577
-0.0101067
-0.0106446
-0.0103903
-0.010306
-0.0101914
-0.0103927
-0.0107547
-0.0112736
-0.0118646
-0.0125028
-0.0132038
-0.0139688
-0.0147973
-0.0156657
-0.0164973
-0.00266721
-0.00370592
-0.00480934
-0.00635346
-0.00793079
-0.00881946
-0.00980681
-0.0103578
-0.0104293
-0.0104669
-0.010542
-0.0108691
-0.0113144
-0.0118809
-0.0124343
-0.0129982
-0.0136575
-0.0144239
-0.0152426
-0.0160216
-0.000804877
-0.0030276
-0.00374242
-0.00569778
-0.00732055
-0.00854658
-0.00916492
-0.0107892
-0.0108574
-0.0112355
-0.0107391
-0.0106334
-0.0108325
-0.0111327
-0.011898
-0.0122811
-0.0128036
-0.0134932
-0.0142143
-0.0148935
-0.00587302
-0.00456382
-0.00535582
-0.00726301
-0.00850854
-0.00886265
-0.00915274
-0.01086
-0.0124925
-0.0125883
-0.0115552
-0.0100841
-0.00936837
-0.00898338
-0.00929866
-0.0112311
-0.0118902
-0.0125823
-0.0132532
-0.013846
-0.000953817
-0.00346505
-0.00681617
-0.00864958
-0.00942507
-0.00979672
-0.010024
-0.011225
-0.0134249
-0.0141402
-0.0122255
-0.00957018
-0.00801942
-0.00739343
-0.00818264
-0.0108487
-0.0116286
-0.0123679
-0.0130531
-0.0136534
-0.00661789
-0.00639831
-0.00878379
-0.00978407
-0.0097209
-0.0100337
-0.0108556
-0.0121859
-0.0134189
-0.0135226
-0.0115772
-0.00898665
-0.00778496
-0.00756262
-0.00809997
-0.0109705
-0.0118668
-0.0127634
-0.0136116
-0.0143713
-0.00198599
-0.00763209
-0.00979678
-0.0109832
-0.00999389
-0.0102894
-0.00998137
-0.0111097
-0.0112922
-0.0108506
-0.00934248
-0.00748446
-0.0068081
-0.00671841
-0.00777805
-0.0116128
-0.0128293
-0.0139969
-0.0150789
-0.0160339
-0.0010097
-0.00352608
-0.00526489
-0.00782129
-0.00886035
-0.00895547
-0.00917121
-0.00930273
-0.00915432
-0.0085239
-0.00804556
-0.00752809
-0.00752742
-0.00784915
-0.0112461
-0.0125542
-0.0139617
-0.015413
-0.0168212
-0.0180511
-0.00590591
-0.00564829
-0.0059521
-0.00754404
-0.00803215
-0.00814858
-0.00785298
-0.00771187
-0.00749257
-0.00800348
-0.00824368
-0.00884865
-0.00950238
-0.0104008
-0.0115181
-0.0128539
-0.0143595
-0.0159802
-0.0176455
-0.0191495
-0.00161654
-0.00454889
-0.005489
-0.00653987
-0.00738833
-0.00762838
-0.00764531
-0.00738917
-0.00741748
-0.00764235
-0.00802864
-0.00862427
-0.00941524
-0.0104367
-0.0116852
-0.0131287
-0.0147256
-0.0164198
-0.0181331
-0.019672
-0.000979021
-0.00349051
-0.00421824
-0.00587822
-0.00704132
-0.00741692
-0.00748837
-0.00748051
-0.00758651
-0.00782159
-0.00825757
-0.00889651
-0.00974549
-0.0107899
-0.0120184
-0.0134106
-0.0149605
-0.0166216
-0.0183388
-0.0199202
-0.00227439
-0.00856462
-0.00868219
-0.00794503
-0.00766363
-0.00765689
-0.00762789
-0.00771402
-0.00792714
-0.0083005
-0.00882855
-0.00952126
-0.0103661
-0.0113486
-0.0124743
-0.0137357
-0.0151518
-0.0167271
-0.0184212
-0.0201298
-0.0146773
-0.0161523
-0.0155128
-0.0107545
-0.00841281
-0.00770692
-0.00767786
-0.00783772
-0.00814719
-0.00854219
-0.00903575
-0.00962773
-0.0103517
-0.0112027
-0.0121917
-0.0133095
-0.0145632
-0.0159718
-0.0175263
-0.019114
-0.0146279
-0.0129281
-0.00887922
-0.00775154
-0.00911206
-0.00889033
-0.00837575
-0.00788861
-0.00802698
-0.00854578
-0.00921629
-0.00986929
-0.0104825
-0.0110934
-0.0118046
-0.012694
-0.0138322
-0.0152803
-0.0170162
-0.0189679
-0.0011526
-0.00678832
-0.00965235
-0.0129769
-0.0179946
-0.0183582
-0.0161863
-0.0121088
-0.00906859
-0.00742128
-0.0072057
-0.00780079
-0.00881127
-0.00993243
-0.0109866
-0.011894
-0.0127397
-0.0137445
-0.0151464
-0.0168441
-0.0336703
-0.0303402
-0.0272531
-0.0183984
-0.0200107
-0.0166717
-0.0174868
-0.0255817
-0.0254782
-0.0219004
-0.0208199
-0.0241048
-0.0179549
-0.0198585
-0.0275342
-0.0306547
-0.0279641
-0.0163302
-0.0168174
-0.0170272
-0.0165987
-0.0222041
-0.0270576
-0.0245995
-0.0172704
-0.018859
-0.0165348
-0.0166063
-0.0857511
-0.079797
-0.07678
-0.0784601
-0.0849085
-0.0750452
-0.0718004
-0.0904004
-0.0761108
-0.0761701
-0.0878457
-0.0918574
-0.072892
-0.0759599
-0.0964655
-0.0767398
-0.0809756
-0.0937372
-0.102606
-0.0770865
-0.0855474
-0.120207
-0.0834978
-0.0974848
-0.108878
-0.13228
-0.0907463
-0.113323
-0.169018
-0.105407
-0.136367
-0.143816
-0.169283
-0.122205
-0.137652
-0.20457
-0.14553
-0.156706
-0.173515
-0.158488
-0.134965
-0.105593
-0.200925
-0.155583
-0.144198
-0.149349
-0.119062
-0.0952951
-0.077122
-0.175339
-0.139311
-0.124235
-0.112345
-0.0953645
-0.0753113
-0.0797422
-0.0833092
-0.0946387
-0.0893823
-0.0786874
-0.0689035
-0.0788361
-0.0735028
-0.0771109
-0.0870145
-0.0825089
-0.0702794
-0.0755499
-0.0752603
-0.0806109
-0.0803577
-0.0821729
-0.0843035
-0.0766688
-0.0843185
-0.0817043
-0.0884359
-0.09564
-0.0861948
-0.0976346
-0.0891194
-0.110711
-0.0925641
-0.110102
-0.131842
-0.103918
-0.122594
-0.119142
-0.132518
-0.116221
-0.125474
-0.14718
-0.126234
-0.127694
-0.129484
-0.103775
-0.124694
-0.115682
-0.135446
-0.125875
-0.117086
-0.0953951
-0.0821954
-0.112307
-0.105044
-0.118598
-0.113684
-0.103812
-0.0815742
-0.0873151
-0.10358
-0.0986447
-0.102473
-0.11389
-0.110931
-0.0857022
-0.0777269
-0.091415
-0.0877466
-0.0880679
-0.109405
-0.102577
-0.078417
-0.0833763
-0.0907235
-0.0983914
-0.087581
-0.100972
-0.10162
-0.0847311
-0.0916515
-0.100061
-0.106118
-0.100353
-0.103392
-0.1108
-0.0956985
-0.111593
-0.109126
-0.117642
-0.120664
-0.11329
-0.116612
-0.116712
-0.123707
-0.119264
-0.118353
-0.122342
-0.115907
-0.110115
-0.122878
-0.115439
-0.11649
-0.107873
-0.111265
-0.107655
-0.10103
-0.112556
-0.104614
-0.103466
-0.0853601
-0.0995438
-0.099217
-0.0944424
-0.101983
-0.0911942
-0.0784461
-0.0599321
-0.115678
-0.150531
-0.139411
-0.10844
-0.0975318
-0.143804
-0.140705
-0.10691
-0.134098
-0.124184
-0.0994655
-0.105662
-0.137281
-0.12808
-0.106793
-0.122726
-0.120609
-0.106798
-0.11162
-0.126661
-0.124776
-0.113627
-0.120295
-0.118419
-0.113877
-0.119285
-0.124448
-0.122189
-0.115145
-0.117297
-0.112298
-0.119892
-0.117234
-0.12091
-0.115718
-0.107524
-0.110222
-0.10413
-0.115172
-0.105684
-0.113485
-0.103716
-0.0997524
-0.102347
-0.0981606
-0.100634
-0.0807726
-0.0987514
-0.0809864
-0.0937355
-0.0969615
-0.093289
-0.0736842
-0.0563791
-0.0754773
-0.0663123
-0.0464276
-0.0278177
-0.0336688
-0.0302711
-0.0330554
-0.0252127
-0.0281271
-0.0548498
-0.0369823
-0.0518064
-0.0331641
-0.034298
-0.0294544
-0.0324043
-0.0696504
-0.0555252
-0.0646231
-0.0364925
-0.0457704
-0.0332717
-0.0391705
-0.0996519
-0.0704255
-0.0957582
-0.0498667
-0.054612
-0.0424417
-0.0468161
-0.0954852
-0.102021
-0.089917
-0.0527461
-0.0415311
-0.0444844
-0.0329051
-0.0496379
-0.0767062
-0.0460989
-0.0385381
-0.0354947
-0.0305032
-0.029861
-0.0408642
-0.0414668
-0.0393554
-0.0363257
-0.0410294
-0.0309395
-0.0355256
-0.0501268
-0.041264
-0.0517451
-0.0431949
-0.0500341
-0.0372765
-0.0426911
-0.0335858
-0.0301207
-0.0382463
-0.0236713
-0.026718
-0.0256695
-0.0289268
-0.0514298
-0.0412669
-0.0517059
-0.0285238
-0.0323872
-0.0302456
-0.0331376
-0.0639957
-0.0549914
-0.0653657
-0.0332611
-0.038408
-0.0339274
-0.0375183
-0.0940615
-0.0710794
-0.0897571
-0.0412829
-0.0445626
-0.0389666
-0.0380052
-0.0861498
-0.0924911
-0.080855
-0.0420562
-0.0310934
-0.0356761
-0.0278892
-0.0466083
-0.0729209
-0.0548743
-0.0289829
-0.0284836
-0.0263466
-0.0256343
-0.0410624
-0.0521758
-0.0520884
-0.0294616
-0.0336033
-0.0260635
-0.027901
-0.0546175
-0.0535054
-0.0566104
-0.0351669
-0.0399646
-0.0286121
-0.0313974
-0.0395477
-0.0391229
-0.0458955
-0.0284564
-0.0302499
-0.0346344
-0.0375608
-0.0514798
-0.0489307
-0.0597413
-0.0313581
-0.0342632
-0.0390114
-0.0407911
-0.0673674
-0.0643485
-0.0779354
-0.0350054
-0.0377598
-0.0407675
-0.0397885
-0.0895591
-0.0816906
-0.0873172
-0.0385422
-0.0372937
-0.0390044
-0.0354201
-0.0816162
-0.0865514
-0.0779381
-0.0351298
-0.0279855
-0.0340909
-0.0307212
-0.0602654
-0.074078
-0.0611342
-0.0265697
-0.0254578
-0.0297151
-0.026421
-0.0536804
-0.0563811
-0.04269
-0.0256001
-0.0264348
-0.0253826
-0.0241315
-0.0483224
-0.038811
-0.0311704
-0.0268735
-0.0295115
-0.0246843
-0.0297659
-0.0541034
-0.060675
-0.0793537
-0.0479023
-0.0448296
-0.0575421
-0.0597518
-0.0649694
-0.0837599
-0.0871852
-0.0446985
-0.0435154
-0.0587984
-0.0533534
-0.0810499
-0.0869705
-0.0846011
-0.0430274
-0.0410607
-0.0515367
-0.0468236
-0.0869413
-0.0831541
-0.0787009
-0.0401236
-0.0370363
-0.0456169
-0.0432287
-0.079505
-0.0781027
-0.0785788
-0.0360749
-0.0332384
-0.0428203
-0.040746
-0.0629786
-0.0780844
-0.0693243
-0.0320403
-0.0275291
-0.0392841
-0.0328519
-0.041737
-0.0638909
-0.0465599
-0.0261258
-0.0245893
-0.0309665
-0.0298526
-0.0302262
-0.0420825
-0.0373309
-0.0253197
-0.0313713
-0.0316033
-0.0416643
-0.019285
-0.0130258
-0.0164967
-0.0130162
-0.0129852
-0.0120476
-0.0128348
-0.0248678
-0.0185841
-0.0256031
-0.0132588
-0.0163827
-0.0131231
-0.0148556
-0.0353286
-0.0271713
-0.0329154
-0.0181286
-0.0216885
-0.0157777
-0.0186581
-0.0394638
-0.035022
-0.0354912
-0.0225409
-0.023909
-0.0193667
-0.0210445
-0.0315423
-0.0333212
-0.027124
-0.0245013
-0.0269947
-0.0218429
-0.025172
-0.0332864
-0.0267007
-0.0293156
-0.0281403
-0.0317248
-0.0262802
-0.0287587
-0.0413396
-0.030763
-0.0353506
-0.033074
-0.0368008
-0.0293315
-0.0305301
-0.0498237
-0.0369055
-0.041439
-0.0378834
-0.0397094
-0.0307344
-0.0302198
-0.0169581
-0.0164417
-0.0195486
-0.0126937
-0.013091
-0.0144713
-0.0147537
-0.0256382
-0.0208086
-0.0254361
-0.0133667
-0.0148
-0.014758
-0.0150855
-0.0321242
-0.0268193
-0.030333
-0.0155166
-0.0178005
-0.0153229
-0.0160466
-0.0258716
-0.0350038
-0.0327891
-0.0268426
-0.033539
-0.0272204
-0.0256966
-0.0225216
-0.0289802
-0.0298075
-0.0247616
-0.027461
-0.0238434
-0.0233862
-0.027496
-0.0215642
-0.0225949
-0.025171
-0.0274085
-0.0205754
-0.0221997
-0.0328607
-0.0232455
-0.0255718
-0.0278619
-0.0287496
-0.0225924
-0.0241117
-0.0384707
-0.0265408
-0.0305532
-0.0288986
-0.0283777
-0.0247985
-0.0269724
-0.0204662
-0.0222917
-0.0247287
-0.0166781
-0.0160186
-0.0207963
-0.0201431
-0.0257215
-0.025893
-0.0300027
-0.0157983
-0.0155277
-0.0196408
-0.0183535
-0.0301263
-0.0309738
-0.0312643
-0.0155998
-0.0158641
-0.018039
-0.0172483
-0.02269
-0.0298116
-0.029993
-0.0225587
-0.0294352
-0.0234142
-0.0230749
-0.020039
-0.0242675
-0.0255211
-0.022056
-0.0241958
-0.0213281
-0.020591
-0.0220372
-0.0237579
-0.0214765
-0.0193883
-0.0207252
-0.0167859
-0.0182157
-0.0241229
-0.0211315
-0.0227591
-0.0211774
-0.0232895
-0.0190872
-0.023224
-0.0295527
-0.0243578
-0.0320804
-0.0243051
-0.0278425
-0.0251014
-0.0312798
-0.0291224
-0.0302758
-0.0392133
-0.0262321
-0.0240716
-0.0279888
-0.0290716
-0.0321804
-0.0410124
-0.0409108
-0.0229238
-0.0202731
-0.0284362
-0.0254751
-0.0322709
-0.0400241
-0.0366171
-0.0196644
-0.0182869
-0.0244828
-0.021936
-0.0294128
-0.0355679
-0.0337927
-0.0179316
-0.0171231
-0.0212492
-0.0196072
-0.0263457
-0.033552
-0.0318335
-0.0169273
-0.0166856
-0.0192227
-0.018788
-0.0220926
-0.0305035
-0.0260993
-0.0168338
-0.0185147
-0.0191713
-0.0224641
-0.0234812
-0.0255394
-0.0288953
-0.0195953
-0.0245277
-0.0244506
-0.0309582
-0.0340696
-0.0319438
-0.0436281
-0.026649
-0.0329788
-0.0330517
-0.0362532
-0.0105217
-0.00912707