/*--------------------------------*- C++ -*----------------------------------*\
  =========                 |
  \\      /  F ield         | OpenFOAM: The Open Source CFD Toolbox
   \\    /   O peration     | Website:  https://openfoam.org
    \\  /    A nd           | Version:  10
     \\/     M anipulation  |
\*---------------------------------------------------------------------------*/
FoamFile
{
    format      ascii;
    class       volVectorField;
    location    "6.1";
    object      U_0;
}
// * * * * * * * * * * * * * * * * * * * * * * * * * * * * * * * * * * * * * //

dimensions      [0 1 -1 0 0 0 0];

internalField   nonuniform List<vector> 
12920
(
(74.7093 -46.6646 -81.2755)
(54.1225 -127.226 -30.5354)
(189.402 -94.5039 -15.1967)
(172.615 -97.2914 -2.02083)
(225.296 -74.8852 2.12667)
(242.635 -50.8212 0.514949)
(250.438 -2.54567 6.62319)
(209.267 0.713481 8.82928)
(178.294 3.26583 6.77984)
(146.842 2.81741 3.51645)
(136.705 5.31428 0.419831)
(126.032 6.10522 -1.27101)
(124.057 6.4224 -1.7452)
(119.647 7.04244 -1.79218)
(117.963 6.71764 -1.40451)
(114.268 6.9628 -1.3969)
(112.443 5.37171 -0.911895)
(109.47 3.99252 -0.196602)
(107.108 0.731342 0.302759)
(108.386 -2.24126 0.398899)
(64.905 -3.92524 -0.0933661)
(-91.3527 -51.6111 -16.3161)
(94.6295 -58.7082 -7.24838)
(-1.19149 -38.8765 -7.88366)
(75.9949 -30.2904 -2.16116)
(29.3801 -21.6451 -4.4578)
(72.2273 -2.70164 -0.337058)
(65.9334 5.29808 -1.33487)
(84.6772 12.5081 -1.50452)
(85.0847 12.2908 -1.71194)
(92.2992 12.6008 -0.988721)
(92.0871 12.0186 -0.514003)
(93.585 9.71967 0.291139)
(90.1059 7.81367 0.833386)
(87.8315 4.96179 1.30364)
(82.4139 2.63663 1.52412)
(79.6675 1.53343 1.12488)
(76.9005 0.766604 0.759526)
(75.8713 0.906058 -0.0232755)
(77.9617 0.861059 -0.540898)
(68.0192 -175.898 43.8739)
(44.4198 -98.3238 -19.41)
(157.239 -102.776 -11.2668)
(103.093 -71.6398 -3.70222)
(117.546 -51.0864 1.71341)
(67.8414 -34.7822 0.635093)
(78.2128 -18.113 0.712064)
(63.6476 -7.83751 -0.0742214)
(73.3563 0.555602 0.21109)
(69.7214 5.12915 0.0913993)
(74.1081 7.26482 0.317246)
(71.9393 7.77384 0.448092)
(72.6172 7.15598 0.613846)
(69.8091 7.02071 0.597351)
(68.8115 6.37043 0.553426)
(66.0088 5.84777 0.25707)
(65.1151 5.27237 0.0317898)
(64.6408 4.47894 -0.117315)
(64.8263 2.93988 -0.210654)
(68.618 1.53284 -0.0945169)
(-26.8774 -41.8621 -79.2419)
(-142.527 -54.3307 -31.0785)
(79.0637 -37.0797 -17.2447)
(-17.8311 -15.3819 -6.3393)
(66.5201 -0.522997 0.275083)
(10.0326 0.469468 -1.66597)
(54.2742 2.82107 0.748419)
(37.6981 4.80229 -0.601644)
(58.1001 7.38267 0.0545722)
(54.8925 8.4979 -0.398749)
(62.4014 8.98766 -0.0392607)
(60.7966 8.78144 0.0217637)
(62.31 7.74924 0.221377)
(60.0852 6.96982 0.239831)
(60.3675 5.5703 0.215188)
(58.9659 4.20067 0.182817)
(59.1702 2.89552 0.148798)
(59.7451 2.09153 0.0991359)
(60.5156 0.769462 0.0895953)
(64.1862 -0.0234071 0.160956)
(123.771 49.9463 -49.3051)
(4.81703 -88.2647 -43.3634)
(127.871 -80.788 -38.7816)
(52.3363 -47.3397 -12.515)
(98.9195 -46.7948 -2.32942)
(52.8483 -27.3273 -0.697434)
(74.5419 -35.3828 3.17143)
(55.2068 -16.5363 1.94791)
(66.3115 -11.5992 1.43296)
(61.3728 0.134972 0.572896)
(66.8354 3.2918 0.250657)
(63.6402 7.10172 0.160599)
(64.5652 7.245 0.124397)
(61.9845 7.55848 0.0282422)
(62.5338 6.67354 0.0539954)
(61.521 5.66972 -0.0131946)
(61.8133 3.86633 -0.00287262)
(62.893 2.96086 0.0395562)
(63.9283 0.537645 0.099306)
(67.3764 -0.774531 0.149887)
(251.079 -24.5644 -136.964)
(-17.8965 3.13579 -13.8477)
(168.7 65.3481 -24.747)
(137.728 40.1076 -10.8656)
(192.667 19.4554 -3.29435)
(176.663 14.0829 -0.786322)
(167.401 -10.4114 9.24766)
(104.951 -6.52007 6.4816)
(84.8525 -5.02657 4.1274)
(66.7375 2.47317 1.48931)
(66.3871 5.51404 0.854102)
(62.4465 8.22381 0.329658)
(62.8235 8.63578 0.149831)
(61.6577 8.00812 0.0651342)
(62.5884 5.65272 -0.170554)
(63.6066 4.31507 -0.396507)
(66.3179 1.47904 -0.306339)
(69.4612 -0.0543627 -0.102779)
(71.3528 -1.9993 0.169613)
(73.8384 -2.1779 0.250876)
(300.085 19.8548 -131.129)
(91.1016 -39.8787 -12.6488)
(203.074 -70.0194 -5.93123)
(153.481 -65.3194 -3.13096)
(202.861 -55.3803 0.240275)
(185.126 -27.0612 -0.506746)
(185.1 -8.30173 4.44937)
(141.661 20.7091 5.71078)
(114.844 1.23457 4.44203)
(85.0554 6.42872 3.23446)
(77.6923 2.8241 1.50673)
(69.0794 8.14961 0.634488)
(68.7527 7.45903 0.152215)
(67.3221 7.68967 -0.0762124)
(69.0707 6.0523 -0.0363042)
(71.5839 3.82008 -0.256891)
(76.6768 -0.30858 -0.189594)
(80.5205 -1.522 -0.0251104)
(82.8942 -2.62933 0.117559)
(83.7104 -2.46449 0.133195)
(141.388 -44.2019 10.7585)
(21.3906 25.1593 -2.63621)
(146.164 -12.8542 -10.7331)
(93.7014 -18.9819 -10.1417)
(143.012 -20.0491 -4.28888)
(115.988 5.07109 -2.60379)
(126.955 8.38851 -0.655577)
(112.19 22.8932 -0.330984)
(113.158 24.0703 0.105376)
(98.8172 16.9367 1.4114)
(81.3428 13.8735 1.01832)
(68.9518 13.5478 0.13136)
(67.6075 14.0397 -0.351226)
(68.1554 12.1194 -0.423002)
(71.2555 2.08006 0.229208)
(74.5572 -2.41886 0.43702)
(76.8713 -6.54461 -0.0213824)
(79.7869 -6.53767 -0.306821)
(82.2255 -3.89571 -0.235531)
(81.4915 -1.55799 -0.183465)
(247.776 -61.2729 10.7824)
(128.168 26.8484 -8.40478)
(171.247 -0.0405234 -5.0761)
(118.075 -22.28 -8.27393)
(160.165 -36.986 -0.147091)
(130.742 -12.0632 -1.3927)
(152.698 7.16211 0.129021)
(140.116 18.6858 0.458028)
(127.123 11.8112 -0.245865)
(118.142 14.8097 0.547425)
(97.8743 21.9383 0.986455)
(75.0939 18.9744 0.132133)
(69.074 15.9854 -0.373423)
(70.2154 12.6709 -0.437555)
(76.2335 6.09144 -0.317721)
(73.9659 -4.17033 0.173275)
(72.9749 -5.44305 -0.241274)
(72.4397 -4.9905 -0.440097)
(71.6887 -1.18116 -0.441646)
(71.575 1.33321 -0.357078)
(186.608 199.125 -92.4528)
(190.229 103.395 -48.7209)
(231.036 17.7282 -9.45552)
(140.881 -11.7109 1.23407)
(149.503 -17.4439 5.43933)
(97.9669 -22.03 -0.472611)
(109.31 -13.5922 -1.14844)
(141.904 18.1753 -0.0459418)
(137.548 34.9455 -0.270877)
(121.8 30.5986 -0.489324)
(97.5042 29.144 0.712576)
(77.0855 23.9352 0.259945)
(75.8711 15.6234 -0.358139)
(81.352 9.06752 -0.340459)
(85.4623 1.90905 0.0446156)
(78.2775 -0.854446 -0.162827)
(76.1781 -3.12347 -0.264935)
(74.735 -2.50018 -0.335428)
(72.0828 1.2831 -0.163164)
(71.9812 2.52821 -0.135814)
(158.308 263.386 5.36315)
(89.2215 121.965 6.9885)
(152.398 83.93 -5.44253)
(74.9815 17.3594 -7.35207)
(110.316 9.92168 -3.05353)
(70.5784 4.01351 -2.23273)
(93.2686 5.44025 -1.85546)
(99.3988 8.8174 -0.751178)
(99.5768 34.6357 -0.559539)
(101.184 37.7273 -0.200002)
(90.9779 39.1592 0.553234)
(87.2797 24.1633 0.150663)
(88.7902 14.3621 0.114449)
(89.2079 7.97287 0.172261)
(84.2006 4.91408 -0.193733)
(80.5919 1.13474 -0.0794307)
(78.381 -0.665435 0.0401138)
(75.6908 0.905382 -0.168284)
(72.875 4.41008 -0.0673335)
(73.2862 4.22047 -0.124515)
(253.829 -96.621 -104.392)
(-73.0043 6.04503 38.8255)
(158.01 34.0443 -0.865512)
(5.83852 13.9885 4.59761)
(94.5223 14.8512 5.28632)
(31.6228 4.89418 -0.778497)
(58.2383 11.4569 -0.455872)
(77.1373 28.3414 -0.701719)
(78.553 39.5535 -0.448041)
(81.3335 40.2707 0.0551763)
(85.5311 33.7273 0.4314)
(88.3139 21.1191 0.167999)
(87.1977 14.5853 0.0116195)
(85.3545 11.0304 -0.195242)
(84.1279 7.28574 -0.202973)
(76.8734 2.4318 0.621395)
(71.9712 2.29386 0.519111)
(68.6717 4.16521 -0.0589245)
(68.0318 5.84754 -0.0353046)
(70.1985 4.74128 0.146694)
(117.318 16.1103 -83.2982)
(2.74431 62.221 -3.63586)
(130.834 5.66417 8.75394)
(48.5129 15.5499 -0.717798)
(108.862 3.54895 0.489275)
(71.9286 -10.6778 -0.126234)
(84.7317 3.01168 -0.195504)
(77.9157 15.4093 1.69117)
(84.4265 27.0857 1.02836)
(86.6273 26.9572 0.752448)
(93.9674 22.7451 0.262623)
(93.0865 19.1371 0.0971021)
(89.3279 16.294 -0.0185908)
(85.3862 12.9802 -0.300874)
(75.2237 8.51345 0.755759)
(70.2575 5.51529 1.08994)
(64.0405 5.65101 0.538016)
(62.6216 5.01737 0.133603)
(62.3184 4.77883 0.118929)
(65.6478 2.70317 0.297132)
(8.68959 264.473 32.6754)
(-95.8884 69.5642 -52.6778)
(126.37 8.59816 -27.4906)
(28.3658 12.7471 -4.81477)
(96.4335 6.83874 -1.16617)
(58.5861 7.4802 0.558564)
(72.4333 25.8526 0.811177)
(56.1203 13.0347 1.252)
(65.029 21.2233 0.569472)
(60.6935 16.1664 0.0872057)
(67.4208 19.4479 0.0418298)
(66.7154 16.42 0.115759)
(69.6053 15.3457 0.383752)
(68.2025 11.3431 0.431452)
(67.7512 9.50574 0.648568)
(64.0923 7.37745 0.412736)
(62.7772 6.74539 0.31718)
(62.6652 5.3256 0.266759)
(63.1974 3.89254 0.206167)
(67.5508 1.11351 0.344977)
(48.0415 129.531 102.111)
(-26.6542 37.6351 -52.8975)
(120.971 41.1767 -29.1256)
(61.1225 26.6502 -11.7298)
(110.587 13.0054 -6.36556)
(78.1744 5.12716 -2.25493)
(86.6992 8.01957 0.901469)
(66.3412 11.2297 0.881244)
(66.278 14.1448 0.57776)
(58.4761 14.347 0.118496)
(60.3899 13.956 0.147873)
(59.3948 13.462 0.254055)
(61.0909 12.2913 0.281249)
(60.6924 10.9631 0.315412)
(61.381 9.37824 0.208697)
(61.0812 7.41962 0.175663)
(62.1984 5.3854 -0.00635956)
(64.8019 3.18509 -0.131825)
(66.4218 0.662837 -0.20251)
(71.6766 -2.1094 -0.0144362)
(-85.1842 -45.3896 -80.558)
(-155.508 -24.5887 -15.4883)
(73.9302 18.3436 -8.41653)
(8.74686 30.0752 -2.6934)
(86.4729 42.1784 -2.54013)
(63.1295 34.916 -1.63756)
(77.9614 37.1933 -0.830594)
(63.0661 26.6315 -0.761805)
(68.0253 25.439 -0.0430416)
(60.4905 18.6071 -0.0732586)
(63.5696 17.6407 0.09021)
(60.4092 13.9402 0.0559517)
(62.5069 12.5285 0.0488698)
(61.5679 9.56522 0.00982901)
(63.5933 7.96604 -0.0284959)
(63.4847 5.38763 -0.167761)
(65.474 3.27238 -0.272347)
(67.4496 2.05718 -0.382973)
(69.0718 -0.013614 -0.6783)
(74.6883 -2.63825 -0.455836)
(78.0482 -164.627 59.8827)
(-78.9616 -29.3509 0.228127)
(73.8432 -24.1366 6.09162)
(-12.0551 -3.88167 -2.11792)
(72.4941 9.5145 -1.45337)
(38.5089 15.7428 -1.55099)
(66.5135 19.3617 -0.135247)
(52.0787 19.5022 -0.195163)
(62.3216 18.1228 -0.00982651)
(56.8498 16.5106 -0.262282)
(61.8995 14.3095 -0.453913)
(61.2075 12.9319 -0.442814)
(64.7246 11.1952 -0.524535)
(65.7163 9.29033 -0.452185)
(69.2889 8.02126 -0.231283)
(70.9908 6.19505 -0.140632)
(74.245 3.31773 -0.140232)
(76.6351 2.13671 -0.152281)
(78.7187 -1.03065 -0.509045)
(82.97 -3.88607 -0.575376)
(284.448 231.206 -42.61)
(134.394 40.9861 -24.8471)
(150.441 -8.32183 21.2891)
(63.8835 15.0145 7.67983)
(97.6686 19.824 6.5896)
(65.5207 26.5431 1.44492)
(78.6125 27.9969 0.961209)
(68.6897 25.2745 0.0153609)
(75.5846 22.7578 -0.376794)
(72.6354 19.1813 -0.789792)
(78.0966 17.5345 -1.08767)
(79.2263 13.7911 -1.38628)
(85.7577 12.1185 -1.1955)
(89.0765 7.92581 -1.25069)
(96.9496 4.51237 -1.19285)
(101.03 1.39992 -0.688834)
(104.551 -0.776941 -0.399512)
(104.923 -0.920474 -0.211349)
(105.078 -1.47987 0.0114086)
(101.936 -2.08165 -0.299356)
(271.661 315.105 1.83922)
(155.191 63.2898 -13.0706)
(149.741 -54.1012 14.9367)
(43.1261 -13.4874 10.3923)
(75.8932 4.95839 5.50093)
(43.9469 17.3208 0.846388)
(68.0707 20.2728 0.218097)
(61.7103 21.0886 -0.359618)
(76.3758 19.2466 -0.39546)
(79.2501 17.2472 -0.441867)
(90.7116 14.8568 -0.0161434)
(95.0179 11.7293 -0.0391342)
(103.828 7.74329 0.366049)
(106.569 4.48979 0.791713)
(109.56 2.41279 0.977694)
(109.758 1.85694 1.07985)
(109.543 1.8898 1.16881)
(108.136 3.12773 1.37022)
(107.643 4.08842 1.18582)
(106.147 3.51563 0.268155)
(193.13 -45.472 72.6325)
(96.5937 45.5793 14.6599)
(147.471 40.7926 8.61924)
(113.056 26.987 0.530399)
(130.26 14.4411 2.72793)
(109.987 19.8897 4.30036)
(118.398 19.2092 5.1335)
(114.179 19.1842 4.49591)
(121.759 14.8176 3.93723)
(121.547 9.44019 2.70315)
(127.01 6.08846 2.27955)
(127.868 2.89829 1.05444)
(132.508 0.975867 0.272383)
(133.773 -0.623248 -0.304597)
(136.015 -2.32765 -0.705326)
(135.718 -3.71736 -0.798188)
(135.635 -4.51257 -0.753156)
(134.397 -5.05837 -0.339353)
(132.832 -3.8361 0.617696)
(129.935 0.672324 1.17076)
(120.377 -40.4822 147.656)
(-39.4666 -46.4882 30.2443)
(136.251 -18.665 35.8835)
(125.687 -31.2938 27.0476)
(185.693 -5.80636 19.1675)
(181.147 -6.27352 11.2083)
(187.546 9.13578 13.8153)
(169.069 8.04109 15.5193)
(160.534 10.9198 12.6298)
(140.83 8.36461 6.44708)
(135.835 7.0923 1.12214)
(125.226 5.51323 -1.35953)
(122.489 3.65907 -1.94473)
(116.271 2.81323 -1.91874)
(113.931 1.82526 -0.997875)
(108.859 0.960049 -0.453348)
(106.066 0.24474 0.182379)
(103.834 -0.261134 0.535694)
(103.211 -0.660642 0.564314)
(105.638 -0.790706 0.678587)
(113.388 6.15669 63.6936)
(-148.872 -53.3185 -33.1127)
(63.371 -59.1421 5.0755)
(-49.884 -33.1028 -12.5401)
(60.9271 -23.5215 -3.77244)
(17.2913 -16.2186 -9.22154)
(66.2101 -0.078321 -1.96309)
(58.9381 4.91472 -3.3633)
(77.2056 10.4698 -2.72475)
(75.5354 9.28572 -3.22581)
(81.1672 8.97086 -1.73705)
(79.5036 7.71102 -0.919568)
(80.4637 5.58957 0.622977)
(77.3594 4.13488 1.44276)
(76.2651 2.82291 2.10878)
(73.354 2.08913 2.03009)
(72.0164 1.77298 1.23815)
(70.5592 1.51162 0.665578)
(70.1329 1.58754 -0.267068)
(72.0333 1.19685 -0.804215)
(139.359 -129.894 -104.894)
(-17.9104 -60.7262 -40.2725)
(112.94 -68.3313 -13.2739)
(48.1815 -41.9527 -2.10973)
(86.087 -31.7785 4.37514)
(44.9505 -20.462 0.212417)
(64.6737 -7.79877 1.2169)
(51.5925 -1.62346 -0.552549)
(63.0364 3.94187 0.323705)
(59.0091 5.92011 0.0264869)
(63.8648 6.72158 0.60513)
(61.4761 6.56155 0.848746)
(62.6072 5.94191 1.08944)
(60.0775 5.74002 0.94077)
(59.875 5.18026 0.779637)
(58.2116 4.7141 0.341656)
(57.7689 4.00498 0.0277645)
(57.5572 3.11156 -0.202176)
(57.8659 1.88436 -0.292361)
(61.1688 0.800166 -0.0621197)
(91.2485 -48.8141 7.30652)
(-107.655 -42.7805 -31.1233)
(68.3589 -49.2246 -25.2547)
(-51.4108 -22.529 -5.38787)
(53.8739 -7.58278 -1.33385)
(-8.81801 -4.15855 -2.51914)
(44.2477 -0.47159 0.787358)
(25.2818 2.16245 -0.982071)
(47.6113 4.44601 0.459419)
(43.2288 5.64325 -0.580045)
(51.4063 6.28425 0.123886)
(49.6247 6.42275 0.176029)
(52.0304 5.98407 0.447598)
(50.9439 5.45818 0.377083)
(52.0877 4.63831 0.349469)
(51.7234 3.64259 0.262759)
(52.445 2.54736 0.22166)
(53.1385 1.86479 0.119002)
(53.9463 0.709243 0.120043)
(57.3719 0.0245181 0.264807)
(387.461 89.9162 66.1345)
(265.116 -27.8856 0.196227)
(184.599 -69.6203 -15.944)
(48.4122 -44.4882 -7.17737)
(83.7708 -44.8323 -1.40722)
(32.4216 -22.826 -1.06339)
(59.8468 -30.2688 4.77329)
(43.1053 -13.0314 2.96076)
(56.4501 -10.3659 2.65802)
(50.8011 -0.478068 1.28332)
(55.9641 1.40059 0.892914)
(52.6326 5.02317 0.365934)
(54.1829 4.96613 0.27786)
(52.1445 5.51761 0.0554199)
(53.2823 4.67412 0.13943)
(52.8203 3.98579 -0.0255755)
(53.3664 2.73148 0.0376144)
(54.3186 2.0032 0.0711453)
(55.1881 0.219071 0.158152)
(58.289 -0.627255 0.268603)
(109.409 -99.8085 -218.543)
(49.4921 13.2035 1.92016)
(149.066 67.5686 -16.9827)
(89.8733 31.5255 -4.0225)
(130.936 12.2951 3.82634)
(88.6914 4.73319 3.78103)
(98.7344 -6.94701 13.7806)
(67.4141 -2.92062 9.17039)
(65.1079 -2.86403 6.96378)
(54.2939 2.49862 2.77875)
(55.0264 4.33272 1.64589)
(51.8827 6.32479 0.594247)
(52.7945 6.3113 0.222009)
(52.1636 5.60909 0.0742825)
(53.697 3.81243 -0.153527)
(54.6715 3.03351 -0.39933)
(56.3697 1.05924 -0.188579)
(58.0296 0.323242 0.0245593)
(59.2434 -1.0211 0.293841)
(61.8141 -1.24411 0.377493)
(360.532 -172.764 125.613)
(81.3802 -78.0908 53.539)
(170.758 -61.5903 13.1143)
(100.116 -47.6124 6.58495)
(151.47 -29.2679 10.0333)
(112.454 -4.42679 3.05238)
(115.471 -3.31428 8.42487)
(90.0565 12.5764 8.50846)
(80.0255 0.825293 7.46103)
(64.504 5.68977 5.06341)
(61.7973 2.8645 2.55053)
(56.5784 6.2103 1.12649)
(57.5374 4.55634 0.33031)
(56.8762 4.62206 -0.0387627)
(59.3186 2.50976 0.129074)
(60.9401 1.14624 -0.198698)
(63.6287 -0.921746 -0.204496)
(65.0059 -0.925114 0.141602)
(66.0138 -1.42526 0.281668)
(66.8224 -1.30434 0.256201)
(118.627 -7.97377 -150.68)
(14.5328 4.58912 -26.9214)
(133.603 -12.4066 -26.849)
(63.5415 -15.7905 -12.7166)
(115.831 -6.15586 -3.39916)
(80.7397 19.4615 -1.31551)
(98.7408 15.1122 0.652684)
(84.6877 19.9366 4.26656)
(83.7143 20.7821 4.11682)
(70.8609 15.6321 5.9467)
(63.8134 13.7225 3.94612)
(58.1207 11.6107 1.24585)
(58.9922 10.8536 0.172912)
(60.1803 8.17016 -0.157253)
(61.9312 -0.453635 0.156688)
(64.9497 -2.30986 0.365544)
(66.0781 -3.18102 -0.0886799)
(66.6022 -2.35935 -0.268068)
(66.5049 -0.889637 -0.0934977)
(66.0043 -0.07576 -0.067994)
(154.056 35.0449 111.951)
(24.6656 -19.4776 13.8005)
(140.521 -39.3212 6.38555)
(54.9742 -41.0594 -6.29169)
(109.186 -29.2943 4.00009)
(89.457 -8.20702 -0.800848)
(121.837 16.1025 3.31679)
(109.803 22.143 3.27071)
(95.605 16.6075 3.47518)
(84.0653 18.5578 3.78202)
(71.1293 19.2534 4.53328)
(63.9093 14.6696 1.41342)
(62.913 10.5859 -0.502129)
(64.9534 6.74705 -0.400608)
(67.1909 2.5123 -0.21412)
(63.7548 -3.39229 0.150711)
(63.7121 -3.05191 -0.278445)
(62.6134 -1.32996 -0.547208)
(61.2387 0.924579 -0.348481)
(61.8323 0.963817 -0.344804)
(169.274 139.768 -78.8128)
(100.63 -8.89059 -11.7911)
(153.716 -40.4471 -1.39035)
(68.3826 -31.9521 1.90891)
(106.543 -16.103 5.89357)
(84.5712 -12.2155 -1.75862)
(99.0673 1.46767 -5.13989)
(118.145 26.1287 -4.03987)
(112.914 32.2867 4.28061)
(88.4205 26.2191 3.31194)
(74.3157 23.3307 3.9241)
(71.0968 15.2229 0.238318)
(72.1147 7.66687 -1.51697)
(74.1322 2.19332 -1.26084)
(73.0666 -0.765231 0.0381564)
(67.484 -2.24433 -0.221643)
(65.7933 -2.25537 -0.087956)
(63.2574 0.100686 -0.272027)
(61.7332 1.62141 -0.104845)
(62.7089 1.11903 -0.140905)
(237.775 30.2886 -39.1506)
(179.323 -11.5839 25.1049)
(198.46 9.62831 31.338)
(78.0051 -10.7552 6.09879)
(95.721 -0.127781 3.08262)
(59.8505 -0.562909 -5.89611)
(73.5558 8.13044 -6.35974)
(80.2146 16.8445 -3.69943)
(84.6971 32.8366 0.617768)
(81.7635 31.6018 1.77755)
(78.5846 26.0039 2.78223)
(80.0461 14.8438 0.632754)
(81.2763 7.84535 -0.0334555)
(80.3793 3.65051 -0.200087)
(75.1976 2.70794 -0.490777)
(68.5535 -0.932126 0.030073)
(66.22 0.0298292 -0.0638505)
(63.7918 2.35216 -0.16861)
(62.4631 3.23587 -0.0182172)
(63.2239 1.8118 -0.0700029)
(166.826 -235.612 -33.4558)
(-43.9135 -10.0468 14.4417)
(142.352 29.6778 -4.24915)
(-8.16107 16.8109 1.21141)
(85.0014 15.1949 3.31004)
(38.2428 1.28767 -1.9858)
(57.3844 0.544537 -5.45804)
(68.2753 18.1237 -1.93552)
(71.8232 28.8581 0.684966)
(75.1225 28.7875 1.6628)
(78.7257 22.3066 1.42656)
(79.4146 14.3109 0.611143)
(77.9666 9.94868 -0.278049)
(76.006 7.08407 -0.908792)
(72.4433 3.74599 -0.407028)
(63.2703 1.24244 0.908315)
(60.9356 2.44869 0.459255)
(59.4145 3.4154 0.00597942)
(58.9519 3.7102 0.082676)
(60.8894 1.96384 0.341571)
(144.702 87.1448 -205.639)
(-32.3742 76.6557 -25.0435)
(126.251 12.6382 6.00024)
(25.7359 18.9394 -2.80387)
(94.2071 0.621285 -0.493568)
(52.677 -15.6154 -0.542379)
(68.3527 -1.3069 1.12661)
(63.4481 12.3343 5.03747)
(72.0847 19.4486 3.42508)
(73.3373 21.0006 1.77551)
(77.9517 18.4271 0.663108)
(75.2448 15.0779 0.375965)
(73.3445 11.1416 -0.0305715)
(69.4978 7.83367 -0.28881)
(59.43 5.35108 1.12578)
(58.092 4.3147 1.1959)
(55.4292 4.53948 0.691405)
(55.1866 3.8817 0.231562)
(55.1911 3.17779 0.221994)
(58.0783 1.01298 0.51979)
(195.936 176.487 -4.7994)
(38.4109 61.0151 -1.30785)
(138.281 8.28023 -16.5791)
(29.5794 12.804 -4.77873)
(87.32 2.93152 -3.91864)
(45.3799 4.29192 -0.11894)
(60.5724 24.4383 0.607334)
(42.9238 9.07809 2.00046)
(52.5158 18.6014 0.73748)
(47.3307 12.7996 0.461329)
(54.1392 16.0849 0.324884)
(52.6881 12.053 0.448971)
(55.662 11.2328 0.758842)
(54.3533 7.38689 0.765777)
(55.0888 6.80522 0.785632)
(53.3956 5.25572 0.49038)
(53.487 4.93682 0.435802)
(54.0846 3.73899 0.360407)
(55.0001 2.44114 0.26452)
(58.7256 0.236437 0.502537)
(343.949 -43.169 229.122)
(185.498 -77.4888 48.5704)
(216.692 6.59221 11.6292)
(93.7835 18.0482 -4.3922)
(104.99 10.429 -7.70351)
(53.2244 5.322 -3.51033)
(65.787 10.3689 1.19)
(47.8014 11.8074 0.708501)
(52.2642 12.8907 0.689341)
(46.309 11.9039 0.194422)
(49.4544 11.2766 0.362981)
(48.788 10.3264 0.467528)
(50.973 9.22831 0.478422)
(50.9414 8.04349 0.442123)
(51.9277 6.76665 0.316711)
(52.2269 5.20485 0.231815)
(53.4855 3.8668 -0.014858)
(55.3587 2.45027 -0.129999)
(56.6502 0.484308 -0.212856)
(60.7054 -1.49501 0.103567)
(28.742 -115.573 192.774)
(-92.2644 -21.3783 -67.1977)
(81.6509 31.978 -13.8053)
(12.8261 34.1882 -4.62828)
(76.3262 41.1277 -4.21257)
(43.1193 29.6013 -2.99982)
(60.5393 31.5429 -0.986101)
(46.4881 20.1807 -0.975874)
(55.2681 20.1815 0.135202)
(48.6867 13.6797 -0.127424)
(53.4446 13.406 0.15772)
(50.7251 10.049 -0.0214458)
(53.4803 9.10412 0.0318249)
(52.8075 6.61428 -0.0826241)
(54.855 5.37845 -0.111)
(54.8949 3.46855 -0.320491)
(56.4805 2.06409 -0.406793)
(57.7824 0.836873 -0.590299)
(59.0806 -1.27453 -0.867144)
(62.9624 -2.76144 -0.465602)
(15.574 3.13558 -64.2506)
(-170.248 3.88001 -44.2586)
(58.6904 6.73276 -10.224)
(-28.3934 5.72385 -5.242)
(61.8441 14.5009 -3.10732)
(21.421 12.6472 -2.27149)
(53.3277 13.8965 -0.0508488)
(38.9263 13.0831 -0.586556)
(52.0949 11.9437 -0.149241)
(47.6964 11.0818 -0.691297)
(54.0639 9.54443 -0.746436)
(53.8317 8.80624 -0.756755)
(57.558 7.355 -0.795221)
(58.3816 6.20497 -0.636585)
(61.2629 5.07208 -0.313193)
(62.3604 3.3903 -0.286229)
(64.4296 1.35202 -0.332011)
(65.6484 0.164805 -0.339187)
(66.8335 -2.86583 -0.786537)
(69.0499 -4.22964 -0.763802)
(37.5344 79.416 41.3337)
(-161.351 -9.38814 5.42113)
(76.8216 -19.4656 28.6843)
(-10.9763 10.0236 3.09504)
(68.3899 13.6131 5.97849)
(42.7688 17.6646 0.209639)
(65.1078 18.0089 0.876002)
(57.9999 15.1241 -0.55018)
(67.4257 13.1749 -0.702367)
(65.3495 10.2857 -1.32038)
(71.1429 8.4833 -1.5009)
(71.451 6.49462 -1.78864)
(75.5404 5.30916 -1.35491)
(76.7442 3.07621 -1.55091)
(80.0204 1.75977 -1.30818)
(80.7864 0.553093 -0.761565)
(82.0684 -0.729126 -0.548625)
(81.8456 -0.977117 -0.374679)
(82.0462 -2.36337 -0.230489)
(81.1162 -3.2778 -0.746483)
(484.23 140.111 38.269)
(133.219 -31.7337 35.8457)
(112.404 -57.0436 22.4008)
(12.4656 -4.91994 5.37136)
(64.7567 0.854769 1.81827)
(33.8612 7.77374 -2.057)
(61.0817 8.30223 -2.16517)
(55.4224 8.96961 -2.9847)
(70.9405 7.20144 -2.4751)
(73.1664 6.63383 -2.13255)
(82.6538 4.63725 -1.08081)
(85.5203 3.61158 -0.981303)
(90.5795 2.11205 -0.165084)
(91.7028 1.23825 0.29965)
(93.4097 0.684624 0.58453)
(93.3032 0.716252 0.762459)
(93.327 0.781532 0.974124)
(92.7674 1.24822 1.16902)
(93.1443 0.813079 1.14396)
(93.0082 -0.484419 -0.109896)
(244.904 215.316 -12.3744)
(45.8606 136.284 -3.05433)
(136.433 93.4731 6.09061)
(104.015 57.781 2.84727)
(125.838 26.5368 11.4776)
(106.45 21.9844 11.8071)
(116.395 15.5362 11.6259)
(112.675 12.8062 9.28471)
(119.405 7.23971 7.65632)
(118.263 3.91641 5.30965)
(122.009 1.88273 3.95954)
(122.325 1.60641 2.21615)
(124.874 1.88065 0.999439)
(125.335 2.09709 0.290489)
(126.229 2.0861 0.00558142)
(125.741 2.01821 0.0220294)
(125.729 1.63265 0.274744)
(125.15 1.57528 0.824639)
(125.185 1.60211 1.87652)
(126.016 1.60338 2.27925)
(193.468 35.3015 152.882)
(2.52211 59.0372 -14.9849)
(143.552 69.7577 -24.7694)
(103.797 31.7934 -4.54858)
(150.189 36.8791 0.547373)
(135.268 16.9164 3.04246)
(144.07 19.7955 10.6355)
(134.73 16.0726 11.9171)
(136.713 16.5684 10.3623)
(127.259 13.163 5.53019)
(123.604 9.01906 0.683933)
(113.353 5.62587 -1.58907)
(110.653 2.85075 -1.64111)
(103.789 1.4174 -1.33786)
(101.655 0.254728 -0.142441)
(98.1511 -0.26349 0.343771)
(96.9725 -0.372021 0.401617)
(96.22 -0.248568 0.559319)
(96.1621 0.190814 0.265468)
(97.9387 0.796357 0.33269)
(379.439 365.338 -39.9928)
(-239.189 15.141 10.1467)
(72.1594 -48.9491 -4.35713)
(-68.2255 -22.5884 -7.40322)
(60.0311 -13.3766 -5.77628)
(11.4464 -10.3787 -9.34617)
(60.446 2.24494 -3.66055)
(50.7171 5.18564 -5.05683)
(68.4968 9.1877 -2.94394)
(64.9717 7.31984 -3.24782)
(69.8898 6.75694 -1.55559)
(66.8327 4.78786 -0.871663)
(67.4699 3.35888 0.66652)
(65.0431 2.43132 1.35431)
(64.9668 2.09906 1.77243)
(63.9686 2.04715 1.55493)
(63.556 2.0073 0.843005)
(62.9869 1.8681 0.295445)
(62.9619 1.92629 -0.594104)
(64.7784 1.35674 -0.939136)
(136.1 -84.6114 -102.724)
(-28.9692 -33.3357 -36.9135)
(89.9816 -59.1568 -29.0337)
(16.4649 -29.1413 -7.20653)
(69.9136 -21.7189 0.82468)
(29.8368 -11.4763 -0.840161)
(55.1679 -2.20939 0.965321)
(41.1609 1.54865 -0.570181)
(54.044 5.14507 0.53281)
(48.9764 5.83301 0.169714)
(54.3468 5.87507 0.795182)
(51.5866 5.50264 0.924169)
(53.3138 4.982 1.08751)
(51.2145 4.75802 0.849836)
(51.7 4.30887 0.644853)
(50.6982 3.92912 0.235388)
(50.6434 3.25759 0.00939436)
(50.5507 2.46523 -0.181754)
(50.9255 1.52738 -0.27418)
(53.8929 0.630119 0.0487718)
(46.4945 -94.8592 -200.314)
(-94.3972 -64.3334 -37.9707)
(54.3133 -44.8091 -26.9321)
(-61.2027 -20.9311 -3.21269)
(45.6572 -8.30797 -3.14869)
(-18.8468 -5.08791 -0.871236)
(36.8906 -1.50048 0.602613)
(15.881 0.640369 -0.757191)
(39.5972 2.45972 0.953382)
(34.0397 3.71211 -0.217432)
(43.09 4.4332 0.45002)
(41.1087 4.77774 0.27721)
(44.1982 4.61761 0.492982)
(43.46 4.36489 0.360304)
(45.0133 3.74377 0.337977)
(45.0207 3.11504 0.235698)
(45.8664 2.20747 0.206544)
(46.5158 1.63096 0.12061)
(47.3152 0.655072 0.111038)
(50.4856 0.0757191 0.292061)
(316.606 -25.7924 -31.0193)
(155.76 -67.8975 -17.338)
(135.942 -77.8839 2.26958)
(22.1336 -45.3579 -2.88172)
(68.8469 -42.2493 0.233378)
(15.1656 -20.3574 -0.158321)
(49.0203 -26.3817 4.40441)
(31.874 -10.4921 2.66841)
(47.6035 -9.73961 2.7449)
(41.5027 -0.845388 1.4402)
(47.4727 0.170801 1.23534)
(44.0741 3.66778 0.368276)
(46.3331 3.44678 0.261737)
(44.4957 4.26402 0.0569202)
(45.8828 3.49402 0.163877)
(45.5302 3.13691 -0.037429)
(46.0438 2.18366 0.0758754)
(46.8084 1.55887 0.107129)
(47.5623 0.162372 0.14977)
(50.4667 -0.44267 0.304409)
(76.7284 -49.8367 -156.749)
(22.0088 6.89019 -18.0696)
(108.511 41.3708 -20.9769)
(31.1264 4.60641 -9.17635)
(85.0107 -0.479985 3.21601)
(29.8595 0.137931 1.11263)
(58.5059 -8.4381 11.6157)
(38.9914 -1.40581 7.34972)
(48.7185 -2.48888 6.08686)
(42.211 2.23532 2.6235)
(45.4999 3.16824 1.63564)
(43.2122 4.88616 0.630096)
(44.8071 4.57373 0.395158)
(44.5592 4.13625 0.17771)
(46.1272 2.7949 0.054752)
(46.8009 2.37823 -0.19716)
(47.8396 1.01489 -0.0944539)
(48.8728 0.549928 0.0559292)
(49.7183 -0.556717 0.250845)
(52.293 -0.753383 0.379028)
(75.545 -107.49 185.399)
(-13.601 -74.1397 36.3538)
(133.425 -54.0437 23.4759)
(42.3344 -35.2844 5.61237)
(109.206 -17.5032 10.3523)
(58.453 0.982845 1.08809)
(72.3392 -8.56391 8.16809)
(53.0271 8.12267 7.22922)
(55.0697 -1.63322 6.65311)
(47.6962 4.66094 4.43976)
(49.7443 1.445 2.24186)
(46.7512 4.60658 0.978367)
(48.8393 2.60831 0.21622)
(48.3527 3.14683 -0.0553331)
(50.737 1.3251 0.150037)
(51.475 0.728235 -0.174723)
(52.7257 -0.385816 -0.14333)
(53.1327 -0.20338 0.139002)
(53.5988 -0.729011 0.253096)
(54.828 -0.710743 0.274407)
(147.61 -61.4991 -89.6077)
(59.1723 -27.4389 -20.9816)
(126.465 -18.6681 -21.6619)
(46.1852 -13.6314 -10.4979)
(98.3272 -0.846089 -2.26823)
(52.3648 24.2962 -1.36011)
(69.1787 14.5938 1.95749)
(53.0593 16.762 4.81554)
(55.8238 16.9245 5.30413)
(49.5451 12.3422 5.92762)
(50.664 11.5842 3.66658)
(49.0793 9.24527 1.21067)
(51.2347 8.37251 0.206759)
(52.3503 5.96285 0.200747)
(52.7943 -0.467672 0.643623)
(54.8225 -0.832758 0.512913)
(54.9949 -1.18811 0.0793087)
(54.822 -0.249036 -0.120758)
(54.2556 0.121035 0.0409918)
(54.7255 0.164805 0.0848909)
(75.8302 -15.4375 111.746)
(-39.4397 -64.7814 5.12919)
(116.297 -47.0871 -4.59272)
(19.4285 -40.2166 -5.17108)
(83.8544 -18.4137 2.21146)
(56.4707 7.33669 -2.15332)
(79.6472 25.1081 3.64392)
(67.7576 19.6242 2.58037)
(62.6981 16.5358 4.65022)
(58.0179 16.1584 4.88492)
(55.6324 14.3102 4.10981)
(55.5684 10.3392 1.00219)
(56.3558 6.99513 -0.519739)
(57.5928 3.9687 -0.803194)
(57.6741 2.24466 0.0941558)
(53.6954 -1.56618 0.744577)
(53.7062 -0.94564 0.0924967)
(52.5089 0.543113 -0.327664)
(51.6788 1.15087 -0.213025)
(52.9091 0.467459 -0.170741)
(158.432 77.0326 -24.0678)
(67.4027 -52.2604 -33.7081)
(131.451 -52.5941 -18.9365)
(33.4421 -32.138 -2.35841)
(85.1143 -9.13753 1.88003)
(58.6904 -2.42207 -4.56204)
(72.8027 16.4671 -5.90565)
(79.4476 27.7951 -2.43837)
(72.2111 24.3273 5.14492)
(64.9751 19.7679 4.68258)
(62.8863 15.4136 2.98166)
(63.8168 8.90683 -0.592645)
(64.4986 2.85043 -1.93995)
(64.4879 -0.695649 -1.20229)
(61.2313 -1.08764 0.158304)
(55.4699 -1.29726 0.672341)
(54.0976 -0.493476 0.334878)
(52.6938 1.04012 0.0306443)
(52.0843 1.16127 -0.032867)
(53.6351 0.195246 -0.0252763)
(172.908 76.1859 -2.01552)
(55.8166 -30.3747 25.3104)
(142.071 4.22569 40.1269)
(34.1054 -14.3458 7.07883)
(77.3718 0.335242 4.88666)
(39.5745 0.655489 -4.61534)
(53.7948 10.1019 -4.85704)
(61.9872 19.3831 -2.46814)
(66.3619 25.3671 1.63401)
(68.2699 21.5098 4.53909)
(69.3996 18.964 4.51628)
(72.9299 9.24705 -0.0407529)
(71.9509 4.00341 -0.827924)
(68.4966 1.42976 -0.537376)
(62.6231 0.824199 -0.221384)
(56.3712 -0.682908 0.721839)
(54.074 1.26055 0.226503)
(53.1027 2.14547 0.0679925)
(52.4756 1.96634 0.0931796)
(53.6651 0.345231 0.0761739)
(280.893 -188.436 13.0844)
(-43.0683 -27.7722 16.6924)
(141.604 21.2115 -17.851)
(-17.9097 15.1936 0.615706)
(75.8793 10.2752 0.0469111)
(30.4851 -4.05607 -2.56506)
(50.1179 -6.6592 -3.04213)
(59.5144 11.4881 -0.303489)
(63.5396 20.4646 1.96419)
(67.2914 20.4455 2.16257)
(69.7196 15.5698 1.43432)
(69.1714 10.3365 0.538129)
(67.5085 6.97004 -0.524031)
(65.2913 4.18156 -0.847306)
(60.7528 1.15203 0.168383)
(51.8212 1.36571 1.37798)
(50.9919 2.26099 0.5257)
(50.3396 2.43583 0.130864)
(50.1277 2.2008 0.192939)
(52.0244 0.431267 0.383458)
(120.918 14.0828 -69.4713)
(-58.6529 51.3898 -15.4933)
(114.828 -7.01433 2.20413)
(16.1932 9.99106 0.0197189)
(86.3153 -6.43733 -0.309968)
(39.6619 -20.3225 -0.67995)
(55.6156 -4.296 1.27773)
(48.4777 10.1638 4.34095)
(59.1164 14.55 3.49002)
(59.8813 16.9086 1.81139)
(63.9185 14.4324 0.862388)
(61.1065 11.3615 0.548253)
(60.5211 7.61478 0.321557)
(57.1683 5.09806 0.21691)
(48.0302 3.99753 1.8023)
(48.2041 3.39401 1.02973)
(47.3168 3.60902 0.570018)
(47.5368 2.83272 0.249977)
(47.649 2.08523 0.229915)
(50.1759 0.189185 0.509268)
(177.093 41.5178 -205.563)
(41.2139 3.58472 4.33886)
(140.82 -14.5793 -2.33959)
(38.0173 1.34652 0.869743)
(83.3512 -4.08429 -0.74933)
(35.111 0.536599 0.691939)
(50.6969 22.4785 0.696329)
(32.4129 5.23963 2.10226)
(43.0944 16.1983 0.794266)
(37.4014 9.44313 1.01538)
(44.5135 13.1182 0.647079)
(42.5171 8.70638 0.818262)
(45.6896 8.55821 0.840306)
(44.5548 5.11574 0.859703)
(45.9853 5.0016 0.558071)
(44.9451 3.90232 0.341433)
(45.5139 3.82649 0.373863)
(46.2922 2.76873 0.314017)