/*--------------------------------*- C++ -*----------------------------------*\
  =========                 |
  \\      /  F ield         | OpenFOAM: The Open Source CFD Toolbox
   \\    /   O peration     | Website:  https://openfoam.org
    \\  /    A nd           | Version:  10
     \\/     M anipulation  |
\*---------------------------------------------------------------------------*/
FoamFile
{
    format      ascii;
    class       volScalarField;
    location    "8.4";
    object      k_0;
}
// * * * * * * * * * * * * * * * * * * * * * * * * * * * * * * * * * * * * * //

dimensions      [0 2 -2 0 0 0 0];

internalField   nonuniform List<scalar> 
12920
(
2742.33
1017.28
647.554
547.411
561.223
537.53
503.369
474.732
411.663
328.733
235.335
165.489
120.934
100.858
90.9463
87.6445
85.2837
79.8341
74.1603
60.5878
9864.32
3254.93
1203.23
615.88
475.473
423.098
376.807
351.831
297.827
236.658
190.613
173.14
168.544
168.881
168.077
167.638
163.751
154.188
137.474
119.264
3451.3
2846.91
1644.07
828.783
563.644
449.448
343.235
289.253
248.65
235.372
232.165
235.34
233.543
224.108
210.522
199.521
186.64
170.392
155.92
147.381
429.271
2091.29
1452.9
772.861
590.367
462.403
374.135
328.416
291.919
278.066
264.679
258.771
246.94
237.715
224.893
213.296
199.44
183.428
173.029
164.11
146.569
989.723
1043.57
961.122
643.699
454.38
379.108
359.216
320.794
310.081
289.091
279.063
261.415
249.588
235.08
222.726
210.685
197.685
191.232
179.37
4673.17
2355.56
1124.09
818.074
506.539
415.21
385.817
346.902
306.673
286.396
264.847
256.739
243.554
234.477
223.587
213.289
204.108
194.86
189.351
176.012
14649.6
7992.09
1439.96
704.636
567.707
522.33
450.95
384.73
338.209
300.201
269.241
248.181
229.613
217.536
204.039
193.716
186.415
180.658
174.419
156.85
13052.3
4727.56
1767.93
1157.46
868.129
648.083
351.582
194.377
182.908
177.764
157.4
143.333
133.525
125.38
183.138
167.499
160.076
150.327
136.704
117.781
12174.4
4335.85
2425.07
1651.29
1231.36
609.759
328.468
151.826
113.957
119.776
97.0071
80.1921
72.1942
66.0519
107.059
139.02
123.658
108.823
96.2827
89.4448
7293.98
2314
1965.8
1575.56
1191.21
589.862
298.654
123.936
96.1306
103.403
88.6487
72.3192
63.5535
55.7776
80.4248
96.8671
86.7534
81.8278
81.0745
83.2711
5601.9
2028.22
1937.54
1415.94
1158.29
687.212
364.348
301.507
100.511
76.0386
97.1238
52.7702
47.0389
39.2511
58.0759
89.7083
85.2776
84.0427
84.7487
87.8385
6477.38
2008.72
1382.76
1058.88
997.287
614.343
399.281
392.822
368.476
224.909
93.3262
61.2118
36.942
38.4632
71.6363
106.065
94.6225
87.2275
83.3347
82.4092
2153.17
3633.9
2315.38
1172.38
799.961
635.015
409.103
380.593
342.492
277.237
137.825
78.7871
70.5805
67.5379
105.598
95.8724
89.3176
85.4435
82.6955
78.9673
9432.89
5452.21
2091.09
1045.14
701.353
496.18
355.724
245.543
218.14
197.286
169.269
153.962
138.844
132.555
124.663
118.876
111.05
100.858
91.3786
79.914
6796.48
3027.24
1997.82
1679.17
1051.6
592.059
345.319
278.826
238.621
242.764
233.905
244.655
241.889
234.457
206.962
185.938
168.395
144.829
121.11
91.465
9193.36
5629.94
2961.99
1510.02
792.348
417.846
303.673
277.542
266.497
270.742
266.954
271.767
268.147
262.527
243.901
227.83
206.168
175.079
150.3
109.588
7352.7
3015.29
1946.74
910.851
537.153
354.923
270.658
252.194
249.064
248.797
245.699
239.151
226.073
210.489
193.676
179.648
166.156
145.4
128.275
101.48
9263.88
5377.37
2544.47
1144.95
582.035
392.478
304.62
252.287
212.798
196.134
178.623
167.547
153.539
140.106
126.138
115.023
108.844
104.834
101.561
94.0755
13247.6
3794.32
1771.43
1327.83
1020.87
774.915
542.58
407.526
293.344
244.65
200.437
181.738
159.13
145.948
131.157
117.894
102.226
88.7085
82.9821
83.5599
1869.02
1321.59
1058.99
762.596
602.17
472.334
338.535
264.03
207.754
178.185
151.723
129.514
109.057
97.0088
89.8705
86.1722
82.4233
73.2045
66.6664
60.025
775.133
1083.76
1259.15
1160.52
1162.38
1062.26
912.822
784.382
645.926
506.781
387.694
307.555
258.723
227.498
202.629
184.438
171.843
160.938
142.165
123.558
5623.65
4787.26
3032.88
1451.95
1213.21
1070.5
802.287
757.937
577.526
542.548
486.622
498.498
493.25
492.699
488.793
498.197
508.385
505.429
470.325
413.178
10797.5
7428.51
4237.3
2220.67
1478.33
1163.57
854.853
770.996
664.194
689.365
686.482
700.453
675.004
650.648
620.906
603.005
574.331
537.235
496.67
466.884
2586.86
6562.48
4247.96
2085.06
1518.95
1206.36
1003.83
878.851
795.123
771.949
737.996
731.672
701.077
681.039
650.025
625.77
592.492
555.335
526.091
499.848
5814.48
4839.68
2780.54
2388.14
1384.55
1285.91
999.474
993.804
878.859
864.464
807.04
787.406
742.921
715.731
678.294
648.329
616.699
584.777
563.545
529.605
11953.9
6916.95
2376.43
1695.98
921.316
1133.97
1023.6
948.666
835.639
796.059
740.405
721.361
686.766
665.762
637.844
613.881
590.889
568.164
550.439
512.776
13287.8
4756.69
2555.83
1501.61
1356.47
1422
1199.83
1056.46
884.101
787.728
708.748
669.169
630.012
605.212
574.158
551.789
533.104
515.878
494.356
449.751
16073.6
6490.61
3446.51
2405.86
1696.85
1525.01
1170.45
925.482
782.18
655.235
579.683
523.852
493.189
464.531
459.572
440.486
429.159
409.151
376.213
345.11
16424
5766.47
5116.14
3439.79
2607.23
1926.64
1473.03
1074.11
724.232
591.932
481.634
417.437
378.361
352.711
338.391
324.438
308.713
287.695
271.498
268.874
8823.5
4797.44
4391.78
3354.91
2534.06
1979.85
1548.36
937.003
623.271
518.159
417.165
345.873
300.888
267.05
241.232
226.357
225.309
229.031
236.69
257.335
8013.33
4996.31
4344.97
3116.01
2551.47
2123.25
1727.41
1381.15
794.911
528.27
449.416
261.373
199.497
177.95
177.559
215.931
225.464
238.31
248.538
269.267
19109.7
5134.98
3309.58
2442.62
2300.33
2201.91
1925.24
1756.77
1528.56
1171.2
549.348
332.903
210.345
195.847
222.058
250.775
243.334
239.883
241.203
246.835
8466.04
8280.42
3830.93
2546.89
1692.72
1591.21
1478.52
1499.94
1211.54
933.786
520.478
300.053
256.53
248.877
266.901
257.15
248.918
244.741
239.592
235.596
8914.8
5061.7
2647.68
2308.75
1608.91
1300.97
928.092
653.164
583.628
498.445
422.156
391.4
361.248
352.659
338.704
323.568
305.11
283.082
259.907
237.048
14706.2
6982.22
4987.56
4116.1
2268.16
1490.26
852.062
782.626
661.188
656.615
612.498
613.965
589.072
571.856
531.922
495.235
450.917
396.709
335.856
266.903
10966.3
8853.58
4806.46
3325.69
1665.3
1043.55
805.835
765.611
742.695
748.38
727.915
727.203
700.807
682.865
644.87
617.058
569.712
498.669
416.827
316.712
10230.6
6047.88
3831.39
1817.84
1221
840.26
693.952
679.687
671.528
673.251
651.686
640.032
598.25
573.67
535.792
510.073
475.212
426.294
372.988
306.036
23501.8
8599.01
3926.33
2253.83
1336.21
1073.08
790.158
664.377
559.222
529.745
474.253
460.453
421.097
400.175
367.452
352.263
341.31
333.908
314.958
288.954
18581.5
5902.63
4057.4
3032.37
2280.35
1793.42
1226.5
954.389
684.171
597.482
495.71
466.02
420.623
407.708
380.488
350.577
306.678
271.441
251.708
258.56
1879.06
2547.96
1974.2
1546.87
1288.8
1006.98
735.543
579.571
455.012
386.662
319.16
272.418
237.974
217.288
198.742
183.952
173.397
158.338
147.212
140.377
547.992
1328.61
1295.11
1310.58
1329.83
1195.74
973.259
808.69
652.943
516.448
407.225
332.22
281.862
244.329
217.931
200.03
193.767
191.487
185.661
175.84
5217.53
5341.44
3426.02
2038.16
1781.59
1474.56
1177.82
1099.77
907.725
868.016
771.109
748.425
701.114
688.295
674.593
674.084
670.988
650.684
615.235
579.714
11326.6
8594.51
5318.21
2853.53
2080.49
1648.59
1347.44
1234.94
1104.65
1087.99
1018.15
979.125
914.656
875.59
834.717
803.977
768.494
727.09
691.115
655.039
14650.1
10199.1
5273.85
2810.44
2122.29
1650.87
1447.09
1249.69
1162.09
1104.41
1046.87
1008.85
956.013
916.546
872.36
834.246
793.931
751.778
721.285
683.976
10727.9
7219.97
4170.05
3193.68
2092.98
1853.77
1518.3
1388.77
1241
1178.38
1099.38
1051.04
990.895
945.084
896.497
854.416
815.507
776.807
749.324
707.754
17226.4
5439.13
3015.22
2347.8
1832.52
1730.8
1519.32
1326.32
1169.48
1092.08
1015.75
975.513
924.791
888.979
849.102
814.321
783.643
752.206
727.219
687.776
22061.9
5079.02
3479.53
2344.23
2224.4
1978.79
1659.59
1369.22
1156.05
1023.83
932.361
883.524
834.782
801.291
762.044
732.138
706.644
678.821
651.278
613.467
17907.7
11167.1
4700.24
3013.43
2391.01
2028.14
1742.09
1345.71
1092.04
894.674
790.893
726.379
685.627
651.737
609.132
586.641
569.277
542.471
516.169
495.331
16516.1
7844.36
5695.08
3890.34
2962.45
2288.21
1952.46
1332.13
989.362
774.612
643.065
569.669
523.451
493.333
459.586
427.225
417.564
406.506
402.545
406.724
11068.3
6165.38
5355.38
3954.23
2928.43
2401.21
1896.8
1240.47
887.038
673.753
524.914
437.394
386.078
352.844
322.648
317.584
328.115
345.032
361.201
388.268
8209.88
5778.9
4933.4
3678.65
3011.14
2523.87
2037.76
1513.75
1116.72
744.615
468.584
257.442
222.036
238.254
257.422
311.729
333.238
354.796
371.381
394.624
14553.5
6432.49
4172.23
3016.45
2691.03
2706.05
2322.54
1954.38
1755.93
1488.52
998.949
439.364
295.658
282.888
308.077
343.325
347.504
352.215
357.531
367.797
16594.7
11497
5339.27
3057.48
2314.6
1902.77
1928.08
1678.74
1443.04
1261.02
661.425
415.584
361.057
351.519
366.904
359.796
351.855
346.966
342.419
340.948
16364.7
6458.03
4046.25
3019.62
2132.77
1579.95
1187.88
898.889
802.733
652.671
562.538
523.744
483.426
468.906
444.997
421.64
396.471
371.157
349.031
332.38
21524.6
9019.16
6272.81
4532.86
2515.28
1668.14
1224.79
1093.15
926.531
873.101
792.879
770.119
711.674
673.481
621.295
575.119
520.509
460.213
405.049
354.996
14477
9222.94
6246.36
3488.4
2061.51
1347.85
1210.45
1091.43
1038.73
992.116
934.943
903.116
840.768
797.01
736.734
686.799
622.284
547.65
477.345
403.409
17466.3
7138.71
4423.86
2381.93
1808.55
1211.38
1129.27
1015.16
971.786
922.013
859.917
820.751
758.898
719.839
669.639
633.036
585.986
529.779
473.685
412.522
36629.6
9653.43
5127.19
2942.08
2160.21
1532.95
1131.95
932.86
810.588
755.352
687.829
664.252
615.388
592.473
555.105
535.46
511.145
483.577
448.023
418.395
24730.7
10737.9
5201.59
3879.68
2756.62
2159.59
1454.47
1134.89
833.869
746.778
634.212
609.345
565.333
555.127
524.034
498.213
464.606
438.128
420.186
421.099
3904.72
3945.45
2500.28
1865.36
1569.84
1176.37
838.766
629.968
486.146
398.16
333.602
289.656
256.303
234.354
216.576
206.982
201.077
197.107
198.949
194
1395.65
1043.37
1151.74
1416.18
1405.27
1196.2
942.218
754.239
605.451
477.479
381.156
309.586
265.636
235.322
220.547
213.263
214.536
215.204
214.214
206.132
7890.9
4599.81
3438.62
2359.59
2173.2
1683.98
1493.3
1302.85
1166.51
1063.32
968.165
914.129
867.869
842.927
825.755
807.246
788.8
755.518
729.801
708.993
4935.97
7814.2
6425.59
3265.94
2606.75
1952.99
1746.34
1514.24
1418.93
1315
1232.58
1150.36
1086.99
1029.66
986.397
941.438
902.769
858.209
825.365
793
8513.17
11515.8
6847.62
3346.6
2638.42
1970.44
1786.09
1501.08
1433.91
1315.79
1260.56
1184.6
1130.84
1070.77
1023.96
974.071
932.422
887.502
855.321
817.869
15188.3
8613.88
5054.07
3342.46
2781.31
2151.19
1906.93
1626.26
1505.16
1377.87
1302.45
1218.87
1157.8
1093.42
1043.18
992.688
952.779
910.148
878.796
839.097
13073.3
7685.41
4372.34
2945.57
2683.93
2098.01
1884.89
1566.06
1405.5
1281.95
1203.03
1137.87
1083.16
1034.77
991.24
950.133
916.89
881.023
853.318
820.346
19370.7
7196.48
4378
3124.29
2917.15
2294.65
1962.19
1558.9
1339.78
1180.67
1090.19
1029.77
978.372
936.019
892.721
858.439
829.475
796.784
769.8
742.301
32378.8
16152.5
6010.7
3605.51
3001.62
2377.7
2043.58
1566.85
1261.39
1053.92
938.463
873.507
825.518
788.562
720.549
695.518
675.86
650.544
632.964
621.354
17881.9
9475.74
6229.77
4174.1
3156.38
2513.62
2169.66
1459.16
1121.49
884.717
752.254
678.612
632.72
601.309
556.562
518.901
518.353
518.383
523.061
533.837
14189.7
7385.54
5856.77
4264.09
3064.89
2548.21
2002.97
1345.99
990.533
750.709
588.066
491.103
447.378
425.971
402.99
418.033
439.481
464.169
486.677
513.525
20597.3
7133.76
5549.6
4111.94
3182.29
2562.22
1996.26
1424.1
1105.3
805.993
507.742
316.985
293.264
322.109
354.406
421.47
447.352
472.806
492.516
515.384
18121.3
7924.74
4996.87
3483.66
2818.34
2740.9
2236.42
1758.01
1602.82
1447.99
1050.9
478.378
375.364
373.589
398.253
439.446
450.902
460.87
470.009
484.101
5058.16
11777
7736.39
3717.39
2760.08
2053.87
1901.89
1437.75
1287.51
1068.61
667.665
504.277
456.866
442.743
456.232
451.296
445.528
442.401
441.076
444.295
15742.4
9620.78
5051.42
3446.63
2487.98
1787.01
1398.94
1087.27
942.969
758.058
678.972
625.143
582.715
556.172
525.489
496.62
471.394
448.607
432.476
424.859
21134.9
10297.3
6750.36
4196.25
2611.02
1811.59
1545.86
1299.57
1125.45
1013.88
920.981
862.285
787.94
731.752
671.61
616.951
561.491
507.141
464.439
435.271
23203.9
10983.6
7001.96
3621.04
2354.05
1626.99
1555.26
1317.33
1263.76
1134.03
1075.13
993.074
923.434
849.816
782.068
714.542
647.452
579.589
523.6
477.608
27570.9
9170.56
5106.93
3012.76
2151.08
1519.87
1467.54
1236.61
1200.3
1071.95
1010.2
930.987
868.529
806.902
752.18
699.024
646.817
589.701
541.22
500.31
24188.4
10045.4
6024.11
3590.9
2686.84
1734.6
1390.42
1099.7
1019.2
908.187
860.292
807.984
765.403
725.568
688.558
654.592
622.788
587.171
554.663
534.766
21032.9
7176.29
5308.37
4200.03
3161.74
2223.61
1554.26
1164.75
931.901
835.231
758.237
727.57
694.414
674.979
643.636
618.828
593.686
577.464
565.824
563.888
785.03
983.682
1685.87
1884.55
1646.4
1099.68
757.658
544.18
432.715
357.204
311.12
272.78
247.143
229.593
219.799
215.69
216.464
217.035
219.336
200.347
751.275
1186.08
1562.84
1569.02
1336.16
1035.54
806.911
645.291
497.458
385.825
302.152
256.352
234.61
222.055
217.705
214.755
216.678
213.515
212.073
203.568
9235.62
5013.86
3972.75
3145.02
2558.74
2013.25
1748.83
1482.1
1331.28
1164.67
1075.19
1004.03
970.628
938.485
918.422
887.224
864.493
834.99
819.999
809.462
9465.75
8594.84
6855.47
3880.21
3120.61
2388.43
2055.67
1764.62
1621.4
1468.87
1366.66
1267.49
1204.58
1137.03
1093.2
1040.04
1003.31
961.055
933.289
907.679
13183.5
12665.7
7876
4145.17
3112.84
2521.37
2046.97
1838.22
1632.23
1529.5
1420.51
1335.98
1266.19
1195.55
1144.64
1088.23
1047.49
1001.87
969.299
934.036
41891
12721.8
5936.71
4459.09
3309.39
2685.43
2189.46
1927.51
1703.09
1584.96
1461.87
1372.62
1295.43
1223.56
1169.15
1114.48
1073.78
1027.79
993.66
955.196
16982.6
11315.5
5974.03
4340.33
3389.32
2757.76
2158.3
1916.37
1611.13
1509.99
1378.38
1309.63
1234.78
1179.37
1127.1
1080.35
1043.33
1002.36
972.943
941.565
36328
11364
5522.83
4829.16
3473.29
2994.77
2247.92
1960.68
1547.4
1415.24
1266.6
1206.77
1132.47
1084.22
1029.1
988.507
954.019
916.415
890.152
866.214
28029.3
13646.4
6752.54
4928.84
3619.8
3225.12
2274.85
1834.28
1436.16
1234.26
1094.34
1025.31
962.525
919.758
856.719
819.806
798.07
773.145
761.752
753.484
37103.4
13750.1
7320.89
5694.64
3525.41
3079.3
2397.3
1621.12
1248.79
1005.63
874.139
798.005
753.675
717.564
665.913
647.497
646.07
650.598
660.957
671.718
17856.1
9929.66
6503.03
5645.35
3377.12
2884.96
2137.89
1438.23
1066.22
816.773
652.495
560.065
551.458
542.155
520.238
561.176
579.035
603.432
628.178
648.893
12867.8
9332.73
6235.53
5534.69
3391.07
2709.69
1925.17
1345.75
1033.13
816.31
596.362
424.834
437.091
472.029
495.001
568.83
587.604
610.257
629.818
647.619
21442.9
10828.4
6463.19
5328.31
3322.38
2963.83
2074.75
1474.72
1262.7
1117.19
800.552
538.62
510.291
513.364
524.643
579.439
585.981
595.786
606.836
619.289
10808.5
12576.1
9149.09
5106.78
3366.98
2814.1
1879.06
1389.02
1144.39
941.07
723.307
619.352
584.572
559.191
596.984
580.824
574.983
570.905
572.539
576.687
38440.4
13436
6285.61
5040.5
2911.8
2610.62
1816.25
1655.08
1184.29
1010.52
872.662
793.796
731.145
687.287
643.472
609.033
582.757
562.183
552.742
549.459
29624
13406.9
7541.95
5297.66
2941.57
2588.88
1867.98
1716.83
1359.62
1230.96
1083.15
988.374
893.741
821.491
750.955
687.993
634.553
588.965
560.632
546.958
44766.5
13658.5
7955.59
4811.01
2825.45
2353.06
1916.68
1703.72
1486.89
1342.64
1213.91
1102.9
1009.39
914.214
838.785
760.465
697.992
640.012
600.315
577.633
53575.2
12780
6343.7
4893.28
2576.86
2306.6
1765.48
1586.07
1402.44
1258.1
1149.78
1044.43
969.618
886.665
829.215
761.687
712.809
661.7
627.142
606.58
30543.4
12885.1
7132.77
5099.17
3164.47
2192.7
1664.73
1364.59
1221.22
1092.67
1017.69
943.754
890.849
833.49
794.803
748.039
718.535
684.747
665.502
656.831
20961.2
7954.75
5970.16
5102.76
3520.39
2336.83
1659.29
1221.43
1050.02
939.309
879.852
830.394
799.958
762.42
736.796
710.883
698.968
690.731
682.326
670.259
303.483
1135.53
2071
2047.49
1442.4
863.382
576.03
423.069
354.56
299.833
265.917
233.734
220.462
204.371
200.588
190.2
189.315
178.405
166.721
149.376
555.995
659.801
429.707
736.102
608.3
720.951
427.804
454.102
396.136
290.003
574.092
496.215
374.774
302.935
504.201
1335.77
952.868
786.956
484.904
1345.82
1102.86
299.358
931.465
540.014
423.976
304.656
1019.98
540.674
184.477
308.602
180.833
1195.29
1050.55
1387.18
1017.17
108.624
126.449
90.6363
924.138
652.393
841.505
555.494
119.935
98.7643
114.116
619.133
556.922
546.304
507.868
102.094
112.334
99.358
521.909
445.534
483.169
413.974
80.1344
94.2355
77.3769
423.552
374.097
392.328
336.57
71.3597
73.9309
67.664
363.896
335.034
323.2
291.389
64.2
65.596
60.5038
328.076
308.357
282.663
259.807
57.5449
58.6648
54.0525
304.097
294.458
253.505
237.954
178.363
324.815
259.967
1348.33
961.859
1402.95
1189.68
89.817
236.024
106.666
794.211
536.082
1074.32
650.6
105.618
96.1181
81.6096
524.152
480.15
582.384
447.619
92.5452
82.2153
87.5017
457.696
392.999
412.587
369.086
75.3367
80.8674
58.7491
372.879
321.018
353.702
260.595
65.5127
56.9208
53.821
308.677
277.067
241.91
211.526
57.8443
52.2775
46.2022
268.263
243.725
204.28
184.683
50.9945
43.8389
36.5738
236.716
220.219
178.64
162.782
308.763
415.724
382.289
1522.53
1354.76
1679.08
1617.27
133.202
393.676
371.457
1265.57
768.071
1588.16
1366.67
72.1281
310.314
151.606
649.752
478.864
1231.74
899.727
95.0597
161.765
99.4161
435.064
394.549
852.276
428.548
57.4937
88.9444
92.7447
395.531
267.105
404.172
383.085
48.764
59.8821
38.9715
235.729
192.223
285.511
186.276
41.2253
39.1627
38.0732
183.437
163.838
176.383
159.475
33.7728
37.3313
36.8624
159.01
149.561
157.792
161.215
380.309
333.581
257.142
1673.96
1615.25
1325.55
1414.01
393.57
270.769
305.092
1600.96
1475.59
1425.65
1445.14
225.019
313.059
297.289
1392.05
1095.71
1429.89
1255.82
129.586
282.8
105.637
1031.29
530.705
1201.58
577.565
94.1242
104.355
59.2641
439.789
388.2
549.073
314.846
36.748
46.9878
38.059
287.69
190.389
259.099
207.955
38.3208
39.2477
39.3625
181.62
170.369
203.451
201.548
39.6144
40.9796
40.7119
169.779
173.709
202.086
200.366
1226.81
1613.94
1171.77
1865.73
1460.65
1923.4
1411.14
769.298
992.762
672.306
1288.63
1000.06
1241.92
920.187
631.398
647.317
574.612
939.81
786.154
862.151
712.785
504.694
543.497
462.802
737.953
635.028
668.306
563.218
427.208
438.898
378.646
609.729
547.401
534.855
465.869
384.87
364.147
328.401
537.247
499.25
449.453
407.621
355.942
318.84
293.764
492.109
465.935
397.062
369.758
339.35
287.138
270.098
462.619
442.657
363.088
345.541
1102.91
1597.78
1318.07
1845.93
1342.51
1881.45
1485.99
649.634
1191.41
781.771
1190.95
896.218
1351.64
1022.54
547.252
702.823
530.695
839.407
688.57
945.434
709.669
440.335
485.692
415.724
644.569
534.369
636.883
462.83
359.664
395.157
288.876
504.827
436.471
428.156
306.805
310.615
266.361
230.817
420.237
379.735
281.022
253.507
274.366
223.53
205.382
369.094
341.563
252.608
249.675
248.817
199.97
185.323
334.517
316.282
247.886
241.13
1488.54
1912.3
1777.14
2007.26
1642.71
2245.98
1973.96
913.109
1730.66
1485.47
1512.76
1158.12
1892.27
1658.09
582.314
1369.26
1063.2
1073.17
806.471
1594.64
1377.44
456.13
994.853
533.065
724.726
544.075
1283.02
857.475
298.271
507.274
436.606
514.621
318.781
840.695
528.119
208.909
328.132
213.944
274.256
220.67
409.437
273.367
181.705
201.22
182.134
217.541
221.043
257.11
241.22
170.745
181.034
185.604
222.92
226.311
242.149
250.383
1785.93
1651.17
1633.76
2283.27
2014.84
2102.83
1976.78
1605.78
1632.79
1621.08
1953.33
1788.37
1947.6
1871.92
1252.43
1585.71
1393.48
1739.14
1536.87
1813.95
1653.99
638.083
1332.21
723.204
1440.02
945.028
1594.89
1086.53
445.035
673.118
362.605
899.858
547.967
982.203
466.141
221.773
302.618
241.949
422.097
291.826
400.662
325.377
196.348
236.311
232.389
276.835
262.207
316.456
309.9
199.8
233.475
229.877
262.367
267.049
310.043
302.989
1501.42
1976.23
1450.01
2128.8
1580.67
2073.2
1514.94
1053.89
1287.31
973.531
1431.8
1167.88
1369.35
1072.84
823.265
909.517
744.295
1095.74
907.605
999.757
810.527
669.144
697.416
587.275
860.512
754.087
761.106
643.631
579.641
557.903
486.939
727.237
662.278
612.373
537.45
530.778
470.172
427.694
652.879
613.876
520.416
479.832
496.68
417.21
390.3
606.492
578.813
470.83
447.94
472.183
383.829
366.635
575.237
550.064
442.482
427.087
1386.67
1918.66
1500.03
1985.04
1464.07
1934.97
1484.79
949.851
1368
1063.88
1330
1046.74
1363.36
1103.41
720.77
988.532
746.925
974.635
786.138
1029.1
799.254
626.088
631.378
654.989
698.28
604.467
654.113
679.892
458.92
497.452
476.075
542.798
447.471
514.309
488.34
396.58
268.164
256.549
478.597
439.908
288.589
292.488
359.525
259.414
262.823
431.349
411.124
297.615
310.946
335.225
262.389
258.648
406.161
390.821
313.743
317.057
1644.82
2281.38
1975.66
2023.55
1579.09
2249.83
1859.9
1193.85
1887.15
1668.98
1455.49
1198.46
1761.54
1586.93
848.807
1619.01
1430.44
1127.74
879.265
1558.88
1428.93
874.47
582.125
944.31
759.935
834.895
518.215
972.897
651.085
414.181
730.42
405.794
646.103
346.214
754.715
220.351
425.337
289.497
279.597
264.32
452.559
339.481
234.677
273.505
260.427
269.028
290.218
327.859
324.57
244.785
262.008
271.032
296.37
307.722
327.946
337.059
2022.94
2165.1
2010.64
2283.64
1911.47
2171.73
1904.8
1796.77
1971.73
1877.96
1830.39
1693.53
1838.69
1706.18
1583.04
1819.65
1703.63
1672.99
1577
1678.96
1697.58
1039.64
1646.01
1165.81
1496.23
1202.65
1630.04
1143.14
560.126
1018.67
487.108
1094.25
558.753
930.929
531.296
310.589
424.222
348.127
470.029
364.576
482.36
413.113
282.481
339.035
332.407
352.933
346.731
404.315
398.726
287.853
332.486
324.95
348.099
352.714
397.421
387.648
1602.37
2093.46
1527.22
2313.46
1692.55
2176.75
1577.16
1195.93
1385.46
1092.23
1553.97
1280.31
1438.66
1145.18
930.73
1017.99
826.204
1200.8
1004.58
1068.79
873.226
779.295
776.951
658.949
961.046
859.488
824.087
706.101
687.772
627.477
552.199
832.982
768.385
674.74
601.795
640.097
535.437
497.039
759.26
723.321
587.756
563.423
605.003
489.01
468.217
716.099
686.796
559.341
544.57
575.651
463.141
448.344
682.209
651.804
540.11
523.729
1478.05
1923.32
1469.52
2075.72
1525.02
1890.15
1432.41
1064.05
1351.42
1096.85
1393.82
1108.14
1320.76
1069.23
800.611
1022.87
806.197
1032.57
840.942
997.879
817.126
622.834
742.435
502.74
791.576
665.633
767.221
601.349
508.804
448.483
344.387
630.76
551.325
548.92
426.113
454.688
321.582
312.961
535.854
516.691
401.736
394.438
430.318
317.354
332.994
515.221
507.522
404.258
428.607
411.19
336.587
341.638
504.291
487.917
432.598
435.248
1544.47
2207.69
1795.2
1915.26
1452.27
2064.26
1590.22
1175.99
1695.32
1525.73
1340.94
1099.29
1485.84
1300.52
876.021
1498.79
1376.87
1031.94
856.715
1264.47
1147.1
573.005
1302.18
1087.99
808.158
644.354
1101.42
921.07
352.017
983.155
536.841
584.07
431.07
816.115
537.822
289.575
459.537
359.294
398.309
380.978
490.446
443.192
315.602
350.312
350.782
390.85
419.92
443.448
453.232
334.285
354.489
363.248
425.735
432.949
456.131
458.795
1842.88
2131.37
1826.81
2086.36
1617.61
2041.32
1584.04
1621.35
1749.34
1605.99
1519.95
1351.52
1476.54
1299.31
1520.96
1592.84
1622.85
1325.85
1241.34
1288.1
1244.43
1186.54
1542.19
1068.97
1195.04
975.239
1167.06
872.779
555.144
878.808
545.323
848.2
562.126
775.239
600.444
384.901
501.037
436.036
515.974
469.695
566.567
521.994
372.022
427.757
422.565
467.498
469.948
515.138
508.154
377.921
420.771
410.933
470.691
469.754
502.867
490.722
1764.6
2241.01
1628.4
2828.4
2269.73
2715.27
2066.92
1331.58
1487
1184.73
2083.24
1724.92
1922.69
1589.04
1050.11
1106.2
904.754
1619.04
1453.3
1508.01
1296.92
901.388
853.73
732.392
1396.56
1270.49
1238.71
1096.95
808.279
700.54
628.319
1235.38
1181.69
1058.23
979.481
761.522
615.757
598.395
1156.93
1109.9
970.531
991.428
723.061
595.397
581.431
1094.21
1070.51
988.499
975.425
685.053
576.766
559.656
1055.9
975.123
968.934
893.5
1572.59
1916.41
1451.15
2645.83
2011.7
2385.74
1851.42
1144.18
1339.44
1083.65
1874.92
1554.17
1748.63
1484.06
868.192
1011.54
832.936
1471.45
1257.71
1408.67
1224.45
687.88
782.968
622.428
1199.15
1045.16
1163.99
963.753
573.635
570.823
449.543
1001
908.363
898.106
759.045
550.88
429.334
433.932
901.859
948.077
753.521
843.224
545.533
447.949
473.767
960.089
955.631
893.196
923.471
524
476.972
477.461
951.219
860.657
922.914
838.792
1455.84
2051.24
1556.05
2330.28
1824.41
2380.64
1849.69
1101.1
1449.56
1255.34
1729.63
1487.44
1752.21
1566.53
864.488
1215.42
1092
1418.82
1253.28
1533.24
1423.7
654.763
1047.58
866.754
1193.03
972.007
1355.43
1060.54
451.774
773.13
546.2
898.071
746.594
969.98
822.461
422.716
509.586
483.608
740.668
834.863
816.536
888.275
467.185
487.515
498.346
887.306
921.668
912.708
927.952
476.528
500.529
500.747
921.937
839.814
928.196
852.403
1577.63
2065.37
1563.54
2420.36
1871.46
2596.88
2027.42
1292.97
1444.26
1250.93
1769.41
1589.79
1867.56
1592.63
1162.57
1234.9
1160.83
1578.33
1483.47
1623.3
1612.44
907.402
1087.04
844.63
1402.63
1084.97
1472.33
1143.42
573.856
768.095
627.972
996.031
867.437
1076.95
1006.03
510.632
598.036
560.511
861.523
916.119
963.447
939.006
513.23
553.949
545.5
921.81
932.919
928.748
941.148
510.383
539.22
527.246
931.769
862.464
921.646
845.999
572.504
592.063
511.218
575.161
555.236
612.855
525.137
580.132
648.424
525.175
674.007
570.108
671.731
442.891
486.055
446.777
456.905
298.907
497.38
420.37
334.961
646.392
718.844
690.704
717.898
673.798
700.711
664.73
590.984
592.536
647.771
560.749
631.363
541.819
609.955
600.201
691.566
710.072
599.99
691.869
464.971
630.694
501.865
288.207
480.834
494.863
431.296
344.558
546.075
436.962
474.233
409.189
469.416
426.022
490.227
419.92
351.912
409.754
350.658
272.157
376.484
380.613
246
339.874
338.033
312.924
261.512
352.451
334.908
245.136
472.653
559.086
543.801
521.014
529.642
503.378
488.638
449.209
483.259
518.225
443.194
504.728
430.804
463.447
358.122
250.794
433.147
338.226
387.272
232.756
398.772
347.606
260.356
367.838
319.746
344.086
240.715
378.934
824.469
517.533
758.694
446.117
781.899
458.455
799.508
1070.15
1154.92
1198.73
1364.17
1034.93
1179.71
1233.6
979.879
872.697
1045.39
1032.11
925.456
936.386
1102.39
904.471
763.432
653.626
981.411
544.012
987.79
907.232
851.871
431.373
552.469
813.457
465.196
817.116
856.7
1084.6
1367.8
1161.36
1242.49
1180.88
1248.19
1080.85
1014.31
1085.18
977.94
1159.48
973.114
1142.35
1024.6
517.921
347.282
403.996
266.105
515.733
297.649
408.967
799.893
853.229
874.421
997.28
785.818
900.107
897.203
640.608
491.073
711.828
545.1
637.89
497.645
709.28
637.747
381.005
369.065
738.04
321.593
752.581
623.67
513.095
260.862
331.305
421.977
279.83
414.047
510.276
791.272
1027.26
901.901
858.043
915.191
887.988
767.069
632.301
544.43
497.037
676.254
498.608
696.954
617.186
232.842
362.351
278.15
660.025
655.451
679.966
728.317
197.651
210.903
186.589
538.983
520.48
574.065
519.448
172.351
185.911
186.488
523.836
506.927
515.976
507.328
171.89
172.513
160.902
460.519
438.699
449.435
419.077
141.721
147.518
136.844
415.803
390.277
386.132
357.648
137.093
127.968
122.707
362.799
355.149
340.583
327.845
123.402
117.94
112.227
338.405
332.064
316.747
303.508
116.407
109.973
101.041
311.369
325.058
297.322
302.909
536.162
640.733
548.989
1256.72
1136.73
1439.45
1354.43
576.222
246.85
316.854
536.615
544.233
560.947
254.512
361.21
117.688
160.689
411.958
343.684
432.07
128.175
339.351
119.216
111.292
317.037
329.792
329.319
118.726
307.27
115.231
120.051
303.341
293.196
318.452
117.004
245.319
90.8371
97.6485
249.452
242.856
257.232
92.6305
204.988
76.9345
77.9969
208.039
204.626
209.58
76.3478
183.444
69.4175
69.2978
182.011
181.552
185.782
68.3836
167.901
63.8603
62.8224
164.355
164.245
168.953
62.2066
95.3077
95.5749
80.8316
240.671
246.646
221.399
218.127
536.834
578.545
544.279
1422.85
1343.93
1404.79
1368.96
666.967
247.147
297.137
658.616
660.302
656.041
250.293
291.207
93.0677
139.173
346.292
275.132
382.525
102.317
271.641
102.956
95.5415
275.436
286.575
272.422
96.5983
244.715
99.5508
92.1533
277.456
266.706
251.883
90.032
203.885
83.7902
80.3207
233.394
220.753
214.823
76.9028
174.369
69.8292
68.2869
191.581
184.491
180.011
66.3507
153.499
61.6855
60.9301
166.857
161.439
158.742
59.0579
132.355
53.9883
52.9098
145.911
141.568
137.267
50.8163
70.6544
66.4553
54.231
183.218
183.244
150.507
147.614
602.493
674.884
632.19
1445.85
1443.79
1521.18
1551.29
828.546
313.357
380.908
746.945
809.618
744.783
323.412
862.544
275.083
332.019
807.031
724.975
896.545
323.507
291.956
86.7061
126.994
286.095
275.948
321.97
93.5521
246.496
83.5595
79.9432
210.303
217.785
245.971
83.3986
258.409
87.3525
100.371
246.212
231.796
250.929
102.655
125.68
51.1998
50.5673
142.038
134.3
140.213
46.8269
105.942
45.3357
43.2897
119.472
114.673
110.229
41.8326
90.7322
37.4803
36.8636
99.909
96.1614
93.4106
35.6209
48.9877
61.909
56.7819
132.113
134.937
142.868
151.731
606.06
531.12
516.712
1539.65
1625.45
1201.66
1131.01
837.323
356.688
369.343
812.022
913.972
748.651
323.225
1005.53
400.886
368.582
1029.51
1037.1
982.346
383.176
911.625
311.418
380.646
928.923
802.71
978.094
352.302
680.136
219.763
281.648
617.589
584.775
741.725
266.261
240.24
100.251
95.2078
210.26
243.501
210.631
97.8013
121.621
43.7484
58.7703
165.213
123.115
159.4
43.1216
102.205
37.7315
36.5102
101.173
101.214
102.167
37.0747
106.741
38.8159
39.2437
100.645
101.249
105.074
40.0102
65.7534
74.9473
64.6475
166.768
174.11
178.707
183.402
398.205
379.142
335.743
815.472
1073.36
777.403
893.868
343.092
247.181
183.031
1049.05
972.067
625.008
398.892
339.218
145.931
156.753
872.471
802.185
345.838
398.573
180.097
139.072
115.668
570.352
405.476
402.473
370.316
101.638
96.0634
74.3182
352.03
273.489
289.29
251.04
73.4812
74.0172
70.7671
213.395
193.22
230.389
211.741
70.2632
66.9078