/*--------------------------------*- C++ -*----------------------------------*\
  =========                 |
  \\      /  F ield         | OpenFOAM: The Open Source CFD Toolbox
   \\    /   O peration     | Website:  https://openfoam.org
    \\  /    A nd           | Version:  10
     \\/     M anipulation  |
\*---------------------------------------------------------------------------*/
FoamFile
{
    format      ascii;
    class       volScalarField;
    location    "8.4";
    object      omega;
}
// * * * * * * * * * * * * * * * * * * * * * * * * * * * * * * * * * * * * * //

dimensions      [0 0 -1 0 0 0 0];

internalField   nonuniform List<scalar> 
12920
(
233.193
142.029
113.317
104.187
105.493
103.242
99.9076
97.0241
90.3496
80.7379
68.3123
57.2849
48.97
44.721
42.4667
41.6887
41.1234
39.7878
38.3479
34.6616
442.272
254.054
154.465
110.511
97.0999
91.5959
86.44
83.5262
76.8489
68.5041
61.4797
58.5942
57.8112
57.8691
57.7311
57.6556
56.9833
55.2944
52.2114
48.6308
261.605
237.598
180.558
128.196
105.72
94.4051
82.4995
75.7347
70.2182
68.3177
67.8506
68.3131
68.0517
66.6629
64.6106
62.8999
60.8357
58.1273
55.604
54.0601
92.2617
203.64
169.736
123.796
108.197
95.756
86.1331
80.699
76.0829
74.2556
72.4461
71.633
69.9764
68.6568
66.7796
65.035
62.8871
60.3098
58.5754
57.0456
53.9108
140.092
143.852
138.053
112.979
94.9216
86.7035
84.3983
79.757
78.4139
75.7134
74.3886
71.998
70.3505
68.2752
66.457
64.6356
62.6098
61.5795
59.639
304.412
216.124
149.298
127.366
100.222
90.7381
87.4674
82.939
77.9818
75.3596
72.4691
71.3512
69.495
68.1876
66.5854
65.0339
63.6188
62.1609
61.2759
59.0781
538.974
398.094
168.978
118.206
106.101
101.772
94.5627
87.3441
81.8933
77.1546
73.0678
70.152
67.4766
65.6781
63.6081
61.9782
60.7989
59.8527
58.8102
55.7696
508.743
306.178
187.235
151.499
131.204
113.363
166.993
124.168
120.449
118.743
111.735
106.625
102.912
99.724
60.2622
57.6318
56.3403
54.5977
52.065
48.3274
491.336
293.219
219.289
180.954
156.26
219.92
322.821
219.477
190.146
194.94
175.435
159.508
151.344
144.763
92.1504
52.5043
49.5183
46.4532
43.6948
42.1146
380.31
214.209
197.436
176.756
153.692
216.302
307.822
198.296
174.641
181.13
167.715
151.477
141.999
133.029
79.8694
43.8272
41.4762
40.2815
40.0957
40.6352
333.291
200.545
196.011
167.563
151.553
233.47
339.996
309.289
178.577
155.335
175.573
129.399
122.164
111.594
67.8709
42.1766
41.1219
40.823
40.9942
41.7348
358.389
199.579
165.588
144.904
140.626
220.745
355.922
353.031
341.916
267.13
172.078
139.359
108.262
110.468
75.3793
45.8608
43.3164
41.5894
40.6507
40.4244
206.631
268.437
214.273
152.472
125.948
112.214
180.136
173.746
164.82
148.29
104.556
79.052
74.8218
73.1913
45.7597
43.6016
42.0847
41.1619
40.4945
39.5712
432.492
328.807
203.63
143.961
117.93
99.1916
83.987
69.7781
65.7693
62.5467
57.9354
55.2539
52.4709
51.2688
49.7193
48.5515
46.9261
44.7209
42.5675
39.8077
367.111
245.007
199.037
182.475
144.405
108.352
82.7496
74.357
68.7875
69.3821
68.1043
69.6518
69.257
68.1848
64.0621
60.7211
57.7857
53.5899
49.0056
42.5876
426.965
334.124
242.352
173.04
125.347
91.0256
77.5995
74.1856
72.6946
73.2712
72.7569
73.4098
72.9192
72.151
69.5445
67.2143
63.9391
58.9213
54.5927
46.6163
381.838
244.523
196.476
134.394
103.206
83.8923
73.2598
70.7169
70.2767
70.2389
69.8004
68.864
66.9545
64.6057
61.9717
59.6851
57.4003
53.6954
50.4343
44.8585
428.6
326.543
224.623
150.678
107.431
88.2192
77.7204
70.7299
64.959
62.3637
59.5148
57.6401
55.1779
52.709
50.0124
47.7582
46.4577
45.5939
44.8764
43.1911
512.536
274.298
187.421
162.266
142.279
123.96
103.726
89.8945
76.2683
69.6512
63.0441
60.0313
56.1736
53.7966
50.9978
48.3505
45.0232
41.9409
40.5647
40.7056
192.514
161.884
144.911
122.971
109.274
96.7788
81.9327
72.3573
64.1846
59.4417
54.8506
50.6773
46.5031
43.8592
42.2147
41.337
40.4278
38.0999
36.3587
34.5002
49.5911
58.6384
63.2054
60.6795
60.7281
58.0539
53.8156
49.8861
45.2696
40.0983
35.072
31.2376
28.6506
26.8661
25.3551
24.1903
23.3497
22.5967
21.2379
19.7994
199.81
157.005
93.221
65.9636
56.3712
54.5736
53.3614
52.3687
49.5994
44.88
39.3123
34.6315
31.2341
29.9908
29.6045
29.8
30.5506
31.5992
32.1726
30.9723
263.048
164.89
110.649
73.7998
56.051
50.8817
48.1363
46.4341
44.9024
42.7122
39.6605
36.7961
34.6256
33.3965
32.6228
32.3761
32.3146
32.0811
31.6558
29.9206
117.312
147.927
104.807
68.2629
54.2542
46.5414
43.2457
40.8993
39.3382
37.9918
36.7249
35.4887
34.4558
33.7407
33.0885
32.4757
32.0413
31.3513
30.9846
29.8857
260.495
202.379
123.692
106.118
77.3346
59.2467
49.5678
43.872
40.5265
38.6063
37.315
36.3396
35.3493
34.5201
33.701
32.9048
32.2812
31.5784
31.2442
30.4814
245.629
224.574
138.679
110.433
75.0225
56.1277
48.0753
43.086
38.7803
36.4553
34.8064
34.1621
33.4155
32.9599
32.4429
31.9192
31.4956
30.9922
30.7254
30.2832
284.336
192.648
112.393
84.2461
67.226
59.0985
53.5603
46.6624
39.4655
36.2372
33.9308
33.0101
32.0989
31.5498
31.0443
30.5368
30.1182
29.6874
29.5443
29.1413
271.864
148.058
104.379
88.7343
76.2171
65.6923
67.7182
56.4101
42.7543
34.4947
32.3655
30.9759
30.6185
30.1663
27.4386
27.3388
27.1859
26.8778
26.6693
25.6512
282.178
152.854
107.178
90.069
72.2867
77.9671
78.775
74.9307
46.8246
35.2157
31.2658
28.8838
27.5288
26.8323
25.4057
23.5978
23.4841
23.1307
22.4867
21.7987
197.614
129.348
106.652
84.8974
66.9762
66.0562
66.0261
63.9962
42.5305
34.233
31.2889
28.2524
25.6003
23.9676
21.8934
20.3125
20.2192
20.2158
20.339
21.0578
178.764
134.417
99.7515
81.7562
67.9261
70.4532
67.8659
63.8578
68.6429
54.7818
55.0999
30.1587
26.7605
23.8992
20.7389
20.0832
20.4709
20.96
21.2776
21.9961
437.092
109.491
87.3282
75.8987
67.1343
74.6761
72.8062
65.8847
67.4432
66.0625
85.1326
36.1816
24.3944
22.3799
21.1335
21.5696
21.888
21.8162
21.5509
21.1209
217.239
161.114
112.63
93.0169
72.4448
62.1465
70.7224
75.6772
77.8136
88.4886
66.7562
26.4301
23.3285
23.4617
22.2381
21.991
21.3924
20.8893
20.6342
20.253
172.916
174.458
147.851
94.6312
63.2207
53.0115
50.4059
43.2279
40.2241
32.908
26.7424
25.1348
24.383
24.4816
24.4026
23.9556
23.5706
22.8135
22.3255
20.9573
207.674
181.045
131.567
108.696
88.0852
62.2181
47.7155
41.5979
36.2988
33.5776
31.6719
32.2408
32.5002
33.2491
33.0808
31.9434
30.6883
29.097
28.086
24.4599
194.947
195.254
137.137
103.065
70.2937
50.0972
43.415
40.7665
38.3303
37.686
37.1802
37.3274
37.4534
37.6673
37.5734
37.0136
36.2985
34.8691
33.8989
29.1151
219.564
119.536
91.516
78.8544
60.829
50.8849
45.4548
41.1008
39.4669
38.2651
37.8229
37.3048
37.1266
36.6957
36.249
35.8151
35.3756
34.1939
32.8973
27.7584
346.495
167.91
107.482
88.5665
69.3982
52.8262
43.0143
37.6749
35.2774
33.7047
33.1571
32.3582
31.8657
31.3095
30.7428
30.3483
29.9388
29.0839
27.7636
24.2625
314.449
180.785
101.216
83.8311
72.2425
62.9721
50.6819
43.846
36.9473
34.1326
31.1428
30.0461
29.0813
29.0421
29.2228
29.5342
29.5924
29.0869
28.0472
25.3463
77.2122
89.9108
79.1428
70.0554
63.9453
56.5231
48.308
42.8814
37.995
35.0252
31.8214
29.3991
27.4777
26.2563
25.1108
24.1584
23.455
22.4134
21.6116
21.1039
41.6968
64.9253
64.1017
64.4834
64.9551
61.5933
55.5686
50.6532
45.5149
40.4789
35.9445
32.466
29.9043
27.8422
26.2951
25.192
24.7945
24.6482
24.2704
23.6197
161.96
121.988
78.0735
54.2009
48.8468
44.7023
42.3031
41.1916
38.1712
35.9489
32.6086
30.9044
29.1834
28.5472
27.9878
27.8945
27.9109
27.8674
27.5928
26.6913
309.384
178.972
106.809
65.3467
49.2039
42.3955
39.5384
38.7661
37.0378
35.6429
33.2376
31.7451
30.2915
29.6623
29.0655
28.7538
28.4475
27.9237
27.3595
26.3507
255.327
178.739
99.2309
62.2221
48.1971
39.3783
36.6953
34.2565
33.2863
32.4379
31.4031
30.7261
29.9221
29.4321
28.8686
28.3901
27.9522
27.4026
27.0332
26.3402
198.39
161.802
103.509
80.7674
57.5713
46.1537
39.25
35.9761
33.7334
32.7188
31.6435
30.985
30.1665
29.5607
28.9238
28.3702
27.9134
27.4587
27.186
26.7135
259.823
150.876
103.127
73.7928
54.4201
43.2463
38.3091
34.7855
32.0961
30.8528
29.7343
29.3003
28.6668
28.3063
27.8813
27.5272
27.2399
26.9375
26.7468
26.5098
352.574
117.33
83.8939
62.6097
54.2472
46.9095
41.979
36.0235
31.954
29.7829
28.4768
27.8625
27.3119
26.95
26.6039
26.303
26.0584
25.7931
25.6559
25.3857
238.21
170.439
85.8782
65.7927
57.065
49.4544
49.6353
40.335
33.0489
28.531
26.8771
25.9961
25.5367
25.2224
24.3929
24.1111
23.9065
23.587
23.3493
22.7751
237.081
124.381
89.8504
69.7914
56.5299
54.8745
54.8885
47.409
34.0329
28.0152
25.5099
24.1406
23.2464
22.8165
22.2818
21.8444
21.4631
21.1311
20.7996
20.6148
186.116
111.274
93.0031
69.5003
53.5586
50.1156
48.3709
44.7236
33.8343
28.4382
27.1972
24.4552
22.154
21.0041
20.4401
20.4268
20.0995
20.1029
20.2367
20.6378
158.156
114.906
86.7421
65.4078
54.9028
52.0853
49.695
47.4713
49.3722
60.1874
89.1118
42.7786
30.4902
23.2232
20.7859
20.6648
20.4945
20.6076
20.808
21.1634
255.957
102.049
69.5845
58.0056
54.0846
59.0611
56.8825
53.8496
58.9573
63.2444
75.8875
29.0214
22.6893
21.1279
20.4555
20.6442
20.385
20.2453
20.1248
20.0962
274.737
182.594
88.6942
63.5657
53.4189
47.4967
55.6589
64.2971
67.4713
79.6089
44.4528
23.1338
20.9795
20.7022
20.4051
19.9852
19.5976
19.3576
19.2006
19.0765
241.044
115.443
93.7293
64.003
48.5365
41.9558
40.5259
33.3172
33.5105
26.4919
23.7516
22.5422
21.9716
21.857
21.5561
21.1503
20.7634
20.2217
19.7848
19.0821
267.659
147.974
101.826
84.5455
62.5496
44.6835
37.9336
33.8778
30.5266
28.6722
27.4032
27.7878
27.6645
27.7556
27.1669
26.2441
25.2808
23.9435
22.7959
20.6397
233.013
152.928
96.7255
68.1734
49.9229
38.4923
36.2836
33.8968
32.4578
31.9889
31.5018
31.5825
31.3283
31.1429
30.5067
29.7001
28.8034
27.3494
26.0945
23.0605
232.263
100.462
68.8299
54.409
47.8666
38.8331
37.0044
33.8878
32.7132
32.0046
31.3687
31.1553
30.7138
30.47
29.8793
29.3835
28.7153
27.3114
25.8594
22.7621
440.921
146.127
82.149
64.7415
55.5661
43.3614
35.918
32.0646
30.183
29.2919
28.5007
28.3158
27.8699
27.8025
27.4133
27.0845
26.4394
25.2697
23.8953
22.2039
324.525
200.226
94.0965
77.9232
65.5148
55.4301
44.1538
38.2776
32.7016
31.0955
28.8599
28.3789
27.4779
27.4458
27.2235
27.0651
26.6479
25.8914
25.1146
24.39
111.304
111.883
89.0656
76.9302
70.5739
61.0925
51.5865
44.7069
39.2734
35.5422
32.5334
30.3149
28.5162
27.2679
26.2132
25.6261
25.2579
25.0073
25.1239
24.8094
66.5432
57.5355
60.4496
67.0309
66.7722
61.6053
54.6753
48.9181
43.8283
38.9218
34.775
31.3405
29.0308
27.3242
26.4525
26.0119
26.0895
26.1301
26.0699
25.5734
193.779
97.2489
70.3398
54.581
52.0717
43.3171
42.7733
39.1912
37.998
35.9632
34.5778
33.5247
32.4955
31.7406
31.1459
30.6779
30.26
29.7602
29.3665
29.1427
136.395
151.191
112.836
61.0181
50.7555
41.2558
40.619
37.8879
37.4107
35.4963
34.4187
33.19
32.4088
31.6939
31.1743
30.6112
30.1469
29.5462
29.0926
28.7066
153.444
164.401
105.908
60.3052
48.994
38.7715
37.7108
34.1541
34.3026
32.8872
32.676
31.8197
31.4659
30.8859
30.4707
29.9575
29.5688
29.1163
28.8509
28.5581
226.969
133.639
88.4406
63.6542
54.0032
42.1375
39.3598
35.2334
34.5925
33.0473
32.6333
31.731
31.271
30.6368
30.2079
29.7462
29.4541
29.1471
28.9959
28.8359
171.951
125.233
81.1607
59.2616
51.6153
40.5281
38.2646
33.9554
32.5412
31.1444
30.6095
30.0499
29.6921
29.3623
29.124
28.893
28.7698
28.6347
28.6027
28.6355
255.692
116.913
74.9351
58.8277
53.4451
43.5191
40.0726
34.0715
31.8857
29.8924
29.3544
28.7653
28.5857
28.2598
28.0114
27.8207
27.7283
27.6086
27.5824
27.562
414.97
232.972
91.9338
60.9699
54.291
45.4338
43.0864
35.8129
31.9113
28.9807
28.0387
27.3341
27.1005
26.8243
27.1163
26.375
26.0529
25.7705
25.6281
25.4795
278.553
145.447
87.2765
62.8415
52.8745
48.0274
46.6497
37.4882
31.8757
28.7617
27.3062
26.5323
26.0322
25.8204
25.9545
25.4554
24.5777
24.2552
24.1645
24.2421
205.853
110.404
86.2636
62.4158
50.4938
46.9091
43.4885
37.7276
32.6415
29.5281
28.7829
26.7391
25.8379
25.546
25.8075
25.1998
24.3229
24.2023
24.3336
24.5942
333.197
116.161
84.0663
61.1528
52.27
47.4361
44.0697
41.4373
43.4203
48.0994
57.6816
37.9235
29.9219
27.3844
26.6614
25.5967
24.6937
24.5861
24.7106
24.935
264.616
116.412
70.0665
56.5066
51.7273
54.1882
50.7831
49.4093
58.0489
66.332
65.2536
28.2302
26.7144
26.0855
25.8109
24.6228
23.7958
23.6275
23.6867
23.8778
140.241
191.808
107.532
59.8525
51.4022
44.8741
49.9293
49.8448
57.232
57.2391
32.6111
26.1251
24.6835
24.0996
23.727
22.8913
22.5785
22.5349
22.5824
22.7269
246.236
127.172
75.4684
57.0288
46.5726
40.2219
38.1134
32.0568
31.8343
26.6934
26.0841
24.4948
24.3381
23.8416
23.54
23.1357
22.8979
22.6396
22.4714
22.4048
227.668
131.743
88.3421
65.9471
50.7032
39.8014
37.8517
33.1365
31.1473
29.2629
28.5742
28.4816
28.0431
27.74
27.032
26.3219
25.5481
24.5874
23.7701
22.9968
240.945
137.657
88.1167
57.962
45.7008
37.1704
36.9959
33.4518
33.2377
31.9304
32.0221
31.4824
31.2093
30.558
29.8535
28.9328
28.0156
26.7767
25.7345
24.4281
265.934
120.085
70.1953
55.3368
45.5808
37.5634
37.3494
33.524
33.5326
32.072
32.0047
31.2833
30.9772
30.3914
29.8201
29.0901
28.2995
27.0802
25.9788
24.7338
256.112
131.498
81.9031
63.04
54.9763
40.9692
37.2577
32.4216
32.1618
30.6262
30.6043
30.0449
29.9041
29.5642
29.1733
28.6153
27.9562
27.0999
26.3134
25.9293
392.751
135.265
90.3116
76.9675
66.8194
52.5026
44.5273
38.0417
35.1238
33.2141
32.0416
31.2979
30.6977
30.4728
30.1551
29.9444
29.5501
29.3829
29.38
29.8765
49.9067
55.8654
73.1353
77.3248
72.2741
59.0676
49.0289
41.5515
37.0524
33.6646
31.4181
29.4186
28.002
26.9895
26.4075
26.1596
26.2065
26.241
26.3797
25.212
48.8219
61.3441
70.4163
70.5552
65.1096
57.3192
50.5974
45.2474
39.7277
34.9873
30.962
28.519
27.2828
26.5427
26.2815
26.1028
26.2194
26.0274
25.9393
25.4138
225.957
124.647
82.1718
73.8904
63.2112
51.7095
50.742
43.5087
44.4156
40.9114
41.3014
39.34
39.1233
37.9979
37.6784
37.0141
36.6865
36.3866
36.3967
36.6213
200.21
148.956
106.24
66.7745
59.498
48.4032
47.7121
42.264
42.7605
39.8829
39.7922
38.2858
37.9447
37.086
36.6934
36.0809
35.7177
35.3451
35.2232
35.1505
202.005
172.881
111.371
68.0075
55.3687
47.8183
43.1053
40.3266
39.1969
37.9003
37.5966
36.8953
36.6265
36.1465
35.8433
35.4558
35.2112
35.0122
34.9796
34.8926
441.281
178.223
91.22
74.8629
59.3959
49.4111
44.9031
40.6331
39.5444
38.0037
37.4224
36.7092
36.268
35.837
35.5299
35.2818
35.1516
35.0615
35.099
35.0721
221.37
160.484
91.1808
75.1386
59.1863
51.1886
43.496
40.1476
37.0619
36.5725
35.5009
35.3737
34.946
34.8681
34.7027
34.658
34.6806
34.7091
34.8864
34.9967
414.296
168.736
83.9619
83.5945
60.29
55.1236
45.0248
42.3411
37.0623
36.3809
35.0413
34.9672
34.6168
34.4955
34.1424
34.046
34.0713
34.0934
34.2424
34.2929
348.363
193.875
94.5204
78.5526
62.4395
61.1578
45.7421
42.0526
37.6151
36.0442
35.1803
34.75
34.5932
34.3207
34.8414
33.3861
33.1496
33.0012
33.0813
33.0692
393.408
203.677
100.321
83.1349
59.645
60.8409
51.0137
43.0621
40.1492
38.6071
38.2762
37.7548
37.6825
37.4479
35.9135
33.7727
32.551
32.4436
32.5044
32.5761
251.622
139
89.6782
80.4616
57.5343
59.6795
51.1755
45.126
42.7121
40.8625
40.023
39.9357
40.6701
40.3961
37.0352
33.8361
32.739
32.6475
32.8008
32.9019
211.826
144.019
88.8743
77.6498
57.2224
53.8656
49.1632
47.1511
47.3734
45.1919
42.2979
41.0227
42.3276
41.539
37.7288
34.1624
33.005
32.9168
33.0361
33.1135
285.111
153.335
92.8086
93.8954
62.8557
68.0645
53.3691
51.1387
55.0089
57.3837
46.106
41.641
41.6232
40.8905
37.0453
33.5484
32.347
32.2997
32.4215
32.5505
286.151
219.735
121.31
81.7372
62.9884
66.8298
52.9042
47.8329
48.733
43.8405
39.5776
37.0646
36.3883
35.152
33.2983
31.5768
31.4695
31.4473
31.6905
31.8139
452.462
170.076
84.9239
82.7925
55.4909
61.8478
48.8222
50.5952
41.0808
37.7519
35.0101
33.4218
32.661
32.1912
31.5732
31.3811
31.2637
31.3304
31.4595
31.5593
322.442
148.255
93.2098
82.2407
55.5676
59.5061
44.031
42.9578
37.2
36.6086
35.0125
34.6607
33.966
33.7011
33.1312
32.6545
32.2737
31.925
31.7921
31.6875
366.801
151.358
95.2666
77.2492
53.9099
53.8476
44.1788
42.2591
39.0741
38.3441
37.2728
36.8066
36.0991
35.5513
34.893
34.1927
33.5859
32.964
32.5914
32.4041
474.843
154.233
88.4389
96.0097
54.436
59.3238
44.38
42.7397
39.7624
38.507
37.7546
36.9492
36.405
35.7406
35.2212
34.5288
33.9855
33.3432
32.9623
32.7243
329.862
154.624
94.444
86.4934
64.2818
53.6138
46.2325
41.5176
39.8096
37.9943
37.5576
36.769
36.4492
35.913
35.5509
35.0277
34.6805
34.3854
34.2569
34.2299
354.414
139.964
97.2947
88.8804
71.0111
57.1642
51.2874
44.6115
42.728
39.9607
39.5385
38.4222
38.4779
38.0442
38.1288
38.0236
38.2165
38.6468
39.024
38.9272
31.03
60.0225
81.0599
80.5984
67.6486
52.338
42.7502
36.6371
33.5398
30.8429
29.0462
27.2318
26.4474
25.4639
25.2272
24.5652
24.508
23.7914
22.9991
21.7699
27.5924
50.2972
74.1624
28.7264
28.4194
48.1327
74.0661
25.2238
67.8695
44.9581
28.1101
26.3377
70.9197
47.2436
99.4367
62.5993
65.5809
55.9522
97.165
64.2487
69.0718
48.6845
72.2535
38.3013
93.5773
52.2359
67.0436
31.6885
241.928
312.906
239.527
92.6901
84.6701
82.8642
77.1651
185.643
200.296
169.577
84.0303
61.4683
77.2625
53.3023
195.069
177.017
190.279
53.5506
42.1309
46.9632
39.7972
179.976
188.789
177.552
40.4473
36.4102
38.7218
36.3953
159.45
172.914
156.684
35.773
33.0765
35.7773
33.0295
150.467
153.155
146.519
32.8499
31.2062
32.0671
29.58
142.719
144.263
138.55
31.3025
30.2959
29.0833
27.7649
135.12
136.428
130.955
30.4815
29.2077
27.4956
25.8547
237.886
321.021
287.193
76.5284
72.1238
75.6073
70.4605
168.809
273.649
183.962
72.5924
53.2961
70.7851
73.2995
183.058
174.63
160.919
46.8402
39.5195
69.3797
47.3134
171.361
161.521
166.649
38.5792
36.1173
48.1173
48.1072
154.607
160.207
136.538
35.399
32.8862
44.1702
33.5609
144.171
134.392
130.675
31.9664
29.5347
32.1952
29.7718
135.471
128.787
121.073
28.9332
27.4469
29.0779
27.0202
127.197
117.936
107.721
27.0678
25.4107
26.4151
23.884
312.988
363.177
348.266
79.4879
72.6471
81.4586
74.5036
205.576
353.415
343.297
72.0568
78.5477
73.2187
73.6021
151.283
313.774
219.32
77.6207
57.3813
76.6655
72.695
173.698
226.552
177.608
58.2423
60.822
68.7718
84.0086
135.071
167.994
171.541
56.8542
34.9653
87.417
51.6857
124.385
137.838
111.196
32.3073
29.3762
38.6806
28.0241
114.366
111.468
109.907
28.7232
26.6433
27.0644
25.0886
103.514
108.831
108.145
25.993
23.4853
24.5408
22.7153
347.363
325.324
285.629
82.9452
74.7449
93.4625
80.728
353.367
293.099
311.122
73.4629
72.9012
79.8254
81.131
267.194
315.158
307.118
74.2983
74.3583
80.9376
81.0114
202.77
299.54
183.073
70.4874
88.9192
82.7361
116.812
172.81
181.959
137.123
95.0919
52.8774
113.586
38.68
107.977
122.098
109.886
38.9303
27.8168
32.0853
26.225
110.264
111.589
111.752
26.7961
24.9392
25.8145
25.2815
112.109
114.025
113.652
24.4546
22.8698
25.5336
25.1574
75.7096
71.5339
68.404
59.3456
55.0427
54.5134
51.9437
53.6157
68.6447
48.4143
52.5418
39.3265
50.9908
38.4502
36.9169
42.5303
35.2137
35.9235
30.0138
34.9771
29.4852
31.8884
34.0757
31.853
28.793
26.5075
28.4435
26.5935
29.189
31.2733
28.9297
26.0089
24.657
26.1042
24.4037
27.5708
28.1344
26.0983
24.4529
23.5751
23.8571
22.4699
26.7743
25.6623
24.5568
23.4726
22.9893
22.1424
21.3795
26.0118
24.3196
23.2805
22.9833
22.6123
21.2094
20.7558
63.576
65.0256
62.1603
51.1387
48.8153
50.3221
48.3243
48.3678
62.4908
65.1093
48.2261
38.5362
48.4021
48.8408
35.2548
61.7962
44.4774
35.2059
29.9511
46.4991
41.6846
31.9529
45.3317
46.1016
29.0152
27.7079
44.9676
55.567
29.0553
42.2272
31.2871
27.2479
25.3085
50.7221
36.5686
26.1343
29.9357
27.5782
24.5704
22.7043
34.9783
29.3192
24.2971
26.8192
24.5617
22.2377
21.2065
27.3565
22.9911
22.8305
23.9167
21.8766
20.9613
20.3536
22.0855
20.3027
64.0845
70.2376
66.1244
52.4528
50.3645
56.6512
54.4002
69.1613
65.2774
66.173
50.3137
52.8668
54.2534
56.8167
53.7715
68.7593
67.3386
52.5333
50.1612
58.9623
62.1574
58.4951
64.7808
72.6109
54.7482
68.1207
62.1044
64.3372
32.8286
79.1391
49.7617
62.5191
37.9383
72.2942
41.399
27.4172
35.8165
25.5687
35.4246
30.7127
30.5145
24.2297
24.589
24.8114
23.1825
28.9415
24.1138
23.7915
22.1772
21.7257
22.658
21.1527
22.9481
20.6036
21.5602
20.1863
66.8115
80.3873
73.3961
59.413
55.8711
63.9056
62.6464
65.9488
73.3472
75.4193
55.6813
57.8256
64.1768
68.2355
68.3544
75.1341
75.119
59.6989
62.9042
68.0655
69.5313
76.4921
76.232
104.6
62.7161
66.5129
70.8423
89.8061
51.2063
105.021
36.8918
76.1257
42.8634
90.1109
31.3053
25.2664
29.8099
24.1705
30.4114
23.0865
25.8687
21.7504
22.825
23.6739
23.1915
22.5309
21.3016
21.3222
20.9128
21.2094
23.2783
22.9398
20.886
20.0296
20.8738
20.4946
50.15
51.1766
48.142
47.941
41.0876
45.5728
40.8691
36.7008
46.8067
36.363
38.6718
33.0573
39.1357
33.3458
29.1027
33.5587
28.7676
31.7037
28.7828
31.9156
28.8678
25.9763
27.8023
26.1309
28.0202
26.6335
28.1497
26.909
24.3242
25.6746
24.1027
26.2892
25.521
26.5404
25.3327
23.3539
23.597
22.3391
25.3681
24.8528
24.9783
24.2585
22.8292
22.0439
21.3776
24.7581
24.5295
24.1135
23.8152
22.4863
21.2307
20.8586
24.4919
24.2412
23.7375
23.5123
45.6327
47.7064
45.4896
43.8613
39.7955
43.1379
40.3723
36.503
45.4196
45.2885
38.4469
33.6049
39.9855
39.5414
29.2867
43.532
41.7556
32.272
29.3322
39.157
39.873
32.1218
28.0085
30.6769
28.2196
31.5066
27.9415
30.6263
33.3522
26.6795
32.5727
27.4163
31.6413
26.9187
34.3269
22.5999
41.1537
30.938
25.6794
24.4078
41.1543
30.3904
21.2187
28.2583
23.2002
24.1678
23.7347
28.499
25.3757
20.4923
22.2793
20.6111
23.6319
23.33
24.8544
23.8857
47.587
54.3408
52.2927
44.7789
42.3865
50.0355
48.1891
49.447
52.2693
55.476
42.156
43.5445
48.4576
53.5669
50.2458
57.7654
62.3138
44.1778
46.908
56.3426
63.1481
72.0507
101.268
59.6909
70.9418
67.7668
191.757
60.945
56.8707
74.5343
64.3601
183.563
56.3826
165.61
65.8678
33.1914
29.454
24.619
43.6705
31.8146
28.4029
26.4936
24.4636
24.1659
22.4273
29.8084
26.204
26.0796
24.9559
20.9769
21.8208
20.5653
25.5243
24.238
24.6067
23.8279
53.87
60.5625
60.8446
51.8297
49.7666
54.0336
55.3325
56.8806
62.5267
66.8729
50.1861
55.7207
56.7982
61.6
63.1887
66.9538
70.0551
58.4946
65.1742
63.3197
73.0149
67.6238
71.763
88.1352
66.1706
72.1958
75.3813
74.6544
39.3482
86.7967
29.7703
70.939
31.5196
61.8113
27.8671
23.1953
25.2838
21.745
27.5076
25.2526
25.8843
23.832
21.5187
21.3418
20.9773
24.9341
24.2843
23.4579
23.2759
20.3632
20.9169
20.522
24.0419
23.5152
23.0926
22.6697
39.7254
44.9403
39.8401
48.1357
41.0867
47.8533
42.116
32.9483
38.146
33.4103
39.1917
36.5475
40.7026
38.1235
29.4459
32.2801
29.6938
36.1892
34.8896
37.6488
36.0787
27.5988
29.054
27.9179
34.3201
33.975
35.643
34.9734
26.6918
27.5804
26.5415
33.9199
33.7198
34.7954
34.5568
26.1173
26.273
25.8538
33.4496
33.4442
34.6872
35.3648
25.8766
25.7779
25.6154
33.3834
33.4116
35.4101
35.3805
25.5903
25.5536
25.34
33.2265
32.4478
35.3013
34.0786
39.0879
42.6333
39.7789
47.0768
42.0224
45.3274
42.6622
33.6986
39.3449
38.9815
40.7908
38.4925
42.2058
41.7994
30.0965
38.7911
38.6563
38.0067
36.2474
41.5504
39.9759
29.0853
41.7488
52.4551
35.8094
35.2053
39.7486
39.6798
27.2631
50.3532
39.0942
34.9843
34.4502
39.0076
36.5079
25.9583
36.438
30.1432
34.5357
35.6239
36.1119
36.989
25.6176
29.0378
27.1678
35.7395
35.7113
37.1782
36.9199
25.2766
26.819
26.0438
35.6239
34.2576
36.7282
35.0387
41.6762
49.2345
47.4306
45.9074
43.8628
49.8993
48.0896
42.7598
47.7643
53.0731
43.6446
44.2346
48.2831
51.6003
44.8049
55.774
62.5133
44.3752
43.2835
53.1683
56.4157
60.9026
63.8181
66.4064
42.7472
41.036
56.6214
49.9775
41.3044
60.8787
31.0903
39.8089
36.9697
44.4135
36.3428
31.0776
28.9455
27.8534
36.5059
37.3892
36.2388
37.2097
27.8323
27.6052
26.9052
37.5649
37.2105
37.2488
36.8677
26.388
26.635
25.9534
36.9859
35.2296
36.6478
35.0386
48.8999
52.4229
53.4804
51.026
48.9461
52.6378
50.2221
55.2699
54.5291
59.0905
49.2339
52.9876
49.6574
51.7928
64.9965
61.3676
72.0598
54.7849
59.2222
54.072
59.0973
70.3409
73.7033
66.396
59.7844
53.0563
58.0655
45.8074
30.8302
53.234
28.6943
46.2931
36.7497
40.8036
36.5979
26.9177
27.1612
25.4348
36.4867
36.9363
35.4244
34.6823
26.2971
25.0813
24.9475
36.8626
36.4746
34.3606
34.0842
25.5804
24.7058
24.2817
36.2507
34.6893
33.5456
32.3754
45.0533
51.405
46.191
67.938
69.1978
71.3633
69.0694
40.3611
44.9222
42.642
66.7702
62.529
69.3421
69.0076
39.2291
42.2926
41.1435
62.3771
66.7342
69.801
76.0054
38.3121
40.7578
40.1959
66.0629
65.3928
77.4222
79.3031
38.1095
40.0426
39.8606
65.3876
67.3957
79.2736
78.4415
37.768
39.9018
40.2831
66.3795
65.9364
77.1611
73.985
37.7074
40.2814
40.1616
65.6024
66.9363
73.7186
73.8946
36.2057
40.0574
38.0995
66.319
61.4375
73.8626
67.7614
46.2548
49.2186
46.6774
74.154
70.2823
75.2582
72.4919
43.0619
46.2307
45.6023
70.5575
70.7553
73.4375
76.1047
41.3024
45.3841
43.6156
72.302
79.9675
79.3148
91.4932
40.2191
43.1295
42.5086
81.9198
84.1344
94.6294
95.9158
39.7614
42.0479
40.6387
84.01
82.3115
95.1913
91.8149
40.6121
40.7283
41.9158
80.7954
76.2804
89.4698
82.1881
40.5148
42.0152
41.5706
75.598
75.4725
80.2425
78.5482
38.2474
41.348
38.8905
75.4493
68.4119
78.3
70.2637
47.3534
52.2155
50.4284
72.6392
72.2028
70.469
71.9282
47.3129
50.4734
52.6588
73.5753
77.065
73.6029
77.2062
45.9983
53.8446
55.5418
80.5824
93.8384
80.4662
92.3167
43.0916
55.1007
48.5468
96.839
96.0098
93.3558
85.9195
40.9442
44.9875
41.36
94.586
91.0669
83.486
81.4927
42.251
41.5428
42.0564
89.0271
82.3756
80.5662
77.4394
41.7884
42.0086
41.4608
80.4938
78.7435
76.8444
76.8689
39.0351
41.2305
38.9385
78.4563
70.1819
76.7714
69.4693
51.0681
55.7854
52.6235
72.2128
72.9921
83.9268
85.5139
53.6161
51.1249
51.7883
74.3722
77.6121
82.4724
77.7264
57.5726
53.7486
56.2895
80.6545
91.6517
82.6084
92.7604
50.3107
54.4115
45.162
91.7161
81.8808
87.6963
75.298
41.7498
42.6721
40.815
79.4811
78.5556
73.1074
74.5529
41.7849
39.6905
39.1243
77.7449
75.6737
72.0014
72.3008
41.1219
38.7886
38.4908
75.6062
76.1794
71.6418
74.3359
38.6539
37.8926
36.2958
76.0922
69.5235
72.7517
66.1526
33.8867
27.8094
33.0225
27.7606
32.6384
27.8771
34.6073
49.2705
36.4909
75.2781
58.5895
43.0893
37.5331
132.256
59.9308
50.5251
80.6916
158.526
48.8133
64.9883
166.094
32.372
28.3127
28.5435
30.7423
28.1251
30.6655
32.0096
34.1905
28.038
28.5157
33.8145
28.1184
34.8703
33.3721
50.5903
59.3958
36.0931
69.1295
37.687
137.954
43.4055
60.4784
156.279
50.3575
74.5686
64.1849
169.16
48.7592
31.5204
25.9798
28.6364
25.4055
30.2267
26.1962
29.4305
60.8387
48.778
60.4676
151.263
45.9395
64.2043
142.332
51.8683
36.9264
52.122
58.6517
42.0302
41.2075
98.387
33.6433
27.7173
27.6634
33.5384
27.2401
34.5963
32.7181
31.8228
25.7666
27.0238
29.5542
26.5367
29.7029
31.2506
59.9633
145.783
49.54
65.2169
62.9305
139.033
47.2872
51.6763
58.9108
37.667
55.8204
41.315
99.255
43.0476
69.1264
106.53
66.0688
192.467
66.158
190.565
68.6728
63.0973
61.4796
62.3761
63.3341
62.4873
61.7293
63.3396
63.7451
65.406
62.3725
67.8158
62.5873
66.2568
63.8367
67.2346
74.1789
82.6158
56.3792
186.184
59.8863
60.2362
67.235
188.627
91.6581
59.8135
191.446
66.6174
60.9471
62.9915
63.9802
60.7743
65.1103
61.5269
64.3625
62.202
64.246
69.4186
63.3641
66.8851
65.726
65.6411
63.3529
45.9245
64.9799
36.4902
69.277
44.6743
145.435
38.2171
60.7219
68.5852
71.1644
71.9953
64.9589
67.0886
68.2418
45.3021
36.1087
57.1193
35.5028
49.7722
34.7021
50.9944
53.1698
177.273
83.3919
54.8408
159.178
62.4561
46.979
44.4753
67.4443
70.2748
37.4091
133.534
38.7473
40.9047
54.5082
70.5725
58.9794
55.4097
64.0528
62.9042
48.0318
41.1995
33.225
32.4712
39.9572
33.4495
44.889
37.8359
135.899
169.531
148.534
94.1252
83.6258
95.9935
90.1342
125.209
129.338
121.655
75.2964
64.52
81.4663
67.4053
116.921
121.434
121.622
59.0615
50.2129
57.3376
52.3658
116.764
116.976
112.971
47.8906
46.3206
47.5012
44.3249
106.024
108.17
104.183
44.6786
41.6215
42.5893
40.8322
104.278
100.748
98.6553
43.4147
42.6355
40.0183
38.9711
98.9341
96.7201
94.3482
42.9386
40.9735
38.6708
37.7692
96.0895
93.3962
89.523
42.6465
39.8244
37.5622
33.9688
206.221
225.436
208.674
117.108
104.553
110.18
97.0745
147.655
279.854
317.062
176.707
145.387
178.116
284.165
111.488
193.233
225.792
122.644
113.314
123.273
201.659
79.0174
194.484
187.909
87.2915
81.7397
82.348
194.084
71.6557
191.205
195.164
77.2937
73.8182
74.4368
192.671
64.2456
169.765
176.015
67.4717
63.8154
67.0771
171.432
57.6283
156.234
157.309
61.7801
59.648
59.9064
155.637
54.1302
148.405
148.278
60.1249
58.0769
55.6771
147.296
52.036
142.341
141.18
58.9389
57.2367
53.2609
140.486
86.946
87.0678
80.0711
36.3545
34.0824
31.6251
28.8135
206.351
214.217
207.777
95.223
87.3054
95.6367
88.4597
124.598
280.023
307.039
151.651
126.914
146.659
281.799
109.501
171.836
210.132
117.641
106.558
116.186
180.173
71.9625
180.735
174.105
72.0689
70.3247
75.9977
175.066
66.6192
177.726
170.997
68.7394
67.5319
67.9115
169.021
60.0626
163.053
159.649
63.8636
62.4049
61.6809
156.214
55.411
148.846
147.196
57.762
56.2243
56.7418
145.092
51.1998
139.897
139.037
52.7575
51.7858
52.2037
136.885
47.4877
130.878
129.564
49.2934
48.4516
48.4954
126.975
74.8609
72.6023
65.5857
29.3424
27.5273
27.1657
24.1487
218.606
231.366
223.928
107.955
94.609
109.044
95.5472
140.984
315.308
347.637
165.344
138.351
169.348
320.327
123.392
295.425
324.561
120.673
122.652
123.317
320.374
120.353
165.861
200.728
121.854
97.9932
137.371
172.284
104.96
162.843
159.271
84.7639
84.9739
100.651
162.681
80.7768
166.504
178.477
75.8095
67.4825
91.3584
180.493
50.8652
127.456
126.668
52.5014
51.0064
53.3719
121.891
45.2912
119.932
117.195
47.8815
46.8069
46.6307
115.205
40.8168
109.048
108.147
43.6368
42.3398
41.9327
106.309
62.3346
70.0749
67.1105
25.5627
22.5563
25.764
23.6948
219.252
205.249
202.446
99.7999
100.708
102.986
103.398
144.855
336.403
342.319
167.424
141.176
172.679
320.234
126.588
356.637
341.966
126.818
126.322
126.96
348.67
126.025
314.331
347.517
126.726
127.233
125.995
334.328
116.766
264.057
298.931
104.181
102.718
114.833
290.65
108.035
178.347
173.802
141.532
107.535
148.134
176.153
50.5595
117.814
136.551
56.9106
51.4639
55.2844
116.967
43.9476
109.413
107.627
45.0528
44.0058
44.5547
108.456
41.6338
110.974
111.584
41.3722
40.8103
42.0117
112.668
72.2179
77.1016
71.608
27.3342
25.3072
29.4377
27.4148
177.721
173.415
163.188
98.4518
90.1036
94.1223
88.2327
164.965
140.021
120.489
88.6843
91.2435
93.3513
83.5999
164.031
107.587
111.505
92.8959
97.9651
76.2459
83.3259
119.519
105.028
95.784
105.995
105.827
80.2761
59.5867
89.7871
87.29
76.7773
74.9169
44.3973
43.1999
32.7236