/*--------------------------------*- C++ -*----------------------------------*\
  =========                 |
  \\      /  F ield         | OpenFOAM: The Open Source CFD Toolbox
   \\    /   O peration     | Website:  https://openfoam.org
    \\  /    A nd           | Version:  10
     \\/     M anipulation  |
\*---------------------------------------------------------------------------*/
FoamFile
{
    format      ascii;
    class       volScalarField;
    location    "8.4";
    object      p;
}
// * * * * * * * * * * * * * * * * * * * * * * * * * * * * * * * * * * * * * //

dimensions      [0 2 -2 0 0 0 0];

internalField   nonuniform List<scalar> 
12920
(
-1.02677e+06
-877338
-817376
-733584
-728426
-654389
-645475
-586724
-562977
-512319
-476325
-427674
-385133
-335976
-289810
-239795
-190884
-139706
-92093
-44517.2
-924113
-762621
-804257
-721880
-718657
-652188
-643223
-585949
-563526
-512661
-476770
-428121
-385382
-336057
-289700
-239520
-190577
-139445
-91590.2
-44040.7
-762771
-751824
-792693
-722570
-727295
-661356
-646862
-592735
-567539
-516913
-479705
-430579
-386907
-337245
-290321
-239787
-190512
-139248
-91067.1
-43296
-914000
-767427
-787363
-726011
-728838
-669998
-650467
-597847
-567557
-521087
-483709
-433572
-389150
-339052
-291506
-240627
-190900
-139220
-90374.2
-42449.9
-666675
-739033
-766179
-729311
-735081
-681368
-665552
-612466
-579308
-530161
-489633
-439338
-393492
-342453
-293737
-242020
-191590
-139225
-89844.8
-42000.2
-782618
-753079
-778927
-743457
-738724
-695443
-673708
-627124
-588936
-539651
-494667
-445472
-398188
-346445
-296279
-243714
-192339
-139523
-89620.7
-41631.8
-661131
-737310
-794079
-764839
-768753
-723804
-700161
-646417
-607279
-552611
-504178
-452903
-404287
-351775
-299830
-245767
-193452
-139831
-89571.9
-41456.2
-662112
-743578
-827876
-792022
-791706
-748861
-722701
-675592
-629637
-575862
-523362
-469122
-418746
-365841
-303811
-247891
-194504
-140253
-89324.5
-40952.8
-390132
-809012
-866233
-835287
-839500
-781086
-751358
-701119
-649638
-596390
-540409
-485689
-431943
-377440
-315441
-251779
-196544
-141566
-89223.5
-39254.5
-1.0408e+06
-1.00935e+06
-1.01025e+06
-902891
-889807
-824028
-776789
-723458
-668858
-611343
-550975
-495930
-441236
-385324
-322826
-254969
-199482
-143086
-89152.4
-39245
-1.02222e+06
-1.08494e+06
-1.08376e+06
-962628
-943757
-862826
-807684
-745946
-688622
-629414
-563085
-507016
-451071
-393834
-329169
-259117
-202602
-144250
-89559.5
-39984.5
-1.33015e+06
-1.16592e+06
-1.16101e+06
-1.0271e+06
-987598
-892224
-834226
-769689
-705852
-644489
-583324
-520789
-462732
-402740
-337156
-263720
-205139
-146310
-91363.5
-39289.3
-1.53105e+06
-1.28964e+06
-1.23533e+06
-1.09004e+06
-1.02627e+06
-915087
-860061
-784322
-720480
-653455
-589577
-526762
-464856
-403103
-326662
-266663
-208242
-149223
-93203.6
-39478.3
-1.56363e+06
-1.35703e+06
-1.28302e+06
-1.12194e+06
-1.05619e+06
-940768
-869741
-784135
-724631
-649170
-584532
-515334
-453524
-389575
-330597
-269801
-212088
-152548
-95491.5
-40477.6
-1.77225e+06
-1.40915e+06
-1.31987e+06
-1.14475e+06
-1.06543e+06
-962913
-889861
-805584
-734952
-656269
-589999
-521220
-458004
-395735
-335955
-274602
-215732
-155961
-98172.1
-43171.3
-1.46069e+06
-1.3231e+06
-1.31466e+06
-1.12279e+06
-1.0462e+06
-950676
-889343
-800238
-737490
-659513
-596677
-526029
-464230
-399454
-339868
-278053
-219150
-158395
-100669
-44167.4
-1.63111e+06
-1.36633e+06
-1.24808e+06
-1.08821e+06
-1.03114e+06
-933445
-882814
-795532
-738044
-663033
-599706
-529762
-468236
-403095
-343151
-281127
-221661
-160723
-102140
-44603.8
-1.45798e+06
-1.2764e+06
-1.17694e+06
-1.06519e+06
-1.0027e+06
-916585
-864872
-784095
-731437
-657529
-599568
-529703
-469654
-403887
-344641
-282074
-222680
-161494
-102963
-44778.1
-1.12445e+06
-1.05733e+06
-1.08281e+06
-1.02096e+06
-994119
-906944
-856010
-777558
-723184
-651594
-594624
-527306
-468639
-404437
-345084
-282397
-222574
-161209
-103569
-45782.1
-973690
-1.03391e+06
-1.04229e+06
-999741
-971533
-895619
-850997
-774736
-721880
-650349
-593751
-526627
-468529
-404518
-345272
-282473
-222574
-161288
-104483
-46435.6
-1.09181e+06
-887783
-826356
-732702
-729311
-655035
-645987
-587198
-563318
-512489
-476566
-427864
-385281
-336090
-290015
-240066
-191197
-139680
-91520.1
-43320.8
-882964
-824904
-815286
-723421
-720026
-653148
-642509
-586448
-563812
-512728
-476740
-428147
-385420
-336135
-289821
-239670
-190731
-139264
-90986.1
-42797.2
-818329
-763231
-801119
-721266
-728264
-661860
-647225
-592715
-567532
-516732
-479655
-430565
-386925
-337271
-290331
-239841
-190511
-139168
-90671.5
-41934.8
-820931
-768869
-791279
-727647
-728683
-668997
-650944
-597521
-568297
-520673
-483154
-433583
-389047
-339087
-291545
-240701
-191013
-139191
-89996
-40994
-747705
-748041
-767190
-729604
-734989
-681803
-665417
-612055
-579358
-530174
-490067
-439380
-393479
-342508
-293820
-242070
-191680
-139146
-89410.8
-40570.5
-699957
-755403
-778557
-745526
-738310
-695395
-673562
-626042
-589251
-539490
-495649
-445456
-398171
-346411
-296333
-243716
-192374
-139330
-89031.1
-40045.1
-623499
-754439
-799531
-765327
-769521
-723963
-700207
-646403
-607458
-552279
-504593
-452983
-404395
-351732
-299823
-245699
-193479
-139625
-89043.4
-39639
-730342
-788974
-832847
-792957
-792480
-749456
-722982
-674405
-628743
-575246
-523500
-469655
-418862
-365686
-303890
-248082
-194794
-140296
-88945.4
-38937.1
-544091
-839526
-877364
-835287
-842818
-780945
-751971
-700344
-649316
-596019
-540498
-485972
-432084
-377409
-315332
-251793
-196766
-141556
-88873.3
-37653.1
-1.24992e+06
-1.04736e+06
-1.0215e+06
-904972
-892411
-824946
-777537
-722879
-668656
-610789
-551447
-496056
-441443
-385488
-322782
-255085
-199628
-142838
-88710.9
-37488.6
-1.12625e+06
-1.08821e+06
-1.08794e+06
-963240
-947570
-863649
-808860
-745955
-687528
-628900
-564135
-507610
-451351
-394021
-329170
-259258
-202250
-143842
-89339.1
-38010.4
-1.2256e+06
-1.17153e+06
-1.15979e+06
-1.02549e+06
-988229
-893593
-835001
-769976
-705598
-644359
-583203
-521446
-462534
-402855
-336917
-263722
-204932
-146308
-90856.1
-37265.9
-1.43685e+06
-1.29077e+06
-1.23692e+06
-1.08951e+06
-1.02601e+06
-916338
-860128
-781768
-719392
-653712
-590383
-527322
-464712
-403186
-326879
-266630
-208419
-149206
-92535
-37036.1
-1.58302e+06
-1.35884e+06
-1.2836e+06
-1.11767e+06
-1.05615e+06
-937478
-870117
-782372
-725569
-651049
-586337
-515582
-454217
-390119
-331201
-269928
-212193
-152388
-94931.9
-38033
-1.66681e+06
-1.4078e+06
-1.31864e+06
-1.14216e+06
-1.06638e+06
-962042
-890633
-803234
-735272
-656730
-591073
-521784
-458717
-395678
-336109
-274682
-215846
-155880
-97829.7
-40952.5
-1.60791e+06
-1.35364e+06
-1.31369e+06
-1.11881e+06
-1.04781e+06
-950622
-891415
-799287
-738338
-658742
-596043
-525721
-464376
-399423
-339880
-278130
-219368
-158625
-100284
-42438.6
-1.62822e+06
-1.36724e+06
-1.24316e+06
-1.08831e+06
-1.03158e+06
-932304
-883343
-795002
-738176
-661903
-599265
-529725
-468290
-403216
-343292
-281263
-221902
-160843
-101896
-43051.4
-1.51049e+06
-1.28222e+06
-1.17702e+06
-1.06638e+06
-1.00259e+06
-917707
-865626
-784748
-731417
-656912
-598936
-529226
-469364
-403857
-344757
-282193
-222671
-161394
-102817
-43301
-1.20333e+06
-1.07064e+06
-1.0985e+06
-1.02572e+06
-992758
-907848
-856662
-778049
-723865
-651848
-594846
-527475
-468629
-404522
-345130
-282388
-222642
-161172
-103189
-44896.5
-1.13382e+06
-1.04152e+06
-1.0396e+06
-1.00137e+06
-972816
-896150
-851130
-774686
-721924
-650314
-593817
-526688
-468778
-404588
-345209
-282422
-222519
-161119
-104060
-45957.1
-977578
-868960
-828125
-731645
-730289
-656192
-646279
-587765
-563628
-512548
-476804
-428206
-385569
-336345
-290341
-240460
-191612
-139572
-90555.4
-40442.7
-899322
-807021
-819664
-720186
-721965
-654269
-642838
-587199
-564061
-512784
-476678
-428182
-385580
-336258
-290107
-239877
-191001
-139151
-90331.2
-39766.9
-788787
-759784
-810707
-721156
-730103
-662134
-648429
-592613
-567799
-516430
-479813
-430529
-387201
-337355
-290563
-239931
-190735
-139062
-90041.5
-38938.6
-877170
-770284
-795212
-728311
-728000
-666532
-651820
-596239
-569712
-520137
-483741
-433476
-389529
-339155
-291799
-240781
-191209
-139019
-89419.5
-38044.1
-824777
-759014
-769655
-728407
-735388
-680211
-665631
-609868
-579888
-529607
-490851
-439329
-393895
-342546
-294029
-242093
-191809
-138930
-88794.2
-37589.1
-768374
-758248
-780977
-747692
-738707
-693851
-673854
-624814
-590157
-539166
-496704
-445522
-398493
-346487
-296509
-243769
-192523
-139176
-88386.1
-37096.3
-705301
-724994
-805486
-766223
-771719
-722579
-700223
-645511
-607528
-552058
-505307
-453136
-404516
-351732
-299951
-245655
-193661
-139510
-88138.9
-36441.4
-764248
-794282
-835180
-794770
-793962
-749357
-722255
-673564
-627869
-574476
-523667
-470148
-419394
-366063
-303882
-248462
-195168
-140405
-88000.2
-34953.3
-588012
-849399
-883575
-833410
-845911
-780463
-752123
-699447
-648645
-595613
-540722
-486257
-432637
-378003
-315792
-252068
-197247
-141548
-87878.1
-34199.9
-1.36906e+06
-1.07387e+06
-1.02698e+06
-907853
-895147
-825981
-778372
-722666
-667630
-610829
-551876
-496534
-441766
-385859
-323148
-255322
-199956
-142526
-87646.6
-34016.2
-1.10883e+06
-1.08764e+06
-1.0863e+06
-964172
-950614
-864798
-809648
-746231
-686497
-625477
-565280
-508958
-451803
-393995
-329324
-259268
-202041
-143656
-88382.9
-34397
-1.33147e+06
-1.20418e+06
-1.15946e+06
-1.02652e+06
-986468
-897634
-836423
-770157
-705277
-644392
-583285
-522259
-462253
-402500
-336639
-263711
-205026
-146315
-89779.5
-34071.5
-1.33837e+06
-1.27793e+06
-1.23955e+06
-1.08933e+06
-1.02739e+06
-915843
-859679
-780710
-717439
-654245
-590838
-527219
-464281
-403267
-327020
-266877
-208623
-149302
-91454.6
-34263.9
-1.52924e+06
-1.33967e+06
-1.28867e+06
-1.11676e+06
-1.05656e+06
-935144
-870417
-783095
-725449
-653075
-589021
-517060
-454698
-390776
-331759
-270024
-212217
-152184
-93819.4
-35201.6
-1.79166e+06
-1.40507e+06
-1.32506e+06
-1.13808e+06
-1.0657e+06
-957854
-892703
-800278
-736674
-657010
-592271
-522299
-459712
-395614
-336315
-274677
-215860
-155654
-96674.1
-36966.6
-1.54313e+06
-1.35373e+06
-1.31083e+06
-1.11474e+06
-1.05102e+06
-949933
-894085
-799115
-740209
-657616
-596412
-525116
-464899
-399266
-339915
-278134
-219564
-158583
-99277.7
-39170.9
-1.54364e+06
-1.34748e+06
-1.23883e+06
-1.0858e+06
-1.02881e+06
-932028
-884227
-795059
-738688
-660103
-599469
-528898
-468353
-403120
-343538
-281297
-222198
-160815
-101053
-40015.1
-1.61541e+06
-1.27517e+06
-1.17428e+06
-1.06624e+06
-1.00188e+06
-917981
-867468
-785074
-732006
-655725
-598627
-528642
-469468
-404051
-345100
-282278
-222769
-161207
-101992
-40622.6
-1.1162e+06
-1.03935e+06
-1.10256e+06
-1.0328e+06
-993290
-908340
-857674
-778534
-724816
-651838
-595219
-527427
-468962
-404500
-345326
-282355
-222720
-161024
-102526
-42783.8
-1.10224e+06
-1.03646e+06
-1.03997e+06
-1.00156e+06
-973814
-897942
-852018
-775293
-722216
-650397
-594225
-527333
-469061
-404697
-345045
-282374
-222380
-160711
-103359
-45131.2
-1.02817e+06
-877317
-845092
-733044
-731723
-657504
-646622
-588513
-564007
-512635
-477152
-428586
-386152
-336726
-290810
-240675
-191640
-139272
-89780.9
-36417.2
-928735
-835370
-825913
-717220
-723593
-653892
-644864
-587194
-564650
-512776
-476924
-428136
-386076
-336295
-290418
-239979
-191141
-139205
-89762.3
-35230.6
-850147
-791503
-819253
-721231
-732061
-661529
-650776
-592307
-568474
-515883
-480078
-430134
-387640
-337358
-290936
-240069
-190968
-138979
-89311.3
-34797.9
-868106
-779063
-796121
-728192
-727368
-663315
-652812
-594643
-571286
-519829
-484582
-433375
-390280
-339270
-292109
-240914
-191396
-138896
-88604.2
-34381.2
-758732
-749017
-771495
-725433
-735561
-676987
-666133
-608458
-581080
-529018
-491375
-439202
-394415
-342575
-294289
-242158
-191946
-138876
-88047.7
-34087.9
-780134
-751276
-785609
-748932
-738468
-691514
-674388
-623208
-590895
-539050
-497112
-445583
-399025
-346555
-296874
-243821
-192650
-139069
-87604
-33750.1
-648634
-718474
-807525
-772321
-774447
-719844
-700363
-644372
-608019
-551988
-506117
-453170
-404506
-351746
-300122
-245872
-193857
-139503
-87237.5
-33218.5
-857686
-809247
-842243
-797647
-796175
-748829
-721333
-674826
-627140
-574786
-524060
-470658
-419745
-366320
-304040
-248656
-195454
-140344
-86909.4
-32292.1
-790994
-897284
-892425
-834452
-849516
-781804
-751888
-699633
-648356
-595629
-541178
-486671
-433051
-378563
-316640
-252599
-197709
-141464
-86624
-31472.3
-1.4663e+06
-1.10113e+06
-1.03019e+06
-912518
-897894
-829000
-779292
-722947
-667062
-610892
-552548
-496734
-441937
-386188
-324067
-255520
-200228
-142602
-86411.6
-31273.1
-1.2394e+06
-1.08948e+06
-1.09286e+06
-965272
-954215
-866911
-810830
-746852
-686179
-625639
-565915
-509332
-451839
-394223
-329703
-259377
-202436
-143891
-87240.4
-31627.6
-1.33134e+06
-1.2048e+06
-1.15829e+06
-1.02731e+06
-985174
-900224
-838280
-771012
-705311
-644613
-583212
-521620
-461745
-402382
-337094
-263870
-205331
-146388
-88757.9
-31776.2
-1.48793e+06
-1.26303e+06
-1.24498e+06
-1.08968e+06
-1.03189e+06
-912949
-857236
-783407
-715367
-655802
-590903
-527484
-464020
-403343
-327372
-267220
-208823
-149363
-90390.4
-32261.6
-1.4727e+06
-1.31929e+06
-1.28718e+06
-1.11536e+06
-1.05554e+06
-935641
-871063
-783470
-725337
-653394
-590731
-518556
-455582
-391594
-332285
-270259
-212278
-152099
-92770
-33203.5
-1.54729e+06
-1.38452e+06
-1.32408e+06
-1.13498e+06
-1.06468e+06
-956027
-895715
-798472
-738619
-657471
-593773
-522384
-460540
-395610
-336496
-274614
-215859
-155477
-95492.6
-34569.6
-1.37557e+06
-1.33562e+06
-1.30201e+06
-1.1107e+06
-1.05222e+06
-948704
-896797
-799209
-742265
-657184
-597588
-524691
-465279
-399169
-339988
-278034
-219572
-158342
-98256.8
-35737.6
-1.5153e+06
-1.33212e+06
-1.23525e+06
-1.08353e+06
-1.02706e+06
-932100
-884711
-795155
-739964
-659376
-599316
-528272
-468255
-402874
-343612
-281205
-222186
-160613
-100079
-36436.1
-1.52513e+06
-1.25248e+06
-1.17284e+06
-1.06731e+06
-1.00413e+06
-917948
-869520
-784897
-732940
-655249
-598299
-528094
-469665
-404157
-345313
-282200
-222689
-160912
-101006
-37138.8
-1.32244e+06
-1.03039e+06
-1.1073e+06
-1.03562e+06
-994330
-908548
-859461
-778529
-725669
-651454
-595618
-527283
-469357
-404296
-345565
-282331
-222785
-160811
-101772
-39332.4
-1.15914e+06
-993638
-1.0421e+06
-1.006e+06
-975482
-900487
-853043
-777352
-723089
-651142
-594803
-527944
-469362
-404585
-344935
-282240
-222158
-160054
-102626
-43974.7
-962602
-879310
-846827
-733404
-731999
-658492
-647077
-589167
-564901
-512452
-477334
-428349
-386406
-336658
-291121
-240678
-191508
-139127
-89422.5
-33488.8
-977407
-855815
-824313
-715293
-725243
-652554
-645603
-586803
-565695
-512330
-477899
-428082
-386555
-336362
-290837
-240059
-191414
-139286
-89407
-33126.1
-825030
-796381
-824254
-716067
-734812
-660719
-652452
-591547
-569144
-515367
-480623
-430093
-388112
-337432
-291361
-240193
-191193
-139041
-88814.1
-32727.2
-849403
-782017
-798420
-726010
-727542
-661748
-653654
-593906
-572088
-519472
-485100
-433357
-391079
-339336
-292372
-241012
-191585
-138957
-87989.5
-32365.6
-734526
-752914
-775454
-722939
-736263
-674897
-666792
-607226
-581943
-528642
-491847
-439149
-394915
-342614
-294537
-242257
-192098
-138905
-87412.9
-32052.9
-870561
-758444
-789912
-749320
-738478
-689934
-674996
-622726
-591602
-538954
-497246
-445679
-399111
-346649
-297137
-243919
-192763
-139091
-86983.7
-31880.5
-623409
-709776
-810875
-773249
-775670
-718894
-700593
-643875
-608116
-552037
-506464
-453360
-404552
-351807
-300147
-246124
-193965
-139522
-86530
-31388.3
-770692
-810379
-842514
-798576
-797436
-748005
-720441
-674765
-626927
-575210
-524396
-471143
-420054
-366974
-304188
-248905
-195588
-140353
-86065.2
-30628.2
-688885
-892885
-891357
-833623
-850107
-782932
-751256
-700137
-648325
-596010
-541622
-487270
-433394
-379240
-317553
-252761
-197860
-141425
-85835.9
-30095.5
-1.47789e+06
-1.11075e+06
-1.03031e+06
-913428
-899280
-830039
-780285
-723256
-666646
-610850
-553650
-497367
-442015
-386441
-325036
-255655
-200308
-142718
-85849.3
-29932.6
-1.00103e+06
-1.08094e+06
-1.09165e+06
-965915
-954767
-867608
-812267
-747571
-685697
-626602
-567503
-509247
-451566
-394273
-330533
-259444
-202717
-144309
-86576.6
-30197.5
-1.38384e+06
-1.22366e+06
-1.16006e+06
-1.02825e+06
-985366
-901254
-839815
-772058
-705383
-644885
-583189
-521313
-461489
-402227
-337606
-263959
-205561
-146498
-88114.9
-30622.1
-1.67416e+06
-1.28088e+06
-1.25488e+06
-1.08991e+06
-1.03329e+06
-913352
-856659
-783967
-713529
-657229
-590982
-528104
-463536
-403468
-327507
-267538
-208879
-149411
-89806.1
-31448.8
-1.50265e+06
-1.30685e+06
-1.29195e+06
-1.11389e+06
-1.05471e+06
-936120
-871848
-783460
-725427
-653085
-590947
-519034
-456310
-391890
-332724
-270560
-212424
-152089
-92217.2
-32609.9
-1.57323e+06
-1.37617e+06
-1.32181e+06
-1.13383e+06
-1.06395e+06
-955697
-897336
-798266
-739535
-657628
-594804
-522575
-461056
-395681
-336700
-274547
-215776
-155314
-94702.6
-33425.7
-1.29371e+06
-1.32425e+06
-1.30027e+06
-1.10887e+06
-1.05229e+06
-948270
-896556
-799189
-743050
-657594
-598315
-524771
-465565
-399105
-340087
-277922
-219497
-158110
-97552
-34229.4
-1.66778e+06
-1.32712e+06
-1.24012e+06
-1.08299e+06
-1.02728e+06
-932076
-884357
-795021
-740530
-659291
-599839
-528037
-468358
-402698
-343602
-281074
-222058
-160402
-99389.4
-34845.3
-1.6515e+06
-1.26217e+06
-1.17185e+06
-1.06804e+06
-1.00585e+06
-917962
-870715
-784186
-733657
-654823
-598685
-527786
-469832
-404052
-345387
-282129
-222653
-160792
-100371
-35361.6
-1.20252e+06
-1.00791e+06
-1.10587e+06
-1.03583e+06
-994662
-908348
-860792
-778247
-726608
-651197
-596097
-527087
-469680
-404100
-345746
-282203
-222880
-160661
-101250
-37370.1
-1.1638e+06
-976402
-1.04771e+06
-1.0094e+06
-976489
-901245
-854146
-779150
-724716
-651330
-595511
-527747
-469465
-404070
-344901
-282069
-221649
-159312
-101809
-42638.2
-566692
-622179
-575602
-610896
-567037
-621956
-576583
-510018
-560201
-519614
-552273
-510257
-560955
-520355
-580800
-640382
-594781
-625140
-581324
-640341
-594703
-524182
-579381
-534905
-565519
-524896
-579268
-534357
-714530
-768574
-730532
-751612
-714366
-769013
-730441
-662382
-717497
-677494
-700621
-662382
-717197
-677419
-611708
-663966
-621921
-649557
-611675
-663950
-621714
-554373
-607454
-563253
-596176
-554580
-607168
-563417
-500679
-548932
-507305
-540464
-500603
-549062
-507377
-445759
-493640
-452737
-485898
-446046
-493682
-452784
-391984
-438990
-397239
-431979
-392219
-439067
-397438
-336569
-383415
-341178
-377344
-336717
-383497
-341173
-736871
-799418
-755049
-777272
-736660
-799828
-755072
-682771
-740071
-698213
-722996
-682580
-739952
-697608
-626638
-684579
-640421
-668814
-626051
-683680
-639900
-565947
-624530
-574711
-610907
-566300
-623857
-575471
-509403
-558377
-516469
-551293
-509500
-559278
-516756
-455166
-503574
-462853
-495985
-455275
-503681
-463099
-399307
-448541
-406051
-441377
-399484
-448754
-406210
-342956
-391628
-348481
-385419
-342973
-391761
-348525
-761269
-827303
-779872
-808459
-761481
-828067
-780248
-702658
-763576
-716567
-745951
-702091
-763828
-716374
-645152
-701157
-656130
-687828
-644429
-700824
-655809
-579281
-640892
-595609
-629099
-580143
-640688
-594963
-520435
-579310
-533730
-563847
-520773
-579351
-533993
-465525
-518299
-474364
-507404
-465746
-518807
-474279
-408344
-459744
-415505
-451205
-408526
-459618
-415617
-350555
-400581
-355866
-393975
-350570
-400704
-355787
-786316
-856491
-804995
-834725
-786683
-856574
-804661
-721563
-786666
-736986
-769933
-721478
-786182
-736766
-659978
-720162
-673322
-705691
-659756
-720028
-673104
-598447
-655365
-608307
-644394
-598283
-655291
-608239
-536675
-591103
-546518
-583255
-536814
-591099
-547055
-477391
-529771
-485716
-521129
-477403
-530289
-485696
-417831
-469080
-424561
-462595
-417902
-468964
-424721
-357820
-407679
-362227
-402852
-357689
-407598
-362150
-714200
-769332
-730478
-751975
-713971
-769809
-730590
-662262
-717150
-677239
-699599
-661961
-716920
-676546
-611406
-663819
-621377
-648771
-610711
-663065
-620866
-554655
-606984
-563488
-595698
-554795
-606881
-563633
-500559
-549162
-507427
-540668
-500488
-549395
-507586
-446209
-493755
-452831
-486220
-446614
-493997
-453011
-392337
-439125
-397516
-432482
-392621
-439352
-397751
-336771
-383570
-341206
-377795
-337101
-383882
-341513
-736667
-800141
-755116
-778107
-736837
-800744
-755536
-682403
-739947
-697349
-722681
-681712
-740112
-696641
-625679
-683311
-639513
-667850
-625210
-682203
-638208
-566403
-623698
-575590
-610800
-566629
-622180
-575471
-509567
-559571
-517017
-551785
-509884
-560031
-518984
-455329
-503892
-463230
-496408
-455534
-504916
-463621
-399596
-448902
-406279
-441680
-399862
-449233
-406365
-342983
-391807
-348513
-385753
-343230
-391862
-348577
-761545
-828425
-780361
-809388
-761924
-828836
-780693
-701869
-763876
-716267
-746120
-701382
-764028
-716015
-644081
-700694
-655675
-686700
-642916
-700434
-655359
-580312
-640584
-594864
-626509
-580766
-640400
-594817
-521039
-579323
-534142
-565109
-522883
-579373
-534892
-465896
-519048
-474257
-508535
-466332
-519482
-474310
-408596
-459571
-415682
-451771
-408566
-459595
-415476
-350547
-400717
-355716
-393982
-350531
-400494
-355535
-786774
-856883
-804405
-835840
-786994
-856994
-803867
-721391
-785767
-736530
-770080
-721124
-784607
-735728
-659668
-719879
-673006
-705346
-659501
-719334
-672781
-598293
-655310
-608243
-644362
-598564
-655578
-608369
-536874
-591025
-547459
-583258
-537609
-591024
-548178
-477360
-530491
-485725
-522228
-477281
-530787
-485564
-417959
-468884
-424706
-462421
-417702
-468552
-424298
-357589
-407543
-362098
-402613
-357375
-407518
-361835
-713842
-770124
-730646
-751909
-713423
-770590
-730977
-661780
-716860
-676355
-699457
-661520
-717023
-676005
-610532
-662862
-620818
-648431
-610062
-662504
-620700
-554795
-606921
-563672
-595579
-554962
-607008
-563925
-500453
-549464
-507636
-541019
-500449
-549733
-507750
-446674
-494073
-453066
-486481
-446802
-494283
-453195
-392685
-439442
-397825
-432947
-392822
-439620
-398007
-337157
-384001
-341609
-378408
-337610
-384271
-342165
-736922
-801064
-755712
-778899
-737329
-801738
-756295
-681521
-740214
-696462
-722863
-681186
-740623
-696245
-625137
-681937
-637875
-667245
-624944
-681477
-637389
-600210
-596263
-614953
-610867
-600031
-596329
-615071
-539746
-537472
-553932
-551981
-539595
-537600
-554155
-455596
-505353
-463690
-496690
-455724
-505842
-463702
-399931
-449274
-406400
-441906
-400121
-449348
-406572
-343298
-391913
-348603
-386108
-343802
-392128
-349009
-762105
-829152
-780862
-810290
-762725
-829860
-781550
-701276
-764128
-715956
-746677
-701163
-764703
-716142
-642532
-700369
-655287
-686225
-641913
-700421
-655163
-615713
-612888
-631105
-627857
-616089
-615831
-630705
-555576
-549838
-570212
-566069
-555150
-550397
-570501
-466387
-519467
-474251
-509428
-466354
-519029
-473924
-408581
-459456
-415335
-451820
-408715
-459154
-415149
-350536
-400402
-355455
-394182
-350828
-400345
-355586
-787130
-857456
-803814
-837716
-787763
-857898
-804061
-721055
-784372
-735399
-770762
-721161
-784821
-734497
-659469
-719078
-672679
-705231
-659415
-717960
-672298
-598612
-655657
-608419
-644558
-598718
-655710
-608926
-537696
-591097
-548217
-583238
-537108
-591388
-547605
-477154
-530698
-485363
-521826
-476657
-530301
-485017
-417512
-468458
-424152
-461805
-417230
-468318
-423790
-357301
-407464
-361640
-402390
-357341
-407235
-361460
-713219
-770899
-731103
-751286
-712856
-771211
-731160
-661550
-717089
-675930
-700138
-661858
-717255
-675838
-609882
-662357
-620642
-648274
-609486
-662050
-620418
-555105
-607029
-564091
-595932
-555580
-607086
-564662
-500493
-549951
-507807
-541542
-500726
-550571
-508274
-446847
-494363
-453237
-487130
-447069
-494778
-453397
-392852
-439666
-398061
-433334
-393004
-439811
-398195
-337687
-384348
-342296
-379087
-338219
-384589
-343116
-737473
-802490
-756514
-780171
-737681
-803753
-757099
-681093
-740782
-696185
-723174
-680929
-741290
-696049
-624869
-681439
-637352
-666687
-624575
-680955
-637007
-567216
-621728
-576845
-610868
-567903
-622582
-578382
-510325
-561406
-520221
-553370
-510903
-563176
-520012
-455755
-505703
-463671
-497207
-455836
-505908
-463468
-400174
-449337
-406611
-442000
-400270
-449182
-406619
-343934
-392183
-349133
-386394
-344753
-392283
-349811
-762955
-830212
-781808
-812037
-763610
-831192
-782598
-701240
-764940
-716322
-747416
-701197
-765706
-716780
-641780
-700525
-655129
-685847
-641274
-700726
-654794
-581534
-640303
-594685
-626648
-582486
-640140
-595033
-524170
-579226
-534056
-567056
-523479
-579365
-533582
-466363
-518837
-473914
-509273
-466144
-518554
-473909
-408743
-459176
-415130
-451674
-408715
-459119
-414951
-350925
-400353
-355641
-394274
-351538
-400293
-356116
-788006
-858040
-804352
-839595
-788767
-857948
-804574
-721320
-785340
-734411
-771823
-721785
-786442
-734486
-659401
-717638
-672113
-705457
-659219
-716304
-671627
-598753
-655781
-609034
-644816
-599067
-656473
-610060
-536783
-591402
-547352
-583187
-536276
-591819
-546753
-476541
-530210
-484950
-521409
-476284
-530090
-484610
-417162
-468249
-423633
-461551
-416853
-468046
-423070
-357359
-407178
-361351
-402269
-357789
-407255
-361319
-712831
-771291
-731214
-751022
-712840
-770902
-731509
-661937
-717318
-675852
-699802
-661745
-717597
-675964
-609436
-661993
-620352
-648815
-609638
-662148
-620596
-555702
-607105
-564833
-595966
-555748
-607241
-565058
-500802
-550752
-508420
-541812
-500998
-551007
-508571
-447141
-494901
-453443
-487381
-447118
-494954
-453482
-393067
-439848
-398224
-433528
-393108
-439884
-398315
-338367
-384651
-343306
-379482
-338846
-384753
-343940
-737780
-803956
-757262
-779719
-738093
-803442
-757695
-680900
-741427
-695975
-723588
-681068
-741837
-696276
-624516
-680792
-636930
-666829
-624726
-681107
-637029
-568125
-622525
-578699
-610977
-568391
-622585
-579076
-511101
-563620
-520137
-554013
-511390
-564128
-520429
-455860
-505959
-463379
-497464
-455822
-506000
-463141
-400285
-449108
-406603
-442000
-400363
-448922
-406641
-344957
-392298
-350015
-386541
-345585
-392388
-350567
-763789
-831558
-782818
-811669
-764260
-831387
-783350
-701156
-765937
-716919
-748031
-701499
-766477
-717236
-641168
-700723
-654618
-686074
-641292
-700983
-654736
-582807
-640113
-595370
-626707
-583053
-640176
-595501
-523547
-579562
-533464
-567925
-523697
-579691
-533222
-466004
-518459
-473819
-509149
-465731
-518173
-473593
-408683
-459022
-414884
-451360
-408709
-458840
-414862
-351747
-400262
-356268
-394345
-352280
-400258
-356851
-788984
-857815
-804567
-839309
-789411
-858032
-804665
-721913
-786588
-734513
-772463
-722146
-786759
-734633
-659104
-716001
-671511
-705580
-659147
-716307
-671667
-599329
-656638
-610552
-644817
-599204
-656774
-610660
-536152
-592045
-546483
-583012
-535918
-592499
-546199
-476234
-530032
-484446
-521050
-476110
-530041
-484161
-416765
-467919
-422832
-461360
-416755
-467889
-422613
-357929
-407310
-361293
-402209
-358466
-407372
-361589
-584948
-581520
-569381
-566769
-584803
-581588
-569515
-602099
-617841
-608003
-623585
-602497
-617736
-607176
-587205
-571593
-592024
-575323
-587506
-571475
-591957
-600309
-610901
-596445
-614956
-596390
-615074
-600312
-585074
-566869
-581803
-569969
-581672
-569695
-585199
-602193
-623501
-617689
-608204
-617612
-607378
-602767
-587250
-575554
-572645
-592591
-571896
-591901
-587886
-525828
-523671
-512310
-510137
-525727
-523813
-512445
-542483
-556450
-545331
-559559
-542390
-556401
-544465
-529928
-516031
-531443
-519187
-529284
-516660
-531874
-539992
-552097
-537883
-554822
-537730
-554422
-540318
-525991
-510215
-523997
-512706
-523919
-512571
-526278
-542665
-559924
-557520
-545865
-556788
-544628
-543064
-530040
-519517
-516597
-532088
-516909
-531856
-529805
-601311
-596981
-585783
-581809
-601252
-598345
-586082
-621283
-636226
-625364
-640379
-621214
-636207
-625376
-605972
-590506
-610206
-594758
-605939
-590512
-610253
-615589
-627795
-613194
-630498
-615871
-630377
-615803
-601272
-582016
-597493
-585914
-598195
-586068
-601228
-621242
-640367
-635981
-625452
-636136
-625406
-621037
-605913
-594736
-590394
-610227
-590468
-610261
-605847
-541955
-535425
-527526
-522764
-541044
-534758
-528236
-559952
-574978
-564288
-579368
-559915
-575002
-564333
-545209
-530758
-549554
-534804
-545208
-530713
-549569
-555761
-566245
-550356
-570433
-550660
-570579
-555618
-542065
-522785
-536140
-527968
-534750
-528353
-541597
-559956
-579327
-574901
-564233
-574966
-564309
-559915
-545188
-534637
-530673
-549359
-530677
-549478
-545175
-704303
-739073
-713657
-722665
-704255
-739073
-713611
-654297
-689431
-661609
-674981
-654127
-689220
-661167
-608787
-641654
-614498
-629257
-608338
-641258
-613951
-551846
-586841
-553918
-575687
-552089
-586483
-554241
-499715
-531507
-502626
-523429
-499639
-531580
-502548
-446629
-477251
-447431
-469327
-446818
-477365
-447457
-394193
-424463
-395349
-418767
-394358
-424534
-395263
-343105
-370681
-342161
-365779
-343139
-370719
-342004
-774424
-801750
-786271
-781188
-774717
-801761
-786571
-743921
-739489
-756051
-751451
-739496
-756153
-743990
-692389
-688832
-706354
-701046
-688807
-706277
-692420
-640248
-637789
-654514
-649763
-637906
-654730
-640115
-585006
-583900
-600973
-596373
-583929
-601051
-585053
-529055
-527829
-544628
-540384
-527870
-544657
-529097
-474091
-473282
-489427
-485700
-473366
-489443
-474079
-420226
-420033
-435345
-431916
-419999
-435357
-420242
-364937
-364905
-380205
-377392
-364878
-380167
-364962
-292885
-320251
-291100
-315327
-293050
-320151
-291145
-804143
-841710
-821433
-824349
-804955
-842215
-822297
-771193
-764320
-783585
-776914
-764360
-783665
-771195
-715559
-710512
-728793
-723289
-710353
-728682
-715739
-660383
-655280
-674160
-668917
-655344
-674137
-660446
-599765
-596150
-615208
-611271