/*--------------------------------*- C++ -*----------------------------------*\
  =========                 |
  \\      /  F ield         | OpenFOAM: The Open Source CFD Toolbox
   \\    /   O peration     | Website:  https://openfoam.org
    \\  /    A nd           | Version:  10
     \\/     M anipulation  |
\*---------------------------------------------------------------------------*/
FoamFile
{
    format      ascii;
    class       surfaceScalarField;
    location    "8.4";
    object      phi_0;
}
// * * * * * * * * * * * * * * * * * * * * * * * * * * * * * * * * * * * * * //

dimensions      [0 3 -1 0 0 0 0];

internalField   nonuniform List<scalar> 
38556
(
1007
-604.399
920.818
286.624
-756.613
1476.99
501.561
-366.582
151.645
507.487
-97.3516
91.4262
719.885
-25.1097
-187.288
843.342
39.0945
-162.552
872.418
135.441
-164.517
934.888
141.215
-203.686
911.665
173.216
-149.993
920.381
143.915
-152.631
887.28
115.951
-82.8499
874.707
77.8053
-65.2318
847.617
45.2996
-18.2104
837.037
32.2452
-21.6643
830.98
33.4513
-27.3952
834.663
44.2593
-47.9418
841.943
50.5804
-57.8606
857.848
48.9892
-64.8938
853.705
45.6419
-41.4999
43.7632
-15.7392
2023.16
-1359.72
-8325.97
331.099
-9.68393
945.132
458.665
-446.767
-47.3799
306.801
-126.512
181.025
513.362
-237.245
5.57418
600.759
-81.8393
33.5368
694.63
-8.90466
50.4745
759.986
56.4392
19.4208
750.142
100.866
82.1942
732.038
107.988
54.0305
678.452
88.4075
81.1302
642.029
71.7252
42.5024
616.294
55.2615
15.7736
611.602
54.3268
-17.3898
621.031
51.049
-27.0267
646.497
56.5029
-37.7098
668.405
52.46
-23.7875
678.335
42.7795
-3.72
658.982
41.4011
23.5937
36.4812
44.813
409.796
-1168.51
3326.17
491.523
256.029
-347.44
510.889
-187.112
-279.021
414.497
-15.0417
-15.0777
446.82
-276.484
6.91687
472.25
-150
42.7297
559.588
-185.775
89.5323
622.675
-68.3239
61.6759
651.797
-15.2445
86.9885
663.425
44.2557
52.1042
642.225
59.4902
50.1173
624.472
75.1161
14.363
606.869
64.4668
8.39746
601.018
66.912
-6.73461
599.52
57.966
-5.41836
604.485
57.2723
-5.73459
604.396
51.0886
1.46033
593.206
47.7059
6.26388
559.22
53.2115
22.1756
44.3512
31.1567
-51.6818
-16.3393
888.338
257.679
303.609
-356.941
484.313
136.596
-550.343
467.423
143.744
-141.896
384.338
-62.969
-130.43
328.427
-44.279
-49.8089
376.961
-209.761
-24.548
353.276
-69.2172
24.5786
432.505
-96.1995
1.72583
442.423
24.1362
10.2017
484.738
12.836
4.33954
502.234
56.337
1.2827
520.927
43.975
1.7985
529.956
63.0516
-5.168
535.803
54.0866
-1.96833
537.665
60.2508
-4.83971
533.545
55.703
-0.495061
523.639
55.4939
2.11874
507.908
57.8278
11.1141
47.0085
19.6329
2024.42
257.851
283.564
1751.28
52.3358
524.414
1395.43
195.006
297.44
1194.51
289.866
54.7963
825.178
117.086
189.277
664.904
66.1435
49.851
539.525
-194.81
110.429
501.547
-44.6799
13.4405
510.97
-132.019
26.396
518.922
20.4265
-4.24173
533.164
-11.1621
9.75575
537.227
58.1161
-5.84161
538.761
42.3794
0.0613233
535.184
74.4701
-7.84139
530.673
61.21
-2.61284
527.024
70.0021
-6.10147
520.003
64.9912
-2.26796
513.809
63.4497
-1.76158
507.69
61.8051
2.14203
49.3723
14.7884
1080.65
565.283
-2070.21
1296.7
41.6253
-205.335
1381.26
232.618
-122.174
1204.59
297.267
169.271
738.406
218.212
365.055
548.696
164.697
91.1567
489.791
-217.265
81.361
371.435
44.1143
29.5611
384.726
-155.026
9.71597
362.261
40.8366
2.0556
394.239
-40.2911
-2.84932
405.874
55.451
-8.96922
429.439
27.6378
-8.82391
445.501
68.2554
-9.84741
458.09
54.1622
-5.54095
467.007
67.4098
-6.32529
471.837
63.8731
-3.71195
477.712
62.3848
-4.80919
484.088
58.5995
-3.17105
41.5129
17.3752
2227.77
1587.1
-3587.19
1339.93
456.689
472.775
846.59
219.806
506.156
646.945
64.9235
431.988
657.396
-4.58262
212.345
523.109
240.109
58.8745
487.637
-30.158
55.3346
-89.5958
-30.9605
-86.414
388.325
18.9771
29.6086
32.2773
27.6988
34.8651
356.247
-18.9502
13.2599
-49.2965
-21.5388
-46.4223
336.938
16.0905
-7.81015
17.6933
16.2488
17.923
360.775
-3.02995
-14.0303
-22.3894
-4.8989
-19.779
372.191
16.3657
-15.5718
14.0091
15.6057
13.6258
387.903
10.7957
-9.9945
0.859544
8.74718
1.51817
395.787
22.1554
-9.12191
13.7223
20.3318
13.2834
410.941
39.7927
-0.784439
426.621
55.4543
-3.72473
433.937
59.5499
-2.99234
445.049
56.2167
-4.9437
457.453
46.5474
-0.351912
27.0267
20.4174
1804.63
509.185
-4318.09
1104.72
673.607
482.998
959.917
207.214
157.393
884.514
-15.6104
155.937
823.313
-94.7202
151.338
176.188
48.7449
43.6034
187.189
166.75
176.772
98.4912
60.3599
105.322
141.412
-4.63586
9.2547
-77.7285
83.6243
-3.45426
16.5356
-85.4566
64.1588
-9.71996
12.0675
-35.6944
44.6808
8.12419
-1.02004
-52.3653
54.1449
-3.47539
-1.33418
-46.032
60.6529
6.47713
-4.73229
-67.573
72.0294
7.76957
-1.43022
-68.7979
76.9081
15.4391
-1.39394
305.715
15.4727
-14.5642
-75.832
-79.8759
-69.2041
-70.9599
7.46689
13.8474
7.72732
330.171
40.0834
-9.08541
346.796
52.6464
-9.72099
367.278
41.4675
-5.73352
375.982
33.6228
4.22083
15.9299
15.4799
2026.5
1424.1
-216.882
601.886
862.519
1235.7
690.916
316.754
-198.57
510.052
143.236
22.0168
138.921
17.2309
-105.404
122.498
128.452
113.634
176.284
19.5996
-8.21788
-6.99832
-52.6829
50.905
8.91124
-0.135072
-45.4478
1.54185
41.9842
-0.833481
2.7553
-29.3568
-0.494832
25.5013
3.11555
1.23481
-14.7899
-3.24458
14.9306
2.97102
0.132876
-13.514
-0.774951
13.9477
0.444934
-0.103657
-12.1607
-1.59559
13.7634
0.227277
-0.234336
-14.2709
-2.75229
15.4238
1.58677
0.0125747
-14.84
-3.85245
16.1051
2.62314
-0.0357184
-15.9253
67.1682
13.7454
-0.575902
-17.3115
-15.3635
-16.2647
261.724
32.9852
-5.63277
-63.6972
-67.9665
-57.159
-60.1705
281.758
36.6869
-4.07417
291.332
31.0438
0.849623
299.29
20.6337
5.03065
1.6772
9.42617
478.62
-40.5362
-3312.67
78.9253
627.242
634.972
256.998
297.914
-159.231
232.017
269.447
-101.23
54.9748
171.396
-137.288
53.3826
54.442
52.3408
-23.2066
79.7292
27.7361
-29.2838
-6.09076
-29.1721
30.7168
5.96106
-1.41504
-10.0822
-29.9908
24.0198
11.3955
4.65758
-9.00473
-16.6627
16.0308
9.40418
0.232379
-6.60254
-12.6032
11.8933
7.1849
0.127474
-1.43134
-13.4428
14.5666
0.693074
-0.385471
-0.818517
-15.7959
15.765
1.00528
-0.155781
-1.95538
-15.1432
15.0137
2.13286
-0.0480172
-2.48193
-14.8164
14.7573
2.64185
-0.100809
-14.4023
-11.4114
57.2819
11.8973
-0.923973
-14.8605
-13.6482
-13.9328
224.061
31.7114
-5.565
-56.6945
-57.1743
-51.2968
-52.057
240.789
26.7961
-6.83679
261.235
16.26
-5.6617
296.641
-5.05097
-9.72179
-22.0512
0.0367633
69.7341
608.209
-2074.25
37.3747
430.53
229.072
413.236
172.894
-250.842
403.359
267.758
11.5669
128.975
186.792
-88.1595
128.445
110.266
108.436
-28.5615
147.512
35.7385
-25.7142
-5.26147
-38.892
41.2801
6.48806
-3.61464
-7.72857
-45.9151
47.8742
7.84091
-2.07143
-18.0011
-33.2473
23.0984
22.0742
6.07584
-9.54384
-7.67719
4.26147
10.7137
2.24582
5.70151
-7.30361
10.3092
-8.22604
-0.481085
0.926699
-17.3277
18.2473
-2.02378
0.177386
-2.54038
-18.0946
17.9313
2.81565
-0.11199
-3.56503
-16.7337
16.2651
4.00433
0.0293459
-14.6721
-12.3288
60.3765
12.9328
-2.6884
-14.8652
-14.2614
-14.4933
244.138
29.6931
-12.0058
-59.0169
-61.1541
-54.1285
-55.8147
268.124
9.41358
-6.60278
294.873
-5.13982
-5.34946
327.257
-32.6698
-4.7654
-40.3546
4.14696
-2091.53
-328.135
-2650.75
-958.815
70.5354
-772.723
-349.479
-218.857
-217.584
-144.476
-11.3138
74.0687
22.1464
36.6973
-82.3527
28.0942
13.6394
24.0909
-37.301
72.204
8.95622
-21.7128
-8.19587
-38.9179
41.203
8.77371
-2.86299
-11.0857
-49.1114
52.5595
11.7713
-4.13359
-18.146
-61.0201
62.6356
18.3936
-1.86305
-30.5751
-67.7823
69.5702
31.1312
-2.34404
9.52997
-39.1178
28.8331
-6.1042
6.85885
0.396965
-28.8241
27.4667
1.53152
-0.571145
-4.50835
-21.2571
19.6403
5.476
0.64915
-5.78687
-16.4849
16.0039
6.33414
-0.0662912
-15.2706
-15.6543
63.8309
13.9707
-1.25475
-15.6532
-14.8512
-15.1176
243.519
25.2662
-1.70526
-64.6076
-61.7168
-57.731
-53.3314
258.914
-7.7188
1.73761
268.782
-22.0014
6.99334
279.68
-49.7715
6.20369
-51.6892
5.93463
533.886
384.586
-764.547
1155.06
748.169
-1298.81
894.843
391.601
-350.24
704.151
85.4732
93.9047
615.608
-44.2746
169.515
163.676
-308.175
0.882923
54.1565
97.9312
69.9444
103.821
147.99
150.013
135.368
2.27124
167.888
4.47566
-2.78262
-5.63503
1.93199
-4.47333
-7.54844
-163.855
186.751
9.79505
-2.68509
-8.52505
-6.61951
-7.31271
-13.9582
-237.113
255.161
22.2624
18.9752
-16.4373
-12.991
-15.8994
-19.2508
-229.019
172.113
66.0832
62.7991
-17.4039
-18.4145
-16.907
-11.3018
-126.27
95.5618
75.024
3.39352
-12.6237
-11.3133
-12.4702
-6.49136
-69.7152
59.2408
35.2128
3.86484
-7.4466
-7.05219
-7.6131
-6.48108
-63.8995
58.4017
32.1117
2.54281
-8.11857
-6.66477
-7.89232
-5.56616
-54.5869
56.772
18.3327
3.25335
-6.84578
-5.26675
-6.09255
187.982
55.5827
6.07525
-10.8723
-20.1916
-8.96713
-16.9142
-58.1944
-44.2451
-49.7168
-40.5387
204.464
6.78161
2.00335
208.301
-13.0937
1.53786
225.326
-33.5493
-5.478
239.136
-60.4559
-3.12532
-64.1343
-3.39608
1575.23
1383.13
-2716.41
1865.04
702.901
-244.544
932.702
603.121
720.822
457.071
175.048
386.056
222.603
-1.21741
191.411
127.792
-196.79
-16.573
133.541
243.932
-19.5755
-25.0126
-88.5721
-27.4416
-89.0792
-36.2216
-72.1836
96.7023
19.4032
47.1981
29.2855
49.3571
-24.7742
290.338
-51.469
-26.9969
-98.2734
-28.0081
-97.0385
34.1301
124.648
13.7806
-50.487
-50.039
-48.5867
-48.2203
123.314
252.523
-27.2522
-71.5891
-86.2137
-72.7479
-83.9036
144.369
112.881
-18.6525
-29.4181
-28.5681
-29.6068
-27.691
159.986
139.987
-9.73727
-29.7127
-44.5552
-30.0865
-41.5124
180.099
54.3429
-21.8881
-9.96113
-18.1488
-8.97758
-15.4795
211.516
45.7245
-21.5592
234.464
7.29488
-23.4609
251.644
-14.413
-15.8614
263.649
-31.622
-13.9319
268.827
-61.768
-3.86594
-63.9079
-0.256793
472.217
650.39
-2765.38
669.268
431.679
74.171
862.339
466.033
-55.9821
852.66
132.29
52.4372
551.748
174.676
125.018
378.322
-27.3175
3.95357
265.141
249.314
107.799
134.237
30.4385
28.2819
156.294
266.255
2.02663
146.509
139.325
-4.89284
214.686
229.806
-45.4589
281.185
114.102
-67.7198
368.14
128.14
-75.1089
421.479
56.4239
-55.42
447.961
51.8143
-32.5722
452.348
28.1828
-25.2743
445.82
13.9323
-21.8177
435.559
-1.0671
-20.294
402.969
-29.4143
0.236241
-38.4792
19.7554
1095.24
239.16
-3282.13
1094.03
639.9
-207.008
876.707
437.617
245.739
728.604
116.516
163.876
392.766
323.13
187.384
285.004
33.2431
47.2016
269.41
223.462
41.4458
248.353
30.5124
20.9825
316.55
193.95
4.1085
363.552
91.3411
0.981433
442.32
159.48
-8.44278
498.698
87.7986
-30.0745
552.185
99.287
-24.6337
590.981
52.1419
-34.5145
614.886
50.4488
-22.5387
628.733
36.7197
-22.3844
627.539
29.7254
-14.5987
614.726
13.952
-2.20665
559.79
2.27665
23.2458
-5.43276
34.2375
-958.047
313.483
-2479.41
-334.609
378.774
-362.312
94.3307
279.448
-270.77
1.00936
-20.7775
230.615
166.907
154.356
2.87694
150.084
-22.3074
72.3734
288.792
38.3742
46.3797
316.274
-24.5475
27.5785
411.884
59.6938
38.646
456.445
25.16
21.6197
514.067
80.3027
21.5563
553.042
41.5937
7.22938
583.838
55.1261
13.3652
606.922
26.6914
2.3669
618.998
29.423
8.94971
626.338
19.6867
9.69239
621.13
19.9574
14.9762
605.079
9.03715
20.9654
543.272
27.1999
36.8842
26.8351
38.3823
934.486
-115.788
-1393.3
750.341
811.574
-248.655
796.566
160.491
72.7319
591.874
27.182
156.733
408.821
89.9615
247.447
323.797
14.3643
48.3529
331.867
-11.2309
41.5344
321.944
-32.6666
18.042
371.192
-11.8396
22.2861
394.112
-10.8089
13.0488
441.635
3.50766
29.2719
472.281
-6.28534
17.2332
500.296
-4.37577
31.4871
520.244
-16.0972
22.84
531.039
-13.1293
31.758
536.45
-14.9201
29.195
530.313
-5.25297
31.3479
511.912
0.140734
27.2967
460.527
50.1513
28.4338
49.688
32.4185
1459.02
-108.422
-3624.87
-44.1311
916.704
1398.02
267.255
-185.408
34.5131
280.742
-20.0798
33.7748
490.069
-1.25833
-118.107
504.772
49.2478
-49.5865
489.288
45.7215
-41.4687
455.719
62.3516
-61.4482
428.807
43.7403
-28.668
422.426
49.4898
-53.9175
435.432
27.4613
-36.9604
460.619
20.9829
-52.4547
495.387
-6.71748
-32.427
533.243
-26.2927
-27.6601
562.076
-43.0231
1.06003
578.289
-43.321
12.1887
574.358
-33.6912
32.3693
547.926
-21.9655
48.5376
492.13
30.6519
75.2956
42.8501
57.8241
-1705.13
1594.76
-9.96306
-778.459
544.249
-739.619
603.072
-78.903
680.5
-78.6862
699.283
30.4643
710.725
34.2799
758.517
14.56
763.784
38.4734
801.77
11.5036
807.625
21.6058
827.41
1.19811
812.748
7.94421
792.089
-5.63355
758.017
-8.95075
741.655
-26.959
736.193
-28.2295
731.173
-16.9459
738.566
23.2592
39.0044
-1243.43
526.922
80.5889
-129.181
-455.577
818.316
384.606
-328.391
-33.7509
447.855
-124.59
152.768
637.666
-138.663
-238.437
732.889
-91.4071
-166.368
743.277
-1.86015
-173.045
770.293
-14.1386
-216.563
727.439
19.3013
-126.439
715.233
3.97597
-144.401
685.41
8.9481
-61.975
677.763
9.25891
-66.8429
663.976
23.4521
-27.8762
652.606
31.2529
-41.5467
619.285
42.2962
-36.3705
575.997
46.8041
-51.4582
527.685
33.9095
-43.4578
502.177
11.7184
-51.104
494.095
-2.29328
-31.1243
-3.36971
-1.29356
-446.585
-1046.22
-5437.97
72.6171
-54.2349
24.5867
200.782
-324.343
-179.593
200.186
-35.5827
92.6129
356.728
-228.867
-60.764
383.351
-102.87
18.3772
484.001
-79.8188
27.783
501.606
-17.0765
4.75369
514.438
16.1281
72.5355
500.023
29.7158
42.7063
488.928
34.682
66.4915
473.567
42.283
24.8387
465.515
42.2559
5.02234
457.021
47.122
-24.7651
452.527
43.886
-24.1218
448.978
42.3486
-29.7053
442.333
31.4479
-14.6811
434.015
20.6058
-4.28937
421.561
13.3286
20.4252
10.9716
42.904
-86.0037
-605.819
1534.96
341.421
232.936
-1062.04
379.956
-33.0829
-608.817
327.748
48.9446
-47.3963
330.036
-225.703
1.46379
340.159
-115.837
45.5739
425.117
-156.148
80.9035
455.661
-42.5415
56.597
480.686
-8.9435
87.035
474.551
41.9697
45.9855
459.991
50.1079
49.2521
439.172
67.442
10.0222
426.684
56.4992
6.64201
415.989
59.5632
-8.48062
410.831
49.1074
-5.48063
406.653
47.7426
-6.95143
399.404
38.2234
1.93383
386.33
33.2837
6.65989
370.337
30.9223
20.5758
23.3113
28.3615
947.384
1100.75
1681.55
655.358
755.994
-587.973
442.062
265.464
-635.594
412.847
113.885
-177.621
293.903
-127.207
-109.982
233.36
-77.6379
-27.4651
284.423
-191.777
-39.9831
253.308
-9.87616
23.0295
322.696
-60.7182
-15.8875
316.351
48.2996
10.2171
344.608
24.5447
1.6457
344.42
68.2872
0.624861
356.571
46.3501
-0.203115
354.404
62.5332
-5.97092
356.551
48.2369
-3.24489
353.149
52.7047
-6.40035
347.808
44.8538
-1.78429
339.716
42.2429
1.25255
333.885
38.8329
9.03463
26.3779
16.4271
2190.69
1325.38
-2760.97
1592.54
1368.55
510.009
1071.53
651.257
432.655
817.498
275.461
147.254
526.321
52.7783
300.468
397.887
44.1867
56.4605
372.156
-179.42
123.803
335.282
31.0462
9.39268
356.108
-79.8342
24.6854
346.717
55.7572
-2.30779
356.709
19.515
4.79404
349.754
75.583
-6.18216
351.023
46.4267
-1.2852
343.036
71.7808
-9.10115
340.54
52.0739
-3.95459
336.312
58.1539
-7.32279
332.367
50.0935
-3.56197
329.147
46.6907
-2.98987
330.58
40.0458
-0.503434
25.6511
11.7778
1733.96
1354.35
-1173.14
1403.09
1098.48
395.616
1008.48
688.473
235.218
797.674
316.512
339.029
515.106
214.527
485.874
350.672
195.239
104.539
355.142
-186.658
84.1275
238.79
119.346
57.6141
263.692
-97.3455
2.32504
238.127
83.855
-0.476937
261.97
0.379656
-7.55745
263.043
77.1088
-11.5678
276.496
34.8481
-10.6981
282.467
68.4048
-12.4426
290.703
46.0561
-7.75919
295.881
54.7498
-8.09844
299.672
48.3601
-5.77021
304.567
43.6101
-6.62333
312.88
34.1621
-5.60066
17.4905
14.4214
-623.596
1094.46
-693.926
-107.866
252.945
802.576
202.012
353.237
531.514
288.266
149.155
513.091
443.923
82.3426
188.872
250.607
352.22
95.2099
268.701
-28.5777
60.0325
-77.631
-33.6927
-69.5482
188.986
47.2858
34.035
46.7239
52.3926
48.2315
201.611
-18.4602
13.874
-37.6782
-19.852
-34.594
189.176
23.4481
-5.45371
22.4234
24.6897
23.3715
215.483
-2.57523
-12.4169
-12.1195
-3.08706
-9.75862
222.516
17.6633
-11.669
14.9579
17.8512
15.7005
235.981
8.14314
-11.6407
3.58872
6.94825
4.34975
240.609
19.1813
-8.18059
13.0093
17.8531
12.7913
254.389
32.5611
-1.06954
268.052
44.2406
-6.8777
273.905
43.637
-4.12271
283.117
36.3828
-6.92824
295.083
23.4082
-1.56373
9.07235
15.6681
-396.296
-196.778
-856.257
129.465
394.229
-184.046
582.014
345.18
-287.099
587.877
161.557
137.672
589.742
78.1765
153.64
109.957
103.094
62.3824
119.742
89.7021
98.368
139.173
116.141
147.006
-25.7847
79.7687
1.94281
25.4526
-23.4111
-32.1247
46.9204
24.7123
31.1888
-16.5933
-51.9004
46.1584
-8.93272
12.8078
1.91404
-28.4845
41.5496
10.9152
-2.44624
3.86268
-44.3848
44.1266
-2.75342
-3.4263
8.07869
-42.0918
46.0163
8.4312
-2.77117
3.29963
-46.4548
49.6938
5.63353
-4.02897
3.94118
-45.4182
52.6519
13.1182
-5.11184
195.173
11.3912
-15.9146
-50.4449
-53.3516
-45.2801
-46.9647
6.71349
10.0417
6.63336
212.792
27.2905
-9.75449
219.298
36.5064
-9.09576
230.791
23.1156
-3.95957
238.935
16.0529
3.43166
4.31408
3.84554
-384.003
956.959
515.461
58.5086
689.853
497.565
307.145
350.806
-452.832
237.557
225.475
27.6862
70.9658
109.541
-140.694
63.4713
52.8972
54.1474
9.62659
98.1392
73.8011
-7.50712
-2.26754
-8.70532
-33.9252
32.2016
11.1515
1.54489
-6.67198
-24.4766
-3.78047
22.6993
4.214
8.01581
-5.68727
-17.6538
-0.731537
15.422
2.58845
6.06219
0.121531
-9.63485
-1.99695
10.0531
1.64436
-0.187175
0.506084
-10.3873
0.250418
10.4647
-0.274626
-0.559321
0.727806
-10.0717
-1.00988
10.6395
0.251701
-0.537513
0.484979
-10.967
-1.48084
11.5368
0.842212
-0.416188
0.541926
-10.9384
-2.54066
11.9706
1.61456
-0.648072
-11.743
1.5519
47.865
10.3693
-1.77617
-12.106
-11.2875
-11.4823
177.282
23.3305
0.574369
-44.3568
-46.7248
-44.8595
-43.5885
184.839
24.2105
0.664931
189.948
14.6893
4.16705
200.863
5.88491
4.28431
-3.70031
-3.77795
-1091.06
362.387
-1475.14
-293.105
194.988
331.878
92.0809
130.961
-324.573
121.498
185.783
-90.9543
33.0616
153.761
-169.709
31.2477
23.4648
21.9251
45.2278
-55.7733
47.0083
42.2612
-45.6624
5.14484
-12.321
-21.0034
22.8137
11.4504
-6.08442
-5.58219
-12.3802
-22.523
21.0516
13.9363
5.4976
-3.72311
-8.79092
-14.4819
12.7656
9.98506
4.24523
0.708444
-4.33002
-9.54775
9.13899
5.22278
-1.19244
0.438913
-0.0830103
-9.41533
9.889
-0.579868
-0.249702
0.510552
-0.205485
-11.0539
11.1464
-0.0010385
-0.396548
0.300818
-1.55593
-11.1161
11.1388
1.57262
-0.340245
0.221127
-1.88624
-11.05
11.0647
1.89861
-0.248175
-11.0621
1.50002
-9.15775
43.2806
8.99557
-1.13805
-10.8763
-10.9479
-10.5941
171.385
18.6894
-1.26295
-43.6073
-42.9184
-43.1542
-41.366
175.91
12.4984
0.349813
185.249
1.48258
-1.79302
205.192
-14.6846
-9.09586
-18.8875
-11.917
-727.504
282.709
-1323.36
-262.186
85.1181
-126.377
138.917
-61.0963
-459.888
127.413
165.11
43.7441
60.6579
121.337
-138.497
60.8343
43.5328
45.1495
32.1274
-31.687
74.728
25.2363
-39.7467
6.35933
-8.54504
-23.0483
24.7684
7.85023
-7.38458
3.90529
-13.4093
-28.5291
29.3211
12.6838
-3.97175
-13.0038
-18.4628
-29.4115
26.6291
22.2489
12.0002
4.92429
-11.7275
-13.7312
9.96385
17.615
-7.04445
1.87229
4.8298
-8.92461
10.734
-6.4634
-2.04805
-0.740207
1.73554
-15.0501
15.4298
-2.26956
0.894484
0.123623
-1.94414
-14.6932
14.4281
2.09586
-0.0102721
0.218217
-2.43728
-12.9882
12.6348
2.85697
-0.284456
-11.501
3.73601
-8.88624
46.186
7.99424
-3.81294
-11.6252
-11.0235
-11.0673
173.408
14.4192
-8.0359
-44.2683
-44.5468
-42.7593
-41.5331
184.346
-2.28664
-2.75647
199.861
-18.2822
-1.09952
218.169
-31.7129
-6.04466
-30.1074
-7.35696
-664.003
-644.272
-2513.04
-948.224
-227.305
-176.079
-482.417
-420.947
-323.542
-272.9
-87.5585
117.221
-25.1356
-31.7886
-101.083
-11.7062
-36.1504
-28.0521
19.4289
-15.2783
28.2406
-39.2092
-18.3175
4.75732
-4.50983
-26.5545
28.7586
3.22464
-5.67626
9.87872
-10.8411
-34.3212
36.38
9.61078
-10.7072
3.96897
-22.794
-43.2335
46.1888
20.2473
-4.37765
1.38397
-26.3285
-54.792
55.4363
24.9123
-0.612039
-20.5834
7.05014
-49.4613
44.1442
-4.23522
23.0856
-0.65463
-0.486232
-24.677
21.5845
2.37392
1.8595
-1.1998
-3.98804
-16.4268
15.3539
4.91697
1.34373
0.0374997
-4.1554
-12.9385
12.588
4.47308
-0.00470997
-11.8592
1.61069
-8.47122
46.0173
8.52268
-1.3245
-11.8741
-11.3351
-11.2866
166.917
10.9419
0.580712
-44.3248
-40.522
-41.6792
-39.1993
170.757
-15.4192
11.03
174.163
-24.8702
10.1751
183.209
-41.7581
7.20296
-37.9973
-6.04273
242.471
695.726
-1704.07
270.601
444.67
-1998.91
301.32
141.016
-942.922
270.938
-7.19282
43.9204
392.501
-76.3875
92.5518
90.6667
-314.397
-5.21565
92.2501
117.274
100.44
120.09
74.1306
68.0673
50.0773
0.298173
-2.66435
91.4853
16.9978
-8.84213
-3.26347
-0.250663
-3.09391
-4.14175
5.39336
-75.3679
108.072
-19.7379
-4.9262
-2.9812
-3.72434
-2.58611
-9.72091
-28.1439
-163.981
185.578
21.3069
28.3782
-12.3997
-9.27261
-11.7451
-14.1739
-98.0246
-176.575
155.526
54.0704
116.151
-12.7284
-12.8634
-11.3822
-11.3227
-22.6978
-123.357
76.5823
73.6722
43.6431
-12.6639
-11.1139
-12.7422
-7.71431
-8.63633
-47.0684
39.0186
35.0961
12.2792
-7.68169
-7.71213
-7.58107
-6.34759
-4.97212
-43.2905
39.7392
29.2946
5.08664
-6.76323
-6.24336
-6.5037
-3.87924
-4.6742
-37.7855
39.5616
12.6157
5.23672
-3.86085
-3.68385
-3.53042
156.028
38.9396
-0.537052
-7.75333
-12.7401
-6.74588
-10.9646
-40.6167
-38.0893
-38.8288
-32.6167
161.285
0.803984
6.88458
162.875
-16.9604
1.4883
163.537
-33.5687
2.55891
166.228
-49.7319
2.15788
-48.2325
-1.15713
-30.0612
745.046
-127.516
200.243
429.732
-459.911
116.53
399.75
545.8
61.4682
63.179
370.746
90.2025
-48.6782
134.968
-103.121
-187.97
50.3233
-99.2046
275.618
-40.7937
-36.2328
-90.7959
-47.0329
-84.2556
-166.091
-114.514
67.5265
45.834
53.6639
56.3556
54.7227
-114.782
245.108
-87.1888
-32.4499
-92.7967
-45.2845
-90.1656
-56.4471
70.9642
36.6054
-41.2859
-40.5515
-34.6036
-35.6836
61.6938
197.176
-50.974
-69.7336
-78.4205
-68.2533
-75.1876
89.4906
66.554
-16.0093
-26.2283
-24.1055
-24.3654
-22.2947
128.449
98.1558
-18.8642
-28.1512
-37.2788
-27.6327
-34.9247
145.993
22.3963
-23.9076
-8.36146
-11.8005
-8.09065
-9.6684
160.625
24.2241
-21.4753
161.947
-9.40663
-14.5718
164.526
-22.4275
-12.9741
163.94
-38.1812
-8.73335
165.848
-56.1669
0.661497
-52.2483
-2.04262
188.272
-196.867
-890.001
370.994
176.521
144.66
454.609
315.338
-55.1846
488.243
64.9074
17.0746
238.462
109.665
216.457
107.297
-99.3645
46.5131
153.669
233.16
103.886
56.1787
-13.9232
25.1813
91.394
205.834
6.08513
114.936
54.6502
-12.1211
156.009
150.818
-40.1741
172.163
39.4456
-56.7653
208.887
62.3665
-76.0437
228.756
6.64842
-59.5412
244.928
10.7088
-35.2289
250.24
-11.4305
-28.562
243.981
-16.6667
-21.3198
232.362
-29.9573
-16.8987
214.222
-42.179
4.38806
-41.2845
8.54991
488.212
-516.868
-2249.37
128.967
333.359
-4.5994
343.304
240.058
106.682
299.054
60.2316
212.802
177.626
206.66
211.817
100.252
-43.3358
68.5467
156.186
167.767
50.9046
129.586
-8.48327
42.1435
194.096
140.502
4.93077
224.305
23.9359
1.4867
289.831
93.7415
-16.8918
318.68
15.8152
-35.2929
349.905
33.3394
-26.8322
361.604
-3.52944
-36.0358
368.186
5.92418
-24.3365
368.493
-10.943
-23.1783
359.118
-10.2703
-11.6203
345.75
-19.71
0.914341
314.447
-17.2746
29.6447
-15.5467
31.8477
-1001.75
845.398
-2075.92
-663.881
95.421
-462.243
-442.041
62.7247
-315.277
-194.122
-166.156
209.085
9.55202
24.5818
-18.7187
18.8721
-123.211
142.928
166.005
10.863
56.1509
177
-40.7771
48.8768
274.335
47.4767
34.3365
298.925
7.96107
13.0049
348.206
46.2982
19.719
364.105
6.16324
0.982053
383.17
16.1138
11.5256
388.705
-6.67573
-0.0218388
392.382
2.90096
8.29614
391.077
-7.21202
7.26573
380.233
1.0442
14.506
363.514
-3.03615
21.0101
322.045
18.4999
42.5796
14.8423
37.878
208.869
977.074
-2193.93
57.2703
327.387
-329.023
302.06
-44.4331
-64.8994
211.92
-103.564
184.28
344.902
-27.7276
166.775
240.344
-40.9341
70.6346
260.499
-26.4118
58.6539
232.249
-17.5257
23.0412
272.473
1.44359
28.0945
281.712
-2.28611
14.0571
322.538
4.78706
29.9567
339.255
-8.61674
15.2962
362.465
-5.73506
30.1262
370.719
-12.7899
20.6998
376.103
-4.61922
33.8942
372.862
-3.21888
28.4427
359.863
10.6571
34.7345
334.775
19.0201
30.3277
299.831
48.4879
33.3903
34.9971
28.8814
220.114
353.008
-1147.37
-139.081
922.504
1162.09
60.7135
-153.027
-56.6878
191.811
-171.888
-28.9977
383.153
-157.173
-180.004
394.882
-29.8084
-72.4408
374.505
-1.20355
-46.2996
344.648
30.8227
-79.94
334.5
20.5927
-37.6691
330.231
25.8959
-77.8301
347.049
5.14806
-54.1401
358.986
-7.00064
-66.0077
380.926
-28.9123
-31.1899
394.241
-31.2812
-22.484
406.235
-22.2824
6.72954
413.354
-11.108
12.958
411.173
10.3191
34.8886
394.531
32.6636
51.5365
372.497
73.5286
72.2888
59.325
50.807
316.619
1428.91
1176.97
-716.305
847.377
-563.053
732.188
-135.603
670.381
-174.052
673.787
-2.74994
666.058
40.8054
705.103
6.33692
704.56
59.6097
729.798
12.161
718.165
38.3876
708.907
3.45514
668.965
18.9741
637.314
-5.26431
602.247
3.83316
581.305
-17.125
570.627
-7.2326
572.788
13.5564
610.904
58.672
75.8083
-81.9177
647.661
1958.19
355.04
-218.16
599.518
598.959
-199.793
-77.8778
657.086
-88.1654
182.806
628.57
-109.227
-100.694
671.812
-107.477
-102.133
633.641
-42.0333
-92.8409
630.09
-56.8124
-156.199
588.179
-20.8335
-63.6948
574.803
-28.2121
-102.813
554.505
-5.30326
-36.3746
540.345
5.55902
-58.2415
514.578
23.1504
-25.2597
481.344
31.7384
-40.0506
426.143
35.1005
-16.2699
369.866
28.7554
-23.9371
332.261
8.7203
-14.5731
315.34
-6.66353
-27.5191
317.59
-15.1669
-18.2076
-13.1954
-2.91229
-113.806
-1119.87
-2569.67
47.1596
-135.124
-219.415
114.6
-247.879
-198.947
131.518
-11.4855
-0.984451
272.083
-185.502
-125.055
235.586
-79.7222
27.1197
319.853
-78.3757
-20.1424
300.269
-26.8919
-5.58262
329.746
-5.10858
27.3344
316.071
11.7737
16.3954
328.591
19.7468
28.9218
317.994
34.7295
6.26528
314.97
34.2447
-3.04852
301.44
39.3323
-18.8291
291.847
32.8765
-12.3047
279.223
28.7615
-17.0874
266.399
14.5025
-7.63939
253.841
6.40345
-4.79771
246.811
0.301588
11.9863
0.605473
15.5024
1136.6
-1560.1
-2212.46
530.72
30.8125
-622.089
291.66
-65.3987
-552.237
210.463
37.8541
-15.5388
236.557
-186.795
-23.3368
209.024
-65.0671
58.4517
284.1
-114.211
41.6626
279.339
2.7028
31.7632
305.229
1.21664
54.82
293.946
45.2646
23.7779
293.308
41.9682
27.6686
276.502
59.7516
1.80656
270.682
45.7939
0.912725
258.503
50.2202
-7.18912
252.454
37.8131
-4.36864
243.692
36.2401
-5.66808
234.425
26.3549
-0.651144
223.099
21.557
2.83208
215.603
16.9981
11.375
10.2299
3.3733
699.5
-354.676
-2423.44
512.55
413.824
-784.035
324.645
133.045
-646.132
278.618
26.6632
-120.403
221.744
-143.194
-96.7094
187.821
-46.8035
-11.8061
224.017
-150.787
-39.6036
190.727
36.7056
22.3173
215.837
-34.9725
-4.80912
196.332
64.2129
10.7742
215.097
26.7601
-1.91046
207.267
67.9116
0.294318
216.082
39.3233
-2.54726
209.88
55.5048
-5.05302
210.688
38.2355
-4.47591
205.431
42.2959
-7.19843
200.831
33.4231
-4.25263
195.323
29.9609
-1.64324
195.027
24.3547
1.97372
12.7687
-4.12519
441.801
797.249
-714.765
628.376
654.637
82.6205
449.158
327.971
416.947
313.35
112.923
196.802
285.606
-11.7127
196.732
190.225
56.5223
48.5151
232.097
-143.551
74.6953
193.814
64.5781
19.8036
221.98
-47.424
8.9702
205.091
77.6867
1.10815
213.398
26.7679
-3.5206
203.149
76.774
-4.79558
205.195
39.6094
-3.61803
196.454
62.822
-7.67691
196.089
39.7802
-5.13421
193.008
45.4677
-7.41358
191.503
36.3724
-5.00624
190.181
32.1963
-3.90271
193.848
24.4243
-4.24077
10.8564
-6.51444
-87.7421
796.128
-1089.44
406.436
538.283
17.792
520.463
468.992
-19.8301
401.028
259.897
311.491
352.592
190.99
331.607
201.022
211.007
101.624
240.041
-146.755
48.3118
176.812
163.353
22.069
203.189
-63.8528
-7.62304
178.179
105.919
-3.69983
192.453
13.1805
-8.24369
188.233
80.0719
-10.6464
189.544
31.1283
-3.52721
183.677
61.3983
-5.15254
181.411
35.4149
-1.12792
179.761
42.1513
-3.13121
179.736
34.4203
-3.79372
179.807
28.086
-2.58376
185.629
17.6836
-4.68224
4.7886
-0.936371
-1495.95
521.402
-1486.02
-384.281
269.187
-39.9969
-41.3987
347.017
310.606
139.97
213.602
378.017
242.976
132.286
144.571
107.53
381.378
60.285
159.78
-33.3723
44.9882
-59.6259
-37.1238
-53.8386
109.588
60.4453
16.872
54.0182
61.9433
54.3011
137.216
-17.9167
13.8211
-28.7105
-18.4311
-26.37
133.321
28.3547
-6.96574
26.2389
29.8737
26.8591
155.707
-2.53128
-6.25818
-5.84874
-2.90503
-4.07897
159.85
18.4775
-6.60131
16.7089
18.6761
16.9984
170.138
5.8373
-10.4816
4.46203
4.8632
4.51891
171.46
16.4168
-4.64342
12.2778
15.5662
12.2789
182.057
23.154
0.5944
180.705
34.133
2.49222
181.686
30.7976
-1.48118
179.611
22.8468
0.386219
182.007
11.571
2.1529
0.335793
6.00661
528.871
212.369
839.08
415.62
512.633
-314.24
370.698
439.657
-334.816
391.491
242.827
87.6535
379.376
198.359
99.681
49.3297
129.393
61.7085
55.8212
40.1596
43.8144
155.194
133.265
154.451
-30.3958
37.0431
-5.37253
14.6827
-27.4785
14.4314
18.4892
37.1866
17.8164
-9.99857
-32.7364
27.6904
-9.2473
6.37528
2.58792
-11.7994
23.3722
13.9166
0.277318
4.41189
-29.4098
30.5863
-3.16796
-4.95173
3.30781
-25.08
33.9641
8.76378
-2.47809
2.51433
-36.3918
38.7734
3.80858
-2.86711
1.70332
-34.931
40.4522
11.0469
-1.8546
150.343
7.98956
-17.6348
-39.1094
-43.0991
-31.2126
-35.8155
4.64426
6.89353
4.23983
162.84
17.7668
-5.88446
164.878
25.6534
-5.99042
171.517
12.7364
-0.488044
174.661
8.41877
3.44066
0.673524
15.908
-285.246
772.566
1987.05
104.049
678.401
-57.4989
96.5682
382.647
-388.341
34.485
272.599
59.9974
23.586
167.64
-142.911
22.3368
10.7974
10.7018
-2.67881
35.6141
108.984
11.0596
-2.40672
-7.3514
-14.8087
13.1129
10.6917
0.762281
-8.35181
-8.22234
-6.16017
8.79145
6.14732
7.79555
-4.14537
-10.3728
-0.891589
9.64723
2.12351
3.63905
0.419908
-5.74479
-1.74965
6.26337
1.2021
-0.390943
0.670989
-7.22948
0.227205
7.60964
-0.537042
-0.741312
0.391648
-7.15316
-0.899823
8.02816
0.0548265
-0.421657
0.0312177
-9.01297
-0.965837
9.69701
0.457072
-0.206491
-0.0113013
-9.28771
-1.89566
10.1764
1.14844
-0.130137
-10.0267
0.999781
39.7336
7.63646
-1.46777
-10.229
-9.20962
-9.44728
138.91
16.2474
-0.659339
-35.4842
-39.3602
-28.6504
-32.6625
145.351
15.6559
4.22224
149.975
7.8054
4.4739
155.678
2.6606
4.33912
-3.97962
12.4009
-902.072
-160.318
-265.184
-308.869
160.071
257.006
-83.9583
71.0346
-237.871
-68.6178
159.605
6.69954
-8.92714
148.665
-154.084
-11.6884
-20.7211
-23.9312
32.9723
-84.0892
20.3908
54.3673
-32.5683
4.89103
-16.2792
-11.5209
12.4412
14.946
-4.47805
-5.14819
-12.1305
-11.4693
11.009
13.3009
4.438
-2.66429
-7.24886
-9.7442
8.91527
8.51983
2.22225
1.75308
-2.95017
-6.4268
6.02434
3.49536
-1.89581
-6.54594
0.0560481