/*--------------------------------*- C++ -*----------------------------------*\
  =========                 |
  \\      /  F ield         | OpenFOAM: The Open Source CFD Toolbox
   \\    /   O peration     | Website:  https://openfoam.org
    \\  /    A nd           | Version:  10
     \\/     M anipulation  |
\*---------------------------------------------------------------------------*/
FoamFile
{
    format      ascii;
    class       volScalarField;
    location    "8.4";
    object      turbidity_0;
}
// * * * * * * * * * * * * * * * * * * * * * * * * * * * * * * * * * * * * * //

dimensions      [0 0 0 0 0 0 0];

internalField   nonuniform List<scalar> 
12920
(
-0.0699586
-0.0823816
-0.0814361
-0.0953834
-0.0923336
-0.0936834
-0.0946208
-0.0954127
-0.103729
-0.119528
-0.15105
-0.19064
-0.231495
-0.257205
-0.268237
-0.265916
-0.260607
-0.260461
-0.276194
-0.303974
-0.0406816
-0.0710391
-0.0963995
-0.134225
-0.151026
-0.154228
-0.149438
-0.151483
-0.161246
-0.184192
-0.217609
-0.25264
-0.278152
-0.288636
-0.296431
-0.30649
-0.327179
-0.353905
-0.381263
-0.414459
-0.032199
-0.0514352
-0.0684711
-0.110047
-0.153213
-0.186979
-0.207653
-0.215603
-0.22372
-0.239667
-0.26248
-0.287291
-0.310575
-0.32985
-0.350026
-0.371146
-0.394585
-0.420168
-0.448023
-0.480118
-0.0177604
-0.0503492
-0.0663754
-0.0965709
-0.133724
-0.185534
-0.226856
-0.254956
-0.272595
-0.285104
-0.298609
-0.312462
-0.328085
-0.343844
-0.364177
-0.386288
-0.411799
-0.438568
-0.466218
-0.49339
-0.0102381
-0.0390928
-0.0585667
-0.0819819
-0.112039
-0.158873
-0.204128
-0.239965
-0.265331
-0.28344
-0.30053
-0.314956
-0.333287
-0.35029
-0.371491
-0.392532
-0.416455
-0.440224
-0.46341
-0.483023
-0.0317679
-0.0500546
-0.0644527
-0.0909552
-0.130121
-0.181479
-0.210036
-0.24328
-0.265905
-0.293933
-0.316396
-0.33452
-0.353701
-0.370901
-0.390864
-0.410208
-0.430748
-0.449955
-0.46921
-0.486938
-0.057739
-0.0802777
-0.0881013
-0.114771
-0.13758
-0.160089
-0.173384
-0.20583
-0.222431
-0.251493
-0.272672
-0.307661
-0.338404
-0.368766
-0.397128
-0.420019
-0.440077
-0.457272
-0.474448
-0.489944
-0.0623381
-0.0656289
-0.0806879
-0.095747
-0.108095
-0.132931
-0.126358
-0.136012
-0.150695
-0.158495
-0.16869
-0.193934
-0.223173
-0.253986
-0.264002
-0.303741
-0.334014
-0.361947
-0.385264
-0.402284
-0.0656721
-0.0488096
-0.0459974
-0.0627639
-0.0770734
-0.0790309
-0.0847343
-0.0806009
-0.111301
-0.120239
-0.112314
-0.11564
-0.13351
-0.148392
-0.156919
-0.179638
-0.227401
-0.269343
-0.307314
-0.340344
-0.0538302
-0.0430261
-0.0476799
-0.060575
-0.0713569
-0.0624821
-0.0630162
-0.0737053
-0.10542
-0.109061
-0.102772
-0.0965211
-0.0922065
-0.087311
-0.0927803
-0.15667
-0.206927
-0.25002
-0.286328
-0.320333
-0.0387587
-0.0533213
-0.0510282
-0.0674619
-0.0767454
-0.0664764
-0.0601405
-0.0562555
-0.0777961
-0.0994067
-0.101659
-0.0958059
-0.0840004
-0.0772142
-0.0911017
-0.148582
-0.196107
-0.241544
-0.286704
-0.328247
-0.0871161
-0.0491405
-0.0676224
-0.0867973
-0.0912322
-0.0718654
-0.0655784
-0.0565326
-0.0551397
-0.0666339
-0.0811639
-0.110501
-0.0975626
-0.0849471
-0.0955298
-0.173136
-0.237979
-0.306812
-0.37625
-0.43307
-0.0290212
-0.0377448
-0.0592384
-0.0945066
-0.120408
-0.148092
-0.131769
-0.11041
-0.0978104
-0.0883733
-0.11999
-0.143569
-0.141799
-0.13658
-0.248448
-0.329237
-0.40584
-0.473429
-0.533902
-0.584034
-0.0279666
-0.0359839
-0.0457667
-0.0915737
-0.143365
-0.179145
-0.191825
-0.222348
-0.201183
-0.223368
-0.231828
-0.27435
-0.306532
-0.357809
-0.405468
-0.450379
-0.489228
-0.528661
-0.575308
-0.625688
-0.0297402
-0.0475057
-0.0586376
-0.0820389
-0.111876
-0.164902
-0.20756
-0.241167
-0.245468
-0.252539
-0.25296
-0.256823
-0.267866
-0.288183
-0.317833
-0.34717
-0.382899
-0.427752
-0.485036
-0.550826
-0.0343403
-0.0575768
-0.0781035
-0.106416
-0.142292
-0.191661
-0.223471
-0.247103
-0.258937
-0.265261
-0.270357
-0.270161
-0.276239
-0.284735
-0.300578
-0.318903
-0.34362
-0.374737
-0.411992
-0.463492
-0.0888764
-0.0716933
-0.0805004
-0.117601
-0.150603
-0.184407
-0.219542
-0.24615
-0.264545
-0.276864
-0.285761
-0.294703
-0.304386
-0.317153
-0.332255
-0.350702
-0.373656
-0.403226
-0.442148
-0.496734
-0.08969
-0.0978521
-0.108844
-0.123541
-0.153543
-0.195154
-0.2267
-0.256619
-0.28061
-0.301872
-0.318553
-0.334986
-0.350814
-0.368432
-0.387329
-0.408979
-0.434665
-0.466225
-0.503226
-0.550587
-0.105619
-0.0834738
-0.0776006
-0.0980924
-0.117781
-0.139145
-0.155184
-0.169858
-0.194952
-0.218165
-0.247478
-0.271816
-0.302499
-0.329133
-0.355292
-0.37779
-0.40591
-0.444928
-0.494482
-0.547458
-0.0956127
-0.0644038
-0.0744529
-0.118906
-0.139549
-0.15991
-0.175444
-0.189616
-0.204495
-0.220415
-0.23661
-0.253073
-0.267994
-0.278859
-0.284725
-0.286848
-0.295647
-0.317892
-0.357301
-0.398866
-0.0215725
-0.044282
-0.0185969
-0.0226117
-0.0219643
-0.0226619
-0.0207121
-0.0193863
-0.0191186
-0.0203589
-0.0232409
-0.0251616
-0.0254821
-0.0237288
-0.0216396
-0.0202639
-0.0213253
-0.0259765
-0.0363369
-0.049834
-0.00570768
-0.0264584
-0.0218995
-0.0456662
-0.0509077
-0.0580313
-0.0670032
-0.0714976
-0.0814636
-0.0840544
-0.0797652
-0.0591022
-0.0391375
-0.0303105
-0.0315766
-0.039787
-0.0572674
-0.0853196
-0.123343
-0.148077
-0.0131488
-0.0121487
-0.0145557
-0.0192809
-0.0307152
-0.050187
-0.0717946
-0.0811677
-0.0890115
-0.0815053
-0.0693247
-0.0500127
-0.0402516
-0.0393665
-0.0481992
-0.0637567
-0.0865655
-0.109555
-0.129361
-0.129733
-0.00562058
-0.0103723
-0.0135613
-0.0171306
-0.0233848
-0.0281807
-0.0383837
-0.0424514
-0.0454672
-0.0413608
-0.037323
-0.0301113
-0.0293274
-0.0322548
-0.0402629
-0.0516147
-0.066744
-0.0808478
-0.0916697
-0.0871571
-0.0124057
-0.0145258
-0.0189344
-0.0238795
-0.0441565
-0.0490163
-0.057981
-0.0432014
-0.0392612
-0.0299386
-0.0286427
-0.0256203
-0.0255893
-0.0265329
-0.0295509
-0.0340632
-0.0396235
-0.0444572
-0.0479538
-0.047031
-0.0129608
-0.0174712
-0.0306951
-0.0542351
-0.0798357
-0.0664049
-0.0582616
-0.0481863
-0.0387293
-0.0299075
-0.0253876
-0.0224345
-0.0212976
-0.021533
-0.0226972
-0.0245401
-0.0266705
-0.0289798
-0.0332519
-0.0429663
-0.018135
-0.0391354
-0.0335956
-0.0501271
-0.048618
-0.0429017
-0.0466073
-0.0375304
-0.0229044
-0.0171261
-0.0146874
-0.0150815
-0.0154722
-0.0166282
-0.019034
-0.0214263
-0.0247538
-0.0307481
-0.0459701
-0.0687047
-0.0146534
-0.0181719
-0.0249612
-0.0312492
-0.0411176
-0.0450596
-0.0615596
-0.0688817
-0.0420545
-0.0150702
-0.0120364
-0.012512
-0.0133741
-0.0144785
-0.0169705
-0.0210948
-0.0275472
-0.0381863
-0.0566975
-0.0694269
-0.00883988
-0.0136845
-0.0063542
-0.00830768
-0.0119372
-0.0258798
-0.0375995
-0.0648806
-0.0665063
-0.0164246
-0.0104838
-0.010749
-0.0115527
-0.0125503
-0.0155223
-0.0290421
-0.0388856
-0.0493752
-0.0583694
-0.0615608
-0.00496942
-0.00872012
-0.00507853
-0.00556066
-0.00867009
-0.013266
-0.0232838
-0.0572405
-0.0698718
-0.0351514
-0.0229102
-0.0130397
-0.0109997
-0.0138856
-0.0257492
-0.0393178
-0.0439921
-0.0472272
-0.0498366
-0.0536318
-0.00564571
-0.0111246
-0.00539909
-0.00549865
-0.00818778
-0.0103515
-0.0157177
-0.030061
-0.0650636
-0.0764314
-0.0803401
-0.0622521
-0.0287364
-0.0236518
-0.0342273
-0.044048
-0.0485883
-0.0525538
-0.0555353
-0.0585206
-0.059105
-0.0129749
-0.0140713
-0.0148913
-0.014687
-0.0177745
-0.0200395
-0.0247299
-0.0374433
-0.0560147
-0.0671142
-0.101897
-0.0847018
-0.0573045
-0.0567665
-0.0650961
-0.0711063
-0.075588
-0.0760395
-0.0734451
-0.012112
-0.0136609
-0.0255048
-0.0345694
-0.0425612
-0.0468837
-0.0512271
-0.0652159
-0.0752799
-0.0777563
-0.0901439
-0.0934627
-0.0885397
-0.0902138
-0.0766306
-0.0781465
-0.0780785
-0.0782149
-0.0802332
-0.081954
-0.0053986
-0.0223909
-0.0376099
-0.0419001
-0.0411088
-0.0514812
-0.0686251
-0.0764583
-0.0605686
-0.0526927
-0.0470042
-0.0444706
-0.0479072
-0.0508811
-0.056177
-0.0631238
-0.0734501
-0.0859716
-0.101117
-0.108123
-0.00906158
-0.0214165
-0.0212639
-0.0193538
-0.034042
-0.0486372
-0.0728225
-0.0639083
-0.0508987
-0.0365752
-0.0341729
-0.0344271
-0.039908
-0.0474424
-0.0560845
-0.0647588
-0.0772167
-0.095902
-0.124665
-0.140241
-0.0084016
-0.0305455
-0.035117
-0.0359068
-0.0523135
-0.0608577
-0.0716418
-0.0639163
-0.0530869
-0.040848
-0.0354434
-0.0342787
-0.0369203
-0.0425037
-0.0508611
-0.0626673
-0.0801646
-0.106177
-0.14349
-0.165699
-0.0282134
-0.0280809
-0.0296134
-0.0554643
-0.0704124
-0.0803105
-0.0891586
-0.0797267
-0.0720152
-0.0626802
-0.0614271
-0.0624596
-0.0717366
-0.0817564
-0.0960861
-0.112781
-0.131868
-0.151903
-0.173585
-0.172898
-0.0223684
-0.0356575
-0.0373139
-0.0588269
-0.0754708
-0.0640784
-0.0606029
-0.0614438
-0.0702497
-0.0762216
-0.0891476
-0.0993186
-0.1162
-0.131911
-0.149907
-0.16417
-0.172349
-0.170961
-0.162051
-0.132802
-0.0212897
-0.0289499
-0.0128965
-0.0172008
-0.0183929
-0.0176326
-0.0151366
-0.0147053
-0.0170977
-0.0212119
-0.0268152
-0.0334137
-0.0439345
-0.0601511
-0.087598
-0.123618
-0.164436
-0.197666
-0.216942
-0.1955
-0.042154
-0.0229752
-0.0206046
-0.0240384
-0.0250396
-0.0314969
-0.0360232
-0.0349728
-0.0392668
-0.0397634
-0.0446803
-0.0446098
-0.0430235
-0.037715
-0.0350811
-0.0383019
-0.0521359
-0.0758529
-0.111177
-0.135086
-0.00463148
-0.0179309
-0.0118166
-0.0141302
-0.0164123
-0.0182305
-0.0177442
-0.0166722
-0.0150272
-0.0131485
-0.0115654
-0.0103611
-0.00971176
-0.00942246
-0.00976724
-0.0109198
-0.0132015
-0.0165705
-0.0208924
-0.0247932
-0.0036765
-0.0125446
-0.0144864
-0.0216014
-0.0241837
-0.0304675
-0.038188
-0.0391194
-0.0411115
-0.0337434
-0.0260427
-0.0172234
-0.0141753
-0.0150232
-0.0184535
-0.023949
-0.0319972
-0.0413837
-0.0526586
-0.0588923
-0.00392322
-0.00726827
-0.0107987
-0.0132312
-0.0158643
-0.0221733
-0.0313618
-0.0334408
-0.0341835
-0.0268238
-0.0216514
-0.0181392
-0.019355
-0.0228401
-0.0280687
-0.0338708
-0.0402211
-0.044929
-0.0479746
-0.0460815
-0.00914631
-0.0103713
-0.0109924
-0.0125
-0.013344
-0.0130923
-0.0142468
-0.0147796
-0.0150981
-0.0145139
-0.0143487
-0.014932
-0.0168751
-0.0195506
-0.0226394
-0.0255263
-0.0281164
-0.0296872
-0.0303092
-0.0287444
-0.0053801
-0.0122083
-0.0161736
-0.0185199
-0.0257545
-0.0201325
-0.0195272
-0.0148095
-0.0140364
-0.0130605
-0.0129242
-0.012889
-0.0133644
-0.0142948
-0.0153873
-0.0164738
-0.0172757
-0.0177249
-0.0180143
-0.0182324
-0.0191713
-0.0221991
-0.0333287
-0.0377913
-0.0422255
-0.0227723
-0.0171359
-0.0139338
-0.0118786
-0.0109583
-0.0102983
-0.0101332
-0.0101281
-0.0105669
-0.011135
-0.0119346
-0.0128858
-0.0141643
-0.0161168
-0.0188606
-0.0211569
-0.0214072
-0.0217307
-0.024645
-0.0216654
-0.0171506
-0.0154331
-0.0116273
-0.00863326
-0.00827315
-0.0078742
-0.00812199
-0.00852123
-0.00949546
-0.0111087
-0.0133626
-0.0164951
-0.0206845
-0.0262575
-0.031647
-0.00940686
-0.010478
-0.0139112
-0.0184098
-0.0231203
-0.0212331
-0.0265554
-0.0177743
-0.00946431
-0.00724149
-0.00707255
-0.00736778
-0.00795635
-0.00917744
-0.0138915
-0.0171745
-0.0205688
-0.0237906
-0.0265414
-0.0270162
-0.00624685
-0.00541902
-0.00567978
-0.00757799
-0.0109422
-0.017517
-0.0229472
-0.0326843
-0.0140461
-0.00677577
-0.00662271
-0.00717227
-0.00841976
-0.0105353
-0.0158115
-0.0211618
-0.0231722
-0.0241786
-0.0241271
-0.0231198
-0.00339933
-0.00377681
-0.00351037
-0.00504016
-0.00899304
-0.0127086
-0.0179797
-0.0341222
-0.0233559
-0.0136371
-0.00965744
-0.00874487
-0.0112639
-0.0155119
-0.0212289
-0.0224338
-0.0241487
-0.0260118
-0.0279098
-0.0296417
-0.00219692
-0.00512074
-0.0040344
-0.00528006
-0.0104253
-0.0143065
-0.0215067
-0.0357557
-0.0497391
-0.0594336
-0.0543048
-0.0255736
-0.0176282
-0.0198786
-0.0237859
-0.0262194
-0.0274688
-0.0287684
-0.0303641
-0.0324969
-0.00750407
-0.0070128
-0.00844355
-0.0117289
-0.018771
-0.0259993
-0.0309728
-0.0415813
-0.052956
-0.0564938
-0.0619824
-0.0615262
-0.0379159
-0.0332093
-0.0338017
-0.0302682
-0.0304746
-0.0302201
-0.0296345
-0.0294886
-0.00578466
-0.00685323
-0.0112605
-0.0189231
-0.0263493
-0.0325058
-0.0401559
-0.0582196
-0.0658885
-0.0697515
-0.0604323
-0.0430384
-0.039654
-0.040049
-0.030614
-0.0297453
-0.0289854
-0.0284526
-0.028312
-0.028243
-0.00883655
-0.0153797
-0.0223883
-0.0204175
-0.0252698
-0.0303655
-0.0356791
-0.030246
-0.0314979
-0.0262575
-0.0247458
-0.0240025
-0.0250625
-0.0262449
-0.0278888
-0.0298114
-0.0319511
-0.0336794
-0.0350011
-0.0341076
-0.00783142
-0.012193
-0.0123771
-0.0166915
-0.0267564
-0.0295448
-0.034137
-0.0235535
-0.0214239
-0.0187569
-0.0203669
-0.0223318
-0.0253758
-0.0287299
-0.0319278
-0.0352006
-0.0392363
-0.0434675
-0.0478266
-0.0455205
-0.00650381
-0.0165761
-0.0170586
-0.0219973
-0.0276183
-0.0292215
-0.029574
-0.023983
-0.020242
-0.0191381
-0.0204694
-0.0236536
-0.0274102
-0.0319345
-0.0365589
-0.041746
-0.0482454
-0.0558547
-0.0647062
-0.0629036
-0.0224414
-0.0169486
-0.0195512
-0.0307862
-0.0330202
-0.0370718
-0.0368077
-0.0305249
-0.0278052
-0.0278583
-0.0310967
-0.0361706
-0.0421926
-0.0479008
-0.0532323
-0.0580538
-0.0627438
-0.0657353
-0.067057
-0.0559099
-0.0212431
-0.0177307
-0.0161212
-0.0286213
-0.0272303
-0.0231533
-0.023177
-0.0255613
-0.0306984
-0.0356886
-0.044068
-0.0520489
-0.0624684
-0.0704348
-0.0762316
-0.076464
-0.0722678
-0.0631273
-0.0532233
-0.0401016
-0.0173325
-0.0134438
-0.00966012
-0.0113741
-0.0113311
-0.0108049
-0.00961294
-0.0097613
-0.0114642
-0.0141649
-0.0179647
-0.0230159
-0.0308328
-0.041254
-0.0544047
-0.0668577
-0.079489
-0.0864075
-0.0850195
-0.0688946
-0.0305617
-0.0252336
-0.0211077
-0.0166642
-0.0118619
-0.00986737
-0.0112205
-0.0121825
-0.0152336
-0.017084
-0.0191644
-0.0187268
-0.0180731
-0.0180474
-0.0211655
-0.0278275
-0.0373815
-0.0487203
-0.0613392
-0.0707828
-0.00298411
-0.00752343
-0.00902647
-0.0123697
-0.014516
-0.0139934
-0.0123304
-0.0102976
-0.00867117
-0.00730319
-0.00649848
-0.00633263
-0.00666956
-0.00759552
-0.00886674
-0.0104529
-0.0121868
-0.0138939
-0.01556
-0.0170322
-0.00575268
-0.00918904
-0.00951282
-0.012028
-0.0120787
-0.0140707
-0.0159835
-0.0146518
-0.0140954
-0.0108151
-0.00941374
-0.00902211
-0.0101628
-0.0120285
-0.0143698
-0.0168735
-0.0196431
-0.0223309
-0.0252943
-0.0267278
-0.000504402
-0.00235588
-0.00550293
-0.00786612
-0.00933894
-0.0115793
-0.0139745
-0.0130963
-0.0126293
-0.0108914
-0.0109112
-0.0116306
-0.0132643
-0.0150443
-0.0170175
-0.0187988
-0.020544
-0.0216632
-0.0224589
-0.0222521
-0.00171759
-0.0052167
-0.00706551
-0.00770297
-0.00823744
-0.00888354
-0.00911295
-0.00912947
-0.00901181
-0.00907316
-0.00956137
-0.0103354
-0.0113727
-0.0124445
-0.0134788
-0.0143691
-0.0151754
-0.0157901
-0.0163327
-0.016651
-0.00586642
-0.00958158
-0.0111934
-0.0108964
-0.0122773
-0.00998906
-0.00971459
-0.00897239
-0.00850047
-0.00808287
-0.00793486
-0.00821022
-0.0086768
-0.00937874
-0.0100139
-0.0106706
-0.0112917
-0.011972
-0.0127968
-0.0137126
-0.0079186
-0.0148995
-0.018148
-0.0184451
-0.0153695
-0.00936769
-0.00753936
-0.00717725
-0.00642159
-0.00632357
-0.00622961
-0.00661854
-0.00706948
-0.00771738
-0.00835643
-0.00910175
-0.00997085
-0.0110598
-0.0124413
-0.013963
-0.00962384
-0.0104472
-0.0126847
-0.0125213
-0.00978011
-0.00795281
-0.00671464
-0.00616251
-0.00546734
-0.00551304
-0.00574554
-0.00629373
-0.00709156
-0.00805909
-0.0092608
-0.0105712
-0.0121061
-0.0138607
-0.0158368
-0.0174278
-0.0132831
-0.00943227
-0.010105
-0.011244
-0.011377
-0.00913351
-0.00905648
-0.00639176
-0.00529009
-0.00529179
-0.00566837
-0.00634896
-0.00720008
-0.00828167
-0.0099421
-0.0108707
-0.011858
-0.0129761
-0.0142164
-0.0151875
-0.0026747
-0.00425529
-0.00534624
-0.00650019
-0.00743813
-0.00890866
-0.00969685
-0.00847826
-0.00546487
-0.00537592
-0.00619106
-0.0072732
-0.00837687
-0.00948115
-0.0106309
-0.011111
-0.0117629
-0.0123518
-0.0129189
-0.0135171
-0.00162327
-0.00259122
-0.00341482
-0.00537573
-0.00849658
-0.00849597
-0.00893129
-0.0107179
-0.00815753
-0.00825288
-0.00838686
-0.00926105
-0.0104705
-0.0116192
-0.0131779
-0.0158849
-0.016808
-0.0174666
-0.0177529
-0.0177834
-0.00172173
-0.00157409
-0.00327613
-0.00653023
-0.013213
-0.0183353
-0.0217928
-0.0257632
-0.0348825
-0.0431439
-0.0292149
-0.01617
-0.0150526
-0.0159219
-0.0177784
-0.018789
-0.0200718
-0.0213901
-0.0225727
-0.0234232
-0.0049693
-0.0052097
-0.00827365
-0.013018
-0.0188314
-0.0230282
-0.0285075
-0.0411213
-0.0588312
-0.0619617
-0.0587395
-0.0274241
-0.0208989
-0.019195
-0.0177505
-0.0168828
-0.0176312
-0.0183658
-0.0191602
-0.0199762
-0.000408461
-0.00255141
-0.00759667
-0.0146967
-0.0193126
-0.0190226
-0.0262897
-0.0361486
-0.0489103
-0.0486823
-0.0297942
-0.0209107
-0.0188175
-0.0178806
-0.0153599
-0.015352
-0.0153955
-0.0155542
-0.0158804
-0.0162666
-0.00290746
-0.00944134
-0.011926
-0.0131318
-0.0147018
-0.0151269
-0.0164344
-0.0147062
-0.0172941
-0.0150815
-0.0145769
-0.0143559
-0.0144467
-0.0147076
-0.0149424
-0.0152415
-0.0155251
-0.0157419
-0.0160358
-0.0161274
-0.0072404
-0.00931308
-0.0107987
-0.014507
-0.0176377
-0.0149651
-0.0152673
-0.0127979
-0.0135714
-0.0139182
-0.0146518
-0.0155971
-0.0161415
-0.0167385
-0.0169771
-0.0173074
-0.0176463
-0.0178456
-0.0181185
-0.0171471
-0.00891117
-0.0152381
-0.0148138
-0.014705
-0.0136635
-0.0141734
-0.0137216
-0.0138852
-0.0142286
-0.0160493
-0.0172474
-0.0188468
-0.0196737
-0.0204089
-0.0208618
-0.0212957
-0.0220725
-0.0226976
-0.0233659
-0.020599
-0.0191435
-0.0128074
-0.0128678
-0.0147461
-0.013759
-0.0172153
-0.0171524
-0.017557
-0.0188937
-0.0213084
-0.0234065
-0.0250911
-0.0260921
-0.026233
-0.0260643
-0.0254868
-0.0250147
-0.023746
-0.0222499
-0.018321
-0.00744029
-0.00991059
-0.0104258
-0.0144459
-0.0112118
-0.0128242
-0.0146392
-0.0180211
-0.0219458
-0.0257141
-0.0300887
-0.0329542
-0.0356461
-0.035621
-0.0345167
-0.0316717
-0.0290034
-0.0261411
-0.024279
-0.0226873
-0.00776226
-0.00843246
-0.00969361
-0.0104247
-0.00995532
-0.00881293
-0.00824911
-0.00923372
-0.0109193
-0.013396
-0.0165838
-0.0205742
-0.0253485
-0.0297961
-0.0342501
-0.0373712
-0.0407995
-0.042681
-0.0433589
-0.0439103
-0.00644944
-0.0101818
-0.0125154
-0.0112842
-0.0101479
-0.00931319
-0.00919801
-0.00939831
-0.0103512
-0.0103835
-0.0106299
-0.0108259
-0.0128155
-0.0164676
-0.0216182
-0.0275328
-0.0339113
-0.0405926
-0.0476312
-0.0555442
-0.00442518
-0.00888958
-0.0127537
-0.0143726
-0.0128464
-0.010143
-0.00763988
-0.00597025
-0.00528399
-0.00548972
-0.00633025
-0.0075977
-0.00902723
-0.0103986
-0.0117117
-0.0130167
-0.0143648
-0.0158091
-0.0173291
-0.0188379
-0.00821052
-0.0103228
-0.0095784
-0.00865629
-0.00783107
-0.00685668
-0.00668188
-0.00677677
-0.00733806
-0.00799266
-0.00888931
-0.00979725
-0.0105938
-0.0112544
-0.0118604
-0.0124369
-0.0130775
-0.0137214
-0.0144973
-0.015079
-0.00102541
-0.00485096
-0.00560911
-0.00645722
-0.00697984
-0.00735225
-0.00761408
-0.00771503
-0.00832168
-0.00898736
-0.0098581
-0.0106092
-0.0112769
-0.0117391
-0.0121094
-0.0123233
-0.0124941
-0.0125813
-0.0127385
-0.0128811
-0.00324496
-0.00782183
-0.00698326
-0.00633235
-0.006788
-0.00694154
-0.00689609
-0.00727978
-0.00780638
-0.00856275
-0.00928487
-0.00995299
-0.0104745
-0.0108777
-0.0111728
-0.0113921
-0.0115799
-0.0117644
-0.0120008
-0.0122471
-0.0246415
-0.00887944
-0.00759542
-0.00737234
-0.00710979
-0.00656468
-0.00618713
-0.00632127
-0.00672005
-0.00749651
-0.00820168
-0.00896271
-0.00956159
-0.0101153
-0.0105637
-0.0109583
-0.0113048
-0.0116314
-0.0119656
-0.0122658
-0.00728318
-0.00752345
-0.00796712
-0.00800677
-0.00616096
-0.00541218
-0.00496561
-0.00547254
-0.00601859
-0.00685431
-0.00760407
-0.00840948
-0.00912412
-0.00983211
-0.0104966
-0.0111354
-0.0117488
-0.0123295
-0.012881
-0.0133279
-0.0135096
-0.0074185
-0.00706689
-0.00668305
-0.00532226
-0.00483
-0.00466398
-0.00517702
-0.00586559
-0.00664292
-0.00744678
-0.00825711
-0.00906704
-0.00988252
-0.0106952
-0.0115005
-0.0122951
-0.0130581
-0.0137712
-0.0143209
-0.00518671
-0.00526573
-0.00622006
-0.0061431
-0.0052799
-0.0048237
-0.00460639
-0.00505365
-0.0055668
-0.00635873
-0.00698298
-0.00773098
-0.00839033
-0.00917072
-0.010401
-0.0111001
-0.0117624
-0.0123711
-0.0129246
-0.0133462
-0.00244835
-0.00224518
-0.00382991
-0.00470649
-0.00500689
-0.00497043
-0.00467136
-0.00494518
-0.00549507
-0.00622162
-0.00677254
-0.00729358
-0.00781169
-0.00836786
-0.00942962
-0.0106078
-0.0110809
-0.0114849
-0.0118413
-0.0121165
-0.00107605
-0.0019169
-0.00321188
-0.00510456
-0.00688504
-0.00561509
-0.00523859
-0.00596681
-0.00718517
-0.00822395
-0.00876179
-0.00928553
-0.00977064
-0.0101204
-0.0108533
-0.0115764
-0.0115787
-0.0115464
-0.0115272
-0.0115964
-0.000556854
-0.00134225
-0.00330403
-0.00685233
-0.0109168
-0.0130902
-0.0128382
-0.0131352
-0.0150482
-0.015755
-0.0133961
-0.0124544
-0.0129607
-0.0137553
-0.0140246
-0.0130849
-0.0129558
-0.0126948
-0.0124342
-0.0124017
-0.00315519
-0.00390353
-0.00668424
-0.00975643
-0.0116303
-0.0122613
-0.0142812
-0.01924
-0.0290722
-0.0354454
-0.0202318
-0.0136246
-0.0129519
-0.0129913
-0.0123818
-0.0114629
-0.0114798
-0.0113554
-0.0112474
-0.011337
-0.000551828
-0.00142688
-0.00566038
-0.00976902
-0.0103195
-0.0104905
-0.0124184
-0.0141184
-0.0171837
-0.0175002
-0.0126371
-0.0112428
-0.0107752
-0.0105104
-0.00975414
-0.00979337
-0.00984722
-0.00998682
-0.0102495
-0.0105767
-0.00627277
-0.00793251
-0.0083086
-0.00833124
-0.008508
-0.00932801
-0.00990038
-0.00977571
-0.010116
-0.00975069
-0.00950765
-0.00933378
-0.00927087
-0.00925608
-0.00932731
-0.00945151
-0.00967107
-0.00999055
-0.010434
-0.0108557
-0.00381768
-0.00551058
-0.00720175
-0.00854712
-0.0091865
-0.00927192
-0.00955355
-0.00977992
-0.00981962
-0.0098784
-0.00969755
-0.00961201
-0.00942455
-0.00935221
-0.00934271
-0.00947617
-0.00972002
-0.0100772
-0.0105743
-0.0109629
-0.0182512
-0.0103148
-0.00857706
-0.00850853
-0.00854364
-0.00975633
-0.0100296
-0.0108259
-0.0107531
-0.0109648
-0.0106898
-0.0105826
-0.0103036
-0.0101513
-0.010058
-0.0100915
-0.0103039
-0.0105643
-0.0109755
-0.0110736
-0.0279348
-0.0115068
-0.00951233
-0.00887463
-0.00950452
-0.0113341
-0.0119391
-0.0128084
-0.0129771
-0.0130848
-0.0128442
-0.0124532
-0.0120523
-0.011602
-0.0112793
-0.0110241
-0.0109581
-0.0109495
-0.0111262
-0.0111972
-0.0121781
-0.0102648
-0.00875564
-0.00854231
-0.00836087
-0.0108429
-0.012498
-0.0144998
-0.0157303
-0.0163756
-0.016786
-0.0164925
-0.0162632
-0.0155486
-0.0149741
-0.0143364
-0.0139492
-0.0135874
-0.0134667
-0.0135827
-0.0147273
-0.00918685
-0.00995991
-0.00841339
-0.00637888
-0.0066581
-0.00814376
-0.0109745
-0.0137982
-0.0169094
-0.0196173
-0.0218731
-0.0237079
-0.0252836
-0.0267829
-0.0279529
-0.0291846
-0.0303699
-0.0313315
-0.0327272
-0.00192673
-0.00764162
-0.00927404
-0.00794155
-0.00594401
-0.00467892
-0.00493011
-0.00534739
-0.0070562
-0.00980021
-0.013829
-0.0188593
-0.0235584
-0.0283771
-0.0327178
-0.0372112
-0.041644
-0.0464682
-0.0515607
-0.0566245
-0.0105892
-0.0499847
-0.0488752
-0.00916703
-0.00886325
-0.0360979
-0.0287462
-0.00856824
-0.0434622
-0.0228032
-0.00888136
-0.00965939
-0.0240711
-0.0157824
-0.0585312
-0.0592118
-0.0608377
-0.0499758
-0.0431669
-0.0622143
-0.0619808
-0.0320195
-0.0635177
-0.0639942
-0.0367336
-0.0198687
-0.0614686
-0.0377361
-0.0788115
-0.0714721
-0.0740354
-0.0812198
-0.0800553
-0.0565759
-0.0680359
-0.102042
-0.0796111
-0.104203
-0.0829805
-0.10216
-0.0739284
-0.0955329
-0.118856
-0.108459
-0.110684
-0.106555
-0.0877121
-0.0977309
-0.0796136
-0.111916
-0.109304
-0.103906
-0.0808357
-0.0672445
-0.07242
-0.0638268
-0.109746
-0.102337
-0.0984001
-0.071445
-0.0787339
-0.0643177
-0.0642911
-0.124333
-0.0975813
-0.0965068
-0.0849336
-0.0913086
-0.0635862
-0.0576137
-0.139851
-0.0965551
-0.0948595
-0.098789
-0.102478
-0.0568751
-0.0544381
-0.151205
-0.0942626
-0.0910762
-0.109566
-0.10992
-0.0550291
-0.0563822
-0.0676075
-0.0592397
-0.0573474
-0.0461133
-0.0622103
-0.0419091
-0.0457294
-0.0998497
-0.0581243
-0.0730412
-0.0690048
-0.0902752
-0.051092
-0.0675703
-0.11011
-0.0867014
-0.105875
-0.0937726
-0.0841032
-0.0757265
-0.0913591
-0.10442
-0.105098
-0.103287
-0.0792252
-0.0715627
-0.089931
-0.0900327
-0.0979262
-0.102889
-0.0970375
-0.0697746
-0.0636523
-0.0904507
-0.082162
-0.0931228
-0.0943239
-0.0871841
-0.0609842
-0.0529837
-0.0760079
-0.0587248
-0.0886073
-0.085101
-0.079581
-0.0512921
-0.0494167
-0.0550794
-0.0521597
-0.0832562
-0.0781039
-0.0763168
-0.0500814
-0.0545418
-0.0532919
-0.0604438
-0.0564446
-0.0599
-0.0552889
-0.0414573
-0.0398677
-0.0393646
-0.0313092
-0.0655446
-0.0543406
-0.0542103
-0.0435323
-0.0614698
-0.0314006
-0.0415976
-0.10009
-0.056523
-0.0711875
-0.0692633
-0.0882279
-0.048498
-0.0669787
-0.0998783
-0.073495
-0.0741736
-0.0873393
-0.0862782
-0.0697069
-0.0718168
-0.0991587
-0.083754
-0.104934
-0.0884293
-0.090966
-0.0723529
-0.095992
-0.0864545
-0.106717
-0.0965457
-0.0860494
-0.0676644
-0.104272
-0.0999653
-0.0784372
-0.0919989
-0.0832006
-0.0629088
-0.0558256
-0.0938707
-0.0746198
-0.0765757
-0.0819129
-0.0810429
-0.0555011
-0.0586991
-0.069791
-0.0623099
-0.0580562
-0.0917339
-0.0702944
-0.0463093
-0.033469
-0.0887519
-0.0603294
-0.054408
-0.0679216
-0.0623375
-0.0325307
-0.0376537
-0.0569889
-0.0518058
-0.0641528
-0.061035
-0.0588892
-0.0424865
-0.0587453
-0.0511797
-0.0525679
-0.0701068
-0.0589894
-0.0748499
-0.0621874
-0.0676315
-0.0545152
-0.0657392
-0.107664
-0.0923307
-0.117711
-0.0698091
-0.0977993
-0.074421
-0.116878
-0.102321
-0.119649
-0.114166
-0.108212
-0.108331
-0.124189
-0.12321
-0.0867546
-0.111403
-0.100591
-0.103127
-0.0846914
-0.120878
-0.11118
-0.0831457
-0.0981616
-0.0919804
-0.079714
-0.0711916
-0.109853
-0.10715
-0.0543947
-0.0251163
-0.047512
-0.0368427
-0.0433079
-0.0251481
-0.0393205
-0.0751982
-0.0603578
-0.0770464
-0.0445455
-0.0298805
-0.043796
-0.0342902
-0.0235335
-0.0684656
-0.030682
-0.0222841
-0.0105161
-0.0269233
-0.0144453
-0.0107719
-0.0245609
-0.0168095
-0.00931472
-0.00828524
-0.0126459
-0.00980126
-0.0105418
-0.0153481
-0.0122378
-0.008397
-0.0088262
-0.00923551
-0.00866597
-0.0112584
-0.0114686
-0.0104756
-0.00916925
-0.00996697
-0.0087892
-0.00999113
-0.0121634
-0.0106028
-0.0119435
-0.0104292
-0.0116542
-0.0106386
-0.0133616
-0.0137042
-0.012651
-0.0159399
-0.0122657
-0.0143593
-0.0144699
-0.018596
-0.0451385
-0.0186688
-0.0297083
-0.0231307
-0.0383017
-0.021008
-0.0338447
-0.0752177
-0.0364585
-0.0628257
-0.0426832
-0.0383301
-0.039415
-0.0525047
-0.0406324
-0.0703422
-0.074202
-0.0323716
-0.0198739
-0.0532367
-0.0515806
-0.0259848
-0.0744082
-0.076973
-0.0177232
-0.0130215
-0.0535267
-0.0538596
-0.0148961
-0.0754417
-0.055059
-0.0116279
-0.00945417
-0.0492196
-0.0261361
-0.0109125
-0.0441391
-0.0221847
-0.00938442
-0.0106262
-0.0205861
-0.0153227
-0.0128469
-0.0192842
-0.0185512
-0.0114057
-0.0147429
-0.0155869
-0.0187051
-0.0191279
-0.0199415
-0.0271576
-0.0161159
-0.0214424
-0.020157
-0.0250967
-0.0249895
-0.0150605
-0.0207526
-0.0196266
-0.031575
-0.021117
-0.03178
-0.0564579
-0.0235242
-0.0358704
-0.0369101
-0.0522097
-0.0357458
-0.0468531
-0.0757482
-0.0425269
-0.0603472
-0.0549862
-0.058331
-0.0500954
-0.0572228
-0.0794427
-0.0635303
-0.0689602
-0.0613577
-0.0642672
-0.0585474
-0.0617965
-0.0721191
-0.0697296
-0.0907182
-0.0621643
-0.0392192
-0.0640892
-0.0718099
-0.0340758
-0.096857
-0.0812954
-0.0308516
-0.0194842
-0.0668106
-0.0436073
-0.0231298
-0.0715202
-0.049068
-0.0188269
-0.0204902
-0.0388441
-0.0329021
-0.0293337
-0.0455544
-0.042696
-0.0216286
-0.025854
-0.0327572
-0.0343553
-0.0227085
-0.0393848
-0.0336448
-0.026736
-0.0341397
-0.0392497
-0.0428874
-0.0331028
-0.0352033
-0.0361614
-0.0374895
-0.046607
-0.0462597
-0.0488685
-0.0523347
-0.0365413
-0.0439316
-0.0490704
-0.0542917
-0.0480953
-0.0465784
-0.0648615
-0.0480537
-0.0635822
-0.0551895
-0.0590565
-0.0476436
-0.0608665
-0.0929766
-0.0717362
-0.10749
-0.0621724
-0.0756132
-0.0684403
-0.074933
-0.0930895
-0.112469
-0.106923
-0.0726647
-0.0511651
-0.0697761
-0.0572752
-0.0615879
-0.103305
-0.0922727
-0.0461104
-0.0385588
-0.0549597
-0.0518231
-0.052509
-0.0909663
-0.0871536
-0.0380469
-0.0393562
-0.0524179
-0.0542103
-0.0326499
-0.0178257
-0.0312811
-0.0174379
-0.0143039
-0.0149106
-0.0144873
-0.0188478
-0.0350711
-0.0240566
-0.0124785
-0.0077314
-0.0136735
-0.00896451
-0.00721551
-0.018371
-0.0102478
-0.00681431
-0.00606708
-0.00806495
-0.00729241
-0.00657617
-0.00937726
-0.00796759
-0.0061201
-0.00646399
-0.00728187
-0.00757737
-0.00697017
-0.00768578
-0.00776488
-0.00667252
-0.00749916
-0.00778195
-0.0088403
-0.00803961
-0.00805269
-0.00968394
-0.00781456
-0.00896732
-0.00929009
-0.0108244
-0.0099422
-0.0104089
-0.0131815
-0.00940249
-0.0109582
-0.0113378
-0.0128452
-0.0131182
-0.0142136
-0.0178195
-0.0114982
-0.0135525
-0.0133002
-0.0147602
-0.0299491
-0.0204646
-0.0307223
-0.014331
-0.0150224
-0.0185479
-0.0231834
-0.0283034
-0.0356763
-0.0464228
-0.0147691
-0.0112572
-0.0246234
-0.0275768
-0.0148229
-0.0458115
-0.0475078
-0.0102205
-0.00925849
-0.0286741
-0.0346454
-0.0171703
-0.0126397
-0.0216898
-0.0114718
-0.0205327
-0.0108242
-0.0182803
-0.0111273
-0.00901661
-0.0147124
-0.00898102
-0.0126813
-0.00873688
-0.0123188
-0.0104394
-0.0182421
-0.0147114
-0.0100756
-0.0115249
-0.0151722
-0.0151714
-0.0143549
-0.0150391
-0.0174129
-0.0120099
-0.0134089
-0.0153177
-0.0159638
-0.0194578
-0.0183913
-0.0212518
-0.0138244
-0.015263
-0.0162358
-0.0172982
-0.0313044
-0.0253705
-0.0358481
-0.022885
-0.0279452
-0.0302544
-0.0406562
-0.0483779
-0.0397492
-0.0497207
-0.029771
-0.0361669
-0.0439282
-0.0542551
-0.0564213
-0.0524016
-0.0586037
-0.0389558
-0.0482164
-0.0576963
-0.0629515
-0.063617
-0.0614113
-0.0623987
-0.0571488
-0.0640109
-0.059975
-0.0624023
-0.0562241
-0.0478073
-0.0652969
-0.0527548
-0.0624838
-0.045672
-0.0615136
-0.0178724
-0.0563752
-0.0357999
-0.018044
-0.0167595
-0.0311939
-0.0235896
-0.019098
-0.0326032
-0.0291884
-0.0167492
-0.0171093
-0.022769
-0.021475
-0.022408
-0.0292282
-0.0300263
-0.0173323
-0.0185423
-0.021332
-0.0215332
-0.038144
-0.0364279
-0.0444487
-0.0330671
-0.0403481
-0.0351052
-0.0453781
-0.0507578
-0.0485121
-0.0524118
-0.0440034
-0.056172
-0.0506723
-0.0596011
-0.0565458
-0.0520018
-0.0495921
-0.0595672
-0.0620153
-0.0614846
-0.0586344
-0.058523
-0.0499012
-0.0617389
-0.060508
-0.0613454
-0.0585099
-0.0628848
-0.067978
-0.0682796
-0.0635408
-0.0624474
-0.0403713
-0.0585801
-0.0352088
-0.0414038
-0.0570438
-0.0461561
-0.0335765
-0.0255721
-0.0315477