/*--------------------------------*- C++ -*----------------------------------*\
  =========                 |
  \\      /  F ield         | OpenFOAM: The Open Source CFD Toolbox
   \\    /   O peration     | Website:  https://openfoam.org
    \\  /    A nd           | Version:  10
     \\/     M anipulation  |
\*---------------------------------------------------------------------------*/
FoamFile
{
    format      ascii;
    class       volVectorField;
    location    "8.4";
    object      U;
}
// * * * * * * * * * * * * * * * * * * * * * * * * * * * * * * * * * * * * * //

dimensions      [0 1 -1 0 0 0 0];

internalField   nonuniform List<vector> 
12920
(
(332.156 -124.967 22.0828)
(-72.7611 -101.267 69.102)
(119.423 -25.7521 13.6048)
(-0.513168 -1.0225 6.0898)
(111.659 11.751 -3.16035)
(62.6537 9.40254 -4.85831)
(110.738 18.0339 -5.53043)
(87.4462 14.6681 -7.06366)
(106.491 18.3494 -6.12012)
(93.2748 15.7037 -6.16548)
(99.8925 15.094 -3.93938)
(91.0329 11.3991 -2.8323)
(93.295 6.52546 -0.672278)
(87.5384 3.52217 -0.547186)
(88.8014 3.1007 -0.567774)
(86.9946 3.57452 -1.29939)
(88.1591 4.60222 -2.08937)
(89.0651 5.6505 -2.66527)
(89.8278 5.93769 -2.01556)
(87.3926 5.74652 -1.20527)
(603.655 -50.1317 -378.204)
(-57.0389 -47.0782 4.49732)
(150.574 -48.3723 -0.477227)
(-23.7292 -18.7287 5.97057)
(99.1661 -16.6082 1.98285)
(32.2508 1.10983 1.6376)
(96.2922 10.7035 1.8735)
(66.9839 15.5501 0.618867)
(93.4167 17.3134 2.16128)
(75.1247 14.222 1.8459)
(81.7285 8.89462 2.80748)
(68.6533 4.84496 1.90307)
(70.8071 3.04235 0.785839)
(65.1265 3.28267 -0.336108)
(67.6005 3.78836 -0.897695)
(67.4744 5.41729 -1.50626)
(71.1828 5.6378 -1.03579)
(72.2869 4.2609 -0.15993)
(71.7678 3.20336 0.970206)
(67.139 2.8413 0.750925)
(170.354 -172.504 99.6747)
(-8.06219 27.923 5.88102)
(137.866 -32.3313 -5.89341)
(3.39334 -7.12335 -0.224927)
(93.771 -30.0574 -0.158353)
(24.7989 -14.6414 1.50162)
(81.4303 -12.9934 2.9507)
(53.127 -2.84253 2.27006)
(81.1984 3.74743 2.93397)
(67.0559 8.27746 2.11362)
(76.3076 9.8437 1.8377)
(66.4466 10.38 0.738331)
(69.3305 8.76674 0.410241)
(64.3655 8.14655 -0.112019)
(66.1106 6.8703 -0.142235)
(64.6209 6.25675 -0.169945)
(65.8971 5.1762 0.0957611)
(65.0582 4.45177 0.209385)
(62.5584 5.04273 0.77799)
(57.0093 4.38125 0.341408)
(87.1323 -41.686 5.859)
(-56.5558 24.2528 -10.8628)
(122.365 -7.13071 -17.8745)
(7.01761 2.02026 -4.04099)
(96.6572 -18.5208 -5.09935)
(8.22662 -10.1862 -1.98146)
(74.7036 -19.4263 -0.605801)
(24.3565 -5.83264 0.905574)
(62.8899 -4.49051 0.494252)
(42.0103 3.3686 0.541593)
(60.1733 3.89015 0.528869)
(52.362 6.32496 0.0669667)
(60.1196 5.3992 0.194647)
(56.8789 6.23593 -0.15203)
(59.8809 5.44046 0.00915631)
(58.441 5.67572 -0.156963)
(59.1633 5.31646 0.000197281)
(58.1023 5.18857 0.0462522)
(56.1938 5.57153 0.392165)
(53.4355 4.45693 0.13405)
(278.18 33.9802 56.0975)
(164.965 39.0305 32.3951)
(194.443 28.2017 9.37199)
(111.435 32.0061 -0.0712616)
(133.592 7.6004 2.26693)
(58.8526 5.26597 0.928543)
(83.4928 -19.4545 3.3625)
(45.511 -3.09861 0.374571)
(66.8589 -12.3003 0.970037)
(51.5735 2.46333 -0.249286)
(63.7698 -0.457982 0.405244)
(56.6897 6.84541 -0.213151)
(61.8493 4.93692 0.102239)
(57.9726 7.60659 -0.249005)
(59.3906 6.28589 -0.0455877)
(57.5632 7.04587 -0.210235)
(57.6827 6.22759 -0.0579724)
(56.7393 6.16839 -0.0812624)
(55.5285 6.10258 0.097272)
(53.8718 4.96856 0.00694404)
(148.402 2.20885 -160.395)
(78.9458 -33.8189 -31.4892)
(185.178 11.1376 -17.771)
(117.63 30.8425 0.975602)
(131.713 22.8429 9.44278)
(40.0811 13.9426 3.37986)
(83.3946 -11.5315 2.92954)
(34.3862 -0.155096 1.03793)
(56.5351 -8.74831 0.510971)
(37.9871 3.65258 0.126951)
(49.5783 0.92174 -0.108939)
(44.2682 7.49085 -0.219877)
(49.9597 5.67686 -0.101151)
(48.975 8.93355 -0.240932)
(51.3707 7.2731 -0.110398)
(51.4801 7.84298 -0.167534)
(52.1816 7.39876 -0.058329)
(52.7944 6.85544 -0.111033)
(52.4728 6.41802 -0.0701743)
(52.2438 4.88128 0.142358)
(291.756 141.627 -260.819)
(109.727 56.4728 -49.8893)
(180.59 40.2335 12.138)
(25.7587 33.0187 12.4514)
(117.478 21.4856 7.83061)
(38.4319 23.1931 1.2343)
(78.4385 -29.3004 1.67087)
(38.8664 11.852 0.488798)
(52.6842 -18.4005 0.559112)
(36.145 6.71383 -0.3599)
(45.7839 -5.09191 -0.512322)
(41.0444 6.86453 -0.50696)
(46.4391 1.91043 -0.391172)
(44.5314 6.58627 -0.347928)
(46.4026 4.98491 -0.062282)
(47.4507 6.68654 -0.112554)
(48.3549 6.08933 -0.010615)
(49.2367 6.09341 -0.0867142)
(49.6057 5.39696 -0.0512495)
(49.9222 3.40696 0.403219)
(318.496 92.2057 -278.092)
(66.3427 27.9234 4.99207)
(175.82 4.38965 11.9363)
(60.4941 -12.0064 5.53707)
(127.615 -13.6606 4.92004)
(59.6655 34.0804 1.05391)
(85.5043 -2.21451 -0.492882)
(39.2343 4.08203 1.81359)
(43.58 -2.54429 1.59869)
(20.7485 5.17828 0.287847)
(31.2433 -0.353552 0.0649422)
(28.203 4.67582 -0.087495)
(35.7706 3.50453 -0.0258326)
(35.0945 7.06294 -0.043338)
(35.8619 4.6991 -0.261217)
(38.7273 6.109 -0.287936)
(39.593 6.87328 -0.358244)
(42.1591 5.70777 -0.260187)
(42.7656 4.01636 0.0567116)
(41.9293 1.81272 0.368979)
(383.534 96.9226 -40.3397)
(40.5924 111.31 43.4284)
(169.273 53.6099 -3.08657)
(12.6375 21.9952 -0.113316)
(104.683 3.12898 -3.80046)
(50.6595 12.5219 -1.30676)
(89.3691 16.4799 -0.28908)
(76.9667 -1.20757 1.42839)
(51.088 4.04426 0.109406)
(30.6105 6.15041 0.106258)
(30.0695 1.7028 0.034015)
(28.0935 1.75705 0.0793926)
(30.7417 3.47397 0.0632754)
(31.2194 4.47763 -0.0105021)
(32.2341 4.81472 0.0459095)
(31.2036 3.77925 0.050934)
(34.0413 4.95188 -0.0556994)
(34.9243 3.34788 -0.00857962)
(35.6232 2.98493 0.100574)
(34.9473 1.40072 0.106149)
(218.759 117.431 -209.57)
(-71.6972 67.1387 26.3242)
(96.9002 20.879 -2.62922)
(-21.4468 20.9693 -3.91761)
(76.8286 14.7894 -4.68483)
(10.0153 20.1875 -3.03943)
(49.616 15.5416 -0.67279)
(51.5952 23.4681 2.38301)
(34.0522 18.9964 -0.273102)
(27.5218 15.4759 -0.000164773)
(29.8609 4.69189 -0.105334)
(32.0657 3.73353 -0.029316)
(30.7503 5.37066 -0.0207959)
(30.2786 6.1285 -0.0448829)
(29.4608 6.54157 0.0362239)
(28.2998 5.14825 -0.0186876)
(29.6826 3.82585 -0.100936)
(31.4475 3.71378 -0.136631)
(33.197 1.53887 -0.372936)
(36.4786 -0.966307 -0.226935)
(111.723 36.8684 -84.03)
(-95.1175 105.513 17.7757)
(132.303 68.3612 -4.37525)
(-11.5212 49.6037 -0.125308)
(93.7272 34.4077 -2.71688)
(43.2761 20.9917 -3.7467)
(63.4918 16.1168 -1.98994)
(79.5525 17.2788 -1.09468)
(49.8069 34.888 1.96824)
(12.0423 21.9658 1.08819)
(19.1624 -7.61161 -0.260584)
(34.7039 0.529189 0.066827)
(34.7827 6.98968 -0.0536477)
(32.3998 8.18935 0.0291133)
(30.0214 6.86768 -0.239112)
(29.1317 3.40476 -0.227865)
(31.3289 3.21371 -0.0854256)
(34.1704 0.908051 -0.104693)
(36.047 -1.81939 -0.206435)
(38.5404 -3.38276 -0.0936735)
(-107.29 22.9081 -45.9074)
(-227.62 -0.492785 -38.5386)
(34.3275 -14.3096 -5.92072)
(-70.3329 28.395 1.44127)
(51.0792 22.7529 -1.43825)
(-4.96336 22.7068 -2.94364)
(64.232 19.9123 -1.47081)
(84.358 24.222 -1.82739)
(101.752 33.0675 -1.04328)
(112.053 53.7946 -1.26436)
(52.3842 -9.76981 2.23401)
(49.2004 3.0027 -0.21222)
(37.4716 10.7474 0.179551)
(31.1368 11.9958 -0.0354072)
(30.5563 8.1306 -0.115409)
(28.5585 4.78731 -0.0170565)
(31.4574 0.520426 0.211694)
(31.6786 -0.751923 0.324316)
(32.9209 -4.06599 0.189947)
(32.571 -4.44544 0.0689442)
(78.6661 -63.3809 -54.8242)
(52.865 32.7186 -48.3364)
(168.59 -2.84525 -10.325)
(37.1673 -9.78087 3.1867)
(100.182 0.743591 6.73205)
(35.9562 -28.6575 -0.0232011)
(76.466 7.82808 -1.873)
(70.0374 11.8019 -0.553765)
(105.897 21.6613 2.02213)
(85.868 26.4468 6.37187)
(48.3156 31.6653 -0.690136)
(27.7213 15.8966 0.145358)
(30.0181 14.7325 0.196816)
(25.7678 11.1767 0.387922)
(22.9538 7.81753 0.340269)
(26.8064 2.65181 0.176646)
(26.0475 -0.366417 0.0446808)
(28.1068 -2.41443 -0.132557)
(28.7212 -5.13772 -0.153705)
(29.2074 -5.69978 -0.020855)
(165.581 186.642 -206.034)
(156.7 162.869 -45.3208)
(194.95 118.219 23.3266)
(14.4837 52.6897 16.4698)
(72.6319 8.07635 6.89501)
(-14.5691 -13.9786 -1.07986)
(44.4641 41.4942 0.026586)
(-13.8101 -11.1391 2.6938)
(12.632 37.5727 -0.539009)
(-8.93271 13.7237 0.165219)
(17.8486 30.9564 -0.818819)
(9.83319 12.4312 -0.760177)
(21.7677 16.3411 -0.6172)
(20.2409 5.71576 -0.739268)
(26.7377 5.90806 -0.712588)
(26.8762 0.530449 -0.636656)
(30.2991 -0.559921 -0.476253)
(30.6469 -2.99716 -0.367418)
(32.1867 -6.02571 -0.215272)
(30.3485 -6.72195 -0.0589842)
(154.094 130.4 -86.5837)
(-37.3659 23.0693 -1.6799)
(127.207 39.0416 0.841062)
(57.0037 12.427 2.57511)
(96.5925 8.48068 1.96668)
(16.4987 -9.32835 -1.62054)
(54.5255 22.3324 2.31261)
(5.67383 5.46041 1.15853)
(24.377 27.8813 0.352871)
(9.07769 17.3423 -0.327469)
(25.9021 25.4391 -1.46733)
(25.3857 13.6124 -2.03533)
(37.6764 14.2461 -2.66486)
(41.3505 7.03466 -1.85342)
(47.5112 5.32569 -1.07953)
(47.4226 2.29251 -0.872428)
(47.9946 -0.508219 -0.791768)
(47.0531 -2.14532 -0.846387)
(45.9372 -5.36863 -0.185899)
(39.3712 -5.64115 0.419417)
(192.314 114.039 -243.754)
(20.5904 122.133 -23.1965)
(153.682 83.8561 10.0041)
(39.8896 43.1673 6.01924)
(81.4743 48.3511 5.74314)
(-2.63624 17.0546 0.0767391)
(53.5003 40.442 0.910809)
(5.4003 12.1802 0.594136)
(43.897 32.3734 0.357338)
(24.4753 15.2774 -0.0180893)
(48.3307 23.7457 0.138257)
(43.7777 12.5334 -0.883464)
(57.0436 14.0771 -0.702823)
(56.7665 7.08384 -1.20536)
(63.5031 7.13653 -0.823539)
(63.2379 5.10844 -0.832005)
(65.5256 4.61379 -0.620398)
(64.1076 2.89051 -0.296423)
(62.403 -0.0276896 0.524669)
(52.4873 -1.42785 0.517113)
(5.6666 -129.798 -127.94)
(-180.045 27.2162 -18.829)
(85.3791 35.7844 -10.3602)
(-70.9014 5.53946 7.3534)
(61.2373 32.9834 0.529006)
(-25.3166 1.75775 1.68271)
(52.4061 13.6708 1.63132)
(8.33792 1.68545 0.958676)
(49.7821 11.6075 1.83331)
(34.26 7.03945 0.744834)
(54.9256 11.5228 1.02351)
(50.1999 7.48326 0.223918)
(60.5491 8.0992 0.552596)
(59.1721 5.14662 0.095682)
(63.8759 4.59921 0.369004)
(63.2923 3.41937 0.334817)
(64.7934 2.40217 0.553647)
(63.2921 0.726957 0.669175)
(61.1116 1.0251 1.03604)
(50.291 0.595975 0.582514)
(191.3 189.321 -45.0896)
(-12.9647 83.3635 -9.60975)
(137.751 42.5782 0.633998)
(6.90926 3.06538 5.18088)
(84.9534 14.4109 9.43711)
(-9.13045 1.96377 1.35487)
(60.0823 3.10716 1.42964)
(7.61698 -1.7493 0.236565)
(49.9268 5.57417 0.996848)
(26.1644 2.23047 0.491353)
(50.1195 7.22267 1.23059)
(40.9433 3.39468 0.677522)
(53.5095 4.90093 1.24305)
(49.9781 2.04309 0.82336)
(55.8165 2.63841 1.12493)
(54.2246 1.67567 1.02862)
(56.1409 2.38074 1.0522)
(54.2607 1.74647 0.839194)
(51.9574 4.86193 0.690339)
(43.3881 4.9012 0.582945)
(360.903 -88.4554 -275.699)
(-106.58 116.831 34.1399)
(82.9141 15.0196 -4.52095)
(-46.5931 20.3055 1.89281)
(75.5597 10.9817 -3.0534)
(13.1318 7.0147 -1.28762)
(68.3258 -1.30944 -1.05112)
(26.5649 -0.999729 -1.85525)
(54.7821 -5.16118 -0.960375)
(31.4137 -2.1819 -1.57227)
(49.4668 -4.20426 -1.00039)
(39.8978 -3.10559 -1.59345)
(52.0161 -4.39575 -1.13303)
(50.1108 -4.14298 -1.13718)
(57.9991 -4.37402 -0.0884227)
(57.8106 -4.04904 0.34279)
(60.4554 -2.71182 1.13278)
(58.4011 -1.21394 1.71523)
(54.5622 5.52278 2.74649)
(46.8772 5.15956 1.62619)
(-243.799 71.4318 -27.3884)
(-101.17 59.4833 3.00541)
(73.422 -43.9834 -11.1793)
(-0.0824144 -16.4868 7.22793)
(88.6972 -5.09999 3.03935)
(37.1327 8.11507 2.44106)
(83.1856 13.432 1.74053)
(57.2598 15.4863 0.705031)
(82.9915 15.2754 1.02744)
(70.0978 13.3685 0.335616)
(84.6253 10.9966 0.525318)
(78.0314 8.48344 0.00114952)
(85.3082 3.9914 0.121448)
(79.0746 -0.304579 -0.169191)
(79.5512 -3.69573 -0.500524)
(74.6338 -4.18155 -1.11004)
(75.4963 -3.73222 -1.42071)
(74.9224 -3.04325 -1.40797)
(73.2235 0.627171 -0.320259)
(76.6991 3.70068 0.420393)
(-60.3814 63.6274 66.8139)
(-136.786 -66.8224 52.0919)
(93.7183 -32.0495 2.0186)
(-8.26883 -11.8393 2.78485)
(105.48 -3.49563 -11.4867)
(51.9254 -6.9837 -7.91069)
(100.667 2.14081 -7.84079)
(71.9152 -1.77935 -9.26703)
(90.5132 2.64672 -5.92951)
(73.3015 0.263992 -6.13394)
(80.3205 1.92847 -2.73827)
(71.379 1.52258 -2.4053)
(74.8868 3.05229 -0.755096)
(70.3201 3.43293 -1.08344)
(70.3557 4.93989 -1.52248)
(64.5055 5.6145 -2.45548)
(60.7814 3.9138 -2.49566)
(56.0309 1.13385 -2.5457)
(54.5715 -0.435996 -1.45518)
(53.0891 -0.979243 -0.548767)
(47.1744 -56.0396 -231.133)
(-87.6629 -35.2361 49.4209)
(98.5802 -34.7759 -1.83243)
(-50.2635 -12.7404 7.89874)
(89.0402 -20.0034 -0.679422)
(8.71992 -7.7489 1.46929)
(81.4318 -2.24024 2.54311)
(39.9875 0.246996 0.845733)
(72.5556 2.21767 4.20884)
(50.4577 1.04279 2.42689)
(62.7094 0.666571 3.6192)
(51.2876 0.988519 1.50363)
(56.5022 2.04786 0.55858)
(50.756 3.11132 -0.9666)
(52.9412 3.68216 -1.13364)
(50.2626 3.89234 -1.42881)
(51.1389 3.0636 -0.778274)
(49.6421 1.44246 -0.125859)
(48.3691 0.108488 0.854978)
(45.8485 0.00902703 1.36159)
(60.005 -163.15 174.953)
(-31.4122 7.74942 -31.4556)
(119.027 -26.4236 -14.4214)
(-5.18684 -0.195873 0.0350948)
(83.7392 -24.8212 0.796793)
(10.7929 -10.3483 1.75797)
(71.7156 -11.4575 3.96019)
(36.9495 -2.35364 2.51934)
(66.9056 1.80399 4.13019)
(48.5316 6.13881 2.11471)
(59.5273 7.35159 2.29816)
(48.5024 8.39194 0.488058)
(52.6324 7.15666 0.390422)
(47.0869 6.87537 -0.345526)
(48.9517 5.56958 -0.138877)
(46.4773 4.97849 -0.212268)
(47.2874 3.57549 0.112487)
(45.6945 2.80292 0.31834)
(43.9638 2.45497 0.830731)
(40.9591 2.07982 0.771948)
(180.644 29.8895 112.877)
(20.8877 38.916 -9.98994)
(111.929 10.9077 -23.9928)
(8.1633 6.48801 -7.63032)
(86.4838 -13.9939 -5.40448)
(-0.4804 -7.48203 -1.97919)
(65.708 -14.9752 -1.4237)
(14.5712 -1.8125 1.20126)
(53.6681 -1.523 -0.224456)
(30.6583 5.18017 0.56738)
(48.5159 4.71275 0.366663)
(38.3319 6.76108 0.0543501)
(45.8129 5.39012 0.146251)
(41.075 6.02268 -0.228907)
(43.8611 4.92927 -0.0475528)
(41.6924 5.0199 -0.205764)
(42.3716 4.30784 -0.0162158)
(41.1527 3.95351 0.068581)
(40.0819 3.69861 0.284313)
(38.1321 2.54465 0.285041)
(310.666 141.89 -37.1737)
(149.148 117.605 14.6643)
(176.23 46.8582 15.2293)
(65.367 22.1896 4.95772)
(107.964 -6.61627 12.2392)
(25.3378 -2.64899 2.33909)
(69.2165 -19.7502 5.57403)
(28.0994 1.89292 0.350891)
(54.3841 -7.54713 1.31071)
(35.5646 7.15941 -0.234989)
(48.7016 2.11712 0.522822)
(39.4958 8.7279 -0.240353)
(45.0506 5.38308 0.0765416)
(40.3497 7.69887 -0.355514)
(42.1723 5.63119 -0.110143)
(40.1262 6.18519 -0.272791)
(40.5886 5.06325 -0.111315)
(39.8778 4.74744 -0.103741)
(39.2997 4.17106 -0.081222)
(38.1165 2.78201 0.126198)
(232.676 119.835 14.9474)
(121.982 161.839 16.5057)
(167.752 86.8227 7.95449)
(60.0085 38.6193 12.4145)
(112.797 19.3773 20.2678)
(14.9296 14.5441 3.93335)
(72.8009 -8.48893 3.74305)
(20.4673 6.58422 1.92778)
(45.6176 -3.09806 0.342613)
(26.2243 8.38074 0.116124)
(37.9898 3.49535 -0.335956)
(31.3013 9.10426 -0.345357)
(36.4854 6.10253 -0.368551)
(34.3056 8.37755 -0.415824)
(36.3666 6.12973 -0.219142)
(35.9759 6.35866 -0.253693)
(36.6297 5.61605 -0.15126)
(37.1334 4.94063 -0.20913)
(36.9946 4.02727 -0.23847)
(36.9989 2.34167 0.285033)
(-48.9603 166.992 7.85634)
(-85.0727 59.5605 76.7503)
(98.8531 54.6993 28.0745)
(-25.213 30.6706 21.8747)
(106.274 23.6238 9.32381)
(9.40654 28.1582 3.37045)
(59.186 -26.4113 2.31928)
(16.6712 22.7767 1.33186)
(37.7533 -12.1332 0.712258)
(21.6902 12.9352 -0.322694)
(32.6864 -1.38054 -0.583594)
(27.3386 9.53536 -0.568118)
(32.6271 2.96739 -0.500802)
(30.3305 7.11265 -0.362879)
(32.2153 4.53938 -0.0490494)
(32.9771 5.74775 -0.205642)
(33.9637 4.80952 -0.10151)
(34.6343 4.30212 -0.21682)
(35.1251 2.90847 -0.130451)
(35.289 1.15384 0.46107)
(11.8747 -13.2855 -87.9564)
(-77.5869 -13.7568 27.1747)
(138.944 15.6146 -0.91806)
(15.9073 4.1597 7.02899)
(114.772 2.45129 7.30073)
(26.9931 51.352 2.28452)
(64.7986 -2.75864 3.8356)
(20.9939 15.4719 4.34867)
(31.4815 -5.2657 2.29005)
(16.1042 6.30068 -0.611151)
(24.7851 -1.74149 -0.624429)
(21.7049 4.39341 -0.820636)
(27.3303 1.76676 -0.543419)
(26.2035 5.39536 -0.559991)
(25.9238 3.73556 -0.728514)
(28.3671 4.70121 -0.43173)
(28.5184 4.93691 -0.412958)
(30.0426 3.47162 -0.17206)
(30.2575 1.92232 0.0945317)
(29.8528 0.506651 0.26234)
(-2.95054 79.8561 1.03345)
(-41.919 107.722 43.1828)
(113.715 66.152 -12.1583)
(-15.835 37.2124 0.914607)
(81.212 21.6089 -5.0366)
(22.2107 36.5782 -1.75076)
(60.0862 18.0357 1.289)
(44.93 6.77385 4.35227)
(34.2074 3.32141 3.15961)
(20.348 3.13986 0.0329003)
(22.0152 -0.819037 -0.391482)
(21.0078 0.383623 -0.474183)
(24.0892 1.15042 -0.248895)
(24.4823 2.21914 -0.214467)
(25.197 3.11244 -0.177633)
(23.5096 2.82314 -0.140716)
(25.4893 3.72799 -0.0395225)
(25.8246 2.02561 0.0671237)
(26.6571 1.58512 0.184854)
(26.3361 0.344127 -0.0519357)
(-56.4553 88.352 -26.7999)
(-129.83 31.9769 29.71)
(64.7738 13.7239 -10.8334)
(-28.4706 18.6687 -5.29487)
(53.7444 15.2635 -6.90961)
(2.51825 26.6913 -7.87109)
(38.6608 23.9215 -3.58458)
(42.1456 25.7686 3.3415)
(28.7746 19.0129 2.229)
(19.4459 11.1529 -0.49727)
(20.0937 1.83573 -0.207287)
(23.5836 1.9046 -0.298486)
(23.9024 3.71995 -0.219278)
(23.7102 4.58201 -0.150447)
(23.3736 5.36154 -0.142382)
(22.4608 4.07566 -0.252331)
(23.7372 2.63737 -0.157034)
(24.932 1.91574 -0.208927)
(26.2244 0.100663 -0.42826)
(27.2932 -0.946636 -0.318369)
(-21.2638 83.0359 -102.596)
(-120.401 47.7288 0.695117)
(90.579 38.8782 -17.4459)
(-42.0661 37.2709 1.05338)
(71.9808 29.4673 -5.05522)
(14.471 18.2718 -6.36154)
(39.1595 18.9497 -4.41069)
(51.2321 25.5673 -2.52753)
(51.2831 36.5579 7.97659)
(25.2881 26.5538 -3.96294)
(21.712 -5.72355 -1.30865)
(30.5858 -0.41942 0.584237)
(29.3695 4.9789 -0.104928)
(26.784 6.22341 -0.248456)
(24.7917 5.32385 -0.572597)
(22.8755 1.87718 -0.504009)
(24.5505 1.45936 -0.210383)
(26.087 -0.871326 -0.105552)
(27.3465 -2.29126 -0.273598)
(28.0724 -2.69144 -0.246674)
(88.9252 -75.8281 -122.709)
(-198.612 -23.4368 -10.2714)
(17.3363 -28.3583 -13.1951)
(-79.1616 15.4203 5.07848)
(27.2932 11.4831 -3.20464)
(-17.5957 6.573 -2.95906)
(45.524 10.9196 -3.01662)
(59.8331 21.9254 -6.59036)
(74.5813 38.9012 -2.79188)
(91.9618 45.3409 -0.751692)
(79.5912 -5.4115 14.4247)
(40.4963 4.65533 0.878034)
(30.326 9.67026 0.647182)
(25.8942 9.0086 -0.0535023)
(24.5645 4.45266 -0.167377)
(20.645 2.87649 -0.158695)
(23.0345 -0.596707 0.243044)
(23.056 -1.35852 0.375817)
(24.3321 -3.40443 0.233151)
(23.9627 -3.16911 -0.107193)
(126.869 -6.20957 -27.7869)
(-39.4479 7.88599 -65.1292)
(118.275 -30.2744 -22.1967)
(-32.0384 -10.8267 2.54677)
(90.1839 -0.809731 6.3745)
(2.50795 -35.9383 -0.526451)
(53.0696 9.51862 -0.710425)
(38.9843 4.20099 -1.01702)
(78.4269 15.0095 4.89436)
(70.5455 21.1918 17.6245)
(43.8059 30.3743 5.58396)
(20.433 16.3273 1.54178)
(22.385 12.9214 0.737875)
(17.7511 7.4018 0.793192)
(15.6759 5.72976 -0.00798426)
(19.1484 1.65224 0.159487)
(18.3799 -0.741832 0.030071)
(19.9618 -2.35753 -0.0928575)
(20.438 -4.10742 -0.117905)
(20.5727 -4.20128 -0.050019)
(75.08 168.962 3.30316)
(-40.4359 122.379 11.2464)
(88.1593 88.7147 31.9736)
(-54.0304 33.137 15.1631)
(59.4783 5.27264 6.96009)
(-36.5252 -7.93308 0.0421797)
(21.4401 44.412 -0.94002)
(-29.7775 -13.285 3.70528)
(2.10029 34.0742 -3.05269)
(-14.1826 10.0575 1.35383)
(11.2812 27.5734 -1.47993)
(4.2555 9.86292 -0.794392)
(15.3267 13.8461 -0.793939)
(13.2812 4.09954 -1.08831)
(18.2477 4.83563 -0.945161)
(17.8625 0.23579 -0.768038)
(20.3709 -0.888662 -0.583848)
(19.9871 -3.12932 -0.40591)
(21.2277 -5.0396 -0.121299)
(20.1303 -5.06084 -0.144026)
(72.6958 84.5995 -76.7291)
(-38.0157 12.3444 4.00544)
(93.2078 29.8607 -1.09185)
(10.4734 -0.182017 0.399365)
(72.3437 1.63731 7.38976)
(-18.818 -13.9488 0.936811)
(40.2036 24.7161 5.30838)
(-8.90626 -0.072781 1.14164)
(16.8613 22.612 0.490689)
(2.91645 10.242 -0.442447)
(19.507 17.9759 -2.01243)
(17.5156 7.40388 -2.67262)
(25.8492 8.91032 -3.22274)
(25.5068 2.767 -2.42723)
(29.3592 2.29888 -1.4551)
(29.2543 -0.361598 -1.21357)
(30.0958 -1.99111 -0.93264)
(28.9709 -3.42048 -0.800644)
(28.1334 -5.27984 0.038341)
(24.6731 -5.01613 0.455964)
(167.358 -56.7736 -66.6891)
(-104.44 77.6848 2.92172)
(109.609 64.02 10.3227)
(-25.0729 33.3458 7.03415)
(65.7654 41.3483 9.53297)
(-26.8228 10.0367 2.09751)
(43.3341 35.5498 2.09209)
(-6.16894 5.77118 1.53444)
(34.194 25.6843 0.322925)
(12.5921 6.82117 -0.0419639)
(36.3124 15.6887 -0.349691)
(28.1974 4.14785 -1.3494)
(39.8505 6.45736 -1.05405)
(36.2142 0.8289 -1.5469)
(41.1291 2.18399 -0.990285)
(39.0984 -0.00804042 -0.983795)
(40.7845 -0.0769928 -0.545739)
(38.5655 -1.696 -0.0399678)
(37.9678 -2.63449 1.13957)
(32.1648 -2.77402 1.10881)
(-39.2599 -40.6765 -84.5576)
(-178.68 20.1642 -10.7124)
(18.7177 15.0175 -10.6784)
(-105.414 -5.2756 11.3912)
(45.9274 18.1431 -0.380849)
(-43.5975 -9.10102 4.80686)
(42.8546 8.56967 2.05357)
(-3.90335 -1.91728 1.83562)
(39.6514 8.28779 1.9396)
(19.7124 2.60431 0.721511)
(40.9072 6.52771 1.20198)
(32.7787 2.01864 0.110931)
(42.602 2.86402 0.68005)
(38.8565 0.262872 0.00985475)
(42.8689 0.430525 0.448442)
(41.1245 -0.699579 0.407242)
(42.37 -0.770681 0.675596)
(40.3078 -1.44546 0.944911)
(38.9708 -0.177365 1.68478)
(32.1095 -0.116188 1.26489)
(138.882 230.313 41.2939)
(-116.522 37.3658 -4.67312)
(97.7378 21.9008 6.22583)
(-56.1133 -10.0416 7.39807)
(80.8382 2.96043 10.0576)
(-16.9099 -4.93429 1.85726)
(54.3751 1.87118 2.53461)
(0.0151404 -0.532915 0.725017)
(42.5706 6.41495 1.52791)
(16.0696 1.85849 0.502257)
(40.3946 5.84964 1.62044)
(28.6949 1.31446 0.747307)
(41.4306 2.80921 1.45612)
(36.1439 0.230169 0.959669)
(41.8587 1.35113 1.49653)
(39.1068 0.542827 1.29872)
(40.8228 1.75324 1.44576)
(38.0988 1.48561 1.25928)
(35.924 4.28086 1.31558)
(31.0426 3.27934 0.92126)
(119.584 53.9624 -36.6017)
(-118.707 77.1163 72.1188)
(47.9466 -7.51672 9.41387)
(-49.7453 5.75651 3.92548)
(63.7244 -0.0297757 -5.93852)
(2.36159 2.77709 -2.71496)
(58.2021 -3.01794 -2.09611)
(14.6169 0.0526906 -3.11465)
(46.1459 -3.30953 -1.26868)
(22.32 -0.250078 -2.83791)
(41.8312 -2.42538 -1.87171)
(30.9227 -1.38512 -2.73055)
(42.3927 -2.46182 -1.38415)
(37.9783 -1.62604 -1.21827)
(43.8998 -1.26409 0.23433)
(42.0573 -0.416967 0.548382)
(44.7376 0.901967 1.5229)
(42.9761 2.70486 2.20944)
(41.2726 5.87834 3.17398)
(38.1711 3.90266 2.19007)
(-66.4309 -1.74438 157.843)
(67.2731 111.592 -50.0468)
(115.627 -7.95286 -46.332)
(29.5237 -32.0249 -13.7603)
(87.8988 -23.382 -9.0999)
(35.7304 -4.02544 0.266639)
(79.3916 4.93263 1.09026)
(51.7936 8.47167 0.574855)
(77.9008 9.00022 1.99631)
(63.4193 6.97183 0.598803)
(77.1722 4.14686 1.27827)
(67.7786 1.03496 0.221069)
(72.3287 -2.42767 0.576745)
(63.7505 -3.84734 -0.212926)
(64.5711 -2.60105 -0.205505)
(59.0417 -1.28276 -1.05134)
(59.8007 1.43941 -0.822538)
(58.2525 3.93066 -0.00458334)
(59.0943 8.82221 2.05166)
(65.8081 8.44751 2.47889)
(20.3445 90.5806 52.8684)
(-52.485 -47.2206 33.2552)
(117.32 -23.5467 4.96881)
(28.6823 -10.77 9.34746)
(107.02 -3.10183 -7.06407)
(48.35 -9.1087 -5.07174)
(93.0493 -0.390311 -5.74639)
(57.728 -4.69686 -7.95166)
(78.2348 -0.0829872 -4.07851)
(58.7023 -2.14175 -5.33984)
(68.2051 0.521498 -2.15394)
(58.3209 0.992513 -2.99535)
(61.9454 3.13393 -1.31732)
(54.803 3.87513 -2.02449)
(53.5718 4.30129 -1.09535)
(44.984 3.39945 -1.48357)
(42.495 1.01044 -0.988181)
(38.9981 -0.800761 -1.66609)
(38.0139 -1.82849 -1.28455)
(37.7972 -1.82208 -0.639309)
(64.5704 -15.1299 -120.182)
(-86.7565 -15.7497 -14.5241)
(92.3295 -18.7522 -7.95135)
(-56.1597 -7.1864 0.331694)
(79.7048 -15.0432 -5.16963)
(-7.51541 -8.45928 0.844293)
(69.0013 -5.97609 -0.592828)
(19.4106 -4.55901 -0.591819)
(56.5078 -3.05329 1.6786)
(31.5378 -2.37549 0.884056)
(48.0046 -0.965334 1.8023)
(36.1988 0.729736 0.413364)
(43.1452 1.8974 -0.0525648)
(36.4656 2.73596 -0.946451)
(38.7544 2.83911 -0.679932)
(34.9635 2.5099 -0.85189)
(35.3935 1.03919 -0.365062)
(33.1431 -0.199005 -0.149035)
(32.095 -1.11571 0.304264)
(30.4488 -0.780026 0.859107)
(278.152 -237.784 3.87776)
(5.40554 -40.0898 -31.3057)
(113.009 -31.9956 -30.2573)
(-21.8756 -0.846898 -2.65748)
(73.6362 -20.9671 -1.01212)
(-4.08242 -5.56853 2.27623)
(60.6155 -7.61597 2.24865)
(19.5317 0.85083 1.95218)
(51.9329 2.2404 2.93622)
(30.4045 6.05934 1.56528)
(44.2819 6.03126 1.66283)
(32.688 7.18466 0.290049)
(38.3825 5.70084 0.188313)
(32.3506 5.67824 -0.307457)
(34.5832 4.21732 -0.158544)
(31.5403 3.64468 -0.178466)
(32.2657 2.23289 0.0644846)
(30.4235 1.60474 0.214822)
(29.4325 1.10792 0.511225)
(27.4419 0.768719 0.285935)
(164.82 -49.2976 -20.0069)
(-4.68657 32.7137 -27.4526)
(103.652 10.3018 -27.4987)
(-5.27939 3.72082 -6.49806)
(76.2752 -10.4701 -4.62995)
(-9.94065 -3.80867 -1.18031)
(55.855 -10.1191 -1.68059)
(4.91618 1.45146 1.06316)
(43.3311 0.0379127 -0.195257)
(18.8349 5.97765 0.571885)
(36.6439 4.38778 0.104418)
(25.1873 6.42922 0.102437)
(32.9205 4.67319 -0.0477713)
(27.5437 5.35495 -0.174277)
(30.4591 4.01219 -0.16078)
(27.9458 4.06029 -0.197589)
(28.7007 3.24613 -0.0669835)
(27.4693 2.79096 -0.0148169)
(26.9375 2.27128 0.0395228)
(25.5395 1.21965 -0.173757)
(111.082 -20.0123 -158.396)
(14.1845 53.9933 28.6088)
(129.437 15.2731 21.0417)
(-4.21946 1.05875 7.89413)
(88.6561 -13.5312 10.5087)
(-1.70861 -2.06316 2.44708)
(56.3677 -15.9343 3.93854)
(12.8137 6.52753 0.634542)
(42.4895 -4.28441 0.617556)
(21.7401 9.46939 0.0768865)
(35.6942 2.85823 0.113008)
(25.4611 8.97158 -0.11856)
(31.49 4.75752 -0.0893545)
(26.438 6.97164 -0.281331)
(28.6038 4.55476 -0.188669)
(26.5308 5.06587 -0.240835)
(27.2619 3.8473 -0.149566)
(26.6034 3.44212 -0.111141)
(26.4657 2.67675 -0.232109)
(25.6124 1.33974 -0.303439)
(16.7491 185.138 -50.6262)
(-29.9577 82.4567 28.3258)
(133.484 52.8282 9.57396)
(0.870894 25.5934 15.1025)
(99.6312 13.7926 17.7625)
(-2.58529 16.2446 4.70461)
(61.4098 -5.38675 2.61868)
(8.99124 10.8717 1.56538)
(35.0047 -0.118092 -0.00222888)
(15.3294 10.4059 -0.0263614)
(27.0091 4.14516 -0.262084)
(19.5217 9.17963 -0.388074)
(24.6107 5.43252 -0.277074)
(22.0581 7.40625 -0.336946)
(24.1212 4.85166 -0.165691)
(23.5889 4.98576 -0.202636)
(24.2906 4.13765 -0.175022)
(24.6895 3.37353 -0.187156)
(24.765 2.35232 -0.272971)
(24.7742 0.840723 -0.164638)
(-151.52 -14.4382 -99.5181)
(-143.274 35.3884 4.57624)
(73.6353 43.6389 17.9229)
(-42.9081 32.2927 19.0835)
(88.0686 24.1584 6.27803)
(-12.1847 29.4232 3.82055)
(42.4322 -21.652 1.83085)
(2.42987 27.6774 1.17756)
(26.2407 -8.29752 0.528054)
(10.8798 15.3045 -0.184155)
(22.1964 -0.131551 -0.362602)
(16.3983 10.0372 -0.329971)
(21.5643 2.78398 -0.432449)
(19.022 6.62764 -0.286716)
(20.8891 3.65277 -0.0266037)
(21.498 4.69827 -0.0579263)
(22.4593 3.53848 -0.0643065)
(22.9465 2.84722 -0.133426)
(23.4492 1.41863 -0.115992)
(23.4425 0.122258 0.01705)
(149.126 58.9039 14.4505)
(-8.87588 7.61329 -24.0443)
(113.796 25.2686 -18.6633)
(-4.3413 14.3342 4.28366)
(98.7352 13.4444 5.13086)
(3.66218 56.0047 2.67061)
(42.0007 -7.79797 3.76446)
(7.58132 20.3872 3.5596)
(20.2114 -6.40105 1.30994)
(9.03906 7.85116 -0.282458)
(16.784 -2.22368 -0.851261)
(14.0006 4.45334 -0.613754)
(18.4971 0.738799 -0.441381)
(17.1698 4.2312 -0.242781)
(16.8584 2.73301 -0.509428)
(18.9575 3.63243 -0.283806)
(18.6767 3.64429 -0.259568)
(19.7851 2.17638 -0.0818023)
(19.7151 1.04793 0.0712972)
(19.6352 0.0460536 0.168687)
(5.76975 68.4732 62.3107)
(-10.1418 111.116 3.84148)
(84.171 73.7687 -15.5549)
(-37.2468 43.81 0.965104)
(60.039 31.4629 -5.69019)
(-1.71885 50.3644 0.774852)
(29.5104 15.6085 0.842739)
(16.5748 9.97782 4.85328)
(20.106 2.87452 2.34897)
(12.1008 2.41142 -0.122991)
(14.888 -1.17901 -0.470043)
(14.52 -0.00515341 -0.282414)
(17.4079 0.312588 -0.0931056)
(17.5898 1.33257 -0.002298)
(18.0245 1.75282 -0.0564442)
(15.676 1.98316 0.144837)
(17.1254 2.82605 0.136031)
(17.1348 1.24462 0.134926)
(17.8374 0.980593 0.162957)
(17.6887 0.0484509 0.0911652)
(-37.2683 47.0709 -39.1349)
(-113.42 24.5302 14.5571)
(38.7012 11.7549 -12.2272)
(-39.7547 19.3607 -1.50767)
(34.3195 17.257 -6.77203)
(-9.81582 33.52 -5.48158)
(22.3556 29.8253 -2.92408)
(22.112 24.6887 3.00449)
(17.6828 16.3746 1.50385)
(12.3779 8.14498 -1.15464)
(13.5107 1.16368 -0.125876)
(17.1032 1.19258 0.0061209)
(17.692 2.82369 -0.197864)
(17.4985 3.69422 -0.18138)
(16.9882 4.46245 -0.0236555)
(15.3328 3.24605 0.125199)
(16.3147 1.77635 0.0809521)
(17.0664 1.17995 -0.140034)
(17.9561 -0.127838 -0.328427)
(18.2738 -0.641428 -0.0403981)
(70.5129 24.1713 33.3998)
(-52.9993 47.1248 -8.35703)
(67.9309 28.056 -16.4341)
(-55.8648 32.5255 2.41278)
(51.591 25.5448 -6.17496)
(-5.92663 15.9556 -4.2464)
(19.5308 20.4799 -3.8499)
(29.095 27.3959 -2.02073)
(29.5977 30.45 2.28686)
(18.8728 16.9949 -6.58549)
(18.7435 -7.64601 -0.273692)
(26.2064 -0.091942 1.12927)
(22.1335 3.62092 0.167449)
(19.512 4.82382 -0.377789)
(17.8727 4.0105 -0.468584)
(15.3522 0.926508 -0.0694875)
(16.6391 0.671319 -0.01647)
(17.5674 -1.14493 -0.0732358)
(18.3712 -1.80075 -0.203181)
(18.594 -1.89794 0.0138283)
(-65.7018 -36.9178 -142.683)
(-149.872 -39.0728 -3.60814)
(-12.9522 -33.7044 -15.2466)
(-84.3028 8.62458 4.23141)
(8.63583 2.7739 -4.05652)
(-29.446 -4.91515 -1.10287)
(26.8674 8.51669 -2.45114)
(37.5193 21.6021 -7.04897)
(52.541 33.3779 -4.06596)
(67.3264 25.8078 0.881272)
(59.3603 -9.16933 16.9499)
(30.5302 5.68854 2.86551)
(22.6552 8.52616 0.665713)
(18.9552 6.63257 -0.189301)
(17.5623 2.59347 -0.275693)
(12.9531 2.15727 0.231365)
(14.8928 -0.829986 0.334104)
(14.7728 -1.09117 0.302928)
(15.957 -2.53463 0.215445)
(15.648 -2.05284 0.136279)
(298.436 95.462 -72.8563)
(26.182 -4.19199 -93.0633)
(106.436 -24.2033 -53.0853)
(-50.4383 -7.86696 0.473394)
(77.1565 -3.03757 0.283507)
(-21.0399 -37.5379 -1.00445)
(27.6455 13.1687 -2.4052)
(8.91437 -2.54081 0.541164)
(44.4057 15.705 1.92081)
(30.8175 18.6832 20.3505)
(27.1771 27.9698 9.03518)
(12.8322 15.0342 1.91778)
(15.4679 10.9762 0.514417)
(11.0054 5.34841 0.926588)
(8.65654 4.94991 0.0890003)
(11.7419 1.27645 0.299376)
(10.9234 -0.639247 0.0338161)
(12.2832 -1.86298 0.0286476)
(12.6684 -3.06715 0.024957)
(12.786 -2.92475 0.240366)
(-42.677 136.514 -38.0914)
(-130.195 109.722 -55.4776)
(33.9429 63.8623 10.6351)
(-72.9871 24.8045 13.7435)
(39.1692 6.14485 3.30066)
(-49.9153 -3.62778 1.86428)
(3.74565 41.3252 -1.7831)
(-37.8421 -14.529 1.61491)
(-7.69018 30.4092 -3.56368)
(-19.097 6.41416 2.14551)
(4.65973 24.2146 -1.36465)
(-1.58631 7.41968 -0.425604)
(8.52493 11.9448 -0.944623)
(6.0339 2.83045 -0.82702)
(10.3513 4.25604 -0.727537)