/*--------------------------------*- C++ -*----------------------------------*\
  =========                 |
  \\      /  F ield         | OpenFOAM: The Open Source CFD Toolbox
   \\    /   O peration     | Website:  https://openfoam.org
    \\  /    A nd           | Version:  10
     \\/     M anipulation  |
\*---------------------------------------------------------------------------*/
FoamFile
{
    format      ascii;
    class       volVectorField;
    location    "8.4";
    object      U_0;
}
// * * * * * * * * * * * * * * * * * * * * * * * * * * * * * * * * * * * * * //

dimensions      [0 1 -1 0 0 0 0];

internalField   nonuniform List<vector> 
12920
(
(346.239 -109.951 16.6554)
(-62.3599 -90.604 70.1127)
(131.201 -24.1825 11.1278)
(2.32432 0.485154 6.13359)
(114.739 13.0409 -3.34692)
(64.1769 9.88436 -4.99446)
(111.861 18.5502 -5.62717)
(88.6732 14.8688 -7.16508)
(107.39 18.4921 -6.16632)
(94.5865 15.7486 -6.19395)
(101.191 15.1192 -3.94613)
(92.5481 11.353 -2.84606)
(94.9134 6.45622 -0.660986)
(89.2902 3.4841 -0.554058)
(90.6411 3.10187 -0.585503)
(88.9442 3.59905 -1.33998)
(90.1743 4.65069 -2.15073)
(90.9572 5.69041 -2.66144)
(91.5556 5.97985 -1.91043)
(91.5272 5.75435 -1.04032)
(581.511 -20.2645 -354.539)
(-69.8652 -33.3738 8.46017)
(153.985 -44.9916 -2.56166)
(-21.3321 -16.5869 5.725)
(101.146 -15.6864 1.7576)
(33.0157 1.25295 1.51896)
(97.0823 11.077 2.03405)
(67.8495 15.4386 0.541821)
(94.1409 17.2019 2.1529)
(76.3087 14.0061 1.85741)
(82.9084 8.69162 2.83694)
(70.111 4.65444 1.89186)
(72.4181 2.94196 0.770724)
(66.9095 3.21959 -0.351416)
(69.468 3.77589 -0.915293)
(69.4669 5.44365 -1.52482)
(73.2243 5.68159 -1.04232)
(74.17 4.29806 -0.102066)
(73.4526 3.26801 1.08603)
(71.2201 2.87545 0.944017)
(151.25 -168.674 88.6323)
(-15.1036 34.4955 4.08889)
(138.204 -28.0941 -7.53485)
(3.33333 -5.20476 0.0766803)
(94.5471 -29.6492 -0.333824)
(25.8476 -15.0595 1.48193)
(82.1635 -12.8502 2.87684)
(54.0148 -3.18216 2.2766)
(82.0596 3.83572 2.95052)
(68.3859 7.94966 2.14571)
(77.6412 9.52477 1.84484)
(68.0551 10.1107 0.732932)
(71.047 8.55802 0.406711)
(66.2287 7.97272 -0.112575)
(68.052 6.7609 -0.135497)
(66.6646 6.19403 -0.164002)
(67.9443 5.16163 0.113264)
(66.9458 4.47149 0.239045)
(64.2329 5.12561 0.848165)
(61.0495 4.45631 0.549936)
(92.8785 -45.0164 19.2174)
(-52.8839 30.2331 -10.3574)
(121.578 -1.16889 -18.0222)
(5.55409 4.05127 -4.2551)
(96.4081 -17.7024 -5.09149)
(8.45752 -10.6059 -1.75313)
(75.3086 -20.0878 -0.733731)
(25.166 -6.71398 0.998433)
(63.5857 -4.9489 0.412065)
(42.9279 2.72116 0.637931)
(61.5155 3.36663 0.627658)
(54.0595 5.83185 0.0693013)
(61.8994 5.00265 0.206061)
(58.804 5.92175 -0.150863)
(61.8773 5.22443 0.00641186)
(60.5295 5.53672 -0.15753)
(61.256 5.24544 -0.00505564)
(60.0542 5.19466 0.0658123)
(57.9371 5.6557 0.451448)
(57.4071 4.52725 0.342926)
(266.325 61.0075 52.2955)
(153.258 45.4219 31.6592)
(190.263 31.9944 8.70695)
(105.838 32.946 -0.409254)
(131.783 7.99196 2.24779)
(57.7861 4.43272 0.789908)
(83.5573 -20.584 3.36572)
(46.4574 -4.60127 0.465209)
(67.902 -13.5238 0.963797)
(52.9075 1.48573 -0.236294)
(65.3117 -1.08787 0.304759)
(58.4888 6.16624 -0.219394)
(63.774 4.36482 0.101919)
(60.0326 7.1599 -0.25047)
(61.5072 5.97684 -0.0542539)
(59.7488 6.85289 -0.209105)
(59.8671 6.13282 -0.0639928)
(58.7846 6.1572 -0.0575921)
(57.3114 6.16434 0.164474)
(57.7869 5.01447 0.207656)
(133.275 13.3358 -157.425)
(67.1324 -32.6353 -30.8651)
(179.974 11.0953 -17.5043)
(112.509 29.765 0.887089)
(129.505 21.3382 9.67164)
(38.1345 11.6209 3.31052)
(83.2676 -13.4686 2.92056)
(34.8651 -2.00376 1.19324)
(57.7111 -10.3872 0.426803)
(39.4812 2.34182 0.157396)
(51.2227 0.0212672 -0.27389)
(46.0378 6.66529 -0.206884)
(51.9789 4.97533 -0.0843369)
(51.1666 8.36221 -0.21792)
(53.6208 6.87289 -0.108024)
(53.7829 7.609 -0.153196)
(54.4595 7.28322 -0.0542508)
(54.9155 6.82236 -0.0693971)
(54.2894 6.43908 0.0265752)
(56.1202 4.90176 0.374826)
(299.203 154.293 -274.577)
(81.7938 54.017 -47.1304)
(171.799 36.4098 12.3777)
(18.2372 29.8436 12.3571)
(115.371 18.238 7.52809)
(37.1233 19.933 1.12647)
(78.9936 -32.2846 1.61064)
(40.0113 9.35548 0.469858)
(54.2157 -20.6499 0.451135)
(38.2112 5.04736 -0.300267)
(47.7934 -6.31896 -0.617534)
(43.0459 6.01329 -0.508521)
(48.6055 1.36657 -0.409558)
(46.8909 6.08362 -0.335942)
(48.8565 4.52146 -0.0479877)
(49.9198 6.45366 -0.0783415)
(50.742 5.9576 -0.00833702)
(51.4255 6.03792 -0.0414538)
(51.4522 5.39934 0.0359596)
(53.792 3.42594 0.686766)
(297.357 91.5342 -280.145)
(39.343 18.0386 4.64353)
(166.805 -2.26862 11.1581)
(55.5687 -17.3608 5.28086)
(125.963 -18.3306 4.74069)
(58.0085 30.5402 0.920485)
(85.6224 -6.05333 -0.514375)
(40.9363 0.897808 1.9988)
(44.6604 -5.38881 1.71045)
(23.5641 2.69373 0.317356)
(33.4404 -2.26833 0.0410942)
(30.6008 3.11863 -0.100101)
(38.1757 2.37642 -0.0333636)
(37.3014 6.11777 -0.0188623)
(38.3495 4.55992 -0.272299)
(41.3532 5.78659 -0.325882)
(42.0399 6.69987 -0.412823)
(44.4127 5.57622 -0.268067)
(44.6576 4.01995 0.119636)
(45.7575 1.9303 0.700123)
(354.088 54.6554 -60.7173)
(-12.9719 91.015 40.8999)
(163.596 39.0282 -5.87945)
(7.33143 13.6992 0.0977646)
(104.334 -3.91601 -4.49405)
(50.6726 7.65789 -1.32849)
(91.2806 12.3373 -0.315665)
(78.7887 -3.83407 1.51086)
(52.561 2.59847 -0.0125314)
(33.1101 4.63705 0.0789942)
(32.2647 0.264851 0.0611078)
(30.6462 0.492553 0.103277)
(32.8893 2.34149 0.0902132)
(33.6825 3.56205 0.0282331)
(34.2824 4.11727 0.0935302)
(33.6637 3.38745 0.0404132)
(36.622 4.65572 -0.10377)
(37.2865 3.15912 -0.00176582)
(37.6983 2.99869 0.147191)
(38.6616 1.50701 0.369851)
(205.17 79.5085 -233.033)
(-76.3023 46.4502 20.7466)
(99.5831 4.38147 -4.54895)
(-18.0041 11.9679 -4.25739)
(78.1101 7.49552 -5.19278)
(12.943 14.7598 -3.01247)
(52.1962 11.3162 -0.706893)
(53.3727 20.7598 2.50426)
(36.643 16.4416 -0.308171)
(30.8136 13.492 0.0381207)
(32.9516 4.23304 -0.114014)
(34.4354 2.89953 -0.0180935)
(33.4515 4.47239 -0.0414971)
(32.9976 5.33082 -0.0558224)
(32.214 5.93601 0.0535324)
(30.8631 4.73503 -0.0368367)
(32.3285 3.45754 -0.123733)
(33.9985 3.56329 -0.0879667)
(35.3851 1.52837 -0.317088)
(40.1896 -1.0127 0.050532)
(98.6243 15.2629 -93.8246)
(-107.641 96.6013 16.0817)
(135.955 59.1298 -4.99018)
(-6.84241 41.4601 0.0394345)
(97.6473 27.7875 -3.4188)
(48.5205 16.1767 -3.9037)
(68.282 12.1921 -2.12747)
(83.0862 14.3146 -1.06752)
(52.2573 33.1048 2.05411)
(15.9548 19.5961 1.1372)
(22.7407 -10.3651 -0.424548)
(37.0452 -1.34209 -0.00424692)
(37.6377 5.76334 -0.0530971)
(35.2845 7.10807 0.0170054)
(32.96 5.97619 -0.226137)
(31.9069 2.86532 -0.243003)
(34.179 2.89473 -0.0282989)
(36.9024 0.737735 -0.0539453)
(38.245 -1.94331 -0.187911)
(42.3146 -3.38865 0.228228)
(-148.662 10.9103 -12.9874)
(-226.012 -14.5121 -41.0754)
(38.6593 -24.2043 -5.73415)
(-63.9592 19.8812 1.68172)
(56.7785 17.4511 -1.25921)
(2.51969 20.0428 -3.01175)
(67.6038 16.6031 -1.57758)
(88.6477 21.1846 -1.8552)
(105.576 30.9211 -0.99347)
(116.063 51.7862 -1.25403)
(55.0634 -12.0846 2.07163)
(52.784 1.80192 -0.190943)
(40.4616 9.24564 0.201638)
(34.3692 10.8944 -0.0434325)
(33.699 7.63155 -0.120166)
(31.6313 4.33536 -0.00220277)
(34.4808 0.186597 0.245757)
(34.4322 -1.03744 0.333192)
(35.2685 -4.28159 0.260857)
(36.3939 -4.40694 0.378471)
(90.7881 -78.4377 -38.5866)
(70.2283 22.7319 -48.4277)
(179.064 -10.9302 -9.78491)
(45.156 -16.1763 3.44663)
(107.879 -3.5185 6.79208)
(42.9902 -32.6626 -0.210665)
(82.8684 5.25838 -1.78795)
(74.817 10.1795 -0.155358)
(109.513 19.6322 2.18926)
(88.7509 24.6584 6.34189)
(51.4605 30.1015 -0.814325)
(31.471 14.9635 0.0243572)
(33.3234 14.1805 0.17993)
(29.3863 10.6774 0.350381)
(26.1966 7.30908 0.308397)
(29.9239 2.26794 0.21116)
(29.0581 -0.799636 0.0242567)
(30.9428 -2.78036 -0.103109)
(31.2263 -5.36798 -0.0375592)
(33.1371 -5.76408 0.352186)
(181.601 169.703 -220.351)
(172.27 155.726 -41.2653)
(206.627 113.076 24.2363)
(22.6258 48.5208 17.0913)
(80.1332 5.40954 6.61286)
(-7.36648 -17.1227 -0.490021)
(50.1548 38.4173 0.0621319)
(-9.00535 -13.4547 2.81096)
(16.5589 35.733 -0.617114)
(-4.55444 12.8125 -0.0476287)
(21.9893 30.0439 -1.10284)
(13.9531 11.8096 -0.834213)
(25.4621 15.8236 -0.817405)
(23.6456 5.2146 -0.820466)
(29.9805 5.28589 -0.79318)
(30.0159 -0.00231662 -0.626693)
(33.3296 -1.03228 -0.480158)
(33.6032 -3.40749 -0.3315)
(34.8201 -6.31065 -0.13683)
(34.4433 -6.93364 0.315839)
(156.749 135.051 -70.1836)
(-14.1829 24.6701 -0.242099)
(139.954 36.2113 0.449299)
(68.9526 11.7276 2.83739)
(104.53 9.04345 1.74374)
(22.7976 -10.1649 -1.40772)
(60.3864 21.0375 2.11549)
(11.0035 4.19397 1.55224)
(29.5132 26.9077 0.352536)
(14.0626 16.6544 -0.462815)
(30.1938 24.6896 -1.62855)
(29.5409 12.9009 -2.10362)
(41.4322 13.4764 -2.79422)
(44.8334 6.36266 -1.8273)
(50.9199 4.70363 -1.09736)
(50.7288 1.74679 -0.883248)
(51.1449 -0.965735 -0.80715)
(50.0877 -2.53167 -0.824205)
(48.6219 -5.70846 -0.145373)
(43.7515 -5.84281 0.758588)
(186.155 133.737 -236.888)
(23.729 128.698 -24.829)
(162.549 89.7398 10.8781)
(51.9821 47.0097 6.70437)
(88.52 50.7691 5.47861)
(2.51889 18.7433 0.110104)
(58.7447 40.8485 0.522469)
(10.5666 12.4973 0.823966)
(48.5555 32.1543 0.186137)
(29.129 14.6655 0.135462)
(52.6813 23.0888 0.253241)
(47.944 11.9061 -0.805903)
(60.9043 13.4003 -0.721292)
(60.3749 6.57351 -1.19019)
(66.9579 6.68411 -0.822358)
(66.584 4.69106 -0.837651)
(68.7697 4.24559 -0.646594)
(67.1936 2.56974 -0.319355)
(65.2147 -0.296527 0.577512)
(57.0683 -1.49824 0.765653)
(3.35431 -111.155 -101.305)
(-167.812 26.9414 -18.3572)
(96.6105 45.2292 -9.63813)
(-62.9975 9.22131 7.34288)
(66.0808 35.4585 0.490597)
(-20.5638 3.77108 1.87405)
(56.6842 14.8846 1.50497)
(13.1464 2.53183 1.12394)
(54.0378 11.8228 1.75466)
(38.7518 7.04467 0.925901)
(59.253 11.2812 1.09485)
(54.2861 7.1946 0.223292)
(64.3871 7.71333 0.543366)
(62.8174 4.82788 0.0790106)
(67.3353 4.28034 0.348127)
(66.6708 3.15816 0.320019)
(68.0675 2.17814 0.526819)
(66.4316 0.536332 0.664104)
(64.0344 0.902969 1.06353)
(54.9695 0.57204 0.800032)
(200.507 221.88 -57.0508)
(-1.68627 98.5698 -10.0939)
(148.861 50.2156 0.518428)
(11.841 5.4694 5.03621)
(90.5144 15.8299 9.48345)
(-5.28862 3.14473 1.18044)
(64.2443 4.50627 1.27721)
(11.6411 -0.73623 0.163093)
(53.7233 6.40382 0.95298)
(30.2299 2.87247 0.642909)
(54.0995 7.47882 1.30878)
(44.8919 3.4743 0.758389)
(57.263 4.81636 1.28317)
(53.5913 1.89274 0.83468)
(59.2546 2.48043 1.1064)
(57.6165 1.57368 1.01676)
(59.418 2.32646 1.05039)
(57.4166 1.73535 0.856923)
(54.899 4.81815 0.69479)
(48.1275 4.872 0.791809)
(346.539 -69.5846 -291.117)
(-123.877 133.424 36.2122)
(80.9702 21.6125 -7.79097)
(-45.0202 23.0747 0.801179)
(79.2956 12.2476 -2.93118)
(17.6793 7.77348 -1.40776)
(72.7212 -0.714744 -1.17089)
(30.6619 -0.563374 -1.91822)
(58.6507 -4.64642 -1.08858)
(35.2613 -1.73853 -1.59994)
(53.1848 -3.90109 -1.04263)
(43.609 -2.96052 -1.61616)
(55.5904 -4.38689 -1.13463)
(53.6542 -4.2285 -1.14824)
(61.4806 -4.44704 -0.0976277)
(61.2658 -4.08627 0.351315)
(63.7969 -2.68922 1.13803)
(61.5075 -1.15877 1.74155)
(57.4331 5.47062 2.81234)
(51.6848 5.13764 1.73337)
(-254.756 75.0976 -59.7465)
(-110.7 57.0299 1.25323)
(73.5004 -41.9095 -10.5427)
(0.358378 -15.3258 7.02156)
(92.4288 -3.49407 2.77087)
(40.3713 8.85838 2.34804)
(87.218 13.7986 1.70226)
(61.1509 15.6806 0.697682)
(86.9242 15.3814 1.0124)
(73.9351 13.4563 0.334499)
(88.3793 11.0444 0.522128)
(81.6673 8.50379 -0.0174699)
(88.8428 3.94083 0.0834546)
(82.5455 -0.384384 -0.188272)
(82.9893 -3.72838 -0.494627)
(78.0581 -4.18744 -1.10664)
(78.8278 -3.72001 -1.40479)
(77.9735 -3.02891 -1.37134)
(76.1372 0.594915 -0.241397)
(81.6397 3.73922 0.484539)
(-59.2108 91.9255 77.3992)
(-120.184 -60.079 57.0318)
(104.808 -30.9332 -0.86935)
(-4.38514 -10.7008 2.74324)
(108.419 -2.36808 -11.983)
(53.4727 -6.61459 -8.2653)
(101.751 2.68432 -7.99227)
(73.1499 -1.63113 -9.47734)
(91.3872 2.75836 -6.02025)
(74.6131 0.297577 -6.16469)
(81.5928 1.97881 -2.78246)
(72.9284 1.52056 -2.48557)
(76.523 3.0732 -0.798218)
(72.1058 3.4429 -1.12011)
(72.1736 4.96753 -1.57082)
(66.4033 5.64493 -2.53788)
(62.7539 3.93812 -2.61427)
(57.9393 1.16239 -2.52401)
(56.3412 -0.403517 -1.19023)
(57.1364 -0.960932 0.0307597)
(48.0471 -27.263 -237.628)
(-82.2984 -21.7393 45.0191)
(104.996 -31.1216 -4.57534)
(-46.4958 -10.6868 8.16282)
(91.0205 -19.226 -1.32126)
(9.58479 -7.70202 1.22145)
(82.1296 -1.94694 2.63612)
(40.7705 0.0982082 0.661613)
(73.2585 2.09184 4.15926)
(51.7024 0.84826 2.42088)
(63.912 0.524414 3.6642)
(52.795 0.851548 1.48116)
(58.1388 1.97833 0.526523)
(52.5502 3.05649 -0.989596)
(54.7996 3.67222 -1.18029)
(52.234 3.92052 -1.45961)
(53.1659 3.12709 -0.822095)
(51.5544 1.48293 -0.0400873)
(50.1053 0.15575 1.0866)
(49.8242 0.0608866 2.04846)
(50.4603 -142.518 173.424)
(-33.9468 19.0144 -32.4424)
(119.887 -20.9458 -17.5737)
(-4.36643 1.77204 0.467726)
(84.3832 -24.3336 0.235071)
(11.8885 -10.6552 1.76159)
(72.4148 -11.4601 3.64925)
(37.8615 -2.65806 2.56195)
(67.7343 1.84795 4.11499)
(49.8695 5.84184 2.21645)
(60.8388 7.06516 2.28968)
(50.1164 8.13006 0.501245)
(54.3429 6.96212 0.34338)
(48.9505 6.71128 -0.348274)
(50.8825 5.46681 -0.160898)
(48.5132 4.92557 -0.203018)
(49.3297 3.56542 0.113375)
(47.5948 2.80986 0.387632)
(45.7261 2.5101 1.01187)
(44.8911 2.15974 1.47354)
(177.77 55.6464 123.596)
(18.842 46.2034 -8.88785)
(111.006 17.6641 -24.6215)
(6.94215 8.3676 -8.1443)
(86.4526 -13.0881 -5.37922)
(-0.289643 -7.94576 -1.26)
(66.271 -15.5921 -1.75602)
(15.4118 -2.65845 1.57262)
(54.358 -1.99668 -0.54966)
(31.6458 4.51645 0.797679)
(49.8037 4.14332 0.351381)
(39.9896 6.26512 0.0917037)
(47.5776 4.99691 0.0758179)
(42.9867 5.70909 -0.222222)
(45.8428 4.7089 -0.0842673)
(43.769 4.88007 -0.197923)
(44.4603 4.22769 -0.0374913)
(43.1284 3.95498 0.134315)
(41.9013 3.78042 0.443895)
(41.9893 2.61013 0.984912)
(318.256 166.758 -47.773)
(138.066 124.426 16.061)
(172.341 49.7605 15.239)
(59.4785 22.5528 4.8903)
(106.207 -6.22587 12.1367)
(24.4851 -3.54725 2.42955)
(69.3947 -20.7358 5.48829)
(29.0925 0.436399 0.877866)
(55.3755 -8.75627 1.20648)
(36.8605 6.14721 -0.0956035)
(50.2142 1.37964 0.27487)
(41.3257 8.04492 -0.230114)
(46.9591 4.81381 0.00840992)
(42.3969 7.25733 -0.347088)
(44.2768 5.32577 -0.146645)
(42.303 5.99725 -0.258036)
(42.7716 4.97353 -0.12842)
(41.95 4.74348 -0.0340922)
(41.1477 4.24625 0.0804613)
(41.913 2.83394 0.814075)
(213.985 151.385 12.5604)
(106.269 166.852 14.9519)
(161.7 84.6357 7.54999)
(54.1682 36.4282 11.4935)
(111.109 17.6891 20.3104)
(13.1087 12.3553 4.08759)
(72.7702 -10.3588 3.60325)
(20.928 4.72564 2.27002)
(46.7309 -4.76995 0.0689778)
(27.6889 7.08485 0.215306)
(39.6088 2.59965 -0.691797)
(33.1396 8.27464 -0.327396)
(38.4942 5.39951 -0.396262)
(36.4833 7.80353 -0.379711)
(38.6015 5.74139 -0.229259)
(38.2696 6.13486 -0.227163)
(38.9072 5.50399 -0.161219)
(39.2826 4.91441 -0.132147)
(38.8814 4.05421 -0.0541585)
(40.7335 2.39357 0.990632)
(-73.6166 162.136 5.02329)
(-115.087 54.7337 79.8324)
(88.2897 50.4875 26.1317)
(-31.2977 27.5672 21.5677)
(104.006 20.4203 8.49236)
(8.14561 24.984 3.55229)
(59.6679 -29.2204 2.16995)
(17.8111 20.2852 1.47274)
(39.2911 -14.1844 0.505409)
(23.7636 11.2283 -0.234279)
(34.6483 -2.5133 -0.835937)
(29.3672 8.63045 -0.605472)
(34.7822 2.3999 -0.541079)
(32.6934 6.59676 -0.354308)
(34.667 4.07371 -0.05618)
(35.431 5.49026 -0.144175)
(36.346 4.65382 -0.127051)
(36.8483 4.22354 -0.139486)
(37.0587 2.89327 0.10203)
(39.0001 1.21329 1.24509)
(-1.4843 -21.8846 -116.243)
(-95.9984 -23.646 15.8049)
(132.786 8.90975 -2.30464)
(11.5974 -0.853878 6.64665)
(113.237 -2.39092 6.80666)
(25.3029 47.8686 2.1699)
(65.1218 -6.45235 3.87531)
(22.6849 12.1661 4.65854)
(32.7239 -7.96995 2.56224)
(18.6803 3.74479 -0.513666)
(27.087 -3.68054 -0.722596)
(23.9738 2.77625 -1.06699)
(29.7352 0.590652 -0.621518)
(28.4125 4.39395 -0.519978)
(28.3838 3.58437 -0.736523)
(30.9691 4.35681 -0.533267)
(30.973 4.74194 -0.53998)
(32.3317 3.32434 -0.201029)
(32.2812 1.91186 0.305397)
(33.5217 0.617825 1.22828)
(-36.6862 24.8858 -19.1343)
(-74.3554 87.7132 36.1542)
(109.358 52.0095 -15.955)
(-19.6905 29.2778 1.7542)
(80.5909 14.6087 -6.41526)
(22.5429 31.7093 -1.64873)
(62.0385 13.8553 1.06054)
(46.7806 4.00622 4.65475)
(35.7085 1.47202 3.35374)
(22.7871 1.28371 0.0448668)
(24.2057 -2.37797 -0.447881)
(23.3559 -1.05279 -0.544928)
(26.2543 -0.151091 -0.372012)
(26.9688 1.11421 -0.282262)
(27.2127 2.39117 -0.17432)
(25.9721 2.4397 -0.212605)
(28.071 3.44361 -0.193001)
(28.2218 1.85986 0.0741958)
(28.837 1.59609 0.386867)
(29.9285 0.430659 0.745834)
(-43.503 49.3366 -85.5998)
(-119.354 12.8619 16.7676)
(70.5778 -2.37947 -13.7337)
(-24.2119 9.51388 -6.06207)
(55.0205 7.90336 -7.98367)
(5.43352 21.1094 -8.0699)
(41.4453 19.8822 -3.94716)
(44.3097 23.1067 3.54643)
(31.256 16.6392 2.41396)
(22.5377 9.28961 -0.360625)
(23.1613 1.22321 -0.405233)
(25.8993 1.09339 -0.396814)
(26.5026 2.77697 -0.334864)
(26.4244 3.78183 -0.267561)
(26.1233 4.75348 -0.155479)
(25.0262 3.66031 -0.320172)
(26.4104 2.31052 -0.252439)
(27.5173 1.78163 -0.0915183)
(28.5019 0.0821461 -0.191586)
(30.8664 -0.966561 0.489088)
(-26.5496 94.4453 -127.308)
(-128.218 40.4445 -2.50382)
(95.0068 30.2584 -17.9443)
(-37.2267 29.3748 1.2219)
(75.7374 23.2204 -6.39058)
(19.7375 13.5995 -6.66485)
(43.6977 15.0456 -4.98136)
(54.6318 22.6416 -2.55611)
(54.1621 34.6878 8.44172)
(28.971 24.3549 -3.51086)
(25.2191 -8.49002 -1.79442)
(32.9471 -2.37348 0.222697)
(32.257 3.85297 -0.331086)
(29.6337 5.13663 -0.298069)
(27.7217 4.45947 -0.568463)
(25.6709 1.35191 -0.515601)
(27.4226 1.16265 -0.114128)
(28.8013 -1.05757 -0.00175723)
(29.6487 -2.4065 -0.100057)
(31.7044 -2.68249 0.632833)
(100.985 -93.011 -127.137)
(-203.866 -36.4571 -18.6633)
(22.7683 -38.0601 -13.1632)
(-73.1077 6.93919 5.22935)
(32.7142 6.52875 -2.63203)
(-10.5083 3.47805 -3.63572)
(48.6664 8.04056 -3.34578)
(63.9421 18.931 -6.6969)
(78.3725 36.6751 -2.64514)
(95.632 43.2215 -0.636316)
(82.5724 -7.78854 14.1159)
(43.6909 3.40953 0.408197)
(33.3588 8.14367 0.724771)
(29.0883 7.91506 -0.0684728)
(27.6772 3.98166 -0.0508946)
(23.7253 2.44412 -0.123058)
(26.0496 -0.956376 0.257511)
(25.8214 -1.64999 0.38335)
(26.7982 -3.57806 0.473617)
(27.6305 -3.10899 0.673816)
(129.471 -31.9764 4.96248)
(-36.6535 -4.32021 -62.8257)
(127.731 -38.9918 -21.9463)
(-23.4755 -16.8932 2.90579)
(97.7762 -5.26014 6.19991)
(9.54672 -39.5151 -0.538313)
(59.5845 6.96961 -0.514705)
(43.8407 2.69798 -0.00859772)
(81.8174 12.9831 5.60892)
(74.0205 19.2701 17.6857)
(46.7399 28.7756 5.15658)
(24.2572 15.4206 1.38478)
(25.7148 12.3457 0.7831)
(21.3633 6.83238 0.768095)
(18.923 5.1722 -0.022776)
(22.2659 1.2727 0.15241)
(21.3839 -1.18782 -0.0144471)
(22.8494 -2.71 -0.0862492)
(23.0781 -4.3325 0.154091)
(24.3045 -4.23805 0.697718)
(84.9104 144.882 1.01209)
(-24.8396 116.692 15.6159)
(98.3361 83.6698 31.141)
(-44.3311 29.6718 15.9041)
(66.7476 2.77974 6.54755)
(-29.3136 -10.9647 0.868549)
(27.0307 41.2777 -0.871838)
(-25.1406 -15.5697 3.68698)
(5.94445 32.1694 -3.08209)
(-9.94214 9.10172 0.892185)
(15.4888 26.6094 -2.06577)
(8.39844 9.25954 -1.10924)
(19.0032 13.2442 -1.12335)
(16.7275 3.62672 -1.27503)
(21.5118 4.22018 -1.107)
(21.0202 -0.309124 -0.790225)
(23.4019 -1.35563 -0.593752)
(22.9663 -3.54013 -0.342018)
(23.9947 -5.35251 0.105185)
(24.0445 -5.28492 0.609612)
(90.2524 87.4186 -81.5733)
(-20.5758 13.5503 3.96152)
(106.034 27.6939 -2.71484)
(22.7127 -0.704722 1.26105)
(80.188 2.18849 7.15671)
(-12.3114 -14.9998 1.89118)
(46.0584 23.1643 4.83986)
(-3.47033 -1.3095 2.03789)
(21.7745 21.5848 0.324775)
(7.81042 9.68391 -0.665461)
(23.7981 17.3662 -2.41183)
(21.6551 6.74627 -2.87568)
(29.5695 8.21793 -3.52219)
(28.9619 2.1274 -2.37513)
(32.7072 1.711 -1.50569)
(32.5318 -0.912245 -1.22258)
(33.2387 -2.45415 -0.953285)
(32.0095 -3.82777 -0.742752)
(30.943 -5.62531 0.237761)
(28.916 -5.26706 1.37474)
(191.067 -42.5755 -72.8918)
(-94.3811 84.202 -1.26109)
(118.75 70.7221 10.7704)
(-12.9275 37.3799 8.48141)
(72.5552 43.8158 8.79074)
(-21.6078 11.7682 2.33961)
(48.5804 35.9467 1.21091)
(-0.898241 6.01156 1.85656)
(38.7777 25.416 -0.1469)
(17.3385 6.34137 0.340134)
(40.562 15.1145 -0.293076)
(32.2726 3.55005 -1.17261)
(43.6227 5.8096 -1.17716)
(39.7862 0.314028 -1.49405)
(44.5149 1.72534 -0.996178)
(42.3924 -0.433715 -0.982014)
(43.9782 -0.458612 -0.602467)
(41.6607 -2.02152 -0.0375827)
(40.8811 -2.90268 1.3341)
(36.6416 -2.88888 1.81195)
(-25.1868 -35.2256 -60.3311)
(-168.107 22.8571 -5.59982)
(30.6379 24.4939 -9.2839)
(-98.7128 -2.03045 11.7895)
(51.1613 20.7475 -0.17607)
(-39.0191 -7.19826 4.99106)
(47.0881 9.88021 1.77427)
(0.940501 -1.18075 2.06112)
(43.8487 8.55839 1.78599)
(24.2522 2.60729 1.26996)
(45.1119 6.2582 1.18438)
(36.8071 1.72789 0.26551)
(46.3874 2.49155 0.628393)
(42.4725 -0.0581399 0.0246549)
(46.2913 0.10054 0.375889)
(44.4764 -0.96875 0.39824)
(45.6209 -0.984324 0.606703)
(43.4559 -1.61033 0.960797)
(41.9772 -0.317735 1.83508)
(36.7101 -0.155068 1.90303)
(147.953 244.453 19.0243)
(-101.721 50.1625 -4.694)
(107.756 28.2557 6.87536)
(-50.8343 -7.83116 7.17098)
(86.1991 4.34848 10.2671)
(-13.1506 -3.89518 1.70248)
(58.545 3.28991 2.03297)
(4.09003 0.402998 0.667551)
(46.4294 7.22933 1.31773)
(20.1894 2.41895 0.927966)
(44.3201 6.05742 1.68429)
(32.6277 1.38733 0.931264)
(45.1386 2.72733 1.44788)
(39.7305 0.0851108 0.959711)
(45.273 1.19666 1.41041)
(42.5002 0.448998 1.28683)
(44.102 1.71075 1.42429)
(41.2481 1.48879 1.32054)
(38.9491 4.24076 1.45029)
(35.7093 3.20159 1.50658)
(122.576 76.3811 -61.218)
(-118.073 88.1252 71.8269)
(47.6185 -1.00005 6.01282)
(-46.9884 8.52216 1.69136)
(67.6851 1.21422 -5.87197)
(6.80168 3.58526 -2.91182)
(62.576 -2.36793 -2.46844)
(18.7262 0.526483 -3.24997)
(50.0086 -2.78101 -1.60815)
(26.2135 0.136109 -2.84922)
(45.5402 -2.15334 -2.00327)
(34.647 -1.27565 -2.74214)
(45.9429 -2.47839 -1.46128)
(41.5014 -1.71233 -1.21878)
(47.3627 -1.3166 0.18436)
(45.5082 -0.437591 0.572168)
(48.0775 0.936562 1.51784)
(46.1149 2.76561 2.26388)
(44.2069 5.83116 3.34571)
(42.9187 3.81023 2.60742)
(-50.1097 -4.36224 135.522)
(74.4138 111.861 -54.7917)
(115.61 -7.71419 -46.7226)
(28.8175 -31.266 -13.9535)
(91.5882 -21.9952 -9.62425)
(39.0163 -3.24018 -0.021314)
(83.4474 5.34829 0.883637)
(55.6964 8.69106 0.429929)
(81.831 9.14542 1.92219)
(67.2597 7.06028 0.580848)
(80.8941 4.19385 1.21109)
(71.3793 1.04481 0.102227)
(75.8254 -2.48108 0.493094)
(67.2323 -3.87413 -0.258333)
(68.0256 -2.59105 -0.174961)
(62.48 -1.26705 -1.02977)
(63.135 1.49414 -0.749101)
(61.3359 3.97118 0.121147)
(62.0326 8.79858 2.24242)
(70.71 8.44342 2.64083)
(26.0205 102.575 62.7146)
(-42.8306 -40.8354 38.6594)
(127.47 -22.5134 1.26612)
(32.9552 -9.44087 8.91752)
(109.988 -2.07476 -7.76112)
(49.9981 -8.75019 -5.56635)
(94.1197 0.111097 -5.91594)
(58.9733 -4.57036 -8.22766)
(79.1318 0.0119537 -4.21707)
(60.0544 -2.11561 -5.34687)
(69.4682 0.596821 -2.23301)
(59.8927 1.01733 -3.10293)
(63.5968 3.16506 -1.43345)
(56.5904 3.89617 -2.08734)
(55.3744 4.313 -1.1761)
(46.8715 3.42698 -1.54194)
(44.4985 1.05177 -1.07691)
(41.0008 -0.759522 -1.60444)
(39.945 -1.81072 -1.01675)
(41.617 -1.7748 0.399745)
(70.3503 2.44998 -120.906)
(-83.9118 -3.41477 -12.7952)
(96.9818 -15.4184 -9.64847)
(-52.2363 -5.10242 1.33375)
(81.3818 -14.3413 -5.98589)
(-6.53639 -8.36233 0.772563)
(69.6303 -5.80253 -1.12324)
(20.2039 -4.68131 -0.591247)
(57.2153 -3.17898 1.51892)
(32.8417 -2.52972 0.935899)
(49.22 -1.08449 1.78194)
(37.714 0.632605 0.438806)
(44.7812 1.82395 -0.157437)
(38.2542 2.68606 -0.9351)
(40.5995 2.822 -0.748491)
(36.9265 2.55248 -0.853449)
(37.4238 1.11813 -0.399322)
(35.1044 -0.143907 -0.108657)
(34.0147 -1.08622 0.50853)
(34.1839 -0.696812 2.06885)
(275.936 -212.021 2.70133)
(-4.54738 -26.7483 -37.0329)
(113.617 -26.0179 -34.4663)
(-20.5332 0.804552 -2.38822)
(74.2334 -20.2597 -1.80711)
(-2.94988 -5.6025 2.4463)
(61.2696 -7.6583 1.5399)
(20.5114 0.699448 2.11967)
(52.732 2.19952 2.75539)
(31.7529 5.81591 1.78033)
(45.5598 5.68812 1.59065)
(34.2945 6.93986 0.401006)
(40.074 5.48359 0.0698557)
(34.2141 5.52157 -0.288352)
(36.5016 4.11596 -0.2409)
(33.5695 3.60144 -0.174633)
(34.3072 2.23132 0.0269843)
(32.3669 1.61869 0.294349)
(31.3755 1.15532 0.751897)
(31.1298 0.845418 1.42507)
(161.007 -49.6534 -14.1793)
(-7.07493 40.0984 -25.9286)
(102.251 17.9 -27.7961)
(-6.40578 5.62032 -6.66384)
(76.5203 -9.37201 -4.53945)
(-9.81631 -4.15382 -0.0917756)
(56.322 -10.6619 -2.06634)
(5.73636 0.759757 1.64849)
(43.939 -0.468238 -0.709701)
(19.8715 5.32971 0.77633)
(37.8659 3.76614 -0.152997)
(26.8517 5.93217 0.166237)
(34.6529 4.27336 -0.246731)
(29.4639 5.04679 -0.174931)
(32.4254 3.79391 -0.231229)
(30.0179 3.92363 -0.181681)
(30.7913 3.16826 -0.0943901)
(29.4829 2.79362 0.0724491)
(28.9268 2.3445 0.277192)
(29.1534 1.2814 0.857947)
(101.735 -12.5556 -132.152)
(6.33285 58.7174 33.7623)
(125.514 18.7283 20.6619)
(-9.98658 1.3614 8.47042)
(87.0471 -13.0002 10.1828)
(-2.47973 -3.00561 3.32245)
(56.5843 -16.848 3.70611)
(13.812 5.03615 1.33867)
(43.3249 -5.46168 0.331033)
(23.0068 8.42451 0.32123)
(37.1347 2.0943 -0.118752)
(27.3112 8.27236 -0.0697805)
(33.3735 4.20617 -0.232721)
(28.4891 6.53087 -0.260597)
(30.693 4.25959 -0.247279)
(28.7027 4.87782 -0.212945)
(29.4455 3.75846 -0.166511)
(28.7077 3.4322 -0.0439186)
(28.4799 2.74524 -0.0245698)
(29.1681 1.38371 0.691045)
(9.18749 196.481 -68.6992)
(-42.8558 85.4898 28.5672)
(127.649 51.2896 8.67453)
(-4.54582 23.6294 14.2668)
(98.5533 12.133 17.4446)
(-4.28393 14.141 5.34221)
(61.2999 -7.22144 2.31837)
(9.46516 8.90533 2.08406)
(36.0513 -1.77736 -0.296766)
(16.7861 9.06905 0.0679751)
(28.5798 3.25416 -0.52085)
(21.4053 8.32691 -0.382984)
(26.603 4.75017 -0.41644)
(24.2364 6.82494 -0.341702)
(26.3409 4.4672 -0.246497)
(25.8698 4.76531 -0.1999)
(26.5646 4.01819 -0.210588)
(26.8679 3.33955 -0.136568)
(26.8167 2.39717 -0.0741768)
(28.2757 0.898179 0.778936)
(-166.416 -14.1724 -93.3889)
(-162.107 30.8543 6.25411)
(62.6929 39.5547 16.1012)
(-47.9289 29.5382 17.8822)
(85.8389 20.9405 4.95838)
(-13.1823 26.1787 4.70171)
(42.7603 -24.1318 1.60152)
(3.57805 25.0898 1.55974)
(27.6856 -10.1173 0.251493)
(12.9256 13.5372 -0.142043)
(24.1088 -1.16643 -0.665145)
(18.4645 9.0663 -0.378274)
(23.7157 2.20987 -0.447402)
(21.3734 6.08122 -0.300339)
(23.3401 3.19411 -0.074462)
(23.9375 4.40878 -0.0822917)
(24.8324 3.35868 -0.12986)
(25.2197 2.74412 -0.113369)
(25.5604 1.42727 0.154213)
(26.8872 0.247672 0.947749)
(140.265 51.9616 -17.0107)
(-19.3696 -3.51269 -31.9737)
(108.991 18.9686 -20.6728)
(-8.25503 9.72536 3.64907)
(97.2513 8.56686 4.28899)
(2.27569 52.2928 2.84189)
(42.4808 -11.2433 4.10242)
(8.91019 16.9832 3.45131)
(21.6126 -8.98664 1.51434)
(11.3169 5.21438 -0.429402)
(19.1607 -4.12396 -0.949349)
(16.1093 2.75737 -0.74778)
(20.9734 -0.493359 -0.613017)
(19.3915 3.17017 -0.391087)
(19.2968 2.55661 -0.517832)
(21.522 3.24922 -0.381074)
(21.1402 3.41692 -0.38396)
(22.154 2.01744 -0.0932763)
(21.9943 1.04329 0.379948)
(22.9861 0.17211 1.11028)
(-28.7506 31.48 37.8311)
(-37.8273 90.4207 -6.60024)
(80.688 59.5916 -18.5935)
(-40.7823 35.9951 1.39421)
(58.9147 24.514 -6.97692)
(-1.28761 45.569 0.736934)
(31.4741 11.3024 0.819293)
(18.1505 6.9805 4.97821)
(21.7383 0.826651 2.49669)
(14.2514 0.44556 -0.159233)
(17.114 -2.80534 -0.627073)
(16.6467 -1.4532 -0.430755)
(19.5772 -1.05307 -0.314184)
(19.9815 0.0802246 -0.250563)
(20.0536 0.951508 -0.244648)
(18.1234 1.60396 -0.0110387)
(19.7282 2.53987 -0.0665343)
(19.6319 1.11561 0.14662)
(20.2279 1.00464 0.508999)
(21.0024 0.0938911 0.934711)
(-17.2088 9.84853 -84.6714)
(-93.7729 5.32786 4.0856)
(46.7988 -4.01823 -13.8245)
(-35.3729 9.89908 -2.67254)
(35.4759 9.88865 -7.81402)
(-6.9366 27.5944 -6.45444)
(25.395 25.9388 -3.33092)
(24.4962 21.9575 3.04887)
(20.2306 14.1277 1.84974)
(15.1562 6.3705 -1.12159)
(16.4881 0.443778 -0.363795)
(19.4134 0.281227 -0.206165)
(20.2574 1.86235 -0.329749)
(20.1905 2.92503 -0.329759)
(19.733 3.8994 -0.25474)
(17.89 2.85649 0.0407628)
(19.0328 1.50705 -0.0504336)
(19.7499 1.06768 -0.0751112)
(20.4139 -0.144382 0.0480887)
(21.5576 -0.650897 0.798609)
(61.486 36.7948 11.1588)
(-57.4221 39.5746 -12.6162)
(73.2954 19.648 -17.6647)
(-51.3839 24.7247 2.20294)
(55.2362 19.6999 -7.3532)
(-0.799606 11.6086 -4.84996)
(24.2099 16.6725 -4.28996)
(32.4539 24.4922 -2.1727)
(32.5845 28.3322 2.55424)
(21.7335 15.0932 -9.49291)
(22.3897 -10.4153 -0.986861)
(28.8574 -1.92329 0.468511)
(25.0948 2.5048 0.0347831)
(22.3748 3.80426 -0.408707)
(20.7804 3.21356 -0.51027)
(18.1556 0.429679 -0.0671628)
(19.5267 0.396829 -0.0556364)
(20.3239 -1.35763 -0.0410372)
(20.8698 -1.91818 0.133463)
(21.9352 -1.911 0.881797)
(-63.5231 -45.0807 -171.15)
(-145.135 -51.1374 -11.5111)
(-5.27197 -43.8579 -15.3997)
(-78.2361 0.282342 4.01215)
(13.7518 -1.99573 -3.47885)
(-23.3524 -8.61579 -2.24635)
(30.6935 5.5968 -3.07105)
(41.5716 18.6493 -7.24186)
(56.2472 31.0309 -3.96038)
(70.6837 23.5651 0.993079)
(62.5514 -11.2279 16.8653)
(33.8509 4.22781 2.85589)
(25.6839 7.0528 0.857366)
(22.1103 5.53176 -0.042043)
(20.6789 2.11432 -0.19625)
(15.9889 1.70859 0.248125)
(17.8951 -1.21135 0.261666)
(17.61 -1.41072 0.300852)
(18.6087 -2.70624 0.537691)
(19.0562 -2.06485 0.835562)
(287.068 86.2781 -82.8468)
(14.6888 -14.9189 -90.4422)
(115.182 -33.3196 -54.8498)
(-41.7727 -13.862 0.825207)
(84.7466 -7.75598 -0.691437)
(-13.7903 -40.62 -0.215081)
(34.1311 10.9029 -1.78389)
(13.4937 -4.37927 0.0500436)
(47.4253 13.7674 2.56063)
(34.051 16.6021 20.2435)
(30.3671 26.3281 8.89335)
(16.6583 14.0368 1.85121)
(18.8716 10.362 0.710216)
(14.5753 4.73279 0.925271)
(11.8677 4.33711 0.0823555)
(14.8388 0.882116 0.206488)
(13.9309 -1.0777 -0.0130253)
(15.2396 -2.20134 0.00458365)
(15.4635 -3.29875 0.334016)
(16.3022 -2.99748 0.778855)
(-38.339 101.591 -21.8713)
(-120.638 103.314 -50.6781)
(44.254 58.7746 10.0067)
(-62.9387 21.7528 14.098)
(46.7337 3.78155 3.22073)
(-42.7843 -6.48951 1.97268)
(9.24832 37.9714 -1.82513)
(-33.2776 -16.6429 1.40741)
(-3.84962 28.3434 -3.48755)
(-15.0268 5.54038 1.90067)
(8.88009 23.1863 -1.82902)
(2.60846 6.81177 -0.84778)
(12.2474 11.249 -1.19568)
(9.49377 2.36184 -1.05476)
(13.6344 3.62305 -0.88517)