/*--------------------------------*- C++ -*----------------------------------*\
  =========                 |
  \\      /  F ield         | OpenFOAM: The Open Source CFD Toolbox
   \\    /   O peration     | Website:  https://openfoam.org
    \\  /    A nd           | Version:  10
     \\/     M anipulation  |
\*---------------------------------------------------------------------------*/
FoamFile
{
    format      ascii;
    class       volScalarField;
    location    "7.2";
    object      k_0;
}
// * * * * * * * * * * * * * * * * * * * * * * * * * * * * * * * * * * * * * //

dimensions      [0 2 -2 0 0 0 0];

internalField   nonuniform List<scalar> 
12920
(
7.36099
48.5458
151.625
269.495
306.477
314.781
300.124
293.515
291.957
293.511
289.629
278.742
278.528
279.715
271.312
238.83
215.304
178.884
128.527
79.7434
3743.55
2687.24
1121.92
605.903
533.479
492.366
393.145
339.148
317.88
313.593
312.263
312.58
311.591
304.97
285.686
243.16
191.938
148.318
124.775
120.071
1251.17
1385.5
1092.36
922.922
880.075
747.752
573.165
455.414
368.602
314.62
281.291
260.969
242.364
223.545
205.616
187.012
166.497
143.396
131.51
114.274
707.855
2939.41
2649.56
1924.37
1400.36
1128.72
889.97
755.672
607.241
463.001
352.727
287.803
250.11
221.169
194.119
165.639
143.264
122.9
110.325
88.7848
2492.44
2433.73
1982.65
1735.26
1405
1277.6
1019.65
891.585
747.535
617.927
466.843
348.973
276.898
230.884
194.189
162.15
138.261
117.798
107.652
87.9116
792.494
1059.78
1368.64
1528.86
1505.21
1360.35
1068.06
867.209
742.688
664.927
572.44
451.993
345.562
261.869
206.452
169.476
146.364
130.937
125.539
112.555
188.948
1184.68
1226.27
1222.52
1064.68
868.725
703.864
661.806
664.147
680.969
702.006
694.738
644.962
491.709
322.582
216.847
168.639
143.279
135.423
120.972
1335.85
1422.01
1135.15
926.718
770.63
676.795
460.701
297.43
323.776
350.112
351.578
336.341
306.964
250.877
243.718
185.882
156.669
137.768
131.532
119.103
2532.1
2856.57
2269.39
1586.29
888.689
353.937
240.921
170.772
183.515
203.388
184.901
153.291
124.015
92.3858
130.778
181.826
160.471
145.245
139.678
125.494
1059.67
2529.76
2591.03
2445.82
1800.07
807.043
277.878
133.167
138.672
140.935
141.135
130.61
121.22
104.99
148.385
192.765
175.917
159.257
151.369
131.686
10784.7
5213.7
2536.56
1545.67
977.501
495.232
240.578
120.921
102.076
116.203
93.3142
78.0176
71.8345
69.6904
103.12
149.388
147.215
142.523
136.601
120.689
1691.48
3624.42
3236.15
2124.97
1351.74
746.282
395.69
230.463
196.125
146.298
144.294
92.0166
78.358
68.0272
106.312
157.604
149.368
134.202
123.969
109.839
5276.43
5036.26
2404
1389.09
891.109
730.009
461.642
347.466
307.771
266.351
235.873
191.134
146.501
117.099
158.813
139.585
129.576
114.628
108.802
101.013
5330.36
4570.71
2402.65
1205.98
723.337
643.735
626.866
569.497
450.635
341.818
260.851
200.334
158.859
131.014
113.152
101.518
97.3398
92.5985
91.1695
88.2849
1719.3
1346.22
1212.84
943.315
765.714
715.906
612.084
435.917
317.559
246.367
203.138
170.816
144.746
123.698
107.194
94.7311
86.5464
80.7794
77.6149
74.9366
1457.35
2100.38
2058.4
1432.36
965.859
804.751
623.223
439.09
295.707
216.643
173.058
147.648
128.343
114.636
102.944
94.0388
86.9547
81.9465
78.2433
75.0763
692.092
1950.8
1811.21
1365.15
907.104
750.181
617.75
495.754
352.696
247.796
182.686
146.914
123.931
109.988
100.144
93.9569
89.6807
87.0253
85.0497
83.4699
6052.69
3294.39
1836.14
1376.02
956.724
755.565
575.948
438.667
323.633
252.988
202.176
168.233
141.588
123.8
111.459
104.334
100.005
98.6954
98.597
99.1889
5785.85
2982.51
1946.06
1223.77
757.981
550.05
409.064
336.476
282.223
252.684
227.468
205.153
178.871
156.398
137.613
125.843
118.876
115.69
115.486
116.064
2344.16
1990.13
1701.56
1401.94
972.476
592.869
357.29
253.014
209.296
190.173
171.387
153.988
137.764
123.988
111.609
99.5548
88.6673
76.5647
71.5402
63.227
11.4866
335.071
486.364
623.027
627.21
669.687
668.954
675.026
675.689
668.574
637.412
596.355
567.137
544.332
500.23
424.33
321.036
219.079
144.166
114.228
4247.58
4695.78
1998.01
1652.14
1367.27
1219.46
932.795
855.269
820.456
835.026
842.985
868.805
899.868
905.65
868.618
714.73
493.625
377.239
358.653
365.813
3088.35
3542.01
2671.36
2075.21
1946.91
1753.39
1236.74
981.837
817.774
790.933
763.769
748.956
716.077
681.556
635.124
575.11
498.717
432.14
397.447
350.215
1028.01
7555.16
6708.26
4360.89
2989.19
2458.63
1940.34
1682.96
1290.52
1063.28
877.758
771.674
699.815
633.284
560.584
481.316
414.619
356.996
321.512
266.673
11907.7
7677.14
5164.88
4127.06
3101.38
2772.47
2258.6
2078.9
1773.15
1513.47
1166.46
905.156
736.883
629.736
537.413
456.069
393.799
342.358
313.667
262.716
5332.25
4523.58
3456.01
3640.73
3351.73
3072.07
2413.75
2160.41
1929.62
1744.9
1484.15
1185.37
895.945
681.101
559.03
474.732
420.899
381.493
365.869
331.189
5399.78
4869.13
2761.58
2675.65
2074.3
1971.27
1798.72
1805.95
1795.53
1755.86
1712.94
1669.14
1528.25
1112.87
716.833
533.152
461.746
414.952
398.02
364.179
11680.4
6742.59
2829.85
2233.37
1667.06
1688.96
1461.28
1331.44
1327.42
1296.14
1259.84
1176.51
1068.27
834.646
570.87
480.248
430.591
393.089
379.734
353.062
12465.7
8680.51
4828.31
3429.08
1913.55
1335.76
1299.54
1132.48
1006.08
964.031
867.562
759.082
646.234
527.942
451.319
436.216
408.084
385.133
375.443
348.174
8361.11
9225.28
7109.46
5634.52
3414.83
2393.35
1410.41
895.74
771.542
714.525
663.642
603.872
549.884
485.378
432.491
433.19
417.228
398.679
388.25
357.943
9904.4
8053.94
4430.67
3293.18
1985.94
1678.44
1272.76
988.073
837.352
688.265
515.684
395.158
334.862
313.33
312.771
354.294
369.857
373.622
371.299
351.791
5161.62
7086.19
4687.5
3475.47
2155.63
1865.65
1631.37
1508.73
1297.27
985.104
725.874
513.973
420.394
360.023
347.068
377.698
376.774
366.724
353.533
326.85
10642.3
7886.78
3515.87
2680.03
1837.66
1877.57
1550.25
1419.01
1192.86
1026.73
847.358
665.376
504.804
403.048
367.04
341.493
330.451
311.117
302.778
292.339
17604.1
10129.5
5026.32
3124.84
2101.19
2065.36
1843.52
1452.22
1132.5
858.718
650.633
505.17
408.1
344.564
305.603
281.484
270.493
262.597
260.361
259.854
3356.82
3608.71
3236.28
2996.22
2474.59
2198.44
1501.49
1081.31
816.992
651.9
535.424
453.198
384.918
334.546
294.565
266.857
247.259
235.774
229.043
225.795
5324.86
7328.16
5834.96
3573.64
2494.25
2158.73
1469.16
1041.96
731.658
571.447
464.523
401.284
349.623
315.585
285.729
265.996
249.739
240.223
232.559
227.662
3852.8
5403.5
4911.77
3395.2
2190.98
1892.86
1448.21
1215.86
831.165
614.181
475.694
399.357
343.702
309.989
285.624
271.708
262.782
258.611
255.946
255.254
6085.84
6695.45
4568.63
3276.47
2118.93
1780.37
1280.57
1015.45
777.743
652.396
537.881
459.471
394.343
352.563
323.303
307.463
298.635
296.528
296.835
300.294
23154
7872.41
3092.59
2441.34
1424.76
1160.59
869.268
784.559
703.553
672.461
614.446
565.505
502.77
453.579
409.717
381.729
363.817
354.254
352.246
352.609
6703.34
3530.61
2758.99
2243.79
1469.37
939.588
620.53
473.61
409.43
385.261
357.124
334.519
308.285
282.244
256.314
228.277
199.623
169.541
157.366
140.465
290.058
1375.11
1209.37
996.522
906.806
877.744
866.535
857.436
837.627
784.356
717.784
653.132
598.601
534.255
448.533
349.975
262.367
195.297
159.74
150.062
5097.53
4679.71
3589.37
2692.44
2177.88
1864.96
1544.39
1470.29
1381.59
1358.58
1299.52
1274.77
1240.75
1186.37
1071.43
901.688
741.966
644.497
612.616
589.304
5283.69
6908.8
5430.63
3814.07
3003.04
2425.07
1814.28
1604.99
1418.32
1347.28
1227.98
1143.64
1048.57
968.365
888.109
801.129
716.099
643.338
599.77
533.843
18259.7
13555.8
8068.08
5318.74
3604.72
2861
2214.05
1913.72
1584.45
1409.78
1230.21
1099.64
973.921
862.615
761.65
670.531
596.274
527.396
475.256
407.243
10872.1
9094.74
6023.35
4749.6
3619.45
3125.92
2600.86
2325.51
1940.57
1645.3
1354.51
1146.38
975.122
840.888
726.106
629.23
555.967
493.941
452.984
392.581
9398.27
7159.71
4863.65
4654.38
3966.11
3494.86
2868.86
2609.95
2263.64
1957.46
1630.11
1335.69
1085
894.759
759.787
658.509
592.459
539.745
514.321
461.302
40619.9
12982.3
4819.04
4012.15
3117.34
2948.13
2574.82
2419.7
2224.48
2065.45
1891.17
1689.43
1412.34
1108.87
871.939
732.987
653.95
594.891
569.849
520.371
10179.3
7700.71
4244.13
3583.04
2762.1
2591.53
2268.2
1965.03
1830.46
1663.14
1554.13
1376.04
1193.23
952.621
747.628
664.834
611.917
571.175
552.562
509.985
8188.32
7911.57
5384.8
3925.16
2571.06
2078.77
2034.71
1642.8
1400.18
1257.29
1115.87
978.515
846.108
723.798
633.182
606.317
576.521
551.33
535.794
492.358
9640.76
9039.92
7439.42
5696.09
3605.6
2773.11
1878.83
1323
1102.87
974.685
874.99
783.462
716.074
653.14
604.296
605.353
584.635
561.184
543.928
497.209
9074.44
8422.41
5263.35
3745.12
2693.22
2330.88
1932.44
1535.52
1247.9
981.143
595.616
415.738
395.478
437.056
481.942
561.341
562.603
551.661
533.827
491.886
9217.36
8605.76
5041.28
3801.62
2944.84
2645.57
2444.07
2176.27
1737.56
1311.19
945.791
723.83
606.056
536.884
526.093
564.9
550.677
519.449
499.034
467.717
13679.1
8981.37
4337.76
3346.66
2854.77
2654.57
2282.76
1962.81
1591.06
1321.05
1044.05
823.935
657.873
557.22
506.791
480.231
464.168
446.805
441.325
432.4
12814.4
10402.9
5552.65
3974.18
3200.65
2898.95
2296.7
1767.18
1391.82
1078.66
844.305
675.267
557.72
480.683
434.771
409.867
397.998
392.599
392.514
393.69
4984.39
6878.43
5053.13
4165.49
3263.15
2622.05
1868.86
1383.93
1091.03
882.513
734.535
620.647
530.475
465.543
417.539
387.896
367.927
358.408
354.687
355.456
2852.61
8566.17
7911.32
4642.85
3180.51
2559.82
1801.89
1349.3
1001.7
802.065
661.207
570.269
498.294
450.976
412.74
390.074
372.609
364.527
359.682
359.963
4519.04
8440.8
6942.91
4309.2
2868.39
2397.76
1794.32
1423.39
1034.88
822.388
662.987
568.405
497.244
456.092
426.283
411.201
401.841
399.431
399.32
402.436
14562.2
9569.47
6056.98
3922.66
2616.39
2051.64
1539.5
1254.47
1018.52
878.81
742.747
649.973
569.922
521.547
487.16
470.979
462.948
462.562
464.633
474.09
21823.9
6768.3
3769.64
2463.4
1790.88
1442.72
1194.45
1104.11
992.564
948.303
859.795
793.263
707.198
646.036
591.273
560.185
539.615
531.989
530.815
533.963
11241.8
3384.28
2850.65
2239.25
1525.69
1084.58
806.004
649.581
559.653
508.903
464.861
424.142
382.186
341.703
306.021
271.035
244.425
215.732
204.724
183.164
1368.9
2168.96
1757.01
1206.66
1114.96
1005.55
986.072
928.327
868.24
763.196
686.851
603.735
541.407
463.12
385.466
299.037
240.004
207.026
198.614
191.204
13328.6
6662.98
5211.57
3388.65
2947.19
2386.06
2148.22
2005.21
1872.83
1780.85
1667.27
1581.43
1483.38
1358.67
1228.63
1091.7
987.011
913.558
884.617
861.327
13331.7
11799.3
9557.15
5979.54
4117.22
2993.18
2418.93
2148.32
1929.92
1769.7
1605.65
1462.48
1331.33
1210.31
1109.81
1013.41
939.054
871.496
822.791
754.906
13497.3
11417.6
9195.37
5940.94
4173.1
3123.03
2552.44
2210.8
1932.75
1722.8
1530.9
1354.23
1199.28
1058.39
945.219
846.666
772.869
700.329
642.008
580.019
9833.1
9664.72
7308.78
5034.39
4194.11
3372.24
2914.82
2493.2
2128.49
1808.43
1551.22
1335.16
1164.01
1015.7
897.833
797.569
723.309
658.596
610.072
554.941
9676.32
8676.69
6985.87
5560.32
4696.87
3960.89
3350.95
2938.71
2508.94
2090.67
1746.62
1449.28
1232.36
1061.58
937.366
836.998
770.873
713.018
677.995
620.132
39531.8
14028.4
7148.59
4779.76
4167.93
3637.04
3150.24
2836.74
2529.8
2232.02
1944.21
1654.37
1393.88
1176.38
1026.03
919.722
848.05
786.939
753.763
695.211
13216.6
11515.5
6733.61
4523.46
3765.04
3360.58
2896.32
2408.8
2160.84
1870.11
1669.24
1423.1
1225.47
1040.37
925.357
854.734
806.296
763.323
736.742
681.779
7462.36
9620.12
6489.91
4232.14
3159.13
2680.94
2581.14
1997.79
1681.52
1446.11
1258.04
1097.35
970.282
870.841
806.196
799.235
766.273
734.765
711.273
658.857
7162.32
9394.04
7882.8
5199.01
3719.96
2878.97
2164.72
1626.28
1344.07
1160.95
1018.77
902.594
838.8
805.538
794.105
811.403
777.041
742.647
716.29
660.501
15713.3
8534.92
5725.49
3891.51
3225.52
2714.08
2289.77
1820.78
1451.79
1152.69
821.789
629.517
611.067
661.385
740.313
807.684
772.043
732.58
706.252
662.82
7595.67
9665.18
5912.52
4029.75
3648.13
3221.88
2935.96
2442.2
1865.01
1415.83
1068.13
871.941
772.566
736.573
756.657
769.98
728.161
690.186
669.286
645.694
19930.4
10557.3
5408.19
3868.23
3688
3138.87
2722.8
2223.2
1800.18
1456.82
1153.64
938.795
789.414
710.864
668.067
638.475
624.355
615.872
614.917
612.944
19081.8
12173.2
6798.24
4506.45
3973.96
3237.02
2599.4
1962.68
1593.97
1233.19
998.678
814.616
700.816
623.92
583.554
562.939
555.026
556.317
559.575
567.396
11977.3
10775.5
6628.45
4662.36
3816.69
2764.17
2154.87
1582.67
1319.84
1063.45
908.274
769.935
676.28
606.117
559.211
532.929
516.41
513.801
514.648
522.241
5652.18
11533.6
10831.8
5606.92
3772.24
2690.94
2039.23
1515.22
1220.09
989.032
848.028
733.828
657.735
601.012
562.834
540.902
526.018
523.223
523.312
530.528
5429.05
11073.7
8869.59
4819.15
3401.67
2528.37
1992
1517.93
1211.43
990.464
843.674
736.112
666.357
621.259
592.783
579.142
572.76
573.881
576.915
589.455
9626.51
9922.86
7377.45
4163.35
3038.77
2171.57
1782.62
1462.14
1262.16
1097.32
956.94
845.588
764.496
713.463
681.724
668.984
664.759
667.153
673.529
693.282
13251.4
7185.93
3984.63
2397.86
2076.17
1615.93
1466.26
1378.54
1279.67
1233.39
1131.17
1039.26
937.282
864.233
805.219
775.317
757.559
755.443
756.618
769.485
7023.93
3199.92
2579.48
1906.02
1408.22
1063.29
846.809
708.833
620.806
557.652
499.969
443.784
390.875
344.239
305.58
272.331
249.512
226.506
216.979
196.282
3428.54
2176.81
1760.79
1268.56
1202.93
1027
980.83
831.878
741.254
602.403
534.267
450.722
403.182
338.804
292.988
248.555
230.544
216.116
209.641
192.389
14177.6
7452.72
7073.71
3905.11
4029.16
2807.71
3018.41
2563.45
2564.96
2309.77
2229.27
2016.91
1891.7
1672.87
1559.7
1439.84
1400.55
1371.04
1363.77
1336.93
33625.4
17767
14015.1
6894.75
5488
3338.83
3259.2
2691.3
2604.9
2257.71
2143.55
1888.28
1760.97
1557.99
1446.54
1326.91
1274.31
1217.36
1181.55
1129.73
10361.2
10918.7
11381.7
6094.64
5246.64
3353.27
3260.14
2658.58
2528.98
2150.94
2007.44
1718.19
1568.41
1365.53
1243.44
1121.94
1056.14
987.577
941.75
901.22
11420
10384
9349.69
5237.39
5280.71
3646.1
3533.01
2785.48
2587.2
2107.83
1929.24
1627.55
1485.14
1298.38
1189.35
1077.8
1011.1
945.268
899.547
863.174
11314.5
9599.82
9532.95
5973.26
6076.79
4439.38
4162.61
3371.24
2981.45
2362.83
2053.53
1708.48
1531.48
1355.69
1244.96
1138.22
1075.54
1008.63
963.871
911.242
44071
14409.9
9987.43
5199.93
5751.34
4169.67
3933.07
3294.67
3008.91
2506.13
2166.56
1806.43
1596.98
1423.8
1328.16
1242.34
1176.2
1105.48
1056.79
1000.22
48141.8
20864.8
10722.2
5289.35
5373.39
4268
3621.83
2917.97
2595.83
2170.18
1896.44
1600.18
1429.56
1289.3
1268.98
1186
1129.84
1072.7
1027.74
976.487
30311.8
12988.7
8429.18
4934.86
3986.66
3290.01
3163.24
2407.68
2043.62
1712.99
1481.51
1300.69
1198.19
1131.48
1130.92
1144.6
1088.05
1037.16
996.693
955.525
14941.9
11982.6
9556.92
5232.59
4502.52
3178.48
2556.46
2002.68
1680.82
1420.92
1226.16
1100.11
1091.35
1111.71
1146.49
1162.53
1091.74
1035.1
993.849
951.561
12033.7
11047.3
6348.35
4574.39
3889.1
3046.68
2655.13
2120.23
1703.25
1353.2
1104.82
947.624
958.005
1062.27
1144.89
1146.21
1065.86
1017.54
990.75
965.953
10040.7
10775.6
7526.95
4647.08
4779.17
3874.18
3417.05
2684.25
2038.47
1567.65
1254.75
1103.33
1083.27
1102.62
1131.55
1083.83
1011.37
975.892
962.4
956.165
20435.6
11821.1
6673.81
4654.31
4737.56
3602.16
3188.06
2497.83
2090.97
1661.16
1385.29
1166.7
1061.12
990.133
974.52
933.922
916.596
917.627
920.432
928.661
23762.7
13917.9
8671.07
5284.57
5140.43
3675.93
3185.19
2244.5
1964.71
1464.89
1286.24
1049.33
975.017
889.987
869.018
844.345
846.058
853.772
860.636
880.641
54872.5
14997.3
8907.84
5278.68
4651.42
3016.37
2669.47
1833.17
1682.18
1311.36
1199.81
1005.99
940.068
855.579
821.895
799.589
793.568
799.605
805.147
829.813
15931.9
19886.9
15089.9
6447.66
4793.77
2943.66
2558.82
1731.1
1602.83
1252.14
1173.64
992.142
949.335
862.76
845.018
815.884
813.841
815.394
819.833
844.177
21604.7
18376.9
10906.4
5077.16
4167.71
2706.71
2438.85
1691.95
1567.43
1232.1
1161.56
995.412
963.777
895.557
885.389
867.897
869.799
876.645
883.545
913.773
13085.2
12627.6
8787.03
4558.85
3909.68
2443.5
2340.03
1784.41
1717.52
1413.65
1328.63
1133.48
1096.13
1019.9
1012
994.641
997.809
1005.58
1016.68
1052.33
19583.8
9199.17
4324.92
2736.43
2597.18
1867.58
2034.37
1772.24
1817.54
1660.67
1589.27
1391.4
1315.6
1205.91
1170.84
1134.86
1126.57
1126.07
1130.78
1163.57
8253.47
3082.49
1847.48
1395.37
1133.43
918.406
773.016
658.338
572.915
492.847
425.392
363.766
317.26
279.264
249.58
225.32
205.933
189.749
177.74
169.439
900.84
944.016
669.666
1116.07
1017.91
1072.63
805.511
803.33
596.654
460.185
985.005
896.847
711.531
560.675
676.673
1238.97
960.6
1112.31
785.116
1328.73
1060.58
449.091
884.42
721.068
690.059
549.754
990.18
836.2
176.259
203.705
133.558
1004.58
1003.92
998.259
810.921
176.835
135.416
147.341
960.364
878.804
769.189
707.789
201.411
149.153
159.917
875.26
867.507
699.255
688.037
193.186
162.474
161.701
857.74
796.525
682.011
650.131
161.126
157.644
143.532
771.709
697.937
635.475
587.991
132.283
139.257
129.649
671.256
596.631
572.913
528.359
100.464
125.314
111.069
567.459
486.772
511.811
456.782
69.0918
105.4
74.2648
454.29
400.061
436.142
389.587
136.524
299.78
142.975
1139.23
809.45
1116.18
837.437
138.243
120.847
103.782
751.944
675.697
761.303
659.982
140.266
106.883
118.927
662.117
633.07
644.959
588.971
141.946
117.773
102.182
624.825
598.406
561.356
481.589
133.423
96.69
89.4872
587.024
548.727
453.63
387.903
124.255
88.2187
86.5005
536.649
501.714
372.116
342.306
109.886
85.6995
83.9512
488.886
445.386
336.442
326.71
74.5834
83.0969
63.3802
427.988
386.964
323.71
316.154
136.279
309.307
225.685
964.365
833.919
1150.59
1208.39
100.742
217.64
193.902
787.722
699.157
1197.63
1097.93
116.116
183.53
142.529
679.132
616.813
1034.01
837.702
100.482
140.534
139.462
585.763
481.116
792.755
635.003
80.3582
130.874
88.0847
447.409
368.981
573.569
431.954
73.0127
81.9928
73.0708
349.85
308.361
404.387
348.732
70.0642
71.0075
63.4561
298.788
280.364
334.418
296.53
57.4098
61.1737
44.1241
276.488
279.207
285.205
265.244
244.912
404.573
255.968
1168.62
1239.71
1176.94
1230.96
203.566
237.976
203.611
1235.17
1152.5
1212.73
1094.31
150.573
199.645
171.556
1093.29
879.043
1038.86
882.983
147.758
159.767
149.51
831.215
697.271
843.246
763.153
100.771
148.947
136.774
637.432
473.894
730.074
602.238
81.2041
125.972
106.018
440.016
376.539
557.991
456.294
70.6964
98.8884
84.5734
360.418
319.028
427.258
359.983
47.4478
79.6686
56.6587
307.099
281.46
341.076
310.879
1195.42
1242.07
971.45
1861.71
1638.35
1716.02
1347.85
1016.09
915.534
824.591
1536.79
1347.27
1264.11
1106.47
979.221
810.087
783.162
1317.63
1230.72
1075.02
1000.84
893.383
772.458
731.175
1198.77
1099.92
977.226
909.46
787.556
714.387
661.591
1068.56
971.699
886.394
818.681
677.09
644.768
594.466
937.932
842.004
797.522
735.976
559.707
576.293
516.954
807.767
714.432
715.178
652.268
455.04
495.865
437.583
683.178
614.103
632.005
578.37
964.708
1435.31
1017.25
1794.63
1320.9
1864.47
1415.89
791.565
934.156
807.838
1232.82
1069.25
1324.11
1136.89
727.011
780.43
689.752
1032.68
944.733
1082.7
920.906
678.082
655.915
554.981
920.301
855.023
880.318
677.204
617.915
519.923
435.675
831.846
766.226
616.239
483.44
563.981
415.735
379.472
747.608
698.096
454.976
428.585
503.075
373.672
366.753
682.147
633.137
432.104
457.676
434.267
365.24
352.175
616.599
572.729
464.16
470.469
1041.77
1544.27
1485.31
1809.07
1506.25
2199.28
2051.87
871.808
1456.42
1310.83
1431.59
1237.84
1979.26
1705.44
729.191
1233.69
998.307
1172.99
976.306
1597.57
1286.79
556.993
933.718
727.361
923.23
685.645
1190.41
916.752
418.689
658.675
506.714
617.478
473.344
840.234
676.421
345.454
475.391
409.131
440.76
388.612
639.125
554.901
316.346
392.105
348.849
385.995
396.268
533.316
482.081
311.788
336.719
304.439
401.904
424.326
468.835
442.233
1533.58
1642.55
1535.32
2264.75
2126.7
2244.28
2099.24
1372
1483.94
1303.27
2059.9
1781.99
2006.64
1703.01
1048.6
1229.05
1042.23
1671.52
1355.67
1600.56
1355.86
796
995.779
882.911
1261.81
986.851
1290.93
1096.36
550.987
835.803
683.708
904.697
721.911
1024.41
837.073
439.303
634.965
522.94
680.425
588.214
784.113
660.591
372.929
490.714
416.25
564.619
508.714
625.339
544.589
321.288
396.057
353.593
494.455
460.341
523.972
484.779
1753.2
1840.36
1448.62
2441.68
2046.86
2145.53
1708.07
1436.38
1358.38
1183.63
1914.66
1667.84
1602.62
1386.43
1294.58
1147.08
1058.42
1614.32
1453.6
1336.26
1207.83
1149.65
1030.9
954.864
1401.25
1266.37
1169.14
1067.55
1013.65
929.687
857.138
1225.14
1107.71
1035.9
949.403
880.501
834.772
771.135
1069.65
971.414
924.317
859.79
753.733
750.191
688.726
939.251
857.412
841.101
792.485
653.005
669.418
615.301
832.181
772.704
778.196
738.638
1414.89
1953.99
1514.23
2093.26
1656.65
2158.79
1746.67
1144.06
1420.03
1215.53
1554.55
1338.35
1643.42
1396.48
1002.66
1155.49
980.051
1285.47
1153.53
1324.47
1130.35
954.12
949.711
935.279
1024.53
905.204
996.783
986.046
811.218
849.67
807.302
914.365
775.1
886.823
846.105
732.109
431.347
432.316
873.644
820.366
538.329
558.134
668.655
447.478
489.453
806.455
772.299
575.994
621.675
608.929
498.639
506.265
762.361
734.522
634.006
656.771
1617.04
2376.59
2175.79
2210.08
1862.84
2741.87
2421.4
1318.95
2088.3
1776.06
1761.82
1491.9
2291.74
1891.36
1036.62
1661.3
1338.71
1408.44
1178.59
1765.57
1430.7
1021.04
887.729
1052.9
1027.04
972.708
844.469
1103.16
708.156
534.583
734.427
491.788
675.305
435.643
768.307
389.174
683.057
596.84
525.828
528.242
799.236
718.096
427.701
574.941
524.22
541.535
580.891
699.3
663.69
460.734
511.586
483.087
593.618
629.743
657.405
651.876
2258.83
2431.91
2229.35
2826.87
2527.05
2814.51
2492.64
1855.82
2122.34
1787.81
2396.13
1974.8
2350.45
1952.44
1409.69
1679.45
1421.36
1843.23
1499.89
1835.07
1547.97
1027.38
1351.17
1137.98
1395.99
1115.25
1464.6
1219.28
765.387
1062.38
872.511
1040.03
874.98
1142.33
959.412
629.931
820.003
696.438
835.626
747.909
910.47
794.224
550.584
661.36
581.754
727.159
685.973
762.695
695.662
501.374
562.114
520.428
677.832
663.966
680.58
648.278
2134.7
2233.66
1787.46
2984.4
2427.77
2528.83
2059.34
1740.6
1678.3
1451.32
2278.36
1996.5
1942.74
1690.82
1503.27
1397.18
1256.07
1923.81
1691.25
1625.93
1441.61
1301.86
1213.42
1102.22
1618.78
1447.16
1384.03
1239.36
1135.95
1068.37
977.796
1397.45
1262
1199.06
1098.94
1000.83
952.178
889.783
1222.39
1136.65
1074.04
1032.99
894.046
873.022
831.882
1113.13
1056.36
1027.47
1015.98
812.927
819.951
782.479
1039.33
995.478
1010.77
985.468
1731.09
2222.88
1812.27
2423.76
1989.94
2455.39
2032.46
1400.15
1705.81
1447.8
1878.26
1631.14
1917.1
1635.22
1201.99
1373.02
1172.35
1566.4
1385.01
1552.44
1327.48
1053.69
1115.66
907.484
1329.76
1190.43
1259.62
1086.69
926.633
826.855
663.636
1150.01
1049.26
1028.06
888.905
850.838
635.767
625.472
1025.17
995.179
861.035
843.686
812.883
636.781
679.646
996.114
1005.49
856.514
928.148
779.496
693.173
715.068
1005.16
989.868
946.255
968.812
1927.07
2844.1
2476
2534.09
2134.14
3108.88
2645.83
1537.75
2334.7
1915.18
2014.69
1704.28
2477.35
2019.42
1215.95
1788.01
1452.24
1610.56
1355.03
1889.27
1545.2
903.266
1350.53
1088.63
1279.34
1086.1
1443.32
1198.76
661.164
1020.84
872.301
1026.41
889.154
1139.22
1011.77
605.14
836.742
761.63
859.648
835.595
983.671
947.067
647.426
745.767
721.655
845.653
915.038
948.65
971.033
693.05
719.003
715.634
933.938
962.344
977.223
982.576
2587.46
2920.88
2556.03
3251.41
2770.11
3248.66
2739.78
1998.07
2403.14
1991.51
2588.17
2097.66
2557.9
2124.02
1519.7
1872.99
1579.37
1961.37
1608.37
2007.44
1694.25
1140.3
1492.37
1242.27
1503.01
1245.86
1595.72
1345.67
909.616
1166.66
988.877
1182.85
1049.7
1278.89
1122.16
790.42
941.551
829.788
1020.04
976.76
1078.98
989.265
741.604
800.399
740.35
974.276
981.393
969.474
933.168
725.184
727.216
693.02
983.362
981.152
922.757
890.03
2558.72
2659.67
2188.62
3690.87
3055.23
3153.08
2759.68
2119.98
2070.23
1810.94
2919.77
2662.79
2644.15
2385.36
1790.53
1742.37
1540.99
2585.73
2265.42
2312.05
2060.33
1532.42
1477.26
1319.66
2179.67
1991.39
1983.84
1806.26
1340.27
1277.28
1174.11
1944.2
1778.4
1761.96
1647.72
1218.85
1149.93
1121.44
1744.62
1671.91
1627.77
1642.49
1146.29
1120.79
1117.33
1663.02
1612.17
1650.01
1647.23
1087.26
1113.31
1084.6
1610.07
1581.16
1644.64
1629.32
2115.76
2578.84
2145.42
3093.74
2709.21
3128.6
2724.32
1749
2027.22
1737.98
2590.5
2331.31
2599.95
2302.57
1482.59
1651.8
1411.12
2252.37
2008.89
2204.32
1931.99
1268.27
1338.2
1162.26
1934.22
1761.45
1847.42
1667.77
1123.25
1107.22
974.732
1717.16
1604.95
1617.36
1484.47
1083.33
948.745
943.267
1585.87
1618.14
1464.75
1523.13
1111.1
966.235
1052.41
1646.01
1661.76
1584.23
1668.59
1091.13
1070.03
1080.85
1661.24
1638.36
1675.76
1667.75
2243.01
3248.4
2748.77
3132.71
2809.66
3789.53
3321.71
1800.23
2571.51
2099.54
2682.69
2352.75
3121.74
2622.29
1432.96
1966.51
1611.73
2243.11
1944.08
2480.06
2094.13
1160.57
1507.5
1266.46
1854.29
1665.75
1985.32
1763.46
974.675
1209.73
1090.03
1616.46
1490.08
1715.27
1610.77
937.169
1064.96
1047.79
1469.72
1528.15
1597.1
1660.38
1043.81
1058.9
1094.88
1589.65
1673.74
1697.5
1722.72
1077.01
1101.23
1095.24
1681.11
1669.95
1722.26
1700.91
2877.96
3421.47
2843.74
4134.3
3480.61
4171.64
3354.49
2176.34
2649.74
2209.43
3243.14
2692.72
3096.02
2698.58
1675.27
2092.99
1769.03
2550.59
2153.34
2568.92
2234.33
1314.4
1664.38
1416.54
2038.95
1810.26
2093.61
1907.41
1129.86
1353.07
1202.24
1760.02
1653.02
1842.87
1711.17
1079.29
1158.96
1077.83
1638.2
1692.78
1653.94
1617.9
1100.52
1061.04
1030.01
1706.36
1715.02
1602.99
1576.17
1090.47
1018.72
979.613
1711.69
1688.77
1553.17
1523.29
920.851
925.693
841.721
942.741
874.857
970.201
884.034
922.784
922.027
866.137
992.515
876.23
973.748
852.809
851.902
757.607
764.921
561.61
819.095
778.32
684.594
1000.37
1071.18
1082.34
1078.68
1040.66
1033.39
1043.41
965.709
981.52
1050.34
966.857
1011.48
926.23
1007.64
974.055
1029.43
1065.89
1007.74
1021.27
891.945
1022.51
905.421
594.846
898.018
918.449
828.571
724.626
966.17
780.012
825.613
723.459
836.64
746.741
860.701
754.554
667.354
701.906
530.938
484.932
654.017
716.159
416.109
621.705
587.818
485.369
395.806
615.224
599.922
391.135
848.349
950.762
953.514
924.481
921.13
885.513
885.633
814.715
867.359
924.039
821.086
893.122
786.661
851.12
709.766
508.35
830.907
642.51
761.882
443.52
775.885
660.136
418.308
696.647
598.325
635.689
415.113
731.095
926.592
777.692
802.651
570.051
884.296
685.071
839.874
1097.38
1144.88
1140.84
1276.06
1054.74
1187.46
1177.19
1009.95
887.887
1046.83
998.185
967.594
929.968
1083.44
1062.81
1065.23
1025.78
1174.87
891.436
1142.43
1096.92
971.179
599.366
902.978
934.367
720.821
885.831
1013.98
1132.56
1304.84
1250.01
1231.39
1221.4
1206.54
1162.21
1046.75
1031.04
1002.46
1141.35
968.172
1114.36
1078.72
662.359
480.171
586.327
386.228
628.223
411.689
616.379
801.758
818.441
819.671
923.438
759.424
860.71
859.868
752.764
668.997
765.951
761.902
710.797
709.929
806.766
753.144
515.303
624.825
863.452
461.755
813.136
803.516
705.76
413.934
566.929
709.552
432.323
658.213
753.8
841.696
958.337
936.091
930.234
900.035
896.441
878.865
792.501
799.945
788.071
879.498
749.65
844.308
829.935
334.32
431.58
339.034
744.613
817.382
744.332
828.961
302.311
306.915
307.055
863.955
907.449
831.728
836.495
341.3
317.812
331.623
957.384
976.913
850.156
856.449
352.281
331.772
324.897
976.148
964.317
848.32
821.686
347.553
305.844
287.346
957.856
944.421
780.976
740.502
327.287
262.322
241.941
910.989
881.334
683.972
641.253
289.134
217.873
193.6
817.906
753.827
580.618
535.086
218.284
175.314
123.643
590.761
518.134
437.367
424.564
311.919
387.225
320.312
771.712
793.596
890.808
908.551
405.663
207.446
197.436
405.983
453.61
351.021
165.938
458.749
170.044
149.674
513.99
513.062
456.794
154.338
489.897
190.623
173.858
530.106
539.839
475.55
183.96
507.797
202.506
200.571
547.331
540.414
510.651
200.172
443.731
176.292
180.594
481.199
461.873
460.618
173.344
379.21
146.346
151.621
403.886
387.722
393.198
146.128
316.521
115.753
127.926
325.683
306.365
332.339
121.177
243.379
87.3247
97.3537
230.5
217.212
255.82
90.5214
108.553
144.064
106.075
305.659
305.303
317.378
330.122
507.094
825.325
521.119
1373.27
1165.65
1344.62
1135.8
454.219
197.051
277.886
479.401
447.965
473.802
199.164
362.918
133.765
127.685
384.638
382.3
371.166
126.272
357.974
139.607
130.784
378.924
378.46
359.368
130.963
332.48
141.853
124.889
374.869
373.91
337.627
123.259
318.572
138.876
122.703
363.348
356.98
322.369
122.342
299.333
128.613
118.843
335.123
328.813
303.691
117.842
278.504
118.135
112.898
306.959
298.772
283.724
111.18
246.52
99.4211
102.075
263.45
254.535
253.545
97.5925
110.502
137.98
105.726
318.577
334.871
294.429
311.992
376.325
501.264
413.477
934.172
873.752
885.849
885.606
371.738
187.528
238.239
380.539
374.482
370.613
191.494
357.266
108.633
146.288
316.433
299.02
369.779
136.342
321.641
107.419
109.163
303.751
318.415
320.446
108.364
328.119
114.214
117.82
322.483
309.267
335.281
117.439
230.618
87.8955
93.9259
249.198
233.688
251.325
86.6857
185.075
76.3053
73.9449
202.281
196.004
192.763
71.4887
158.949
70.9742
65.1837
179.002
174.963
164.605
63.5155
140.845
68.8217
60.2398
165.955
163.048
145.209
58.8746
88.2713
88.6249
60.7981
228.011
254.382
208.49
215.29
562.982
730.295
580.96
1047.19
963.247
1056.65
1007.93
511.75
323.399
395.525
520.352
513.038
513.791
321.846
568.512
220.349
228.452
552.553
563.812
554.138
219.056
524.905
182.136
199.517
540.796
495.593
560.306
188.115
410.306
146.563
146.054
409.011
411.041
410.67
145.604
379.409
132.187
148.104
384.195
338.372
405.758
143.316
247.032
86.9595
101.399
238.379
225.313
263.938
94.7063
211.471
76.3649
85.4237
199.696
192.968
218.654
83.2631
178.71
65.6423
74.1025
167.924
163.311
183.758
71.085
72.8707
113.392
94.7604
239.552
242.739
260.373
280.612
385.563
470.157
411.227
805.006
891.752
790.121
898.214
331.669
389.181
379.436
905.76
889.797
895.378
858.491
283.047
340.143
298.576
839.291
781.41
786.187
719.863
255.114
263.809
241.116
747.795
711.311
670.04
597.771
214.881
210.218
186.508
651.078
590.273
536.573
480.514
168.147
162.554
144.383