/*--------------------------------*- C++ -*----------------------------------*\
  =========                 |
  \\      /  F ield         | OpenFOAM: The Open Source CFD Toolbox
   \\    /   O peration     | Website:  https://openfoam.org
    \\  /    A nd           | Version:  10
     \\/     M anipulation  |
\*---------------------------------------------------------------------------*/
FoamFile
{
    format      ascii;
    class       volScalarField;
    location    "7.2";
    object      nut;
}
// * * * * * * * * * * * * * * * * * * * * * * * * * * * * * * * * * * * * * //

dimensions      [0 2 -1 0 0 0 0];

internalField   nonuniform List<scalar> 
12920
(
0.0288398
0.217712
0.432084
1.37615
1.23582
1.69332
1.37
1.41857
1.29632
1.29296
1.20339
1.13379
1.07718
1.01573
0.897332
0.739195
0.652988
0.559955
0.448704
0.309053
7.30556
11.6711
3.46203
3.02931
2.15737
2.70849
1.89772
1.7538
1.53166
1.52815
1.4661
1.45449
1.38521
1.31334
1.19079
1.01222
0.81734
0.691686
0.628164
0.63594
3.49176
8.36202
3.86449
5.12049
3.49428
3.53641
2.4689
2.1006
1.66762
1.5113
1.37748
1.35544
1.27697
1.21153
1.11752
1.03499
0.931953
0.825204
0.770854
0.680176
1.31936
9.62107
7.60338
8.00566
5.24947
5.13417
3.81164
3.46149
2.71458
2.1633
1.68926
1.51205
1.38124
1.29804
1.16883
1.04643
0.920791
0.815053
0.744879
0.599486
7.26219
11.0707
7.04659
9.35274
5.87949
6.40708
4.47234
4.1523
3.35786
2.88934
2.20417
1.79714
1.53494
1.39978
1.21638
1.06268
0.91891
0.801657
0.740643
0.598158
2.38013
3.68744
3.79712
5.14317
4.61947
4.78431
3.68719
3.30385
2.96633
2.89072
2.54984
2.10655
1.68827
1.4328
1.24252
1.0948
0.961691
0.870551
0.832298
0.723131
0.161696
7.50703
4.17694
7.5308
4.25178
4.42274
3.33507
3.38751
3.24053
3.33254
3.28887
3.06298
2.72352
2.1169
1.51612
1.19257
1.00509
0.883834
0.844733
0.731794
3.13538
4.94398
3.56119
4.2769
3.13939
3.51801
1.15667
0.926273
0.982764
1.02391
0.967734
0.89281
0.761022
0.608936
1.46058
1.16791
1.00268
0.890258
0.851047
0.74195
11.7844
12.0464
10.6279
8.91617
6.44954
2.11864
0.491964
0.320619
0.308618
0.328791
0.289412
0.237552
0.191077
0.140677
0.415152
1.22034
1.07535
0.968436
0.921097
0.792734
3.45264
9.79596
8.35808
10.9536
7.05938
1.94059
0.441604
0.243458
0.259239
0.254895
0.235325
0.206816
0.187889
0.160818
0.460027
1.22276
1.1136
1.01291
0.962392
0.819014
16.2795
16.5133
11.3517
8.83258
7.04042
2.39949
0.437533
0.188757
0.161597
0.195835
0.159217
0.129864
0.113631
0.10301
0.295051
0.867577
0.843375
0.820756
0.801775
0.714671
3.97778
12.2867
8.91867
7.70258
4.87914
1.48083
0.422072
0.241765
0.208566
0.175125
0.201558
0.144023
0.125687
0.107726
0.332179
1.00181
0.906253
0.80735
0.753772
0.666227
9.29046
15.5946
9.80923
8.42575
5.03566
6.06429
1.52797
1.1995
0.980144
0.79735
0.66982
0.560951
0.461709
0.400662
1.24131
1.0618
0.947405
0.807804
0.757636
0.672835
13.459
15.1761
9.27084
5.40179
2.85161
3.06676
3.23068
3.75232
3.03249
2.55334
1.96071
1.61129
1.29242
1.09523
0.935997
0.845827
0.79516
0.732186
0.709945
0.635547
4.24233
8.32682
5.43091
6.91942
3.82245
5.09969
4.19815
4.14749
2.79761
2.32485
1.7832
1.51949
1.24787
1.07297
0.927264
0.816121
0.738653
0.679994
0.652506
0.582665
4.84646
10.39
8.04374
8.59026
4.34455
4.27128
3.25093
3.03079
2.17432
1.91764
1.48009
1.32788
1.11476
1.00983
0.888541
0.814187
0.74295
0.696019
0.666499
0.598358
1.58448
9.95509
7.54859
8.34108
5.13563
5.1635
3.65526
3.42554
2.389
2.01121
1.49929
1.31944
1.09062
0.98833
0.885291
0.830798
0.781348
0.75096
0.735777
0.675095
9.90656
12.8851
6.78882
8.33022
5.13283
5.26347
3.54843
3.22464
2.27306
2.02424
1.58839
1.40917
1.15827
1.0292
0.910076
0.853078
0.806948
0.795631
0.797442
0.75744
17.6627
12.201
9.78935
7.826
6.17435
5.26611
3.17897
2.93389
2.05901
1.93172
1.62772
1.49571
1.2642
1.11472
0.970566
0.892373
0.838302
0.819023
0.821513
0.788499
7.5895
9.99501
5.56765
6.47733
3.87931
3.07517
1.80085
1.42718
1.09643
1.00642
0.854355
0.755163
0.644663
0.570776
0.501037
0.444421
0.394356
0.3448
0.326979
0.284019
0.025585
1.45143
3.6692
5.94225
7.49696
9.4632
8.41199
8.86505
8.22764
8.12069
7.38661
6.81343
6.23775
5.67099
4.69038
3.68855
2.79826
2.00292
1.50031
1.33894
10.7898
22.7369
17.8372
15.3672
17.9788
18.6111
15.8316
15.6691
15.7978
16.8671
17.6409
18.8435
19.6922
19.6529
18.1479
14.5241
9.97424
8.82875
10.4379
12.9027
11.0268
25.0149
23.1559
20.4114
22.1319
23.718
18.5197
15.5203
13.8832
14.9454
16.0141
17.3762
18.151
18.6399
18.0492
16.522
14.4735
13.0123
13.0959
13.627
1.92858
46.4349
45.5454
39.1976
34.3625
32.2383
27.9443
25.2236
20.3134
18.1623
16.7366
17.1061
17.7781
18.0381
17.3678
15.8613
14.3895
13.511
13.2885
12.6714
45.8285
48.5364
39.6237
38.6037
35.2402
34.5403
30.9399
30.3257
27.7946
25.3989
20.8685
18.422
17.2737
17.1845
16.6665
15.8572
14.89
14.1207
13.603
12.5373
14.2465
29.737
24.8517
29.924
31.5459
31.5393
27.3189
27.6184
27.9898
28.3363
25.6612
21.4449
17.4384
15.6465
15.6677
15.6619
15.4506
14.9747
14.6697
13.5246
19.6585
22.5016
20.7254
24.4638
22.6389
24.3836
26.0952
29.0483
30.5309
29.984
28.9845
26.7263
23.4789
16.4487
12.3322
13.0718
14.349
14.5817
14.6637
13.611
32.945
35.1586
20.4384
20.0829
19.1441
24.9269
21.9197
23.4622
26.2789
26.3619
25.3682
23.2626
19.9948
15.2733
14.8949
15.006
15.1129
14.651
14.4429
13.5809
44.7059
42.6239
33.8405
34.4168
24.9259
21.2634
21.1501
22.5193
23.9311
23.5834
21.3095
19.202
16.8381
14.1045
13.931
15.8437
15.4248
14.871
14.5437
13.5842
21.5449
50.1052
45.4345
43.4062
32.9845
24.9251
20.6844
19.4112
19.6331
19.6656
18.3006
16.6933
15.6255
14.3911
14.1851
15.2983
14.9258
14.5008
14.2307
13.4753
35.4848
48.7892
32.24
31.1129
23.6388
21.2542
17.8209
15.7092
14.4717
16.1846
14.3985
11.7009
10.1586
9.56563
10.1344
12.1188
12.5329
12.6395
12.6328
12.6005
14.653
47.0032
31.814
24.6219
19.0033
16.8134
17.9802
20.1219
18.6433
16.0022
15.8748
13.7483
13.2918
12.2013
12.5768
14.1593
13.4388
12.9391
12.5172
12.1177
25.4013
48.94
28.3058
25.5662
21.1904
26.8374
22.5045
23.2709
21.8136
19.9399
17.519
15.1946
13.573
12.8852
14.9075
14.127
13.617
12.8073
12.4828
12.3002
55.9617
52.7971
39.5899
29.1176
22.6304
25.9084
28.087
27.4196
24.6913
20.7929
17.5915
15.5317
14.4375
13.7904
13.3058
12.8869
12.596
12.308
12.1909
12.071
18.1826
27.5666
31.5071
30.7998
27.0201
28.4616
25.2825
23.7258
21.2344
19.0734
17.0023
15.7867
14.6371
13.8488
13.0644
12.5487
12.0297
11.8193
11.6121
11.3858
13.9333
38.3173
51.707
41.032
29.9075
26.4805
20.0176
18.6974
17.689
17.1505
16.0214
15.294
14.3797
13.7944
13.1246
12.7309
12.3133
12.1549
11.9572
11.7261
13.607
29.9015
41.6424
38.4094
27.283
24.0532
20.1332
20.3065
17.1564
16.1239
15.5623
15.2938
14.5966
13.9773
13.4409
13.1506
12.9709
12.9251
12.9048
12.8645
19.6381
43.6845
37.7854
34.9934
27.2041
25.7117
21.0212
19.7572
18.3364
18.4273
17.5656
16.622
15.5208
14.7421
14.1621
13.8727
13.7285
13.7614
13.8031
13.9339
51.0424
39.9761
24.5484
27.5183
19.4898
19.259
16.0073
16.5126
16.9063
17.7085
17.4091
16.9038
16.0489
15.3445
14.6378
14.1906
13.8993
13.8101
13.8398
14.008
24.2066
16.3361
21.673
22.6174
15.9674
15.5956
9.60206
8.48781
6.35875
5.98655
5.14491
4.80528
4.31108
3.96571
3.58146
3.20346
2.78946
2.38874
2.231
1.92677
0.875027
10.3223
12.0495
14.7861
12.0839
15.2324
12.2335
12.9363
11.465
10.7747
9.34336
8.38776
7.40338
6.52769
5.32682
4.01046
2.94946
2.27263
1.95229
1.87343
17.2705
33.0412
35.2748
35.3891
33.0331
32.874
30.5331
30.6276
30.6743
31.3023
31.1004
30.7312
29.8499
28.2102
25.399
20.6904
18.0865
18.3731
19.0908
19.3824
12.1058
40.8132
43.2617
37.7165
37.2983
37.0759
32.3892
30.809
29.9842
31.0089
30.9086
30.7097
29.7459
28.3404
26.3917
24.1102
22.1289
21.0048
20.6837
20.034
39.2836
61.6467
57.0883
53.0369
48.5835
45.8613
40.1283
36.708
32.932
31.8306
30.7374
30.2122
29.1291
27.6466
25.7474
23.7383
22.1059
20.7622
19.7547
18.0986
31.2769
61.4665
54.9182
56.2814
52.0987
50.3388
46.2716
44.1411
39.8847
36.3966
32.6205
30.4467
28.6788
27.2969
25.5572
23.7286
22.0645
20.5824
19.4805
17.6946
28.0626
47.9256
41.7285
49.0734
50.4166
49.1322
45.516
45.4122
43.4874
40.8496
36.3598
32.0176
28.6643
26.8861
25.6936
24.2849
22.9916
21.6282
20.8517
18.9703
62.5172
53.1785
42.657
47.3363
45.1911
46.5979
47.0173
47.0298
45.1164
42.5447
39.2247
35.147
30.0319
25.7077
23.9705
23.7265
23.3566
22.2811
21.6903
19.9248
47.1199
45.5475
35.9029
41.843
42.9654
47.8605
43.6555
43.1966
42.1706
39.4219
36.6972
32.6053
28.3199
24.0886
23.9083
23.3266
22.7277
21.8429
21.3136
19.8457
26.1143
55.9079
50.3891
52.2933
45.5895
42.7942
41.6618
39.8746
37.8852
35.0909
31.8393
28.8607
25.9551
23.4085
22.0022
21.4604
21.3766
21.0631
20.6699
19.3375
34.0333
67.3858
65.7222
60.4028
49.7382
43.7778
39.0145
35.0249
32.3572
30.2591
26.7874
23.8467
22.8552
21.7598
20.4346
19.631
19.824
19.9346
19.7775
18.9713
23.2284
69.8008
55.7959
50.4865
43.709
40.2949
35.6292
31.3772
28.3852
29.1312
8.23396
6.78606
8.92245
12.3232
14.5754
16.5863
17.0403
17.6886
17.944
18.0166
41.2728
57.9433
48.4783
43.5907
40.0817
37.7711
38.0837
37.306
31.672
28.3487
26.0616
23.385
21.5708
19.6891
18.6912
18.5156
18.1286
17.6125
17.5196
17.5896
20.5975
61.4395
45.6476
44.0468
43.6002
47.5729
43.3922
40.436
35.9994
31.8806
28.0478
24.8524
22.4015
20.645
19.6165
19.1393
18.617
18.0692
17.9043
17.7563
39.6552
67.4427
52.9947
44.8712
43.0074
47.3241
45.9138
42.658
37.4612
32.3449
28.0207
25.0056
22.6704
20.9518
19.6868
18.8746
18.3334
17.9838
17.8356
17.5779
17.415
49.0226
48.3888
49.7916
46.6096
46.4282
42.203
37.9734
33.8218
30.2747
27.1519
24.7965
22.6638
21.0017
19.6116
18.7066
17.9746
17.5092
17.2775
17.0496
7.97661
53.8316
57.9284
57.9368
47.5003
41.817
35.6312
33.4959
30.8558
28.5444
25.9695
24.02
22.1669
20.8451
19.6581
18.9307
18.3155
17.9383
17.6845
17.5226
10.206
47.7427
55.827
54.2626
43.4539
39.3898
34.519
32.7046
29.1481
27.3336
25.372
23.7202
22.0644
20.9272
20.0378
19.5736
19.2496
19.1145
19.0647
19.0068
55.2963
56.4181
55.952
51.5246
42.2891
38.5965
33.7187
31.6466
29.5065
28.1575
26.1884
24.4575
22.7614
21.5756
20.687
20.2436
20.0142
19.9889
20.0248
20.2503
72.2645
51.0654
41.5207
38.9875
31.5018
29.1934
26.7299
26.7099
25.9372
25.623
24.4088
23.3839
22.0547
21.03
20.0481
19.4479
19.0261
18.855
18.8324
18.9904
28.4152
32.6443
25.2288
26.4624
18.4467
18.4991
13.2284
12.1298
8.80873
8.01085
6.79332
6.23089
5.49655
4.95471
4.41871
3.93011
3.52655
3.11919
2.96649
2.56906
2.79008
26.0835
17.8438
19.5201
16.1702
17.7675
15.2153
14.8968
12.8845
11.1931
9.68149
8.39614
7.33441
6.27814
5.21376
4.09402
3.25522
2.79663
2.62348
2.41603
38.8623
37.4568
49.8872
46.3273
45.1268
43.1259
40.8626
40.2615
38.9908
37.9305
36.0691
33.0499
30.6256
27.2331
24.4131
22.0914
20.8791
19.8404
19.201
18.7936
32.1573
56.3466
59.5523
54.5198
50.7755
47.9752
43.88
42.6419
40.9399
38.8924
38.0951
34.6776
32.878
29.8973
27.7182
25.9779
24.5861
23.1831
21.6281
20.3211
53.8685
68.3975
66.639
63.5088
58.5269
54.0317
48.3091
45.5497
42.247
40.2371
37.9649
34.7843
32.7572
29.8064
27.4759
25.25
23.3986
21.5737
19.7705
18.2036
31.0715
68.6413
69.971
68.3451
63.2568
59.664
54.8577
51.26
46.5094
42.4391
38.638
35.3979
32.5653
29.7735
27.1726
24.746
22.7299
20.9236
19.4061
17.7855
34.4445
63.5541
63.5843
67.624
64.5505
62.6654
57.9791
55.1985
51.1836
44.4761
40.493
35.7056
32.7554
30.1516
28.1401
25.772
23.9075
22.2038
20.9383
19.2066
99.2095
67.0618
65.3973
65.1799
62.3842
61.5635
58.7885
56.1691
51.7826
47.2309
42.325
37.5619
32.8806
29.9758
27.663
25.6409
24.3771
23.1625
21.8106
20.1318
61.2622
62.5473
59.274
61.6861
61.0381
62.1141
57.4997
53.0185
48.9518
44.1048
39.9413
35.3546
31.642
28.5607
25.4247
24.6471
23.9069
22.9608
21.614
20.0239
15.7191
69.567
68.5716
65.7861
59.9537
56.9877
54.3481
47.7551
42.5231
37.698
33.747
30.2408
27.4359
25.1901
22.4958
21.4924
21.9239
21.793
21.0167
19.5313
32.4704
76.7147
76.9465
69.818
61.4319
55.4483
49.6672
41.6775
35.9149
31.9949
27.8986
24.6079
23.1308
21.9869
20.3738
20.0535
20.6788
20.9041
20.1936
19.1479
58.25
81.4071
71.6505
63.0317
57.8147
52.8163
47.1637
40.5508
35.2916
31.1983
13.866
11.2314
13.4658
15.7473
17.2151
18.7665
18.8804
18.9974
18.584
18.5267
15.7754
57.5836
66.5941
60.9402
58.1968
54.5324
51.8787
46.0702
38.9012
33.8394
28.8911
24.9714
22.0521
20.1077
19.0341
19.1291
19.2409
18.79
18.2008
18.385
60.6783
67.8684
64.6094
61.2233
61.0094
60.4732
55.0838
48.1964
42.325
36.4227
31.3764
26.8694
23.3527
20.9418
19.1301
19.249
19.2539
19.1064
18.8886
18.8632
67.5402
79.4867
67.6905
61.8668
60.5177
60.8435
55.2159
48.9644
42.3028
36.2726
31.0788
27.2024
24.0349
21.7892
20.3517
19.5572
19.074
18.7175
18.6142
18.434
52.0568
60.8873
64.955
64.9669
61.7368
57.1888
50.6565
43.7157
38.6475
33.8847
30.0418
26.7483
24.1001
21.9728
20.3818
19.3574
18.5966
18.0877
17.9126
17.6873
21.1171
68.8073
69.7263
67.8809
59.5879
52.4142
45.5641
40.5284
36.0234
32.074
28.6388
25.815
23.5474
21.8061
20.4161
19.5841
18.9015
18.4573
18.2933
18.0884
21.8234
65.6795
65.1338
63.7802
55.1968
49.3665
43.2139
38.645
34.2277
30.8459
27.722
25.116
23.1309
21.803
20.8233
20.3263
20.01
19.7828
19.7516
19.7566
60.3235
65.9043
66.0326
60.4968
51.4041
45.2962
39.9342
36.5579
33.206
30.5884
27.8823
25.5777
23.7028
22.4249
21.5128
21.1266
20.9505
20.8774
20.9699
21.3156
26.4606
63.6184
54.3823
41.3172
36.2724
32.355
30.4019
29.834
28.213
27.5075
25.9567
24.561
23.0699
21.3368
20.4188
19.7021
19.3972
19.2175
18.7799
18.7552
14.2348
25.5161
24.4879
24.4657
18.5004
18.3009
13.3236
11.9832
9.26232
8.2206
6.93668
6.14545
5.36354
4.78775
4.26364
3.82181
3.48416
3.14355
2.99591
2.61778
4.57255
12.1725
7.36
19.9827
7.72507
16.1773
7.10979
7.69261
5.31482
4.60922
3.68698
3.13325
2.68568
2.26123
1.94001
1.65533
1.49059
1.31195
1.18165
1.00251
36.2075
50.3243
42.9151
53.1454
30.8515
45.5014
26.6879
29.4714
23.4738
23.2061
20.3108
18.9234
17.2337
15.7526
14.8953
14.4668
13.995
13.3576
12.7494
11.8985
86.4436
77.7769
61.0722
65.4361
37.2669
41.085
28.5969
31.0096
25.0653
24.583
21.5599
20.1537
18.3025
16.9537
15.9848
15.5078
15.0713
14.5925
13.934
12.5579
40.2356
71.7318
51.2667
61.48
35.166
40.5636
28.8008
31.0293
25.1575
24.2965
21.2445
19.3204
17.3534
15.8044
14.6978
13.922
13.1046
12.4453
11.8846
10.8277
43.9149
73.7531
63.9658
73.6756
42.8815
61.5523
34.6326
36.8557
27.5227
25.7513
21.9944
19.9081
17.6505
16.114
14.6934
13.5551
12.6302
12.0355
11.6006
10.6222
32.0784
69.7399
58.4648
75.778
40.6007
51.9983
36.1004
36.47
29.5246
25.9279
22.3602
19.9398
18.0481
16.3172
15.0849
14.1358
13.264
12.6754
12.2676
11.1528
113.283
75.3917
54.1523
73.1647
41.5877
66.3185
41.0307
41.7173
32.5139
29.0981
24.5252
21.8259
19.5868
18.313
16.5891
14.9575
13.9468
13.3623
13.0394
11.8496
98.313
85.2986
59.9077
65.4046
37.0468
44.9372
56.8075
50.3186
45.9046
38.6339
34.4706
29.8352
27.1136
24.6735
15.9939
14.8752
13.9584
13.3878
13.0191
11.8485
68.0815
74.7891
71.3595
62.329
53.0313
59.4701
54.0519
44.5699
38.2288
33.0332
28.9403
25.6355
23.4476
21.8518
20.5077
14.7788
13.8103
13.1336
12.8085
11.6925
48.1631
80.5043
75.4693
73.6733
41.8418
54.9782
47.4796
36.2832
30.4613
26.5016
23.0383
20.3194
19.518
19.6475
19.6367
14.7319
13.7287
13.1481
12.8871
11.826
67.6995
55.3741
77.2429
58.6324
61.5008
55.216
47.6792
37.4081
30.5565
25.6348
20.6103
17.017
16.2124
17.815
18.9026
14.3454
13.3402
12.9364
12.8556
11.9389
14.0085
59.2865
49.7681
68.4787
45.668
59.4251
52.4406
43.5957
35.4148
28.5725
23.0676
19.8051
18.8689
18.9079
19.0354
14.1403
13.1171
12.7643
12.8502
12.028
38.5228
56.6756
57.3929
69.7713
64.2671
62.5161
55.0924
47.1948
39.5551
33.0346
27.1751
23.0794
20.4767
19.127
14.2915
13.2119
12.8009
12.7449
12.9666
12.043
47.533
72.9047
64.3051
71.6725
54.0279
62.6564
39.9694
43.06
29.5741
26.3815
19.8324
17.3018
14.8329
13.7959
12.8967
12.7506
12.4236
12.4454
12.7376
11.7749
86.6333
77.8105
74.1523
73.8686
65.3943
58.6824
45.7419
40.0559
30.8678
28.624
20.4724
17.8572
15.1395
13.9821
13.1121
12.6474
12.2552
12.2054
12.5803
11.5478
40.5058
66.5237
70.8039
72.3596
54.4199
53.1212
35.2237
36.2909
24.1498
23.711
18.2007
17.0114
14.7417
13.9959
13.0908
12.8512
12.4571
12.5284
12.9128
11.8813
45.2029
62.2036
52.3393
69.4839
57.2381
50.1414
41.0476
35.0358
26.083
25.669
18.6873
17.5057
15.2977
14.7878
14.0241
13.8693
13.5161
13.6411
14.1145
13.0028
32.0788
56.5653
57.9019
60.8946
48.5891
42.9564
32.964
33.499
24.1767
24.2725
18.8845
17.7051
15.8196
15.3491
14.6787
14.6634
14.3466
14.5753
15.05
14.1932
75.7484
32.168
45.3532
26.0149
34.1116
31.6732
26.1496
27.708
20.8873
21.1754
17.6399
16.3086
14.7189
13.8977
13.2409
12.9598
12.6629
12.7669
12.9756
12.6393
47.2176
16.299
19.8703
20.9338
8.12915
8.75924
5.08388
4.68897
3.53264
3.14496
2.57921
2.25607
1.93676
1.72218
1.52127
1.37142
1.23724
1.13995
1.07337
0.997539
27.8675
28.1713
9.87914
32.2961
29.3005
30.3664
9.7618
24.3509
8.68772
7.56153
28.0518
25.3352
8.49006
7.88314
9.44458
27.675
26.2612
31.3662
8.39678
32.7187
29.2987
6.85402
25.349
22.9993
7.32587
6.96519
28.0479
24.9782
0.351436
0.46221
0.267012
13.645
16.4309
14.5381
15.2209
0.303217
0.266758
0.278679
17.0637
18.5491
15.4022
16.1016
0.329255
0.279935
0.288876
18.8711
19.0664
16.2936
16.6515
0.304074
0.288475
0.269544
18.8401
17.4237
16.5214
15.5984
0.24999
0.258319
0.228477
16.8938
15.6033
15.2297
14.1943
0.203721
0.22013
0.20271
15.1573
13.7923
13.9243
13.1602
0.15355
0.195203
0.172132
13.1917
11.4153
12.8508
11.8901
0.104139
0.163132
0.115713
10.691
9.91384
11.4788
11.2081
0.243803
0.408601
0.216787
13.7566
14.5505
12.7716
12.7769
0.258268
0.190353
0.172849
14.5729
15.0061
12.0413
11.2946
0.257319
0.18
0.205714
15.189
15.4789
11.6221
12.991
0.241494
0.204857
0.17682
15.398
14.7246
13.063
12.4026
0.213194
0.166084
0.14894
14.4151
13.4898
11.8026
10.3482
0.193459
0.144657
0.135975
13.2515
12.6462
9.97708
9.23046
0.168929
0.132759
0.124524
12.4027
11.6587
9.07131
8.80256
0.113873
0.121868
0.0907175
11.3301
11.1633
8.72859
8.97475
0.218472
0.444552
0.261789
11.6003
11.7628
11.9254
14.1884
0.156247
0.242144
0.204902
11.3057
10.5101
14.5839
14.045
0.193487
0.195918
0.167993
10.6526
12.1174
13.4041
11.6969
0.171928
0.173746
0.200154
12.4702
11.9804
11.8476
12.4575
0.135153
0.195193
0.139339
11.421
10.0105
11.9165
10.297
0.117232
0.130935
0.118391
9.65242
8.74662
10.1651
9.93191
0.105395
0.115031
0.10063
8.48935
7.93838
9.77339
9.00673
0.0810013
0.0956712
0.0669143
7.80664
8.07914
8.71644
8.48769
0.25693
0.449901
0.330908
10.5552
14.13
10.8178
14.1075
0.214398
0.319596
0.289763
14.8178
15.018
14.8447
15.4726
0.174528
0.283245
0.235937
14.4828
12.3971
15.2074
13.8244
0.198153
0.216432
0.195974
12.3469
12.9842
13.5357
13.1882
0.155401
0.195821
0.186818
12.5126
10.6224
12.8717
11.2458
0.130168
0.175488
0.156396
10.4146
10.2668
10.7425
9.93085
0.11266
0.149236
0.134192
10.1279
9.52911
9.76052
9.45434
0.0725942
0.128439
0.0938418
9.26327
9.00029
9.30122
9.81839
22.1538
21.1291
20.4835
34.8978
36.7243
35.9687
33.8309
23.6515
20.4519
20.8215
36.3638
35.623
33.1253
31.7365
23.8992
20.9842
21.1888
35.3685
33.9113
31.4384
30.3565
21.8892
20.9634
19.7507
33.2092
30.8727
29.7967
27.8846
19.7426
19.2808
17.9677
30.1494
28.0539
27.1743
25.2669
17.5224
17.6181
16.6275
27.3148
25.1958
24.7568
23.44
14.8119
16.2519
15.1006
24.4181
22.3432
23.0032
21.7047
12.5944
14.6439
13.7002
21.7168
20.6493
21.2575
20.343
19.6126
19.5751
17.2666
34.6624
32.6258
32.719
29.3594
19.4781
16.3393
15.1897
31.806
30.271
28.1591
26.1543
19.8107
15.4453
16.7641
29.9864
28.9508
26.0377
25.9816
18.7352
16.8921
15.6624
28.5139
26.5457
26.0855
15.6352
17.0232
14.7569
12.4758
25.6381
23.4118
13.771
10.6324
15.9099
11.9324
10.956
22.9122
22.0575
10.1988
10.5318
14.7567
10.823
10.77
21.8084
20.9809
11.1282
13.3121
13.6221
10.7717
10.6787
20.6494
20.0525
13.9202
14.9771
16.3186
18.7707
19.4867
31.6257
28.8659
33.4262
33.2915
14.459
19.6734
18.3705
27.8798
25.6236
32.6406
29.0386
15.7799
17.469
15.3017
25.2946
25.1451
27.6315
25.0546
15.2383
15.3974
15.8865
25.9401
15.5685
24.9906
24.2491
12.2388
15.3118
13.6413
13.7285
10.5227
23.4639
21.3935
10.4465
13.4627
13.0335
9.96289
9.5941
20.9278
19.6406
9.64788
12.7957
11.8269
9.97931
11.4687
19.1796
17.7621
9.58359
11.4835
10.5529
11.9458
13.3312
17.3101
16.3922
19.6408
17.3209
20.2269
32.8139
34.1668
34.2548
36.1107
19.4685
20.6923
20.5944
33.7461
30.3284
35.6245
32.6176
16.0889
19.9979
18.014
28.8736
25.9194
31.3396
28.4327
16.4073
17.6328
16.9687
25.6821
24.8088
27.7771
25.8976
13.9689
16.4887
14.6134
24.0623
22.06
25.0527
22.8291
13.4777
14.0922
13.2008
21.6667
20.6406
22.2352
20.9459
12.5108
12.9995
12.5604
20.2396
18.9455
20.533
19.5352
11.1414
12.3867
12.2702
18.5199
17.3254
19.2034
18.7104
40.4912
40.1386
37.2784
48.308
48.1593
49.0238
43.9715
38.3659
36.3397
34.2541
46.735
43.1746
42.2926
38.2476
35.9063
33.747
32.1318
42.1269
38.8155
37.1736
34.2161
32.5993
31.4648
29.3437
37.7119
34.8089
33.3098
30.7493
29.6273
28.5647
26.5153
33.9217
31.3774
29.8558
27.5377
26.7106
25.9754
24.6197
30.5461
28.3917
26.9197
25.3735
23.9861
24.1817
22.888
27.7057
25.9508
24.907
23.6129
22.2536
22.4555
21.4162
25.4199
24.2122
23.2133
22.0622
36.054
36.8758
32.8277
47.8706
42.7856
45.8599
40.5919
32.8543
31.5587
29.247
41.076
37.0225
38.9816
35.3558
30.8118
28.957
28.2155
35.9393
33.1273
34.4426
31.8631
28.959
29.5764
29.1754
31.4537
28.1104
30.6452
30.3922
21.1309
25.7948
22.8417
27.4815
21.4303
26.4163
22.5139
23.0779
7.43158
9.25239
24.7897
23.8695
8.18632
11.3683
22.0731
10.3865
13.6244
23.5959
22.7396
12.6529
15.6462
21.0693
14.4389
15.7294
22.4476
21.6725
16.3312
17.3241
32.461
38.165
36.9854
45.0203
40.6382
48.3447
44.9708
28.8385
36.0479
31.9049
39.1863
35.5471
43.3472
38.279
27.5631
30.4533
27.8629
34.5864
32.0081
36.7869
33.5627
23.981
16.9767
27.6835
25.6683
25.0349
3.45516
29.5474
15.0464
7.49555
18.1823
2.02867
16.8398
1.91584
16.1504
8.05867
22.416
20.8783
7.35743
10.3443
24.1572
22.081
11.6135
20.369
18.8647
11.512
14.175
21.4718
19.8946
14.0249
18.401
17.4147
14.8044
16.1511
19.4597
18.6258
38.068
40.1989
40.2499
49.1689
46.3988
51.7783
48.6444
33.1949
39.3705
35.604
44.7727
39.4577
46.8967
41.8358
28.7113
34.2296
31.1549
37.8769
34.3778
40.3309
36.5865
26.902
30.4039
28.1272
33.4201
30.1723
35.4196
31.9679
23.8813
27.2011
24.8445
29.0269
26.1308
30.7917
27.7718
22.0445
24.2047
22.6435
25.3382
23.2245
26.8545
24.4672
20.1369
22.1472
20.8877
22.5846
20.9663
23.7333
21.9237
18.3681
20.4983
19.7077
20.5229
19.3399
21.4332
20.2461
49.4114
50.6141
44.7772
52.7985
48.7571
51.1382
42.1541
43.702
42.8688
38.3344
46.617
41.7566
39.8344
34.8127
38.8664
37.1323
33.924
40.2854
36.1362
33.5203
30.3781
34.6783
32.9786
30.3581
34.9114
31.7297
29.4773
26.8247
31.0881
29.4598
27.1059
30.6793
27.906
25.9624
23.6682
28.1045
26.4604
24.8094
27.0897
25.2041
22.9812
21.4326
25.7209
24.3351
23.0863
24.5831
23.1216
21.1578
20.5845
24.0191
22.7131
21.6831
22.6502
21.512
20.4013
19.6871
43.6088
47.9154
41.9391
49.8635
40.9175
49.175
40.7966
37.1255
40.1655
36.0226
38.5985
33.5564
38.5572
33.2466
32.8705
34.9066
31.8801
32.2696
29.4512
31.8905
28.5208
29.0761
30.568
16.5855
28.5718
25.9038
27.4456
23.0857
25.1929
14.4343
11.8186
24.9956
22.6297
21.3624
18.0131
23.4626
11.7414
13.4673
21.9803
20.4442
17.4153
16.4478
22.2592
14.3221
16.4207
20.2412
20.0347
16.4698
17.5174
21.314
16.9228
17.6958
19.9556
19.535
17.8293
18.2455
42.1639
50.8827
46.4458
49.1746
41.7431
53.2405
46.4737
36.4358
44.6543
39.3652
39.6098
34.1787
44.2758
38.1935
32.1667
37.8197
34.1619
32.7356
28.9124
36.336
31.5411
15.8903
33.0766
29.244
27.7415
23.1015
30.0144
25.7936
11.3583
27.9467
24.7822
21.371
18.0204
24.5878
21.716
12.7378
23.934
21.7479
17.3664
16.1816
20.8805
18.9137
15.2829
21.0957
19.5809
16.1386
17.0938
18.6773
18.5814
16.7621
19.2219
18.6621
17.4113
17.951
18.5972
18.5231
47.9003
54.4374
50.0623
54.5003
47.8687
56.8521
50.2379
40.5176
48.1531
42.8923
45.6488
39.4111
48.0952
42.272
35.0073
41.3378
37.2599
37.5212
32.4872
40.4261
35.2984
30.1135
35.9532
32.1655
30.9098
26.4987
33.708
29.2083
25.8209
30.9101
27.629
25.2359
22.2076
27.7808
24.3128
22.7027
26.6338
24.0827
21.3459
19.5703
23.3747
21.1847
20.489
23.3215
21.5092
19.321
19.0118
20.5914
19.467
19.259
21.0208
19.9512
18.9597
18.6983
19.1928
18.4614
46.8034
49.0047
39.6932
28.657
22.1009
24.9317
19.6875
39.7197
37.5141
32.8723
20.9863
17.4692
18.9744
17.2396
34.2279
31.6602
28.4193
17.4171
16.115
16.7867
14.171
29.962
27.4604
24.7797
15.8429
14.477
13.5146
12.2688
26.3746
23.9661
21.9013
14.6242
14.0654
11.9886
11.791
23.9915
21.3536
20.4666
14.2132
13.7676
12.0477
14.6871
22.2348
20.3608
20.1059
14.0447
13.882
14.7527
14.908
20.9588
19.9826
19.4081
14.0451
13.038
14.9524
15.3162
38.4328
47.2246
38.4491
24.524
19.0675
21.0324
19.0848
31.6736
36.2868
31.2006
18.5441
17.1074
18.8096
16.8872
27.4064
29.7932
26.4286
16.2006
13.4799
15.5299
12.5394
23.8793
25.4216
21.96
12.8469
11.5009
11.8623
10.2888
20.8988
20.6181
17.7292
11.2017
10.862
9.96466
9.37725
19.4947
17.0795
16.209
11.1048
13.9551
9.49762
12.5409
19.678
16.4723
17.8005
14.973
15.1344
14.4795
15.7771
19.3183
18.1052
18.4312
15.1113
14.5046
15.808
15.7504
39.5387
51.8715
44.4742
30.8797
20.573
32.1092
23.5724
32.0703
42.2589
36.1136
19.7367
17.2354
22.4898
19.6792
26.7696
34.2249
29.2081
15.8087
12.6791
18.369
14.4922
21.9456
27.6653
23.5067
11.9485
10.3086
13.5851
11.8528
17.7235
22.4014
19.8613
9.96114
9.33604
11.5388
11.1463
16.0001
19.1607
18.2316
9.4779
12.6265
11.4814
14.9459
17.501
18.2539
18.5973
14.6236
15.9794
16.2781
16.2981
18.2303
18.6656
18.6084
15.9363
15.1567
16.2888
16.1713
45.7673
54.7505
48.5087
29.7924
24.1323
23.8596
27.2419
37.335
46.3744
40.3095
23.1662
20.2405
26.7151
22.7111
30.1889
38.4159
33.2987
19.6004
15.5851
21.4461
19.7344
24.2228
31.7393
27.3518
14.6845
12.9945
18.7633
17.144
20.4471
26.0346
22.981
12.723
12.398
16.8361
16.576
18.9293
22.1614
20.3944
12.7932
16.3574
16.249
15.9924
18.912
19.9377
19.1189
16.389
16.3737
15.9358
15.9357
18.7011
18.8873
18.2538
16.3637
15.8792
15.6778
14.9648
26.6159
28.7866
24.6174
28.6765
26.5423
29.7388
24.3524
22.5653
28.2065
18.2754
25.8282
25.0925
29.1259
4.64815
14.576
16.6685
12.2523
2.3985
19.8781
12.0227
2.88168
29.612
32.1243
31.3967
31.4198
31.2417
31.1287
30.1276
27.1751
29.1403
30.4141
25.9615
30.27
24.7995
28.2401
22.9831
25.9659
30.6599
18.7291
29.938
4.66782
27.0442
15.1416
2.65025
17.5394
12.4316
12.4499
2.95238
21.1802
20.1847
25.005
19.8962
24.9011
20.4828
25.5812
19.7531
10.3116
14.7253
7.77633
2.03899
13.4109
10.9876
1.81893
9.72541
12.347
7.29505
4.08821
12.5879
10.6429
3.14983
21.4811
27.8888
26.9425
23.9797
26.7846
22.902
22.4772
20.5214
25.2149
26.0699
20.8628
25.9222
20.07
21.5155
10.6579
2.45101
15.4798
7.69
11.4064
2.31254
14.185
10.0939
4.11268
13.3431
7.49138
10.9682
3.1302
13.4338
20.0097
11.637
19.806
2.38677
22.0681
2.9442
17.6441
28.7727
27.4334
27.4847
29.9407
27.0415
29.6729
29.4901
27.2156
24.7104
27.0212
27.7899
25.9965
25.6343
28.7596
24.8004
25.8921
17.2798
31.614
3.74664
30.8488
27.9313
20.3661
2.69629
10.694
20.6692
3.02605
17.8182
23.6545
30.0679
31.6583
32.2033
31.7452
31.3036
30.9374
30.8919
28.1985
28.8027
27.1391
30.5746
26.4173
29.9572
28.9859
14.4878
6.56755
14.9043
3.07478
15.794
2.2739
13.4489
23.087
23.4788
24.4468
26.7399
22.3902
24.2583
25.7422
22.1598
20.6746
23.6682
24.1105
21.4989
21.2312
24.8782
15.1406
2.49951
6.77392
18.7114
2.41932
16.2394
17.3317
14.5941
3.32782
6.23046
15.453
2.60144
13.5478
16.3019
23.6784
27.6392
25.572
26.9028
24.9255
26.5628
24.254
22.69
24.7601
22.1591
25.8906
21.6942
25.6174
23.1665
0.961314
1.06716
0.962665
6.94694
8.80456
7.13274
9.49126
0.940372
0.963465
0.98089
11.5526
13.5604
11.4645
13.1209
1.02223
0.988998
1.02075
14.806
15.3625
14.0398
14.3684
0.994603
1.01293
0.980739
15.3372
15.0528
14.2539
13.8518
0.94394
0.911075
0.859778
14.807
14.5594
13.3319
12.9084
0.836344
0.787356
0.728785
13.8781
13.1381
12.2582
11.7389
0.699043
0.648709
0.57926
11.9122
10.7427
10.8046
10.0416
0.527519
0.517907
0.377457
8.40998
7.39143
8.27239
9.11469
1.16371
2.21147
1.53933
8.631
9.87704
8.50107
11.2137
3.3059
0.434702
0.412949
2.78101
3.44102
2.47723
0.317172
5.46324
0.305349
0.269384
5.5758
5.97464
5.1911
0.27432
6.01815
0.316637
0.303267
6.66131
6.76709
5.86954
0.316758
6.13391
0.32355
0.33068
6.6571
6.52314
6.18279
0.325701
5.52684
0.274034
0.286586
5.75681
5.58165
5.66004
0.273431
5.01028
0.225599
0.237006
5.05427
4.93933
5.12132
0.227696
4.45018
0.177462
0.197974
4.23342
4.01418
4.58819
0.187311
3.64748
0.132298
0.150001
2.97564
2.80272
3.77687
0.139197
0.342424
0.458105
0.341711
6.94159
7.6341
8.09677
10.3196
1.27464
1.84734
1.23738
8.73753
10.7255
8.53249
10.2741
3.30069
0.320957
0.409672
2.90141
3.3873
2.727
0.319776
4.46188
0.247684
0.231334
4.57833
4.81163
4.29922
0.229736
4.8257
0.260209
0.239018
5.05414
5.10105
4.76524
0.239187
4.72291
0.251708
0.226395
5.1213
5.08816
4.75662
0.220169
4.51899
0.227542
0.207549
4.89999
4.81926
4.57244
0.203229
4.29804
0.202415
0.189356
4.60458
4.55876
4.33612
0.186116
4.09324
0.182495
0.174197
4.36616
4.29928
4.13968
0.170388
3.80925
0.152469
0.154552
3.96973
3.92576
3.84242
0.147129
0.347071
0.405205
0.312665
8.2322
10.8358
7.42708
9.68652
1.31217
2.29255
1.37293
7.78056
8.98826
7.51734
8.46142
2.71296
0.317471
0.432614
2.43366
2.77158
2.3608
0.31916
3.10801
0.166082
0.203051
2.97657
2.90554
3.14604
0.185079
3.18606
0.173021
0.151737
3.34935
3.70948
3.01533
0.155576
4.13379
0.194308
0.185813
4.2582
4.26138
3.9913
0.189607
3.34191
0.149592
0.156936
3.69454
3.55919
3.53457
0.145151
3.03355
0.12566
0.123379
3.29977
3.26755
3.07022
0.118691
2.77404
0.110492
0.105091
3.06739
3.00381
2.83833
0.101231
2.48292
0.100327
0.0919346
2.82423
2.76013
2.5615
0.088269
0.24939
0.262624
0.176149
6.01378
7.92324
5.7584
7.19304
1.13901
1.42564
1.18695
6.89962
7.4873
7.01603
8.00986
2.95139
0.338389
0.413153
2.66476
2.95666
2.61969
0.343637
4.72631
0.231377
0.248686
4.31687
4.67253
4.35005
0.239757
5.00845
0.198474
0.221346
5.00661
4.63632
5.29778
0.211995
4.52022
0.181923
0.177344
4.25169
4.53826
4.26461
0.180562
4.50983
0.192708
0.196366
4.63967
4.14689
4.79988
0.197648
3.38442
0.137687
0.15506
3.27196
3.24873
3.42594
0.147543
3.31429
0.122344
0.135849
3.15968
3.11823
3.3313
0.132812
3.05168
0.102697
0.118147
2.82903