/*--------------------------------*- C++ -*----------------------------------*\
  =========                 |
  \\      /  F ield         | OpenFOAM: The Open Source CFD Toolbox
   \\    /   O peration     | Website:  https://openfoam.org
    \\  /    A nd           | Version:  10
     \\/     M anipulation  |
\*---------------------------------------------------------------------------*/
FoamFile
{
    format      ascii;
    class       volScalarField;
    location    "7.2";
    object      omega_0;
}
// * * * * * * * * * * * * * * * * * * * * * * * * * * * * * * * * * * * * * //

dimensions      [0 0 -1 0 0 0 0];

internalField   nonuniform List<scalar> 
12920
(
12.0639
31.7989
55.5866
73.4573
78.241
79.2058
77.2831
76.441
76.2517
76.4473
75.9108
74.4683
74.4488
74.5796
73.3681
68.7548
65.3058
59.3996
50.2291
39.6169
276.635
230.683
148.08
109.319
103.035
98.9041
88.2511
82.0447
79.4899
78.9756
78.8139
78.8467
78.7012
77.8148
75.2165
69.2999
61.5418
54.1145
49.7004
48.7988
160.907
165.862
147.138
135.768
132.512
121.716
106.488
94.9224
85.4168
78.955
74.6855
71.9413
69.3134
66.5515
63.8206
60.8525
57.4038
53.2806
51.0307
47.5727
122.621
242.962
228.846
195.234
166.638
149.604
132.855
122.393
109.608
95.6207
83.4813
75.4697
70.3828
66.1829
61.9886
57.2559
53.252
49.3225
46.7167
41.9135
207.386
220.048
198.067
185.561
167.211
159.293
142.229
132.999
121.737
110.539
96.0047
83.0223
74.0073
67.6001
61.993
56.6458
52.3091
48.2908
46.1597
41.7144
123.833
145.584
166.004
175.102
173.534
164.325
145.46
131.088
121.379
114.833
106.449
94.5117
82.617
71.9296
63.8933
57.9115
53.837
50.9444
49.8884
47.2339
66.9696
155.12
156.762
156.4
145.38
131.219
118.217
114.748
114.992
116.47
118.212
117.548
113.107
98.4233
79.6564
65.377
57.7398
53.268
51.8009
48.9655
167.841
167.848
149.515
135.615
123.779
115.863
191.101
153.768
160.628
166.833
167.12
163.319
155.874
140.733
69.349
60.6189
55.6891
52.2469
51.0583
48.5904
220.655
237.029
212.763
177.606
132.704
167.321
276.2
232.543
241.589
254.176
241.991
220.225
197.965
170.84
101.681
60.0332
56.4051
53.674
52.6365
49.8808
147.188
225.66
227.871
221.086
188.525
251.62
295.165
205.492
209.961
211.753
211.789
203.669
196.153
182.397
108.428
61.8472
59.079
56.2026
54.7859
51.0828
460.752
319.177
223.898
175.023
139.043
197.658
275.866
195.64
180.28
192.171
171.864
157.344
151.012
148.755
90.4743
54.4559
54.0564
53.1743
52.0379
48.8895
191.514
270.558
254.15
204.554
163.217
242.684
354.449
270.683
248.934
215.475
213.791
170.601
157.669
146.88
91.8086
55.9176
54.4296
51.5675
49.5511
46.6475
340.739
318.608
216.653
165.475
132.701
120.356
191.73
166.207
156.216
145.382
136.721
122.982
107.668
96.2932
56.1096
52.6083
50.6749
47.6587
46.4393
44.7489
334.121
300.867
217.041
153.3
119.215
112.998
111.606
106.288
94.4591
82.2486
71.8454
62.9673
56.0795
50.9382
47.349
44.8601
43.9337
42.8522
42.5208
41.841
180.971
162.422
154.291
136.346
123.228
119.232
110.201
92.8882
79.2821
69.8525
63.4425
58.178
53.5528
49.5045
46.0849
43.3263
41.4177
40.0176
39.2284
38.548
163.498
203.35
200.598
167.667
138.178
126.322
111.108
93.1652
76.4411
65.4699
58.5452
54.0893
50.4336
47.6672
45.1716
43.1747
41.5187
40.307
39.3862
38.5844
117.767
196.108
188.828
164.137
134.033
122.041
110.764
99.1327
83.5338
69.9986
60.1229
53.9345
49.5483
46.6868
44.5547
43.1614
42.1709
41.5439
41.0704
40.6884
339.669
255.908
190.781
165.205
137.817
122.434
106.843
93.1768
80.0251
70.7764
63.2764
57.7227
52.9558
49.5233
46.9979
45.4792
44.5321
44.2455
44.225
44.3577
323.38
243.413
197.549
156.076
122.683
104.448
90.0574
81.6922
74.8179
70.8105
67.1704
63.7661
59.5204
55.648
52.204
49.9349
48.5451
47.8998
47.8611
47.9805
219.38
198.977
184.381
167.192
138.857
108.165
83.9636
70.7696
64.4512
61.4441
58.3211
55.2719
52.2753
49.5904
47.043
44.4218
41.9107
38.9486
37.6563
35.4054
6.11566
32.722
39.4464
44.4836
44.7138
46.1836
46.1518
46.3615
46.3814
46.1238
45.0065
43.5291
42.4459
41.5677
39.8049
36.6053
31.7866
26.2235
21.2883
19.0203
183.996
178.587
104.15
82.8889
75.8655
65.5469
58.9781
54.5594
51.8271
49.3725
47.65
45.9802
45.6244
46.0818
48.0004
49.2252
48.5512
42.6713
34.1825
28.2687
178.654
138.051
116.621
101.821
87.5781
73.899
67.2273
63.5631
58.9574
52.8341
47.5792
43.0087
39.3979
36.5549
35.2364
34.9
34.5619
33.238
30.3185
25.6903
96.723
159.455
147.432
111.556
87.1082
76.3519
69.5729
66.9348
63.8105
58.6964
52.461
45.0429
39.3101
35.093
32.3094
30.3987
28.8547
26.436
24.1996
21.0604
247.782
157.625
130.812
107.002
87.9797
80.326
73.0445
68.5632
63.8603
59.7474
56.0795
49.2148
42.6566
36.6256
32.2436
28.7764
26.4662
24.258
23.0742
20.9736
167.475
154.815
139.55
121.085
106.06
97.562
88.5371
78.136
68.7996
61.5723
57.9547
55.4782
51.5394
43.5434
35.6429
30.2889
27.2367
25.4787
24.9504
24.5061
248.681
177.344
132.785
108.684
91.4574
80.6193
68.59
61.9292
58.701
58.5091
59.0687
62.5283
65.2941
64.9056
56.5377
40.6586
32.1123
28.4398
27.1515
26.7742
280.082
193.733
139.941
111.077
86.575
67.4142
66.4244
56.5724
50.4455
49.1567
49.684
50.6697
53.646
55.0385
38.2894
31.9604
28.4814
26.8335
26.3023
26.0117
278.407
203.525
141.875
99.3037
76.5373
62.6555
61.3483
50.2046
41.9925
40.8888
40.7606
39.5917
38.4783
37.5312
32.409
27.5119
26.4539
25.9017
25.8219
25.6508
190.882
182.942
155.931
129.819
103.589
96.0087
68.1857
46.1568
39.2436
36.3158
36.2768
36.1733
35.2008
33.7516
30.4918
28.3022
27.953
27.5009
27.2936
26.5837
151.36
161.063
136.78
105.969
83.8675
78.9687
71.6351
63.1024
57.7835
42.4216
35.8463
33.7832
32.9701
32.7587
30.8616
29.2274
29.5153
29.5755
29.409
27.9358
109.466
151.405
150.318
142.358
113.111
105.147
90.1684
74.8947
69.848
61.4659
45.8026
37.368
31.6229
29.5195
27.6039
26.6794
28.0466
28.3668
28.2781
26.9894
202.163
161.546
125.537
105.173
86.4171
69.7142
68.6235
60.9556
54.7466
51.5234
48.4308
43.8442
37.1925
31.2656
24.619
24.1767
24.2793
24.3104
24.2689
23.7718
305.686
191.675
127.402
108.132
93.0599
79.5427
65.4305
52.894
45.8934
41.3618
37.0396
32.5487
28.2726
24.9881
22.9726
21.8479
21.4792
21.3398
21.3599
21.5329
162.286
131.97
103.434
97.6992
91.4982
77.1112
59.2895
45.5617
38.4985
34.2068
31.5062
28.7169
26.3038
24.1646
22.5544
21.272
20.5601
19.9521
19.7281
19.8366
241.466
181.801
113.205
87.648
83.8528
81.8392
73.563
55.7293
41.3206
33.3061
28.9988
26.2416
24.3182
22.8827
21.7753
20.8975
20.2851
19.7647
19.4508
19.4178
270.808
180.465
118.446
88.9268
80.7632
78.9105
71.845
59.8355
48.4516
38.079
30.5459
26.1049
23.5529
22.1837
21.2539
20.662
20.2582
20.0062
19.8304
19.8407
120.059
151.719
121.432
93.9452
78.034
69.2815
60.9651
51.4115
42.3798
35.3834
30.6205
27.6524
25.4205
23.9256
22.8349
22.1653
21.752
21.5448
21.5019
21.5479
379.987
196.818
126.361
88.8605
73.1195
60.3858
54.3386
47.493
41.566
37.9441
35.2898
33.4627
31.3441
29.5777
28.0061
26.9101
26.1799
25.6521
25.4489
25.1697
143.222
105.438
94.0111
84.5933
68.2723
54.5264
44.3255
38.7648
36.0719
34.991
33.6841
32.5934
31.2821
29.9262
28.5114
26.8987
25.1453
23.1783
22.3396
21.1103
27.3775
65.6798
61.8974
56.1973
53.6897
52.8319
52.5141
52.2362
51.6189
49.918
47.7371
45.5268
43.569
41.1282
37.6419
33.219
28.7483
24.8164
22.4872
21.8249
179.97
114.064
93.9834
76.1939
65.8908
56.7696
50.5895
47.9853
44.9874
43.351
41.7543
41.4673
41.5795
42.1139
42.3159
41.8294
39.2716
34.9091
32.0555
30.3974
166.686
167.438
126.134
101.545
80.5373
65.5204
56.169
52.1644
47.2862
43.4116
39.7086
37.2333
35.2645
34.2012
33.7018
33.2858
32.3996
30.6392
29.0007
26.6589
297.454
219.194
141.677
100.492
74.3055
62.4974
55.3111
52.2587
48.1957
44.3133
40.0203
36.3913
33.4434
31.223
29.614
28.2769
26.9965
25.4215
24.0822
22.523
170.721
147.982
109.942
84.3495
69.498
62.1532
56.2422
52.7329
48.7326
45.286
41.5811
37.6779
34.0122
30.8156
28.4295
26.5396
25.2193
24.0184
23.2766
22.2075
178.752
150.474
116.668
94.5083
78.6106
71.2205
63.0562
57.4576
52.0676
47.9791
44.9233
41.7967
37.8951
33.2863
29.5766
27.1266
25.7822
24.9694
24.6829
24.339
620.476
247.771
113.077
84.4636
68.8572
63.1964
54.6785
51.4133
49.3096
48.5687
48.2623
48.1694
47.183
43.2184
36.3634
30.8682
27.9996
26.7101
26.2899
26.138
196.505
170.295
118.785
85.3448
64.0606
54.0597
51.903
45.4688
43.4028
42.2171
42.3963
42.2941
42.2635
39.6305
31.2668
28.5046
26.9342
26.161
25.9406
25.7183
164.692
141.695
106.389
74.9231
56.3195
48.5248
48.2277
41.1873
36.9574
35.8518
35.0763
33.9387
32.6383
30.9446
28.7851
28.2533
26.9726
26.1811
25.933
25.4848
168.954
133.576
112.962
94.3468
72.5519
63.3478
48.1719
37.7953
34.078
32.2158
32.6872
32.8543
31.3241
30.0201
29.5774
30.8383
29.4975
28.1593
27.5143
26.2304
141.339
119.92
94.2382
74.2287
61.5714
57.8838
54.3458
49.0072
43.9363
33.6879
72.6455
61.2733
44.1995
35.4282
33.0808
33.8607
33.0231
31.2002
29.7603
27.3182
169.554
148.421
105.43
87.3572
73.2573
69.7273
64.0174
58.3789
54.9725
46.215
36.3185
30.9506
28.1002
27.279
28.1616
30.5162
30.3975
29.5128
28.501
26.6045
227.956
146.076
95.6948
75.9929
65.2922
55.6947
52.5294
48.5666
44.2266
41.4608
37.2511
33.1703
29.3782
26.9977
25.8433
25.0994
24.9459
24.7383
24.658
24.3595
180.855
154.399
105.237
88.8134
74.3419
61.1391
49.9687
41.435
37.1839
33.3817
30.1573
27.0208
24.6141
22.9531
22.093
21.7218
21.7128
21.8343
22.011
22.4016
143.731
141.901
104.788
83.7061
69.8966
56.4349
44.2647
36.4597
32.2754
29.1647
27.0635
25.0388
23.4162
22.1767
21.2985
20.7418
20.4737
20.4716
20.53
20.8509
93.4846
158.957
136.525
80.4721
67.1567
61.3141
50.6046
40.2755
32.4609
28.1067
25.4715
23.751
22.4885
21.6424
21.0016
20.6088
20.3459
20.3215
20.3381
20.5431
132.905
169.915
124.437
79.6641
66.178
60.9091
51.9539
43.517
35.507
30.0877
26.1359
23.972
22.5457
21.801
21.2772
21.0083
20.874
20.8939
20.9427
21.1711
258.128
169.612
108.315
76.3099
61.9354
53.1905
45.6782
39.6461
34.5144
31.214
28.373
26.5893
25.0527
24.1838
23.5555
23.2683
23.1306
23.1389
23.2005
23.4081
301.483
133.268
84.2559
63.2432
56.9136
49.434
44.6809
41.3205
38.2583
37.0097
35.2399
33.9431
32.0898
30.7419
29.5114
28.8174
28.3701
28.2188
28.1878
28.1175
183.045
103.658
95.4061
84.4505
69.5708
58.6445
50.5662
45.4089
42.1625
40.2071
38.4249
36.6943
34.824
32.9225
31.1515
29.314
27.836
26.1553
25.482
24.1053
57.5593
83.0212
74.6347
61.8398
59.5018
56.5367
55.9963
54.3209
52.5118
49.208
46.6724
43.7465
41.4136
38.2788
34.8964
30.7229
27.5462
25.6142
25.1069
24.6356
355.362
143.257
104.729
73.2168
65.3319
55.3769
52.5827
49.8152
48.0351
46.9713
46.2586
46.2184
46.1594
45.9195
45.2241
43.7764
42.1394
41.2643
41.3669
41.9072
244.543
210.097
160.679
109.882
81.1929
62.4903
55.1974
50.4217
47.1559
44.3472
42.1486
40.7968
39.8159
39.3213
38.9832
38.5327
38.017
37.375
36.7375
36.0492
201.019
166.695
138.217
93.6641
71.4237
57.9088
52.9301
48.6109
45.7993
42.8005
40.3594
38.2668
36.6606
35.382
34.4524
33.5779
33.079
32.5162
32.0234
31.9043
172.677
140.234
104.613
73.6594
66.3394
56.5858
53.1877
48.7101
45.8382
42.679
40.2037
37.7654
35.7871
34.1597
33.0894
32.2779
31.8705
31.5235
31.1786
31.2396
148.832
136.782
109.686
82.0822
72.7754
63.2726
57.8386
52.874
49.0843
45.2924
42.4949
39.5244
37.021
34.7535
33.3524
32.5194
32.2847
32.1494
31.9525
31.9092
400.943
209.023
109.213
73.2279
66.7703
59.0888
53.5954
50.534
48.9063
47.3201
46.0093
43.8285
41.3537
38.3464
35.862
34.2384
33.6441
33.4088
33.2357
33.2244
215.653
184.54
113.909
73.2277
61.6031
54.116
50.3894
45.4703
44.1867
42.4587
41.8611
40.3294
38.7998
36.4724
36.4421
34.7178
33.7612
33.2764
32.9808
32.8751
144.806
138.458
94.3728
64.2752
52.6854
47.0569
47.3356
41.8678
39.5776
38.4034
37.3211
36.3292
35.4041
34.6056
35.8723
37.2189
34.9768
33.7406
33.1121
32.862
118.017
122.207
102.38
74.5172
60.6063
51.9462
43.6226
39.0631
37.4523
36.3084
36.5524
36.6914
36.2693
36.6579
39.0055
40.4905
37.6015
35.5503
34.2823
33.4541
225.672
104.587
79.9226
61.7447
55.7862
51.4326
48.62
44.9392
41.1541
36.9926
59.2612
56.0315
45.3152
41.9948
43.0344
43.0718
39.8905
37.2001
35.4635
34.2445
136.773
144.943
88.917
66.1654
62.6048
59.0078
56.5603
53.0584
47.9797
41.868
37.016
34.9457
35.0584
36.6532
39.7794
40.2834
37.7272
35.8106
34.6487
33.8404
238.919
149.707
83.8892
63.149
60.3676
51.866
49.4235
46.1612
42.551
40.0267
36.8004
34.9766
33.8448
33.9766
34.9516
33.1918
32.4507
32.2558
32.2896
32.4359
214.804
153.455
100.593
72.9103
65.6089
53.1717
47.0828
40.1105
37.7138
34.0297
32.1654
29.9735
29.1864
28.6598
28.6906
28.7962
29.1084
29.7283
30.0717
30.7887
212.16
162.594
102.235
71.75
61.7617
48.3344
42.5597
36.2271
34.1692
31.4028
30.2525
28.8033
28.0826
27.6066
27.4539
27.543
27.7759
28.4095
28.7367
29.5293
111.822
167.792
155.858
82.7688
63.3869
51.3898
44.7801
37.3988
33.8829
30.8547
29.6314
28.4456
27.9507
27.5792
27.5779
27.6259
27.8323
28.348
28.6094
29.3297
116.156
170.155
136.76
75.759
61.6789
51.2226
46.0926
39.2914
35.4048
32.1276
30.4558
29.3313
28.8266
28.5095
28.4742
28.4953
28.6234
29.0074
29.2091
29.8337
158.786
150.93
111.853
68.9344
59.1555
47.9736
44.6544
40.0138
38.0269
35.8951
34.3482
33.0854
32.2779
31.837
31.7012
31.6727
31.7326
31.9569
32.1205
32.5234
199.499
113.2
73.2776
58.1485
57.2832
49.934
48.2133
46.1937
45.3529
44.8435
43.5986
42.3366
40.6597
39.6477
38.8701
38.5962
38.5095
38.5989
38.6553
38.8195
151.375
100.875
90.6859
77.8315
66.8416
58.0917
51.846
47.4409
44.4035
42.0815
39.8365
37.5217
35.2076
33.0382
31.1262
29.3855
28.1285
26.8035
26.2343
24.95
99.2976
82.5909
74.7084
63.4588
61.7903
57.1211
55.8071
51.3637
48.4699
43.6831
41.1387
37.7819
35.7287
32.7436
30.4427
28.0547
27.0358
26.1802
25.7852
24.6972
240.904
148.735
124.473
73.5401
82.9227
61.7664
71.4419
62.6873
68.5339
65.1244
68.3182
66.9848
67.5397
65.5074
64.5583
63.0948
63.7814
65.3693
67.0564
67.4063
366.656
230.302
179.557
105.623
96.392
66.6134
70.4969
60.1592
63.1401
58.4249
59.9933
57.7571
58.0714
56.2471
55.5891
54.3113
54.6414
55.1022
55.8772
55.8717
167.636
149.146
145.638
86.5083
86.0072
62.8182
67.5971
57.8271
60.3945
55.5108
56.3935
53.8898
53.7807
51.9558
51.2428
50.1661
50.4593
50.5111
50.8236
50.6442
187.578
140.465
120.045
71.0917
81.7247
59.3104
65.5142
55.1471
57.9048
52.7585
53.4562
50.9335
51.1754
49.9608
50.0506
49.6763
49.9041
49.8043
49.9298
49.7528
192.054
137.113
126.029
78.9424
89.5259
67.0692
71.0329
61.9848
61.8785
56.675
55.3742
51.9357
51.422
50.5005
50.4608
50.1697
50.4886
50.4194
50.5243
50.086
390.604
191.897
132.023
71.0058
86.2766
62.8913
65.5204
58.8938
60.521
57.2676
56.4555
53.1883
52.3078
51.0393
51.513
52.2339
52.5628
52.3689
52.2914
51.8835
441.448
245.493
141.704
73.3726
84.0928
66.3884
61.589
54.7729
54.5862
51.9224
51.5037
49.5026
49.4468
49.2621
54.487
52.3747
51.9185
51.6151
51.5315
51.0911
424.413
160.155
105.939
70.0314
64.0915
55.3858
58.5983
54.0112
53.4073
51.8455
51.1914
50.7536
51.1183
51.8099
55.1912
54.3133
52.2771
51.6808
51.5412
51.2227
224.344
148.637
115.724
71.1362
72.3636
57.819
53.8203
55.1599
55.1455
53.571
53.1846
54.1035
55.9098
56.5873
58.4092
56.6535
53.6916
52.4266
51.8955
51.3153
178.285
128.132
82.0681
67.6311
63.1887
55.2125
55.6941
56.6148
55.7119
52.8304
53.6468
55.6472
59.0592
59.6173
60.5942
57.8091
54.4003
53.0153
52.5098
52.0853
241.834
161.08
99.1458
67.8349
75.9616
65.0877
64.9464
61.4785
57.5183
54.8585
54.3847
55.6914
57.3973
58.3053
59.4665
56.0195
53.0976
52.0893
51.8194
51.7104
226.584
155.582
90.1204
66.7157
72.2826
57.544
57.7805
52.87
52.8258
50.2785
50.964
50.5587
51.8307
51.7746
52.1891
49.9816
49.4702
49.7891
50.0878
50.6065
261.918
159.606
117.188
73.6478
79.7866
58.6673
59.1351
50.138
50.7204
46.1497
47.2079
45.2469
46.2766
45.7829
46.2894
46.2014
46.7054
47.6124
48.0684
49.1137
542.274
193.231
120.235
71.4111
71.0873
51.383
55.35
45.7993
47.971
43.9851
45.585
44.0174
44.8408
44.2835
44.5079
44.7327
45.106
46.0436
46.3548
47.4363
206.075
239.709
193.942
89.0911
79.7267
55.4465
58.7466
47.7787
50.4595
45.3579
47.2023
44.8088
45.8413
44.8007
45.36
45.1019
45.4174
45.9639
46.1886
47.101
268.285
228.88
148.444
73.1773
72.8571
53.9577
59.2956
48.3258
51.6097
46.3792
48.3029
45.7745
46.6322
45.509
45.88
45.6456
45.873
46.3538
46.5213
47.3656
199.718
169.79
124.965
74.9472
78.4495
56.874
63.6768
53.3128
57.6519
52.1642
53.7913
50.7429
51.3745
49.9694
50.271
49.7522
49.9305
50.0547
50.1598
50.6196
258.468
150.288
84.5786
69.7032
76.2155
58.8928
71.7078
63.9904
69.9074
65.7249
67.1763
64.1185
64.018
62.2599
61.9953
61.2262
61.108
60.9559
60.8178
60.9976
163.929
99.2823
76.6475
66.5941
59.9988
54.0048
49.5397
45.7158
42.6376
39.5363
36.7237
33.9575
31.7125
29.7533
28.1271
26.7247
25.5483
24.5234
23.7361
23.1811
32.3419
33.5042
67.7354
34.5762
34.7676
35.3241
82.3904
32.9982
68.6704
60.9843
35.1477
35.4165
83.7506
71.1687
71.944
44.7174
36.5949
35.486
93.8946
40.6241
36.2374
65.4492
34.9139
31.3547
94.507
78.7355
35.3397
33.4957
235.768
254.078
205.864
73.2938
60.8332
68.6636
53.279
237.036
207.443
216.434
56.081
47.2395
49.9114
43.8928
253.011
217.813
225.658
46.2653
45.4459
42.8479
41.2807
247.381
227.383
226.65
45.5022
45.7451
41.2609
41.6987
225.768
223.673
213.41
45.7153
44.7687
41.7512
41.4381
204.482
210.23
202.826
44.3312
43.3524
41.1566
40.1723
178.089
199.371
187.594
43.126
42.7949
39.858
38.4658
148.045
182.717
153.268
42.6242
40.427
38.0446
34.788
207.724
306.869
212.013
82.7734
55.6673
87.3226
65.9044
209.632
195.168
181.639
51.606
44.9641
63.5447
58.3586
211.2
184.691
194.424
43.5223
40.8613
55.3304
45.2202
212.454
193.367
179.929
40.5529
40.6487
42.9081
38.8574
205.833
175.098
168.605
40.7355
40.6839
38.4672
37.5005
198.629
167.43
165.784
40.4947
39.6809
37.3105
37.0879
186.638
165.014
163.288
39.4319
38.2337
37.0887
37.1195
153.624
162.436
141.814
37.8084
34.6889
37.0929
35.2186
207.751
314.24
268.085
83.437
71.2323
96.2618
85.0419
178.942
263.137
247.746
69.9621
66.5362
82.0711
78.4592
192.186
240.703
212.51
63.6282
50.6962
77.4931
71.5841
178.313
211.287
210.309
46.8443
40.1892
66.7166
51.0043
159.658
203.076
166.779
39.2089
36.8686
48.258
41.9633
152.223
161.1
152.232
36.249
35.2709
39.7579
35.1029
149.164
150.072
141.834
35.2123
35.3382
34.2198
32.9487
134.955
139.285
118.257
35.4328
34.5573
32.7451
31.2791
279.004
358.664
285.855
109.644
87.4511
108.383
87.2168
253.897
275.489
254.6
83.2084
76.9861
81.6908
70.8618
218.176
252.088
233.409
75.8166
70.9978
68.475
64.0256
216.581
225.143
218.272
67.2094
53.704
62.3766
57.9137
178.274
217.823
208.423
51.0638
44.6556
56.7982
53.7129
160.494
199.787
183.465
42.236
36.6552
52.0534
45.9705
149.715
177.089
163.82
35.5806
33.4989
43.7759
38.0811
122.63
158.931
134.003
33.1695
31.2897
36.6631
31.6254
53.8461
58.8032
47.4355
50.2856
44.5766
47.7026
39.8638
42.8987
44.7548
39.5543
42.2255
37.7981
38.1768
34.8535
40.9648
38.5525
36.9332
37.2356
36.2993
34.181
32.9667
40.8613
36.8384
37.0369
36.1111
35.6548
32.8013
32.6263
39.9456
37.0722
36.8322
35.4689
34.6706
32.6333
32.4077
38.7324
36.6067
35.7709
34.3723
33.4644
32.2184
31.4039
37.9033
35.4841
34.2693
33.1268
32.0149
31.0985
30.0645
36.1629
33.8966
31.9612
31.4882
29.7452
29.7429
28.4369
49.22
73.3804
59.1689
51.7816
40.5136
57.0491
48.334
40.5889
57.3968
53.1328
38.7791
35.3069
47.1104
43.4442
36.6705
50.4081
41.048
34.4207
32.6277
41.5309
35.4032
36.2024
38.7748
35.4568
32.2744
32.222
33.7397
43.3593
36.3062
35.2631
34.9468
32.4654
32.735
44.8125
45.5483
35.453
34.8614
34.6329
32.6293
31.6416
44.6345
40.6285
34.1136
34.5162
34.0449
31.2743
30.1811
38.7489
34.3297
31.8935
33.9012
32.9729
29.8658
28.5654
33.3067
31.4032
64.0723
82.0545
76.136
57.3129
52.2789
65.703
61.6296
60.3164
74.0105
71.5884
51.4379
48.3118
60.6809
58.8682
46.0491
70.8959
65.2122
46.3364
38.7598
57.9485
51.3167
36.5778
60.4939
45.8004
35.5654
44.0576
47.5603
37.8174
34.2262
43.0947
37.148
44.9992
45.0011
35.8363
31.6176
33.0786
35.2918
31.3846
44.2834
40.4574
30.533
28.2526
32.794
30.6459
29.5152
38.6149
34.5139
27.8103
27.1517
32.5242
29.3408
28.8767
33.6143
31.8215
27.0961
26.9936
77.895
87.3884
75.7391
68.7872
62.2163
65.0398
58.0982
70.6856
71.6507
63.3497
61.0686
58.9033
56.3374
52.2832
65.2257
61.5783
57.9262
58.0369
52.2821
51.1538
47.713
48.5176
56.4945
52.041
49.0765
39.7909
46.4871
42.3657
39.4611
50.7393
46.8406
37.6289
32.7259
40.9332
36.6887
32.5789
45.0921
39.5966
31.3965
28.4945
35.2813
31.5417
29.8217
37.7305
33.1243
27.8978
26.8599
30.4596
27.8826
28.8575
31.9609
28.7933
26.7079
26.5843
27.2886
25.9086
43.2832
45.8615
38.8859
46.8124
42.5274
43.7886
38.8825
37.4352
37.4011
34.5536
40.9898
38.6555
37.9293
36.27
36.0713
33.9873
32.9443
38.3465
37.4848
35.9658
35.3215
35.296
32.7727
32.5534
37.1941
36.4193
35.1208
34.7398
34.2475
32.5621
32.3321
36.1543
35.3424
34.7195
34.4901
33.0054
32.1404
31.3255
35.0549
34.252
34.347
33.8953
31.4551
31.0288
30.1011
33.9353
33.0702
33.7819
33.5799
29.3491
29.8207
28.7362
32.7649
31.9382
33.5439
33.5028
39.2728
53.0615
46.2126
43.7551
38.7604
47.1362
43.0845
34.8167
45.0646
41.544
37.8808
36.1711
42.2015
39.507
32.543
39.8688
34.7141
35.7892
34.8404
38.4608
35.4963
32.9897
32.1179
32.0679
32.5825
32.2139
32.5391
32.461
38.4642
32.9587
35.3947
33.3
36.2144
33.594
37.6666
31.714
58.0929
46.5987
35.2492
34.367
65.6961
48.9782
30.2952
42.9504
35.8619
34.1781
33.9748
45.4171
39.6968
28.9037
34.4909
32.1779
33.9766
33.9131
38.8025
37.926
49.8928
62.2054
58.8418
49.1697
45.8856
56.6852
53.8783
45.7369
57.9839
55.7803
44.9996
41.9812
52.9208
49.4681
37.5686
54.6508
48.0106
40.728
36.8369
48.0389
42.6344
42.4938
52.2788
38.0015
40.0136
38.8214
244.645
37.3225
47.0719
71.5849
40.4073
201.983
40.112
185.723
47.5947
48.1815
30.4698
28.5878
71.33
50.9353
33.0993
32.5333
36.7731
28.2305
27.7994
46.9307
40.9465
32.58
33.3797
32.8427
27.8131
27.7564
40.0806
39.0061
33.8039
35.0275
59.3354
60.3172
55.3715
57.4351
54.4953
54.3184
51.2709
56.0299
53.9367
50.2779
53.5677
50.109
50.1704
46.7069
49.0774
49.1318
45.6359
48.7088
43.6385
45.5355
42.3263
38.2075
44.4488
40.4802
41.7855
37.0024
41.3717
38.1701
32.0536
39.0894
35.1296
35.8682
33.507
37.1349
34.5717
28.576
33.8877
30.7609
32.9988
32.2233
33.9333
32.4886
27.3517
29.8683
27.8586
32.2165
32.7397
32.1666
31.7602
27.3108
27.4299
26.4106
33.0508
34.3606
31.7809
32.0468
43.2403
44.1549
39.9621
53.6861
49.8431
49.4778
48.8664
39.863
39.1913
37.8865
48.9075
47.8223
48.7798
48.5646
38.7197
37.6524
37.0522
47.7558
46.8325
48.5026
47.4539
37.5845
36.82
36.3326
46.4051
45.6506
46.9605
46.2195
36.5834
36.2915
36.0916
45.5903
45.2727
46.202
46.4393
35.652
36.0012
35.8804
45.1715
45.1452
46.7411
48.2146
34.7951
35.8926
36.0575
45.3259
45.735
48.5805
49.3783
33.8776
36.1264
36.115
45.9319
46.3218
49.5686
50.0863
39.7434
46.4575
43.2643
48.6294
48.6476
49.9821
49.8324
37.7429
42.5121
40.2108
48.6739
48.6116
49.7279
49.1936
36.5916
39.3531
36.8063
48.5429
47.0412
48.6946
46.5963
36.268
36.5368
54.8333
46.5642
45.9829
45.9506
47.1377
36.8019
57.4033
56.1928
46.0369
46.3845
48.1913
49.3766
36.2682
54.1361
46.3757
46.645
48.683
49.456
51.2789
36.5364
44.3952
41.3698
49.2198
50.202
51.9863
52.9797
36.5979
40.9544
40.4285
50.3865
50.6979
53.0748
53.117
45.7479
55.8793
53.3477
51.5861
51.1427
58.3671
56.9526
42.2238
52.3333
48.7016
50.8778
49.8777
55.9814
52.915
37.8341
47.317
42.5322
49.2278
46.927
52.039
49.0495
56.8435
40.8596
37.2715
46.1806
47.0814
48.1527
46.5327
58.1793
36.5699
35.2244
48.0924
49.3695
46.3841
46.6133
47.4347
34.9827
35.0376
49.5159
51.624
47.1195
50.0821
42.345
35.3679
36.8738
52.3845
53.5244
50.7999
52.2653
41.3656
37.4246
38.3709
53.6411
53.6274
52.5562
53.0645
54.0539
53.6398
51.0934
59.5839
57.8756
57.0875
54.5525
49.3628
49.9577
46.4619
56.7169
53.2601
53.2097
50.2461
43.4328
45.3386
42.4072
52.3116
49.5629
49.6628
48.0194
37.9146
41.5353
38.6538
48.6878
47.0768
47.3757
46.0918
35.2583
37.7839
35.8238
46.9219
47.2901
46.0605
46.1814
34.8405
35.3897
34.4917
47.8082
49.9283
46.193
46.7263
36.2174
34.3592
34.4563
50.4408
51.6322
47.1144
47.9618
37.6798
34.6311
34.7685
51.8791
52.4922
48.1048
48.2365
54.6886
54.2787
55.108
78.3521
77.1266
75.9251
83.7359
53.3321
55.1507
55.0496
77.882
79.9773
84.4169
85.8622
52.2948
54.9956
54.1734
81.4825
79.864
86.4165
90.0498
51.1427
53.75
53.2195
80.0613
80.5047
91.3727
94.0247
50.8297
53.2615
53.5809
81.5512
80.7029
94.6004
94.0185
50.8203
53.8298
54.7937
81.1193
81.2768
93.1822
89.1724
51.5799
55.0516
55.5823
82.2038
82.2541
88.7283
88.2359
51.9047
55.7269
55.9006
83.1093
82.9466
88.3817
89.7531
55.0144
54.6072
55.7419
79.3803
85.8524
79.3436
87.6092
55.1859
55.8114
55.6642
86.1574
87.214
88.2226
90.5963
54.046
55.4061
53.3915
88.1735
94.0305
92.8679
103.333
53.0701
52.6713
52.9674
95.9195
99.3974
106.626
112.458
53.7128
53.7433
54.9672
100.009
99.4011
113.231
112.157
55.5614
55.5104
58.1606
98.2908
92.6101
110.111
101.174
56.4664
58.6249
59.107
91.1762
89.8497
97.9692
93.9798
56.4972
59.0922
58.6469
89.8398
89.6745
93.6075
93.5399
56.6616
62.5146
61.7155
78.3117
88.1141
88.1421
92.4496
56.0941
60.7754
58.097
88.8454
91.2203
91.8072
91.3424
53.5438
57.4283
55.1722
93.4882
104.04
92.1932
98.7168
52.929
54.4909
53.8642
107.432
113.097
100.838
105.002
54.9826
53.9864
54.849
114.006
113.681
105.805
106.437
58.5415
55.5446
57.4502
111.563
102.399
105.45
99.5301
59.6259
57.9901
58.8574
99.0921
94.9006
97.7343
95.928
59.0847
58.9857
58.8569
94.491
93.5011
95.7198
95.9344
62.7633
62.3131
58.5499
97.4995
94.6042
91.5842
84.2718
58.2407
57.0764
54.7074
92.5802
90.8276
81.8865
84.6297
55.4775
54.3885
53.072
91.0332
95.4486
84.7283
85.3016
54.2588
52.4052
51.7545
96.9693
100.686
84.6053
88.7713
55.2338
51.9478
52.3031
101.414
102.036
88.9698
89.7361
57.0042
52.2936
52.848
101.264
97.0844
89.1971
91.2078
58.178
53.2199
53.8725
96.4106
95.4042
91.154
91.2335
58.3114
53.9373
53.6688
95.242
95.3677
90.8789
91.3768
34.6536
32.1667
34.2234
32.8956
32.9717
32.6388
36.372
41.6234
32.6938
47.3549
38.4256
35.0416
33.4721
183.525
59.3697
45.5578
62.3228
217.306
41.3198
65.3533
237.543
33.8326
33.3598
34.4934
34.356
33.3268
33.219
34.6621
35.5994
33.7072
34.5555
37.3018
33.4337
37.4298
35.7136
43.1216
39.6552
34.795
53.4002
34.1643
191.105
37.9613
60.7605
224.514
51.3991
73.6632
67.2362
245.415
45.8012
38.7016
33.0307
36.3855
33.6097
36.4909
33.6624
38.2368
65.2349
47.8171
68.3237
201.879
48.9062
65.7575
185.032
64.1339
47.6571
66.6097
97.0731
48.9779
56.4509
124.227
39.5757
34.1232
35.4196
38.6293
34.4168
38.76
39.4677
39.7662
34.4131
35.4672
39.39
34.4741
39.2381
39.6103
67.1462
207.502
53.9046
83.5
67.3897
191.873
54.8865
65.6568
101.868
52.2784
79.952
58.0863
130.348
54.5535
46.2887
67.0865
40.5577
217.449
40.0931
232.856
47.6246
38.1347
41.6755
41.4729
42.5915
38.9768
39.9847
39.9063
37.1417
35.9612
38.7351
35.9428
37.2319
36.3165
37.6814
42.7135
41.1462
59.66
37.2037
238.173
37.0484
39.2715
47.6707
222.35
84.9099
45.2135
238.294
49.7552
42.8865
37.6823
41.2105
38.8275
38.8165
39.0078
39.0086
37.6546
37.1676
35.8287
36.9852
37.3645
36.6946
37.2216
37.2692
45.7206
73.4184
39.3028
125.573
39.7688
171.129
45.5914
34.7437
34.8868
33.5491
34.5616
33.9351
35.51
33.4252
33.979
32.3607
32.3732
31.607
33.07
33.439
32.4424
49.7563
206.183
92.4717
46.1282
190.808
50.1068
46.3056
48.3613
124.26
91.056
45.8048
166.094
48.3029
46.1507
35.5665
34.7047
36.6384
34.6077
36.1411
33.7735
36.2559
34.9404
32.3202
35.5634
33.9934
34.5538
32.9769
35.8349
162.737
184.87
163.919
106.811
92.1814
103.943
86.9287
155.091
156.167
156.258
74.2477
66.6176
72.1736
63.5267
164.805
159.069
162.405
64.4609
63.4427
60.4093
59.5195
167.304
162.387
160.584
63.5444
64.0359
59.4691
59.3338
166.1
155.705
150.88
64.6476
64.8739
58.6032
57.4049
161.011
144.113
138.35
65.6472
67.2148
55.8826
54.7475
151.069
131.219
123.645
68.8626
70.5355
53.9338
53.5528
131.213
117.669
98.8751
70.9762
70.6416
53.2251
46.7829
157.147
175.114
159.29
89.0197
80.0272
104.582
80.7756
122.181
256.05
250.339
145.516
130.925
141.613
229.464
83.8407
232.122
217.981
91.5465
85.4316
87.8558
221.533
81.2116
246.235
235.367
79.2134
79.4148
80.8587
242.217
82.7518
253.51
252.546
82.0421
82.8154
82.5207
252.236
80.3618
236.157
239.241
83.5295
82.791
81.4547
234.387
75.7671
215.113
219.198
79.7761
78.5267
76.8527
215.209
71.2817
191.115
201.262
77.0592
76.5441
72.5502
195.802
66.9585
166.177
175.427
77.8034
77.8455
67.9534
169.21
92.7028
106.802
91.6633
44.0076
39.9662
39.2121
31.9581
199.363
254.435
202.198
156.803
108.26
157.287
110.141
138.154
248.566
295.191
166.396
132.777
174.385
249.995
81.3222
206.115
201.104
83.9395
79.3611
86.4192
200.206
74.0592
210.687
203.933
74.8678
74.0764
75.2831
204.038
70.3654
212.428
199.137
73.1234
73.4452
70.9515
197.92
70.4776
210.019
197.511
74.1496
74.0811
70.4752
197.212
69.6102
202.117
194.338
72.7612
72.1043
70.0043
193.516
68.0464
193.604
189.352
70.3154
69.5192
68.5407
187.888
64.7727
177.463
179.901
66.4263
64.9077
66.0361
175.867
93.5757
104.617
91.5564
38.6969
30.8748
39.6315
32.1799
172.478
199.633
181.412
120.016
97.3186
117.568
104.446
137.057
243.588
275.149
157.165
135.892
156.969
246.831
115.661
185.423
215.567
107.056
103.341
118.118
207.719
100.538
185.128
186.018
90.0922
85.2709
106.106
185.532
79.1451
190.309
193.546
75.5103
72.5645
83.5504
193.115
69.1227
166.862
172.275
67.5422
65.7145
71.3018
165.599
60.977
155.615
153.131
61.2667
59.9714
62.7357
150.571
57.3292
150.133
143.799
58.3963
58.2812
58.0195
141.964
56.8167
147.793
138.265
58.8255
59.1426
56.7531
136.678
83.7313
83.8223
69.4115
37.8923
32.0596
36.2309
29.9446
211.12
240.047
214.711
151.505
127.713
150.224
125.29
172.528
320.323
354.234
194.918
173.029
195.436
319.542
120.193
264.479
269.548
127.651
120.672
127.054
263.81
105.806
239.526
251.161
108.833
107.951
106.386
243.488
90.3119
215.82
215.166
95.7379
90.1117
96.0266
215.014
84.5893
203.99
216.779
83.1662
82.1771
84.6689
212.948
72.9457
166.004
178.982
72.8818
69.2747
77.1335
173.197
63.7788
155.644
164.647
63.2056
61.8861
65.577
162.531
58.5786
144.299
153.286
59.4305
58.551
59.9289
150.132
75.9542
94.863
86.7399
35.5412
29.0755
34.7986
28.1186
175.184
193.551
181.145
109.112
93.1102
107.807
93.363
162.287
176.027
173.744
80.7864
74.6322
83.9108
81.1413
149.829
164.231
153.939
70.5618
67.5483
74.9776
70.6533
142.261
144.668
138.306
65.9819
65.4064
66.1915
64.392
130.428
129.075
121.576