/*--------------------------------*- C++ -*----------------------------------*\
  =========                 |
  \\      /  F ield         | OpenFOAM: The Open Source CFD Toolbox
   \\    /   O peration     | Website:  https://openfoam.org
    \\  /    A nd           | Version:  10
     \\/     M anipulation  |
\*---------------------------------------------------------------------------*/
FoamFile
{
    format      ascii;
    class       volScalarField;
    location    "7.2";
    object      omega;
}
// * * * * * * * * * * * * * * * * * * * * * * * * * * * * * * * * * * * * * //

dimensions      [0 0 -1 0 0 0 0];

internalField   nonuniform List<scalar> 
12920
(
12.0816
31.0264
54.8328
73.1023
77.9569
79.006
77.1447
76.2906
76.0878
76.29
75.7838
74.3459
74.3174
74.4755
73.3482
68.8176
65.3404
59.5582
50.4839
39.7652
272.456
230.839
149.155
109.612
102.852
98.8097
88.2941
82.0068
79.3939
78.8567
78.6893
78.7292
78.6046
77.765
75.2662
69.4387
61.693
54.2316
49.7416
48.7949
157.512
165.752
147.176
135.281
132.104
121.768
106.609
95.0295
85.4938
78.9857
74.6849
71.9366
69.325
66.5791
63.8534
60.8962
57.459
53.3242
51.0664
47.6025
118.475
241.427
229.215
195.344
166.638
149.606
132.844
122.411
109.733
95.8178
83.6325
75.5446
70.4241
66.2244
62.0425
57.3108
53.2997
49.3663
46.7727
41.959
222.315
219.68
198.28
185.497
166.914
159.167
142.194
132.965
121.751
110.694
96.2145
83.1862
74.0995
67.6632
62.0537
56.704
52.3606
48.3308
46.2026
41.7521
125.358
144.965
164.74
174.116
172.764
164.241
145.53
131.135
121.355
114.827
106.542
94.672
82.7787
72.0605
63.983
57.9708
53.8732
50.955
49.8937
47.2431
61.2107
153.269
155.937
155.698
145.3
131.249
118.141
114.557
114.759
116.203
117.985
117.372
113.09
98.7438
79.9789
65.5741
57.8275
53.3024
51.8205
48.9777
162.755
167.922
150.032
135.559
123.617
115.847
191.159
153.595
160.254
166.644
166.992
163.334
156.038
141.064
69.5184
60.7119
55.7374
52.2672
51.0706
48.5979
224.076
238
212.134
177.356
132.749
167.551
276.473
232.768
241.297
254.026
242.206
220.533
198.359
171.206
101.848
60.0459
56.4097
53.6668
52.6283
49.8846
144.957
223.973
226.669
220.226
188.93
253.008
296.922
205.548
209.754
211.463
211.617
203.567
196.111
182.511
108.488
61.8258
59.0621
56.1959
54.7865
51.1006
462.444
321.535
224.273
175.071
139.224
198.194
276.276
195.87
179.961
192.027
172.095
157.338
150.967
148.697
90.4391
54.427
54.0296
53.1617
52.0455
48.9203
183.142
268.086
253.32
205.273
163.72
243.297
354.318
270.406
249.449
215.446
213.967
170.864
157.673
146.912
91.8284
55.9036
54.4232
51.5864
49.5806
46.6696
323.464
316.016
218.335
165.966
132.929
120.315
191.354
166.013
156.242
145.349
136.781
123.127
107.797
96.3745
56.1176
52.6107
50.6895
47.676
46.4487
44.7553
325.113
301.056
218.273
154.641
119.764
112.982
111.492
106.268
94.5296
82.329
71.9204
63.0279
56.1256
50.9699
47.3682
44.8671
43.934
42.8507
42.5187
41.8407
184.643
163.386
155.081
136.768
123.222
119.147
110.169
92.9732
79.3538
69.8951
63.4674
58.1996
53.5746
49.5263
46.1043
43.3413
41.4267
40.0227
39.2309
38.5481
169.995
204.082
202.032
168.531
138.392
126.324
111.167
93.3109
76.5749
65.5432
58.5802
54.1089
50.4476
47.6779
45.1811
43.1826
41.5243
40.3107
39.3894
38.584
117.149
196.681
189.513
164.53
134.117
121.966
110.678
99.1491
83.6288
70.0975
60.1878
53.9743
49.573
46.7012
44.5624
43.1638
42.1701
41.5411
41.0669
40.6837
346.441
255.59
190.813
165.184
137.736
122.403
106.868
93.2659
80.1092
70.8281
63.317
57.7578
52.987
49.5469
47.0124
45.485
44.5313
44.2389
44.2168
44.3493
338.719
243.19
196.441
155.778
122.598
104.438
90.064
81.6831
74.8087
70.7856
67.1607
63.7815
59.5559
55.6892
52.2378
49.9539
48.5515
47.8964
47.8543
47.9737
215.6
198.653
183.687
166.732
138.866
108.426
84.1716
70.8318
64.4223
61.4088
58.2967
55.2586
52.2666
49.5845
47.044
44.4311
41.9312
38.9646
37.6644
35.4084
6.03687
32.605
39.2822
44.4599
44.6089
46.0947
46.0695
46.2781
46.3009
46.0564
44.9703
43.4979
42.4189
41.5573
39.8383
36.6917
31.9148
26.3643
21.3869
19.0372
187.21
176.982
104.901
83.061
75.8987
65.5891
58.9856
54.5376
51.8014
49.3517
47.6338
45.9527
45.575
46.0079
47.8952
49.1651
48.5586
42.8764
34.3486
28.3358
178.5
138.646
116.466
101.594
87.5769
73.9166
67.1771
63.512
58.9739
52.8972
47.6446
43.0652
39.444
36.5768
35.2265
34.8815
34.548
33.2692
30.393
25.7373
96.4698
157.294
147.08
111.944
87.2169
76.3246
69.4864
66.8314
63.758
58.7327
52.5672
45.1572
39.3935
35.1467
32.3371
30.4116
28.8757
26.4735
24.2489
21.0906
242.524
157.886
130.392
106.855
87.8865
80.1923
72.9695
68.5174
63.8411
59.7438
56.127
49.3133
42.7553
36.7057
32.3046
28.818
26.4973
24.2839
23.0998
20.9919
169.587
154.421
138.944
120.946
105.969
97.4749
88.5708
78.2695
68.9395
61.6293
57.9605
55.4772
51.6133
43.6838
35.7619
30.3587
27.271
25.4891
24.9502
24.5001
243.313
178.48
132.664
108.746
91.6123
80.7443
68.7038
61.9547
58.6271
58.403
58.926
62.3036
65.1389
64.8278
56.8397
40.9119
32.227
28.4794
27.1604
26.7697
268.187
195.015
140.063
111.283
86.8941
67.6601
66.5416
56.6693
50.3935
49.0781
49.6012
50.5826
53.5348
55.01
38.4593
32.0668
28.5289
26.8502
26.3056
26.0093
268.687
201
141.549
99.2153
76.6287
62.8183
61.4182
50.3229
41.9817
40.8375
40.7242
39.5725
38.4561
37.53
32.4478
27.5407
26.4649
25.9006
25.8172
25.6455
188.309
182.154
155.636
129.614
103.778
96.5803
68.7088
46.2352
39.272
36.293
36.2332
36.149
35.1833
33.749
30.5042
28.3045
27.9496
27.4945
27.2881
26.5833
151.725
162.371
136.987
106.064
84.0149
79.2493
71.7668
62.9285
57.8797
42.6135
35.8852
33.7933
32.9513
32.7333
30.8483
29.2107
29.4983
29.5631
29.4036
27.9519
107.617
149.866
148.722
141.949
113.63
105.69
90.4733
74.8737
69.7135
61.6731
45.9235
37.4696
31.6577
29.5216
27.6044
26.6627
28.0295
28.3599
28.2769
27.0071
204.636
161.591
125.289
105.262
86.5725
69.7753
68.732
60.949
54.687
51.4648
48.4262
43.8823
37.273
31.3255
24.6356
24.1782
24.2772
24.3102
24.2722
23.7809
305.144
190.621
127.309
107.982
93.0141
79.6776
65.6231
53.0309
45.9462
41.3884
37.0697
32.5892
28.3105
25.0146
22.9865
21.8525
21.4786
21.3378
21.3583
21.5305
166.423
131.677
103.239
97.3634
91.2691
77.2083
59.4965
45.6568
38.533
34.2183
31.5189
28.7319
26.3201
24.1784
22.5654
21.2795
20.5637
19.9539
19.7281
19.834
237.662
182.174
113.947
87.5386
83.5543
81.6109
73.5806
55.9071
41.4588
33.3706
29.0275
26.2591
24.3301
22.8907
21.7813
20.9018
20.2878
19.7669
19.4522
19.4167
258.518
180.916
118.855
88.7784
80.4619
78.6943
71.8331
59.9019
48.5584
38.1752
30.6153
26.1419
23.5696
22.1919
21.2583
20.664
20.2588
20.0062
19.8303
19.839
126.16
151.523
121.339
93.8974
77.9552
69.2766
61.0104
51.4967
42.4707
35.4402
30.6545
27.6721
25.4343
23.9351
22.8408
22.1682
21.7526
21.5438
21.5003
21.5457
396.022
192.319
125.764
88.656
73.0641
60.3011
54.3167
47.4874
41.574
37.9351
35.2804
33.4602
31.3507
29.5876
28.0158
26.9167
26.1837
25.6533
25.4495
25.1705
145.835
105.838
93.56
84.3736
68.278
54.599
44.3708
38.7638
36.0417
34.9617
33.6608
32.5781
31.2746
29.9245
28.5169
26.9121
25.1664
23.1928
22.3445
21.1105
30.336
66.0518
61.9434
56.2288
53.638
52.7715
52.4335
52.1575
51.5514
49.8852
47.7213
45.5214
43.5797
41.1708
37.7236
33.3222
28.8516
24.8922
22.5124
21.8198
180
114.583
94.1603
76.142
65.9207
56.8034
50.5873
47.97
44.9775
43.3416
41.7359
41.4319
41.538
42.0684
42.2869
41.8306
39.352
34.9908
32.106
30.413
159.751
167.235
126.712
101.452
80.5343
65.5656
56.1777
52.1696
47.3196
43.4546
39.7485
37.2596
35.2776
34.1973
33.6911
33.2809
32.4124
30.6655
29.0362
26.685
290.109
220.581
142.437
100.852
74.5
62.5546
55.3023
52.2434
48.2121
44.3588
40.0802
36.4422
33.4798
31.2455
29.6286
28.2887
27.014
25.4442
24.109
22.543
163.379
147.487
109.935
84.3652
69.4883
62.1251
56.2301
52.7288
48.7444
45.3127
41.6251
37.7295
34.0614
30.854
28.4582
26.56
25.2354
24.0319
23.2909
22.2209
178.663
150.63
116.618
94.5826
78.674
71.2551
63.1121
57.5242
52.1298
48.0157
44.9475
41.8333
37.9602
33.3568
29.6266
27.1532
25.794
24.9721
24.6821
24.3383
622.847
255.659
113.866
84.639
68.9473
63.2422
54.7027
51.3914
49.2592
48.5056
48.1896
48.101
47.1584
43.3076
36.4906
30.9491
28.0339
26.7206
26.29
26.135
192.254
170.735
118.962
85.6521
64.3155
54.1979
51.9523
45.4828
43.3581
42.1684
42.344
42.2513
42.2426
39.6988
31.3287
28.5413
26.9499
26.1649
25.94
25.7176
170.867
140.734
106.081
74.9124
56.3761
48.6007
48.2854
41.2383
36.9367
35.8198
35.0535
33.9274
32.6394
30.9641
28.8021
28.2618
26.9785
26.1811
25.9318
25.4853
173.815
133.488
112.624
94.1567
72.6459
63.574
48.3697
37.8257
34.0816
32.195
32.6456
32.8324
31.3171
30.015
29.5691
30.8314
29.4968
28.1602
27.5165
26.2365
140.329
119.705
94.1983
74.2533
61.5897
57.9852
54.3887
48.9458
44.0042
33.7689
72.4584
61.3219
44.254
35.4225
33.0491
33.8343
33.017
31.2094
29.7778
27.3347
162.058
148.218
105.394
87.3345
73.3527
69.8738
64.0579
58.3138
54.9347
46.35
36.395
30.9929
28.1113
27.2699
28.1418
30.5026
30.3913
29.5229
28.5181
26.6195
232.992
147.408
95.8261
75.9785
65.2875
55.6992
52.5472
48.5535
44.2042
41.447
37.2764
33.2017
29.41
27.012
25.8461
25.1008
24.9463
24.741
24.6627
24.3656
187.349
153.83
105.055
88.5767
74.318
61.2435
50.0618
41.498
37.2066
33.4039
30.1813
27.0461
24.6334
22.965
22.0989
21.7232
21.7128
21.833
22.0107
22.4021
143.693
141.545
104.549
83.4625
69.8329
56.4867
44.3459
36.4954
32.2894
29.1736
27.0725
25.0495
23.4256
22.184
21.3038
20.7456
20.4757
20.4728
20.5313
20.8517
90.7709
156.86
136.838
80.9177
67.0767
61.2549
50.6647
40.3637
32.52
28.1372
25.487
23.7606
22.495
21.6467
21.0057
20.6119
20.3482
20.3229
20.34
20.5445
136.915
168.798
125.347
79.7122
66.0352
60.8162
51.9614
43.5674
35.5623
30.131
26.1632
23.9868
22.5534
21.8047
21.2798
21.0097
20.8745
20.8939
20.9429
21.1714
248.677
168.634
108.483
76.3959
61.9263
53.2149
45.7178
39.6844
34.5456
31.2333
28.3863
26.5989
25.0602
24.188
23.5585
23.2691
23.1301
23.1379
23.1992
23.4071
299.031
131.941
84.2415
63.1719
56.8668
49.3704
44.6555
41.2949
38.2352
36.9856
35.2261
33.9396
32.0954
30.7496
29.5196
28.8224
28.3727
28.2187
28.1876
28.1192
188.857
103.621
95.1016
84.2882
69.5744
58.6605
50.569
45.3975
42.1381
40.1821
38.404
36.6835
34.8219
32.9261
31.1595
29.3244
27.8476
26.1621
25.4859
24.1066
65.9025
82.9548
74.6625
61.8739
59.4765
56.4829
55.9332
54.2708
52.485
49.2077
46.6817
43.7662
41.4455
38.3321
34.971
30.8019
27.5946
25.6288
25.1027
24.63
354.892
147.512
104.9
73.2302
65.4027
55.4234
52.596
49.8394
48.0571
46.9939
46.2753
46.2325
46.1767
45.9472
45.2687
43.8321
42.1897
41.2957
41.3922
41.9387
230.593
208.881
160.357
109.953
81.379
62.6374
55.2685
50.4869
47.2187
44.4095
42.202
40.8373
39.8457
39.343
39.0032
38.5521
38.0385
37.3961
36.7616
36.0797
199.287
167.136
138.296
94.0589
71.6541
58.0402
52.9896
48.6756
45.863
42.8697
40.4228
38.3197
36.7026
35.4147
34.4798
33.5993
33.0974
32.5327
32.0424
31.9316
166.491
139.722
104.663
73.7038
66.3767
56.6312
53.2278
48.7665
45.895
42.7408
40.2612
37.8189
35.8315
34.1942
33.1151
32.2969
31.8854
31.537
31.1949
31.263
149.313
136.56
109.693
82.2061
72.8668
63.3783
57.9219
52.9677
49.1724
45.3727
42.5658
39.5906
37.0837
34.8032
33.3853
32.5391
32.2971
32.1594
31.9643
31.9244
400.184
208.931
109.743
73.375
66.8243
59.1413
53.6251
50.5526
48.9171
47.335
46.034
43.8718
41.4147
38.4113
35.9184
34.2721
33.6644
33.4233
33.2497
33.2389
213.991
184.643
114.46
73.5157
61.776
54.2312
50.4495
45.4804
44.1728
42.4545
41.8591
40.3454
38.8332
36.5143
36.4632
34.7394
33.7786
33.2906
32.9956
32.8905
148.561
138.078
94.2677
64.3121
52.7368
47.1213
47.3946
41.8898
39.5606
38.3883
37.3089
36.3209
35.3985
34.599
35.8604
37.2287
34.993
33.7556
33.1281
32.8777
119.466
121.814
102.272
74.4887
60.7063
52.0558
43.702
39.0724
37.4408
36.2887
36.5132
36.6679
36.2477
36.625
38.9706
40.5
37.622
35.5714
34.3046
33.4735
219.276
104.246
79.8726
61.7139
55.7794
51.479
48.6395
44.9315
41.1846
37.002
59.3136
56.0498
45.3194
41.9561
42.9857
43.0836
39.9195
37.2315
35.4941
34.2668
131.668
144.6
90.14
66.2563
62.6213
59.0167
56.5307
53.0411
48.0065
41.9217
37.0346
34.9405
35.0351
36.6184
39.7417
40.2987
37.7538
35.8367
34.6737
33.8604
226.272
150.426
84.0993
63.1107
60.3572
51.8727
49.4234
46.1604
42.5534
40.0341
36.8196
34.9834
33.8395
33.9632
34.9592
33.2062
32.4638
32.2674
32.3026
32.4534
223.066
153.062
100.434
72.8758
65.6659
53.263
47.1483
40.1698
37.7501
34.0688
32.199
30.0029
29.2061
28.6729
28.7049
28.8102
29.1215
29.7429
30.0872
30.8092
214.125
162.733
102.011
71.6505
61.756
48.3602
42.6168
36.258
34.1942
31.4239
30.2728
28.8228
28.0975
27.6175
27.4653
27.5564
27.7913
28.4251
28.7536
29.5511
110.137
165.951
155.822
83.5975
63.4889
51.4304
44.8527
37.4624
33.9295
30.8891
29.655
28.4648
27.9671
27.592
27.5953
27.6429
27.8503
28.3654
28.6276
29.3523
112.503
169.058
137.713
76.0245
61.6566
51.2084
46.1327
39.3346
35.4513
32.1622
30.4805
29.3491
28.8417
28.5213
28.49
28.5111
28.6402
29.0238
29.2259
29.8555
158.138
151.502
112.183
69.1033
59.2013
48.0154
44.7014
40.0454
38.0557
35.9218
34.3718
33.1076
32.2975
31.8524
31.7199
31.6905
31.751
31.974
32.1383
32.5458
207.023
112.834
73.3811
58.0721
57.2767
49.8809
48.2026
46.1875
45.3538
44.8549
43.6245
42.3712
40.696
39.6786
38.9007
38.6222
38.5353
38.6229
38.6787
38.8486
149.281
100.759
90.4652
77.7642
66.8423
58.0821
51.8332
47.4228
44.3806
42.0627
39.8279
37.5233
35.2155
33.048
31.1371
29.3943
28.1359
26.8075
26.2376
24.9549
104.297
83.1048
74.7427
63.4411
61.7784
57.0823
55.7843
51.3742
48.4952
43.7179
41.1713
37.8155
35.7656
32.7861
30.4888
28.0819
27.0454
26.1854
25.7902
24.7062
247.843
148.56
124.786
73.4314
83.03
61.7893
71.4388
62.7477
68.5626
65.2014
68.3771
67.0808
67.6395
65.6287
64.6634
63.1634
63.8099
65.3681
67.069
67.49
351.07
231.026
179.91
105.715
96.624
66.7574
70.5602
60.2662
63.204
58.5173
60.0582
57.8373
58.141
56.3258
55.6523
54.3494
54.6602
55.1097
55.8917
55.9285
163.709
149.086
146.198
87.2023
86.3602
63.0414
67.693
57.9498
60.4735
55.6127
56.4659
53.9733
53.8487
52.0289
51.2981
50.2001
50.4834
50.5287
50.8382
50.6941
193.467
139.097
119.947
71.0236
81.7408
59.383
65.5561
55.2418
57.9746
52.8526
53.5205
50.9982
51.2209
50.0009
50.0782
49.7011
49.9277
49.8219
49.9397
49.7948
196.626
136.57
125.988
79.1943
89.7211
67.2757
71.141
62.1105
61.9814
56.7988
55.4738
52.0223
51.4794
50.544
50.495
50.1948
50.512
50.4369
50.5357
50.1331
378.739
191.785
132.587
71.0485
86.3557
62.959
65.5344
58.9358
60.5677
57.3392
56.5256
53.2611
52.3558
51.0582
51.51
52.2433
52.5863
52.3881
52.3021
51.9314
427.691
245.54
142.741
73.7553
84.2958
66.598
61.7085
54.8727
54.6865
52.0519
51.6359
49.6299
49.566
49.3742
54.4847
52.3843
51.9348
51.6268
51.5376
51.1341
430.685
162.325
105.905
70.0185
64.0675
55.4315
58.6711
54.172
53.6029
52.0191
51.3479
50.8827
51.227
51.8937
55.2833
54.3141
52.2855
51.6877
51.5414
51.2585
228.403
147.722
115.568
71.1518
72.3931
57.9382
54.0253
55.3579
55.3072
53.7279
53.3182
54.2238
55.9977
56.6705
58.5117
56.6551
53.7023
52.4325
51.8937
51.3443
180.911
128.021
81.664
67.5793
62.9773
55.2048
55.844
56.8458
55.9019
52.9104
53.6995
55.7497
59.1521
59.7149
60.7145
57.8167
54.415
53.02
52.5035
52.1107
256.088
163.552
100.015
67.7325
75.832
65.2575
65.2953
61.773
57.7534
55.0402
54.523
55.803
57.5065
58.4128
59.5907
56.017
53.1011
52.0855
51.8042
51.728
230.715
156.677
90.3837
66.6384
72.0361
57.3565
57.9118
53.016
52.9745
50.423
51.1279
50.7037
51.9684
51.9018
52.1723
49.9659
49.4546
49.7644
50.0547
50.6101
270.35
159.177
116.651
73.4582
79.5167
58.6007
59.0741
50.0723
50.6676
46.1049
47.1687
45.215
46.2481
45.7587
46.2646
46.1727
46.6758
47.5779
48.0248
49.1086
570.679
194.148
119.552
71.3425
70.8192
51.2533
55.1894
45.6701
47.8544
43.8959
45.5074
43.9591
44.7918
44.2443
44.4696
44.6945
45.0712
46.0027
46.3054
47.4249
206.899
237.458
193.716
89.2109
79.4936
55.3251
58.6019
47.6922
50.3544
45.2882
47.129
44.7559
45.7893
44.7598
45.3175
45.0627
45.3804
45.9216
46.1367
47.0862
262.002
229.766
150.006
73.3599
72.5805
53.7888
59.082
48.1816
51.4637
46.2805
48.2099
45.7093
46.5705
45.4588
45.8296
45.5985
45.8293
46.305
46.4634
47.3436
213.297
170.569
124.867
74.6884
78.0638
56.6719
63.4331
53.1706
57.4955
52.0681
53.6979
50.6777
51.309
49.917
50.2174
49.7039
49.8859
50.0064
50.1047
50.5994
259.698
151.312
84.3953
69.959
75.8041
58.6289
71.3778
63.7532
69.6797
65.5745
67.0502
64.0385
63.9486
62.2088
61.9443
61.1779
61.0645
60.9056
60.7617
60.9876
161.821
98.8932
76.5607
66.5365
59.9671
53.98
49.5233
45.7025
42.6344
39.5432
36.7375
33.9724
31.7266
29.7662
28.1398
26.7372
25.5611
24.5361
23.747
23.1858
32.3049
33.5605
67.8527
34.5545
34.7305
35.3478
82.5832
32.9694
68.7426
60.9085
35.1046
35.3862
83.8679
71.116
71.7714
44.8843
36.6947
35.4958
93.6624
40.7037
36.2778
65.5615
34.9894
31.3963
94.3347
78.8486
35.3682
33.5045
236.478
254.224
205.85
73.4404
61.0623
68.8453
53.3838
236.864
207.277
216.211
56.2763
47.3008
49.9882
43.9144
252.789
217.536
225.25
46.2885
45.4108
42.8558
41.2471
247.573
227.045
226.506
45.4653
45.7085
41.2159
41.6436
226.099
223.646
213.4
45.6895
44.76
41.7016
41.4093
204.865
210.197
202.815
44.3301
43.3332
41.1309
40.1505
178.534
199.396
187.721
43.1067
42.7702
39.839
38.4597
148.057
182.867
153.5
42.612
40.4468
38.0429
34.8055
208.123
308.402
212.983
83.489
55.8705
88.0805
65.9412
209.429
195.81
181.458
51.7098
44.9991
63.4596
58.3953
210.958
184.15
194.257
43.5527
40.8477
55.4457
45.369
212.225
193.32
180.087
40.524
40.5961
43.0236
38.8808
205.75
175.181
168.513
40.6863
40.6492
38.4781
37.495
198.551
167.308
165.663
40.4684
39.658
37.296
37.0546
186.718
164.894
163.203
39.4107
38.2263
37.0529
37.0832
153.828
162.371
141.805
37.8063
34.7047
37.0599
35.2101
207.936
313.264
267.588
83.6386
71.0659
96.1755
85.0117
178.781
262.775
248.032
69.7553
66.5248
81.9854
78.2871
191.948
241.307
212.653
63.7392
50.949
77.3658
71.7634
178.583
211.162
210.36
47.0578
40.255
67.0351
51.2115
159.687
203.78
167.176
39.2561
36.8919
48.3851
42.0784
152.201
161.29
152.261
36.2647
35.2533
39.8668
35.1478
149.095
150.095
141.89
35.1872
35.2995
34.2458
32.9447
134.961
139.315
118.319
35.3977
34.5397
32.7369
31.2659
278.754
358.273
284.976
110.059
87.5596
108.814
87.3138
254.137
274.778
254.165
83.2125
76.8448
81.7435
70.8133
218.57
251.678
233.302
75.6777
71.0874
68.3844
63.967
216.52
225.143
217.796
67.4267
53.8863
62.346
57.8906
178.808
217.386
208.314
51.1801
44.7755
56.7729
53.7063
160.511
199.918
183.402
42.3577
36.7143
52.0916
46.0486
149.766
177.128
163.807
35.6202
33.505
43.867
38.1438
122.694
158.986
134.075
33.172
31.2843
36.7252
31.6828
53.9963
58.9316
47.522
50.3821
44.6665
47.792
39.916
42.9181
44.8171
39.5741
42.294
37.7989
38.2116
34.8565
40.9143
38.5606
36.9065
37.2202
36.2648
34.1762
32.9425
40.8118
36.7996
36.989
36.0775
35.6234
32.771
32.5913
39.9212
37.0283
36.805
35.4447
34.6547
32.5985
32.3847
38.7079
36.5825
35.7518
34.3599
33.459
32.1998
31.3932
37.8879
35.4676
34.2643
33.1257
32.028
31.0901
30.0626
36.2059
33.8957
31.976
31.5095
29.7789
29.7437
28.444
49.373
73.9082
59.1882
52.0402
40.5857
57.3037
48.3311
40.6211
57.3205
53.1691
38.8172
35.3212
47.0757
43.4826
36.6599
50.5159
41.1863
34.4308
32.6149
41.6039
35.4888
36.1574
38.8799
35.4758
32.2548
32.1858
33.7944
43.3585
36.2732
35.2703
34.9356
32.4247
32.7069
44.7977
45.5098
35.4337
34.8444
34.6079
32.6068
31.6328
44.6225
40.6438
34.1066
34.4907
34.0194
31.2669
30.1772
38.7697
34.3325
31.9071
33.878
32.9634
29.8638
28.5705
33.3051
31.3934
63.9315
82.0141
76.089
57.3713
52.2007
65.6621
61.5635
60.3097
73.9192
71.4284
51.3534
48.3359
60.5872
58.7832
46.2781
70.772
65.3867
46.413
38.8967
57.9008
51.4739
36.6349
60.7877
45.9916
35.6631
44.126
47.7616
37.9392
34.2432
43.2191
37.2443
45.0527
45.033
35.9264
31.672
33.0642
35.3804
31.4212
44.2687
40.481
30.579
28.2707
32.7677
30.6676
29.512
38.6378
34.5106
27.8199
27.1458
32.512
29.3336
28.863
33.6057
31.8072
27.0863
26.9782
77.9576
87.8386
75.8879
68.8798
62.1906
65.2882
58.1673
70.5424
71.7288
63.3199
61.0014
58.8133
56.3641
52.2524
65.319
61.503
57.8987
57.9707
52.3986
51.1078
47.7093
48.6937
56.4866
52.056
49.2355
39.9094
46.4949
42.3912
39.5657
50.7503
46.8847
37.7204
32.7888
40.9649
36.7312
32.6297
45.1597
39.6788
31.4521
28.521
35.329
31.5828
29.8277
37.816
33.1855
27.9157
26.8597
30.4991
27.9082
28.8491
32.0152
28.8326
26.7041
26.5722
27.3095
25.9195
43.3571
45.9292
38.9302
46.8699
42.575
43.8264
38.9093
37.4266
37.4296
34.5513
41.0162
38.6377
37.9437
36.2595
36.038
33.9785
32.9188
38.3233
37.4621
35.9512
35.2971
35.2669
32.7433
32.5191
37.1717
36.4001
35.0956
34.7088
34.2329
32.5279
32.31
36.1376
35.3311
34.6889
34.4669
33.002
32.1229
31.3155
35.0455
34.247
34.3267
33.8776
31.4686
31.0206
30.0972
33.9324
33.0697
33.7637
33.5576
29.3768
29.8187
28.7386
32.7655
31.9344
33.521
33.478
39.3298
53.2491
46.2093
43.8561
38.7883
47.2233
43.0859
34.825
45.0417
41.5802
37.8949
36.1656
42.1996
39.5298
32.5286
39.9298
34.7846
35.7795
34.8219
38.4908
35.5098
32.9414
32.0891
32.06
32.5602
32.1941
32.5093
32.4476
38.3811
32.9213
35.331
33.2558
36.1544
33.5546
37.574
31.7063
58.0902
46.6416
35.2263
34.3512
65.684
49.0069
30.2891
42.9963
35.8713
34.1612
33.9501
45.4399
39.6816
28.9038
34.4918
32.165
33.9506
33.8859
38.7779
37.8838
49.8318
62.1613
58.7772
49.1888
45.8632
56.638
53.8363
45.7666
57.8998
55.7237
44.9841
42.0086
52.8822
49.4736
37.687
54.63
48.1502
40.7682
36.8755
48.064
42.7138
42.6686
52.347
38.1163
40.1019
38.9523
244.787
37.4188
47.1338
71.4227
40.4767
202.079
40.1756
185.772
47.6601
48.2402
30.5046
28.6005
71.3928
50.9822
33.1044
32.523
36.7775
28.236
27.7891
46.962
40.927
32.5657
33.3476
32.8261
27.8001
27.7366
40.0502
38.9592
33.7676
34.9799
59.2993
60.509
55.424
57.4108
54.467
54.3793
51.2885
55.9669
53.9477
50.2515
53.5375
50.1123
50.1736
46.706
49.1868
49.0988
45.6436
48.7284
43.7069
45.5349
42.3398
38.3051
44.4643
40.5131
41.8554
37.0455
41.3887
38.194
32.1031
39.1269
35.1732
35.9001
33.5183
37.1585
34.5883
28.5949
33.9329
30.7945
33.0043
32.2126
33.9453
32.4911
27.3466
29.8996
27.8765
32.2017
32.7105
32.1631
31.747
27.2942
27.4419
26.4155
33.0178
34.3173
31.7634
32.0241
43.2815
44.1877
39.9836
53.7657
49.9278
49.5559
48.965
39.8471
39.2017
37.8752
48.983
47.9005
48.8729
48.6419
38.7037
37.6377
37.0305
47.8431
46.9048
48.5764
47.5188
37.5707
36.7979
36.305
46.4684
45.7028
47.0121
46.25
36.5743
36.2636
36.0684
45.6442
45.3131
46.2312
46.4716
35.6455
35.9799
35.8585
45.2098
45.1708
46.7744
48.2282
34.7891
35.8699
36.0287
45.3505
45.7469
48.5928
49.3856
33.8654
36.0965
36.084
45.9452
46.3246
49.5751
50.0926
39.7638
46.523
43.2669
48.7529
48.7514
50.0851
49.9298
37.7347
42.5133
40.2277
48.7675
48.6851
49.827
49.2753
36.5735
39.3733
36.8188
48.6112
47.0828
48.7673
46.6139
36.2346
36.5326
54.7665
46.5908
45.9948
45.9572
47.1246
36.773
57.3346
56.1556
46.0459
46.3966
48.175
49.3696
36.2477
54.1281
46.381
46.6689
48.6969
49.4528
51.2883
36.5054
44.3958
41.3424
49.2311
50.2087
51.9935
52.985
36.564
40.9199
40.3831
50.3921
50.7046
53.0801
53.1255
45.7335
55.8361
53.3153
51.6701
51.2234
58.446
57.0389
42.2469
52.3091
48.7177
50.9645
49.9639
56.0712
52.9983
37.8647
47.3467
42.594
49.2949
46.9475
52.1148
49.1047
56.8989
40.9186
37.2974
46.1902
47.0738
48.1989
46.5556
58.201
36.5864
35.2232
48.0817
49.3627
46.3996
46.6298
47.4493
34.9781
35.02
49.5144
51.634
47.1425
50.0879
42.3142
35.3457
36.8391
52.391
53.5288
50.8051
52.2684
41.3155
37.3873
38.3261
53.6443
53.6346
52.5591
53.0702
54.0335
53.6821
51.1092
59.7211
57.9859
57.2643
54.6768
49.3786
49.9657
46.4683
56.821
53.3505
53.3232
50.3401
43.4877
45.3449
42.421
52.3928
49.6213
49.748
48.086
37.9429
41.5524
38.6742
48.7373
47.1034
47.4372
46.1592
35.2584
37.8016
35.832
46.9474
47.3168
46.1255
46.2289
34.8226
35.3923
34.4847
47.8281
49.9366
46.2326
46.7519
36.1849
34.3458
34.4342
50.447
51.6374
47.133
47.9784
37.6394
34.6039
34.7414
51.8835
52.4973
48.1175
48.2489
54.8419
54.4088
55.2977
77.7764
76.5791
75.3869
82.9342
53.5143
55.3388
55.2204
77.2012
79.384
83.6325
85.0976
52.4748
55.1634
54.3457
80.7717
79.2301
85.6572
89.2294
51.298
53.916
53.363
79.3405
79.8422
90.5388
93.1737
50.9638
53.4011
53.7056
80.7915
80.0021
93.7511
93.1889
50.9301
53.9463
54.8856
80.3271
80.5315
92.3607
88.4377
51.6672
55.1373
55.6619
81.388
81.5013
87.9902
87.4968
51.9744
55.8061
55.9791
82.2955
82.2376
87.6369
88.8505
55.2216
54.7969
55.9682
78.4115
84.981
78.8148
86.6999
55.3538
56.0359
55.859
85.3162
86.402
87.3014
89.633
54.2127
55.5919
53.5199
87.3494
93.1257
91.8667
102.251
53.2092
52.7529
53.0214
94.9951
98.4675
105.555
111.367
53.8327
53.7926
55.0473
99.0845
98.5093
112.149
111.113
55.6495
55.6097
58.2457
97.4105
91.8313
109.088
100.303
56.5502
58.7151
59.2022
90.419
89.0917
97.1578
93.1775
56.575
59.1869
58.7415
89.0809
88.9355
92.7983
92.616
56.8904
62.7452
61.99
77.4125
87.0772
87.0357
91.3494
56.3015
61.0474
58.337
87.8482
90.2235
90.7528
90.2803
53.6659
57.652
55.3585
92.4541
102.928
91.1158
97.5655
52.9849
54.6613
54.0088
106.33
111.978
99.6788
103.839
55.0611
54.1207
54.969
112.892
112.597
104.655
105.327
58.6263
55.6611
57.5509
110.511
101.508
104.376
98.6069
59.7242
58.097
58.9641
98.2633
94.0818
96.8455
95.0366
59.1764
59.0918
58.9606
93.6699
92.6959
94.8269
94.931
63.0786
62.6563
58.8157
95.8268
93.4234
90.7284
83.2256
58.4922
57.3285
54.9628
91.4882
89.7467
80.9424
83.3605
55.6717
54.6346
53.2809
89.951
94.3101
83.5639
84.1032
54.4042
52.6034
51.9389
95.8202
99.5316
83.4962
87.572
55.3572
52.1244
52.4499
100.269
100.945
87.8549
88.6451
57.1114
52.4327
52.9644
100.21
96.1669
88.1602
90.1505
58.2857
53.3329
53.9818
95.4913
94.4942
90.1376
90.2302
58.412
54.0445
53.7696
94.3333
94.4084
89.9
90.318
34.5834
32.1351
34.1759
32.8572
32.9435
32.6056
36.2899
40.9283
32.7003
47.435
38.4562
34.9362
33.4493
183.523
58.4969
45.4754
62.4868
217.296
41.2214
64.7989
237.451
33.7793
33.3369
34.466
34.3364
33.2972
33.2009
34.6337
35.5287
33.6682
34.5249
37.2442
33.4006
37.345
35.6799
42.4104
39.6844
34.786
53.8457
34.1305
191.069
37.8286
59.8469
224.518
51.2335
73.9451
66.6255
245.314
45.6277
38.6358
32.9995
36.3469
33.5797
36.4422
33.6291
38.1892
64.8018
47.7051
68.3506
201.913
48.8134
65.2581
185.114
63.9586
47.6179
66.548
96.9024
48.9156
56.3924
124.279
39.4922
34.078
35.3806
38.5575
34.3765
38.6658
39.4052
39.6999
34.3824
35.4338
39.345
34.4398
39.1864
39.5585
66.6823
207.553
53.7282
83.6088
66.8811
191.921
54.7419
65.4427
101.76
52.2361
79.8775
57.9986
130.342
54.4571
46.4198
66.9208
40.6314
217.565
40.1891
232.95
47.7086
38.243
41.8494
41.6339
42.7261
39.1215
40.1206
40.0324
37.2102
36.033
38.8667
36.0208
37.3323
36.3693
37.7843
42.9377
41.2107
59.4338
37.2524
238.332
37.1233
39.3516
47.7742
222.343
84.5989
45.2645
238.31
49.8009
42.9346
37.7634
41.3159
38.9001
38.8846
39.1102
39.1034
37.7109
37.2173
35.8861
37.015
37.4195
36.7342
37.2983
37.3049
45.7709
73.1991
39.3661
125.752
39.8311
171.042
45.8262
34.7841
34.9428
33.6093
34.62
33.9822
35.5551
33.4713
34.013
32.3981
32.423
31.6376
33.111
33.4706
32.4798
49.7885
206.162
92.3721
46.1873
190.737
50.1414
46.3755
48.3915
124.35
91.0497
45.9089
165.978
48.561
46.233
35.6003
34.7476
36.6664
34.628
36.1769
33.8064
36.2837
34.9675
32.3396
35.5786
34.0071
34.578
33.002
35.8581
162.842
185.019
163.986
106.847
92.437
104.117
87.2077
154.85
156.025
156.061
74.4868
66.6599
72.4291
63.624
164.533
158.771
162.184
64.426
63.3875
60.4048
59.4739
167.159
162.22
160.531
63.4774
63.9412
59.4172
59.2872
166.034
155.753
150.969
64.5729
64.7731
58.59
57.4024
161.12
144.246
138.529
65.5899
67.091
55.8908
54.7435
151.438
131.458
123.919
68.7961
70.4797
53.9232
53.5289
131.582
117.922
99.0307
70.9393
70.7234
53.2071
46.7957
157.292
175.254
159.394
89.3186
80.2301
104.85
81.0126
122.301
256.547
250.282
145.812
131.411
141.56
229.451
83.9114
232.272
217.915
92.0185
85.762
87.9905
221.285
81.1106
245.925
234.862
79.3035
79.4788
80.7943
241.589
82.6695
253.474
252.261
82.0378
82.7518
82.4305
252.01
80.3665
236.5
239.369
83.6115
82.8368
81.455
234.515
75.7815
215.48
219.328
79.9726
78.6288
76.8756
215.319
71.312
191.638
201.463
77.1535
76.6409
72.58
196.077
66.9664
166.45
175.749
77.8438
77.8861
67.9797
169.469
92.7913
106.896
91.726
44.1041
40.0563
39.2467
32.0104
200.553
255.857
203.308
158.237
109.556
158.742
111.44
139.082
250.037
296.926
167.192
133.568
175.486
251.374
81.3786
206.009
201.273
84.1371
79.433
86.5836
200.156
74.069
210.46
203.701
74.8571
74.0684
75.2851
203.841
70.3302
212.152
199.066
73.06
73.3496
70.9487
197.766
70.4144
209.916
197.325
74.0754
74.0145
70.4145
197.032
69.5704
202.004
194.184
72.7323
72.0785
69.9631
193.362
68.0175
193.6
189.26
70.2976
69.5121
68.5025
187.814
64.7895
177.605
179.96
66.4602
64.9435
66.0452
175.964
93.6206
104.615
91.575
38.7225
30.9105
39.6393
32.1997
172.769
199.397
181.097
120.544
97.5709
117.691
104.362
136.959
243.92
274.93
157.449
135.996
157.045
246.486
115.337
185.65
215.436
106.786
103.125
117.678
207.985
100.8
184.612
186.104
90.2833
85.4768
106.259
185.422
79.4294
190.384
193.355
75.7017
72.7428
83.8825
193.048
69.2528
167.021
172.651
67.6387
65.8023
71.4346
165.861
61.0522
155.598
153.175
61.3235
59.9993
62.8386
150.606
57.3259
150.06
143.809
58.3622
58.2365
58.0302
141.957
56.7758
147.767
138.248
58.7581
59.0948
56.7153
136.672
83.6749
83.8423
69.4434
37.8888
32.0717
36.2186
29.9354
211.316
240.677
214.664
152.006
128.277
150.837
125.816
172.782
320.321
354.244
195.126
173.105
195.703
319.551
120.156
264.406
269.224
127.662
120.612
127.052
263.629
105.663
240.389
251.597
108.65
107.858
106.216
244.302
90.6834
215.642
215.265
96.135
90.4489
96.3883
214.933
84.5919
204.794
216.771
83.2025
82.2552
84.642
213.238
73.1385
166.102
179.363
73.0882
69.4516
77.3703
173.343
63.8456
155.655
164.628
63.2494
61.9286
65.6606
162.533
58.6185
144.314
153.332
59.4242
58.5519
59.9744
150.177
76.026
94.837
86.696
35.5544
29.076
34.8395
28.1428
174.877
193.111
180.604
109.06
93.1892
107.64
93.2074
162.195
175.696
173.482
80.7993
74.5881
83.7916
81.0025
149.836
164.254
153.891
70.4988
67.4827
74.93
70.5637
142.25
144.654
138.292
65.8975
65.3416
66.1564
64.3342
130.552
129.128
121.628
64.1952
62.0599
60.4772
57.2089
115.486
113.549
107.015
60.4531
57.1808
53.9979
51.0591
100.606
99.7754
93.4224