/*--------------------------------*- C++ -*----------------------------------*\
  =========                 |
  \\      /  F ield         | OpenFOAM: The Open Source CFD Toolbox
   \\    /   O peration     | Website:  https://openfoam.org
    \\  /    A nd           | Version:  10
     \\/     M anipulation  |
\*---------------------------------------------------------------------------*/
FoamFile
{
    format      ascii;
    class       volScalarField;
    location    "7.2";
    object      p;
}
// * * * * * * * * * * * * * * * * * * * * * * * * * * * * * * * * * * * * * //

dimensions      [0 2 -2 0 0 0 0];

internalField   nonuniform List<scalar> 
12920
(
928289
994778
762979
709692
565758
521219
449506
408015
361235
325505
288837
256610
224543
194619
164468
135730
107322
79501.1
51947.3
28648.3
1.05266e+06
938997
704833
670095
552250
511581
443546
403363
357864
322906
286870
255193
223438
193554
163818
135203
107198
79488.2
51881.9
28400.4
817623
759624
655386
624489
523750
487988
429844
393375
351231
317993
283382
252434
221328
191952
162639
134298
106457
78898.5
51141.8
28200.3
365364
550734
543814
556385
492736
468710
416054
382031
342575
311061
278257
248430
218273
189460
160696
132663
105504
78283.3
50570.5
28074.8
602926
503154
458735
492861
436026
425085
387109
363569
330106
302065
271203
242834
213455
185315
157337
130153
103557
76936.7
49570.4
27822.6
159150
366657
394664
432523
406697
400467
372339
350133
320435
293588
265249
236700
208497
181055
153507
127077
101343
75381.9
48628.2
27532.6
328823
421310
351470
393464
359355
367919
343851
330142
304509
282296
255115
229467
201606
174848
148915
124118
98951.4
73627.9
47498.4
27046
647589
444540
367061
373942
349291
347824
336745
321140
300093
278602
255329
230381
203814
177170
144134
120073
96033.9
71518.5
46089.4
26392.7
-45811.5
287831
266287
338529
309998
331436
321190
307760
288330
268412
247029
222534
198127
174295
147335
116325
93297
69386.5
44671.4
25697.6
306367
364736
333784
353523
320087
317021
307242
293811
275378
255274
235402
214469
192045
169236
142830
113507
90869
67468.5
43345.6
25150.9
433552
451532
289932
340606
302504
311735
298816
281780
265722
247034
226058
207180
187185
165071
139504
110526
88460.2
65630.4
42100.7
24580.6
434424
454984
377526
361951
321315
310641
293130
274350
257478
239711
221246
200315
179914
159933
136266
107165
85855.8
63792.7
40779
24027.1
314712
410030
341812
340471
302300
294734
279969
263269
244151
226753
208082
189493
170405
150809
122988
103376
83479.6
62139.7
39528.7
23611.7
170771
409877
325568
336605
302975
288999
263639
252803
229886
212713
191202
173944
154743
137032
118661
100471
81301.6
60697
38433.1
23219.4
410987
437398
326210
349487
294032
282183
254372
238921
219339
203940
185844
169234
151175
133911
116171
98168.2
79498.9
59389
37542.9
22922.5
638222
428172
342619
355022
302789
287422
259377
242911
220300
204134
184690
168443
149805
132773
114432
96520
78042.3
58314.8
36701.3
22574.1
497313
404052
322044
339001
288155
278505
249438
236138
214112
199501
181054
165289
147322
130664
112609
94873.2
76622.6
57193.5
35787.7
22093.9
207895
388007
249181
311040
277733
275930
251053
238615
216134
200966
181175
165014
146540
129645
111421
93663.3
75387.3
56179.4
35116.2
21644.4
135769
304062
226033
298299
262816
269641
242695
234171
212498
198693
179658
163787
145549
128614
110447
92687.1
74435
55270
34497.4
21056.4
166835
296271
252057
304347
268281
268504
245058
234432
213523
199087
179911
163646
145385
128348
110140
92398.4
74035.1
54924.7
34414.1
20803.8
1.05579e+06
1.02071e+06
761744
708893
563954
521186
448737
407771
361008
325367
288735
256569
224491
194566
164392
135623
107328
79359.1
51918.4
28563
1.09983e+06
952713
699676
670865
550962
511547
443107
403414
357748
322892
286866
255168
223415
193545
163830
135186
107256
79534.7
51768.6
28360.3
738481
757451
654623
625067
523086
488740
429728
393454
351181
318044
283400
252494
221351
191975
162706
134322
106494
78950.1
51068
28227.1
513624
582551
549307
557354
493548
468969
415981
382093
342511
311023
278283
248464
218305
189519
160760
132663
105503
78320.3
50501.8
28127.6
539605
503935
460942
492495
435261
425646
386564
363538
329913
301968
271083
242498
213332
185376
157351
130069
103546
76989.9
49531.2
27849.5
187601
374268
396796
432142
407515
401460
371780
349885
320559
293403
264698
236691
208395
180834
153256
127065
101340
75440.8
48571.1
27517.2
232329
422105
342421
391447
357686
367231
344115
330395
304651
282100
255366
229350
201637
174849
148864
123937
98920.5
73673.4
47451.3
27031.7
582823
423564
360691
371810
347637
347881
336335
321481
300539
279117
255169
229781
203473
177182
144269
119993
96011.4
71561.8
46053.8
26402.5
-432.435
276978
268260
340255
309469
331101
321010
308298
288359
268806
246802
222661
198263
174321
147314
116252
93273.9
69436.3
44621.9
25754.6
259161
340336
332050
355237
319664
317793
306906
293488
275284
255145
235492
214521
192052
169201
142818
113476
90840.3
67534.3
43325.3
25128.8
431420
405050
289753
343338
301444
311838
298795
281795
265791
246906
226177
207172
187037
164975
139460
110519
88461.7
65699.2
42080.3
24573.7
555748
466726
376460
362094
321007
310710
292818
274339
257384
239310
220909
200271
180265
160287
136283
107200
85841.5
63899.8
40752.7
24037.5
327974
426748
338237
340664
301916
295177
279372
262709
244101
227157
208102
189303
170281
150697
123010
103345
83484
62226.3
39485.9
23626.4
223733
433227
322017
336488
302357
288897
263633
252264
229341
212511
191397
174076
154779
137102
118725
100482
81328.2
60771.3
38367.2
23307.9
386317
445206
321392
347632
293072
282332
254233
239310
219554
204120
185813
169229
151146
133901
116184
98181.7
79532
59490.7
37504.2
22976.9
575883
433183
334886
351726
302391
287184
259198
243066
220356
204345
184801
168439
149778
132775
114436
96541.5
78099
58457.7
36679.2
22635.6
504664
398375
318273
338543
287924
278798
249423
236318
214068
199577
181008
165290
147342
130666
112627
94895.8
76684.3
57345.8
35808.6
22163.3
172856
349551
254218
312824
277444
275979
250800
238496
215943
200888
181113
164975
146500
129612
111387
93624.7
75363.1
56210.5
35054.8
21678
18977.8
288324
230231
301908
262347
269952
242417
234197
212373
198614
179544
163719
145471
128551
110401
92640.5
74413.4
55282.6
34458.3
21048
252944
298432
253565
306374
267430
268733
244699
234278
213354
198977
179849
163587
145357
128335
110116
92378
74058.6
54935.5
34394.3
20842.5
1.33443e+06
1.06454e+06
774022
711119
561717
521310
447680
407502
360698
325265
288645
256538
224491
194571
164515
135707
107515
79406.8
51771.9
28641.7
1.24941e+06
971435
701960
673492
549533
511730
442371
403308
357416
322824
286780
255145
223427
193637
163980
135310
107321
79544.1
51568.3
28323.8
952339
799566
659948
624677
523142
489299
429465
393471
351021
318047
283348
252508
221365
192054
162827
134411
106581
79035.1
50919.1
28233
624847
624989
554744
559372
494838
469534
416251
382484
342574
311114
278239
248414
218336
189619
160959
132694
105518
78400.8
50400.2
28149.9
582121
511137
463176
491494
434930
426063
385865
363468
329726
301906
270755
242192
212998
185118
157105
129989
103545
77110.6
49519.3
27879.8
199858
386822
397617
431296
407776
402050
371695
349652
320254
293080
264447
236734
208384
180751
153107
126969
101340
75594
48515.1
27520
200577
424514
338003
387403
355691
367170
343934
330090
304572
282148
255504
229402
201834
174953
148871
123733
98865.3
73762.9
47412.4
27064.3
421839
388346
348616
367692
344876
347562
335761
321945
301224
278978
254737
229473
203439
177360
144215
119845
95953.7
71663.3
46027.8
26448.3
-123008
261468
261568
343377
308548
330855
320648
308360
289014
269128
246857
222926
198510
174356
147117
116064
93226.4
69543.9
44632.7
25820.6
107892
308664
327504
356134
319641
318483
307638
292989
275038
255308
235723
214528
192080
169134
142648
113222
90771
67661.6
43307.2
25153.5
407518
392923
297149
349176
300528
312221
298929
281999
265713
245768
226258
207135
186729
164796
139382
110374
88412.2
65860.4
42171.9
24608.8
564079
479179
379228
364496
321005
310631
292343
274142
256242
238265
219834
199990
180398
160163
136259
107118
85813.4
64044.1
40868.4
24122.1
508711
466772
345343
343795
301963
294841
278731
262858
244777
227006
208015
189254
170244
150683
123007
103280
83497.8
62398.3
39497
23727
263434
445076
319921
336828
301996
289303
263613
251684
228952
212462
191550
174180
154830
137183
118762
100490
81362.3
60957.4
38403.7
23383.7
333500
454111
317338
347674
292401
282935
254200
239899
219743
204351
185790
169167
151079
133874
116196
98202.4
79585.3
59714.8
37481.3
23009.9
537605
438633
333153
348842
302317
287251
259095
243390
220660
204781
184871
168429
149707
132770
114429
96548.2
78171.7
58747.1
36679.5
22639.5
324551
386446
317860
339966
288480
279476
249330
236466
214050
199735
181037
165352
147392
130684
112651
94918.4
76772.3
57637
35881.4
22228.5
187281
333251
254794
316967
276670
276211
250537
238391
215678
200811
181091
165014
146499
129626
111377
93582.6
75310.5
56293.4
34958.3
21690
27844.3
280061
239366
305834
261564
269975
241917
234098
212079
198480
179380
163636
145391
128501
110351
92602.8
74421.6
55360.2
34441.4
21027.5
277292
338106
255483
308916
266146
268797
244386
234176
213234
198860
179800
163574
145324
128321
110094
92356.1
74076.7
54968.3
34393.4
20902.8
1.3638e+06
1.06547e+06
777101
710385
560940
520782
446291
407056
360274
325137
288529
256502
224455
194569
164576
135706
107455
79517.6
51687.6
28670.9
1.16374e+06
981749
702538
673691
548523
511764
441492
402807
356856
322657
286636
255103
223374
193694
164101
135416
107345
79534.1
51433.4
28361.4
984964
808084
661005
624100
523347
489720
429058
393182
350728
317916
283308
252529
221422
192208
162999
134480
106620
79112.8
50785.9
28137.3
689914
632765
559185
561200
496933
469915
416278
381936
342025
310739
277812
248155
218258
189759
161066
132728
105517
78521.8
50318.5
28034.6
428567
514008
456495
489101
434668
426792
385088
363649
329451
301674
270398
241962
212655
184770
156905
129913
103536
77307.5
49615.6
27739.9
187260
401223
395055
430272
407772
401703
371611
348925
319620
292795
264242
236660
208298
180659
152954
126821
101324
75809.4
48670.5
27379.4
54277.9
370184
328922
382374
354829
367553
343364
329940
304581
282192
255594
229477
201891
174952
148629
123471
98818.6
73932
47439.1
26966.2
280364
363278
340375
364102
343329
347698
335289
321615
300963
278450
254573
229441
203505
177438
144074
119617
95877.4
71834.7
46075.5
26357.4
24022.4
259015
271738
346427
308030
330317
320304
307850
289407
269087
246893
223193
198721
174339
146867
115740
93044.4
69770.5
44808
25767.3
54970
285662
330022
358134
319518
319006
307650
292654
275070
255715
235825
214543
192150
169097
142489
112725
90632.7
67858.8
43451.9
25074.1
326579
364652
305234
353293
300387
311959
298426
281878
264888
246311
226160
206726
186417
164649
139313
110036
88302.8
66079.2
42225.1
24613.9
529554
496216
380607
365767
321240
310500
291819
273294
255505
237527
219065
199837
180394
160062
136218
106739
85721.9
64287.2
40937.5
24119.6
506300
482009
333409
343942
301068
294361
277386
262869
244727
226854
207958
189268
170264
150634
122956
103140
83491
62702.1
39706.9
23686.7
333186
476836
313870
336576
301613
289784
264110
251187
228800
212400
191472
174084
154749
137186
118712
100462
81379
61306.8
38587.7
23247.4
258255
469229
309630
348140
291838
284434
254037
240402
219991
204543
185720
168997
150873
133784
116162
98131.8
79577.6
60093.7
37539.5
22758.9
515630
435654
333594
347741
302304
287927
259217
243891
220972
205132
184847
168331
149557
132682
114381
96515.8
78206.5
59149
36776.1
22390.3
375783
386563
320869
342233
288481
280905
249341
236688
214195
199978
181060
165376
147341
130681
112647
94906.2
76823.3
58018.9
36136.8
21988.7
185003
317888
264231
318871
276076
276485
250406
238365
215403
200788
181111
165070
146493
129612
111332
93496.3
75246.1
56493
35075.8
21505.7
97225.7
279165
250853
307425
261685
269901
241622
233567
211609
198262
179166
163539
145351
128519
110348
92597.9
74448.6
55515.8
34491.2
20946.1
424150
342306
260475
309786
265861
269442
244318
234170
213171
198812
179746
163570
145306
128312
110116
92381.4
74109.6
55031.1
34401.3
20964.5
1.29421e+06
1.10863e+06
786770
713026
560663
520551
445200
406868
359955
325105
288433
256499
224436
194555
164609
135766
107533
79548.8
51656.5
28605
1.13357e+06
963014
702265
675746
547785
511984
440794
402684
356457
322773
286588
255188
223423
193794
164227
135536
107371
79594.1
51350.2
28262.2
941942
814682
661145
623877
523568
490069
428615
392797
350216
317625
283111
252505
221558
192429
163183
134628
106663
79244.3
50630.4
28133.9
630646
642859
562761
562212
498728
470136
416058
381966
341741
310691
277670
248010
218053
189676
161127
132770
105536
78672.5
50179.7
27995.8
293113
512066
449010
486044
434938
427324
384810
363532
329261
301569
270243
241900
212524
184709
156856
129883
103542
77505.4
49461.2
27707.2
249259
417058
393109
429400
407363
401579
371519
348971
319538
292832
264204
236682
208251
180582
152831
126701
101321
76014.9
48536.5
27380.9
-35169.4
358829
325638
380093
354882
368221
343086
330059
304514
282239
255682
229634
202023
174947
148412
123292
98774
74130.8
47370.5
26997.8
269600
354700
337195
362221
342572
348093
335223
320492
300589
278055
254501
229427
203572
177395
143984
119439
95834.2
72026.6
45990.1
26382.6
-52097.2
256743
273984
347891
308186
330172
320143
307500
289256
268987
246923
223425
198954
174362
146761
115524
92930.2
69964.5
44686.9
25816.2
-16685.5
271147
332412
359575
319706
319366
307177
292348
275090
255904
235769
214606
192281
169097
142470
112441
90532.3
68151.4
43343.3
25167.1
314587
360076
305810
356417
303015
312496
297520
281468
264116
245493
226175
206607
186323
164586
139349
109755
88217.5
66316.1
42123.5
24709.5
679043
507996
377400
366746
321696
310148
291342
273045
255387
237295
218874
199924
180500
160065
136207
106568
85649.8
64532.6
40819.4
24197.4
434496
499172
331478
344549
301387
293410
276538
262369
244545
226825
207913
189306
170240
150676
122911
103001
83478.8
63026.3
39568.5
23700.5
419301
493611
309236
337149
301717
290589
264653
250911
228711
212406
191372
174015
154670
137126
118658
100424
81377.5
61679.7
38435.1
23187.1
221603
508693
302996
347243
293526
285208
254630
240891
220011
204653
185610
168782
150563
133639
116064
98038.9
79589.5
60494.2
37410.7
22641.9
494131
433034
332309
347467
302401
289279
259519
244437
221117
205395
184760
168250
149425
132597
114330
96443.3
78215.8
59563.6
36666.5
22257.5
455464
389081
320616
345436
288994
281661
249761
237028
214367
200235
181025
165299
147189
130669
112619
94853.2
76798.2
58430
35981.5
21827.2
176539
319977
259728
320284
275143
277540
250391
238374
215118
200771
180995
165048
146460
129647
111376
93523.2
75242.5
56753.4
34851.5
21504.9
167485
280229
253675
307318
262715
269926
240630
233035
211160
198214
179141
163591
145359
128528
110303
92561.1
74469.9
55693.5
34472.6
20858.3
277091
335222
259955
309804
265723
270010
244265
234246
213146
198851
179741
163620
145328
128341
110133
92378.4
74117.8
55095.5
34389.5
20989.8
240499
247256
233231
255624
240811
247243
233253
219978
228289
214928
235823
219960
228349
214703
231179
240974
226597
245356
231082
239717
225671
212999
221708
206645
226293
212723
220969
206425
311209
310184
299977
321104
311402
310682
300125
292449
296129
282810
308170
292051
296026
282721
272493
278158
263215
288289
272164
278073
263104
251375
258114
242921
268684
251299
257999
242960
227327
237897
221651
246810
227569
237994
221713
203131
216137
198987
222589
203336
216204
199022
179468
193365
176035
198196
179560
193378
176026
156253
170336
153025
174311
156220
170330
152979
297841
301332
288523
306913
297315
301534
288687
280065
284581
272237
293628
279984
284676
272239
260452
267837
253676
275313
260349
267827
253624
240122
248624
232773
255175
240120
248571
232836
219883
227509
213969
235451
219909
227661
213922
197679
209224
193831
214504
197687
209181
193772
174923
188327
171665
192046
174906
188284
171619
151896
166052
149317
169213
151848
166009
149282
286454
292310
279487
298823
286446
292473
279396
269905
275512
263570
281815
269971
275439
263566
251993
259590
247717
265779
251947
259685
247378
231375
243121
227786
246968
231385
242752
227633
211573
222470
206693
226140
211628
222421
206763
192522
201526
186539
207161
192402
201629
186788
170641
181691
166950
187097
170562
181980
166955
148349
161840
145738
165013
148293
161750
145520
278541
290881
274743
293064
278525
290429
274530
261555
270855
254501
274359
261491
270956
254205
244626
250653
236255
257469
244073
250715
236261
226141
233459
218067
239504
225852
233158
217909
205428
214659
198994
221066
205396
214563
198862
184843
195904
179624
200312
185016
195579
179356
164862
176329
159925
180163
165200
176090
159710
144217
156493
140057
160274
144374
156353
139944
311458
310768
300181
320796
311463
311187
300311
292088
295977
282679
308429
292515
296080
282537
272249
278029
263065
288794
272647
277879
263036
251289
257978
243002
269060
251441
258193
243231
227702
238046
221744
246831
227984
238214
221821
203469
216237
199045
222852
203794
216327
199123
179616
193393
176025
198445
179739
193457
176018
156302
170326
153013
174357
156128
170301
152780
297175
301385
288764
307716
296888
301696
288889
279948
284768
272239
293079
279762
284793
272207
260306
267816
253590
275098
260226
267755
253453
240166
248529
232872
255193
240396
248414
233157
219931
227744
213902
235659
219975
228148
213591
197694
209157
193730
214536
197712
208929
193534
174898
188249
171590
192072
174870
188091
171476
151894
165983
149318
169150
151697
165884
149210
286456
292078
279391
299052
286493
291600
279368
270000
275421
263558
281951
270039
275340
263188
251904
259700
247114
265764
251724
259050
245968
231379
242498
227531
246811
231309
241394
226928
211656
222370
206785
226264
211318
221965
206702
192338
201692
186875
207052
192109
201717
186928
170522
182050
166910
186811
170391
182030
166717
148302
161686
145488
164838
148167
161472
145312
278509
290094
274329
292717
278403
289853
273195
261461
270771
253920
274235
260899
269746
253746
243768
250529
236230
256529
242847
250514
236145
225648
233031
217857
238526
224788
232754
217726
205321
214481
198823
220113
204885
214145
198753
185076
195477
179312
200062
185160
195248
179412
165239
175990
159735
180403
165211
175944
159918
144391
156317
140010
160201
144274
156362
140106
311399
311090
300321
320508
311111
310984
300072
292722
296088
282503
307952
293104
296073
282614
272748
277842
263103
289346
272867
278006
263399
251540
258302
243321
269107
251677
258619
243509
228078
238265
221840
246886
228275
238382
221911
203902
216352
199151
223123
204124
216458
199255
179768
193483
176016
198673
179801
193581
176015
156147
170290
152803
174350
155828
170269
152515
296779
301542
288881
307838
296516
301542
288685
279716
284751
272171
292740
279690
284493
271845
260237
267715
253386
275031
260501
267415
253206
247899
250327
252782
255415
247766
250435
252854
227758
230626
232687
235791
227827
230671
232713
197720
208829
193459
214530
197766
208638
193250
174863
188030
171443
192126
174852
187861
171355
151734
165846
149247
169101
151479
165759
149094
286469
291400
279342
298718
286241
291243
279408
270004
275306
262899
281978
269470
275223
262014
251639
258647
245521
265161
251222
257672
244266
240202
240618
245330
244701
240317
238894
245227
219862
221676
224978
226252
219962
221942
224872
192027
201694
186904
206965
191768
201564
186810
170344
181997
166651
186486
170209
181883
166484
148196
161406
145332
164680
148035
161254
145162
278327
289322
272660
292129
277783
288128
271957
260561
269274
253795
273476
259928
268444
254070
242598
250437
236093
255626
241995
250327
236036
224459
232661
217694
237675
223743
232510
217681
204718
214060
198743
219182
204487
213965
198793
185157
195192
179475
199852
185141
195192
179706
165183
175948
159995
180388
165113
176051
160276
144292
156367
140255
160078
144123
156496
140335
310985
310787
299953
320367
310619
310536
299575
293214
296007
282658
307595
293163
295770
282724
272888
278083
263482
289304
272876
278235
263636
251701
258734
243539
269017
251709
258886
243529
228328
238405
221942
246922
228466
238417
222009
204181
216504
199294
223393
204350
216628
199418
179785
193621
176019
198913
179802
193757
176039
155878
170268
152610
174370
155655
170294
152315
296412
301293
288571
307467
296099
300994
288189
279697
284385
271684
292412
279665
284079
271228
260578
267252
253143
275116
260729
266762
252780
240863
248422
233280
255901
240866
247877
233209
219951
228351
213400
235791
219935
228310
213512
197791
208552
193190
214588
197885
208512
193119
174855
187812
171333
192244
174867
187773
171307
151604
165739
149174
169097
151375
165706
148960
286114
291036
279413
297859
285691
291320
279244
269228
275147
261826
281558
268669
274943
261525
251032
257464
244002
264231
250418
257134
243551
231013
239468
225482
245558
231031
239054
225139
211154
220814
206336
226194
211558
220515
206169
191689
201512
186785
206634
191539
201433
186773
170175
181856
166445
186311
170116
181843
166380
148125
161220
145242
164592
147934
161172
145052
277508
287161
271797
291643
277093
286077
271741
259801
268261
254075
273036
259656
268027
254037
241853
250256
236018
255378
241642
250111
236054
223599
232477
217681
237309
223348
232439
217713
204457
213956
198818
218885
204454
213982
198949
185146
195226
179772
199891
185210
195372
179941
165097
176103
160332
180466
165070
176257
160433
144183
156528
140490
160056
143960
156626
140276
310498
310216
299459
320903
310604
310412
299304
293157
295698
282699
307208
293320
295590
282632
272907
278220
263639
289060
273166
278178
263626
251729
258889
243503
268855
251866
258871
243433
228502
238408
222026
246922
228668
238371
222043
204393
216666
199453
223473
204642
216727
199487
179809
193798
176047
199089
179989
193848
176037
155798
170312
152446
174454
155734
170329
152078
296013
300700
288083
307362
295892
300860
287987
279630
284003
271139
292256
279564
283923
271065
260729
266663
252704
275047
260716
266582
252652
240849
247832
233205
255892
240786
247830
233246
219931
228300
213535
235714
219916
228316
213519
197923
208507
193133
214627
197977
208495
193165
174870
187794
171315
192335
174857
187843
171337
151554
165708
149108
169084
151261
165710
148784
285552
291318
279178
297747
285371
291991
279156
268569
274916
261509
281362
268467
274975
261603
250309
257111
243497
264008
250215
257212
243545
231017
239006
225086
245455
231028
239046
225069
211554
220467
206149
226165
211526
220444
206132
191545
201435
186797
206580
191565
201447
186835
170116
181866
166378
186362
170140
181918
166389
148097
161175
145223
164588
147811
161198
144974
277051
285635
271755
291654
277095
285578
271753
259660
267929
254005
273172
259746
267730
254030
241622
250006
236085
255496
241691
249748
236150
223316
232409
217740
237372
223311
232289
217837
204466
213965
198996
218900
204489
213776
199085
185236
195374
179989
199998
185270
195264
180088
165068
176262
160458
180561
165073
176128
160470
144098
156626
140457
160104
143827
156520
140182
242685
245425
237591
240624
242602
245546
237654
245900
250877
242859
246559
245617
250908
242708
240414
235181
237895
233459
240177
235352
237637
248011
255522
250641
253058
250542
252968
248093
242781
240733
245760
237896
245659
237744
242925
245970
246511
250894
242890
250897
242808
245802
240547
233382
235465
237910
235464
237550
240506
222586
225406
217651
219968
222682
225430
217564
225517
230343
223709
228564
225488
230497
224354
220337
215590
219241
215362
220573
215385
219713
227755
235821
230649
232891
230676
232758
227844
222555
219961
225400
217554
225425
217534
222622
225568
228597
230609
223770
230596
224331
225604
220298
215416
215451
219153
215342
219719
220511
234891
236077
229943
231071
235032
235504
229808
238429
243693
236213
240510
238781
243303
235762
233415
228632
231482
226261
233715
228397
231090
240008
244484
240528
244755
238741
245052
239747
234697
230907
235821
229569
235203
229648
234522
238048
240069
242414
235030
242851
235342
237637
233071
225926
227824
230412
228117
230705
232720
214581
217332
209799
213948
214736
219009
209779
218290
223554
216675
221441
218396
223382
216472
213069
208156
211676
206585
213161
208053
211547
219733
226107
221834
224665
221891
224720
219756
214505
214317
217577
209723
218798
209780
214616
218142
221171
222953
216114
223170
216257
217991
212944
206511
208015
211304
208002
211414
212910
328657
328531
322087
336783
328665
328766
321909
308247
313595
302460
321235
308194
313497
302645
287851
292536
281710
300210
287633
292649
281815
264356
271927
259939
278748
264570
271782
259683
240254
248563
235732
255336
240226
248395
235492
214637
223733
210304
230075
214671
223803
210449
188730
198672
185461
203586
188786
198722
185491
164128
173923
160719
177077
164071
173960
160650
321148
325081
316769
331375
321064
324834
316685
315297
317817
319693
321060
317893
319638
315301
298162
301526
303051
307921
301604
303009
298151
279326
282744
284515
288302
282637
284479
279360
259328
261929
264670
268454
261948
264623
259331
237041
239556
243261
246943
239514
243270
237019
213462
215259
219792
222523
215304
219810
213449
189943
191313
196107
198128
191337
196107
189935
166654
167887
172732
174293
167887
172725
166655
134429
145171
132671
147331
134377
145201
132603
306886
315981
306730
317723
307398
316302
306956
300101
303545
303063
306863
303346
302787
300084
286491
289323
291003
293782
289293
290914
286526
267869
270538
272619
275362
270514
272609
267883
247369
249950
252702
255249
249926
252694
247370
227949
230381
232640
235407
230387
232605
227958
207404
208923
212756
214474
208927
212751
207405
185114
186341
190742
192042
186337
190737
185118
162431
163491
168105
169229
163477
168095
162443
131308
141310
129913
142863
131269
141325
129860
301279
312737
301187
311751
301261
312193
301344
294062
294584
298864
298704
294551
298782
294113
274804
277212
278405
281837
277242
278456
274783
259563
261344
263691
265740
261357
263707
259533
240558
241921
245611
247028
241915
245607
240568
219583
220825
224788
226078
220866
224807
219549
200316
202500
204807
207162
202499
204848
200308
180540
181713
185791
187174
181704
185765
180568
158566
159512
164082
165059
159503
164067
158578
128199
137821
126598
139489
128158
137779
126571
297476
311917
297261
311230
297799
312946
297143
287256
287297
291313
292954
287264
291052
287303
268609
270011
273318
274358
270008
273317
268596
250871
253441
255165
257476
253438
255126
250893
232221
234873
236904
239710
234911
236868
232258
214364
215920
219187
221204
215905
219145
214441
193774
195063
198997
200323
195073
198985
193775
173423
174883
178526
179953
174932
178510
173424
153320
154751
158426
160067
154892
158405
153305
124433
135319
121467
136298
124387
135247
121646
271215
275256
264702
279933
271109
275183
264491
252505
258294
247417
262976
252245
258209
247283
234290
240008
229018
243994
234374
240168
229039
216538
223075
210312
226992
216632
222930
210382
197209
203892
192478
208101
197140
203888
192533
178662
185704
173786
189396
178581
185728
173785
159385
166861
155355
170368
159329
166878
155338
139431
148541
135698
150726
139364
148488
135626
328523
328617
321565
336390
328323
328840
321335
308489
313236
302602
321748
308901
312870
302481
287318
292624
281752
300932
287234
292430
281600
264849
271489
259563
279116
265002
271352
259600
240324
248380
235460
254877
240381
248474
235543
214820
223954
210632
229550
214863
224075
210817
188941
198813
185558
203418
189027
198920
185619
164189
174048
160964
177273
164034
174138
160771
320926
324570
316465
331233
320632
324747
316196
315216
318078
319338
320957
315258
318070
319225
298306
302109
303331
308394
298265
302292
303385
279203
282245
284356
288437
279211
282253
284333
259256
262210
264580
268893
259241
262236
264618
237335
239675
243348
246796
237245
239775
243395
213713
215604
219955
222717
213631
215707
220021
190082
191568
196191
198317
190040
191643
196239
166626
167922
172729
174335
166644
167933
172730
134395
145140
132677
147253
134137
145059
132403
307474
316260
306739
318726
308064
317115
306940
300452
303022
302890
307367
300299
303096
303256
286172
289083
290450
293334
286254
288998
290317
267695
270398
272534
275232
267732
270350
272499
247448
249918
252648
255129
247407
249988
252657
227903
230462
232566
235542
227916
230501
232585
207344
208962
212696
214534
207374
208970
212663
185069
186334
190721
192059
185082
186333
190711
162389
163438
168069
169186
162408
163407
168055
131388
141306
129943
142772
131157
141295
129741
301119
311814
300516
312426
300959
312140
299462
293847
294631
298638
298962
293907
294677
298673
275084
277511
278778
281831
275001
277627
278922
259605
261360
263820
265795
259619
261340
263843
240312
241824
245466
246819
240399
241763
245390
219828
221047
224886
226220
219758
221145
224909
200477
202429
205059
207210
200443
202390
205122
180265
181591
185593
186967
180347
181532
185516
158415
159429
163939
164931
158462
159390
163887
128185
137733
126628
139425
128005
137697
126470
297354
313162
296988
311104
297107
313988
297319
287133
287101
291030
292966
287189
287111
291167
268557
269953
273308
274324
268584
269926
273280
249978
252975
254838
257167
250227
252616
254638
231790
234684
236586
239071
231929
234475
236445
213481
215723
218616
220678
213741
215521
218384
193439
195095
198727
200212
193551
195075
198589
173584
175248
178576
180356
173549
175294
178612
153534
154999
158655
160271
153508
154971
158708
124450
135193
121950
136281
124311
135189
121957
270711
274692
264286
279437
270211
274652
264577
252058
258062
246982
262652
252147
258014
246620
234295
240292
229274
244471
234295
240195
229468
216582
222994
210559
227093
216439
223216
210783
197116
203817
192600
208047
197119
203812
192653
178479
185773
173826
189250
178430
185799
173853
159281
166933
155352
170232
159254
166966
155357
139387
148468
135699
150685
139175
148434
135570
327799
328316
320977