/*--------------------------------*- C++ -*----------------------------------*\
  =========                 |
  \\      /  F ield         | OpenFOAM: The Open Source CFD Toolbox
   \\    /   O peration     | Website:  https://openfoam.org
    \\  /    A nd           | Version:  10
     \\/     M anipulation  |
\*---------------------------------------------------------------------------*/
FoamFile
{
    format      ascii;
    class       surfaceScalarField;
    location    "7.2";
    object      phi;
}
// * * * * * * * * * * * * * * * * * * * * * * * * * * * * * * * * * * * * * //

dimensions      [0 3 -1 0 0 0 0];

internalField   nonuniform List<scalar> 
38556
(
2664.83
-137.973
1765.77
2213.86
419.672
31.3033
1594.71
436.014
183.132
1503.7
319.767
-228.751
1285.08
110.967
107.649
1289.53
28.2457
-32.6929
1280.13
-3.45199
12.8475
1317.42
0.518888
-37.8072
1354.27
-3.49881
-33.353
1411.52
-1.17649
-56.0679
1467.76
-2.43086
-53.8114
1533.09
-4.90283
-60.4277
1640.12
-17.5661
-89.4613
1822.95
-45.978
-136.861
2008.74
-53.1012
-132.68
2098.46
-39.0715
-50.6503
2081.53
-19.8942
36.821
1934.91
27.0646
119.559
1681.63
43.9684
209.309
-1.54698
137.897
1623.06
-268.082
-1077.1
1940.43
611.597
-509.294
1715.8
418.836
241.801
1672.55
427.793
-64.7729
1408.25
166.486
208.781
1333.78
18.8779
83.8347
1299.43
-77.9766
108.879
1319.27
-100.005
80.6878
1341.14
-118.874
93.5008
1373.89
-111.675
77.7455
1403.84
-109.776
77.3982
1454.77
-106.998
51.1643
1523.81
-117.877
31.2762
1593.43
-133.733
18.1314
1635.76
-126.058
30.6222
1629.43
-79.0429
46.3085
1532.85
-15.7483
92.4345
1384.74
51.0931
124.079
1261.45
69.9205
97.3372
33.4456
22.9635
1141.85
-813.494
525.656
1444.91
157.233
151.299
1471.46
236.982
155.309
1532.74
245.664
120.851
1499.43
54.2283
145.567
1516.08
-40.2632
42.487
1487.43
-131.209
81.881
1475.28
-164.656
76.804
1430.51
-177.515
103.411
1383.28
-156.756
92.312
1318.29
-131.792
87.0032
1266.46
-115.43
60.2677
1233.86
-123.229
37.947
1215.4
-128.572
13.2964
1210.16
-115.267
-5.54748
1202.42
-57.0021
-14.2961
1180.4
16.387
-10.1217
1153.3
68.009
10.1855
1115.83
82.7419
24.6526
55.3438
4.65088
881.041
-847.921
1041.88
1329.15
399.432
-690.307
1518.92
512.829
-465.618
1613.67
367.538
-216.622
1560.19
207.279
-99.5752
1566.96
42.0262
-89.052
1539.78
-80.2392
-23.7915
1537.67
-149.249
-13.3041
1514.6
-182.019
27.5823
1474.84
-162.243
45.2473
1372.51
-108.616
79.1543
1261.07
-70.4883
66.4962
1179.95
-80.0199
37.9041
1124.86
-89.1049
15.6289
1081.99
-69.2791
-3.12312
1043.51
-16.2556
-2.2664
1013.08
39.2221
7.59902
985.081
81.7633
14.2449
960.988
93.759
13.0759
70.1255
-1.1705
979.177
390.849
-1215.21
1300.3
131.081
-52.7709
1373.69
460.401
-20.9599
1483.76
417.622
-160.161
1483.24
268.774
-60.973
1526.51
164.314
-165.555
1535.98
-11.7753
-77.9381
1547.79
-86.3746
-74.6832
1538.02
-144.421
-27.8293
1519.93
-114.858
-29.2889
1435.86
-52.2628
27.7157
1305.34
13.9655
46.0653
1179.7
-1.92934
47.5432
1097.69
-33.7051
26.6186
1047.05
-36.9544
18.3061
1006.51
16.5219
7.76926
979.708
62.7313
3.29037
963.34
95.6937
2.43832
951.702
103.374
2.02305
82.1603
-5.92728
1495.68
-576.427
-709.977
2095.93
-385.854
-83.3189
2191.8
274.458
90.0782
2241.64
314.029
53.7553
2140.15
304.518
65.742
2095.38
225.733
-16.6422
1983.6
36.6223
63.3756
1841.93
-5.11944
60.4204
1698.77
-56.7679
55.5009
1608.06
-26.7674
2.61774
1556.76
-10.3446
9.39007
1485.75
67.1067
17.8633
1353.98
72.6982
57.1424
1193.73
49.4693
77.0736
1077.84
31.7048
47.2324
1019.52
50.7307
24.1098
998.308
76.3641
7.58337
996.943
97.7247
-0.666588
1006.66
100.404
-6.75082
84.2067
-9.56144
2571.04
527.563
3102.59
1605.47
235.43
344.288
1407.34
-68.0741
540.669
1460.3
61.8883
199.179
1459.44
50.1197
255.251
1408.38
140.35
136.446
1354.1
5.46747
131.33
-25.5557
4.32877
-24.6627
1357.73
-17.8926
53.7951
-18.4072
-12.1095
-14.1421
1382.18
-20.3791
-1.6948
-26.3127
-12.8389
-19.9942
1433.65
-13.2768
-36.1606
-15.4998
-5.36955
-7.93028
1536.8
-6.9255
-82.1934
-15.8525
0.95031
-9.47309
1669.15
2.52446
-80.9017
-3.60813
10.7502
5.99224
1719.13
15.5937
-42.7503
12.9821
19.3644
17.5334
1635.57
25.0039
21.1622
31.609
26.8644
28.3832
1408.61
141.055
117.615
1200.54
137.441
121.364
1109.94
118.543
48.4175
1078.71
110.384
18.5656
1076.47
93.9945
8.65604
70.8227
7.56768
2499.69
2247.69
960.915
2151.44
333.636
250.047
1783.25
-108.77
408.876
1612.44
-21.96
254.662
1425.16
-22.153
259.558
316.796
38.311
74.1141
318.101
315.066
311.494
83.5446
36.6229
71.4571
289.692
21.001
11.5709
-257.782
248.472
-10.9765
2.39423
-248.81
256.625
-23.1974
-4.99682
-262.214
275.752
-16.0273
-10.7878
-282.275
292.611
-4.04717
-13.2147
-295.485
309.127
0.103848
-11.2209
-318.225
330.01
12.6214
-8.81309
-332.026
326.367
29.0057
1.65766
1087.08
43.7262
29.9314
-308.067
-266.25
-305.402
-254.369
37.4062
41.1326
35.8725
1042.08
156.905
25.5362
1023.79
126.974
9.85704
1022.1
104.265
7.80796
1034.09
74.7584
7.24002
54.1709
5.20398
112.92
1610.98
-526.442
669.493
141.417
-364.355
672.343
-301.55
189.929
731.101
-53.2835
-27.4343
107.913
30.5605
174.077
119.225
136.609
140.564
124.013
12.1303
10.0805
-14.9735
-43.166
43.4036
14.1543
0.581693
-48.9272
-1.50363
52.7531
-1.07202
-1.25026
-56.4715
5.84049
57.6807
-6.47122
-0.578476
-59.4195
2.71226
61.0521
-2.73661
-1.60822
-62.2702
-2.02139
63.7066
1.80966
-1.2247
-63.3438
-3.59199
64.2766
3.56584
-0.906666
-63.8961
-5.02552
64.4143
5.20961
-0.702295
-64.1131
-8.70665
64.328
8.64978
-0.158081
-63.4196
249.412
41.1397
3.0227
-62.6908
-62.5335
-61.2043
965.905
143.04
10.4083
-245.62
-243.096
-238.968
-234.765
971.699
124.851
-3.67107
989.35
95.6446
-9.03003
1013.98
56.3335
-6.20533
42.9632
-2.97782
2172.65
759.636
367.233
2282.79
-138.63
169.906
1934.87
-192.853
239.218
1818.22
63.1921
0.180571
336.688
213.94
148.127
350.69
394.258
405.074
-2.99819
292.108
43.0949
4.48343
1.96439
-61.4794
57.8664
3.22675
-1.5781
3.65429
-53.103
52.3772
-2.05472
-0.873782
6.24976
-51.5634
51.5762
-5.83127
-0.431279
2.33794
-53.2815
54.4066
-2.97417
-0.48883
-2.64271
-58.1275
59.4673
1.87666
-0.573774
-4.39247
-62.0611
62.5565
4.27222
-0.375227
-6.13301
-63.4826
63.7097
6.30432
-0.398402
-9.02649
-63.9768
63.9961
9.1584
-0.151183
-63.6467
-39.8027
251.95
38.7232
1.578
-63.7746
-62.2419
-62.7851
1018.73
139.219
-2.0325
-251.881
-261.898
-243.951
-255.141
1023.94
133.601
-13.9647
1036.91
108.85
-26.1795
1046.41
69.7496
-22.9145
56.4153
-16.2132
1965.83
-42.8065
-3818
1306.41
-264.91
785.693
1032.74
-298.288
379.109
929.682
65.8282
100.422
152.373
219.119
231.75
176.582
177.629
186.17
-79.3433
166
51.1671
14.5492
-17.0536
-49.1623
52.3599
12.8994
0.956518
-2.19811
-60.2192
61.613
-0.521672
1.32603
4.80889
-59.6689
58.7402
-4.6478
0.767543
4.37682
-57.3058
57.0827
-4.67309
0.51934
1.44411
-57.2508
57.4189
-2.49435
0.882144
-1.86393
-58.1069
58.749
0.628278
0.593616
-4.73902
-61.1208
62.0889
3.42491
0.345952
-7.47085
-65.3963
66.4384
5.99735
0.431398
-68.731
-34.5839
275.876
23.4829
5.60593
-67.2553
-67.7348
-66.6595
1125.35
96.8132
8.60459
-278.226
-274.203
-270.481
-268.644
1143.04
121.866
-5.9506
1147.95
114.297
-10.3537
1130.53
96.1609
-8.99233
83.5748
-12.5213
2113.37
1125.05
-107.278
2500.11
378.316
-1029.97
2427.98
8.46873
-234.631
2204.54
185.176
104.099
415.121
302.615
377.019
413.609
453.843
461.448
-2.66641
377.165
2.92468
37.6983
6.68403
-90.3639
91.7643
-7.67036
-0.414123
11.6917
-92.6503
92.7772
-10.5773
-1.2413
5.8599
-93.0161
91.8593
-5.27806
0.574954
-0.738089
-83.6132
80.7815
2.62601
0.94382
2.93039
-72.5596
69.9008
-0.722772
0.451166
1.81304
-63.6929
62.7178
-1.95758
1.11973
0.442466
-61.1352
61.0815
-1.18374
0.794969
-0.2668
-61.3694
62.03
-1.07411
0.6803
-63.1265
-9.11589
254.414
-2.81044
5.47191
-61.1799
-62.806
-60.8475
1044.01
43.1242
-9.4591
-255.84
-235.536
-253.63
-235.858
1088.6
88.2604
-10.9796
1104.92
98.5777
-0.600706
1094.5
108.75
-2.1724
103.852
-10.0342
1917.07
1788.97
-134.113
1865.99
608.149
-178.752
1446.42
431.689
-3.64908
1239.33
421.257
-28.9925
1013.73
336.15
192.066
230.554
97.2977
50.7269
-20.2171
0.8402
-40.821
-18.4298
243.665
227.305
242.811
0.930511
232.942
-9.66073
9.71325
-4.7202
2.61019
-1.26104
5.0145
-229.862
236.58
-25.0778
1.1268
3.03218
5.49597
3.69002
5.596
-244.908
258.982
-25.5304
-3.32834
2.04603
5.38869
1.75397
0.503983
-267.123
281.102
-6.17197
-1.59216
-3.47993
0.237153
-3.47621
0.561539
-288.775
293.685
-3.04073
1.84989
-2.51099
0.625642
-2.39504
1.63088
-287.552
282.695
1.63819
3.17669
-1.32082
1.38376
-1.65123
2.85483
-268.15
258.298
0.799286
4.98352
-0.254052
2.32347
-0.855394
3.2469
-243.13
232.582
0.212582
4.47346
0.257449
2.69297
-0.33492
834.704
33.3125
-13.0247
4.90397
-8.35453
0.298425
-14.9004
-219.757
-205.296
-212.332
-199.553
862.044
32.4978
-16.7144
904.897
62.73
-17.3226
940.143
71.8682
-8.53591
957.147
96.8394
-5.0934
102.704
-8.7335
695.48
897.705
1179.56
1436.02
285.02
-417.414
1606.66
377.528
-116.473
1736.35
308.158
-16.5975
1646.41
320.766
105.33
1472.62
213.062
58.0239
1205.7
170.033
94.4301
12.8685
-7.35362
11.0788
-14.1338
1063.12
-2.50909
34.3416
30.6113
30.479
25.5363
24.1185
978.543
40.2814
11.4427
22.1408
-0.0601688
17.3841
-6.61192
920.888
18.4394
13.7117
15.2759
1.42856
10.7454
-1.9463
867.93
66.4332
15.6351
3.72249
-16.5312
1.5579
-17.8596
827.78
49.2133
20.6674
-1.15912
-13.5687
-1.85106
-13.1515
798.699
56.5884
15.2023
-3.69525
-18.0277
-3.17546
-17.8115
787.236
34.7663
7.65901
-2.02176
-13.5325
-1.87777
-13.5305
782.627
37.1323
0.789689
783.968
35.0438
-3.88669
805.45
46.999
-5.75144
832.883
48.9545
-4.51936
862.21
69.9213
-2.40897
80.4311
-1.86055
-216.402
-1.60978
2258.78
402.662
-0.175229
-333.868
1093.89
67.4312
-381.129
1345.46
191.362
-134.772
1247.78
320.141
98.3041
1077.95
331.567
51.3161
874.623
264.942
108.423
757.477
99.6749
14.9621
737.85
54.0279
5.87988
737.242
18.9991
0.0483332
749.542
43.5407
10.5927
756.81
35.9503
5.99569
762.287
44.1694
6.94197
760.356
34.213
2.48371
759.637
35.6227
2.22921
761.115
31.717
1.84798
768.269
38.3588
1.48657
778.428
38.2823
0.512829
795.584
49.1584
3.60701
56.6399
4.31729
53.706
993.37
-323.569
301.167
220.336
-467.972
1200.49
224.094
-1055.99
1426.27
291.579
-325.995
1427.09
386.655
-67.3337
1358.37
383.516
16.7755
1170.05
349.224
104.031
979.44
221.842
68.4455
828.97
137.63
66.8685
759.431
62.2542
26.2841
743.2
47.6323
12.139
740.459
31.9799
6.71138
743.799
35.8506
4.97931
748.443
28.7924
0.776411
752.945
30.3093
0.811421
756.493
27.9474
0.220971
763.869
30.8571
0.125822
771.509
30.7615
-0.118598
781.536
35.3503
3.78077
39.5931
3.29778
177.677
1381.87
1804.04
615.434
545.876
-763.297
850.596
687.072
-698.14
1005.73
459.602
-323.155
1063.05
392.109
-62.7793
1124.74
306.9
14.9285
1096.59
286.402
90.9703
1051.21
228.15
39.0696
938.482
179.426
70.9359
838.57
119.368
42.7978
771.717
83.2959
31.1898
735.365
57.633
10.6989
726.905
45.2855
-0.975163
724.734
33.9989
-3.03588
728.419
29.3994
-2.77508
733.57
25.0455
-2.24838
743.886
23.5998
-3.05903
754.809
22.8217
-2.98376
765.834
23.0533
1.27294
25.8871
-0.349311
1044.36
-733.599
-2170.62
853.261
533.854
203.12
967.332
565.618
7.38363
1088.01
444.118
-105.199
1058.09
414.768
7.26901
1067.25
319.804
-22.07
1008.2
308.359
37.0966
959.892
252.957
23.4996
887.838
216.526
34.9543
833.703
171.352
2.15108
793.339
130.007
-6.3479
774.738
94.7337
-18.4997
772.006
64.8067
-16.7897
774.75
46.2983
-15.043
780.473
34.9541
-11.2782
786.125
28.3336
-8.93996
792.717
24.2544
-7.24615
799.656
23.4445
-7.56219
808.56
20.8782
-6.72807
23.2636
-9.00671
-23.6908
-637.562
-284.764
363.786
243.954
-97.5765
406.453
281.187
241.764
536.183
353.017
-38.629
554.853
256.932
139.166
665.713
211.117
-2.17157
751.469
163.112
59.4909
805.757
179.52
19.149
830.987
171.462
19.8336
843.357
163.88
-4.89819
850.639
143.575
-20.8496
859.216
121.588
-35.4312
866.101
95.2718
-37.3499
868.981
77.6354
-34.217
870.4
58.4739
-24.9383
870.619
45.8943
-17.7804
872.489
36.6312
-14.2467
876.418
35.3503
-15.8349
883.717
33.4849
-19.9055
38.0314
-23.8705
1241.46
-1157.95
1807.12
-321.698
1597.6
490.707
1571.7
378.916
1329.39
499.237
1188.22
352.293
1076.47
274.864
1055.15
200.831
1062.6
164.013
1098.07
128.415
1137.79
103.852
1188.91
70.468
1235.11
49.074
1275.88
36.8626
1304.75
29.6073
1315.91
34.7341
1308.9
43.6382
1290.97
53.2857
1267.37
57.0866
48.9208
1172.96
307.286
1149.59
1437.63
410.742
-644.114
1264.53
436.872
-80.6364
1168.23
292.057
-424.506
1028.16
84.0114
163.7
1059.86
-7.98375
-56.4014
1103.66
-67.1315
36.1754
1164.58
-72.9168
-25.8082
1218.55
-83.637
-3.6929
1275.31
-81.4075
-31.4198
1324.69
-82.3308
-20.8526
1377.38
-79.8037
-33.3147
1430.02
-87.7704
-54.3296
1489.5
-105.7
-90.65
1581.31
-111.333
-113.15
1669.59
-90.9169
-48.012
1684.68
-48.3562
70.0863
1615.85
-8.52232
196.903
1519.92
19.6987
285.546
2.92312
180.291
712.467
-313.055
-93.3664
716.484
196.636
-299.205
1059.92
53.1054
282.134
1108.64
139.024
39.5377
1115.57
-10.7786
296.642
1146.95
-39.4015
83.8704
1158.09
-102.565
133.173
1182.83
-95.1817
78.2094
1199.98
-103.944
96.6596
1220.41
-92.5371
68.4461
1241.92
-96.0457
69.602
1272.35
-92.323
33.2526
1302.42
-96.7244
10.163
1327.25
-98.8483
-13.551
1336.81
-84.8669
-5.39703
1315.35
-45.5563
22.406
1253.02
11.5618
94.8397
1188.5
55.1237
124.962
1144.4
64.8156
96.312
36.5211
14.4961
325.68
581.427
-1001.22
855.026
114.84
-296.253
1199.83
47.1996
-183.59
1269.71
147.805
42.194
1281.2
36.1462
87.1446
1291.82
-16.2732
8.74543
1263.31
-78.9392
86.7582
1248.96
-78.6774
74.6584
1213.67
-80.7321
115.48
1177.47
-58.4029
94.383
1138.76
-61.903
91.5749
1108.79
-60.8235
58.7369
1085.76
-72.2848
36.5367
1070.53
-75.9075
5.58259
1054.59
-58.5388
-15.9313
1031.02
-10.628
-25.6635
1007.21
37.2485
-11.9891
992.809
67.4416
12.2646
982.318
72.4114
27.5469
47.9805
1.67268
3501.16
1350.52
2988.18
2324.04
546.826
54.8305
1702.96
458.962
-256.298
1520.03
312.594
-198.485
1341.35
175.537
-60.2877
1281.42
37.6518
-83.0453
1231.11
-51.8566
-0.558946
1213.95
-67.8534
-6.96709
1189.14
-72.0095
43.6691
1155.4
-33.1259
53.7103
1107.28
-17.5927
82.9597
1055.85
-7.34626
64.4467
1008.03
-28.1622
41.6076
969.783
-36.979
14.9443
937.448
-22.5841
-6.74346
909.754
17.483
-2.68309
893.517
52.5731
8.51128
883.671
76.1364
15.3964
874.505
79.1524
15.5004
56.0829
-3.04693
914.118
1380.56
-3039.17
961.744
695.989
-249.56
1027.1
476.73
-104.079
1083.18
264.172
-167.826
1122.82
107.277
-32.3513
1144.98
5.06652
-155.13
1155.59
-87.7626
-52.6415
1161.57
-80.7573
-67.7609
1149.69
-74.9234
-13.0349
1124.68
-19.196
-18.208
1082.31
19.9057
32.5884
1028.05
53.6105
39.3729
971.33
25.3784
50.7192
928.532
0.239389
32.1977
900.996
-1.42801
24.686
879.278
36.1297
10.8412
866.811
64.5991
3.73103
860.441
82.4607
2.48408
855.771
82.0674
3.77758
60.9219
-8.92184
1454.12
697.813
70.7495
1634.2
255.015
177.575
1542.92
369.065
289.028
1581.58
167.502
111.762
1524.06
114.003
116.54
1469.2
51.3202
-8.04244
1414.82
-38.6538
68.6525
1354.35
-10.9007
51.0277
1289.48
-13.8477
59.2989
1229.21
39.0518
4.63512
1177.62
66.608
14.2859
1119.51
103.729
25.8513
1049.3
88.2548
64.4757
976.291
73.5507
76.7709
920.107
53.3097
48.6787
890.874
61.0823
28.3905
881.23
73.1808
8.64509
881.321
81.707
-0.00359103
884.105
76.8941
-4.36178
60.1066
-11.685
633.924
-654.274
3177.63
679.411
49.9631
503.853
1105.17
-56.7889
540.767
1142.3
69.8074
259.74
1177.94
28.3955
305.215
1121.41
134.038
110.258
1109.79
8.32206
130.997
-22.9325
9.37946
-21.4655
1120.63
-4.65165
45.1049
-6.07379
-1.03097
-1.29517
1136.77
-2.40421
-7.10952
-14.0623
2.03525
-10.1414
1158.84
6.26029
-48.792
4.01312
10.4094
8.93397
1183.27
13.3725
-81.5219
4.09126
16.0299
8.0082
1199.71
18.5351
-72.387
17.9231
21.0869
21.2328
1186.41
23.997
-37.199
22.4491
25.803
23.7556
1121.57
29.5657
39.9651
29.8416
30.0893
30.0847
1034.85
125.611
132.034
977.326
117.412
122.561
947.513
100.827
50.5841
936.657
90.9376
20.1912
936.466
74.9377
10.8034
57.7836
5.63616
1787.23
-13.1181
785.695
1604.2
98.5652
384.472
1458.14
45.8487
452.301
1338.99
169.332
274.286
1228.13
102.508
296.3
279.119
52.6218
74.776
274.404
269.05
264.624
81.6254
56.4592
83.6065
-22.1055
260.032
29.635
19.8799
-4.0042
-237.958
237.32
-3.87909
3.86992
10.0665
-237.819
243.32
-6.23288
-11.7378
19.3181
-242.022
250.526
-2.61119
-18.9511
21.9506
-253.13
258.535
8.83403
-22.8172
20.0065
-258.409
265.271
13.6969
-22.0303
16.7037
-267.881
271.294
21.4713
-17.5916
4.83419
-269.014
268.973
29.446
-4.67382
918.086
36.6267
42.3038
-258.446
-228.465
-234.53
-215.332
31.061
34.6048
29.633
905.119
126.433
29.4813
900.99
101.969
12.8442
905.765
84.9351
9.03615
912.075
66.7268
9.14035
55.1287
3.13057
573.828
271.145
-64.2765
694.643
163.878
-550.482
538.489
31.6418
360.289
547.186
179.012
-45.8112
120.266
124.226
222.124
121.47
118.249
117.436
-16.0322
143.218
30.3376
15.3643
-1.0748
-13.536
-44.3428
45.721
11.8908
1.34189
0.195427
-49.2383
-2.51233
51.0653
0.37943
0.110495
2.08986
-52.5154
1.41052
53.821
-2.54172
-2.26425
4.30138
-53.7047
-0.4113
54.8735
-0.605645
-4.45322
3.70329
-54.6417
-3.11952
55.5594
2.47976
-3.98118
3.02606
-54.9939
-4.14132
55.5623
3.84718
-3.30033
2.39697
-55.1472
-5.76857
55.4819
5.6004
-2.56349
0.64727
-55.2114
-8.01908
55.5178
7.8072
-0.74179
-55.4503
-3.06508
221.149
33.8544
2.96965
-54.8512
-54.239
-53.7404
874.504
112.848
12.9151
-219.977
-220.347
-211.188
-211.914
882.584
93.2444
-3.0265
893.5
70.57
-5.58094
901.197
54.0394
-1.21526
50.2388
-2.64925
1042.61
-10.2314
1774.39
1202.86
149.781
23.752
1245.91
176.52
51.2978
1268.17
255.014
-98.0807
297.94
223.864
148.929
310.522
273.229
286.035
-20.1003
-27.7585
283.68
47.0858
15.0325
0.153644
-3.11737
-60.6308
57.3715
5.65534
0.567679
-0.322761
1.64732
-50.4536
49.7309
-1.42885
0.826974
0.264845
3.82657
-48.79
48.9103
-4.06857
-0.143067
0.989687
1.31807
-50.0939
50.6402
-1.85659
-0.997461
1.17355
-1.56341
-52.2681
53.0054
0.886191
-1.2337
1.04198
-3.60772
-54.5197
54.9198
3.32926
-1.16362
0.867364
-5.53909
-55.6886
55.932
5.34826
-0.920015
0.266059
-7.31794
-56.5062
56.7179
7.11563
-0.275428
-57.4782
-2.53922
-31.6126
230.227
30.388
2.65269
-58.1318
-56.419
-57.087
931.082
108.17
-1.62749
-230.935
-241.261
-222.81
-231.802
930.204
94.816
-14.6578
927.04
70.0504
-22.496
918.57
55.5067
-15.9118
55.3316
-16.951
-3.84816
68.9979
-2944.69
139.403
133.316
658.908
410.011
47.4111
237.61
476.544
241.265
47.6383
128.637
183.868
234.068
140.689
115.248
129.647
-16.5299
-63.7354
157.652
41.1724
10.0784
-3.33854
-14.1062
-47.5171
51.4351
10.0497
3.4771
-3.24312
-0.973696
-58.294
59.5618
-0.356976
3.306
-4.57124
4.17791
-59.0261
57.8447
-3.64958
5.22435
-3.39693
3.54325
-54.5665
53.8062
-3.64343
4.25745
-3.00255
1.20776
-53.2102
53.46
-1.79706
3.342
-1.6204
-1.28412
-54.9846
55.8159
0.43122
1.64199
-0.913833
-3.78834
-58.0692
58.824
2.98127
0.966133
-1.20179
-5.79246
-61.018
61.7008
4.9789
1.33253
-63.5899
-8.1467
-28.5603
256.439
23.6566
8.49211
-63.2594
-62.6574
-62.3742
1021.89
94.772
8.78715
-257.407
-256.297
-247.866
-247.105
1016.89
98.5866
-4.71701
1000.38
83.1708
-6.97383
967.104
77.8487
1.94707
73.3106
-10.6657
1784.42
1621.33
301.63
1435.62
591.194
-1139.05
1307.97
354.437
-414.01
1254.65
364.318
34.3662
315.233
249.434
342.993
322.646
288.994
296.239
-69.823
-17.7795
321.96
22.033
58.8427
-5.89452
3.78121
-79.0607
79.9563
-4.52655
5.74434
-0.0709991
6.09575
-78.423
78.0473
-6.13422
0.485183
-2.54406
1.56132
-76.4088
75.3475
-1.27288
3.31698
-5.0227
-0.470964
-69.4476
67.1104
2.0228
5.80809
-3.19952
1.24026
-60.3347
58.9219
-0.585419
3.95743
-2.99537
0.65058
-56.2267
55.9717
-0.613972
3.21379
-1.87145
-0.673158
-55.7203
56.0878
0.156369
2.02072
-2.41284
-2.2421
-57.2996
58.0884
1.36014
2.50604
-59.6701
-7.82514
-17.0118
242.156
9.01834
7.03558
-57.8272
-58.8524
-57.023
950.244
62.7734
-6.88599
-242.94
-225.413
-234.592
-217.873
959.412
86.6433
-8.20485
955.618
85.4762
0.887501
935.28
93.119
2.8956
85.0109
-9.48084
483.093
2014.48
-1132.9
709.903
580.11
-394.476
731.471
442.207
-112.988
710.294
363.429
-6.92585
731.638
203.492
216.663
182.989
-4.94416
84.9208
-18.2639
1.00132
-10.6768
6.30303
191.793
170.723
178.52
1.41588
-23.9575
193.217
-9.34748
23.6774
-1.93331
1.67607
-1.7596
3.32972
-2.978
-191.715
198.592
-11.3721
1.19273
0.426499
2.71385
-0.189464
2.23111
4.90728
-207.239
217.157
-8.6939
-5.62354
-1.80223
1.52171
-2.45799
-1.52115
-1.38713
-217.648
223.69
2.12546
3.89429
-3.70436
-1.74414
-3.70488
0.112564
-4.57089
-224.783
226.224
2.20164
6.25798
-2.6579
-0.0624156
-2.72248
0.553853
-6.71434
-218.369
215.739
4.82898
8.38849
-2.34081
0.36929
-2.45549
1.06695
-7.01467
-210.945
210.435
3.08187
6.79743
-2.02899
0.807942
-2.19991
0.859017
-4.62011
-203.765
204.441
4.1575
3.05044
-2.22261
0.564309
-2.46495
771.085
39.6984
-14.1584
-5.00421
-17.5042
-8.02758
-18.6959
-200.22
-187.196
-192.484
-180.518
793.404
39.1504
-15.4105
816.336
62.9167
-16.528
835.305
65.8097
-7.83814
844.008
81.4082
-2.08597
76.9702
-7.80182
471.685
800.488
1281.11
852.102
55.8342
-273.556
1157.13
197.028
-176.323
1283.26
221.056
-0.350125
1199.29
234.347
158.441
1046.08
129.854
76.4346
895.412
136.275
122.952
12.4718
-16.3317
9.6135
-19.881
816.521
-5.49987
45.8329
20.9058
18.3106
18.6931
14.99
762.339
53.5718
21.9801
12.7157
-13.886
8.40472
-17.1605
736.553
23.9424
20.8193
5.86571
-6.25877
3.16997
-8.04091
714.333
61.3652
20.7346
-1.00686
-19.1259
-3.71895
-20.3938
702.18
42.2222
23.429
-2.62913
-13.1255
-3.66751
-13.4081
696.153
47.4441
15.6146
-2.83244
-17.4235
-3.70803
-17.8658
697.844
29.3235
8.00267
-1.86867
-13.4964
-2.40863
-13.5841
702.429
35.5915
0.311266
710.71
32.2668
-5.28445
731.496
42.2859
-5.90627
754.435
43.071
-4.71965
774.793
57.2743
1.36667
57.8912
-0.651821
584.695
-190.701
2069.84
679.314
29.7729
-402.425
735.052
51.4968
-291.335
818.48
206.897
-204.04
748.193
279.574
123.364
678.515
214.526
36.3221
644.778
165.273
113.162
604.11
40.7927
9.33761
610.646
38.0373
14.8777
620.892
9.16713
4.57762
640.578
37.0866
15.1857
651.879
27.8902
9.02599
661.302
35.866
9.0978
663.004
26.2443
3.86054
668.947
28.6518
3.22585
677.207
23.9661
1.88872
689.83
29.745
1.40443
704.708
28.4283
0.277082
721.377
37.3526
6.8603
39.7982
4.44546
792.977
545.002
-1790.01
746.202
451.477
-842.9
912.283
325.155
-1495.73
966.705
315.724
-489.245
960.193
340.091
-121.338
927.622
269.74
-5.86803
847.279
238.857
110.79
762.112
125.856
68.5494
700.228
90.23
76.5601
667.652
39.2686
28.7584
657.407
39.2362
20.2344
657.123
25.6972
9.18794
661.31
28.5607
8.09789
665.946
20.5139
1.87039
671.432
21.4235
2.55446
676.292
18.1544
1.17246
685.59
19.9717
0.601066
695.652
18.7368
-0.48915
707.191
22.7926
6.8022
25.6366
2.62475
1277.55
1286.16
1619.14
1080.19
780.755
-895.214
828.544
755.387
-876.725
783.035
456.211
-418.133
740.699
370.916
-51.2683
776.339
242.134
6.89418
770.028
217.466
118.672
745.714
141.477
47.7628
709.311
112.716
84.853
678.869
69.3766
43.1313
663.242
52.4658
33.5876
655.674
35.4661
8.4976
655.892
27.263
0.103915
658.294
19.4756
-4.39909
663.782
16.2794
-3.11919
669.811
13.0465
-3.16974
679.818
11.5788
-4.67215
690.431
10.7125
-5.57327
700.949
10.7667
2.78106
13.6452
-2.30122
808.452
667.174
-954.93
855.006
1072.38
-135.056
743.124
794.329
80.3227
787.468
457.542
-150.873
747.913
374.247
43.4918
756.073
230.904
-19.0002
744.811
211.437
54.387
739.65
150.349
19.7883
730.738
122.471
34.1121
721.521
87.0422
-6.29758
716.907
60.5728
-9.84102
715.894
41.3099
-23.3301
718.56
26.0976
-18.2907
722.758
17.8343
-17.5996
727.572
12.8604
-12.6731
732.275
10.2611
-10.8583
738.409
7.5295
-9.33127
745.667
6.83559
-10.9429
753.591
4.10017
-7.98548
6.65772
-13.0479
-927.09
246.176
-2924.18
-268.124
587.42
-271.585
85.8206
491.189
190.958
209.427
369.838
-74.5317
380.573
207.804
134.465
501.518
133.546
-25.7591
637.022
79.8403
55.5845
719.158
90.661
-3.29907
781.583
82.1083
-2.22916
821.101
79.7811
-37.1548
846.45
63.7072
-49.3333
860.43
54.621
-62.7218
866.127
39.8789
-56.8291
867.636
32.9567
-50.8487
866.864
25.4098
-36.7152
866.991
22.1279
-29.7737
869.155
16.0462
-24.9274
873.524
12.8408
-26.2092
878.589
8.84415
-29.715
10.075
-34.1125
80.5041
-2524.49
588.855
-242.628
923.523
647.228
1157.83
514.45
1151.17
713.696
1146.49
490.521
1102.94
398.252
1115.32
279.113
1138.47
222.968
1183.4
163.27
1223.25
127.714
1265.04
83.2963
1294.37
59.6191
1314.32
49.8727
1324.29
45.0516
1329.03
52.1213
1328.06
60.653
1326.23
67.9579
1324.86
67.3011
57.8558
361.815
-630.437
1691.05
635.844
116.866
-1035.01
795.838
139.026
-379.657
727.06
47.4967
-403.224
839.7
-81.0623
132.122
908.038
-70.0776
-54.6624
983.515
-95.8178
56.5159
1042.57
-80.8974
-3.96337
1095.83
-83.901
26.944
1141.77
-74.6848
-2.67417
1182.41
-73.6312
12.1401
1222.49
-65.8192
-7.57727
1254.7
-66.706
-19.8365
1273.33
-68.0091
-41.2623
1284.97
-69.9736
-54.825
1300.89
-54.4483
-9.4828
1311.56
-25.1545
84.576
1319.08
2.28765
187.096
1354.64
20.2495
229.73
16.1883
138.713
-394.485
-946.656
1760.87
37.6527
-14.8045
-599.672
770.237
-153.764
-157.661
820.298
24.5296
12.4441
919.377
-101.32
217.821
951.11
-62.0797
44.1398
976.306
-99.184
111.342
997.735
-71.126
47.0095
1018
-77.3281
69.8175
1036.28
-64.6989
40.1848
1056.2
-68.2148
44.2604
1073.78
-64.3546
14.211
1083.67
-66.4054
-0.0277172
1083.98
-63.95
-17.9133
1069.2
-47.8662
-12.7298
1039.86
-12.4246
9.72479
1017.02
29.5802
62.9462
1011.91
53.8581
78.4933
1015.43
59.0586
53.9892
37.0346
-5.97954
1663.11
-79.6632
773.817
1420.61
47.6755
-116.227
1263.19
70.5479
-250.484
1233.98
158.874
-62.9374
1131.38
39.7037
48.7163
1084.07
8.57406
-14.593
1032.62
-37.9976
77.0184
1009.06
-21.5139
48.6026
987.202
-26.4396
86.4516
967.1
-12.836
62.6222
951.453
-23.7716
62.7785
937.262
-26.8324
35.4058
924.745
-38.769
21.4173
911.681
-40.7455
-4.5579
891.558
-25.7868
-17.8871
867.886
8.75588
-23.1724
853.935
40.7442
-9.20172
852.207
59.9695
7.88065
856.917
61.4442
20.4516
39.9168
-3.11871
2435.63
43.0221
711.753
1905.6
341.331
291.204
1463.94
358.021
-102.11
1284.27
242.895
-102.832
1110.05
141.69
11.9464
1038.33
44.5364
-47.2899
994.962
-17.8807
22.6907
970.644
-5.94138
1.77795
950.629
-8.13277
45.377
925.182
25.393
40.929
902.926
18.6603
62.7838
878.175
19.3222
43.0433
854.404
-3.32965
29.9392
829.581
-7.94628
6.96777
804.423
-2.34216
-5.02916
785.051
27.5421
-2.09764
778.042
51.2024
5.06212
777.122
65.7543
10.5313
776.394
64.5851
13.0876
43.4072
-5.53805
782.137
664.727
-638.183
758.962
270.173
-155.227
769.944
272.457
-29.4983
812.233
106.89
-74.1093
888.348
22.8955
10.3281
893.669
-5.26261
-110.653
913.239
-72.9508
-17.1414
914.1
-26.318
-48.2456
907.315
-15.5771
1.1945
883.454
39.5123
-8.4653
858.038
50.9771
25.6873
830.788
61.172
24.7729
806.62
35.9246
35.6337
786.959
22.6208
21.2907
773.87
18.8551
16.5783
764.731
38.9433
8.57876
760.135
57.5702
1.95957
759.089
68.0729
1.2111
757.987
64.1805
5.28466
44.3973
-10.1887
997.857
602.132
-18.0792
1323.81
187.653
-65.8631
1238.34
295.426
351.535
1249.02
92.0118
115.965
1196.49
77.0742
114.883
1125.77
57.503
-0.0860704
1091.75
-29.2018
58.9287
1046.26
30.9344
39.2602
1008.99
31.1915
49.797
963.735
84.5217
4.88431
919.163
92.7195
17.1156
873.828
108.606
23.7524
837.941
87.5609
48.7269
808.497
76.1852
52.6506
784.554
57.9263
33.5503
773.622
58.0593
20.2064
770.616
63.3836
5.83727
772.117
66.4724
0.0963853
772.582
59.0683
0.285158
43.6984
-12.2357
1662.09
157.825
-1097.29
717.401
601.873
1034.32
925.02
214.231
414.344
872.714
181.32
222.737
940.692
102.374
211.937
877.319
181.257
49.8779
898.734
14.2542
91.0855
-19.7436
14.3173
-19.5331
910.971
6.38882
21.7655
10.3892
9.72406
15.5348
923.343
10.1317
-6.54122
-3.7372
13.3252
-1.46805
923.424
15.9897
-36.4719
17.5361
18.1136
20.4806
916.269
20.6315
-55.309
14.764
22.1755
16.0908
899.111
24.0734
-45.9736
24.6364
25.0757
25.566
865.105
27.1888
-18.8636
24.6095
27.3432
24.0894
828.766
29.7672
37.4319
28.3949
29.0678
27.8282
817.147
109.35
92.2296
815.798
99.8475
82.1215
811.791
84.3677
33.6068
809.687
74.8266
13.9407
808.57
60.7838
10.2057
46.709
0.524121
1008.61
584.621
1821.44
986.169
607.422
401.368
1024.89
383.63
244.185
991.862
310.173
178.457
1008.77
190.192
191.577
234.013
67.0459
35.7492
230.643
222.24
219.979
91.2891
70.1872
93.6523
-23.0539
221.026
34.3252
15.9695
-3.55171
-202.357
205.782
2.25756
4.25834
11.9625
-207.604
211.626
2.88864
-8.7419
17.7443
-207.741
212.932
7.40909
-14.3553
23.0553
-213.755
215.174
16.1923
-20.0346
21.7045
-212.782
214.695
18.9178
-18.4615
16.2048
-213.509
212.907
24.8516
-13.2658
2.00342
-209.304
208.174
28.9763
-0.0826017
776.017
31.0026
31.9094
-203.709
-193.304
-188.762
-181.218
25.7102
29.2047
24.8034
779.64
104.725
20.9818
783.418
83.8725
9.56121
788.678
71.5437
7.05893
790.257
59.0269
9.31807
49.5348
-1.26521
-644.412
-438.668
-193.091
-159.03
231.801
-660.243
245.473
174.404
165.012
280.75
290.558
-61.4735
98.8604
167.646
149.971
95.8771
92.6982
88.0136
-16.6588
125.97
43.7805
12.815
-2.09158
-14.3915
-39.8572
41.3992
13.1076
1.8335
-0.729675
-44.2113
-3.44204
45.5935
1.84356
0.945984
2.63416
-46.7401
-0.876103
47.9237
-0.615644
-2.32601
4.49795
-46.9667
-2.02133
47.8678
0.768761
-4.14641
4.0674
-47.2973
-3.79373
47.9333
2.95172
-3.86134
3.57339
-47.2662
-4.6328
47.6672
4.07669
-3.41835
2.65238
-47.3311
-6.01507
47.6692
5.5542
-2.52959
0.750689
-47.5795
-7.33033
48.0172
6.89055
-0.748674
-48.4199
-2.95665
194.375
28.1957
2.24149
-48.228
-47.1803
-47.0249
768.986
89.4137
15.5886
-193.382
-195.521
-183.051
-184.394
775.449
72.9456
1.43657
782.116
59.2221
0.0741996
783.556
51.9212
4.45084
49.1602
-4.09021
502.611
-1235.97
270.959
775.574
102.779
-120.188
857.325
208.63
-64.6789
849.031
295.804
-95.0328
209.838
225.074
118.529
222.176
189.289
200.701
-22.1258
-32.8504
203.801
46.0015
15.011
-4.55168
-5.23692
-46.978
46.4054
5.89076
4.47046
-1.51091
0.256328
-44.4102
44.2476
-0.216257
1.6335
-0.209227
1.75423
-44.326
44.5838
-2.08317
0.280372
0.888983
0.584963
-45.6249
45.988
-1.02416
-0.812912
-46.9929
1.20388
-1.52498
47.4806
0.95282
-1.11941
-48.4545
1.39873
-3.3199
3.05501
-1.33111
48.6517
0.97738
-4.83103
-49.1722
49.4431
4.57185
-0.989073
0.336388
-5.9829
-50.1883
50.4902
5.7158
-0.371144
-51.3171
-2.43147
-25.4525
205.81
23.8876
2.11802
-51.935
-50.1054
-50.5741
813.125
81.5773
5.13022