/*--------------------------------*- C++ -*----------------------------------*\
  =========                 |
  \\      /  F ield         | OpenFOAM: The Open Source CFD Toolbox
   \\    /   O peration     | Website:  https://openfoam.org
    \\  /    A nd           | Version:  10
     \\/     M anipulation  |
\*---------------------------------------------------------------------------*/
FoamFile
{
    format      ascii;
    class       volVectorField;
    location    "7.2";
    object      U;
}
// * * * * * * * * * * * * * * * * * * * * * * * * * * * * * * * * * * * * * //

dimensions      [0 1 -1 0 0 0 0];

internalField   nonuniform List<vector> 
12920
(
(397.977 -25.6539 42.3886)
(173.19 -9.41057 -10.2625)
(205.366 -12.1353 -5.44352)
(123.443 -14.1226 -9.79864)
(148.71 -14.3341 0.180737)
(116.495 -8.16206 -1.66617)
(132.319 -1.58329 -0.491665)
(125.477 3.38037 -1.7827)
(134.792 5.32423 -1.90983)
(136.08 6.83957 -2.88734)
(144.296 7.00345 -3.0251)
(148.342 7.17797 -3.60027)
(156.486 6.01776 -5.25044)
(170.112 3.77177 -7.40639)
(192.323 2.63632 -6.4813)
(207.401 2.99077 -2.99559)
(210.147 2.14063 -0.270126)
(204.155 2.64693 2.30158)
(180.063 3.0701 5.5391)
(155.341 -2.67619 3.86231)
(175.884 19.424 -46.9947)
(118.399 85.4722 -38.7261)
(215.037 83.0306 -10.1823)
(145.535 70.0999 -8.69495)
(165.71 34.8462 3.25816)
(123.255 13.882 2.29255)
(135.271 0.987747 3.14038)
(126.387 -2.81236 2.84374)
(134.412 -5.90731 3.27228)
(133.892 -6.8463 2.98473)
(139.111 -7.38686 2.98203)
(140.938 -8.09437 2.28819)
(148.434 -9.48791 1.68811)
(155.005 -12.992 1.5738)
(161.865 -13.2422 2.10159)
(163.616 -10.8032 2.3996)
(160.648 -6.04748 3.2565)
(144.22 2.86277 4.2506)
(130.331 5.83813 3.40075)
(121.268 2.38706 0.896258)
(136.4 -172.935 2.39689)
(108.072 -13.702 -1.35147)
(183.28 -5.16931 7.07248)
(125.948 10.753 4.86897)
(164.667 -5.5409 6.17842)
(142.849 -10.6937 2.86979)
(153.78 -17.7313 3.09052)
(145.257 -17.7439 2.84042)
(146.945 -17.9671 3.40743)
(139.147 -15.4279 3.22893)
(135.747 -14.4181 3.00504)
(127.157 -13.1864 2.17527)
(124.743 -13.9891 1.35807)
(121.046 -13.6255 0.621726)
(120.792 -11.8841 0.0702319)
(120.124 -4.93219 -0.219519)
(119.151 2.84059 -0.293402)
(115.607 7.31477 0.292079)
(112.898 8.05923 0.810654)
(109.923 4.3517 0.189373)
(152.089 -115.27 -52.2888)
(91.1373 15.7507 -46.7996)
(182.916 35.1721 -20.7665)
(143.103 27.5664 -7.81124)
(171.464 16.7757 -3.86756)
(149.388 4.11869 -3.33779)
(158.556 -7.17672 -1.56764)
(150.962 -14.5296 -0.932968)
(153.903 -17.1931 0.279106)
(148.855 -15.733 1.03862)
(144.31 -11.718 2.66978)
(129.277 -9.70195 2.41075)
(121.526 -10.448 1.23918)
(113.447 -11.9383 0.557594)
(110.364 -11.0827 -0.0346668)
(104.993 -6.48628 -0.0914801)
(102.855 0.376888 0.209593)
(98.7713 6.39564 0.463647)
(96.3771 8.57191 0.373595)
(95.7947 6.76206 -0.0742846)
(97.7186 61.0107 14.9171)
(97.339 83.6949 4.97807)
(179.541 65.5084 2.7018)
(121.756 43.7234 -4.28895)
(163.231 19.2421 -2.96444)
(142.683 3.65255 -6.02911)
(158.005 -12.0341 -3.60572)
(151.403 -16.7052 -2.9431)
(155.601 -19.8662 -1.5547)
(151.877 -16.8263 -1.65415)
(150.186 -10.2048 0.626767)
(136.002 -4.50736 1.63083)
(123.464 -5.78373 1.5642)
(111.355 -6.16085 0.861418)
(107.01 -3.03819 0.500983)
(101.417 2.94074 0.137408)
(99.0745 7.22665 0.0686897)
(95.9988 9.8454 0.0784118)
(94.7967 10.0874 0.0127394)
(95.6542 7.2355 -0.192733)
(180.11 -40.552 -80.2741)
(174.715 -53.2249 -23.4718)
(240.229 28.1803 -2.57761)
(214.514 37.5336 0.0970309)
(227.391 37.8581 1.38808)
(206.938 30.3941 -0.708298)
(208.727 12.15 1.77826)
(188.87 0.44841 2.39042)
(176.979 -8.04032 2.12337)
(161.779 -5.72751 0.0967136)
(158.039 0.230913 -0.152135)
(151.553 7.48705 0.242791)
(143.787 5.28763 1.65357)
(125.539 -0.6933 2.57476)
(111.711 -4.68235 1.46822)
(102.849 -0.310096 0.711979)
(100.275 5.12165 0.211474)
(98.5401 9.21464 -0.0504745)
(98.926 10.5634 -0.309439)
(102.527 9.17543 -0.362417)
(446.199 52.684 -76.8274)
(97.5768 18.4803 2.73537)
(184.434 31.0981 12.4847)
(114.802 27.5575 4.87284)
(165.023 18.3654 6.75567)
(135.634 12.5769 4.69937)
(141.171 -3.53064 4.76094)
(131.731 -0.381984 2.38799)
(137.582 -4.5611 0.342567)
(138.915 0.0372876 -0.979327)
(145.999 -1.36685 -2.83539)
(160.159 5.27668 -3.35708)
(171.42 8.36253 -1.936)
(170.656 9.60145 -0.0652908)
(154.734 10.1193 3.21278)
(125.636 10.0948 4.09128)
(113.261 9.98364 1.64094)
(107.659 10.2327 0.621257)
(106.019 9.44365 0.245495)
(109.371 7.59283 0.259746)
(248.168 136.162 31.0568)
(205.185 54.6093 13.8635)
(210.361 -20.2642 17.0467)
(151.006 -7.31055 9.66716)
(162.125 -2.26334 8.05919)
(126.397 15.7481 2.65252)
(123.949 3.09924 0.854548)
(98.2516 -12.885 0.129449)
(101.093 -11.9336 -0.267021)
(107.071 -10.4969 -0.761934)
(114.95 -5.58288 -0.929326)
(120.002 -4.23541 -0.919465)
(129.373 1.27709 -0.629793)
(131.916 7.81157 0.810961)
(111.588 17.6899 0.90869)
(104.98 17.0195 0.786718)
(102.595 13.4832 0.279633)
(101.233 11.6926 0.267452)
(101.174 9.20889 0.216549)
(105.773 6.47194 0.184962)
(61.9035 135.904 26.3636)
(-25.4569 -12.3571 -1.95637)
(109.264 -10.8199 8.5044)
(39.5835 5.05032 -1.16258)
(90.7008 -1.73251 4.25521)
(23.7725 12.1687 1.02569)
(69.1419 25.7677 0.735249)
(81.3449 -1.74405 -0.620958)
(91.5649 -12.3934 -0.112819)
(96.4535 -7.44948 -0.426478)
(100.738 0.540263 -0.490606)
(101.973 2.98435 -0.295145)
(102.51 5.82318 -0.185348)
(102.894 11.8178 -0.0725542)
(99.4775 15.5937 0.430966)
(96.2781 14.1955 0.445598)
(96.4537 11.7681 -0.0579739)
(97.0776 9.02179 -0.327801)
(98.8211 5.61105 -0.335084)
(104.119 4.24185 -0.200348)
(237.185 258.305 1.24963)
(207.865 45.214 6.387)
(227.786 -24.7855 14.8114)
(169.493 -6.93273 3.75966)
(180.602 11.3613 5.21683)
(112.265 6.82484 -0.768915)
(91.2635 -1.78168 -0.0940833)
(83.8239 -5.83283 -0.616502)
(82.341 -10.3625 -0.253433)
(85.7642 -4.81692 -0.226269)
(94.0772 3.41564 -0.25527)
(99.505 6.49835 -0.14118)
(101.473 9.65048 -0.180011)
(102.235 14.3671 -0.0929911)
(101.224 15.8033 0.172088)
(101.345 14.3234 0.0853501)
(101.726 13.0804 -0.349866)
(102.113 9.99088 -0.908297)
(103.192 5.51933 -0.943926)
(106.295 4.29048 -0.616604)
(321.332 -100.123 -169.788)
(48.8385 -62.2001 8.19411)
(162.86 -20.5432 13.7821)
(72.1341 16.3144 5.81258)
(94.8544 24.5399 7.88451)
(47.8951 33.0466 1.3064)
(78.7262 26.9586 0.564518)
(97.0683 2.85966 0.504023)
(94.3095 -7.85812 -0.0194156)
(91.1391 -7.60671 0.0385185)
(91.4443 -3.42971 0.291054)
(93.5462 1.73118 0.180964)
(98.3 5.99019 0.108339)
(105.218 10.8243 0.120061)
(109.077 12.0281 0.46249)
(110.766 13.3894 0.467875)
(113.293 13.5249 -0.043896)
(114.053 11.6623 -0.30155)
(113.242 8.32658 -0.508569)
(113.024 6.89415 -0.508206)
(232.337 48.0634 -38.8974)
(210.842 0.343368 -42.4009)
(265.546 -25.2526 -7.7385)
(224.191 -5.36083 4.64127)
(204.838 20.8832 14.8424)
(146.788 -5.95334 2.27952)
(142.812 -16.003 -0.115412)
(147.616 -19.4856 -0.688242)
(147.98 -9.8622 0.121424)
(130.735 2.4339 0.155636)
(113.308 -3.43931 -0.0279576)
(100.639 -3.58165 0.4183)
(97.6469 -1.46132 0.345141)
(98.5635 -1.31515 0.332711)
(100.143 0.104987 0.568413)
(100.845 5.65489 -0.18869)
(107.158 10.6152 -0.362859)
(109.479 11.0606 0.0184431)
(109.298 10.78 -0.122227)
(109.94 9.73105 -0.369516)
(255.688 145.121 4.75264)
(167.215 58.4479 -8.52225)
(179.68 17.6142 -0.738036)
(116.015 31.501 -1.28656)
(120.735 30.6826 5.84784)
(84.4632 -1.01298 1.22246)
(93.6626 4.6259 0.309146)
(91.6157 -7.20054 -0.373214)
(100.543 -7.063 -0.680506)
(108.864 1.1415 -0.289476)
(116.942 1.88432 0.0388246)
(114.313 1.34904 0.0971038)
(104.862 0.462106 0.503298)
(94.7209 -0.755363 0.47251)
(82.6985 2.0084 -0.326926)
(84.4119 2.07855 -0.562195)
(88.1119 6.7819 -0.616784)
(92.3657 8.53053 -0.282885)
(93.7745 10.8618 -0.213458)
(98.3039 10.9953 -0.347114)
(110.834 181.41 139.177)
(66.8952 59.0568 -0.18932)
(171.729 62.5577 -4.08634)
(158.97 49.2363 -2.33268)
(176.316 34.7398 1.40021)
(152.76 15.8457 1.21242)
(136.208 13.7167 2.60374)
(106.555 -4.59291 0.557306)
(103.54 3.25979 -0.26393)
(92.609 0.416312 0.081077)
(90.3531 7.14177 0.40696)
(83.8325 4.30801 0.665023)
(81.6021 6.05879 0.475401)
(78.8862 2.87919 0.25275)
(79.142 3.82196 0.0379708)
(78.0931 3.81215 -0.101163)
(79.1513 5.4358 -0.19201)
(81.9199 5.71587 -0.152164)
(83.0891 8.41885 -0.161635)
(90.3076 9.48875 -0.158731)
(35.9452 -9.72229 52.5904)
(-68.965 -21.6729 -4.48684)
(136.118 6.22865 -14.623)
(106.776 10.9409 -4.19503)
(144.878 23.4278 2.84282)
(108.165 22.6287 2.17294)
(102.353 16.2825 3.60959)
(73.6855 2.04009 0.637542)
(76.9988 1.98044 0.0856538)
(71.669 1.98853 -0.0692369)
(75.8559 4.68613 0.232957)
(74.9027 4.38356 0.127418)
(76.8613 4.58636 0.162126)
(76.3734 3.53402 0.0273279)
(76.2845 3.16692 0.0315095)
(76.2276 2.73394 0.0496014)
(76.57 3.68509 0.0419991)
(77.2832 3.90662 0.026785)
(77.1014 5.49112 0.0625242)
(83.2439 6.58093 0.106127)
(80.3611 -27.7469 67.1077)
(-55.2951 9.05287 10.1842)
(148.514 1.49457 -28.0697)
(116.931 22.5067 -8.04694)
(154.23 40.8973 -0.840742)
(134.272 44.3834 1.15017)
(132.847 37.9021 3.63256)
(101.893 17.6033 2.50353)
(92.0513 7.74437 2.0475)
(75.0202 1.1178 0.779111)
(76.9152 3.22183 0.276952)
(73.13 2.35224 0.150616)
(75.3857 3.92973 0.0939638)
(74.4588 3.08187 -0.0199928)
(75.8122 3.6083 -0.0249359)
(75.5643 3.30753 -0.0321309)
(76.3874 3.76349 -0.0199288)
(76.7031 3.61601 -0.00365591)
(76.3732 4.24396 0.0757777)
(81.3068 4.69399 0.0746017)
(27.195 203.785 54.1603)
(9.76659 28.0286 -32.0481)
(122.845 36.1358 -25.9069)
(75.0107 29.4491 -11.6543)
(115.508 30.5783 -3.33733)
(103.321 28.406 0.294705)
(116.911 27.7319 2.50214)
(104.168 23.5498 1.04994)
(103.568 17.1243 2.14766)
(85.2131 9.30064 1.46967)
(82.1282 4.79359 0.964933)
(73.3666 2.83163 0.363619)
(74.2331 2.34764 -0.0693446)
(72.3327 1.9747 -0.0929725)
(73.3265 1.96526 -0.0918952)
(73.2474 1.89277 -0.0581762)
(74.2343 2.11689 -0.0712887)
(74.9502 2.31312 -0.0456031)
(74.778 2.65676 0.0178601)
(79.8128 3.11734 -0.034102)
(252.254 81.7019 -163.376)
(-15.8908 98.0413 -4.02057)
(144.845 83.9613 -6.41131)
(87.3451 55.2194 -4.43621)
(117.971 46.1666 -1.29451)
(99.9863 32.3523 -1.24394)
(109.614 30.8481 0.582985)
(94.4125 23.3528 0.670107)
(95.8037 20.0393 1.14876)
(83.316 15.4051 0.225896)
(83.0067 12.1741 -0.196847)
(76.8828 8.77168 -0.61862)
(78.3736 6.57059 -0.598008)
(77.0074 4.5959 -0.515489)
(78.393 3.63284 -0.390636)
(78.3385 2.83593 -0.292421)
(79.378 2.32448 -0.217895)
(79.4673 2.02164 -0.193334)
(79.2344 1.81115 -0.190023)
(83.8761 1.95905 -0.24449)
(32.0598 -223.89 -66.2021)
(-45.1783 -5.47848 -15.9022)
(88.7708 26.2753 3.70259)
(24.6707 31.281 -1.04469)
(72.7115 32.5103 3.87708)
(48.4533 29.673 -0.173437)
(81.2874 27.5851 1.63737)
(73.2334 25.4706 0.79205)
(86.4788 21.8531 0.902313)
(81.6627 18.0507 0.305236)
(86.6864 13.4233 -0.263452)
(84.4586 9.92876 -0.775642)
(87.3504 6.2237 -0.97913)
(86.4024 4.48453 -0.907785)
(87.4285 3.17486 -0.649426)
(86.9566 2.62221 -0.406151)
(87.4672 2.31095 -0.346363)
(87.1734 2.41655 -0.4326)
(86.7728 2.15562 -0.604349)
(91.1598 2.48365 -0.741111)
(144.676 45.6627 -48.0709)
(147.73 45.953 -23.4011)
(204.399 39.2676 11.6903)
(145.34 42.7296 11.5426)
(155.421 21.3486 14.3101)
(117.082 12.6124 10.2745)
(116.359 6.23029 6.87228)
(101.506 10.9434 5.14704)
(107.802 13.1836 4.2729)
(105.975 15.2071 3.54557)
(112.648 15.6564 2.90505)
(115.051 14.602 2.10517)
(121.764 12.9739 1.44383)
(124.809 11.1364 0.972465)
(129.33 8.55614 0.698907)
(130.821 6.5684 0.856135)
(131.48 4.9612 1.18813)
(129.358 4.58666 1.54437)
(126.535 4.51554 1.73282)
(127.489 5.00711 1.39345)
(179.293 130.768 154.596)
(47.0009 26.052 16.6707)
(178.558 22.5388 17.8758)
(82.7853 17.6406 -10.4958)
(124.404 4.30355 7.89857)
(89.079 -2.83514 -1.67398)
(114.156 -5.87518 0.932178)
(108.662 -6.26022 -1.50224)
(121.319 -7.10024 -0.918247)
(122.625 -7.0644 -1.72468)
(130.754 -7.08071 -1.35635)
(133.509 -6.8812 -1.26875)
(140.438 -7.92173 -1.95311)
(144.428 -10.7459 -3.59189)
(151.712 -12.0625 -4.23551)
(162.925 -10.0566 -1.15306)
(169.25 -7.44605 3.16161)
(165.847 -5.36469 7.1566)
(154.772 -1.58187 11.2362)
(148.313 -2.50274 7.1087)
(139.882 -47.8099 -15.1382)
(-48.3793 44.8768 2.21858)
(156.939 46.8497 26.1817)
(70.3472 33.4102 2.95789)
(130.054 10.6255 13.0648)
(100.288 0.8831 4.12112)
(121.205 -7.48249 5.3623)
(112.474 -8.18647 3.54498)
(121.335 -9.56215 4.13889)
(119.102 -9.148 3.19315)
(123.59 -9.31917 3.21016)
(124.351 -9.00215 1.78536)
(128.876 -9.56925 0.794035)
(130.653 -10.4049 -0.157522)
(133.501 -10.1673 0.322192)
(132.733 -8.1039 1.2675)
(129.163 -2.12517 4.15957)
(120.069 3.78004 5.71968)
(115.502 5.60595 4.37554)
(112.892 3.03649 0.921799)
(83.6501 -163.312 -8.91567)
(5.37306 -46.9195 4.49653)
(159.669 -44.1378 4.07464)
(94.1947 -11.0164 5.45662)
(144.673 -15.5798 5.2486)
(119.411 -11.0951 0.852453)
(132.552 -14.1225 3.42195)
(121.916 -11.3876 3.26759)
(125.342 -11.2974 4.8382)
(117.693 -9.26836 4.17161)
(116.439 -9.738 3.9873)
(110.951 -9.31806 2.68964)
(109.794 -9.67124 1.70725)
(106.731 -9.24165 0.457656)
(106.482 -6.7216 -0.477223)
(103.615 -0.948804 -0.912172)
(101.761 4.36153 -0.515854)
(98.7805 7.18061 0.555703)
(97.9786 7.29783 1.16472)
(98.4267 4.32228 0.065816)
(482.982 239.022 180.71)
(251.435 45.3815 4.14384)
(222.438 39.9001 -12.7845)
(141.488 32.9353 -8.83688)
(155.148 22.1611 -3.44622)
(121.603 9.10098 -3.74501)
(129.733 -0.39707 -0.41104)
(118.288 -3.74128 -0.234392)
(122.286 -4.52601 1.84508)
(115.761 -2.26928 2.51217)
(114.082 -2.44849 3.70255)
(106.934 -2.69741 2.94823)
(103.274 -4.61026 1.83666)
(97.7104 -5.81554 0.742686)
(95.4693 -4.9407 -0.176658)
(91.3293 -1.30348 -0.10944)
(90.1229 3.12434 0.393271)
(87.9602 6.41006 0.712458)
(87.1554 7.25739 0.665296)
(87.9472 5.32117 -0.194501)
(144.884 86.4309 -135.289)
(53.8745 75.5071 -5.01363)
(151.576 49.3526 -3.41672)
(75.9792 27.3713 -8.32746)
(130.689 8.02181 -1.89201)
(103.04 -2.14287 -7.12715)
(121.698 -12.8871 -2.94068)
(112.059 -11.0352 -3.12582)
(118.213 -10.5051 -0.793564)
(112.075 -4.46495 -0.803109)
(111.563 -1.2032 1.50698)
(104.422 1.15794 1.80622)
(100.202 -1.349 2.17658)
(93.464 -1.91251 1.34818)
(91.4735 0.0719112 1.00586)
(88.1134 4.32391 0.40172)
(87.3097 7.17446 0.186284)
(85.6084 8.71151 0.160065)
(84.9714 8.48686 0.109601)
(86.5487 5.85779 -0.387949)
(195.802 163.159 35.6295)
(143.84 57.924 18.7071)
(180.677 48.2364 10.8625)
(142.371 23.9402 3.98066)
(168.859 17.3104 4.52922)
(142.112 7.5899 -0.147679)
(148.687 -2.30374 2.97385)
(135.699 -4.17651 2.29967)
(133.429 -3.53077 2.48267)
(123.945 1.08451 0.0607979)
(120.624 5.57189 0.481654)
(113.874 9.20005 1.13957)
(108.805 5.97765 2.81445)
(100.113 2.25976 3.43172)
(94.1498 -0.363621 2.1402)
(89.341 2.34208 1.22318)
(88.4297 5.55102 0.395796)
(87.3556 7.69239 0.0198579)
(87.2986 7.89218 -0.23237)
(89.8786 6.29904 -0.476064)
(209.277 36.1189 300.871)
(-67.9305 26.0757 17.2928)
(163.581 26.5035 25.1673)
(76.5089 12.4609 10.4985)
(140.237 4.42977 13.1942)
(103.849 4.34145 5.69127)
(116.289 -6.84644 6.00334)
(107.87 2.39546 2.09971)
(114.429 0.934124 -0.357552)
(113.218 6.4536 -2.03809)
(117.369 6.87261 -3.55992)
(118.501 10.9438 -3.1961)
(119.926 10.8422 -1.54304)
(116.182 11.612 1.70071)
(107.008 10.3728 6.11487)
(99.1901 9.54302 5.53035)
(95.6234 8.89814 2.22015)
(93.2562 8.53279 0.914972)
(92.349 7.40887 0.454072)
(95.2731 5.64996 0.256237)
(188.645 -74.2638 9.6086)
(131.976 6.39423 -7.63422)
(179.825 -10.7495 13.33)
(116.967 8.76036 9.97376)
(141.702 8.57127 12.0099)
(107.723 23.0046 3.22981)
(111.249 6.26931 3.31155)
(93.516 -6.44866 0.802839)
(96.6446 -4.25189 -1.66835)
(98.2612 -2.702 -3.10171)
(102.537 1.28282 -3.92503)
(104.344 2.70748 -3.6884)
(107.741 6.5022 -2.95557)
(106.502 9.71316 -0.995113)
(92.5577 14.373 1.60266)
(90.5652 13.5637 1.2109)
(90.044 11.0056 0.498466)
(89.6288 9.48771 0.401526)
(89.8165 7.42789 0.370941)
(92.955 5.8083 0.121463)
(151.896 0.301145 -72.0471)
(-1.51467 4.12697 -39.3976)
(102.267 12.5271 9.13934)
(17.6216 19.2439 -2.31249)
(77.4045 7.79271 9.37165)
(38.3183 17.2778 2.34959)
(71.9243 20.6678 0.704012)
(80.5906 1.45643 -0.0391036)
(85.8236 -5.14737 -1.40086)
(87.5939 -1.88626 -2.77167)
(88.7379 2.23998 -2.54411)
(88.8567 4.14422 -2.01127)
(88.927 6.97818 -1.56444)
(89.1777 10.9143 -0.438888)
(87.7601 12.8706 0.295168)
(86.9688 11.4788 0.296259)
(87.7656 9.20712 -0.25953)
(88.272 7.34386 -0.351454)
(88.7441 5.77615 -0.164606)
(91.9355 5.12362 -0.190432)
(154.829 83.113 45.1732)
(78.5108 33.116 2.78321)
(151.813 9.75354 4.46801)
(105.78 20.953 -4.67427)
(134.477 19.2491 6.30389)
(112.743 14.4975 2.83016)
(92.6097 5.25582 0.411597)
(80.2772 -2.39393 0.200258)
(78.5565 -6.88 -0.169002)
(81.1054 -2.88693 -0.686925)
(85.1622 2.10671 -0.724945)
(88.0776 5.15692 -0.67149)
(89.6745 8.40555 -0.563247)
(91.0051 11.3324 -0.194021)
(92.2613 12.3883 0.370635)
(92.6518 10.9532 -0.269744)
(93.1048 9.27006 -0.786816)
(92.2804 6.62673 -1.1308)
(91.3993 4.89964 -0.866559)
(92.8567 4.82997 -0.725944)
(57.0166 -63.2778 -148.4)
(-69.8687 -0.86593 42.4002)
(89.4018 10.3823 17.2313)
(10.081 24.8033 2.7513)
(68.8786 18.6044 10.3854)
(46.9792 24.965 1.68551)
(78.009 20.8489 2.23808)
(94.4718 1.71921 2.13044)
(93.8291 -6.96543 3.16735)
(87.4312 -6.35786 2.29872)
(86.7557 -2.80831 2.16044)
(89.5147 1.26402 1.16765)
(93.7264 4.96513 0.537398)
(98.378 8.416 0.77174)
(101.559 10.4854 1.26082)
(101.643 10.489 0.166521)
(102.019 9.54039 -0.43834)
(100.507 7.2255 -0.475262)
(97.6413 6.08303 -0.195783)
(96.2215 6.1432 -0.547187)
(227.193 61.6095 51.6962)
(110.017 27.1502 -35.6531)
(160.179 7.29263 -12.6814)
(107.208 22.731 3.66494)
(133.532 19.5323 15.1786)
(123.312 3.84234 10.1947)
(126.161 -9.12579 4.10541)
(125.198 -11.0245 0.178897)
(121.879 -2.04977 1.73419)
(109.674 1.87898 3.2833)
(95.7052 -1.49453 2.13891)
(90.0794 -0.770619 1.97897)
(89.8938 0.76429 1.37433)
(92.6131 2.39251 1.62075)
(94.6141 5.05694 1.15751)
(93.7325 8.15705 -0.579701)
(95.8408 9.90423 -0.53969)
(95.5201 9.25551 -0.0155217)
(93.8747 9.35173 -0.0477627)
(93.8789 8.43323 -0.500391)
(122.704 201.452 -12.9777)
(-1.03949 73.0368 -4.73405)
(111.909 43.5596 -0.427629)
(42.7042 40.2442 0.0321119)
(90.0688 21.4695 9.95597)
(59.058 -8.19319 3.17661)
(78.2061 3.72053 3.97329)
(76.9639 -1.29016 0.206086)
(85.9178 0.207409 -0.842751)
(88.1544 4.06354 0.487541)
(90.7541 3.21593 0.900868)
(86.5421 2.64211 1.20936)
(84.6391 2.01976 1.09785)
(81.0883 1.92673 0.52572)
(76.1324 3.28702 -0.750869)
(78.4449 3.55979 -0.801419)
(80.5872 7.17169 -0.777817)
(82.5255 7.69742 -0.339936)
(82.9913 9.15835 -0.188627)
(86.7616 8.51425 -0.43776)
(109.085 187.22 5.50156)
(-10.8354 42.1132 -20.1692)
(134.285 39.5541 -5.94014)
(109.205 28.2845 1.33308)
(135.688 15.8542 6.48602)
(104.63 6.35546 3.27349)
(100.273 11.7405 5.09113)
(81.0612 -3.11575 1.83055)
(80.6138 5.73017 0.593319)
(73.0047 1.7773 0.72468)
(73.891 6.7281 0.893364)
(70.1144 3.74585 1.03768)
(70.7311 4.89465 0.744941)
(69.6707 2.31942 0.387753)
(70.8189 3.82629 0.0174263)
(70.6602 3.70562 -0.205649)
(72.2196 5.0909 -0.257655)
(74.3807 5.32379 -0.158941)
(75.1991 7.02349 -0.0502561)
(80.9976 6.85323 -0.161635)
(134.728 -47.1981 78.6973)
(-4.43556 -42.3096 -16.201)
(118.539 -7.00227 -17.9822)
(53.0549 12.9436 -7.93725)
(96.1578 24.7465 4.77454)
(58.1451 15.8133 2.01281)
(74.4089 11.5943 5.31223)
(56.6222 0.237927 0.819876)
(64.1026 2.14545 0.602633)
(59.6514 1.47471 0.158524)
(65.0724 4.07827 0.594406)
(64.3462 3.55328 0.344229)
(66.8608 3.89803 0.369272)
(66.6046 3.01711 0.152549)
(67.0511 2.83811 0.145834)
(67.7212 2.27296 0.0987287)
(68.6355 3.07544 0.0908112)
(69.8802 3.12326 0.0656988)
(69.9898 4.35994 0.227522)
(75.7301 4.67996 0.0987365)
(125.27 7.9207 -61.3952)
(25.6287 38.6234 -34.3104)
(135.877 11.8317 -63.4704)
(72.4483 23.2232 -19.9809)
(109.411 31.2469 -4.8386)
(86.3581 26.7678 0.00641031)
(95.9798 21.5911 4.65195)
(75.1539 7.03558 3.00906)
(76.2694 4.24093 3.38729)
(65.6821 0.13294 1.45685)
(68.3367 2.53806 0.769136)
(64.8624 1.5313 0.351658)
(67.3615 2.93421 0.288748)
(66.3232 1.99413 0.0653187)
(67.7906 2.517 0.0846594)
(67.6068 2.18471 0.0421578)
(68.6349 2.62561 0.0511657)
(69.1606 2.41584 0.0427376)
(68.984 3.01169 0.23797)
(74.0434 3.22975 0.0243663)
(153.096 91.5587 86.5115)
(88.3419 39.6078 -29.1735)
(135.639 47.0993 -31.9863)
(58.1916 34.2979 -15.0784)
(89.0352 30.8981 -1.9065)
(66.1949 23.3418 0.785539)
(85.715 22.0321 4.84276)
(71.067 14.9632 2.13443)
(76.9221 11.176 3.64173)
(66.9543 5.8899 2.03745)
(69.2293 3.85169 1.56112)
(65.1117 2.45259 0.503527)
(66.9348 1.94592 0.00172502)
(65.7211 1.45005 -0.140788)
(66.9464 1.27953 -0.111754)
(66.9679 1.03728 -0.105648)
(68.0422 1.05062 -0.141267)
(68.656 1.0899 -0.107821)
(68.4387 1.38383 0.0666772)
(73.3817 1.80144 -0.193949)
(188.555 141.948 -71.2144)
(16.1271 120.255 2.7513)
(127.045 89.119 9.27415)
(55.2788 49.8613 -4.17072)
(91.3272 41.5406 1.68136)
(65.6238 24.0161 -0.628311)
(83.0302 22.3297 2.35852)
(69.1595 14.0162 1.10382)
(77.9757 12.1728 1.59564)
(70.3467 8.40312 -0.105535)
(74.1761 6.71106 -0.327888)
(70.8324 4.52607 -0.887122)
(72.9841 3.24105 -0.753228)
(71.9933 2.15448 -0.710221)
(73.3108 1.63365 -0.5291)
(73.1571 1.23999 -0.447654)
(74.1406 0.922843 -0.380922)
(74.2065 0.746351 -0.386383)
(73.9386 0.576222 -0.35077)
(78.3644 0.814673 -0.526833)
(-16.6925 -14.0742 -58.3087)
(-124.469 83.0897 3.03892)
(60.5045 66.9801 17.9095)
(-20.6936 39.8151 -2.12148)
(58.1656 29.1496 7.4304)
(28.7821 20.3489 -0.449532)
(69.4391 16.7963 3.07937)
(62.7787 14.382 0.666646)
(80.0669 10.9135 0.633153)
(78.4361 8.15354 -0.762923)
(85.6254 4.87047 -1.474)
(84.8478 3.35673 -2.11504)
(87.3957 1.66272 -2.06885)
(86.5899 1.11478 -1.88091)
(87.2284 0.672313 -1.37751)
(86.646 0.556967 -1.04842)
(87.1674 0.347714 -0.807167)
(86.8857 0.368168 -0.812076)
(86.5296 0.0723294 -0.980731)
(90.448 0.336437 -1.17154)
(53.1834 48.3883 20.1658)
(-6.76948 37.4491 4.48857)
(123.6 41.2311 30.4122)
(89.0815 36.9515 19.3265)
(129.296 14.4796 25.3968)
(108.554 6.15508 18.0396)
(116.709 -0.0751641 14.8868)
(106.614 4.01612 10.7767)
(114.478 6.06066 8.7005)
(114.217 8.18764 6.63534)
(121.224 8.16819 5.32954)
(123.397 7.73142 3.45833)
(128.485 6.42227 2.44511)
(129.845 5.54795 1.95238)
(131.937 4.42513 1.6429)
(132.119 3.87212 1.90673)
(132.796 2.80567 2.31688)
(131.813 2.10671 2.7305)
(131.09 1.64428 2.84797)
(134.439 1.55567 2.56081)
(65.3875 43.5553 1.61083)
(-40.7842 12.113 -58.8582)
(142.387 8.9205 -21.6768)
(18.8784 -1.8776 -22.1126)
(105.704 -7.93127 4.59041)
(69.7528 -7.48651 -3.80356)
(103.275 -8.62827 1.17882)
(95.9292 -7.95682 -0.942435)
(109.896 -8.34773 0.38157)
(109.762 -7.47479 -0.899665)
(117.193 -7.36462 -0.371686)
(118.872 -6.23896 -1.42306)
(124.365 -6.1638 -2.37419)
(125.685 -6.51895 -3.64007)
(127.651 -7.58228 -4.71647)
(128.248 -7.46042 -2.57492)
(130.705 -6.33526 2.60118)
(129.999 -3.82856 8.66191)
(131.521 -1.30522 11.5503)
(138.873 -0.42756 7.43457)
(-16.6997 -187.036 27.5384)
(-129.971 -0.93932 -25.5074)
(134.405 4.28462 -0.657392)
(32.1166 7.51396 -0.568045)
(112.826 -9.46596 10.5632)
(78.3551 -6.83781 2.23391)
(104.36 -10.3961 4.96545)
(93.3083 -8.04335 2.4565)
(103.805 -8.38072 3.37948)
(100.581 -7.38372 2.19123)
(105.632 -7.2917 2.29419)
(105.52 -6.84961 0.858644)
(108.455 -7.11153 0.044458)
(107.898 -7.06485 -0.866315)
(108.204 -6.36094 -0.669106)
(104.956 -3.38979 0.623943)
(102.266 1.36748 3.44585)
(100.252 4.36902 4.30123)
(100.39 5.41771 3.28742)
(102.555 3.64842 0.0982196)
(208.565 -102.041 -3.94917)
(113.709 -44.5784 -15.2411)
(170.454 -40.0196 -13.7252)
(97.7512 -7.5027 -0.950109)
(134.589 -14.4341 2.19104)
(99.1901 -7.88459 -0.191231)
(111.531 -10.4166 3.41958)
(97.067 -6.67965 2.5672)
(102.623 -7.11074 4.29346)
(95.5344 -5.45086 3.34121)
(97.0493 -6.19402 3.29835)
(93.3662 -5.87029 1.99131)
(93.5897 -6.07188 1.22717)
(91.2003 -5.62488 0.0383128)
(90.639 -3.14926 -0.731516)
(87.2109 0.907887 -1.08137)
(85.9491 4.5206 -0.395619)
(84.4193 6.3722 0.491496)
(84.5886 6.34816 1.00899)
(87.068 3.82669 -0.321325)
(321.372 53.8319 104.441)
(181.448 26.5692 15.4798)
(200.05 40.5428 -4.38249)
(116.042 32.4047 -5.58414)
(134.336 22.6677 -0.314639)
(95.6228 10.9436 -2.64364)
(107.617 4.19261 0.511104)
(93.3762 3.13974 -0.251799)
(98.9306 2.24546 1.75988)
(91.8438 3.18989 1.89016)
(92.5173 1.63744 2.97984)
(88.1061 0.610999 2.19803)
(87.0399 -1.5372 1.54361)
(83.6316 -2.41832 0.527449)
(81.9188 -1.96798 -0.208306)
(78.6001 0.634469 -0.107851)
(78.2675 3.64738 0.302916)
(77.1174 5.70987 0.59259)
(76.9204 6.01572 0.577303)
(78.8162 4.19432 -0.50195)
(125.694 -2.27493 -18.6962)
(33.0425 48.1707 -2.58245)
(128.386 28.3452 -2.26992)
(44.1937 13.4974 -4.76998)
(110.549 1.63552 0.0321864)
(75.7804 -2.66751 -5.42398)
(99.0669 -9.73889 -1.57169)
(86.5941 -4.1114 -2.49433)
(94.6274 -3.5382 -0.324618)
(87.6199 2.00422 -0.719741)
(88.3174 2.1596 0.910756)
(83.3698 3.01752 1.1078)
(82.3615 0.825855 1.70122)
(78.8777 0.434893 1.07676)
(78.1753 1.48727 0.822922)
(76.4104 4.42604 0.396008)
(76.4713 6.37755 0.113205)
(75.492 7.34607 0.125972)
(75.0467 6.83373 0.132289)
(77.1409 4.45143 -0.665235)
(140.102 103.947 -19.0529)
(101.424 8.53478 -1.80025)
(154.513 27.755 13.4035)
(106.494 11.1713 4.74763)
(139.334 10.1845 5.09247)
(105.93 4.57155 -0.323167)
(116.57 -2.29123 2.64497)
(103.483 0.030589 1.74551)
(104.615 1.55498 2.17677)
(97.1479 5.98832 -0.0348989)
(94.838 7.86651 0.482718)
(88.6009 9.05129 0.93966)
(85.4915 5.92359 2.29744)
(81.6618 3.47228 2.63919)
(79.5238 1.58307 1.65738)
(77.2999 2.84635 1.00845)
(77.4245 4.92811 0.306841)
(76.6743 6.1824 0.0437299)
(76.4502 5.94759 -0.1143)
(78.7112 4.38766 -0.729001)
(418.632 66.877 -37.0685)
(-56.4189 58.7974 22.5117)
(158.922 32.4312 17.6851)
(44.8876 12.386 8.67489)
(119.878 5.98256 10.7161)
(76.4675 7.92175 2.99684)
(95.3843 -4.28435 4.51688)
(86.6711 7.07452 1.23564)
(94.2005 4.85579 -0.272069)
(91.1326 10.1724 -1.76733)
(92.8935 9.95449 -2.87465)
(90.1158 12.0867 -2.52699)
(88.876 10.8085 -1.33248)
(83.5478 10.9729 1.55319)
(81.7524 9.44946 4.49685)
(81.4576 8.38339 4.21667)
(81.6125 7.51663 1.79508)
(80.5948 6.96138 0.789532)
(79.9071 5.78944 0.449871)
(82.4158 4.28962 -0.163139)
(151.301 11.9858 6.43175)
(46.2498 68.8859 21.8537)
(138.528 27.0823 16.3563)
(70.9891 28.005 9.92589)
(118.846 18.3733 10.1469)
(87.0706 28.946 2.21705)
(94.9537 8.22348 3.03526)
(80.7549 -2.088 0.663572)
(84.5917 0.56516 -1.72247)
(84.1733 1.49674 -2.7758)
(86.1717 4.71547 -3.67075)
(85.3294 5.80824 -3.3778)
(85.3806 8.54277 -2.43237)
(83.1315 10.1762 -0.190755)
(77.578 11.9624 1.71488)
(77.5862 11.1805 1.05609)
(78.385 9.06306 0.48562)
(78.2183 7.82601 0.410965)
(78.1126 6.21262 0.40016)
(80.6112 4.96147 -0.260987)
(53.2963 23.8965 -54.659)
(-121.368 26.5213 -21.4292)
(76.2999 29.4542 13.3559)
(-19.4369 28.9081 -2.63409)
(64.595 13.2896 7.80613)
(32.014 23.1647 1.79375)
(65.1964 22.0828 1.13483)
(72.6001 3.04333 0.377663)
(76.7772 -1.15124 -1.5213)
(76.7769 0.52245 -2.82215)
(77.0142 3.32562 -2.56418)
(76.63 4.83581 -2.22085)
(76.6975 7.25293 -1.61879)
(77.2787 9.68508 -0.497375)
(77.1765 10.5499 0.244688)
(76.5781 9.43538 0.508001)
(77.4043 7.49358 -0.0297241)
(77.6181 6.30867 -0.0222493)
(77.4403 5.45755 0.0603005)
(80.0396 4.85991 -0.4134)
(130.104 -71.5765 15.2084)
(28.5485 25.2355 -9.73759)
(120.985 20.5465 -2.04763)
(56.114 34.2226 -4.6191)
(100.835 23.422 5.70937)
(77.2053 13.8503 3.0401)
(73.8657 7.0668 3.01355)
(71.5898 0.168575 0.908242)
(71.8154 -3.29536 0.108167)
(73.8238 -1.0442 -0.618058)
(76.3358 2.23966 -0.672143)
(78.1718 4.6741 -0.757693)
(79.5422 7.15838 -0.613753)
(81.215 9.11673 -0.236775)
(82.425 9.8127 0.27606)
(81.261 8.21816 0.0827459)
(81.2818 6.86659 -0.434027)
(80.063 5.3712 -0.569508)
(78.8264 4.78238 -0.353157)
(80.0763 4.86184 -0.810717)
(95.7999 -109.685 -111.541)
(-89.8753 1.55806 19.1443)
(62.9701 6.89174 7.78907)
(-26.1441 21.3953 2.94562)
(51.9302 14.561 8.60956)
(28.0966 19.9063 1.38976)
(63.1882 14.4873 3.25453)
(79.4424 1.3535 2.29424)
(79.4169 -3.35193 3.60721)
(77.546 -3.08888 1.99804)
(80.5143 -1.4096 1.74765)
(84.8601 1.23334 1.19991)
(86.798 4.62268 0.577781)
(89.4856 7.27206 0.898286)
(90.4549 8.71746 1.08662)
(87.1531 7.86261 0.336245)
(86.5738 6.91498 0.00267825)
(83.9022 5.07539 0.0396572)
(81.5227 5.35299 0.379978)
(81.6186 5.37514 -0.568509)
(284.251 74.4553 -68.9282)
(138.555 38.2371 -54.8659)
(143.475 12.425 -19.0392)
(56.9736 24.1798 0.699517)
(99.0449 15.3588 12.5324)
(87.29 -4.0102 8.11922)
(96.514 -11.7121 4.67114)
(97.8026 -4.274 0.656747)
(92.7302 2.89455 2.43726)
(86.1174 2.38673 3.67487)
(80.6653 0.62687 2.58555)
(79.6164 1.34959 1.78268)
(81.429 2.49652 1.2095)
(84.7183 4.28441 1.22389)
(85.7326 6.93357 0.700161)
(81.3383 7.89247 -0.0474663)
(81.5807 8.46633 -0.150985)
(80.5214 7.53651 0.18785)
(78.6981 7.76568 0.30475)
(79.8909 6.6598 -0.544829)
(192.719 45.0816 -40.1361)
(40.6917 111.387 -22.4528)
(102.124 53.7124 -2.85394)
(9.45274 38.5179 1.27643)
(72.2064 14.6501 8.532)
(37.013 -9.79568 3.45394)
(60.9015 6.56212 4.21803)
(60.2327 3.89796 0.291557)
(70.7103 4.64192 -0.312106)
(70.6667 5.5013 0.839283)
(73.6279 4.37666 1.06136)
(71.4499 3.65233 1.287)
(72.6684 3.15019 0.753832)
(71.7887 3.22655 0.0525622)
(67.6738 3.76104 -0.431757)
(69.7472 3.78924 -0.495193)
(70.9786 6.29953 -0.550446)
(71.9783 6.24177 -0.177169)
(71.905 7.19363 0.0326916)
(75.699 6.14232 -0.558757)
(98.3851 208.549 77.6287)
(-11.297 79.8513 -2.0858)
(102.744 54.6607 -6.45866)
(60.3215 29.831 -0.579773)
(98.9283 12.627 6.11954)
(67.2321 6.42255 3.00954)
(76.024 15.2326 4.9064)
(60.7083 -1.59242 1.46379)
(64.8249 8.36982 0.755347)
(58.6292 2.31693 0.754956)
(61.6964 7.11203 0.793833)
(59.2719 3.33203 0.84268)
(61.4191 4.66101 0.510083)
(61.1849 1.95704 0.261603)
(62.9375 3.58163 -0.0206576)
(62.9457 3.32802 -0.223938)
(64.5523 4.44389 -0.210027)
(66.1499 4.40673 -0.114964)
(66.5042 5.45122 0.121267)
(71.7035 4.80776 -0.346511)
(143.19 51.2236 96.2884)
(-20.3422 24.2338 -7.28872)
(99.1233 13.5644 -4.94834)
(10.0834 20.2558 -8.69157)
(66.2485 23.0238 5.61738)
(26.4269 10.6355 1.01225)
(57.1195 10.1503 4.1878)
(41.81 0.210978 0.172832)
(53.5086 3.58532 0.794368)
(49.176 1.80554 0.289983)