/*--------------------------------*- C++ -*----------------------------------*\
  =========                 |
  \\      /  F ield         | OpenFOAM: The Open Source CFD Toolbox
   \\    /   O peration     | Website:  https://openfoam.org
    \\  /    A nd           | Version:  10
     \\/     M anipulation  |
\*---------------------------------------------------------------------------*/
FoamFile
{
    format      ascii;
    class       volScalarField;
    location    "3.1";
    object      k;
}
// * * * * * * * * * * * * * * * * * * * * * * * * * * * * * * * * * * * * * //

dimensions      [0 2 -2 0 0 0 0];

internalField   nonuniform List<scalar> 
12920
(
1163.24
983.38
844.013
775.252
574.502
399.608
257.964
191.022
158.301
142.522
129.745
120.67
112.709
105.284
99.9126
95.0642
93.4178
92.2823
91.5422
85.9588
74.1647
903.09
1923.24
2191.86
2015.33
1352.66
582.089
325.18
247.091
211.028
185
173.478
165.336
163.412
162.375
162.96
163.331
162.574
157.643
141.275
202.798
1640.41
1846.01
1730.92
1348.7
768.114
480.785
374.887
292.626
237.247
197.15
175.255
158.688
147.004
137.05
129.001
122.816
119.027
118.303
119.91
53.3887
803.844
1536.22
1268.06
847.867
693.781
554.228
460.884
364.625
288.517
224.615
184.834
160.105
145.827
135.697
127.78
121.06
116.234
114.706
111.699
116.439
639.962
1753.08
1918.97
1510.74
1031.98
678.426
507.842
394.076
324.454
262.835
213.837
177.805
155.815
142.505
132.954
126.051
121.654
120.419
115.874
256.526
2037.42
2408.14
2128.35
1262.92
816.498
544.744
454.054
378.115
326.17
270.723
225.061
187.53
161.164
145.839
134.171
127.199
121.462
118.881
110.319
3188.46
3486.63
2620.53
1992.6
1297.87
865.19
587.491
464.178
396.217
330.053
262.988
215.222
181.613
161.921
148.675
139.373
131.07
121.989
118.108
106.583
1867.49
3529.91
2586.26
1540.01
978.9
740.781
486.438
264.573
216.668
209.416
173.203
123.853
110.849
107.112
183.753
160.357
141.444
126.578
121.14
107.38
2622.76
4427.27
2128.43
1403.63
1010.66
584.412
349.943
171.155
100.324
133.343
114.261
81.2297
78.7946
82.8068
133.374
158.105
139.57
126.012
120.686
106.569
7213.49
6087.33
2594.39
1641.93
1120.49
642.295
347.591
166.458
113.378
123.061
105.191
99.6376
81.1679
80.9497
103.36
127.987
118.223
115.828
113.976
105.07
4028.14
3001.3
1716.7
1175.69
772.258
364.993
141.561
94.8086
108.545
94.9128
63.3127
65.2977
69.552
56.4708
93.1698
115.592
107.736
108.235
108.299
102.127
3670.56
2102.19
1690.56
1398.86
1089.5
610.944
337.12
167.103
102.185
77.5322
71.9552
56.3905
55.0079
54.9674
80.7821
91.78
90.0548
92.5376
97.4203
97.9632
6777.33
3892.45
2235.38
1788.67
1365.89
1034.27
628.937
360.07
235.071
136
101.715
91.0162
81.4817
70.6871
91.079
78.3387
74.7068
75.6598
81.6801
90.8263
2606.06
3197.1
2959.57
2365.23
1608.28
1179.76
768.664
511.995
334.788
235.492
176.851
143.746
121.064
103.265
88.6668
77.0233
69.6826
66.8497
67.4652
74.2666
2259.85
4949.39
4390.82
2711.05
1665.32
1283.06
887.592
614.001
404.461
273.123
199.408
160.047
130.975
109.114
92.7897
80.0015
71.5082
64.7888
60.2272
58.778
4578.33
4390.89
3450.84
2218.7
1261.21
762.382
512.813
380.445
286.155
238.119
200.593
172.375
139.663
113.497
94.5487
82.138
73.956
67.576
63.8929
58.1105
8546.66
5453.42
2348.33
1298.66
911.637
516.772
355.618
291.382
246.001
224.533
202.517
180.816
152.305
124.601
104.219
89.7202
82.0147
74.8162
71.6062
64.4218
4793.35
5034.47
2131.64
1353.91
888.919
566.017
379.105
298.489
240.87
214.153
191.56
177.392
159.64
138.973
120.244
104.84
97.2533
90.0121
87.0183
80.2717
13882.4
3011.19
1872.07
1307.49
955.138
701.659
451.657
318.842
256.036
235.402
206.404
183.245
160.69
140.645
123.682
110.019
103.863
98.2068
96.4495
93.6458
4025.8
1704.31
1287.8
981.526
806.455
676.849
548.111
422.739
325.042
253.819
203.245
163.481
132.313
107.149
91.0823
80.2772
75.3975
70.5416
68.4092
63.3188
1290.23
2322.74
2394.02
2164.88
1208.37
607.069
409.078
340.848
309.519
294.664
277.722
268.043
254.876
247.173
243.543
238.194
234.746
224.686
215.895
193.144
189.468
3826.9
4941.34
4829.44
3067.29
1511.17
860.13
704.613
594.369
540.23
491.892
475.548
461.194
460.082
461.332
466.001
470.313
470.725
464.858
441.967
2086.35
4374.17
3970.23
3444.59
1808.95
1417.11
1034.87
880.916
680.099
592.686
511.227
479.865
445.326
424.262
402.244
386.361
374.211
366.951
367.603
375.181
1131.34
3594.31
3920.85
2635.7
1763.81
1640.28
1285.63
1136.19
842.813
698.993
555.393
495.467
443.463
416.625
392.27
373.072
356.322
344.538
341.518
338.086
10537.6
11790.8
7177.63
4751.66
2726.15
2180.38
1454.08
1253.6
974.059
832.703
664.765
562.613
477.845
432.555
399.078
375.852
359.33
348.186
344.761
332.332
3025.21
8837.86
6352.03
4585.25
2366.71
1877.37
1313.38
1187.95
967.433
846.7
702.765
599.078
504.418
438.56
399.519
370.662
352.424
336.482
329.664
306.682
11491.3
9784.64
5250.79
3974.5
2248.66
1869.1
1361.91
1215.33
980.766
818.487
652.173
545.29
465.588
417.937
386.093
362.102
347.483
330.133
321.051
289.33
5794.91
9546.19
6795.67
3326.89
1760.32
1575.04
1336.12
1113.68
953.176
788.77
610.464
475.878
412.047
375.244
385.115
363.89
349.604
334.519
325.55
288.257
36127.8
15471.2
5075.24
3246.86
2151.53
1767.67
1389.31
1117.45
911.704
782.533
600.501
452.797
395.792
366.284
342.087
330.646
332.349
335.798
333.008
295.124
10045.3
7098.02
4399.46
3897.61
2398.8
2095.02
1579.01
1140.14
783.754
682.885
542.133
447.884
380.459
315.777
262.304
278.837
296.66
325.744
331.801
301.975
6434.53
4763.83
3751.36
2605.91
1616.51
1267.34
889.982
711.154
629.311
524.451
391.218
333.48
296.567
270.434
275.924
261.181
265.927
282.013
293.629
284.628
4199.72
4548.67
4151.35
3434.49
2242.41
1861.85
1394.37
1106.65
744.084
528.613
396.514
332.778
308.55
282.54
239.381
223.862
227.833
243
262.697
275.046
6306.84
5333.34
4699.53
3813.58
2702.17
2236.18
1683.41
1377.5
841.134
510.353
392.79
337.084
290.14
247.047
221.625
209.028
208.725
214.924
233.253
260.401
6227.9
6235.29
5535.17
4674.08
3301.34
2526.79
1594.46
1081.14
734.555
550.105
434.264
363.2
310.778
270.079
237.404
212.536
198.927
196.762
200.95
221.808
7383.5
10064.2
8578.33
5716.03
3422.08
2632.79
1735.15
1295.64
822.042
609.888
483.129
400.53
333.158
285.139
249.077
218.877
198.948
184.862
176.849
172.79
5215.11
8251.94
7234.34
4858.17
2529.27
1658.11
1141.27
901.438
693.001
589.988
490.257
420.502
349.316
297.558
255.087
225.69
204.654
189.756
179.586
166.557
8919.64
9358.09
6877.73
3870.09
2032.64
1244.57
896.811
743.499
635.185
579.245
515.076
466.786
398.651
336.657
284.824
248.968
226.537
205.579
195.906
177.918
23082.7
12833.2
5391.55
3520.11
2095.27
1395.08
973.599
796.893
663.056
600.241
533.993
493.103
441.176
391.191
340.988
299.334
275.801
252.001
241.593
222.17
22307.4
7172.49
5195.66
3197.29
2192.3
1565.25
1053.23
854.545
724.111
666.383
574.084
501.194
437.587
389.745
352.334
320.09
306.122
294.179
290.408
280.674
1585.11
2953.6
2656.29
1937.22
1600.5
1303.25
1014.82
771.15
581.227
455.435
382.285
344.659
316.078
273.874
233.521
200.826
187.631
174.226
168.288
153.844
788.519
3026.75
2758
1792.65
1014.18
615.401
485.031
428.169
398.109
379.224
355.813
337.403
316.308
299.926
285.975
269.622
257.734
235.536
223.304
203.255
2427.52
6742.5
5181.23
2979.77
2022.05
1342.15
1068.21
913.888
804.867
747.928
691.852
679.048
662.662
664.874
666.367
670.119
669.985
663.756
650.934
628.385
2759.67
5316.98
4028.89
2688.9
2029.15
1623.31
1328.88
1103.45
912.616
812.944
724.585
686.11
645.431
626.803
607.033
594.349
583.32
572.168
568.16
557.829
4721.61
5857.84
4925.52
2889.24
2360.78
1927.94
1575.06
1318.3
1041.07
896.643
762.27
698.632
639.479
607.108
576.633
552.336
532.771
514.799
507.038
488.098
25272.7
11785.1
6953.14
4738.69
3067.25
2444.49
1810.92
1529.22
1206.75
1021.73
844.337
740.819
656.36
607.183
566.595
535.274
512.661
490.951
479.542
448.031
21326.7
12254.5
6282.7
4418.93
2801.03
2293.9
1792.45
1528.97
1224.57
1038.98
866.493
751.837
658.366
595.904
551.168
513.526
488.383
459.598
443.084
399.844
41100.4
13996.4
5742.42
4060.82
2754.05
2517.64
1945.11
1607.89
1241.75
1011.71
816.842
699.192
612.875
561.7
524.931
494.711
472.662
440.115
419.31
364.356
20338.4
12853.9
6048.05
3876.92
2584.56
2380.62
2028.35
1618.42
1276.66
992.871
779.516
636.258
558.574
507.779
498.453
479.72
464.894
436.37
413.021
347.876
42543.1
9277.41
5497.29
3532.21
2594.75
2257.99
2041.38
1608.12
1310.47
997.777
764.824
612.066
531.948
477.966
440.523
437.999
442.778
438.53
418.859
348.231
7559.81
8612.28
5460.9
3915.53
2545.55
2296.24
1926.69
1407.02
1102.79
889.727
714.855
580.305
474.612
381.644
346.52
387.172
418.306
425.535
416.81
364.714
6686.23
6678.61
4505.53
2831.69
2061.2
1659.29
1410.44
1106.49
902.969
739.461
475.05
353.015
345.974
360.443
357.878
356.177
371.827
388.279
391.432
380.712
12473.1
6049.59
5140.68
3825.36
2935.02
2468.39
2011.58
1506.17
1008.7
730.716
565.748
482.255
431.169
380.298
319.071
311.806
323.529
349.81
371.687
390.681
5705.44
6048.86
5708.09
4857.63
3622.13
3163.31
2504.9
1729.58
1023.66
698.016
551.251
463.148
393.308
337.488
306.755
301.058
304.147
319.939
347.256
380.307
7781.84
6601.4
6172.7
5135.2
3639.23
2954.98
1948.46
1368.57
949.423
720.275
569.019
475.451
408.195
358.416
322.618
299.735
291.238
292.604
302.989
334.736
12420.7
10063.8
8633.36
6344.57
3631.19
2638.08
1743.03
1336.15
961.676
764.964
607.134
504.628
426.287
371.312
330.303
299.3
279.331
268.505
265.671
269.752
4813.08
7890.18
7306.28
4956.77
2720.3
1788.17
1327.65
1086.78
878.786
745.13
620.469
531.758
450.525
391.329
344.39
309.174
283.956
266.629
255.077
247.545
6290.12
9061.82
6654.82
4498.75
2490.1
1569.97
1200.68
1008.37
867.208
783.387
688.681
611.904
524.503
453.58
394.614
347.133
314.02
286.241
271.636
251.474
5162.12
7939.05
6603.74
4255.1
2597.52
1756.2
1296.43
1101.09
930.377
849.009
753.226
687.498
613.031
545.686
480.657
424.005
387.318
353.615
338.129
312.539
14386.3
7870.24
6221.3
3861.58
2689.74
1969.15
1398.02
1174.66
978.275
886.951
773.163
694.312
621.1
564.555
519.435
479.737
454.561
429.044
417.835
392.32
2403.76
3839
3468.57
2580.45
1973.22
1488.04
1117.69
857.265
675.188
565.411
506.167
456.149
396.289
328.274
276.577
240.395
226.072
210.851
203.649
184.779
3529.86
3851.74
2368.88
1325.1
858.783
601.892
509.058
460.147
429.386
402.371
375.105
347.249
322.648
297.678
278.945
257.942
241.48
222.932
215.629
199.946
6937.82
8593.13
5801.75
2455.37
1841.82
1268.36
1208.94
1071.57
1006.6
951.353
907.551
901.094
885.895
891.157
890.971
892.313
888.043
873.953
861.402
831.566
12772.3
6477.49
4779.14
2744.91
2443.91
1741.36
1589.99
1280.89
1139.29
1019.05
947.2
904.622
871.523
855.856
840.923
829.379
816.534
796.803
783.787
750.37
9909.43
9258.38
6431
3393.39
2838.88
1997.36
1829.78
1428.76
1235.94
1072.18
968.249
899.617
846.886
812.439
782.964
754.267
732.456
705.027
688.434
647.719
16537.2
11268.3
7388.74
4429.42
3474.03
2510.63
2108.41
1684.82
1406.35
1181.77
1029.55
921.975
848.132
795.677
755.56
717.371
690.448
655.596
632.542
576.26
28620.5
17495.6
7187.19
4265.81
3373.02
2467.59
2156.43
1712.47
1428.81
1190.98
1033.19
910.843
829.087
766.154
721.952
676.203
645.22
600.874
571.287
503.438
85027.9
20883
7375.9
4213.13
3510.81
2789.19
2264.1
1777.47
1434.35
1163.05
984.768
859.468
781.175
727.351
690.361
650.724
618.033
564.135
526.872
444.819
16201.5
12383.1
7058.14
4163.56
3388.26
2761.47
2360.63
1827.88
1434.21
1123.68
913.46
775.076
695.854
643.783
645.485
625.082
599.68
545.86
500.574
410.001
23115.8
9627.04
6104.97
3794.37
2964.94
2533.61
2372.51
1777.76
1425.44
1099.9
871.311
727.994
643.116
587.542
558.16
581.535
575.006
542.894
495.565
410.927
12349.6
11005.7
6159.8
3826.48
2709.78
2317.68
2034.98
1528.36
1259.57
1015.07
825.822
672.608
544.602
473.698
476.533
541.46
551.409
541.022
509.2
452.735
14652.4
7971.34
4851.92
3053.37
2316.47
1894.6
1714.41
1353.57
1094.24
895.254
663.73
508.156
459.359
456.667
463.898
494.495
510.209
520.148
519.056
511.095
31109.5
7312.09
5541.92
3746.53
3210.18
2607.45
2211.3
1586.13
1124.72
857.781
692.908
592.425
522.736
464.403
413.631
439.308
458.81
491.637
517.598
543.387
12207.2
7549.27
6881.87
5057.3
4019.54
3233.69
2625.23
1689.73
1128.96
833.004
680.726
572.88
490.927
432.173
422.086
423.631
433.635
462.828
496.902
535.678
10343
7825.93
6952.02
4956.5
3775.81
2845.9
2056.51
1477.63
1106.27
863.802
709.788
601.68
528.241
471.574
435.096
415.699
412.637
419.04
438.501
479.397
10642.6
10114.4
8482.74
5697.83
3569.88
2442.49
1835.65
1420.46
1122.17
902.901
745.021
628.47
545.818
482.942
438.276
405.711
387.11
381.337
382.024
395.714
8155.67
7743.71
7461.51
4962.06
2970.75
1892.99
1578.41
1275.99
1090.19
907.859
776.489
665.122
579.735
508.981
456.831
414.725
387.708
369.4
358.19
357.158
15064.3
8545.15
7459.81
4724.91
2887.05
1792.63
1513.09
1255.89
1124.78
995.941
886.236
773.225
675.14
588.097
520.943
462.825
422.99
390.279
370.03
351.474
14464.8
8506.8
7833.73
4703.05
3043.06
2016.35
1642.34
1416.47
1245.39
1129.97
1015.73
915.233
820.279
724.075
642.993
571.952
525.148
483.4
460.843
432.965
12638.2
9115.86
6848.11
4217.31
3122.07
2379.3
1790.58
1522.09
1278.56
1146.5
1025.78
938.296
853.828
781.264
722.936
667.252
626.789
587.88
564.844
521.015
5338.6
4371.64
4130.34
3357.68
2482.41
1720.68
1191.46
887.152
723.282
624.521
552.493
471.822
390.28
318.44
273.929
241.57
225.098
205.275
196.042
174.929
8212.45
6239.46
2034.28
1022.76
706.153
561.835
497.189
454.964
418.072
381.929
344.963
306.313
272.096
243.704
225.427
212.458
207.018
197.732
191.793
173.723
21603.6
15022.3
8654.78
2937.77
2235.58
1349.79
1681.15
1337.06
1456.75
1279.03
1320.63
1239.62
1258.5
1230.39
1244.64
1232.86
1229.92
1204.46
1185.91
1141.92
12120.8
8724.89
5764.77
3400.27
3170.45
2005.86
2136.64
1554.37
1586.77
1334.58
1351.1
1241.19
1251.25
1203.94
1205.9
1178.2
1164.05
1123.23
1099.53
1036.31
6382.28
11914
8689.65
4041.09
3575.38
2132.46
2301.36
1592.86
1620.12
1327.29
1323.58
1195.39
1185.67
1124.45
1110.24
1063.67
1043.14
995.348
967.692
899.518
22662
14298
8862.95
4618.78
4283.51
2604.7
2606.32
1887.65
1788.67
1421.39
1366.01
1197.77
1170.07
1089.36
1067.63
1010.7
985.276
927.292
888.93
802.373
35256.1
16084.3
9042.23
4645.71
4386.89
2605.11
2646.32
1879.25
1751.58
1388.21
1316.7
1151.79
1113.22
1033.52
1003.4
943.23
911.653
846.089
799.01
706.217
46066.6
18528.1
9154.02
4679.6
4638.91
2918.03
2702.34
1949.16
1755.72
1364.19
1280.04
1107.19
1074.11
1002.2
977.176
915.644
874.113
791.595
730.498
626.231
27959.7
13806.5
9255.6
4836.63
4634.65
3159.78
2601.44
1971.12
1638.75
1315.3
1160.55
1025.27
967.683
914.909
938.155
893.373
840.636
752.92
676.115
575.53
28146.3
13018.4
7013.22
4947.53
3491.43
2844.39
2625.66
1913.79
1585.8
1281.65
1093.49
975.92
913.719
869.559
862.415
857.67
814.96
733.817
665.56
586.375
27892.6
14289.8
7390.05
4636.68
3116.35
2401.57
2176.58
1731.91
1488.18
1216.64
1006.98
861.02
808.924
806.163
817.937
827.676
794.908
746.653
702.081
665.349
18401.4
10671.6
5895.19
4104.15
2666.62
2142.43
1913.19
1596.4
1356.82
1105.28
907.521
748.082
725.783
783.601
795.876
777.313
765.63
757.268
751.807
752.188
13828.3
9194.5
6079.18
4682.37
3405.86
2709.65
2353.26
1688.08
1322.13
1073.78
907.325
805.485
779.747
750.354
723.461
716.611
723.989
747.555
776.043
808.872
18043.4
9170.47
8169.41
5029.83
4667.69
3155.42
2573.18
1684.9
1331.12
1037.32
929.812
801.759
741.016
679.53
680.976
683.975
694.299
729.52
763.618
811.113
11844.5
9773.17
8086.61
4824.8
4172.82
2622.14
2297.39
1575.3
1369.98
1058.68
959.765
814.14
762.997
694.074
666.648
652.512
655.936
671.799
695.986
750.937
27565.5
10362.7
8956.49
4989.05
4112.93
2354.58
2229.62
1553.25
1417.94
1083.29
985.859
830.722
770.937
697.82
659.94
629.574
617.341
617.655
619.861
654.963
11810
8983.98
8853.75
5122.83
3591.7
2052.99
2006.89
1481.63
1434.82
1112.34
1046.21
868.149
818.524
721.003
684.338
634.642
614.079
595.944
586.214
599.218
19771.5
10611.9
9059.21
5183.45
3612.14
1992.37
1965.54
1480.31
1482.63
1215.95
1165.21
978.341
918.677
807.573
758.999
692.02
653.668
614.896
587.712
578.939
8537.89
10207.4
9866.58
5361.31
3803.19
2163.15
2152.48
1690.48
1684.8
1424.08
1374.35
1189.97
1121.96
980.112
919.058
835.504
788.461
737.042
705.558
685.471
8918.22
10333.5
7498.64
4258.82
3639.89
2414.01
2386.39
1940.27
1794.92
1453.39
1374.93
1258.98
1231.61
1140.74
1087.98
1008.4
947.802
880.059
823.606
777.749
2552.74
4052.8
3606.86
2568.97
1633.62
1106.14
879.495
759.959
657.953
532.99
417.14
329.84
281.461
244.771
220.997
195.339
177.049
153.065
140.858
118.775
752.845
745.105
543.307
983.745
841.628
861.7
657.469
610.092
488.419
387.76
798.996
682.454
587.46
465.368
530.341
744.228
607.567
854.445
627.061
837.061
705.278
373.887
573.571
501.581
558.684
448.07
670.886
589.799
196.142
342.964
210.721
1036.48
943.762
1263.5
1099.75
109.12
185.102
117.937
898.574
736.29
1011.03
720.472
126.165
108.153
113.45
718.977
714.64
665.546
635.299
118.1
123.014
123.438
685.124
565.279
629.082
537.286
91.2807
115.096
106.869
532.785
424.363
508.747
434.357
76.6056
97.2054
78.2023
392.967
352.27
404.104
355.044
82.4275
79.0638
84.0448
345.952
332.733
347.391
319.893
70.6019
83.4554
62.7252
326.532
314.998
308.183
269.988
195.86
206.005
96.8023
1257.28
1065.61
848.945
609.114
114.346
94.5243
103.498
965.999
690.959
574.253
535.904
121.232
103.38
90.6914
648.987
610.842
522.3
456.871
112.151
84.9113
64.6364
594.013
497.034
427.766
353.997
103.079
63.0373
73.5941
474.138
420.784
341.007
324.793
81.154
77.5806
78.0876
397.354
349.599
318.423
291.455
82.4235
75.5978
64.9844
339.549
302.845
280.061
242.884
60.3205
61.4783
44.6739
287.758
251.2
233.277
222.917
92.769
280.696
174.633
674.117
594.38
982.213
902.049
109.036
153.737
105.596
579.652
553.453
833.521
622.828
97.3447
94.7566
81.2577
537.652
480.524
568.351
478.325
72.6335
81.9144
82.5419
456.148
352.232
462.191
382.778
60.8318
78.0193
57.8539
329.528
300.47
349.591
289.646
70.3242
54.9353
51.9576
294.679
275.398
279.715
265.086
59.0408
52.043
54.497
266.554
242.099
263.076
256.695
44.2133
54.9373
43.9139
236.559
235.622
252.872
236.217
192.495
454.681
269.038
1034.55
943.248
1007.9
975.541
115.381
245.157
183.918
892.488
680.628
958.795
833.925
79.7928
171.266
111.04
612.261
470.597
741.559
483.065
76.095
94.6741
62.1954
443.798
365.786
417.324
323.113
58.1895
60.7158
57.9463
339.435
290.552
309.057
285.681
54.9516
58.1104
56.1468
282.104
267.885
278.514
258.154
55.1931
55.1349
50.702
264.577
252.702
249.521
224.51
43.5829
49.051
37.3648
245.908
226.495
214.319
191.834
1176.58
1590.55
1302.24
1888.53
1617.48
1977.31
1580.38
938.979
1199.38
889.162
1529.98
1318.14
1462.16
1183.37
831.925
827.143
756.744
1255.53
1035.43
1123.85
963.759
639.745
731.182
609.02
962.25
784.969
905.169
751.28
483.617
576.807
488.229
733.923
610.21
711.223
603.17
405.153
458.285
404.776
580.145
519.838
573.585
504.992
374.153
392.813
354.103
504.045
465.252
483.512
421.922
345.858
340.209
292.885
454.004
429.941
404.167
358.726
1255.51
1076.64
753.697
1880.58
1493.16
1402.48
1086.72
834.088
706.39
636.287
1372.27
1101.42
1020.1
881.422
712.553
615.57
536.305
1048.01
903.768
842.035
721.82
568.646
504.743
423.885
852.054
717.267
692.394
545.101
472.834
404.369
365.725
681.496
582.728
501.307
407.962
394.741
354.212
318.315
554.173
482.008
385.722
336.399
332.624
305.375
268.574
457.718
387.523
325.189
309.464
271.546
259.851
247.869
368.111
331.143
309.442
317.071
739.585
1283.11
1104.4
1306.38
1083.1
1711.74
1449.86
651.952
1018.04
763.987
1025.57
887.796
1331.87
1017.49
555.19
697.918
577.02
845.972
722.618
937.725
759.77
417.44
548.123
440.339
690.214
531.741
708.616
571.946
344.254
405.982
343.356
486.215
393.672
537.831
468.329
305.704
331.982
312.966
373.677
341.995
452.823
419.743
274.922
309.247
297.079
339.772
341.533
410.818
382.458
263.313
291.267
263.049
341.54
337.115
371.744
334.746
1183.06
1455.74
1300.97
1901.99
1587.44
2156.83
1864.11
828.072
1250.44
995.341
1455.88
1071.18
1693.78
1201.9
566.534
869.708
570.199
968.139
748.347
1040.97
731.76
425.313
499.842
389.961
693.514
561.218
663.021
536.549
342.908
371.32
336.868
529.899
465.736
509.745
451.967
313.557
327.286
300.365
450.997
416.651
436.205
393.138
291.027
290.035
260.135
406.387
373.385
378.125
336.783
252.482
249.087
216.491
360.79
324.427
323.003
285.835
1704.8
2041.54
1617.3
2304.87
1861.47
2166.59
1691.34
1383.64
1499.16
1238.24
1747.32
1492.21
1580.84
1351.72
1071.91
1178.37
1001.05
1403.2
1147.4
1286.48
1083.68
817.205
939.135
783.752
1074.89
895.583
1020.11
863.303
641.697
742.148
631.654
843.2
725.226
818.76
704.32
549.098
601.785
528.177
696.416
629.803
672.915
587.395
489.579
504.428
438.577
610.799
564.841
560.333
494.922
451.47
420.619
376.03
553.332
527.65
480.268
449.695
1524.02
1482.36
1170.65
2008.28
1597.51
1666.46
1369.29
1157.12
1100.65
946.844
1496.33
1283.27
1293.83
1110.57
943.879
902.482
771.757
1223.51
1040.55
1056.04
908.746
824.923
838.882
826.69
922.856
785.383
871.936
866.455
661.868
678.522
669.036
744.806
632.489
706.539
701.667
501.498
364.513
325.639
648.703
552.789
431.845
389.49
400.621
320.061
320.821
521.957
452.254
386.301
390.784
347.593
324.111
334.649
439.127
424.331
394.686
405.929
1170.54
1806.5
1508.67
1651.95
1377.06
1984.64
1615.55
949.828
1385.04
1065.62
1299.89
1105.69
1485.64
1169.74
768.468
984.825
797.74
1048.28
894.832
1088.87
891.709
724.284
670.74
742.254
773.973
690.984
635.46
779.431
533.467
432.43
544.861
387.666
509.841
346.433
569.619
340.51
484.729
446.906
428.026
417.9
568.746
517.249
359.708
436.272
403.273
421.073
424.83
502.445
461.439
354.339
391.405
351.049
424.547
418.033
448.421
407.343
1648.32
2369.08
1947.5
2176.41
1727.46
2611.78
1999.15
1111.1
1752.7
1221.95
1573.36
1191.19
1776.71
1251.6
787.092
1066.4
769.88
1096.66
881.826
1123.95
867.239
597.351
703.24
574.662
825.329
693.794
804.876
673.98
498.446
546.065
482.504
661.021
584.479
641.818
565.655
443.091
465.179
417.526
564.228
512.479
544.153
484.804
393.856
401.269
357.083
496.862
451.823
466.011
416.329
340.767
342.913
302.999
437.195
396.222
401.675
360.619
1894.78
2197.7
1715.38
2548.18
1991.04
2299.97
1824.09
1516.6
1608.37
1383.64
1868.57
1608.8
1727.54
1513.25
1171.1
1316.86
1111.18
1523.31
1283.5
1446.54
1237.37
922.728
1047.65
889.36
1213.45
1050.98
1171.12
1005.62
756.157
844.205
729.315
1009.05
910.941
961.13
852.196
661.784
697.575
611.011
884.633
827.442
822.951
758.618
598.49
584.841
525.947
813.318
777.833
745.853
720.867
559.134
513.609
484.358
766.976
734.892
713.406
686.667
1624.83
1717.51
1423.73
2129.41
1744.84
1852.03
1590.47
1320.75
1347.94
1160.69
1661.44
1468.96
1521.34
1344.4
1072.65
1104.5
951.308
1407.31
1208.07
1286.05
1108.46
869.512
907.538
750.384
1144.55
983.754
1051.84
906.558
707.247
688.217
544.499
938.375
820.402
856.166
716.232
574.343
507.635
439.366
786.832
711.472
677.679
608.84
483.595
429.943
427.502
699.199
685.749
606.914
637.984
460.063
431.634
439.409
683.03
670.489
646.619
648.959
1432.78
2035.41
1642.02
1863.9
1597.93
2166.83
1738.34
1153.51
1512.18
1201.16
1522.77
1330.86
1613.89
1331.61
935.135
1121.23
924.047
1269.71
1088.48
1259.15
1063.03
723.429
869.305
737.669
1033.34
887.126
1005.16
867.271
536.493
702.913
619.061
839.33
713.129
831.597
743.445
463.862
596.818
542.512
678.622
622.942
720.515
679.981
456.498
527.539
488.331
623.268
652.449
675.869
663.402
448.913
476.036
433.711
658.023
650.835
655.038
616.274
1739.99
2631.54
1981.46
2316.08
1794.08
2662.88
1924.59
1215.61
1762.42
1263.77
1647.36
1326.25
1731.42
1341.84
913.937
1145.97
899.908
1249.72
1054.25
1252.4
1036.17
726.18
838.853
707.787
997.086
863.004
977.694
855.624
613.694
675.308
596.846
829.533
747.454
826.876
747.912
538.466
574.265
511.897
725.387
683.478
721.534
656.829
478.602
492.91
443.136
675.582
649.641
640.306
596.911
421.86
428.743
385.327
637.699
598.247
582.294
539.241
2036
2350.8
1886.06
2821.92
2186.75
2530.2
2116.65
1665.71
1793.61
1586.73
2076.26
1891.87
2032.07
1855.31
1351.5
1522.13
1311.46
1828.32
1590.45
1798.19
1590.93
1129.82
1243.46
1077.54
1528.77
1438.32
1526.2
1385.91
1001.4
1034.82
930.642
1420.39
1332.78
1353.01
1267.74
924.849
903.718
860.584
1312.92
1290.93
1253.47
1268.46
880.725
855.453
838.903
1288.25
1248.78
1270.63
1245.1
832.04
831.177
796.228
1237.81
1206.31
1234.95
1199.34
1810.26
1902.38
1661.5
2357.02
2052.59
2097.23
1914.01
1548.75
1597.79
1433.21
1983.11
1831.11
1860.35
1732.48
1283.48
1375.24
1186.5
1774.49
1570.99
1677.75
1489.41
1051.45
1124.52
972.553
1505.15
1357.34
1423.3
1281.3
892.251
923.381
784.097
1320.54
1221.48
1238.55
1102.41
809.341
747.372
702.337
1202.37
1224.16
1077.06
1120.42
809.079
712.542
767.213
1238.45
1228.27
1161.43
1205.08
782.826
775.022
764.536
1220.75
1190.78
1203.54
1176.2
1666.36
2213.04
1786.76
2112.75
1908.08
2375.74
1979.84
1417.31
1667.14
1403.63
1849.36
1711.37
1872.1
1667.45
1165.84
1335.38
1139.73
1655.56
1468.26
1611.49
1430.88
954.076
1079.61
939.493
1403.75
1264.25
1372.15
1250.39
781.131
904.314
816.582
1224.37
1100.44
1221.22
1141.98
713.894
794.652
774.256
1077.9
1127.11
1130.6
1173.45
778.522
779.727
779.378
1169.14
1212.12
1193.8
1189.13
765.664
771.418
726.815
1209.13
1175.62
1179.72
1137.67
1829.29
2667.07
1921.08
2501.96
1995.65
2733.58
2018.24
1391.72
1739.72
1393.69
1868.84
1642.85
1847.7
1608.55
1131.99
1314.45
1109.34
1592.27
1421.42
1548.1
1383.68
939.955
1051.18
937.452
1364.71
1255.87
1313.2
1258.33
826.184
912.256
835.592
1230.35
1159.68
1237.08
1173.56
781.288
808.055
748.072
1148.12
1176.66
1132.38
1108.91
761.869
734.332
695.028
1182.2
1163.29
1094.96
1065.63
706.508
680.285
634.867
1151.86
1114.69
1045.12
1018.96
784.142
793.538
706.812
784.618
745.553
826.476
742.762
777.139
768.659
688.975
782.364
732.6
813.808
682.256
723.842
636.182
613.053
459.875
686.634
663.139
551.356
861.737
953.595
932.298
939.569
902.611
903.558
896.359
820.677
813.861
885.691
810.499
856.801
777.622
854.527
821.148
816.595
898.951
811.302
856.892
712.887
861.74
769.016
486.641
757.407
743.632
706.338
582.506
813.991
622.696
643.198
564.189
635.082
596.964
669.562
586.581
563.903
589.153
441.109
400.984
548.224
608.849
349.518
509.994
472.957
404.845
333.968
507.274
475.477
329.442
692.024
772.532
758.052
765.783
732.747
734.204
722.14
650.25
658.855
719.165
637.785
694.611
610.739
679.474
598.58
422.579
701.177
536.455
648.456
374.372
649.15
539.415
350.005
552.082
499.185
501.128
347.784
597.727
665.793
596.346
586.696
443.136
636.827
522.315
612.873
731.565
746.768
693.852
776.196
697.71
780.231
726.057
684.852
608.171
647.836
641.133
650.599
642.414
680.85
764.02
809.234
798.801
850.251
679.918
815.65
804.167
705.903
461.416
713.795
700.073
551.132
652.146
751.916
765.179
806.61
844.407
788.092
812.47
757.156
798.104
719.468
673.528
711.696
744.3
677.292
712.799
753.521
507.587
394.201
459.07
318.194
482.85
325.714
479.556
574.327
571.865
545.289
607.147
541.276
605.75
578.293
548.063
495.155
521.612
532.295
516.168
525.397
553.599
569.862
402.891
510.301
654.185
363.562
607.34
614.526
540.903
338.193
464.645
551.528
343.502
510.589
580.321
607.886
639.405
674.214
640.588
640.201
609.855
641.001
580.02
561.391
585.493
613.656
555.491
584.027
611.485
357.585
471.866
367.08
714.067
695.695
687.179
671.264
226.489
285.584
234.719
647.107
644.668
634.804
625.007
211.878
222.148
224.744
649.961
641.154
630.714
633.68
196.881
222.545
208.193
612.811
546.42
602.831
534.724
143.158
182.555
154.303
473.348
406.353
464.168
395.379
115.341
130.79
119.832
354.62
323.85
343.759
318.608
108.532
116.794
116.941
303.851
293.907
304.557
298.288
89.7209
116.686
105.343
280.744
296.923
287.889
303.05
495.587
609.795
513.778
1030.26
984.002
1174.37
1152.62
478.371
281.18
333.498
480.369
460.247
490.266
272.342
362.497
148.878
185.249
377.438
337.554
410.742
164.531
266.311
100.268
108.256
276.136
287.979
260.323
106.275
361.634
132.556
129.152
390.061
385.608
356.046
131.116
306.876
110.377
117.864
325.744
309.593
317.13
114.139
210.056
76.3317
88.0631
219.236
206.256
229.242
78.9496
210.171
80.0842
77.7497
200.167
203.068
206.78
80.6533
207.327
82.5766
83.9089
206.231
205.745
210.141
83.6727
109.621
122.555
88.6
271.138
285.228
240.303
243.572
532.583
590.698
394.907
1199.5
1172.45
1079.01
898.762
479.054
278.552
321.26
535.856
528.926
507.294
238.955
356.076
142.733
118.728
441.089
397.475
372.403
111.406
334.207
114.379
114.487
323.547
323.626
334.85
117.5
278.569
122.92
111.169
335.008
332.231
302.833
103.139
239.125
103.832
88.7489
277.537
273.97
236.343
89.6278
227.597
90.3323
94.847
249.892
228.721
240.472
91.4754
200.416
82.1841
80.5489
208.962
208.328
203.691
80.2253
166.084
76.9768
74.6318
191.845
184.508
175.428
69.8315
78.6829
92.3961
73.2126
204.157
217.242
194.945
208.206
266.512
448.364
388.023
752.732
642.106
861.742
845.552
313.105
106.911
169.145
257.982
256.685
292.236
141.402
318.258
100.95
120.521
282.464
294.913
328.356
115.13
277.308
105.801
105.097
301.846
294.282
291.131
99.4133
258.033
91.6271
95.5066
260.338
243.697
263.309
94.472
157.358
59.6668
74.2197
155.452
152.194
180.317
64.0559
144.971
68.8884
55.8955
169.479
173.536
144.334
56.2839
136.996
66.9507
56.8514
168.221
159.021
141.439
55.5447
134.676
55.1849
53.6457
136.155
133.676
133.55
53.9836
76.1046
91.5351
66.8389
204.455
211.745
197.669
199.007
503.715
667.944
567.072
1044.01
938.837
1040.17
923.654
453.169
271.039
345.8
477.542
449.298
485.652
280.307
344.879
146.168
171.267
374.856
344.556
366.198
151.047
255.488
91.2567
111.097
258.961
233.126
284.023
100.166
186.959
77.2121
74.4198
213.321
215.214
194.366
69.6757
161.429
65.5362
60.8248
191.204
173.584
166.711
59.1039
152.822
55.3918
57.4701
150.251
147.237
154.142
57.3245
147.523
55.1796
56.6378
144.636
144.249
148.803
56.3605
133.175
54.3884
53.6287
141.287
138.993
136.955
51.5612
58.4328
67.9953
53.8421
174.139
175.855
152.62
146.456
455.655
634.059
451.27
880.868
833.348
933.46
843.763
294.755
353.876
273.963
800.002
727.066
703.818
577.079
179.543
220.271
166.08
583.218
448.274
477.228
391.698
112.444
138.07
117.276
338.303
290.131
312.435
272.788
96.1492
107.673
95.3105
266.77
255.027
245.42
231.968
86.5809
90.9776
84.546
239.888