/*--------------------------------*- C++ -*----------------------------------*\
  =========                 |
  \\      /  F ield         | OpenFOAM: The Open Source CFD Toolbox
   \\    /   O peration     | Website:  https://openfoam.org
    \\  /    A nd           | Version:  10
     \\/     M anipulation  |
\*---------------------------------------------------------------------------*/
FoamFile
{
    format      ascii;
    class       volScalarField;
    location    "3.1";
    object      nut;
}
// * * * * * * * * * * * * * * * * * * * * * * * * * * * * * * * * * * * * * //

dimensions      [0 2 -1 0 0 0 0];

internalField   nonuniform List<scalar> 
12920
(
1.67908
3.63632
2.74986
4.2591
2.87204
3.06471
1.66547
1.52309
1.06451
0.997533
0.815795
0.749515
0.653937
0.598425
0.537292
0.499718
0.471634
0.449835
0.430531
0.377227
0.214273
4.15107
5.56312
8.24775
6.22457
6.17752
3.38186
3.20838
2.03846
1.95424
1.5246
1.47524
1.32117
1.3092
1.24644
1.23506
1.19931
1.17277
1.10924
0.9375
1.53515
9.05987
8.01184
9.32358
6.10618
6.20225
3.5064
3.6203
2.29087
2.07904
1.60764
1.52531
1.33136
1.2602
1.14375
1.07655
1.00142
0.968014
0.943788
0.914974
0.139361
4.98204
7.16455
7.99371
5.7744
5.90952
3.87405
3.87569
2.57826
2.29595
1.72151
1.55259
1.3451
1.29574
1.201
1.14873
1.07659
1.03655
1.00378
0.923316
0.173787
1.10557
4.06069
9.76634
7.20359
7.21566
4.16558
3.76934
2.68324
2.4611
1.95421
1.73684
1.46815
1.38857
1.28132
1.23211
1.16029
1.12742
1.09176
0.991472
0.398396
6.39111
7.02214
10.344
6.08286
6.43041
3.65526
3.94988
2.96761
2.8766
2.30607
2.01526
1.67382
1.51248
1.39934
1.31525
1.23352
1.17362
1.11912
0.976275
12.5809
13.2222
11.4346
10.008
5.88187
5.22136
3.45122
3.61746
3.07865
2.991
2.34863
2.11453
1.77829
1.64832
1.47033
1.37629
1.24903
1.15723
1.09508
0.935851
3.44097
13.2463
9.01094
8.01226
4.15906
4.29328
1.24269
0.981111
0.856411
0.900123
0.741559
0.575681
0.545841
0.536115
1.80915
1.498
1.27653
1.14868
1.09267
0.940837
3.35761
15.1213
10.3541
8.39422
7.12232
2.70725
0.548793
0.251144
0.143155
0.214374
0.205244
0.166439
0.183221
0.194703
0.578803
1.34241
1.15615
1.06566
1.03457
0.928698
10.0427
17.4808
7.85218
9.11329
6.36773
2.28728
0.53082
0.242823
0.192958
0.199622
0.183987
0.189548
0.166183
0.164528
0.399143
1.03471
0.956958
0.972029
0.975726
0.931139
9.47726
9.40046
7.86267
7.69352
6.23297
2.14233
0.59031
0.259773
0.23441
0.175681
0.126015
0.136951
0.135814
0.10626
0.366269
1.09662
1.052
1.08885
1.07108
0.984115
8.02253
10.2776
8.63845
8.37212
6.59741
2.40987
0.495873
0.239207
0.163653
0.143218
0.156861
0.132552
0.128078
0.128306
0.397097
1.04206
1.04236
1.06607
1.07734
0.973855
9.81514
13.8935
10.5923
9.47582
5.76371
5.04592
1.33121
0.988276
0.752237
0.620197
0.541916
0.523114
0.448961
0.386292
1.08877
0.925626
0.907035
0.900973
0.960776
0.913343
3.77466
12.5794
12.1683
10.9178
6.75344
6.20196
4.38391
3.62145
2.63906
2.32985
1.847
1.65154
1.37421
1.20579
1.02953
0.907673
0.8394
0.80595
0.822043
0.772533
3.65166
15.5545
14.7919
11.7072
7.30687
7.44673
4.92234
4.05051
2.79382
2.44177
1.93425
1.77145
1.45035
1.25314
1.06733
0.936331
0.860652
0.787175
0.745077
0.646946
5.54626
12.4188
9.78363
10.2286
6.39251
6.20595
4.20769
4.38297
2.78266
2.76417
2.09104
1.91608
1.46043
1.23544
1.0287
0.930712
0.852168
0.789638
0.750238
0.623288
11.1996
13.4626
5.27203
5.15107
4.55211
5.11327
3.6403
3.83311
2.67506
2.70329
2.03532
1.82377
1.41872
1.17042
0.990233
0.91991
0.88565
0.838144
0.811766
0.681093
8.91436
16.1032
5.44076
7.07455
4.61802
5.34483
3.33186
3.5592
2.18282
2.05065
1.60562
1.49303
1.26465
1.11711
0.975421
0.918752
0.903131
0.876554
0.859162
0.74401
27.3039
7.49531
6.63507
8.10537
5.36578
5.94103
3.36126
3.04097
2.0972
2.11679
1.70683
1.52852
1.25188
1.09225
0.941594
0.853932
0.813011
0.791541
0.784602
0.738013
13.1767
5.31347
5.55487
7.0292
3.69419
3.84169
2.48552
1.97927
1.40524
1.12514
0.881655
0.760777
0.639023
0.553053
0.47892
0.430205
0.400669
0.37094
0.352798
0.307964
4.32743
14.0066
16.9284
22.3581
13.3357
12.2242
6.58012
7.12456
5.68501
5.96156
5.07302
4.9866
4.44839
4.27325
4.01477
3.85456
3.64611
3.37323
3.16112
2.66093
0.574681
15.2558
35.1204
22.3081
18.8101
10.6828
13.6461
16.2019
15.8659
15.9802
15.805
16.0379
16.0031
16.1098
16.1379
16.2253
16.2758
16.2097
15.9997
15.1694
6.96708
33.5396
32.0259
24.6609
15.4711
19.1579
18.8256
18.4369
15.5075
15.2662
14.8733
15.5641
15.5782
15.4722
14.9697
14.5798
14.1888
13.9208
13.9621
14.3244
2.84484
30.118
39.3412
30.2527
23.5836
25.2416
22.0434
20.9559
17.0181
15.5842
14.0285
14.3121
14.3857
14.7647
14.7246
14.5118
14.1278
13.8203
13.7061
13.5784
16.9914
25.6852
36.8277
35.0902
26.0944
26.2336
22.0398
22.0714
19.5399
18.4453
16.4394
15.6608
14.836
14.8727
14.7716
14.6497
14.4592
14.2461
14.1208
13.6417
12.0573
46.2012
40.0036
37.9514
26.3162
27.0073
21.994
22.5671
20.9563
20.4428
18.7899
17.3806
15.8896
15.0706
14.967
14.6997
14.3687
13.8991
13.6529
12.8969
42.7564
53.1672
34.9439
30.8357
20.6423
19.7759
18.1747
20.3737
20.5281
19.9922
18.532
17.4477
16.4891
15.8183
15.1632
14.5102
14.0313
13.4515
13.1515
12.1955
27.1211
42.4558
38.4513
27.3353
18.0978
18.4059
16.3219
15.9954
18.0902
18.2468
15.8438
14.4987
14.6297
14.314
15.5955
14.3403
13.6527
13.0845
12.8304
11.8937
40.8826
50.9161
46.4609
37.3345
27.9476
21.4512
15.7988
13.6697
11.9107
14.8973
14.5842
12.9951
13.9308
13.9488
13.5023
12.8645
12.5029
12.4845
12.3981
11.7479
21.2226
34.5488
37.0788
39.1622
28.4461
24.1453
18.3137
14.3852
11.8981
13.2236
13.5783
13.4169
12.5441
10.9332
9.44739
10.6331
11.1662
12.0227
12.2414
11.955
23.4945
36.0496
40.3023
32.7468
23.4498
18.9813
13.7065
13.2269
14.0445
12.0652
10.4289
10.4906
9.3905
8.89718
10.263
11.2141
11.5337
12.174
12.4634
12.3541
14.5882
34.3302
42.0257
34.3921
23.0661
19.7175
15.7631
14.3129
11.6447
10.8106
11.1324
11.3143
11.1083
10.6905
10.2742
11.0288
11.2957
11.9022
12.3674
12.7079
15.1394
31.4679
36.9004
32.8424
25.0018
22.5586
17.7309
17.7728
13.6099
11.3893
11.971
12.1222
11.3577
10.2556
10.4546
10.421
10.831
11.1855
11.9542
12.5777
21.9086
33.9008
44.0849
41.5619
31.0505
24.9289
18.3667
15.6552
14.2157
13.8904
13.7506
13.2981
12.5902
11.8076
11.0457
10.4533
10.3402
10.5997
10.8822
11.4921
18.2446
43.7126
45.4601
42.1988
33.8577
30.8255
22.6218
18.8856
14.6029
14.3871
14.8285
14.4849
13.3718
12.4719
11.6795
10.9186
10.555
10.2763
10.0759
9.66364
17.1762
45.879
44.1677
41.3895
31.1242
27.5528
22.3028
20.6826
18.3761
17.7053
16.2192
14.8276
13.2337
12.3448
11.5207
11.0816
10.6904
10.3987
10.1009
9.4723
22.88
42.42
33.1724
22.8405
26.7514
26.1679
22.7586
20.7394
19.0514
18.1007
16.6184
15.2945
13.3654
11.7626
10.9803
11.0985
11.2549
10.9186
10.6756
10.0479
34.7032
40.0334
33.4418
34.5788
30.4345
25.973
21.8088
20.4001
18.8651
18.1424
16.8398
15.8777
14.4551
13.1211
12.0293
11.8669
12.1054
11.8658
11.6998
11.0806
55.0932
47.9135
44.8649
34.9108
26.6624
22.0583
18.64
18.4444
18.0521
17.9841
16.7827
15.7234
14.6429
13.8448
13.045
12.2797
12.081
11.9482
11.9228
11.722
6.34581
14.5237
20.1978
24.6689
18.6502
20.2413
14.2468
12.1297
8.17103
6.5638
5.16786
4.87216
4.61895
4.39628
3.90062
3.42634
3.17238
2.93211
2.77523
2.39861
2.85822
12.6108
19.2069
17.1917
17.3808
13.9472
8.49227
9.99586
7.77179
8.22096
6.86914
6.61649
5.77547
5.42379
4.91208
4.54353
4.19328
3.73899
3.47891
3.016
9.94739
33.8393
46.24
29.4853
24.0612
24.553
26.8849
26.7989
25.4948
24.8204
24.0232
23.8673
23.4333
23.4087
23.3624
23.3644
23.3306
23.121
22.6857
21.8243
4.8127
47.1445
44.5451
37.0114
32.5051
35.325
32.9896
30.3065
27.2798
26.5522
25.6557
25.5664
24.9995
24.6645
24.0674
23.5823
23.122
22.6188
22.4031
22.0257
17.0052
49.8852
58.351
47.2249
42.9031
39.7513
35.2136
31.8771
27.9071
26.473
25.085
25.0657
24.6448
24.4007
23.8469
23.1948
22.533
21.8237
21.4712
20.727
44.0627
53.4857
60.0668
48.8508
44.2364
42.1404
37.5163
35.0892
31.4021
29.2184
26.9322
25.8644
24.8737
24.374
23.7237
22.9952
22.3272
21.4953
20.9914
19.7382
53.624
68.1705
57.3631
52.6128
43.078
42.7948
38.6771
36.7116
33.4685
31.0819
28.6027
26.7479
25.2272
24.2413
23.4916
22.5358
21.7446
20.6218
19.9594
18.3246
64.8014
74.3308
51.4621
42.9543
35.3035
37.3218
36.4219
36.2543
33.5623
30.984
28.2073
26.4313
24.8295
23.776
22.7421
21.7585
20.9429
19.7573
18.9999
17.0079
71.899
64.9946
55.1987
45.1501
37.039
38.4246
34.3124
32.601
31.6374
28.8678
25.7975
23.851
22.8337
21.6318
20.5341
19.9819
19.6006
18.9245
18.2724
16.1895
64.4784
62.9891
66.1814
54.7138
45.2342
38.7714
32.5744
27.7777
25.4654
25.8933
23.9508
22.0551
21.1948
19.785
17.811
16.5176
17.0687
17.8408
17.6982
16.0948
14.1984
62.9982
61.1213
55.7559
43.0364
39.1325
32.5255
25.7677
23.4761
23.2964
22.4199
19.611
16.2244
12.9876
12.0661
14.0917
15.5825
16.8363
17.3337
16.8609
12.202
63.7276
62.515
49.1069
39.5935
33.8148
28.3732
26.0731
24.5029
23.2844
7.70245
6.07099
8.74504
12.2085
14.4542
14.8546
15.7617
17.0546
17.5816
18.064
34.7729
51.9953
64.3438
51.5433
40.3977
35.3194
31.2164
27.3955
22.2421
20.5874
20.1125
19.2691
18.0454
16.641
14.8741
14.783
15.6849
17.0465
18.0124
18.8483
16.6453
46.5272
54.9957
51.7602
41.038
38.638
33.6604
30.4807
24.7842
22.1709
21.126
19.7233
18.0104
16.2743
15.3907
15.7204
16.0847
16.8257
17.9201
18.7368
20.0124
49.0845
57.9415
54.4103
40.7178
35.4761
30.8702
28.9023
26.4559
24.866
22.8716
21.2044
19.489
18.1107
16.9849
16.3458
16.2129
16.2957
16.7002
17.4916
25.8354
51.3782
54.7812
54.4657
45.4175
41.8727
32.9488
29.7978
26.4479
25.528
23.8799
22.0762
20.2044
18.7694
17.5257
16.5419
15.9404
15.5544
15.4179
15.2808
17.7937
50.1551
54.0983
58.998
47.0522
40.1926
34.1529
31.883
29.1555
27.0239
24.3599
22.1508
20.1991
18.9371
17.7094
16.7633
15.9415
15.323
14.8223
14.3376
25.5938
49.298
42.1116
48.9385
46.2589
39.8741
34.7707
31.8567
29.2339
27.3606
24.9214
22.6812
20.4764
19.1208
18.1508
17.3909
16.6307
15.741
15.2325
14.3117
9.33698
40.3404
53.7439
55.1416
45.1323
37.165
32.0011
30.1189
27.891
26.7062
24.9009
23.3562
21.6775
20.4518
19.3662
18.5041
17.7649
16.8446
16.3382
15.3245
30.8605
44.9335
61.3891
48.6544
38.075
32.7812
27.8076
26.1992
24.0206
23.0624
21.617
20.8176
20.0341
19.4863
18.8452
18.08
17.4564
16.6685
16.2705
15.3771
8.68644
19.6416
33.0229
28.4795
23.3809
21.669
14.0696
12.6198
9.33411
8.14024
6.94132
6.62002
5.99498
5.46733
4.80915
4.25494
3.96217
3.68362
3.47297
2.95749
9.31849
34.8581
20.289
20.4508
16.2268
13.775
9.71623
11.3803
8.77164
8.70323
7.21733
6.53118
5.63537
5.01028
4.46735
4.01204
3.68648
3.40275
3.30421
2.99095
24.8467
49.6694
50.3362
38.3807
34.309
31.4547
30.9623
29.584
28.0671
27.0717
25.7129
25.4129
24.7317
24.6394
24.5672
23.9827
23.7946
23.0539
22.7994
21.5651
33.4363
52.1901
57.7461
50.3745
47.6738
43.5129
40.2942
35.6201
32.7155
31.177
29.5566
28.7882
27.7955
27.2891
26.6855
26.1933
25.6863
25.0668
24.6499
23.6132
34.4081
65.9705
71.5258
59.5029
54.367
47.1017
42.9729
37.4053
33.8534
32.1211
30.229
29.3295
28.1759
27.3636
26.4479
25.5312
24.7704
23.8703
23.3475
22.2079
77.1287
77.8627
78.1087
66.2446
57.5078
51.6924
46.0642
41.6946
37.1662
34.2244
31.5448
29.8902
28.4324
27.3162
26.2161
25.0529
24.1144
22.9435
22.2022
20.5701
78.5211
83.615
72.8664
64.3184
57.1694
52.5218
47.9537
43.1339
38.7651
35.2283
32.2918
30.06
28.3187
26.9094
25.6792
24.318
23.2536
21.7606
20.8032
18.7022
126.244
85.7888
67.3843
57.7366
53.1644
51.7749
47.2904
43.9219
38.6028
34.8523
31.1273
28.8655
26.7668
25.4625
24.4092
23.3516
22.3311
20.7058
19.552
16.9792
53.2463
79.783
69.8528
61.3657
54.9066
52.9075
47.5635
41.8546
37.4795
32.2289
28.6062
25.4079
23.3703
21.6937
19.8789
20.7901
20.8232
19.827
18.617
15.954
59.2331
68.5562
77.9998
65.5555
56.379
50.5791
39.1576
37.7949
33.6237
29.4734
25.6672
22.3404
19.8994
18.0834
16.1555
17.0468
18.5735
19.1503
18.3468
16.1899
24.3229
74.817
75.9762
65.3451
52.4508
47.2213
41.4601
33.8376
30.1083
27.1562
24.0544
19.7237
15.2028
12.8911
12.6699
15.2798
17.3708
18.7882
18.7611
17.6102
40.31
49.1571
72.6548
57.1336
47.6678
42.0747
37.6944
32.6209
28.5565
25.8804
12.2593
10.0633
11.7218
12.9661
13.2002
14.7794
16.958
18.6206
19.3354
19.4914
57.8687
64.0745
72.949
59.4698
51.1416
45.5436
41.6179
34.4651
28.1631
24.4739
21.9602
19.6093
17.0958
15.015
12.7882
14.228
16.309
18.2072
19.3576
20.2625
31.0027
59.4131
67.3921
62.651
53.2562
50.299
45.0158
37.4861
30.8871
25.982
22.6896
19.6468
17.4979
15.6576
14.851
15.8977
16.609
17.6477
18.7946
19.8281
33.9949
61.3992
66.8998
62.03
50.6606
46.3912
41.4883
37.2928
32.3261
29.0571
25.5293
23.2129
20.824
19.0979
17.6841
16.9674
16.7665
16.7374
17.2132
18.143
43.8755
49.4275
65.4216
66.5735
53.9334
48.1036
40.5499
36.9418
32.7315
29.6094
26.45
23.9205
21.5947
19.7045
18.0391
16.8452
16.056
15.6953
15.6168
15.6666
28.6525
54.8452
64.9741
70.6685
54.5888
45.8553
40.1147
36.7221
33.0049
29.7374
26.5981
24.1565
21.9152
20.2035
18.3035
16.9275
15.8692
15.1411
14.6827
14.3841
41.5046
59.7926
63.4045
66.7795
53.6249
44.3009
38.7123
35.3742
32.3339
30.0473
27.5124
25.0896
23.0296
21.3437
19.457
17.7977
16.4741
15.4444
14.83
14.0162
46.7341
64.4574
70.9444
66.0302
49.9962
40.3198
34.3561
32.2828
29.8162
28.5355
26.9561
25.5018
24.0394
22.4412
20.8583
19.1929
17.829
16.6943
16.0711
15.1122
34.6041
31.2568
66.1163
53.8168
42.394
36.3473
30.1388
27.3508
24.4399
23.1889
22.3562
20.7175
19.7989
18.9576
18.6699
17.9536
17.3005
16.3898
15.8239
14.3725
13.0183
29.9052
35.9419
32.4263
27.5893
23.3292
13.2419
11.3512
9.06068
8.18431
7.01029
6.10836
5.39784
4.95341
4.49887
4.06525
3.77202
3.37538
3.08663
2.54148
26.7939
29.4865
13.1012
17.9568
5.87157
10.4292
4.07786
4.84377
3.36387
3.41469
2.71701
2.53538
2.14547
1.99563
1.84686
1.79898
1.77634
1.76181
1.72001
1.49688
67.3853
63.071
54.8757
40.2782
33.6791
30.4694
21.0823
27.5084
19.3479
23.0214
18.3691
19.8506
18.0273
18.8718
18.3059
18.6916
18.3623
18.3171
17.8664
16.0217
26.7054
53.0837
58.9915
36.9431
47.9317
43.7436
31.5623
34.7018
25.2699
28.9481
22.2818
24.2453
21.3103
22.2467
20.9194
21.1063
20.2697
19.9783
19.1684
17.0646
10.1557
61.8738
72.9177
61.976
49.9886
47.4392
34.7606
37.4262
27.8488
30.5735
24.2079
26.3507
22.3293
22.857
21.1573
20.9
19.837
19.3278
18.4008
16.0432
41.6079
86.2839
79.876
70.4781
59.2268
52.8832
42.8678
40.9957
31.1319
31.6975
25.0917
26.0437
22.4359
22.6673
20.8408
20.3809
19.1558
18.4278
17.1972
14.6305
71.1111
88.3006
58.0956
70.202
43.9999
54.4375
39.1332
42.844
35.6929
32.546
28.8311
26.9345
24.2496
23.2705
21.518
20.3441
18.8467
17.6084
16.0995
13.2395
81.1313
66.2762
75.2722
60.8464
54.9698
56.3797
48.526
43.2245
36.6743
31.6806
27.3554
25.6634
23.1682
22.7264
20.5376
19.5092
17.8395
16.3423
14.576
11.7696
91.8029
86.3896
60.1459
70.7254
40.8387
56.0635
49.3811
42.0332
34.9571
29.225
24.9986
22.1483
20.3773
19.2624
18.8046
18.6192
17.1426
15.6019
13.7812
11.2698
57.3272
52.3878
80.6987
39.2532
58.9123
53.5469
42.2339
37.1199
30.3423
24.5311
20.5808
17.964
16.5059
15.648
15.1462
17.0861
16.5718
15.5422
13.9568
11.8517
48.6783
87.0587
52.2134
68.1263
45.4048
48.0465
41.9208
31.8108
26.3319
21.7877
17.9997
14.7043
13.1744
13.1427
13.6258
16.157
16.5608
16.3605
15.4779
13.9788
40.0991
42.4032
58.4979
29.4535
48.1262
42.3254
37.1972
29.1654
24.0465
20.3693
16.7543
13.2544
11.7783
12.639
13.2477
15.5477
16.848
17.4932
17.5856
16.3805
36.4581
35.0775
74.2002
42.8035
52.326
47.0486
40.7124
30.7222
23.9291
19.2955
16.1044
14.1015
13.2571
12.6954
12.4241
15.1854
16.6607
17.5686
18.2981
17.3445
49.6297
71.6281
73.6981
67.7563
56.2913
50.7627
44.8122
35.1905
27.4478
21.8832
18.8458
16.3532
14.8538
13.7181
14.8988
16.0476
16.6438
17.3688
18.0528
16.8822
23.6462
67.4584
66.4983
66.1423
52.6534
48.4205
42.191
35.479
30.0633
25.5402
22.3718
19.8015
18.2157
16.9308
16.3524
16.1758
16.208
16.3899
16.819
15.5096
60.324
46.6812
72.0573
66.7237
49.5782
45.5865
39.2836
35.3619
30.7046
25.7846
22.8678
20.126
18.5424
17.0519
16.1972
15.5852
15.3133
15.2434
15.3006
13.7717
39.3353
58.1525
62.7486
71.8161
45.5714
43.3913
37.4389
34.3254
29.9598
25.8842
23.1854
20.374
18.926
17.1878
16.293
15.3124
14.8405
14.4407
14.2657
12.5436
60.5512
53.2835
75.7375
69.9066
47.0531
41.1542
35.5804
33.0365
29.5652
26.8228
24.4368
21.5644
19.9669
18.0196
16.9645
15.7326
14.7475
14.3395
13.6406
12.0064
17.1957
73.8878
62.4644
67.6136
37.4797
37.0609
32.698
30.3753
28.334
26.4037
24.8556
22.7035
21.007
19.3533
17.6571
16.4702
15.5405
15.0084
14.262
12.5292
9.37743
43.0589
56.25
52.1964
33.8433
32.0712
23.2416
26.1494
19.2649
19.2769
17.3383
18.3874
17.2141
16.5865
15.3533
14.252
13.2083
12.4508
11.5039
10.1936
8.15492
32.5932
19.9224
24.4621
7.0666
5.76211
3.97821
4.0112
3.45875
3.14712
2.51167
2.22845
1.97221
1.8244
1.64583
1.44375
1.28177
1.09968
0.997623
0.800255
22.802
22.8108
8.76819
27.2179
25.3405
25.4828
8.07159
20.3873
7.81022
7.11775
24.3899
21.1391
7.275
7.20807
8.75605
20.6427
20.1134
26.0059
7.60559
24.7211
23.1106
6.30427
19.9125
19.1911
6.73108
6.20654
22.5325
20.8768
0.293
0.554389
0.294575
9.97343
10.2013
12.8264
12.0936
0.155263
0.25536
0.171035
9.98808
8.71879
11.3877
8.63086
0.194818
0.16163
0.169501
8.7676
11.3571
8.42366
10.0338
0.206364
0.184131
0.196403
11.8645
11.6496
10.4507
10.4428
0.179101
0.191076
0.195031
11.4855
10.1401
10.6716
10.7532
0.17413
0.182763
0.163685
9.83385
10.5651
10.259
10.2733
0.194948
0.169543
0.180633
10.8345
11.1762
10.5105
10.3472
0.159222
0.177685
0.127067
11.1037
11.3065
10.0494
9.24902
0.283145
0.485943
0.257673
12.7097
11.8964
9.47
9.61195
0.189487
0.255012
0.266835
11.1958
9.06435
9.97141
11.3686
0.19881
0.257307
0.199598
9.15416
10.3894
11.3552
9.96092
0.189745
0.18181
0.13332
10.4881
10.2226
9.29769
8.21628
0.193077
0.13043
0.153324
10.5199
10.9817
8.40473
9.25852
0.163402
0.158558
0.152253
10.582
10.0337
9.18496
8.35674
0.169933
0.14605
0.122991
10.0698
9.51975
8.02238
7.10126
0.118396
0.11514
0.0829175
9.11463
8.43644
6.92667
7.24635
0.276503
0.523024
0.274371
9.19868
9.55292
10.5728
10.5483
0.247671
0.238565
0.168133
9.87767
11.1077
10.0913
8.75469
0.183742
0.153404
0.137616
11.0354
9.88959
8.40908
8.27294
0.140127
0.141156
0.157817
9.38228
7.65526
8.52436
8.45586
0.128853
0.155908
0.12552
7.63643
8.53015
8.21989
8.20059
0.139288
0.120106
0.11275
8.58126
8.03401
8.22333
8.12806
0.111342
0.111737
0.115655
7.74063
7.10873
8.11048
8.11253
0.0828343
0.116479
0.0962066
7.05363
7.65593
8.07657
8.26062
0.271791
0.568454
0.360452
10.113
10.6063
8.92073
9.98885
0.180066
0.334657
0.270024
10.5081
9.35859
10.6047
10.5521
0.141331
0.260488
0.202882
8.80538
7.99293
9.77585
7.52881
0.160366
0.189531
0.153153
8.22065
8.55734
7.30266
7.69419
0.135875
0.155147
0.157745
8.48067
8.5382
7.95115
8.48954
0.128525
0.158296
0.152258
8.56341
8.51719
8.55518
8.48471
0.12798
0.148088
0.134112
8.48809
8.40183
8.34207
7.80844
0.103347
0.128199
0.0956211
8.28734
8.2528
7.56285
7.34126
14.1353
18.5139
15.7274
27.7269
25.4054
30.0957
25.0719
11.9153
14.6878
11.3579
24.3389
22.045
23.4093
20.0839
14.4383
11.1556
12.9209
22.1468
23.5255
20.2092
21.2677
14.8
13.2672
13.4471
23.5599
22.691
21.3008
21.3595
13.2182
13.7641
13.7137
22.1601
20.7049
21.379
20.3562
13.6942
13.2711
13.1995
20.4689
20.2946
19.8688
18.6242
14.0783
13.2924
12.6763
20.17
19.409
18.0762
16.0226
13.4626
12.2605
10.695
19.0816
18.2419
15.364
13.5964
15.4015
14.0751
13.1183
29.2348
24.5108
25.2467
23.6209
11.7735
13.4199
14.6194
22.979
20.4557
23.4964
23.2443
13.1689
14.5462
12.971
20.6166
21.1146
22.8586
20.8336
13.2147
12.2786
11.2104
21.0094
20.9495
20.5422
13.4067
13.8402
11.1995
11.259
20.8569
19.4894
12.1261
9.94239
12.6874
11.0158
9.90193
18.8362
16.8604
9.5179
8.83606
11.4575
9.50284
8.55321
16.0617
13.6019
8.77893
9.33748
9.66376
8.39844
8.54568
12.9237
11.8873
9.71962
11.3691
13.007
15.583
14.1863
24.8751
23.318
26.2628
24.2227
14.1902
13.5066
11.6985
23.1304
22.6691
23.0964
20.1724
12.6393
11.2072
10.8577
22.2072
20.1929
19.4166
18.4589
10.5194
11.0362
10.9654
20.2102
13.1716
18.396
18.1541
10.6382
10.854
10.9883
11.8551
9.42678
18.072
17.7215
9.67658
10.9945
10.7995
8.99457
9.21161
17.5093
16.7929
8.88791
10.735
10.5973
9.64348
11.2589
16.5689
15.9074
9.11974
10.5034
10.0601
11.7831
12.7908
15.6402
14.8567
14.6639
15.4603
15.18
27.3911
25.537
25.3453
27.5088
12.424
15.5533
14.1177
24.4948
20.8046
26.7285
22.6231
10.6112
12.9249
10.4078
19.7128
18.3537
21.0582
18.7858
11.1329
10.2454
10.6779
18.3398
18.3109
18.6014
18.4992
11.3001
10.9315
11.3661
18.2825
18.0244
18.4623
18.1422
11.1785
11.4096
11.1952
17.8493
17.1661
17.9538
17.1286
10.8604
11.0079
10.2919
16.9145
16.0782
16.7519
15.6084
10.0397
9.99919
9.11114
15.7446
14.7871
15.1752
14.0807
29.0135
33.4666
27.9193
36.6101
37.7475
41.2515
35.0043
25.4738
26.2248
23.218
36.1797
33.3629
33.3607
30.5015
26.0805
23.2894
23.7667
32.6962
30.4806
30.0103
28.2806
24.5711
23.6559
23.3377
29.592
27.0157
27.654
25.9121
22.3624
23.1481
21.6853
26.1566
23.8314
25.2023
22.6874
21.4539
21.1033
19.3529
23.1944
21.5077
21.8098
18.9568
20.1492
18.6247
16.2967
20.9674
19.4839
17.9863
15.65
18.8916
15.6332
13.9687
19.1197
18.3946
15.1552
14.1628
27.3012
28.7747
26.7408
39.8132
34.1311
36.65
33.1846
23.418
26.431
25.6062
32.639
30.0327
32.2462
29.7449
23.4845
25.1042
22.973
29.5087
27.7526
28.9093
26.7578
24.4725
23.1609
23.273
25.2054
22.8939
24.9544
25.1019
19.0222
21.871
20.0356
23.5201
18.9756
22.7302
20.3346
17.1674
6.91742
7.23922
20.0899
16.7742
7.11134
8.30787
13.6185
7.54077
9.10879
15.6999
13.4801
8.88721
10.702
12.1817
9.74848
11.8501
13.1078
12.9196
11.2583
12.7704
26.4248
29.9588
27.2411
36.2082
32.9272
38.2074
34.064
25.0691
26.0098
22.8061
31.9869
29.3938
32.4905
28.4916
22.3424
21.9962
20.797
28.5318
26.3078
27.4618
25.2259
18.1839
13.8011
21.5151
21.0195
19.1629
2.98969
23.2689
12.1574
7.05681
14.7005
2.05258
13.8928
1.94587
12.7445
7.7968
18.8886
17.9927
6.52487
9.3964
20.3568
18.78
11.4996
17.7158
16.8815
10.4432
12.7356
18.2586
16.8047
13.3984
16.5655
15.6041
13.1994
13.8148
16.3739
15.1204
28.6183
29.5747
30.8964
39.789
35.3732
35.4009
38.2039
23.3439
29.8597
25.1202
33.6369
28.8779
36.3388
30.7787
20.7199
23.6139
21.3232
27.653
25.126
29.3299
26.0935
20.2455
21.0366
20.4904
24.5324
22.9823
25.262
23.264
19.5336
20.3146
19.6398
22.4758
20.9594
22.6496
20.8804
18.3651
19.3585
18.3155
20.4482
18.8413
20.3196
18.7781
17.0203
17.8891
16.6435
18.3063
16.7774
18.2548
16.7558
15.5245
16.1934
14.981
16.305
14.9746
16.2852
15.0618
39.484
43.1119
36.3797
38.8672
40.2627
44.8015
36.2597
34.5789
34.6905
31.5198
38.1793
33.6039
34.2542
29.8541
30.5352
30.7789
28.366
31.8704
27.1631
28.5421
24.8908
26.6025
27.5878
25.4579
25.8879
22.6752
23.8486
20.9798
23.0636
24.6519
21.9619
21.6343
19.1179
20.0215
17.3503
20.4797
21.0145
17.9776
18.5205
17.1593
16.5301
14.6386
18.4189
17.0242
14.8822
16.7708
15.9262
14.2348
13.5757
17.5411
14.4728
13.7718
15.7295
15.26
13.4597
13.1087
35.3892
38.1394
34.0243
42.7681
34.9732
38.7801
32.4528
30.8543
32.858
29.8252
33.0928
28.9109
30.7706
26.7339
27.8206
28.8851
26.6699
27.682
24.4429
25.6773
23.1738
25.0336
25.883
14.5015
23.5148
20.8882
22.4679
19.4282
20.7858
12.9462
10.6799
19.9547
17.0705
18.1145
14.8953
16.2471
10.2485
10.1299
16.0573
13.6465
14.0382
11.6805
13.1856
10.3361
11.2603
13.212
12.7092
11.4315
11.7003
12.7824
11.5782
12.5404
12.6827
12.6515
11.8854
12.1783
33.7814
40.0093
35.0925
38.1851
32.2081
40.42
33.6626
29.5171
33.3826
29.0897
30.5407
26.4522
31.6084
26.5818
26.2849
27.947
25.3614
25.3692
22.8606
25.1972
22.0331
13.8422
24.7305
22.8738
22.1973
19.1439
21.1899
18.8532
10.1743
22.2241
20.393
17.8951
15.0277
18.0791
15.9757
11.2234
19.8076
17.8393
14.2581
12.1401
15.2402
13.7394
12.7775
17.19
15.545
11.9298
12.1333
13.4579
12.9311
13.2789
15.1199
14.0091
12.2555
12.3115
12.768
12.0682
36.3604
39.285
39.4026
42.1055
34.6939
41.4807
38.3966
29.4654
37.3669
31.6523
32.4375
26.8812
36.0314
29.7752
25.2165
30.0987
26.3248
25.3612
21.728
27.8133
22.903
22.5678
25.2969
22.8639
20.7844
18.2338
21.6966
19.0046
20.2064
22.1106
20.0051
17.4837
15.5563
18.2636
16.3225
17.7064
19.372
17.7361
15.0284
13.8301
15.7855
14.4566
15.4694
17.173
15.6157
13.5451
12.8499
14.0639
13.0321
13.8722
15.1624
14.0964
12.62
11.8676
12.7427
11.9601
39.2797
43.9331
35.0076
43.6846
35.7933
39.6728
31.6173
32.1972
32.9661
28.4658
33.7685
28.4981
29.8587
25.7816
25.7598
27.1301
23.3494
26.8791
23.2558
24.5793
20.4571
21.5069
22.2171
19.1916
22.2675
19.926
19.2115
16.5517
18.4786
18.2956
16.073
19.2949
17.9359
15.9529
14.7426
16.8327
15.4957
14.3303
17.6132
16.9784
14.6108
15.1417
15.8264
14.136
13.8273
16.7975
16.3491
15.2693
15.2443
15.2092
13.7536
13.4087
16.1964
15.9104
15.1666
14.857
33.6977
37.8143
31.0627
38.184
30.5646
34.9085
28.3272
27.5839
29.3931
25.458
28.9451
25.189
26.9267
23.4556
22.8182
24.3574
21.4994
23.9221
19.4546
22.001
17.1291
18.9089
20.6478
17.9949
18.1409
15.4533
15.7242
13.1365
15.4618
16.9366
14.0417
14.8509
13.562
12.5366
11.1067
13.3249
13.1253
11.4795
13.4085
14.188
11.0111
12.2919
13.1258
11.4622
12.2252
14.5617
14.8714
13.0815
14.2914
13.0526
12.4258
12.6053
14.8524
14.699
14.3878
14.3474
30.8238
39.2167
32.1032
34.4804
28.1261
36.124
28.9108
25.1696
30.0584
25.1812
26.7041
23.1596
27.0734
22.9509
21.1884
23.8467
20.4388
21.7012
16.8664
21.7076
17.5897
17.7513
19.5042
16.9748
15.4769
12.9701
16.41
14.178
14.1201
16.2368
14.3809
12.4021
11.0571
13.7012
12.6603
11.7727
13.8965
13.1538
10.9948
12.362
12.6202
13.647
12.4915
13.0955
12.9799
13.1668
14.3545
14.078
14.34
12.6699
12.8706
12.2837
14.4324
14.3419
14.2677
13.9111
32.9638
44.7608
36.6626
37.1782
29.3893
40.982
32.3609
25.3618
34.2547
27.9606
27.3759
22.9143
30.0494
24.4897
20.3113
26.0681
21.5838
21.8032
18.093
23.0953
19.8505
16.7625
20.5232
18.1527
17.0125
14.9019
18.9223
17.2022
14.5027
17.484
15.7544
14.4512
13.4479
16.734
15.5424
13.3817
15.26
14.0843
13.3803
14.0615
15.0853
14.4512
12.8719
13.748
12.9117
14.2222
14.162
14.2445
13.7908
12.0626
12.6618
12.0067
14.0471
13.6823
13.5785
13.3459
23.2386
23.0263
21.1114
24.1715
22.1367
24.6435
21.7765
21.2724
23.03
15.1676
21.4607
21.4298
24.5283
4.15292
15.9855
15.7387
10.5303
2.33719
18.4365
12.8697
2.58459
25.5729
26.5564
26.7118
26.9513
26.1702
26.3652
26.2039
24.1956
25.0296
26.1203
23.3293
25.6976
22.4996
24.9165
22.084
21.8087
26.4475
14.912
25.6779
4.17021
24.2614
16.5986
2.39397
16.8856
9.97236
13.3006
2.6451
20.3052
17.6819
21.1688
16.9445
20.899
17.9034
21.8253
16.639
10.3609
13.9725
7.06454
2.08906
12.7103
11.3575
1.89006
9.01258
10.808
6.71438
3.8643
11.5043
8.9022
2.88815
19.377
24.1876
23.3343
21.668
23.2233
20.8732
20.0998
17.8895
21.142
22.2312
17.3261
22.177
16.7242
18.6128
10.5077
2.23119
14.8517
6.75802
11.728
2.12187
13.2299
9.1126
3.80994
10.9966
6.7891
8.91884
2.91476
11.8207
15.1015
10.2027
15.726
2.30855
17.0894
2.56531
13.6295
22.1151
20.888
20.4928
22.5693
20.4816
22.8712
22.3027
21.2261
19.3437
20.3164
21.6553
19.9103
20.4237
21.9963
18.7
21.4207
14.5791
25.4273
3.26305
24.5816
22.1413
15.2814
2.36326
9.48618
16.7461
2.64207
13.762
18.8342
23.3904
23.9824
25.0797
24.2288
24.3301
23.5915
24.2647
22.3019
22.6788
22.1265
23.687
21.3328
23.1501
23.1829
12.068
6.20641
12.7126
2.79765
13.2692
2.13919
11.3291
19.1926
18.8519
19.6988
21.3124
18.4109
19.7629
20.9596
18.7724
17.6513
19.4705
20.2265
18.0495
18.2552
20.6111
12.3443
2.20826
6.26138
15.5115
2.14637
12.8822
14.6688
12.3364
2.96988
5.74283
13.6226
2.31932
11.6185
14.0711
19.867
22.2102
21.2359
21.9622
20.5389
21.7398
20.4737
19.3759
20.8076
19.2579
21.4156
18.793
21.2829
19.854
1.16684
1.18723
1.0463
6.29775
6.71645
5.9247
6.34569
0.885538
0.875471
0.735385
7.17786
8.52582
6.63557
7.20331
0.87458
0.692005
0.742227
9.8184
10.848
8.14975
9.35429
0.834714
0.822823
0.804424
10.9863
10.1831
9.86588
9.46335
0.630071
0.713392
0.628904
9.17586
8.42195
8.78914
7.82012
0.554702
0.586535
0.562164
7.98908
8.08906
7.47423
7.80435
0.545142
0.556919
0.567209
8.08438
8.28101
8.05669
8.25785
0.440682
0.570992
0.4976
8.06242
10.268
8.12875
10.5814
1.57509
2.76577
1.75636
8.46007
8.63799
9.74638
10.5344
2.92443
0.435091
0.541442
2.56994
2.73531
2.67456
0.407172
2.77746
0.214775
0.251464
2.83679
2.67093
3.04682
0.220599
2.74975
0.144828
0.149191
2.70203
3.12831
2.41624
0.149434
4.31792
0.219075
0.193174
4.91202
4.94809
4.25241
0.198985
3.89939
0.201926
0.198821
4.25501
4.11877
3.87598
0.197881
2.97377
0.160983
0.169945
3.06671
3.09115
3.06053
0.159784
3.75024
0.187693
0.178081
3.43288
3.58397
3.62348
0.186248
3.79944
0.190429
0.194091
3.76599
3.82337
3.8335
0.188149
0.473438
0.50253
0.352192
8.36725
10.7209
7.33032
9.26321
1.63054
2.34507
1.39566
9.37955
10.6432
8.43771
8.47646
3.00715
0.412675
0.531618
2.88814
3.25197
2.75075
0.387992
3.44294
0.214099
0.224449
3.62727
3.46829
3.24268
0.225403
4.20235
0.194567
0.252291
3.50053
3.71997
4.07964
0.254517
3.64828
0.199687
0.216402
4.11869
4.12031
3.91436
0.195576
3.65659
0.187144
0.16824
3.71108
3.903
3.4153
0.171464
3.61827
0.17472
0.184192
3.80035
3.49732
3.82821
0.177781
3.39827
0.170548
0.158701
3.52074
3.60107
3.35376
0.158917
3.05202
0.154868
0.146642
3.44493
3.36951
3.14161
0.135362
0.30005
0.347307
0.277249
6.20499
7.95181
5.81251
7.21847
1.5718
2.3721
1.48337
7.68204
7.62111
8.22647
8.68914
2.576
0.380727
0.550463
2.02354
2.37386
2.19709
0.364636
3.45253
0.254857
0.247948
3.38067
3.71191
3.32307
0.227514
3.61558
0.21707
0.191697
4.11657
4.02106
3.69252
0.176667
3.53452
0.169391
0.164106
3.42387
3.08195
3.63591
0.163549
2.15245
0.122702
0.142461
2.0137
2.15733
2.35353
0.128071
2.47733
0.141628
0.11857
2.9307
3.01597
2.42039
0.118621
2.31456
0.128928
0.113145
2.84292
2.68295
2.38971
0.109238
2.41071
0.103294
0.102691
2.38403
2.41654
2.33551
0.104027
0.305406
0.397037
0.303493
5.8325
6.65075
5.94028
7.19455
1.45446
2.19875
1.41114
7.95674
8.0891
7.73204
7.28863
2.74242
0.386248
0.499574
2.62797
2.8001
2.63454
0.38212
2.86355
0.214894
0.240237
3.08605
3.01307
2.86755
0.218108
2.64103
0.150307
0.176
2.75538
2.60618
2.81969
0.165261
2.57497
0.149547
0.147065
2.88394
3.0669
2.46211
0.147596
2.74333
0.147593
0.14709
2.98214
2.80546
2.72783
0.146906
2.86249
0.130185
0.146649
2.68961
2.66314
2.84864
0.14611
2.89452
0.127619
0.143113
2.66841
2.67213
2.89042
0.14174
2.75047
0.126732
0.133091
2.7164
2.72951