/*--------------------------------*- C++ -*----------------------------------*\
  =========                 |
  \\      /  F ield         | OpenFOAM: The Open Source CFD Toolbox
   \\    /   O peration     | Website:  https://openfoam.org
    \\  /    A nd           | Version:  10
     \\/     M anipulation  |
\*---------------------------------------------------------------------------*/
FoamFile
{
    format      ascii;
    class       volScalarField;
    location    "3.1";
    object      omega_0;
}
// * * * * * * * * * * * * * * * * * * * * * * * * * * * * * * * * * * * * * //

dimensions      [0 0 -1 0 0 0 0];

internalField   nonuniform List<scalar> 
12920
(
160.678
139.101
129.82
124.346
106.792
88.5754
71.0962
61.4802
56.0618
53.2186
50.7785
48.9666
47.3186
45.7318
44.5515
43.4681
43.1046
42.8428
42.6558
41.3002
41.911
139.417
200.12
210.51
201.461
161.848
105.687
79.8756
69.9219
64.6771
60.5845
58.6956
57.316
56.9887
56.8093
56.9103
56.9653
56.8151
55.8852
52.8746
64.4316
182.106
192.944
186.01
163.237
122.481
97.4267
86.1823
76.1114
68.5339
62.5005
58.9511
56.0978
53.9923
52.1306
50.5762
49.3546
48.6015
48.463
48.8007
27.4342
131.713
176.922
158.648
129.694
117.505
104.954
95.5905
84.9826
75.5247
66.6278
60.4786
56.3249
53.7728
51.8767
50.3413
49.0029
48.0267
47.7133
47.0837
51.1887
119.206
192.178
197.93
173.323
142.973
115.808
100.271
88.3683
80.1704
72.1234
65.0347
59.3265
55.5707
53.1649
51.3612
50.0169
49.1512
48.9033
47.9636
56.5097
204.026
222.336
205.981
157.247
126.706
103.794
94.9303
86.6393
80.4395
73.248
66.7573
60.9459
56.5213
53.7861
51.5988
50.2502
49.1133
48.5874
46.794
255.977
264.632
230.349
199.441
160.584
130.721
107.733
95.9455
88.7018
80.8872
72.1766
65.2959
59.9999
56.6806
54.3286
52.5999
51.0045
49.2136
48.4252
45.9862
209.216
268.063
224.803
173.741
138.811
121.06
196.527
144.686
131.402
129.102
117.03
98.9965
93.8311
92.2698
60.4301
56.4264
52.9769
50.1247
49.0398
46.1561
242.111
288.866
205.71
167.556
142.2
216.349
334.466
233.183
178.942
206.215
190.393
160.099
158.474
162.369
102.943
56.04
52.64
50.0173
48.9445
45.9682
402.753
347.823
221
179.882
149.125
226.153
333.376
229.492
190.052
198.133
182.794
177.598
160.904
160.384
90.5499
50.4256
48.4803
47.9691
47.5687
45.6355
279.15
237.205
183.881
152.914
123.999
170.453
212.36
173.694
185.627
173.569
141.423
144.823
148.731
133.947
86.1145
47.8944
46.2872
46.3824
46.3747
44.9961
267.309
204.73
184.345
167.599
147.616
221.037
328.217
229.916
179.252
157.252
150.884
133.852
132.386
132.308
80.0311
42.6936
42.3216
42.9078
43.9996
44.103
365.107
281.793
211.321
189.142
164.805
142.958
222.638
168.782
136.121
103.577
89.9057
85.0588
80.4481
74.8975
42.4853
39.4203
38.5224
38.7813
40.3194
42.4873
237.097
256.528
244.168
216.696
178.554
152.771
123.117
100.433
81.2715
68.225
59.1714
53.3715
48.9862
45.2381
41.9152
39.0693
37.1738
36.4259
36.6034
38.4248
237.991
323.278
298.298
231.173
181.497
159.406
132.38
110.019
89.2871
73.4152
62.8022
56.3026
50.9302
46.4869
42.8709
39.8123
37.6465
35.8364
34.5604
34.1545
304.742
294.841
259.911
208.35
157.289
122.659
100.689
86.7324
75.2492
68.7198
63.1
58.4559
52.5823
47.3907
43.2674
40.3405
38.2873
36.6046
35.5925
33.9496
410.202
318.952
205.903
157.755
134.047
100.873
83.8735
76.0165
69.8721
66.7771
63.4185
59.8891
54.9188
49.6523
45.417
42.1575
40.3224
38.517
37.6829
35.7432
317.416
309.151
196.538
163.44
132.662
105.876
86.6524
76.8616
69.0655
65.1413
61.6408
59.3152
56.2444
52.4521
48.7851
45.5714
43.9133
42.2516
41.5429
39.9026
491.992
242.523
192.577
161.661
138.31
118.26
94.6082
79.4133
71.2226
68.2954
63.9215
60.2239
56.4005
52.7586
49.4786
46.6909
45.3858
44.1413
43.7515
43.1082
269.166
186.089
160.325
139.758
126.908
116.249
104.486
91.6088
80.2405
70.8685
63.4051
56.8505
51.1327
46.0233
42.4689
39.9021
38.6899
37.4284
36.8574
35.4543
68.1882
87.5939
88.4556
83.198
61.2683
43.5213
35.9715
32.9161
31.3902
30.6289
29.7313
29.2011
28.4719
28.0403
27.8343
27.525
27.3192
26.7115
26.1757
24.7475
64.8426
151.419
141.418
165.421
163.891
117.919
62.2279
43.3012
37.4308
33.7973
31.1216
29.6591
28.8315
28.5757
28.604
28.738
28.9115
29.0513
29.0637
29.147
158.031
131.608
124.861
137.318
116.375
73.2318
54.7893
47.7593
43.8435
38.7877
34.3352
30.8055
28.5772
27.4212
26.8762
26.5073
26.3836
26.3702
26.3385
26.1986
150.472
119.498
99.5582
87.2336
74.8167
65.0659
58.3548
54.2648
49.5462
44.8441
39.5592
34.5828
30.7971
28.2027
26.6358
25.7096
25.2274
24.9386
24.9277
24.9067
349.177
315.689
183.911
133.941
104.228
83.0128
65.8874
56.7708
49.8472
45.1432
40.4212
35.9022
32.1841
29.0674
27.0082
25.6541
24.8554
24.449
24.426
24.3712
136.038
182.821
159.024
120.537
89.7302
69.4557
59.6907
52.6394
46.1506
41.4156
37.4053
34.4716
31.7432
29.0913
26.686
25.2168
24.5337
24.2185
24.1561
23.7864
270.602
185.881
150.966
129.526
109.224
94.5898
74.8432
59.5349
47.7027
40.9053
35.1698
31.2401
28.2311
26.4228
25.4685
24.9643
24.775
24.5525
24.4207
23.727
170.812
229.779
176.364
121.238
97.0925
85.4204
81.7335
69.555
52.6132
43.2063
38.5203
32.7891
28.1526
26.2188
24.7057
25.3894
25.6183
25.5758
25.3796
24.2352
651.298
296.982
108.618
86.8247
77.0674
82.5752
88.0337
81.9634
76.567
52.3304
41.105
34.7766
28.3864
26.2635
25.3512
25.7199
26.6011
26.9109
26.8667
25.1118
181.556
168.344
117.767
98.1977
84.4021
86.9548
86.4945
79.5217
65.9157
51.654
39.822
33.3721
30.3194
28.8979
27.774
26.2375
26.5912
27.1116
27.1159
25.249
274.691
130.358
92.4264
79.4106
68.9272
66.8453
64.9861
53.6925
44.7961
43.467
37.4107
31.7872
31.6066
30.3959
26.8906
23.2897
23.067
23.1784
23.5698
23.0407
163.367
132.964
99.0516
100.177
97.4077
94.5793
88.5216
77.313
63.8841
48.7941
35.5696
29.4081
27.7893
26.4331
23.2993
20.2979
20.1761
20.4274
21.255
21.6513
166.418
170.857
127.738
116.459
108.315
99.2378
94.7863
77.3332
61.6843
44.6704
32.7734
27.8022
25.5513
24.0948
21.1982
20.0571
19.2744
19.2216
19.5226
20.7171
221.739
183.788
125.579
112.815
106.846
101.769
86.8134
68.9096
51.5258
39.5103
31.5365
27.2964
24.679
22.8714
21.4919
20.3301
19.2367
18.5649
18.4721
19.3109
241.531
233.953
189.752
135.461
101.061
85.5167
76.8274
68.6302
56.1843
42.269
32.5146
27.633
24.9077
22.8578
21.3226
20.0419
18.8451
17.9877
17.5539
17.8858
114.528
183.144
164.181
116.716
80.7687
60.0967
51.1725
43.5741
37.6715
33.3076
30.2263
28.3655
26.3954
24.0957
22.1318
20.3575
19.1388
18.2463
17.7795
17.5853
171.79
224.087
208.826
138.952
74.9155
47.3534
39.393
35.8623
33.3543
32.0203
31.0175
30.5448
29.8479
28.6267
25.9135
22.4053
20.1146
18.8241
18.3502
17.7081
570.166
312.743
158.949
100.665
68.5451
53.7309
44.6659
39.0699
35.1504
33.0923
31.7233
31.0761
30.5409
29.8287
28.336
25.197
22.7669
21.2314
20.6481
20.0519
417.148
148.984
115.641
91.5985
82.4948
71.1439
56.5181
46.3154
40.0978
37.0387
34.1902
31.8607
29.8724
28.1442
27.0083
26.0662
25.3386
24.6226
24.3619
23.9475
69.7506
97.0204
91.4516
78.6576
71.5226
64.4682
56.7737
49.3889
42.8326
37.9323
34.8231
33.1014
31.6737
29.4489
27.1884
25.2341
24.4082
23.5242
23.1189
22.1008
50.1636
98.675
94.1441
75.1002
56.3955
44.0557
39.2394
36.9077
35.6055
34.7464
33.6478
32.7552
31.7095
30.8748
30.1432
29.265
28.6035
27.3345
26.6127
25.398
227.216
151.467
112.18
91.2595
83.9104
54.161
39.5614
34.0714
31.5721
30.1393
28.8056
28.4628
28.2909
28.4161
28.5344
28.6905
28.7236
28.7129
28.6985
28.7994
155.365
112.681
90.7648
72.6753
62.0878
45.8013
40.2571
36.399
33.4412
30.5993
28.2291
26.8287
25.8152
25.4149
25.226
25.2079
25.2331
25.3016
25.3657
25.3298
173.48
117.898
84.4745
61.1936
55.0814
48.5511
44.7562
41.3658
37.2997
33.8521
30.3656
27.8532
25.9355
24.8747
24.179
23.8141
23.6472
23.5936
23.6199
23.5521
411.6
205.795
113.448
86.4497
69.2607
57.9825
48.2528
43.5727
38.419
34.9518
31.3309
28.6235
26.3728
24.9017
23.8786
23.2769
22.9634
22.8445
22.8501
22.702
314.961
179.707
109.418
83.9577
64.9953
53.6043
46.3346
41.6457
36.5805
33.4219
30.2888
28.1013
26.0898
24.5752
23.4589
22.7873
22.4627
22.2912
22.2034
21.8218
444.644
189.166
111.99
94.9027
78.1323
67.459
53.3507
44.2939
36.9653
32.6313
28.9435
26.4434
24.6787
23.6239
23.0837
22.7396
22.5723
22.2788
22.0714
21.4227
288.386
197.285
108.654
85.5779
69.6789
61.8245
59.0042
49.6007
40.3139
34.3774
30.2009
26.662
24.4582
23.4765
24.2791
24.0114
23.7207
23.0579
22.6023
21.4853
487.255
144.841
83.154
64.6034
57.4092
58.2642
62.2871
57.9627
51.358
38.4374
31.8979
27.7258
25.0913
24.1617
24.7417
26.5237
25.9441
24.5741
23.6595
21.6279
144.63
136.382
89.0262
70.2732
59.2217
58.7814
59.333
54.6959
46.9644
38.1482
31.8516
29.599
29.2809
29.4084
28.7211
27.4844
26.85
25.2689
24.037
21.6207
177.891
105.045
72.0784
57.6361
52.0683
49.0992
49.7183
42.3969
36.833
31.7145
61.7092
58.2584
39.5372
29.5088
24.7561
23.9814
23.595
22.7682
22.2625
21.0714
282.088
105.799
80.2165
74.4789
72.759
69.9753
64.4073
54.9111
45.3048
35.436
28.1022
25.0264
23.8983
22.853
21.4482
21.0905
20.6284
20.5245
20.639
20.7299
148.141
130.462
104.351
94.2028
88.5674
81.9359
73.878
56.6013
41.215
31.4367
26.0818
23.4786
21.8365
20.7365
19.9261
19.1473
18.9091
19.016
19.3824
20.3028
195.214
133.937
106.837
94.7025
89.8109
83.5231
62.9997
47.2228
35.8055
28.9204
24.8573
22.4115
20.9387
19.785
18.989
18.3316
17.96
17.9539
18.1429
19.1413
270.164
179.788
158.787
116.662
79.8896
62.9877
52.882
44.8005
36.2981
29.9148
25.3976
22.845
21.0898
19.7755
18.8395
18.086
17.5172
17.2581
17.2285
17.6526
106.803
159.566
134.612
83.4036
57.5959
44.4435
38.8642
34.0726
30.1217
27.5658
25.4673
24.0004
22.2942
20.6533
19.4353
18.4336
17.8047
17.3948
17.2052
17.2624
126.179
185.409
158.349
89.2947
53.5691
39.314
34.5346
31.6606
29.6706
28.6408
27.6428
26.9833
25.6102
23.706
21.7198
19.9426
18.8699
18.1763
17.8272
17.5669
212.673
173.423
122.13
76.8248
57.5653
47.2898
40.5249
36.5581
33.3535
31.7872
30.2476
29.4348
28.2741
26.6656
24.7962
22.8939
21.789
20.9838
20.69
20.3903
237.083
131.086
101.429
79.6937
70.8495
60.146
50.2745
44.8196
40.7121
38.4418
35.7439
33.3247
30.9747
28.9475
27.5451
26.5217
26.0324
25.736
25.678
25.5097
86.1023
110.467
104.913
90.7303
79.1755
68.6306
59.4455
52.046
46.2137
42.3508
40.1106
38.058
35.4279
32.222
29.588
27.6131
26.7936
25.878
25.4299
24.2162
104.953
110.368
86.7602
64.7199
52.0919
43.6847
40.2299
38.2665
36.9691
35.7804
34.5365
33.2198
32.0139
30.7444
29.7566
28.6078
27.6751
26.5939
26.1578
25.1898
196.186
174.772
115.034
63.8209
53.6037
40.268
39.0104
36.2157
35.8577
35.1332
35.283
35.4496
35.8074
36.1543
36.2493
36.3095
36.2399
36.107
36.0413
36.0461
320.415
122.346
82.974
54.5263
51.1632
39.9962
39.4326
35.9413
34.7985
32.6607
32.024
31.4013
31.3342
31.3429
31.4927
31.6442
31.7682
31.7671
31.7775
31.6301
181.467
140.621
89.9298
57.0415
52.2385
42.4398
42.5858
38.1882
36.4876
33.3532
32.0035
30.6467
30.0351
29.6701
29.5848
29.5245
29.5511
29.5174
29.4687
29.1489
215.469
144.967
94.3978
66.9057
60.4052
48.5802
45.7623
40.3899
37.8134
34.4983
32.6075
30.816
29.8049
29.1061
28.801
28.6161
28.6143
28.557
28.4735
27.9975
287.604
211.414
98.0896
66.2356
58.9975
46.9832
44.9748
39.6999
36.8474
33.7927
31.9766
30.2805
29.2568
28.4523
28.097
27.79
27.7307
27.5967
27.4454
26.9027
680.141
240.961
109.871
73.1128
66.0684
53.8864
47.8728
40.4545
37.14
33.351
31.6181
29.7557
29.1678
28.5491
28.2667
27.849
27.6582
27.227
26.9296
26.1815
190.049
154.575
100.753
67.6863
61.6511
52.115
49.5902
43.673
38.2612
34.8596
31.9234
30.5007
29.7683
29.6686
32.4546
30.0444
28.7768
27.5089
26.8671
25.6814
272.923
120.254
78.5744
57.9494
52.6049
50.0978
51.751
47.0473
42.3618
37.294
33.9373
32.5861
32.3179
32.4835
34.5356
34.0876
30.9294
28.3198
26.9847
25.3618
173.893
137.592
80.6629
58.5456
51.7113
49.1322
49.094
45.1883
41.8284
37.358
34.3244
34.1132
35.8298
36.7321
37.5867
35.4085
31.7109
28.7646
27.1143
25.6909
229.694
101.782
66.8397
53.4539
48.6017
45.0402
45.5024
41.4943
38.3161
34.5771
54.1221
50.4825
39.1578
35.1916
35.1163
33.4348
30.0614
27.91
26.8251
26.2086
483.026
113.276
76.3012
63.1436
62.8337
57.284
53.0966
45.9939
39.9183
35.0307
31.544
30.2042
30.5612
30.9084
32.3238
30.8555
28.1104
26.9835
26.7247
26.806
199.974
127.461
102.585
81.0154
75.5986
64.2719
58.212
45.0323
36.5243
32.0494
29.9933
29.145
28.0373
27.5807
28.4029
26.6268
26.0891
26.2066
26.4223
27.0033
179.458
127.799
104.29
80.1196
74.7041
61.3618
49.5161
39.58
34.1881
29.7028
27.7813
25.8995
25.3489
24.6738
24.5843
24.4791
24.5895
25.0155
25.456
26.4078
212.742
156.675
130.303
85.4909
66.1163
50.7358
45.2355
38.4299
34.2565
30.4691
28.1438
26.2492
25.2544
24.4892
24.2752
24.0619
24.0865
24.2725
24.4407
25.2406
167.527
141.508
114.635
69.9566
54.3447
41.2647
39.3389
34.7496
33.0183
30.5189
29.1752
27.5078
26.4279
25.1683
24.9352
24.4747
24.4057
24.3714
24.3719
24.8093
261.703
143.592
117.831
70.6702
53.7835
40.4609
39.0925
35.5195
34.7865
33.1432
32.1975
30.7944
29.2848
27.5213
26.746
25.9751
25.6459
25.2399
24.9258
25.0523
244.967
131.419
110.373
71.178
60.9477
50.0726
47.8255
43.888
41.7547
39.5774
37.6496
35.8534
34.0824
32.0265
30.7906
29.7668
29.4225
28.9242
28.6476
28.6241
226.403
136.181
103.926
78.7737
73.7916
65.5362
59.3974
55.6244
52.2903
49.4042
45.8309
42.3356
39.722
37.8718
37.1262
36.4524
36.1893
35.8317
35.6661
35.3451
129.102
118.619
115.367
103.888
88.8529
73.619
61.1549
52.8804
47.8607
44.5308
41.8797
38.6598
35.1315
31.736
29.4556
27.678
26.7257
25.5218
24.94
23.5553
159.462
141.3
80.2584
56.9197
47.3171
42.2571
39.7638
38.0422
36.4574
34.8334
33.0907
31.168
29.3687
27.7932
26.7339
25.957
25.6246
25.0409
24.6594
23.459
328.959
243.946
158.463
72.975
65.0896
44.4162
60.8225
48.6951
58.2334
52.2789
57.4031
54.7764
57.1577
56.0935
57.2179
56.895
57.3856
57.2046
57.3259
57.0977
226.764
143.682
90.578
61.6524
65.2302
45.9975
57.3274
44.8922
52.4072
46.1904
50.5235
47.7586
50.0521
48.9886
50.1952
49.893
50.4038
50.1309
50.2318
49.4282
148.429
155.12
116.132
65.3482
64.4863
45.0546
56.0599
42.6454
50.0992
43.5025
47.6434
44.924
47.0402
46.0725
47.1492
46.8312
47.3367
47.0947
47.1375
46.3456
244.329
159.461
111.871
65.576
70.8135
49.4053
57.9876
46.1681
51.0416
44.9362
47.52
44.6927
46.2147
45.1385
46.1257
45.8199
46.4136
46.1888
46.2318
45.2821
282.623
183.265
117.508
66.263
70.7148
47.9154
55.8289
43.9559
47.4653
42.7531
44.7059
42.8616
44.039
43.5885
44.3363
44.3587
44.9938
44.9911
45.1209
44.4956
374.969
202.975
122.565
69.1836
76.2784
51.8853
55.8581
45.2208
47.9973
43.163
45.2838
43.2415
44.7526
44.2027
44.9094
44.6218
45.125
44.9302
45.0285
44.2632
315.416
158.995
117.311
68.5014
75.4483
56.4073
52.7145
46.9443
46.913
45.0379
46.4444
46.3125
47.4996
47.5085
50.014
46.7561
45.8283
44.845
44.4816
43.0642
309.039
151.602
87.4587
71.4872
59.4086
53.0483
54.8326
51.6255
52.3024
52.2939
53.1546
54.3487
55.3655
55.5715
56.9897
50.3119
46.8746
44.4495
43.7255
42.0756
276.408
163.24
90.0112
68.2842
57.4927
50.0015
51.9629
54.5216
56.5822
55.8885
55.9767
58.5647
61.4109
61.3506
60.0893
51.3399
46.8261
44.1729
43.129
41.8029
287.6
136.251
78.182
74.2931
55.5453
50.6915
51.531
54.8322
56.5082
54.3103
54.1773
56.4336
61.6174
62.0134
60.147
50.1134
45.5408
43.387
42.5566
41.8533
232.323
125.48
82.2166
76.6806
65.2794
57.652
57.9184
55.0397
55.3366
55.7165
56.3698
57.1362
58.8328
59.1241
58.3102
47.3106
43.5589
42.6569
42.516
42.7522
242.05
128.873
111.716
74.4321
81.053
62.3403
57.4895
47.9495
48.5719
47.4727
49.3865
49.0708
49.9214
49.5696
45.8303
42.7276
41.8201
42.1104
42.4074
43.4962
211.597
144.458
112.29
73.1637
75.9586
54.2801
54.6162
44.5481
45.7111
41.5787
43.0197
41.2281
41.9944
41.0983
40.8697
40.4399
40.5717
41.0933
41.4859
43.1334
447.405
149.377
125.125
74.9063
77.6225
51.8003
55.8733
44.0525
46.3236
42.1453
43.2378
41.3953
41.6911
41.0335
40.8501
40.4979
40.4141
40.6206
40.611
42.0041
218.847
154.568
125.851
71.4625
68.5446
47.4487
53.7782
43.3166
48.0574
43.1204
45.2655
42.7366
43.3669
42.0587
42.109
41.5496
41.4799
41.3694
41.1896
42.0569
279.117
154.718
120.521
74.243
70.9994
48.566
55.4412
44.9635
50.3225
45.4855
47.8316
45.5039
46.138
44.9378
44.8557
44.095
43.654
42.9376
42.401
42.595
164.964
138.799
124.73
79.4518
78.8417
58.5781
66.0948
55.8668
59.6712
54.1146
55.4631
52.5668
52.62
50.7735
50.3678
49.3682
48.8927
47.9649
47.512
47.4055
222.634
151.381
114.16
81.7222
92.6219
75.6244
83.425
74.4782
75.0872
67.0519
65.5302
61.8671
62.2501
61.2562
61.4861
61.34
61.1878
60.3408
59.6535
58.5915
86.3472
113.071
107.303
90.003
71.4879
58.937
52.7512
49.1204
45.6905
41.0747
36.3149
32.3017
29.8516
27.8455
26.4598
24.872
23.6743
22.0084
21.1128
19.3874
32.9718
32.647
61.9148
36.1119
33.194
33.788
81.3676
29.9259
62.5327
54.5344
32.7491
32.2949
80.6822
64.6223
60.4985
35.9946
30.1633
32.8308
82.329
33.8262
30.4938
59.4827
28.769
26.126
82.9492
72.3333
29.7545
28.2419
250.03
331.534
258.878
104.017
92.7095
98.8422
91.208
185.686
242.205
192.852
90.1689
84.6023
89.0591
83.6416
201.87
185.395
191.104
82.0425
62.6474
79.0237
63.2817
193.318
198.722
197.646
57.5518
48.4262
60.189
51.3205
169.43
191.031
184.008
46.3107
41.793
47.5213
40.3645
156.441
174.744
157.861
39.8761
33.2932
39.3652
34.5063
162.127
158.917
163.612
31.8986
29.7759
33.019
30.9247
149.788
162.971
140.936
29.4101
27.8767
30.6802
29.2022
249.413
255.215
175.321
99.2326
89.8022
89.6385
63.3277
190.555
173.478
181.443
86.5263
76.337
57.5447
47.1494
196.844
181.251
169.394
70.9378
58.8429
46.0363
45.9265
188.199
163.781
143.313
56.6852
48.5148
46.0493
42.9789
181.122
141.86
153.808
44.9445
38.2937
40.4609
35.0673
160.786
157.554
157.625
37.5442
34.8107
34.6829
34.9132
162.004
154.951
143.503
33.6972
31.8225
34.9424
34.2094
138.183
139.586
119.215
31.5853
29.7835
33.6791
30.7603
171.754
299.317
235.224
73.3562
62.1913
93.1394
85.6226
186.138
220.28
182.339
58.6065
49.775
82.6647
71.0888
175.745
172.882
160.978
48.7157
48.6274
67.5484
57.7449
150.826
161.808
162.022
48.6485
45.9193
54.157
45.2246
139.653
156.935
135.36
43.0105
35.1806
42.4685
35.2837
149.689
132.009
128.664
34.3363
34.3208
34.0034
32.6315
136.815
128.792
131.872
34.4687
34.0671
32.4558
31.6493
118.691
132.352
118.078
33.5364
30.7753
31.3154
28.5925
247.086
379.519
291.694
102.439
88.9897
112.927
97.4633
190.567
278.395
241.603
84.9556
72.689
90.276
79.0147
159.212
232.732
186.705
69.5207
58.7409
75.8466
63.9249
155.675
172.248
140.602
53.862
42.6999
56.901
41.8948
135.879
138.92
136.116
39.9807
34.0105
38.807
33.645
132.299
136.104
133.882
32.9387
31.467
32.5511
30.434
132.603
132.46
127.103
31.1861
30.0819
29.918
28.7623
117.542
124.858
109.061
29.6771
27.443
28.3441
26.1341
83.4352
86.195
83.0859
68.1354
63.7667
65.8469
63.182
78.9581
81.9552
78.4802
62.9759
59.7781
62.6177
58.9342
57.3477
74.1397
58.5085
56.588
43.8555
55.5571
45.2372
43.1318
55.0654
45.1644
40.7221
34.5413
42.4163
35.1008
36.5315
41.7821
35.5711
33.0787
29.4387
33.208
29.611
29.5458
34.5059
30.6307
28.3107
25.5993
28.8548
27.1123
26.5786
29.5305
27.9434
24.9809
23.9742
26.7521
26.3474
25.7086
27.7617
27.401
23.7981
23.5801
26.3218
26.3989
81.7707
76.5149
57.4111
64.4692
61.0553
55.5472
45.977
70.9558
52.5934
43.527
59.8575
53.8768
43.3867
37.9147
54.1342
42.3448
41.3851
50.832
42.7746
36.8399
34.6492
42.9316
41.1332
37.7409
40.5151
34.1799
33.6907
40.6064
34.1413
36.0296
32.4727
32.6265
29.8925
41.3134
41.0636
31.0952
32.1636
32.1749
29.4214
28.6035
40.5589
38.1008
29.0435
32.1619
31.4074
28.518
28.5146
37.0674
33.143
28.112
30.9431
29.0077
28.5067
27.8695
31.8331
27.8859
56.825
82.4963
77.9273
52.5416
46.4112
65.2415
59.8323
45.896
75.4172
65.2657
44.2897
39.1334
57.6281
50.3995
43.9379
62.2442
53.0755
38.0771
35.769
48.2608
41.1018
39.5943
49.5988
40.0928
34.1219
40.3175
38.4555
31.4523
32.3325
37.3366
31.2193
41.0003
41.8172
29.7168
26.4149
31.6184
30.1866
28.9946
41.5776
37.1217
25.8587
25.0033
30.9387
28.8231
28.0401
35.2263
30.3237
24.8027
24.0463
28.8763
27.7361
26.1493
28.976
26.3538
23.771
22.5311
80.7028
94.0518
85.513
69.4368
62.107
78.3531
67.6036
66.6212
80.2673
70.4673
59.3727
51.4412
63.2279
53.0372
53.2751
67.2492
54.5762
49.0655
40.7036
49.3345
38.846
38.1482
48.594
36.4452
37.7476
30.607
35.5573
28.9731
30.329
33.9233
29.6308
28.9509
25.8319
27.5913
24.9079
28.0618
28.6822
26.8348
25.2661
24.2786
24.293
22.954
26.8016
26.3536
25.2816
24.033
23.2256
22.5744
21.578
25.1504
24.9152
23.7668
22.917
21.9393
21.2859
20.2996
58.819
61.1005
58.0263
53.5378
49.3247
52.5713
48.3387
54.2686
57.2678
53.3185
48.3048
44.689
47.4062
44.296
40.9748
50.5431
42.0473
42.8651
37.5927
42.8349
38.2776
33.2149
39.6286
33.5265
36.2823
33.1282
36.8488
33.29
28.6671
32.0154
29.1138
32.2182
30.4194
32.4672
31.0398
25.5826
28.5076
27.2951
30.0158
29.2767
30.8532
30.9899
24.3
27.0919
26.9262
29.1267
28.9838
31.156
31.6204
23.9061
26.9198
26.9317
28.9339
28.6785
31.6831
31.7424
55.9141
51.5022
43.7518
50.4581
46.8279
45.4623
41.2562
49.4245
41.6181
36.9698
45.8671
42.723
40.1176
37.3317
40.1567
35.9473
33.585
41.4477
37.465
36.5241
33.9486
33.6854
36.1701
35.5018
36.571
34.2772
34.8974
34.4928
34.8309
31.0029
33.3883
31.6453
33.3426
31.0729
34.5248
29.2364
52.7667
45.0224
32.3053
32.9772
60.7896
46.8967
29.4433
42.4717
35.2149
33.2641
33.5511
43.4664
36.4921
28.5448
33.2374
28.2346
33.4974
32.8311
35.0331
31.766
44.2629
60.3089
55.3433
45.6376
41.8106
51.9328
47.3955
37.8622
53.2039
46.686
40.6249
37.6034
45.6938
41.0299
34.371
44.7368
38.3041
36.728
33.9961
39.6248
35.3147
39.9003
48.4279
34.4444
36.7764
36.0053
212.64
33.449
43.8767
61.3408
37.0229
179.591
36.6695
165.794
44.6992
43.6515
25.6592
24.8435
65.6229
44.4456
27.9316
27.5357
31.2609
24.6315
23.8898
40.2874
33.3291
27.5099
27.445
26.4423
23.6281
22.4954
32.138
30.2405
27.3708
26.9217
57.5322
72.5449
62.8861
54.6524
48.7888
62.2165
52.2416
47.5485
58.5756
48.5562
46.7306
41.2177
48.8191
40.6069
37.927
45.0691
36.0239
39.6278
35.0634
38.2695
33.2018
29.47
33.3659
28.0227
33.6113
30.1693
31.8358
28.9593
25.5116
26.8666
24.5624
29.3955
27.8789
28.3282
27.0796
24.1314
24.0258
22.7961
27.5865
27.1914
26.7678
25.8034
23.1407
22.4312
21.4533
27.1317
26.9152
25.5148
24.8304
21.9481
21.1748
20.2237
26.7978
26.4428
24.6499
23.9273
48.0005
51.0128
47.1694
52.4942
49.4955
51.364
50.3483
43.8368
46.3805
43.8878
48.9861
47.8982
50.4778
50.7241
38.3222
42.7653
39.1469
47.8153
47.2746
50.7139
49.7435
34.6736
37.95
34.9167
46.8967
46.3601
49.1355
47.9497
32.7838
34.2316
33.2067
46.6477
47.6599
48.0176
49.1233
32.3144
33.196
33.9889
47.7792
48.2287
49.7913
51.8319
32.4876
34.3523
35.3309
48.5037
48.842
52.4036
53.1053
31.8612
35.475
35.1501
48.7607
48.1567
53.0077
52.3912
45.9337
45.0336
41.849
49.8156
49.9397
47.8003
49.0665
42.8067
41.0285
38.9208
50.2554
50.8517
49.4996
50.3426
38.5374
38.2411
35.6587
50.8769
49.4586
50.1388
47.8692
34.7201
35.047
51.6447
48.7018
47.1105
46.8443
46.6652
34.0329
53.0931
51.0088
47.0383
48.0653
47.2668
48.0888
35.363
49.5486
43.3708
49.0065
52.1437
48.2735
52.1197
36.6671
41.5851
37.9395
52.9273
53.9631
53.0867
54.5302
35.9673
37.2529
35.0094
53.8605
53.0028
54.4082
53.2963
42.4154
50.8672
46.7751
48.8716
49.6711
53.6638
51.6916
39.0774
45.2823
41.278
49.9168
50.3636
51.1077
50.1377
35.5619
40.1055
36.4135
50.1011
47.6505
50.0143
48.287
52.2219
35.1291
32.2333
46.5832
46.3412
47.4701
46.0184
52.7618
31.6145
30.348
46.9009
47.4496
46.0095
46.5374
41.3006
30.123
30.3983
47.5864
51.3022
47.2735
49.4907
35.6975
30.6734
31.3945
52.2351
53.7755
50.2199
51.307
33.776
31.4633
30.9313
53.6943
52.8715
51.3077
51.08
47.8248
59.0244
50.2269
55.0424
51.7548
57.8553
50.1386
41.2363
47.1149
39.886
50.8266
49.3768
48.0684
45.0792
36.2251
38.0398
34.1662
49.3169
48.5633
45.0509
45.2657
32.1665
33.146
30.9486
48.0096
47.3468
45.0855
45.0243
30.3654
30.5357
29.8247
47.4586
48.0582
45.2796
45.8194
30.397
29.6304
28.8428
48.2756
49.4221
45.7102
45.425
30.9179
28.6838
28.356
49.8788
50.5624
45.5212
45.7958
30.3839
28.2559
27.3079
50.5366
50.4257
45.6912
45.0821
51.9002
53.5383
53.9446
65.1015
61.6166
64.3659
67.564
51.7753
54.4795
55.8033
62.0158
67.0436
68.6792
72.6311
52.5103
56.1633
56.2178
68.6929
69.0141
73.8352
78.5131
52.5525
56.0179
56.1812
69.3098
72.89
80.2116
84.5592
54.2164
56.5849
57.9204
74.3495
74.9967
85.6531
86.8262
54.9539
58.3368
60.0653
75.2565
76.7464
86.614
84.5172
55.6563
60.5267
60.6817
77.4341
77.0818
83.9504
82.3911
54.6956
60.4426
59.387
77.1529
76.5464
82.1422
81.4918
53.7971
50.3846
53.5841
62.2372
67.7665
60.5752
68.1935
56.2157
54.4545
56.3869
69.1359
73.3674
69.7235
74.5493
56.301
56.5435
55.2427
74.8681
81.5369
76.9794
87.8247
55.648
54.5086
54.0658
83.7866
88.7135
91.4421
98.5517
57.7194
54.5335
55.856
89.8116
90.959
99.8152
100.27
60.7478
56.9408
61.1788
90.5534
87.0604
98.8119
92.0063
61.6534
62.164
62.7702
85.7988
83.3101
89.585
85.0532
59.9758
62.3862
60.6605
82.9103
81.7663
84.3776
82.7355
54.16
56.5487
55.76
61.818
68.4694
66.3069
69.1153
56.4002
55.561
55.8264
69.8911
74.5844
69.788
73.3374
55.0792
56.0821
55.8363
77.0122
87.9269
74.9401
82.1548
53.7649
55.4222
55.3877
91.6292
98.4853
84.4532
89.0847
55.3273
55.7263
56.7976
99.7418
100.545
90.0339
91.1087
60.6338
57.1961
58.8698
99.0442
92.0362
90.4795
86.7845
62.3371
59.5527
60.0627
89.6003
85.1785
85.5666
83.6635
60.4386
59.9545
59.1845
84.511
82.7331
83.423
82.5496
55.5933
59.6822
52.4662
67.8917
68.5377
67.2609
62.9802
54.9574
50.8523
49.9058
68.9008
72.382
62.0437
66.3673
55.8076
50.4955
51.4519
73.7235
79.3387
67.698
70.4262
56.11
51.2679
51.6602
81.0127
85.1193
70.077
73.8976
56.9877
52.1958
53.0514
85.9871
87.0852
74.6537
76.2536
58.4002
52.9649
53.1137
86.6427
84.4467
75.7917
77.4895
59.2095
53.4171
53.8322
83.8776
82.88
77.6118
78.0171
58.5874
53.7306
52.8652
82.7368
82.2586
77.7058
77.098
33.7244
34.4115
33.463
32.4277
33.6527
33.4953
34.1074
36.48
33.3678
45.3067
36.4282
34.1564
33.162
164.342
45.3302
40.4408
58.1065
196.839
37.2255
51.6683
213.459
33.679
35.8699
34.8718
34.8401
34.4527
34.2454
34.1903
33.9054
32.4916
33.8811
34.7418
33.3079
34.5683
34.2829
37.1404
37.402
33.974
54.3035
33.3512
171.018
35.4844
46.418
203.411
44.9078
74.4748
53.2903
220.412
40.0813
35.2683
30.3749
33.3285
30.3966
33.3674
30.6778
35.3127
54.6353
42.2126
62.472
183.705
43.2046
53.7737
169.719
56.7909
43.8535
60.3355
86.5917
44.1709
53.628
114.077
35.7594
31.925
32.4847
35.36
31.5481
35.2026
35.961
36.4095
31.1752
32.3546
36.8646
31.326
36.5884
36.5509
57.2266
189.497
47.297
79.3647
55.5089
176.493
49.1936
59.4392
92.0327
50.3441
73.5566
56.4343
119.332
50.6962
44.1411
58.344
37.2575
192.03
37.204
203.737
44.987
33.0316
35.6963
33.8012
34.341
34.0079
34.0651
32.5063
32.2159
31.3886
31.836
29.57
32.6201
31.4096
30.91
40.999
37.7387
54.3574
33.4018
208.481
33.1428
36.2911
46.2832
195.367
74.9982
41.7883
208.745
47.4292
39.9015
32.6717
33.5908
33.6356
32.4953
33.3516
32.0545
32.8539
32.218
29.6685
32.1307
31.3943
31.7099
30.755
32.4664
42.0801
63.6461
36.0998
114.138
36.3755
152.427
42.3993
29.8912
30.2895
27.6544
28.4588
29.363
30.6115
27.5686
29.1702
28.032
26.7716
26.3074
28.5703
28.7614
26.8438
46.1559
182.583
81.4833
42.1515
169.521
47.1592
41.8682
43.8562
114.213
80.9457
40.4518
148.298
43.9885
41.2205
30.5655
28.7645
31.7166
29.1518
31.1345
28.0334
31.2783
29.9093
26.9707
30.3799
28.6421
29.5376
27.4273
30.773
168.362
193.514
170.708
113.368
103.558
115.895
105.7
134.206
150.344
136.51
90.0627
75.4944
95.692
86.7513
130.013
133.175
133.936
66.1035
59.0496
77.2611
67.5591
124.966
133.083
128.398
55.752
53.6616
60.9951
56.4427
106.351
120.122
110.368
51.5768
48.2255
52.7796
50.506
95.6783
101.733
97.54
44.3228
39.9954
45.91
40.7613
92.8788
96.3883
96.471
37.5608
35.49
37.7825
36.1208
84.415
96.3675
91.5152
34.8199
28.9108
35.4246
28.6429
199.129
220.985
202.658
122.185
114.013
120.993
109.736
164.001
299.659
326.998
187.033
168.439
183.81
295.362
130.871
217.108
242.703
133.301
126.631
135.221
228.135
96.5538
179.385
185.539
101.882
91.8671
107.413
184.468
83.8612
205.216
203.383
79.3163
77.9468
83.8126
204.338
78.6283
187.122
193.278
76.4813
75.1441
81.62
190.365
70.3918
155.789
166.316
71.3283
66.5693
74.813
158.012
56.0592
159.868
157.583
58.2373
56.6814
57.0406
160.442
54.5946
162.152
163.457
54.7434
53.8223
54.8436
163.176
93.2909
98.6052
83.8399
32.4074
26.6065
32.7893
26.2924
206.04
216.217
176.633
128.079
110.431
127.879
106.057
159.761
298.256
320.135
186.103
163.139
184.867
275.814
103.529
212.223
194.041
121.909
114.918
115.017
188.127
79.6324
190.945
191.254
92.4348
87.0246
82.1636
193.621
76.4471
197.94
188.009
81.4374
80.7352
77.4987
180.829
65.3145
181.9
168.291
74.5629
70.0721
69.0636
169.282
62.9524
168.798
173.737
65.7756
65.4167
62.8626
170.219
58.9616
161.985
160.215
59.3018
57.849
60.6876
159.903
54.4105
156.195
153.854
55.7068
54.7588
55.8427
148.757
79.0555
85.7108
76.2844
32.9048
27.3213
33.5445
28.8463
145.519
189.398
176.084
98.2016
84.3213
105.067
97.5742
121.785
184.347
232.23
127.638
108.252
133.24
212.227
91.9888
179.456
195.361
83.5151
79.3846
98.6744
191.074
76.6886
182.986
182.605
73.3551
73.2346
78.7927
177.771
73.1552
170.32
174.459
76.278
79.2709
72.5202
173.346
72.9137
137.841
152.618
77.0341
70.2419
76.6412
142.015
58.5356
148.441
133.501
57.8327
57.5961
59.5858
134.003
59.2141
145.611
134.492
59.2744
59.3427
59.2385
132.791
55.864
132.55
130.789
57.0973
55.3038
57.1781
131.282
77.726
85.2713
72.7216
35.0625
31.8337
33.2705
27.6359
200.561
230.424
212.359
131.523
116.148
134.774
126.698
165.538
293.928
332.447
182.12
160.836
184.696
298.911
120.491
214.875
232.97
121.592
114.428
127.732
218.593
96.6693
169.587
187.046
93.8953
89.3384
100.674
177.523
72.4096
157.057
153.543
73.8075
70.1239
78.6791
148.796
58.8304
143.981
139.071
64.1337
61.8467
61.0918
137.116
53.4144
132.744
135.263
55.8787
55.3114
54.1323
135.099
50.9918
132.602
134.281
54.2355
54.0098
51.508
133.94
48.4318
131.543
130.545
52.0283
50.9288
49.283
127.946
67.9846
73.3612
65.3381
30.0537
25.5854
30.1556
26.8276
189.562
223.482
188.568
131.54
113.407
130.086
113.686
152.675
167.08
147.052
96.9423
89.1945
98.0172
88.3944
118.86
131.844
114.62
81.2451
73.7902
77.7664
70.3428
94.4016
104.587
96.5331
62.3025
51.4129
60.3232
53.5302
87.436
92.4954
87.1052
44.6567
40.1905
48.0552
43.6405
82.9408
85.0283
82.0039