/*--------------------------------*- C++ -*----------------------------------*\
  =========                 |
  \\      /  F ield         | OpenFOAM: The Open Source CFD Toolbox
   \\    /   O peration     | Website:  https://openfoam.org
    \\  /    A nd           | Version:  10
     \\/     M anipulation  |
\*---------------------------------------------------------------------------*/
FoamFile
{
    format      ascii;
    class       volScalarField;
    location    "3.1";
    object      p;
}
// * * * * * * * * * * * * * * * * * * * * * * * * * * * * * * * * * * * * * //

dimensions      [0 2 -2 0 0 0 0];

internalField   nonuniform List<scalar> 
12920
(
-276052
-234786
-250685
-179126
-173784
-138162
-132988
-112555
-105862
-91662.4
-83704.7
-72471.4
-64145.9
-54611.5
-46473.7
-37713.7
-29701.9
-21511.6
-12924.6
-662.736
-378344
-197436
-233387
-157054
-167238
-132398
-127618
-110236
-105214
-91209
-83636.7
-72330.7
-64129
-54589.4
-46566.9
-37873.6
-29958.8
-21885.4
-13435.4
-1291.42
-237130
-122635
-179173
-126653
-157462
-125882
-130591
-111424
-105807
-91536.3
-83511
-72145.7
-63964.6
-54462.8
-46590.5
-38041.2
-30245.8
-22284.3
-13874.8
-1992.57
-88904.8
-2358.11
-157255
-118399
-144700
-119962
-126082
-109412
-105433
-91834.2
-83953.4
-72628.7
-64165.7
-54859.9
-47138.6
-38822.3
-31113
-23183
-14696.7
-2697.74
14022.1
8057.57
-110528
-109725
-155707
-132333
-134815
-116476
-109554
-94987.6
-85669.6
-73647.6
-64764.4
-55351.3
-47982.9
-39941.5
-32324.2
-24377.8
-15700.5
-3418.16
-65144.3
-32892.4
-130600
-116832
-147639
-131373
-133714
-117813
-111892
-98677.9
-88563.4
-76537.9
-66962.4
-57425.1
-50426.6
-42493.6
-34457.1
-26213.1
-17117.7
-4428.25
-345339
-160513
-242534
-177706
-206622
-172330
-157152
-130142
-120838
-105010
-93569.3
-79742.4
-70509.7
-61605.7
-54126.1
-45356.3
-36729.8
-28066.8
-18528.7
-5465.03
-199547
-186855
-226750
-195673
-207025
-183816
-175137
-148464
-132130
-116077
-101903
-88374.9
-78494.5
-68856.6
-58476.2
-48749.6
-39357.4
-30193.3
-20143.2
-6585.46
-491496
-408631
-421569
-316062
-291712
-224654
-199864
-180540
-154086
-128787
-113828
-100817
-89896.9
-77595.8
-64751.1
-51920.5
-41803.8
-32189.7
-21779.4
-7750.51
-436099
-457802
-428995
-345553
-318989
-268565
-237497
-207647
-180152
-154807
-130594
-113992
-98684.6
-84190.6
-69505.7
-54574.9
-44018.5
-34231.4
-23471.3
-9007.93
-673296
-621112
-569835
-422770
-384521
-317422
-279466
-238455
-202735
-172747
-146774
-122992
-104264
-88831.2
-72697.8
-57554
-46903.8
-36555.4
-25237.3
-10406.7
-796443
-646409
-570326
-424120
-402162
-345638
-298580
-248059
-208530
-177419
-152972
-132985
-113852
-95744.3
-76804.9
-62212.2
-51217.1
-40141.5
-28353.1
-11985.6
-1.12221e+06
-741654
-642806
-478818
-411482
-325355
-291793
-243173
-207223
-178310
-158838
-139356
-120952
-102509
-83838.8
-68786.8
-56060
-44284.9
-31444.1
-13489.7
-772322
-568941
-512704
-405835
-363313
-298970
-269958
-229824
-207269
-180253
-159762
-139210
-122675
-105093
-88800.2
-73263
-60086.6
-47273
-33648
-14836.8
-511677
-428196
-472161
-373494
-340557
-279924
-251349
-219852
-202033
-180727
-161350
-139796
-122711
-106646
-91163
-76008.9
-62551.3
-49537
-35627.7
-16108
-470642
-290875
-317520
-272235
-269681
-231701
-228298
-202727
-190328
-170689
-157069
-139949
-124196
-106664
-91859
-77003.9
-63781.4
-50719.4
-36706.2
-16697.6
-178268
-138254
-239174
-206819
-222640
-194870
-198525
-180720
-174853
-160132
-150565
-135506
-122501
-105761
-91587.3
-77328.6
-64292.3
-51334.4
-37184.1
-17025.4
-99481.9
17996.8
-82733.7
-86657
-150474
-141781
-166981
-159603
-162453
-152133
-144710
-131795
-119113
-104270
-90843.3
-77029
-64284.1
-51445.1
-37039.2
-16691.3
261353
158401
-47247.9
-23407
-114602
-112257
-147237
-145884
-152632
-145243
-140023
-128019
-116862
-103374
-90934.3
-77409.6
-64649.1
-51382.6
-36608.5
-16152.2
219266
208972
-13845.6
14525.6
-86765.9
-97024.4
-134767
-138678
-146651
-141747
-136935
-126060
-115518
-102857
-90953.7
-77541.1
-64757.8
-51203.6
-36206.3
-15383.2
-277691
-235157
-254558
-178665
-173591
-137434
-132995
-112510
-105871
-91649.5
-83683.7
-72451.9
-64115.1
-54569.5
-46442.1
-37682.8
-29659.4
-21492
-12926.8
-728.996
-351049
-199922
-228089
-155310
-168076
-132877
-128835
-110397
-105108
-91119.4
-83554.8
-72269.6
-64064.4
-54523.2
-46502.6
-37828.3
-29939.5
-21890.4
-13460.2
-1443.3
-128117
-118643
-174899
-127152
-158039
-125684
-130858
-111175
-105651
-91345.6
-83391.7
-72005.3
-63847.3
-54364.3
-46504.9
-37967.5
-30182.3
-22245.7
-13884.2
-2177.33
-85448.8
297.089
-157909
-118513
-145278
-119590
-125996
-108928
-105199
-91441.9
-83707.6
-72330.5
-63979.2
-54656.3
-47000.4
-38715.2
-31028.4
-23138.2
-14687.9
-2908.39
59934.2
10349.4
-110966
-109664
-155109
-131098
-134888
-115987
-109340
-94596.6
-85314.4
-73215.1
-64408.7
-55025.3
-47778.7
-39809.9
-32239.3
-24352.7
-15718.5
-3655.29
-71455.4
-30532.3
-127917
-116548
-147652
-131032
-134301
-117235
-111752
-98152.1
-88277.5
-76073.1
-66659.4
-57370.7
-50220.9
-42422.1
-34416.3
-26213.3
-17183.6
-4705.91
-379942
-159743
-241788
-176180
-207429
-172700
-157098
-130911
-120683
-104533
-93174.4
-80383.7
-71269.1
-62100
-54256.7
-45367.7
-36716.4
-28068
-18600.5
-5729.43
-318814
-204860
-226901
-197359
-209094
-185747
-175333
-148635
-131650
-116153
-101980
-89254.4
-78858.4
-69191.1
-58498.1
-48732.2
-39325.1
-30207.6
-20190.3
-6902.26
-603595
-402788
-419952
-319153
-292124
-225862
-201242
-178639
-153506
-129441
-114160
-100887
-89391.7
-77742.4
-64727.2
-51747.2
-41746.9
-32224.8
-21948.1
-8018.39
-549911
-474147
-435989
-348307
-318984
-267925
-236009
-207523
-179741
-154073
-131121
-113698
-98336.4
-84245.7
-69243.9
-54265.9
-43833
-34174.9
-23595.5
-9225.3
-728139
-637252
-577271
-424126
-386459
-317348
-280335
-237813
-202558
-172482
-145820
-123352
-104756
-88669.3
-72327.3
-57155.2
-46636.5
-36384.8
-25594.1
-10625.9
-951259
-663651
-582085
-427158
-399961
-344071
-298207
-247526
-208136
-177290
-153430
-132783
-113759
-95268.4
-76447.3
-61907.6
-51067.8
-40081.4
-28406
-12143.9
-1.09912e+06
-750752
-644554
-474331
-411895
-325512
-292171
-242972
-207570
-179251
-158722
-138948
-120682
-102374
-83630.3
-68748.1
-56194
-44467.4
-31318.4
-13595
-734370
-563643
-518801
-404973
-362302
-297327
-269701
-229794
-207755
-180184
-159589
-138736
-122139
-105161
-88843.2
-73312
-60249.6
-47441.1
-33541.6
-14926.3
-449318
-431248
-475372
-374476
-341922
-279624
-253366
-222166
-201586
-179969
-160638
-139923
-123261
-106720
-91202
-76056.5
-62653.7
-49666.1
-35844.4
-16203.2
-427695
-296527
-317722
-274965
-273136
-234051
-227359
-200913
-189806
-170086
-156587
-139688
-124330
-106582
-91830.8
-77016.3
-63848.2
-50866.1
-36933.6
-16841.4
-272714
-180955
-246591
-210917
-225339
-194777
-198291
-180347
-174516
-160108
-150864
-135745
-121770
-105572
-91587.5
-77327.7
-64341.6
-51464.6
-37339.8
-17180.1
-138673
31970.7
-82713.8
-89341
-151009
-140836
-166684
-159532
-162512
-152321
-144934
-131253
-118973
-104283
-91036.4
-77004.4
-64333.4
-51539
-37200.7
-16834.8
278354
153835
-49065.2
-23008.7
-113630
-111571
-147245
-145913
-152974
-145470
-139792
-127920
-116808
-103312
-90833.2
-77473.8
-64727.9
-51470.9
-36701.4
-16235.4
169710
203888
-16630.7
13115.9
-86701.5
-96869
-134738
-138674
-146575
-141639
-136888
-125992
-115507
-102825
-90816.8
-77567.4
-64790.7
-51245.4
-36245.7
-15431.9
-369661
-239669
-263123
-178862
-174570
-137091
-133309
-112442
-105871
-91585.6
-83588.5
-72370.2
-64021.1
-54498.3
-46364.8
-37630.5
-29584.5
-21430.5
-12889.9
-867.354
-352173
-180156
-232174
-151787
-166909
-131584
-129520
-109963
-104960
-90894.8
-83347.3
-72061.4
-63876.2
-54335.9
-46336.2
-37684.2
-29856.7
-21844
-13495.7
-1775.26
-106756
-116038
-165304
-125284
-157421
-125276
-130944
-110608
-105372
-90964.5
-83116.7
-71687.2
-63597.5
-54153.3
-46314.5
-37805.4
-30044.5
-22167.4
-13906.7
-2520.86
5170.29
8092.45
-160828
-120213
-145827
-119199
-125458
-107888
-104645
-90621.4
-83223.4
-71810.2
-63628.2
-54298.1
-46738.7
-38503.5
-30866.3
-23043.9
-14674.7
-3260.76
55641.2
28856.1
-118574
-110942
-155818
-130110
-134925
-115324
-108856
-93919.6
-84657.7
-73101
-64162.6
-54874.1
-47460.5
-39532.4
-32075.9
-24272.9
-15749.1
-4073.9
-135058
-40262.8
-125354
-116742
-147287
-130448
-134374
-117068
-111457
-97710.8
-88007.7
-76153.7
-66786.8
-57673.3
-50062.3
-42305.4
-34344.3
-26171
-17278.8
-5104.3
-338491
-147657
-237136
-176131
-209196
-173020
-158084
-132456
-120930
-104692
-93862.6
-80882.9
-71936
-62352.7
-54329.2
-45370.3
-36687.6
-28065.3
-18729.4
-6111.47
-207334
-193468
-222272
-198166
-212039
-187412
-175748
-148889
-132042
-116301
-102489
-89821.8
-79227.5
-69395.9
-58446.9
-48721.6
-39252.5
-30245
-20273.3
-7275.16
-525511
-394191
-419689
-319210
-293143
-227153
-202490
-176601
-153033
-130849
-115044
-101100
-89192.6
-77997.2
-64694.3
-51544.3
-41675.4
-32277.8
-22283.5
-8495.19
-657808
-483271
-435248
-349819
-318576
-265793
-232902
-205954
-178504
-153119
-131164
-113464
-98083.3
-84190.5
-68887.5
-53771.5
-43533.4
-34152.6
-23844.2
-9646.04
-770327
-662382
-579964
-428517
-387430
-315930
-278908
-236529
-201345
-169836
-144918
-123687
-105276
-88336.9
-71714.2
-56370.2
-46207.7
-36658.1
-25916.8
-10923.4
-857471
-673417
-588892
-428566
-398874
-342085
-297299
-246347
-207424
-177219
-153465
-132675
-113655
-94755.9
-75998.9
-61289.2
-50867.9
-39942.1
-28527.2
-12338
-1.09402e+06
-755234
-645070
-471048
-409817
-325193
-293059
-242974
-208162
-180519
-158682
-138537
-120068
-101989
-82967
-68689
-56197.7
-44276.2
-31323.3
-13747.8
-675532
-565804
-524075
-402628
-361964
-295451
-269944
-230036
-207992
-180019
-159159
-138109
-121323
-104761
-88828.1
-73418.9
-60523.3
-47694.1
-33580.8
-15006.4
-626562
-435759
-482506
-373217
-343777
-279808
-253689
-222745
-200952
-178877
-159536
-139630
-123402
-106820
-91393.7
-76171.8
-62899.8
-49915.1
-35933.7
-16245.4
-435730
-306171
-318939
-277793
-275974
-235526
-225893
-198910
-188905
-169055
-155678
-139244
-124170
-106430
-91821
-77055
-64007.4
-51147.8
-37357.1
-16940.6
-273895
-181353
-243573
-210343
-226268
-193217
-197391
-179208
-173749
-160211
-151223
-135243
-120960
-105255
-91533.6
-77333
-64445.4
-51696.7
-37638.4
-17349.5
-26483
21823.1
-90275.2
-92250.5
-149876
-139077
-165849
-159253
-163191
-152553
-144539
-130742
-118640
-104180
-91150.2
-77076
-64451.8
-51721.9
-37461.6
-16914.1
260252
159124
-45507.8
-24713.9
-111062
-109515
-147012
-145918
-152681
-145128
-139585
-127647
-116683
-103232
-90796.7
-77472
-64829.1
-51625.8
-36866.2
-16400.2
147374
207296
-11775.8
10624.4
-86088.8
-96367.5
-134400
-138537
-146507
-141549
-136678
-125871
-115498
-102794
-90729.7
-77613.1
-64852
-51317.9
-36316.4
-15525.8
-471978
-254955
-268811
-177368
-175110
-136659
-133357
-112279
-105773
-91466.7
-83478.9
-72252.7
-63914.9
-54383.8
-46275.5
-37549.9
-29547
-21427.3
-12895.2
-1082.73
-323406
-205837
-226271
-153360
-167019
-131318
-129722
-109761
-104563
-90510.7
-82974.9
-71722.3
-63561
-54027.6
-46057.5
-37447.7
-29666.7
-21718.3
-13493.5
-2243.48
-160651
-103692
-164597
-124692
-157000
-125245
-130412
-110200
-104961
-90639.6
-82750.8
-71383
-63258.5
-53820.9
-46053.4
-37600.6
-29834.6
-22051
-13939.1
-3028.36
-34786.8
37915.2
-157694
-121226
-146246
-119813
-124602
-107212
-103979
-90456.1
-82948
-71794.7
-63507.3
-54213.7
-46545
-38350.7
-30714.7
-22986.9
-14851.8
-3789.46
123035
46752.9
-113202
-113217
-156104
-129328
-134572
-114936
-108375
-93669.6
-84654.9
-73165.3
-64375.8
-54997.5
-47471.2
-39430.2
-31911.2
-24163.2
-15879.4
-4627.16
5144.56
-35140.9
-112880
-117668
-146892
-130641
-134216
-118302
-111291
-97553.9
-87854.3
-76355.2
-67016.7
-57905.9
-50065.5
-42067.9
-34174.6
-26036.2
-17328.5
-5601.14
-364430
-139291
-233250
-177132
-210730
-173776
-159565
-133525
-121934
-104937
-94474.7
-81128.1
-72213.4
-62154.3
-53954.4
-45149.6
-36615.1
-28039.2
-18852.6
-6581.85
-179442
-196714
-218916
-199726
-213824
-188505
-175958
-148777
-132455
-116160
-102836
-89995.5
-79440.4
-69249.5
-58064.9
-48629.6
-39141.8
-30331.3
-20688.2
-7774.68
-519735
-415560
-412733
-320857
-295249
-227899
-203464
-175703
-152958
-131948
-115649
-101346
-89128.4
-77764.6
-64382.1
-51255.2
-41656.8
-32553.3
-22528.2
-8976.18
-701857
-501380
-437217
-354110
-320670
-263686
-230430
-203738
-176943
-152331
-130994
-113304
-98121.4
-84131
-68535.6
-53010.9
-43572.8
-34490.1
-24246.5
-10095.8
-1.11066e+06
-706702
-588917
-432798
-388800
-315440
-273932
-233258
-198314
-167867
-144008
-124054
-105627
-88292
-71043.3
-55313.7
-46108.7
-36783
-26277.2
-11237.6
-1.10666e+06
-673348
-599081
-429618
-399659
-342190
-296193
-244797
-206699
-177139
-153290
-132682
-113633
-94715.5
-75984.4
-60656.9
-50591.6
-39805.7
-28733.7
-12511.7
-1.05796e+06
-764573
-648826
-466332
-408536
-324523
-294651
-243359
-208759
-181093
-158457
-138136
-119337
-101473
-81824.3
-68477.8
-55962.4
-44182.7
-31455.3
-13885
-768444
-595846
-530582
-400404
-361770
-295253
-270017
-230418
-207870
-179630
-158389
-137316
-120593
-103924
-88511.9
-73441.6
-60447.8
-47683.7
-33834.6
-15068.5
-602735
-460002
-491792
-370867
-346318
-280058
-253786
-222471
-200349
-177748
-157963
-138848
-122676
-106754
-91572.3
-76328.6
-63082.4
-50123.7
-36173.4
-16219
-382083
-311364
-327904
-283539
-278456
-236228
-224280
-197093
-188461
-168310
-154495
-138011
-123304
-106300
-91837.6
-77165.7
-64231.7
-51510
-37797.6
-17006.1
-150063
-183107
-252452
-213427
-227088
-190721
-195561
-177933
-173335
-159887
-150367
-134623
-120349
-104976
-91476.9
-77397.1
-64659.3
-52082.9
-38237.5
-17454.2
72501.4
50703.3
-92753.6
-92769.3
-147451
-136806
-165338
-159090
-163093
-152324
-144030
-130424
-118483
-104153
-91263.8
-77355.2
-64748.2
-52104
-37890.2
-17051.3
218566
183352
-36042.8
-28176.2
-108296
-107430
-146902
-145539
-152356
-144858
-139270
-127327
-116494
-103136
-90805.7
-77464.1
-64812.9
-51706.7
-37123.7
-16523.5
235712
222506
-4331.46
8582.44
-85675.2
-96265.4
-134300
-138494
-146217
-141273
-136613
-125801
-115449
-102732
-90705.9
-77546.7
-64912.8
-51399.3
-36424.5
-15671.5
-561409
-271321
-269846
-177482
-175222
-136351
-133412
-112139
-105706
-91359.1
-83409.7
-72147
-63844.4
-54285.6
-46182.4
-37481.8
-29509.1
-21400.7
-12903
-1508.74
-404199
-211081
-226119
-155015
-166280
-130039
-129467
-109590
-104417
-90364.9
-82850.4
-71571.6
-63443.2
-53907.9
-45945.5
-37322.2
-29525.8
-21618.3
-13484.5
-2930.44
-44626.4
-105302
-160196
-124015
-156826
-123725
-129834
-110062
-104737
-90470
-82533
-71255.3
-63082.1
-53685.2
-45923.3
-37547.3
-29798.7
-22060.6
-14053.4
-3772.72
-51735.7
44384.2
-153185
-122086
-146318
-119919
-123540
-107145
-103581
-90349.8
-82754.3
-71772.8
-63422.5
-54205.3
-46453.4
-38274.5
-30644.2
-22972.3
-14987.9
-4535.36
187366
58293.6
-104727
-113674
-155842
-128664
-133763
-115022
-108142
-93601
-84643
-73163.5
-64496.9
-55109.6
-47465.5
-39383.5
-31813.1
-24111.2
-16020.8
-5370.15
26981.7
-37670.1
-110072
-118888
-146715
-131031
-134031
-118234
-111083
-97585.9
-87690.9
-76516
-67062.1
-57986.4
-50052.1
-41825.4
-33998.6
-25903.8
-17440.3
-6246.65
-270787
-163437
-224592
-178113
-210730
-175175
-160851
-133661
-122333
-104965
-94528.8
-81214.1
-72064.8
-61759.9
-53714.3
-44947
-36507.2
-28018.3
-19032.2
-7187.47
-52904
-180453
-212559
-199369
-214334
-189120
-175353
-148514
-132690
-115759
-102961
-89538.5
-79495.9
-68344.7
-57408.3
-48372.5
-39081.2
-30462.9
-21033.3
-8384.44
-434435
-416641
-410951
-321189
-296757
-229689
-203910
-175262
-152848
-132580
-116115
-101615
-89110.9
-77148
-63488.6
-50481.8
-41700.1
-32739.7
-22837.1
-9545.95
-736467
-509550
-434829
-355330
-322819
-264010
-229842
-202630
-176001
-151737
-130865
-113386
-98238.3
-84027
-68160.2
-52236.2
-43633
-34814.6
-24733
-10584.8
-1.13967e+06
-726261
-589705
-435234
-389436
-314517
-270123
-229376
-195876
-167378
-143738
-123939
-106166
-88765.6
-70805.3
-54556.7
-46019.9
-36935.5
-26715.7
-11597.3
-1.21148e+06
-712734
-601798
-431697
-400333
-343664
-295554
-243574
-205910
-176780
-153089
-132823
-113810
-95019.7
-76079.9
-59679.4
-50282.1
-39853.2
-29114.3
-12715.1
-1.13201e+06
-781681
-651359
-463928
-407339
-323223
-296094
-243941
-209157
-180902
-158416
-137962
-118958
-100877
-80673.9
-68024
-55804.7
-44202.7
-31789.4
-14001.4
-840582
-609751
-534490
-398353
-360520
-296076
-270190
-230638
-207718
-179153
-157096
-136447
-120007
-103255
-88044.1
-73231
-60247.3
-47666.1
-34296.9
-15162.8
-646805
-449854
-500762
-370520
-347323
-280281
-253725
-221685
-199949
-176894
-156394
-137799
-121392
-106035
-91039.1
-76185.6
-62906.7
-50195.9
-36694.7
-16236.4
-392312
-317349
-328120
-288410
-278569
-234805
-223897
-196625
-188286
-167934
-153291
-136343
-121864
-105878
-91659.1
-77185.5
-64249
-51748.9
-38333.5
-17035.2
-232312
-185027
-247876
-215578
-229055
-189757
-194961
-177470
-173348
-159119
-148412
-133546
-119315
-104686
-91389.5
-77478.5
-64832.3
-52482.5
-39001.7
-17402.3
119572
42022.8
-94222.1
-93428.5
-148027
-135759
-165198
-158337
-162283
-151682
-143272
-130350
-118466
-104261
-91421.3
-77657.4
-65081.8
-52464.7
-38488.2
-17171.4
525625
207797
-18762.2
-30397.9
-108415
-103587
-146001
-145090
-152163
-144636
-139108
-127142
-116383
-103086
-90859.3
-77520.2
-64852.5
-51804.6
-37402.1
-16636.2
398590
224867
3748.57
10739.5
-84803.1
-95192.4
-133765
-138121
-146224
-141161
-136460
-125703
-115458
-102714
-90694.3
-77511.3
-64875.9
-51415.1
-36540.3
-15874.2
-136240
-167076
-148065
-152510
-136026
-165222
-146957
-117599
-141943
-126471
-131029
-117494
-141187
-126670
-151198
-176356
-157387
-168228
-149973
-175874
-157136
-129222
-151669
-135684
-143979
-129205
-151469
-135671
-185519
-228731
-208731
-200616
-184292
-226146
-208478
-161953
-201442
-179920
-179252
-161260
-201221
-179682
-134335
-173188
-153753
-153740
-134579
-172771
-153577
-118075
-147244
-129743
-129188
-118091
-147295
-130667
-103597
-125179
-114538
-114026
-103715
-126112
-114711
-93132.7
-111164
-100818
-100855
-92772.2
-111085
-100496
-80645.8
-97076.8
-86261.6
-89510.6
-80565.1
-96723.9
-86220.1
-69117.7
-82720.6
-72746.4
-77688.4
-69153.8
-82805
-72870.4
-214966
-264293
-238540
-236318
-214986
-265215
-239023
-186297
-230225
-206582
-207620
-186230
-230322
-206380
-161602
-199164
-177535
-179864
-160865
-198935
-177405
-135861
-170714
-151276
-154307
-136195
-170480
-150166
-117861
-144684
-126034
-131022
-117823
-143553
-126005
-102472
-120727
-106875
-113764
-102261
-120791
-106980
-87677.8
-102682
-91083.9
-98441.9
-87648.2
-102793
-91191.7
-74309.6
-87484.1
-76777.3
-84220.7
-74087.6
-87487.6
-76591.4
-248683
-297885
-258403
-280068
-248147
-297453
-258127
-211067
-246843
-216848
-238016
-210988
-246557
-216614
-179810
-207885
-183938
-202711
-179756
-207697
-183813
-153023
-176796
-157291
-172644
-152603
-176678
-157325
-128456
-151428
-135810
-146102
-128515
-151635
-135724
-108600
-130637
-116032
-123261
-108876
-130595
-116054
-92398.4
-111420
-98265.4
-104590
-92558.4
-111463
-98054.4
-77893.2
-94001.8
-81271.9
-88761
-77581.1
-93600
-81014.2
-259718
-299568
-260592
-298215
-259376
-299752
-260398
-217604
-248510
-219010
-247737
-217314
-248338
-218811
-184515
-209686
-184475
-208282
-184389
-209564
-184885
-158567
-178474
-163001
-177325
-158798
-178894
-163470
-138085
-158672
-144487
-153341
-137986
-159094
-144411
-118561
-139817
-125086
-132833
-118464
-139638
-125068
-100227
-120541
-106039
-113784
-100031
-120615
-105994
-82504.4
-101144
-86896.6
-95416.1
-82275.7
-101126
-86873
-183820
-225437
-208142
-201974
-182824
-222748
-205903
-160822
-201003
-179547
-177005
-159672
-199288
-178830
-134706
-172650
-153521
-153094
-135363
-172130
-153314
-118133
-147324
-130978
-130549
-118676
-147339
-131622
-103871
-126411
-114721
-114833
-104339
-126987
-114711
-92612.9
-111027
-100289
-101046
-92313.8
-110802
-99795.1
-80623.4
-96567.1
-86222.4
-89224.1
-80839.7
-96195
-86284.2
-69131.9
-82856.7
-72821.3
-77941.2
-69132.4
-82919.2
-72748.7
-214880
-265599
-239163
-233418
-213546
-264933
-239069
-186195
-230358
-206254
-206544
-185577
-230107
-205485
-160534
-198770
-177144
-178880
-159553
-197792
-175474
-136263
-170145
-149656
-153349
-136283
-167927
-148342
-117777
-143179
-125978
-131198
-117643
-142198
-126504
-102142
-120873
-107100
-113514
-101823
-121359
-107579
-87660.7
-102951
-91187.3
-98111.9
-87687.7
-103304
-91069.7
-73997.8
-87433.4
-76436.5
-84209.1
-73871.5
-87258.6
-76148.4
-247951
-297239
-257925
-279551
-247115
-295928
-257119
-210802
-246381
-216458
-236961
-210012
-245611
-215836
-179642
-207568
-183747
-201793
-178525
-207032
-183457
-152236
-176628
-157398
-170709
-151344
-176445
-157425
-128521
-151688
-135716
-145093
-129446
-151700
-135696
-109098
-130596
-116076
-123784
-109575
-130615
-116204
-92528
-111486
-97948
-105167
-92327.8
-111538
-97618.1
-77400.1
-93431.7
-80836.7
-88401.1
-77050.6
-92979.8
-80423.9
-259164
-300205
-260366
-297379
-258347
-300257
-259791
-217144
-248283
-218656
-246688
-216507
-247786
-218020
-184327
-209514
-185311
-207611
-184142
-209436
-186873
-158939
-179243
-163679
-177228
-159117
-180553
-164084
-137947
-159169
-144348
-153491
-137868
-159062
-144072
-118440
-139514
-125021
-132683
-118410
-139062
-124804
-99937.3
-120578
-105976
-113679
-99667.6
-120315
-105908
-82115.7
-101111
-86788.5
-94859.6
-81766.5
-101052
-86716.9
-182682
-222309
-205159
-203063
-182433
-221385
-203617
-159376
-198595
-178501
-175863
-158892
-196937
-177484
-135584
-171881
-153231
-153027
-136444
-171094
-153061
-118954
-147317
-131752
-131733
-119661
-147269
-131896
-104471
-127073
-114696
-115544
-104849
-127185
-114622
-92263.1
-110732
-99702.3
-101275
-92174
-110542
-99553.5
-80893.9
-96130.2
-86297.7
-89135.9
-80914.4
-96074.2
-86293.2
-69057.5
-82920.4
-72674.8
-77890
-68939.7
-82876.2
-72642.7
-212883
-264486
-238725
-230694
-211073
-261826
-236256
-185206
-229767
-204979
-204203
-183897
-227374
-202479
-159248
-197193
-174711
-177287
-158459
-194619
-172464
-151821
-147247
-158402
-152898
-152184
-147105
-157940
-130149
-126418
-135187
-131118
-130173
-126381
-135092
-101777
-121477
-107711
-113323
-101733
-121684
-108014
-87681.5
-103404
-91043
-98094.2
-87659.5
-103637
-91093.3
-73768.5
-87212.6
-75978.7
-84143.1
-73679.9
-87200.9
-75786.3
-246669
-295648
-256784
-275432
-244344
-294341
-255547
-209590
-245274
-215576
-234393
-207480
-244029
-214658
-177914
-206807
-183317
-199143
-175853
-205996
-182806
-164733
-164212
-172504
-169769
-165510
-164205
-171800
-141514
-138870
-147274
-144466
-141697
-138224
-146972
-109718
-130628
-116250
-123825
-110056
-130681
-116406
-92282.7
-111552
-97528.1
-105527
-92292.9
-111624
-97472.4
-76880.9
-92863.7
-80243.8
-88269.6
-76621
-92710.6
-79963.1
-258032
-300680
-259675
-296330
-256947
-300707
-259458
-216272
-247660
-217841
-245193
-215551
-247381
-218103
-184093
-209525
-187364
-206873
-184088
-209963
-188534
-159110
-180985
-164135
-177191
-158976
-181572
-164122
-137848
-158943
-143960
-153345
-137800
-158617
-143632
-118410
-138897
-124712
-132676
-118448
-138424
-124377
-99600.2
-120201
-105892
-113623
-99529.3
-119794
-105785
-81633
-101042
-86629.3
-94659.8
-81524.3
-101018
-86539.9
-182423
-221371
-203322
-203648
-182378
-221236
-202766
-158754
-196588
-177223
-175377
-158386
-195888
-176636
-136798
-170877
-153012
-152853
-137717
-170367
-152779
-119788
-147235
-131898
-132459
-120139
-147081
-131881
-104971
-127197
-114604
-116039
-105376
-127193
-114590
-92153.4
-110513
-99548.5
-101573
-92179.7
-110517
-99593.4
-80862
-96078.2
-86273.8
-89131.8
-80566.9
-96075.4
-86147.1
-68720.5
-82843.1
-72517.5
-77346.6
-68247.3
-82653.8
-72385.8
-210642
-260936
-235250
-229758
-209851
-258951
-232570
-183522
-226391
-201624
-202816
-182704
-223796
-199585
-158244
-193816
-171868
-176180
-157709
-191981
-170817
-135963
-164684
-146771
-151858
-135793
-164264
-146382
-117488
-141182
-126773
-130894
-117516
-140952
-125984
-101749
-121709
-108087
-113351
-101851
-121453
-108347
-87653.3
-103719
-91152.4
-98199.4
-87636
-104063
-91480.7
-73560
-87232
-75631.1
-84085.8
-73629.9
-87441
-75593
-243119
-294069
-255062
-270212
-239674
-292904
-253434
-206560
-243546
-214300
-230129
-204311
-241987
-213133
-175322
-205658
-182615
-196323
-174324
-204627
-182040
-149812
-175696
-157040
-167567
-149361
-175185
-156814
-129620
-151390
-135684
-143794
-128609
-151221
-135778
-110145
-130704
-116469
-123936
-110454
-130821
-116724
-92351.3
-111670
-97527.9
-105999
-92804.7
-111951
-97879.5
-76476.3
-92768.4
-79845.6
-88581.9
-76506.5
-93181.7
-80107.9
-256562
-301188
-259914
-295523
-255639
-301441
-260959
-215316
-247438
-218183
-243834
-214610
-246935
-217977
-184057
-210086
-188844
-206098
-183822
-209826
-189389
-158916
-181693
-164091
-176888
-158750
-181663
-163843
-137794
-158549
-143565
-153134
-137869
-158255
-143588
-118472
-138317
-124262
-132753
-118587
-138001
-123881
-99550.3
-119645
-105745
-113752
-99747.5
-119116
-105602
-81507.1
-101015
-86489.6
-94937.9
-81868.7
-100796
-86631.1
-182378
-221565
-202662
-203537
-182523
-222207
-202545
-158245
-195737
-176498
-175021
-158254
-195522
-176272
-137902
-170244
-152713
-152822
-138385
-170031
-152573
-120165
-147030
-131870
-132709
-120300
-146903
-131843
-105501
-127182
-114609
-116089
-105882
-127162
-114668
-92239.4
-110541
-99622.2
-101578
-92485
-110610
-99760.6
-80472.5
-96075.1
-86097.1
-89034.4
-80616.6
-96153.5
-86040.4
-67785.9
-82565.8
-72158.1
-76747.5
-67715.6
-82421.2
-72324.4
-209706
-258899
-231989
-230202
-209565
-258870
-231370
-182517
-223199
-199147
-202395
-182210
-222489
-198479
-157575
-191583
-170559
-175691
-157320
-190928
-170085
-135745
-164064
-146281
-151499
-135652
-163677
-146108
-117542
-140884
-126002
-130804
-117599
-140767
-126030
-101902
-121463
-108463
-113469
-102071
-121518
-108717
-87617
-104214
-91642
-98377.1
-87620.4
-104538
-91948.9
-73311
-87568.4
-75470.4
-83949.1
-73296.9
-87805.1
-75817
-238862
-292581
-252962
-270276
-238072
-291845
-252513
-203809
-241537
-212811
-228457
-203084
-241071
-212373
-174065
-204342
-181871
-195160
-173582
-203925
-181543
-149280
-175031
-156753
-167009
-149112
-174712
-156621
-128614
-151189
-135841
-143641
-128638
-151102
-135921
-110578
-130881
-116833
-123995
-110827
-131002
-117037
-93015.6
-112080
-98030.3
-106497
-93411.8
-112270
-98239.3
-76412.6
-93333.3
-80096.3
-89106.4
-76682.5
-93541.2
-80602.5
-255424
-301778
-261274
-295420
-255301
-301653
-261455
-214386
-246915
-217965
-243437
-214176
-247350
-218332
-183750
-209708
-189581
-205697
-183586
-209732
-189801
-158695
-181565
-163801
-176603
-158593
-181563
-163966
-137929
-158160
-143673
-153017
-138011
-157994
-143823
-118676
-137933
-123835
-132909
-118856
-137768
-123915
-99835.5
-118952
-105579
-113899
-99946.4
-118576
-105637
-81839.2
-100660
-86536.1
-95108.9
-82106.7
-100246
-86991.8
-145897
-141571
-140498
-136175
-146190
-141482
-140292
-156214
-163079
-161061
-166518
-156767
-162310
-160043
-150210
-144586
-154543
-147469
-150570
-144373
-154335
-151497
-152698
-146817
-157215
-146966
-157543
-151213
-145651
-136098
-141263
-139967
-141376
-140129
-145433
-155767
-165946
-161407
-159191
-161757
-159689
-155375
-149857
-147353
-143739
-153145
-144138
-154047
-149412
-125441
-121859
-120727
-117555
-125406
-121821
-120764
-133728
-138862
-136088
-141200
-133596
-138804
-135160
-128914
-123813
-130803
-125770
-128607
-123995
-130235
-130086
-131071
-126328
-134852
-126351
-134995
-129966
-125405
-117517
-121785
-120684
-121796
-120752
-125304
-133633
-141157
-138339
-135645
-138684
-135141
-133293
-128819
-125756
-123829
-130699
-123976
-130176
-128500
-158642
-157760
-153124
-150732
-159202
-157506
-152728
-167352
-174656
-169695
-176211
-167681
-174322
-169594
-160995
-155278
-163337
-157321
-161241
-155114
-163251
-164367
-169080
-162331
-171187
-163985
-171370
-164379
-158345
-150706
-156184
-152396
-157465
-152495
-158277
-167105
-176049
-173792
-169308
-174029
-169457
-166965
-160806
-157234
-154825
-163020
-154960
-163137
-160666
-136466
-133385
-131517
-128510
-136513
-132477
-131572
-144119
-149580
-146216
-151617
-144161
-149477
-146180
-138891
-133626
-140862
-135672
-138856
-133679
-140836
-141407
-144498
-138285
-146721
-138287
-146798
-141334
-136399
-128252
-133066
-131499
-132472
-131564
-136322
-144040
-151549
-149229
-146073
-149355
-146130
-143924
-138851
-135666
-133634
-140778
-133687
-140805
-138739
-157891
-183089
-173288
-174717
-157828
-183196
-173265
-141518
-163567
-153187
-148480
-141447
-163234
-152972
-125127
-141219
-130999
-131950
-125072
-141171
-130795
-110347
-121394
-114608
-116145
-110413
-121280
-114543
-96283.9
-106985
-100131
-101816
-96275.8
-107140
-100094
-83888.8
-94380.1
-89388
-88888
-84132.9
-94500.3
-89459.2
-73980.6
-83858.4
-78484.5
-78665.9
-74264.2
-83866.1
-78386.2
-65388.2
-72955.1
-67204.2
-69048
-65474.6
-73075.6
-67296.1
-214936
-245884
-235358
-224887
-215719
-245043
-233921
-203410
-194234
-207241
-200113
-194109
-207024
-203699
-182255
-175916
-189473
-180292
-175693
-189240
-182435
-152362
-146995
-160318
-154050
-146988
-160276
-152304
-129347
-125622
-133701
-128849
-125652
-133829
-129284
-113737
-110720
-117328
-113824
-110687
-117407
-113776
-101986
-98498
-104622
-100810
-98517.2
-104639
-102008
-89304.6
-87045.6
-92631.8
-89814.2
-86910
-92575.9
-89360.3
-76478.6
-74896.9
-79629.6
-77623.8
-74993
-79635.3
-76478.8
-60129.1
-67658
-61830.2
-64738.2
-60138.8
-67541.7
-61815.5
-254594
-289328
-276949
-268357
-254199
-288898
-277081
-237519
-229810
-244219
-237358
-229688
-244276
-237506
-206256
-200314
-213533
-207660
-200351
-213671
-206192
-181425
-174381
-187129
-180066
-174238
-187073
-181506
-155332
-148063
-162733
-154720
-148057
-162394
-155596
-130465
-125916
-136008
-130721
-126059
-135948
-130487
-112029
-110090
-116394
-113904
-110037
-116339
-112062
-96170.2
-94960.4
-99984.5
-98652.1
-94924.1
-99967
-96186
-81824.5
-80783.8
-85286.8
-84185.5
-80798.3
-85296.1
-81817.2
-63131.2
-71090.4
-64536.1
-69401.7
-63123.4
-70963.5
-64485
-303685
-333675
-320761
-317130
-304024