/*--------------------------------*- C++ -*----------------------------------*\
  =========                 |
  \\      /  F ield         | OpenFOAM: The Open Source CFD Toolbox
   \\    /   O peration     | Website:  https://openfoam.org
    \\  /    A nd           | Version:  10
     \\/     M anipulation  |
\*---------------------------------------------------------------------------*/
FoamFile
{
    format      ascii;
    class       surfaceScalarField;
    location    "3.1";
    object      phi;
}
// * * * * * * * * * * * * * * * * * * * * * * * * * * * * * * * * * * * * * //

dimensions      [0 3 -1 0 0 0 0];

internalField   nonuniform List<scalar> 
38556
(
1911.35
321.98
110.394
1590.26
-110.619
431.712
1007.1
97.8712
485.284
859.55
77.4395
70.1142
724.906
17.3094
117.335
719.88
-117.527
122.552
724.538
-220.669
216.012
762.049
-200.316
162.804
804.497
-176.576
134.128
854.53
-154.744
104.711
901.983
-133.069
85.6156
951.745
-108.879
59.1174
995.578
-93.0867
49.253
1042.55
-73.4338
26.462
1086.61
-61.0323
16.9688
1128.16
-50.3769
8.83574
1177.77
-49.8925
0.281288
1229.1
-47.5964
-3.73496
1293.13
-49.7122
-14.3152
-27.9908
-9.87696
1536.04
-6.75532
1137.38
2190.04
-416.809
-347.815
2299.25
92.0728
-103.416
2603.54
154.205
-381.047
2185.58
281.808
153.462
1527.08
172.67
368.299
899.346
-25.3733
432.44
724.43
-139.311
113.91
706.022
-190.726
32.5587
718.13
-175.749
8.89691
741.256
-159.955
3.76072
763.122
-125.555
-5.19037
783.324
-105.888
-7.39986
805.608
-78.3943
-17.3234
829.523
-66.5067
-18.4412
853.365
-49.9599
-24.2592
878.132
-46.9944
-27.6649
898.995
-38.9588
-29.5009
916.959
-40.0261
-27.6499
-29.1574
-6.2134
264.115
47.8082
-648.417
791.648
-442.794
-501.547
1277.32
-137.068
-256.533
1537.73
85.3062
-191.507
1192.26
209.541
417.736
967.864
146.695
250.369
819.538
-40.9037
163.856
799.338
-162.261
43.1501
789.902
-225.159
43.8701
779.015
-200.694
35.8314
764.643
-182.088
36.5053
757.715
-140.878
22.2498
755.455
-115.881
12.2532
758.568
-92.1782
10.6702
765.281
-86.2922
13.0733
775.795
-76.2449
15.7708
786.407
-75.3327
17.7257
797.824
-70.1489
19.7732
806.859
-64.7352
15.6742
-39.5344
11.0901
1687.6
-744.682
-1411.28
1237.1
-645.368
653.071
977.313
-28.5171
151.239
903.748
221.672
-62.8012
775.346
221.23
116.713
831.308
109.083
-18.3488
872.833
-129.382
46.9526
900.169
-181.287
-8.30974
887.038
-246.621
34.5925
865.988
-209.388
29.7451
827.759
-189.202
45.3439
792.059
-138.338
33.1606
758.547
-114.448
32.078
734.283
-86.2452
18.3314
722.716
-87.2015
12.4758
718.192
-82.3112
10.5905
719.21
-86.1262
9.77606
725.46
-85.6678
9.26867
737.175
-84.1541
7.70431
-53.9206
10.4726
4913.27
-267.504
430.57
3928.42
-252.406
591.881
2208.33
621.945
1069.63
1586.21
532.965
310.826
1260.02
328.997
218.422
1154.58
178.351
36.169
1035.12
-108.988
99.0703
985.713
-168.865
36.9847
938.165
-236.296
37.2233
908.19
-192.686
13.2732
865.555
-169.371
22.8032
823.193
-110.456
14.4794
772.61
-87.7908
23.9268
734.381
-62.4318
14.4154
710.314
-73.4028
10.2685
696.901
-75.6121
6.71384
694.052
-86.5118
3.23404
698.711
-91.7487
1.42242
710.667
-92.5707
-3.53948
-57.5002
-0.445418
2401.57
716.05
-2524.84
2110.31
933.286
-894.439
1635.19
1108.71
-11.6435
1398.28
813.851
-43.9782
1071.24
570.08
85.9584
937.525
363.558
-51.4928
874.996
-98.858
52.3996
822.846
-122.87
6.15433
791.99
-229.644
24.2045
774.695
-168.137
-7.25444
766.915
-155.046
-6.54449
755.981
-89.2486
-10.2728
730.072
-65.8567
3.97429
697.922
-40.5367
10.2548
670.347
-51.016
5.1886
660.475
-66.2166
0.476339
662.608
-87.5869
-1.05812
672.033
-98.1168
-3.05612
684.795
-99.3423
-5.99081
-60.2863
-0.0714962
-479.144
-360.347
1110.66
476.077
540.427
-562.363
942.959
596.563
45.2695
1245.55
571.269
-60.0067
1280.83
385.906
148.895
1214.19
361.125
69.0661
1030.5
7.84783
136.031
-31.1712
6.5074
-34.3831
893.054
-18.1784
93.0274
-20.7394
-19.6869
-19.8416
785.454
-32.1827
56.1829
-60.1023
-30.4773
-55.4647
740.316
-38.3722
12.0264
-36.2601
-32.0461
-28.3474
696.632
-25.7944
1.34766
-35.7863
-20.3281
-30.8002
669.252
-15.744
-5.0113
-13.8307
-14.6907
-12.5925
648.237
-5.22173
-3.71874
-14.5455
-6.02093
-15.3342
644.088
-5.49828
-2.26192
-10.4342
-6.41492
-11.7787
648.107
-53.9743
-1.06043
659.633
-72.9232
-4.81924
673.833
-99.9915
-1.79595
683.78
-108.173
0.109488
693.25
-107.975
-0.837072
-64.0008
4.24497
745.359
869.563
2285.19
1135.9
256.807
-106.917
1313.49
550.526
-131.553
1398.35
374.648
111.754
1302.03
194.93
287.295
300.357
40.308
232.895
305.887
294.836
299.06
63.5549
51.9738
74.2868
258.2
36.1154
13.8887
-220.824
203.908
-14.3536
13.0913
-195.267
188.032
-29.5733
4.62539
-176.44
181.068
-45.037
2.03706
-181.746
181.675
-28.6074
2.88399
-171.678
166.737
-16.1084
5.30488
-157.907
154.74
-2.27709
0.222647
-150.431
154.543
-7.27913
-2.3316
656.644
-11.8207
-18.0966
-155.527
-159.352
-150.925
-153.48
-23.712
-12.9701
-24.7343
693.999
-96.6534
-13.6251
710.198
-111.804
-4.38668
712.924
-112.883
1.98506
708.775
-105.655
1.8277
-53.8189
-0.458971
-319.245
1277.04
5831.33
-80.6608
721.72
-703.497
379.116
336.367
-245.617
483.144
196.415
74.2051
143.023
9.42328
94.1355
150.245
141.367
139.881
195.126
-11.8083
0.0138023
-9.70563
-56.8181
59.9396
2.54463
4.03948
-62.8298
3.83286
63.8974
-7.04018
2.13973
-63.3166
6.5775
63.2626
-7.40862
0.885082
-59.017
7.55471
58.3394
-6.35094
-0.526172
-53.2971
7.00309
52.8002
-7.56275
1.05663
-47.526
1.81331
46.3056
-2.28901
1.69606
-40.3461
-2.39256
40.1419
2.95522
-0.358434
-39.1509
-0.280667
40.1791
0.0641264
-0.811672
-41.8614
175.815
-13.4059
-5.07247
-43.1498
-41.6616
-42.4841
760.774
-114.336
-21.1471
-178.522
-188.505
-173.118
-181.8
773.653
-116.425
-8.2571
769.698
-110.676
1.74734
742.607
-87.6763
9.11239
-22.7572
-2.01171
3021.02
2174.83
-1997.7
2448.84
1845.28
-551.378
1515.28
985.626
284.308
1158.95
484.051
68.6942
218.872
175.708
112.811
209.548
227.935
223.496
30.31
224.762
-20.7944
-15.4056
8.72887
-57.3904
59.5431
-10.7504
-0.131182
13.9444
-59.8478
58.294
-12.403
0.0123452
7.7775
-52.3231
52.696
-7.59484
-0.555587
4.58287
-57.3078
57.9946
-4.706
-0.563645
4.1726
-55.5347
53.7747
-3.01548
0.602858
-1.36208
-50.686
49.6872
2.55463
-0.19378
-5.91613
-45.9202
45.0941
6.77839
-0.0361487
-0.545566
-45.6113
46.2835
0.907288
-1.03384
-48.2644
14.9773
197.662
-15.5126
-3.75185
-48.9536
-47.6511
-48.5057
789.382
-110.429
-12.1775
-199.546
-199.318
-191.756
-190.492
787.518
-103.152
-11.4083
780.948
-87.2122
-16.894
744.733
-41.9484
-9.51286
26.9181
-9.76474
417.834
1847.61
338.694
338.992
1198.33
725.789
304.074
711.325
309.219
333.28
343.849
110.995
66.2327
-1.57939
141.23
113.902
71.0979
118.105
-7.48882
81.2153
0.278516
-7.77232
4.36434
-17.8664
18.6576
-6.8579
1.70238
8.38428
-26.0494
29.6177
-11.6158
-0.336822
10.9801
-38.5821
41.3071
-12.6269
-1.0782
13.2783
-47.8889
48.6799
-15.0753
1.00605
6.22369
-46.7398
45.3385
-7.56027
2.73784
-2.03848
-43.5745
44.5169
0.485501
0.610538
-6.0933
-47.398
48.1346
4.96684
0.389806
-0.0378438
-50.0428
50.1964
-0.816997
0.701318
-49.7473
17.4325
191.277
-19.0642
4.71433
-48.6081
-48.8258
-47.1788
643.124
-88.4299
10.2766
-180.13
-163.736
-174.475
-157.058
628.838
-73.0943
-15.773
636.612
-53.6537
-41.3323
637.606
-5.06091
-37.8811
66.5313
-23.1146
162.949
1726.93
-1695.77
-22.1073
833.049
550.336
519.655
109.687
59.877
743.045
-41.829
162.288
184.843
-276.265
208.835
211.575
194.729
217.749
19.8467
206.496
-46.1494
4.64953
16.0113
-55.8625
57.7009
-17.1801
-0.669531
17.3654
-59.1047
58.5152
-16.4005
-0.375525
13.189
-54.9445
53.5236
-12.7782
1.01019
15.0969
-48.3658
46.9619
-14.0102
0.317228
6.52024
-42.8088
41.6086
-5.8149
0.494799
2.52193
-38.905
38.7909
-3.04191
0.634093
1.80112
-39.1309
39.4175
-2.81039
0.722635
3.27876
-39.1762
38.9707
-3.41609
0.342843
-38.1246
19.3058
148.354
-21.0493
2.02244
-36.5723
-37.9124
-36.0234
531.657
-71.0081
0.288498
-143.164
-135.601
-139.618
-130.984
528.736
-53.4962
-16.6767
546.894
-40.6107
-31.2013
574.541
-2.19933
-30.5081
72.0894
-16.9131
614.616
621.818
-3256.65
606.208
381.125
460.332
955.823
-410.254
170.325
1239.37
-435.537
110.165
1296.42
-558.55
225.232
330.042
-563.824
138.738
88.3386
121.574
92.0548
119.753
326.874
321.436
321.433
28.4192
315.466
-98.4707
12.1034
21.6412
28.1084
22.7742
17.6268
-285.857
264.388
-50.0389
6.12306
14.1711
18.7153
14.8714
12.5925
-249.834
227.149
-32.4042
11.6433
9.71296
11.9921
9.14913
8.92758
-190.597
158.666
-17.9993
17.8541
7.28507
8.67313
7.19046
5.41452
-143.72
134.773
-15.6464
5.64453
4.29906
5.17955
4.05646
3.99066
-129.083
127.697
-13.5159
0.969508
3.14968
3.80124
2.99129
4.06904
-131.092
133.206
-16.2163
-0.443939
3.33563
3.91364
3.22794
4.82536
-134.516
136.058
-19.3569
0.269067
4.00882
4.70039
4.01072
512.295
-72.6605
5.97127
22.83
13.643
21.0583
13.591
-135.393
-128.928
-128.666
-123.74
510.033
-75.4625
6.71574
509.308
-54.3026
1.53183
515.241
-42.5958
-3.94784
542.257
-10.0261
-19.1896
52.6699
-6.37068
1498.95
-1045.61
1070.75
1327.07
174.793
378.211
1197.95
-211.848
-69.2879
1322.17
-336.599
-223.157
1254.08
-442.288
-48.1717
1164.29
-444.866
-29.1658
1023.8
-212.201
105.191
82.9371
36.9634
87.3297
40.2657
910.333
-181.567
137.677
40.3617
37.4952
42.1681
37.3316
748.577
1.98346
122.797
20.3451
-0.336407
19.299
-2.33194
642.873
-34.1013
72.2972
16.2606
18.0739
15.6712
17.5022
579.224
-9.57638
36.5843
15.417
4.15971
14.0869
2.97683
552.687
-55.3279
12.3421
18.2183
17.2904
17.503
16.5116
539.357
-55.453
4.83394
20.1887
13.0337
18.9647
11.7623
532.294
-76.5778
5.82063
23.6792
16.0391
22.4524
15.6489
528.077
-74.3566
5.91353
519.381
-74.8682
8.10136
511.66
-54.8251
8.24389
504.291
-41.7395
6.51251
519.938
-19.1191
-6.55429
21.8753
8.8856
1315.45
-292.342
3639.94
1207.28
230.071
52.8938
1192.1
-123.566
-73.1022
1338.07
-335.879
-146.693
1265.53
-322.736
-47.0132
1228.3
-248.258
-159.374
1166.81
-85.8992
-64.8185
1075.44
-73.5504
-16.6401
889.17
91.646
96.6059
718.852
61.1321
75.0847
620.381
60.155
28.7396
573.755
-7.47675
-1.22483
556.355
-35.3739
-2.67904
541.617
-59.0752
-2.76543
533.729
-66.0632
-0.405015
520.706
-66.0124
4.16694
509.086
-47.1161
3.91141
497.428
-34.9608
4.87856
495.919
-23.7015
6.09215
-2.52514
17.2519
1597.4
1120.2
-4005
2108.28
566.294
-847.096
1838.36
406.679
-260.328
1483.69
58.6983
-39.9078
973.109
52.7143
135.132
775.672
-26.9581
-23.8625
648.738
91.8892
-50.854
594.252
69.2302
-88.2944
574.264
123.57
-11.9364
573.694
80.6311
-18.9288
581.273
64.2918
-11.7162
587.123
15.4215
-28.748
587.629
-20.3061
-15.5742
575.935
-37.6131
-9.7681
558.219
-51.3843
3.03733
540.728
-53.1363
4.61428
531.782
-42.5475
4.37842
525.016
-30.4695
2.27396
521.741
-25.8572
5.43141
-15.0736
11.6884
2854.05
1224.88
-3905.18
3037.15
675.122
-291.927
2447.58
855.686
140.558
1602.14
531.66
372.484
735.992
465.281
453.576
484.727
180.157
44.1509
457.19
148.321
-28.8947
462.717
98.5534
-34.8497
521.788
91.6477
-27.1487
565.197
61.6396
-24.417
612.919
34.2011
-17.6311
655.876
-14.8492
-12.6865
680.637
-32.7268
-12.3405
678.355
-38.5714
3.24025
637.806
-34.5675
23.7324
588.482
-21.7655
17.9528
557.65
-14.3281
2.61303
540.684
-7.43925
-6.06485
530.695
-9.24891
-6.61878
-7.82588
-3.45742
985.318
-245.223
1555.58
1916.74
953.645
-1209.95
1489.92
1354.77
-72.2578
949.106
881.88
190.591
643.277
664.126
106.984
550.874
324.815
-52.2558
560.206
168.119
-29.1305
591.863
115.455
-48.5593
646.184
61.4881
-24.1608
696.216
34.7385
-23.1312
741.287
-8.39854
-2.47151
776.288
-35.5497
-14.2998
797.903
-48.3597
-5.9822
796.161
-36.5823
-0.247924
756.872
-10.0777
14.7991
697.413
22.0964
15.5977
651.865
27.5212
3.69875
624.497
29.5887
-9.65974
611.872
18.2348
-14.8592
8.37773
-12.1914
-604.585
997.599
-3902.04
-234.09
1079.83
-496.68
445.634
961.226
-286.18
564.141
677.221
86.1529
724.69
433.87
69.7072
738.106
299.687
11.7128
702.987
180.346
22.8921
672.535
163.474
-17.5674
656.716
108.647
-31.3399
657.217
93.7395
-59.5012
677.085
35.6693
-63.9363
715.102
-9.14197
-64.4245
752.523
-39.9814
-45.7999
778.853
-29.713
-33.1994
785.431
-5.92278
-10.7328
776.713
23.7951
7.01948
757.885
37.856
8.49338
735.556
45.5867
6.33069
710.677
44.0742
-0.959936
35.2881
-10.1886
-782.951
-602.485
-150.442
447.322
570.501
240.283
863.827
383.895
1058.7
238.999
1186.72
171.663
1243.49
123.574
1301.96
105.006
1308.88
101.732
1307.49
95.1244
1255.94
87.2179
1180.57
66.2333
1112.4
28.1904
1072.76
9.92422
1056.86
9.97277
1059.26
21.3948
1074.37
22.7533
1091.91
28.0448
1107.19
28.7924
29.8211
1362.02
-169.849
2034.62
1520.52
-32.5898
305.804
1312.07
34.3185
659.417
1116.45
39.3773
226.354
735.27
77.6742
420.843
675.201
-98.9749
281.596
701.659
-142.506
332.06
755.13
-117.848
227.182
805.971
-99.0028
182.289
860.483
-84.6655
134.864
909.486
-71.3046
107.918
958.182
-60.3585
70.7793
998.836
-50.2434
58.843
1040.59
-42.2153
26.9237
1077.14
-36.2108
16.632
1110.83
-29.5251
4.67062
1149.49
-25.7625
-12.6152
1181.28
-16.6785
-18.8518
1200.88
-11.1416
-22.7718
-6.80249
-9.582
1655.11
-958.645
3233.12
1182.66
228.051
-136.006
994.118
369.103
-249.663
1017.58
178.562
-543.696
826.15
157.446
265.122
682.726
38.8961
373.852
620.036
-44.7283
397.351
610.967
-77.8744
83.0056
627.596
-107.874
24.8007
649.995
-92.0768
-6.09044
677.27
-87.2849
-7.53422
699.699
-67.6947
-20.2835
721.666
-57.0982
-22.5119
739.89
-44.7199
-33.0431
756.44
-39.1661
-32.0358
772.157
-31.6163
-37.8844
786.787
-30.5558
-37.5019
798.986
-25.8371
-32.5417
808.214
-24.1731
-23.8462
-13.7448
-2.45967
12.3718
90.8695
-1670.38
430.134
-100.452
-590.807
535.318
27.1199
-19.7336
555.351
19.1445
-52.1224
550.297
53.5151
526.72
566.242
45.9463
227.374
587.426
-81.7732
179.718
607.221
-103.795
49.2753
624.997
-140.499
58.7189
635.457
-104.78
38.0749
644.66
-98.2858
38.3031
650.312
-70.0089
18.9116
657.698
-64.0682
11.8371
666.257
-50.8243
8.21573
676.21
-47.8219
11.7764
686.995
-39.6582
13.027
696.408
-37.8396
15.5971
703.884
-31.4873
17.9468
704.603
-23.2613
14.0435
-7.33932
10.3438
191.228
398.317
-3247.64
416.79
109.625
217.431
502.286
83.0677
9.79447
453.534
103.871
-98.7751
509.959
42.4148
71.3875
567.202
-11.7686
-17.8765
623.186
-143.491
52.6861
642.012
-122.661
-8.2695
653.63
-162.639
45.1142
650.791
-102.672
30.4767
644.304
-96.8862
50.431
633.719
-58.3209
32.0579
627.925
-57.6105
31.4145
623.584
-44.4581
16.3058
622.93
-46.6964
12.0047
625.894
-41.3163
9.28416
630.056
-41.7643
9.53967
635.601
-36.3396
8.57554
638.93
-26.1696
7.28344
-3.68422
9.98415
2581.39
-150.271
-157.555
1955.8
185.546
1141.55
1161.85
591.677
1354.97
966.2
330.263
280.088
784.158
158.285
284.594
744.495
34.6525
29.4109
714.68
-146.255
131.65
712.403
-122.576
39.1778
697.746
-159.672
48.9136
684.431
-90.2513
14.1671
663.289
-78.8914
25.9504
642.749
-42.51
19.2089
623.781
-40.4258
25.7102
610.414
-32.791
16.1159
602.259
-39.5809
11.3079
600.177
-38.9068
6.38635
601.828
-44.6325
4.45078
607.316
-42.1607
1.75549
611.608
-31.4877
-2.5136
-1.47848
0.400499
1577.12
-52.6596
-3128.33
1179.15
314.782
-625.704
967.406
704.281
87.4934
879.664
431.423
-57.3965
735.764
259.421
128.723
654
113.67
-48.7462
646.35
-148.408
62.2029
609.062
-87.419
8.28469
599.855
-154.104
27.8438
589.058
-79.576
-7.13319
584.789
-80.8502
-0.316342
579.209
-43.671
-3.5312
573.227
-40.6023
10.1323
567.794
-29.9024
12.7991
562.498
-35.9132
6.81739
563.375
-42.1233
2.81525
569.218
-52.7885
1.25525
577.567
-52.3964
-1.16902
584.05
-40.7505
-3.21132
-2.11655
1.80448
-980.283
-418.342
1174.19
-107.181
-215.544
-905.138
639.004
-25.4311
28.7958
855.726
192.975
-38.2804
888.381
136.885
238.776
788.806
205.206
77.1051
695.23
-2.49027
174.761
-41.8051
-4.34688
-44.9203
636.305
-15.2934
118.008
-14.6884
-13.3774
-10.1146
593.101
-22.7288
74.5161
-44.8155
-20.572
-41.1174
572.608
-21.2411
24.7054
-17.4732
-18.6516
-14.3966
554.171
-15.9996
12.7922
-23.1267
-13.244
-21.4869
543.499
-8.2818
-5.80054
-8.81263
-6.70817
-8.40663
539.672
-4.44875
-3.58626
-13.9002
-4.58805
-13.9715
544.905
-5.81564
-3.48588
-11.4385
-5.78126
-10.876
553.902
-48.4733
2.50316
564.476
-56.6523
-0.864138
574.257
-67.0087
2.64287
581.185
-63.9505
4.73584
586.162
-48.8732
2.30879
-1.30648
6.27784
2000
361.769
-229.75
1888.23
-11.0452
-199.649
1316.12
179.217
235.907
1140.12
218.234
262.506
996.553
164.044
403.698
220.697
70.0986
236.279
226.473
203.043
207.647
89.9885
79.7447
100.683
-29.8746
187.611
32.5077
27.9631
-26.7305
-158.309
154.863
-14.4814
29.3642
-9.08644
-152.009
149.016
-23.8205
13.1706
-3.21347
-139.419
143.551
-28.5119
6.35178
-4.33113
-143.001
142.799
-16.7847
5.31773
-2.68636
-136.078
137.735
-9.24587
1.99354
1.72514
-135.231
136.912
-5.17098
-2.68457
3.77232
-134.616
139.555
-10.2075
-4.32021
575.932
-12.8365
-14.7787
-140.084
-143.139
-134.172
-137.395
-24.2697
-12.8206
-23.0049
593.81
-81.4249
-6.73082
597.63
-79.5725
4.35756
595.908
-70.3275
10.0838
587.876
-42.9535
3.93986
9.9325
0.470874
1677.49
642.513
-941.117
416.409
429.106
117.431
124.682
165.398
59.9296
139.447
161.5
116.174
87.2148
19.1585
86.4749
77.9471
70.8038
56.0279
-4.87045
137.815
25.1855
-0.816892
-11.8745
-14.0495
-44.666
47.9696
11.4272
11.1932
-6.37155
-52.0947
2.21121
53.6973
-4.35389
6.91154
-5.16848
-54.4615
5.95661
53.8558
-6.38835
6.20588
-2.52676
-46.8769
5.84391
45.7672
-5.69894
3.49146
-2.75967
-41.8903
3.88216
41.6279
-4.07765
3.21755
-2.38305
-38.4823
0.506103
38.4564
-0.323582
2.22646
1.25491
-36.4262
0.0369265
36.8066
-0.127344
-1.54485
2.04575
-36.6062
1.99281
37.4313
-2.51083
-2.35283
-38.4293
7.48761
159.317
-17.4703
-8.16856
-39.2377
-37.7715
-38.5639
649.791
-101.276
-12.1271
-159.779
-168.092
-152.182
-158.906
642.504
-84.7795
4.23711
624.347
-59.5754
9.15199
592.804
-15.3514
13.0538
34.3736
0.625082
1230.29
1482.56
-2961.37
787.559
868.147
-547.689
641.983
581.432
13.8499
529.82
323.052
19.3064
133.785
71.8266
120.191
127.151
107.315
101.521
18.3573
4.29834
149.504
-8.86873
-29.506
1.59708
2.64915
-42.1634
46.2383
-5.29722
-3.02395
-1.1032
8.80844
-50.5014
50.7766
-9.33139
1.35096
-1.43428
6.18029
-48.8508
48.2239
-6.17373
2.05459
-1.11528
3.48072
-47.2872
46.7183
-3.70319
1.90663
-1.81351
2.10843
-44.4528
43.9189
-1.77576
2.01475
-0.673127
-2.36641
-42.334
42.0578
2.53498
0.78072
0.872175
-0.934091
-41.7619
41.8619
1.17199
-1.21015
2.15116
2.89112
-42.7267
43.1403
-3.0184
-2.43751
-44.3528
4.9736
21.8388
178.428
-22.5433
-5.60873
-45.0778
-43.4984
-44.1589
675.442
-93.4466
-12.3619
-176.502
-174.886
-166.943
-164.757
655.245
-64.4552
-11.5358
622.066
-29.3482
-13.9421
577.576
26.8028
-7.1772
64.2713
-5.84962
-690.212
1143.96
137.084
-481.371
636.026
749.069
-113.174
497.094
25.3589
-65.0783
217.813
168.137
29.3831
-75.1371
47.9841
73.4445
17.5906
54.713
10.9692
-2.39511
51.4843
-11.8285
-18.8467
-3.28671
4.92413
-18.1579
21.6363
-7.63558
2.51972
-2.03458
8.69517
-28.6001
30.45
-11.0893
2.57882
-0.356643
8.62892
-34.1637
35.1966
-10.4037
1.09853
-4.59495
7.03544
-37.9477
38.5271
-8.28161
5.26169
-5.30921
3.14321
-39.4304
39.6958
-3.4986
5.39919
-1.65184
-0.417851
-40.6491
41.2373
-0.162977
1.64454
-1.68529
0.196669
-43.405
43.9639
-0.733137
1.66283
-1.08092
3.21774
-44.7099
44.7051
-3.19555
1.06349
-43.7138
-5.52572
21.8128
167.283
-19.7675
5.34734
-41.9348
-42.5565
-40.9453
575.769
-64.4196
1.61281
-160.684
-145.252
-151.045
-139.151
561.371
-36.1101
-29.7207
544.539
-13.7747
-40.074
521.035
48.1512
-35.7252
78.0083
-17.7835
-335.327
-151.742
-736.711
-215.816
665.473
401.378
228.446
241.755
-129.047
369.325
137.381
101.842
130.995
-201.951
171.902
158.868
105.649
137.56
-9.62427
35.6051
161.089
-57.5806
1.50625
-2.9562
17.6896
-46.7403
49.4864
-20.3687
2.88924
-3.75286
17.5767
-49.6238
48.4745
-17.7208
5.04618
-5.08831
13.1142
-44.686
43.3526
-12.8323
6.13978
-3.61572
9.52855
-39.0506
37.9247
-9.0939
4.30704
-2.30523
3.56649
-35.4978
35.2449
-3.70335
2.69496
-1.82161
1.25022
-34.8854
35.1434
-1.65045
1.96386
-1.51257
1.80917
-35.7004
35.9601
-2.13338
1.57701
-0.884004
3.12182
-35.8674
35.791
-3.13246
0.971087
-34.8251
-2.89722
16.9908
134.037
-16.9845
3.24543
-33.0123
-34.1321
-32.4215
475.188
-46.2533
-4.28714
-130.283
-119.317
-124.877
-114.301
476.094
-27.7793
-25.9136
482.598
-15.8196
-35.6607
488.779
39.9557
-28.4932
71.7709
-12.4705
-278.588
77.0612
-2594.58
-2.88439
479.696
370.406
654.58
-74.502
-170.882
956.847
-94.9624
40.2413
1052.86
-231.854
159.119
262.765
-279.536
103.672
78.3928
100.292
78.4509
101.235
263.307
240.093
242.929
24.5358
-31.3276
245.94
-69.2132
30.3631
19.5868
24.0375
18.8431
16.4895
-22.548
-210.47
179.682
-38.822
35.0307
12.872
15.5834
12.1827
10.2887
-24.9301
-163.977
146.113
-26.4205
33.0144
8.21932
9.7314
7.96093
6.36447
-27.6647
-124.35
112.942
-14.0462
29.8767
5.72999
5.90097
5.24689
3.92698
-10.0902
-112.414
110.92
-13.0545
11.7254
2.78825
3.65442
2.54318
2.98177
-2.12904
-108.581
109.414
-11.8388
2.97001
2.24104
2.82956
2.11289
3.24558
0.37801
-113.305
114.627
-12.8563
-0.430627
2.65027
3.1323
2.55885
3.87646
-0.594234
-115.137
116.152
-15.1635
0.443545
3.37968
3.75793
3.28553
432.624
-50.7241
4.73519
18.0141
11.3669
16.6437
10.1751
-115.967
-108.36
-110.007
-102.53
438.065
-49.7939
4.81586
444.635
-30.3483
-2.46945
455.268
-19.8232
-10.5772
474.811
18.9196
-17.697
52.137
-3.04176
1167.23
249.68
1030.57
923.018
619.45
482.669
892.345
108.275
-221.392
1018.36
-158.831
-285.308
998.042
-235.652
-24.0513
902.022
-192.154
-20.5273
736.123
33.1411
168.771
39.2082
6.79916
30.5679
-7.39667
624.452
-33.1298
178.572
25.2013
29.4131
21.7481
27.5432
520.513
62.2008
155.125
16.4709
-9.20219
14.2509
-12.1103
466.748
-21.9483
87.4167
14.539
16.4415
13.9072
15.7065
440.019
-10.0802
47.5206
12.4862
1.36908
11.5855
0.432325
430.83
-53.8936
16.2736
15.8836
14.557
15.1017
13.6093
429.433
-47.8767
6.73271
16.1383
8.71323
15.0478
7.47565
426.534
-59.3182
3.16139
18.9259
14.6152
17.7289
13.606
427.773
-52.6607
6.61158
427.142
-50.626
9.56435
430.06
-32.9541
7.93156
433.943
-22.715
5.52174
454.759
-2.99741
-5.45377
25.8697
14.3787
1488.06
321.908
5959.34
1531.81
635.316
-6.7201
1191.65
142.597
232.74
1109.42
-185.539
-37.755
895.137
-186.262
117.877
784.642
-148.251
-92.7815
699.175
65.9375
-12.1482
613.803
30.1832
5.41873
560.61
101.059
110.94
501.972
37.8661
73.9087
463.787
24.2647
32.5792
442.318
-33.3006
-0.348189
434.675
-40.5179
-2.39478
429.558
-55.941
-1.02532
429.14
-55.2885
2.64049
426.689
-50.6229
6.61557
425.224
-33.2343
5.65632
424.158
-22.2569
5.48578
432.852
-11.0775
5.47853
6.18553
23.8828
2195.27
117.436
-1991.61
1895.26
477.457
-389.228
1268.23
587.289
-77.9864
893.64
124.949
24.1902
570.788
108.781
162.941
449.003
-20.0439
-30.2842
406.687
77.441
-20.0412
397.58
22.5228
-71.5265
423.286
66.3835
-2.96688
441.319
17.2072
-16.3026
459.991
-0.538713
-5.58519
463.13
-41.6824
-23.5056
462.22
-44.202
-10.9793
458.882
-56.008
-6.36291
453.792
-52.7596
5.59775
448.524
-45.9581
5.21727
446.24
-32.1249
5.55317
443.415
-20.4506
3.29232
445.297
-15.09
7.56235
-4.12942
16.2365
1364.56
-1067
-1873.91
1597.92
-142.216
94.3852
1063.03
721.85
540.89
694.73
366.731
498.997
455.8
335.475
465.812
367.541
90.214
22.1522
375.192
66.5372
-25.6422
385.222
26.0561
-48.4124
442.907
16.9401
-35.3902
476.414
-12.2909
-28.4262
510.379
-36.9746
-15.1611
526.604
-50.6668
-19.9262
534.574
-58.0394
-6.47279
533.189
-57.5592
6.17539
518.956
-39.5689
24.7751
498.005
-25.3192
18.2656
480.992
-15.7748
3.27555
468.528
-8.46587
-5.5856
460.519
-8.30843
-5.39074
-4.61812
-1.11691
2640.62
-1491.11
-2641.11
1387.31
369.581
-468.442
941.841
1056.98
38.0857
614.005
628.972
256.186
528.471
449.968
78.0253
461.596
185.74
-80.9068
491.343
57.6282
-49.9681
520.671
22.0999
-73.9309
570.7
-25.2061
-32.0441
606.537
-30.9256
-40.3331
636.308
-48.0641
-21.1527
653.69
-59.5576
-22.7911
657.028
-60.9523
-6.40722
648.481
-49.9611
0.700579
621.884
-17.3987
19.2261
591.644
3.69891
16.8197
568.781
10.0528
0.73429
551.821
11.0824
-12.2477
542.03
3.97709
-17.3539
-0.327045
-13.3102
-270.626
-161.537
-7192.91
-460.278
775.184
-712.631
322.974
660.745
-673.2
443.845
455.775
138.479
642.253
262.817
58.4508
665.833
186.556
-12.6829
667.179
90.6967
-11.5227
670.32
88.9308
-87.5396
677.86
49.6215
-113.707
687.7
46.0458
-146.312
704.198
1.25
-129.749
725.375
-34.7509
-110.409
739.861
-60.1622
-61.0753
741.857
-52.5711
-32.5861
733.421
-17.8331
-1.862
724.541
8.15609
11.4426
713.861
22.5958
6.62952
702.484
28.2661
0.52415
687.737
28.425
-10.6608
22.1509
-21.3501
-930.404
955.641
-234.068
526.17
554.594
112.365
843.646
550.617
1019.87
325.595
1132.62
245.47
1189.27
157.617
1261.12
122.083
1290.16
122.317
1310.88
120.446
1285.68
113.677
1234.88
82.2811
1168.43
34.4772
1111.87
13.913
1078.96
25.0476
1068.76
39.7487
1074.92
39.1926
1088.72
42.5078
1104.84
41.1012
45.1509
564.357
-31.4819
2452.11
551.919
-284.588
602.83
619.646
-42.9693
634.659
611.341
-22.7575
257.416
543.089
-1.07238
490.168
602.943
-69.5522
291.294
687.669
-54.8686
302.203
758.483
-37.4836
193.851
813.172
-28.2656
155.866
865.751
-26.3081
108.593
909.686
-22.6518
86.6347
950.617
-22.3433
52.1919
983.766
-16.2486
41.9421
1014.75
-15.3814
11.3266
1038.5
-10.7239
3.60555
1055.18
-6.85174
-5.16708
1064.2
-3.17121
-18.4589
1064.86
0.121946
-19.6295
1059.75
-0.196551
-17.4652
0.523599
-4.43706
990.587
-1589.22
29.6696
161.25
-94.0725
502.816
335.792
109.624
-576.798
217.564
22.9763
-471.201
300.084
59.1347
122.395
366.264
31.205
206.915
492.184
-13.7438
230.307
525.49
-20.887
33.1036
561.239
-45.0198
5.80562
583.708
-35.6271
-19.24
610.118
-40.6379
-15.9581
627.666
-30.8908
-29.2841
645.062
-27.5761
-28.5806
657.082
-22.9156
-37.5295
667.992
-20.3881
-33.2807
676.543
-17.6347
-35.6524
683.715
-17.5331
-30.3124
689.318
-14.661
-23.3614
692.52
-13.2618
-13.9833
-4.70841
3.00689
533.117
-634.594
2198.77
102.137
-147.432
-106.467
102.814
91.9407
-2.72675
57.5565
37.0623
-20.9511
300.342
28.3624
314.707
361.03
59.9123
137.979
449.523
-49.2315
126.713
478.969
-34.738
33.6797
513.002
-67.6518
47.3184
529.002
-38.7769
25.2241
546.104
-45.6471
26.2101
554.964
-30.1108
9.27215
564.925
-32.422
6.72179
572.402
-25.0134
2.83644
580.989
-24.0315
6.83311
588.008
-18.6801
7.05339
593.519
-17
9.55355
597.114
-11.7192
11.41
594.547
-5.74388
9.09167
4.33272
8.29633
-107.18
420.714
-2577.58
177.418
197.756
-412.356
264.239
178.826
-163.912
248.071
63.7911
-109.336
345.197
-6.46646
9.09038
384.47
2.3683
0.394499
455.396
-107.735
40.2637
469.389
-55.929
-1.07216
497.285
-87.6223
37.1897
503.516
-39.996
25.4643
514.558
-44.9086
38.6509
516.06
-24.2418
24.6866
521.703
-29.7751
23.1247
524.418
-22.9732
11.5504
528.345
-24.5523
8.59817
532.534
-19.5483
5.96378
536.448
-18.1985
6.824
539.292
-12.2109
6.22323
537.895
-3.6049
6.54179
11.7154
8.70343
-75.1071
1319.12
-3100.29
114.94
411.458
737.802
434.769
516.292
697.672
438.077
176.339
164.232
458.904
46.7132
210.588
467.879
15.1667
7.63672
504.655
-125.95
113.089
523.026
-59.7306
24.6085
531.527
-90.7179
43.5084
528.377
-35.2565
12.5769
524.034
-42.5083
27.8937
515.432
-12.1469
15.7156
511.598
-23.485
23.254
508.498
-16.75
12.993
508.964
-25.369
11.659
511.234
-21.2729
5.84011
514.504
-21.0592
4.04173
518.258
-15.7166
1.50736
517.338
-4.69459
-0.503831
16.6892
2.29501
361.811
250.013
-4284.37
360.41
201.76
-414.604
607.234
494.611
-137.649
544.927
218.445
-37.1946
520.028
90.6134
109.721
446.051
67.3981
-27.0001
477.73
-140.92
45.4939
449.109
-27.9227
5.09803
458.993
-97.542
24.7836
456.054
-33.2794
-6.17054
461.813
-52.4708
3.88715
462.706
-13.4373
-3.13388
467.141
-27.196
9.40865
469.449
-15.5085
9.24972
472.505
-29.0255
7.41773
477.918
-26.2372
2.36601
485.251
-28.9873
1.85091
492.076
-24.1517
0.440549
494.206
-9.07057
-0.964756
18.0757
4.41806
-192.642
-883.044
-1466.81
-177.417
-59.5347
-659.068
354.007
4.43447
-12.4522
450.727
92.672
-9.22747
516.299
67.451
196.366
418.332
208.149
34.3211
433.431
-7.24496
130.742
-46.6817
-10.1537
-47.9191
436.158
-3.80886
81.8557
0.949354
0.66657
7.69586
445.719
-17.1848
64.0777
-34.2074
-13.814
-31.4592
448.169
-12.5424
20.9976
-7.34374
-8.23159
-3.9037
447.12
-7.97755
10.1314
-17.9641
-5.71419
-17.1047
448.588
-3.07593
-5.11091
-5.73813
-1.9367
-4.84417
452.641
-3.26985
-3.4572
-12.8869
-2.72752
-12.4941
461.554
-4.18267
-1.92487
-9.6911
-3.28025
-8.82848
471.405
-38.5907
2.21696
479.791
-37.0719
1.58464
487.349
-39.3973
5.49575
493.007
-31.8906
6.81625
494.376
-12.1423
4.01158
21.7387
7.74056
1218.11
-499.044
-1286.35
1001.03
123.873
-165.981
784.03
244.805
212.54
685.235
238.343
215.629
663.591
207.668
285.125
139.816
94.3426
145.267
144.483
123.316
127.18
113.327
101.093
119.194
-35.7651
117.473
28.0069
22.8553
-26.3178
-94.1794
103.291
-8.82169
22.2191
-13.9926
-110.11
111.707
-16.4245
11.6356
-5.90341
-105.803
112.609
-20.35
6.90457
-4.22643
-114.647
116.461
-9.27532
3.71059
-0.493967
-112.312
116.551
-7.21047
0.389421
3.83803
-116.045
119.339
-6.38851
-4.01331
4.58324
-117.333
122.467
-9.97299
-3.92697
490.349
-11.5413
-2.75556
-121.81
-125.167
-114.544
-117.671
-20.7375
-11.2042
-18.2878
498.963
-54.799
2.38229
499.825
-45.7301
9.82887
496.623
-31.6704
13.0652
487.143
-5.32808
6.60617
31.2695
3.73286
-168.027
-511.918
-4103.58
-584.186
104.448
553.015
-193.138
13.5074
-99.8211
-157.389
164.65
154.118
37.3004
39.0308
10.9662
21.4686
23.91
4.07727
2.59818
77.324
55.9147
-4.19381
-11.8162
-15.9644
-28.8051
31.3601
15.0031
10.2225
-7.35841
-34.1627
0.427994
35.3799
-1.46862
7.18176
-6.79433
-36.7532
3.19573
36.9913
-3.16334
6.52386
-4.06462
-34.7128
4.0034
34.6125
-3.8808
4.04239
-3.41033
-33.4717
1.7356
33.8172
-2.01784
3.34711
-1.2649
-32.4359
0.639421
32.879
-0.769944
0.952321
2.0238
-32.3114
1.07808
32.9599
-1.67253
-2.07778
2.70272
-32.8298
2.61196
33.4869
-3.28677
-2.68501
-33.8774
7.28671
137.816
-16.448
-5.3142
-34.4848
-32.9857
-33.5344
533.317
-72.4741
5.25009
-135.585
-141.092
-126.485
-129.858
520.062
-42.4107
14.1734
501.495
-18.1398
14.1881
476.608
22.7677
9.84448
48.8861
3.84079
1528.62
728.583
-2997.31
771.536
774.596
-460.754
453.103
482.075
-136.285
253.576
347.679
35.8053
68.0812
94.1457
93.4845
63.7204
47.8109
45.5549
26.6951
-13.6941
77.3151
3.48556
-25.7205
1.67142
-2.88387
-25.7032
29.067
-0.546547
-1.6047
-1.52792
4.31569
-32.8456
33.6258
-5.4145
1.84652
-3.4716
2.83898
-35.751
36.306