/*--------------------------------*- C++ -*----------------------------------*\
  =========                 |
  \\      /  F ield         | OpenFOAM: The Open Source CFD Toolbox
   \\    /   O peration     | Website:  https://openfoam.org
    \\  /    A nd           | Version:  10
     \\/     M anipulation  |
\*---------------------------------------------------------------------------*/
FoamFile
{
    format      ascii;
    class       volScalarField;
    location    "3.1";
    object      turbidity_0;
}
// * * * * * * * * * * * * * * * * * * * * * * * * * * * * * * * * * * * * * //

dimensions      [0 0 0 0 0 0 0];

internalField   nonuniform List<scalar> 
12920
(
-0.024533
-0.0409336
-0.0750591
-0.120333
-0.156097
-0.187223
-0.220617
-0.252012
-0.278615
-0.301354
-0.320453
-0.335797
-0.348146
-0.358051
-0.366274
-0.372884
-0.377362
-0.379711
-0.380843
-0.384301
-0.0155613
-0.028162
-0.0395354
-0.0530151
-0.0693476
-0.109908
-0.177821
-0.236436
-0.27465
-0.307048
-0.335984
-0.357195
-0.371774
-0.378304
-0.383311
-0.386688
-0.393952
-0.407404
-0.429975
-0.459639
-0.0156954
-0.0493705
-0.0644071
-0.0822143
-0.106093
-0.144714
-0.179168
-0.208374
-0.238007
-0.274322
-0.315295
-0.358534
-0.399023
-0.434357
-0.463583
-0.487613
-0.507591
-0.525185
-0.541575
-0.556248
-0.00858655
-0.0333071
-0.0680215
-0.0994294
-0.124504
-0.144345
-0.161276
-0.182705
-0.208065
-0.240258
-0.279442
-0.325314
-0.371654
-0.41324
-0.446053
-0.470625
-0.488973
-0.504808
-0.522299
-0.545971
-0.00453387
-0.0125279
-0.0329319
-0.0656746
-0.0919954
-0.114994
-0.140219
-0.167852
-0.19497
-0.224195
-0.258295
-0.299141
-0.342121
-0.381505
-0.410472
-0.42912
-0.440559
-0.449445
-0.461536
-0.485251
-0.00759826
-0.0220778
-0.044451
-0.0714949
-0.098571
-0.124102
-0.149995
-0.174898
-0.196975
-0.22095
-0.249501
-0.283835
-0.318427
-0.347983
-0.365216
-0.371589
-0.373139
-0.377349
-0.391986
-0.424855
-0.0258276
-0.037382
-0.0559867
-0.074574
-0.09076
-0.107011
-0.126205
-0.15256
-0.172941
-0.196223
-0.222931
-0.255821
-0.279728
-0.290265
-0.286026
-0.279435
-0.279415
-0.290277
-0.313798
-0.356261
-0.0248831
-0.0495069
-0.0648077
-0.0792159
-0.0931106
-0.110413
-0.112543
-0.117803
-0.123139
-0.127938
-0.134612
-0.146475
-0.157725
-0.148491
-0.112938
-0.134982
-0.163058
-0.195968
-0.234144
-0.282009
-0.0271427
-0.0446476
-0.0595803
-0.0787153
-0.0975374
-0.0957336
-0.094385
-0.0872828
-0.089637
-0.103902
-0.117179
-0.119677
-0.123945
-0.113657
-0.0952727
-0.109147
-0.141057
-0.175245
-0.213019
-0.257963
-0.0154535
-0.0305278
-0.0455927
-0.0633345
-0.0864501
-0.0885788
-0.0928567
-0.100501
-0.109076
-0.115941
-0.123841
-0.124475
-0.116542
-0.109117
-0.107033
-0.139135
-0.168447
-0.19559
-0.225653
-0.263933
-0.0265585
-0.0500677
-0.0640703
-0.0901834
-0.117623
-0.116237
-0.119066
-0.125759
-0.12795
-0.131658
-0.138508
-0.129167
-0.116683
-0.109346
-0.125013
-0.189098
-0.215212
-0.231206
-0.250419
-0.282111
-0.0286998
-0.061676
-0.073705
-0.083392
-0.0919761
-0.0887412
-0.0884963
-0.0934512
-0.11007
-0.134361
-0.147824
-0.1535
-0.15398
-0.15913
-0.204534
-0.287066
-0.298481
-0.296147
-0.295021
-0.309926
-0.0316168
-0.0519778
-0.0601591
-0.0687281
-0.0805421
-0.0971585
-0.100096
-0.111184
-0.133904
-0.167898
-0.206982
-0.237074
-0.269004
-0.301773
-0.404272
-0.447642
-0.465462
-0.456968
-0.426047
-0.402933
-0.0226626
-0.03885
-0.0422259
-0.0527805
-0.0715484
-0.0929436
-0.121106
-0.156859
-0.204923
-0.262249
-0.321338
-0.375538
-0.426459
-0.476288
-0.526516
-0.574585
-0.613956
-0.63486
-0.620604
-0.580028
-0.0175268
-0.0314472
-0.038296
-0.0502833
-0.0663991
-0.0836358
-0.10674
-0.136088
-0.175699
-0.22946
-0.288557
-0.34025
-0.391747
-0.448388
-0.509527
-0.570281
-0.627482
-0.675742
-0.707121
-0.709751
-0.0120989
-0.0248251
-0.0379287
-0.055579
-0.0792155
-0.107491
-0.142826
-0.180279
-0.219829
-0.249358
-0.277006
-0.307518
-0.353672
-0.411873
-0.477327
-0.540294
-0.596749
-0.644996
-0.685806
-0.721125
-0.0130831
-0.0176527
-0.0248748
-0.0467654
-0.0973169
-0.154007
-0.191948
-0.220357
-0.242293
-0.260216
-0.280086
-0.305092
-0.338318
-0.380653
-0.431116
-0.484209
-0.527865
-0.558785
-0.586252
-0.616756
-0.0175442
-0.0243504
-0.0399299
-0.0694708
-0.109976
-0.147799
-0.185151
-0.215358
-0.245139
-0.26933
-0.292827
-0.314594
-0.339297
-0.368913
-0.404064
-0.441417
-0.470507
-0.484798
-0.492686
-0.502295
-0.0524933
-0.036032
-0.0529311
-0.0781391
-0.100886
-0.127363
-0.163201
-0.201578
-0.231016
-0.248213
-0.26674
-0.289752
-0.322265
-0.36279
-0.408705
-0.448754
-0.480046
-0.500934
-0.507543
-0.500058
-0.0623409
-0.0582558
-0.0696552
-0.0830694
-0.0965928
-0.11219
-0.129992
-0.151639
-0.173678
-0.197235
-0.221261
-0.248014
-0.277883
-0.309666
-0.342453
-0.375412
-0.405207
-0.430018
-0.449058
-0.463214
-0.00807944
-0.0211217
-0.0322514
-0.0445348
-0.072814
-0.101098
-0.119066
-0.126509
-0.12923
-0.127337
-0.122938
-0.115101
-0.107023
-0.0952406
-0.083232
-0.0712638
-0.0602339
-0.0524036
-0.0474625
-0.0454416
-0.00309514
-0.00768325
-0.0196038
-0.0381998
-0.062463
-0.0810324
-0.0831606
-0.0698612
-0.0666644
-0.0619545
-0.0569712
-0.051661
-0.049139
-0.048728
-0.0507346
-0.0544777
-0.0607684
-0.0696885
-0.0819042
-0.096929
-0.0102943
-0.0163246
-0.0292836
-0.0439321
-0.062242
-0.0575759
-0.0583644
-0.0633098
-0.0769045
-0.0837242
-0.0879371
-0.0878216
-0.0915629
-0.101584
-0.116444
-0.131368
-0.143298
-0.14944
-0.145495
-0.131176
-0.00811683
-0.0179822
-0.0215764
-0.0350553
-0.0437488
-0.0408559
-0.0505295
-0.0600961
-0.0769055
-0.0918465
-0.104209
-0.10809
-0.108039
-0.105869
-0.10632
-0.111492
-0.120411
-0.130774
-0.142211
-0.150926
-0.00877766
-0.014737
-0.0243074
-0.0304302
-0.0385465
-0.0410044
-0.0483468
-0.0513687
-0.0590214
-0.0690415
-0.0809812
-0.0876711
-0.087974
-0.0794156
-0.0693703
-0.0618149
-0.0590002
-0.0614245
-0.0704372
-0.0858904
-0.00306937
-0.00918206
-0.0216388
-0.024505
-0.0350951
-0.0372714
-0.0473921
-0.0456541
-0.0450657
-0.0438405
-0.046017
-0.0500592
-0.0531965
-0.0511518
-0.0428413
-0.0372286
-0.0378789
-0.0441779
-0.0559223
-0.0739569
-0.0163489
-0.0165287
-0.0257946
-0.0298747
-0.0411397
-0.0507888
-0.0600319
-0.0556366
-0.047342
-0.0392728
-0.034114
-0.0296771
-0.025728
-0.0233119
-0.0230629
-0.025635
-0.0309818
-0.0395531
-0.0528592
-0.073654
-0.0146437
-0.0194926
-0.0234341
-0.033365
-0.0471124
-0.0558099
-0.060493
-0.0676877
-0.0594732
-0.0528453
-0.0512181
-0.0433273
-0.0275731
-0.0180775
-0.0169926
-0.0225854
-0.0298252
-0.0391273
-0.0521663
-0.0726495
-0.0218362
-0.0103544
-0.0109731
-0.0173836
-0.0331194
-0.0400289
-0.0566769
-0.0686811
-0.0779697
-0.0857255
-0.0889623
-0.0794874
-0.0392261
-0.0178061
-0.0158546
-0.0288929
-0.0361309
-0.0441561
-0.0555752
-0.0726161
-0.00103357
-0.00714992
-0.00805705
-0.0133607
-0.0337595
-0.0390067
-0.0500953
-0.0703098
-0.0849177
-0.0931864
-0.0935211
-0.0771256
-0.0548655
-0.0402237
-0.0392573
-0.0494761
-0.0522023
-0.0549206
-0.0608952
-0.0729811
-0.0152264
-0.0128083
-0.0130493
-0.0282158
-0.0526383
-0.06182
-0.0801543
-0.0907318
-0.0907467
-0.11704
-0.129495
-0.11081
-0.101436
-0.0998061
-0.087499
-0.0738361
-0.0666538
-0.0619958
-0.0626117
-0.0696962
-0.00149493
-0.0133482
-0.013238
-0.0192311
-0.0319784
-0.0339718
-0.0423941
-0.0624507
-0.091101
-0.11682
-0.133428
-0.13576
-0.122598
-0.105524
-0.0963411
-0.0801225
-0.0662519
-0.0568571
-0.0553268
-0.0601611
-0.0010088
-0.0148151
-0.0126274
-0.0181917
-0.0259183
-0.0322857
-0.0381726
-0.0525807
-0.083549
-0.107334
-0.0972279
-0.0777669
-0.0720563
-0.0858084
-0.100935
-0.101097
-0.0885975
-0.0748211
-0.0647835
-0.0624308
-0.0136784
-0.0106886
-0.00735925
-0.0100534
-0.0170664
-0.0282867
-0.0481663
-0.0678681
-0.0807859
-0.0819343
-0.0766045
-0.0735712
-0.0773808
-0.0870078
-0.100508
-0.114265
-0.121204
-0.117915
-0.106786
-0.102213
-0.0108314
-0.00711512
-0.00812595
-0.0114695
-0.0170272
-0.0241534
-0.0380593
-0.0520613
-0.07034
-0.0702737
-0.0605441
-0.0566589
-0.060842
-0.0663296
-0.0727822
-0.0818258
-0.0917227
-0.106057
-0.12495
-0.15348
-0.00152805
-0.00384053
-0.00622265
-0.0107079
-0.0197269
-0.023881
-0.0296843
-0.0312341
-0.0345853
-0.0374287
-0.0450647
-0.055679
-0.0663176
-0.0715476
-0.0722033
-0.0664726
-0.0601889
-0.0581488
-0.0662009
-0.0855347
-0.00138134
-0.00441643
-0.0101975
-0.0186917
-0.0229345
-0.0192178
-0.0225218
-0.025887
-0.0312643
-0.0386927
-0.0499778
-0.0643567
-0.0803194
-0.0928159
-0.0947023
-0.0773573
-0.0547377
-0.0421643
-0.0376782
-0.038376
-0.00611362
-0.00512718
-0.010102
-0.0126694
-0.0177945
-0.0249549
-0.0335419
-0.0383788
-0.0419493
-0.045409
-0.0514598
-0.0605313
-0.0727541
-0.083781
-0.089774
-0.0802149
-0.0607935
-0.0473716
-0.0416786
-0.0414421
-0.009095
-0.00528182
-0.008006
-0.0118086
-0.0212684
-0.0319328
-0.0427173
-0.0419178
-0.0369565
-0.0331206
-0.0344176
-0.0393209
-0.0462241
-0.0550147
-0.0652431
-0.0733402
-0.0724977
-0.0653374
-0.0578025
-0.0544407
-0.0153762
-0.0248233
-0.0265923
-0.0313911
-0.0355174
-0.0422398
-0.0529157
-0.0662619
-0.0806345
-0.0925434
-0.0991296
-0.0957803
-0.0829977
-0.070522
-0.0665472
-0.0717264
-0.080553
-0.09138
-0.101534
-0.110854
-0.00280635
-0.0200032
-0.0305389
-0.0416446
-0.0598502
-0.0723093
-0.0785486
-0.077442
-0.0729031
-0.0661926
-0.0594694
-0.0522913
-0.0461171
-0.0396203
-0.034197
-0.0297699
-0.0267063
-0.0250152
-0.0245889
-0.0253826
-0.00410226
-0.00898266
-0.0211171
-0.0312222
-0.0451961
-0.0402058
-0.0313627
-0.0236297
-0.021876
-0.0204864
-0.0201349
-0.0203775
-0.0215347
-0.0234455
-0.0261692
-0.0296216
-0.0339308
-0.0390778
-0.0449811
-0.0509473
-0.00348195
-0.0141521
-0.021911
-0.0251031
-0.031033
-0.0248965
-0.0269287
-0.0279571
-0.0313386
-0.0307175
-0.0307032
-0.0306897
-0.0332898
-0.0376543
-0.0434165
-0.0484074
-0.0519964
-0.0534108
-0.052183
-0.0497311
-0.0042853
-0.00993915
-0.0135555
-0.0182875
-0.020743
-0.0234639
-0.0292837
-0.0338236
-0.0397161
-0.0417409
-0.0422091
-0.0402185
-0.0395529
-0.0406559
-0.0439966
-0.0488775
-0.0543868
-0.0591738
-0.0627442
-0.0642466
-0.0126597
-0.0126054
-0.0154995
-0.0160486
-0.0210183
-0.022383
-0.025523
-0.0282735
-0.0316531
-0.0342274
-0.0350879
-0.0332948
-0.0310861
-0.0293241
-0.0296988
-0.0321346
-0.0363479
-0.0418843
-0.0486959
-0.056621
-0.00895775
-0.0120967
-0.0163072
-0.0163249
-0.0214769
-0.0197043
-0.021631
-0.020317
-0.0199322
-0.0198478
-0.0197826
-0.0201743
-0.0208238
-0.0219366
-0.0240355
-0.0278647
-0.0334201
-0.0406717
-0.0498671
-0.0617069
-0.014966
-0.0121923
-0.0194776
-0.0232926
-0.0302076
-0.0309063
-0.0294484
-0.0231825
-0.0186375
-0.0158155
-0.0143558
-0.0143574
-0.015437
-0.0176836
-0.0211372
-0.0260999
-0.032892
-0.0419988
-0.054089
-0.0698468
-0.010939
-0.0107749
-0.0153574
-0.0213428
-0.0288492
-0.0292064
-0.0298484
-0.0284958
-0.0223431
-0.0192148
-0.0158518
-0.0129775
-0.0124682
-0.0138592
-0.0189539
-0.0240859
-0.0311757
-0.0410734
-0.054409
-0.0708284
-0.00495421
-0.00519636
-0.00787355
-0.0122705
-0.0210234
-0.0239781
-0.0320319
-0.0422142
-0.0452056
-0.0379586
-0.029061
-0.0169731
-0.010437
-0.0113301
-0.0167802
-0.0250883
-0.0312246
-0.0403131
-0.0529773
-0.0673407
-0.000482652
-0.00299208
-0.00689019
-0.0124499
-0.0257545
-0.0283078
-0.0356281
-0.0493967
-0.0542761
-0.0505027
-0.0376758
-0.0228748
-0.0142469
-0.0139924
-0.0219784
-0.0300233
-0.0338504
-0.0404248
-0.0503524
-0.0613839
-0.00431444
-0.00464664
-0.00963376
-0.0203502
-0.0319517
-0.0373227
-0.0474578
-0.0503708
-0.0482346
-0.0511197
-0.0424286
-0.0277582
-0.024168
-0.0257983
-0.0352198
-0.0339194
-0.0345615
-0.0383967
-0.0454536
-0.0533101
-0.00214038
-0.00457466
-0.00614941
-0.0106696
-0.0194906
-0.0226081
-0.0282558
-0.0423456
-0.055967
-0.0553319
-0.0477792
-0.0391154
-0.0339887
-0.0372454
-0.0425833
-0.0321609
-0.0314445
-0.0339824
-0.0392094
-0.0449353
-0.000499841
-0.0035427
-0.00345298
-0.00473777
-0.0097459
-0.0159071
-0.0204477
-0.0321668
-0.0426763
-0.0410495
-0.0330959
-0.0311479
-0.0346236
-0.039923
-0.038829
-0.0377699
-0.0366442
-0.0371051
-0.0392962
-0.0427624
-0.00482175
-0.00337281
-0.00508541
-0.00866338
-0.0147809
-0.0212606
-0.029665
-0.0342402
-0.0348175
-0.0321828
-0.0306497
-0.031107
-0.0332504
-0.0360417
-0.0393288
-0.0425445
-0.0447595
-0.0462189
-0.0476774
-0.0513489
-0.00467136
-0.00248281
-0.00512801
-0.00869986
-0.0131646
-0.0164618
-0.02348
-0.0271778
-0.0312444
-0.0293586
-0.0277479
-0.0277309
-0.028581
-0.029628
-0.0316407
-0.0349944
-0.0396872
-0.0461869
-0.0549261
-0.0671191
-0.000489129
-0.00173009
-0.00362011
-0.00656262
-0.0109535
-0.0132873
-0.0165977
-0.0188327
-0.022164
-0.0252299
-0.0283949
-0.0304899
-0.0309797
-0.0300668
-0.0292437
-0.0290131
-0.0302452
-0.0328634
-0.0369806
-0.0430561
-0.000421791
-0.00287132
-0.00722129
-0.00961118
-0.011706
-0.0139513
-0.0167707
-0.0193734
-0.0229131
-0.0268747
-0.0315647
-0.0355509
-0.0378686
-0.0375356
-0.0349539
-0.0311154
-0.0292038
-0.029677
-0.0313988
-0.033671
-0.000278868
-0.00216092
-0.00554156
-0.00816589
-0.0128767
-0.0167148
-0.0188464
-0.0191632
-0.0196976
-0.0209229
-0.0235451
-0.0269154
-0.0304577
-0.0326425
-0.0334
-0.0321513
-0.0315176
-0.0328317
-0.0354028
-0.0384166
-0.00388179
-0.0032298
-0.00585862
-0.00998484
-0.0162344
-0.0201049
-0.0219069
-0.0211644
-0.0206195
-0.0200321
-0.0206767
-0.0211568
-0.0216779
-0.0229314
-0.025351
-0.0283148
-0.0309807
-0.0342716
-0.0384595
-0.0433799
-0.0142759
-0.0134278
-0.0123589
-0.0163541
-0.0196224
-0.0248514
-0.0329341
-0.0432147
-0.0531351
-0.0593793
-0.059615
-0.0534708
-0.0435388
-0.034313
-0.0287895
-0.0273489
-0.0286861
-0.0320794
-0.0365445
-0.0419147
-0.0055825
-0.0175043
-0.0254722
-0.0345838
-0.0471402
-0.0512071
-0.0507099
-0.0455914
-0.0397884
-0.0339489
-0.0292043
-0.0249955
-0.0217947
-0.0191565
-0.0176948
-0.0174098
-0.018211
-0.0199644
-0.0224643
-0.0253671
-0.00290722
-0.0067462
-0.0128931
-0.019298
-0.0234826
-0.0210165
-0.017351
-0.014965
-0.0139954
-0.014016
-0.0149075
-0.0163683
-0.0183604
-0.0207714
-0.023646
-0.0268227
-0.0301038
-0.0330338
-0.0351624
-0.0360844
-0.00699306
-0.00537709
-0.0099686
-0.0132875
-0.0146237
-0.013206
-0.0136566
-0.0136207
-0.0146322
-0.0150226
-0.0162235
-0.0176657
-0.0197866
-0.0219767
-0.0242766
-0.0260266
-0.0272559
-0.0278289
-0.027823
-0.0275451
-0.00359386
-0.00732974
-0.00935903
-0.0117259
-0.0126345
-0.014277
-0.0161595
-0.0166966
-0.0181624
-0.0180685
-0.0186297
-0.0192835
-0.0209817
-0.0231634
-0.0257663
-0.0282552
-0.0304823
-0.0320519
-0.033146
-0.0338035
-0.00528306
-0.00872977
-0.0103099
-0.0115273
-0.0137783
-0.0144779
-0.0153668
-0.0158903
-0.016481
-0.0164207
-0.0167283
-0.0171405
-0.0184776
-0.0204619
-0.023196
-0.0263133
-0.0297806
-0.0334563
-0.0374605
-0.0416835
-0.0119901
-0.0117839
-0.0117821
-0.0110759
-0.0128803
-0.011719
-0.0117112
-0.0115555
-0.0116864
-0.0124443
-0.0137531
-0.0156572
-0.0182754
-0.0214192
-0.0252453
-0.0295818
-0.0344793
-0.0400567
-0.0465839
-0.0542303
-0.029854
-0.013535
-0.0158231
-0.0162027
-0.0187261
-0.0158359
-0.0135232
-0.0114268
-0.0107659
-0.0115582
-0.0133252
-0.0158612
-0.0189683
-0.0227179
-0.0272276
-0.0325512
-0.0385834
-0.0454292
-0.0532254
-0.0615504
-0.00240537
-0.00600048
-0.00937761
-0.0125211
-0.0156765
-0.0143694
-0.0137281
-0.0119992
-0.0103226
-0.0102415
-0.0113176
-0.0131063
-0.0154349
-0.0178629
-0.0253135
-0.03127
-0.0377831
-0.0444343
-0.050935
-0.0563276
-0.00209007
-0.00476622
-0.00695303
-0.00930866
-0.0120929
-0.013089
-0.0158863
-0.0180457
-0.0157579
-0.0122728
-0.00989881
-0.0100697
-0.0122494
-0.0147287
-0.018233
-0.0283763
-0.0350578
-0.0410855
-0.0456002
-0.0473341
-0.000723845
-0.00379246
-0.00664097
-0.00944607
-0.0151197
-0.0152426
-0.0195065
-0.0235223
-0.0209588
-0.0160503
-0.0111521
-0.00971478
-0.0121087
-0.0156941
-0.0194257
-0.0271501
-0.03302
-0.0381008
-0.0413012
-0.0417337
-0.00294021
-0.00455843
-0.00818457
-0.012582
-0.0156048
-0.0186283
-0.0219491
-0.0201581
-0.0174808
-0.0156568
-0.0132238
-0.0133678
-0.0163775
-0.0202035
-0.0217613
-0.0257151
-0.030328
-0.0344169
-0.0371868
-0.0380611
-0.00248574
-0.00262258
-0.00575238
-0.00941887
-0.0142756
-0.0161438
-0.0190679
-0.0238442
-0.0221519
-0.0184714
-0.0171207
-0.0185033
-0.0213058
-0.0229221
-0.0211483
-0.0239039
-0.0272182
-0.0305446
-0.0333863
-0.035229
-0.0007017
-0.00207972
-0.00375524
-0.0059561
-0.00932439
-0.0121572
-0.014632
-0.0196703
-0.0201815
-0.0191964
-0.0193606
-0.0202562
-0.0214433
-0.0223594
-0.0242997
-0.0258447
-0.0278078
-0.0301725
-0.0327003
-0.035227
-0.000859583
-0.00258319
-0.00547148
-0.00858171
-0.0128878
-0.0144589
-0.0171296
-0.0179328
-0.0183166
-0.0186844
-0.0195883
-0.0209999
-0.0227179
-0.0248146
-0.0272227
-0.0299156
-0.0326515
-0.0356136
-0.0386752
-0.0425753
-0.000997029
-0.00273295
-0.00584066
-0.00756825
-0.0101911
-0.011464
-0.0147091
-0.0159855
-0.0176825
-0.0181959
-0.0191555
-0.0205887
-0.0225825
-0.0250352
-0.0280831
-0.0316783
-0.0358019
-0.0404124
-0.0455438
-0.051313
-0.000323029
-0.0015951
-0.00329063
-0.00612968
-0.00897617
-0.0109174
-0.0130965
-0.0146528
-0.0164373
-0.0179673
-0.0195241
-0.0210669
-0.0227465
-0.0246902
-0.0270138
-0.0296198
-0.0324123
-0.0352036
-0.0379547
-0.0407036
-0.000807032
-0.00263519
-0.00508267
-0.00718723
-0.00966639
-0.0112138
-0.0127795
-0.014152
-0.0159297
-0.01779
-0.0197743
-0.0216656
-0.023597
-0.025426
-0.027401
-0.0296886
-0.0323416
-0.0350937
-0.0378565
-0.040369
-0.000826809
-0.00263125
-0.00488721
-0.00798527
-0.0109274
-0.0122115
-0.0129547
-0.0129033
-0.013244
-0.0140618
-0.0155761
-0.0177163
-0.0204698
-0.0234486
-0.0266363
-0.0299711
-0.0336247
-0.0374644
-0.0414164
-0.0454124
-0.00194005
-0.00337714
-0.00593747
-0.00917103
-0.0122636
-0.0146732
-0.0170255
-0.0184446
-0.0190378
-0.0183999
-0.017632
-0.0168733
-0.0171537
-0.019282
-0.0228324
-0.0270118
-0.0314315
-0.0359747
-0.0405239
-0.0451113
-0.0129123
-0.00831272
-0.00826867
-0.010123
-0.0110582
-0.0125143
-0.0160679
-0.0233359
-0.0317643
-0.0365373
-0.0355249
-0.030022
-0.0233032
-0.0180025
-0.0153126
-0.0149737
-0.0163068
-0.0189286
-0.0225258
-0.0272307
-0.00678913
-0.0131405
-0.0200997
-0.0266737
-0.0310749
-0.0285336
-0.0252148
-0.0209303
-0.0178413
-0.0152873
-0.013792
-0.0131857
-0.0138166
-0.0153209
-0.0172208
-0.0189479
-0.0202316
-0.0210737
-0.0216044
-0.0219742
-0.00568704
-0.00768526
-0.0111328
-0.01517
-0.0153133
-0.0140979
-0.012853
-0.0124397
-0.0129484
-0.0140307
-0.0154517
-0.0169245
-0.0182176
-0.0191801
-0.0196776
-0.019705
-0.0193412
-0.0187072
-0.0178883
-0.0170475
-0.00213078
-0.00526536
-0.00910067
-0.0101775
-0.0100407
-0.0101867
-0.0107013
-0.0116742
-0.0129405
-0.0141499
-0.0153911
-0.0163827
-0.0172448
-0.0177649
-0.0180627
-0.0179368
-0.0174952
-0.0167186
-0.0157316
-0.0147936
-0.00112204
-0.00540605
-0.00778932
-0.00863014
-0.00886625
-0.00988913
-0.0107229
-0.0118714
-0.0133306
-0.0146113
-0.0161581
-0.0174618
-0.0187404
-0.0195774
-0.0201329
-0.0201759
-0.0198955
-0.0192693
-0.0185675
-0.0179669
-0.00547846
-0.00664485
-0.00811222
-0.00877284
-0.00923398
-0.00976662
-0.010827
-0.0118246
-0.0134754
-0.0149703
-0.0168613
-0.0185507
-0.0202424
-0.0215849
-0.0227259
-0.0235274
-0.0241596
-0.0246047
-0.0250481
-0.0256525
-0.00710449
-0.00856424
-0.00852731
-0.00851182
-0.00875692
-0.0092411
-0.0105851
-0.0120726
-0.0144651
-0.0164702
-0.0187952
-0.0206129
-0.0222351
-0.0234343
-0.0243572
-0.0251152
-0.025853
-0.0266301
-0.0275477
-0.0287139
-0.0135673
-0.0122503
-0.011396
-0.0107709
-0.0105422
-0.00988388
-0.0108379
-0.012656
-0.015395
-0.0178202
-0.0201694
-0.0219104
-0.0230295
-0.023629
-0.0236543
-0.0234928
-0.0232356
-0.0229677
-0.0228296
-0.0228813
-0.0037035
-0.00596119
-0.00816015
-0.00972846
-0.0100966
-0.00987942
-0.00991914
-0.0116124
-0.0135389
-0.0158633
-0.0185196
-0.0207414
-0.0226486
-0.0239345
-0.020644
-0.0192807
-0.017923
-0.0165794
-0.0155055
-0.014796
-0.00244302
-0.00431978
-0.00694969
-0.00884269
-0.00958144
-0.00989056
-0.00990278
-0.00988603
-0.0103384
-0.0119577
-0.0146514
-0.0170718
-0.0196174
-0.0224289
-0.0240412
-0.0168458
-0.0143092
-0.0119972
-0.0101923
-0.00881097
-0.00298507
-0.00454192
-0.00646846
-0.00859439
-0.00993996
-0.010308
-0.0106942
-0.0102806
-0.00971442
-0.0101425
-0.0119626
-0.0144331
-0.0172503
-0.0206368
-0.0242535
-0.0186943
-0.0163547
-0.0140155
-0.0118446
-0.0101541
-0.00113296
-0.00356833
-0.00694045
-0.00927884
-0.0103194
-0.0113421
-0.0115374
-0.0109606
-0.0106001
-0.010916
-0.0121596
-0.013991
-0.0161489
-0.0187966
-0.0239718
-0.022077
-0.0212546
-0.0199285
-0.0181095
-0.0167096
-0.000757251
-0.00239614
-0.00586829
-0.00857245
-0.0102245
-0.0118354
-0.0122838
-0.012438
-0.0126477
-0.0133114
-0.0146094
-0.0159219
-0.0172495
-0.0189103
-0.0225716
-0.0226678
-0.0227044
-0.0220448
-0.0207016
-0.0194253
-0.00169416
-0.00254998
-0.00452954
-0.006818
-0.00904372
-0.0111353
-0.0120905
-0.0147093
-0.0166177
-0.0179024
-0.0198212
-0.0209989
-0.0224887
-0.0234144
-0.0256108
-0.0262949
-0.0265075
-0.0265135
-0.02604
-0.0259389
-0.000539137
-0.0022988
-0.0047932
-0.00725875
-0.00987657
-0.0119359
-0.0142015
-0.0167487
-0.0190307
-0.0214727
-0.0235874
-0.0257967
-0.0277386
-0.0297443
-0.0316757
-0.0336425
-0.0355336
-0.0373814
-0.0389246
-0.0406752
-0.00126161
-0.00348894
-0.00534589
-0.00730282
-0.00980546
-0.0124738
-0.014746
-0.0172602
-0.0196327
-0.022295
-0.0247042
-0.0270004
-0.0288958
-0.0305007
-0.0318605
-0.0329246
-0.0338329
-0.0345073
-0.0352301
-0.0361368
-0.000382752
-0.00114307
-0.00269272
-0.00682464
-0.0103346
-0.0131673
-0.0157085
-0.0182786
-0.0208289
-0.0234649
-0.0258192
-0.027992
-0.0294958
-0.0305061
-0.030683
-0.0301826
-0.0290179
-0.0273875
-0.0257291
-0.0245202
-0.00114133
-0.00203974
-0.00343484
-0.00661785
-0.00956476
-0.0119195
-0.0144672
-0.0170849
-0.0200968
-0.0231004
-0.0262231
-0.0293292
-0.0322205
-0.03488
-0.036988
-0.0384983
-0.0391757
-0.0390076
-0.0383119
-0.0369638
-0.000300787
-0.00236649
-0.00491592
-0.00792794
-0.00986996
-0.010345
-0.0113461
-0.012632
-0.0149538
-0.0181699
-0.0218858
-0.0260205
-0.0302672
-0.0347519
-0.0392133
-0.0436508
-0.0477266
-0.0512882
-0.0540787
-0.0559374
-0.000514138
-0.00485471
-0.00867543
-0.0117169
-0.0141612
-0.0154696
-0.0161039
-0.015147
-0.0141651
-0.0139868
-0.0155557
-0.0186499
-0.0222034
-0.0256629
-0.0291089
-0.0327058
-0.0365087
-0.0407213
-0.0453637
-0.0505676
-0.000983164
-0.00518877
-0.00733259
-0.00915827
-0.0115632
-0.0154294
-0.0196862
-0.0226394
-0.0224642
-0.0191382
-0.0149477
-0.0125873
-0.0129137
-0.0147567
-0.017515
-0.0208662
-0.0246871
-0.0288563
-0.0333535
-0.0380571
-0.0416952
-0.0491497
-0.0432346
-0.0214591
-0.0159222
-0.0207153
-0.0164555
-0.0261455
-0.0397714
-0.0295503
-0.0142603
-0.0108596
-0.0150825
-0.0128502
-0.0463719
-0.0561413
-0.0520593
-0.0212889
-0.017552
-0.02371
-0.0207176
-0.0303843
-0.0500715
-0.0433309
-0.0164677
-0.0146048
-0.0199902
-0.0190907
-0.0884599
-0.0923556
-0.0934227
-0.0931495
-0.0876912
-0.0876208
-0.0902458
-0.0878417
-0.0944223
-0.0973595
-0.0864744
-0.0868648
-0.0914306
-0.0941275
-0.0997212
-0.0985177
-0.103649
-0.0885568
-0.100601
-0.0948907
-0.101536
-0.11482
-0.106227
-0.115804
-0.106033
-0.117582
-0.105691
-0.119126
-0.119292
-0.118984
-0.123296
-0.119201
-0.120067
-0.122028
-0.122512
-0.123382
-0.122527
-0.117457
-0.118764
-0.100412
-0.120394
-0.104311
-0.117602
-0.11573
-0.110287
-0.089161
-0.0570357
-0.095242
-0.0726761
-0.101011
-0.108242
-0.101572
-0.0496368
-0.0380062
-0.0685734
-0.0635055
-0.0982086
-0.105196
-0.124015
-0.0884016
-0.0943454
-0.0998975
-0.118093
-0.106944
-0.128419
-0.134142
-0.096565
-0.101567
-0.123246
-0.132146
-0.114266
-0.134429
-0.135589
-0.103013
-0.110016
-0.133875
-0.139342
-0.121912
-0.136523
-0.138723
-0.113441
-0.123624
-0.141299
-0.143819
-0.12565
-0.138031
-0.130577
-0.125532
-0.124189
-0.142649
-0.13383
-0.118532
-0.127476
-0.119402
-0.121965
-0.109122
-0.130316
-0.121982
-0.111032
-0.117099
-0.110866
-0.102209
-0.0854865
-0.120118
-0.116654
-0.102721
-0.108974
-0.10456
-0.0827041
-0.078762
-0.115999
-0.115423
-0.124672
-0.0985203
-0.0947807
-0.113382
-0.120636
-0.0955163
-0.0934072
-0.127844
-0.096107
-0.104665
-0.122908
-0.12709
-0.0952408
-0.105224
-0.130021
-0.108832
-0.124
-0.128138
-0.134081
-0.109774
-0.125618
-0.137561
-0.128807
-0.139208
-0.137053
-0.144525
-0.130789
-0.144399
-0.13287
-0.141767
-0.14616
-0.144951
-0.138624
-0.148012
-0.153156
-0.119258
-0.14601
-0.142121
-0.135229
-0.126588
-0.152973
-0.149956
-0.110709
-0.140773
-0.139635
-0.124685
-0.121713
-0.148948
-0.147915
-0.107774
-0.140476
-0.147108
-0.121457
-0.122664
-0.148503
-0.153818
-0.0910698
-0.0945168
-0.0997424
-0.0867782
-0.0907155
-0.0937969
-0.100054
-0.104837
-0.103141
-0.116411
-0.0936109
-0.106503
-0.103727
-0.118352
-0.12869
-0.123154
-0.145024
-0.11213
-0.131092
-0.125824
-0.149107
-0.14552
-0.154452
-0.177107
-0.136876
-0.150067
-0.157712
-0.175963
-0.152734
-0.183741
-0.198478
-0.153292
-0.158715
-0.180642
-0.190059
-0.153854
-0.203661
-0.218661
-0.159106
-0.158066
-0.192996
-0.202061
-0.156829
-0.225207
-0.244733
-0.15765
-0.15861
-0.206823
-0.223412
-0.170152
-0.253065
-0.275226
-0.160141
-0.168885
-0.23111
-0.252828
-0.0661592
-0.0475133
-0.0610359
-0.0466466
-0.0491112
-0.0439004
-0.052499
-0.0758344
-0.066713
-0.079302
-0.0506405
-0.0545701
-0.05525
-0.0610175
-0.0839657
-0.0814222
-0.0864394
-0.0546193
-0.0509893
-0.0616988
-0.0610724
-0.0888408
-0.0888107
-0.0940556
-0.0490939
-0.0428813
-0.0600922
-0.0531392
-0.0850473
-0.0927645
-0.0856303
-0.040358
-0.0298932
-0.0494888
-0.0371321
-0.0490246
-0.0826373
-0.0612594
-0.0255309
-0.0149221
-0.0327019
-0.0204447
-0.0208195
-0.0524382
-0.0343541
-0.0129346
-0.0108927
-0.0176621
-0.0139396
-0.0144536
-0.0313954
-0.0282804
-0.0110845
-0.0130626
-0.0138681
-0.0158691
-0.0646031
-0.0698555
-0.089319
-0.0474914
-0.0563393
-0.0604846
-0.0683188
-0.0828247
-0.0912853
-0.0913438
-0.0588106
-0.0629909
-0.0678396
-0.0630123
-0.0906501
-0.0944742
-0.113576
-0.0632876
-0.0625408
-0.0618638
-0.0627432
-0.0964283
-0.119668
-0.124542
-0.0616613
-0.0544135
-0.063678
-0.0588465
-0.0804768
-0.121175
-0.10181
-0.0504975
-0.0377906
-0.0549356
-0.0414181
-0.0613023
-0.0959573
-0.0876751
-0.033662
-0.0225124
-0.0377988
-0.031182
-0.0420586
-0.0872224
-0.0876038
-0.0198403
-0.0159817
-0.0298428
-0.0276198
-0.038615
-0.0874586
-0.0860511
-0.0158405
-0.0178413
-0.027532
-0.0300691
-0.0906408
-0.0522344
-0.0619335
-0.0673357
-0.068976
-0.0449249
-0.0495116
-0.0881651
-0.0677916
-0.0854733
-0.0681635
-0.0642261
-0.0530068
-0.0633078
-0.109741
-0.0913259
-0.108039
-0.0633328
-0.0648125
-0.0658759
-0.0693963
-0.130074
-0.113115
-0.128554
-0.0662322
-0.0645088
-0.0695433
-0.0685816
-0.115989
-0.132645
-0.137224
-0.0605064
-0.0447753
-0.0673501
-0.0609726
-0.102206
-0.136536
-0.130521
-0.0409677
-0.0354739
-0.0584482
-0.0508171
-0.100387
-0.127519
-0.116836
-0.0347373
-0.0335579
-0.0484237
-0.044148
-0.0977631
-0.113413
-0.108411
-0.0335401
-0.036193
-0.0442878
-0.0496434
-0.0562331
-0.0437797
-0.0516115
-0.0347918
-0.0431005
-0.0323874
-0.0354833
-0.0834341
-0.0555474
-0.075188
-0.0471576
-0.0605159
-0.038934
-0.0534404
-0.111753
-0.0855215
-0.112484
-0.0643651
-0.0695876
-0.0591093
-0.067479
-0.130029
-0.118357
-0.120429
-0.06932
-0.0662682
-0.0670192
-0.0588852
-0.136916
-0.11719
-0.101028
-0.0645785
-0.0575319
-0.0553513
-0.047182
-0.126945
-0.0941737
-0.0776849
-0.0547834
-0.0470728
-0.0457917
-0.0465878
-0.109032
-0.0749377
-0.0758949
-0.0451785
-0.0441759
-0.0485157
-0.0568858
-0.103823
-0.0794826
-0.0964824
-0.0456254
-0.0537867
-0.0604996
-0.0703424
-0.0398098
-0.0322327
-0.0433139
-0.0243594
-0.0239926
-0.0261965
-0.0286735
-0.0457393
-0.0470702
-0.0533741
-0.0239315
-0.0221658
-0.0291228
-0.028045
-0.0401097
-0.0535344
-0.0508204
-0.0210342
-0.0173864
-0.0268962
-0.0225249
-0.0314967
-0.049134
-0.0407372
-0.0161462
-0.0126592
-0.0208709
-0.0156509
-0.020091
-0.0370482
-0.0259178
-0.0116392
-0.00970469
-0.0140376
-0.0105595
-0.0111131
-0.0223792
-0.0143578
-0.0095962
-0.010598
-0.0100244
-0.0104508
-0.0107425
-0.0130045
-0.0122844
-0.0111886
-0.013202
-0.0110992
-0.0137709
-0.0138501
-0.0128317
-0.0159064
-0.0139181
-0.0160643
-0.0147655
-0.0176671
-0.046027
-0.0445266
-0.0501915
-0.0299026
-0.0310526
-0.0327377
-0.02875
-0.0543175
-0.0493597
-0.0464574
-0.0309316
-0.0287536
-0.0270072
-0.0229856
-0.0519912
-0.0466617
-0.0493181
-0.0275197
-0.0231723
-0.0222628
-0.020727
-0.0358438
-0.0483019
-0.0499806
-0.0382568
-0.0481671
-0.0358391
-0.03788
-0.0236394
-0.0335978
-0.0380793
-0.0264017
-0.0339945
-0.0232578
-0.0267763
-0.0155525
-0.0267476
-0.0218965
-0.0103577
-0.0108784
-0.0127642
-0.0140658
-0.0134492
-0.0211131
-0.020883
-0.0115953
-0.0145754
-0.0149995
-0.0187019
-0.0172981
-0.021551
-0.0259455
-0.0156848
-0.0188706
-0.0200675
-0.0238392
-0.051167
-0.0349917
-0.0433303
-0.0332448
-0.0293123
-0.0291214
-0.0305363
-0.0479375
-0.0469204
-0.0553333
-0.0277485
-0.0236775
-0.0308799
-0.02963
-0.0511414
-0.0568273
-0.0570145
-0.0228278
-0.0211393
-0.0285603
-0.0248808
-0.0405877
-0.0510035
-0.0540447
-0.0367215
-0.0541571
-0.0373497
-0.0410215
-0.0318332
-0.0380372
-0.0486607
-0.0303181
-0.0451282
-0.0276522
-0.0345225
-0.0243573
-0.0412331
-0.0361737
-0.014481
-0.0156461
-0.0192445
-0.0211168
-0.0249873
-0.0350308
-0.0346241
-0.0165675
-0.0203506
-0.0221501
-0.0256225
-0.0305327
-0.0356942
-0.0414241
-0.0217455
-0.0254206
-0.0266232
-0.0281608
-0.0383408
-0.0227572
-0.0289049
-0.0249786
-0.0286977
-0.0199076
-0.0231157
-0.0535323
-0.0325026
-0.0441523
-0.0295923
-0.0299095
-0.0250851
-0.0285824
-0.056701
-0.0474748
-0.0501239
-0.0290311
-0.0249841
-0.0285224
-0.025841
-0.0498946
-0.048372
-0.0401081
-0.0236668
-0.0208227
-0.0247098
-0.0229372
-0.0411559
-0.0374483
-0.0321985
-0.0202668
-0.0199702
-0.0229703
-0.0243516
-0.0346405
-0.0314685
-0.0323497
-0.0203439
-0.0227697
-0.025165
-0.0277902
-0.0355996
-0.0334983
-0.0380319
-0.0238801
-0.0270631
-0.0286534
-0.0304971
-0.0435556
-0.0397491
-0.0439581
-0.0278103
-0.0284449
-0.0308366
-0.0309473
-0.0179917
-0.0174549
-0.021548
-0.011788
-0.0104801
-0.0119953
-0.0113494
-0.0165619
-0.0221884
-0.0213533
-0.0100966
-0.00918716
-0.0110496
-0.00996314
-0.0131199
-0.0203971
-0.0168707
-0.00894764
-0.00885078