/*--------------------------------*- C++ -*----------------------------------*\
  =========                 |
  \\      /  F ield         | OpenFOAM: The Open Source CFD Toolbox
   \\    /   O peration     | Website:  https://openfoam.org
    \\  /    A nd           | Version:  10
     \\/     M anipulation  |
\*---------------------------------------------------------------------------*/
FoamFile
{
    format      ascii;
    class       volScalarField;
    location    "4";
    object      nut;
}
// * * * * * * * * * * * * * * * * * * * * * * * * * * * * * * * * * * * * * //

dimensions      [0 2 -1 0 0 0 0];

internalField   nonuniform List<scalar> 
12920
(
1.09953
1.79678
3.49923
4.7388
2.93719
4.56315
2.47488
2.52565
1.87417
1.57394
1.2376
1.05871
0.895822
0.774465
0.669811
0.610654
0.57112
0.535769
0.490011
0.404773
3.20092
4.70486
8.24477
7.55175
6.37707
6.05014
4.5444
5.09348
3.78203
3.73725
3.09034
2.89109
2.41248
2.12794
1.80806
1.61154
1.40507
1.22951
1.10759
1.08107
2.20468
7.0761
6.22627
7.78274
6.85501
6.17007
5.48979
5.23625
4.61713
4.81094
3.94633
3.83242
3.34318
3.152
2.76448
2.36984
1.89642
1.52854
1.30868
1.26191
9.80068
12.3464
6.73185
7.1266
6.51712
5.63571
4.76012
4.70174
4.0332
4.34154
3.69009
3.64897
3.29044
3.12011
2.74289
2.29613
1.86705
1.55728
1.44391
1.42264
7.01222
4.91341
7.16792
3.92002
5.0359
4.90386
3.83888
4.24763
3.47532
3.985
3.28239
3.34375
3.00573
2.86703
2.45294
2.10946
1.86508
1.69356
1.59791
1.44032
1.32164
8.38716
6.86015
7.12879
4.72646
5.27884
3.48678
4.29264
3.14599
3.49594
2.9944
3.09592
2.83161
2.72772
2.48786
2.28779
2.06011
1.77951
1.58843
1.41594
6.87371
10.9296
10.5305
9.57795
7.22075
6.7628
4.76018
4.99
4.17863
3.94871
3.20876
3.1549
2.72509
2.69943
2.46625
2.27285
1.97093
1.66632
1.49503
1.33988
4.7767
10.5761
8.6297
10.2156
6.31218
6.85937
1.65139
1.36585
1.32645
1.30469
1.02539
0.796142
0.626258
0.619723
2.41862
2.01074
1.68244
1.38148
1.22473
1.13191
2.70869
11.4671
8.79343
7.95525
5.48295
2.28061
0.732639
0.476675
0.452149
0.42328
0.35934
0.286436
0.222321
0.18414
0.619483
1.83713
1.42153
1.19939
1.09994
1.02922
7.75925
14.0664
11.338
8.45785
5.24398
1.71971
0.433321
0.229393
0.243906
0.240724
0.244672
0.202527
0.185663
0.223197
0.620273
1.52797
1.26306
1.135
1.07552
0.972394
2.97313
11.2607
9.1101
8.56462
5.79266
2.07822
0.492982
0.290761
0.274227
0.244651
0.206186
0.205222
0.18355
0.13562
0.436886
1.3387
1.27189
1.26185
1.23752
1.08257
5.5516
10.4539
7.85858
7.93121
5.72891
1.79872
0.442043
0.287042
0.309622
0.309611
0.233854
0.295491
0.261844
0.144645
0.43264
1.80364
1.75719
1.71477
1.504
1.10889
8.87062
13.7394
9.45312
8.09073
5.47926
5.56386
1.48237
1.31029
1.03395
0.909477
0.741416
0.811609
0.733931
0.601179
1.9436
1.97508
1.94752
1.87733
1.62725
1.1787
3.0437
14.4977
7.17994
7.89959
4.61499
5.62323
4.31418
4.29459
3.37839
3.35015
2.73849
2.59782
2.12888
2.03307
1.89618
1.93444
1.88514
1.86833
1.72829
1.33116
6.84706
7.3598
6.35465
7.40198
4.69083
5.84734
4.30498
5.08406
3.70067
3.70877
2.9443
2.82463
2.42776
2.29131
2.08622
2.04009
1.94918
1.85163
1.68083
1.30339
17.7769
15.4426
7.40227
7.92079
3.71489
4.35109
3.10228
3.95859
2.95064
3.24907
2.63435
2.77774
2.46878
2.452
2.24223
2.158
1.98816
1.72812
1.5177
1.24898
4.55208
13.5954
11.3659
8.24898
4.30783
4.79768
2.70478
3.67411
2.51696
3.02031
2.40177
2.68086
2.44691
2.51714
2.28397
2.10568
1.80105
1.52308
1.39064
1.26462
2.90757
10.3191
7.77744
7.37548
4.23064
4.88691
2.48687
3.46994
2.39664
3.30568
2.46858
2.82112
2.35142
2.3933
2.06144
1.90547
1.64851
1.47586
1.38344
1.31149
2.92606
8.53005
7.94837
8.7987
5.17631
5.50172
2.38413
2.49218
1.69489
2.43728
2.01988
2.39312
2.02751
2.05653
1.76836
1.6337
1.43043
1.31502
1.27007
1.28234
0.545315
3.19659
2.88525
3.85279
2.23831
1.7882
1.40507
1.57563
1.13972
1.07886
0.802466
0.899725
0.813956
0.830005
0.744423
0.693096
0.630578
0.57734
0.560977
0.513163
2.47375
8.37658
11.8328
18.0552
15.9401
17.1647
15.729
16.4166
11.8
9.7065
7.52644
6.5397
5.63842
4.9907
4.488
4.3012
3.84527
3.35823
3.03243
2.77574
11.7498
32.3819
35.6542
33.3621
30.9814
29.7175
27.6045
26.7843
24.7881
23.3901
21.2727
19.621
17.7917
16.5155
15.3992
14.8562
14.4631
14.2408
13.7374
13.6309
9.08618
34.0496
30.1829
33.631
31.8383
31.315
28.9795
28.2848
26.6156
25.7848
24.1781
23.1375
21.6992
20.6674
19.3709
17.9716
15.7738
14.0776
13.1606
14.1206
20.2752
39.1897
29.7445
31.0987
30.2405
29.3278
25.8173
25.7796
24.8194
24.6767
23.7852
23.1216
21.9926
21.1225
19.5686
17.5853
15.2087
14.1335
14.2916
15.1124
27.5164
37.7316
30.866
25.6203
28.197
22.3904
20.6388
20.8182
20.3816
21.3278
21.394
21.4258
20.8953
20.0526
18.4833
17.0199
15.8751
15.5232
14.9546
14.5069
5.24228
37.8128
38.7551
26.5954
24.2399
22.1563
21.0401
19.7563
18.9772
19.3025
19.0773
19.3681
19.2897
18.8608
18.1963
17.5302
16.3686
14.8893
13.5758
13.6513
18.5479
46.7001
43.3689
35.8924
26.9673
27.6356
26.7926
23.3331
21.0895
19.2126
17.96
17.4914
17.4212
17.4555
17.0665
16.385
15.1657
14.0545
13.4343
13.6666
14.3159
34.4979
42.9916
39.8955
27.7352
26.6899
21.7477
23.1719
22.1735
20.0757
16.9175
14.3121
13.2194
13.521
15.7116
14.7335
13.5519
12.5386
12.2611
12.6862
10.1369
32.0679
39.4527
33.3337
25.9561
22.2707
21.582
22.6625
23.2221
21.2186
17.9775
14.7607
12.9706
11.714
12.9632
13.4921
12.3261
12.0115
12.046
12.2921
15.5648
42.3733
43.0404
36.2472
28.4122
23.1594
19.032
16.8943
17.7387
17.8857
17.0191
13.4856
12.7476
12.3989
12.5279
12.5959
12.0315
11.8528
11.5143
11.4386
20.7787
30.034
31.7554
30.0302
26.1999
22.3145
20.0655
19.9592
18.842
16.5531
14.6818
12.861
8.28894
8.93054
9.11498
11.9138
12.4233
12.3087
11.7999
10.8765
10.2684
31.6502
36.4491
33.1937
31.5679
25.3347
21.8811
21.7
21.1473
18.8678
16.3883
17.0643
12.6966
10.2386
10.2694
15.368
14.9787
14.178
11.9141
10.0063
21.1505
49.5774
52.3854
40.1005
34.5912
31.457
24.2729
22.2504
20.3759
17.0437
16.9182
17.1756
15.5749
13.4145
17.2893
17.2804
16.5463
15.3227
12.4844
10.0071
27.3978
37.9769
54.4156
40.2111
34.2446
31.7378
26.4931
22.7806
20.2425
19.3631
18.786
18.2411
17.2329
17.0417
17.4079
17.6562
17.2937
16.467
14.438
11.1204
28.8722
38.0715
43.0049
36.7575
30.2207
30.0501
27.1445
25.7001
22.9052
22.1163
20.7778
20.2627
19.0215
18.6368
18.1506
18.0628
17.4732
16.154
14.1749
11.4747
37.4445
40.4798
38.1219
34.0793
24.7275
24.827
23.467
23.4263
21.3784
20.7341
19.8264
20.0351
19.4219
19.1546
18.3185
17.5998
16.4429
14.7658
12.8823
11.6459
11.3236
42.5876
34.6967
28.8004
17.2747
18.159
16.296
18.2515
17.5637
18.0523
17.9006
18.4855
18.4765
17.9784
16.8702
15.9096
14.6406
13.6575
12.8704
12.6493
1.72553
38.336
40.5937
29.8266
21.8572
17.0643
14.0817
16.5564
16.9133
17.9722
17.7819
17.7789
17.0775
16.5269
15.6126
15.0167
14.3303
14.0235
13.8392
13.8054
18.5175
26.4865
39.3665
35.8595
25.8048
13.0619
10.9438
8.93513
12.748
14.7201
15.3679
15.678
15.1912
14.8613
14.212
13.8182
13.329
13.313
13.6139
13.9008
4.88299
5.0305
15.278
21.6827
9.87564
5.02207
3.35466
2.76931
3.16636
4.40347
5.02179
6.28106
5.671
5.71866
5.00973
4.66921
4.25285
3.96811
3.86959
3.67247
9.20597
16.4867
17.9781
21.8089
19.2855
18.7091
18.1091
17.182
14.6151
12.1171
9.38113
8.16448
7.02562
6.19792
5.45426
4.94252
4.52004
4.26792
4.0883
4.02757
47.7686
46.0428
46.8439
45.4732
43.2375
42.5444
40.4966
38.6219
35.1767
31.8779
28.1549
25.3052
22.8026
21.2354
20.1092
19.7935
19.8201
20.0569
20.2435
20.6435
42.104
53.7159
49.9745
49.981
48.1779
46.9953
44.395
42.5644
39.8042
37.2954
34.3846
32.032
29.6606
27.8109
25.9775
24.4584
23.017
22.5053
22.3733
23.1043
30.3106
50.3544
46.4768
48.8965
49.4771
46.8934
43.1379
41.6054
39.3499
37.4876
34.9759
33.0462
30.8315
28.9425
26.8084
25.043
23.7081
23.4338
23.5136
23.7854
16.6396
58.7674
54.6092
47.7927
48.8214
41.5309
39.3183
37.5885
35.804
34.9638
33.2562
31.9475
30.0379
28.4169
26.6483
25.4136
24.5397
24.0197
23.4044
23.0071
19.8066
60.9032
61.8805
47.7975
45.239
41.2721
39.0748
36.5346
34.1632
32.8171
31.2223
30.2148
28.9456
27.7467
26.5699
25.5338
24.3148
23.1174
22.3638
22.2822
68.7902
64.3523
62.5078
54.0001
47.4292
45.3324
43.0406
38.1605
34.453
31.7273
29.3975
28.1942
27.1108
26.2762
25.1989
24.1011
22.9429
22.0878
21.7035
21.5398
20.6727
61.6249
62.5464
56.1209
47.0969
46.7448
42.1576
40.3411
35.7394
31.6821
27.7539
24.85
23.7904
23.1792
22.7424
21.8165
21.0135
20.4479
20.3135
20.4153
13.898
48.4477
58.9781
51.7482
46.8064
43.2546
41.7499
39.4904
36.3348
32.3028
27.5277
23.6735
21.8216
20.8075
20.2433
19.4264
18.9925
18.9781
19.0554
19.383
30.1639
59.0586
59.2628
54.5599
49.1211
43.3546
38.3755
33.9859
32.1044
30.1297
26.2038
21.2542
20.4419
19.3467
18.1284
17.3146
17.1498
17.1777
17.2465
17.7604
44.9669
47.8084
49.5571
49.2968
46.86
42.7365
38.6692
35.2518
31.3499
28.7634
9.69715
8.53868
10.7143
11.1648
12.9841
16.586
17.1462
17.3609
16.7994
17.0413
21.8585
43.9429
52.9631
52.5096
50.7089
45.5419
41.9083
38.5231
34.0493
29.4328
26.668
22.8337
18.0207
15.8949
17.3756
20.7075
20.0346
18.442
16.5724
16.2243
21.5058
56.2615
63.1363
58.2122
53.4241
49.357
42.9923
38.3253
33.4867
29.2721
28.0554
26.3398
23.954
22.2593
24.7284
23.8995
22.2197
19.7035
17.2858
16.3325
15.9889
62.4326
68.9042
62.3038
54.7966
48.8611
41.8953
37.5278
34.307
33.0713
31.3529
30.0687
28.4631
27.5132
26.6638
25.4568
23.7793
21.5721
19.1633
17.05
28.092
63.6545
64.8983
56.4362
50.1769
46.0106
41.4844
39.0118
36.2709
35.3273
33.7428
32.3297
30.3973
28.8938
27.3503
25.9044
24.0123
21.7439
19.4627
17.4852
45.2036
52.5939
52.8153
50.8757
44.3043
41.4199
38.3726
36.7312
34.7839
33.9912
32.8473
31.8444
30.174
28.5582
26.665
24.8902
22.881
20.9365
19.1592
18.0905
26.9231
51.9643
50.5973
42.6994
33.6447
33.1614
31.711
32.0469
31.2646
31.0858
30.3926
29.568
28.1406
26.4472
24.5822
23.0392
21.6267
20.548
19.8274
19.1181
11.2742
51.1629
51.3236
39.2308
32.0815
29.9989
28.8434
29.7873
29.6915
29.2989
28.2755
27.1453
25.6676
24.4164
23.1586
22.3133
21.611
21.2279
21.0066
20.7116
53.3777
45.9478
48.3293
41.6909
28.6889
25.4674
21.3449
23.0001
23.5837
24.277
24.0245
23.3288
22.3817
21.6586
20.8673
20.403
20.0435
19.9448
19.9656
20.0716
19.8695
17.9555
17.7786
22.4445
17.2529
12.2699
7.64621
5.98834
6.75856
8.41157
8.24909
8.75564
8.03292
8.12104
7.09001
6.82482
6.34957
5.99187
5.82377
5.42217
3.34554
33.6932
33.1273
27.3462
21.6449
19.7016
18.3479
16.7922
13.8625
10.5847
8.49878
6.90803
5.97434
5.09418
4.5925
4.32511
4.29348
4.43398
4.42821
4.47461
16.3559
49.7058
54.276
52.817
49.6616
48.2731
45.3826
41.8579
36.8479
31.9104
27.4565
24.4695
22.3586
21.2779
20.7638
20.8717
21.1633
21.4142
21.7197
21.9295
25.4598
62.8856
63.5541
60.2871
57.7197
54.834
51.1676
48.2413
44.2747
40.2183
36.38
33.2399
30.6588
28.7564
27.3351
26.4085
25.8244
25.5928
25.541
25.599
32.7296
64.5252
62.6752
61.3834
59.7324
55.5485
51.2741
48.6647
45.1823
41.7765
38.3177
35.3832
32.8081
30.7214
29.0208
27.8023
27.0327
26.6303
26.3863
26.0188
60.0697
64.9433
65.2242
60.1512
58.915
52.3458
49.2659
46.0299
42.954
40.3344
37.4658
35.0471
32.7591
30.847
29.3042
28.1765
27.355
26.6038
26.046
25.4103
55.7262
66.8394
68.0894
60.7348
57.4643
52.3922
49.13
45.3212
41.3532
38.618
35.9006
33.805
31.8205
30.1651
28.7587
27.5624
26.4868
25.5331
25.0035
24.3654
45.8727
73.9368
72.5503
64.6382
59.6531
55.0915
50.812
45.5177
40.2438
36.9477
33.6203
31.6821
29.6898
28.2614
26.9438
25.8397
24.9721
24.2992
23.931
23.4316
52.5979
77.0393
75.0282
68.0962
61.1664
58.4688
53.3232
47.606
40.8713
35.7533
31.6653
28.8175
27.0704
25.5055
23.3741
23.3208
23.0843
22.9175
22.711
22.5599
69.2651
73.5753
73.5274
64.7611
59.823
55.5463
52.1456
45.9468
39.9474
34.4592
29.723
26.3039
24.1768
22.4298
20.2809
20.3161
20.8844
21.0861
21.2633
21.4738
44.9899
64.2591
70.0446
66.9271
61.0571
54.99
49.1164
42.1758
37.3653
33.3552
27.9521
23.5907
21.1115
19.3078
17.7799
18.2503
18.9338
19.2908
19.5882
20.1857
43.5811
60.9817
65.9273
64.1293
59.992
54.1858
48.4755
41.8708
36.5551
32.6348
13.9786
10.2518
12.3309
13.6648
15.3338
18.06
18.7352
18.8956
18.8853
19.1651
38.6196
58.0777
68.8784
66.6158
63.0148
56.9489
51.7045
44.3123
37.4764
32.7603
28.8068
23.7277
20.1309
18.6322
19.0626
20.5848
20.0354
19.0817
18.3692
18.1768
18.8114
65.5336
71.0983
70.5604
65.0983
59.1936
52.1115
44.8688
38.1974
33.5906
30.9361
28.3494
26.347
25.0972
25.0554
23.8276
22.0128
20.1705
18.8817
18.1627
70.4942
74.6512
79.6742
73.657
66.1527
58.0177
50.1643
45.459
41.1259
39.1881
36.3876
34.5231
32.4209
30.5024
28.4466
26.3449
24.109
21.9303
20.1524
18.802
75.752
74.1528
79.1829
69.0834
61.705
54.1808
49.1156
45.8915
43.2287
41.4244
39.158
36.8105
34.3007
31.743
29.2911
26.944
24.5904
22.3335
20.5517
19.0285
44.5642
67.2866
68.8912
64.0545
57.0305
50.6708
46.4576
43.7253
41.8861
40.3405
38.4243
36.0529
33.5327
30.7881
28.2973
25.9284
23.8642
21.9583
20.6342
19.3131
17.5837
52.4721
63.1267
53.4991
47.1769
43.1565
41.3101
39.8251
38.7511
37.2744
35.5563
33.1119
30.6963
28.2039
26.157
24.4011
23.0859
21.935
21.1441
20.2168
33.1615
63.7064
55.7054
45.9398
40.0618
38.1684
37.5605
36.5292
35.6332
33.7807
31.9173
29.7629
27.845
26.2469
24.9816
24.0837
23.3936
22.8653
22.4317
21.9927
40.2435
58.7551
55.0747
44.1507
30.9194
28.8252
27.1943
28.2689
28.3635
27.5027
26.3269
24.7992
23.6785
22.8136
22.1286
21.6991
21.2851
21.0242
20.8358
20.8852
6.84208
25.6518
24.7767
23.8686
17.0786
13.3173
11.6641
10.3578
9.80547
9.47313
9.29135
8.93343
8.54275
8.3423
7.44011
7.21303
6.81403
6.47441
6.30462
5.59005
10.9775
38.1934
38.6389
28.5034
16.8617
19.5085
12.0495
15.5109
7.32235
6.65285
4.42368
3.79886
3.01134
2.76537
2.48504
2.5058
2.45369
2.33921
2.26275
2.10743
35.7375
58.8668
65.1
57.5596
50.556
45.5856
41.4656
36.4041
31.3763
25.946
22.4584
19.9717
18.7771
18.2953
18.2219
18.4761
18.7494
19.0219
19.2421
19.6571
81.8243
49.6822
71.6055
47.3073
58.5542
53.9243
48.7583
45.4022
40.6642
35.9671
32.0885
28.9057
26.8146
25.2929
24.4061
23.8242
23.5155
23.3055
23.1759
23.1914
14.9893
52.3305
70.6845
63.2243
59.8906
54.6888
48.8999
46.0716
41.763
37.8302
34.1891
31.133
28.9033
27.1603
25.9856
25.0916
24.5037
23.9645
23.5925
23.2747
71.615
53.0128
69.5426
30.9474
58.1429
34.5104
47.9866
45.5253
40.6026
37.3981
33.9997
31.2916
29.132
27.4207
26.2002
25.1993
24.4714
23.7412
23.2255
22.6936
104.2
83.3669
73.5993
56.3278
50.8205
53.8101
47.4715
44.5002
39.0412
35.6595
32.639
30.3223
28.2743
26.6899
25.3897
24.3081
23.4464
22.6751
22.1191
21.6152
99.5007
81.4094
77.9103
61.0538
60.9268
55.7482
46.8675
44.0151
37.6849
34.2573
30.6013
28.3404
26.2275
24.7781
23.6601
22.8273
22.2084
21.6742
21.2668
20.9494
56.8707
71.9351
69.8373
73.7432
60.6108
56.766
50.7349
44.6767
35.7465
31.4145
27.0004
24.6537
22.449
21.1812
20.771
21.176
21.0217
20.8408
20.5788
20.471
49.8596
77.8913
71.8826
69.0686
61.2942
55.977
48.7975
39.5435
31.8305
26.8168
22.6689
20.1152
18.3183
17.1431
16.9093
19.0587
19.5827
19.6663
19.697
19.8592
44.4892
60.5123
71.9213
70.8843
61.1707
53.6542
45.5715
35.0277
29.5783
25.2265
20.4554
16.7373
15.507
15.1372
15.5291
17.7037
18.3122
18.5113
18.7427
19.1338
55.6288
71.0153
73.7996
69.6677
62.0989
54.3895
45.3385
34.8314
29.7093
26.0037
19.1968
14.0161
12.9081
13.6616
14.8466
17.47
17.8173
17.832
17.8401
18.0907
62.3341
68.2237
75.5351
72.9639
66.0746
58.1393
48.8558
36.5836
29.9786
25.6365
21.5952
18.0881
16.8903
16.1439
16.583
18.3034
17.7612
17.1918
16.8977
16.9241
51.8501
74.8199
75.9325
76.8074
65.5414
60.1691
50.1046
40.6642
33.1796
29.3762
26.4551
24.4758
22.8924
21.6048
21.7059
20.3069
18.6527
17.4688
16.78
16.5138
24.9846
81.9534
76.544
79.2987
53.1723
58.4647
49.6804
44.7415
39.9859
37.5353
34.5184
32.2953
29.9622
27.3531
24.7769
22.3434
20.2203
18.5593
17.3983
16.6845
62.1584
87.6385
69.5849
74.0232
56.2159
54.875
48.6266
45.3484
42.4474
40.0461
37.3127
34.3306
31.5008
28.2273
25.413
22.7243
20.602
18.8534
17.5884
16.6391
43.4463
80.5934
55.4462
69.6806
42.4412
51.865
42.2129
43.5712
41.3775
39.1939
36.5124
33.2375
30.4049
26.8648
24.3646
21.8527
20.1979
18.7257
17.7563
16.8986
70.9937
73.9537
44.1122
56.3714
39.1794
45.3188
42.5261
40.2574
38.3193
36.1069
33.3191
29.8903
27.2655
24.4891
22.7418
21.1311
20.1319
19.1886
18.5433
17.9645
80.0315
68.3593
58.9494
46.6807
35.2371
39.5096
37.9972
36.4078
34.2114
31.7388
29.2583
26.6813
24.864
23.307
22.3399
21.5826
21.0556
20.6299
20.239
19.9128
46.5535
68.8039
60.9478
45.4843
23.5821
27.7715
27.9242
28.0372
26.456
24.8308
23.0868
21.581
20.5574
19.9004
19.466
19.2841
19.1394
19.0397
18.9671
18.9871
52.4292
42.3781
19.4492
24.9662
8.03168
12.861
6.63338
10.2846
5.13873
9.36822
4.31024
5.32977
3.63063
3.70899
3.04585
2.90659
2.56847
2.29084
2.16233
1.92131
27.5359
27.6307
10.4894
33.5413
29.7435
31.3112
8.71329
22.1714
9.42745
8.80786
28.1781
24.3926
7.36151
7.3276
10.7012
29.4282
26.4235
31.0841
9.88507
32.9138
28.7938
8.49571
25.3104
21.3336
8.48585
6.99688
27.0078
21.8032
0.480905
0.487782
0.274943
14.7142
16.7073
13.0663
13.2426
0.443678
0.255605
0.285006
17.2762
18.6465
13.3888
14.9181
0.425042
0.305144
0.312437
18.4977
17.4529
15.2975
15.4118
0.370525
0.310488
0.295975
16.9571
15.1038
15.2927
14.5106
0.305323
0.286362
0.241326
14.361
12.3855
14.0067
11.7139
0.229091
0.209894
0.186382
11.763
10.5997
10.8008
10.1406
0.192685
0.201905
0.235132
10.185
9.07421
10.5159
10.183
0.143251
0.227389
0.149809
8.77863
9.1429
9.73443
9.58707
0.247735
0.475068
0.287026
12.2457
12.1683
12.7701
13.853
0.239612
0.268988
0.24806
12.1397
13.1346
13.9419
13.8124
0.240209
0.244873
0.229851
13.3946
13.7121
13.5547
12.4422
0.245216
0.215651
0.18734
13.7775
13.6411
12.0218
11.5986
0.226819
0.18501
0.18814
13.3483
11.5285
11.4222
10.8864
0.173623
0.20087
0.194497
10.5852
9.52862
10.6281
7.26149
0.226442
0.159755
0.152616
10.0005
10.1271
6.59418
7.93082
0.154125
0.157768
0.130305
9.75524
9.58398
8.03643
8.27543
0.306204
0.466906
0.301365
13.5318
14.8936
14.6295
16.3441
0.276755
0.29366
0.312059
15.0833
15.0503
16.5779
16.8438
0.256306
0.315134
0.31145
14.8032
13.5155
16.7138
15.7279
0.209725
0.304744
0.251827
12.9892
12.0033
15.1424
13.1498
0.202732
0.236242
0.262431
11.7707
11.1329
12.9452
13.8544
0.206739
0.28273
0.275134
10.9053
7.85695
13.6691
10.8642
0.134521
0.246419
0.131906
6.41932
6.93469
9.3739
6.91722
0.119331
0.12231
0.098482
7.14999
7.6201
6.99476
7.00595
0.297323
0.55916
0.402276
14.218
15.9685
12.1848
14.2758
0.303012
0.382197
0.33132
16.2176
16.6669
14.653
14.8317
0.312895
0.321571
0.305055
16.6256
15.7926
14.8055
14.0032
0.248904
0.289922
0.219498
15.2132
12.9834
13.3073
11.6599
0.272506
0.214114
0.256118
12.7904
14.2278
11.9705
13.682
0.287348
0.272957
0.263563
14.1761
11.7346
13.8231
12.7732
0.156143
0.253799
0.204551
10.5198
8.13074
12.3075
10.6336
0.103379
0.195075
0.108926
8.04194
7.22641
10.0647
8.45585
22.1391
19.6143
18.379
37.0821
36.5597
34.7063
32.3912
23.4444
18.3868
19.5846
36.1984
34.6996
31.9057
31.3155
21.8062
19.8669
19.7242
33.9522
31.3857
31.0409
29.6175
18.8485
19.5252
18.3582
30.401
26.9573
29.0344
26.5211
15.4683
17.6726
14.8087
25.8259
22.6676
25.3535
21.5727
13.3826
13.8084
12.9865
21.9052
20.3813
20.597
19.8234
11.9033
13.2974
12.8336
20.0003
19.1932
19.7846
18.9793
11.713
12.418
11.9148
19.0415
18.8801
18.6526
18.0434
17.0959
19.3103
18.7439
33.9791
30.9468
33.777
31.4513
17.5412
18.6061
17.8786
30.2669
29.4047
30.6842
28.3749
17.8721
17.4521
16.0141
29.1543
28.1559
27.5937
25.5692
17.4829
15.6036
14.8564
27.8005
25.8191
25.1716
16.1668
14.5445
14.4204
13.1294
24.6818
20.8132
14.5661
11.9886
12.3162
12.5933
9.2893
19.7778
18.991
12.0236
12.6273
12.7476
8.97031
10.0734
19.0635
18.5209
12.9356
13.3027
11.8689
10.103
9.81258
18.2149
17.6902
13.2529
13.2013
19.9837
21.9307
22.0371
34.6604
32.8174
37.3135
35.9235
19.2837
22.0049
21.5353
32.116
29.643
35.1324
32.4457
17.1083
21.1953
19.5709
28.7494
26.1878
31.4661
28.3123
15.1782
18.8018
16.6391
25.8716
16.3308
27.314
24.7592
13.3062
16.4507
16.7861
14.7784
11.8522
24.0215
21.1012
9.37992
16.2832
12.7061
11.403
11.0644
19.6454
15.3606
8.86164
11.1773
9.09172
11.0785
11.0713
14.3467
13.0365
8.93678
9.0159
8.4065
10.9934
11.5942
12.8062
12.6821
21.7384
21.0548
20.6268
37.6294
36.062
37.228
35.4216
21.4058
20.5355
19.835
35.2553
32.592
34.4684
31.6107
19.6607
19.531
18.0157
31.6341
28.4371
30.674
27.5467
16.5102
17.1168
15.4268
27.3445
25.1384
26.4839
24.9461
17.3981
15.7428
17.1107
24.8537
23.1831
25.0071
24.6879
13.9788
17.1249
15.6448
22.0363
18.148
24.2447
22.0634
10.4865
15.0699
13.0627
17.0899
15.1946
21.3568
19.0077
8.74292
12.3979
10.4764
14.7625
13.8833
18.3736
17.858
40.0964
39.0954
36.1978
50.5484
46.8375
48.1989
43.758
37.2504
35.5248
34.2283
45.4435
41.3789
42.4286
39.0734
33.3782
33.7435
31.8471
40.0325
36.0389
38.036
34.9131
28.6868
31.1251
28.2102
34.7763
31.0754
33.8557
30.2529
24.3929
26.9391
23.1263
29.9484
27.0974
28.9081
25.5179
22.1795
22.2487
21.4081
26.4506
24.8879
24.7892
23.2003
20.9775
21.2459
20.2801
24.4493
23.1934
22.6681
21.2097
20.3784
19.9445
19.1629
22.869
21.9794
20.8239
19.8438
34.81
38.0262
34.8794
47.446
42.7483
46.6341
42.0182
32.5421
33.9439
31.2527
41.392
38.1605
40.6094
36.9413
30.636
30.3996
28.1778
37.1986
34.4466
35.8923
33.2342
29.8838
29.5074
28.9663
31.8948
28.3024
31.1004
31.0102
23.0961
24.7793
24.1418
27.2755
22.6318
25.774
24.6974
20.5119
9.73806
12.5757
23.6807
22.2599
8.77248
12.9925
19.6647
13.1071
13.5859
21.7528
20.3565
13.6163
14.3831
18.7071
13.6181
13.8362
20.0067
19.2903
14.614
15.3101
36.1477
41.5636
39.3132
46.9469
42.7314
49.6434
45.3568
32.3269
38.2977
34.9773
41.3072
37.3791
43.6698
38.8739
28.6031
33.8344
30.4188
36.2328
33.3306
37.4516
33.8526
21.9166
17.1876
28.4692
25.9732
24.689
3.90678
30.0811
9.21502
9.01508
14.7625
2.75933
13.0745
2.55432
10.6375
10.3111
19.6832
15.6451
7.1235
10.3594
20.1783
17.2494
11.0679
14.84
13.841
11.2229
12.6103
16.8462
16.3511
12.1894
13.694
13.8315
13.0051
14.3193
16.3003
16.6431
39.5487
41.8221
39.105
50.1937
45.7946
50.5647
46.0008
35.1875
37.9489
34.5429
44.0749
39.1187
44.3026
39.5153
30.5216
33.419
29.9272
37.6422
33.8041
38.002
33.882
27.183
28.8612
27.2552
32.8083
30.0944
32.8542
30.8279
24.1449
27.1655
26.2888
29.0232
25.2221
30.2933
28.2827
18.9723
25.7461
23.4668
23.8658
20.6607
27.6043
25.4741
16.2893
22.7634
20.5038
19.976
18.6692
24.8748
23.2118
15.2233
19.9604
19.6436
18.4126
18.0744
22.926
22.7132
47.5305
49.7561
44.6051
50.861
44.0565
48.6961
40.3636
41.4276
43.0457
39.1457
42.1084
36.348
38.2957
33.5932
35.7258
37.9802
34.6175
34.4761
30.265
32.2649
29.0657
30.8322
33.504
29.8577
29.1607
25.7237
28.003
24.5717
26.9458
28.5491
25.3169
24.6938
22.3111
23.4102
20.4263
24.6622
24.5583
22.619
21.7504
20.1206
19.5696
17.6659
22.7838
22.0017
20.486
19.6366
18.4811
17.2588
16.4926
21.544
20.1047
19.2213
18.228
17.6547
16.2914
15.7924
43.7264
48.2324
42.9266
48.0374
39.5859
47.2198
38.9896
38.4549
41.3729
37.452
37.619
33.2552
37.131
32.9879
34.3534
36.3638
33.6592
32.0357
29.2941
32.0952
29.7496
29.4804
32.2455
15.5046
28.2555
24.6464
28.7854
22.7171
24.3327
13.3426
11.0669
23.3835
20.2186
20.549
16.294
21.7352
11.5873
13.8509
19.2247
16.9789
15.5266
13.8822
19.6451
14.1615
14.6164
16.5834
15.9883
13.7235
13.9622
18.6934
14.8064
15.4283
15.8384
15.4949
14.0575
14.2503
43.4581
51.0712
45.7811
47.5955
39.3587
50.0889
41.2142
37.7185
43.8736
38.7726
37.4005
33.0796
38.8379
33.5567
33.6826
37.3301
33.8384
32.1593
29.7802
32.208
29.4472
16.257
32.9107
28.892
28.8855
22.6627
28.5593
25.1382
10.5047
27.1311
22.0984
20.4092
15.8737
23.7519
19.8994
11.7978
20.6213
17.8731
14.9962
13.3642
18.7887
16.6214
13.3473
17.4491
16.8393
13.2747
13.6503
16.3374
15.8392
14.6928
16.7478
16.9136
13.7762
14.0606
15.7014
15.4192
46.2708
52.4085
46.8094
51.0003
41.8474
52.6787
43.8272
38.9909
44.9358
39.7672
39.3594
33.7431
41.4917
35.5072
33.7217
38.1316
33.9344
32.2869
29.1338
33.6121
29.623
29.9428
32.9303
30.7735
28.2688
25.3562
28.7656
26.4017
24.9958
30.122
27.9329
24.2459
21.02
25.5877
23.5251
20.7682
27.2605
25.2823
20.0264
18.1184
23.0277
21.6773
18.8835
24.737
23.2595
17.7755
16.9967
21.2867
20.2649
18.2234
23.0079
22.6902
16.773
16.1734
20.0298
19.3895
41.5471
46.3973
37.6204
44.3058
30.6546
41.3487
33.2459
33.627
35.5968
31.0583
34.7147
29.4012
31.5497
27.5627
27.876
29.7507
26.2248
27.8869
24.5959
26.2973
21.735
23.5878
25.0587
21.6065
23.5176
20.9538
20.2979
17.1475
20.5977
20.5362
17.9806
20.187
18.7434
16.4165
15.0405
18.7339
17.3512
16.3515
18.307
17.423
14.9633
15.7438
17.3639
16.1505
15.6498
17.1201
16.5902
15.879
15.7424
16.7149
15.4887
15.0932
16.3958
16.1518
15.6395
15.2852
36.919
44.8336
36.3703
40.532
32.7275
39.8881
32.3181
30.8157
34.6153
30.6823
31.1665
27.428
30.9194
27.2752
26.3286
29.6272
26.8837
26.031
20.9372
25.5726
19.6767
21.64
25.8783
21.142
19.4035
16.1017
17.962
14.3088
17.536
19.3163
15.2957
15.3236
13.8355
13.3657
11.4074
15.6165
14.3151
13.0358
13.7696
14.9715
11.326
12.9369
15.2502
13.1671
13.7541
15.4143
15.5615
13.8846
14.8952
14.8532
13.8369
13.9361
15.4805
15.1332
14.9083
14.6744
36.6778
47.9508
38.3916
39.7125
32.509
39.3357
33.6058
30.7765
36.0822
31.1908
31.0624
27.3809
31.8082
27.8991
26.952
29.9048
26.758
25.6792
19.7978
26.5316
21.5914
21.0915
25.7951
22.427
18.0901
14.4122
20.1375
17.0509
15.0381
21.1666
17.7541
13.446
11.405
16.2453
14.4103
12.75
16.855
15.6517
11.3011
12.8786
14.2472
15.2979
13.5635
15.609
15.3827
13.8161
14.8322
15.7317
15.7964
13.8123
15.2553
14.9451
14.8486
14.6298
15.6804
15.2399
39.021
50.8601
41.481
34.3922
34.0818
43.9157
36.8391
31.3314
39.0667
33.116
32.1129
27.9806
34.4815
29.4068
26.6186
31.3033
27.713
26.7764
22.4468
27.9435
25.2066
22.6355
26.8975
24.6604
21.1228
18.3175
24.4133
22.5182
18.8113
23.8856
22.1
17.5899
15.9752
21.8663
20.5988
17.0412
21.6777
20.5749
15.8151
16.5099
20.2376
19.4559
16.3474
20.2289
19.312
16.6312
16.3398
19.1429
18.3488
15.5718
19.0567
18.3656
16.1711
15.5925
18.0494
17.3232
28.2396
28.6671
25.664
28.7472
27.1148
30.0711
26.3872
25.1343
27.8978
18.3908
26.1408
25.8943
29.7688
5.29977
19.8546
20.0367
12.6882
2.94158
22.4594
17.3758
3.25839
31.0594
33.045
32.504
33.1492
32.1078
32.4221
31.8238
29.1587
29.4848
31.2477
27.7852
30.9354
27.0788
29.9434
25.9042
26.6318
32.4675
17.5706
31.2822
5.23527
29.1501
20.3726
2.88789
20.8811
11.3003
17.7098
3.24049
24.1471
21.6549
23.3947
20.1184
23.2338
21.2406
24.3806
20.6975
15.2191
18.4288
8.4853
2.74628
17.1992
16.1653
2.5816
14.3093
15.7109
8.07702
5.29773
16.1101
14.8439
3.61221
23.595
27.9369
26.6871
25.8674
26.4169
25.2653
24.1407
22.1475
23.9955
25.3987
21.833
25.0619
21.2717
22.7319
15.4172
2.65099
18.9551
6.46232
16.4331
2.47823
17.4893
14.5286
4.80512
16.3229
6.4989
15.0371
3.42093
16.4127
16.1928
12.5361
17.0206
2.97553
20.2525
3.31867
12.7793
29.0624
29.1246
28.485
31.112
27.8309
30.8268
30.1142
26.2911
23.6278
27.5137
27.5476
25.8882
23.3356
28.9701
22.135
26.4741
17.9924
32.322
4.19167
31.3419
26.8506
15.7067
2.95017
12.1421
16.2382
3.34922
12.0739
20.4565
30.0754
32.2962
32.7538
31.8648
32.0553
31.2543
31.0109
26.8631
28.3039
24.7063
30.5275
23.5103
29.9692
28.0445
8.20143
8.06859
10.588
4.08756
11.6398
2.64278
7.31517
18.8153
21.6021
24.1451
26.0814
19.8012
20.8604
24.5982
17.0487
16.4853
22.8489
21.3382
18.1617
15.2251
23.0525
8.62131
2.67708
7.52595
13.5845
2.53225
9.96843
11.7492
7.66535
3.7388
6.72019
9.12147
2.60536
6.79018
10.2366
18.6708
26.603
21.962
25.2711
20.8168
24.9331
19.7471
16.8479
21.4697
15.9462
23.5506
14.9932
23.2522
17.8296
1.30077
1.68519
1.44052
7.86457
9.5988
8.08904
9.59729
1.36655
1.47725
1.50058
12.0653
13.6101
11.4418
13.1244
1.26231
1.45673
1.44156
13.0904
12.904
13.4396
13.0879
1.14193
1.44873
1.30555
11.8734
10.677
12.366
11.4677
0.895584
1.13099
1.01412
9.32046
8.78636
10.5556
9.8404
0.677493
0.925542
0.81078
7.71169
6.74841
8.98284
8.0446
0.602567
0.691348
0.605384
6.20767
6.49056
7.12624
6.66056
0.55612
0.594258
0.479513
6.38035
7.7661
6.19595
8.08793
1.74993
2.28037
1.40343
8.49029
10.8332
8.22978
10.1627
3.18148
0.614532
0.620387
3.17953
3.87508
2.65542
0.46873
5.54285
0.445316
0.351426
5.87546
6.40075
4.99133
0.351814
6.25741
0.444176
0.419937
6.78837
6.7176
6.26569
0.421416
5.77174
0.402769
0.404395
6.22787
6.06799
5.90523
0.38911
5.10812
0.339291
0.353091
5.28552
5.03796
5.28946
0.336902
4.01063
0.260579
0.274959
4.4617
4.27223
4.31418
0.245245
3.88803
0.214604
0.224487
3.67048
3.482
3.89897
0.224331
3.09536
0.177979
0.204129
2.66004
2.52215
3.27836
0.185896
0.552115
0.636153
0.4808
6.52436
7.24355
7.13106
8.65462
1.27027
1.81218
1.35302
7.72381
9.46898
7.59457
9.41736
2.80581
0.34811
0.452318
2.54871
2.89011
2.49979
0.354412
3.42842
0.227793
0.233317
3.38004
3.68014
3.21464
0.218255
3.87831
0.243297
0.206573
4.40721
4.4878
3.8601
0.202463
4.03631
0.242428
0.196346
4.62047
4.62748
3.96286
0.197721
4.05722
0.240887
0.205001
4.49002
4.37979
4.05408
0.208515
3.18072
0.178397
0.210295
3.51176
3.09893
3.72963
0.19103
3.27762
0.207793
0.165859
3.53676
3.77874
2.91287
0.178953
3.35918
0.20659
0.206158
3.60125
3.45827
3.4658
0.196343
0.479534
0.554445
0.411963
7.25901
8.68076
6.73492
7.99188
1.53119
2.05311
1.38686
7.89145
10.0491
8.1848
10.5991
3.47972
0.395157
0.496067
2.75583
3.3519
2.82439
0.382831
5.38864
0.283238
0.294695
4.74161
5.04932
5.03213
0.293134
5.73719
0.270188
0.29876
5.30151
5.26274
5.74671
0.297809
4.91766
0.230853
0.275448
4.68099
4.44983
5.20067
0.26075
4.59743
0.205144
0.226686
4.16089
4.14662
4.57294
0.224895
4.76728
0.209879
0.233471
4.17586
4.25598
4.81275
0.233321
1.89232
0.148647
0.200971
2.25823
1.6895
2.82532
0.158406
2.38333
0.137723
0.128208
2.33298
2.49801
2.13884
0.128594
0.336925
0.405741
0.320287
5.78042
7.34011
5.54655
7.51932
1.33074
1.97147
1.39618
8.49781
10.4281
8.43794
9.13901
3.43057
0.368049
0.460939
2.92043
3.50999
2.92267
0.378567
4.83584
0.287463
0.288741
4.85884
5.26637
4.50329
0.279706
5.79406
0.31242
0.290328
5.97775
6.01022
5.69396
0.297156
5.53489
0.301206
0.3065
5.84898
5.63759
5.76262
0.299233
4.69506
0.237654
0.227203
4.57141
4.79615
4.36487
0.235109
5.38447
0.300356
0.297812
5.50521
5.47209
5.42693
0.29947
4.17575
0.222383
0.265808
4.43557
3.79327
4.55878
0.235682
3.14766
0.138358
0.168097
2.68225
2.861
3.18484
0.155763
0.308236
0.465062
0.374705
5.63541
7.9229
6.40886
8.95147
1.37753