/*--------------------------------*- C++ -*----------------------------------*\
  =========                 |
  \\      /  F ield         | OpenFOAM: The Open Source CFD Toolbox
   \\    /   O peration     | Website:  https://openfoam.org
    \\  /    A nd           | Version:  10
     \\/     M anipulation  |
\*---------------------------------------------------------------------------*/
FoamFile
{
    format      ascii;
    class       volScalarField;
    location    "4";
    object      omega_0;
}
// * * * * * * * * * * * * * * * * * * * * * * * * * * * * * * * * * * * * * //

dimensions      [0 0 -1 0 0 0 0];

internalField   nonuniform List<scalar> 
12920
(
96.2101
101.375
96.975
93.6743
91.4398
90.7557
88.9842
87.4278
82.8313
75.9714
69.4696
64.227
59.6391
55.0794
50.861
47.7143
45.6688
42.7455
38.7681
33.3334
150.914
168.833
163.675
150.405
131.152
120.153
109.428
104.935
96.9763
91.5596
84.6815
79.197
72.6453
67.0186
61.9631
58.1058
54.5838
51.345
48.6729
47.4728
146.618
170.243
159.997
155.824
136.677
122.729
109.222
104.102
97.8755
95.6547
91.6397
89.264
85.5913
83.0054
79.0928
73.602
66.2503
59.1446
53.404
50.5447
364.825
234.634
156.393
142.368
130.104
112.105
98.0874
93.5729
89.9594
89.3431
87.8249
86.9944
85.1161
83.5289
79.9417
73.5334
66.3021
59.42
55.3787
52.6055
258.255
181.766
143.39
120.025
111.268
97.5746
88.4153
84.4684
79.9103
79.3088
78.7986
78.9068
78.4405
76.9918
72.8716
67.5075
63.5312
59.767
57.5618
53.3588
129.314
166.038
164.375
140.693
125.652
104.385
94.5047
85.3006
78.3808
74.4795
71.3232
70.5759
69.7128
68.5244
66.5249
63.9215
61.1093
57.053
53.6098
49.5142
262.122
219.428
210.963
190.967
164.153
133.588
114.327
98.7221
88.3058
78.2424
70.4822
66.2819
64.0278
62.9721
61.7771
59.596
56.5416
52.5907
50.0267
47.4374
200.9
219.689
216.774
205.302
175.634
151.404
234.835
172.939
157.232
143.459
125.119
107.617
96.1826
93.3786
60.3302
55.9244
51.7249
47.8734
45.9038
44.8669
190.444
232.161
207.029
156.916
126.762
182.282
319.434
254.336
269.643
257.262
235.453
207.165
182.279
160.033
94.7355
54.1593
48.3946
45.1345
43.8961
42.904
305.696
286.456
224.428
166.466
133.242
197.826
289.355
201.404
204.295
205.926
204.913
181.823
164.357
171.003
95.7774
51.8182
47.4838
45.5537
44.5774
42.2899
189.23
231.485
219.502
168.889
137.838
199.656
296.079
243.711
244.48
231.938
211.996
213.737
186.372
136.042
84.9535
50.2053
49.2758
48.9216
48.0231
43.762
298.744
201.285
191.752
157.463
139.83
213.349
327.279
258.506
259.853
258.983
220.553
235.656
218.904
162.337
90.6137
58.8278
58.3981
57.1942
52.7591
43.1441
328.613
268.058
212.46
160.253
138.409
126.64
198.901
166.787
153.188
133.524
117.156
118.515
116.921
107.209
63.2853
63.2655
63.2233
61.9899
57.0101
45.676
157.897
280.701
210.733
155.667
132.738
122.618
109.696
99.4738
88.0011
79.4667
73.1139
68.3241
64.3285
62.9772
63.0583
63.8505
64.3993
63.8591
61.2501
51.6282
176.69
181.961
166.008
146.952
125.144
116.415
107.054
101.028
90.8166
83.9114
77.8429
74.4773
71.0541
69.1217
67.5367
66.8586
66.0696
63.8653
60.2895
50.6463
466.423
297.555
204.367
155.373
120.654
102.674
91.8235
86.0857
80.8454
77.3699
74.5495
73.1565
71.3031
69.9346
68.1463
66.3646
64.082
58.9479
54.3402
46.6802
256.295
276.976
227.534
163.311
117.842
94.9142
79.0854
73.02
69.5591
67.8049
67.0657
66.9296
66.5716
65.692
63.7448
60.3592
56.039
50.7142
47.5037
43.831
135.479
206.979
175.715
146.392
116.604
96.2457
76.4263
68.8276
65.9205
65.7254
64.7599
64.1573
62.583
61.1742
58.6237
55.6734
52.395
49.219
47.1741
45.2658
183.364
170.012
192.398
174.54
138.703
113.765
88.0998
70.6926
60.5674
58.1411
58.1134
58.0779
57.3598
56.3011
54.2675
52.0099
49.6566
47.6848
46.7018
46.7114
43.2168
107.388
128.732
125.724
115.395
101.897
94.9991
84.0967
63.8666
48.9196
42.3922
40.758
40.392
39.8916
39.1181
37.895
37.1234
36.3064
36.1145
35.5738
53.259
63.9777
62.3537
57.046
55.0914
54.6108
53.7375
52.2329
47.9654
42.9973
38.7355
35.8809
33.4571
31.1468
29.575
28.7432
27.2492
24.6042
21.8754
19.7664
230.578
149.473
107.419
81.7448
67.5431
60.8548
55.0502
52.7793
48.5331
45.6048
41.6845
38.939
36.2449
34.3961
32.6317
31.1603
29.913
29.0231
28.884
28.0319
234.696
183.174
116.109
85.8731
68.8728
59.3903
52.2559
49.8774
47.1804
46.1794
44.2736
43.2902
41.9409
41.2451
40.4082
39.7232
38.876
36.8873
34.3828
30.2265
195.466
144.346
104.22
82.9834
66.477
55.8933
49.7753
47.004
44.9066
44.4583
43.7702
43.593
43.1717
43.1651
43.0425
42.6319
41.5705
38.0772
34.4883
30.0889
365.567
112.449
87.7923
68.7453
60.7899
55.0077
50.6595
46.8772
43.6304
42.1462
41.3946
41.3297
41.1849
41.0739
40.6774
39.7106
38.333
35.6182
34.3092
31.3491
137.095
122.804
91.0108
82.0346
72.2291
61.0608
53.8922
49.0584
43.5063
40.1812
37.7179
36.6185
35.8783
35.4368
34.8166
33.9366
33.3306
32.1001
30.9941
27.6531
237.278
140.383
114.478
106.553
93.8543
72.0823
58.5815
52.631
45.3595
40.9219
37.0518
34.7623
32.9575
31.799
31.0946
30.2576
29.6094
28.4108
27.6977
25.965
185.475
151.273
120.69
113.501
107.079
88.7619
85.7818
66.4113
51.5882
45.7942
41.5148
39.7155
37.0879
33.5119
28.9318
27.9458
27.2068
26.5847
26.3629
25.757
127.066
159.191
118.746
88.654
72.1845
67.9388
69.0671
56.9725
49.1376
46.0153
44.9026
43.3369
41.4902
37.0733
29.384
25.9741
25.2536
24.6005
24.4323
24.2488
119.779
134.469
112.736
85.8813
72.0811
71.5152
68.1901
60.5544
52.5763
47.4848
44.4601
43.8864
38.396
32.0196
26.9816
25.209
24.892
24.8673
24.9017
24.5889
250.114
218.918
124.694
92.2722
77.9921
75.2845
70.0201
63.7377
58.7648
56.1792
53.8627
54.6977
51.5903
32.8811
28.5547
26.2776
26.3555
26.6095
26.5376
24.9916
204.811
150.697
116.049
91.5008
77.2407
76.2007
73.088
66.6321
58.047
55.7083
54.0395
46.6744
45.2869
40.6149
33.7436
27.7091
28.3376
28.6614
28.2827
25.1633
232.929
195.415
116.987
87.4197
75.6333
69.2888
71.0958
65.1166
55.5508
50.6168
41.7751
37.2055
36.1566
35.811
30.5673
30.5427
31.3691
31.6784
31.3918
27.6315
474.437
292.846
119.25
83.8752
72.8811
67.0257
63.1132
57.5417
50.4272
44.1537
38.9071
35.8825
34.226
33.6291
33.3977
33.542
34.0942
34.2464
34.2032
31.729
241.819
141.85
96.286
79.5795
72.4168
65.5126
59.5534
53.2171
47.6793
43.7667
40.9121
39.1778
38.1201
37.2494
36.7156
36.0429
35.7784
35.0944
34.5179
31.1806
259.385
236.518
115.94
85.6585
75.3231
65.9511
56.6308
48.3331
44.3031
42.277
40.4703
38.8095
37.4829
36.3719
35.6282
34.8796
34.2328
32.6469
31.3676
26.9561
187.213
152.866
105.953
90.1503
75.9595
65.6785
54.6028
44.922
40.9353
38.5966
37.1452
35.4258
33.9701
32.8587
31.9039
30.5591
29.2803
26.9659
25.4501
22.9506
105.737
118.482
78.9897
68.5547
57.7822
57.2156
50.5877
41.5866
37.2825
34.6818
33.2706
32.2971
31.2338
30.4511
29.497
28.3515
27.0954
25.499
24.2396
23.0025
356.401
130.078
102.112
77.9519
57.5088
56.3775
53.1271
45.5838
37.3502
32.6594
30.3682
29.2012
28.5138
28.0531
27.5066
26.7749
26.1048
25.2067
24.3451
24.1174
76.6232
58.5219
71.4357
68.9397
62.3841
50.9947
40.8677
33.1837
27.4104
25.1819
24.7263
24.7099
24.4714
24.0041
23.3598
22.4844
22.067
21.6874
21.689
21.5792
109.454
83.3606
80.066
68.4759
61.0851
59.478
57.6303
54.5803
49.1743
44.3951
40.64
37.8373
35.4269
33.2219
31.3136
29.3188
27.0815
24.525
22.834
22.0536
316.583
208.298
120.805
82.8646
64.3142
55.5517
48.9142
46.2613
42.2615
40.3142
37.3635
35.8167
33.8825
32.6872
31.2405
29.8967
28.7399
28.0753
27.9173
27.536
449.112
280.887
107.49
75.7824
60.3269
51.3551
45.1959
42.9303
40.4928
39.5572
37.7923
36.9983
35.8183
35.2344
34.4215
33.6587
32.6961
31.0474
29.7173
27.9768
164.204
125.564
92.2816
69.0386
55.5092
46.8394
41.9456
39.7772
38.079
37.7093
36.9143
36.7281
36.2404
36.0446
35.5636
34.689
33.3196
31.0663
29.4227
27.5135
235.322
105.905
71.1283
55.5523
50.1748
43.2457
40.9034
38.1188
36.0139
35.4547
34.7157
34.6875
34.3332
34.0462
33.4299
32.4987
31.4852
30.0764
29.3475
27.769
215.667
139.134
82.2012
60.4177
55.1834
46.3628
42.4248
38.7339
35.0562
33.2222
31.6404
31.0662
30.4322
30.0497
29.4965
28.8785
28.3351
27.4235
26.7326
25.2537
245.382
158.362
104.998
79.6339
66.1479
52.752
45.5787
40.3637
35.7037
32.7289
30.5877
29.2126
28.1501
27.493
26.9118
26.3773
25.9736
25.4544
25.2238
24.6617
192.098
139.602
109.958
89.7217
75.2595
61.92
56.8886
48.7974
39.4866
35.6705
32.5994
31.0513
29.0239
27.2495
26.0234
25.3728
25.1434
25.1403
25.256
25.1848
161.771
149.969
98.4102
71.3528
56.7569
52.6028
52.3347
45.4266
39.9928
37.3972
35.5314
33.9669
31.268
28.0686
25.6328
25.2588
24.9031
24.8119
24.8497
24.8478
114.179
123.418
106.091
75.0084
58.3884
54.4825
50.8558
46.2576
42.2457
39.3983
37.9314
36.4818
30.7469
26.8518
25.4895
26.2681
25.9976
25.8272
25.6996
25.272
261.296
171.823
111.976
77.7912
62.2063
56.1496
53.1172
49.58
46.8255
44.3713
87.817
70.6364
44.4812
34.5989
30.0292
27.9509
27.1547
26.3519
25.7507
24.3682
191.072
151.113
106.649
80.7794
67.5985
61.3946
56.4578
51.1985
45.8863
44.347
42.7637
40.2803
38.4807
35.6513
30.0591
27.8326
27.3306
26.4737
25.3341
23.1054
217.536
187.234
120.89
81.995
68.2526
60.1385
56.6655
49.8562
42.3772
38.3278
34.4304
32.5077
31.7048
30.9245
29.2713
28.7948
28.5726
27.8012
26.5449
23.5201
132.741
156.918
125.828
76.1388
62.3218
55.0986
49.7943
43.9226
38.6044
35.0278
32.5852
31.3985
30.7439
30.5816
30.4979
30.3635
30.085
29.2962
28.4497
25.7528
235.519
128.666
89.6163
67.0171
58.915
51.9623
46.847
41.91
37.8409
35.5333
33.7968
33.0181
32.4284
32.0141
31.5717
30.9847
30.412
29.1536
28.1453
25.2253
163.109
155.851
101.635
72.4096
60.3116
51.7334
44.9247
40.0105
36.9041
35.1488
33.5943
32.5733
31.6624
30.9707
30.253
29.3801
28.4222
26.679
25.4738
22.9213
166.659
125.448
81.0976
63.9953
56.4713
47.6296
41.909
36.8449
34.476
32.6434
31.1928
29.9185
28.7925
27.9552
27.0306
25.9614
24.8309
23.5006
22.615
21.6031
187.259
110.54
71.803
54.2019
47.8297
40.1921
37.4625
32.9825
31.0621
29.527
28.33
27.5807
26.7139
26.2183
25.5074
24.8719
24.1093
23.391
22.7925
22.4943
232.154
133.019
108.106
74.2864
52.9005
40.5923
35.9479
32.1968
29.3432
27.5365
26.2715
25.8079
25.2985
25.177
24.9284
24.7978
24.6305
24.6298
24.6946
25.2408
111.146
88.6964
78.9479
71.1871
62.8157
48.3199
38.1907
32.5075
29.9432
28.7892
28.4147
27.8441
27.324
26.7482
26.1831
25.571
25.5278
25.4115
25.4379
25.2626
68.6883
105.655
104.782
86.9217
68.6633
62.6087
58.3129
53.2821
47.7915
43.0924
39.5468
36.5179
34.0424
31.7111
29.5421
27.3129
25.4596
24.0435
23.206
22.856
177.962
194.718
149.26
96.7634
74.302
59.6755
53.4371
49.0824
45.993
43.7574
41.4735
39.881
38.0993
36.7583
35.3403
34.3052
33.7273
33.6419
33.8535
34.474
262.033
155.86
104.623
73.3406
62.9185
51.7436
48.291
44.514
43.1185
41.1782
39.801
38.4722
37.3899
36.4922
35.7022
34.9328
34.2376
33.567
33.1288
32.933
138.834
124.827
90.9146
66.4705
58.0009
47.5328
44.9167
41.2985
40.4421
38.9672
38.2458
37.4407
36.8035
36.1281
35.4605
34.6126
33.8156
32.9237
32.4168
32.0124
439.613
154.987
78.7928
56.887
52.1449
42.903
42.5034
38.5211
37.7125
36.3686
35.9208
35.3478
34.8705
34.3586
33.8386
33.2521
32.8173
32.3168
32.0963
31.6697
216.775
186.144
106.101
59.3847
55.3342
44.6508
43.4597
38.8047
36.2852
34.1925
33.1715
32.4675
31.9676
31.567
31.1983
30.8437
30.6122
30.3082
30.1512
29.981
193.517
161.854
104.996
70.1415
62.0563
48.3642
45.4407
38.8492
36.1384
33.1792
32.1298
30.9562
30.4863
30.0199
29.6378
29.4188
29.4106
29.4483
29.618
29.784
404.121
167.371
112.238
80.0229
68.9168
56.4292
51.346
44.8045
38.1359
34.9957
32.7692
31.4016
30.2434
29.5258
30.793
29.7993
29.7338
29.8944
30.27
30.5088
162.653
142.182
93.2107
65.1201
56.2154
51.1513
50.272
44.5433
39.885
37.5723
35.1559
33.5771
31.7955
30.7318
31.5097
31.5589
30.6249
30.5375
30.65
30.8536
161.152
141.331
103.679
68.98
58.5207
52.417
48.0686
44.5665
41.959
39.5329
37.6205
35.1858
32.9846
32.2659
33.1824
32.966
31.6812
31.2493
31.163
31.1416
217.351
154.764
102.244
69.8609
60.0313
53.0501
49.4386
46.7884
44.6464
43.0731
65.0922
56.9645
43.6915
38.1405
35.8128
33.6527
31.8175
30.827
30.3332
29.9732
174.556
147.564
104.754
75.8339
67.4402
59.2564
53.836
48.375
44.3962
42.5947
41.1502
39.6101
38.9102
37.1521
35.1508
33.1796
31.1749
29.7221
28.7521
28.1934
141.881
147.302
123.668
81.5651
70.5545
58.6484
54.0677
45.9452
40.345
38.0153
36.5265
35.8293
35.1767
34.4364
34.5563
32.6354
31.2592
29.7309
28.5741
27.5565
192.969
170.55
125.223
74.1908
63.948
51.9806
47.2124
40.4623
37.7273
35.253
34.7965
34.2627
34.3181
34.1876
33.8426
32.9481
31.9794
30.6446
29.6284
28.2117
536.788
165.746
93.8492
64.9581
58.3146
47.884
44.9557
39.6086
37.5196
35.6288
35.1405
34.6175
34.4779
34.082
33.581
32.6235
31.6395
30.2224
29.1824
27.6705
274.064
170.146
100.466
67.8927
57.8996
47.043
43.4858
38.5812
37.2838
35.271
34.7825
33.7532
33.3625
32.5012
31.756
30.6574
29.6441
28.4242
27.587
26.755
171.932
149.213
79.2195
59.5772
52.7079
43.0969
40.9468
36.0153
35.4302
33.208
32.64
31.2603
30.6756
29.7774
29.1028
28.3029
27.6465
27.0893
26.7743
26.6111
209.734
120.71
76.5596
57.0096
47.6412
38.6242
37.5249
33.1875
32.903
30.9852
30.5853
29.5727
29.2446
28.8057
28.5741
28.3506
28.154
28.1062
28.1115
28.3649
183.273
158.478
133.21
82.0988
57.1784
39.6575
35.4015
31.6587
31.2215
29.6563
29.4665
29.0756
29.1335
29.2744
29.6095
30.1261
30.7601
31.4372
32.2348
33.2156
93.7856
99.5482
93.8306
75.2106
62.6646
46.3497
37.0365
32.9291
31.5572
30.1189
29.5422
28.394
27.7506
26.983
26.4211
25.9545
25.9975
25.8609
25.911
25.5977
113.966
133.423
123.311
90.8545
69.9967
61.9622
55.3545
49.1937
43.4271
38.1775
34.0641
30.3997
27.8057
25.7672
24.4922
23.6577
23.2481
23.0228
22.9285
22.9623
278.286
292.908
194.179
106.312
97.3468
70.5417
73.2239
62.2707
64.0525
57.1351
57.2064
52.3171
51.665
48.6542
48.496
47.5827
48.1778
48.7249
49.7679
50.7538
527.709
168.075
116.211
80.9914
77.058
59.5479
62.5567
53.6233
56.4698
50.9771
52.0047
48.3341
48.413
46.2695
46.3148
45.3821
45.6141
45.6213
46.0489
46.6183
131.235
137.075
105.361
72.3259
74.0331
56.1623
60.6641
51.3728
54.3251
49.3151
50.4613
47.3926
47.4646
45.5615
45.44
44.5002
44.6346
44.6112
45.0362
45.281
221.626
182.021
96.6695
75.4794
66.1648
52.0504
56.33
46.5599
50.4645
45.6703
47.5267
44.9868
45.5873
44.1363
44.3346
43.6981
44.0219
44.0416
44.4766
44.7275
444.483
237.921
127.648
69.0085
73.9663
52.3741
59.7615
48.0743
49.4898
44.7385
45.2039
43.1954
43.2787
42.278
42.2483
41.9148
42.2307
42.4659
43.0629
43.5127
356.887
156.613
106.433
72.8053
74.3643
53.9848
58.1855
46.873
47.687
42.9291
43.994
41.9994
42.6037
41.6798
41.5873
41.3021
41.8101
42.1415
42.8113
43.1785
301.249
155.357
121.775
78.5582
82.524
64.7233
62.5957
52.5366
50.9734
46.5314
47.1065
45.3103
45.912
45.1432
44.7558
42.5034
42.4289
42.7556
43.4366
43.7264
300.485
144.516
105.549
71.8142
69.046
59.6957
63.6509
58.607
57.4659
54.4647
53.7682
52.7446
52.9538
52.819
51.7148
45.0401
43.4128
43.341
43.7143
43.9277
291.17
167.291
125.36
73.224
74.8473
62.4892
62.3443
64.5863
62.5797
57.336
54.8127
55.2657
57.6806
57.7359
53.8618
45.5153
43.4726
43.1829
43.514
43.7551
204.194
139.77
112.304
71.5599
72.0904
60.3402
61.376
65.7091
64.0621
57.8954
56.7206
56.0998
59.6397
59.4591
54.4369
45.3222
42.9243
42.3445
42.567
42.6095
261.543
166.04
125.222
77.0188
80.2877
66.1901
65.1214
64.5857
62.8115
60.1296
58.9051
58.6042
59.1085
58.4371
54.3442
44.8917
42.0298
40.9059
40.953
40.9436
248.983
141.883
126.38
79.5466
83.5621
63.7602
63.2029
54.2937
53.7245
51.6471
52.8798
52.1735
52.6797
51.7179
47.5541
43.4919
41.6746
40.5417
40.3847
40.1653
158.516
159.23
133.168
74.7282
80.1099
55.6173
57.9245
45.5016
47.3919
43.1357
45.6496
44.4306
46.1069
45.4644
45.0265
43.2085
42.3132
40.954
40.7714
40.3338
293.682
195.668
110.247
73.5489
69.9697
52.0417
54.969
44.3371
46.0701
42.4819
44.38
43.3721
44.6294
43.9872
43.973
42.5909
41.8421
40.5557
40.3261
39.8243
205.831
154.638
118.996
71.5503
69.8288
50.4062
52.8498
43.299
46.0406
41.7362
44.0302
41.9616
43.2414
41.7841
41.9591
40.6421
40.418
39.5873
39.6709
39.4922
374.38
199.688
96.3594
77.2124
62.9642
50.1586
50.0488
41.4474
44.4853
39.8966
42.1996
39.7182
40.9047
39.4373
39.9096
39.099
39.3501
39.0935
39.4223
39.3813
231.534
157.283
91.7768
79.2745
56.4071
50.6955
46.7637
39.8769
42.9664
38.5814
41.1011
38.5923
40.1973
39.0101
40.0636
39.7247
40.4213
40.5511
41.1022
41.437
240.524
172.533
149.584
84.6451
65.0117
50.1156
46.1592
39.3211
43.7984
39.1105
42.7436
40.2516
42.6819
41.8503
43.6652
44.0373
45.5843
46.2807
47.3448
47.7913
161.926
135.711
113.729
78.9699
56.9973
40.7942
35.211
32.6914
31.5107
29.7622
28.6874
27.3928
26.6469
26.043
25.6829
25.434
25.3824
25.2771
25.1711
24.6817
38.1257
45.4299
88.6033
38.7085
37.4547
43.3157
106.562
37.1653
89.3023
73.8783
37.1465
35.6042
105.913
77.4626
88.072
44.7375
45.1043
42.7782
96.5412
42.4499
43.182
77.3587
45.2767
45.2103
94.8806
77.9018
43.5849
43.6054
251.772
271.956
213.064
82.1699
68.1716
78.4347
67.435
267.869
205.298
216.368
63.7039
55.8148
63.8288
55.4449
261.301
223.643
228.328
54.8099
51.9687
53.7732
50.7291
241.892
227.568
222.348
51.6891
51.053
50.0388
48.6333
216.005
218.806
200.233
50.7764
49.0251
48.4843
48.7416
186.522
185.501
169.173
48.5237
47.2926
48.7843
46.0576
166.343
173.806
180.27
46.9111
44.4963
43.5722
39.1411
134.354
174.721
136.295
42.9549
36.7307
38.1007
32.8159
212.741
294.493
240.179
81.6627
71.1391
82.2157
73.835
202.439
235.418
232.944
67.9846
59.8803
71.774
67.2805
205.43
232.487
224.545
57.9303
53.4498
66.3276
63.2661
206.158
216.389
200.453
52.2443
49.5343
62.1368
58.3666
194.505
199.4
202.809
48.9765
48.2965
57.9645
58.2516
161.554
208.516
190.677
48.2776
45.6744
58.2863
58.6248
174.042
163.426
144.478
42.6969
37.2743
55.4683
37.1121
136.726
144.228
128.544
36.2775
32.0362
34.8589
30.4828
245.675
316.478
264.035
82.5088
73.6848
84.4076
75.4504
244.788
259.181
261.949
71.2314
65.698
72.7297
65.0309
237.845
262.47
261.382
64.5655
62.4542
63.5599
61.533
213.571
259.148
233.966
61.7653
58.7539
61.4606
60.9435
211.624
226.104
230.954
58.2451
58.7493
60.0332
54.0561
208.378
238.055
232.394
59.1647
61.3026
53.3983
53.9518
138.674
217.226
153.797
60.5305
39.5977
54.004
47.8199
123.6
145.88
122.168
35.9745
30.5744
43.9703
35.4485
266.638
360.238
285.992
87.6823
77.7629
96.0676
83.2508
258.124
276.056
255.786
74.8867
66.0775
78.7512
70.0153
260.498
252.495
240.141
64.2946
61.7159
67.5072
62.3547
229.351
231.742
192.98
61.5172
61.0674
61.1032
55.5137
228.726
188.554
199.985
59.9471
51.99
52.2751
44.3334
230.96
205.508
205.168
50.8278
50.4448
43.2359
42.6121
168.511
202.196
186.969
50.3518
47.0014
42.6411
42.8788
128.782
182.892
136.028
45.0564
38.5844
43.1376
41.7674
60.5606
66.702
59.9726
55.0396
48.8899
53.4666
48.5547
50.4192
57.2382
50.4412
46.984
42.4293
46.926
42.8575
46.3539
48.8844
45.919
41.1991
38.8029
41.7765
39.5643
45.28
45.2461
43.9159
38.4539
37.2767
39.0487
37.9601
43.6702
43.7636
43.9876
36.7936
35.7315
37.7598
37.3789
42.141
44.0186
41.3455
35.3673
33.5821
37.0262
33.3743
38.5923
39.0391
34.4704
32.7441
29.9855
31.7984
28.3161
32.7021
33.3964
29.6723
29.0423
26.6945
27.4825
25.4238
62.7969
69.3955
65.6838
53.508
49.6247
54.8052
52.6698
54.291
64.3048
61.0869
48.4227
44.8637
51.9504
49.9952
48.5947
60.3125
57.542
43.7898
41.2298
49.3746
47.3368
44.9585
56.5131
53.6209
40.5098
38.9789
46.9307
59.6036
43.9297
53.4674
53.58
38.7433
38.1862
61.4298
59.227
41.1085
53.3425
50.608
37.7251
33.5393
55.0047
42.1262
33.0428
46.5571
33.3843
31.729
27.8901
38.6083
31.4119
29.0067
31.5521
28.5231
27.0892
25.2383
30.0983
27.6899
65.5071
71.3362
66.9125
55.7187
52.8625
57.5009
54.0462
59.6391
64.8377
58.6752
51.8581
49.4624
52.4972
48.4758
56.8932
57.4329
55.7786
48.8826
47.5075
47.6759
46.6221
54.0298
55.7201
55.2775
46.7479
60.0068
46.5302
46.4239
54.5662
54.4124
49.8696
61.4701
61.3368
46.2419
45.3541
53.6447
49.327
48.8238
58.9152
46.4483
45.1635
43.1422
35.5268
48.3737
42.1211
42.88
34.7577
42.0724
38.0182
28.9261
39.5718
33.7909
33.1538
29.3681
36.5097
32.0927
68.8304
76.694
72.2333
58.7675
55.2694
60.9838
57.178
59.5621
69.2299
61.9171
53.5451
48.811
55.0279
49.0831
55.8642
59.7817
55.4385
47.8024
46.3675
47.4319
44.1237
55.1845
54.3278
49.399
46.2082
45.2827
43.2314
39.8981
47.6754
46.8136
40.5941
44.3986
41.7068
38.5607
35.4533
45.6377
39.6056
38.9412
41.1322
39.6104
34.8471
34.1051
41.8292
38.9235
39.132
39.0966
37.0507
33.9893
33.8383
36.2268
39.3143
38.6076
36.1579
32.2819
33.7168
31.6278
47.1345
51.1595
46.6111
49.753
45.2653
48.4614
44.5149
41.1847
45.1595
41.6174
43.8668
40.0826
43.4561
40.9229
37.7661
40.6594
38.6705
39.0506
37.2212
40.1993
38.5472
36.0481
38.1885
37.0905
36.7324
34.9348
38.0342
36.5596
34.3935
36.8478
36.1528
34.3972
33.1823
36.1248
34.6371
32.0856
35.6031
32.0242
32.7053
31.1007
33.926
31.64
28.8474
30.6776
27.7292
30.566
29.3399
31.0219
29.7703
26.2239
27.0277
25.3892
28.9812
28.1744
29.4742
28.8566
47.3361
52.0515
50.179
47.7236
44.6029
48.4224
46.4705
43.1737
49.5058
47.6408
43.7882
41.6309
45.9146
44.3205
40.0361
47.04
45.3658
40.9759
39.2905
43.8132
42.4524
40.2345
38.825
41.3647
38.7223
40.8894
38.2096
40.2993
40.9656
37.7653
41.092
37.41
40.9743
37.201
41.1148
32.2802
63.123
42.7387
34.7211
31.9428
64.5476
43.297
27.5321
39.027
32.2322
31.2644
30.0024
40.2417
35.3888
25.3161
30.9212
28.336
29.7176
29.0478
34.3703
32.2481
50.5011
55.1447
51.8027
49.4026
47.0445
52.2509
48.7209
47.383
50.2914
46.6055
46.3311
44.5509
47.3934
44.4817
45.7036
45.8777
44.8665
44.0671
42.8952
43.8859
42.7353
58.6511
68.2051
45.5034
50.5969
50.1652
278.684
44.6663
91.9109
86.2029
66.7768
230.283
69.0715
212.62
89.334
48.7332
45.1225
43.0004
71.949
49.7605
43.475
41.79
36.3804
41.9553
38.1517
45.6002
38.4463
40.9874
38.02
30.1846
36.5894
32.1276
36.9549
33.5654
36.8842
33.8988
52.9226
58.5721
54.7089
53.678
49.6074
55.7962
50.8153
46.8081
52.5037
46.5973
47.9823
44.4097
48.498
42.9452
44.5428
45.0515
42.0407
43.6771
42.3825
41.7261
39.6058
43.4318
41.2501
38.4025
42.053
41.1421
39.0922
37.3447
40.7517
37.3167
34.8119
40.7752
39.5237
36.7755
35.4655
38.9336
34.3005
33.5869
39.1949
38.4044
35.1695
34.5604
36.5912
33.4623
33.1854
38.1202
36.6162
34.4115
33.8644
31.9445
32.9842
30.9134
35.8317
33.403
33.5597
32.0888
45.9223
48.8794
45.3033
58.3235
54.3244
56.6897
56.5556
40.84
44.3576
42.0175
52.9572
50.6656
56.1746
54.5612
38.1249
41.3236
39.5888
50.4436
48.5836
53.9393
50.6301
35.6583
39.0006
37.2902
47.674
46.3837
49.4633
47.0683
34.0213
36.7957
35.2349
46.2867
45.6323
46.6753
46.1893
32.2
34.6188
33.0746
45.2988
45.085
46.4051
47.8239
30.9771
32.7316
32.0653
45.136
45.1049
48.2195
48.3099
30.0227
31.8997
31.3423
44.9395
44.109
48.2312
47.4235
45.2972
48.5753
46.8292
56.0462
56.9568
55.8478
57.7235
42.5836
46.3339
44.8359
56.7304
55.246
57.795
56.8057
40.1728
44.3184
42.67
54.5441
50.4748
55.6316
51.279
38.0114
42.7564
66.618
49.2553
46.7335
49.9324
50.2546
35.9605
67.2297
58.6849
46.2238
45.1826
50.222
48.4327
33.3178
53.5748
41.9768
45.5233
47.8181
47.7512
49.2695
32.4179
40.1003
37.0556
48.4865
48.8402
50.1047
50.75
31.6086
36.3334
34.4126
48.7406
47.7425
50.4747
48.8048
47.4052
52.3695
49.096
55.8728
57.7824
58.3063
58.3177
45.1466
47.8896
45.2317
57.9298
57.0862
57.9013
56.5849
43.146
44.6591
43.2996
55.9536
51.7768
56.1035
52.89
64.6729
42.9163
43.0755
50.5116
51.075
51.9569
50.4293
59.6328
43.2672
42.8327
51.0632
49.2746
50.1432
49.1653
46.2221
42.6038
41.4294
48.673
50.1294
49.2703
50.7853
39.1612
40.9278
38.8285
50.8311
51.2331
51.1593
50.9952
35.4314
37.9904
35.5518
50.8919
49.0844
50.6858
49.1225
49.9012
55.8526
50.798
59.9772
58.6612
61.342
56.9595
45.0772
48.4658
43.1283
57.7879
55.8612
54.8042
51.1083
43.0038
42.0693
40.2676
55.4732
53.1225
51.0265
50.4402
41.525
39.8206
38.2954
52.2582
50.6737
50.0385
49.4227
39.9153
37.8601
36.8407
50.3692
49.6347
49.5388
49.3616
39.0807
36.6097
36.0283
49.8429
50.7514
49.211
48.8748
37.7747
35.8896
35.3491
50.9598
50.66
48.8882
48.4754
35.1066
35.0693
33.6729
50.3906
48.9773
48.2035
46.6412
59.9096
62.4892
64.0278
78.8048
76.7222
80.2584
84.9016
57.4473
63.8271
62.4527
75.3033
77.3376
84.7351
84.1211
55.4572
61.8947
58.7806
77.7444
75.6385
83.9701
84.6567
53.7443
57.6851
55.8049
74.3116
76.1917
85.1777
86.6177
53.0937
55.6316
55.4818
76.6067
76.5628
86.9579
86.7379
52.7867
55.7306
56.7831
76.1128
77.7838
86.3393
84.4701
52.9498
57.1507
57.2083
78.0574
78.1348
84.1236
83.4841
51.5112
57.1441
55.7858
77.8923
75.2741
83.4546
81.3875
64.681
61.8986
65.4502
80.9561
86.2399
79.8042
87.1534
63.2564
65.6941
64.834
86.1444
85.2826
87.4519
87.4337
58.6659
63.8021
58.95
85.3039
87.7087
88.3542
94.6701
55.0769
57.3367
55.8746
88.6001
90.1678
96.5445
99.454
54.6834
55.7744
54.9057
90.4677
90.1832
99.8418
98.3181
57.077
55.425
58.3694
89.5559
86.4056
96.5022
90.4096
57.8687
59.2132
59.5718
85.4734
84.21
88.4455
85.4181
56.0965
59.2336
56.8387
84.0581
81.5173
84.9905
81.7075
65.3421
63.2499
65.1236
78.4286
86.6936
79.8228
85.1253
65.0497
65.0354
64.0913
87.1999
87.4032
85.0778
84.5028
59.4445
63.651
60.7542
88.4046
95.0732
84.7956
88.7592
56.8053
59.7642
58.3618
97.126
100.081
90.0858
91.8956
55.6188
58.2122
57.8378
100.311
98.3738
92.0504
91.1783
58.8763
58.1357
59.217
96.4676
90.2638
90.1083
85.8918
59.8338
59.479
59.1103
88.3093
85.3135
84.8324
83.522
57.0167
58.8276
56.7964
84.9116
81.7251
83.3943
80.9589
65.2088
65.9839
61.6878
82.7759
84.5138
81.3168
75.7647
63.1151
59.7036
56.9772
83.9246
82.8655
74.38
73.9485
60.8718
57.3182
56.8733
82.9104
85.3024
75.1652
74.3054
59.0178
56.4758
56.1961
86.2587
87.7887
74.0037
75.1752
58.493
56.5376
56.3955
88.0383
87.4674
76.1414
76.0868
59.0226
56.2225
55.9028
86.7014
83.8301
75.9172
76.6002
58.6664
55.9957
55.6185
83.3572
82.6873
77.1206
77.3036
56.6402
55.4003
53.5257
82.6863
80.8031
77.3317
75.1342
40.62
38.3986
41.0477
37.6084
40.9051
37.838
41.0667
48.0893
43.5799
63.5279
49.5828
45.1243
42.6748
210.044
56.6941
51.498
81.885
248.333
49.1156
59.8433
269.671
39.7742
38.4777
38.1716
39.6851
37.9792
39.7252
39.5232
40.2767
37.3711
37.7545
40.2018
37.6118
40.7833
39.8079
48.0155
49.6999
41.2759
71.351
41.9068
215.01
43.7312
56.7099
245.823
51.9127
97.6985
59.7101
270.542
49.0917
40.6725
37.5495
40.0518
36.3638
40.7121
36.8997
39.6541
58.1269
52.092
88.2758
231.449
51.7718
59.3205
212.899
56.5894
48.401
84.2513
101.92
51.0151
50.8068
142.645
40.6096
37.1295
36.7906
40.1809
36.8518
40.7916
39.976
40.228
35.8023
36.3012
38.3858
36.4511
39.0493
39.4848
57.4624
225.464
52.0135
103.572
58.8683
206.418
51.3575
55.5659
102.715
46.9298
92.8291
50.0965
140.223
50.1058
73.1164
83.6571
63.1294
248.499
57.3713
264.444
83.4648
45.0516
45.055
44.7348
43.446
45.6001
43.8729
43.4909
47.7906
49.3198
44.8419
44.3044
47.1383
51.0988
43.7457
59.7192
50.8737
71.1687
43.3741
268.618
44.0233
49.8154
76.8153
244.451
92.3308
68.0596
265.427
88.338
60.3961
44.4956
42.6665
42.8343
42.4043
43.1227
42.7076
43.7024
47.6739
43.697
49.1076
42.6295
51.347
43.0179
46.1098
91.7821
85.9867
69.7876
125.874
70.424
188.203
89.7999
55.4016
51.1515
45.3065
44.7488
52.5104
53.6819
44.9887
56.3894
54.0592
45.2477
45.1419
53.3855
57.2726
45.0634
94.3042
221.466
91.4413
71.5961
199.862
93.4079
72.3906
92.8616
119.468
88.1271
71.201
166.031
90.1766
72.5507
55.5234
44.2182
51.1544
43.7207
53.9849
44.4792
52.1914
56.2589
44.5911
52.965
43.6804
56.8957
44.5446
52.5976
192.608
229.879
193.511
137.518
114.349
135.037
110.646
166.128
175.726
172.081
89.6482
75.7676
88.3863
74.5447
150.516
167.891
163.541
68.5291
63.1785
67.598
64.774
134.462
156.728
148.032
61.2628
58.4114
63.0023
60.5047
116.726
138.305
130.394
56.1397
53.3314
57.628
55.47
100.667
122.949
116.062
52.5947
51.92
54.7239
54.7216
93.3402
107.567
99.7172
50.7327
47.5419
54.1469
52.3555
88.3115
95.8135
84.4789
46.3209
40.6094
49.9025
39.8028
174.85
181.256
167.598
100.476
87.4605
101.786
88.8369
143.196
283.818
285.459
160.901
142.475
159.217
262.737
97.0196
258.384
239.17
101.061
95.6236
102.964
242.933
93.2977
269.004
263.588
93.3533
93.1293
93.6015
264.057
90.3713
252.821
254.767
90.637
89.8813
90.9525
250.977
87.8509
229.336
237.994
88.4891
87.3346
88.4363
233.854
81.9138
198.441
208.743
80.5762
78.5273
83.5937
197.413
75.8211
179.301
185.916
77.7989
77.8813
76.6128
185.086
69.3162
155.12
168.375
75.2027
73.1002
71.8288
158.848
88.5586
96.4413
83.7223
40.5599
37.1379
36.9888
31.0273
178.65
197.053
180.049
115.086
94.4611
115.769
94.7816
141.547
258.083
290.75
159.665
138.701
161.321
260.883
104.317
199.009
210.384
103.874
96.2775
110.681
204.528
93.8187
205.076
201.058
87.0461
85.6627
95.4122
199.363
85.1389
206.356
195.159
82.5641
82.165
87.1067
194.908
82.9447
202.636
195.126
81.0825
80.6828
83.6127
195.344
80.8692
168.759
190.01
79.1444
78.0369
80.9829
177.071
66.4874
171.49
155.603
67.4913
66.0255
71.1218
159.278
59.1247
161.935
162.959
63.7966
61.5191
60.8771
157.183
83.7091
92.3146
80.4382
34.6653
29.9498
33.6635
29.0598
184.213
203.944
191.141
118.624
96.7623
118.399
97.5696
143.604
268.237
300.129
163.703
142.523
164.082
273.655
106.836
244.104
252.006
111.624
106.547
112.014
252.638
98.4549
243.406
254.839
99.7417
98.4924
99.6141
254.599
97.3331
224.678
246.314
96.9932
95.3482
97.8936
239.355
89.9271
211.638
222.505
90.4687
90.3955
91.1667
221.455
89.7432
215.157
226.159
92.6158
92.8737
88.9088
226.061
103.192
158.201
200.73
107.14
101.646
104.839
170.113
57.3427
134.717
135.015
61.2307
56.7422
64.3575
132.912
74.1659
84.3867
74.0557
33.3134
27.3493
35.459
28.1258
198.576
221.397
208.035
120.993
102.147
121.659
111.102
154.765
298.719
330.056
177.144
152.691
179.083
301.529
112.082
255.887
255.724
117.41
110.389
119.609
248.521
99.4422
260.67
249.366
100.6
99.9151
100.455
251.476
96.8633
255.131
253.178
98.6916
98.3778
97.4574
249.141
84.1656
219.402
208.961
93.9388
89.0414
90.2347
209.127
80.0698
236.904
228.933
83.2051
83.3227
79.8502
229.624
77.9482
201.397
215.508
83.9511
82.928
79.7214
203.765
71.4029
157.173
174.836
75.0617
68.2869
74.3572
167.939
73.7862
94.9869
83.5407
42.2747
31.1288
44.491
35.331
178.249
202.144
181.706
111.751
95.9013
110.277
96.3016
159.48
170.391
160.785
84.3484
77.2738
85.8789
82.3537
146.065
150.274
137.64
71.8095
69.6555
75.2196
70.9317
121.914
126.404
116.363
67.29
62.0167
66.0424
60.6737
117.573
109.943
104.664
54.8437
50.3829
55.1138
49.7166