/*--------------------------------*- C++ -*----------------------------------*\
  =========                 |
  \\      /  F ield         | OpenFOAM: The Open Source CFD Toolbox
   \\    /   O peration     | Website:  https://openfoam.org
    \\  /    A nd           | Version:  10
     \\/     M anipulation  |
\*---------------------------------------------------------------------------*/
FoamFile
{
    format      ascii;
    class       volScalarField;
    location    "4";
    object      omega;
}
// * * * * * * * * * * * * * * * * * * * * * * * * * * * * * * * * * * * * * //

dimensions      [0 0 -1 0 0 0 0];

internalField   nonuniform List<scalar> 
12920
(
98.7286
102.478
97.5484
93.7835
91.3983
90.6628
88.8274
87.3011
82.7711
75.9552
69.461
64.2198
59.6405
55.0925
50.8701
47.7066
45.6605
42.7616
38.8124
33.3559
156.2
169.898
163.633
150.241
131.122
120.111
109.341
104.86
96.9261
91.5371
84.6703
79.2018
72.6659
67.0438
61.985
58.1288
54.6101
51.3707
48.6837
47.4757
146.999
172.364
159.638
155.332
136.472
122.624
109.118
104.021
97.7838
95.574
91.5566
89.1899
85.5204
82.943
79.0618
73.6224
66.301
59.2033
53.4462
50.5587
372.731
238.271
157.285
142.057
129.85
112.024
98.0014
93.4686
89.848
89.2379
87.7241
86.9065
85.0341
83.4652
79.9325
73.5697
66.3575
59.472
55.4065
52.6164
253.389
181.109
142.992
119.757
111.186
97.4752
88.3413
84.3942
79.8281
79.2155
78.7065
78.8284
78.3752
76.9602
72.8966
67.5393
63.5524
59.7788
57.5749
53.3722
127.911
166.001
164.424
140.928
125.865
104.497
94.5704
85.3115
78.3661
74.4445
71.2731
70.517
69.6658
68.4948
66.5119
63.9209
61.1157
57.0731
53.6318
49.5249
266.494
218.557
210.245
190.643
164.095
133.788
114.468
98.8087
88.3539
78.2694
70.4838
66.2541
63.9889
62.9341
61.7504
59.5865
56.5465
52.6034
50.0351
47.4409
195.429
218.218
215.61
204.433
175.015
151.244
235.057
173.006
157.302
143.526
125.151
107.695
96.1439
93.2869
60.3093
55.9241
51.7372
47.8841
45.9038
44.8634
181.385
230.47
207.449
157.242
126.768
181.9
317.486
253.625
269.22
257.099
235.402
207.322
182.225
160.046
94.7492
54.1741
48.4114
45.138
43.893
42.9016
301.671
284.096
224.686
166.96
133.411
197.694
289.221
201.491
204.052
205.609
204.752
182.459
163.943
171.1
95.7986
51.8333
47.4876
45.548
44.5746
42.2964
186.49
228.672
218.394
169.275
137.849
199.423
295.421
243.578
244.558
232.336
211.948
213.305
187.911
135.98
84.933
50.1821
49.2467
48.8941
48.0068
43.78
315.933
202.798
191.599
157.45
139.705
213.119
326.843
258.422
259.638
258.979
220.721
235.312
219.6
162.177
90.7658
58.7524
58.337
57.1622
52.8
43.1824
333.532
269.428
213.354
160.36
138.321
126.545
198.687
166.774
153.197
133.708
117.133
118.464
116.948
107.383
63.2324
63.2019
63.1655
61.9609
57.0625
45.7267
159.096
282.546
211.978
156.02
132.73
122.548
109.653
99.4721
88.0142
79.4719
73.1076
68.321
64.3154
62.9378
63.0101
63.7887
64.3498
63.8244
61.2514
51.6905
189.466
184.693
166.412
146.887
125.041
116.271
106.926
100.968
90.7958
83.9036
77.8185
74.4455
71.0116
69.0742
67.4864
66.8097
66.0302
63.8564
60.3107
50.7008
454.764
301.247
205.66
155.93
120.857
102.664
91.7499
86.0327
80.8005
77.3355
74.5121
73.1158
71.2592
69.8926
68.1056
66.3343
64.0748
58.9775
54.3831
46.7126
245.527
274.611
226.779
163.395
117.947
94.9911
79.0769
72.9702
69.5139
67.7674
67.0198
66.884
66.5288
65.6562
63.7237
60.3632
56.0633
50.7417
47.5228
43.8394
134.154
206.196
176.047
146.328
116.715
96.4629
76.501
68.8219
65.8522
65.6687
64.713
64.1172
62.5475
61.1485
58.6095
55.6739
52.4035
49.2295
47.1793
45.2623
178.968
169.832
191.844
174.517
138.91
114.161
88.3394
70.8619
60.5996
58.0821
58.052
58.0279
57.3215
56.2735
54.2506
52.0043
49.6555
47.6825
46.6915
46.6951
47.2375
107.867
129.065
125.952
115.771
102.121
95.0334
84.3027
64.1816
49.0465
42.3968
40.7227
40.3559
39.8628
39.0962
37.8779
37.1074
36.2903
36.0989
35.5608
55.1509
65.0581
62.8497
57.1379
55.0889
54.5593
53.6688
52.1865
47.9806
43.0257
38.7517
35.8839
33.4587
31.1456
29.5612
28.7308
27.2573
24.628
21.8965
19.7709
253.888
151.114
107.397
81.6187
67.4583
60.772
54.9843
52.7269
48.5043
45.5927
41.684
38.9401
36.2449
34.3947
32.6305
31.1612
29.9135
29.0185
28.8787
28.0319
236.305
183.985
115.904
85.6337
68.7504
59.2924
52.1941
49.8129
47.129
46.1322
44.2327
43.2528
41.9056
41.2102
40.3738
39.6907
38.8484
36.8845
34.4031
30.2408
193.505
143.407
103.789
82.8173
66.5028
55.8521
49.7513
46.9568
44.8592
44.4066
43.7205
43.5456
43.125
43.1184
42.9989
42.5959
41.5517
38.102
34.5211
30.1026
375.338
111.329
87.6192
68.6041
60.8287
54.9785
50.6412
46.8401
43.5985
42.1005
41.3477
41.2807
41.1412
41.0368
40.6483
39.6948
38.3364
35.6276
34.315
31.3505
134.836
122.703
90.9024
82.1102
72.3473
61.1002
53.896
49.0532
43.4959
40.1629
37.6899
36.5899
35.8488
35.4133
34.7998
33.9244
33.3207
32.0955
30.9992
27.6664
242.23
139.486
114.017
106.267
94.0232
72.2981
58.7215
52.6498
45.3458
40.9109
37.0334
34.7478
32.9414
31.7814
31.0795
30.246
29.6004
28.4073
27.6977
25.9654
181.162
151.164
120.231
112.701
106.32
88.7133
86.0898
66.5907
51.5961
45.7842
41.4908
39.6855
37.0833
33.515
28.9266
27.9376
27.1993
26.5766
26.3549
25.7517
124.548
157.379
119.564
88.5579
72.1847
67.906
68.9613
56.9815
49.0997
45.97
44.8596
43.3031
41.4737
37.0978
29.3948
25.9715
25.252
24.5957
24.4264
24.2442
118.258
134.076
112.683
85.9086
72.1594
71.5643
68.1538
60.5628
52.619
47.5081
44.4486
43.8449
38.4611
32.0351
26.9839
25.2051
24.8862
24.8595
24.8938
24.5844
232.859
218.012
125.781
92.3602
78.0331
75.287
69.93
63.6419
58.6378
56.0953
53.79
54.6213
51.7198
32.947
28.55
26.2748
26.3454
26.5981
26.5277
24.9938
206.651
151.73
115.545
91.4166
77.1786
76.1566
73.0723
66.6243
57.9898
55.5889
54.0199
46.6438
45.2607
40.6375
33.8016
27.7128
28.3216
28.6496
28.2754
25.1737
228.884
197.02
117.176
87.327
75.4842
69.1552
71.0209
65.041
55.5026
50.5992
41.7958
37.1904
36.1313
35.8018
30.5717
30.5302
31.3411
31.6597
31.3796
27.6464
454.486
298.314
120.606
84.0305
72.7862
66.9135
63.0227
57.4707
50.4164
44.1578
38.9122
35.8762
34.2074
33.607
33.371
33.5109
34.0639
34.2216
34.1812
31.732
251.853
141.806
96.3109
79.4741
72.3034
65.4312
59.4971
53.165
47.6505
43.7391
40.8899
39.1542
38.0926
37.2213
36.69
36.0171
35.7551
35.0774
34.505
31.1898
258.485
232.974
117.369
85.9245
75.2248
65.9118
56.6083
48.2997
44.2557
42.2323
40.4424
38.7859
37.4633
36.3509
35.6076
34.8621
34.2199
32.6443
31.3755
26.9779
189.167
151.456
105.409
89.9639
75.7327
65.5903
54.5781
44.8892
40.8988
38.5545
37.1162
35.4058
33.9568
32.8457
31.8931
30.5542
29.2808
26.9732
25.461
22.957
106.134
117.888
79.0804
68.4877
57.6283
57.1331
50.5819
41.6055
37.2791
34.655
33.2506
32.276
31.216
30.4362
29.4852
28.3446
27.0929
25.5005
24.2429
23.0026
363.58
131.332
101.999
78.0244
57.5107
56.3194
53.101
45.7201
37.4312
32.6806
30.3659
29.1854
28.4967
28.0378
27.4934
26.7646
26.0979
25.2035
24.3419
24.1102
85.6035
59.1693
71.4571
68.8954
62.3908
51.0753
40.9528
33.2556
27.4269
25.1612
24.6957
24.6843
24.4538
23.991
23.3514
22.4782
22.0598
21.6792
21.6814
21.5718
115.974
84.8647
80.8428
68.7505
61.1246
59.438
57.5735
54.563
49.1877
44.4097
40.6404
37.8308
35.4212
33.2174
31.3113
29.3243
27.0966
24.5425
22.8406
22.0502
303.714
210.772
120.93
82.7144
64.2357
55.4824
48.8622
46.2238
42.2378
40.2989
37.3528
35.8082
33.8756
32.6836
31.2407
29.9004
28.7411
28.0712
27.912
27.5326
439.656
275.93
107.557
75.5851
60.1867
51.2702
45.1384
42.8793
40.4503
39.5203
37.7607
36.9702
35.7919
35.2105
34.3996
33.6419
32.6865
31.0482
29.7219
27.9787
161.094
124.238
91.5774
68.7497
55.4096
46.7779
41.909
39.7348
38.0404
37.6705
36.8776
36.6943
36.2084
36.0157
35.5398
34.6747
33.318
31.0748
29.4312
27.5161
234.649
105.76
70.8531
55.4127
50.1647
43.2047
40.889
38.0903
35.983
35.4191
34.6807
34.6556
34.305
34.0239
33.4136
32.4904
31.4828
30.0758
29.3462
27.7684
213.079
139.014
82.4237
60.4666
55.2088
46.3794
42.4192
38.7263
35.0438
33.2041
31.6184
31.044
30.412
30.0336
29.484
28.8689
28.3284
27.4207
26.7333
25.2557
236.335
157.009
104.593
79.5349
66.2136
52.8019
45.608
40.368
35.6905
32.7168
30.5731
29.1993
28.1371
27.481
26.9014
26.3686
25.9663
25.4487
25.219
24.6584
203.684
139.883
109.314
89.2717
75.0235
61.9452
56.9912
48.8431
39.4821
35.6649
32.5819
31.0393
29.0179
27.2449
26.0173
25.3643
25.1334
25.1296
25.2458
25.1777
161.792
150.308
98.9785
71.3494
56.736
52.5661
52.2974
45.4188
39.9751
37.3767
35.5093
33.9547
31.2716
28.0799
25.6321
25.2519
24.894
24.8023
24.8408
24.8409
109.786
122.778
105.861
74.9754
58.3929
54.4594
50.8234
46.2517
42.2533
39.3988
37.9199
36.4801
30.7788
26.8609
25.4871
26.2585
25.9852
25.8155
25.6888
25.2652
247.44
173.526
112.038
77.8051
62.1857
56.1163
53.0538
49.5269
46.7652
44.3394
87.9015
70.6912
44.5091
34.5888
30.0276
27.9432
27.1441
26.3436
25.7448
24.3676
185.685
150.227
106.353
80.587
67.4825
61.3391
56.4385
51.2114
45.8518
44.2837
42.7439
40.272
38.4773
35.6653
30.0823
27.8274
27.3217
26.4692
25.3362
23.1107
230.952
185.358
120.797
81.8169
68.1001
60.015
56.605
49.8293
42.3616
38.3218
34.426
32.4947
31.6893
30.9219
29.2648
28.7811
28.5605
27.7968
26.5492
23.5322
134.451
155.806
126.109
76.2796
62.27
55.0227
49.7566
43.9019
38.5997
35.0224
32.5747
31.3834
30.7247
30.5605
30.477
30.3445
30.0702
29.2893
28.4476
25.7641
233.87
128.553
89.3954
66.9092
58.8274
51.8967
46.8099
41.8809
37.8203
35.5146
33.777
32.9971
32.4059
31.9934
31.5539
30.97
30.4015
29.1511
28.1471
25.2385
159.543
155.164
102.149
72.4589
60.2622
51.7001
44.8964
39.9784
36.873
35.1238
33.5741
32.5561
31.646
30.9562
30.2408
29.3731
28.421
26.6852
25.4838
22.9323
168.861
126.129
81.0766
63.9229
56.3625
47.5811
41.8799
36.8113
34.4459
32.6197
31.1762
29.9068
28.7829
27.9475
27.0255
25.9605
24.8333
23.5048
22.6189
21.6046
179.593
110.972
71.7989
54.1363
47.7746
40.1616
37.4435
32.9673
31.0447
29.5075
28.3152
27.5684
26.7026
26.2092
25.4999
24.8671
24.1065
23.3898
22.7908
22.4899
232.52
132.49
107.826
74.2922
52.953
40.6219
35.9377
32.2147
29.3568
27.5358
26.2624
25.7972
25.2867
25.1662
24.9177
24.7883
24.621
24.6203
24.6831
25.2267
113.441
89.5624
79.159
71.1898
62.8057
48.3529
38.2144
32.5038
29.9187
28.7633
28.3881
27.8234
27.3075
26.7344
26.172
25.5594
25.5156
25.3996
25.4276
25.2532
68.9381
106.154
104.893
86.9178
68.688
62.5812
58.2837
53.2864
47.7987
43.0925
39.5401
36.512
34.0378
31.7109
29.5478
27.3226
25.4689
24.0488
23.2063
22.8527
179.538
193.664
149.065
96.3475
74.1846
59.6026
53.4033
49.0627
45.9824
43.7514
41.4701
39.8806
38.1017
36.7631
35.3463
34.3086
33.7255
33.6355
33.8437
34.4661
269.071
155.445
104.012
73.1014
62.7872
51.65
48.2438
44.4678
43.0894
41.1525
39.7844
38.4583
37.3792
36.4824
35.6949
34.9275
34.2348
33.5649
33.1262
32.9332
134.548
124.531
90.3937
66.1915
57.8918
47.4541
44.8843
41.2632
40.4222
38.947
38.2316
37.4272
36.793
36.1191
35.4548
34.6093
33.8153
32.9239
32.4161
32.0142
440.232
158.523
78.6562
56.7737
52.108
42.8542
42.5001
38.4941
37.6954
36.3464
35.9048
35.3332
34.8606
34.3504
33.8331
33.2474
32.8138
32.3133
32.0933
31.6712
229.391
185.14
105.956
59.3771
55.3448
44.6331
43.464
38.7986
36.2859
34.1856
33.1648
32.4588
31.9607
31.5608
31.1931
30.8387
30.6081
30.3051
30.149
29.9822
197.653
160.101
104.459
70.026
62.0602
48.3459
45.4544
38.8427
36.1377
33.1728
32.1272
30.9504
30.4828
30.0152
29.634
29.4133
29.4047
29.4426
29.6126
29.7828
420.774
167.663
111.524
79.7393
68.7815
56.4374
51.382
44.841
38.1478
35.0071
32.7707
31.4034
30.2445
29.5242
30.788
29.791
29.7244
29.885
30.261
30.5051
160.378
142.347
93.4674
65.1146
56.1879
51.1242
50.2538
44.5551
39.8987
37.5821
35.1587
33.5842
31.8023
30.7363
31.5101
31.5483
30.6128
30.5267
30.6402
30.8476
168.429
140.506
103.501
68.9486
58.5209
52.4201
48.0602
44.5875
41.9771
39.538
37.6212
35.1958
32.9923
32.2702
33.1828
32.9543
31.6681
31.2381
31.1521
31.1338
228.119
154.063
102.322
69.838
59.9995
53.0289
49.4214
46.7945
44.6466
43.0721
65.0961
56.9336
43.6855
38.1384
35.8131
33.6441
31.8083
30.8196
30.326
29.9684
175.138
146.561
104.641
75.6611
67.3616
59.2295
53.8431
48.4115
44.3981
42.5804
41.1498
39.6131
38.9104
37.163
35.1549
33.1758
31.1714
29.7219
28.752
28.1928
138.605
147.012
123.249
81.3282
70.4156
58.5446
54.0354
45.9482
40.351
38.015
36.524
35.8252
35.173
34.4356
34.5514
32.6309
31.2595
29.7349
28.5795
27.5608
191.347
169.233
125.01
74.1878
63.9123
51.9333
47.207
40.4471
37.7202
35.2368
34.781
34.2435
34.3021
34.1717
33.8314
32.943
31.9785
30.6481
29.634
28.2194
537.968
172.169
93.7442
64.8577
58.241
47.8156
44.9312
39.5771
37.5008
35.6041
35.1196
34.5962
34.4601
34.0678
33.5722
32.6198
31.6405
30.2276
29.1898
27.6795
270.538
170.546
100.601
67.9007
57.8733
47.0042
43.4555
38.5431
37.2574
35.2434
34.763
33.7355
33.3495
32.4925
31.7525
30.6582
29.6489
28.4306
27.5935
26.7602
166.253
151.283
79.8521
59.5893
52.653
43.0564
40.9132
35.9757
35.4044
33.184
32.6256
31.249
30.6687
29.7726
29.1014
28.3031
27.6479
27.0902
26.7742
26.6113
201.685
120.538
76.5568
56.9597
47.6147
38.5978
37.495
33.1518
32.8803
30.963
30.5719
29.5612
29.236
28.7982
28.568
28.3452
28.1492
28.1011
28.1054
28.3586
182.14
157.038
132.52
81.9753
57.2253
39.679
35.3796
31.6336
31.2094
29.6418
29.4542
29.0635
29.1228
29.263
29.5974
30.112
30.7434
31.4196
32.2134
33.1943
95.7438
99.826
93.9454
75.3806
62.6463
46.3449
37.0274
32.9075
31.5326
30.0982
29.5216
28.3777
27.7363
26.9702
26.4092
25.9412
25.9844
25.8484
25.9
25.5878
114.107
133.043
123.132
90.7666
70.0134
61.9487
55.3498
49.2047
43.424
38.178
34.0663
30.4038
27.8091
25.7702
24.4939
23.6575
23.2466
23.0206
22.9261
22.9588
272.939
285.439
192.945
105.613
96.6997
70.1394
72.8397
61.9482
63.7624
56.8964
56.9866
52.1297
51.4836
48.4849
48.3235
47.4109
48.0005
48.5475
49.5834
50.5736
533.178
169.521
115.303
80.9776
76.6749
59.3922
62.262
53.3975
56.2189
50.7637
51.7962
48.1514
48.2347
46.104
46.1502
45.2217
45.4521
45.46
45.8814
46.4536
137.368
137.191
104.402
72.1979
73.586
55.9539
60.3718
51.1446
54.0877
49.1092
50.2608
47.2151
47.2914
45.4012
45.2804
44.3447
44.4763
44.4533
44.8734
45.1228
226.892
182.092
96.3591
75.8544
65.8622
52.0942
56.1329
46.4076
50.2698
45.4912
47.3435
44.8175
45.4201
43.9777
44.1766
43.5427
43.8646
43.8864
44.3174
44.5721
436.944
236.625
127.151
68.9625
73.7643
52.2416
59.5625
47.8862
49.3064
44.5673
45.0358
43.0373
43.1236
42.1286
42.0995
41.7679
42.0821
42.3179
42.9096
43.3634
353.195
155.693
105.756
72.7653
74.1104
53.8513
58.0712
46.7046
47.5413
42.7734
43.8485
41.8519
42.4626
41.5373
41.4431
41.1574
41.6639
41.9958
42.661
43.0315
295.176
155.367
121.386
78.3939
82.2036
64.4148
62.4394
52.4577
50.8731
46.4517
47.0159
45.2297
45.8414
45.0718
44.604
42.3592
42.283
42.6105
43.2866
43.5805
317.397
144.091
105.509
71.615
68.8568
59.5067
63.4728
58.5304
57.3593
54.3905
53.729
52.7201
52.9342
52.8006
51.6302
44.8862
43.2689
43.1978
43.5674
43.7831
287.593
165.27
124.396
73.0096
74.5249
62.2936
62.2042
64.4609
62.4868
57.2998
54.7736
55.245
57.6693
57.7248
53.7852
45.3694
43.335
43.0453
43.3711
43.6129
198.067
139.083
112.022
71.3666
71.8884
60.1869
61.2701
65.5817
63.9729
57.8948
56.735
56.0826
59.6405
59.4512
54.364
45.1834
42.7937
42.2128
42.4303
42.4733
270.354
163.397
124.297
76.703
80.0259
66.0617
65.0697
64.4913
62.705
60.0693
58.86
58.5593
59.0778
58.413
54.2696
44.7578
41.9086
40.7828
40.825
40.8148
263.23
140.925
125.925
79.2432
83.2844
63.6187
63.0463
54.1768
53.6086
51.5322
52.768
52.0698
52.5855
51.6355
47.4114
43.3724
41.5579
40.4238
40.262
40.0412
153.169
158.226
133.086
74.5908
79.9859
55.5189
57.7909
45.3907
47.2508
42.9959
45.5018
44.2814
45.96
45.3224
44.8962
43.0874
42.196
40.8376
40.6508
40.2116
285.017
193.794
110.459
73.3294
69.8357
51.897
54.833
44.195
45.9281
42.3366
44.2369
43.2275
44.4892
43.8512
43.8452
42.4716
41.7269
40.4416
40.2081
39.7054
203.337
154.078
119.307
71.3838
69.8812
50.2983
52.7668
43.1736
45.9194
41.5998
43.899
41.826
43.1124
41.6581
41.8395
40.5254
40.303
39.4719
39.5512
39.3731
366.696
201.095
97.2769
76.9406
62.9708
50.0288
49.9392
41.3116
44.363
39.7622
42.0764
39.5913
40.7852
39.3179
39.7935
38.9819
39.2331
38.9751
39.3004
39.2608
229.926
155.93
91.7064
78.907
56.3907
50.5608
46.6633
39.7487
42.8585
38.4544
40.9872
38.4688
40.0799
38.8885
39.9437
39.6021
40.2979
40.4264
40.9726
41.309
241.561
170.566
148.766
84.3636
65.0496
50.0387
46.0241
39.1976
43.6811
38.9727
42.6249
40.1187
42.5545
41.7146
43.5288
43.8955
45.4396
46.1353
47.1935
47.6448
164.657
135.312
113.528
79.0493
57.0069
40.7988
35.1893
32.6714
31.4931
29.7498
28.6767
27.3833
26.6377
26.0331
25.6729
25.4232
25.3718
25.2672
25.1625
24.6764
38.1193
45.3992
88.4999
38.7066
37.4522
43.3378
106.056
37.154
89.1822
73.8583
37.1425
35.6095
105.465
77.3052
88.1906
44.6731
45.0499
42.7875
96.7044
42.4193
43.1433
77.3206
45.2324
45.1834
94.9683
77.8237
43.5551
43.5935
250.876
271.786
213.161
81.8397
68.0805
78.3495
67.4588
267.27
205.096
215.459
63.6973
55.7343
63.8648
55.4646
261.107
222.875
227.908
54.7406
51.8934
53.78
50.7184
241.793
227.258
222.147
51.6216
50.9778
50.0226
48.5986
216.06
218.694
200.654
50.7128
48.9766
48.4376
48.6749
186.493
186.093
168.972
48.4843
47.2454
48.7228
46.1134
166.436
173.299
180.205
46.8761
44.4876
43.6154
39.1512
134.23
174.971
136.439
42.9693
36.7608
38.1137
32.8431
213.068
293.826
239.923
81.5373
71.1133
82.0447
73.6867
202.16
235.257
232.947
68.0069
59.9392
71.6285
67.1364
205.15
232.509
225.001
57.9833
53.4832
66.1897
63.1864
205.907
216.94
200.561
52.272
49.5355
62.082
58.3159
194.763
199.377
202.203
48.968
48.2552
57.8933
58.179
161.396
208.111
191.973
48.2344
45.7451
58.2224
58.6525
173.911
164.451
144.328
42.7687
37.2914
55.735
37.223
136.851
144.126
128.545
36.2918
32.0558
34.9143
30.4876
245.445
316.034
263.985
82.346
73.5713
84.3375
75.4066
244.839
259.021
261.809
71.1311
65.5686
72.7227
64.9865
238.101
262.371
261.332
64.4315
62.3407
63.4861
61.4156
213.693
259.175
234.5
61.6769
58.7045
61.3354
60.851
211.417
226.295
230.229
58.1713
58.6285
60
54.0418
208.68
237.616
232.682
59.0573
61.2655
53.3378
53.8713
138.662
218.155
154.139
60.5941
39.8022
53.9467
48.0114
123.574
145.785
122.271
36.0731
30.5804
44.1054
35.4636
266.548
360.083
285.957
87.6273
77.7042
95.9868
83.1724
257.823
276.195
255.902
74.8686
66.0498
78.6542
69.9528
260.407
252.793
240.465
64.2323
61.6065
67.4435
62.3086
230.023
232.214
193.633
61.3913
60.9646
61.047
55.543
228.046
188.808
199.597
59.9192
52.0026
52.3331
44.3581
231.174
205.35
205.262
50.7962
50.3835
43.2329
42.5673
168.701
202.358
187.015
50.3013
47.0953
42.5975
42.8281
129.058
183.029
136.655
45.1075
38.5901
43.0963
41.7856
60.5468
66.6653
59.9863
54.969
48.8613
53.4018
48.5515
50.3819
57.2659
50.4642
46.9767
42.4032
46.933
42.8666
46.3082
48.8972
45.9128
41.1762
38.7736
41.7817
39.5568
45.228
45.2345
43.8833
38.4263
37.2448
39.0378
37.9346
43.6312
43.721
43.9281
36.7653
35.7054
37.7295
37.3469
42.1123
43.9629
41.3944
35.3473
33.5748
37.0025
33.406
38.6015
39.0809
34.4853
32.7435
29.9954
31.8281
28.3313
32.7184
33.4115
29.6854
29.0552
26.6999
27.4948
25.4288
62.7788
69.3012
65.5548
53.4651
49.609
54.7294
52.592
54.3384
64.175
60.9549
48.4178
44.8786
51.869
49.9193
48.6223
60.1866
57.4686
43.8037
41.2377
49.306
47.301
44.9566
56.4576
53.574
40.5149
38.9709
46.8935
59.5992
43.8899
53.407
53.5296
38.7291
38.1654
61.3992
59.2336
41.1718
53.3165
50.6866
37.7109
33.5816
55.0849
42.2126
33.0635
46.8055
33.4647
31.7689
27.9065
38.6878
31.43
29.0163
31.5928
28.5199
27.1007
25.2419
30.1034
27.6836
65.406
71.3105
66.8854
55.6422
52.7986
57.4765
54.0451
59.5163
64.8349
58.6321
51.7939
49.385
52.5019
48.4428
56.7905
57.3642
55.6664
48.8063
47.4496
47.6274
46.5461
53.9757
55.6004
55.188
46.6982
60.0261
46.4522
46.3683
54.4727
54.382
49.8418
61.4651
61.3138
46.2039
45.3274
53.6595
49.2727
48.7766
58.9439
46.5283
45.1404
43.1531
35.6591
48.3526
42.2201
42.9559
34.7717
42.0867
38.043
28.9229
39.6484
33.8054
33.1551
29.3608
36.5341
32.1126
68.795
76.6201
72.1485
58.7434
55.2693
60.9256
57.1499
59.533
69.1352
61.8458
53.5547
48.7876
54.9968
49.0549
55.7574
59.7117
55.3819
47.7631
46.2943
47.4006
44.0981
55.09
54.2645
49.4043
46.1312
45.2402
43.2013
39.8981
47.6729
46.844
40.6025
44.3786
41.6959
38.5665
35.4493
45.5987
39.5942
38.8972
41.1193
39.6052
34.8361
34.0804
41.8737
38.8798
39.0885
39.0946
37.059
33.965
33.8186
36.2384
39.2755
38.6248
36.1698
32.3088
33.7032
31.6527
47.1181
51.0988
46.6053
49.7284
45.2576
48.4086
44.5206
41.1651
45.1621
41.6214
43.8685
40.0817
43.4649
40.9286
37.7439
40.6604
38.6617
39.0506
37.2177
40.2026
38.5425
36.0232
38.1771
37.0685
36.73
34.9267
38.0278
36.5493
34.3751
36.8226
36.1314
34.3893
33.1781
36.1143
34.6369
32.0834
35.5924
32.0515
32.7047
31.1013
33.931
31.651
28.8564
30.7027
27.7421
30.5679
29.3418
31.0307
29.7723
26.2266
27.0378
25.3924
28.9823
28.1688
29.4755
28.8499
47.3218
51.9964
50.115
47.706
44.6084
48.4031
46.4541
43.1823
49.4399
47.5818
43.7958
41.6388
45.8984
44.3064
40.0388
46.9872
45.331
40.9816
39.2895
43.7987
42.4511
40.2565
38.8243
41.3704
38.7196
40.9067
38.2075
40.304
40.9988
37.75
41.1166
37.4016
40.9942
37.1907
41.1536
32.3162
63.2226
42.8017
34.7313
31.9573
64.5401
43.2954
27.5451
39.0744
32.2354
31.2748
30.0046
40.2351
35.3784
25.318
30.9182
28.3309
29.7186
29.0425
34.3623
32.2425
50.4496
55.126
51.8071
49.3728
47.0311
52.2492
48.7458
47.3213
50.2982
46.5764
46.3176
44.5328
47.4141
44.4731
45.6424
45.836
44.8026
44.0475
42.887
43.8698
42.7049
58.1082
68.44
45.4475
50.59
50.0787
278.384
44.6032
91.184
86.2915
66.5302
229.996
68.8518
212.451
88.4607
48.7857
45.1018
43.0106
71.9118
49.7425
43.4643
41.7896
36.3728
41.9619
38.1724
45.5875
38.4395
40.9881
38.0347
30.1798
36.6118
32.1468
36.9496
33.562
36.8987
33.9066
52.9295
58.5134
54.6845
53.6754
49.6372
55.7518
50.8246
46.7876
52.4777
46.5718
48.0099
44.4051
48.5027
42.9461
44.4815
45.0252
42.0172
43.6644
42.3539
41.7239
39.5998
43.3971
41.2246
38.3969
42.024
41.1248
39.0838
37.3386
40.7434
37.3164
34.806
40.7652
39.5232
36.7715
35.4594
38.9296
34.2898
33.5656
39.193
38.3996
35.1619
34.5475
36.6
33.4413
33.1712
38.1162
36.6252
34.3995
33.8593
31.9702
32.9766
30.9368
35.8435
33.4117
33.5596
32.0926
45.9256
48.8349
45.3205
58.2578
54.3151
56.6343
56.5261
40.8531
44.3783
42.036
52.9601
50.6658
56.1499
54.55
38.135
41.34
39.5945
50.4344
48.5953
53.9357
50.6487
35.6612
39.0041
37.2882
47.6861
46.4123
49.4873
47.0955
34.0256
36.7933
35.2393
46.3172
45.6746
46.7012
46.2131
32.2062
34.6262
33.0845
45.3412
45.1351
46.4461
47.8744
30.9818
32.7401
32.0704
45.1881
45.1509
48.2727
48.3571
30.0238
31.9047
31.3424
44.986
44.1398
48.2802
47.4558
45.3164
48.5695
46.8336
56.0184
56.9174
55.8325
57.686
42.604
46.3399
44.8425
56.7022
55.242
57.765
56.7999
40.1802
44.3223
42.6673
54.5461
50.5024
55.6348
51.3102
38.0132
42.7681
66.6049
49.2857
46.763
49.9701
50.303
35.9675
67.2108
58.6395
46.2548
45.2127
50.2662
48.4571
33.3285
53.5676
41.9724
45.5491
47.8701
47.7796
49.3182
32.4228
40.0921
37.0481
48.5399
48.8887
50.1538
50.7983
31.6105
36.3293
34.4137
48.7902
47.776
50.5247
48.8432
47.4098
52.3775
49.1301
55.8562
57.7542
58.3235
58.3212
45.15
47.9199
45.2382
57.9041
57.0741
57.9012
56.5735
43.1367
44.6597
43.2848
55.9572
51.8069
56.0947
52.907
64.6976
42.9
43.0559
50.547
51.1146
51.9774
50.4569
59.5783
43.2559
42.8321
51.101
49.2966
50.1757
49.2041
46.2131
42.602
41.4312
48.6995
50.179
49.3086
50.8345
39.1575
40.931
38.8403
50.8811
51.2821
51.2079
51.0428
35.4332
38.0018
35.5598
50.9419
49.1217
50.7353
49.1621
49.9408
55.8207
50.8174
59.9918
58.6696
61.3018
56.9334
45.0851
48.4788
43.1368
57.7919
55.8512
54.7749
51.0761
42.9908
42.0767
40.2715
55.4616
53.13
50.9949
50.4044
41.5189
39.822
38.2979
52.2729
50.7022
50.003
49.3887
39.9201
37.8631
36.842
50.4027
49.6644
49.5142
49.3497
39.0801
36.6104
36.0238
49.8695
50.7923
49.1997
48.8787
37.7839
35.8863
35.3496
51.0023
50.7035
48.8956
48.4939
35.1146
35.074
33.6788
50.4373
49.0123
48.2251
46.6635
59.8288
62.3478
63.9025
78.1676
76.1391
79.5473
84.1335
57.3478
63.7087
62.3488
74.6483
76.5886
83.9455
83.3176
55.3828
61.7981
58.7163
76.9803
74.9629
83.1675
83.8401
53.6937
57.6298
55.751
73.5855
75.4268
84.3368
85.734
53.0706
55.5778
55.4514
75.8121
75.8228
86.0616
85.8437
52.7682
55.7143
56.7686
75.3304
76.9925
85.4473
83.6432
52.9317
57.1366
57.1938
77.2371
77.3546
83.3028
82.6765
51.4883
57.1323
55.7656
77.0835
74.4924
82.6425
80.5353
64.5455
61.772
65.3097
80.2524
85.4427
79.1198
86.3459
63.1557
65.5636
64.731
85.3332
84.4726
86.6353
86.5986
58.6175
63.7134
58.9318
84.4867
86.8564
87.5043
93.6852
55.0416
57.3357
55.8989
87.716
89.2421
95.5051
98.3528
54.6496
55.7979
54.9068
89.5244
89.2315
98.7396
97.2431
57.0692
55.4073
58.3778
88.6052
85.5453
95.4478
89.4819
57.8557
59.2133
59.5629
84.6364
83.3978
87.5715
84.6019
56.0779
59.2269
56.8298
83.2421
80.6792
84.1775
80.8809
65.2091
63.2034
65.0302
77.8191
85.8969
79.2818
84.3872
64.943
64.9342
63.9829
86.3918
86.5698
84.3219
83.7138
59.4264
63.5486
60.7026
87.5523
94.0709
83.9913
87.8545
56.8196
59.7251
58.3372
96.0626
98.9629
89.1526
90.9204
55.6197
58.1884
57.8097
99.2008
97.3066
91.0751
90.2108
58.8856
58.1087
59.2023
95.4216
89.343
89.1581
85.0394
59.8242
59.4588
59.089
87.4405
84.5004
84.0118
82.7221
57.0047
58.8093
56.7795
84.1013
80.8973
82.5969
80.1432
65.1224
65.8619
61.5765
82.2621
83.7794
80.6628
75.0345
63.0076
59.591
56.8666
83.1779
82.102
73.6962
73.2956
60.7995
57.1994
56.7586
82.1345
84.4486
74.4383
73.5434
58.9708
56.3599
56.0877
85.3835
86.878
73.2668
74.4158
58.4448
56.4311
56.3103
87.1228
86.5571
75.3622
75.2974
58.9925
56.1417
55.8398
85.8041
83.0112
75.1418
75.8083
58.6381
55.9339
55.5692
82.5503
81.8912
76.3246
76.5024
56.6151
55.3527
53.4887
81.8901
79.9724
76.5305
74.3521
40.6663
38.3957
41.0808
37.6039
40.9342
37.836
41.1167
48.3552
43.5896
63.6359
49.6009
45.207
42.7048
209.882
57.2032
51.6734
81.9257
248.056
49.2724
60.333
269.33
39.7939
38.4737
38.1694
39.688
37.976
39.7285
39.5373
40.3213
37.3676
37.753
40.2332
37.6096
40.8307
39.8382
48.2947
49.7302
41.2847
71.3166
41.9359
214.862
43.8433
57.1447
245.569
52.0955
97.3003
60.1418
270.206
49.2777
40.6957
37.5334
40.0621
36.361
40.7261
36.8908
39.6706
58.4718
52.2518
88.1288
231.316
51.9115
59.7222
212.856
56.8175
48.4818
84.1245
101.873
51.1287
50.8889
142.661
40.6401
37.1235
36.7874
40.2055
36.8456
40.8283
39.9947
40.2491
35.8052
36.3016
38.4007
36.448
39.0666
39.4987
57.7304
225.297
52.1601
103.206
59.1828
206.305
51.4749
55.7444
102.586
46.9595
92.5339
50.16
140.182
50.1752
72.2958
83.8132
62.872
248.128
57.1587
264.042
82.536
44.9779
44.9939
44.6729
43.3932
45.5381
43.8199
43.4373
47.6563
49.2107
44.7812
44.2467
47.0503
50.9241
43.6894
59.0688
50.8964
71.4488
43.3469
268.312
43.9753
49.7367
75.819
244.194
92.559
67.7607
265.047
87.3406
60.1326
44.4206
42.6248
42.8002
42.3718
43.0793
42.6637
43.656
47.528
43.6429
49.0002
42.5927
51.1644
42.9679
46.0224
91.1697
86.0755
69.663
125.637
70.2479
188.129
89.3484
55.2431
51.0408
45.2695
44.6984
52.4092
53.5055
44.9473
56.2477
53.9836
45.2168
45.1131
53.2956
57.1487
45.0285
93.655
221.346
91.4479
71.353
199.828
92.613
72.1952
92.3177
119.276
88.113
71.0543
166.064
89.7832
72.3632
55.3765
44.1722
51.0599
43.7008
53.8114
44.4437
52.1179
56.1313
44.5674
52.9061
43.6654
56.7864
44.5155
52.5364
192.85
229.892
193.674
137.481
114.761
134.8
110.706
166.137
175.648
171.918
89.9447
75.8167
88.5225
74.5604
150.526
167.824
163.525
68.5116
63.1262
67.5834
64.7292
134.51
156.753
148.096
61.2363
58.3516
62.9573
60.4709
116.775
138.372
130.459
56.0962
53.275
57.6037
55.4379
100.672
122.993
116.127
52.5395
51.8598
54.6654
54.6579
93.257
107.657
99.7794
50.6877
47.5261
54.1011
52.348
88.1909
95.8356
84.4354
46.2953
40.5673
49.9202
39.8641
173.969
181.202
167.543
100.214
87.0083
101.719
88.6993
142.478
281.741
283.851
159.883
141.411
158.188
261.467
96.9034
257.669
238.477
100.854
95.3803
102.865
242.258
93.1874
268.611
263.063
93.0875
92.8408
93.4895
263.659
90.2801
252.605
254.599
90.4537
89.6459
90.8763
250.786
87.7533
229.214
237.855
88.3051
87.1305
88.35
233.7
81.8916
198.522
209.077
80.5235
78.4209
83.5674
197.702
75.7763
179.236
185.768
77.6842
77.7443
76.6235
184.97
69.344
155.085
168.659
75.091
73.0388
71.8646
159.077
88.4908
96.4663
83.7204
40.5686
37.1214
37.0159
31.044
178.579
196.864
179.825
114.997
94.3592
115.745
94.6559
141.162
258.21
290.506
159.341
138.378
160.976
260.791
104.304
198.84
210.571
104.011
96.4216
110.607
204.587
93.8507
204.846
201.114
87.0628
85.686
95.3975
199.509
85.1891
206.043
195.128
82.5583
82.162
87.1947
194.848
82.9975
202.506
194.943
81.0592
80.663
83.6155
195.154
80.8687
169.221
190.245
79.1221
78.0544
80.9551
177.894
66.6022
171.041
155.429
67.542
66.0133
71.3243
158.828
59.1388
162.223
162.945
63.8166
61.5463
60.8929
157.356
83.7216
92.3104
80.4474
34.6785
29.9606
33.6593
29.0635
183.957
203.707
190.896
118.551
96.6625
118.322
97.5009
143.179
267.7
299.554
163.202
142.052
163.612
273.231
106.759
244.029
251.893
111.476
106.434
111.903
252.575
98.3819
243.538
254.888
99.6579
98.3972
99.5517
254.656
97.2683
225.126
246.606
96.9408
95.4047
97.7779
239.76
89.9624
211.523
222.532
90.3981
90.303
91.186
221.312
89.5477
214.88
225.927
92.4651
92.6883
88.7834
225.899
103.357
159.196
202.051
107.19
102.154
104.753
171.453
57.5048
134.637
134.947
61.4356
56.8375
64.7018
132.822
74.1596
84.4133
74.008
33.3079
27.3598
35.4628
28.1597
198.36
221.215
207.862
120.813
102.103
121.515
111.11
154.434
298.321
329.613
176.819
152.342
178.808
301.119
112.042
255.655
255.757
117.333
110.371
119.486
248.482
99.3414
260.503
249.116
100.503
99.8161
100.378
251.226
96.7715
255.315
253.113
98.5896
98.2939
97.3566
249.349
84.3031
219.291
209.03
94.0576
89.2149
90.4136
209.012
79.9906
236.729
228.691
83.1388
83.2422
79.7861
229.504
77.9516
202.156
215.943
83.9244
82.8675
79.7117
204.229
71.3638
157.062
174.771
75.2837
68.3557
74.3541
168.015
73.7344
95.0791
83.4623
42.3228
31.2272
44.5691
35.4704
178.149
201.993
181.677
111.561
95.7527
110.091
96.2407
159.483
170.516
160.916
84.2399
77.2114
85.8926
82.4115
146.15
150.427
137.852
71.7501
69.5974
75.2616
70.9233
122.024
126.63
116.562
67.247
62.0403
66.0384
60.7238
117.493
110.013
104.683
54.8887
50.4096
55.1525
49.7493
118.333