/*--------------------------------*- C++ -*----------------------------------*\
  =========                 |
  \\      /  F ield         | OpenFOAM: The Open Source CFD Toolbox
   \\    /   O peration     | Website:  https://openfoam.org
    \\  /    A nd           | Version:  10
     \\/     M anipulation  |
\*---------------------------------------------------------------------------*/
FoamFile
{
    format      ascii;
    class       volScalarField;
    location    "4";
    object      p;
}
// * * * * * * * * * * * * * * * * * * * * * * * * * * * * * * * * * * * * * //

dimensions      [0 2 -2 0 0 0 0];

internalField   nonuniform List<scalar> 
12920
(
-2.04273e+06
-1.82938e+06
-1.75023e+06
-1.53703e+06
-1.44882e+06
-1.28715e+06
-1.19668e+06
-1.07428e+06
-982007
-881902
-792919
-703115
-618290
-534068
-452783
-372442
-293742
-214786
-139208
-62780
-2.29489e+06
-1.88227e+06
-1.75455e+06
-1.54036e+06
-1.44056e+06
-1.28227e+06
-1.18865e+06
-1.06922e+06
-977872
-878197
-790149
-700702
-616204
-532517
-451450
-371388
-292815
-213871
-138345
-61908.2
-2.24925e+06
-1.82903e+06
-1.7093e+06
-1.50675e+06
-1.42386e+06
-1.26274e+06
-1.17811e+06
-1.05818e+06
-970637
-871268
-784742
-695677
-612290
-529032
-448590
-369028
-291127
-212560
-137300
-61206
-1.93976e+06
-1.70187e+06
-1.65609e+06
-1.473e+06
-1.38717e+06
-1.24437e+06
-1.15653e+06
-1.04492e+06
-957739
-861454
-776189
-689086
-606403
-524210
-444505
-365754
-288567
-210658
-135913
-60603.5
-1.79975e+06
-1.59489e+06
-1.58497e+06
-1.41731e+06
-1.36205e+06
-1.21477e+06
-1.13996e+06
-1.02804e+06
-945435
-849813
-766646
-680629
-599486
-517994
-439368
-361432
-285127
-208180
-134367
-59837
-1.76768e+06
-1.57002e+06
-1.50871e+06
-1.3817e+06
-1.3207e+06
-1.19358e+06
-1.11258e+06
-1.01185e+06
-926959
-836863
-753932
-670349
-589847
-510269
-432521
-356132
-280923
-205199
-132404
-58850.9
-1.96231e+06
-1.58055e+06
-1.51221e+06
-1.35881e+06
-1.29857e+06
-1.17263e+06
-1.09384e+06
-992707
-911005
-821488
-740973
-658298
-580135
-501920
-425007
-349694
-276125
-201785
-130344
-58039.8
-1.91399e+06
-1.59639e+06
-1.49714e+06
-1.3432e+06
-1.26885e+06
-1.15279e+06
-1.09319e+06
-998667
-912766
-827359
-746308
-666012
-588657
-511891
-415867
-342600
-270588
-198003
-128107
-57375.4
-1.84608e+06
-1.54001e+06
-1.42918e+06
-1.29621e+06
-1.22659e+06
-1.14937e+06
-1.07937e+06
-988760
-903552
-820403
-739959
-661459
-584620
-509154
-423230
-333433
-264547
-193817
-125548
-56482.8
-1.59501e+06
-1.47269e+06
-1.41262e+06
-1.26952e+06
-1.19492e+06
-1.11993e+06
-1.04703e+06
-958898
-875517
-795674
-718045
-642187
-568026
-495421
-413177
-325284
-258023
-189284
-123000
-55639.8
-1.5769e+06
-1.45147e+06
-1.33874e+06
-1.20235e+06
-1.1414e+06
-1.07648e+06
-1.00952e+06
-925659
-845864
-769084
-694769
-622175
-551371
-482064
-402618
-317282
-251679
-184825
-120348
-54655.4
-1.71699e+06
-1.37762e+06
-1.31664e+06
-1.14046e+06
-1.09069e+06
-1.02896e+06
-967598
-889397
-815037
-743277
-673537
-604119
-536033
-468915
-392547
-309606
-245947
-180607
-117847
-53534.1
-1.75175e+06
-1.3317e+06
-1.2364e+06
-1.06487e+06
-1.02335e+06
-937800
-907032
-835926
-769727
-704423
-639118
-573789
-510107
-446530
-364814
-302838
-240494
-177048
-115644
-52739.8
-1.26432e+06
-1.10555e+06
-1.07684e+06
-961256
-942669
-875976
-833058
-768350
-716086
-652992
-596193
-534876
-476867
-416158
-356611
-296014
-235591
-173660
-113643
-52117
-1.32887e+06
-1.01656e+06
-983980
-887239
-883613
-822065
-791618
-734293
-688534
-630681
-578477
-520832
-465010
-406660
-348898
-290005
-231050
-170456
-111662
-51320.3
-1.05255e+06
-895670
-873014
-820548
-817626
-771523
-747545
-697060
-659215
-605106
-560013
-505046
-453659
-397297
-342029
-284411
-226940
-167400
-109805
-50284.8
-545736
-696621
-769645
-755825
-772642
-734513
-719167
-670653
-637944
-586593
-545330
-493025
-443907
-389428
-335810
-279460
-223234
-164727
-108210
-49493.7
-500188
-652298
-721378
-713925
-730404
-699865
-689538
-645695
-617065
-569752
-531550
-481430
-435490
-382493
-330598
-275312
-220195
-162577
-107051
-48991.2
-842371
-688680
-692988
-681278
-707628
-680860
-677743
-633250
-606522
-560688
-523580
-474892
-429763
-377757
-326742
-272315
-217983
-161119
-106479
-49032.1
-614131
-598845
-693232
-671038
-697867
-672423
-668910
-625892
-598731
-555372
-519314
-471143
-426691
-375172
-324671
-270657
-216696
-160375
-106314
-49258.9
-2.06333e+06
-1.83435e+06
-1.74979e+06
-1.53917e+06
-1.44943e+06
-1.28705e+06
-1.19678e+06
-1.07409e+06
-982107
-881784
-792902
-703129
-618378
-534084
-452753
-372420
-293709
-214732
-139091
-62513.9
-2.35899e+06
-1.89053e+06
-1.7556e+06
-1.54243e+06
-1.44139e+06
-1.28219e+06
-1.18884e+06
-1.0691e+06
-977950
-878142
-790259
-700797
-616287
-532579
-451495
-371369
-292801
-213755
-138149
-61506.1
-2.301e+06
-1.83954e+06
-1.71306e+06
-1.50627e+06
-1.42462e+06
-1.26208e+06
-1.17824e+06
-1.058e+06
-970762
-871193
-784770
-695754
-612396
-529094
-448631
-369025
-291091
-212503
-137089
-60615.5
-1.96234e+06
-1.71802e+06
-1.6499e+06
-1.46891e+06
-1.38767e+06
-1.24366e+06
-1.1565e+06
-1.04474e+06
-957810
-861535
-776185
-689154
-606527
-524284
-444538
-365737
-288548
-210597
-135711
-59966
-1.87249e+06
-1.58733e+06
-1.58234e+06
-1.41547e+06
-1.36206e+06
-1.21506e+06
-1.13987e+06
-1.02789e+06
-945429
-849789
-766709
-680613
-599518
-518080
-439382
-361420
-285119
-208109
-134125
-59171.1
-1.6222e+06
-1.55064e+06
-1.50603e+06
-1.38089e+06
-1.32086e+06
-1.1931e+06
-1.11245e+06
-1.01189e+06
-926857
-836947
-753905
-670259
-589871
-510330
-432571
-356134
-280912
-205115
-132178
-58212.3
-1.90097e+06
-1.5745e+06
-1.50838e+06
-1.35714e+06
-1.29925e+06
-1.17202e+06
-1.09419e+06
-992637
-910965
-821326
-740944
-658275
-580089
-501857
-425037
-349685
-276136
-201712
-130168
-57488.6
-1.87161e+06
-1.58629e+06
-1.49805e+06
-1.34302e+06
-1.26923e+06
-1.15194e+06
-1.09368e+06
-998818
-912907
-827545
-746432
-666023
-588688
-511799
-415647
-342635
-270657
-198038
-127928
-56802.2
-1.84965e+06
-1.54059e+06
-1.42689e+06
-1.29568e+06
-1.22728e+06
-1.14943e+06
-1.0803e+06
-989096
-903686
-820485
-740025
-661477
-584879
-509086
-423106
-333483
-264713
-193688
-125361
-55938.8
-1.64668e+06
-1.48248e+06
-1.41393e+06
-1.26908e+06
-1.1958e+06
-1.11988e+06
-1.04748e+06
-958896
-875669
-795712
-717955
-642125
-567787
-495318
-412777
-325237
-258068
-189208
-122758
-55030.5
-1.58215e+06
-1.42573e+06
-1.33681e+06
-1.20467e+06
-1.14215e+06
-1.07643e+06
-1.00987e+06
-925450
-845687
-768950
-694455
-622110
-551469
-481937
-402248
-317100
-251641
-184865
-120137
-54049.5
-1.83706e+06
-1.40385e+06
-1.32188e+06
-1.14516e+06
-1.09185e+06
-1.0294e+06
-968239
-889465
-815022
-743129
-673096
-603910
-535934
-468718
-392274
-309453
-245959
-180751
-117664
-52993.7
-1.61637e+06
-1.31601e+06
-1.2365e+06
-1.06721e+06
-1.02418e+06
-938463
-907578
-835680
-769261
-703745
-638933
-573850
-510051
-446423
-364571
-302832
-240479
-176951
-115431
-52181.7
-1.104e+06
-1.07012e+06
-1.07764e+06
-964304
-943183
-876949
-833688
-768445
-716015
-652792
-595946
-534841
-476806
-416076
-356627
-296014
-235613
-173617
-113395
-51541.8
-1.27655e+06
-987236
-981695
-886559
-882704
-822035
-791454
-734398
-688635
-630696
-578332
-520794
-465005
-406692
-348938
-290019
-231087
-170460
-111477
-50743.5
-1.12949e+06
-885210
-873166
-821486
-817080
-771937
-747544
-697214
-659382
-605339
-559907
-504916
-453637
-397302
-342074
-284419
-226990
-167427
-109637
-49726
-608159
-694717
-771853
-755997
-771759
-734810
-718701
-670365
-637900
-586674
-545128
-492839
-443854
-389427
-335827
-279472
-223262
-164740
-108017
-48884.7
-591697
-645142
-725903
-716262
-729807
-700707
-689171
-645527
-616778
-569355
-531459
-481363
-435448
-382480
-330614
-275304
-220193
-162561
-106876
-48437.5
-877012
-665495
-699161
-684059
-707601
-681580
-677220
-632782
-606353
-560437
-523442
-474767
-429692
-377754
-326763
-272286
-217951
-161085
-106354
-48621.3
-560030
-583548
-697398
-673969
-698015
-673096
-668885
-625581
-599346
-555302
-519106
-471029
-426590
-375113
-324648
-270625
-216665
-160327
-106240
-49138.9
-2.10789e+06
-1.81379e+06
-1.74858e+06
-1.54252e+06
-1.45043e+06
-1.28704e+06
-1.19686e+06
-1.07376e+06
-982232
-881602
-792926
-703139
-618400
-534102
-452796
-372395
-293657
-214616
-138853
-62050.2
-2.23612e+06
-1.89582e+06
-1.75467e+06
-1.54624e+06
-1.44253e+06
-1.28207e+06
-1.18899e+06
-1.06885e+06
-977955
-877952
-790261
-700765
-616363
-532626
-451473
-371275
-292713
-213610
-137792
-60547.5
-2.29472e+06
-1.83977e+06
-1.71026e+06
-1.50599e+06
-1.42401e+06
-1.2613e+06
-1.17829e+06
-1.05775e+06
-970919
-871109
-784789
-695768
-612530
-529137
-448632
-368951
-291059
-212395
-136689
-59491.4
-1.89538e+06
-1.73994e+06
-1.64724e+06
-1.46649e+06
-1.38839e+06
-1.24317e+06
-1.15639e+06
-1.04461e+06
-957896
-861635
-776354
-689322
-606603
-524378
-444556
-365698
-288496
-210501
-135322
-58810.6
-1.67021e+06
-1.58697e+06
-1.57439e+06
-1.41318e+06
-1.36223e+06
-1.21684e+06
-1.13961e+06
-1.02796e+06
-945397
-849730
-766772
-680642
-599552
-518227
-439432
-361367
-285103
-207997
-133717
-57983.5
-1.57928e+06
-1.54013e+06
-1.50862e+06
-1.38023e+06
-1.32092e+06
-1.19291e+06
-1.11217e+06
-1.01206e+06
-926671
-837100
-753859
-670121
-589948
-510417
-432663
-356135
-280911
-205007
-131790
-57017.1
-1.67007e+06
-1.55261e+06
-1.50319e+06
-1.35721e+06
-1.29945e+06
-1.17154e+06
-1.09412e+06
-992574
-910812
-821191
-740949
-658183
-579920
-501688
-425059
-349711
-276209
-201658
-129836
-56409.8
-1.89699e+06
-1.58557e+06
-1.49822e+06
-1.34243e+06
-1.26965e+06
-1.15098e+06
-1.09408e+06
-999144
-913345
-827767
-746535
-666107
-588566
-511695
-415525
-342762
-270799
-198020
-127598
-55721.1
-1.7964e+06
-1.53261e+06
-1.4289e+06
-1.29644e+06
-1.22755e+06
-1.14892e+06
-1.08126e+06
-989676
-903962
-820619
-740134
-661572
-585045
-509562
-423345
-333606
-264684
-193578
-124993
-54895
-1.64272e+06
-1.47476e+06
-1.41134e+06
-1.26891e+06
-1.19598e+06
-1.11936e+06
-1.04798e+06
-958956
-875792
-795700
-717785
-642118
-567770
-495228
-412596
-325362
-258153
-189085
-122304
-53828.5
-1.54418e+06
-1.4016e+06
-1.33828e+06
-1.2079e+06
-1.14306e+06
-1.0761e+06
-1.00973e+06
-925001
-845531
-766357
-693952
-622156
-551487
-481672
-401863
-317064
-251814
-184845
-119782
-52858.1
-1.6874e+06
-1.38102e+06
-1.31828e+06
-1.14649e+06
-1.09281e+06
-1.02954e+06
-968456
-889455
-814821
-742839
-672615
-603789
-535910
-468605
-391878
-309425
-246050
-180773
-117351
-51870.5
-1.78652e+06
-1.29015e+06
-1.23916e+06
-1.06873e+06
-1.02625e+06
-939120
-908024
-834799
-768413
-702660
-638575
-573786
-509937
-446270
-364448
-302823
-240396
-176908
-115118
-51094.7
-949597
-1.04977e+06
-1.07516e+06
-967283
-944999
-878413
-833425
-768418
-715194
-652567
-595740
-534833
-476739
-416029
-356683
-296002
-235611
-173521
-113040
-50428.8
-991594
-959641
-981268
-885167
-881572
-822805
-791633
-734816
-688381
-630543
-578057
-520702
-464986
-406730
-349003
-290051
-231124
-170449
-111173
-49658.5
-971813
-852914
-872055
-821254
-816912
-772695
-747469
-697721
-659209
-605354
-559694
-504746
-453590
-397305
-342127
-284428
-227037
-167430
-109343
-48673.1
-704019
-687777
-767644
-753956
-770243
-734995
-718285
-670555
-638025
-586632
-544841
-492635
-443766
-389428
-335838
-279475
-223273
-164721
-107722
-47769.1
-474972
-631419
-728821
-714838
-729524
-700969
-688360
-645580
-616703
-569166
-531046
-481233
-435264
-382449
-330621
-275284
-220166
-162510
-106585
-47500.9
-845861
-658218
-703543
-684225
-706654
-681790
-675735
-632427
-606079
-560291
-523301
-474606
-429513
-377731
-326783
-272244
-217876
-160997
-106139
-48013.8
-577084
-621952
-700331
-675681
-696821
-673119
-667741
-625347
-599620
-555183
-518869
-470806
-426465
-375019
-324620
-270573
-216612
-160260
-106136
-48952.2
-2.03578e+06
-1.84254e+06
-1.7479e+06
-1.54484e+06
-1.45161e+06
-1.28619e+06
-1.19702e+06
-1.07332e+06
-982357
-881483
-792998
-703073
-618413
-534151
-452776
-372340
-293569
-214442
-138558
-61428.2
-2.38533e+06
-1.93103e+06
-1.75966e+06
-1.55059e+06
-1.4436e+06
-1.28203e+06
-1.18904e+06
-1.06872e+06
-978047
-877771
-790341
-700869
-616478
-532733
-451441
-371183
-292585
-213463
-137276
-59087.5
-2.29604e+06
-1.84358e+06
-1.7109e+06
-1.50842e+06
-1.42288e+06
-1.26148e+06
-1.17767e+06
-1.05782e+06
-971088
-871228
-784847
-696000
-612633
-529272
-448668
-368942
-291076
-212420
-136149
-57538.1
-1.79664e+06
-1.73516e+06
-1.64331e+06
-1.46705e+06
-1.38885e+06
-1.24316e+06
-1.15602e+06
-1.04491e+06
-957860
-861889
-776516
-689556
-606722
-524575
-444691
-365726
-288518
-210506
-134783
-56585
-1.7156e+06
-1.57372e+06
-1.57463e+06
-1.40949e+06
-1.36298e+06
-1.21775e+06
-1.1396e+06
-1.02841e+06
-945338
-849983
-766805
-680759
-599597
-518352
-439578
-361387
-285131
-208006
-133198
-55832.3
-1.55437e+06
-1.52618e+06
-1.50981e+06
-1.3814e+06
-1.32071e+06
-1.19322e+06
-1.11179e+06
-1.01254e+06
-926444
-837359
-753799
-670134
-590006
-510478
-432758
-356213
-280988
-205041
-131327
-54983.1
-1.68976e+06
-1.53788e+06
-1.49972e+06
-1.35631e+06
-1.29905e+06
-1.17109e+06
-1.09385e+06
-992433
-910670
-821251
-740993
-658100
-579817
-501631
-425123
-349845
-276376
-201759
-129395
-54191.2
-1.85437e+06
-1.56849e+06
-1.49642e+06
-1.34104e+06
-1.26983e+06
-1.15e+06
-1.09439e+06
-999287
-913667
-828043
-746574
-665973
-588188
-511482
-415857
-342869
-270822
-197967
-127127
-53574.5
-1.78634e+06
-1.52273e+06
-1.42504e+06
-1.29613e+06
-1.22747e+06
-1.14833e+06
-1.08142e+06
-989717
-904300
-820847
-740216
-661708
-585064
-509779
-423839
-334087
-264688
-193556
-124538
-52665.1
-1.7129e+06
-1.47489e+06
-1.41169e+06
-1.2694e+06
-1.19638e+06
-1.11822e+06
-1.04813e+06
-959019
-875740
-795486
-717667
-642139
-568047
-495453
-412863
-325858
-258181
-189076
-121796
-51533.4
-1.6156e+06
-1.38513e+06
-1.33402e+06
-1.20954e+06
-1.14338e+06
-1.07493e+06
-1.0091e+06
-924815
-845453
-768102
-693472
-622082
-551329
-481553
-401898
-317463
-251893
-184858
-119421
-50565.8
-1.74244e+06
-1.36663e+06
-1.31677e+06
-1.14814e+06
-1.09317e+06
-1.02845e+06
-967814
-889082
-814680
-742754
-672522
-603792
-535874
-468426
-391689
-309693
-246072
-180806
-117108
-49584.6
-1.47426e+06
-1.22996e+06
-1.23399e+06
-1.0672e+06
-1.027e+06
-939509
-908102
-833805
-768040
-702232
-638457
-573713
-509906
-446118
-364759
-302836
-240379
-176946
-114886
-48876.7
-864117
-1.00453e+06
-1.07344e+06
-968618
-947117
-880435
-833227
-768426
-714525
-652583
-595619
-535066
-476727
-416066
-356744
-295951
-235526
-173414
-112689
-48229.5
-926206
-906886
-979605
-881310
-882593
-823833
-792142
-735633
-687993
-630486
-577643
-520441
-465018
-406834
-349074
-290039
-231021
-170370
-110893
-47589.8
-894761
-830018
-869766
-819923
-813980
-773570
-747289
-698535
-659166
-605547
-559396
-504604
-453542
-397324
-342224
-284417
-226957
-167387
-109081
-46768.2
-648226
-672930
-761136
-752005
-769872
-734445
-718757
-671368
-638050
-586814
-544469
-492496
-443692
-389470
-335869
-279514
-223260
-164739
-107481
-46032.8
-516104
-641771
-731759
-712953
-730186
-700333
-688316
-645540
-616921
-569533
-530725
-481312
-435074
-382481
-330677
-275317
-220133
-162515
-106384
-45944.6
-794411
-647650
-703299
-685344
-706786
-681791
-675296
-631868
-605798
-560412
-522911
-474496
-429437
-377759
-326922
-272245
-217774
-160905
-105893
-46884.7
-572770
-617748
-699533
-677037
-696577
-674087
-667225
-624864
-599715
-555091
-518518
-470534
-426274
-374873
-324562
-270498
-216532
-160164
-106007
-48691.9
-2.09288e+06
-1.84307e+06
-1.74427e+06
-1.54593e+06
-1.4528e+06
-1.28471e+06
-1.1971e+06
-1.07272e+06
-982401
-881164
-793039
-703027
-618456
-534191
-452756
-372240
-293439
-214227
-138295
-60848.2
-2.47664e+06
-1.95488e+06
-1.76175e+06
-1.55318e+06
-1.44311e+06
-1.28253e+06
-1.18878e+06
-1.0688e+06
-977976
-877495
-790379
-700955
-616603
-532919
-451435
-371132
-292395
-213338
-136665
-57165.5
-2.25172e+06
-1.81363e+06
-1.71365e+06
-1.50871e+06
-1.42184e+06
-1.26241e+06
-1.17638e+06
-1.05895e+06
-970758
-871637
-784854
-696284
-612709
-529423
-448697
-368974
-291119
-212721
-135621
-54569.6
-1.91382e+06
-1.74501e+06
-1.64824e+06
-1.46928e+06
-1.3876e+06
-1.24502e+06
-1.15529e+06
-1.0457e+06
-957475
-862268
-776496
-689774
-606770
-524726
-444797
-365778
-288545
-210719
-134307
-53472.6
-1.66003e+06
-1.58226e+06
-1.57469e+06
-1.40889e+06
-1.36287e+06
-1.2184e+06
-1.13954e+06
-1.0291e+06
-945100
-850590
-766733
-680953
-599572
-518488
-439779
-361483
-285186
-208249
-132726
-52637.5
-1.37692e+06
-1.49601e+06
-1.51078e+06
-1.38204e+06
-1.31971e+06
-1.19409e+06
-1.11158e+06
-1.01287e+06
-926164
-837563
-753788
-670342
-590080
-510514
-432852
-356316
-281130
-205339
-130937
-51795.1
-1.48269e+06
-1.5098e+06
-1.49737e+06
-1.35613e+06
-1.29839e+06
-1.17038e+06
-1.09406e+06
-992699
-910965
-821635
-741095
-658217
-580048
-501511
-425237
-350002
-276565
-202075
-128942
-50982.4
-1.61994e+06
-1.56242e+06
-1.49264e+06
-1.34185e+06
-1.26962e+06
-1.14924e+06
-1.09418e+06
-999983
-913738
-828335
-746374
-665828
-587803
-511183
-416453
-342861
-270844
-198052
-126692
-50455.4
-1.82732e+06
-1.51357e+06
-1.42843e+06
-1.29635e+06
-1.22707e+06
-1.14834e+06
-1.0811e+06
-989680
-904547
-821056
-740193
-661648
-584939
-509778
-424239
-334855
-264705
-193679
-124171
-49595.6
-1.51939e+06
-1.46283e+06
-1.41026e+06
-1.26961e+06
-1.19574e+06
-1.11675e+06
-1.04754e+06
-958913
-875660
-795496
-717617
-642105
-568304
-495694
-413296
-326655
-258194
-189238
-121459
-48454.5
-1.40954e+06
-1.36811e+06
-1.33544e+06
-1.21177e+06
-1.14334e+06
-1.07327e+06
-1.00808e+06
-924660
-845501
-769001
-694062
-622162
-551566
-481720
-402211
-318309
-251931
-184971
-119168
-47396
-1.62321e+06
-1.35286e+06
-1.32027e+06
-1.14983e+06
-1.09319e+06
-1.02653e+06
-966676
-888568
-814655
-742714
-672619
-603862
-535863
-468359
-392039
-310357
-246028
-180877
-117125
-46459.2
-1.44221e+06
-1.20385e+06
-1.23293e+06
-1.06524e+06
-1.02797e+06
-939338
-907479
-833387
-768134
-702279
-638646
-573841
-510041
-446148
-365357
-302966
-240322
-177008
-114890
-45794.9
-805569
-981713
-1.07277e+06
-967966
-947815
-881551
-833101
-768468
-714050
-652953
-595566
-535146
-476925
-416275
-356790
-295942
-235364
-173339
-112463
-45236.4
-846767
-916787
-977194
-879813
-885166
-823834
-792617
-736666
-687677
-630644
-577051
-520310
-465147
-406990
-349124
-289916
-230689
-170080
-110737
-44832.9
-821985
-820820
-868469
-820179
-812955
-773804
-747885
-699580
-659311
-605815
-559023
-504564
-453467
-397368
-342349
-284336
-226787
-167353
-109019
-44368.8
-609350
-673091
-763294
-751672
-769776
-733329
-719609
-671800
-638446
-587076
-543992
-492518
-443627
-389548
-335900
-279577
-223225
-164797
-107461
-43848.8
-618289
-653183
-735519
-711585
-731332
-699219
-688853
-645289
-617459
-569934
-530496
-481593
-434894
-382575
-330828
-275404
-220096
-162601
-106288
-43831.6
-691151
-652943
-705259
-684530
-707697
-680950
-675429
-631823
-605466
-560680
-522545
-474504
-429326
-377751
-327067
-272253
-217638
-160815
-105660
-45297.1
-494388
-612479
-699265
-676473
-695950
-674668
-666865
-624351
-599907
-555154
-518170
-470376
-426156
-374820
-324547
-270433
-216446
-160060
-105912
-48395.6
-737135
-772851
-718913
-795546
-736951
-772522
-718845
-660847
-700279
-646532
-717695
-660951
-700203
-646526
-712392
-749345
-695689
-765956
-712203
-749288
-695481
-642416
-678007
-625702
-693592
-642364
-677811
-625664
-1.01262e+06
-1.05533e+06
-988462
-1.07999e+06
-1.0129e+06
-1.05574e+06
-988481
-925579
-966805
-903711
-988984
-925693
-966813
-903752
-842410
-883009
-822317
-903657
-842494
-883093
-822349
-760820
-802274
-743277
-820485
-760894
-802287
-743283
-681939
-723855
-666354
-740035
-681967
-723809
-666312
-604572
-647221
-591197
-661486
-604671
-647250
-591139
-528738
-572562
-516946
-584801
-528689
-572343
-517036
-453522
-498818
-444686
-509037
-453531
-498793
-444478
-980353
-1.01969e+06
-955178
-1.0472e+06
-980394
-1.01993e+06
-955053
-896075
-934315
-873269
-958894
-896104
-934174
-873151
-815390
-853357
-794766
-875606
-815470
-853247
-794714
-737273
-775592
-718991
-795697
-737247
-775564
-718942
-661033
-700337
-645113
-717981
-660970
-700266
-645046
-586504
-627082
-573009
-642157
-586404
-626883
-572871
-513386
-555204
-502897
-567831
-513367
-555239
-502828
-441545
-485390
-432812
-495352
-441307
-485297
-432566
-946181
-979052
-918297
-1.00972e+06
-946094
-979416
-918338
-865512
-898696
-841571
-925538
-865382
-898709
-841556
-788021
-822908
-767804
-845749
-787933
-822879
-767764
-713202
-749762
-696456
-768992
-713014
-749682
-696343
-640077
-678803
-626218
-694552
-640081
-678734
-626099
-568986
-608730
-556897
-622149
-568964
-608587
-556916
-499448
-539958
-489153
-551446
-499391
-539887
-489085
-429960
-472216
-421626
-481985
-429747
-472110
-421420
-908637
-934030
-878774
-967850
-908715
-934205
-878722
-833380
-859810
-808170
-889450
-833401
-859799
-807900
-761068
-790390
-740421
-815041
-761019
-790216
-740177
-690920
-723047
-673718
-743189
-690796
-722741
-673164
-621556
-656457
-606298
-673336
-621340
-655954
-606515
-552857
-589649
-541074
-603952
-552867
-589554
-541021
-485804
-524041
-476321
-535961
-485730
-523935
-476199
-418878
-459100
-411216
-468775
-418690
-458933
-411129
-1.01303e+06
-1.05601e+06
-988510
-1.08101e+06
-1.01363e+06
-1.05654e+06
-988742
-925716
-966825
-903771
-989607
-925895
-966919
-903830
-842493
-883123
-822364
-903902
-842625
-883184
-822428
-760891
-802302
-743275
-820595
-760977
-802356
-743258
-681967
-723785
-666307
-740124
-682086
-723710
-666244
-604704
-647257
-591137
-661550
-604786
-647255
-591143
-528731
-572320
-517044
-585024
-528960
-572331
-517075
-453465
-498791
-444286
-509422
-453679
-498779
-444124
-980397
-1.02012e+06
-954966
-1.04772e+06
-980495
-1.02015e+06
-954653
-896137
-934078
-873084
-958939
-896231
-933768
-872963
-815499
-853201
-794697
-875777
-815548
-853120
-794512
-737236
-775527
-718921
-795732
-737175
-774936
-718963
-660938
-700233
-645029
-717836
-660834
-700263
-645239
-586362
-626834
-572901
-642105
-586264
-626636
-572973
-513353
-555282
-502784
-567720
-513287
-555295
-502594
-441112
-485242
-432406
-495234
-440897
-485033
-432192
-946022
-979755
-918337
-1.00975e+06
-945689
-979765
-918253
-865307
-898698
-841531
-925092
-865132
-898597
-841405
-787906
-822850
-767731
-845570
-787711
-822732
-767608
-712931
-749637
-696224
-768408
-712455
-749434
-695777
-640074
-678572
-625991
-693952
-640299
-678129
-625747
-568982
-608533
-556919
-622103
-569058
-608411
-556910
-499354
-539873
-489033
-551501
-499190
-539870
-488895
-429591
-472051
-421254
-481748
-429330
-471935
-420983
-908744
-934722
-878833
-968260
-908818
-935160
-878716
-833390
-859867
-807811
-889482
-833263
-859657
-807222
-760974
-790181
-740052
-814878
-760807
-789698
-739284
-690593
-722594
-672898
-742903
-690172
-721876
-672438
-621210
-655880
-606597
-672732
-621045
-655679
-606636
-552852
-589495
-540989
-603813
-552827
-589317
-540916
-485660
-523879
-476130
-535915
-485514
-523760
-476020
-418525
-458853
-410973
-468634
-418286
-458747
-410896
-1.01376e+06
-1.05683e+06
-988842
-1.08132e+06
-1.01408e+06
-1.05704e+06
-989071
-925890
-966964
-903846
-989750
-925979
-967080
-903888
-842666
-883203
-822447
-904237
-842927
-883242
-822537
-760964
-802367
-743238
-820796
-760994
-802340
-743079
-682125
-723679
-666226
-740201
-682302
-723556
-666282
-604795
-647278
-591151
-661690
-604798
-647358
-591209
-529036
-572360
-517128
-585058
-529253
-572469
-517403
-453721
-498796
-444045
-509746
-454095
-498972
-444263
-980548
-1.02023e+06
-954587
-1.04805e+06
-980713
-1.01999e+06
-954480
-896248
-933706
-872926
-959006
-896251
-933570
-872792
-815537
-853075
-794333
-875774
-815459
-852933
-794225
-769543
-776100
-788996
-795639
-769628
-776044
-788846
-692836
-698651
-711846
-717753
-692834
-698650
-711867
-586271
-626660
-572969
-642132
-586404
-626709
-572886
-513300
-555265
-502519
-567977
-513528
-555141
-502410
-440790
-484957
-432066
-495386
-440976
-484893
-432220
-945579
-979895
-918204
-1.0092e+06
-945414
-979113
-917949
-865092
-898540
-841355
-924854
-864988
-898289
-841233
-787524
-822691
-767547
-845451
-787485
-822617
-767549
-742477
-749170
-761744
-765475
-743235
-746930
-761238
-670155
-675558
-688457
-692715
-670475
-674430
-688092
-569066
-608386
-556920
-622118
-569004
-608377
-556955
-499123
-539859
-488873
-551367
-498945
-539829
-488778
-429153
-471897
-420789
-481517
-429209
-471738
-420582
-908826
-935672
-878783
-967850
-908680
-935670
-878136
-833194
-859592
-807105
-889212
-833010
-858930
-806665
-760738
-789619
-739167
-814697
-760713
-789330
-738514
-690089
-721747
-672320
-742760
-689962
-721237
-672227
-621003
-655668
-606627
-672510
-620973
-655612
-606599
-552849
-589268
-540886
-603781
-552881
-589233
-540881
-485485
-523719
-475970
-535885
-485411
-523754
-475920
-418116
-458704
-410725
-468481
-417935
-458700
-410659
-1.01419e+06
-1.05714e+06
-989129
-1.08106e+06
-1.01456e+06
-1.05666e+06
-989220
-925959
-967111
-903886
-989712
-926000
-967148
-903823
-843027
-883232
-822553
-904509
-843544
-883197
-822614
-760970
-802315
-743027
-821048
-760945
-802238
-743002
-682360
-723531
-666298
-740220
-682586
-723486
-666284
-604784
-647353
-591226
-661690
-604779
-647226
-591222
-529337
-572494
-517476
-584981
-529581
-572579
-517706
-454139
-499039
-444260
-509773
-454782
-499232
-444625
-980758
-1.01998e+06
-954435
-1.04762e+06
-980766
-1.01928e+06
-954273
-896218
-933516
-872733
-958952
-896136
-933358
-872624
-815433
-852902
-794417
-875665
-815411
-852864
-794746
-736913
-774789
-718906
-795473
-736872
-775503
-718670
-660977
-700199
-645106
-717640
-660952
-699986
-644899
-586464
-626669
-572885
-642132
-586594
-626781
-573165
-513613
-555145
-502468
-568241
-513819
-555451
-502678
-440944
-484943
-432159
-495645
-441338
-485096
-432419
-945373
-979027
-917827
-1.00817e+06
-945264
-977915
-917480
-864960
-898188
-841214
-924699
-864919
-897899
-841212
-787697
-822618
-767582
-845510
-788023
-822637
-767629
-712083
-749320
-695491
-768932
-712419
-749371
-695572
-640214
-677825
-625681
-693888
-639915
-677912
-625754
-568960
-608392
-556959
-622067
-569026
-608434
-556985
-498946
-539817
-488729
-551449
-499121
-539793
-488654
-429118
-471676
-420435
-481691
-429365
-471649
-420642
-908536
-935943
-877951
-966716
-907950
-934770
-877527
-832978
-858791
-806610
-888635
-832952
-858458
-806332
-760710
-789315
-738356
-814655
-760689
-789164
-738257
-689978
-721126
-672205
-742737
-690049
-720897
-672035
-620991
-655583
-606588
-672591
-621070
-655405
-606565
-552891
-589240
-540865
-603840
-552929
-589283
-540832
-485378
-523758
-475875
-535846
-485297
-523865
-475755
-417789
-458684
-410486
-468338
-417902
-458599
-410604
-1.01468e+06
-1.05658e+06
-989219
-1.08056e+06
-1.01489e+06
-1.0559e+06
-989108
-926007
-967121
-903811
-990118
-926261
-967002
-903704
-843706
-883198
-822666
-904609
-843713
-883112
-822607
-760947
-802255
-742991
-821248
-760962
-802219
-742897
-682680
-723470
-666272
-740132
-682583
-723433
-666207
-604822
-647181
-591247
-661705
-604898
-647176
-591294
-529724
-572615
-517767
-584927
-529772
-572685
-517825
-454845
-499282
-444579
-509896
-455118
-499368
-444893
-980727
-1.01918e+06
-954216
-1.04662e+06
-980566
-1.01839e+06
-954130
-896126
-933318
-872613
-958802
-896027
-933247
-872606
-815446
-852854
-794756
-875573
-815469
-852812
-794627
-736865
-775542
-718681
-795481
-736828
-775409
-718650
-660907
-700016
-645045
-717585
-660832
-700063
-645205
-586643
-626946
-573331
-642086
-586753
-627070
-573564
-513875
-555589
-502726
-568413
-513937
-555750
-502786
-441306
-485128
-432337
-495775
-441547
-485177
-432553
-945222
-977825
-917375
-1.00761e+06
-945160
-977029
-917172
-864914
-897847
-841218
-924606
-864886
-897782
-841230
-788056
-822640
-767632
-845411
-787971
-822643
-767611
-712557
-749388
-695609
-768976
-712774
-749412
-695687
-640003
-677950
-625784
-694368
-640232
-678035
-625847
-569189
-608454
-557023
-622315
-569374
-608521
-557114
-499161
-539836
-488695
-551680
-499204
-539923
-488706
-429294
-471679
-420538
-481754
-429462
-471713
-420806
-907815
-934766
-877451
-965934
-907540
-933400
-877208
-832953
-858387
-806271
-888522
-832943
-858099
-806254
-760683
-789149
-738349
-814661
-760630
-789110
-738696
-690067
-720844
-671991
-742706
-690045
-720893
-672154
-621093
-655266
-606497
-672642
-621110
-655121
-606510
-552967
-589147
-540748
-603911
-552995
-589009
-540783
-485312
-523757
-475663
-535950
-485306
-523582
-475578
-417787
-458462
-410490
-468408
-417971
-458237
-410824
-750239
-756535
-730968
-737071
-750238
-756472
-730979
-762852
-781830
-755590
-772021
-762960
-781425
-754871
-744017
-724952
-737668
-719977
-743893
-725154
-738753
-769482
-795587
-775892
-788762
-775968
-788749
-769415
-750201
-737002
-756304
-730875
-756381
-730957
-750085
-762811
-771573
-781635
-755574
-781284
-754971
-762812
-744020
-720099
-724927
-737640
-725170
-738890
-743810
-673873
-679637
-655286
-660878
-673913
-679648
-655231
-687645
-706128
-681740
-701317
-687383
-706399
-682832
-668774
-650245
-663661
-646188
-668705
-650178
-665291
-692849
-717729
-698648
-711809
-698651
-711858
-692861
-673894
-660916
-679706
-655297
-679673
-655234
-673953
-687679
-701425
-706150
-681597
-706451
-682869
-687403
-668696
-646271
-650173
-663425
-650144
-665041
-668627
-724297
-730969
-706556
-711202
-724815
-729585
-706153
-737512
-755852
-731323
-749272
-737603
-755747
-731239
-719217
-701251
-713424
-695582
-719335
-701104
-713332
-742360
-765036
-749028
-761562
-746956
-761070
-742911
-724154
-711158
-730838
-706160
-729561
-706002
-724429
-737478
-749257
-755815
-731219
-755745
-731206
-737507
-719137
-695497
-700950
-713254
-700984
-713271
-719112
-652619
-658074
-635338
-641791
-652730
-657557
-635317
-665277
-683291
-660457
-677878
-665410
-683115
-660375
-647573
-630303
-643015
-625666
-647706
-630218
-642957
-670041
-692625
-675170
-688078
-674319
-687922
-670166
-652545
-641879
-657617
-635309
-657295
-635344
-652550
-665244
-677820