/*--------------------------------*- C++ -*----------------------------------*\
  =========                 |
  \\      /  F ield         | OpenFOAM: The Open Source CFD Toolbox
   \\    /   O peration     | Website:  https://openfoam.org
    \\  /    A nd           | Version:  10
     \\/     M anipulation  |
\*---------------------------------------------------------------------------*/
FoamFile
{
    format      ascii;
    class       surfaceScalarField;
    location    "4";
    object      phi;
}
// * * * * * * * * * * * * * * * * * * * * * * * * * * * * * * * * * * * * * //

dimensions      [0 3 -1 0 0 0 0];

internalField   nonuniform List<scalar> 
38556
(
-1839.35
-517.649
222.616
-679.311
-637.519
-522.521
-46.8948
-413.645
-218.772
212.676
-220.384
-39.1857
491.672
-206.41
-72.5868
698.786
-163.578
-43.535
837.968
-135.775
-3.40745
986.296
-123.655
-24.6731
1065.37
-95.5712
16.4937
1122.25
-90.5675
33.6963
1143.62
-75.4481
54.0756
1159.21
-69.7308
54.1414
1157.79
-52.5324
53.9538
1142.71
-32.7843
47.8551
1111.27
-7.4125
38.8593
1085.59
8.83288
16.8478
1041.93
30.6515
13.0089
956.204
58.2873
27.4356
845.827
61.0966
49.2801
12.2688
40.6059
-1592.05
-1111.05
-144.42
-357.746
-1159.35
-712.468
228.705
-695.057
-305.038
486.409
-386.395
-91.6928
611.587
-242.245
-89.3429
721.835
-206.066
-67.7602
733.316
-128.686
-18.5701
759.684
-112.8
-37.2221
739.435
-62.1777
-13.1445
722.929
-40.6769
-33.3845
690.9
-13.4153
-30.003
669.572
1.26737
-49.6701
655.143
14.8194
-52.9229
647.5
32.5225
-57.6633
646.881
51.7206
-58.5147
651.89
65.4675
-61.6434
662.794
67.7153
-47.9676
676.522
70.171
-25.6117
676.373
55.885
5.36114
11.2954
1.50422
348.767
-1434.72
748.992
770.382
-1087.79
-493.18
375.42
-613.413
313.317
395.489
-317.269
-89.1956
381.354
-231.988
3.87775
458.09
-200.846
-81.9552
510.485
-163.608
-17.4735
577.303
-131.23
-48.3875
616.528
-82.8552
-18.5471
653.014
-37.2034
-39.9591
675.411
-5.77134
-30.0412
696.37
20.6862
-40.3783
711.385
35.6495
-35.8451
729.367
54.8734
-40.3322
750.234
65.3045
-34.4514
766.595
74.843
-25.7361
764.193
77.2309
-7.11388
739.567
84.8099
9.98736
689.917
71.7376
33.7978
16.2878
18.1153
1060.26
-685.031
-2606.07
1141.8
-517.193
-652.131
728.841
-255.733
55.2795
610.049
-237.102
38.6256
455.592
-201.981
124.45
482.361
-229.681
2.06608
513.417
-229.508
34.8433
558.216
-177.61
1.5809
598.32
-134.914
11.9546
637.876
-71.3239
-5.43499
669.695
-34.9215
-2.66899
698.67
10.6395
-18.9295
727.08
26.8016
-19.5615
758.837
49.5472
-26.4305
786.771
60.524
-23.1537
797.711
71.7289
-7.82645
774.009
87.144
13.7891
726.38
102.802
29.6372
668.126
94.3995
35.5911
35.0002
5.9248
-269.081
-493.148
-524.875
-213.567
-205.107
-367.599
-163.739
-508.784
203.222
-122.429
-405.389
126.976
180.667
-576.108
71.0315
201.985
-363.294
112.294
348.229
-464.715
88.9628
413.093
-291.392
48.9186
487.799
-257.981
48.3612
544.332
-145.557
17.7005
596.152
-102.658
15.9166
639.607
-25.6643
-7.15063
675.841
-1.5834
-7.84882
706.138
28.8888
-9.63946
724.637
46.95
-4.92485
723.866
69.4391
3.06134
701.033
89.8766
20.1002
681.329
102.181
20.325
665.519
88.4253
21.7836
32.9545
7.2789
245.474
984.859
-1483.26
404.659
-131.024
-233.267
483.303
-575.012
-12.4157
514.712
-523.09
86.2913
487.128
-690.712
142.188
494.933
-443.494
72.3959
521.613
-570.765
79.3698
505.122
-339.588
64.6871
504.317
-305.822
48.6463
498.572
-167.963
28.1504
507.991
-127.001
14.9245
523.514
-49.2466
8.0596
546.613
-21.5045
-3.17841
561.978
19.8496
-6.32589
573.191
44.1537
-8.41652
576.663
73.1509
-7.1837
576.875
87.3162
2.34812
576.082
92.155
10.8193
562.362
75.4877
26.6574
21.7904
17.2848
-218.822
-175.869
-2421.34
289.627
-604.043
-35.4294
757.317
-872.112
-170.59
938.12
-692.006
-11.8878
769.856
-693.021
170.573
655.12
-395.812
67.0539
528.73
-113.037
68.5612
-148.49
-107.75
-143.659
484.129
-90.1383
33.6644
-84.9889
-81.9037
-71.6212
463.957
-74.2179
27.0882
-91.6028
-63.4619
-83.4556
451.921
-51.2263
22.1959
-46.7905
-42.5903
-37.5153
445.772
-28.3886
14.6803
-42.4022
-25.4166
-39.3253
447.561
-19.3234
16.5166
-18.6523
-15.4632
-14.1136
457.192
-7.44683
8.4703
-14.5014
-4.9257
-12.7321
466.556
2.70726
-0.589737
2.06716
4.06169
2.23986
481.864
35.493
-6.64716
493.482
66.4924
-4.9603
502.054
77.1247
1.61998
510.342
73.5761
10.2909
523.315
44.1539
18.3606
3.67481
4.79109
276.663
-1499.07
2643.24
724.445
-1260.66
208.831
1101.37
-1091.14
-157.902
1399.24
-774.581
-215.291
1315.47
-632.978
23.7275
298.592
-83.6065
28.3456
288.661
291.401
281.981
-50.0476
-82.0563
-53.6136
264.03
-86.7024
8.22736
-205.681
183.585
-73.4891
5.44631
-168.521
159.449
-64.336
-0.809985
-140.749
142.839
-54.0219
0.705559
-139.35
140.312
-31.5782
2.22749
-132.678
136.206
-27.4444
4.59277
-134.443
134.02
-14.1995
7.17576
-127.524
126.926
-0.273424
3.57924
465.36
19.3865
-5.06433
-122.598
-129.039
-112.245
-115.014
10.3521
16.1412
8.21363
474.533
57.7935
-0.474104
483.233
61.6287
6.79687
506.335
33.2646
17.2098
541.332
-12.004
21.1605
-30.016
9.53762
1501.7
-994.735
1438.67
1071.64
-738.542
-92.055
833.333
-573.658
-279.173
682.567
-571.204
-52.6114
103.952
-520.595
137.592
94.8411
116.797
117.002
111.675
-91.5747
0.24493
12.9096
-32.8849
31.8882
-12.8025
0.889603
-31.1019
12.5187
35.9881
-16.0301
-1.37488
-42.6008
13.2118
44.5189
-14.3194
-0.81054
-42.885
10.9467
44.2601
-11.6999
-0.621854
-43.5537
7.513
44.1615
-7.86848
-0.252364
-42.3856
6.6932
43.1416
-7.24434
-0.204839
-42.1838
5.46911
42.8244
-7.12186
1.01216
-39.9274
0.131389
38.8953
0.35977
0.54094
-33.8809
129.907
21.1388
1.29988
-34.2145
-32.4827
-32.3815
481.983
51.5562
5.50911
-123.401
-125.228
-115.233
-117.392
491.227
39.8787
12.5059
512.933
1.48888
10.07
542.383
-49.2689
7.81472
-53.5395
3.91207
1290.76
-871.442
-1064.24
1312.86
-603.847
-156.791
1042.46
-281.004
-22.2549
933.808
-424.961
-37.5905
176.363
-434.531
120.191
164.953
197.038
189.198
98.272
182.724
-108.215
3.58149
23.4442
-46.5743
46.753
-22.8183
-0.804644
18.5072
-44.9548
44.227
-18.3776
0.598189
13.0719
-44.7616
45.6583
-14.5282
0.559565
11.0957
-47.9788
48.2304
-11.8573
0.50999
8.56226
-47.7836
47.5776
-8.98945
0.633213
7.56043
-46.7043
45.7965
-7.92196
1.26934
4.28978
-41.0336
39.7301
-3.10247
0.116179
-3.75382
-37.0177
36.0553
5.13315
-0.416897
-32.9443
-22.2485
129.951
22.9443
-1.16837
-32.9419
-31.6008
-31.9916
528.789
44.2169
-3.10028
-129.845
-135.721
-122.658
-130.126
540.205
31.845
-3.38194
558.081
-6.45327
-9.93429
573.209
-58.9486
-5.44803
-59.6486
-4.38999
1436.73
-1089.09
1010.39
1348.83
-749.346
233.403
1165.88
-13.8027
-84.253
978.346
-257.625
20.1967
148.018
-304.547
183.633
162.817
173.065
180.83
117.852
137.038
-119.994
13.1213
28.869
-37.7984
39.7211
-31.3202
0.528601
25.7231
-49.2526
52.505
-29.216
0.240383
20.5068
-58.8288
60.0396
-22.0938
0.376172
14.42
-62.6071
62.7106
-15.2622
0.738734
12.3407
-62.1786
62.3754
-13.3738
0.836316
7.12777
-63.945
64.6858
-8.69608
0.827487
0.321171
-60.2063
53.4551
1.04045
5.38955
-7.74164
-37.6016
35.6377
8.48197
1.22361
-34.7318
-20.2001
145.303
17.6088
-1.15419
-36.1175
-34.63
-36.078
573.92
59.8368
-17.0761
-143.74
-148.405
-137.93
-142.388
579.283
42.4086
-15.927
580.714
3.14341
-11.0274
569.864
-47.0548
-1.0438
-48.7761
-3.92426
980.567
-1606.74
-6581.22
70.7199
-430.457
590.958
699.523
-183.523
-459.083
730.169
-423.013
134.742
196.587
-441.498
83.2907
189.137
203.384
194.72
128.506
206.813
-140.179
1.44699
38.86
-55.6521
56.7396
-38.9135
-1.03407
32.1104
-59.1775
59.3871
-30.8827
-1.43731
22.2812
-59.5758
60.1198
-21.649
-1.17614
16.8892
-61.4693
62.0974
-16.6204
-0.896845
12.422
-61.031
59.1939
-11.0701
0.485093
6.78004
-53.7755
53.4272
-3.90844
-2.52322
-2.95571
-53.8584
53.4807
4.36239
-1.02895
-12.9442
-50.8271
50.0738
12.7417
0.955853
-44.8357
-21.82
167.388
31.7206
2.57274
-46.8724
-43.1545
-44.9982
588.374
103.383
-24.8249
-153.885
-158.944
-145.552
-148.714
591.833
62.3563
-23.4073
592.401
21.6183
-19.0421
563.579
-18.0052
-0.22814
-24.2756
-1.39008
-1380.48
-1933.11
-2166.74
-325.915
-363.263
-1121.76
536.405
-344.486
-701.357
641.532
-568.887
40.7464
741.597
-563.414
21.8525
194.603
-729.493
29.2376
164.136
186.573
157.304
174.448
190.34
188.911
185.537
38.5405
191.284
-140.758
-1.51088
32.7876
40.3921
33.8679
29.0088
-178.722
181.206
-103.65
-6.71728
25.4181
28.6354
24.8212
20.6234
-198.768
208.158
-76.2616
-8.09975
17.5682
19.8913
16.8884
12.9874
-198.246
184.493
-35.056
2.00884
11.0508
12.3267
10.4352
5.62697
-176.97
168.922
-9.88673
0.750337
3.80636
4.85832
2.89247
-1.00267
-161.985
161.966
11.6047
-3.22816
-2.55172
-1.63451
-3.16931
-5.85795
-167.494
173.554
26.8042
-3.38878
-8.56971
-6.18611
-8.86166
-9.97068
-175.053
175.601
42.0203
1.58338
-12.2697
-9.89991
-12.0113
620.529
148.396
0.804068
-34.7422
-41.6186
-29.0204
-36.457
-168.7
-157.116
-154.734
-147.342
627.198
113.372
-16.6579
644.801
74.9246
-30.1706
653.693
35.7954
-23.0695
620.13
13.739
1.81905
7.3973
-0.540622
-1277.56
-555.804
225.459
-23.8838
-521.293
-1095.65
923.781
-459.745
-832.406
849.679
-570.925
76.1401
852.052
-580.783
14.9945
794.82
-674.894
2.6344
760.896
-417.465
23.7382
134.067
87.4204
127.733
78.4294
734.965
-407.278
8.91086
111.154
108.766
102.775
101.604
673.748
-154.764
32.9392
70.2844
30.9402
61.3227
20.4943
622.709
-87.6993
30.2507
32.1967
27.2111
25.6238
23.4565
584.338
32.5977
29.7942
5.25701
-14.1615
1.67385
-16.7905
576.171
37.7663
23.5132
-9.07033
-17.2866
-9.55427
-17.2011
585.409
85.3473
25.869
-21.3369
-40.3984
-20.8589
-37.8602
613.452
86.2406
25.1819
-31.3146
-43.2764
-27.4075
-37.4664
644.591
104
13.257
679.524
84.0856
-5.64658
703.638
68.2623
-17.4524
713.902
41.5672
-16.0353
702.852
27.0794
-2.29052
24.2482
-2.05931
-1193.23
-1792.47
918.802
10.7242
-905.289
-819.957
538.556
-772.556
-215.02
628.36
-644.541
-16.1885
645.187
-638.983
41.3726
646.499
-662.395
-13.8118
670.391
-455.693
14.3368
677.486
-378.341
-36.0328
669.753
-137.207
-9.82329
655.01
-63.0979
-9.85804
648.463
26.6537
12.4901
651.223
22.6407
12.3655
661.336
55.6876
19.5472
681.783
51.7039
14.0892
700.47
70.2409
15.0718
717.889
64.5878
2.07867
724.985
64.0951
-2.9287
723.742
49.0725
-6.26254
698.833
48.1433
3.84478
47.126
-1.14444
1258.56
-2242.61
-472.742
1028.79
-628.324
-47.1989
1193.93
-656.368
-281.331
1043.94
-547.417
52.8677
887.327
-518.792
36.4209
777.132
-563.095
10.8958
675.2
-387.549
33.7879
653.623
-325.879
-30.8848
642.268
-120.515
-5.33743
654.333
-70.2602
-4.90275
647.275
14.3146
19.397
650.011
13.7396
6.16541
649.512
44.9898
11.1958
656.578
45.5324
-0.893962
661.575
65.1993
0.04426
666.981
64.6406
-5.45813
662.305
71.3698
-2.59903
649.576
62.5989
-0.797208
607.93
77.2632
12.5255
73.5113
3.81412
1124.34
-60.7623
494.155
1022.98
-80.6017
-446.369
904.095
-300.259
-237.219
845.741
-407.429
-81.634
699.206
-460.41
88.1533
617.028
-486.857
5.93915
514.801
-395.298
109.977
505.275
-326.582
10.2285
522.055
-168.928
31.6321
548.643
-102.463
5.61537
553.452
-8.47043
17.9757
556.249
6.52949
4.41293
552.68
43.0972
5.46192
551.974
51.6635
-5.42547
550.617
73.0299
-6.47283
548.425
75.7285
-8.89587
536.218
86.6483
-3.07098
515.533
82.5608
0.72306
489.691
96.2522
6.8528
85.7227
-1.73604
67.5148
1476.16
449.618
170.444
237.832
-421.362
633.476
-39.7159
-723.575
596.084
-259.747
-110.291
676.253
-379.439
-161.14
619.965
-347.51
-83.0589
497.127
-362.899
90.4394
460.53
-321.199
31.2135
458.872
-211.915
44.6464
474.609
-116.27
-1.93101
484.883
-31.4019
12.658
495.491
4.69991
-8.77861
498.812
41.6402
-1.86332
504.285
57.05
-10.86
507.829
75.2068
-5.72018
509.22
82.1625
-7.82499
503.912
94.6836
-2.72778
495.038
95.2781
-3.84303
486.12
104.119
1.05059
90.7247
-5.10352
916.511
147.449
1639.25
623.48
424.214
106.65
912.993
285.284
-614.513
837.088
217.763
-401.606
977.765
44.5674
-564.683
1045.38
19.3044
-434.425
868.838
-195.756
9.39507
701.436
-261.415
107.618
540.897
-221.357
169.981
482.856
-110.236
52.0071
460.746
-37.8168
28.5253
464.188
2.95953
-1.70159
472.744
32.8714
0.212763
485.478
50.9048
-6.58913
497.908
63.6373
-0.86038
509.293
73.8817
-3.10454
513.668
86.8047
3.50433
513.533
91.2877
4.12519
513.167
101.277
3.20884
90.269
-3.23999
-559.603
-433.857
347.963
-483.352
1337.21
-703.962
1833.46
-278.486
2187.51
-309.481
2426.97
-220.162
2009.9
221.313
1470.96
277.526
941.748
307.858
696.946
134.565
582.681
76.4487
538.116
47.5243
525.42
45.5674
532.297
44.0275
545.233
50.7018
563.756
55.3591
587.29
63.2701
611.447
67.1308
644.775
67.9491
62.0808
-1622.64
-1045.03
2813.53
-558.173
-752.643
-834.344
2.25549
-369.097
-410.102
197.307
-153.988
-80.2502
412.833
-144.852
-143.26
570.77
-130.46
-71.0123
681.436
-116.436
2.36191
793.846
-113.278
-23.8046
861.376
-85.5537
34.517
930.033
-72.5218
37.5614
969.7
-50.5664
64.9751
996.831
-36.0635
63.0742
1003.73
-15.8931
62.9435
996.193
-3.52092
58.917
966.611
17.0557
51.3861
922.657
31.0163
29.7857
852.625
43.3026
39.7389
775.716
47.4483
56.8965
720.04
23.0071
81.9485
-7.95732
67.1824
-784.327
-2163.11
-1819.32
-296.272
-1136.77
-816.397
202.088
-523.863
-648.632
388.51
-272.451
-159.651
469.81
-168.947
-146.548
544.327
-175.972
-96.7647
545.408
-118.53
-17.5578
561.621
-118.013
-48.7007
553.466
-71.6343
-18.9091
551.138
-51.998
-51.5803
540.721
-22.1088
-48.0444
531.2
-1.76914
-74.4438
521.409
13.7841
-72.8088
512.323
29.5537
-81.6518
505.792
44.9425
-79.8702
501.985
51.6036
-78.4228
499.488
49.5862
-51.7551
502.778
41.66
-23.1135
510.052
15.5875
5.50706
-5.68449
-7.87072
398.269
-1562.09
670.196
289.768
-941.568
-579.879
165.922
-511.154
424.454
208.696
-275.941
-128.48
258.046
-221.136
6.71678
304.762
-210.138
-94.5057
354.739
-182.647
-3.33275
398.884
-154.327
-56.2177
433.01
-109.827
-14.481
457.892
-70.6129
-46.2249
475.041
-35.3516
-33.9474
486.39
-4.61413
-48.8826
494.001
10.5821
-40.2544
500.983
28.5525
-46.3123
507.867
39.8302
-36.2229
512.585
48.8158
-27.6663
510.54
48.9629
-4.44594
503.558
48.041
10.5882
494.39
27.6133
30.9399
2.63606
9.25325
554.115
-755.378
-2182.35
279.215
-668.129
-650.669
183.184
-340.691
-19.1528
238.07
-292.083
-0.117446
278.384
-229.14
92.1403
316.563
-240.456
-5.79474
364.319
-236.642
41.0825
392.213
-178.664
-1.97721
425.208
-144.669
13.802
447.003
-86.4209
-11.4215
470.02
-56.182
-4.85627
483.949
-14.1237
-23.3487
496.772
2.43474
-24.2374
506.563
21.463
-29.1316
513.106
33.4934
-23.3602
514.298
48.5188
-8.72175
503.701
56.6244
16.7248
489.341
61.425
30.6127
474.432
44.9105
33.203
10.3594
1.29209
-845.87
-1827.01
-2287.64
-749.591
-551.969
-580.038
-278.81
-587.29
-20.9593
-201.314
-380.029
137.424
93.86
-499.176
45.8934
93.0714
-280.745
153.372
242.071
-389.795
93.1167
281.44
-220.194
51.08
344.916
-210.729
50.9464
375.368
-112.437
13.2638
409.652
-88.5437
13.9946
430.807
-31.4963
-10.9334
448.892
-14.0371
-9.46204
461.025
12.327
-12.6369
467.736
27.0974
-5.23927
468.457
48.2324
2.62701
466.232
59.1211
19.8278
467.514
60.5114
19.9567
468.042
41.7295
24.4375
10.7895
2.95786
555.467
-62.0985
1407.78
239.496
-254.107
-215.158
253.73
-504.194
-109.746
248.497
-382.041
93.5364
310.447
-553.345
134.408
302.339
-289.565
89.3227
366.038
-462.664
88.5391
352.323
-212.958
71.165
365.014
-225.271
50.497
354.811
-103.122
29.0384
360.763
-95.1439
15.5723
364.643
-32.0103
4.69331
373.184
-20.9699
-4.78644
376.991
11.2438
-9.04948
381.868
23.6928
-9.88835
386.829
43.0434
-6.95585
393.282
50.9952
4.02082
402.906
48.4125
13.2944
412.49
29.6598
29.1438
7.22259
11.0873
-778.666
-104.721
-1556.74
19.8647
-514.277
-573.79
301.377
-626.537
-329.759
401.947
-451.947
-42.5517
385.589
-529.542
163.128
324.686
-233.423
71.8147
292.094
-89.444
66.353
-126.837
-87.9114
-123.67
278.079
-62.4807
40.4914
-48.5134
-54.8807
-39.8948
290.994
-50.7419
26.6831
-71.4771
-46.9446
-68.6173
292.57
-31.9536
21.2704
-23.7519
-28.7462
-19.3197
303.316
-19.5652
14.0885
-33.9874
-18.6435
-33.1026
311.076
-10.9929
15.7653
-9.76394
-9.57903
-8.68282
322.847
-2.93634
5.34815
-11.585
-3.2
-11.897
327.483
3.9671
-3.40055
1.26881
3.55319
0.628846
337.852
13.4768
-6.79953
348.779
31.0614
-3.90495
361.925
34.5556
4.91353
379.491
28.932
12.2056
398.343
11.7408
17.4276
-2.00578
-0.0772836
-55.9454
-752.235
4344.89
521.061
-699.942
-182.51
659.736
-731.071
-192.043
803.025
-557.669
-252.858
752.755
-499.984
44.4406
188.763
-60.641
14.0752
180.574
167.862
160.81
-27.0115
-54.7823
-21.9708
-25.5612
170.73
-65.4256
19.5754
-15.0462
-128.13
120.75
-59.3092
19.2542
1.87905
-113.42
106.14
-46.1309
0.790811
1.38145
-90.1001
94.5431
-38.1637
0.385571
-0.711413
-94.9729
95.8267
-21.414
1.70654
-5.77433
-89.6287
93.8938
-16.7761
7.29245
-7.73436
-94.1128
94.9089
-3.25277
7.25467
-3.84024
-90.7185
92.4841
2.45729
3.58445
343.528
10.9242
-7.72793
-90.2749
-94.2782
-81.0292
-84.2273
2.85933
8.08877
0.549707
358.576
15.661
-0.121337
375.775
16.3272
7.8263
401.526
3.79063
16.5998
427.028
-12.3457
19.7454
-14.0609
4.21476
2187.82
-685.941
1369.78
1477.75
-315.899
233.968
645.455
-296.159
118.213
438.419
-421.607
18.3627
87.8704
-419.778
165.451
84.6872
81.8562
75.941
-0.79801
104.966
-76.1443
-0.793957
-0.488073
11.7825
-32.1049
32.2907
-12.3223
0.842094
0.902154
-30.3441
11.3342
32.2381
-13.6601
-0.470376
1.35404
-33.9174
10.2652
34.5468
-11.0615
-1.18718
1.67405
-31.8448
8.52768
32.4522
-9.19407
-1.61507
0.774804
-31.4555
5.56051
31.9727
-6.24288
-0.609667
-0.131836
-30.1232
4.54639
30.5919
-5.45556
0.572269
-1.71001
-29.5117
0.943594
29.7473
-1.34983
1.8806
-1.37401
-27.3271
-1.52285
27.2477
1.48186
1.49436
-25.4671
-1.24942
101.232
10.3045
1.16797
-25.9164
-24.3237
-24.8234
390.097
10.813
6.30322
-98.0043
-102.975
-90.0949
-94.9689
402.784
4.5507
11.5949
420.536
-14.3699
10.4786
439.504
-30.1411
6.64209
-24.4011
0.784113
470.726
192.256
-9.10152
446.46
-280.279
-168.144
505.627
-186.255
-191.326
519.746
-389.279
-84.0368
139.899
-396.351
93.4142
134.612
126.059
122.525
-14.0794
86.7424
156.62
-97.0959
7.71236
-1.87176
19.2235
-40.6106
41.4084
-20.2101
2.06057
-3.87304
16.1637
-40.6809
40.4772
-16.4479
4.36083
-2.50501
11.548
-40.3801
40.4812
-11.9695
2.82536
-1.90677
8.8628
-40.1332
39.8696
-8.76643
2.07408
-1.61879
6.26911
-38.7718
38.4099
-5.9705
1.68217
-2.96606
4.3639
-36.4
35.3652
-3.54758
3.18446
-1.27981
0.216356
-31.9178
30.9997
0.43554
1.54595
-0.0191922
-2.75625
-28.6437
28.1555
3.12362
0.139971
-27.4272
1.48641
-9.08929
110.372
8.28461
-1.3713
-28.2318
-26.5932
-27.4303
436.154
12.9893
-5.4632
-109.394
-116.894
-101.563
-108.116
438.621
1.82527
-3.123
445.398
-21.8234
-9.25828
454.217
-39.0368
-5.37081
-31.1582
-5.66104
1908.79
1086.77
1576.09
1236.32
-391.348
1016.94
739.257
-103.29
329.84
555.958
-295.259
109.476
122.057
-309.646
171.657
130.549
110.491
118.132
-15.8334
102.133
126.191
-99.4866
9.05346
-3.34352
23.9952
-34.8988
36.8702
-25.7905
3.16737
-1.38468
20.5359
-43.3052
45.1595
-22.5399
1.53432
-0.916987
13.9033
-48.3778
48.9063
-14.6052
1.09028
-2.0009
8.34353
-49.2559
49.1978
-8.61673
2.33218
-3.51797
5.09266
-49.0236
49.1628
-5.69218
3.97831
-1.967
0.599484
-48.4908
47.1206
0.367582
2.37014
-10.4738
-4.18313
-40.4087
38.3429
6.32793
10.3948
-2.04034
-4.75069
-34.0321
33.2376
5.75359
1.83193
-32.0255
1.64728
-7.11675
128.478
8.19605
-1.94542
-33.4396
-31.2421
-32.5517
465.653
28.7928
-16.9729
-123.8
-127.36
-113.852
-116.547
456.329
7.98942
-12.7676
447.251
-13.5673
-10.2052
442.031
-33.4691
-1.39189
-27.9803
-6.15132
94.6685
-132.672
-4248.51
468.313
-643.479
469.444
556.315
-267.58
-382.794
621.582
-325.159
99.3752
171.033
-330.502
74.6461
165.81
159.139
155.099
-7.35065
106.153
185.194
-115.773
2.80995
0.0618513
31.6397
-50.2295
51.0356
-31.9444
-0.563283
1.77667
24.4468
-48.8417
47.8162
-23.4044
-1.79364
2.39042
15.1926
-45.9439
45.8496
-14.8555
-2.63325
1.8059
9.1667
-45.7061
45.6669
-9.00111
-1.93231
0.632807
5.08517
-44.8595
44.4881
-3.8596
-1.48691
4.21692
-1.68797
-42.8868
42.3598
2.19829
-4.2003
0.448034
-8.97035
-40.7848
40.6275
8.70162
-0.0219561
-1.51992
-9.36426
-40.6109
40.0866
9.72783
1.68064
-36.0983
-3.61377
-12.2619
136.421
17.7539
3.90435
-36.6231
-34.5959
-34.8859
469.171
51.8657
-25.2085
-127.843
-129.183
-116.845
-117.989
455.203
20.4667
-21.9163
438.045
1.95904
-17.4108
420.368
-17.4739
1.45406
-15.692
-3.78256
950.48
-1063.03
513.304
583.196
-497.032
-900.924
476.165
-265.088
-596.818
583.609
-393.3
1.44391
615.504
-352.133
11.5876
156.758
-520.718
23.9688
132.266
147.58
127.627
140.867
151.35
145.151
139.891
29.5554
-5.63651
149.585
-94.3482
2.31227
24.3649
28.0913
22.8341
19.371
5.45583
-130.689
129.98
-65.8679
-8.5886
16.918
17.7902
15.6305
13.0541
7.6924
-141.696
140.609
-43.9065
-8.37975
10.9301
11.856
9.84109
6.62267
-1.84708
-127.708
121.677
-14.0603
0.0955889
5.31569
5.55618
4.34881
1.44778
1.07511
-126.064
126.104
0.242441
-3.6342
0.219063
0.880073
-0.271174
-2.6559
5.57334
-123.655
125.272
13.9199
-6.52243
-4.46809
-2.85779
-4.60616
-6.16468
3.75281
-130.273
133.801
24.0795
-2.63937
-8.39834
-6.03106
-8.12735
-7.79005
-3.56346
-133.606
135.401
29.9426
5.06857
-9.39801
-7.2745
-8.78028
493.915
89.8321
-1.26838
-18.6881
-27.0809
-15.0239
-22.6023
-132.475
-127.812
-120.459
-117.533
491.857
57.7023
-20.4372
480.12
32.9484
-30.9153
466.052
12.8069
-19.8496
440.008
6.18332
4.2057
4.90034
-2.52252
2201.38
-575.646
-2466.58
885.584
-194.699
-82.1874
747.876
-151.467
-808.319
693.955
-345.58
82.3416
683.453
-331.504
4.86899
595.283
-429.741
-0.173568
535.972
-119.556
11.9454
77.0433
30.5358
65.3957
17.6842
488.522
-221.846
4.43692
70.978
74.1109
61.916
66.7647
448.678
-1.16449
23.6575
33.1739
-0.0190111
22.4888
-5.35374
428.881
-32.576
27.6133
14.8831
14.8239
11.7102
13.5937
428.461
44.202
31.5413
-2.31418
-19.2692
-4.18853
-19.7572
442.557
30.1367
25.2624
-8.77996
-15.2699
-8.31256
-13.6201
463.552
71.1478
30.6035
-17.757
-33.0934
-16.0826
-29.9443
490.214
64.4467
27.3285
-20.8286
-30.0497
-17.3147
-25.0626
508.086
71.8381
13.3795
514.539
53.8985
-8.29612
510.262
38.3767
-18.6043
502.223
21.5507
-16.7401
484.662
21.7309
-0.27723
21.2505
-4.08216
-405.214
-2071.02
-339.544
86.0815
-761.85
-744.102
360.753
-463.422
-177.736
388.781
-371.813
-17.9841
427.589
-365.641
36.7024
413.494
-408.394
-21.0644
463.788
-187.541
32.0283
443.248
-200.263
-37.0761
443.258
-11.3352
0.337112
441.657
-31.3315
-9.50148
453.016
28.4313
16.9019
468.208
14.3965
12.9129
485.681
49.6322
23.5897
503.509
44.797
15.9118
515.191
59.7931
15.4347
519.087
50.7651
1.3161
511.292
47.2493
-4.00631
499.079
34.4816
-6.98134
476.022
42.4713
6.16195
40.0305
-2.98091
1062.18
-2160.51
-3448.01
1053.15
-706.67
-93.3452
938.848
-405.572
-224.882
748.256
-233.014
104.66
629.565
-262.285
51.7554
532.179
-308.949
8.83802
486.949
-139.55
31.0252
462.821
-171.713
-35.3067
453.482
-13.8634
6.53031
457.643
-34.5656
-5.83019
458.5
23.0438
23.9275
463.174
11.4838
4.40423
466.817
43.902
13.283
471.434
40.8446
-1.55834
472.168
57.934
1.16908
469.746
52.2692
-4.5399
458.106
57.1351
-0.84539
442.329
50.2267
-0.765602
421.023
63.1786
13.1246
56.1824
-0.633569
670.872
-79.1377
-291.359
543.615
26.7329
-1052.51
472.615
-114.656
-457.134
393.566
-132.458
-103.141
388.741
-250.692
81.3855
322.444
-231.872
-4.84108
349.173
-158.611
102.308
355.324
-165.676
-1.95956
385.42
-52.9397
40.612
399.094
-45.3936
2.76962
404.228
12.7406
23.1449
403.937
13.1848
3.00282
402.397
44.7433
6.16049
400.135
44.7839
-7.10251
397.197
60.2468
-5.84777
392.443
57.3397
-9.21226
383.317
65.4371
-2.2471
374.27
61.483
-1.48608
368.056
72.2536
3.99232
61.388
-6.3239
1107.76
2011.42
-114.128
440.285
318.522
-45.678
211.387
61.86
-671.193
206.968
-122.773
-115.557
302.755
-294.248
-213.369
229.208
-167.705
-73.6794
288.994
-200.248
72.2902
292.744
-167.622
29.4095
334.494
-102.084
52.0417
346.098
-57.5589
-1.37056
355.312
0.944211
15.2402
358.893
13.7069
-12.8812
362.601
40.2604
-1.08846
365.997
45.0389
-14.5109
370.45
56.7565
-6.68237
372.894
57.5265
-10.4557
373.293
66.5499
-4.23894
373.338
65.1587
-7.56448
377.132
73.1512
-3.64095
59.5744
-9.78187
394.226
1352.83
-1812.82
408.64
179.228
231.53
571.319
130.531
-845.863
465.971
60.969
-480
402.806
-186.059
-609.708
327.106
-121.589
-404.841
332.034
-222.463
26.6821
334.05
-167.123
105.104
353.66
-123.737
172.023
354.032
-55.013
49.0895
357.646
-9.35703
35.2133
362.22
12.2702
-4.83945
370.528
32.443
-0.276735
379.153
41.4036
-11.5786
390.516
49.4932
-4.96075
400.632
53.5379
-9.232
408.739
64.8604
-2.91266
416.987
66.3237
-5.28885
428.017
74.3888
-9.0584
62.3208
-16.1311
1227.85
-2420.05
835.36
88.3696
959.246
-697.316
1047.06
-305.333
962.403
-410.88
973.935
-353.283
833.706
139.079
707.792
236.316
571.902
320.011
509.289
142.166
468.339
108.043
462.548
65.5858
468.276
72.2819
483.928
69.7793
503.508
80.6151
526.581
85.8243
556.149
98.5622
586.892
102.712
629.402
99.8274
89.2169
253.782
-2290.85
648.921
105.547
-971.645
285.536
349.561
-536.88
-117.236
429.931
-181.04
20.4196
417.728
-101.271
-29.7864
508.325
-101.625
-59.984
573.641
-91.5203
28.5667
659.008
-92.4769
-16.6947
714.73
-60.4105
39.206
773.103
-43.1869
22.375
807.645
-16.5487
46.9823
829.624
0.109667
40.9854
834.597
12.6777
45.2933
826.201
21.0892
46.2234
788.933
37.369
51.2844
727.389
46.7735
44.5566
658.735
45.2373
63.156
614.842
30.6346
70.1545
604.182
6.50302
86.1063
-6.51711
68.2301
648.273
-2058.76
439.682
467.563
-1262.23
-345.101
332.667
-442.678
-607.939
394.234
-229.434
-172.824
366.476
-112.739
-107.323
401.237
-153.04
-80.1101
394.699
-103.803
1.2619
404.958
-108.869
-42.5674
407.991
-65.3826
-16.9703
412.473
-46.8748
-52.374
412.039
-17.7884
-46.3708
405.97
0.154657
-68.4201
397.398
12.7155
-64.2748
384.54
25.7637
-73.4681
373.181
35.9381
-67.0808
363.579
38.6507
-60.6973
359.382
32.4208
-34.7412
363.557
20.442
-17.0957
375.951
2.23086
-2.61471
-5.31751
-20.7516
900.319
-2951.45
-1218.55
285.618
-896.596
-330.813
176.048
-449.227
540.574
94.0429
-243.33
-32.5798
162.727
-200.203
25.4974
170.664
-197.461
-58.0224
227.858
-174.601
10.2708
255.758
-147.903
-45.0836
290.691
-108.939
-5.85811
306.865
-72.2059
-37.0678
322.04
-43.3763
-23.5346
326.269
-14.1092
-38.8483
328.498
1.59486
-31.3619
327.889
15.3962
-35.3359
328.91
23.8999
-25.2058
328.708
30.3544
-19.1682
328.552
28.1815
-0.050484
329.894
23.5827
6.10556
337.231
8.93664
16.8973
0.0670921
-6.86264
-202.314
-1342.54
-1468.91
10.9409
-507.395
-1253.12
100.743
-395.616
-162.566
135.891
-282.018
3.42257
174.25
-217.471
71.05
193.748
-221.625
-1.12865
244.5
-220.255
35.9848
258.183
-160.079
-3.48442
288.187
-137.669
12.528
297.877
-82.3822
-10.9351
315.018
-61.8585
-3.51443
318.685
-21.6809
-19.4441
323.671
-9.64703
-17.9813
322.572
8.91605
-21.5521
320.61
17.7491
-15.2475
317.211
30.5234
-5.49221
314.951
33.939
13.2268
316.666
33.2557
19.2245
322.259
17.5743
18.9725
2.54188
-9.64791
-1021.29
-969.91
2064.74
-613.615
-571.929
-923.175
-392.079
-583.469
-54.6427
-268.806
-346.728
78.8612
-16.4285
-427.268
3.31311
1.85479
-226.242
139.706
142.078
-337.593
70.2314
160.765
-170.573
42.888
220.467
-183.175
36.7504
236.242
-91.205
6.3122
263.478
-84.6139
9.51364
273.459
-32.1671
-10.4279
284.999
-23.1808
-7.46799
288.141
5.07593
-11.9385
291.668
12.4694
-3.48665
293.982
29.4916
1.34442
298.997
34.3582
14.3937
307.031
32.1173
13.0609
316.638
16.6744
15.7307
3.34819
-8.31926
135.231
-197.851
2363.23
156.671
-360.889
-447.639
114.496
-461.626
-189.413
97.1031
-312.978
77.1784
182.65
-455.11
76.7036
157.947
-195.912
83.6963
242.608
-396.913
63.1979
222.342
-135.758
56.6154
243.054
-188.633
35.2429
230.01
-67.7481
18.625
237.578
-86.8741
10.2648
237.62
-28.4568
0.941401
242.56
-28.0792
-4.82792
242.64
4.38547
-8.43957
245.86
7.80874
-8.44735
250.987
21.4977
-4.08922
259.362
25.2356
4.76914
271.759
22.8957
10.119
287.418
11.6615
18.4972
3.28742
-3.70368
247.406
137.643
-651.282
234.688
-567.6
-354.361
137.303
-545.527
-148.473
165.704
-385.785
1.85485
196.924
-441.951
118.748
136.04
-117.991
54.7782
149.361
-78.42
38.8312
-114.359
-77.5642
-112.37
141.063
-41.4592
29.034
-22.0731
-35.5611
-16.9087
169.498
-41.252
15.5423
-63.1058
-39.8068
-61.7625
173.831
-21.8868
14.9168
-13.4416
-18.8223
-11.5774
191.392
-17.4264
8.07011
-31.8429
-17.3398
-31.808
199.746
-8.16628
9.51926
-7.50953
-7.56254
-7.32564
212.658
-4.40413
1.51517
-13.0129
-5.34721
-14.3945
216.97
2.13639
-3.2323
-1.38102
1.36225
-2.21208
226.452
-1.29825
-7.175
236.941
10.2866
-3.18291
250.205
11.2225
5.66284
266.478
10.4829
8.34581
284.157
2.50018
8.90947
-1.55059
-9.29928
-199.148
-576.525
2787.06
345.436
-729.099
-565.596
438.094
-712.647
-117.582
503.454
-510.415
-193.589
473.57
-431.863
64.2372
118.693
-35.9795
10.0247
114.955
103.179
100.529
-8.71317
-28.8677
-4.16672
-23.6764
102.974
-55.8063
16.782
-18.3858
-68.1315
70.9394
-45.116
19.2348
-1.01076
-72.3767
68.0154
-37.9566
2.07668
-0.151537
-54.8513
60.4355
-28.8597
1.54035
-1.68432
-62.6912
63.4841
-18.0816
1.54669
-7.09275
-58.3248
62.6692
-11.6504
6.23245
-6.00989
-64.1099
65.2873
-3.67021
4.09854
-2.81906
-62.2726
64.8116
0.515693
1.9008
241.382
3.95098
-4.18047
-63.4798
-66.9748
-54.9894
-57.9168
-3.73132
2.00954
-5.09573
255.155
-1.7076
-1.90021
269.152
1.05352
3.99853
288.989
-1.88176
9.12702
307.813
-6.69487
10.1157
-6.40768
-5.81475
1431.31
178.366
3005.94
886.881
-221.652
270.948
390.544
-291.479
193.383
249.975
-377.338
25.8548
61.6478
-356.539
126.468
54.1769
53.4376
44.3717
1.89159
80.838
-54.5679
-2.4934
-2.19367
8.81368
-25.4296
25.4241
-8.66755
2.05296
-0.525427
-22.7463
9.47429
24.0476
-11.1229
0.872839
0.905582
-25.2848
8.44189
25.5769
-8.96016
-0.679417
1.36695
-22.5966
6.9668
22.9474
-7.58396
-1.10051
0.145171
-22.1365
4.53564
22.4919
-5.10197
0.0658111
-1.23029
-20.6249
3.00083
21.0354
-3.52203
1.34105
-1.91109
-20.4393
0.30282
20.8341
-0.55
1.7635
-1.44636
-19.6033
-0.607531
19.8564
0.614104
1.18668
-19.1391
-1.68405
76.6658
2.99413
1.62812
-19.7697
-18.0642
-18.68
287.037
-4.07122
7.22869
-73.3559
-78.6815
-64.5735
-68.988
296.683
-6.66527
9.66718
308.931
-10.7398
7.08892
322.567
-16.7155
3.02692
-10.3457
-6.85169
1149.48
569.338
1444.3
898.838
-169.899
30.7438
523.14
-112.248
5.1414
416.833
-322.58
-32.4881
99.8341
-328.29
112.765
97.6594
86.5331
85.2059
-8.74669
64.7923
113.507
-75.6135
5.8948
-4.12968
13.2756
-30.3901
31.5136
-14.2943
4.02485