/*--------------------------------*- C++ -*----------------------------------*\
  =========                 |
  \\      /  F ield         | OpenFOAM: The Open Source CFD Toolbox
   \\    /   O peration     | Website:  https://openfoam.org
    \\  /    A nd           | Version:  10
     \\/     M anipulation  |
\*---------------------------------------------------------------------------*/
FoamFile
{
    format      ascii;
    class       surfaceScalarField;
    location    "4";
    object      phi_0;
}
// * * * * * * * * * * * * * * * * * * * * * * * * * * * * * * * * * * * * * //

dimensions      [0 3 -1 0 0 0 0];

internalField   nonuniform List<scalar> 
38556
(
-1700.45
-550.864
395.711
-591.567
-645.376
-463.505
55.7321
-420.614
-226.686
339.844
-230.301
-53.8102
626.705
-205.452
-81.4093
830.211
-160.361
-43.1453
965.027
-130.484
-4.33189
1107.49
-119.452
-23.0115
1183.82
-92.6937
16.3678
1236.51
-87.7504
35.0563
1255.36
-73.1658
54.3212
1268.7
-67.4802
54.1316
1265.49
-50.1472
53.3592
1248.46
-30.5291
47.559
1215.52
-5.94274
38.8891
1188.2
10.5158
16.8036
1142.49
32.2841
13.4211
1054.08
59.9209
28.4941
940.954
62.1769
50.9453
13.3522
43.7399
-1407.69
-1395.87
-875.671
-165.696
-1116.91
-770.462
392.281
-656.968
-321.622
640.698
-362.03
-116.689
758.938
-222.836
-100.856
852.804
-187.192
-67.0348
857.65
-115.2
-20.1285
875.403
-101.239
-35.9665
851.892
-56.5997
-12.5831
831.817
-35.1442
-32.5308
797.064
-8.07266
-30.3401
774.359
5.59535
-50.3702
758.349
19.33
-53.4674
749.517
36.4054
-58.1026
747.523
55.0236
-58.972
751.352
68.1425
-61.4563
761.366
69.7041
-47.4341
773.69
71.8067
-24.2091
771.035
57.0997
7.73215
12.3283
6.31937
741.125
-727.594
1217.65
964.355
-867.408
-472.732
530.326
-518.705
295.766
529.264
-274.015
-86.9532
507.595
-202.461
1.29295
577.792
-181.915
-75.4734
625.73
-144.9
-18.2382
689.731
-118.373
-46.867
726.732
-74.3318
-19.2688
760.727
-28.501
-40.6377
783.019
-0.766535
-29.5985
801.601
28.5591
-41.5461
815.719
42.1545
-36.9418
832.688
60.2952
-40.8595
852.483
69.8743
-34.6457
867.461
78.6234
-25.4581
863.533
80.2451
-6.61387
836.94
87.2468
11.1536
784.383
73.1853
36.4709
17.0307
24.9594
870.741
-710.883
-3916.02
1296.21
-444.145
-848.736
883.127
-152.764
47.1466
736.371
-193.318
66.0586
583.646
-174.817
125.081
597.893
-202.016
5.85367
626.504
-207.724
34.2126
668.397
-160.377
0.110042
705.784
-121.112
9.39399
745.019
-61.6769
-6.05985
775.329
-24.4362
-6.6404
802.892
20.0548
-19.0586
831.058
34.7095
-20.7209
861.926
56.5433
-27.1157
888.689
66.4995
-23.3886
898.006
76.7965
-7.48973
872.579
91.3806
14.2916
823.03
106.018
30.7785
761.938
96.3488
37.9287
35.8238
12.9873
-253.558
-536.066
212.418
-170.364
-201.918
-325.421
-92.3484
-472.159
241.38
-33.6551
-377.327
125.316
261.545
-548.828
78.8116
301.499
-346.113
104.143
449.723
-444.032
88.0839
518.529
-276.95
47.7674
592.672
-242.13
46.8747
648.4
-133.353
15.9487
700.261
-91.3374
15.04
741.797
-14.7128
-6.76884
778.303
3.56094
-5.35701
807.601
37.4769
-10.2317
824.805
54.4218
-5.12668
822.442
75.684
3.4758
798.454
94.934
20.4346
777.419
105.843
21.2102
758.871
90.5856
24.3109
34.0312
14.4709
307.989
569.352
-430.385
429.456
-229.156
-94.2285
561.112
-597.274
-6.54095
606.196
-517.721
95.3094
589.348
-674.85
142.87
598.383
-429.454
74.3059
627.832
-553.26
79.7787
610.346
-322.629
63.1648
607.937
-288.589
48.8674
600.569
-152.442
26.4568
608.64
-114.065
14.657
624.279
-39.2614
8.90978
644.451
-12.0259
-4.58451
659.859
28.6075
-6.53906
670.112
52.9455
-8.77584
672.4
80.544
-7.14809
671.858
92.9654
2.51044
669.668
96.2101
11.8228
653.289
77.7621
29.2026
22.6154
24.3621
-11.1562
-235.845
-1451.75
428.728
-667.058
-1.98221
873.359
-891.875
-150.03
1049.39
-692.037
-1.7179
878.853
-674.662
170.352
759.432
-379.734
69.701
632.887
-107.869
66.2447
-143.795
-102.357
-138.938
588.5
-85.7226
34.5175
-81.5313
-77.3488
-68.1571
565.63
-68.9105
28.0053
-87.3971
-58.1021
-79.3144
551.788
-46.5457
25.4194
-43.8751
-37.9531
-35.6445
543.78
-24.2825
16.4498
-39.5241
-22.0789
-36.6213
543.896
-16.4785
17.0366
-16.5842
-12.5051
-10.8465
552.131
-4.9062
9.32171
-12.2801
-2.20811
-10.1881
562.289
5.57156
1.8877
1.95914
7.03277
1.99835
576.101
45.6896
-6.55541
586.622
74.9521
-4.92973
594.68
83.4672
1.44002
601.951
77.8902
11.049
612.85
46.498
20.3646
4.64309
10.6785
455.678
-1619.13
2242.51
919.171
-1286.3
155.75
1275.76
-1078.79
-169.675
1550.88
-755.064
-212.088
1451.52
-599.981
24.6748
327.12
-75.4771
39.9832
316.819
319.846
309.728
-44.2607
-73.7678
-48.2025
291.332
-80.4118
8.33017
-232.277
211.005
-69.5906
5.13942
-194.008
185.947
-59.7148
-1.13414
-165.962
169.038
-50.137
0.51586
-163.514
166.063
-29.6027
2.77132
-156.591
160.993
-25.9272
5.04698
-157.705
158.327
-12.3236
6.79498
-150.248
151.724
0.134917
3.96108
557.464
22.8976
-2.3132
-144.275
-152.773
-133.605
-138.376
10.0932
19.6156
6.96171
565.519
67.9281
-1.03076
574.001
68.7715
6.21378
596.861
37.935
17.0953
630.46
-10.5012
23.3998
-28.4575
15.8251
1806.33
-449.427
1060.69
1259.76
-609.421
-130.306
983.247
-510.908
-291.373
799.895
-521.479
-50.2327
132.507
-478.54
134.893
121.925
144.906
144.222
140.399
-83.6707
0.302049
11.471
-39.6526
38.7697
-11.3694
0.781217
-37.635
10.7698
42.9661
-14.6388
-1.46212
-48.8501
11.6586
51.1385
-13.0964
-0.850617
-49.0726
9.5966
50.9384
-10.8759
-0.586505
-49.6219
6.67666
50.4745
-7.32141
-0.207849
-48.292
5.94067
49.3596
-6.83784
-0.170401
-47.9627
4.76074
48.948
-6.73286
0.986818
-45.7621
-0.865509
45.254
0.598074
0.775514
-39.2366
152.903
23.8997
1.08581
-39.9531
-37.7369
-38.0645
570.145
60.9722
4.22082
-143.998
-147.862
-135.679
-139.87
580.045
47.7277
11.1434
603.051
1.84932
13.0794
629.17
-46.3185
9.69857
-52.2812
9.58923
1299.24
-952.503
-1622.42
1461.38
-556.564
-214.997
1182.89
-223.95
-8.47333
1064.58
-372.677
-30.4832
210.629
-391.402
118.769
196.463
231.037
220.539
91.5237
212.575
-97.1013
3.63151
21.7622
-54.1907
53.7142
-20.4097
-0.876018
16.5663
-51.6399
50.8631
-16.3547
0.565155
11.7701
-51.2966
52.1007
-13.0283
0.454087
10.1058
-54.258
54.4989
-10.8043
0.457674
7.74058
-53.9927
53.7643
-8.16339
0.65122
6.87142
-52.7224
51.7537
-7.20421
1.30153
3.37731
-46.9618
45.6566
-1.90096
-0.17116
-4.75046
-42.7258
41.7552
6.13881
-0.417656
-38.5007
-25.3196
151.985
25.9801
-0.888741
-38.5695
-37.1066
-37.5799
616.71
53.9476
-3.29837
-151.845
-157.926
-144.465
-152.151
628.731
39.3061
-3.59981
645.848
-5.27859
-9.98849
658.894
-55.8893
-3.47544
-58.0957
0.251242
1570.35
-1266.6
605.126
1447.68
-676.14
242.245
1276.8
29.4725
-82.5397
1088.46
-195.735
11.3899
176.942
-265.58
188.088
188.929
201.811
206.872
106.946
163.45
-106.931
13.4777
26.3543
-44.9907
46.5142
-28.3734
0.495579
23.4152
-56.0873
59.2696
-26.8602
0.262646
18.5698
-65.372
66.5447
-20.1491
0.406635
12.9126
-68.9385
68.962
-13.6841
0.74799
11.0778
-68.1521
68.31
-12.1093
0.873566
6.28184
-70.0272
70.7629
-7.7379
0.720352
-0.270738
-65.8345
58.8165
1.93067
5.35798
-8.72019
-43.1265
41.1909
9.43395
1.22181
-40.2673
-23.1849
167.33
20.4645
-0.887358
-41.6932
-40.1049
-41.6571
660.325
69.2211
-16.2421
-165.436
-170.287
-159.496
-164.137
665.561
49.3702
-15.3008
666.755
3.54077
-10.0127
653.935
-44.1789
1.10973
-47.0418
0.656115
887.821
-1826.17
-6692.67
113.212
-427.185
525.655
786.23
-124.207
-519.339
843.359
-382.375
129.511
225.63
-396.154
81.6524
214.005
232.799
219.846
116.811
232.59
-125.273
1.50134
36.2732
-62.3777
63.1051
-35.8474
-1.15324
29.5977
-65.5664
65.7221
-28.2763
-1.47716
20.27
-65.8439
66.3592
-19.6106
-1.17469
15.1905
-67.6198
68.1993
-14.9247
-0.845404
11.1071
-66.8956
65.0359
-9.76456
0.517229
5.82911
-59.6517
59.293
-2.68202
-2.78843
-4.13605
-59.5294
59.1333
5.53682
-1.00468
-13.8692
-56.4554
55.6776
13.6642
0.982891
-50.1243
-24.7995
188.809
34.4158
2.81892
-52.2716
-48.4279
-50.4201
673.137
111.225
-24.3636
-175.306
-179.53
-166.868
-169.074
677.336
68.6827
-23.5107
676.208
25.8435
-21.1754
646.18
-15.6891
1.53893
-22.7443
3.80403
-984.36
-1573.53
-1960.12
-159.89
-263.699
-987.956
653.905
-222.989
-715.012
744.089
-512.411
39.8519
829.639
-497.238
15.5338
218.425
-665.687
24.9682
150.113
170.973
143.27
159.002
210.558
212.503
205.512
35.7204
214.125
-127.01
-2.38731
29.7333
37.4104
30.833
26.2325
-202.126
204.81
-92.6146
-6.98479
22.6804
25.8957
22.1062
18.3855
-221.703
230.484
-67.228
-7.80743
15.4046
17.6931
14.7713
11.4002
-221.397
206.763
-29.1266
2.75603
9.6418
10.8161
9.14685
4.09895
-199.185
191.008
-3.16842
0.0354537
2.54121
3.16335
1.50702
-1.51065
-183.913
183.728
15.9719
-3.6143
-4.00432
-2.04097
-4.61675
-6.86225
-189.007
195.161
31.0599
-3.38973
-9.72659
-7.23183
-10.0038
-10.8871
-196.676
197.098
45.5257
1.757
-13.1299
-10.818
-12.8704
704.264
158.261
0.367941
-37.5175
-44.1189
-31.6848
-39.0182
-189.899
-177.429
-175.724
-167.503
711.243
121.037
-16.7902
729.335
80.5622
-29.9713
737.309
39.6501
-21.7803
701.532
16.1932
3.89441
8.43795
4.87842
-1004.68
-571.369
2133.5
8.73027
-438.439
-838.667
997.736
-377.545
-834.45
920.264
-502.84
67.9011
927.109
-509.478
5.39603
872.968
-608.732
-2.81475
840.207
-364.388
16.9888
121.727
75.3555
115.483
67.5941
815.431
-360.213
5.39781
99.6272
97.7572
91.4942
90.7132
755.616
-126.957
31.4994
61.9865
25.4534
53.7193
14.1145
703.771
-62.5271
31.3855
25.8897
21.4058
18.0568
17.634
664.626
53.448
33.1294
-1.01075
-20.5989
-2.59068
-23.2324
656.357
55.0523
23.531
-11.7721
-23.1189
-12.4466
-22.9766
666.384
100.267
26.3875
-25.2124
-44.6712
-24.6797
-42.1174
694.796
98.2354
25.8527
-34.7476
-46.4312
-30.6681
-40.654
726.72
113.277
13.0605
762.444
91.1044
-5.79122
787.114
73.4744
-17.5826
796.819
45.2217
-15.2762
783.659
29.529
-0.175638
25.5098
2.9437
-789.462
-1486.35
1423.33
152.662
-767.069
-613.495
619.981
-646.16
-198.703
689.833
-562.027
-10.6659
701.659
-566.338
45.0332
711.187
-603.225
-15.0344
739.97
-404.971
11.7994
751.46
-335.219
-36.4844
746.13
-110.596
-11.0313
731.2
-35.488
-12.1088
725.726
45.4356
13.4858
729.774
38.5633
12.4418
740.451
69.8847
19.7047
761.795
62.9446
13.9466
781.329
78.8858
14.8581
799.159
71.4336
1.84107
806.584
69.1839
-3.13539
805.182
52.6397
-6.01505
778.438
50.5547
5.71765
48.6644
3.90819
1535.14
-1388.25
-974.031
1106.62
-364.524
25.9681
1254.16
-500.058
-293.639
1092.32
-448.135
47.9533
935.079
-442.506
33.4053
831.156
-506
6.69814
734.023
-341.044
33.2066
718.864
-286.244
-33.8166
708.319
-96.9046
-3.14601
723.904
-49.3445
-1.72909
719.265
29.5894
20.4861
723.758
26.649
7.4204
724.827
57.36
11.4563
733.175
55.5019
-0.905362
739.292
73.0491
-0.280172
745.446
70.7617
-5.48214
741.432
75.9844
-2.78654
728.745
65.9597
-0.633646
685.513
79.4942
14.293
74.7829
9.08068
871.839
-61.9967
-111.099
949.276
-0.328399
-441.633
899.872
-209.072
-241.581
865.202
-339.285
-74.181
728.193
-406.597
101.101
659.989
-444.226
6.43046
564.703
-362.112
116.353
564.326
-297.609
11.7423
583.016
-146.722
31.1278
612.154
-84.9696
6.4869
621.661
0.883745
19.1981
626.508
15.6314
6.17093
624.646
53.5354
5.68707
625.587
60.0864
-5.52631
625.604
79.6603
-6.62797
624.373
80.922
-8.92957
612.831
90.5995
-3.07299
592.427
85.3555
1.00918
565.492
97.8352
8.59343
86.4087
2.68927
43.3513
1131.64
123.913
85.838
292.96
-335.775
611.637
9.22348
-744.094
601.708
-216.618
-112.738
694.687
-342.033
-157.543
652.942
-317.446
-85.0353
538.11
-342.238
94.9577
510.289
-301.904
32.1161
513.509
-194.65
44.7074
534.994
-102.556
-3.89828
547.932
-22.6803
10.6262
561.384
11.2683
-9.08873
567.78
48.8978
-1.75875
575.63
63.0761
-10.8395
581
80.103
-5.81292
583.635
85.9712
-7.684
579.184
97.5897
-2.53977
570.757
97.1964
-3.41318
561.104
104.918
2.57044
90.5332
-0.745883
1174.38
464.225
1916.94
572.698
604.111
290.534
892.824
333.901
-644.804
828.436
253.526
-405.756
987.34
61.587
-562.524
1073.71
30.3198
-434.14
904.416
-191.179
18.2399
745.628
-255.225
112.109
592.582
-211.6
169.996
540.834
-103.146
52.3387
521.706
-32.6101
29.0573
528.494
6.13017
-1.64967
540.264
36.8184
0.309306
555.657
54.2739
-6.59082
570.298
66.4344
-0.972069
583.047
76.0542
-2.83219
588.245
88.5155
3.87606
588.486
92.2936
4.66129
587.533
101.451
4.41969
89.5921
-0.496757
-695.32
792.109
268.778
-359.987
1310.27
-707.589
1847.64
-283.847
2214.58
-305.347
2462.55
-217.657
2038.79
232.584
1503.48
280.087
989.752
302.126
753.404
133.202
643.812
76.9817
602.104
47.8377
592.695
46.2275
602.332
44.6369
617.68
51.0867
637.923
55.8108
662.704
63.7342
687.315
67.6828
720.109
68.6573
63.2487
-1523.05
-1335.02
2895.8
-469.03
-781.099
-736.424
89.6221
-376.29
-409.048
321.47
-163.154
-122.504
544.853
-144.107
-160.685
698.979
-127.594
-69.6772
805.011
-111.613
1.24874
912.191
-109.263
-20.928
977.132
-82.4985
33.9257
1042.83
-69.5362
38.8973
1080.49
-48.114
64.7746
1105.45
-33.7771
62.9504
1110.22
-14.3527
62.9353
1100.9
-1.95578
58.8355
1069.66
18.873
51.2608
1023.83
32.617
30.0148
951.933
44.667
40.6499
872.928
48.6601
58.8399
814.845
24.083
84.9449
-6.46895
72.8609
-557.398
-2128.68
-2212.32
-100.574
-1065.79
-942.596
366.376
-483.693
-681.168
539.253
-244.98
-207.741
612.393
-157.016
-161.087
671.286
-156.836
-96.686
665.347
-105.555
-20.2477
674.123
-106.52
-47.486
662.438
-63.823
-19.5727
657.351
-46.5977
-50.3826
644.359
-17.3508
-48.1117
633.852
1.0117
-74.6522
622.208
18.0676
-74.2438
611.724
33.3551
-82.9286
603.719
48.1631
-80.2575
598.647
54.213
-77.9799
595.138
51.4565
-50.7148
597.519
43.076
-21.0063
602.573
16.8864
9.87476
-4.1761
0.352633
645.674
-1146.17
251.658
497.849
-751.509
-639.188
292.58
-416.488
433.829
335.032
-230.047
-144.337
370.705
-195.331
3.93429
418.653
-190.927
-89.3314
462.868
-163.948
-4.05958
506.614
-141.721
-55.4121
537.932
-97.9961
-16.4137
561.814
-64.5384
-46.5789
577.811
-27.8693
-35.0769
587.403
-1.09337
-49.0327
594.071
16.5892
-42.1321
600.034
33.7954
-47.2629
605.798
44.2722
-36.5184
609.326
52.531
-27.3038
606.284
51.9052
-4.02084
598.265
50.2997
11.949
586.751
29.2136
35.6574
3.61752
21.9001
632.536
-488.972
-1776.08
379.053
-562.795
-783.967
254.886
-252.891
7.71656
350.662
-257.146
-2.61845
392.404
-199.353
87.361
426.554
-214.189
-5.03435
471.626
-215.074
40.2668
497.685
-161.902
-5.76839
528.556
-130.446
10.973
549.632
-77.605
-14.0688
571.474
-49.1438
-7.20843
583.457
-7.28048
-24.8538
596.333
7.03802
-24.0458
605.172
28.1598
-30.3189
610.669
39.3354
-23.9482
610.586
53.523
-8.39935
598.735
60.6922
17.3558
583.205
64.4963
32.1113
565.831
46.8465
37.6698
11.4162
13.9643
-965.268
-1783.66
-2448.14
-715.008
-549.08
-589.396
-193.203
-552.321
19.0053
-119.877
-351.539
146.384
159.37
-473.192
73.4036
185.443
-262.297
126.177
336.642
-368.998
90.8099
381.744
-206.279
47.0425
444.426
-195.011
48.7573
474.908
-102.699
10.5606
508.77
-80.443
12.4778
528.303
-20.8823
-12.6998
545.934
-8.40257
-7.54751
557.843
20.0139
-13.9941
563.473
34.273
-5.69439
563.004
54.3104
3.15706
559.893
63.9685
20.2691
560.302
64.0458
21.2519
558.687
43.8763
28.8963
12.0732
15.9353
410.474
-452.122
2399.63
210.972
-371.232
-72.5749
311.698
-529.124
-130.464
331.767
-379.172
102.873
402.69
-536.922
135.677
401.389
-275.801
89.1116
467.73
-445.064
89.5031
453.485
-195.992
67.1227
464.508
-208.259
51.093
452.47
-92.3772
28.1736
457.148
-86.2997
15.8361
460.46
-19.1543
3.86983
466.376
-11.2697
-7.63383
470.101
19.2346
-9.48388
474.347
31.891
-10.6403
478.463
50.0777
-7.03115
484.437
56.3923
4.11289
493.474
52.2395
14.592
501.165
31.9436
33.4442
8.08182
24.1838
-496.386
-295.897
-26.2325
137.145
-592.162
-414.583
398.897
-646.2
-294.706
502.726
-452.864
-31.8539
483.288
-511.223
164.09
424.74
-227.85
80.2974
389.041
-84.3005
65.3819
-122.284
-82.7685
-119.148
376.05
-57.8519
44.1775
-46.7969
-50.2344
-37.7787
386.764
-45.5441
28.6926
-67.5369
-41.8779
-64.7016
386.867
-28.1309
22.9099
-20.8146
-25.6592
-15.3657
396.095
-16.1447
15.2923
-31.9301
-15.1527
-31.1428
402.962
-8.02796
17.4928
-6.58515
-6.3416
-5.52311
413.776
-0.513262
6.72518
-9.02255
-0.666897
-9.28342
418.247
6.79393
-0.2216
1.91503
6.34339
1.8203
427.943
21.8797
-6.23975
438.129
38.9184
-3.95703
451.192
40.4811
4.28788
468.568
32.9543
12.9587
485.674
14.1432
21.0588
-1.86465
11.4924
249.026
-767.552
4093.14
708.975
-710.883
-185.478
817.028
-719.454
-204.474
940.596
-540.131
-248.389
878.921
-468.448
43.5752
216.004
-55.7602
23.1812
207.172
194.943
187.447
-18.6481
-50.0981
-13.1864
-25.7833
197.333
-59.5485
19.7028
-14.6851
-153.499
147.058
-55.6013
18.8758
2.29126
-137.107
131.55
-42.7932
0.514886
1.49309
-113.629
119.437
-36.069
0.637261
-1.11069
-118.099
120.173
-19.1934
2.08543
-6.59049
-112.083
117.488
-14.9912
8.14942
-7.82033
-115.915
118.405
-2.97894
7.79628
-4.2882
-112.39
115.94
3.58739
3.94417
431.49
14.1815
-5.83129
-111.112
-117.2
-101.579
-106.708
3.02785
11.177
2.12089
446.732
23.123
-0.477603
464.151
22.4352
6.84088
490.174
6.32411
17.7025
514.229
-10.7699
24.2586
-12.5499
15.0596
2609.95
-111.876
1602.25
1661.38
-178.857
286.244
785.782
-245.194
109.962
553.929
-374.839
16.3293
115.256
-378.634
162.093
110.939
108.812
101.908
-2.0383
130.6
-69.1009
0.0349098
-0.439323
10.4835
-38.4999
38.5552
-10.9203
0.820807
0.989558
-36.3172
9.96437
38.5222
-12.5871
-0.571869
1.18206
-39.5763
9.10335
40.5335
-10.1747
-1.06792
1.43744
-37.5024
7.58875
38.4008
-8.47683
-1.44777
0.665777
-36.983
4.70494
37.7333
-5.60819
-0.512864
-0.241333
-35.5472
3.80526
36.2408
-4.97165
0.714061
-1.34535
-34.8341
0.359291
35.3651
-1.20303
1.65813
-1.212
-32.7865
-2.49493
33.0675
2.16834
1.25761
-30.4956
-0.515811
123.438
12.8452
-0.153195
-31.346
-29.3592
-30.2324
476.52
16.2807
4.99572
-118.088
-125.175
-110.135
-117.054
490.394
5.30802
14.3968
508.389
-11.9448
13.3528
524.852
-27.1547
9.62121
-22.8833
11.1444
504.997
332.476
-864.938
575.778
-212.005
-252.631
634.118
-113.213
-198.794
648.962
-336.818
-83.3483
172.739
-351.781
92.555
164.763
158.493
152.327
-15.0899
80.0281
184.813
-86.2456
9.23312
-1.82037
17.5053
-47.6742
47.9114
-17.8678
1.94571
-3.82504
14.4058
-46.9095
46.6164
-14.5942
4.30646
-2.29538
10.2557
-46.2895
46.3297
-10.7013
2.70078
-1.91054
7.76619
-45.8451
45.5424
-7.6743
2.12132
-1.66785
5.2787
-44.3575
43.982
-4.94116
1.7058
-2.82322
3.38387
-41.9036
40.8485
-2.34576
2.84017
-1.36449
-0.195861
-37.5377
36.5301
0.949417
1.6186
-0.0225615
-3.65113
-33.9306
33.4516
4.01898
0.133629
-32.6905
1.24718
-11.7579
131.811
11.0387
-1.41375
-33.6144
-31.8218
-32.799
522.312
20.4852
-7.96742
-130.857
-138.562
-122.815
-129.613
524.995
2.06065
-3.03615
531.288
-20.1384
-8.08787
538.368
-35.8901
-1.82009
-29.5091
3.30914
2022.97
829.712
1799.04
1323.07
-402.175
1132.32
847.152
-24.6879
304.851
657.695
-240.962
104.991
149.145
-270.837
181.165
155.039
137.212
142.277
-17.3039
91.51
151.026
-87.0702
10.983
-3.42599
21.5746
-41.4141
42.987
-23.0128
3.29135
-1.5269
18.4165
-49.3948
51.1753
-20.3737
1.70351
-0.975429
12.3847
-54.2171
54.6941
-12.9765
1.09013
-1.88063
7.223
-54.8787
54.7742
-7.44842
2.21056
-3.42825
3.83682
-54.5474
54.6834
-4.52427
3.97973
-2.1825
-0.079623
-54.0174
52.6123
1.03083
2.63636
-10.4637
-5.20831
-45.7774
43.6919
7.38845
10.369
-2.05942
-5.63853
-39.3422
38.5537
6.62899
1.85743
-37.3354
1.25767
-9.92487
150.04
10.8986
-1.62755
-38.8492
-36.5259
-37.9331
550.687
37.7152
-17.9678
-145.001
-148.682
-134.806
-137.702
540.668
12.134
-15.355
531.256
-11.0786
-9.66039
524.762
-30.6524
2.36649
-26.3409
2.76093
427.039
79.2317
-3395.25
637.734
-606.556
519.342
672.925
-206.674
-372.544
735.136
-275.469
101.807
199.642
-288.19
78.1903
189.982
187.569
178.757
-7.33881
95.2817
209.855
-101.258
3.10236
0.226486
29.2038
-56.3653
56.6747
-29.0021
-0.737639
1.80906
22.1602
-54.4399
53.3698
-21.0874
-1.81186
2.36506
13.4405
-51.3975
51.2918
-13.1139
-2.58597
1.64855
7.93147
-51.0925
51.0522
-7.7392
-1.80048
0.752686
3.77851
-50.1904
49.7533
-2.33645
-1.75769
4.12306
-2.81381
-48.1141
47.5776
3.37213
-4.14485
0.363753
-10.0993
-45.9785
45.8354
9.81678
0.0617775
-1.593
-10.2039
-45.7795
45.2834
10.5622
1.73067
-41.2466
-4.0462
-15.1927
157.417
20.3762
4.32892
-41.8749
-39.6703
-40.0918
552.044
59.5621
-25.2599
-148.809
-149.06
-137.529
-137.598
537.793
26.558
-23.6831
519.924
2.79712
-17.1821
501.466
-15.5718
4.91624
-14.1039
5.6721
1399.71
-387.051
1393.7
765.705
-344.019
-616.484
597.375
-150.367
-602.989
684.835
-331.976
8.89917
702.714
-301.232
10.6967
179.696
-461.16
19.605
119.305
132.458
114.991
126.024
170.434
167.76
158.569
26.8192
-4.04324
170.761
-81.5376
0.570919
21.5872
25.4221
20.1163
17.0323
6.11854
-153.069
151.886
-56.1837
-9.41538
14.6558
15.5056
13.4694
11.3893
7.78281
-163.11
161.744
-37.1
-8.76517
9.52206
10.1526
8.38447
4.75462
-1.72239
-149.341
142.512
-6.1256
-0.23086
3.9273
3.41387
2.81275
-0.0220531
1.56283
-146.853
147.55
3.75088
-2.85491
-1.00376
-0.573027
-1.55663
-3.59458
5.94562
-144.403
146.062
18.3502
-6.74677
-5.82771
-3.83423
-5.95231
-7.20367
3.65664
-150.887
154.477
28.204
-2.49337
-9.48305
-7.06469
-9.20583
-8.64472
-3.82841
-154.221
156.098
33.2218
5.36105
-10.2451
-8.11807
-9.62339
575.686
99.3448
-2.89774
-20.9338
-29.716
-17.0871
-25.3454
-153.13
-147.569
-140.885
-137.099
573.674
65.3813
-20.5974
561.999
38.6904
-30.4286
547.022
16.582
-20.5884
519.709
8.5745
7.06175
6.05321
7.24812
2220.64
-878.26
-1420.71
922.013
-118.748
234.686
816.064
-52.3774
-826.491
763.91
-292.958
81.0382
757.164
-282.734
-6.35538
671.326
-369.049
-9.08803
612.304
-70.4096
-3.59343
67.1379
19.8986
57.0185
5.95911
566.11
-188.407
4.02861
61.4225
64.1781
52.9219
57.4484
527.762
16.8361
30.9068
26.4881
-5.86102
13.9163
-12.4392
507.738
-5.11626
28.6915
7.53308
8.14628
5.16021
6.99435
505.712
64.9477
33.2819
-4.77717
-25.8405
-6.13693
-26.3201
520.786
46.5757
24.5339
-11.5407
-20.9652
-10.8716
-19.2747
542.398
85.819
31.3202
-21.3193
-37.3498
-19.48
-34.2146
569.522
76.2858
27.9349
-23.8092
-33.2668
-20.0692
-28.3475
587.958
80.9788
12.9907
594.805
60.9544
-8.21186
590.861
43.6562
-18.6045
582.603
25.2446
-15.6806
563.682
24.1222
3.1979
22.5037
5.28165
-203.649
-1928.5
773.677
204.243
-663.331
-476.804
440.758
-361.438
-126.157
446.076
-308.284
-0.658116
481.293
-300.75
27.8318
474.733
-352.336
-25.1869
530.139
-148.32
34.3031
513.104
-165.204
-42.6518
515.762
4.50273
-1.35613
515.071
-7.2513
-9.28291
527.34
47.3113
18.853
544.427
28.5373
13.3928
562.395
63.6772
23.8784
580.945
56.0161
15.6663
593.186
68.4137
15.1827
597.674
57.5767
0.730478
590.177
52.3188
-4.30052
577.973
38.1481
-6.71437
553.809
44.8877
9.11597
41.4938
6.33228
1423.99
-1357.77
-3386.65
1166.78
-458.459
78.3105
999.503
-270
-217.8
793.71
-158.554
104.016
676.532
-201.631
51.4648
584.147
-255.408
2.15525
543.586
-106.244
31.6921
525.079
-140.414
-40.0995
516.905
3.04751
6.48284
525.265
-11.5489
-5.79151
527.933
39.6904
25.4392
534.46
23.8143
5.61644
539.677
56.1775
13.7388
545.611
50.7187
-1.54246
547.413
65.731
0.601051
545.72
58.3331
-4.54535
534.593
61.7316
-1.07209
519.132
53.6092
-0.633447
497.011
65.3668
15.9343
57.5206
8.62382
498.042
-90.5788
-1512.35
533.545
137.599
-1073.19
481.345
-25.5547
-433.826
406.726
-67.6511
-90.4639
416.137
-198.466
88.5234
362.633
-190.611
-4.86278
396.175
-128.142
104.709
411.082
-138.741
-4.83688
443.227
-31.1902
33.2198
461.196
-27.2481
4.21729
470.018
25.3499
24.7166
471.596
24.1022
4.30508
471.882
55.0963
6.48208
471.301
53.0951
-7.3211
469.621
66.785
-6.00213
465.861
62.4813
-9.31832
457.328
69.3508
-2.15942
448.761
64.2513
-1.06539
442.206
73.765
6.74955
61.921
2.28113
1022.92
1941.86
862.423
388.385
381.652
54.7113
210.574
108.972
-700.81
214.167
-77.1682
-106.814
320.03
-256.892
-204.98
256.602
-136.933
-75.2847
326.775
-178.893
75.5364
339.371
-148.278
29.0575
386.915
-86.0695
52.0426
403.443
-45.7586
-1.91625
416.019
7.54151
15.858
422.303
21.636
-12.9059
428.861
47.4077
-0.628477
434.764
50.9347
-14.5817
441.027
61.5015
-6.79223
444.878
61.2706
-10.3244
446.101
69.4187
-3.83107
446.696
67.0362
-6.79325
450.591
73.9017
-1.4613
59.1347
-1.59605
379.338
1738.05
-998.622
375.449
332.067
344.007
547.986
183.495
-891.864
451.574
95.4275
-481.939
406.733
-171.066
-603.51
347.372
-107.5
-404.213
365.183
-213.541
35.0768
378.129
-157.399
108.283
403.944
-114.725
172.836
410.391
-48.5163
48.6496
416.535
-4.2542
34.709
424.601
16.3844
-4.46356
435.975
36.3713
-0.0280322
447.174
44.7558
-11.611
460.658
52.2729
-5.22791
472.448
55.6725
-9.02465
481.604
66.5242
-2.38522
490.364
67.2631
-4.32543
501.43
74.4354
-7.17993
61.1238
-10.9005
890.677
-2285.34
704.724
158.033
911.944
-731.315
1038.26
-314.738
968.73
-406.88
997.966
-354.392
867.426
149.583
749.658
240.456
621.585
315.475
565.2
141.071
528.259
109.668
525.755
66.7261
534.874
73.4794
553.351
70.9163
575.436
81.2735
600.333
86.5865
631.225
99.3662
662.564
103.607
704.752
100.905
91.1075
70.6589
-2484.45
-7.51329
260.771
-1040.22
113.683
502.232
-550.141
-100.368
570.788
-188.566
-2.49496
554.117
-98.2512
-45.7626
634.364
-98.8919
-51.0324
694.653
-87.272
28.2322
774.834
-88.6831
-12.4261
828.115
-57.3464
37.991
883.9
-40.1074
23.2195
916.645
-14.6557
46.686
936.85
0.952265
41.7931
939.816
14.751
45.2175
929.674
22.9539
46.0238
890.437
39.0684
51.4293
826.879
48.2598
45.3136
756.561
46.3932
64.5748
711.127
31.7534
72.52
698.572
7.9501
89.5505
-3.98932
75.3543
903.423
-2098.81
-959.805
699.409
-1202.8
-576.001
523.988
-396.488
-659.4
549.577
-201.75
-220.146
504.413
-98.0335
-116.141
523.914
-134.269
-80.809
509.714
-93.2255
-0.0945311
513.488
-97.624
-42.3192
513.203
-58.8679
-17.7663
515.488
-42.5354
-50.2395
512.533
-12.4062
-47.4063
505.565
3.03512
-69.7664
495.134
16.7836
-65.8452
480.69
29.5537
-75.0848
467.652
39.0878
-67.2389
456.831
41.1528
-60.0523
451.474
34.1203
-33.0845
455.117
21.7621
-14.6576
466.118
3.69549
3.1285
-3.53695
-8.48647
1340.28
-2509.2
-893.849
464.874
-709.247
-257.341
301.725
-361.461
561.951
207.551
-192.119
-59.7943
255.168
-175.961
34.2456
276.168
-178.708
-65.8935
325.626
-156.96
10.2173
357.562
-136.131
-48.8421
389.549
-97.5864
-9.68141
405.663
-66.008
-39.2203
420.043
-36.9883
-24.8753
421.928
-7.17792
-40.704
423.619
4.6684
-31.7087
421.715
20.4336
-36.2388
421.533
28.1612
-25.4093
420.449
33.9878
-19.0551
419.409
31.0837
0.0558421
420.411
25.8559
6.85304
426.313
10.6897
22.7615
0.910198
11.1737
-138.162
-1222.79
-1448.9
54.8003
-373.287
-1312.89
152.949
-315.057
-136.836
245.997
-250.645
-37.141
272.679
-183.48
68.1981
296.244
-202.299
-5.00694
344.493
-199.287
34.3449
357.865
-144.313
-10.9584
386.099
-123.688
8.84154
395.106
-74.1654
-14.9185
411.611
-54.9352
-5.76643
413.117
-11.7163
-21.8214
417.336
-5.70556
-17.8914
415.466
14.7984
-22.8135
412.411
23.3828
-16.1142
407.921
35.418
-5.3396
404.765
37.906
13.6896
406.223
36.2434
20.2654
410.416
19.5446
24.6218
3.68779
7.32952
-1105.67
-859.055
2323.18
-610.273
-533.842
-924.236
-326.799
-550.926
-28.6003
-191.106
-321.489
81.5358
82.7499
-404.052
20.1197
76.282
-206.138
136.483
226.208
-316.364
57.9598
253.02
-157.678
33.5964
312.593
-167.339
32.834
329.814
-82.644
1.81871
356.291
-76.4507
7.5166
365.585
-21.3165
-12.3938
375.15
-13.3322
-9.48547
378.991
8.73202
-11.7684
381.681
18.9125
-3.91422
383.116
35.3214
1.8184
387.47
39.0261
14.7949
395.532
35.5461
13.8869
403.958
18.8679
21.1477
4.69491
9.48693
-98.8389
-620.362
2507
131.586
-477.681
-359.161
137.027
-483.906
-202.925
168.212
-318.335
68.534
259.979
-438.342
78.1987
248.161
-188.613
83.4051
338.177
-379.384
62.507
316.697
-123.445
54.369
337.309
-172.1
35.2423
321.056
-54.5525
16.3351
328.024
-78.1301
10.5482
326.79
-15.6039
-0.609217
329.956
-17.7851
-6.34665
329.463
7.94521
-8.20435
332.577
13.3517
-8.19353
337.246
27.9082
-4.28692
345.343
30.2113
4.8305
358.041
26.5125
10.9276
372.915
13.8867
23.5519
4.00488
14.6274
253.882
-278.918
-694.08
307.765
-686.085
-260.062
210.207
-569.02
-112.035
256.115
-388.57
-7.52693
282.306
-424.024
123.581
224.433
-107.071
56.6291
235.543
-73.4105
38.5277
-109.825
-72.5497
-107.855
227.372
-37.7534
28.3962
-17.498
-32.5165
-11.7249
255.989
-36.4667
16.9339
-59.3969
-35.0415
-58.0525
260.152
-18.5813
13.7257
-8.8077
-15.3811
-6.76154
276.729
-13.9409
7.93431
-29.8466
-13.7848
-29.777
284.899
-4.74892
11.0363
-4.40047
-3.99058
-4.17739
298.11
-1.73543
2.39085
-10.3309
-2.57734
-12.0171
300.84
4.66937
-2.18911
-0.34575
3.86281
-1.00432
310.769
0.336357
-3.15334
321.277
15.9966
-2.55355
334.848
16.0047
4.92404
351.619
14.2217
8.47859
368.4
4.23102
13.9333
-1.22059
6.5443
154.394
-480.714
3136.78
556.834
-749.233
-524.77
588.743
-707.079
-98.3241
634.796
-496.237
-186.775
591.985
-400.965
63.3281
144.711
-30.7506
17.8954
140.806
128.861
126.213
1.073
-22.8053
2.09166
-23.828
128.392
-50.1258
16.8618
-18.4726
-92.0446
95.5337
-42.9084
20.1385
-0.924584
-94.5423
92.0342
-34.9652
1.93122
-0.240959
-76.9091
83.4525
-26.7892
1.90544
-2.16393
-84.4609
86.26
-15.6102
2.03423
-8.03909
-79.3431
84.768
-9.29618
7.16153
-6.93186
-84.3994
87.4794
-3.46379
5.58022
-3.49818
-82.6524
86.9269
1.1588
2.73424
324.266
6.51737
-8.10527
-83.3947
-89.0233
-74.3002
-79.5592
-2.39506
4.30051
-3.8015
339.339
-1.3922
1.83845
353.732
2.11924
6.3337
374.296
-0.633521
11.9937
391.945
-4.75089
15.5917
-5.80362
9.29389
1702.27
590.657
2375.18
1073.59
-103.699
269.386
527.052
-239.783
189.203
357.875
-333.66
22.9296
87.1325
-317.233
123.673
79.0816
77.9311
68.4169
0.214697
105.411
-49.6936
0.449457
-2.43837
7.41514
-31.4922
31.3096
-7.1083
2.31418
-0.56557
-28.412
8.19358
29.938
-10.072
0.917969
0.824468
-30.7153
7.31744
31.2199
-8.01535
-0.631104
1.22851
-27.9539
5.98922
28.5303
-6.80355
-0.990598
0.0202044
-27.4096
3.67097
27.9046
-4.35689
0.170789
-1.36729
-25.7226
2.19069
26.3219
-2.87307
1.45038
-1.96782
-25.3891
-0.13508
26.1409
-0.505804
1.85691
-1.13616
-24.6313
-1.3486
25.3034
0.807664
1.005
-24.0181
-0.0708085
98.1065
4.33966
0.0315381
-25.0324
-22.9183
-23.9207
370.992
-3.55545
3.80921
-92.8712
-100.554
-83.7379
-90.4799
380.769
-4.45703
11.1964
393.14
-7.83222
8.18102
405.712
-15.3784
7.67646
-8.72668
6.73039
1310.79
870.228
944.203
1043.47
2.26199
-91.2789
659.609
-38.549
-16.1649
545.616
-274.452
-28.5645
131.268
-287.237
119.6
126.431
117.313
113.565
-10.9272
60.3681
139.919
-66.2259
8.13352
-3.98366
11.7354
-36.9576
37.5229
-12.2518
3.93469
-4.86799
10.6159
-37.5452