/*--------------------------------*- C++ -*----------------------------------*\
  =========                 |
  \\      /  F ield         | OpenFOAM: The Open Source CFD Toolbox
   \\    /   O peration     | Website:  https://openfoam.org
    \\  /    A nd           | Version:  10
     \\/     M anipulation  |
\*---------------------------------------------------------------------------*/
FoamFile
{
    format      ascii;
    class       volScalarField;
    location    "4";
    object      turbidity;
}
// * * * * * * * * * * * * * * * * * * * * * * * * * * * * * * * * * * * * * //

dimensions      [0 0 0 0 0 0 0];

internalField   nonuniform List<scalar> 
12920
(
-0.0652244
-0.0591894
-0.0712611
-0.088029
-0.0981364
-0.10836
-0.11957
-0.13029
-0.142931
-0.15631
-0.171019
-0.187435
-0.205772
-0.226199
-0.248732
-0.273418
-0.300931
-0.334164
-0.376834
-0.428931
-0.0634751
-0.0654587
-0.0745235
-0.0842246
-0.0944926
-0.1072
-0.121351
-0.133686
-0.147722
-0.159539
-0.171516
-0.1829
-0.198969
-0.219134
-0.243605
-0.272987
-0.311745
-0.357903
-0.406329
-0.452828
-0.0249362
-0.0434101
-0.067505
-0.0862028
-0.104502
-0.120753
-0.139704
-0.152319
-0.163022
-0.168568
-0.174533
-0.180451
-0.190218
-0.203961
-0.224493
-0.252548
-0.288571
-0.330158
-0.377347
-0.429182
-0.0253929
-0.0344189
-0.0555697
-0.0918597
-0.12461
-0.155509
-0.180218
-0.196777
-0.207194
-0.210792
-0.21351
-0.214662
-0.219284
-0.22823
-0.244696
-0.269317
-0.300514
-0.339869
-0.387474
-0.438748
-0.0329962
-0.0855914
-0.105068
-0.138633
-0.161475
-0.184171
-0.201952
-0.222336
-0.239885
-0.251889
-0.26032
-0.264666
-0.271351
-0.280948
-0.29624
-0.315975
-0.340268
-0.369692
-0.402475
-0.4358
-0.0303741
-0.0797188
-0.100821
-0.116975
-0.130741
-0.153042
-0.168381
-0.195706
-0.224928
-0.257466
-0.284034
-0.302642
-0.315957
-0.326323
-0.33928
-0.356732
-0.379622
-0.406628
-0.438764
-0.475215
-0.0782178
-0.0813947
-0.0833898
-0.0939742
-0.106413
-0.125324
-0.135445
-0.153034
-0.174417
-0.21359
-0.253437
-0.292849
-0.324522
-0.347707
-0.365274
-0.384586
-0.406478
-0.429088
-0.45031
-0.46567
-0.0403363
-0.0572994
-0.0615187
-0.0741985
-0.0911622
-0.104872
-0.105072
-0.100377
-0.0954714
-0.0977249
-0.115256
-0.131479
-0.170551
-0.216792
-0.269012
-0.316027
-0.347585
-0.363281
-0.36444
-0.360223
-0.0193755
-0.0464141
-0.0655404
-0.0950762
-0.119352
-0.112826
-0.10113
-0.083447
-0.0725582
-0.0676861
-0.0678873
-0.0701729
-0.0761829
-0.10772
-0.178268
-0.222614
-0.249163
-0.260675
-0.26889
-0.284492
-0.0218648
-0.0338625
-0.0521988
-0.0809571
-0.110591
-0.113294
-0.110079
-0.0968148
-0.0870847
-0.0822133
-0.0777105
-0.0734047
-0.0771355
-0.0948747
-0.136076
-0.167045
-0.191534
-0.212557
-0.23876
-0.26914
-0.0242922
-0.0435452
-0.0609736
-0.0849772
-0.109025
-0.108245
-0.102341
-0.0916992
-0.0831851
-0.0764993
-0.0712694
-0.067829
-0.0677827
-0.0903709
-0.11373
-0.137628
-0.166503
-0.198564
-0.237755
-0.28177
-0.0350067
-0.0543148
-0.0684787
-0.0949872
-0.11328
-0.112172
-0.110854
-0.104778
-0.0971364
-0.0897875
-0.0801578
-0.0721015
-0.0662828
-0.0688942
-0.0864124
-0.125263
-0.158719
-0.197154
-0.247208
-0.308456
-0.0355838
-0.0401374
-0.0622102
-0.0931067
-0.113104
-0.130611
-0.12911
-0.127268
-0.128258
-0.12493
-0.119094
-0.106841
-0.094818
-0.0893374
-0.124341
-0.153223
-0.183181
-0.221072
-0.271465
-0.337354
-0.0237308
-0.0475719
-0.0602933
-0.0890271
-0.110153
-0.129836
-0.15083
-0.171155
-0.192278
-0.214461
-0.225461
-0.229821
-0.225416
-0.224438
-0.232202
-0.247891
-0.269143
-0.299934
-0.340649
-0.390518
-0.0359493
-0.0606353
-0.070629
-0.0858944
-0.104304
-0.127747
-0.153741
-0.172417
-0.193021
-0.216133
-0.23868
-0.258334
-0.272467
-0.285069
-0.297132
-0.311779
-0.328816
-0.352208
-0.383598
-0.425124
-0.0535964
-0.0581864
-0.0614574
-0.0751799
-0.0937389
-0.121691
-0.15657
-0.185872
-0.210692
-0.233069
-0.254121
-0.274837
-0.292919
-0.308367
-0.32293
-0.339621
-0.362904
-0.394258
-0.432834
-0.481321
-0.0268824
-0.039068
-0.0533725
-0.0694411
-0.0882007
-0.117769
-0.159246
-0.203229
-0.235009
-0.258943
-0.278965
-0.298616
-0.315502
-0.329247
-0.345065
-0.367515
-0.400004
-0.440599
-0.48562
-0.534089
-0.0251691
-0.0367972
-0.0442858
-0.0612767
-0.0774269
-0.104659
-0.146939
-0.200588
-0.244871
-0.273409
-0.29359
-0.309149
-0.325898
-0.341711
-0.362899
-0.389257
-0.423611
-0.462953
-0.505339
-0.545595
-0.0320977
-0.04258
-0.0308494
-0.0401604
-0.0506185
-0.0708965
-0.105098
-0.157279
-0.221025
-0.27527
-0.309158
-0.328609
-0.345724
-0.362965
-0.38599
-0.412228
-0.44249
-0.475371
-0.507778
-0.532923
-0.0186239
-0.033543
-0.0317495
-0.0372794
-0.0420192
-0.049644
-0.0625232
-0.0903626
-0.143638
-0.215631
-0.283057
-0.333341
-0.36709
-0.391535
-0.412693
-0.433808
-0.456102
-0.479567
-0.502964
-0.523971
-0.014002
-0.0102857
-0.00842719
-0.00818343
-0.00818899
-0.00923315
-0.0118236
-0.0159377
-0.0244258
-0.0350235
-0.0457709
-0.0541062
-0.0604972
-0.0643044
-0.0647324
-0.0634658
-0.071846
-0.0954578
-0.131848
-0.169406
-0.0220168
-0.0136057
-0.00937884
-0.00874853
-0.00858508
-0.0089728
-0.00942832
-0.00965528
-0.00994128
-0.010926
-0.0132592
-0.0172483
-0.0230089
-0.0302371
-0.0390405
-0.0496582
-0.064084
-0.0828561
-0.106366
-0.124082
-0.00759601
-0.0129238
-0.0179735
-0.0107754
-0.0104199
-0.0119306
-0.0136347
-0.0137943
-0.0131769
-0.0128954
-0.0141518
-0.0177261
-0.024069
-0.0337528
-0.0477402
-0.0674364
-0.0952787
-0.127803
-0.15766
-0.171241
-0.00865143
-0.0121598
-0.0164785
-0.0181379
-0.0202162
-0.0229831
-0.0315857
-0.0309995
-0.0299778
-0.0260217
-0.024814
-0.0268101
-0.0332301
-0.0445027
-0.0616385
-0.0850338
-0.114093
-0.137341
-0.147533
-0.144085
-0.0469019
-0.0258614
-0.0285725
-0.0416458
-0.0419395
-0.057353
-0.066315
-0.0674172
-0.0670466
-0.0592938
-0.0550001
-0.0517833
-0.0543367
-0.0616225
-0.0745294
-0.0905128
-0.107014
-0.118231
-0.128633
-0.132823
-0.00909912
-0.0313746
-0.0268152
-0.0416667
-0.0466131
-0.0545176
-0.0576096
-0.0677088
-0.0718064
-0.0698802
-0.0644509
-0.0569906
-0.0525862
-0.0534845
-0.0589052
-0.0686962
-0.0841748
-0.10201
-0.116588
-0.113237
-0.0159365
-0.0206735
-0.0224865
-0.0269957
-0.0335617
-0.031899
-0.0315438
-0.0423665
-0.050691
-0.0606775
-0.0645236
-0.0630596
-0.05645
-0.0514211
-0.0528956
-0.0612436
-0.0763143
-0.0929721
-0.102943
-0.100315
-0.0209468
-0.0137721
-0.0150928
-0.0222981
-0.031559
-0.0313326
-0.0320064
-0.0226999
-0.0227441
-0.0302367
-0.0489105
-0.0696013
-0.0776709
-0.0664911
-0.0568943
-0.0672512
-0.0834557
-0.0985477
-0.105293
-0.10178
-0.00413346
-0.00850656
-0.0163047
-0.0222331
-0.0281753
-0.0223577
-0.0183602
-0.0136367
-0.0128949
-0.0167706
-0.0276488
-0.0487572
-0.0725984
-0.0835148
-0.0680436
-0.0742757
-0.0832158
-0.0875441
-0.0883333
-0.0876249
-0.000844637
-0.00533678
-0.00932744
-0.0144225
-0.024093
-0.0255155
-0.0317467
-0.0516276
-0.0508145
-0.0460262
-0.0480537
-0.06268
-0.0720317
-0.0747147
-0.0705576
-0.0627524
-0.0645459
-0.0676103
-0.0732451
-0.079482
-0.00787741
-0.0109252
-0.0172554
-0.0207816
-0.0283561
-0.0272458
-0.0290936
-0.0299101
-0.0340985
-0.0475299
-0.0575524
-0.0615774
-0.0759222
-0.0856041
-0.0688485
-0.0528909
-0.0545902
-0.0622067
-0.0751424
-0.0872889
-0.00251514
-0.00787763
-0.0101874
-0.0155415
-0.0195852
-0.0201624
-0.0216969
-0.0253927
-0.0278398
-0.0359498
-0.0466309
-0.0454868
-0.0562792
-0.07045
-0.0693237
-0.0527398
-0.0552526
-0.0665766
-0.0867106
-0.105289
-0.00270442
-0.00474481
-0.00609504
-0.0123335
-0.0194772
-0.0268723
-0.0300811
-0.0345815
-0.0430643
-0.0564239
-0.0605667
-0.0587247
-0.0617136
-0.0696469
-0.0620116
-0.0575576
-0.0601632
-0.0729125
-0.0978184
-0.120881
-0.049533
-0.0295341
-0.0101666
-0.016361
-0.0244897
-0.0301019
-0.0408215
-0.0508093
-0.0600654
-0.0643931
-0.066452
-0.068788
-0.0713672
-0.0703302
-0.0631011
-0.0572944
-0.0592568
-0.0723972
-0.101117
-0.13359
-0.0201219
-0.0182038
-0.0126427
-0.0173275
-0.0286775
-0.0323127
-0.0342024
-0.0348329
-0.0392359
-0.0418205
-0.0468869
-0.0490148
-0.0527813
-0.0521565
-0.0502763
-0.0471291
-0.0510761
-0.0651343
-0.0941177
-0.121034
-0.00645549
-0.0132392
-0.0107227
-0.0153071
-0.0324038
-0.0422636
-0.0491678
-0.0497646
-0.0530621
-0.0561265
-0.0567676
-0.049695
-0.0431589
-0.0367876
-0.0358638
-0.0399906
-0.0510247
-0.0689903
-0.0942157
-0.105118
-0.00502017
-0.00892241
-0.016364
-0.0230421
-0.0435334
-0.0547044
-0.0711956
-0.0688889
-0.0723713
-0.0700466
-0.0647625
-0.0511976
-0.0397695
-0.0343293
-0.0367504
-0.0450216
-0.0582874
-0.072099
-0.0835476
-0.0841874
-0.00247765
-0.00627133
-0.0104378
-0.0201353
-0.0326094
-0.048148
-0.0713853
-0.0662088
-0.0629117
-0.0506178
-0.0446836
-0.0370538
-0.0335932
-0.0345388
-0.0404734
-0.0493604
-0.0595219
-0.0659303
-0.0690402
-0.0673755
-0.00663347
-0.00912578
-0.00419342
-0.00731374
-0.0136375
-0.0259479
-0.0548644
-0.0688682
-0.0738337
-0.0556646
-0.0425585
-0.033542
-0.0328366
-0.0365362
-0.0444137
-0.0538448
-0.0644339
-0.0683952
-0.0652363
-0.0583876
-0.00988907
-0.00632977
-0.00473162
-0.00468763
-0.00716132
-0.0138312
-0.0325536
-0.0532675
-0.0789339
-0.0975005
-0.10806
-0.113828
-0.122981
-0.13573
-0.152233
-0.169865
-0.186809
-0.201677
-0.211296
-0.216959
-0.0152613
-0.00505358
-0.00538304
-0.0055077
-0.00509029
-0.00501836
-0.00584258
-0.00732488
-0.010142
-0.0133267
-0.0166485
-0.0190784
-0.0212004
-0.0233387
-0.0264248
-0.0327252
-0.0459508
-0.0661014
-0.0902452
-0.112511
-0.0113796
-0.00723306
-0.00475047
-0.00446126
-0.00451769
-0.00503245
-0.00570864
-0.00677513
-0.00830736
-0.0107569
-0.0140617
-0.018153
-0.022807
-0.0278487
-0.0332037
-0.0387733
-0.044077
-0.0473044
-0.0483309
-0.0464683
-0.0112345
-0.0107812
-0.00686541
-0.00559628
-0.0063798
-0.00752754
-0.00841979
-0.00913015
-0.0102289
-0.0125183
-0.0163752
-0.0218802
-0.0290246
-0.0374363
-0.047292
-0.0578506
-0.0687691
-0.0769341
-0.0806031
-0.0764476
-0.00418601
-0.0061399
-0.00611636
-0.00692337
-0.00801903
-0.0103201
-0.013147
-0.0140301
-0.0155297
-0.0175649
-0.0215301
-0.0271959
-0.0347741
-0.0435345
-0.053111
-0.0620735
-0.0690733
-0.0706344
-0.0671338
-0.0609297
-0.0149845
-0.00895227
-0.00794869
-0.0138514
-0.0124267
-0.0195654
-0.0230161
-0.0232647
-0.0240393
-0.0239315
-0.0262515
-0.029828
-0.0348754
-0.0405024
-0.0464124
-0.0514093
-0.0550431
-0.0565443
-0.0574978
-0.0551824
-0.0208535
-0.0153928
-0.0105157
-0.0184926
-0.0186931
-0.023068
-0.023544
-0.0260454
-0.0264899
-0.0256686
-0.0257009
-0.0266964
-0.0287956
-0.031588
-0.0343598
-0.0370801
-0.0397784
-0.041586
-0.0411899
-0.0363317
-0.012472
-0.0108821
-0.0109296
-0.0119509
-0.0137206
-0.0148661
-0.0146517
-0.0196284
-0.0222103
-0.0249034
-0.0261413
-0.026866
-0.0276722
-0.0293225
-0.0316651
-0.0342151
-0.0367805
-0.0382265
-0.0375489
-0.034342
-0.0108668
-0.00480102
-0.0060905
-0.00852467
-0.0117949
-0.0119908
-0.0119579
-0.0113949
-0.0150729
-0.0200457
-0.0262608
-0.0306908
-0.0306524
-0.0309161
-0.0377087
-0.0424014
-0.0463437
-0.0485037
-0.0473936
-0.0427434
-0.00189982
-0.00653617
-0.00800311
-0.00890139
-0.00977319
-0.00861587
-0.00877192
-0.00828464
-0.011074
-0.0169786
-0.0254815
-0.03252
-0.034911
-0.0357641
-0.0422116
-0.0473282
-0.0494313
-0.0488945
-0.046206
-0.0420505
-0.000572529
-0.00188543
-0.00350677
-0.00557629
-0.00825673
-0.00911738
-0.0121889
-0.0158052
-0.0158938
-0.0195924
-0.0296805
-0.0396117
-0.0370971
-0.0353062
-0.0387367
-0.0394155
-0.0415974
-0.043381
-0.0442675
-0.043567
-0.0030972
-0.00420903
-0.0053886
-0.0068398
-0.00920457
-0.00976289
-0.012541
-0.0159476
-0.0204321
-0.0240871
-0.0268405
-0.0336985
-0.0427562
-0.0375638
-0.0356576
-0.0343466
-0.0384563
-0.0433348
-0.0471555
-0.0484433
-0.00222473
-0.00492025
-0.00492017
-0.00560828
-0.0070316
-0.00797036
-0.0100311
-0.013515
-0.0197429
-0.0258609
-0.0265626
-0.0293207
-0.0371567
-0.0435768
-0.0379112
-0.0325315
-0.038901
-0.0466022
-0.0531288
-0.0549037
-0.00219189
-0.00260056
-0.00313872
-0.00484014
-0.00702209
-0.0103813
-0.0117795
-0.0159811
-0.0234212
-0.0311367
-0.0354476
-0.0399967
-0.0448643
-0.0455351
-0.0324986
-0.0344618
-0.0411384
-0.0502134
-0.0589169
-0.0611919
-0.00287859
-0.00504671
-0.00471669
-0.00694621
-0.0100581
-0.0133161
-0.0177829
-0.021418
-0.0246148
-0.0258016
-0.0280589
-0.0296178
-0.0308317
-0.0300946
-0.0295938
-0.0326146
-0.0398313
-0.0503484
-0.0629796
-0.070337
-0.0132813
-0.00784852
-0.00695758
-0.0101581
-0.0135963
-0.0148451
-0.0156656
-0.0155487
-0.0168457
-0.016484
-0.0179241
-0.0184514
-0.0200726
-0.0210704
-0.0232418
-0.0271659
-0.0337327
-0.0421562
-0.0521433
-0.0563857
-0.00225679
-0.00496048
-0.00580866
-0.0106301
-0.01862
-0.0221885
-0.0232569
-0.0232191
-0.0227315
-0.0207343
-0.0187021
-0.0162272
-0.0159709
-0.0171911
-0.0202933
-0.0246279
-0.0300624
-0.0355129
-0.0409629
-0.0413079
-0.000835899
-0.0045756
-0.0102462
-0.0186163
-0.0295935
-0.0309368
-0.0338985
-0.0299301
-0.0282954
-0.0237957
-0.0199959
-0.0167498
-0.0165045
-0.0185186
-0.0218959
-0.0256158
-0.029262
-0.0319018
-0.033841
-0.0340572
-0.00175462
-0.0050824
-0.00951947
-0.0170576
-0.0216732
-0.0264206
-0.0312018
-0.024764
-0.0217176
-0.0174896
-0.0162297
-0.0161588
-0.0177377
-0.0201692
-0.0228786
-0.0250944
-0.0267145
-0.0274733
-0.0279261
-0.0281315
-0.00221641
-0.00347224
-0.00299503
-0.00538109
-0.00877351
-0.0143829
-0.0261348
-0.0264252
-0.0246952
-0.0188128
-0.0170038
-0.0171314
-0.0186046
-0.0203545
-0.0220235
-0.0231426
-0.0237832
-0.0239534
-0.0240383
-0.0241993
-0.00297412
-0.00470273
-0.00322085
-0.00245389
-0.00408696
-0.00907824
-0.0216021
-0.0326761
-0.0440886
-0.0483438
-0.052649
-0.0573331
-0.0650718
-0.0748083
-0.0861388
-0.0975592
-0.107713
-0.116302
-0.120705
-0.122432
-0.00509833
-0.00598441
-0.00702286
-0.00574345
-0.00437267
-0.00380775
-0.00393585
-0.00432416
-0.0051299
-0.00614782
-0.00775868
-0.00994018
-0.0132839
-0.0183999
-0.0260479
-0.0368052
-0.0501674
-0.0645881
-0.0783212
-0.0890823
-0.00233875
-0.00345916
-0.00402757
-0.00436987
-0.00463067
-0.00543953
-0.00655876
-0.00845787
-0.0108101
-0.0137848
-0.0169574
-0.0203616
-0.0237798
-0.0270694
-0.0300128
-0.0319329
-0.0321064
-0.0307264
-0.0284904
-0.0269929
-0.00237465
-0.00638029
-0.00538264
-0.00568169
-0.00624966
-0.0070683
-0.00808928
-0.00983868
-0.0125179
-0.0160253
-0.020144
-0.0241045
-0.0278359
-0.0306728
-0.0327955
-0.0338038
-0.0341693
-0.0330236
-0.0311146
-0.028237
-0.00162845
-0.0050145
-0.00597169
-0.00655537
-0.00744288
-0.00885146
-0.0105628
-0.0123456
-0.0149967
-0.0180945
-0.0216333
-0.0248571
-0.0276872
-0.0297204
-0.0310567
-0.0315436
-0.0313881
-0.0297301
-0.0279137
-0.026567
-0.0179694
-0.00688332
-0.00606984
-0.00729069
-0.00825412
-0.0109781
-0.0127896
-0.0142626
-0.0160567
-0.0179081
-0.0198916
-0.0217225
-0.0231917
-0.0243424
-0.0251997
-0.0257119
-0.0260724
-0.0259799
-0.0260244
-0.0254448
-0.0116332
-0.0146347
-0.00950899
-0.00961342
-0.00946068
-0.0120987
-0.0127897
-0.0142638
-0.0153129
-0.016159
-0.0168455
-0.0175078
-0.0178884
-0.0183798
-0.0187358
-0.0192426
-0.0199568
-0.0206214
-0.0212491
-0.0219797
-0.00726708
-0.0158402
-0.0106777
-0.00756511
-0.00763848
-0.00934259
-0.0101985
-0.0129827
-0.0145078
-0.0157071
-0.0162289
-0.016468
-0.0165299
-0.0167948
-0.0172767
-0.0178543
-0.018661
-0.0194826
-0.0204637
-0.0218264
-0.00961657
-0.00613215
-0.00576446
-0.00565321
-0.00640212
-0.00718013
-0.0076828
-0.0104728
-0.0132519
-0.0157771
-0.0173634
-0.0184831
-0.018452
-0.0188446
-0.0198205
-0.0204003
-0.0208945
-0.0212713
-0.021299
-0.0214779
-0.00203238
-0.00460646
-0.0044156
-0.00502647
-0.00615027
-0.00657467
-0.00725496
-0.00914047
-0.0125539
-0.0162872
-0.0189673
-0.0212187
-0.0227847
-0.0245981
-0.0272404
-0.0217338
-0.0206593
-0.0196299
-0.019019
-0.0191807
-0.00106328
-0.00246768
-0.00354487
-0.0047972
-0.00667644
-0.00747251
-0.00878341
-0.0106682
-0.0142391
-0.0193835
-0.0232215
-0.0238543
-0.0241539
-0.0261161
-0.0251616
-0.0178835
-0.0173754
-0.0175912
-0.0183191
-0.0193629
-0.00165857
-0.00315149
-0.00466093
-0.00562482
-0.00761608
-0.00873624
-0.0106483
-0.0129389
-0.0149646
-0.017436
-0.0213884
-0.0246906
-0.0258125
-0.0257107
-0.0229079
-0.0195328
-0.0202714
-0.0210348
-0.0220149
-0.0229058
-0.0016745
-0.0033313
-0.00398927
-0.00493018
-0.00650367
-0.00754246
-0.00911728
-0.01238
-0.0168247
-0.0198935
-0.0224512
-0.0259994
-0.0286485
-0.0264414
-0.0207034
-0.0214879
-0.023454
-0.0249821
-0.02628
-0.0263792
-0.000431405
-0.0012386
-0.00286844
-0.00429604
-0.00546746
-0.00699908
-0.00820418
-0.0123134
-0.0166547
-0.0209001
-0.0231978
-0.0243931
-0.023537
-0.0215332
-0.0215689
-0.0243147
-0.0269609
-0.0289083
-0.0302253
-0.0296045
-0.00312905
-0.00429709
-0.00423405
-0.00463454
-0.00569843
-0.00716681
-0.00933523
-0.0103493
-0.0120369
-0.0127645
-0.0144202
-0.0157648
-0.0175027
-0.0194378
-0.0220236
-0.0252021
-0.028531
-0.0315269
-0.0343236
-0.0346746
-0.0253059
-0.00620976
-0.00560071
-0.00650755
-0.00726381
-0.00783473
-0.00844541
-0.0083511
-0.00912358
-0.00950599
-0.0110685
-0.0126135
-0.0148316
-0.0171257
-0.019752
-0.0224126
-0.0251566
-0.0276445
-0.0301837
-0.0310601
-0.00461295
-0.00537266
-0.00582334
-0.00826399
-0.0110397
-0.0115198
-0.011042
-0.0104181
-0.0100057
-0.00992234
-0.0107595
-0.0121273
-0.0141167
-0.0162466
-0.018442
-0.0204536
-0.0224081
-0.0241083
-0.0258848
-0.0269182
-0.000374899
-0.00403263
-0.00841682
-0.0125611
-0.0160432
-0.0149027
-0.0142033
-0.0120794
-0.011396
-0.0110567
-0.0117575
-0.0131184
-0.0148608
-0.0166564
-0.0182917
-0.0197662
-0.021162
-0.0225441
-0.0240824
-0.0257084
-0.00206187
-0.00492148
-0.00761049
-0.0114292
-0.0125331
-0.012912
-0.0130253
-0.0113155
-0.0110429
-0.0114072
-0.0124466
-0.0137263
-0.0149535
-0.0160726
-0.0170454
-0.0180235
-0.0191122
-0.0204339
-0.0220096
-0.0236896
-0.000914907
-0.00222167
-0.0024364
-0.00484561
-0.00773002
-0.0109134
-0.0138351
-0.0137335
-0.0136673
-0.0136468
-0.0141554
-0.0150928
-0.0158755
-0.0167073
-0.0174376
-0.0181551
-0.0189644
-0.020045
-0.0214611
-0.0231464
-0.000410002
-0.00119787
-0.000988274
-0.00187754
-0.00425372
-0.00916739
-0.0165505
-0.0217783
-0.027201
-0.0302845
-0.0348825
-0.0402579
-0.0469523
-0.0544534
-0.0623556
-0.0698127
-0.075974
-0.0806105
-0.0818949
-0.0811527
-0.0076966
-0.00584931
-0.00514291
-0.00394999
-0.00328029
-0.00351048
-0.0042525
-0.00590489
-0.0084698
-0.0125421
-0.0175146
-0.0234389
-0.0293276
-0.0351622
-0.0404095
-0.0451626
-0.049104
-0.0515822
-0.0521787
-0.0504517
-0.00444588
-0.00511041
-0.0052456
-0.00509676
-0.00588914
-0.00829504
-0.0113582
-0.0147573
-0.0180247
-0.0209601
-0.0233224
-0.0249599
-0.0259022
-0.0261382
-0.0257912
-0.0249932
-0.0240521
-0.0232565
-0.0223599
-0.0217879
-0.00879482
-0.00494668
-0.00541604
-0.00618242
-0.00727117
-0.009138
-0.0115548
-0.0139903
-0.0159318
-0.0170896
-0.017582
-0.017713
-0.0176997
-0.0177481
-0.0178625
-0.0179834
-0.0181447
-0.0181479
-0.018088
-0.0179385
-0.00179484
-0.0045268
-0.00558202
-0.00689229
-0.00822231
-0.00962429
-0.0110814
-0.0124181
-0.0134983
-0.0142854
-0.0148996
-0.0155016
-0.0161791
-0.0169276
-0.0177313
-0.0184472
-0.0191085
-0.0194929
-0.0197798
-0.0199295
-0.00926776
-0.00843992
-0.00588764
-0.00703022
-0.00868501
-0.0099113
-0.0107485
-0.0115817
-0.0122935
-0.0130068
-0.0138611
-0.0147628
-0.0158438
-0.0169563
-0.0181367
-0.0192599
-0.0203829
-0.0213795
-0.0223222
-0.0230742
-0.0400209
-0.0325313
-0.0110888
-0.00769928
-0.00864294
-0.00984491
-0.010404
-0.0110626
-0.01181
-0.0126254
-0.0137736
-0.0150259
-0.0164655
-0.017874
-0.0192792
-0.0205646
-0.021753
-0.0228428
-0.0238654
-0.0247704
-0.0106312
-0.00703937
-0.00573588
-0.00643769
-0.00769355
-0.00916084
-0.0100933
-0.0111199
-0.0120242
-0.0130209
-0.014254
-0.0155966
-0.0170557
-0.0184629
-0.0197495
-0.0208699
-0.0217362
-0.022367
-0.0227825
-0.0230655
-0.00240575
-0.00287005
-0.00351843
-0.0046807
-0.00634594
-0.00804831
-0.00881192
-0.0107777
-0.0115686
-0.012565
-0.0131677
-0.014061
-0.0150215
-0.016252
-0.0181601
-0.019062
-0.0196278
-0.0197688
-0.0194956
-0.01907
-0.00231143
-0.00270816
-0.003225
-0.00485089
-0.0071119
-0.00806645
-0.00881303
-0.0104263
-0.0116759
-0.0125556
-0.0127901
-0.0127138
-0.0126753
-0.0130425
-0.0148518
-0.0165462
-0.0172842
-0.017454
-0.0170364
-0.0163219
-0.000639606
-0.00116314
-0.00246391
-0.00486584
-0.00744329
-0.00850168
-0.00966338
-0.0113651
-0.0128361
-0.0138093
-0.0140381
-0.0131304
-0.0118958
-0.011286
-0.0133192
-0.0157472
-0.0169176
-0.0176059
-0.0176829
-0.0172845
-0.0014618
-0.00285314
-0.00395579
-0.00583007
-0.00812928
-0.00936127
-0.0107083
-0.0124009
-0.0136286
-0.0145864
-0.0153153
-0.0143295
-0.0127829
-0.0121618
-0.0137508
-0.0166321
-0.018101
-0.0193037
-0.0200541
-0.0203011
-0.00273021
-0.00249958
-0.00324033
-0.00509679
-0.00712695
-0.00813819
-0.00899937
-0.0114836
-0.0140597
-0.0149423
-0.0148849
-0.0142315
-0.0135333
-0.0136738
-0.0157791
-0.0189816
-0.0202455
-0.0212365
-0.0218501
-0.0220321
-0.00110053
-0.0021369
-0.00336723
-0.00431037
-0.00560484
-0.00673827
-0.0077517
-0.0101376
-0.0115012
-0.012476
-0.0133539
-0.0145009
-0.0159314
-0.0175438
-0.0215948
-0.0230141
-0.024241
-0.0252163
-0.0258961
-0.0262358
-0.000500393
-0.00266107
-0.00409514
-0.0043867
-0.00511777
-0.0063295
-0.0083004
-0.0101731
-0.0123123
-0.0144075
-0.0164258
-0.0185194
-0.0204617
-0.0225127
-0.0243967
-0.0263254
-0.0281766
-0.0300638
-0.0319276
-0.033554
-0.00836801
-0.0066869
-0.00619768
-0.00527893
-0.00543988
-0.00652307
-0.00812206
-0.010014
-0.0122432
-0.014601
-0.0168237
-0.0191278
-0.0212507
-0.0234308
-0.0254356
-0.0273328
-0.0290136
-0.0305182
-0.0318042
-0.0328125
-0.00290741
-0.00550951
-0.00657275
-0.00661159
-0.00669111
-0.00741894
-0.00862693
-0.0105869
-0.0127421
-0.0152427
-0.0175983
-0.0201084
-0.0223191
-0.0245102
-0.026368
-0.0279854
-0.0291327
-0.0297984
-0.0299108
-0.0295654
-0.00615256
-0.00610248
-0.00692776
-0.00746355
-0.00799445
-0.00865744
-0.00961904
-0.0112908
-0.0132755
-0.0155182
-0.0179293
-0.0204369
-0.022974
-0.0255292
-0.0279917
-0.0303716
-0.0324334
-0.0342725
-0.0355904
-0.0366416
-0.00301735
-0.00404692
-0.00577113
-0.00766471
-0.0088113
-0.00956033
-0.0104805
-0.0117186
-0.0130513
-0.014522
-0.0161923
-0.0179528
-0.0201818
-0.0225663
-0.0254287
-0.0285124
-0.0319271
-0.0354429
-0.0389766
-0.0419756
-0.00179524
-0.00274137
-0.00305679
-0.00624018
-0.00968519
-0.0117715
-0.0131594
-0.0142511
-0.015293
-0.0168279
-0.0179126
-0.0193934
-0.0204634
-0.0216796
-0.0226771
-0.0234675
-0.0242792
-0.0254439
-0.0268226
-0.0283127
-0.000865815
-0.000986103
-0.00118861
-0.0033119
-0.00755237
-0.0126095
-0.0164269
-0.01929
-0.0225
-0.0253381
-0.0290016
-0.0325826
-0.0366124
-0.0402663
-0.0437422
-0.046438
-0.0481375
-0.0478018
-0.0445523
-0.0397598
-0.0266541
-0.0240594
-0.0254854
-0.0203119
-0.0249409
-0.0184052
-0.0222818
-0.0380706
-0.0264381
-0.0321883
-0.0260519
-0.027329
-0.0238647
-0.0272858
-0.0261099
-0.0242321
-0.025218
-0.0182293
-0.0213217
-0.0199441
-0.021311
-0.0309989
-0.0253262
-0.0276484
-0.0227206
-0.0261208
-0.0220563
-0.0250801
-0.0874989
-0.104965
-0.0954433
-0.0934047
-0.0726748
-0.100603
-0.0917053
-0.0746916
-0.0924303
-0.0853729
-0.0645595
-0.045998
-0.0889805
-0.0794101
-0.0684864
-0.0836421
-0.0800078
-0.0423002
-0.038744
-0.075899
-0.0687095
-0.067248
-0.0790338
-0.0758329
-0.0396484
-0.0486142
-0.0675158
-0.0667313
-0.0697329
-0.07465
-0.0717756
-0.0532602
-0.0680375
-0.0673193
-0.0713529
-0.0731928
-0.0712973
-0.0731286
-0.0734533
-0.0920634
-0.073356
-0.0837227
-0.0953555
-0.0753389
-0.087002
-0.100659
-0.128105
-0.0894115
-0.111462
-0.149464
-0.0927237
-0.116861
-0.13895
-0.165086
-0.119431
-0.137313
-0.100276
-0.106211
-0.0962504
-0.107418
-0.09827
-0.1029
-0.0923617
-0.0888691
-0.0933273
-0.0859317
-0.0952429
-0.088078
-0.0894359
-0.0830293
-0.0832572
-0.0838914
-0.0788523
-0.0861637
-0.0814778
-0.0816827
-0.079185
-0.078915
-0.0774229
-0.0736562
-0.0801997
-0.0772012
-0.0785963
-0.0769964
-0.0742198
-0.0725708
-0.0700712
-0.0765566
-0.0763923
-0.0765136
-0.0753105
-0.0747535
-0.0694411
-0.0689287
-0.0771875
-0.0850399
-0.0752106
-0.0794194
-0.0894307
-0.0708927
-0.0875872
-0.090196
-0.110534
-0.0836403
-0.102725
-0.11556
-0.0943836
-0.11064
-0.117507
-0.132414
-0.108615
-0.11833
-0.0940916
-0.107151
-0.102631
-0.0977471
-0.0886858
-0.102116
-0.0936636
-0.0851435
-0.100573
-0.0939852
-0.0859532
-0.0791755
-0.0897807
-0.0762273
-0.0780181
-0.0918678
-0.0859061
-0.0777457
-0.0756562
-0.0725692
-0.0678229
-0.0724279
-0.0837981
-0.0775181
-0.0752773
-0.0740496
-0.0683199
-0.0702363
-0.0685216
-0.0756487
-0.0711328
-0.0736134
-0.0726226
-0.0695912
-0.0638585
-0.0667203
-0.0699196
-0.0664783
-0.0725201
-0.0757875
-0.0630678
-0.0675349
-0.0832365
-0.0656677
-0.0691958
-0.0792305
-0.0969548
-0.070242
-0.0804695
-0.106056
-0.0725356
-0.0818828
-0.10267
-0.111683
-0.0839504
-0.0914645
-0.106633
-0.121047
-0.120472
-0.106545
-0.0989795
-0.119255
-0.116359
-0.0989
-0.119741
-0.118067
-0.0954221
-0.0823596
-0.11384
-0.108863
-0.0918469
-0.117583
-0.11465
-0.0783956
-0.0723601
-0.107037
-0.103074
-0.0826058
-0.113114
-0.105763
-0.0725334
-0.0737675
-0.102244
-0.096403
-0.073832
-0.102545
-0.0905635
-0.0721691
-0.0632519
-0.0920968
-0.0761314
-0.067485
-0.0864425
-0.0755216
-0.0615775
-0.0649152
-0.072224
-0.0688376
-0.0669305
-0.0728663
-0.0681473
-0.0677563
-0.0768344
-0.0697398
-0.0747684
-0.0757209
-0.0677931
-0.0701987
-0.079743
-0.0868821
-0.0767075
-0.0831544
-0.0146452
-0.0300021
-0.0382697
-0.0161433
-0.0117883
-0.0179569
-0.0171984
-0.0126041
-0.039217
-0.0339133
-0.0110528
-0.0116062
-0.0170164
-0.0162068
-0.0153373
-0.0314946
-0.0283762
-0.0124578
-0.0164447
-0.0162654
-0.0185871
-0.0239731
-0.028391
-0.0330226
-0.0185588
-0.0267035
-0.0201439
-0.0273173
-0.0425325
-0.0367026
-0.0525555
-0.0296202
-0.0371101
-0.0304182
-0.0398069
-0.067308
-0.0578466
-0.0676206
-0.0392588
-0.043995
-0.0420229
-0.0431758
-0.0826913
-0.0689492
-0.0735796
-0.0449185
-0.0451278
-0.0424417
-0.0412725
-0.0780522
-0.0754535
-0.0784046
-0.0450841
-0.046162
-0.0415796
-0.0445717
-0.0483539
-0.0296975
-0.0360366
-0.0221509
-0.0223454
-0.0216575
-0.0225462
-0.0521515
-0.0374381
-0.0427236
-0.0221307
-0.0207611
-0.0231382
-0.0255461
-0.0469579
-0.045353
-0.0543554
-0.0204516
-0.0210528
-0.0264949
-0.0290253
-0.0463175
-0.05705
-0.0618614
-0.0218846
-0.0272374
-0.0296515
-0.0305024
-0.0584588
-0.062546
-0.063438
-0.0300681
-0.0401313
-0.0309122
-0.0359019
-0.0711709
-0.0648037
-0.0750218
-0.0429039
-0.0446996
-0.039463
-0.0495992
-0.0736501
-0.0789028
-0.0852723
-0.0436414
-0.0411625
-0.0501576
-0.0451947
-0.0778269
-0.0850333
-0.0817147
-0.0411231
-0.0432195
-0.0433661
-0.0407916
-0.0301274
-0.0228303
-0.0235072
-0.0206271
-0.0213844
-0.0202787
-0.0210104
-0.0319839
-0.0239632
-0.0253833
-0.0220245
-0.0246607
-0.0212932
-0.0233748
-0.044002
-0.0262632
-0.0312451
-0.0256635
-0.02842
-0.0246745
-0.029236
-0.0558409
-0.0339041
-0.0426938
-0.0291606
-0.0311484
-0.0304021
-0.031069
-0.0603664
-0.0441398
-0.0450142
-0.0316766
-0.0349408
-0.0305847
-0.0307836
-0.0715394
-0.0460698
-0.0562989
-0.0377004
-0.0487722
-0.0321171
-0.0394337
-0.0851912
-0.0613399
-0.0730103
-0.0505598
-0.047003
-0.0420063
-0.0463988
-0.0820348
-0.074979
-0.077594
-0.0450212
-0.0416955
-0.0470968
-0.0479725
-0.02462
-0.0281402
-0.0308841
-0.0203361
-0.0218849
-0.024574
-0.0269296
-0.026992
-0.0322197
-0.0352649
-0.0222072
-0.0242029
-0.0276912
-0.0308519
-0.033049
-0.0368634
-0.0439459
-0.0255266
-0.0306656
-0.0323086
-0.03726
-0.0453579
-0.0480696
-0.0573586
-0.0320979
-0.0328395
-0.0387026
-0.0394926
-0.0455324
-0.0575734
-0.0533429
-0.0320725
-0.031104
-0.0388777
-0.0378419
-0.0521496
-0.0519496
-0.0517783
-0.0319573
-0.0376987
-0.0383878
-0.0424321
-0.0678556
-0.0532793
-0.0616524
-0.0400246
-0.04601
-0.0444258
-0.0509224
-0.0757924
-0.0652555
-0.0747004
-0.0475948
-0.0498837
-0.0529147
-0.0546998
-0.00817837
-0.0101251
-0.0117111
-0.00857
-0.00851401
-0.00814262
-0.00903951
-0.0100944
-0.0119629
-0.012451
-0.00900343
-0.0116643
-0.00962845
-0.0125093
-0.0151208
-0.0130013
-0.0167452
-0.0127559
-0.0163958
-0.0138529
-0.0186581
-0.0233331
-0.0187561
-0.0269221
-0.0176274
-0.0206106
-0.0203268
-0.0243935
-0.0311971
-0.0300039
-0.037373
-0.0214145
-0.023641
-0.0252451
-0.0261602
-0.0347296
-0.0383917
-0.0368504
-0.0244358
-0.0268431
-0.0260988
-0.0266538
-0.0353742
-0.0358234
-0.0350554
-0.0277443
-0.0306093
-0.0272226
-0.0295298
-0.0384785
-0.0356723
-0.0393925
-0.0316788
-0.0348662
-0.0304037
-0.0331109
-0.0154399
-0.0124649
-0.0162259
-0.00944898
-0.0102521
-0.0105561
-0.012489
-0.0157427
-0.0173141
-0.0205308
-0.0106552
-0.0128957
-0.0130562
-0.0145517
-0.0181187
-0.0215425
-0.0238083
-0.0140602
-0.0185997
-0.0150678
-0.0171203
-0.0211093
-0.0215174
-0.0210628
-0.0193658
-0.0222008
-0.021593
-0.0193912
-0.0308752
-0.0327777
-0.0285659
-0.029405
-0.0315206
-0.031824
-0.0282642
-0.0384612
-0.0354496
-0.0425406
-0.0271264
-0.0266757
-0.0280307
-0.0281395
-0.0350335
-0.0423229
-0.0376462
-0.0269326
-0.028647
-0.0278902
-0.0280944
-0.0381394
-0.0363826
-0.0354225
-0.0294012
-0.031861
-0.0284766
-0.0299552
-0.0151071
-0.0107461
-0.0127861
-0.0114233
-0.0133686
-0.0109792
-0.0137761
-0.0191938
-0.0138143
-0.0177774
-0.0139491
-0.0153906
-0.0148357
-0.0177132
-0.0236172
-0.0192558
-0.023292
-0.0158077
-0.017231
-0.01842
-0.0196627
-0.0212048
-0.0248463
-0.0235766
-0.0205854
-0.024355
-0.0213772
-0.0205951
-0.0243142
-0.0277742
-0.025938
-0.0242289
-0.0267057
-0.0255177
-0.0232043
-0.0419998
-0.0293552
-0.0358974
-0.0270964
-0.0284724
-0.0262429
-0.0295042
-0.038972
-0.0378364
-0.0413388
-0.0284523
-0.0284754
-0.0303364
-0.0311518
-0.0359027
-0.041994
-0.0418787
-0.0286634
-0.0294478
-0.030715
-0.0281002
-0.0124213
-0.0108566
-0.0129339
-0.0102792
-0.0133794
-0.0106026
-0.0132456
-0.0179722
-0.0141029
-0.0187847
-0.0145931
-0.0181916
-0.0145949
-0.0190534
-0.0247318
-0.0209551
-0.0276305
-0.0191782
-0.0210422
-0.0204723
-0.0241191
-0.0266923
-0.0294921
-0.0322599
-0.0214036
-0.0226783
-0.0251017
-0.0275327
-0.027964
-0.0326652
-0.0345522
-0.0233373
-0.0261431
-0.0283186
-0.0309922
-0.0351155
-0.0358119
-0.0409601
-0.0272861
-0.0306729
-0.0320027
-0.0344213
-0.0423378
-0.0429922
-0.04828
-0.0315645
-0.032267
-0.034733