/*--------------------------------*- C++ -*----------------------------------*\
  =========                 |
  \\      /  F ield         | OpenFOAM: The Open Source CFD Toolbox
   \\    /   O peration     | Website:  https://openfoam.org
    \\  /    A nd           | Version:  10
     \\/     M anipulation  |
\*---------------------------------------------------------------------------*/
FoamFile
{
    format      ascii;
    class       volVectorField;
    location    "4";
    object      U;
}
// * * * * * * * * * * * * * * * * * * * * * * * * * * * * * * * * * * * * * //

dimensions      [0 1 -1 0 0 0 0];

internalField   nonuniform List<vector> 
12920
(
(-147.417 -76.588 -68.494)
(-170.628 -36.1187 -13.5436)
(38.2651 -50.2123 -2.09918)
(-35.3824 -28.2105 1.20151)
(74.713 -31.5542 1.15987)
(49.1395 -22.0235 -0.00642026)
(95.4874 -20.6801 0.211304)
(94.2545 -18.1082 -0.74556)
(115.01 -16.478 0.237393)
(116.556 -15.3254 1.02327)
(122.858 -14.1813 1.62733)
(122.773 -13.2767 1.66228)
(124.776 -11.267 1.62429)
(123.331 -8.99255 1.42551)
(121.339 -6.60845 1.0616)
(117.316 -4.9168 0.36064)
(115.803 -0.782648 0.065292)
(109.212 4.73526 0.368272)
(97.5613 6.60359 1.04784)
(84.947 1.05077 0.989004)
(-94.9006 -74.8769 -25.8048)
(-147.528 -110.699 -9.35124)
(61.1228 -41.1449 -0.335494)
(10.1058 -23.0999 -1.19159)
(88.5002 -10.6582 -1.48691)
(60.6696 -11.5659 -1.47261)
(90.5262 -5.55529 -0.566909)
(77.0606 -6.44927 -1.01747)
(86.6927 -2.28841 -0.404092)
(78.7505 -2.52443 -0.858925)
(80.0019 -0.755864 -0.838376)
(74.4214 -0.520425 -1.3885)
(74.6473 0.918677 -1.5782)
(72.1895 2.48591 -1.66565)
(72.7761 5.17609 -1.72315)
(72.2077 6.72323 -1.87061)
(73.4293 6.99422 -1.60273)
(75.0974 7.04298 -0.974135)
(75.2693 5.75792 0.0405937)
(73.053 1.59822 0.181038)
(113.495 -138.02 -42.0669)
(42.1077 -112.922 -18.2616)
(101.762 -91.8703 5.23556)
(2.91416 -50.4432 -0.652506)
(75.3754 -38.5878 0.742444)
(26.9385 -27.5166 -2.34799)
(69.135 -20.5126 -0.912812)
(53.5699 -15.4253 -1.54477)
(72.4817 -9.81425 -0.794062)
(68.345 -5.33917 -1.27522)
(76.0697 -2.30756 -1.06687)
(75.3715 0.64392 -1.33214)
(78.9938 2.1091 -1.2716)
(79.3308 4.23821 -1.41389)
(82.1321 5.38795 -1.31083)
(83.7929 6.59103 -1.01558)
(84.9856 6.67751 -0.357125)
(83.9301 7.08798 0.232558)
(79.1093 5.50661 1.20412)
(72.0409 0.751306 0.849473)
(169.656 -46.4517 -193.733)
(53.6774 -83.5077 -45.3344)
(137.346 -26.1314 -0.83067)
(42.9233 -8.95226 4.36844)
(79.7339 -3.21465 5.67764)
(35.4774 -12.8573 0.777721)
(68.4358 -10.3843 1.17449)
(53.303 -10.717 0.161261)
(70.073 -5.77779 0.335683)
(66.7363 -2.54547 -0.0930471)
(74.8845 0.602972 -0.0109358)
(75.3609 3.58635 -0.59898)
(79.7297 5.28021 -0.653108)
(81.7561 6.96699 -0.957739)
(85.7551 7.947 -0.931563)
(87.5275 8.60354 -0.312272)
(87.503 8.96616 0.296013)
(83.4204 10.042 0.950389)
(77.0812 9.00865 1.28487)
(69.6544 2.57454 0.350689)
(99.282 -91.1496 44.6813)
(-148.772 -4.57192 -21.6185)
(76.1413 -18.8436 12.1627)
(-102.542 -32.6732 3.47062)
(64.6963 -35.8423 3.04496)
(-11.491 -30.0538 3.53168)
(54.5654 -36.85 3.10846)
(33.7035 -24.2662 1.81708)
(59.4089 -21.5294 1.66915)
(55.3556 -11.366 0.727578)
(67.1863 -8.40551 0.575057)
(68.2529 -1.4769 -0.148642)
(74.8392 0.12744 -0.227589)
(76.4512 3.22297 -0.344162)
(80.3436 4.39326 -0.197298)
(80.4054 6.05368 0.0623157)
(79.7878 8.75209 0.705154)
(76.5254 10.7601 0.691862)
(74.8747 10.0045 0.685772)
(71.2632 4.52567 0.381655)
(103.318 -29.2573 -108.555)
(-24.7184 -46.5513 -11.7331)
(97.9644 -77.0527 1.45349)
(19.3098 -50.7136 3.30892)
(85.0943 -76.193 4.97117)
(36.6063 -44.2432 2.5298)
(70.9689 -53.943 2.50062)
(51.6226 -34.5111 2.18252)
(62.5619 -28.9587 1.67317)
(54.668 -17.639 1.04318)
(59.5653 -11.4523 0.541101)
(57.7695 -4.49727 0.414547)
(62.1429 -0.983976 -0.0372248)
(62.8146 2.91205 -0.187431)
(65.0145 5.49125 -0.2938)
(65.0303 8.22085 -0.277565)
(65.4841 9.60533 0.0325649)
(65.5995 9.9685 0.286557)
(64.4521 7.92069 0.838796)
(60.801 2.22158 0.743999)
(84.5081 169.528 -236.662)
(-71.6231 0.897765 11.4893)
(113.24 -52.1557 0.955894)
(69.5999 -57.1462 1.44804)
(116.923 -66.5066 6.1527)
(65.0615 -45.6299 2.67282)
(75.1086 -62.8698 2.15229)
(50.0396 -33.2643 0.999671)
(59.6399 -33.1959 0.909564)
(49.9668 -15.739 0.816759)
(54.537 -13.8602 0.50771)
(50.3352 -5.85987 0.559533)
(53.788 -4.24652 0.34908)
(52.8868 1.1537 0.0657213)
(55.6572 3.76162 -0.288613)
(55.8661 6.98716 -0.243642)
(57.6231 8.27316 -0.0370391)
(58.2428 8.80828 0.274902)
(58.425 7.39433 0.621042)
(58.8284 2.24824 0.285372)
(99.9082 -185.699 105.774)
(5.64698 -138.4 14.1214)
(131.752 -130.438 -3.80821)
(121.426 -88.021 -6.64845)
(163.011 -73.8217 0.61044)
(126.801 -35.519 1.8368)
(127.596 -37.9296 -0.620178)
(82.1269 -39.3179 -0.221697)
(74.0801 -28.58 0.194608)
(63.2877 -24.1168 0.546745)
(63.9354 -10.6325 0.590072)
(60.9567 -8.67469 0.693627)
(61.6316 -2.39519 0.974538)
(58.1224 0.426148 0.492923)
(53.5394 3.79871 0.0608613)
(54.4478 6.8031 -0.0186388)
(55.1241 7.7033 0.184265)
(56.7393 6.29974 0.550001)
(59.1203 1.72209 0.776386)
(61.7162 -1.42782 0.481467)
(299.541 -118.505 110.843)
(78.4192 -110.131 -20.0567)
(138.491 -78.5996 -19.1297)
(58.3104 -62.2131 -3.73541)
(86.5191 -50.5728 3.72407)
(38.9054 -33.2511 -0.0234922)
(62.1136 -14.5054 0.772505)
(61.0666 -20.7714 -0.720803)
(77.5874 -21.2758 -0.2931)
(77.2282 -17.7203 -0.143904)
(77.676 -11.2176 0.0360837)
(75.7768 -10.2451 0.0296521)
(75.4696 -8.96843 0.649264)
(70.764 -0.136867 0.449125)
(59.2853 9.04658 0.257855)
(54.6444 5.83197 0.273714)
(55.9355 5.2414 0.414865)
(57.5754 0.826113 0.391062)
(59.5703 -3.6541 0.300365)
(61.3203 -4.42805 0.236701)
(188.19 -37.48 -72.0845)
(101.925 -38.792 -16.1364)
(158.23 -49.3378 5.28835)
(85.5851 -59.9181 1.90972)
(108.122 -57.2479 5.79647)
(72.8013 -39.6017 -1.36203)
(83.3652 -37.5644 -0.0416345)
(79.7483 -28.6326 -0.175145)
(80.6579 -19.9568 0.0137812)
(85.3812 -16.6599 0.107646)
(84.4528 -13.224 0.239237)
(82.1747 -11.3698 0.497762)
(72.3818 -5.70617 -0.0497219)
(66.2324 7.75109 -0.283585)
(59.1578 9.9369 -0.11956)
(59.6188 5.17287 0.140878)
(60.6733 3.47416 -0.0173975)
(62.6883 -0.588918 -0.299159)
(63.4214 -5.81061 -0.186432)
(63.4919 -6.15532 -0.108293)
(215.389 -182.208 41.4922)
(130.097 -99.5198 -13.7803)
(174.808 -3.69852 -10.3244)
(93.7042 -22.629 -0.292413)
(110.881 -26.2949 7.48855)
(54.5694 -45.4527 0.956936)
(71.1438 -47.2958 0.0815918)
(90.3921 -43.078 -0.0966584)
(103.657 -33.6678 0.151213)
(108.844 -22.5122 0.279952)
(107.413 -20.2136 0.286852)
(111.264 -11.5207 0.351854)
(99.7297 0.675714 2.20594)
(65.8431 13.483 0.486462)
(65.2254 7.76747 -0.241209)
(63.9978 4.45179 -0.330442)
(65.2804 3.61182 -0.45694)
(65.7742 -0.846468 -0.431098)
(64.6888 -5.57856 -0.0266283)
(61.3803 -5.62604 -0.0617054)
(420.905 -77.1267 -518.183)
(-136.425 -48.4266 1.38424)
(145.75 -7.80231 -20.4662)
(38.4239 -28.9477 4.42465)
(109.441 -31.7455 3.36035)
(84.2653 -51.1624 -0.625849)
(99.4692 -61.5781 -0.714112)
(103.625 -49.4706 -0.795473)
(104.203 -33.9966 -0.592192)
(107.108 -26.091 -0.419996)
(104.485 -18.0935 0.227779)
(93.5622 -8.15492 -1.01588)
(93.649 6.49046 -0.592387)
(88.5844 21.3388 0.459153)
(77.5293 10.9901 0.240791)
(65.4449 8.32344 -0.560277)
(66.5672 5.45003 -0.732725)
(67.044 1.39922 -0.792798)
(65.6373 -3.43917 -0.105609)
(59.0506 -3.90347 0.0188277)
(10.8549 -251.429 -7.10551)
(-184.069 -60.4087 -38.8717)
(125.785 -39.9336 -23.134)
(25.6857 -50.6903 2.04723)
(105.514 -48.593 1.11381)
(69.0061 -73.9735 0.971663)
(92.1954 -52.832 -1.4432)
(78.4125 -40.6596 -1.73062)
(91.6327 -27.5388 -1.4814)
(84.018 -15.2378 0.126239)
(77.6104 -4.74418 0.154513)
(71.5176 4.27746 -0.336047)
(75.9688 12.2026 -0.466706)
(77.6032 18.1428 0.00383756)
(69.7306 16.5566 0.27103)
(68.8316 12.9316 -0.379489)
(71.2563 7.60497 -0.994612)
(72.8548 3.27059 -0.927323)
(72.1008 0.279919 -0.0629808)
(63.8384 -0.841488 0.0319108)
(-26.5576 -55.2919 192.933)
(-167.325 -8.64619 -56.5044)
(179.711 -22.0614 -24.505)
(51.0359 -47.9835 3.01717)
(119.843 -52.3669 1.33815)
(74.6769 -64.2135 0.277455)
(94.5028 -33.2675 0.683893)
(77.1169 -40.8781 0.26888)
(82.6923 -12.7684 1.19289)
(69.1322 -10.3775 1.14725)
(69.2207 4.34377 1.02784)
(63.2008 4.62931 0.788857)
(65.937 11.3774 0.8329)
(66.0832 11.627 0.902075)
(70.8608 13.8622 0.537684)
(72.7166 10.4832 -0.103046)
(77.6408 7.83996 -0.598999)
(78.2363 4.21479 -0.607105)
(78.7183 2.691 -0.185632)
(73.7259 2.38423 -0.0504464)
(-34.4831 -86.0438 75.7561)
(-114.911 -81.5414 -31.3045)
(120.694 -63.5937 -6.04205)
(21.3446 -57.5546 -0.0376116)
(102.598 -57.0843 1.86501)
(50.8047 -64.0694 -0.0149817)
(85.8781 -44.8525 0.314949)
(66.8865 -37.3898 -1.33001)
(80.3142 -15.2015 -0.77161)
(70.083 -6.73767 -0.462771)
(74.0845 3.24371 0.327254)
(70.745 3.5402 0.388215)
(73.3076 6.67774 0.585385)
(73.6411 6.25397 0.444754)
(76.9175 7.70307 0.529994)
(77.8096 6.85478 0.0954503)
(80.1439 6.24667 -0.0918398)
(79.8474 4.38609 -0.261166)
(78.9868 2.93721 0.0317203)
(72.6106 2.56025 -0.00545518)
(267.791 -210.262 29.0659)
(31.64 -73.1033 10.1571)
(178.419 -71.1705 -4.19242)
(84.3252 -60.9325 1.27901)
(125.658 -59.273 1.65768)
(72.805 -60.5095 0.646077)
(89.7494 -38.9409 1.43464)
(63.2706 -32.4158 -0.796821)
(77.7184 -8.49056 -0.480795)
(67.3562 -5.04092 -0.203525)
(75.016 3.81973 0.567779)
(69.7732 2.51071 0.284766)
(73.1842 5.65935 0.352332)
(71.4113 5.04881 -0.0109161)
(73.6133 6.98594 -0.0413819)
(73.1293 6.60269 -0.235401)
(74.2178 6.95913 -0.177225)
(73.0059 5.7401 -0.0841987)
(70.7256 6.90667 0.378387)
(62.6066 7.04241 0.275021)
(140.982 -129.843 37.9307)
(62.5218 -8.65285 -5.04883)
(140.464 -36.9586 -7.49216)
(58.3932 -33.8919 -3.36955)
(107.55 -38.01 2.42015)
(51.4125 -47.3072 0.594853)
(76.5149 -35.4944 4.10803)
(44.1535 -29.8635 0.92009)
(65.7543 -13.1131 0.75583)
(54.8399 -7.90225 0.0950454)
(65.5558 -0.0235059 0.581607)
(59.9501 0.968225 0.262536)
(63.8594 4.34516 0.197066)
(61.0314 4.79231 -0.157733)
(62.7899 6.72942 -0.278519)
(61.5519 6.84001 -0.366705)
(61.8527 7.73336 -0.17995)
(59.961 7.07949 0.0262637)
(56.7266 8.75108 0.307999)
(52.7094 7.76077 0.0746037)
(98.5195 112.151 -20.8711)
(-88.6099 -1.5281 -20.6319)
(124.894 -17.635 -27.8375)
(15.8942 -41.1552 -6.40292)
(101.087 -45.3805 -4.47567)
(50.85 -43.3937 -3.41267)
(76.8736 -37.3296 3.22098)
(39.4366 -31.0116 1.48471)
(61.0575 -17.3607 1.58293)
(46.2117 -10.3922 -0.034918)
(59.121 -1.45591 0.302663)
(52.5833 1.05799 -0.246475)
(58.4606 5.3153 -0.108441)
(55.5634 6.40907 -0.336596)
(58.4009 8.50644 -0.230902)
(57.275 8.80456 -0.266661)
(58.1072 9.96779 -0.10071)
(57.1227 9.70818 -0.0864742)
(55.2827 10.6638 0.137869)
(53.3922 9.45966 -0.0388471)
(272.853 84.1959 103.256)
(-28.017 36.7157 6.31258)
(154.258 14.5233 -26.3307)
(42.0503 -4.31101 -16.2838)
(121.401 -26.8947 -20.6667)
(91.6763 -23.2479 -17.2153)
(118.278 -34.5395 -1.23414)
(73.528 -32.0613 4.06291)
(73.9817 -24.4611 5.79468)
(49.5519 -12.1968 1.93464)
(57.315 -4.50365 0.808065)
(49.2718 0.0956434 -0.0691652)
(55.4631 3.67584 -0.0660055)
(53.1693 5.56379 -0.212636)
(56.9516 7.05021 -0.0482828)
(56.7206 8.0109 -0.0630648)
(58.6658 9.25574 0.173917)
(58.4769 9.53934 0.251957)
(57.4862 10.2185 0.302862)
(56.5347 8.62084 0.114648)
(-18.8672 69.822 82.2428)
(-105.004 83.4825 -21.805)
(144.703 42.9058 -23.1446)
(143.579 48.9494 -9.08718)
(214.861 37.1354 -8.02818)
(240.355 28.5483 -4.2264)
(245.422 -2.62319 9.83806)
(174.49 -18.8564 11.0213)
(126.976 -18.3589 9.94185)
(76.6771 -9.04042 4.35957)
(73.0815 -2.59612 2.12232)
(58.2764 0.689573 1.37292)
(61.2689 3.30579 1.18501)
(57.9878 4.9834 1.13231)
(61.5005 5.96494 1.2751)
(61.6942 7.0037 1.4536)
(64.7093 8.30548 1.69845)
(67.3681 8.8277 1.82238)
(68.3137 10.0439 1.88102)
(72.2574 9.3556 1.7339)
(-117.062 -112.679 100.661)
(-159.837 -64.2572 -28.7189)
(45.2513 -51.6937 -15.8697)
(-32.8148 -22.5918 -6.04441)
(69.632 -26.1879 -7.59824)
(37.1257 -18.6211 -3.36362)
(81.7284 -18.2216 -0.524257)
(75.8984 -15.7611 -1.14627)
(94.4691 -13.8434 1.04178)
(95.8645 -11.3787 1.70215)
(104.869 -9.42369 2.69985)
(106.004 -7.49655 2.65304)
(109.067 -5.05472 2.63928)
(108.067 -4.16684 2.39761)
(107.076 -1.81947 2.07594)
(102.421 0.480125 0.998461)
(97.9153 3.16867 0.989189)
(89.0146 5.23893 1.83952)
(81.4583 3.24371 2.93829)
(75.7241 -0.644754 2.38847)
(41.7179 -177.518 -47.0719)
(-138.222 -107.51 -51.2496)
(61.1415 -30.7234 -25.9977)
(3.01148 -15.508 -7.63444)
(76.3893 -3.95736 -6.32013)
(42.6078 -8.38249 -3.90699)
(72.6592 -4.23285 -1.05117)
(56.03 -6.74909 -1.91647)
(67.4366 -2.92886 -0.657286)
(59.9027 -2.91207 -1.81971)
(63.8398 -0.600074 -1.66273)
(59.8942 0.386938 -2.69056)
(60.9248 2.03799 -2.7234)
(58.5861 3.37399 -2.99844)
(58.8201 5.272 -2.99711)
(57.4156 5.77693 -3.06974)
(57.6986 5.56617 -2.24325)
(57.6202 4.39341 -1.03209)
(57.5631 1.51945 0.477439)
(57.0784 -0.73006 0.0929459)
(177.954 -248.59 112.034)
(-34.7358 -115.383 -23.7932)
(76.0576 -69.7944 16.0671)
(-23.4397 -35.2878 -6.86119)
(63.8031 -29.4104 -0.512531)
(9.96422 -24.5871 -3.80499)
(54.5972 -19.6768 -0.441234)
(34.87 -16.1731 -2.23329)
(54.6147 -11.3153 -0.709333)
(48.2564 -7.06802 -1.87592)
(56.2739 -4.07981 -1.39415)
(54.1408 -1.08454 -1.93563)
(57.4045 0.773358 -1.64363)
(56.5356 2.75305 -1.84325)
(58.4062 3.9304 -1.47126)
(58.1798 4.74667 -1.06156)
(59.0083 4.48323 -0.19698)
(58.4863 4.00481 0.560848)
(56.8429 1.67752 1.57451)
(54.6879 -0.254991 0.865793)
(171.588 1.89874 -124.869)
(-22.4726 -56.3746 -20.9711)
(65.2164 -22.2212 6.63489)
(-14.54 -15.2377 0.965345)
(61.0789 -10.1837 4.19195)
(15.1282 -17.7897 -0.249812)
(54.4874 -15.0305 1.59115)
(35.7287 -14.6544 -0.123624)
(53.5697 -9.79035 0.476575)
(47.4072 -6.46187 -0.417699)
(55.2547 -3.03819 -0.217257)
(53.943 -0.422077 -0.964433)
(57.2898 1.44583 -0.980938)
(57.2679 3.11464 -1.19805)
(58.9593 4.25979 -0.960833)
(58.7749 5.21893 -0.3218)
(58.8634 5.48772 0.806604)
(57.2934 5.77043 1.42506)
(55.1901 3.99315 1.63628)
(52.2675 0.858799 0.414702)
(124.681 -160.197 -145.211)
(-246.556 -55.9359 -10.1666)
(63.2052 -37.5566 3.16251)
(-108.092 -36.8431 6.33878)
(54.0602 -34.1801 2.76159)
(-25.4066 -27.717 5.58562)
(45.2318 -33.7018 3.98332)
(19.5503 -20.5624 2.25569)
(46.3262 -19.5612 2.19841)
(38.5241 -10.2318 0.566876)
(49.2964 -8.10653 0.613158)
(47.7358 -2.99679 -0.38154)
(52.5632 -1.50363 -0.339712)
(52.2956 1.34729 -0.491241)
(54.5945 2.62644 -0.220853)
(53.9102 4.76699 0.173986)
(54.4102 6.10807 0.908681)
(54.1047 6.74428 0.940432)
(53.8548 5.13098 1.15129)
(52.2662 1.3211 0.50933)
(175.905 -150.677 39.4196)
(-45.1157 -52.9533 -1.50422)
(85.1612 -73.1359 -1.41234)
(-19.4776 -41.0922 4.28309)
(70.1811 -62.8841 6.34205)
(12.6267 -30.0802 3.57028)
(55.3626 -42.3457 3.84176)
(34.6361 -24.1553 3.04462)
(48.2149 -21.6108 2.26237)
(40.0108 -12.1282 1.21489)
(44.5546 -8.88733 0.697796)
(42.2782 -4.17493 0.340757)
(44.8795 -1.84728 -0.186592)
(44.4006 1.32495 -0.359427)
(45.5291 3.19061 -0.418546)
(45.3908 5.22434 -0.304344)
(46.3163 6.07088 0.159457)
(47.25 5.6369 0.59381)
(47.5908 3.43926 1.38107)
(47.2389 0.983293 0.935714)
(-1.26077 49.1965 37.4139)
(-91.5464 -15.1005 -16.2868)
(81.3355 -41.4134 -13.797)
(2.49816 -38.0784 -1.60222)
(77.4809 -52.5317 7.2301)
(23.4846 -29.2196 3.20438)
(49.4244 -52.9976 3.03166)
(26.0819 -18.5155 1.75333)
(41.2421 -24.4637 1.25354)
(32.297 -8.29046 1.02408)
(39.272 -9.96777 0.63364)
(36.0335 -3.26925 0.722466)
(39.9412 -3.25521 0.366619)
(38.9444 0.907703 0.028147)
(40.8299 1.87577 -0.28308)
(41.0059 3.90025 -0.164862)
(42.7209 4.50426 0.161819)
(44.4048 4.36975 0.559769)
(45.6243 2.68416 0.902413)
(46.2713 0.549918 0.339468)
(37.7572 -64.7248 137.899)
(-8.41303 -100.985 2.3818)
(102.622 -94.2164 -9.70952)
(60.6476 -59.8806 -10.5975)
(104.684 -55.2622 1.17908)
(71.2989 -18.9134 0.70813)
(88.4113 -28.7286 3.61675)
(54.8485 -30.0053 2.96192)
(52.1911 -18.8133 -0.0574857)
(42.6944 -15.5253 0.0397602)
(45.7457 -6.79252 0.379752)
(43.1823 -5.26329 1.04255)
(45.2153 -0.706938 1.24401)
(43.2516 1.27233 0.629702)
(40.594 1.04868 -0.344255)
(42.2372 2.70053 -0.0342631)
(43.5406 2.87637 0.321999)
(46.3422 1.73856 0.776831)
(48.188 -0.0853841 0.976302)
(49.4579 -0.86454 0.54789)
(346.717 -113.251 -13.0433)
(171.284 -42.4672 6.34541)
(130.407 -44.1027 -2.59012)
(27.8029 -48.1064 -0.45858)
(68.565 -43.0725 6.90933)
(37.0579 -26.3746 0.155013)
(59.8791 -16.3021 0.461512)
(55.6326 -18.3514 -0.496447)
(60.7385 -16.0425 -0.607035)
(57.3485 -13.6082 -0.901778)
(56.8517 -8.769 -0.315559)
(54.737 -7.48629 0.304458)
(53.8084 -1.99251 1.07881)
(49.9961 2.88275 0.828257)
(46.5781 5.49146 0.048118)
(44.9 1.07044 0.121326)
(46.9266 0.84455 0.493984)
(48.5863 -0.845845 0.46576)
(49.7209 -1.92887 0.38458)
(50.2818 -1.78088 0.322049)
(135.212 25.5171 -45.6907)
(-9.53497 -19.8073 2.20756)
(99.1568 -24.6458 -7.1722)
(32.6514 -42.4394 -4.98127)
(78.1502 -44.2804 3.45028)
(64.7126 -36.1972 1.67401)
(73.5915 -32.0547 1.38926)
(71.9594 -25.5101 2.59181)
(71.4972 -17.8846 1.54851)
(70.7868 -13.5927 1.22811)
(68.6256 -9.72513 1.07836)
(64.3078 -6.63324 2.0001)
(57.0726 -0.232501 0.957162)
(51.8127 5.12451 -0.0305912)
(50.7692 4.10264 -0.305976)
(50.2986 1.27743 -0.361232)
(51.0719 -0.151157 -0.245367)
(51.5865 -1.7341 -0.422517)
(51.5889 -3.67335 -0.149873)
(51.1733 -2.95034 -0.0596822)
(306.834 10.092 63.0673)
(122.903 -40.5287 45.0986)
(139.791 -13.0095 5.70916)
(39.5936 -33.1725 3.30454)
(81.9034 -31.7468 7.22756)
(52.163 -38.4876 1.70849)
(65.534 -38.7838 2.26031)
(78.0379 -34.0299 1.04256)
(84.8782 -22.2485 0.634171)
(86.1453 -13.3244 1.20233)
(86.5619 -8.89969 2.41496)
(84.042 -0.710379 1.5277)
(69.8624 8.91064 6.771)
(60.542 8.72408 1.30925)
(58.3753 3.26477 -0.389433)
(53.6188 1.8871 -0.9218)
(53.774 0.284006 -0.749118)
(52.3145 -2.09135 -0.509158)
(51.1175 -3.7475 0.0226956)
(49.03 -3.12928 -0.0604922)
(120.912 105.178 -105.317)
(-21.9284 -54.35 36.9517)
(117.999 -19.1377 -20.753)
(33.8454 -24.6529 4.53251)
(93.6362 -27.6077 2.83436)
(75.7832 -42.6232 0.848826)
(89.5062 -50.5672 -0.0595858)
(84.1341 -38.0275 -1.18442)
(80.1036 -23.451 -1.61736)
(79.8247 -14.2704 -1.14302)
(78.3843 -7.54823 -0.518738)
(74.7878 3.44088 -2.69876)
(71.6951 14.8507 -0.182488)
(71.4573 16.028 1.05342)
(62.4293 6.30583 0.66351)
(53.6896 4.61444 -1.30726)
(54.1343 1.5791 -1.10427)
(51.6611 -0.420286 -0.815024)
(49.7837 -2.54772 0.13789)
(45.9185 -2.25816 0.0913355)
(255.341 -143.813 -90.535)
(17.8401 -83.752 -39.8892)
(112.036 -41.7659 -31.3403)
(25.8361 -38.6064 0.655226)
(94.6006 -33.5099 0.0513685)
(53.7235 -57.314 1.00877)
(76.7273 -35.2651 0.139905)
(58.033 -24.7009 -1.24813)
(66.135 -15.3519 -1.17383)
(55.6042 -7.30867 0.0983468)
(58.8421 -0.355497 -0.447349)
(56.4104 6.02332 -1.08852)
(60.3486 11.1893 -0.553791)
(60.2865 13.161 0.712756)
(56.5278 9.82199 -0.166397)
(56.3682 6.25313 -0.918065)
(56.316 3.03861 -1.38199)
(54.4079 0.723941 -0.85237)
(52.6104 -0.447056 0.291514)
(46.9504 -0.744502 0.16612)
(420.092 -1.42518 -64.1031)
(37.7166 -8.52378 -8.69098)
(158.287 -7.24099 -43.3217)
(35.8818 -31.2985 1.87712)
(105.022 -29.1423 -0.570609)
(54.8078 -39.6577 -0.421591)
(74.7114 -5.64373 0.579616)
(51.4182 -22.9277 0.250871)
(59.0061 0.826887 1.42149)
(47.2333 -5.26755 1.3898)
(52.0097 5.90589 1.45534)
(48.6771 3.61189 1.07993)
(53.4145 9.05246 1.25205)
(53.8652 7.87044 1.15478)
(58.0979 8.75744 0.531685)
(57.8531 5.9645 -0.33551)
(59.1113 3.94488 -0.781377)
(57.6064 2.10705 -0.649372)
(56.6531 1.91178 0.0774425)
(51.8234 1.80024 0.104451)
(81.472 -170.357 -22.5426)
(-94.6798 -34.3461 -26.2275)
(113.415 -28.0074 -9.1942)
(-7.99803 -32.0748 -1.12785)
(84.9941 -31.1361 1.7644)
(23.2186 -38.9868 -0.99568)
(67.4081 -18.0842 0.845035)
(43.28 -17.3851 -1.63795)
(57.0151 -1.55922 -0.224811)
(47.4522 -2.26366 -0.379996)
(53.7259 4.06031 0.74445)
(51.4883 2.97961 0.61401)
(55.6473 6.11209 0.977511)
(55.7985 5.58936 0.658279)
(58.7332 6.33499 0.656482)
(58.4819 5.28338 0.0849204)
(59.2724 4.11662 -0.12842)
(57.5214 2.45119 -0.241691)
(56.0244 2.62804 0.342431)
(50.6746 2.54837 0.144336)
(238.643 -200.592 -131.657)
(39.9462 -94.3119 -15.1526)
(163.246 -48.5225 -17.9211)
(48.1846 -32.6505 3.39039)
(103.475 -31.8507 1.64856)
(42.3236 -35.1701 0.22879)
(71.7271 -14.1107 1.22736)
(43.0381 -17.451 -1.68575)
(59.8447 -0.421611 -0.12916)
(46.8557 -3.90037 -0.258003)
(56.1842 3.38291 1.03314)
(50.3928 1.11501 0.264154)
(54.909 4.99675 0.557958)
(52.7465 4.3217 -0.0563824)
(54.9189 6.24129 0.0384137)
(53.5836 5.38757 -0.201196)
(53.9477 5.69687 -0.0327175)
(52.0035 4.7346 0.0315204)
(49.9481 6.07311 0.680895)
(45.6363 5.6302 0.289978)
(122.025 -93.0313 25.6512)
(-22.1507 -0.576229 -25.7673)
(118.426 -11.1571 -13.9108)
(-8.34055 -1.23432 -3.25895)
(85.035 -12.412 5.01326)
(9.95729 -20.9924 -0.0214831)
(59.8831 -10.5642 4.95848)
(26.7103 -13.2701 0.176793)
(53.2142 -2.58055 1.29694)
(39.4635 -3.0879 0.0303335)
(51.0016 2.44068 0.952651)
(44.2306 1.83372 0.197587)
(48.8215 4.78782 0.272008)
(45.5793 4.56727 -0.27164)
(47.5231 6.01661 -0.245813)
(45.718 5.56025 -0.353792)
(46.0906 6.1404 -0.0674365)
(44.6449 5.60681 0.0357652)
(43.4057 6.77447 0.316895)
(41.3718 5.72425 -0.0300775)
(219.838 64.055 41.6138)
(-17.2066 12.6896 -6.54537)
(92.7097 -5.81581 -32.7057)
(-38.8345 -19.6276 -3.8766)
(78.9357 -29.8193 -7.72959)
(-4.5535 -19.46 -3.8022)
(55.4296 -16.1401 4.12737)
(17.8451 -16.0104 1.21831)
(49.2054 -7.12895 2.17184)
(32.6543 -5.25284 -0.112148)
(46.7764 1.29114 0.650605)
(38.5203 1.89736 -0.442161)
(44.9421 5.19308 -0.0544565)
(41.3676 5.23788 -0.528968)
(44.5681 6.64169 -0.23724)
(43.2016 6.39316 -0.361607)
(44.5282 7.3129 -0.109893)
(44.0955 6.96324 -0.227036)
(43.5785 7.83347 -0.0111287)
(42.9929 6.62204 -0.219785)
(187.085 226.943 32.4124)
(-58.6042 37.9229 14.1542)
(125.137 22.2616 -25.524)
(3.21025 1.12833 -17.0789)
(86.9297 -25.5482 -24.6562)
(8.14445 -11.1096 -18.2116)
(59.65 -22.9502 1.90501)
(22.8782 -16.2223 4.7638)
(51.4399 -12.6342 7.90581)
(34.0958 -5.63526 2.40653)
(46.8856 -1.16725 1.50431)
(38.7013 1.30904 -0.0636551)
(45.41 3.5183 0.0568777)
(42.4006 4.30579 -0.322729)
(46.1331 5.20221 -0.0434509)
(45.6498 5.48434 -0.179438)
(47.6848 6.28123 0.122005)
(48.1906 6.2604 0.0804487)
(48.2554 6.84559 -0.00190178)
(48.5668 5.20201 -0.258139)
(237.844 167.314 -85.5162)
(-1.04198 26.4023 -10.2128)
(134.295 6.17506 -37.0657)
(79.2066 12.6808 -14.4494)
(123.492 -10.1815 -17.1532)
(84.8337 -11.7927 -13.9553)
(111.298 -19.6577 7.61394)
(72.7994 -15.9501 11.4)
(75.9731 -10.9555 14.3434)
(53.3704 -4.71123 6.44201)
(58.7611 -0.718125 4.16501)
(49.3572 1.56202 2.4919)
(54.9749 3.37872 2.52907)
(52.7162 4.35116 2.41809)
(57.0087 4.98989 2.79221)
(57.7594 5.45697 2.98657)
(61.1459 6.88741 3.37978)
(64.6387 7.11872 3.56912)
(66.0966 8.02941 3.59008)
(71.3965 7.10028 3.30165)
(154.114 -365.664 87.456)
(-92.7656 -122.208 -16.0343)
(91.2569 -82.7429 -16.8674)
(10.2015 -29.9978 -3.38952)
(74.8121 -22.9958 -4.72899)
(33.4056 -15.288 -2.37318)
(72.8576 -15.1549 0.687831)
(62.529 -12.4889 -0.594473)
(80.385 -9.67462 1.69508)
(80.1209 -6.3062 1.36942)
(88.7972 -3.65817 2.4842)
(89.3624 -1.37512 2.36675)
(92.0456 0.139455 2.38708)
(91.0514 0.724682 2.30304)
(89.8557 2.83681 1.9809)
(83.8486 4.66424 1.38622)
(77.13 5.17765 2.20383)
(70.6644 3.98795 2.74299)
(67.3365 1.2525 3.72132)
(66.4283 -0.335924 3.1924)
(186.5 -133.005 -32.0723)
(7.8009 -103.107 -10.8445)
(81.4334 -33.1598 -24.5994)
(12.8407 -13.7651 -7.56052)
(68.8254 1.19747 -6.30656)
(27.7992 -5.99482 -3.74788)
(58.2843 -2.45714 -0.456444)
(38.7624 -5.90095 -1.82046)
(52.5592 -2.08801 -0.800833)
(44.6904 -2.14125 -2.19272)
(50.5965 0.251915 -2.17066)
(46.6914 1.10557 -3.25059)
(48.457 2.4823 -3.13014)
(45.6227 3.5201 -3.53052)
(45.5814 4.71309 -3.37231)
(43.4739 4.7688 -3.15609)
(43.3233 3.96044 -1.84517)
(43.2482 2.28279 -0.784861)
(43.4561 0.232766 0.0943943)
(43.8645 -0.625656 -0.378524)
(323.267 -329.944 -79.1441)
(-45.9306 -140.573 -23.8589)
(92.0962 -50.2636 21.5015)
(-38.0501 -27.8932 -4.2615)
(54.9116 -23.8564 0.949282)
(-5.78443 -22.1845 -3.23246)
(42.2787 -18.0369 0.228545)
(18.9648 -15.1845 -2.08542)
(40.6563 -10.8468 -0.479601)
(32.1668 -6.86727 -1.78131)
(41.093 -4.3106 -1.31095)
(37.5879 -1.40533 -1.97137)
(40.9424 0.0978915 -1.63433)
(38.9148 1.84141 -1.83553)
(40.444 2.66034 -1.40412)
(39.3737 3.14649 -1.09793)
(40.1012 2.62793 -0.12719)
(40.0364 1.85214 0.331142)
(39.755 0.290203 1.03582)
(39.689 -0.256169 0.372682)
(31.8825 -175.689 -57.5821)
(-61.7623 -28.6922 -44.9513)
(51.9473 -26.8024 -5.59362)
(-26.5113 -15.9253 -0.939678)
(50.6628 -12.0873 3.03542)
(0.532626 -17.674 -0.0241604)
(43.0476 -15.1426 1.62908)
(21.0023 -14.3988 -0.164586)
(40.3145 -10.1166 0.457729)
(31.764 -7.06293 -0.505702)
(40.0053 -4.08336 -0.299426)
(37.0536 -1.79652 -0.988722)
(40.0832 -0.199721 -0.986742)
(38.6698 1.32479 -1.15649)
(39.6442 2.29373 -0.909081)
(38.4746 3.08985 -0.351809)
(38.6905 3.18222 0.578683)
(38.6271 3.01317 1.05294)
(38.4368 1.6217 1.15476)
(37.9101 0.326718 0.149626)
(-7.56916 -64.9928 9.86123)
(-168.604 -54.1801 -46.1374)
(38.997 -43.0998 -3.00996)
(-102.672 -35.1407 3.93124)
(40.9364 -30.1605 1.18905)
(-37.8704 -24.7008 5.81928)
(35.203 -30.1791 3.59339)
(5.9649 -17.0901 1.88124)
(34.2377 -17.7798 1.85118)
(23.7831 -8.8437 0.294373)
(34.9353 -8.05248 0.457806)
(31.5308 -3.23338 -0.447494)
(36.1317 -2.40513 -0.389275)
(34.6366 0.477308 -0.609411)
(36.5285 1.38278 -0.241857)
(35.6293 3.27368 0.0695745)
(36.68 3.84323 0.702101)
(37.2994 3.85889 0.696747)
(37.7439 2.03551 0.945159)
(37.4899 0.297299 0.206168)
(57.7178 -114.356 85.4259)
(-47.3398 -58.3072 -16.6283)
(67.6105 -70.0615 -8.80784)
(-40.0952 -35.4593 3.79903)
(58.2942 -52.7617 4.41977)
(-6.07746 -21.5136 3.72883)
(43.4585 -35.6704 3.24898)
(19.8457 -17.7308 2.80713)
(35.783 -17.9445 1.82654)
(26.5214 -9.46646 1.08362)
(31.8457 -8.16635 0.598665)
(29.0088 -4.05757 0.1212)
(31.3916 -2.6968 -0.203947)
(30.4432 0.106153 -0.396963)
(31.3568 1.35869 -0.438181)
(31.2015 2.90405 -0.248531)
(32.2097 3.34474 0.184412)
(33.4801 2.82094 0.505729)
(34.268 1.49756 1.08566)
(34.945 0.523367 0.459249)
(91.4436 51.145 -75.8397)
(-24.2998 -27.1007 -23.1155)
(68.6462 -32.6915 -10.5583)
(-25.3709 -29.4989 -1.22518)
(58.7203 -42.9653 6.17427)
(-0.895042 -18.996 2.79321)
(33.8876 -46.5222 2.30184)
(9.64419 -9.64497 1.47415)
(28.1611 -20.6827 0.952605)
(18.8421 -5.0173 0.787189)
(27.3306 -9.14248 0.481186)
(24.0114 -2.62494 0.608288)
(28.3943 -3.74175 0.237582)
(27.2057 0.0159287 -0.0496777)
(29.1391 0.153138 -0.276281)
(29.2698 1.80176 -0.191809)
(31.0675 2.00353 0.196971)
(32.7294 2.03337 0.416916)
(33.8998 0.996413 0.597535)
(34.5822 0.181541 0.0465302)
(40.9374 -79.6533 165.664)
(-29.7116 -106.433 -30.5585)
(89.6235 -89.0054 -6.59046)
(27.8438 -55.0018 -9.59779)
(77.6766 -47.6223 2.33545)
(40.8211 -9.43977 0.623436)
(60.421 -25.3568 3.29564)
(32.4307 -20.9057 3.09772)
(36.0126 -14.9702 0.388838)
(28.0622 -10.9958 0.264673)
(32.3108 -5.93131 0.379827)
(29.9614 -3.89838 1.15933)
(32.6663 -1.04344 0.888713)
(31.4587 0.720583 0.44653)
(29.8332 -1.11093 -0.179043)
(31.5823 0.345153 0.0105206)
(32.6947 0.526892 0.236039)
(35.0581 0.309426 0.534336)
(36.2903 -0.373168 0.690527)
(37.0336 -0.444254 0.198121)
(273.043 -30.2065 128.534)
(82.0124 -39.0418 8.8549)
(102.212 -46.3283 7.88772)
(3.71018 -44.6178 0.858682)
(55.2417 -37.4041 6.44065)
(26.5323 -17.9194 -0.454314)
(47.4701 -12.1427 1.42539)
(42.0102 -15.6312 0.525979)
(45.8636 -13.0397 -0.367929)
(41.4827 -11.2288 -0.696749)
(41.0579 -7.2375 0.157249)
(38.6475 -4.98543 0.889868)
(38.4767 -0.72894 1.20161)
(37.0057 1.26793 0.744088)
(36.3669 2.50278 0.112578)
(34.4279 -1.09411 0.368493)
(36.2201 -0.582272 0.520543)
(37.3533 -0.740373 0.441746)
(38.036 -0.823042 0.273892)
(38.1611 -0.599647 0.0846418)
(203.41 86.8862 36.8165)
(69.0179 -2.61666 -11.2177)
(109.45 -19.4413 -6.2709)
(25.7776 -35.008 -1.66816)
(64.7558 -36.571 4.64677)
(46.257 -27.3799 1.16417)
(55.964 -22.5737 2.48034)
(56.497 -19.0959 2.9886)
(56.388 -13.7678 1.84916)
(54.3462 -10.5526 1.06309)
(51.4065 -7.38526 0.920119)
(47.026 -3.65732 2.18305)
(43.7003 0.186108 1.12009)
(41.9236 1.53207 -0.0217151)
(41.382 0.627885 -0.135468)
(38.6342 -0.305638 -0.0782858)
(38.8837 -1.03687 0.0152791)
(39.0809 -1.34752 -0.221175)
(38.8308 -2.00103 -0.136106)
(38.4959 -1.22178 -0.137398)
(143.886 39.8916 134.857)
(40.9938 -26.3048 55.327)
(115.316 -4.35931 21.0653)
(21.1383 -27.9863 6.68407)
(65.4304 -26.0154 6.86308)
(35.6236 -32.0117 1.25691)
(51.6754 -29.1793 2.5083)
(61.7112 -22.3779 1.12036)
(64.8908 -13.0511 0.928943)
(64.6943 -7.0828 2.99418)
(67.9833 -4.01195 0.740109)
(63.3649 4.08218 2.62417)
(54.9157 7.54466 4.73414)
(50.6249 3.86321 0.64468)
(46.3502 0.539033 -0.183727)
(40.5205 -0.128021 -0.390705)
(40.114 -0.954981 -0.310477)
(38.935 -1.96155 -0.281016)
(38.1183 -2.45293 0.00356364)
(36.8118 -1.71578 -0.170037)
(88.9087 100.586 -98.244)
(-12.3619 -19.5455 21.7377)
(101.259 1.58749 -6.48586)
(17.9273 -13.4328 4.43235)
(78.2009 -20.3446 3.10742)
(57.6765 -36.3137 0.827114)
(69.9905 -40.6145 0.538431)
(63.5485 -24.861 -1.04037)
(59.9212 -13.5509 -1.82232)
(58.356 -5.8138 -1.40809)
(57.8926 0.126543 -1.84874)
(55.4212 7.65467 -2.01583)
(54.8465 12.3867 0.671581)
(54.4324 8.63196 1.39679)
(48.2365 2.82177 0.629027)
(40.8597 1.81752 -0.677695)
(40.4891 -0.325907 -0.620107)
(37.7893 -1.0489 -0.612319)
(36.3116 -1.81838 0.0805191)
(34.073 -1.24662 -0.100308)
(251.136 -131.495 93.0142)
(2.48435 -87.2302 -18.9395)
(108.611 -46.7745 -18.1701)
(20.2728 -32.0631 0.164745)
(82.4189 -26.0934 0.437376)
(35.8895 -48.6824 0.632726)
(59.9757 -22.1615 0.626916)
(38.6624 -15.056 -1.46546)
(47.1517 -7.63265 -1.23525)
(38.5437 -3.05485 -0.465161)
(44.6078 1.92588 -0.923531)
(42.7611 5.50503 -0.999085)
(46.5079 8.08594 -0.0810041)
(46.1464 8.08757 1.01703)
(43.5965 5.39855 0.108258)
(43.249 2.63671 -0.6522)
(41.8082 0.866064 -0.974348)
(39.1756 -0.277568 -0.667777)
(37.3343 -0.572769 0.147409)
(33.8951 -0.475121 -0.0512915)
(263.496 -146.443 -77.9332)
(155.116 -44.021 14.1357)
(154.657 -4.83264 -18.9955)
(34.0977 -22.1681 3.85603)
(93.2441 -16.1964 0.318491)
(37.0036 -26.7313 -0.0108313)