/*--------------------------------*- C++ -*----------------------------------*\
  =========                 |
  \\      /  F ield         | OpenFOAM: The Open Source CFD Toolbox
   \\    /   O peration     | Website:  https://openfoam.org
    \\  /    A nd           | Version:  10
     \\/     M anipulation  |
\*---------------------------------------------------------------------------*/
FoamFile
{
    format      ascii;
    class       volScalarField;
    location    "9.7";
    object      k;
}
// * * * * * * * * * * * * * * * * * * * * * * * * * * * * * * * * * * * * * //

dimensions      [0 2 -2 0 0 0 0];

internalField   nonuniform List<scalar> 
12920
(
582.058
1260.42
1504.54
1415.95
792.326
444.003
355.144
301.472
241.395
195.925
164.043
144.253
131.811
123.319
117.36
110.961
104.685
95.5203
91.9731
83.9938
965.185
3643.01
3362.48
2839.95
1822.76
794.429
439.595
333.067
270.703
240.637
217.736
208.665
200.681
198.229
195.878
193.334
189.36
183.955
180.501
170.364
3221.5
3896.26
2532.29
1129.21
698.904
537.371
397.384
334.859
272.53
249.386
226.467
216.742
205.273
198.579
191.162
184.029
178.885
170.918
166.438
155.019
1746.79
2242.65
1452.96
976.688
659.936
498.852
338.909
259.085
211.741
195.117
179.392
171.487
161.671
155.591
148.884
143.927
140.663
135.059
132.092
124.635
2890.15
2166.58
1954.52
1322.58
840.835
489.119
353.324
254.03
208.911
188.875
169.964
159.054
145.753
138.718
131.744
127.992
125.62
122.339
120.501
115.465
4941.28
3148.72
2994.5
2901.86
2568.79
1785.77
923.091
478.367
302.774
211.193
170.199
150.276
136.128
126.998
121.408
119.297
118.341
117.09
115.786
110.892
4473.42
2392.22
2051.1
1973.99
1772.96
1334.61
893.299
605.238
378.113
235.656
178.773
150.854
136.268
123.939
115.278
109.462
106.215
104.649
103.282
98.3139
1115.53
2593.84
2257.86
1909.92
1561.78
1308.63
912.39
659.062
324.695
131.804
122.969
116.219
106.842
94.9603
143.471
122.164
109.074
100.881
95.0758
85.7647
394.307
1042.26
1498.78
1786.64
1767.27
1382.01
787.996
365.286
249.247
93.3066
81.7189
88.0009
87.6769
81.0095
121.119
143.753
117.088
102.58
96.6214
82.9318
556.342
1276.65
1201.89
1341.25
1171.09
784.481
370.225
194.406
114.76
95.6669
93.6318
86.5609
80.0896
79.3042
124.74
167.143
129.964
102.537
93.666
82.7157
4229.73
2921.45
1287.32
967.915
739.011
363.657
183.886
156.793
151.213
130.96
119.567
112.628
102.574
61.7174
105.824
197.376
145.929
107.12
92.897
80.1603
3305.95
2524.89
2036.5
1535.36
1206.68
656.909
339.958
158.842
108.307
120.226
131.323
127.564
120.233
98.4423
148.023
181.702
123.61
96.5405
89.043
80.6867
1476.53
2712.43
2385.99
1535.53
1052.87
725.642
417.242
227.714
174.492
172.093
172.1
156.121
142.008
131.839
161.25
121.322
99.2438
89.1877
84.4284
82.5988
7419.49
4670.56
2078.57
1346.91
775.144
478.251
354.703
307.5
281.923
254.698
222.41
188.08
158.338
136.1
121.076
111.11
104.103
96.6872
89.4697
83.9538
1288.25
1770.83
1777.38
1607.63
953.446
627.489
462.381
402.357
322.098
277.375
230.168
195.454
163.887
143.351
131.017
126.505
124.83
120.622
110.621
92.4919
1785.76
1143.46
1325.43
1336.72
972.694
804.027
621.292
492.426
370.827
306.576
256.176
226.116
192.948
171.2
153.885
144.72
138.058
132.238
122.945
101.119
10448.9
2928.58
1617.36
1349.75
982.664
770.836
566.586
423.607
318.788
259.365
221.022
201.711
181.301
167.962
154.914
146.239
137.781
127.691
118.533
102.381
14928.2
2990.85
1791.69
1619.42
1156.78
751.852
480.252
338.425
261.767
225.467
195.566
178.712
161.71
151.583
142.043
134.393
126.603
118.946
114.241
104.167
576.373
1279.68
1294.41
1320.59
1014.36
590.897
377.276
299.08
248.477
223.98
194.811
172.149
150.365
135.73
125.856
120.746
116.981
112.797
110.216
103.316
360.973
932.715
936.703
732.027
490.954
366.841
299.255
260.881
230.795
201.462
168.022
141.06
123.339
107.721
90.7813
74.581
65.0878
58.0009
55.5378
50.4985
705.93
1549.19
1524.14
1349.94
794.871
662.199
653.311
636.259
521.795
393.193
317.464
282.975
261.666
250.966
245.33
238.959
231.012
214.802
208.729
194.855
10640.9
10308.4
7110.16
4828.1
2206.14
1503.64
981.275
800.657
649.024
610.127
567.768
554.007
537.436
533.095
526.677
521.223
514.903
508.592
504.707
493.123
7999.3
8710.91
3857.5
2649.85
1558.35
1272.85
930.47
818.852
699.045
657.002
602.994
576.86
548.527
529.587
512.775
497.224
486.962
474.035
466.111
445.877
9050.43
5700.82
3910.05
2312.9
1492.21
1104.17
712.507
633.773
551.574
539.232
501.848
477.795
450.101
432.337
415.576
403.078
393.983
382.433
375.52
360.313
6131.59
6254.74
5074.68
3348.39
1780.92
1045.99
663.18
585.672
520.615
508.751
465.665
439.708
405.247
388.103
372.851
365.108
360.21
353.417
348.283
336.161
8057.46
7031.58
6672.31
6284.22
4651.2
2619.57
1289.43
800.405
579.036
513.761
442.293
397.306
362.378
343.249
332.963
330.562
330.898
330.974
329.943
321.683
14583.8
6747.88
5438.84
4837.79
3517.27
2769.26
1818.61
1148.68
761.667
537.006
436.3
377.851
341.665
316.057
302.526
294.548
293.117
293.81
293.426
286.384
8180.2
6954.2
5236.12
4783.85
3735.18
3129.47
2487.45
1731.46
939.889
568.588
452.057
397.705
357.857
316.601
307.539
284.973
274.941
268.223
262.936
250.058
4050.05
3830.78
3875.31
4095.26
3690.06
3269.69
2653.91
1768.88
1021.15
526.002
470.487
449.268
412.6
363.65
314.118
288.52
270.193
262.367
255.023
233.865
18207.3
6759.7
3400.85
3290.02
2534.77
2221.18
1871.53
1278.99
773.38
582.407
513.016
460.326
409.155
367.044
323.504
320.621
276.226
259.072
253.524
239.913
16100.7
9197.14
3708.88
2289.8
1664.68
1335.9
1062.97
944.571
830.48
686.116
587.524
506.601
419.759
307.419
349.477
395.655
305.056
260.347
247.396
232.636
11361.7
7247.43
5020.03
3296.16
2466.62
1990.56
1547.92
1074.01
807.945
738.306
695.322
636.47
556.912
450.792
443.965
360.567
273.534
243.805
235.742
231.855
4993.5
6884.26
5181.38
3198.27
2038.28
1414.21
1099.78
940.111
784.65
720.486
639.195
554.062
483.061
424.985
341.151
283.507
253.465
240.774
236.765
237.93
6408.29
4517.2
3468.63
3037.08
1824
1224.04
933.024
825.742
754.251
669.938
573.899
483.908
407.073
351.167
316.603
293.908
278.085
264.142
252.292
243.133
1893.29
3335.04
3922.06
3601.58
2230.87
1567.18
1197.32
1032.96
835.414
719.826
593.679
505.874
428.381
383.481
357.502
344.399
335.878
321.109
300.155
265.197
10566.9
5149.96
3633.94
3258.26
2322.04
2031.65
1552.03
1256.76
941.129
787.376
655.535
578.786
500.789
455.157
418.767
398.231
378.61
362.846
340.795
294.616
12823.8
6143.81
4447.26
3317.72
2404.31
1938.38
1390.16
1085.4
814.915
682.349
582.509
530.046
479.432
448.654
420.899
401.798
381.646
361.622
340.098
305.939
20438.8
7086.59
4532.88
3581.08
2142.52
1528.35
967.105
815.28
661.879
595.155
521.09
483.049
440.872
416.37
392.6
376.501
360.52
348.516
339.013
317.642
2967.58
4542
3178.77
2739.01
1597.57
1194.25
855.291
772.755
644.882
609.638
535.38
489.996
431.2
392.513
362.263
348.291
340.841
335.317
331.384
319.173
2577.92
2259.26
2083.22
1181.62
694.172
632.782
561.275
529.544
477.031
438.159
388.514
345.606
299.645
251.471
204.89
165.102
140.624
127.469
124.639
121.723
1414.48
2189.89
1599.29
1236.58
921.552
891.052
857.058
789.478
623.436
504.222
423.234
379.84
348.338
321.443
305.603
286.478
273.789
255.238
246.292
225.367
8468.59
6740.91
4806.35
3961.66
2246.13
1890.3
1275.72
1101.47
916.389
870.298
804.905
786.465
765.749
760.359
742.439
722.815
704.569
694.349
688.206
672.068
23462.3
7010.61
4250.06
2837.89
1998.34
1551.08
1245.1
1095.51
962.208
905.178
832.883
799.122
759.571
734.463
708.878
686.578
668.081
650.314
637.147
613.582
27120.5
9431.21
5037.85
2775.1
1989.18
1392.37
1100.4
981.793
859.017
802.911
725.688
683.718
640.89
612.768
586.954
567.575
551.556
536.63
525.514
511.561
15082.8
9373.57
6402.59
3813.89
2131
1357.52
1061.02
962.312
837.827
766.975
673.846
623.381
573.778
547.884
525.574
512.749
501.544
491.912
483.192
472.713
7022
8300.61
7925.45
6537.18
3901.41
2257.59
1378.16
1113.77
885.231
759.911
629.865
557.602
509.166
485.21
470.904
464.633
461.123
458.089
453.86
446.368
13495.1
9677.56
7550.43
5885.15
3997.51
2874.52
1884.41
1404.41
1013.7
753.307
603.005
517.49
466.867
438.422
423.696
416.062
413.427
412.604
409.387
402.808
15112.9
10258.1
6580.99
5387.48
3991
3409.71
2885.38
2137.8
1236.45
807.368
623.718
529.564
467.847
415.766
398.032
384.732
379.537
374.438
367.955
357.631
8163.58
6560.05
5490.6
4892.84
3722.75
3339.16
3031.55
2245.13
1201.39
804.083
674.508
601.392
527.491
453.953
386.418
367.965
365.17
361.211
351.514
330.642
19484.4
10921.5
5257.6
4031.75
2785.61
2430.23
1952.66
1392.68
1106.15
854.083
737.203
640.839
544.874
462.572
393.803
385.405
365.742
357.981
350.9
330.959
16684.9
10046.9
4782.77
2986.54
2252.24
1833.14
1548.86
1368.57
1165.44
983.658
644.523
517.684
437.964
411.478
479.931
448.65
380.82
353.4
344.501
329.137
9296.2
8848.32
5892.64
3785.14
2745.83
2311.95
1918.34
1498.57
1262.23
1078.41
952.3
833.377
703.369
597.474
557.215
416.403
360.194
344.519
341.585
340.929
9027.79
9068.18
6093.08
3627.05
2421.84
1833.72
1531.53
1370.05
1191.17
1035.55
866.943
733.361
621.641
534.549
422.106
374.065
352.431
346.684
347.516
355.184
7175.9
5117
5060.07
3995.79
2473.16
1791.04
1472.26
1280.9
1115.61
938.614
777.067
645.801
540.844
471.735
426.122
398.498
379.305
366.428
357.521
354.566
4597.77
6028.32
5724.81
4573.99
2837
2037.6
1638.49
1386.08
1139.04
962.669
794.973
677.909
581.09
524.96
485.539
461.509
440.838
417.811
395.182
369.382
17928.8
9665.5
5961.77
4316.12
3068.58
2605.06
1976.33
1589.69
1226.94
1021.9
853.179
747.371
654.504
598.692
551.967
522.273
494.294
470.383
443.392
407.984
8536.69
9126.14
6174.42
4241.07
3114.23
2517.73
1868.4
1462.97
1113.21
926.281
791.799
713.957
646.466
603.989
565.459
537.693
510.904
487.49
465.213
439.001
20615.2
7392.33
5532.37
3767.59
2523.94
1972.25
1464.6
1204.32
954.148
830.166
724.519
670.002
616.05
584.983
554.164
533.53
513.597
497.976
483.994
464.239
9112.44
7300.46
4808.26
3295.02
2132.82
1690.23
1269.48
1102.76
900.236
827.751
723.965
668.501
598.747
558.902
526.407
510.463
497.977
488.108
481.882
467.214
2481.67
3450.49
2461.69
1430.69
972.647
825.761
699.84
619.493
542.613
483.503
425.553
371.228
314.424
259.905
217.843
188.437
173.465
161.902
158.046
150.475
2604.39
3147.51
1794.19
1510.35
1177.37
1048.4
904.747
777.672
639.847
540.201
470.705
420.529
386.699
354.783
327.456
297.932
277.818
249.156
235.583
207.862
3953.41
6784.05
4498.92
3349.84
2586.43
2023.28
1534.76
1395.14
1216.39
1187.5
1111.32
1091.47
1059.25
1046.78
1021.03
992.586
962.333
937.651
920.759
890.83
18213.9
7886.53
4993.05
2995.76
2450.04
1721.86
1571.16
1354.88
1260.02
1187.7
1119.53
1078.1
1032.35
994.802
960.276
924.925
897.205
870.183
848.487
824.775
29821.7
10076.6
5872.98
3153.49
2526.88
1645.58
1520.84
1295.22
1179.73
1079
987.319
923.152
869.742
826.399
792.678
763.707
742.314
723.937
710.36
700.966
22867.5
11962.8
7636.89
3936.33
2623.83
1651.08
1515.04
1301.26
1165.33
1031.88
917.003
838.352
779.618
742.259
714.452
694.378
678.464
665.233
654.15
647.817
9178.43
10838.5
9945.45
6379.99
3680.96
2091.74
1679.67
1433.44
1201.61
997.142
838.933
744.586
689.876
659.846
642.015
631.302
624.843
619.404
613.488
609.898
6304.29
10423.5
9330.28
6133.89
4068.3
2645.34
1962.98
1548.24
1221.61
942.585
784.133
679.201
624.963
595
580.621
571.661
567.595
564.768
559.495
556.335
5610.62
8694.02
7643.99
5203.03
3891
3102.88
2630.89
1882
1371.76
989.075
781.698
658.501
582.999
528.123
527.17
520.651
517.743
512.786
505.631
498.875
6076.93
7978.62
7366.37
5107.52
3506.06
2999.06
2674.18
1848.26
1342.11
1016.15
839.127
722.399
615.364
529.751
475.173
493.914
494.488
489.179
475.61
459.277
18120.2
8693.7
6363.8
4241.49
2971.24
2446.19
2004.81
1633.75
1342.49
1087.81
933.132
781.43
633.509
525.54
475.099
501.812
496.111
487.664
473.953
449.617
11121.4
9353.31
6098.98
3505.61
2652.56
2158.49
1901.65
1683.11
1438.41
1235.81
959.21
707.912
555.696
542.133
583.386
536.336
499.341
483.594
474.146
456.674
22699.3
10216.1
6649.48
4067.05
3001.08
2490.53
2170.58
1828.61
1583.08
1346.54
1157.69
980.663
820.273
718.272
623.648
511.298
488.634
486.784
487.631
487.962
16944.3
10890.8
6498.15
3822.29
2869.58
2220.05
1980.31
1741.13
1508.34
1281.46
1058.97
888.53
742.173
626.838
526.543
497.592
490.119
491.943
500.561
513.308
8913.36
6705.28
6577.33
4383.55
2991.58
2200.84
1936.88
1644.3
1430.84
1164.77
973.008
806.092
690.042
610.473
560.778
531.61
513.119
503.599
499.978
502.274
8726.55
7746.7
7280.32
4991.18
3215.91
2330.55
2021.1
1677.84
1430.15
1186.79
1001.81
857.526
752.926
686.635
638.054
603.087
573.683
548.19
526.08
509.76
8941.8
9580.25
7311.89
4691.11
3619.95
2861.3
2316.35
1831.63
1499.98
1243.67
1071.46
935.403
839.303
769.289
717.515
677.005
642.354
613.265
584.337
559.313
11861.4
10503.5
6978.47
4524.67
3669.65
2813.31
2256.4
1723.64
1389.89
1158.88
1021.79
918.445
846.096
790.229
746.607
709.234
678.002
652.096
628.648
610.148
32153.3
8399.97
6022.57
3796.19
3077.23
2318.66
1915.71
1504.65
1241.04
1069.79
958.937
887.658
830.803
791.428
757.716
730.209
706.457
686.106
667.767
651.828
22522.3
8544.61
5285.19
3273.74
2597.33
2033.06
1637.64
1381.94
1150.13
1030.23
911.82
848.991
785.403
754.753
726.916
709.385
692.908
677.913
667.162
650.92
3712.79
3233.82
2200.3
1413.07
1103.76
892.136
737.245
610.16
509.394
421.645
359.484
304.309
264.242
231.962
211.496
195.559
186.8
175.859
171.142
160.92
2494.76
3507.9
1934.71
1422.72
1177.85
965.234
812.088
685.297
582.661
499.486
437.91
388.054
341.713
294.162
255.706
226.073
207.622
192.061
184.786
171.187
21020.3
8035.11
5009.85
3572.36
3224.43
2022.89
2064.01
1678.5
1729.71
1581.54
1580.06
1474.57
1438.46
1366.06
1351.68
1310.05
1283.39
1235.72
1208.89
1169.7
39678.9
12251.6
6046.91
3913.03
3054.58
1992.68
1998.27
1577.27
1640.8
1444.54
1464.41
1357.37
1339.29
1258.85
1231.72
1170.6
1145.08
1105.48
1088.54
1067.49
26764.2
13811.1
6838.21
4380.45
3187.38
2003.75
2017.81
1551.27
1570.44
1338.08
1306.83
1171.44
1140.3
1060.86
1034.93
988.659
971.341
947.972
940.965
936.581
12085.3
13959.9
9336.99
4673.11
3380.11
2067.43
2033.86
1577.72
1547.64
1275
1221.94
1071.32
1043.17
976.076
958.849
922.374
910.23
888.68
882.792
878.933
7023.9
13255.4
12574.3
5963.51
3945.28
2196.01
2172.01
1696.75
1581.38
1225.7
1112.67
972.711
937.086
890.558
874.927
855.521
849.806
839.859
837.076
835.449
6230.96
11866.8
11238.8
6039.6
4380.79
2584.18
2209.33
1738.78
1482.16
1144.69
1035.35
897.178
868.009
827.127
817.687
797.618
795.087
784.81
782.011
779.178
5470.84
9599.63
8817.86
5146.45
4197.95
3007.95
2537.22
1965.3
1579.91
1206.68
1028.9
884.54
823.613
773.769
760.359
745.784
736.52
726.23
720.346
715.404
20334.3
10507.5
8777.11
5052.08
3646.6
2975.29
2657.78
1971.86
1595.2
1305.2
1113.95
970.275
857.264
783.003
755.59
724.742
711.935
690.688
679.806
667.854
20890.3
10824.9
7530.09
5002.97
3354.17
2650.11
2321.01
1977.54
1676.58
1411.41
1204.4
1003.66
882.292
803.23
767.946
733.648
714.748
688.598
670.812
649.442
23471.4
9778.27
6771.41
4449.08
3174.13
2513.75
2231.04
2014.38
1789.82
1540.1
1309.67
1020.19
881.762
879.505
841.447
743.15
714.152
691.819
680.306
661.265
31795.4
11592.3
7323.26
4857.98
3414.03
2757.48
2482.83
2176.79
1917.82
1650.94
1424.21
1222.19
1101.37
991.731
843.369
726.723
718.005
714.226
716.549
710.514
29470.3
11086.1
7042.63
4561.09
3470.12
2818.61
2380.43
2057.39
1808.67
1525.04
1313.69
1115.74
965.326
830.152
735.947
718.509
717.44
725.663
739.631
748.117
8040.44
8817.49
7777.55
4816.77
3595.23
2667.66
2435.43
1980.88
1743.7
1361.77
1198.25
987.24
898.862
808.227
772.418
736.394
726.369
719.604
721.533
728.252
13712.6
8038.07
8878.76
5081.16
3691.93
2748.55
2398.47
1955.36
1716.07
1382.45
1228.01
1051.53
970.237
891.792
845.908
801.296
770.919
746.679
730.372
724.407
23447.4
10804
8297.24
5015.09
4191.05
3089.6
2632.74
2019.49
1770.25
1434.73
1314.24
1131.78
1067.63
972.686
936.397
878.518
848.761
813.689
790.333
778.229
15772.1
13413.2
8167.79
5141.97
4281.05
3070.42
2600.7
1900.07
1661.82
1365.68
1274.98
1132.61
1084.73
1005.91
974.746
922.214
896.796
867.439
849.638
841.105
26504
11718.7
6624.7
4757.89
3708.26
2722.26
2346.23
1732.03
1550.44
1292.49
1232.36
1120.79
1090.11
1028.19
1008.26
965.148
948.403
919.666
903.993
894.43
15024
9079.08
5638.54
3677.02
3280.09
2306.16
2066.49
1561.28
1435.34
1188.41
1143.59
1052.16
1035.88
997.566
987.988
957.364
945.526
919.639
908.655
892.131
2560.99
2471.04
1848.03
1342.31
1117.23
848.179
652.885
488.157
375.628
304.902
266.236
239.438
222.027
206.286
194.377
181.823
172.97
161.709
156.411
145.321
761.593
946.006
676.32
1026.13
914.861
1115.2
841.24
665.541
619.172
521.364
881.946
780.601
771.711
644.185
705.184
1065.75
971.033
1164.92
895.526
1265.86
1138.31
543.281
942.213
855.497
817.304
658.687
1096.85
971.124
465.076
749.558
378.392
2043.07
1682.55
2482.75
1855.15
287.76
284.633
151.447
1400.93
971.624
1510.54
796.447
107.074
129.08
92.5848
830.014
470.779
679.415
501.319
81.1307
89.1552
88.129
424.692
397.875
475.48
437.53
85.8513
88.0755
86.8711
397.431
394.033
429.683
408.084
88.107
86.197
84.3819
392.345
373.713
400.723
376.878
82.9648
84.2022
83.2957
366.88
337.597
369.357
344.542
62.2505
82.2188
68.6998
326.047
289.665
334.46
304.929
236.133
189.936
138.604
1691.96
1277.1
924.715
780.57
124.398
137.63
137.78
1109.39
708.746
763.466
715.148
96.5166
134.75
121.842
646.698
516.715
683.102
583.409
94.5604
116.941
107.534
493.199
450.432
557.004
499.697
88.8745
104.505
96.1707
439.851
408.547
481.347
426.335
80.8308
92.9605
81.6916
397.622
365.62
408.863
351.718
79.4645
75.6912
56.5651
356.97
333.85
329.034
266.808
68.2932
54.3892
45.5213
325.871
302.573
256.412
254.765
153.564
195.131
119.498
883.24
814.041
972.578
833.769
155.363
108.704
100.184
804.94
750.728
772.284
664.56
135.579
104.252
119.252
717.646
618.397
654.461
630.885
121.861
123.9
133.522
593.491
536.929
625.813
612.019
114.626
134.636
133.973
520.083
472.837
605.859
578.15
105.763
132.37
124.262
457.734
407.234
565.833
519.448
72.1748
122.998
107.892
384.209
287.697
501.465
413.568
41.2465
95.463
62.6894
264.586
254.447
382.204
350.467
189.099
443.013
251.644
1247.97
1000.07
1342.43
1148.5
107.532
210.506
137.902
871.405
657.451
1049.66
805.769
115.855
138.317
111.4
644.669
628.393
773.438
632.334
130.645
108.647
109.571
625.325
612.722
610.234
566.704
129.848
110.265
107.518
606.056
574.686
556.378
512.978
121.652
105.84
99.556
562.03
515.153
499.502
454.586
106.774
98.2628
93.4451
498.035
422.887
442.769
401.964
67.9562
92.4931
74.3746
398.412
367.057
393.866
370.258
2051.76
2698.85
2067.16
3062.63
2561.76
2490.44
1828.46
1256.41
1785.91
951.055
2287.55
1510.39
1650.72
1175.87
583.838
811.839
598.127
1187.32
814.08
1061.31
822.143
475.976
565.266
513.637
744.752
650.582
776.781
694.358
453.86
502.708
472.98
631.204
583.827
675.013
621.062
421.583
462.93
430.832
570.36
520.43
602.856
545.981
376.202
420.539
387.345
505.395
452.697
527.365
470.966
317.619
375.099
333.789
436.908
384.171
452.609
398.323
1439.4
1104.3
929.512
1963
1475.52
1455.04
1278.44
849.596
907.727
836.714
1362.22
1126.35
1245.35
1116.93
612.683
796.665
677.801
1040.34
836.957
1059.99
902.91
526.608
648.496
573.926
794.498
709.535
873.472
692.827
473.81
549.624
480.885
687.785
624.584
645.662
542.336
420.575
460.186
395.544
602.94
538.85
515.676
441.666
377.506
371.978
309.592
519.102
463.569
420.994
379.859
331.188
298.346
289.753
446.451
396.863
375.067
383.078
959.359
1213.77
1019.56
1445.88
1309.29
1646.3
1411.59
870.543
952.403
822.439
1277.86
1148.86
1338.88
1187.39
713.829
801.814
747.655
1093.57
942.656
1145.6
1025.13
610.813
734.972
703.56
914.271
723.174
994.171
913.418
525.31
692.849
653.557
674.909
575.403
889.012
814.417
445.43
638.122
580.767
547.6
470.062
788.667
699.029
328.004
557.83
462.572
446.649
393.872
665.752
569.133
292.165
433.374
400.639
389.119
400.53
548.128
527.909
1196.97
1631.34
1372.11
1854.57
1515.3
1850.41
1607.47
836.245
1272.46
999.974
1416.64
1217.18
1529.74
1282.44
750.579
928.061
749.629
1170.37
1038.92
1209.03
1029.55
706.52
724.356
662.881
1005.5
922.724
991.964
881.79
652.467
647.213
590.521
897.911
820.176
850.846
759.648
578.533
574.152
518.3
794.012
706.047
734.549
652.26
474.403
503.562
454.111
675.104
586.901
630.327
564.424
417.506
444.933
411.19
567.524
539.541
551.63
503.715
2529.67
2358.45
1701.96
2766.19
2147.55
2147.94
1667.13
1446.42
1553.42
1226.97
1890.08
1426.84
1594.23
1376.25
872.998
1120.34
882.777
1293.74
1031.41
1279.94
1053.3
698.085
835.273
744.948
960.859
827.872
1001.79
890.183
617.78
722.853
660.474
794.212
712.312
859.16
768.68
544.463
639.318
573.847
687.443
610.659
737.728
644.949
470.343
552.33
488.658
588.268
521.555
615.062
533.372
399.381
468.5
410.242
503.748
450.389
509.801
448.195
1482.73
1547.78
1373.04
1967.2
1623.44
1796.88
1622.73
1192.32
1335.38
1191.3
1564.52
1366.37
1571.05
1394.02
898.663
1131.12
967.609
1281.44
1074.76
1329.55
1163.47
896.417
818.532
874.078
911.341
838.647
873.806
933.582
760.426
713.557
742.418
785.223
713.61
758.662
792.135
567.649
498.227
436.289
744.802
640.66
595.814
503.535
481.606
420.706
395.742
608.515
525.525
486.813
467.892
408.529
394.886
407.216
502.963
446.962
468.628
480.234
1406.19
1754.14
1511.68
1819.93
1661.31
2021.11
1780.87
1224.03
1439.71
1283.19
1608.28
1430.87
1711.97
1537.12
1009.13
1236.61
1101.29
1367.74
1205.17
1479.11
1311.98
1006.74
895.713
1013.78
1040.04
954.663
857.727
1079.32
779.749
601.571
796.562
518.734
760.582
480.718
818.984
453.971
825.82
725.881
603.589
516.372
928.407
801.08
410.64
690.507
596.871
503.488
494.806
762.942
680.987
429.102
578.273
555.263
499.859
513.83
665.515
627.492
1589.49
1901.5
1651.71
2101.68
1819.81
2092.96
1830.93
1312.38
1570.76
1348.49
1744.62
1564.53
1750.96
1558.5
1116.82
1280.23
1105.35
1505.2
1329.04
1492.35
1312.05
981.484
1064.32
939.955
1279.22
1145.91
1260.41
1099.07
863.072
904.695
803.428
1104.55
981.279
1052.77
926.303
736.325
775.84
685.762
940.925
820.684
891.002
781.028
615.747
662.071
591.461
784.605
700.966
751.656
667.195
565.128
577.484
522.477
682.345
630.766
646.65
570.021
2070.31
2142.01
1722.44
2624.53
2074.87
2296.07
1956.98
1459.95
1654.44
1429.27
1915.13
1612.65
1877.19
1631.07
1086.7
1335.62
1114.4
1520.39
1290.88
1551.75
1348.43
875.678
1061.69
942.402
1220.14
1066.63
1290.38
1144.03
750.114
908.064
807.516
1027.11
924.095
1099.82
971.78
639.208
773.23
672.313
887.985
794.641
929.9
826.048
547.343
640.504
556.127
770.248
708.303
797.748
722.566
476.115
532.51
471.227
690.041
641.509
701.481
648.253
1693.69
1875.03
1700.89
2215.01
1948.7
2113.91
1945.24
1426
1645.67
1463.71
1875.88
1650.43
1887.95
1714.36
1137.93
1399.1
1231.08
1575.97
1374.99
1651.41
1468.83
969.245
1185.9
994.269
1317.82
1170.51
1411.77
1254.3
821.083
928.676
751.103
1124.22
980.658
1194.38
989.695
667.727
690.688
558.607
932.421
815.673
918.047
761.4
547.881
533.929
505.672
788.202
717.992
740.572
723.84
470.293
505.826
511.657
699.089
651.833
722.105
705.475
1739.68
2103.59
1866.52
2139.96
1976.77
2336
2121.05
1501.72
1798.37
1618.23
1921.05
1751.5
2056.05
1872.72
1272.54
1557.78
1382.99
1690.27
1509.01
1810.29
1617.89
1030.29
1333.6
1196.23
1454.97
1290.31
1558.93
1395.76
770.842
1151.14
1013.45
1227.2
1017.22
1342.72
1178.63
577.236
966.88
833.512
944.486
791.585
1125.55
1004.88
538.148
796.178
718.932
773.999
767.621
980.766
919.118
547.718
703.144
654.508
767.032
740.824
897.814
815.664
1901.57
2170.2
1906.15
2394.05
2154.38
2424.66
2133.1
1645.16
1824.87
1630.5
2084.73
1892.56
2046.84
1846.38
1399.67
1563.1
1379.23
1828.51
1631.24
1780.41
1591.47
1202.69
1324.42
1153.11
1569.47
1400.95
1526.73
1344.06
1024.17
1104.32
971.91
1348.73
1195.2
1293.11
1156.91
855.852
934.437
818.606
1147.46
1035.32
1112.01
989.568
738.181
787.629
698.252
1007.63
929.034
953.675
856.474
655.805
675.481
590.175
902.113
808.977
823.234
725.066
2122.05
2395.27
2059.59
2977.23
2526.19
2977.19
2601.73
1678.68
1972.9
1723.41
2379.49
2055.24
2494.82
2199.19
1375.8
1648.64
1445.75
1977.15
1748.17
2120.82
1866.26
1151.97
1385.28
1229.88
1691.29
1524.21
1790.84
1590.38
1008.93
1183.06
1048.05
1498.18
1373.51
1535.36
1381.96
879.692
1005.75
914.805
1342.07
1261.01
1349.66
1323.95
801.322
891.303
822.875
1254.45
1205.88
1315.21
1260.46
736.117
803.123
750.838
1194.13
1117.09
1246.57
1176.03
2056.11
2208.38
2042.43
2918.28
2601.62
2742.65
2549.29
1749.43
1985.56
1816.86
2504.65
2234.99
2487.89
2293.66
1472.19
1753.35
1560.61
2149.23
1885.58
2213.16
1962.46
1253.72
1499.52
1337.25
1807.26
1600.3
1879.64
1670.81
1052.79
1276.69
1064.63
1539.44
1363.15
1599.67
1355.56
901.847
992.246
854.604
1321.82
1305.97
1288.56
1267.47
821.057
846.262
840.728
1310.71
1265.88
1302.96
1307.32
755.433
836.225
805.001
1251.73
1176.33
1294.34
1210.82
2069.24
2424.24
2214.68
2776.16
2565.43
2944.86
2706.09
1851.82
2149.64
1966.45
2506.59
2321.05
2632.07
2414.41
1599.18
1903.39
1703.89
2243.75
1998.62
2338.96
2097.92
1372.87
1641.22
1471.49
1916.96
1709.41
2018.86
1817.01
1093.89
1416.95
1249.07
1636.84
1391.55
1754.5
1573.08
887.074
1196.77
1093.58
1323.92
1302.97
1525.19
1497.57
884.288
1077.15
1016.95
1339.09
1342.33
1498.14
1426.28
837.669
992.372
899.472
1326.3
1228.68
1394.75
1271.75
2248.1
2516.92
2217.12
3021.82
2742.23
3031.82
2736.47
1982.26
2127.34
1924.01
2656.79
2424.33
2599.39
2359.11
1716.07
1859.46
1669.16
2350.09
2111.56
2273.72
2085.18
1477.56
1600.37
1419.61
2029.67
1832.99
1965.55
1807.02
1269.14
1369.43
1235.35
1772.4
1613
1738.33
1634.24
1125.06
1187.6
1067.87
1569.43
1534.3
1551.07
1466.71
1021.51
1031.41
934.853
1514.33
1424.59
1408.39
1339.8
890.463
898.492
802.298
1389.11
1261.91
1277.29
1184.11
859.45
788.05
772.473
812.31
804.111
841.212
824.99
916.975
900.015
867.303
1002.35
858.578
963.077
844.085
854.997
758.612
759.315
568.602
804.655
804.003
669.418
954.801
968.042
985.118
1053.18
928.847
992.737
1013.73
917.029
863.101
948.734
937.094
894.433
880.432
975.281
979.644
1051.47
1087.22
1039.02
1024.85
887.356
1044.19
921.365
614.875
939.971
939.158
868.477
717.051
991.856
728.229
689.675
656.758
704.329
684.897
731.718
696.252
723.071
718.67
570.732
509.884
684.049
759.662
461.571
678.851
615.494
535.088
467.386
647.726
644.032
447.734
810.247
833.175
848.985
899.267
803.479
844.989
861.375
773.784
742.228
815.276
779.437
773.209
736.882
821.422
779.275
552.565
890.537
718.981
820.862
505.704
843.63
727.566
495.356
746.11
681.467
687.402
479.756
792.823
929.604
788.898
838.924
583.459
892.419
683.801
866.859
1069.97
1043.87
1032.8
1133.71
1006.26
1110.91
1096.97
1027.46
933.175
1001.28
1026.77
968.777
986.964
1061.3
1081.77
1096.21
1102.4
1210.78
932.424
1144.98
1160.84
1000.79
639.595
992.216
1024.89
747.836
931.65
1091.53
1135.59
1199.87
1242.28
1222.93
1176.79
1160.01
1200.33
1090.02
1082.28
1105.98
1180.46
1045.32
1120.78
1153.43
751.559
560.251
700.821
466.637
732.045
451.046
711.07
914.486
900.757
913.276
993.577
869.983
949.83
960.384
882.2
812.931
884.536
894.048
841.855
847.813
927.43
829.796
569.096
755.199
965.757
523.59
876.547
910.621
791.217
497.651
693.828
809.858
485.32
744.941
859.598
963.139
1044.81
1060.34
1055.17
1003.55
1007.31
1014.95
924.844
931.988
925.348
1013.48
884.726
969.947
970.494
753.918
926.254
760.07
1264.82
1163.74
1284.88
1209.33
509.452
664.165
544.079
965.698
730.492
1044.9
868.948
171.176
352.399
196.679
541.924
436.375
626.885
437.828
126.293
135.118
125.321
363.448
336.413
352.971
341.012
119.599
126.132
129.91
320.418
312.777
342.724
344.628
112.129
130.178
129.712
294.852
286.735
338.438
328.671
100.63
126.449
121.611
271.302
263.165
311.153
298.519
75.1169
113.866
96.0313
239.473
246.139
267.639
268.1
1122.53
1309.41
1116.95
2033.42
2007.68
2228.11
2406.46
1049.61
631.421
780.021
1027.51
923.199
1081.49
632.91
528.467
298.987
379.317
558.806
497.688
642.344
285.846
330.893
196.978
172.757
491.701
354.034
456.086
134.888
209.016
85.0557
85.1045
184.13
174.616
215.096
81.1952
220.058
83.2778
79.3061
195.16
202.878
214.702
80.4163
234.648
88.8524
86.4914
226.624
227.497
233.957
87.782
228.267
86.693
88.3964
226.719
223.517
231.073
87.9286
206.221
78.0967
83.1886
208.066
201.472
211.769
80.9225
92.8936
127.106
102.1
246.435
248.69
256.698
261.245
584.984
507.347
378.994
1500.56
1436.76
1073.97
945.091
458.425
295.119
246.219
782.317
805.854
539.16
167.786
345.438
159.879
125.93
461.437
429.348
332.697
121.91
313.13
106.51
113.91
327.989
299.168
331.419
109.857
271.35
95.6031
103.173
258.688
255.988
278.819
101.209
242.325
92.3368
94.5547
246.694
242.691
250.457
91.9703
206.337
84.1763
82.8794
226.957
220.39
216.351
79.0725
181.693
79.7667
70.9845
207.906
206.159
184.186
70.3075
180.801
79.0402
71.5323
200.714
198.484
180.649
72.332
100.212
109.427
100.513
254.072
264.425
238.81
270.387
318.463
365.71
308.246
817.464
811.627
799.445
808.693
410.244
154.747
173.594
386.815
416.097
373.305
154.416
438.606
157.708
155.882
442.121
443.698
439.18
155.929
397.988
146.297
149.384
415.649
398.307
412.583
145.221
353.659
127.421
134.108
348.98
337.702
360.82
132.14
337.8
117.699
130.161
311.948
304.766
341.375
129.748
313.954
110.544
126.705
282.595
274.416
322.533
123.899
274.398
96.6315
116.137
241.874
217.429
289.782
112.445
145.861
55.8092
75.9306
131.838
125.668
166.527
64.4413
97.667
123.841
115.541
246.941
290.101
299.346
345.458
543.891
751.195
645.982
1217.71
1183.41
1350.79
1304.73
545.662
268.157
375.551
547.022
537.098
557.741
300.459
301.378
131.377
179.785
323.854
274.421
358.545
145.621
313.895
109.999
116.031
294.142
305.113
309.052
115.448
336.946
124.799
118.006
339.306
347.72
334.93
120.418
339.926
131.343
123.994
355.748
354.83
340.748
124.119
319.972
125.407
121.84
340.946
333.754
327.494
119.701
291.604
118.536
113.685
313.535
305.375
299.463
111.855
242.709
90.8204
99.9107
249.246
231.813
254.601
95.1553
129.698
152.803
119.713
337.401
359.684
334.922
335.088
307.652
404.129
271.436
675.393
646.53
571.151
485.281
187.617
195.417
160.718
555.406
507.733
402.931
389.931
172.045
152.47
151.483
490.606
490.901
394.673
422.797
173.481
158.032
160.355
487.935
483.443
423.424
415.793
166.598
156.706
146.034
467.58
440.926
395.898
373.89
149.96
137.043
130.029
412.058