/*--------------------------------*- C++ -*----------------------------------*\
  =========                 |
  \\      /  F ield         | OpenFOAM: The Open Source CFD Toolbox
   \\    /   O peration     | Website:  https://openfoam.org
    \\  /    A nd           | Version:  10
     \\/     M anipulation  |
\*---------------------------------------------------------------------------*/
FoamFile
{
    format      ascii;
    class       volScalarField;
    location    "9.7";
    object      k_0;
}
// * * * * * * * * * * * * * * * * * * * * * * * * * * * * * * * * * * * * * //

dimensions      [0 2 -2 0 0 0 0];

internalField   nonuniform List<scalar> 
12920
(
585.323
1267.31
1515.74
1418.84
778.665
442.063
355.948
301.891
241.456
195.951
164.117
144.366
131.954
123.461
117.49
111.053
104.729
95.5674
92.0225
84.048
1148.99
3727.67
3390.16
2861.28
1811.33
783.516
437.765
333.142
271.014
240.937
218.017
208.937
200.932
198.464
196.078
193.477
189.446
184.022
180.553
170.381
3343.35
3952.49
2512.04
1122.52
697.589
538.012
398.075
335.31
272.953
249.693
226.751
216.973
205.483
198.763
191.315
184.161
178.996
171.02
166.519
155.066
1914.74
2258.36
1450.56
979.829
661.839
499.743
339.215
259.229
211.932
195.316
179.563
171.637
161.808
155.709
148.991
144.035
140.753
135.138
132.162
124.692
2850.25
2171.03
1956.71
1321.55
841.122
488.21
352.334
253.967
208.975
189.04
170.097
159.165
145.859
138.813
131.845
128.093
125.709
122.425
120.582
115.532
4970.13
3120.8
3012.7
2923.45
2585.67
1782.46
912.211
474.76
301.55
210.874
170.21
150.375
136.22
127.101
121.525
119.411
118.448
117.198
115.881
110.959
4430.07
2345.17
2053.61
1980.52
1777.5
1328.7
890.607
604.162
376.896
235.138
178.8
150.985
136.411
124.067
115.396
109.575
106.324
104.748
103.362
98.3623
1192.03
2589.69
2249.79
1907.69
1565.01
1310.5
914.884
661.438
319.764
131.335
123.04
116.295
106.926
95.002
143.61
122.288
109.177
100.967
95.1238
85.7943
411.117
1043.02
1506.92
1798.65
1778.35
1388.03
789.458
360.534
243.666
92.4642
81.546
87.9752
87.6795
81.0268
121.214
143.836
117.154
102.661
96.6863
82.9481
568.524
1260.34
1200.95
1344.12
1168.15
777.372
362.872
191.907
114.412
96.1294
93.8838
86.6661
80.2434
79.5123
124.955
167.374
129.952
102.523
93.6964
82.7398
4372.61
2890.57
1284.19
969.447
739.569
363.805
184.401
157.07
151.413
131.22
119.979
113.132
102.978
61.5974
106.405
197.747
145.788
107.047
92.8935
80.1684
3302.92
2533.59
2050.07
1554.4
1219.19
668.166
346.474
160.509
108.971
120.617
131.682
127.814
120.453
98.3203
148.291
181.639
123.5
96.5464
89.0888
80.7241
1535.2
2748.96
2392.16
1540.24
1055.24
726.354
418.256
227.485
174.255
172.337
172.38
156.257
142.11
131.914
161.252
121.292
99.2767
89.2353
84.4803
82.6656
7637.99
4699.98
2067.17
1351.37
775.774
478.525
355.138
308.367
282.526
255.12
222.662
188.246
158.424
136.173
121.152
111.2
104.192
96.7465
89.5064
84.0041
1087.69
1745.13
1791.04
1620.68
955.572
630.101
464.427
403.398
322.822
277.858
230.494
195.695
164.06
143.509
131.188
126.69
124.995
120.75
110.661
92.5113
1804.64
1110.27
1333.99
1342.55
975.875
806.544
622.988
493.027
371.267
306.983
256.551
226.415
193.193
171.406
154.057
144.881
138.209
132.351
122.99
101.111
10666.4
2833.46
1625.94
1356.51
986.501
772.418
567.381
423.88
318.987
259.585
221.249
201.925
181.504
168.139
155.071
146.382
137.888
127.752
118.555
102.4
14996.7
3023.52
1805.43
1637.62
1167.93
754.631
480.986
338.84
262.115
225.753
195.797
178.885
161.87
151.727
142.171
134.497
126.681
119.006
114.281
104.194
506.817
1238.09
1294.53
1328.08
1019.7
591.297
377.666
299.488
248.875
224.253
195.001
172.252
150.445
135.813
125.962
120.856
117.075
112.871
110.273
103.343
355.42
939.273
943.203
734.941
490.821
367.636
300.1
261.579
231.349
201.715
168.101
141.116
123.438
107.763
90.7611
74.5728
65.1071
58.0402
55.5821
50.5425
741.226
1536.23
1529.14
1342.73
787.06
663.399
656.516
638.7
521.102
392.656
317.418
283.192
262.011
251.346
245.713
239.232
231.13
214.912
208.843
194.988
11096.4
10239.5
7094.05
4766.29
2180.74
1500.94
980.126
800.259
649.467
610.6
568.342
554.48
537.879
533.461
526.973
521.449
515.081
508.755
504.852
493.196
8427.83
8689.25
3818.94
2641.3
1558.47
1272.82
931.326
819.597
699.85
657.544
603.49
577.239
548.874
529.864
513.006
497.43
487.142
474.199
466.247
445.928
9304.92
5670.86
3903.39
2317.46
1492.01
1104.19
712.39
633.888
552.102
539.602
502.109
477.984
450.295
432.514
415.754
403.264
394.151
382.58
375.654
360.413
6273.86
6279.69
5065.11
3335.15
1769.51
1040.95
661.862
585.457
521.128
509.14
465.929
439.848
405.429
388.285
373.058
365.323
360.405
353.603
348.46
336.299
8250.36
7062.37
6708.76
6304.37
4626.43
2588.11
1276.11
797.283
578.514
513.767
442.394
397.397
362.524
343.452
333.216
330.826
331.151
331.229
330.167
321.839
14173.9
6621.81
5439.03
4838.39
3510.04
2759.44
1810.16
1145.15
760.536
536.139
436.498
378.087
341.903
316.311
302.781
294.799
293.361
294.033
293.615
286.498
8120.87
6825.52
5235.52
4800.71
3747.44
3134.35
2486.48
1723.01
931.622
566.812
452.356
398.214
358.265
316.803
307.734
285.204
275.141
268.416
263.052
250.107
4314.25
3780.43
3875.58
4102.46
3700.49
3286.19
2663.13
1757.92
1004.71
525.14
471.317
449.967
413.115
363.896
314.161
288.599
270.34
262.533
255.135
233.857
17724.6
6546.5
3383.07
3288.95
2526.81
2200.94
1847.8
1263.6
771.541
582.785
513.553
460.603
409.466
367.386
323.658
320.658
276.181
259.077
253.581
239.921
16716.5
9244.3
3697.19
2290.08
1664.71
1335.13
1063.26
947.38
831.239
686.891
588.987
508.051
420.286
307.446
350.488
395.497
304.779
260.226
247.383
232.618
11060.1
7300.44
5046.78
3332.89
2485.28
2010.97
1559.06
1076.77
809.822
739.539
696.372
637.135
557.077
450.73
444.552
360.111
273.371
243.798
235.803
231.922
4995.6
6952.43
5197.49
3206.39
2037.84
1410.84
1095.08
935.932
784.345
721.14
639.733
554.278
483.228
425.105
341.036
283.506
253.513
240.86
236.882
238.073
6185.01
4504.52
3485.28
3056.16
1827.23
1224.94
934.278
826.986
755.459
670.691
574.563
484.295
407.356
351.387
316.805
294.124
278.296
264.291
252.404
243.249
1731.87
3345.07
3962.18
3627.63
2237.22
1573.46
1202.18
1035.66
836.952
720.825
594.376
506.387
428.841
383.954
357.938
344.809
336.238
321.359
300.286
265.239
10213
5049.93
3670.11
3267.43
2331.86
2038.47
1556.95
1258.44
942.518
788.121
656.332
579.402
501.361
455.648
419.185
398.594
378.924
363.092
340.919
294.599
12419
6171.2
4439.79
3334.91
2413.7
1942.24
1392.42
1085.94
815.68
682.728
582.936
530.468
479.867
449.072
421.258
402.103
381.878
361.786
340.189
305.961
20134.6
7338.87
4554.68
3612.65
2149.28
1527.94
968.748
816.018
662.918
595.683
521.595
483.449
441.232
416.699
392.885
376.724
360.688
348.678
339.147
317.684
2841.91
4539.04
3196.75
2751.47
1604.38
1195.99
857.554
773.765
645.933
610.352
535.985
490.312
431.398
392.616
362.421
348.487
341.033
335.496
331.539
319.237
2484.94
2272.21
2093.01
1182.31
695.569
634.556
563.253
530.768
478.148
438.954
389.187
346.048
299.869
251.452
204.735
164.964
140.595
127.549
124.771
121.866
1382.43
2149.68
1603.19
1232.69
924.34
894.363
860.775
791.227
622.919
503.982
423.369
380.157
348.691
321.751
305.875
286.669
273.936
255.37
246.416
225.448
7799.53
6689.55
4794.26
3935.49
2240.77
1886.63
1274.51
1100.63
916.557
870.349
805.166
786.619
765.941
760.386
742.264
722.583
704.404
694.243
688.096
671.881
21717.1
6939.79
4247.85
2835.55
1999.08
1551
1246
1096.09
962.715
905.351
833.048
799.124
759.551
734.35
708.728
686.391
667.903
650.122
636.945
613.316
27380.2
9284.66
5022.44
2776.79
1988.25
1392.38
1100.59
982.104
859.22
802.79
725.594
683.544
640.763
612.638
586.859
567.483
551.471
536.538
525.432
511.453
15664.6
9363.93
6385.67
3793.14
2119.67
1353.83
1060.58
962.46
837.952
766.807
673.72
623.186
573.715
547.831
525.574
512.75
501.547
491.905
483.194
472.681
6943.48
8310.08
7942.87
6526.69
3875.69
2241.63
1372.92
1112.07
884.559
759.136
629.407
557.353
509.104
485.24
470.992
464.726
461.21
458.162
453.916
446.374
14128.3
9644.96
7560.24
5887.95
3990.33
2864.7
1878.63
1402.34
1012.16
752.161
602.769
517.407
466.917
438.514
423.807
416.17
413.528
412.683
409.435
402.802
15863.9
10154.8
6532.96
5393.48
3996.62
3405.4
2881.82
2124.42
1228.13
805.345
623.583
529.785
468.044
415.845
398.146
384.859
379.614
374.478
367.955
357.585
8521.87
6500.88
5479.47
4890.18
3721.08
3336.63
3023.84
2222.74
1190.75
802.709
675.084
601.923
527.874
454.081
386.355
368.026
365.251
361.241
351.483
330.529
19530.4
10971.5
5221.44
4025.69
2779.76
2415.78
1937.43
1390.6
1104.35
854.11
737.67
641.093
545.03
462.635
393.768
385.271
365.661
357.924
350.861
330.82
16235
9967.47
4759.43
2984.63
2252.72
1833.45
1550.84
1372.07
1166.51
984.833
646.347
518.751
438.011
411.908
480.572
448.213
380.521
353.251
344.423
329.018
8960.35
8883.46
5946.1
3822.04
2757.64
2321.22
1923.86
1500.95
1264.1
1079.25
953.048
833.817
703.384
597.805
557.49
415.906
359.998
344.455
341.578
340.906
9167.22
9176.79
6093.25
3633.67
2421.94
1833.52
1529.09
1369.09
1192.06
1035.85
867.156
733.262
621.59
534.421
421.934
373.983
352.401
346.703
347.571
355.248
6602.53
5097.6
5085.78
4030.81
2480.1
1794.51
1474.57
1282.66
1116.86
939.249
777.459
645.954
540.924
471.813
426.209
398.609
379.392
366.468
357.56
354.601
4586.04
6122.49
5772.28
4593.28
2845.05
2044.83
1643.21
1388.88
1140.3
963.544
795.475
678.29
581.417
525.257
485.814
461.718
440.979
417.866
395.204
369.343
17731.1
9547.04
6023.74
4335.1
3081.67
2615.07
1982.22
1592.14
1228.4
1022.58
853.708
747.716
654.798
598.922
552.154
522.407
494.382
470.407
443.383
407.892
8716.96
9065.87
6178.57
4263.63
3125.98
2524.87
1872.54
1464.42
1113.88
926.512
791.991
714.161
646.669
604.16
565.58
537.763
510.922
487.473
465.196
438.914
20391.6
7466.85
5552.38
3791.74
2527.07
1975.79
1466.74
1205.52
954.806
830.442
724.746
670.151
616.179
585.095
554.25
533.564
513.607
497.972
483.993
464.144
8754.51
7415.42
4869.08
3326.2
2143.13
1695.14
1271.74
1103.87
901.04
828.254
724.347
668.529
598.695
558.791
526.417
510.488
498.021
488.164
481.951
467.166
2157.9
3432.25
2473.97
1438.93
976.842
828.056
701.643
620.596
543.637
484.24
426.147
371.543
314.534
259.875
217.811
188.471
173.56
162.03
158.184
150.606
2608.55
3137.95
1795.94
1512.46
1180.8
1051.14
907.038
778.373
640.065
540.362
470.935
420.782
386.953
354.927
327.537
297.984
277.823
249.122
235.544
207.834
3771.37
6804.22
4500.23
3353.49
2587.45
2021.09
1533.59
1394.91
1216.69
1187.62
1111.61
1091.64
1059.54
1046.83
1020.85
992.181
961.906
937.353
920.362
890.239
17987.3
7869.59
5004.58
2997.79
2452.1
1722.54
1572.73
1356.39
1260.85
1188.57
1119.94
1078.44
1032.46
994.817
960.173
924.742
896.997
869.956
848.24
824.403
30170.8
10068.5
5868.5
3153.04
2528.33
1646.58
1521.91
1296.5
1180.1
1079.25
987.246
923.08
869.607
826.273
792.55
763.588
742.19
723.827
710.263
700.804
22589.4
11948.1
7606.92
3913.92
2619.46
1649.55
1516
1302.9
1165.64
1032.2
916.926
838.287
779.555
742.213
714.41
694.341
678.415
665.19
654.113
647.727
9221.94
10826.8
9955.54
6356.66
3663.63
2086.2
1679.5
1434.14
1201.28
996.54
838.417
744.272
689.729
659.811
642.02
631.321
624.853
619.415
613.48
609.827
6602.72
10554.7
9348.45
6124.69
4059.48
2638.52
1962.29
1549.11
1220.91
942.062
783.894
679.032
624.892
594.975
580.619
571.66
567.577
564.742
559.444
556.228
5934.23
8741.65
7633.25
5198.75
3888.89
3098.43
2624.8
1878.6
1368.26
987.419
781.176
658.252
582.775
527.821
527.126
520.618
517.645
512.669
505.492
498.699
6287.78
8006.22
7354.61
5088.29
3494.88
2989.81
2660.61
1839.71
1338.04
1015.07
839.122
722.256
615.083
529.271
474.683
493.829
494.376
488.985
475.38
459.002
18466.2
8661.95
6360.37
4234.71
2971.12
2442.46
1998.53
1636.29
1341.95
1087.99
933.334
781.164
632.825
524.668
474.421
501.531
495.879
487.405
473.683
449.255
10569.8
9326.36
6092.24
3503.97
2654.32
2161.6
1906.52
1687.17
1440.2
1237.09
960.773
707.73
555.47
542.066
582.968
535.837
499.006
483.318
473.908
456.361
22388.5
10266.2
6704.04
4099.56
3012.02
2495.28
2176.08
1832.57
1585.46
1347.33
1158.05
980.617
819.882
717.853
622.888
510.876
488.432
486.64
487.543
487.805
16909.6
10973.8
6514.09
3826.06
2873.06
2223.13
1982.1
1743.11
1510.57
1282
1059.16
888.228
741.738
626.242
526.319
497.48
490.052
491.919
500.599
513.317
9208.21
6670.58
6629.76
4422.97
3001.69
2207.77
1941.72
1648.23
1433.49
1166.43
973.869
806.535
690.22
610.589
560.905
531.691
513.127
503.583
499.994
502.272
8519.32
7800.44
7330.79
5012.16
3226.23
2338.59
2026.6
1682.48
1432.76
1188.87
1003
858.397
753.503
687.059
638.328
603.259
573.739
548.183
526.051
509.714
8409.4
9616.08
7365.77
4713.59
3635.18
2875.78
2324.66
1837.07
1503.04
1245.74
1072.73
936.317
839.897
769.722
717.788
677.182
642.42
613.275
584.317
559.263
12902.7
10496.8
6979.02
4544.92
3684.22
2825.64
2263.38
1728.02
1391.91
1160.43
1022.67
919.235
846.62
790.643
746.861
709.393
678.06
652.128
628.663
610.124
32077.1
8437.6
6065.01
3812.79
3084.22
2327.67
1919.7
1508.37
1242.58
1071.05
959.619
888.277
831.21
791.794
757.949
730.359
706.535
686.168
667.808
651.775
22626.8
8697.24
5356.76
3298.01
2607.79
2041.63
1640.75
1384.84
1151.35
1031.17
912.17
849.044
785.436
754.777
727.02
709.433
692.949
677.973
667.254
650.802
3561.15
3205.5
2213.5
1423.28
1108.67
894.835
738.859
610.932
509.898
421.903
359.67
304.412
264.337
232.055
211.611
195.685
186.928
175.972
171.249
161.002
2284.38
3521.88
1944.78
1424.78
1179.13
966.983
813.452
685.962
582.957
499.559
437.947
387.99
341.523
293.914
255.477
225.889
207.472
191.937
184.668
171.077
19577.1
7986.68
5017.74
3566.6
3227.54
2028.86
2063.26
1681.72
1730.76
1584.17
1581.87
1476.73
1440.57
1368.76
1354.5
1313.25
1286.54
1239.42
1212.73
1172.36
41219.9
12290.7
6056.4
3919.88
3055.82
1998.84
1999.5
1583.44
1642.74
1449.62
1467.15
1361.59
1342.63
1262.65
1235.25
1174.3
1148.62
1109.33
1092.5
1070.89
27843.5
13877.9
6811.48
4385.99
3187.8
2009.22
2019.11
1556.97
1572.05
1341.93
1308.86
1174.67
1143.12
1064.13
1038.12
992.033
974.628
951.521
944.623
939.918
12476.7
14093.8
9228.7
4681.45
3369.45
2073.94
2035.87
1584.49
1550.1
1279.54
1224.65
1074.8
1046.26
979.477
962.142
925.795
913.531
892.199
886.381
882.26
7424.29
13241.7
12480.1
5913.79
3928.36
2198.67
2175.45
1702.91
1583.91
1228.03
1114.64
975.303
939.862
893.66
878.075
858.807
853.048
843.292
840.594
838.73
6310.93
11914.1
11168
5997.76
4350.55
2579
2214.48
1742.51
1485.93
1146.88
1038.12
899.713
870.962
830.134
820.82
800.803
798.181
788.083
785.333
782.301
5659.56
9526.4
8720.24
5128.53
4174.9
2997.3
2539.79
1968.95
1580.83
1207.97
1030.29
885.943
825.023
775.067
763.513
748.75
739.389
729.215
723.389
718.277
19501.4
10247
8670.39
5018.1
3618.56
2973.09
2654.84
1974
1595.75
1307.36
1115.82
971.757
858.261
783.803
756.97
727.979
714.73
693.541
682.64
670.524
21447.5
10767
7474.2
4987.27
3343.02
2650.42
2323.5
1983.29
1680.48
1414.75
1206.78
1004.79
882.607
803.554
769.253
736.985
717.671
691.485
673.648
652.056
22541.6
9727.74
6736.8
4431.08
3166.59
2519.44
2238.51
2021.63
1795.58
1544.69
1313.31
1022.45
882.942
880.574
842.948
746.57
717.154
694.851
683.331
664.066
32470.5
11556.8
7368.93
4845.11
3418.23
2761.94
2492.53
2184.89
1923.87
1655.39
1427.48
1224.57
1103.03
992.781
844.672
730.057
721.235
717.591
719.992
713.788
29554.5
10939.4
7044.37
4548.36
3474.62
2823.64
2386.64
2062.21
1813.89
1528.29
1316.49
1117.77
966.778
831.176
739.069
721.777
720.782
729.194
743.342
751.786
8086.57
8745.07
7855.17
4806.32
3616.28
2663.27
2435.02
1985.2
1747.08
1366.37
1202.45
991.149
902.567
811.774
776.039
739.821
729.79
723.066
725.075
731.837
12624
8069.01
8905.97
5069.63
3698.95
2744.7
2404.84
1957.43
1722.63
1387.03
1233.28
1056.07
974.837
896.109
850.039
805.222
774.681
750.336
733.95
727.937
24148.5
10804.4
8326.62
4987.37
4215.37
3088.1
2647.26
2022.75
1779.25
1439.85
1320.77
1136.77
1073.03
977.49
941.258
883.013
853.105
817.826
794.351
782.126
15508.5
13461.1
8169.97
5124.39
4307.41
3068.25
2617.02
1900.8
1670.31
1369.31
1281.33
1137.46
1090.38
1010.98
979.925
927.025
901.478
871.957
854.075
845.433
26611.2
11632.1
6642.65
4731.59
3735.73
2714.19
2362.27
1732.5
1559.75
1296.53
1239.23
1126.13
1096.27
1033.75
1013.94
970.445
953.597
924.671
908.905
899.153
14073.9
9022.84
5739.45
3654.83
3317.44
2303.04
2083.78
1564.88
1445.58
1193.85
1150.75
1058.05
1042.2
1003.55
993.939
963.011
950.987
924.956
913.929
896.993
2232.98
2445.83
1853.5
1352.16
1119.95
851.161
653.137
488.18
375.325
304.644
266.126
239.329
221.992
206.248
194.381
181.824
172.965
161.704
156.398
145.278
762.041
946.658
677.944
1026.15
915.135
1116.82
843.495
665.854
620.749
521.986
882.182
780.542
773.343
643.69
707.156
1066.75
972.147
1166.37
896.461
1266.65
1139.02
545.028
943.346
856.486
818.113
659.814
1097.56
971.655
461.76
747.935
373.17
2053.7
1677.69
2478.24
1837.21
285.545
280.67
149.852
1390.02
970.143
1496.69
788.605
105.255
127.789
92.6529
818.704
468.659
675.121
501.276
81.0334
89.404
88.478
424.849
398.87
475.983
438.242
85.8355
88.3898
87.0875
398.482
394.849
430.336
408.519
88.1331
86.3793
84.5632
393.137
374.327
401.113
377.262
83.0488
84.3929
83.495
367.451
337.957
369.749
344.92
62.1993
82.4185
68.7507
326.355
289.82
334.792
305.141
233.237
189.911
139.065
1668.34
1260.22
922.03
781.953
123.688
138.263
138.24
1095.37
706.449
765.829
716.161
96.9051
135.092
122.102
645.347
516.958
683.781
583.867
94.8638
117.201
107.823
493.728
450.987
557.548
500.477
89.0042
104.793
96.5005
440.359
408.845
482.161
427.132
80.9576
93.289
81.8983
397.84
365.859
409.631
351.932
79.6621
75.7587
56.6007
357.262
334.221
328.953
266.785
68.3535
54.5316
45.805
326.226
302.774
256.636
255.361
153.826
197.434
119.76
882.682
816.238
979.446
835.417
155.581
109.011
100.522
807.261
751.647
772.721
665.484
135.774
104.622
119.594
718.264
618.974
655.428
631.929
122.237
124.292
133.974
594.186
538.069
626.957
613.228
115.123
135.075
134.37
521.314
474.129
607.032
579.108
106.224
132.707
124.561
459.022
408.085
566.658
519.979
71.9535
123.304
107.614
384.679
287.249
501.783
412.967
41.407
95.1516
62.6246
264.446
255.041
381.752
351.057
191.807
446.123
252.678
1254.42
1001.97
1340.6
1145.05
108.322
210.524
139.092
872.27
658.896
1044.5
805.95
116.217
138.931
111.507
646.319
629.652
773.04
631.492
131.036
109.039
110.25
626.551
613.831
610.023
567.208
130.121
110.932
108.074
607.085
575.422
556.877
513.202
121.875
106.361
100.013
562.646
515.506
499.646
454.738
106.646
98.6615
93.7271
498.227
422.518
442.88
402.042
67.8803
92.7432
74.3147
398.168
367.576
393.941
370.445
2044.54
2691.89
2056.72
3061.68
2545.23
2470.97
1813.31
1246.49
1772.3
942.089
2268.6
1483.52
1634.11
1171.67
580.482
806.942
597.881
1172.86
810.764
1057.81
821.564
476.67
565.633
514.338
743.519
651.069
776.817
694.936
454.502
503.373
473.453
631.944
584.441
675.613
621.52
422.116
463.366
431.253
571.013
520.931
603.279
546.368
376.498
420.966
387.731
505.877
452.928
527.737
471.228
317.677
375.434
333.893
437.122
384.272
452.815
398.359
1423.94
1101.77
931.141
1945.83
1466.59
1453.94
1281.12
846.922
910.262
837.727
1356.6
1124.67
1248.37
1117.93
612.694
797.338
678.273
1038.41
836.626
1060.64
903.448
527.167
649.08
574.872
794.585
710.037
874.236
693.811
474.16
550.598
481.702
688.301
624.949
646.625
543.054
420.844
460.936
395.761
603.253
539.079
516.192
441.53
377.873
371.938
309.618
519.339
463.792
420.78
379.902
331.3
298.562
290.26
446.625
396.869
375.241
383.606
962.127
1222.68
1022.56
1447.45
1312.98
1653.92
1415.06
871.637
954.13
823.811
1281.29
1150.27
1341.68
1189.49
714.491
803.119
748.822
1094.58
943.411
1147.4
1026.3
612.179
736.189
704.83
915.269
725.203
995.272
914.62
526.771
694.09
654.576
676.936
577.187
890.222
815.453
446.319
639.007
581.279
549.337
470.652
789.581
699.448
327.774
558.092
462.185
446.975
394.063
665.978
569.34
292.712
433.195
401.279
389.554
401.288
548.532
528.647
1200.54
1633.07
1371.45
1861.26
1517.88
1846.68
1604.85
838.302
1270.87
1000.09
1419.27
1219.73
1526.54
1282.21
751.875
927.725
749.356
1172.34
1039.98
1208.42
1029.28
707.642
724.516
663.663
1006.48
923.623
991.832
882.173
653.255
647.885
590.891
898.781
820.818
851.121
759.626
578.873
574.396
518.554
794.564
706.252
734.4
652.228
474.171
503.749
454.265
675.17
587.054
630.273
564.447
418.035
445.096
411.273
567.842
540.129
551.662
503.664
2508.69
2338.19
1688.49
2750.2
2126.4
2132.15
1665.03
1426.39
1542.83
1223.92
1875.16
1420.88
1594.81
1374.64
869.806
1117.31
882.161
1289.06
1028.84
1278.01
1052.78
698.368
835.23
745.454
959.634
827.812
1001.66
890.433
618.215
723.39
660.869
794.358
712.31
859.411
768.714
544.838
639.679
574.146
687.512
610.585
737.717
644.727
470.468
552.608
488.816
588.198
521.275
614.782
532.937
399.394
468.604
410.176
503.494
450.161
509.325
447.687
1477.24
1547.26
1376.02
1958.54
1624.43
1798.43
1626.41
1190.89
1338.48
1192.32
1566.6
1365.62
1574.33
1395.37
898.3
1131.79
968.173
1280.38
1074.52
1330.48
1163.9
896.618
818.779
874.195
911.329
838.896
874.013
933.721
760.77
713.979
742.893
785.623
714.059
759.014
792.519
567.81
498.156
435.799
744.673
640.35
594.789
502.49
481.72
420.265
395.744
608.118
524.999
485.965
467.529
408.433
395.016
407.695
502.408
446.429
468.322
480.216
1410.01
1761.2
1515.01
1824.03
1665.55
2027.9
1785
1225.5
1442.59
1285.44
1612.01
1432.71
1715.75
1539.8
1010.05
1238.47
1102.4
1369.15
1205.85
1481.24
1312.96
1010.06
897.787
1015.11
1041.05
957.015
858.779
1080.68
784.315
603.386
800.326
519.551
764.15
481.564
823.818
454.125
826.671
726.252
603.603
515.98
928.834
801.201
410.929
690.722
597.178
503.227
494.96
762.973
681.034
429.798
578.732
555.828
500.134
513.887
665.565
627.329
1591.76
1898.1
1649.13
2106.44
1823.01
2091.31
1830.32
1314.78
1568.13
1348.74
1747.79
1567.13
1750.69
1559.68
1117.77
1280.15
1105.22
1507.23
1329.87
1493.22
1312
982.256
1064.21
940.287
1279.83
1146.32
1260.12
1099.07
863.599
904.879
803.32
1104.89
981.401
1052.56
925.748
736.441
775.595
685.67
940.952
820.465
890.335
780.493
615.947
661.94
591.425
784.34
700.81
751.08
666.628
565.541
577.42
522.274
682.204
630.503
646.057
569.34
2055.02
2129.15
1722.53
2618.52
2072.07
2292.3
1961.3
1455.42
1656.14
1428.16
1915.68
1611.48
1881.44
1633.14
1084.45
1334.28
1114.1
1519.32
1291.17
1553.74
1350.37
875.482
1061.68
942.62
1221.2
1067.59
1292.29
1145.46
749.86
908.252
807.416
1028.05
924.581
1101.07
972.289
638.867
773.06
671.837
888.482
794.649
930.174
825.684
546.816
639.941
555.382
770.267
708.004
797.246
721.869
475.639
531.736
470.437
689.873
641.199
700.785
647.632
1695.72
1877.38
1704.95
2215.55
1953.61
2118.98
1951.14
1425.71
1649.22
1465.4
1880.55
1653.23
1893.58
1718.72
1137.92
1400.4
1231.71
1578.61
1377.26
1655.48
1472.04
969.509
1186.86
995.449
1319.94
1172.04
1414.81
1256.79
820.914
929.488
750.634
1125.52
981.183
1196.57
990.613
667.17
689.739
557.665
932.711
815.094
918.54
760.99
547.022
533.045
505.02
787.465
717.137
739.915
723.325
469.469
505.248
511.251
698.263
651.14
721.668
705.092
1744.34
2110.84
1871.36
2146.99
1983.56
2345.6
2129.04
1503.94
1802.83
1621.32
1927.44
1756.38
2063.55
1878.48
1273.49
1560.29
1384.21
1694.83
1512.61
1815.49
1621.72
1032.01
1334.57
1196.98
1458.26
1293.04
1562.36
1398.3
771.606
1151.83
1013.9
1229.75
1019.06
1345.02
1180.3
577.006
967.202
833.52
945.738
791.956
1127.02
1005.64
538.073
796.068
718.723
774.136
767.556
981.348
919.31
547.373
702.897
653.965
766.921
740.487
897.857
815.269
1905.65
2170.72
1906.77
2402.86
2161.95
2429.69
2137.53
1648.16
1825.78
1632.34
2091.89
1898.12
2050.99
1850.75
1400.74
1564.62
1379.52
1833.48
1634.86
1784.36
1594.13
1203.17
1324.41
1153.23
1572.71
1403.32
1528.91
1345.86
1024.24
1104.18
971.377
1350.83
1196.65
1294.65
1157.83
855.53
933.748
817.987
1148.72
1035.95
1112.71
989.752
737.783
786.911
697.513
1008.09
929.104
953.717
856.128
655.203
674.657
589.226
902.055
808.452
822.818
724.274
2121.98
2394.67
2065.17
2980.38
2524.65
2964.41
2597.24
1678.95
1978.25
1726.94
2380.95
2054.14
2491.31
2198.43
1377.31
1651.97
1448.78
1980.89
1754.97
2121.15
1869.68
1153.73
1388.25
1232.26
1699.07
1533.41
1794.69
1596.86
1010.29
1185.23
1049.42
1509.96
1389.11
1542.38
1392.34
880.561
1006.88
915.434
1357.16
1277.65
1360.52
1339.12
801.903
891.882
823.272
1271.21
1223.74
1330.52
1276.62
736.577
803.525
751.274
1211.11
1133.91
1262.55
1192.68
2062.1
2214.05
2049.03
2906.01
2596.85
2736.96
2546.37
1753.66
1992.07
1822.51
2501.04
2234.41
2486.01
2294.9
1475.67
1758.65
1565.12
2149.94
1888.98
2215.3
1966.74
1256.35
1503.83
1340.86
1811.35
1606.63
1884.59
1677.13
1054.26
1280.01
1066.65
1546.38
1372.45
1606.36
1363.36
902.181
993.75
855.067
1331.83
1320.18
1296.77
1279.82
821.361
846.642
841.458
1325.93
1281.87
1317.29
1323.4
755.827
836.979
805.692
1267.77
1192.64
1310.6
1227.64
2076.75
2434.17
2223.54
2771.88
2564.27
2943.68
2708.21
1857.97
2158.04
1973.3
2506.12
2323.25
2635.02
2418.72
1604.05
1909.72
1708.94
2246.69
2003.4
2343.97
2104.09
1376.72
1645.89
1475.21
1922.19
1715.83
2025.57
1824.56
1096.68
1420.44
1251.89
1643.71
1399.79
1762.55
1581.97
888.35
1199.38
1095.45
1332.64
1315.74
1534.98
1511.39
885.412
1078.93
1018.29
1353.8
1358.69
1513.41
1442.21
838.44
993.541
900.165
1342.79
1245.39
1410.92
1288.62
2256.65
2523.41
2222.67
3019.87
2744.06
3028.25
2735.29
1988.84
2132.43
1929.2
2659.68
2428.34
2600.2
2362.96
1720.91
1864.33
1672.92
2355.11
2117.49
2277.95
2088.87
1481.08
1603.6
1422.45
2036.69
1840.61
1973.05
1814.26
1271.76
1372.01
1237.37
1780.94
1621.96
1748.17
1642.64
1126.84
1189.37
1069.11
1579.99
1548.11
1563.29
1477.11
1022.7
1032.51
935.577
1529.37
1439.62
1422.25
1351
891
899.12
802.539
1404.72
1277.99
1291.36
1196.81
859.704
788.419
772.915
812.699
804.447
841.534
825.346
917.014
900.413
868.583
1003.55
858.8
963.415
845.945
855.067
759.023
760.924
568.044
804.945
803.983
669.586
955.037
968.022
985.327
1053.48
929.042
992.937
1014.03
917.271
863.429
949.014
937.299
894.729
880.692
975.547
979.775
1053.01
1087.57
1041.4
1025.11
889.637
1044.72
921.678
614.659
940.388
941.863
868.484
717.585
992.58
728.399
690.051
656.813
704.545
685.186
732.011
696.186
722.892
718.945
572.067
509.104
684.193
759.513
460.248
678.334
615.224
536.087
466.8
647.657
643.256
446.16
810.383
833.493
849.148
899.392
803.737
845.227
861.332
773.79
742.309
815.335
779.259
773.383
736.737
821.272
778.866
551.906
890.618
719.93
820.633
504.458
843.384
726.661
493.87
745.055
681.769
686.199
477.915
792.136
933.878
790.821
842.471
584.406
895.424
684.932
871.532
1071.29
1044.78
1033.78
1134.6
1007.61
1111.79
1097.83
1029.25
935.139
1002.33
1027.75
970.59
988.926
1062.21
1084.5
1097.23
1104.08
1211.44
932.629
1145.78
1162.11
1004.85
640.287
992.957
1027.86
748.489
936.083
1093.96
1136.58
1200.66
1243.2
1223.63
1177.64
1160.74
1201.14
1091.4
1083.09
1107.25
1181.15
1046.94
1121.55
1154.45
756.065
561.977
704.382
467.172
735.72
451.983
715.56
916.512
902.796
914.365
994.582
872.048
951.862
961.343
884.043
814.54
885.589
894.924
843.743
849.442
928.357
834.489
569.657
755.606
969.045
524.046
881.18
914.109
795.95
497.922
694.002
812.77
485.74
749.123
863.183
964.833
1045.64
1061.75
1055.84
1005.29
1008.11
1016.33
926.531
932.682
926.889
1014.09
886.41
970.691
971.961
756.936
928.195
762.474
1265.06
1161.96
1286.4
1209.43
506.078
666.364
541.419
964.13
727.969
1044.61
866.746
168.85
346.854
193.735
539.143
434.769
621.214
434.045
126.097
134.659
125.568
363.343
337.041
352.58
341.805
119.717
126.469
130.271
321.281
313.385
343.613
345.363
112.184
130.506
130.03
295.759
287.523
339.099
329.248
100.711
126.716
121.792
271.92
263.554
311.608
298.855
75.0555
114.033
96.1123
239.817
246.484
267.803
268.262
1126.41
1313.96
1118.96
2047.88
2022.14
2241.46
2412.17
1051.43
630.03
782.367
1031.2
926.169
1083.67
634.214
533.11
296.728
376.057
552.322
503.518
631.945
282.945
324.042
190.845
169.198
484.025
345.401
444.633
132.194
210.07
84.9424
85.1155
184.506
175.827
215.922
81.3464
220.816
83.253
79.5384
196.706
204.307
215.505
80.6659
235.101
88.8425
86.7174
227.842
228.574
234.444
88.0064
228.604
86.7375
88.5918
227.59
224.162
231.408
88.1248
206.399
78.1243
83.323
208.539
201.78
211.942
81.054
92.9007
127.287
102.192
246.557
248.823
256.795
261.455
577.25
503.284
377.525
1486.28
1419.73
1068.07
940.576
449.715
288.677
243.569
767.7
785.41
530.691
166.43
346.433
158.292
125.615
457.758
425.859
333.217
121.817
313.979
106.395
114.01
326.955
298.634
331.502
110.23
271.835
96.021
103.503
259.637
256.813
279.463
101.475
242.385
92.5483
94.6871
247.136
243.034
250.606
92.0786
206.179
84.2737
82.8827
227.013
220.424
216.191
79.0685
181.825
79.9397
71.0781
208.095
206.4
184.229
70.4399
181.134
79.2474
71.7649
201.019
198.769
180.982
72.5549
100.372
109.824
100.894
254.243
264.737
239.292
271.073
318.92
367.05
309.399
816.379
811.515
801.43
810.913
409.953
154.978
174.262
385.887
415.417
373.174
154.84
438.586
157.948
155.882
442.986
444.47
439.269
155.878
398.016
146.476
149.374
415.956
398.543
412.534
145.246
354.248
127.726
134.334
349.432
338.267
361.243
132.428
338.802
118.16
130.639
312.697
305.608
342.339
130.251
314.827
111.047
127.172
283.439
275.276
323.433
124.326
274.57
96.7997
116.525
242.27
217.14
290.491
112.724
145.738
55.8563
75.6208
131.519
125.824
165.657
64.3583
98.2469
124.242
116.138
247.678
291.012
300.036
346.443
551.492
757.886
650.905
1230.25
1192.95
1353.4
1305.19
546.643
273.184
379.487
552.639
541.289
560.233
303.156
303.054
132.423
180.487
323.194
275.505
356.85
146.18
315.057
110.45
116.668
295.509
306.122
310.694
115.931
337.651
125.214
118.303
340.176
348.604
335.565
120.765
340.484
131.69
124.276
356.505
355.543
341.325
124.381
320.152
125.646
122.032
341.364
334.112
327.771
119.848
291.621
118.693
113.829
313.812
305.432
299.602
111.961
242.644
90.7392
99.9288
248.782
231.471
254.455
95.2235
130.073
153.017
119.867
337.854
360.365
335.118
335.012
307.289
405.737
272.657
670.983
641.06
570.507
483.53
187.462
195.991
161.518
552.041
506.354
402.461
390.096
172.023
153.349
152.341
489.934
490.922
395.134
423.219
173.77
158.79
161.077
488.487
484.229
423.535
415.84
166.775
157.266
146.483
468.16
441.242
395.913
373.732
150.083
137.417
130.352
412.331