/*--------------------------------*- C++ -*----------------------------------*\
  =========                 |
  \\      /  F ield         | OpenFOAM: The Open Source CFD Toolbox
   \\    /   O peration     | Website:  https://openfoam.org
    \\  /    A nd           | Version:  10
     \\/     M anipulation  |
\*---------------------------------------------------------------------------*/
FoamFile
{
    format      ascii;
    class       volScalarField;
    location    "9.7";
    object      omega;
}
// * * * * * * * * * * * * * * * * * * * * * * * * * * * * * * * * * * * * * //

dimensions      [0 0 -1 0 0 0 0];

internalField   nonuniform List<scalar> 
12920
(
107.734
158.525
173.368
167.735
124.26
93.6263
84.0135
77.3714
69.195
62.3346
57.047
53.5042
51.1525
49.479
48.2676
46.9267
45.5711
43.5322
42.7172
40.8243
150.943
271.878
259.278
238.197
189.52
124.646
93.17
81.2774
73.308
69.1205
65.7508
64.3669
63.1219
62.7331
62.3548
61.9399
61.2913
60.4075
59.8353
58.1254
257.482
279.957
223.187
149.194
117.613
103.288
88.846
81.5415
73.5698
70.3653
67.0548
65.5931
63.8327
62.7802
61.5928
60.4303
59.5767
58.2343
57.4629
55.4516
194.854
211.618
169.599
139.39
114.56
99.5472
82.015
71.6964
64.8267
62.2335
59.6712
58.3393
56.6442
55.5664
54.3545
53.4429
52.8304
51.766
51.1927
49.7249
237.737
207.486
196.979
161.881
129.147
98.3918
83.5859
70.965
64.3728
61.2255
58.0769
56.1797
53.7801
52.4652
51.1313
50.3985
49.9274
49.2709
48.8986
47.8637
313.935
248.765
244.418
240.771
226.434
188.003
134.494
97.027
77.3277
64.6647
58.0963
54.6063
51.9728
50.203
49.0894
48.6607
48.4641
48.2077
47.9359
46.907
296.388
215.647
201.797
198.173
187.742
162.319
132.892
109.454
86.4502
68.2837
59.5442
54.717
52.0092
49.6002
47.8356
46.6135
45.9167
45.5751
45.2726
44.1642
153.744
226.61
211.216
194.496
176.163
161.203
269.382
229.05
159.258
102.065
98.7889
96.0431
92.0929
86.8064
53.364
49.2432
46.5287
44.7451
43.431
41.2463
90.2897
143.814
172.863
188.855
187.787
331.807
500.472
338.212
278.043
171.278
160.848
167.069
166.788
160.336
98.0534
53.4058
48.1985
45.1189
43.7863
40.5563
106.177
158.088
154.319
163.258
152.197
248.313
339.307
246.752
190.525
174.644
172.596
165.823
159.559
158.83
99.5549
57.6102
50.7629
45.0886
43.1039
40.5054
294.46
239.413
159.577
138.649
121.1
169.871
241.878
223.235
219.179
204.058
195.141
189.466
180.754
139.797
91.8684
62.6197
53.7671
46.0727
42.9189
39.871
255.92
224.142
201.623
175.565
155.486
230.212
331.551
225.666
185.939
195.624
204.402
201.375
195.49
176.619
108.453
60.015
49.4868
43.7546
42.0308
40.0089
174.477
233.475
217.796
174.763
144.654
120.013
182.141
134.327
117.565
116.916
116.931
111.328
106.169
102.289
56.5469
49.0423
44.369
42.0653
40.9292
40.4872
389.175
305.284
202.462
163.698
124.029
97.411
83.9178
78.1969
74.8488
71.1258
66.4474
61.0968
56.0487
51.9638
49.0141
46.9579
45.4541
43.7999
42.1291
40.8137
146.862
186.024
188.455
179.268
137.654
111.779
95.9653
89.438
80.0087
74.2278
67.6061
62.2939
57.037
53.3452
51.0037
50.1219
49.7854
48.9327
46.8438
42.8305
189.169
148.378
162.641
163.163
139.108
126.465
111.146
98.876
85.8022
78.0212
71.3251
67.0051
61.8944
58.2999
55.2708
53.5996
52.3509
51.2293
49.3846
44.777
459.901
237.036
179.559
164.009
139.863
123.76
106.07
91.6805
79.5321
71.7456
66.2363
63.2777
59.9928
57.7417
55.4525
53.8766
52.2899
50.3315
48.486
45.0615
545.322
244.856
189.211
180.203
152.182
122.327
97.6612
81.9696
72.0944
66.9071
62.3101
59.5583
56.6551
54.8513
53.0959
51.6431
50.12
48.5781
47.604
45.4544
100.249
156.686
160.218
162.281
142.197
108.283
86.5385
77.0628
70.2499
66.6845
62.1832
58.4437
54.6191
51.8952
49.9776
48.9541
48.1824
47.3094
46.7617
45.2685
83.9511
136.474
136.76
120.721
98.6546
85.3817
77.1416
72.0206
67.7313
63.2448
57.7352
52.8986
49.4743
46.2263
42.4234
38.4544
35.931
33.925
33.1989
31.658
48.4943
69.8142
69.6528
65.2694
49.9712
45.8778
45.6392
45.0157
40.6609
35.2957
31.7345
29.9748
28.8321
28.2392
27.9209
27.5502
27.0797
26.1123
25.741
24.8725
331.851
259.208
205.038
200.374
142.006
79.1708
57.1476
48.319
43.119
38.8792
35.2651
33.293
32.1219
31.6307
31.3232
31.0693
30.8949
30.7225
30.6478
30.4047
219.93
235.544
145.656
91.9366
66.1192
52.7762
46.17
41.6635
37.3911
34.4571
32.2892
31.1306
30.2755
29.7099
29.357
29.021
28.9033
28.6566
28.4661
27.8269
373.411
121.296
90.2864
71.1386
61.6996
53.189
49.1491
42.3168
37.0588
32.527
29.415
27.7991
26.7801
26.2306
25.8258
25.5133
25.3046
24.9931
24.7538
24.2133
184.582
149.206
109.282
87.7062
77.9534
60.0057
54.2479
45.0132
38.5925
32.8096
29.0944
26.9934
25.9053
25.2439
24.9215
24.6569
24.5011
24.2231
24.016
23.6191
177.458
151.444
128.738
131.904
139.608
128.066
89.8296
66.4668
51.3006
37.4072
29.5951
25.9701
24.3668
23.6692
23.3738
23.3398
23.4259
23.5516
23.5895
23.547
282.318
137.725
112.131
110.007
108.433
100.963
93.8355
87.7728
66.484
41.6964
29.829
25.4802
23.8862
23.1362
22.7706
22.4534
22.3918
22.3948
22.3939
22.2982
320.172
157.472
108.534
108.752
112.696
115.188
119.859
130.254
126.015
46.5025
30.8752
27.5433
26.4416
25.311
23.1347
23.0287
22.8699
22.5349
22.1401
21.2999
213.168
149.896
101.382
94.6901
93.6451
113.061
132.447
137.792
132.098
45.973
34.1145
31.2164
29.4935
27.9559
25.2568
24.6015
24.3435
23.5019
22.9004
21.5905
495.046
183.815
97.4705
86.3425
69.3338
74.4
87.1593
123.599
64.4067
40.1106
35.2449
32.8851
31.6057
30.6177
29.6229
29.1094
27.3617
24.7203
23.7451
22.376
331.373
208.225
95.338
79.76
67.264
62.1535
53.6313
47.4871
44.1358
39.3266
38.2652
39.1051
40.0126
39.2932
33.0601
30.7005
28.079
24.1393
22.8777
21.7962
318.532
136.966
102.82
83.2257
75.1315
84.8997
91.4909
88.1195
68.9797
43.6421
39.2243
37.098
35.1492
33.8475
31.6794
29.8162
25.0351
21.7696
20.9311
20.7408
166.515
147.284
103.661
79.311
74.0875
70.0772
75.287
74.9651
52.8195
41.5088
36.6012
33.0856
30.6448
29.3458
26.0705
23.8983
21.4458
20.3845
20.0306
20.2229
158.673
186.918
129.501
81.4539
60.9467
52.0271
48.4482
44.4444
40.5881
37.2951
33.891
30.8869
27.8697
25.577
23.9133
22.7003
21.7803
21.087
20.4597
20.3658
120.446
140.24
118.196
87.3681
64.9513
54.0527
47.1946
42.9271
39.0359
36.2731
33.9163
31.6748
29.1755
26.8696
25.1352
24.4028
24.1168
23.9363
23.502
21.9318
258.05
154.142
118.95
90.102
74.8547
68.4284
59.052
50.4387
42.8297
37.6091
34.3235
32.3087
30.6359
29.1358
27.6821
26.7845
26.2026
25.5287
25.0505
23.5605
210.024
141.488
106.215
87.7515
76.1933
67.5116
58.0231
47.5417
39.2781
33.9774
31.1747
29.9117
28.9056
28.1275
27.4257
26.8118
26.268
25.4441
25.0048
23.831
294.711
163.719
110.295
97.1647
87.3409
74.8505
60.6743
45.9074
36.9185
32.1085
29.7851
28.5977
27.7634
27.2131
26.8658
26.4311
26.0531
25.3306
24.9182
23.984
181.828
153.261
131.383
106.221
84.0011
63.1919
50.5079
41.8988
37.6942
35.5371
33.7927
31.9853
29.9766
28.4308
27.3588
26.5952
25.9904
25.29
24.928
24.4271
88.792
84.9063
81.4893
61.2465
46.977
44.8694
42.2734
41.0363
38.949
37.3186
35.1394
33.1347
30.8448
28.2451
25.4866
22.8776
21.1204
20.1166
19.8963
19.6633
66.2272
82.5851
71.3194
62.5377
54.1541
53.2688
52.2589
50.1033
44.4561
39.9874
36.6501
34.7294
33.261
31.9504
31.1521
30.1582
29.4809
28.4643
27.9608
26.7447
231.067
136.007
124.415
120.389
82.3403
59.2664
46.0847
41.1036
37.1976
35.3092
33.8001
33.3098
32.9826
32.9381
32.6782
32.1745
31.7383
31.2692
30.9923
30.3896
396.554
129.534
91.3039
64.2559
51.7112
42.7077
38.2916
35.0363
32.2035
30.7416
29.4453
28.9479
28.4534
28.2105
27.9398
27.6468
27.4192
27.0574
26.7906
26.1727
422.389
144.601
78.4919
56.7226
50.8885
42.1173
38.6444
34.2525
30.5492
27.9508
26.0045
25.1076
24.4464
24.1094
23.8077
23.5744
23.3644
23.1198
22.8978
22.6042
215.648
134.656
95.0141
69.0616
58.8415
45.9363
41.2321
35.4752
30.8892
27.5221
25.1195
23.9101
23.1545
22.7981
22.5704
22.4247
22.2771
22.0928
21.9225
21.745
119.642
118.704
111.765
100.4
88.2712
69.4911
55.5482
44.542
35.3435
28.5607
24.4973
22.6082
21.7279
21.3792
21.2892
21.3105
21.3964
21.4549
21.4699
21.4512
193.511
136.936
107.802
96.341
84.3894
74.0571
68.3276
58.1487
41.3046
29.4957
24.2402
22.0606
21.2365
20.8432
20.7494
20.6573
20.6797
20.7019
20.695
20.6146
348.699
218.413
105.413
92.7178
92.5784
96.5798
103.09
116.073
74.5653
32.386
25.4481
23.3452
22.3913
21.5201
21.77
21.4326
21.1578
20.7871
20.548
20.032
202.497
149.958
100.399
83.6211
75.5565
85.8029
106.762
123.287
71.8961
33.277
27.9965
26.2458
24.9542
23.8155
23.0713
23.9082
22.9356
21.8803
21.3434
20.3328
333.28
217.717
97.2718
71.9465
54.5797
54.234
61.4746
66.8005
42.027
32.3236
29.7334
29.0919
29.0526
28.6355
29.2316
27.6309
25.4855
23.5081
22.6487
21.2281
267.034
168.644
83.2558
61.4975
50.8848
44.9649
41.4968
39.5248
36.5348
33.0267
73.2811
63.4727
49.2235
41.0657
32.2634
27.5589
25.0445
23.0983
22.3549
21.2926
195.06
146.035
97.0042
67.9768
58.5231
58.9933
60.4945
56.7566
45.7026
35.9591
33.0839
31.7543
30.9881
30.447
28.4967
25.1195
22.6202
21.3849
21.0494
20.8594
161.387
154.094
97.1712
63.8619
57.001
50.227
51.6274
48.083
39.2135
33.7385
30.2569
28.1119
26.6092
25.464
23.1289
21.4541
20.3589
19.9592
19.9357
20.2327
156.405
144.261
112.484
69.0886
51.3736
43.4616
40.0205
36.4956
33.494
30.4266
27.7414
25.4875
23.5867
22.2355
21.341
20.6484
20.1227
19.7718
19.604
19.7416
125.762
145.259
117.365
78.0228
56.2301
45.7877
40.1755
36.0153
32.6138
30.1495
27.8563
26.0695
24.2659
23.0927
22.2816
21.8963
21.6433
21.3341
20.8963
20.1432
349.354
177.564
113.348
80.889
66.8827
59.2224
48.663
40.7286
34.4902
30.9925
28.5103
27.0693
25.6917
24.8148
24.0093
23.5255
23.1028
22.6292
22.2239
21.3142
151.355
148.214
100.671
78.1906
68.0864
59.2461
48.3136
39.1525
32.4655
29.0061
26.981
26.0583
25.2474
24.7749
24.2929
23.9017
23.5064
23.0176
22.6907
22.0526
251.365
128.877
97.7882
77.4518
66.6678
55.1199
44.5198
36.1738
30.6717
28.0924
26.4491
25.7163
25.126
24.8364
24.5732
24.3495
24.0959
23.7281
23.4398
22.9473
204.37
147.001
113.745
85.9543
62.8313
49.3306
40.6084
36.4507
33.0007
31.9892
30.4036
29.3157
27.9176
26.9117
26.1314
25.6592
25.3533
25.0632
24.9225
24.6818
82.7429
104.353
88.5958
67.5672
55.6708
51.2561
47.1817
44.3731
41.5308
39.1964
36.7701
34.3337
31.59
28.7142
26.2878
24.4533
23.4661
22.6732
22.4025
21.8593
90.9735
99.7788
75.4851
69.272
61.2073
57.7491
53.6449
49.6946
45.0638
41.4055
38.6541
36.538
35.0384
33.5572
32.2364
30.7476
29.6893
28.1139
27.337
25.6787
136.55
124.165
92.539
75.6165
65.6903
52.5294
47.1519
44.8071
43.7872
44.1595
44.7027
45.1646
45.226
45.2226
44.6282
43.5907
42.4823
41.1311
40.2739
39.1338
248.076
123.544
80.091
54.7929
51.4075
40.8413
40.6739
37.316
37.0985
36.2153
36.2957
36.1897
36.1215
35.8313
35.3961
34.7665
34.268
33.605
33.1549
32.6376
323.374
131.975
79.2351
54.3816
52.2822
40.1191
39.9895
35.6357
34.2461
32.0357
31.3361
30.4649
30.2044
29.754
29.5257
29.2001
29.0364
28.8235
28.7316
28.7385
254.649
134.949
96.5827
62.5987
56.9578
42.5754
41.8877
36.197
34.1433
31.1561
30.0912
28.8246
28.5343
28.1006
28.0334
27.8421
27.7745
27.6222
27.5849
27.6306
167.535
140.125
119.779
87.4388
70.3478
50.8901
47.2008
39.9355
35.2898
30.756
28.522
27.0062
26.7604
26.5199
26.5742
26.6253
26.7908
26.8607
26.9702
27.1039
122.814
130.056
114.642
88.9557
74.4595
58.5508
53.164
43.3469
36.3599
30.0171
27.9499
26.2753
26.3822
26.2158
26.4087
26.3637
26.4886
26.4913
26.5441
26.5975
155.674
128.036
101.651
80.2251
77.7029
72.8725
74.6287
65.2632
42.4398
31.6266
28.7845
27.5939
26.9466
26.5047
28.8679
27.5468
26.9991
26.6173
26.4509
26.3213
136.792
139.818
109.269
75.2976
64.315
68.792
77.2002
65.1998
41.7724
33.7762
31.5853
30.5707
29.3943
28.721
29.9543
30.9212
28.815
27.5272
26.9143
26.5448
247.672
144.006
94.9982
64.2585
51.3826
48.7689
50.337
46.1204
39.2559
35.5258
33.6419
33.1256
33.3516
33.0613
34.3115
33.3224
30.7405
28.9105
27.8699
27.0725
176.847
154.545
90.2803
57.2745
48.5052
42.6813
41.4496
41.1521
39.6413
37.5439
58.5092
56.3249
47.2407
40.2881
35.777
33.156
30.5973
29.045
28.2456
27.5316
329.365
158.904
98.3542
63.8773
54.6145
51.0199
50.2443
46.8072
42.3619
38.7959
36.9861
35.9687
35.7749
34.6967
33.1718
31.0384
29.1758
28.3994
28.1577
27.9341
215.234
151.092
89.8748
58.769
54.1679
45.9664
45.9198
42.2145
38.6483
35.9496
33.8668
32.7554
31.3915
29.9707
28.9982
27.5709
27.1151
27.1615
27.4079
27.7899
173.258
123.79
104.121
63.8444
52.7098
43.1579
41.6456
37.454
35.7662
32.346
30.6831
28.5366
27.5749
26.6222
26.4208
26.0273
25.9922
26.0779
26.2923
26.8183
185.504
141.948
110.804
71.1116
55.4083
44.1113
41.9425
37.1851
35.2074
32.4398
30.7084
29.0396
27.9752
27.3248
26.9994
26.6973
26.4901
26.2675
26.1304
26.3181
176.988
145.134
106.059
73.7316
65.3595
54.4405
47.5307
40.2793
36.726
33.4925
31.8784
30.3977
29.5351
28.8788
28.587
28.1984
27.9175
27.5843
27.2184
27.1903
167.134
141.215
95.5545
71.929
66.8697
54.8787
47.808
39.364
35.4812
32.3708
31.2385
30.2088
29.882
29.504
29.3798
29.0672
28.8609
28.5911
28.3639
28.3882
362.563
132.306
94.078
69.1591
62.8821
49.884
44.8476
38.0053
35.0465
32.5776
31.7149
30.8702
30.8328
30.6557
30.7261
30.5976
30.5279
30.332
30.0983
30.0706
378.787
159.8
109.51
77.3101
63.1763
50.1884
45.0555
41.1263
38.6755
37.1925
35.585
34.4109
33.9089
33.6076
33.6892
33.618
33.6296
33.5317
33.4228
33.3594
106.294
100.847
83.8021
67.1986
59.3086
53.2828
48.4168
44.0263
40.2214
36.5866
33.7806
31.0775
28.9597
27.1338
25.911
24.9169
24.353
23.6285
23.3093
22.6012
85.1334
105.707
78.5507
67.2341
61.1641
55.3892
50.8021
46.6515
43.0065
39.8116
37.2757
35.0854
32.9174
30.537
28.4702
26.7709
25.6564
24.6771
24.2053
23.2976
349.208
134.456
90.0065
70.7095
77.6279
55.2637
67.638
59.0805
66.4147
63.6945
66.8166
65.2341
65.442
63.8088
63.2696
61.7846
61.1658
59.6705
59.1299
57.8947
421.114
174.443
92.2261
69.4174
65.3263
47.898
55.3983
45.5597
52.6905
48.6995
52.5323
50.783
52.0831
50.9555
50.9832
50.0429
49.8018
49.0514
48.8967
48.2844
251.8
161.884
91.5004
75.735
66.5207
47.2972
54.8177
43.4984
49.5185
44.4283
46.9141
44.6505
45.5105
44.4903
44.7121
44.2193
44.3005
44.0904
44.181
44.0866
161.35
151.215
113.066
77.0021
72.2721
50.8567
55.9002
44.3033
49.0273
43.5111
45.5968
43.1495
44.0163
43.0863
43.4958
43.0736
43.2433
42.9909
43.0843
42.9542
193.054
169.731
141.13
82.3881
76.5735
52.7925
58.0035
46.7102
48.9244
43.5882
43.7312
41.5887
41.8844
41.3463
41.6234
41.6349
42.0406
42.1565
42.4164
42.4122
173.046
148.065
128.19
83.9299
79.4615
58.0837
56.7125
46.5864
46.5952
41.7588
42.822
40.8616
41.9131
41.4836
41.9615
41.7239
42.1312
42.0618
42.2297
42.0644
203.449
140.867
110.683
75.987
78.546
65.1999
62.2893
52.3154
49.2573
45.2038
46.0958
44.9771
45.9863
45.8422
45.6536
43.4989
42.9766
42.5586
42.4429
41.9951
310.718
146.844
116.606
70.6531
66.2242
65.3788
65.946
55.051
53.9899
54.3398
54.6
54.2973
54.0558
53.8431
53.5168
47.1327
44.9289
43.6979
43.3857
42.6297
257.792
148.992
102.093
72.2992
59.2428
54.6204
60.4165
60.2537
60.9725
60.3647
59.4136
59.5199
60.2048
59.2333
56.5586
48.9744
46.4831
44.9725
44.4512
43.4214
293.394
135.44
94.5691
70.2569
57.9587
51.085
53.1442
58.5493
61.6123
59.7123
60.0193
60.8879
63.9479
61.4934
56.955
49.1511
46.4083
45.0195
44.6229
43.7267
335.872
158.872
101.172
73.1108
61.4935
54.5885
57.473
58.7695
59.9771
60.2157
60.601
61.1849
61.2453
59.0951
55.2591
47.3285
45.0389
44.1734
44.1626
43.8958
316.942
138.052
90.9747
69.0878
63.9151
54.3729
53.1359
49.5448
51.1686
50.3226
51.7502
51.0875
51.043
49.626
45.7015
43.3219
42.6707
42.7512
43.1229
43.6851
163.358
124.906
103.307
67.5751
64.3717
50.7535
52.426
45.4171
46.6219
42.7637
43.7252
41.6932
42.436
41.6719
41.9058
41.361
41.5262
41.5814
41.8972
42.6134
284.732
125.26
114.861
69.9106
64.0811
51.118
51.7052
44.9781
46.0838
42.7977
43.347
41.906
42.3428
41.9619
42.1289
41.8973
41.92
41.7755
41.7644
41.8403
276.724
140.445
105.488
73.895
71.8797
56.4418
55.4676
47.4769
48.4113
44.3352
45.2351
43.288
44.0338
43.3996
43.9352
43.5013
43.5959
43.1875
42.9296
42.6917
191.748
166.357
104.876
76.2152
73.8172
57.2516
56.6007
46.9626
48.0171
43.71
45.0238
43.4704
44.5915
44.2315
44.8159
44.5234
44.6398
44.3457
44.2077
44.0464
293.928
162.484
97.983
82.4492
71.4412
56.4769
57.2416
48.36
50.0567
45.4947
46.9099
45.2403
46.4699
46.0867
46.8398
46.5956
46.853
46.5941
46.4421
46.216
271.119
158.231
111.788
84.8431
79.6899
59.8656
63.8885
53.9896
56.7295
51.4184
52.783
50.698
51.6922
51.2606
52.0078
51.8546
52.1836
52.0074
52.003
51.6856
84.1701
88.0905
76.6853
65.4983
59.6093
51.9663
45.5216
39.3555
34.5079
31.0894
29.0576
27.5558
26.539
25.5806
24.8338
24.0182
23.4258
22.6504
22.2757
21.4692
30.1634
33.8979
78.7573
33.3884
31.9037
35.9461
96.2427
29.1277
77.7108
60.1189
31.5957
31.242
94.8601
69.8045
73.2706
35.3138
33.9799
35.4252
85.3677
36.5748
35.9242
66.9151
33.7477
33.1907
85.3489
75.6533
35.7812
35.294
382.757
487.133
344.088
150.665
147.473
139.679
148.527
300.99
298.41
218.046
146.536
143.105
149.226
119.33
182.741
201.355
171.454
135.385
66.732
89.4582
50.171
160.342
168.422
167.549
53.5747
40.3228
46.2229
40.8272
165.025
167.465
166.225
38.637
35.5091
39.7724
37.2676
167.219
165.547
163.797
35.1335
33.5432
36.6026
34.9589
162.324
163.632
162.759
33.2436
31.76
34.4627
33.2941
140.478
161.707
147.691
31.485
28.5749
32.9504
30.8449
272.028
245.465
210.051
101.33
125.743
65.3564
54.6085
198.097
209.444
209.427
132.832
91.6123
53.9324
50.3714
175.345
207.029
196.833
71.8319
47.8924
48.8672
44.462
173.494
192.85
184.991
45.1104
40.5569
43.3705
40.7246
168.047
182.374
174.992
39.5581
37.3008
40.4724
40.696
160.267
172.049
161.196
36.7429
35.4037
41.002
42.4903
158.98
155.036
134.007
35.0207
33.9832
42.7815
42.0983
147.264
131.535
120.551
33.6849
31.4037
40.5426
35.3582
220.918
250.28
194.927
62.1992
53.3907
80.4383
73.767
222.174
185.973
178.585
52.4753
50.0877
73.593
66.9002
207.561
182.191
194.793
48.9246
44.9759
61.1598
48.4695
196.969
198.585
206.179
43.8547
42.0821
46.5961
44.3364
191.133
207.025
206.479
42.0806
42.692
43.9812
43.0326
183.581
205.196
198.795
43.0221
44.082
42.7211
41.4384
151.092
197.79
184.778
44.6539
44.7269
40.9033
39.3475
114.618
173.749
140.957
43.9485
36.5841
39.0791
35.937
246.688
376.221
283.138
107.857
99.3683
111.64
107.935
185.385
258.444
210.071
98.7653
87.2779
107.732
102.479
192.023
209.95
188.09
76.1117
51.1076
93.3269
53.9611
203.901
185.997
187.027
48.1704
44.6769
50.1066
44.3314
203.186
187.605
185.172
44.052
42.217
43.4951
40.8066
196.64
183.699
178.133
41.6744
39.8169
40.1846
37.601
183.945
176.925
172.444
39.1685
37.4396
37.0352
34.9903
146.753
171.536
153.551
37.1205
35.0864
34.7448
33.1449
137.29
120.866
139.951
113.412
125.833
88.5742
102.71
140.141
143.637
112.849
130.583
122.793
107.377
68.0172
58.3708
81.549
44.4963
92.6366
40.9205
53.0023
35.4295
35.5337
40.9906
36.2158
35.3126
29.4918
33.44
30.4046
31.593
35.2836
33.1203
28.6007
26.953
29.7773
28.438
29.7896
32.562
31.2068
26.6182
25.4988
28.1341
27.4569
28.2182
30.819
29.8848
25.2367
24.2642
27.2717
26.7961
26.0678
29.5808
28.6582
24.0288
22.7736
26.6142
26.3112
114.779
55.3078
49.2102
66.4127
77.1506
43.3747
41.3627
82.8803
48.897
45.6371
78.9789
54.0196
41.1664
38.5607
42.5777
44.1502
39.9818
45.7414
34.7264
37.3488
34.0802
36.1101
38.9274
37.0421
33.2206
30.6554
33.7215
46.411
33.3395
36.9536
37.2084
30.1275
29.2316
47.2324
45.2823
31.8769
37.4167
38.3278
29.1124
28.9373
44.1714
41.6643
30.8572
38.457
37.9475
28.8832
28.6027
40.8533
38.7604
29.4106
36.8671
33.9494
28.4633
27.716
37.9731
35.3823
48.081
69.6469
66.0423
42.9956
40.8629
54.6719
52.4981
45.2931
65.9182
60.5188
40.5373
38.5005
51.8284
46.8123
40.417
55.4723
43.998
37.4574
34.6246
44.0138
37.3386
38.2018
42.161
39.6352
33.8418
47.0526
36.078
34.2776
38.8755
39.2098
38.2319
48.1047
48.4589
33.9769
33.3098
39.7649
37.9698
37.0521
47.6025
44.2588
33.1821
32.8842
39.8694
36.6801
35.7758
42.877
39.8147
32.7778
32.4969
34.9104
35.6369
33.8513
38.923
35.6057
32.3559
30.747
88.3207
96.9356
101.513
66.0524
63.4512
69.9081
71.6704
79.6951
102.537
97.8035
62.851
54.7657
71.722
61.5601
46.4908
85.4335
48.6564
49.599
38.651
53.9694
38.9581
39.889
44.9651
39.398
36.8988
34.104
36.9248
33.0582
37.553
38.4925
36.0018
33.5653
32.3501
32.2899
30.3701
35.6432
35.3907
33.2584
32.067
31.3304
29.9391
28.6005
34.0117
32.7864
31.3467
31.1325
30.7288
28.3427
27.5553
32.8831
31.2099
30.6278
30.6149
29.8235
27.4917
26.9184
120.486
79.5846
87.031
87.1262
83.6753
60.3244
55.7031
100.25
88.5259
56.9617
79.1803
53.7688
53.8147
42.181
37.3481
46.8073
33.9882
44.9327
33.961
38.994
34.0111
28.7494
32.3805
29.7998
32.2514
29.8845
33.1496
31.4353
26.5492
29.2535
28.1217
29.4011
28.4516
31.0185
30.1378
25.2049
27.8768
27.3452
28.1812
27.2529
29.9591
29.6044
24.0438
27.1937
26.786
26.9982
26.2903
29.4957
29.1721
22.6746
26.6207
26.3639
26.0813
25.2253
29.0461
28.7292
66.5691
41.645
40.1524
51.4412
48.9836
40.5036
39.908
47.8891
39.8969
37.4659
47.6354
40.2099
39.6029
37.907
33.5816
36.3627
33.4959
38.0727
34.1842
37.1748
35.143
31.8486
31.4048
32.3143
31.9967
31.752
31.2169
32.0933
32.1006
29.4135
31.3538
29.8209
31.3359
29.568
32.0217
29.0747
55.5914
48.0844
31.2417
31.3047
63.3476
50.9152
28.7831
46.1887
41.6408
31.2773
30.9339
48.0593
41.4529
27.8615
40.2061
35.8918
30.7806
30.0238
39.6109
35.0904
39.8647
51.7999
49.5387
40.6216
39.9846
47.3652
45.2387
37.5097
48.7184
44.0786
39.6797
38.1701
44.4204
41.4019
34.1281
41.8189
36.3938
37.517
35.6755
40.2568
37.2774
56.8282
56.1767
34.5515
40.1515
40.7195
246.852
35.3082
63.7404
72.3246
48.7372
207.704
48.6975
195.318
65.2385
52.2671
33.0946
32.8868
71.0638
54.8041
35.1906
35.0409
42.7446
32.7924
32.4356
50.9339
42.565
34.9375
34.2057
36.0008
32.2235
30.4899
40.4414
35.2302
33.7677
31.7041
57.6767
63.3879
63.7993
51.2256
48.246
52.2791
49.5148
49.5288
63.1222
53.4891
47.1919
43.0225
48.1249
42.784
37.3934
48.1366
37.3853
41.4331
37.681
40.8713
36.6979
33.5625
35.7522
32.3751
36.8567
35.2668
35.8311
33.5911
32.0004
31.6647
29.9363
34.906
34.0172
33.0695
31.9289
31.1474
29.5575
28.368
33.8172
33.4342
31.6587
30.6467
30.6023
28.1382
27.3839
33.313
32.7149
30.386
29.4453
29.5831
27.297
26.5948
32.3781
30.947
29.1853
27.8304
71.0179
56.9182
51.6149
65.4195
56.2111
58.2415
54.8408
47.5512
49.7585
41.6521
52.8491
47.9421
53.8633
52.5276
34.9576
39.4899
36.0629
47.7702
47.9564
52.7019
52.2132
31.9576
35.325
33.6729
47.6197
47.1422
51.7086
50.5303
30.8503
33.258
32.3541
47.2306
47.1823
50.3237
49.9423
29.623
32.2029
31.977
46.736
46.0738
49.9104
50.0416
28.883
31.9094
31.714
45.9538
45.917
50.1012
49.7714
27.8514
31.6418
31.1905
45.5552
44.8239
49.5739
48.826
47.4121
41.3246
41.2427
55.6445
54.5682
48.864
51.9889
40.7357
41.0413
39.845
54.0371
53.5475
52.6934
54.4182
36.2815
39.2822
37.1158
53.6861
52.1833
54.2765
51.7914
33.9758
37.2297
58.0925
51.432
49.7963
50.7836
51.2256
33.1479
58.8564
54.6731
49.5018
49.1598
51.6184
51.8326
33.3307
52.6794
47.0256
49.556
50.7782
51.7714
54.2619
33.1557
45.2177
40.7854
51.0116
50.7544
54.6037
53.7628
32.297
39.5124
36.0442
50.5339
49.637
53.1606
51.0693
41.3373
47.314
45.5991
48.6771
51.6955
52.4133
53.4744
40.1399
44.9146
42.5412
52.4785
54.4196
53.625
54.1847
37.6098
41.7043
39.227
54.3136
51.9974
54.3463
53.0241
57.4196
38.5612
37.7523
51.0673
51.9511
52.4503
51.6397
57.7443
37.5923
37.0498
52.3935
52.6681
51.5663
51.3952
49.5588
36.9382
37.0304
52.6418
55.1555
51.7621
53.9894
41.7799
37.0192
36.3511
55.4712
54.3374
54.0758
52.9311
36.2268
35.8778
33.6146
53.6132
51.2427
52.2706
50.054
47.7311
50.8864
48.1254
53.9586
54.1062
53.8072
51.3948
43.5208
46.7368
42.4352
53.9011
53.6887
50.2996
49.1387
39.5178
41.0387
38.0938
53.7962
53.0634
49.2136
49.5845
37.3209
37.3869
35.4818
52.5889
51.9639
49.209
49.0695
36.1348
35.0567
34.2226
51.9407
52.0026
49.1987
49.6581
35.8413
33.9755
32.9627
52.3661
53.3399
49.3184
48.6946
35.1055
32.6809
31.6699
53.2631
51.9682
48.3637
47.5482
32.8965
31.3314
29.6596
51.3389
49.3333
46.8483
45.3674
57.6949
62.4691
60.3193
77.1119
74.2497
82.6142
81.9154
53.1105
59.7011
59.6133
73.5931
74.2557
81.9912
82.8313
54.7442
60.0043
60.1647
75.7323
76.4785
83.5829
86.7724
54.3011
60.0452
59.6262
76.9214
78.0924
87.8403
89.4121
54.7931
59.5415
59.1141
79.0381
79.0641
89.718
89.3329
54.051
58.9472
59.0783
78.9443
79.5105
88.7918
86.4106
54.2652
59.1125
58.5842
79.9655
80.0201
85.8778
84.6508
52.9004
58.3531
57.1608
79.8288
76.5286
84.4869
81.4596
60.4377
53.5006
57.9496
81.7367
82.0232
73.9414
78.8093
60.6874
58.9704
61.4367
82.2905
83.6333
80.0805
83.8033
60.7661
61.6886
60.4309
84.6539
89.4618
85.9959
95.2169
59.5174
59.5917
59.1865
90.9272
92.88
97.7431
101.008
59.3803
59.4701
59.8723
93.125
92.608
101.413
100.232
60.0316
60.3407
63.0571
91.8824
88.492
98.4693
92.9553
59.5323
63.3662
61.9821
87.374
85.3592
90.8147
86.5442
57.8424
61.2566
58.6648
85.0485
81.5451
85.8276
81.7194
57.4382
56.1473
58.39
74.4283
77.9427
74.6671
77.3147
61.3142
58.8481
60.364
79.2418
83.2253
78.0225
80.3449
60.4866
60.8123
60.7319
85.5667
95.1059
81.7435
88.2144
59.6934
60.437
60.3756
97.7111
101.025
90.0016
92.5439
60.4201
60.5013
60.9051
101.398
100.441
92.9141
93.1039
63.7171
61.436
62.3834
98.6383
93.0158
92.3321
88.7792
62.3162
62.3258
60.7298
90.8622
86.4891
87.4586
84.9545
58.7497
60.0417
57.6821
85.7214
81.5227
84.4685
81.3946
58.6951
56.8622
54.8642
76.3887
77.3019
74.6557
74.7063
59.5546
53.9171
53.8099
77.5293
79.2367
72.4143
73.4094
60.3683
54.3431
55.3972
80.1143
84.9789
73.6493
76.5485
60.4257
55.0815
55.4711
86.1786
88.5104
74.7875
77.6598
61.0189
55.7236
56.3155
88.8755
89.5077
77.3942
79.9134
61.4216
55.95
55.6269
88.9675
86.632
78.4733
80.3349
59.7226
55.3976
54.8707
85.8327
84.2267
79.6519
80.8604
57.0003
54.1808
52.8776
83.8312
80.9989
79.6987
77.7566
31.8942
30.7036
31.4334
30.1779
31.5382
30.629
31.9774
37.0779
32.618
54.9937
38.7207
33.802
32.781
182.783
42.2256
38.0361
72.5903
218.537
36.4703
44.3422
234.833
32.3773
32.2999
32.7616
33.6216
31.6188
32.478
33.39
32.5346
30.7141
32.2869
33.5919
31.1104
32.7
33.4759
38.161
40.0625
34.3227
65.0898
33.3142
190.822
36.3162
43.7935
228.226
42.1442
89.5031
46.0737
244.119
40.142
32.4813
29.2146
31.7785
29.4256
31.5047
29.4525
32.7821
45.3197
38.81
76.0318
206.884
39.0833
45.1809
194.685
46.9142
39.9294
70.1487
91.7984
40.0796
44.9346
132.733
32.9257
30.4012
31.3729
33.6614
30.1842
32.793
33.7861
33.3631
30.0949
31.2737
34.4114
30.1049
33.6549
34.13
47.1789
216.263
42.9695
92.7549
46.8717
204.681
43.484
48.3226
97.7624
43.9827
82.9453
46.3399
139.855
44.3243
64.0612
69.6524
48.1408
220.287
45.7934
232.926
65.884
36.06
34.6739
34.6568
35.1004
35.0692
34.7073
34.6212
37.3919
36.3661
34.2474
34.1937
35.8086
38.1717
34.3619
59.0708
41.6596
63.0225
36.5232
243.776
36.0301
44.6566
68.0051
229.807
80.782
54.6036
242.841
70.1123
51.5731
36.8292
35.4823
36.3186
36.203
35.2265
35.1068
37.1661
38.4021
34.8273
39.2546
36.0345
39.2894
34.9387
38.4291
61.6815
73.472
48.4297
121.83
48.8891
179.217
59.8509
38.3864
36.5823
33.5372
34.0137
36.6401
38.4081
33.8309
38.2514
36.6805
33.3307
33.5187
36.6365
38.2909
33.638
67.8972
216.762
84.5328
55.4427
203.195
69.5317
55.5084
65.0133
119.543
83.986
54.6037
175.933
62.5743
55.3659
39.5496
34.6783
39.5967
35.6196
39.5701
34.5121
39.6999
39.3693
34.2039
39.6525
35.4374
39.3722
34.3258
39.6622
245.028
271.335
245.922
151.18
146.592
157.845
152.134
200.352
229.901
207.23
149.06
147.917
149.745
146.627
115.727
165.867
123.962
138.008
97.5636
137.72
101.101
100.009
103.348
99.7989
61.2032
46.6193
64.5402
49.4286
97.4459
100.156
101.651
42.0388
38.5137
43.6332
41.3226
94.3304
101.742
101.556
37.5216
36.4607
40.0894
39.2494
89.3765
100.254
98.2868
35.7745
34.5382
38.5864
37.5338
77.1573
95.1043
87.3122
33.9197
27.9799
36.5605
30.4407
298.905
322.832
297.915
168.174
155.22
162.544
145.611
241.913
447.091
498.22
281.667
261.608
274.165
448.573
228.5
306.828
345.416
229.06
230.498
215.595
299.617
113.048
246.069
231.693
159.779
136.66
143.465
204.796
75.7594
164.164
164.331
88.4482
83.2155
81.0478
160.652
66.0305
162.523
158.856
70.4121
68.578
67.9197
159.978
62.0889
167.89
165.87
62.8327
62.3883
62.6188
167.099
60.2961
165.89
167.653
59.6469
59.0181
60.849
167.211
57.3866
157.438
162.592
56.3946
55.4321
58.4457
160.362
85.8411
100.479
90.0316
32.7289
26.6269
34.1344
29.5136
213.977
199.798
173.045
118.225
99.433
113.032
84.1387
131.992
302.637
277.988
182.895
165.298
162.799
229.79
118.757
224.101
199.635
192.465
170.409
129.856
196.594
83.6941
183.729
190.19
95.98
87.9703
88.1671
187.011
73.2551
174.547
181.222
76.7004
74.1127
75.6931
179.441
67.7436
171.363
173.34
68.6157
67.2706
68.329
170.934
64.5636
163.517
162.165
64.2241
63.5391
65.3485
158.388
61.1675
159.256
150.17
60.9898
60.0879
62.096
149.494
57.7194
158.565
150.894
58.2044
57.5828
59.073
151.722
89.2261
93.3328
89.4578
35.5269
29.9953
36.7104
31.6189
159.047
170.627
156.655
93.9783
75.7088
96.6727
83.788
100.845
221.743
235.135
123.259
100.177
122.373
221.645
85.3609
223.858
222.389
84.8079
83.7738
86.4357
222.386
80.3727
215.577
217.698
81.1112
79.5016
82.0424
214.67
75.2804
201.331
206.461
74.9681
73.7358
76.0277
204.998
75.8685
193.652
203.617
73.5325
74.1764
75.5612
203.311
77.6699
187.707
200.876
76.4057
76.6874
77.5624
198.612
78.8758
175.248
192.276
80.0259
80.6001
77.7229
189.114
69.0049
133.123
154.895
74.2292
67.3261
75.6338
142.895
88.2764
99.2705
95.9782
38.6044
32.1563
39.408
36.1224
209.149
245.181
227.219
130.748
116.361
134.565
119.946
171.382
294.404
346.988
188.645
165.923
192.889
310.133
144.934
204.973
239.297
149.098
144.756
145.272
215.357
91.4515
187.197
192.394
97.0374
86.5082
105.572
191.785
78.8766
199.318
193.738
76.4792
76.8044
78.816
195.744
74.5603
204.409
198.569
77.4089
76.8686
75.9123
198.653
70.5201
199.66
196.767
73.9582
72.8157
71.6163
194.998
66.0484
194.056
190.039
69.5492
68.3395
67.2083
188.473
60.7928
169.673
178.058
63.2123
60.7552
62.1507
173.815
101.573
110.168
97.5068
39.83
40.0427
39.6601
37.5696
156.12
179.394
147.06
107.97
101.255
101.751
91.4582
121.939
124.682
113.187
92.9146
81.5206
81.55
71.4432
116.81
110.287
109.924
68.0128
60.1255
64.745
59.1007
117.401
112.227
113.032
55.0087
51.6979
55.9926
53.418
115.014
111.687
107.79
49.2596
47.1654
50.8299
47.829
109.107
104.401