/*--------------------------------*- C++ -*----------------------------------*\
  =========                 |
  \\      /  F ield         | OpenFOAM: The Open Source CFD Toolbox
   \\    /   O peration     | Website:  https://openfoam.org
    \\  /    A nd           | Version:  10
     \\/     M anipulation  |
\*---------------------------------------------------------------------------*/
FoamFile
{
    format      ascii;
    class       volScalarField;
    location    "9.7";
    object      p;
}
// * * * * * * * * * * * * * * * * * * * * * * * * * * * * * * * * * * * * * //

dimensions      [0 2 -2 0 0 0 0];

internalField   nonuniform List<scalar> 
12920
(
-386014
-247121
-291649
-194705
-194797
-151358
-155477
-130427
-130939
-117738
-116195
-107352
-102962
-94762
-87810.3
-79278.3
-71108.6
-65089.6
-60065.2
-41249.9
-194859
-163615
-274496
-196019
-196526
-151883
-155554
-130173
-131133
-118070
-117036
-108134
-103724
-95269.1
-88226.9
-79208.8
-70432.1
-64088.5
-59096.6
-39665.2
-139967
-155988
-259066
-190732
-198075
-155049
-155750
-129527
-133187
-119317
-119272
-109843
-105371
-96030.9
-88322.2
-78747.1
-69149.3
-61708.1
-56482.5
-37663.9
-298477
-208990
-274902
-202410
-205082
-161417
-163464
-136765
-137020
-124357
-122450
-113005
-106955
-96874
-88277.2
-77486.5
-67321.3
-59867.1
-54751.6
-35875.6
-269764
-299254
-274521
-198740
-210961
-169497
-173187
-146449
-145733
-131469
-129102
-117707
-110232
-98252.8
-88255.7
-76855.9
-66077.9
-58204
-53159.2
-34639.1
-362199
-307610
-299421
-223933
-235249
-191369
-186919
-165052
-154487
-141838
-135024
-122778
-112545
-99465.4
-87745.6
-76131.1
-64761.3
-56946
-51948.7
-33781.3
-347009
-334036
-329024
-246037
-234958
-195262
-193031
-169703
-162901
-149798
-140921
-126451
-114335
-100428
-87837.8
-75239.8
-63714.4
-56122.6
-51481.6
-33229.3
-360442
-327686
-287552
-236802
-251367
-209445
-202804
-179576
-162191
-150566
-138468
-125703
-113510
-101632
-86301.7
-75288.1
-64055.7
-56153.2
-51407.9
-33160.1
-531581
-395513
-292135
-229405
-232014
-210967
-205678
-181805
-164180
-152800
-141054
-127998
-115459
-102412
-87494.3
-75803.7
-65551.3
-57558.2
-52064.3
-33442.9
-437614
-277843
-282599
-223210
-239455
-210785
-200678
-184083
-168797
-156826
-144627
-132109
-119344
-106215
-91225
-78536.9
-67614.2
-59093.1
-52560.9
-33653.6
-160267
-114400
-182566
-176771
-217698
-204563
-199614
-185254
-173719
-161984
-149406
-137160
-123868
-109611
-93974
-79618.3
-68676.7
-59775.1
-52729
-33187.8
463280
57965.9
-172308
-159368
-224009
-204002
-202277
-193216
-182628
-170018
-156472
-142411
-128295
-113864
-97763.8
-82091.9
-69255
-59253.5
-52299.7
-32112.9
325256
59336.8
-107099
-133910
-202441
-202948
-210833
-201748
-190690
-176393
-161567
-145966
-130659
-115414
-96341.9
-83888.2
-70072.5
-59161.5
-51735.5
-30974.9
-190541
-126144
-260873
-206512
-248718
-229418
-230030
-208789
-200593
-178912
-164347
-145201
-129978
-112981
-100071
-85879.1
-71201.5
-59523.8
-51699.9
-30423.1
-538798
-255837
-296555
-243990
-265693
-241916
-243098
-220799
-210925
-188091
-171981
-152053
-135721
-118162
-103360
-88117.5
-72731.1
-60912.4
-52277.6
-30782.8
-536197
-354414
-423141
-317798
-323911
-276968
-268768
-237144
-223890
-196097
-179727
-156709
-140191
-121380
-106225
-90119.5
-74673.6
-62519.8
-53477.2
-31339.6
-384376
-387062
-473305
-357859
-354681
-301442
-286495
-249028
-233345
-203310
-185247
-160583
-143364
-123911
-108177
-91763.5
-76246.2
-64216.1
-54791.3
-31963.2
-719541
-564843
-581838
-423614
-400054
-329781
-307882
-261677
-242606
-208251
-189355
-163306
-145743
-125709
-109744
-92890.7
-77694.4
-65705.1
-56371.8
-32871
-988125
-615344
-624844
-452489
-417120
-343462
-317878
-268633
-247410
-212447
-192006
-165265
-146680
-126112
-109916
-93507.9
-78788.2
-67211.7
-57817.8
-34079.7
-1.0097e+06
-635534
-648127
-448554
-428752
-350738
-325100
-273738
-250147
-215108
-193193
-166907
-147713
-126916
-110090
-93415
-79296.1
-67927.8
-58248.4
-34759.8
-343426
-262144
-291936
-191868
-195110
-150334
-155049
-130002
-130783
-117606
-116154
-107338
-103003
-94892.4
-87941.4
-79419.2
-71177.6
-65050.7
-59875.6
-40904.6
-226861
-163447
-277185
-193132
-197122
-151541
-154621
-129685
-130899
-117910
-117065
-108198
-103836
-95450.1
-88494.1
-79384
-70443.7
-63831.1
-58732.5
-38952.7
-157858
-156985
-260957
-185406
-197151
-153666
-154103
-128829
-132480
-118987
-119175
-109822
-105454
-96121.9
-88286.9
-78651.8
-69048
-61609.2
-56349
-36691.8
-306830
-210127
-280828
-205285
-204690
-162561
-162186
-136106
-136343
-124092
-122324
-113023
-106985
-96616.1
-88105.1
-77602.1
-67269.1
-59600
-54349.2
-34440.2
-260241
-281395
-281326
-204066
-210519
-171314
-172309
-145602
-145028
-131158
-128997
-117605
-110078
-98051
-88217.4
-76828.3
-65919.3
-57758.9
-52598.7
-33064.2
-350381
-304726
-302987
-224090
-238631
-191273
-187710
-164389
-153778
-141666
-135123
-122383
-112120
-99472.7
-87787.2
-76059.1
-64555.4
-56403.6
-51347
-32152.5
-390412
-348116
-327894
-244630
-234855
-195585
-193439
-169310
-162667
-148474
-140095
-126332
-114558
-100842
-88200.9
-75556.7
-63836.5
-55731.9
-50918.2
-31618.1
-476053
-349594
-291428
-238808
-250825
-209012
-203265
-179080
-161492
-149923
-138155
-125588
-113357
-101209
-86552.8
-75481.5
-64041.8
-55943.7
-50975.5
-31636.2
-598634
-397241
-292739
-231698
-234469
-211720
-206259
-182028
-163825
-152712
-140949
-127989
-115429
-102340
-86965.9
-75728.1
-65459.6
-57244.5
-51665.8
-32034.4
-713452
-291508
-289082
-226261
-241017
-212081
-201781
-183861
-168664
-156476
-144403
-131968
-119319
-106170
-91004.8
-78483.7
-67637.5
-58616
-52149.3
-32299.7
-208361
-115307
-187851
-178265
-217966
-205154
-199805
-185278
-173482
-161601
-149448
-136820
-123553
-109610
-93842.3
-79947.1
-68453.3
-59130.1
-52209.6
-31826.5
320171
55855.5
-178183
-164941
-225753
-204530
-202781
-193198
-182577
-169924
-156401
-142456
-128238
-114006
-97413.9
-82302.4
-69295
-58853
-51795.4
-30720.3
270377
55880.1
-110207
-135679
-202836
-202795
-211629
-202049
-190653
-176415
-161374
-145773
-130544
-115642
-96456
-84055.3
-69979.5
-58607.2
-51186.4
-29506.5
-179971
-147121
-263097
-206605
-250501
-229680
-230109
-208848
-200750
-178647
-164443
-145205
-130022
-113074
-100113
-85994.9
-71133.9
-59086.2
-51165.3
-28790.5
-533199
-258692
-302659
-245147
-266788
-242606
-243652
-221202
-211517
-188251
-172124
-152043
-135732
-118177
-103384
-88229.6
-72681
-60531.5
-51832
-29073.7
-457794
-363687
-422880
-315903
-324262
-276746
-269514
-237549
-224637
-196457
-179818
-156696
-140272
-121387
-106270
-90194.7
-74581.9
-62096.4
-52985.8
-29686.6
-719325
-426074
-480847
-359656
-355453
-301394
-287219
-250035
-234155
-203535
-185358
-160553
-143323
-123907
-108202
-91797.2
-76092.5
-63658.7
-54402.9
-30505.9
-935684
-584905
-584501
-428405
-400980
-329651
-308660
-261560
-243107
-208233
-189464
-163282
-145813
-125707
-109794
-92862.2
-77494.1
-65281.5
-56078.3
-31686.9
-851103
-601836
-620408
-451248
-417631
-343116
-318043
-268197
-247655
-212403
-192067
-165291
-146844
-126141
-109872
-93413.7
-78637.8
-66941.4
-57675.2
-33325.8
-977866
-599879
-642650
-452807
-429294
-350241
-325192
-273430
-250271
-215135
-193437
-166868
-147649
-126756
-109905
-93297.5
-79117
-67705.1
-58114.1
-34375.1
-532015
-281417
-292527
-189233
-193123
-146320
-153261
-128837
-130430
-117307
-116077
-107270
-103066
-95153.9
-88165.3
-79566.9
-71242
-64905.4
-59549.8
-39978.9
-333548
-160320
-298019
-186639
-198255
-149360
-153039
-128849
-130480
-117528
-117073
-108305
-103945
-95641.7
-88705
-79521
-70391.7
-63517.3
-58147.3
-37256.1
-293084
-148762
-266681
-181530
-196497
-152538
-152533
-128037
-131053
-118530
-118948
-109732
-105475
-96056.4
-88416.7
-78681.5
-68935.4
-61252.7
-55737.6
-34119
-240425
-207922
-283400
-206096
-208621
-163532
-160570
-135419
-135213
-123847
-122102
-112817
-106596
-96624.1
-88106
-77700
-67137
-58968.9
-53315.8
-31317.6
-198800
-259721
-284326
-209795
-211405
-172646
-170633
-144509
-143888
-130741
-128684
-117091
-109838
-97962.3
-88201.3
-76836.2
-65678.8
-56917.4
-51416.6
-29715.3
-314591
-295555
-303480
-225906
-242826
-191594
-185646
-162426
-152761
-140189
-134402
-122243
-112154
-99594.9
-87850.9
-76090.6
-64266
-55447.3
-50119.8
-28697.5
-326155
-354716
-330440
-244454
-234645
-197181
-195441
-168325
-162347
-147349
-139340
-126170
-114641
-101201
-88334
-75666.9
-63644.5
-54875.2
-49743.6
-28178.5
-390816
-344201
-293333
-240032
-249274
-208827
-203998
-178100
-160684
-148844
-137742
-125186
-113034
-100928
-87298.3
-75877.7
-63923.8
-55332.5
-49936.4
-28306
-565932
-386655
-300069
-234948
-235881
-211178
-206558
-182053
-163889
-152173
-140644
-127902
-115370
-102284
-86682
-76186.1
-65501.1
-56604.3
-50650.6
-28859
-661190
-319046
-288192
-229193
-241370
-213132
-202411
-183447
-167853
-155855
-144098
-131882
-119276
-106240
-91065.3
-78657.3
-67490.3
-57895.5
-51092
-29208.8
-231896
-102697
-195285
-179637
-218383
-205998
-200167
-185136
-172878
-159451
-149254
-137135
-123589
-109874
-94058.4
-80659.1
-68527.6
-58235.5
-51054
-28775
233395
38306
-183117
-171120
-227752
-205555
-203379
-193797
-182308
-169503
-156193
-142410
-128334
-114178
-97706
-82927.8
-69361.8
-57889.4
-50592.6
-27622.4
107158
47721.5
-110069
-137800
-203667
-203310
-212517
-203038
-190519
-176346
-161272
-145911
-130624
-115924
-96799.1
-84445.5
-69889.8
-57509.9
-50006
-26192.6
-180557
-134112
-259781
-209081
-250997
-228498
-232245
-210084
-201824
-178643
-164627
-145228
-130224
-113295
-100389
-86293
-71087.2
-58394
-50038.9
-25252.5
-476908
-251545
-296323
-244992
-266114
-241349
-246556
-222118
-213064
-188539
-172215
-152080
-135825
-118313
-103666
-88499.2
-72652.5
-59923.1
-50815.9
-25381.2
-397082
-335221
-424581
-315247
-325081
-276255
-271393
-237953
-225836
-196721
-180084
-156802
-140499
-121637
-106575
-90402.6
-74469.5
-61252.7
-51873.5
-26109.5
-730936
-440112
-475492
-362421
-356153
-301172
-288774
-251132
-235300
-203768
-185576
-160589
-143541
-124147
-108549
-91962
-75875.5
-62551.1
-53297.9
-27186.7
-901534
-587341
-580846
-434222
-400775
-330553
-310209
-261883
-244043
-208104
-189762
-163356
-146097
-125913
-109940
-92802
-77080.9
-64227.5
-55180.1
-28873.2
-825760
-604317
-609096
-454332
-419615
-344077
-318562
-267742
-248153
-212451
-192340
-165290
-146909
-126109
-109812
-93283.5
-78374.9
-66314.9
-57188.2
-31418.2
-961542
-639314
-632346
-460437
-431192
-349449
-325688
-273133
-250536
-215093
-193727
-166884
-147673
-126500
-109514
-92994.3
-78767.4
-67296
-57872.5
-33505.9
-518185
-284894
-298964
-189097
-190905
-141740
-151104
-127542
-129966
-116943
-115884
-107239
-103089
-95316.8
-88526.5
-79895.7
-71304.9
-64713.8
-59249.6
-37914.9
-322932
-166873
-297685
-185193
-198000
-147020
-151495
-128128
-129742
-117124
-116729
-108151
-104167
-96144.1
-89151.5
-79746.7
-70296.8
-63059.2
-57349.7
-33225.8
-73078.5
-156162
-260563
-180446
-198977
-152970
-153600
-127770
-130233
-118304
-119172
-109656
-105292
-96077.3
-88537.3
-78749.7
-68826.8
-60763.1
-54735.7
-28905.8
-214955
-206826
-289492
-206692
-213703
-164469
-160644
-135105
-134246
-123694
-121988
-112518
-106482
-96611.7
-88133.1
-77778
-66957.1
-58168.6
-52008.3
-25790.5
-326285
-251249
-290937
-214799
-213898
-171934
-169976
-144037
-142946
-129932
-128286
-116950
-109669
-97893.3
-88197.7
-76842.3
-65371
-56072.2
-50119.2
-24173.2
-282963
-285354
-302867
-228223
-247642
-193562
-183677
-159759
-151637
-138981
-133198
-122007
-112233
-99738.9
-87962.9
-76175.3
-63964
-54551.3
-48806.7
-23158.2
-292593
-355195
-329754
-245143
-235926
-199284
-195892
-167917
-161164
-145733
-138709
-126081
-114509
-101482
-88530.5
-75792.7
-63468.4
-54076.1
-48472.7
-22687
-444140
-354598
-303197
-243049
-248449
-209205
-205334
-176739
-159381
-146877
-137252
-124507
-112498
-100475
-87925.7
-76149.5
-63789
-54658.2
-48750.9
-22869.8
-513889
-367763
-302561
-237189
-237472
-210500
-206944
-181793
-162946
-151210
-140196
-127769
-115224
-102217
-86787.2
-76593.3
-65459.9
-55885.4
-49491.8
-23486.9
-687212
-335484
-296722
-230242
-241243
-213891
-202913
-183049
-166787
-155204
-143951
-132109
-119400
-106443
-91520.7
-79542.5
-67440.9
-57069.1
-49886.6
-23886.8
-176289
-106388
-198035
-180405
-219056
-206462
-202737
-185884
-172364
-159750
-149377
-137233
-123815
-110238
-94521.8
-81712.1
-68697.5
-57350.7
-49798.6
-23521.6
215070
40286.7
-185389
-174902
-227908
-209338
-204785
-194532
-181991
-169163
-156100
-142491
-128508
-114524
-98565.6
-83858.6
-69442.7
-56803.4
-49258.2
-22620.5
61383.6
38557.9
-110330
-141249
-205095
-202421
-212209
-205917
-191608
-177248
-161217
-145980
-130598
-116195
-97259.8
-85319.9
-69952.6
-56271.5
-48990.5
-21354.6
-5791.72
-114924
-254629
-213551
-248729
-228877
-232378
-211298
-203894
-179807
-165324
-145614
-130662
-113774
-101031
-86883.2
-71278.9
-57874.5
-49040
-20680.6
-506106
-262740
-304347
-244732
-264081
-241881
-246901
-222918
-215125
-189767
-173022
-152533
-136316
-118861
-104344
-89024.1
-72838.4
-59419.9
-49761.5
-20985.7
-412746
-374464
-423963
-318661
-323763
-276779
-271888
-238347
-227570
-197275
-180710
-157350
-141190
-122448
-107362
-90928.9
-74522.8
-60447.5
-50682.4
-21599.9
-678901
-449922
-478314
-365921
-356329
-302244
-289213
-250991
-236507
-204120
-187097
-161537
-144642
-125164
-109436
-92524.5
-75860
-61382.7
-52257.7
-22614.5
-925818
-585680
-581177
-437899
-400197
-332058
-309827
-262710
-245538
-209247
-191010
-164208
-147088
-126689
-110504
-92881.4
-76703.1
-62952.6
-54303.6
-24533.1
-715525
-576662
-602885
-456650
-419099
-345385
-320692
-268800
-249372
-212861
-192950
-165322
-147188
-126242
-109900
-93252.9
-78124.5
-65644.3
-56810.1
-27694.1
-940627
-635179
-625497
-466902
-433185
-349194
-327167
-272917
-250942
-215011
-194048
-166855
-147780
-126143
-108802
-92504.8
-78284.8
-66694.1
-57613.9
-31876.8
-556711
-277741
-301098
-192991
-195228
-137031
-148245
-126216
-129433
-116561
-115729
-107129
-103221
-95539.2
-88806.2
-80157.6
-71427.3
-64612.2
-59271.5
-35570.2
-214409
-163920
-306582
-186817
-204156
-147232
-149741
-126845
-128591
-116457
-116335
-108077
-104474
-96938
-89987.8
-80193.9
-70276.1
-62615.2
-56593.1
-27251.4
-11643
-138083
-263581
-178846
-201232
-153515
-156279
-129192
-131401
-118512
-118983
-109465
-105213
-96083
-88606.1
-78777.9
-68746.9
-60367.9
-53763.2
-22508.5
-138486
-203089
-287218
-205321
-216688
-164280
-162907
-135088
-134659
-123573
-122170
-112380
-106273
-96478.7
-88044.8
-77723.7
-66838.3
-57832.2
-50931.5
-19959
-250125
-249074
-296119
-218255
-215376
-170967
-171214
-143902
-143933
-129798
-128017
-116753
-109453
-97769.5
-88097
-76742.1
-65094.6
-55738.4
-48984.3
-18739.7
-108218
-268613
-301822
-230473
-248447
-193420
-184479
-159390
-152055
-138567
-132389
-121525
-112067
-99643.1
-87964.1
-76185
-63885
-54301.1
-47632.9
-18059.7
-380176
-363249
-332301
-245393
-239215
-198149
-194271
-167566
-160649
-145161
-138435
-125810
-114542
-101740
-88767.4
-75931.7
-63470.6
-53840.8
-47272.1
-17736.1
-368316
-331854
-303599
-243392
-248783
-208607
-203531
-178151
-159170
-146113
-136723
-124486
-112386
-100662
-88568.6
-76465.6
-63731.4
-54374.2
-47551.7
-17906
-541866
-359722
-306140
-239287
-237274
-210331
-205479
-182193
-162595
-150220
-139461
-127473
-115000
-102130
-87303.8
-77114.2
-65518.8
-55467
-48236.4
-18371.5
-527337
-317025
-292791
-227377
-241361
-214328
-203474
-184849
-166916
-154810
-143995
-132559
-119575
-106437
-92329.1
-80512.5
-67475.4
-56547.2
-48599.8
-18709.8
-237252
-108365
-196977
-180026
-219915
-206864
-204800
-188713
-172961
-160470
-149302
-137345
-123988
-110253
-95195.7
-82772.2
-68799.2
-56861.2
-48565.4
-18543.5
253617
37403.8
-183843
-176894
-227708
-210698
-207091
-196082
-182665
-169406
-156199
-142698
-128611
-114681
-99674.4
-84919
-69764.6
-56363.5
-48282
-18196.2
225302
60588.5
-103788
-142924
-204686
-203166
-211493
-206497
-192961
-179076
-161799
-146780
-130826
-116741
-97151.3
-86353.7
-70076.4
-56272.9
-48849.6
-17893.8
54359.9
-91684.7
-252314
-214841
-247475
-228818
-232248
-211628
-203710
-180447
-165818
-145979
-131097
-114297
-101586
-87447.9
-71436.7
-57570
-49249.5
-18246.6
-528113
-257725
-305201
-242487
-262378
-241991
-246442
-223464
-214550
-189958
-173447
-152779
-136828
-119387
-104945
-89466.1
-72964.6
-59025.5
-49718.1
-19050.2
-391089
-371314
-420608
-320054
-322537
-277480
-271229
-238314
-226780
-197362
-181052
-157753
-141783
-123056
-108030
-91436.1
-74610.2
-60008.8
-50541.1
-19667.3
-884421
-481770
-479834
-367769
-355522
-303482
-288280
-250899
-235873
-204186
-187167
-162082
-145282
-125914
-110201
-93105.5
-75998.1
-61109.1
-51969.8
-20550.2
-919278
-588246
-579595
-439437
-400138
-332594
-308835
-263390
-244725
-209967
-191192
-164877
-147785
-127418
-111343
-93684.4
-77090.4
-62702.1
-53922.8
-21738.1
-672012
-572981
-599679
-457723
-418448
-346362
-320086
-269661
-249367
-213361
-193462
-166178
-148636
-127264
-110553
-93640.9
-78209.1
-65337.3
-57018.6
-23666.2
-981081
-647275
-621829
-470279
-431662
-352189
-329998
-272616
-251493
-214902
-194433
-167004
-147928
-125671
-107636
-91823.7
-77694.9
-66013.7
-57703.5
-29869.4
-147094
-158062
-150128
-155356
-146870
-157531
-150036
-135018
-147265
-138759
-143965
-135120
-147212
-139088
-152390
-167363
-157612
-159015
-152262
-166977
-157452
-140623
-154239
-144165
-149166
-140714
-154142
-144223
-187070
-199123
-187545
-205940
-187443
-200583
-188029
-168008
-183111
-171468
-181992
-167625
-183408
-171451
-155501
-167861
-158796
-163869
-155602
-167926
-158635
-143964
-155784
-146843
-152754
-143893
-155610
-146682
-130882
-143695
-134259
-140986
-130935
-143563
-134214
-118518
-130981
-121640
-127999
-118549
-130937
-121645
-105991
-118412
-108644
-115444
-106009
-118392
-108608
-92341.8
-105149
-94808.3
-102369
-92110.6
-105070
-94492.7
-188599
-198556
-188695
-201482
-188349
-198791
-188681
-172282
-184234
-174827
-183934
-172328
-184252
-174713
-159812
-172011
-163486
-168759
-159604
-171848
-163219
-147747
-160431
-151115
-156598
-147572
-160151
-150881
-135329
-148008
-138755
-144479
-135219
-147853
-138707
-122563
-135686
-126131
-132012
-122531
-135592
-125873
-109602
-122760
-112108
-119333
-109585
-122486
-112137
-95889.6
-108670
-98038.6
-106180
-95658.4
-108693
-97959
-189289
-199732
-193530
-199741
-189392
-199748
-193394
-176479
-190846
-183245
-185303
-176326
-190660
-183212
-165030
-180278
-171140
-173550
-164819
-180276
-171131
-152563
-167778
-157975
-161711
-152602
-167782
-157885
-140287
-154691
-144529
-149470
-140016
-154544
-144450
-127271
-141060
-130756
-136836
-126986
-140990
-130617
-113273
-127157
-116398
-123582
-113126
-127029
-116449
-98958.3
-112837
-102173
-109594
-98862.4
-112870
-101916
-196017
-210297
-203028
-202355
-195939
-210310
-203263
-185569
-200137
-192063
-193152
-185535
-200386
-192154
-173470
-188665
-180705
-182601
-173435
-188887
-180774
-160067
-177099
-166908
-169981
-160010
-176995
-166801
-146051
-162975
-151917
-156454
-146124
-162933
-152041
-131986
-147557
-136632
-142462
-131944
-147767
-136813
-117517
-132505
-121883
-128232
-117633
-132740
-122020
-103142
-117699
-105875
-113964
-102896
-117770
-105687
-187529
-201077
-188209
-206080
-187690
-201118
-188464
-167589
-183515
-171380
-182084
-167775
-183488
-170886
-155610
-167848
-158529
-163918
-155372
-167305
-158030
-143850
-155502
-146600
-152347
-143601
-155030
-146305
-130942
-143497
-134197
-140732
-130935
-143277
-134172
-118552
-130919
-121639
-127931
-118550
-130892
-121625
-106012
-118380
-108596
-115392
-106065
-118362
-108627
-91983.8
-105047
-94381.7
-102298
-91918.5
-105088
-94445.1
-188368
-198910
-188622
-202238
-188461
-198830
-188420
-172219
-184209
-174635
-183636
-171586
-183993
-174288
-159476
-171743
-163051
-168114
-158947
-171319
-162256
-147482
-160023
-150708
-156024
-147189
-158857
-149926
-135168
-147701
-138615
-144169
-135035
-147052
-139235
-122514
-135546
-125834
-131878
-122486
-135636
-125784
-109580
-122444
-112154
-119279
-109603
-122410
-112293
-95553
-108718
-97871.6
-106206
-95564.4
-108866
-97979.6
-189372
-199919
-193461
-199893
-189272
-200333
-194094
-176238
-190668
-183178
-185152
-175967
-191210
-183001
-164687
-180235
-171086
-173042
-163961
-179967
-170771
-152565
-167752
-157856
-160437
-152519
-167497
-157692
-139959
-154497
-144402
-149452
-141020
-154316
-144224
-126961
-140944
-130590
-137140
-126969
-140819
-130578
-113122
-127008
-116469
-123554
-113254
-127014
-116591
-98748
-112895
-101732
-109782
-98888.2
-113003
-101781
-196003
-210653
-203357
-202984
-196656
-210660
-203955
-185544
-200491
-192247
-193615
-185518
-201000
-192772
-173393
-188997
-180814
-182401
-173135
-189359
-180944
-159954
-176916
-166737
-169628
-159755
-176606
-166419
-146121
-162867
-152081
-156241
-146091
-162322
-151999
-131947
-147843
-136875
-142409
-131979
-147606
-136822
-117672
-132805
-122039
-128297
-117818
-132528
-122112
-102743
-117687
-105580
-114122
-102849
-117558
-105688
-187800
-201328
-188483
-206341
-188522
-201265
-188739
-167801
-183380
-170602
-181932
-167291
-182973
-169635
-155243
-167035
-157820
-163242
-154678
-166109
-157185
-143498
-154841
-146200
-151468
-143156
-154292
-145944
-130941
-143203
-134184
-140317
-131011
-143032
-134252
-118547
-130900
-121633
-127813
-118579
-130979
-121716
-106097
-118369
-108670
-115291
-106298
-118443
-108860
-91877.9
-105145
-94487.8
-102268
-92220.4
-105372
-94952.6
-188456
-198952
-188395
-202676
-188577
-200563
-188979
-171301
-183935
-174149
-182961
-170423
-184177
-173774
-158742
-171159
-161861
-167025
-158155
-170715
-161336
-153422
-152973
-156683
-155690
-153621
-152830
-156518
-142254
-141125
-145115
-144025
-142278
-141078
-145037
-122492
-135636
-125807
-132021
-122580
-135800
-125982
-109626
-122442
-112363
-119351
-109744
-122637
-112585
-95561.6
-108935
-97946.3
-106387
-95903.6
-109149
-98215.8
-189288
-200619
-194375
-201930
-189944
-201530
-195252
-175833
-191405
-182907
-185471
-175490
-191843
-182607
-163615
-179826
-170613
-172457
-163130
-179379
-170197
-158867
-158078
-161988
-160750
-159045
-159579
-161722
-148266
-145915
-150765
-149469
-147819
-145661
-151028
-126996
-140797
-130602
-137183
-127141
-140859
-130736
-113337
-127042
-116645
-123764
-113626
-127170
-116860
-98858.4
-113063
-101733
-110167
-99181.8
-113301
-102243
-196965
-210987
-204219
-204023
-197762
-210508
-205034
-185482
-201188
-192952
-194322
-185408
-201914
-193885
-173021
-189434
-181006
-182038
-172738
-189676
-181277
-159692
-176526
-166364
-169210
-159588
-176377
-166375
-146100
-162191
-152009
-156099
-146145
-161888
-152117
-132012
-147487
-136827
-142458
-132150
-147226
-136973
-117872
-132450
-122196
-128458
-118106
-132317
-122565
-102865
-117576
-105736
-114431
-103555
-117718
-106491
-188844
-201397
-188841
-205974
-188210
-201290
-189279
-167039
-182964
-169348
-182064
-167108
-183919
-169294
-154516
-165823
-156997
-162214
-154158
-165459
-156590
-143055
-154135
-145886
-150398
-142907
-153770
-145786
-131068
-142997
-134286
-139673
-131339
-142955
-134536
-118599
-131036
-121770
-127518
-118809
-131302
-121972
-106380
-118487
-108936
-114950
-106821
-118583
-109092
-92296.5
-105450
-95046.9
-101933
-92919.3
-105581
-95520
-188848
-201250
-189712
-203333
-189910
-202460
-191667
-170187
-184619
-173698
-184501
-170219
-186977
-174092
-157987
-170608
-161510
-166557
-157605
-170700
-161552
-146823
-158165
-149850
-154847
-146756
-158811
-150291
-135210
-147066
-139424
-143973
-135571
-147472
-139043
-122651
-135860
-126057
-132473
-122957
-136041
-126371
-109798
-122703
-112636
-119576
-109909
-122914
-112736
-95964.9
-109199
-98176.4
-106536
-96390.7
-109285
-98458.1
-190659
-202555
-195597
-204345
-192855
-204406
-197141
-175430
-192034
-182566
-188218
-175864
-193481
-183113
-163285
-179276
-170109
-172486
-163320
-179372
-170083
-152375
-166878
-157471
-160481
-152190
-166763
-157565
-141016
-154171
-144325
-149249
-140345
-154273
-144642
-127189
-140922
-130795
-137255
-127456
-141167
-131024
-113683
-127227
-116938
-124003
-113784
-127379
-117111
-99169.9
-113389
-102269
-110330
-99559.3
-113562
-102799
-198065
-210620
-205100
-206609
-199191
-209748
-205528
-185431
-202508
-194408
-195703
-186111
-203886
-196214
-172692
-189848
-181443
-182324
-172780
-191327
-181789
-159603
-176395
-166520
-169205
-159754
-177265
-167146
-146174
-161823
-152246
-156160
-146351
-162043
-152456
-132210
-147180
-137109
-142644
-132397
-147423
-137505
-118196
-132300
-122747
-128631
-118410
-132461
-123055
-103683
-117775
-106702
-114715
-104505
-118229
-107540
-187972
-201388
-189366
-203639
-187095
-201151
-189383
-167428
-184160
-169796
-182091
-167538
-184347
-170572
-154096
-165804
-156558
-163111
-153313
-166487
-156790
-142920
-153726
-145778
-150206
-142117
-153888
-145770
-131259
-142950
-134604
-139312
-130729
-142913
-134462
-118691
-131375
-121996
-127466
-118362
-131256
-121673
-106533
-118523
-108981
-114967
-106214
-118303
-108663
-92640
-105491
-95383.9
-102264
-92669.1
-105207
-95360.1
-190105
-202878
-192106
-203373
-190228
-203428
-192715
-170762
-187428
-174727
-185105
-171602
-188013
-175600
-157577
-171145
-161573
-167652
-157877
-171991
-162089
-146766
-158793
-150389
-154992
-146827
-159127
-150587
-135653
-147592
-139157
-144036
-135570
-147787
-139120
-123018
-136150
-126428
-132440
-122694
-136054
-125987
-109805
-122876
-112644
-119255
-109497
-122339
-112342
-96300.9
-109207
-98344.2
-106161
-96311.4
-108957
-98382.8
-193408
-204793
-197539
-205205
-194136
-204913
-197952
-176483
-193934
-183515
-189470
-177337
-194481
-184295
-163336
-179789
-170229
-173798
-163901
-180578
-170649
-152195
-166847
-157614
-160870
-152277
-167267
-157787
-140435
-154305
-144729
-149373
-140426
-154449
-144744
-127518
-141237
-131083
-137286
-127163
-141257
-130884
-113692
-127371
-117043
-123500
-113382
-127135
-116720
-99422.8
-113502
-102626
-110012
-99433.9
-113233
-102629
-199521
-209716
-205671
-207267
-199991
-210127
-206221
-186504
-204077
-196805
-196627
-187287
-204535
-197397
-172952
-191817
-181924
-183385
-173404
-192754
-182454
-159833
-177744
-167341
-169883
-159997
-178827
-167899
-146406
-162298
-152400
-156331
-146357
-163022
-152487
-132387
-147673
-137491
-142736
-132242
-148411
-137617
-118348
-132692
-122965
-128417
-118083
-133253
-122926
-104306
-118460
-107356
-114487
-104259
-118906
-107310
-150561
-150027
-147933
-146994
-150752
-149898
-147797
-153573
-157305
-155523
-158828
-154220
-157023
-154896
-150945
-148936
-152959
-149828
-151583
-148392
-152800
-153289
-155523
-152561
-156218
-152691
-156360
-153237
-150471
-146920
-149698
-147749
-149788
-147744
-150468
-153390
-158626
-156768
-155246
-156823
-154760
-153905
-150856
-149795
-148761
-152828
-148351
-152753
-151358
-139421
-138052
-136354
-135031
-139396
-138029
-136426
-143237
-146159
-144161
-146936
-143493
-145749
-143684
-140978
-137809
-141221
-138589
-140800
-138236
-141354
-142245
-143982
-141082
-145017
-141064
-145011
-142245
-139438
-135065
-138079
-136470
-138038
-136469
-139446
-143226
-146903
-146056
-144113
-145734
-143690
-143407
-140972
-138635
-137958
-141433
-138265
-141249
-140835
-156532
-155456
-153716
-152762
-156468
-156254
-153915
-161372
-164771
-164188
-167241
-161556
-164620
-164098
-158386
-155545
-160858
-157548
-158519
-155472
-160778
-158813
-160581
-157800
-161579
-159652
-161550
-158767
-156479
-152725
-155263
-153484
-156242
-153862
-156220
-161251
-167111
-164374
-163874
-164478
-163991
-161220
-158292
-157489
-155339
-160606
-155405
-160690
-158252
-145641
-143074
-141834
-139723
-144972
-141819
-142125
-149410
-152479
-150949
-154192
-149414
-152446
-150916
-146319
-142857
-147520
-144142
-146267
-142930
-147479
-148219
-149491
-145835
-150566
-145682
-150987
-147690
-145565
-139579
-143030
-141843
-141833
-142091
-144924
-149395
-154157
-152339
-150920
-152403
-150905
-149324
-146343
-144161
-142920
-147533
-142968
-147482
-146263
-190951
-205557
-191847
-201862
-190345
-204971
-191167
-166280
-181237
-168726
-179178
-166263
-180870
-168612
-157251
-161491
-156099
-161995
-156973
-161705
-156156
-143744
-151392
-146287
-150360
-143737
-151346
-146224
-133184
-140343
-134536
-138340
-133182
-140353
-134494
-119938
-127806
-121527
-125681
-119954
-127780
-121509
-108506
-115133
-109227
-113463
-108502
-115085
-109134
-95515.8
-101778
-95529
-101418
-95565
-101837
-95426.4
-211688
-211057
-206862
-211137
-212525
-211788
-207647
-198863
-200692
-204901
-205991
-200582
-205015
-198881
-176697
-175280
-182013
-181853
-175605
-182273
-176607
-162652
-161600
-165631
-164161
-161540
-165585
-162627
-150842
-150513
-153718
-152773
-150500
-153706
-150868
-138564
-138154
-141656
-141036
-138125
-141630
-138594
-125790
-124685
-128926
-128001
-124696
-128935
-125792
-113026
-112411
-116365
-115457
-112412
-116365
-113019
-99486.7
-99339.9
-102842
-102402
-99349.6
-102854
-99478.9
-83097.7
-89152.3
-84234.7
-87268.4
-82993
-88984.6
-84189.1
-210992
-205334
-206792
-211318
-211680
-205623
-207097
-196249
-197439
-199579
-200953
-197495
-199492
-196389
-179945
-180164
-183795
-184085
-180175
-183792
-179892
-166661
-165705
-169591
-168805
-165681
-169564
-166701
-154860
-153846
-157924
-156781
-153797
-157864
-154928
-142641
-141554
-145733
-144595
-141530
-145689
-142679
-130092
-128930
-133311
-132087
-128914
-133285
-130116
-117051
-116153
-120354
-119344
-116152
-120332
-117057
-103581
-102832
-107036
-106208
-102820
-107038
-103582
-85197
-92201.9
-86706.5
-91102.1
-85299.2
-92157.4
-86701.2
-209292
-199377
-204710
-204600
-209475
-199317
-204731
-196445
-197819
-197951
-199697
-197881
-198092
-196380
-183894
-182133
-186651
-185284
-182152
-186686
-183860
-172757
-170955
-175616
-173687
-170934
-175617
-172760
-160604
-158921
-163779
-161939
-158883
-163775
-160582
-147900
-146349
-151024
-149442
-146358
-150990
-148000
-135160
-133944
-138440
-137002
-133816
-138406
-135155
-121368
-120452
-124746
-123793
-120349
-124830
-121280
-107154
-106191
-110687
-109605
-106176