/*--------------------------------*- C++ -*----------------------------------*\
  =========                 |
  \\      /  F ield         | OpenFOAM: The Open Source CFD Toolbox
   \\    /   O peration     | Website:  https://openfoam.org
    \\  /    A nd           | Version:  10
     \\/     M anipulation  |
\*---------------------------------------------------------------------------*/
FoamFile
{
    format      ascii;
    class       surfaceScalarField;
    location    "9.7";
    object      phi;
}
// * * * * * * * * * * * * * * * * * * * * * * * * * * * * * * * * * * * * * //

dimensions      [0 3 -1 0 0 0 0];

internalField   nonuniform List<scalar> 
38556
(
1012.28
12.4762
-2185.49
1666.44
-567.896
-86.263
1361.99
-443.352
747.803
1192.89
-464.498
633.601
878.505
-297.302
611.683
894.174
-204.083
188.413
891.508
-97.899
100.565
946.912
-122.677
67.2734
948.746
-109.252
107.418
962.02
-128.892
115.618
954.009
-116.075
124.086
955.209
-115.947
114.747
953.29
-106.219
108.137
961.488
-99.7336
91.5351
979.697
-91.7549
73.5462
1022.28
-83.1375
40.557
1074.45
-65.1392
12.9627
1116.69
-47.24
5.00278
1161.96
-38.1229
-7.1497
-28.8732
5.98682
2683.54
-137.849
4237.77
3064.9
-699.862
-249.391
2905.23
-410.919
127.228
2502.42
-302.159
240.48
1392.98
87.595
724.535
948.421
-20.72
261.2
782.818
-29.35
97.054
751.425
-118.97
27.6865
727.624
-128.162
42.7104
727.247
-142.853
14.3383
719.374
-117.854
9.65262
714.976
-98.5253
-13.0242
708.52
-76.1997
-23.5625
706.28
-57.6123
-39.8818
706.082
-43.1469
-48.4096
711.249
-29.0242
-59.2802
725.438
-15.8237
-63.5052
740.011
-2.18407
-59.6283
754.031
2.00982
-54.1533
3.6527
-37.6859
2043.41
660.789
-1097.06
1919.89
-151.457
-424.885
936.105
93.8117
479.056
635.391
7.83493
-9.28063
485.6
169.436
67.9498
480.311
50.2542
-65.685
537.798
-57.5932
-29.2441
572.938
-106.205
-47.9063
598.233
-144.86
-8.59645
609.443
-121.81
-32.2538
615.616
-103.302
-20.724
620.839
-68.6822
-35.0659
623.869
-49.3713
-29.8592
629.034
-25.7967
-36.9806
634.107
-11.799
-36.4206
637.774
4.96941
-37.6608
643.297
14.1233
-35.47
644.027
22.7646
-25.6791
642.415
27.0112
-23.3886
25.4318
-18.2741
395.066
766.554
4412.05
368.271
92.2811
-216.942
515.814
38.5148
-92.2462
351.331
86.7746
85.5433
538.165
5.03925
-22.4365
554.696
52.8417
-19.1183
606.491
-140.507
31.1179
607.503
-112.967
5.75042
602.019
-173.332
33.9568
578.284
-105.282
7.20589
554.98
-87.9542
7.95557
531.971
-40.8211
-4.85201
516.523
-28.0786
-5.844
505.992
-1.95248
-13.3135
500.09
5.42543
-11.3225
498.673
15.523
-9.13615
502.021
22.0698
-11.2952
504.202
28.3935
-7.81016
508.536
30.7088
-8.03144
26.8858
-4.53567
598.318
917.859
-1966.44
571.079
227.169
-107.649
833.621
-1.57535
-222.452
753.741
191.455
-24.8011
689.533
90.782
-21.5346
604.822
189.184
-51.6307
553.264
-131.618
42.6692
526.765
-103.205
16.7369
535.79
-234.28
51.9235
522.657
-115.207
23.0592
510.161
-95.0882
19.6299
492.884
-20.3463
-3.19768
485.011
-21.8932
1.68714
483.009
5.40115
-5.35156
485.362
2.97002
0.102344
489.737
14.0044
-2.85633
495.386
21.4155
-4.99524
495.145
30.449
-1.81426
496.292
32.8953
-3.33321
27.2085
-2.65873
1543.65
246.866
-1613.27
1918.23
155.243
-302.654
2111.03
162.344
-356.713
2322.86
275.846
-296.221
2133.64
317.665
-37.6701
1773.67
458.441
90.7197
1199.17
197.268
245.613
885.989
71.0541
138.92
741.49
-220.602
130.82
603.373
-55.4082
78.3182
493.926
-30.0489
44.408
430.546
42.0833
0.950237
407.882
11.8647
-11.0942
399.625
20.6904
-7.03236
406.386
1.30283
-5.09383
423.605
6.39677
-9.61114
447.299
8.15065
-10.4292
465.446
17.3
-4.99793
480.802
22.8281
-5.28926
19.7384
-1.91343
1114.46
-245.389
-300.051
1433.14
107.423
-270.859
1625.85
119.124
-149.484
1787.66
203.206
-89.1724
1706.48
322.844
76.0052
1578.25
547.569
39.0938
1293.43
108.865
119.291
79.5034
97.5307
76.9045
1045.94
49.7519
149.468
28.9594
54.0202
36.3409
772.832
-32.3243
183.86
-38.7119
-24.1749
-36.1426
538.135
19.9718
80.5745
31.3776
18.1816
29.1837
405.094
23.5694
39.6321
9.8744
20.8515
9.06456
361.757
22.1978
6.45452
17.7343
21.2421
17.7921
361.672
9.39064
-1.30652
-4.32509
9.65117
-1.4605
367.404
5.15599
3.44743
-2.64184
7.60725
1.38923
378.793
-13.9246
3.83862
394.738
-12.6879
3.13996
417.728
-16.0619
1.22191
437.535
-0.101182
-2.40605
453.903
10.4219
-3.96101
13.1807
-1.77615
801.883
462.017
1912.56
1399.5
447.525
-937.718
1654.19
382.637
-518.208
1780.99
217.64
-141.228
1848.27
158.926
96.6389
489.023
45.2141
128.542
507.287
499.104
518.524
67.812
57.9423
82.3894
488.706
97.7507
11.4313
-481.326
436.47
37.0212
57.5866
-363.006
265.258
25.3571
40.0667
-175.73
133.678
47.1167
14.9078
-113.312
98.1345
37.1988
1.54782
-88.9792
91.678
23.0886
-3.58959
-95.5616
98.0997
10.2479
-3.39543
-96.8432
100.632
3.9162
-2.54928
404.371
3.6473
-1.32868
-100.977
-109.611
-95.8389
-102.263
-9.16792
4.33096
-7.0877
420.42
-33.7351
4.99812
435.382
-33.2535
2.22917
447.88
-20.0475
7.44912
451.812
5.82684
0.663176
13.2609
-0.649818
1344.07
1336.11
-38.5708
1534.39
490.957
-233.758
1480.86
721.546
-285.379
1509.75
459.896
-271.139
383.057
400.692
-209.09
369.199
375.478
349.336
417.126
27.0943
-15.9488
-11.6421
-111.035
112.198
6.36196
4.11769
-106.398
-6.39396
91.8954
7.73361
13.1634
-56.0198
-24.5253
55.0166
29.2512
-3.72277
-43.1676
-19.7125
40.5895
20.5122
1.77835
-34.4783
-11.9537
34.3098
11.5185
0.603649
-32.5981
-6.86932
32.7259
6.91792
-0.176318
-32.4239
-3.76732
32.6135
3.86331
-0.28556
-31.2002
-1.85448
31.4765
1.84429
-0.266088
-30.7492
122.812
6.96215
-3.35855
-31.3861
-30.1472
-30.4854
484.566
-21.3122
-13.9136
-119.623
-127.357
-114.097
-121.998
488.402
-38.9767
1.88658
487.311
-29.023
10.0664
480.316
5.97514
6.84743
18.3616
2.23288
588.535
1778.58
3959.81
596.371
738.51
-255.389
713.52
812.037
-207.64
637.325
673.234
-137.143
140.745
608.467
-81.8027
111.454
134.357
124.797
-73.3704
146.043
101.584
-33.5111
-11.4011
-37.6285
39.6671
12.6854
-3.32292
-32.2352
-37.8744
32.1113
29.8505
8.14777
-34.0876
-35.7676
38.1217
31.18
0.553494
-20.4823
-42.1795
42.8736
18.3206
1.46759
-11.1248
-43.5983
43.368
10.866
0.489092
-8.17971
-42.2872
41.7122
8.4183
0.336399
-6.15762
-39.2077
38.4218
6.6639
0.279608
-4.38059
-36.6502
36.2843
4.89628
-0.149801
-36.4962
-10.5896
148.726
14.0139
-5.86803
-37.0456
-35.9548
-36.7855
583.442
12.794
-19.8288
-149.745
-155.904
-142.367
-149.703
562.319
-20.4409
2.58668
546.458
-14.191
1.02985
530.135
17.9833
4.3146
29.8182
0.40556
-554.071
615.118
1507.65
279.294
632.931
-727.786
556.793
747.3
-212.762
432.227
673.418
124.382
65.9231
610.238
104.647
87.4677
78.8746
93.5441
-118.6
58.7253
135.017
-9.21948
-25.4912
-14.1808
14.5771
26.5437
-1.44873
-23.8089
-17.0708
19.139
23.5351
-1.79428
-19.4826
-29.1767
32.4317
17.155
-0.927348
-12.5414
-39.1
40.3961
11.5162
-0.270834
-7.90341
-43.4548
44.4518
6.57258
0.333806
-4.94561
-47.3989
48.258
3.55425
0.532278
-3.48017
-51.2028
51.8956
1.21578
1.57157
-4.60103
-51.3044
50.0011
4.18059
1.72377
-45.3911
-19.1027
175.864
25.6323
-1.97081
-45.8432
-44.4747
-44.7137
601.437
54.0742
5.29811
-167.868
-167.758
-157.861
-154.528
543.96
26.9151
10.1212
512.447
21.1208
-3.79902
501.517
32.9034
-3.9899
38.6176
-3.24082
-757.106
1452.02
790.668
-497.251
641.553
-268.477
317.251
371.572
-438.773
465.105
545.179
-19.6149
142.586
489.785
-37.6282
176.472
137.216
166.912
-138.848
181.084
108.133
-7.784
-26.9987
-47.9725
49.2439
25.4759
0.251389
-17.1926
-50.1984
45.6708
16.7915
4.9287
-9.04598
-38.4123
39.0103
9.30406
-0.856143
-8.17985
-39.7724
39.753
8.05347
0.145719
-4.84598
-38.1904
37.5981
5.06862
0.369587
-2.16777
-35.5907
35.2415
2.63058
-0.113622
-0.267312
-34.8171
35.0624
0.950962
-0.929013
-2.76475
-36.9398
37.8962
2.73313
-0.924766
-41.1767
-29.0998
163.649
23.6149
-1.88387
-38.2238
-39.9487
-36.931
485.935
89.3667
26.0431
-152.525
-133.039
-140.013
-121.694
427.76
62.6899
22.3998
408.368
42.2833
-1.77061
417.568
31.7049
-8.00173
32.1489
-4.82485
681.36
3095.22
40.4656
438.039
1084.8
-199.926
548.063
711.028
-449.48
598.001
601.696
-106.455
622.845
467.736
-2.79506
150.144
250.306
37.5967
-77.71
-48.9978
-78.1101
-48.7301
148.566
146.777
143.002
-19.1888
148.314
82.3491
5.81712
-23.6865
-19.6615
-23.7992
-20.0128
-123.341
115.038
76.8344
13.117
-21.0162
-20.0264
-20.593
-17.8607
-114.826
113.434
64.6155
9.98541
-19.3393
-17.1594
-18.8491
-10.6835
-99.2108
98.4752
35.5465
5.46873
-9.64024
-10.3867
-9.56926
-5.52667
-99.9025
99.6222
23.7548
-0.133139
-5.82755
-5.88237
-6.10483
-2.84654
-93.6482
94.9972
15.6954
-3.50209
-3.33037
-3.44151
-3.92384
-1.96421
-96.0607
99.0518
15.0265
-6.15781
-3.15352
-2.78154
-3.96048
-3.21465
-99.0374
105.698
16.0462
-5.34758
-4.71137
-4.01391
-5.41948
348.59
104.716
5.73005
-20.4166
-33.6451
-21.0375
-33.6147
-101.874
-80.5515
-92.813
-75.0843
339.417
88.7512
9.78852
329.196
73.0687
-0.157796
330.908
47.7476
-7.17608
347.394
22.0247
-6.8059
14.3189
-1.41329
1859.89
1739.31
-3324.43
1249.65
970.651
724.393
459.043
817.225
684.408
305.294
631.324
124.121
247.623
475.678
49.7293
189.95
282.706
25.2736
236.461
350.682
50.2787
-91.0107
-133.594
-90.4725
-132.394
256.6
125.058
53.9582
-56.2188
-45.0268
-54.6524
-43.2571
296.946
165.037
43.3429
-53.4319
-71.5665
-52.6766
-71.0506
309.7
76.3858
18.9026
-28.4968
-24.8857
-28.5596
-26.1012
313.6
99.2761
23.1887
-24.3638
-36.287
-26.9901
-38.7232
306.205
67.3929
13.2173
-13.2813
-20.5037
-16.2515
-23.1792
296.688
93.9733
14.0911
-16.1084
-30.4496
-19.2747
-32.7148
293.729
92.6507
5.60787
-16.0952
-30.2168
-18.0811
-30.9067
296.356
102.962
-0.872018
301.825
89.4284
-6.14686
308.884
78.5008
-12.4906
316.038
55.0153
-14.4216
328.787
16.9266
-7.65062
4.13127
-2.66823
534.165
-136.866
-1098.27
897.288
590.126
17.402
508.955
1112.66
92.8945
370.353
877.834
-107.907
194.423
731.288
-79.6805
132.521
412.926
-68.3177
216.259
305.015
-38.0719
231.558
136.103
-26.3434
279.407
114.384
2.80355
302.384
53.346
0.0629099
317.616
71.7788
12.2656
320.106
55.7249
9.17847
313.852
81.3102
18.9169
307.228
86.7134
12.5607
313.246
96.7349
0.209647
323.674
84.7171
-5.71629
344.865
74.4815
-17.1718
365.542
51.6064
-17.2682
366.632
23.828
-7.99083
11.4074
-5.66438
575.813
818.376
-171.004
806.227
910.283
-550.571
313.185
1157.07
448.638
350.365
852.286
-11.6322
382.425
683.763
15.4643
455.896
417.394
-77.9391
458.541
323.088
-20.718
446.729
174.861
-26.9464
391.471
144.33
25.3123
368.989
76.1655
-0.337637
357.484
77.6178
5.66593
364.1
59.4955
-10.3859
370.196
70.31
4.90387
378.167
75.9572
2.78554
387.496
85.7297
1.67595
396.408
78.471
-2.66559
407.205
69.7134
-6.02937
415.798
52.8658
-9.85255
409.943
34.3216
-4.63829
21.1416
-4.33347
1083.93
1597.03
-2268.98
250.841
1747.79
-4.41061
295.397
1317.65
-205.144
302.238
914.236
-68.7914
342.481
683.377
-39.8574
380.603
433.345
-54.0735
344.11
331.137
28.4444
311.04
202.01
5.92117
266.96
155.455
32.9563
255.801
88.2664
-0.942351
264.957
68.599
-0.136436
289.363
47.8289
-12.7401
317.455
45.5732
-3.35483
348.995
51.8126
-7.39538
378.122
61.1392
-4.53656
398.293
62.1588
-3.85884
414.173
59.6575
-5.82403
421.907
47.6401
-2.50873
417.701
35.4242
3.10398
22.9664
1.86822
-58.2258
319.774
-600.42
-484.526
1421.68
752.406
-12.9029
989.769
-143.737
210.492
734.149
-43.3079
375.766
523.954
-5.85118
423.064
390.917
-4.87001
307.676
295.471
151.055
251.043
201.304
57.3394
216.753
133.446
56.2983
226.692
80.7857
-2.45854
249.21
43.034
3.04723
281.155
23.8298
-7.94579
313.07
13.1752
0.482447
349.243
15.6816
-0.0413926
382.987
21.1752
6.21942
409.625
31.978
3.54333
430.201
37.0663
2.01533
440.747
33.2905
3.80343
441.172
29.6809
5.31842
21.0053
2.64388
446.618
-92.6426
-0.456647
474.491
880.214
513.593
193.021
768.222
503.016
289.622
452.306
185.242
252.381
366.666
194.529
288.69
279.364
75.2446
255.168
214.292
114.7
289.687
153.397
13.3882
316.234
81.3156
25.5833
357.566
44.5416
-5.0882
380.313
4.74317
15.5436
401.762
-11.1327
13.5139
414.931
-21.3268
21.3327
432.321
-15.5813
13.8732
447.698
-8.83779
14.6365
464.641
2.92551
12.1089
481.113
14.3082
6.28573
490.647
19.8818
3.87516
495.525
21.5701
3.23265
16.6661
2.85141
-1598.67
1930.94
-724.005
5.54422
32.6866
11.5308
261.597
223.396
327.558
300.706
485.888
121.034
572.96
127.22
708.343
18.0137
764.092
25.567
807.687
0.946533
790.809
21.6218
773.069
6.60737
743.433
8.30918
734.927
-7.07513
735.504
-9.41502
732.438
5.99123
723.313
23.4333
715.753
27.4418
715.735
21.5882
14.2226
124.351
173.363
259.473
622.158
-125.931
-458.139
882.562
19.9228
467.477
1153.08
-66.3158
429.4
1161.56
-15.2378
618.44
1194.57
-25.7003
181.108
1050.56
-0.377482
244.944
1019.43
-67.5306
165.937
980.346
-58.3794
204.883
985.462
-74.1842
184.687
981.286
-57.2322
185.494
992.5
-56.7156
160.248
1002.72
-46.3949
144.311
1032.11
-43.2777
105.42
1071.38
-33.7043
67.9887
1113.18
-25.2694
24.0272
1146.83
-11.0965
-9.59834
1164.04
2.71921
-14.9206
1172.91
7.01696
-23.0367
7.66579
-3.04886
1353.69
1268.93
931.804
1594.33
227.529
-843.49
1455.44
46.7058
239.336
1365.74
-48.8784
312.739
973.019
143.161
958.861
822.057
18.2126
368.249
684.688
17.148
216.897
660.803
-71.4481
55.4895
652.169
-63.7659
56.7309
661.099
-70.8813
2.1054
666.037
-46.5326
-5.98512
670.442
-33.6425
-40.5027
671.725
-15.3588
-55.881
673.964
-5.52192
-79.8771
675.122
5.82628
-89.0982
677.173
8.75764
-95.3586
682.758
15.16
-95.3462
687.482
19.5781
-81.2112
690.122
19.0021
-68.7789
18.3364
-48.88
1126.34
1510.94
1517.59
821.65
-135.509
242.845
505.012
13.0517
829.348
383.905
-64.2131
127.161
371.922
82.4933
140.6
348.772
2.01543
-26.337
418.615
-67.8678
-14.0714
440.401
-88.9944
-52.1459
486.439
-106.74
-11.6597
503.199
-74.9993
-44.8958
520.227
-55.9269
-28.3587
525.494
-26.6914
-47.284
529.16
-9.48027
-39.4034
529.288
7.40417
-50.0354
529.147
13.3191
-43.7728
525.73
17.6238
-43.1091
523.38
22.5952
-40.556
521.065
26.1374
-29.9234
518.675
26.4137
-28.4104
22.1698
-20.5032
232
-7.31142
2648.15
-37.6415
-261.975
179.166
390.513
-235.766
-271.582
254.507
13.7509
143.585
404.724
-105.624
15.4628
370.974
6.71582
9.93182
460.699
-169.118
42.643
461.732
-95.5448
11.2674
489.625
-139.528
38.8512
477.371
-60.5292
4.99042
469.343
-46.8047
6.86127
450.627
-1.73779
-11.0901
437.697
10.0631
-12.4565
426.206
21.8557
-16.2742
418.365
23.0866
-13.2493
412.276
27.6815
-13.1051
410.231
28.1443
-14.799
409.385
28.9649
-9.79203
411.97
27.1575
-11.3608
21.6217
-8.71777
789.727
-23.4054
605.303
631.928
-300.192
88.3665
684.267
-270.751
-239.805
577.152
67.3466
28.7176
519.844
-86.8331
16.9828
415.578
89.6322
-30.2809
420.603
-161.656
30.1825
403.882
-82.2412
20.1541
438.377
-182.13
60.0313
428.968
-54.9539
26.893
424.226
-45.983
23.5503
406.176
22.4853
-9.37077
398.414
17.4887
2.02376
391.943
28.7556
-5.78101
389.77
25.0664
0.295783
387.306
30.7245
-3.43523
386.483
30.2628
-6.2918
385.476
31.4116
-3.25413
387.74
27.9652
-6.40469
20.6236
-6.76177
1248.46
-267.049
-1425.53
1472.21
-158.35
-668.25
1422.09
20.0908
-597.44
1386.13
139.698
-332.611
1117.22
164.528
-20.1181
925.223
286.271
86.0759
734.238
51.6516
223.291
610.423
22.2757
158.218
548.596
-162.54
173.057
473.094
19.784
79.0823
410.664
16.3826
44.473
367.088
59.0484
7.96315
347.022
32.4314
-5.97078
335.912
39.2691
-6.43649
336.748
23.4991
-4.36178
342.397
24.6293
-9.16502
352.148
21.154
-11.0715
360.432
23.0221
-4.89256
369.508
21.0654
-7.46553
15.3733
-5.77692
631.194
-408.495
-2419.26
1033.29
40.5279
-871.839
1238.84
78.385
-413.323
1268.32
194.057
-173.01
1156.27
330.75
21.8354
1006.05
503.667
-28.0843
815.171
84.5069
101.894
52.3057
80.0196
43.0935
677.33
39.4006
184.802
27.7914
30.7085
26.8834
524.335
-16.9453
250.014
-27.1706
-11.4815
-20.1016
398.52
25.4905
105.035
34.4497
26.8177
34.3801
337.799
22.0418
50.1053
11.4376
21.4581
11.6928
308.747
22.1293
10.5839
19.3978
22.3387
20.1055
306.58
11.9019
2.57912
2.3453
12.6602
3.80489
308.189
11.2476
5.0806
4.82341
12.8578
7.09835
315.715
16.6639
3.14764
324.946
16.6194
1.91937
336.264
12.9339
-1.87606
344.843
14.1817
-2.14484
353.198
14.3613
-5.61249
12.3042
-5.97475
778.57
495.82
-888.459
1187.91
348.772
-1655.3
1205.57
313.603
-771.083
1250.97
251.48
-244.049
1365.24
261.966
51.1452
382.286
88.3294
73.9637
398.064
346.323
362.64
116.159
99.0155
130.672
-31.8969
392.014
95.2664
11.4087
-95.1608
-394.098
384.003
49.1886
95.4678
-94.0271
-340.95
244.144
36.4846
137.403
-29.9405
-154.014
120.338
45.3561
43.751
-2.64968
-105.301
92.9233
32.6399
4.42934
5.41346
-83.6711
83.875
22.0997
-5.58781
5.42723
-85.3388
85.3929
11.9737
-5.55315
3.90626
-82.8291
85.7858
7.76598
-3.38134
333.156
8.33181
5.7917
-85.3247
-90.5669
-80.5254
-84.3272
-1.88098
9.4464
1.23393
345.584
-3.567
12.7569
351.025
4.43607
5.28677
354.77
9.60568
8.27923
353.239
16.4618
0.0941539
14.8926
-4.63623
1452.9
834.066
1524.61
1456.72
306.917
-195.731
1251.94
563.451
-330.442
1112.07
386.805
-266.602
276.658
391.301
-197.067
239.942
247.555
206.562
14.6088
308.212
67.9395
-25.7733
-9.72094
-19.9502
-88.2173
92.5508
17.5955
7.74212
-24.1606
-96.5321
-14.4323
95.4745
15.0397
24.6108
-16.5515
-73.9258
-23.516
60.7317
28.1349
25.1267
-8.2495
-36.9209
-18.7376
35.0378
19.3551
9.5151
-1.54625
-30.873
-10.7514
30.6871
10.881
1.60264
0.617332
-28.6934
-6.31514
28.5689
6.55935
-0.736976
1.04531
-27.7658
-3.74246
27.8172
3.84518
-1.19942
1.13892
-26.4611
-2.35824
26.7932
2.14681
-1.25955
-26.3212
6.15413
104.214
7.91536
-5.48449
-26.6528
-25.5981
-25.8955
391.945
-8.04893
0.631502
-100.55
-108.109
-93.8576
-99.4913
391.171
-5.06359
12.16
385.077
12.1749
13.5915
376.166
25.2988
6.92156
23.5014
-1.34683
1104.36
-420.755
-914.385
427.849
278.606
449.434
568.37
583.245
-367.955
383.192
525.943
-91.1052
86.2468
487.342
-109.074
84.2136
69.5356
74.4267
58.6336
-80.2381
92.0376
88.1167
-72.3031
16.2294
-15.7952
-28.0414
30.5392
16.0243
-18.9563
-2.3961
-23.1569
-35.2107
35.3261
25.854
-0.416373
-7.11497
-33.8155
-33.3974
33.9868
31.3314
9.00959
-4.18837
-19.601
-36.0114
36.3938
18.733
4.67392
-1.55439
-11.9127
-36.7736
36.6643
11.8629
1.71353
-0.997886
-8.28376
-35.7351
35.3125
8.6597
1.04462
-0.46728
-5.62877
-33.9601
33.5159
6.14967
0.390539
0.778301
-3.63656
-32.4551
32.2719
4.02479
-0.98325
-32.3632
9.25749
-8.44778
128.403
10.7302
-10.6783
-33.2685
-31.401
-32.2318
460.045
7.12683
-6.5159
-124.608
-131.237
-114.565
-118.124
440.219
9.58289
7.76649
423.268
23.917
6.23867
406.228
41.3524
5.30057
35.9456
-2.53869
780.443
-307.65
1809.66
465.306
449.285
-583.327
389.433
655.116
-208.761
273.876
644.864
121.019
51.8623
567.48
57.5661
74.5914
44.6455
69.7203
7.57865
-104.023
46.6642
114.244
-12.6014
4.28123
-24.7817
-12.4504
13.3817
24.6086
-5.03948
3.53901
-24.1067
-15.4484
17.1871
22.449
-3.61989
0.367521
-20.9064
-25.3444
28.0285
17.7204
0.134497
-0.475768
-14.4285
-33.7037
34.9159
12.8741
0.817947
-1.75296
-10.4973
-37.2813
38.0293
9.25137
2.25091
-1.89977
-7.90417
-40.3492
41.0867
7.02689
2.03957
-2.93224
-6.75964
-42.6446
42.8495
6.47228
3.0147
-3.17295
-5.9844
-42.0283
41.3539
6.94232
2.88945
-38.7263
3.44716
-16.1007
145.72
21.9094
-4.40316
-38.079
-37.2485
-36.5191
450.591
45.9595
17.3981
-134.962
-129.821
-120.88
-115.861
418.58
38.5535
13.1611
399.039
41.807
-2.1485
387.767
51.7951
-3.16001
43.244
-6.24342
-782.083
400.683
-1556.32
-606.211
674.286
-669.349
2.99539
408.246
-801.111
116.836
552.826
-41.4175
68.6171
460.229
-100.659
96.8834
46.6434
74.973
10.9753
-127.44
107.532
99.9145
-22.3654
-0.566062
-25.4121
-34.1578
36.6721
24.2873
-0.823466
-3.96973
-18.8705
-38.7909
39.43
19.3428
2.85832
-4.17887
-10.4653
-36.432
35.0889
10.3509
5.63645
-1.96915
-9.69537
-32.3801
32.2077
9.52088
2.31612
-0.342935
-7.51923
-31.8866
32.0093
7.52186
0.217599
0.950078
-5.98172
-32.0249
32.2553
6.01298
-1.21168
2.41012
-5.8861
-32.6939
32.9538
5.89272
-2.67663
2.35138
-7.812
-33.4525
33.7919
7.55608
-2.43486
-33.4021
2.05202
-25.6831
128.949
22.4964
-1.52768
-31.0551
-32.0228
-29.8067
358.776
84.5872
33.7685
-117.148
-97.6561
-103.142
-87.1829
337.69
63.1172
18.9217
330.978
50.9361
-4.18767
336.812
45.7326
-7.77326
37.6314
-8.06479
929.143
1255.17
-97.6104
643.71
1035.33
-275.533
331.173
698.726
-427.423
301.079
578.304
-101.839
335.51
425.261
-2.25809
81.4987
193.859
71.7053
-66.069
-32.269
-61.9771
-25.1386
82.009
63.0863
66.4019
-17.7803
-12.0336
89.6356
72.2822
11.1086
-22.483
-17.457
-21.7738
-18.3275
-30.8953
-71.6089
74.2779
63.3817
37.7678
-18.9052
-17.5233
-18.1672
-15.3306
-23.1002
-79.4121
79.3536
57.3106
28.5683
-16.4128
-14.9501
-16.0268
-10.1553
-9.61418
-68.3484
70.7713
37.042
10.6648
-10.0316
-10.1526
-10.176
-7.75975
-0.387097
-74.2786
75.6273
30.7555
0.0665261
-7.91932
-7.87816
-8.22643
-5.97698
5.07244
-71.3468
74.259
23.5971
-6.21396
-6.27919
-6.4043
-6.70728
-5.74805
9.01953
-76.3279
79.6619
23.518
-10.3348
-6.5948
-6.20943
-6.98439
-5.8044
6.87266
-77.4961
82.5776
22.2612
-7.6099
-7.34304
-5.94486
-7.51309
260.019
104.355
13.5984
-20.5702
-33.0058
-20.3106
-31.9944
-78.5348
-61.5569
-70.5986
-55.6706
259.982
83.6759
10.737
257.634
67.1235
-1.81636
264.831
45.7444
-9.18112
281.628
29.418
-7.28908
21.1728
-4.81109
-583.924
981.783
-3616.98
-135.894
803.515
508.174
80.7667
798.214
368.259
86.0003
582.58
114.611
120.668
426.085
14.238
76.8381
254.099
8.86277
130.884
363.582
63.8702
-85.4488
-130.083
-86.9688
-128.719
141.736
139.14
74.1215
-48.8046
-39.1062
-45.413
-36.831
179.496
204.869
55.9456
-54.0878
-73.1792
-54.3785
-73.586
188.148
108.539
26.4683
-31.4131
-29.6499
-32.4677
-31.2254
197.859
139.054
27.1338
-31.3614
-43.6324
-32.2692
-45.4478
196.739
100.242
15.2341
-21.1863
-27.5663
-23.2574
-29.1283
200.912
116.723
15.2269
-23.8389
-36.4735
-24.055
-37.6642
207.909
97.3164
6.9344
-20.4871
-32.4509
-20.6156
-32.0863
214.273
97.5874
-0.46825
220.46
76.7983
-5.45666
226.974
60.9529
-12.8342
234.398
38.3231
-14.4242
249.985
15.286
-9.10497
7.4594
-5.26965
41.755
393.254
-1218.85
222.04
563.635
76.9971
312.062
1017.41
-216.323
240
731.843
-185.108
92.6172
612.06
-118.274
50.7296
323.386
-95.716
116.174
273.876
-13.81
112.142
129.636
-12.808
156.973
144.135
18.7065
171.265
88.7592
5.55068
189.644
116.142
16.7974
194.951
92.2846
11.8293
202.966
106.968
20.6565
209.366
91.3706
12.1061
219.056
87.0348
1.07295
228.896
67.1377
-5.89545
239.803
50.912
-18.0383
247.988
29.2765
-16.4067
252.003
12.0629
-8.78192
4.59345
-8.31339
-429.604
1103.91
-342.323
-175.318
871.965
-1113.19
96.3858
981.259
213.084
163.016
707.084
-53.503
225.261
574.23
-8.95
243.312
323.286
-95.891
229.288
260.024
7.15878
212.832
134.535
-15.3898
200.879
138.884
42.517
199.106
88.1027
2.09209
206.621
102.489
11.8032
215.212
80.9669
-7.65854
229.261
88.8489
8.97384
242.975
77.0064
3.43536
255.527
72.4641
3.69543
265.877
56.2316
-2.11027
275.036
42.9291
-7.2052
279.53
25.3942
-10.464
277.273
14.4933
-4.81156
6.58895
-7.66382
-522.395
386.288
-3963.96
-546.099
1431.62
-540.363
77.731
1016.71
-864.428
111.61
702.932
-98.5198
192.052
522.359
-68.427
210.434
304.816
-53.9861
185.952
257.2
55.7509
154.142
156.061
16.2043
142.362
139.53
44.0896
139.569
89.7979
0.156312
158.837
80.9161
2.16843
179.526
59.9149
-12.3775
208.27
57.2999
-0.549916
233.515
49.3805
-5.01448
256.388
46.576
-1.52099
273.211
37.8541
-2.3046
285.754
31.1239
-6.56229
292.477
19.6682
-3.50494
293.357
13.8378
2.87923
7.26924
-2.51444
-1264.43
504.627
-2084.3
-834.599
1000.76
753.439
-346.454
695.846
-311.014
-174.663
457.75
30.0835
23.5674
311.442
6.83528
65.4291
237.703
20.3813
101.663
209.477
162.544
103.514
157.767
53.7819
120.351
118.2
60.7929
134.753
80.95
-8.0135
162.581
51.4529
4.68228
190.213
32.9264
-8.58902
222.17
21.7625
4.06339
252.444
17.5404
1.52424
279.554
15.9989
9.68694
300.518
16.6458
3.78692
316.235
17.128
0.294799
325.12
13.058
1.52869
326.877
11.5456
5.85302
6.93983
-0.479465
-150.707
2222.41
702.603
-223.876
1160.67
426.844
-191.312
868.898
297.4
-108.279
362.804
197.155
-12.4025
234.787
175.307
56.1129
176.855
67.5764
119.642
151.38
109.269
167.997
125.111
-2.31104
207.794
81.4583
22.5278
242.891
62.615
-21.85
271.409
31.4998
6.97895
299.002
22.019
-3.17133
322.203
4.94089
14.9536
344.229
-1.71062
11.0976
361.98
-4.37729
17.2626
375.902
1.96247
12.8698
387.43
5.80615
6.08025
395.146
5.65457
3.56175
398.18
5.93559
5.80887
4.98848
2.58639
1199.93
-636.223
-131.529
2497.68
49.3478
699.552
76.6341
558.913
137.524
474.602
290.664
144.749
391.767
177.497
513.302
21.5907
581.995
38.3322
652.85
-7.29357
685.165
20.8066
710.701
3.09079
706.091
17.8602
693.473
3.83236
670.228
9.45234
657.978
20.2042
657.627
29.5899
658.146
32.5774
657.615
28.0556
18.3677
-677.358
628.78
-608.482
92.5271
-538.31
-689.713
549.456
14.0824
-3.53352
847.543
-50.169
181.481
930.837
27.0068
508.14
1010.58
-14.7559
116.123
953.958
9.30104
292.264
970.365
-39.1656
188.695
966.384
-16.9963
225.86
997.178
-28.9751
182.868
1014.47
-10.7423
178.939
1045.69
-12.1476
141.18
1074.38
-0.866802
116.493
1114.92
2.77941
62.0962
1142.06
19.4077
21.4378
1142.07
28.046
-4.0231
1124.96
35.9589
-28.4496
1098.14
38.7304
-26.8322
1061.73
35.1659
-21.7966
27.6464
-9.94024
393.681
-702.049
-1214.01
-101.838
-527.704
-358.577
445.945
-177.913
-116.452
455.178
-83.3575
336.695
548.615
116.071
776.359
587.208
30.5686
284.332
573.978
33.293
206.135
580.78
-29.4851
39.007
594.468
-13.1015
39.1487
609.87
-20.2579
-22.0143
619.242
4.05735
-30.1563
623.463
9.72162
-66.5928
625.009
20.3244
-78.6182
626.421
22.1719
-100.682
626.58
27.8037
-97.6536
623.012
27.8114
-91.5563
617.217
29.6506
-83.2432
608.897
29.5541
-63.7146
597.289
26.0869
-48.0919
21.5098
-41.1833
-16.8574
-1966.67
-1229.73
-235.133
-478.066
411.482
297.364
-208.261
327.198
239.519
-98.2265
199.875
304.685
35.8319
155.673
271.942
3.05368
33.9209
346.175
-53.4931
-1.5187
352.947
-53.9182
-34.4847
407.807
-65.5159
-14.1052
419.246
-36.4552
-40.1374
439.44
-22.6951
-21.8002
440.818
2.75367
-41.6936
442.679
15.0527
-35.9936
438.309
19.382
-42.8756
433.732
23.4613
-34.8529
426.248
24.6492
-32.4633
419.583
25.8223
-30.0629
414.88
26.2017
-21.8682
409.968
24.2412
-21.6528
19.06
-22.6228
600.972
-1286.88
343.593
161.588
-385.88
526.365
233.071
-319.888
-231.438
138.711
-50.8588
190.577
331.304
-160.396
19.0982
270.643
19.573
54.0731
369.541
-147.408
37.6603
360.307
-49.2014
15.7843
403.122
-94.9105
25.4312
391.035
-21.0285
1.6497
390.065
-19.3097
4.44647
371.184
23.8443
-13.2997
360.518
21.8809
-8.61893
346.561
31.6208
-14.5558
337.659
29.4217
-10.3085
329.168
30.43
-10.3949
324.259
27.8679
-11.9352
322.009
25.9683
-7.30852
322.663
22.5693
-10.3438
16.8479
-16.7622
453.273
77.8406
786.512
559.867
-312.501
-91.6063
514.59
-303.798
-210.619
393.079
30.7659
68.6042
389.217
-145.703
6.15187
292.147
88.2497
-1.8872
332.462
-168.02
10.4792
307.764
-31.031
26.6816
354.848
-121.693
39.7299
344.778
-0.352619
16.2873
346.342
-13.6521
16.3286
329.603
36.9984
-5.78609
322.775
28.3143
2.41827
313.377
40.1965
-4.95836
309.117
33.121
0.856773
303.808
34.8109
-2.50706
299.945
30.4636
-5.02455
298.239
27.9851
-3.56543
298.894
22.7032
-7.19354
15.378
-15.7948
906.999
-101.533
-1475.6
1246.4
-211.166
-1108.99
1047.43
-6.29773
-695.973
877.841
132.851
-265.105
583.818
118.223
9.97752
458.473
240.312
59.3594
439.853
-73.6539
147.545
397.182
69.9322
99.926
406.171
-86.6706
129.045
369.559
64.7215
50.62
336.285
38.5618
25.5335
304.984
71.706
4.55593
287.474
42.2494
-2.39511
274.024
50.9101
-3.69987
271.211
33.9038
-2.33248
270.777
32.0082
-5.9278
273.16
25.5561
-8.54687
277.465
23.0268
-4.23997
281.852
18.263
-7.41162
12.0004
-15.5461
949.74
252.105
-1354.8
989.381
76.052
-1198.7
1030.98
94.2101
-555.434
946.597
193.491
-149.263
759.254
301.862
25.5401
542.613
455.32
-26.4518
395.03
52.5372
61.84
17.5914
42.2248
1.6292
343.857
29.9646
161.439
35.7204
34.4773
44.3061
330.205
1.83279
173.603
-4.8549
7.09649
-0.681241
292.033
32.0266
70.5927
35.9588
32.9584
36.3923
275.278
22.3119
34.3775
13.1099
22.2742
13.3483
256.181
23.7267
8.4944
21.9381
24.3295
22.8986
254.907
14.4445
2.89834
6.04437
15.4546
7.25983
252.24
15.2638
5.59021
9.60789
16.6429
11.5537
256.353
28.8373
4.1005
260.081
27.7676
2.43201
263.745
22.1612
-2.14528
267.207
19.7763
-2.35549
270.347
15.2499
-5.74026
11.0155
-16.1774
2513.3
829.643
-3552.66
1501.78
492.802
-1060.53
1006.91
322.634
-504.639
840.329
257.124
-141.101
867.029
295.658
30.6483
225.121
111.736
19.0962
240.61
186.405
198.334
143.458
119.368
152.185
-11.8584
216.875
79.2838
-6.64191
-103.996
-189.37
169.692
47.4038
106.235
-151.199
-156.077
129.368
44.777
134.964
-42.9912
-101.002
93.6011
43.7319
38.6871
-4.51378
-87.9237
79.8472
30.8024
4.09977
5.5969
-72.2172
71.8356
23.224
-4.71266
5.45893
-73.0882
72.207
14.5205
-4.65371
2.96011
-69.1811
71.5026
11.8889
-1.90667
264.848
12.3734
8.87106
-70.5788
-73.221
-65.3223
-66.6443
3.90809
14.1037
6.29081
272.413
19.4239
13.5359
271.585
23.4024
4.87364
272.14
21.8481
5.65205
268.409
20.376
-1.30074
14.3171
-15.0073
1141.22
1384.05
2346.46
1170.6
509.581
-241.89
983.03
551.12
-371.359
773.562
386.111
-186.122
173.699
434.993
-131.538
141.513
140.201
113.285
26.3172
190.927
101.215
-33.0245
-5.02572
-24.8442
-55.2701
56.501
26.9434
1.69556
-24.0785
-50.5316
-21.4971
46.5835
25.1446
24.379
-35.1537
-33.7978
-24.1022
32.7804
27.0062
33.2671
-10.5348
-28.091
-16.2506
27.9105
16.9991
9.96688
-1.52073
-26.1849
-9.93656
26.0736
10.2074
1.36132
0.989726
-24.1836
-6.28455
23.9983
6.50387
-1.02376
1.50845
-23.1708
-4.13431
23.1777
4.10623
-1.48724
1.46209
-21.8538
-3.12603
22.172
2.71452
-1.36875
-21.5773
4.66342
83.73
11.4539
-2.70232
-21.6852
-20.7294
-20.7797
297.507
21.7803
10.1178
-79.4196
-83.7103
-72.0348
-74.1852
295.31
24.4918
13.2679
289.301
30.5844
10.8635
281.161
31.3359
4.10178
22.5937
-12.0553
851.36
1029.11
-2518.54
651.289
510.432
648.654
404.876
596.592
-167.015
213.867
507.138
-21.1223
43.4604
471.967
-96.3535
51.7302
31.1339
37.8482
69.8806
-103.152
45.3286
95.2551
-63.8524
18.2122
-27.3391
-16.0282
17.5393
24.3246
-16.7089
-0.0679751
-31.8369
-17.3397
18.1231
29.9103
1.21117
-10.7735
-28.74
-24.352
26.2827
27.2231
10.3597
-5.25043
-17.9861
-29.779
30.3265
17.6764
5.01271
-30.8871
-1.85946
-11.6481
30.7893
11.8462
1.75928
-29.8939
-0.812853
-8.10606
8.62609
0.732873
29.4539
0.0113928
-5.40917
-28.1155
27.7359
5.94961
-0.172236
1.37107
-3.56588
-26.636