/*--------------------------------*- C++ -*----------------------------------*\
  =========                 |
  \\      /  F ield         | OpenFOAM: The Open Source CFD Toolbox
   \\    /   O peration     | Website:  https://openfoam.org
    \\  /    A nd           | Version:  10
     \\/     M anipulation  |
\*---------------------------------------------------------------------------*/
FoamFile
{
    format      ascii;
    class       volVectorField;
    location    "9.7";
    object      U_0;
}
// * * * * * * * * * * * * * * * * * * * * * * * * * * * * * * * * * * * * * //

dimensions      [0 1 -1 0 0 0 0];

internalField   nonuniform List<vector> 
12920
(
(120.774 -7.46839 -83.7662)
(136.075 17.5135 0.538388)
(196.663 -10.3628 22.7418)
(128.073 -41.0468 21.0745)
(120.865 -54.4111 15.096)
(83.8303 -36.7421 1.76619)
(106.727 -21.8283 -1.43055)
(93.9956 -15.517 -0.462798)
(107.179 -12.4071 1.58669)
(99.3088 -12.6166 2.56848)
(104.518 -12.6401 3.09942)
(100.298 -13.2466 3.04701)
(102.483 -13.275 2.88903)
(101.195 -12.9769 2.56596)
(103.302 -12.646 2.32771)
(105.313 -11.5726 1.60332)
(111.413 -8.6657 0.631226)
(114.323 -6.42635 0.212289)
(118.578 -5.18243 -0.241343)
(131.478 -3.6802 0.155478)
(276.198 72.5251 171.233)
(247.082 -82.2718 17.8243)
(336.397 -72.2834 4.49272)
(297.034 -52.9748 7.71836)
(208.515 -5.22684 19.8384)
(97.3436 -3.63707 4.43768)
(103.189 3.18069 0.563076)
(75.3126 -8.57132 0.276911)
(86.8369 -8.97729 1.18952)
(75.1983 -12.9585 0.69178)
(81.8222 -10.4906 0.532703)
(76.1698 -9.93503 -0.0714147)
(78.8722 -7.95556 -0.416074)
(76.1444 -6.89929 -0.921572)
(77.5943 -5.61284 -1.19952)
(76.6413 -4.79593 -1.57133)
(78.3908 -3.82241 -1.70184)
(78.1852 -2.37729 -1.63949)
(79.8619 -1.8452 -1.44371)
(88.2071 -1.31253 -0.919138)
(243.609 -78.3955 -114.816)
(173.284 -26.2417 -47.6191)
(178.698 1.12043 2.24031)
(48.21 -2.29857 -1.87647)
(90.4049 25.8401 1.11064)
(32.4293 0.935043 -2.31538)
(77.2939 -6.70668 -0.833643)
(51.1257 -14.3577 -1.36142)
(74.4532 -16.7878 -0.104614)
(61.5138 -15.4263 -0.771696)
(71.5435 -13.3019 -0.565443)
(65.7627 -9.81791 -0.987716)
(70.5356 -7.36514 -0.886396)
(67.8948 -4.40249 -1.1116)
(70.7165 -2.59863 -1.09131)
(69.4043 -0.408658 -1.14364)
(71.3176 1.49247 -1.1199)
(69.379 2.66597 -0.831201)
(69.7046 3.09835 -0.724456)
(75.3687 3.04685 -0.330583)
(158.552 135.096 151.168)
(-91.1102 -7.60897 -8.91718)
(143.65 22.6523 -0.144234)
(-15.8819 3.01131 0.815105)
(95.0704 8.75401 -0.319762)
(39.2956 6.75295 -1.15317)
(84.7913 -4.41895 1.03332)
(58.117 -8.20218 0.344468)
(75.3097 -12.4133 1.32797)
(60.836 -9.75975 0.458511)
(66.4387 -7.49519 0.376263)
(58.4639 -4.16628 -0.0621641)
(60.475 -2.27085 -0.140447)
(56.5483 -0.416534 -0.240845)
(57.6964 0.641005 -0.225802)
(55.9927 1.61858 -0.267296)
(57.1072 2.34542 -0.312401)
(55.4456 3.07372 -0.149462)
(55.7695 3.38666 -0.0955565)
(61.9919 2.97216 0.266912)
(160.642 27.5832 -122.642)
(-26.4603 -2.45669 0.886885)
(163.925 -17.6838 -12.3167)
(45.5177 15.5185 -4.04777)
(116.512 -10.2364 -1.66359)
(49.5481 0.504547 -2.86371)
(83.0724 -24.9186 1.83253)
(48.0258 -15.7613 0.861488)
(68.9941 -24.0786 1.87581)
(53.841 -12.3716 0.866004)
(62.227 -11.353 0.619523)
(54.1837 -4.58078 -0.0323898)
(57.3231 -3.62979 0.0910134)
(53.9438 -0.369319 -0.0705488)
(56.1383 0.0627107 0.0380244)
(54.743 1.97973 -0.0655995)
(56.731 3.03435 -0.0941834)
(54.5853 3.77387 0.0706674)
(54.7001 3.77667 0.0533057)
(60.2828 3.08874 0.371829)
(194.337 131.109 -2.04955)
(166.128 32.7422 4.04121)
(255.589 11.8053 -8.4143)
(221.44 21.9221 -9.70464)
(254.634 21.664 -4.116)
(205.08 34.1882 2.33239)
(160.317 -3.92635 7.94126)
(98.418 -8.93724 4.08982)
(93.2544 -24.0697 3.86282)
(70.2829 -12.3914 2.46967)
(63.1606 -8.15769 1.29829)
(50.1668 -0.246742 0.120168)
(49.5416 -0.827185 -0.218516)
(46.3231 0.409411 -0.23763)
(47.3301 0.113197 -0.229145)
(47.5472 1.10504 -0.293039)
(50.7742 2.15298 -0.297886)
(50.8728 3.34809 -0.0663069)
(52.3965 3.6677 -0.0303222)
(59.1844 2.85027 0.402179)
(132.561 -43.3204 -72.7102)
(101.294 -4.39194 -8.27414)
(205.041 18.5345 2.13342)
(173.772 31.7353 0.342687)
(204.202 47.4573 4.59655)
(167.152 61.8039 3.63568)
(159.269 43.9218 5.11486)
(119.32 19.35 4.57116)
(102.284 -21.1107 4.74992)
(66.9753 0.941856 2.8229)
(53.6445 1.68831 1.37651)
(41.9976 7.65845 0.102665)
(44.0106 1.81361 -0.259923)
(42.355 2.63823 -0.127856)
(44.8959 -0.322423 -0.0475891)
(44.5574 -0.0386617 -0.0371287)
(47.8054 -0.574473 0.00234822)
(47.6699 0.722735 0.00860488)
(49.7468 1.42216 -0.0101152)
(56.249 1.45098 0.406137)
(72.0413 -43.2872 -37.6165)
(114.434 22.9856 -24.7353)
(212.973 17.076 -11.5424)
(157.217 18.5447 -2.02262)
(206.945 19.2397 4.82988)
(194.98 49.6875 5.84437)
(205.521 39.6527 0.500583)
(198.618 16.8028 4.94903)
(132.705 -8.74677 0.952572)
(65.6966 11.0927 1.54096)
(48.4612 13.4612 0.311292)
(41.9915 9.07063 -0.301172)
(45.774 3.91817 -0.232899)
(46.1158 0.977706 0.0294905)
(46.407 -1.68604 -0.112976)
(47.5297 -2.13467 0.0162098)
(49.7892 -2.29915 -0.0195299)
(49.1881 -0.908032 0.235717)
(50.1414 0.8232 0.114176)
(55.2888 1.33099 0.415223)
(176.929 78.3973 -111.865)
(173.48 51.7368 -28.1797)
(199.262 64.0073 -10.1003)
(137.15 29.6213 -11.0493)
(176.038 16.6659 -11.2593)
(157.179 4.68402 -2.37096)
(185.406 9.35653 0.0605508)
(171.612 10.2584 6.46903)
(94.115 43.7799 -1.82673)
(72.3203 32.7235 0.526494)
(61.5471 20.0342 0.212625)
(58.8349 11.4159 -0.0791925)
(58.6591 6.01572 -0.0771217)
(56.8036 2.78744 -0.0242566)
(54.9612 2.20331 0.0909744)
(53.6411 -3.90003 -0.490683)
(55.8085 -4.18118 -0.0444398)
(53.4726 -3.12689 0.341788)
(53.7321 0.140504 0.313337)
(57.5418 1.3203 0.470176)
(155.624 232.732 75.574)
(-17.3658 108.251 -26.6056)
(141.853 103.175 -8.88635)
(29.0791 76.0138 -7.39508)
(99.2726 69.6441 -4.10752)
(47.7969 47.6948 -3.14304)
(63.699 25.2036 -0.91136)
(59.295 58.9378 3.43018)
(66.1177 56.591 -0.0763822)
(74.7427 33.0604 0.573924)
(76.2723 18.6801 0.179587)
(74.0608 14.0086 0.131305)
(68.7309 10.9696 0.106803)
(65.235 7.73889 -0.0364747)
(65.6729 5.09454 -0.457173)
(65.1649 -0.68806 -0.693251)
(63.9008 -3.59062 0.00839423)
(59.9489 -2.65604 0.0712185)
(59.1015 0.902225 0.229935)
(62.2244 2.41664 0.389261)
(-14.9411 228.801 25.3845)
(-93.474 123.531 -40.0542)
(120.638 112.627 -12.099)
(-4.69223 89.0007 3.24217)
(80.9005 71.0797 4.50791)
(5.2966 59.03 -2.11833)
(20.9391 48.545 -0.366578)
(33.8392 41.7909 -0.847019)
(55.6899 30.7673 -0.494272)
(70.1199 19.7269 -0.157712)
(76.8042 11.1949 -0.015619)
(82.9756 4.94118 0.410595)
(89.2117 2.37581 0.796616)
(88.0288 7.04347 0.653788)
(77.3943 9.37287 -0.147549)
(68.8136 2.05883 0.0575484)
(63.4806 -0.271921 0.535421)
(56.6518 0.0554667 0.0818987)
(55.6584 3.02879 -0.0327933)
(59.8938 3.93225 0.275804)
(-58.4314 43.5928 75.8881)
(-259.658 74.8398 7.35704)
(66.0122 55.3541 -7.72897)
(-13.9306 64.4199 -2.07431)
(84.7971 58.6146 -1.17926)
(53.029 54.6365 -1.71716)
(78.8746 42.8728 0.14019)
(83.2431 23.8739 2.18914)
(67.8155 11.7533 -0.737758)
(69.8807 11.4025 -0.141158)
(66.9349 5.91348 0.165032)
(62.9735 2.00501 0.0438401)
(62.3827 -0.325126 -0.242972)
(66.2076 3.61349 -0.409906)
(70.8578 12.3339 -0.0655693)
(58.3505 8.73278 0.930558)
(51.5856 5.76713 0.894793)
(45.8378 4.69341 0.0895565)
(45.6828 4.22737 -0.124268)
(52.8947 4.45723 0.214787)
(99.2411 162.65 16.717)
(-54.6142 35.6379 -4.19079)
(92.8506 18.0597 -18.1823)
(9.72462 58.0749 -4.8856)
(85.6821 52.3399 -0.608404)
(42.9951 21.8312 0.581907)
(66.9825 38.0568 0.1199)
(50.3826 34.377 -0.0331725)
(52.3708 31.7704 0.289568)
(44.4073 14.9293 0.423145)
(46.7781 8.77265 -0.0394098)
(43.8656 4.76081 -0.326984)
(45.549 4.28126 -0.600129)
(46.8332 5.82569 -0.74878)
(40.9346 10.9878 0.171874)
(41.2415 9.67178 0.322817)
(39.8556 7.43665 0.0690005)
(38.2325 4.52646 -0.0882796)
(37.9579 2.81076 -0.0871958)
(46.3293 2.64385 0.348898)
(304.721 237.379 -110.811)
(74.7081 113.262 2.39885)
(121.771 71.1492 28.5671)
(-9.3352 43.0005 6.50197)
(55.5635 29.8595 2.12741)
(4.32302 20.1741 0.964803)
(39.3007 47.3773 1.97032)
(20.7349 12.3143 1.69012)
(40.0187 23.8893 1.36741)
(33.7721 8.10108 0.672228)
(40.6578 12.3415 0.694609)
(36.2439 6.64567 0.434878)
(38.1125 9.51826 0.503212)
(34.9433 8.02875 0.172731)
(36.2526 10.0053 -0.0410141)
(35.9562 8.51422 -0.239874)
(37.7616 7.7061 -0.401285)
(36.3571 5.55925 -0.374415)
(36.8501 1.98313 -0.110631)
(43.6807 0.597492 0.343123)
(149.72 -86.5981 -8.39733)
(48.3119 33.6157 -4.11317)
(114.967 77.3098 8.06387)
(11.1986 72.0391 -2.03651)
(56.5063 62.0825 -1.73449)
(-5.10351 31.9211 -2.35234)
(37.8283 22.1711 -1.49791)
(18.6162 7.26898 -1.28511)
(37.7533 7.17862 -0.413479)
(32.7917 2.56445 -0.0870362)
(40.466 5.90549 0.201156)
(37.3439 5.05766 0.256032)
(39.9901 8.77911 0.637652)
(36.6489 10.1719 0.482798)
(37.8386 10.7726 0.00436344)
(38.0864 9.6497 -0.215248)
(40.2039 8.29872 -0.56682)
(41.0178 5.47473 -0.525283)
(42.0939 1.41704 -0.162728)
(46.2033 0.122637 0.273381)
(112.108 74.2066 -124.495)
(35.0812 53.5878 -31.5797)
(99.319 106.954 19.6005)
(5.7825 83.7932 2.65942)
(64.2463 69.1197 1.81012)
(33.6145 42.7207 -2.05524)
(63.1047 32.9963 -1.516)
(44.6816 14.0014 -1.44545)
(53.9616 11.399 0.21912)
(40.3016 3.33991 -0.260793)
(45.8125 6.11474 0.0601939)
(40.8349 4.61088 -0.401217)
(45.1137 7.26541 0.0359602)
(43.003 7.42074 0.0912884)
(45.5239 8.7919 0.0125773)
(45.3058 7.55147 -0.107647)
(47.2579 6.60854 -0.153231)
(46.1276 4.6945 -0.220093)
(46.7849 3.09786 -0.0819126)
(50.4293 1.99845 0.315177)
(257.791 53.0998 -213.446)
(-68.6337 106.064 -6.50509)
(104.022 118.688 6.10093)
(0.340836 80.0118 -0.507068)
(63.4548 62.6213 -0.763796)
(28.0264 36.0321 -1.75216)
(55.7092 28.7356 0.197472)
(31.074 18.0927 -0.170888)
(41.8921 15.6132 0.600628)
(28.395 9.45968 -0.0475683)
(36.2541 8.28933 -0.128254)
(32.5325 6.63457 -0.451653)
(38.8172 6.86154 -0.198391)
(38.9438 8.07059 -0.303514)
(43.9032 8.74029 -0.225418)
(45.0489 8.37887 -0.161912)
(47.7297 7.35926 -0.147623)
(46.7728 5.55566 0.0166596)
(47.2956 3.41772 0.226734)
(51.6665 1.99953 0.513213)
(162.524 145.451 -90.7067)
(-145.982 182.834 7.60352)
(61.4832 108.64 -4.81688)
(-12.0707 83.2828 -6.11409)
(67.1397 61.5979 -1.51257)
(36.9166 43.8757 -0.869891)
(57.4761 32.9613 4.50947)
(25.205 20.2588 2.37827)
(37.3594 14.3012 1.72869)
(24.5031 7.56271 0.0711709)
(34.6663 4.87643 0.0286643)
(31.3511 2.44494 -0.267701)
(38.3995 2.06859 -0.0854357)
(38.581 2.51619 -0.0271143)
(44.2718 3.7442 0.121847)
(45.6571 4.30074 0.117697)
(49.0702 4.47175 0.150656)
(48.374 3.62499 0.279807)
(49.1802 3.09448 0.283923)
(54.718 2.19255 0.446794)
(200.529 -144.811 46.4757)
(14.893 89.3457 27.0073)
(91.6966 75.5163 21.8009)
(15.8474 57.148 7.85934)
(57.8309 40.5966 6.89104)
(22.8445 32.3159 3.30137)
(47.6119 25.086 4.0423)
(25.9676 19.6536 1.02162)
(44.4185 12.3545 0.863537)
(37.1361 8.25873 0.157242)
(47.5603 3.19965 0.669735)
(44.3375 1.44314 0.656153)
(49.0609 -0.232888 0.694531)
(47.9818 0.335657 0.480668)
(51.0513 0.780902 0.466102)
(51.2657 2.29383 0.42979)
(53.9067 2.8208 0.256214)
(53.1489 2.53252 0.205652)
(54.0377 2.22209 0.13048)
(60.9109 1.42013 0.281323)
(-15.8883 71.2093 214.718)
(-173.294 72.1364 -29.3331)
(59.0263 71.0557 -15.0717)
(3.73875 37.2482 -2.38903)
(60.4826 29.9341 6.33673)
(36.8353 22.3974 3.70771)
(71.2122 16.3354 3.48708)
(65.7557 10.2545 0.683122)
(85.9869 3.73597 0.653006)
(83.3756 0.249903 0.175661)
(89.0784 -3.08894 0.716035)
(82.9435 -3.94784 0.317521)
(82.9123 -4.05564 0.295844)
(78.447 -3.44402 -0.0962113)
(79.9568 -2.38667 -0.231088)
(78.8515 -1.75954 0.118213)
(78.4339 -0.00495506 0.818738)
(75.7814 1.21448 0.9631)
(75.57 1.92369 0.6743)
(83.4428 1.60686 0.494146)
(64.3565 -10.9658 -22.4111)
(19.5806 -30.955 -8.26059)
(128.209 -4.64779 38.4322)
(100.878 -11.4024 32.8974)
(142.494 -12.2473 33.6014)
(121.579 -7.8941 13.745)
(128.113 -8.50149 9.94743)
(104.127 -10.5274 6.25038)
(111.027 -10.1602 7.2774)
(101.626 -10.1992 6.86002)
(106.784 -9.36476 6.91708)
(103.454 -9.19327 6.14346)
(106.742 -8.67949 5.70523)
(106.784 -8.21251 4.60013)
(111.804 -7.14582 3.34815)
(115.094 -5.37988 1.4191)
(119.696 -2.95692 0.288296)
(120.365 -0.74811 0.227981)
(121.904 0.298298 -0.100995)
(130.22 0.697937 0.77806)
(205.043 97.6811 151.971)
(94.6898 55.9504 -47.4147)
(200.223 19.4522 3.02879)
(140.685 2.8868 15.1601)
(140.43 10.7083 38.1496)
(82.9437 3.89062 16.0919)
(93.1677 8.41944 7.97613)
(65.1138 -2.55566 2.36606)
(78.8635 -0.992532 2.55986)
(67.7835 -4.39047 0.621724)
(75.927 -1.98839 0.240262)
(71.281 -2.15489 -1.04744)
(74.8224 -0.598198 -1.58851)
(72.7629 -0.39295 -2.47807)
(74.4701 0.468406 -2.96493)
(73.5919 0.579665 -3.37156)
(74.6479 1.25795 -3.39567)
(73.4743 1.90216 -2.83133)
(74.1402 1.79708 -2.4249)
(81.03 1.81051 -1.23465)
(204.437 160.321 -6.06793)
(18.6327 4.26069 10.767)
(124.844 3.04172 38.1221)
(6.11031 -6.8571 5.18356)
(79.6968 20.314 5.27018)
(15.2179 -0.888981 -1.7736)
(66.0505 -4.71215 0.0796463)
(35.7426 -10.5468 -1.85184)
(62.7816 -11.3835 0.0391674)
(49.8012 -9.46901 -1.49402)
(61.7541 -7.39959 -0.960361)
(56.0977 -4.58777 -1.80747)
(60.9799 -2.5387 -1.5715)
(58.3272 -0.656733 -1.95837)
(60.3146 0.610637 -1.82241)
(58.7512 1.6122 -1.78212)
(59.5175 2.64962 -1.60181)
(57.2548 3.26141 -1.06056)
(57.395 3.30923 -0.91213)
(62.7815 3.01844 -0.0218893)
(194.091 58.9684 215.007)
(-149.106 -34.1861 -6.71397)
(128.449 -1.45653 -9.71419)
(-38.9313 -3.86423 3.25265)
(86.3992 -1.4738 -0.476179)
(15.3694 -0.316357 -0.931523)
(70.8799 -9.15585 2.89455)
(40.5034 -8.3858 0.655704)
(63.3239 -10.1536 2.18668)
(49.4434 -6.30758 0.352684)
(57.3697 -3.96331 0.413563)
(49.9548 -1.10883 -0.329524)
(52.4588 0.493302 -0.322055)
(48.5718 1.61836 -0.611252)
(49.4064 2.32457 -0.521368)
(47.5265 2.68254 -0.566083)
(48.0717 3.02249 -0.535092)
(46.0467 3.21572 -0.167089)
(46.2319 3.15315 -0.118441)
(51.9684 2.56158 0.881858)
(156.429 -54.2287 38.8578)
(-3.45675 -44.6444 10.2328)
(151.461 -38.65 -13.0861)
(24.1027 5.22346 -2.70012)
(103.444 -17.67 0.271568)
(24.9443 -0.959058 -3.34234)
(69.2935 -26.1825 2.67945)
(32.8252 -11.9152 1.22012)
(58.8148 -19.4591 3.07272)
(43.455 -6.78951 1.27076)
(53.4155 -6.54481 1.0814)
(45.2049 -0.26633 -0.122399)
(48.5501 0.102687 0.194086)
(44.8826 2.61776 -0.187197)
(46.5274 2.66926 0.016992)
(44.8217 3.70751 -0.154648)
(45.8548 3.69095 -0.152953)
(43.5843 3.80699 0.147535)
(43.7825 3.35959 0.133924)
(49.1304 2.50713 1.08993)
(175.354 13.4939 -62.5841)
(119.976 -20.1084 -15.2945)
(205.748 -14.0745 -23.3097)
(128.989 2.42763 -14.6263)
(157.375 0.102585 -1.91625)
(97.5828 13.0804 5.16071)
(99.8594 -9.22255 11.3983)
(66.3945 -8.27093 7.60768)
(70.2708 -18.2569 7.42406)
(54.1389 -5.98528 3.99131)
(52.9962 -3.51271 2.1974)
(43.3184 2.43699 0.251247)
(43.0733 1.84898 -0.305902)
(39.7731 3.03881 -0.355554)
(40.5229 2.81715 -0.234701)
(39.8942 3.31109 -0.409584)
(41.6608 3.46567 -0.348447)
(40.718 3.53737 0.10327)
(41.4621 3.09674 0.0944286)
(47.4306 2.13061 1.19034)
(91.9238 -47.9102 -16.4042)
(55.7463 -5.04609 -27.8157)
(179.931 12.4743 -11.8674)
(118.756 22.515 -5.98005)
(154.337 36.8857 1.94856)
(105.925 47.6567 -1.11347)
(107.062 15.1633 3.91509)
(75.8192 9.47886 7.66331)
(72.2168 -15.1991 10.3237)
(47.4654 6.95125 4.85388)
(44.6429 4.34735 2.62672)
(36.2603 8.96765 0.527347)
(38.1205 3.79056 -0.120128)
(36.3134 4.90141 -0.0358158)
(38.4353 2.02634 0.0195646)
(37.8027 2.11107 0.0437938)
(40.1511 1.35031 0.0505937)
(38.8782 1.75987 0.189263)
(39.9389 1.60757 0.144804)
(45.479 1.28237 1.18303)
(116.014 -85.8815 95.9133)
(104.004 6.63678 -74.2299)
(178.927 12.5541 -33.5093)
(98.2185 24.6736 -10.8334)
(160.993 31.627 3.99074)
(142.465 55.1765 4.87057)
(167.123 39.472 3.32029)
(167.466 16.2247 16.3374)
(126.097 -2.41703 18.9545)
(58.6704 11.0632 6.86376)
(45.8114 10.9344 0.845849)
(39.1315 8.39366 -0.738508)
(40.7085 4.5504 -0.761863)
(39.753 3.26472 -0.421362)
(38.9168 1.06384 -0.390103)
(40.4126 0.642951 0.118134)
(41.6783 0.726305 0.170972)
(40.336 1.12605 0.61995)
(40.4503 1.45879 0.35443)
(44.9566 1.2754 1.19585)
(221.919 151.667 93.923)
(168.981 54.8012 6.23019)
(186.585 54.6653 -13.0165)
(102.445 31.607 -12.872)
(131.089 30.204 -7.76216)
(113.791 28.1113 -2.82561)
(152.678 29.4423 6.0992)
(161.553 23.6576 16.0783)
(109.775 40.5296 13.5305)
(62.6964 31.1165 5.83971)
(55.1874 17.8278 1.12277)
(51.7012 10.1208 -0.415075)
(50.3552 5.61941 -0.700545)
(48.5563 3.25348 -0.739861)
(47.1204 3.36099 -0.682248)
(44.4174 -1.49978 -0.604614)
(46.4645 -0.730026 0.272243)
(43.5317 0.342486 0.825842)
(43.4124 1.81878 0.712016)
(46.8258 1.64645 1.2856)
(360.899 -18.6779 59.0743)
(-52.2577 53.5302 -10.9085)
(139.214 77.6914 -14.5092)
(1.29661 58.5529 -6.46412)
(76.369 54.4626 -3.64205)
(25.5598 39.3922 -11.9736)
(50.1079 27.1205 -12.1389)
(62.9514 44.8856 0.468256)
(59.6958 54.8102 5.43218)
(64.018 31.9347 3.04406)
(65.0288 19.7833 1.16853)
(62.9941 13.8071 0.763761)
(60.0965 9.47066 0.303657)
(58.1666 5.72423 -0.549826)
(57.8326 3.38415 -1.57627)
(52.4636 -0.791455 -0.892047)
(52.1066 -0.844665 0.154763)
(47.8124 1.67366 0.452788)
(46.8751 3.42356 0.615777)
(49.5482 3.08507 1.16285)
(199.424 71.8619 60.0615)
(-34.0543 76.686 -17.192)
(101.467 87.3537 -9.88542)
(-21.7645 74.9471 5.75015)
(66.4668 60.4738 3.95443)
(2.78201 48.9986 -2.58799)
(19.8178 43.7672 -3.14554)
(30.2853 39.292 -2.32635)
(48.1069 31.4397 0.0243633)
(61.0426 22.1436 0.53457)
(66.9208 16.0334 1.41453)
(71.4387 11.7967 1.31756)
(74.7373 10.6865 1.94118)
(73.0554 10.549 1.87956)
(64.6814 8.11597 -0.711924)
(52.4314 0.945622 -0.0194268)
(50.2659 1.98003 0.505243)
(45.3242 3.38456 0.12533)
(44.5616 5.30979 0.166458)
(48.1366 4.47234 0.952379)
(-19.7913 22.1323 -91.0665)
(-263.009 77.5017 -25.6174)
(40.3913 61.8258 -33.7432)
(-49.6367 71.0884 -4.99823)
(55.0753 60.0364 -3.74169)
(22.2627 51.9993 -3.61775)
(58.5364 40.3551 -0.294305)
(68.0415 30.4211 1.9475)
(62.552 14.818 3.3379)
(57.1838 14.4174 1.53298)
(56.8719 11.2847 0.274847)
(57.2458 9.00653 -0.658067)
(58.4524 9.17042 -1.67102)
(59.759 12.4303 -1.6576)
(56.494 11.0278 -0.307354)
(43.0488 8.16072 0.917892)
(41.7006 6.17905 0.852269)
(37.9872 5.83806 0.111714)
(38.2426 5.75897 -0.01979)
(44.0521 4.83876 0.887319)
(99.6184 -3.85075 -43.7529)
(0.44958 44.249 -12.1407)
(75.4696 20.7134 -22.9001)
(-24.076 54.354 -5.80897)
(63.1625 44.6632 0.0686003)
(7.36167 9.09159 2.49503)
(44.7294 33.681 1.06374)
(33.2809 29.5916 5.64737)
(38.7539 26.481 4.57955)
(32.9558 16.0673 1.75926)
(36.7371 12.5505 0.0558856)
(35.0681 9.82485 -0.940997)
(37.6569 9.89632 -1.64913)
(37.402 9.91019 -1.40236)
(31.5351 10.7756 0.110023)
(32.5759 9.30249 0.271989)
(32.3263 7.17587 -0.00703903)
(31.3294 5.20895 0.0147751)
(31.5964 4.14834 0.0190895)
(39.2739 3.38955 1.13763)
(4.04577 103.098 -138.779)
(-122.028 95.6236 43.1134)
(56.5011 67.7455 26.1556)
(-35.8283 42.7006 3.6434)
(42.1087 28.2407 0.613544)
(-11.7607 19.9069 0.878124)
(27.5437 48.4913 1.85704)
(8.71091 12.3917 2.42096)
(28.3822 26.527 2.00053)
(21.0558 10.608 1.02533)
(28.4812 15.5798 1.11008)
(24.4173 9.31633 0.640118)
(27.2151 11.8278 0.627738)
(25.6774 8.97014 0.165892)
(27.5427 10.159 -0.0988159)
(27.3994 7.87536 -0.390607)
(29.3332 6.75456 -0.536026)
(28.0096 4.4276 -0.295854)
(28.7638 2.15623 0.00415615)
(35.5542 1.3066 1.20043)
(124.618 -53.3083 -49.61)
(-53.5492 25.3772 1.6844)
(89.2114 75.1822 -5.90957)
(-1.94606 61.1978 -8.25286)
(45.7454 52.2286 -5.81221)
(-17.7136 25.3145 -3.84242)
(28.4234 23.661 -2.32381)
(5.82957 10.7861 -1.22405)
(25.8338 13.4158 -0.0135547)
(19.4482 8.68553 0.0306722)
(27.3064 11.6306 0.623721)
(24.3167 9.8344 0.462183)
(27.4884 11.3308 0.873149)
(26.2626 10.2125 0.489194)
(28.0676 9.52201 -0.017388)
(28.4022 7.72971 -0.369305)
(30.4353 5.69218 -0.762282)
(29.637 3.21983 -0.412147)
(30.089 0.881661 0.0118551)
(34.8144 0.171651 1.10068)
(49.9261 128.431 117.122)
(-113.237 52.7823 -23.5498)
(72.0472 91.8198 20.2928)
(-17.8724 65.9363 -2.41893)
(53.2186 55.1047 -0.453302)
(13.2424 30.573 -4.04866)
(42.7068 24.6902 -0.824917)
(19.7244 8.99312 -1.15141)
(34.0719 12.0116 1.21701)
(22.3743 6.24582 -0.122923)
(30.5904 10.4974 0.396845)
(25.7489 8.26178 -0.414922)
(30.5141 10.1417 0.27671)
(29.2652 8.32627 0.0936101)
(32.2316 8.04474 0.053749)
(32.1309 5.9183 -0.180714)
(34.357 4.47033 -0.226424)
(32.8982 2.44471 -0.107256)
(33.1856 1.24343 0.128389)
(37.224 0.512747 1.10451)
(153.24 -10.5281 -249.528)
(-192.505 92.771 -18.5061)
(78.5232 92.0752 -31.3348)
(-21.0102 66.3158 -7.33107)
(51.3977 53.768 -3.24888)
(10.5717 28.0316 -2.61255)
(41.1008 23.4934 1.44652)
(14.3995 13.7378 -0.191083)
(29.1678 13.7591 1.31402)
(16.0625 9.45735 -0.152486)
(25.4806 9.53185 0.0738562)
(21.4293 7.84711 -0.574686)
(27.7756 7.97228 -0.0287341)
(27.8171 7.36596 -0.310556)
(31.9173 6.76941 -0.177143)
(32.69 5.51729 -0.178501)
(35.2199 4.10896 -0.15144)
(34.0536 2.33307 0.25482)
(34.515 1.22928 0.46184)
(39.4297 0.472151 1.27133)
(45.0055 27.3657 -83.902)
(-193.066 139.241 38.791)
(38.4408 76.3393 -10.182)
(-53.304 53.3952 -2.47755)
(39.673 38.1218 0.679263)
(-6.33943 25.6363 0.337109)
(34.3529 23.1419 6.90156)
(7.56188 15.3315 2.29502)
(27.3009 12.9221 2.33388)
(14.8815 8.02483 -0.228144)
(26.0585 6.40348 0.169329)
(22.2277 4.00091 -0.384306)
(29.3331 3.52059 0.086365)
(29.3937 2.67926 0.0254975)
(34.2227 2.70004 0.316835)
(35.1712 2.22948 0.194297)
(38.0088 1.9792 0.223714)
(37.1013 1.15387 0.498761)
(37.7607 0.892654 0.522688)
(43.2425 0.433332 1.13198)
(95.5009 65.055 20.5413)
(-64.3799 53.5842 25.8862)
(44.0364 51.0914 24.7624)
(-32.4672 32.8227 8.48821)
(32.1431 20.1326 8.06701)
(-5.19782 19.261 2.98752)
(33.6651 17.6455 5.04726)
(13.2594 15.8692 0.426882)
(34.4539 10.7125 0.968835)
(25.822 7.86917 -0.547901)
(36.7902 3.60596 0.539085)
(33.7016 2.13805 0.390321)
(39.6517 0.46706 0.845712)
(39.2091 0.658764 0.583706)
(42.5941 0.614679 0.75543)
(42.8674 1.16402 0.638047)
(44.8762 1.2358 0.407826)
(43.8812 0.82153 0.419439)
(44.585 0.627055 0.34501)
(50.9258 0.150054 0.86569)
(426.375 336.969 6.37851)
(-90.4673 175.048 53.9631)
(80.6144 117.071 19.2229)
(-12.1892 41.2469 15.5233)
(44.725 23.9849 17.401)
(15.6872 14.9561 6.35973)
(55.4128 11.2285 6.68127)
(45.9177 8.40425 0.999827)
(67.6739 5.52809 1.26277)
(65.8554 4.39947 -0.137299)
(76.3047 2.60276 0.77589)
(75.2256 1.97991 0.233293)
(78.6513 -0.0283612 0.442135)
(75.5475 -1.17304 -0.311061)
(74.727 -1.38093 -0.325991)
(71.1516 -0.83289 0.503315)
(71.5013 -0.178199 1.27716)
(69.8673 -0.104482 1.52164)
(70.1297 0.23131 1.25247)
(77.3128 0.205573 1.10811)
(37.7287 128.843 -56.8896)
(-66.7505 -24.392 -41.3236)
(96.4187 6.68378 -1.30845)
(62.6281 -5.53305 3.5361)
(120.931 -7.30989 18.0651)
(96.6702 -8.52659 4.167)
(115.844 -9.35578 11.7827)
(96.8246 -9.78653 8.18699)
(108.401 -7.93969 9.63275)
(101.508 -6.94808 8.25142)
(109.211 -5.61448 8.047)
(107.685 -5.02183 6.74043)
(113.115 -4.06291 5.7274)
(114.726 -2.96312 3.47719)
(120.374 0.143846 1.73736)
(120.51 2.39757 0.25702)
(119.917 4.14777 -1.18386)
(115.763 4.91533 -1.25804)
(113.459 4.63323 -1.30105)
(116.487 3.90478 -0.0955038)
(189.143 96.7281 -92.844)
(-140.116 -20.9547 -20.9283)
(107.756 -0.147108 2.72415)
(13.4859 0.43028 16.3214)
(88.2155 12.7071 38.1788)
(49.805 5.82972 15.0008)
(80.1181 11.1859 10.9001)
(55.1096 2.40254 2.81925)
(72.763 5.13466 2.54971)
(62.1035 1.47564 -0.180561)
(71.2218 3.50606 -0.698416)
(66.5055 2.50809 -2.31982)
(70.2077 3.73569 -3.04419)
(67.9809 3.2714 -4.21103)
(69.7601 3.83739 -4.43857)
(68.6308 3.48621 -4.42309)
(68.8627 3.62914 -4.20707)
(66.3398 3.62733 -3.27961)
(65.8221 3.16613 -2.30345)
(70.9238 2.85755 -0.736489)
(153.282 -181.899 61.6132)
(-163.255 -62.8669 15.0816)
(101.246 -16.0679 23.5646)
(-30.2462 -10.0924 8.89675)
(71.3093 13.4947 6.11464)
(2.0602 -0.974396 0.649636)
(58.8325 -2.58496 -0.13173)
(25.1588 -6.51872 -1.7342)
(54.7688 -6.8945 0.150003)
(40.5773 -5.12311 -1.66921)
(53.6845 -3.5043 -1.05598)
(47.4291 -1.33221 -1.88776)
(52.4034 0.223264 -1.58052)
(49.2981 1.43815 -2.03717)
(50.8444 2.27844 -1.80671)
(48.9259 2.80603 -1.70714)
(49.2912 3.26339 -1.5127)
(46.7058 3.58123 -0.870106)
(46.8058 3.39572 -0.602327)
(51.6677 2.99915 0.74912)
(209.103 -201.305 44.9998)
(-102.655 -43.8286 25.3563)
(109.343 -15.032 -14.5078)
(-52.8203 -7.47056 7.97743)
(77.1767 -5.49913 -0.59037)
(-0.341544 -0.294672 1.14204)
(61.6822 -7.59314 2.15675)
(28.1298 -4.78834 0.717629)
(54.2323 -6.458 2.20529)
(39.7301 -2.89516 0.232677)
(49.1777 -1.35964 0.38127)
(41.5592 0.824684 -0.39154)
(44.422 1.93848 -0.321123)
(40.314 2.56246 -0.688942)
(41.0897 2.98127 -0.538182)
(38.9632 2.99485 -0.586786)
(39.3924 3.08185 -0.505479)
(37.1505 3.0129 -0.0330368)
(37.446 2.8043 0.00437706)
(42.5545 2.20599 1.51385)
(87.0088 -56.402 61.8836)
(-15.0679 -49.8863 16.6298)
(133.699 -43.6451 -8.71514)
(-1.94804 -0.13677 0.0613244)
(91.1187 -23.8444 0.32729)
(5.74898 0.13423 -0.70722)
(58.9636 -23.108 1.52243)
(20.4611 -5.88393 1.2911)
(49.7821 -14.0428 2.95533)
(33.7959 -2.18602 1.25857)
(45.2026 -3.46894 1.15015)
(36.8032 2.05454 -0.163165)
(40.5936 1.70516 0.218018)
(36.6255 3.81235 -0.216631)
(38.146 3.43042 0.00255881)
(36.1361 4.02295 -0.144269)
(37.0246 3.60881 -0.115667)
(34.5719 3.46779 0.232339)
(34.9878 2.83344 0.207602)
(39.6777 2.00221 1.69881)
(112.039 28.4575 15.7445)
(95.2973 -22.8654 -22.4739)
(178.774 -15.9867 -24.6096)
(76.1474 1.43478 -13.9255)
(107.462 -7.7607 -3.67881)
(38.0801 12.0111 1.28724)
(66.4684 -13.3374 8.81911)
(39.1491 -2.96251 6.65958)
(53.6316 -11.6025 7.52181)
(41.4652 -0.107116 3.48592)
(43.79 -0.518664 1.99943)
(36.2905 4.05363 0.265103)
(36.5539 3.22386 -0.257388)
(33.1362 4.25005 -0.315835)
(33.5896 3.82458 -0.214703)
(32.5007 3.87902 -0.375936)
(33.6258 3.60198 -0.242421)
(32.2118 3.20751 0.244422)
(32.8625 2.56777 0.195533)
(37.9192 1.6259 1.8048)
(123.235 -32.6272 -109.916)
(55.8482 -19.5357 -51.6174)
(169.472 11.3542 -22.9027)
(86.6988 21.684 -7.40677)
(121.695 32.5154 0.090108)
(56.2336 38.6417 -3.15019)
(63.7702 -1.90737 2.73056)
(32.6557 13.4652 8.28975)
(46.5772 -6.69869 10.1778)
(32.2998 11.9739 4.83638)
(36.4597 5.62529 2.30747)
(29.7836 10.2028 0.493475)
(32.3043 4.99007 0.167091)
(30.2322 6.21578 0.115354)
(32.0542 3.30553 0.104239)
(31.0583 3.20095 0.0472585)
(32.8285 2.18789 -0.0170763)
(30.9818 2.04387 0.302712)
(31.8359 1.53811 0.25633)
(36.4404 1.10072 1.78457)
(386.797 32.1745 -133.21)
(162.037 26.3982 -53.831)
(179.3 15.8085 -28.8306)
(56.0272 24.6524 -9.03316)
(121.273 30.4533 2.02946)
(79.3484 54.9768 0.964573)
(103.576 29.9124 -0.724129)
(80.5222 9.14881 18.7058)
(65.411 4.88089 24.1108)
(44.5129 12.5377 7.50476)
(39.6541 10.2883 0.974792)
(33.9915 8.88595 -0.55329)
(35.0175 5.61101 -0.617166)
(33.4871 5.1124 -0.201258)
(31.7853 3.00429 0.144768)
(33.0776 2.57656 0.449363)
(33.619 2.33984 0.331431)
(31.9428 2.02091 0.705748)
(32.0154 1.66298 0.461164)
(35.9258 1.14861 1.80785)
(187.952 90.9518 39.2813)
(117.905 65.8716 -21.1312)
(168.273 51.2199 -19.4933)
(66.7467 32.157 -11.6585)
(99.308 38.2876 -9.18947)
(67.563 42.6593 -4.8095)
(96.7706 42.3682 1.82939)
(84.0784 37.5754 15.5654)
(58.0567 41.6386 22.191)
(49.8405 26.9395 6.93041)
(47.1167 16.3677 1.11437)
(43.8696 9.95083 -0.590762)
(42.4061 6.10044 -0.932852)
(40.6283 4.33077 -0.929652)
(38.6233 5.07085 -0.639495)
(34.8055 1.16496 0.231994)
(36.8256 2.019 0.635892)
(33.8536 2.16531 0.981159)
(33.8613 2.41777 0.822443)
(37.0059 1.58923 1.88465)
(290.149 191.93 -115.353)
(25.5056 79.8043 19.2321)
(125.245 80.129 -14.6694)
(-21.4949 57.871 -3.40059)
(61.718 56.0557 -5.009)
(2.05479 44.6143 -11.6109)
(28.2621 43.6608 -11.848)
(32.9078 52.5735 0.66686)
(45.9387 46.4092 7.22314)
(53.2354 29.2231 3.33944)
(54.7847 19.2453 1.09707)
(52.9814 13.474 0.520953)
(50.4653 8.96981 -0.0799922)
(48.4827 5.4805 -0.973262)
(45.6038 3.89579 -1.74433)
(39.3165 1.59355 0.0871007)
(39.9709 2.36621 0.586961)
(36.2613 3.97652 0.850642)
(35.7028 4.06663 0.830141)
(38.354 2.9143 1.81348)
(264.078 216.155 104.84)
(-43.0539 113.688 -18.8806)
(83.8354 86.2133 -13.1047)
(-39.0724 72.2378 3.34862)
(51.3039 55.5825 0.445928)
(-9.95481 44.5561 -2.1413)
(10.8227 40.577 -3.39601)
(25.3546 37.0701 -1.88115)
(41.0741 31.0018 1.11247)
(51.9516 24.0367 0.744802)
(58.3762 19.7614 4.47561)
(62.988 15.8678 1.58303)
(62.2595 13.8828 1.28128)
(58.3635 11.1379 0.678953)
(49.2404 6.11968 -0.63407)
(38.6552 2.4448 0.597038)
(38.2674 4.2206 0.505108)
(34.4252 5.00339 0.425293)
(34.0054 5.62045 0.468477)
(37.2786 3.99066 1.6452)
(38.1299 13.0444 -65.317)
(-160.277 58.6262 -37.7518)
(33.9668 57.6646 -37.4847)
(-64.924 69.5851 -4.14439)
(35.5222 56.2644 -6.76059)
(-7.14679 43.133 -4.47227)
(29.4346 31.1665 -0.900575)
(39.2939 24.3364 1.28003)
(42.7335 19.1355 4.5485)
(45.2746 17.9372 1.74437)
(47.0827 15.1807 -0.131418)
(47.9987 13.7769 -1.11139)
(48.7223 14.2297 -1.85127)
(48.3968 13.9906 -1.34133)
(42.8474 9.12999 -0.0963242)
(31.2705 8.25954 1.05378)
(32.2169 6.66929 0.597004)
(29.4829 6.26194 0.29916)
(29.8821 5.83288 0.28016)
(34.7102 4.28197 1.58793)
(143.22 -40.937 -49.4009)
(18.1965 32.6067 -13.822)
(69.089 20.8993 -13.7063)
(-41.5264 51.0782 -5.00012)
(50.089 39.3498 -1.28235)
(-16.1238 3.46164 2.80775)
(23.1684 32.5553 2.71763)
(9.36451 25.3365 5.48632)
(24.8254 24.5983 4.2262)
(22.759 17.7544 1.53214)
(28.3158 15.3751 -0.176787)
(27.2981 12.894 -1.20581)
(29.8068 12.5209 -1.67605)
(28.8527 10.949 -1.14093)
(23.0319 10.476 0.544696)
(24.5849 8.86419 0.142599)
(24.9932 6.91304 -0.0630815)
(24.2337 5.27814 0.142328)
(24.8381 4.37656 0.229663)
(31.3415 3.19891 1.83088)
(-24.877 78.2563 -149.148)
(-138.914 49.1929 12.7658)
(48.4157 48.9069 8.3173)
(-42.4001 39.1179 3.38264)
(33.0331 26.8379 0.115032)
(-25.7267 20.0561 1.51314)
(15.5167 48.681 0.895865)
(-3.86051 11.2142 2.18103)
(17.1578 27.7162 1.41687)
(9.77445 11.3807 1.0382)
(18.5114 17.2847 0.89519)
(14.8867 10.3538 0.557071)
(18.7332 12.678 0.415759)
(17.6873 9.07549 0.133339)
(19.9869 9.79915 -0.169831)
(19.9081 7.23317 -0.394367)
(22.0165 6.13547 -0.462938)
(20.7194 3.9153 -0.160561)
(21.7421 2.26315 0.0863288)
(27.775 1.50425 1.92645)
(238.495 16.1444 -6.13877)
(56.0022 -5.95894 -0.0031168)