/*--------------------------------*- C++ -*----------------------------------*\
  =========                 |
  \\      /  F ield         | OpenFOAM: The Open Source CFD Toolbox
   \\    /   O peration     | Website:  https://openfoam.org
    \\  /    A nd           | Version:  10
     \\/     M anipulation  |
\*---------------------------------------------------------------------------*/
FoamFile
{
    format      ascii;
    class       volScalarField;
    location    "3";
    object      omega_0;
}
// * * * * * * * * * * * * * * * * * * * * * * * * * * * * * * * * * * * * * //

dimensions      [0 0 -1 0 0 0 0];

internalField   nonuniform List<scalar> 
12920
(
178.123
150.995
137.415
105.764
89.8154
77.8612
69.2822
64.0586
59.2591
56.4182
53.4344
51.3684
49.4166
47.9682
47.2697
46.6981
46.2595
45.0168
43.8959
40.8025
385.741
303.776
181.906
125.874
116.78
94.9565
83.654
75.5469
69.012
65.4737
62.5871
61.6414
60.6849
60.4794
60.2162
59.6372
58.015
55.2056
52.7834
51.9313
206.675
210.29
177.362
141.435
127.633
110.796
95.075
82.5195
72.5443
66.7853
62.0727
58.9025
55.9146
53.7068
51.8502
50.5647
49.9962
49.9313
50.2138
51.1857
251.234
239.724
207.603
163.415
138.53
123.989
107.007
92.1321
78.3908
69.007
62.6452
58.7858
55.7868
53.7085
51.9566
50.4881
49.5374
49.0136
48.7479
47.8069
226.911
377.328
321.44
203.775
150.103
130.683
111.971
98.9216
86.3859
75.6391
66.9869
61.3815
57.8815
55.5967
53.7911
52.2965
51.4404
51.0943
50.6527
48.5173
564.7
347.363
209.334
165.064
134.826
121.616
107.549
98.6323
87.9684
79.3879
71.2663
64.5039
59.8384
56.5892
54.5546
52.7385
51.9066
50.9249
50.1184
47.0168
481.214
306.543
159.402
127.159
124.516
119.732
107.556
99.3837
88.932
78.236
70.3329
64.02
59.9159
57.7861
55.7968
53.7061
52.2634
50.8473
49.7959
45.6795
218.138
193.668
154.007
148.459
142.995
125.182
187.932
148.114
146.724
124.801
106.131
98.8799
97.9871
96.3908
62.6922
57.2888
53.5809
51.6293
50.3642
45.309
121.432
211.814
199.774
195.056
175.257
264.392
349.407
219.919
200.421
198.526
163.862
163.878
172.209
169.854
105.765
57.7567
53.5465
51.3491
50.004
44.5731
42.6988
169.736
203.12
201.126
177.219
269.46
359.801
231.106
222.872
199.607
181.586
178.663
173.79
158.082
93.8873
52.9754
50.7355
49.426
48.449
44.0696
337.572
298.458
232.999
179.783
131.921
169.775
220.099
189.082
174.375
157.479
170.837
161.976
146.936
144.419
89.305
50.4026
49.2991
48.0255
47.0773
43.9416
236.261
286.752
258.073
199.149
156.381
225.57
305.945
202.193
183.294
160.863
141.62
143.081
145.007
135.337
76.184
45.9413
45.8173
45.9398
45.8957
44.9635
296.064
271.358
205.063
150.344
136.313
127.011
202.747
142.417
110.213
97.9022
93.5858
87.7052
80.7311
73.1151
41.8779
40.4773
40.7013
42.0249
43.8315
44.2768
399.826
338.818
242.509
178.23
137.988
119.885
100.249
85.6929
72.4988
63.3757
56.9199
52.1143
47.8165
43.9188
40.7103
38.4048
37.4667
37.485
38.6619
40.9794
386.216
369.219
262.181
209.432
172.548
145.441
115.823
92.0031
74.9266
66.5972
59.2847
53.7076
48.5457
44.5763
41.312
38.7277
36.9528
35.375
34.8413
34.894
228.448
258.295
229.26
186.629
145.154
113.481
92.6504
82.3158
74.0702
69.8224
62.5529
55.52
48.8894
44.5707
41.6175
39.3882
37.7682
36.3263
35.3371
34.1064
142.453
223.971
196.422
139.432
109.448
90.5476
82.3815
77.768
72.5637
69.8805
64.4259
57.7246
51.0569
46.1626
43.3532
41.2551
39.9416
38.2889
37.48
35.4314
152.417
208.783
211.113
164.527
117.873
93.4698
78.0831
72.0137
67.1212
64.9922
62.2495
58.6191
53.7686
49.4934
46.7143
44.8917
43.7366
42.1186
41.4838
39.9635
105.571
184.167
213.662
192.897
132.418
96.1332
78.651
73.8042
68.7873
65.0918
60.7734
57.554
53.3896
50.106
47.9579
46.3493
45.7323
44.706
44.4011
43.4139
98.9764
189.077
190.533
171.701
145.362
117.646
95.2868
81.5838
72.6979
64.8162
57.3633
51.2858
47.0317
44.1078
42.4207
40.8638
40.0187
38.607
37.8944
36.1197
163.346
95.6214
76.5864
54.8834
46.0282
39.9676
37.5789
35.8265
34.1768
33.0439
31.6743
30.9268
30.2887
29.9601
29.598
28.8119
27.9959
26.5759
25.7849
24.5476
299.864
217.46
98.2902
59.9716
52.521
47.9876
44.5919
40.0891
36.3894
33.6032
31.6874
30.9775
30.52
30.4716
30.4156
30.3084
30.1991
30.1913
30.4305
30.8847
201.833
164.13
87.5195
67.9992
62.5579
56.5102
52.2553
44.8688
39.4199
34.2638
31.2613
29.3483
28.4719
27.9204
27.7662
27.6014
27.583
27.5354
27.4039
27.0362
391.616
124.16
101.998
89.371
77.569
72.1104
63.3492
55.895
47.9187
40.5491
34.87
30.9857
28.7534
27.4695
26.754
26.2759
26.1599
26.1199
26.1535
25.7859
291.487
255.564
196.6
121.9
86.37
76.2753
65.286
58.3321
50.1188
43.191
37.553
32.9204
29.8779
27.8727
26.6916
25.942
25.6448
25.6028
25.6681
25.2436
498.452
264.19
137.514
97.4271
76.1479
67.1795
57.9191
52.8388
46.0657
41.9559
38.0646
34.2026
30.6537
27.9767
26.4244
25.729
25.4995
25.3615
25.2015
24.2517
340.385
254.67
181.802
131.868
95.1231
73.2095
58.3953
50.9341
43.6405
38.7113
33.7429
30.6245
28.2959
26.9436
26.3295
26.048
25.8959
25.5722
25.2057
23.904
140.177
166.455
131.667
105.017
87.4365
72.3574
69.2002
57.7697
48.8024
43.7272
36.2503
30.5135
28.1818
27.3611
26.2339
26.7722
26.7569
26.3317
25.7443
24.0636
312.282
147.984
117.393
106.362
101.706
111.86
106.962
75.3656
49.5962
42.4047
36.1696
30.1446
28.1645
27.636
27.0719
27.9233
28.3288
27.6957
26.5932
23.8991
116.296
169.142
146.455
115.235
103.029
117.204
119.082
83.4345
59.4051
40.3308
35.4254
31.7177
30.5542
29.8151
28.87
28.5088
29.0038
28.4311
27.0664
23.5108
146.054
157.956
110.253
86.7684
75.2482
70.4247
58.5782
49.0163
44.5292
35.5741
33.1238
34.6382
32.8405
30.5787
27.9881
24.1724
24.6018
24.6253
24.4193
22.7252
155.992
167.456
131.314
112.967
96.1394
94.8705
88.2945
72.6546
56.0108
38.4833
32.0699
30.5618
28.9208
26.9865
23.0057
20.628
21.2961
22.0038
22.4926
22.4121
262.215
192.417
139.757
118.851
100.263
75.8712
68.9413
66.1064
45.7742
35.6478
30.4693
27.6592
25.8861
24.3449
20.8288
19.9909
19.9172
20.3045
21.164
22.1663
151.358
284.377
285.716
187.342
105.312
78.8894
60.1091
49.329
38.7728
32.8901
28.5953
26.2101
24.2759
22.6936
21.3047
20.0557
19.2711
19.1158
19.394
21.0114
352.34
274.586
195.035
145.671
119.054
103.469
74.6177
53.2021
39.0315
32.6856
28.7043
26.2686
24.0584
22.1956
20.7809
19.5138
18.532
18.0755
18.0823
18.9639
232.403
167.194
112.696
98.7078
82.694
60.5489
48.2674
40.532
34.7681
32.9676
30.3856
28.1358
25.174
22.6394
20.8699
19.5668
18.8191
18.2368
18.02
18.0362
268.946
138.444
89.7077
63.3114
52.3882
44.2809
39.8693
37.4736
35.1494
34.6209
33.9351
33.0668
30.6423
25.8926
22.2091
20.2047
19.2925
18.642
18.3935
17.8976
197.245
183.285
147.328
96.7023
66.2577
50.8628
41.783
38.0162
35.4622
34.6761
34.2168
33.7971
32.5755
28.8329
25.0237
22.7104
21.6994
20.9239
20.6987
20.3233
111.457
183.259
188.456
138.567
86.1899
61.0198
46.1441
40.9418
37.031
34.7209
32.2481
30.5095
29.1272
28.0152
26.9539
25.9098
25.4553
25.0034
24.7812
24.0175
66.0041
112.019
102.479
84.3579
69.1872
56.3584
47.1029
42.429
40.0571
38.103
35.6056
32.6542
29.8161
27.6979
26.5165
25.5727
25.0428
23.9946
23.474
22.1803
90.5478
120.939
96.3152
62.7863
49.7509
43.9064
42.1114
40.6647
38.8584
37.2488
35.4545
34.1787
32.9771
31.9473
30.8856
29.6498
28.3782
27.0183
26.5794
25.7543
155.381
143.629
99.7796
55.4723
45.1684
39.2686
37.8987
34.6257
32.396
31.3276
30.2633
30.1965
29.9972
30.0003
29.8206
29.6573
29.4676
29.4638
29.5563
29.806
225.498
128.921
78.2791
56.2341
50.7166
42.3068
39.7717
34.577
31.5634
29.124
27.5122
26.7162
26.1984
26.1094
26.0611
26.089
26.1083
26.1124
26.0673
25.7767
251.6
111.672
80.7212
66.4339
59.5723
51.3559
45.8643
40.1674
35.1535
31.1591
28.1556
26.4704
25.3568
24.8419
24.5013
24.3632
24.3395
24.3422
24.3207
23.8696
228.397
211.891
138.299
89.561
65.5118
56.4943
47.8479
42.6562
36.8344
32.6835
29.2339
26.9242
25.3329
24.4874
23.924
23.6621
23.5989
23.5964
23.5482
22.9492
197.531
213.529
144.817
83.7082
62.174
53.2116
45.4162
41.4061
36.0877
32.9454
29.7407
27.327
25.3476
24.1403
23.4752
23.1419
23.0388
22.9123
22.7074
21.9205
219.827
195.789
144.413
99.877
69.2033
55.8576
45.7558
40.1248
34.6349
30.9478
27.8175
25.7852
24.5135
23.811
23.4792
23.2433
23.0698
22.682
22.3384
21.433
233.559
140.098
102.842
79.0815
63.0912
53.0657
49.8065
44.5525
37.5085
33.0664
28.4003
25.7394
24.4742
24.0308
24.7846
24.3886
23.9096
23.0026
22.4877
21.3136
493.212
201.19
101.286
77.8134
66.5246
66.2374
61.6669
49.5363
38.4883
33.5601
29.0147
26.1679
25.2227
25.0269
25.8112
27.009
25.6265
23.7492
22.8199
20.8688
165.264
176.763
114.991
79.8122
66.3266
67.2358
65.8088
51.8955
39.9543
32.493
30.2305
30.3545
30.5942
30.1215
29.3557
28.6226
26.6827
24.2645
22.8287
20.6168
131.538
145.025
98.4943
62.7452
50.5818
47.6807
44.2108
39.1582
34.254
28.2848
69.356
60.0341
37.7611
29.1417
25.4409
25.0176
24.0346
22.7723
21.9092
20.6849
186.275
128.072
94.2703
80.7157
63.9305
57.831
55.2338
48.7648
38.1556
29.7807
26.9101
25.7495
24.5058
23.0631
21.4875
21.4023
21.1815
21.1254
21.1536
21.1148
120.056
147.45
145.198
127.669
83.8063
57.2188
51.8148
46.3032
33.8905
28.572
25.2619
23.4625
21.762
20.7054
19.5771
19.1333
19.1838
19.612
20.3061
21.0636
150.661
246.571
219.741
120.638
69.7386
53.3124
42.9197
35.1684
29.4783
25.6136
23.3904
21.6178
20.4143
19.281
18.4949
17.9673
17.8892
18.0582
18.6535
20.0785
209.75
179.544
126.621
91.4279
73.2882
59.681
45.246
36.0225
29.2845
25.9446
23.3915
21.6526
20.1418
18.9771
18.087
17.4424
17.0888
17.055
17.1981
18.05
324.755
115.841
79.4105
61.0044
54.5232
41.4762
36.2551
32.1376
28.5438
26.9899
24.7066
22.8257
20.7962
19.3416
18.2986
17.6366
17.2498
17.0469
17.0296
17.2196
354.033
178.054
84.5418
54.9701
44.9567
36.811
34.265
32.0868
30.1765
29.5459
28.3276
26.7157
23.6875
21.2505
19.4881
18.5176
17.9826
17.6239
17.4679
17.336
260.032
182.709
123.313
79.9031
54.8504
43.6081
37.2197
34.7152
32.3329
31.5594
30.3335
29.1135
26.5859
24.1909
22.3558
21.3552
20.8513
20.4613
20.3831
20.1763
172.931
212.882
161.155
92.7456
63.145
50.5698
43.9269
41.162
37.8049
35.4439
32.2684
30.13
28.1306
27.0159
26.2091
25.9107
25.8572
25.7959
25.6881
25.002
98.0325
113.137
88.9352
73.0723
68.4199
59.3839
52.4442
48.9092
46.7149
43.8493
39.8445
35.6395
32.3511
30.2304
29.1343
28.098
27.4442
26.2662
25.6157
23.9327
83.4464
117.654
89.9998
60.732
49.8929
45.2915
43.5543
41.8694
40.0438
38.0591
36.095
34.2615
32.762
31.1627
29.8388
28.3869
27.5198
26.6689
26.249
25.1253
279.456
123.22
91.5871
55.9955
47.6746
40.5082
40.7326
37.6101
37.3049
36.506
36.5254
36.5052
36.361
36.2299
35.857
35.6012
35.3708
35.2509
35.2592
35.3147
137.135
117.889
74.9617
56.3298
49.4895
40.228
39.5844
34.8745
33.9781
31.9134
31.5577
31.0142
31.0495
31.0379
31.1222
31.1531
31.1569
31.0479
30.9198
30.4888
376.921
112.899
73.5744
59.7305
55.1086
44.026
42.6742
36.6825
34.7863
31.691
30.6522
29.5744
29.3133
29.0411
29.0366
28.9686
28.9422
28.7886
28.566
27.8763
180.499
162.749
106.568
72.6068
61.297
48.534
45.0263
38.5907
35.8126
32.2698
30.6868
29.1697
28.6105
28.1647
28.0958
27.9995
27.9965
27.8643
27.5314
26.653
221.923
171.799
112.479
73.2026
61.8305
48.8954
45.0967
39.1855
35.8438
32.663
30.6913
28.9693
28.1191
27.5018
27.3172
27.0903
27.0424
26.8419
26.4709
25.6824
209.757
138.427
111.159
77.1408
64.8134
51.7051
45.7791
38.7232
35.2631
31.5438
30.052
28.3808
28.0543
27.5771
27.345
26.9062
26.6838
26.1808
25.729
24.9452
153.903
131.218
100.674
70.207
59.143
49.0504
46.0598
42.2203
36.2581
33.0004
30.2809
29.2648
28.545
28.3551
30.3797
28.2639
27.1443
25.968
25.2901
24.2357
270.253
172.195
104.826
70.1404
57.7455
52.394
48.6688
43.7677
37.4755
34.4272
31.9434
31.2174
30.8731
30.74
32.0942
31.0895
28.2417
25.99
24.9097
23.7255
252.957
180.278
99.3004
66.2416
54.3957
50.2836
48.3233
42.6125
38.0438
34.608
33.443
34.3892
34.6464
34.5735
34.9838
32.2013
28.6271
26.1382
24.9485
24.1346
126.213
130.178
86.9721
55.891
47.4396
43.2735
41.5565
38.8166
35.6295
32.7654
52.8121
49.0033
36.5688
32.9608
32.9073
30.812
27.741
25.9426
25.2241
24.8888
141.388
131.529
88.4226
63.213
52.8386
46.7797
46.1459
41.2908
35.5914
32.2025
30.1913
29.1441
28.7311
28.6761
30.045
28.2692
26.2399
25.5495
25.5482
25.6506
265.549
199.294
136.171
93.435
67.0649
50.0893
46.8414
39.6886
33.2278
30.514
28.0942
26.9767
25.9604
25.7396
25.9462
24.4327
24.2636
24.5207
25.0847
25.6892
214.354
168.158
117.479
73.2599
57.9943
45.155
40.4786
33.5201
30.4644
26.6881
25.596
23.8062
23.4064
22.5514
22.337
22.2015
22.3848
22.942
23.6423
24.6977
236.87
129.569
90.6865
65.1445
58.2222
44.8037
40.4544
33.8916
30.1897
26.917
25.2583
23.6365
22.8693
22.0813
21.7031
21.4678
21.52
21.7409
22.1108
23.0876
204.651
147.009
78.1376
54.8413
50.0747
38.4821
37.1565
32.8122
30.6438
27.9494
26.3714
24.4833
23.5216
22.4527
22.093
21.6575
21.6468
21.6605
21.8157
22.4009
255.942
171.676
96.5949
57.0543
49.2585
38.0166
37.5114
34.1933
32.8984
30.7447
29.1984
27.1434
25.415
24.0099
23.3327
22.6945
22.4525
22.203
22.1845
22.3884
210.141
184.727
120.593
71.7813
56.8581
45.5507
42.8494
38.7584
36.9721
34.8407
33.0598
31.0914
29.1092
27.5909
26.8992
26.3187
26.1339
25.8502
25.8559
25.8191
186.208
166.455
115.49
77.0675
63.0776
55.6574
53.1732
49.2179
45.4845
41.5252
37.7332
35.3237
33.9631
33.244
33.0396
32.9601
32.9973
32.9264
32.7841
32.0336
91.4294
77.6985
52.0829
52.0575
60.8971
60.4366
55.7331
51.9635
48.5965
44.1621
39.2263
34.9239
32.0738
30.1434
28.9966
27.622
26.7325
25.4415
24.7913
23.1233
55.5678
96.0721
71.8881
54.8357
48.4663
45.3715
43.2391
40.9906
38.5868
36.093
33.5088
31.0682
29.1131
27.718
26.9294
26.3325
25.9629
25.0019
24.3607
22.9639
192.196
133.763
91.0157
66.744
62.8055
51.1201
61.5858
50.617
60.7688
54.1246
59.9082
56.4911
59.4126
57.9835
59.4652
58.8219
59.4454
59.0027
59.5499
58.8011
141.156
126.109
90.3354
70.9441
64.4013
49.9428
58.0529
46.0752
54.0279
47.3124
52.3482
49.2825
52.1469
50.965
52.4718
51.9309
52.4756
51.7073
51.7958
50.307
412.029
147.151
79.6793
75.6743
65.432
50.9347
58.8053
45.8952
52.9234
46.0535
50.2706
47.2048
49.567
48.3818
49.6215
49.0666
49.5304
48.8038
48.818
47.4304
230.047
146.852
112.986
75.7017
79.5968
54.868
63.3001
48.7661
53.9273
46.799
49.9802
46.8173
48.7643
47.5161
48.6894
48.1473
48.6511
47.7822
47.6151
46.0802
179.83
150.227
111.001
73.5664
77.5678
54.9116
63.6031
49.7012
52.6291
46.6954
48.3796
46.0779
47.3234
46.5881
47.3142
47.0116
47.4065
46.7667
46.6407
45.428
332.985
150.191
109.668
75.939
83.8651
59.8499
66.3478
50.7242
53.4845
46.8842
49.0644
46.417
48.0781
47.1506
47.6113
46.9443
47.2017
46.2937
46.0519
44.635
235.773
149.59
121.845
72.0934
77.776
58.6887
59.1181
51.8633
51.0045
47.6474
47.9951
47.1448
47.5606
47.1208
52.6271
48.5367
47.3369
45.6279
45.0047
43.2398
259.242
161.376
118.543
71.9732
70.5818
58.8086
61.4088
58.522
55.447
54.1044
53.5919
53.7742
53.5074
52.9208
54.9454
51.5832
47.5321
44.8317
44.2368
42.5307
312.983
170.749
116.655
68.976
69.1554
56.769
58.0717
60.5823
59.7276
56.6414
54.7865
55.5125
57.4268
56.8362
56.9212
51.7925
47.2617
44.8758
44.4164
43.2249
146.475
131.479
95.5609
66.1886
67.1058
56.5646
57.5332
59.7933
59.1927
54.7046
52.5791
52.6271
56.5608
56.9712
56.9113
51.1809
46.6198
44.9424
44.7698
44.2348
146.045
139.389
96.9592
67.2604
69.167
58.5714
62.2501
58.7228
57.0584
55.3013
53.6389
53.091
54.3914
54.4197
55.3475
49.2521
45.7797
45.2559
45.5669
45.767
375.146
206.086
127.61
78.3433
86.1662
69.4
62.3602
50.8852
51.2416
47.8196
48.5175
46.7826
47.2016
46.4604
48.5692
45.0383
44.5698
44.9747
45.7152
46.5606
206.109
136.389
105.898
68.3904
80.1979
56.6065
60.7102
49.6831
50.2948
44.9455
46.1732
43.7362
44.382
43.122
43.0436
42.5961
43.0091
43.6338
44.6057
46.0746
211.418
155.226
99.4123
67.1226
75.9882
52.793
62.5281
50.4639
52.2049
46.1786
46.5597
43.8963
44.0548
42.9497
42.7029
42.1688
42.188
42.3612
42.8411
44.3929
238.847
166.328
97.311
65.5159
71.0552
49.7259
61.2782
48.0156
53.5134
46.196
48.2984
44.502
45.3503
43.4969
43.7823
42.8521
42.9777
42.7296
42.9635
43.8331
194.901
174.652
122.412
69.7793
74.173
51.1398
63.3936
50.0767
56.4922
49.2824
51.5188
47.5848
48.2063
46.1898
46.0185
44.7316
44.3494
43.5772
43.5549
43.6809
319.001
262.263
156.92
78.6524
89.703
64.8124
72.7496
59.3787
63.7432
56.3508
57.8868
53.4745
53.7805
51.4167
51.3471
49.8341
49.4343
48.4774
48.506
48.4074
244.309
134.964
136.919
92.8257
105.225
84.7223
89.5937
74.6282
74.3295
65.4258
66.8657
63.7337
64.8053
63.5526
63.8336
62.7344
62.0361
60.427
59.8782
58.6661
26.9495
52.4507
64.6248
65.1889
63.1682
58.5726
54.5442
48.8983
42.3469
36.508
33.0465
30.5903
28.8545
27.0343
25.5199
23.7147
22.398
20.7232
19.9467
18.4151
30.4753
29.7501
60.4224
33.0391
31.9731
31.6329
72.1459
30.1969
62.4763
58.0499
32.073
33.0651
74.5734
67.1829
65.2732
29.7634
27.5592
30.5639
83.9609
30.5183
29.0927
64.7308
27.2804
26.7624
87.4415
75.2692
28.8523
28.2486
227.094
358.887
244.743
122.785
94.7889
131.658
100.782
200.36
231.962
227.394
82.8415
57.519
89.9144
72.8767
200.664
223.543
202.127
54.6907
47.7869
66.8388
49.736
168.709
200.968
186.376
46.91
42.8927
46.5554
42.6453
162.312
174.3
172.191
40.7391
34.9143
41.241
35.5802
171.501
176.726
178.827
33.7141
31.8772
34.45
32.9841
171.422
177.266
166.925
31.4797
30.9141
32.7292
32.0695
151.637
163.606
141.399
30.7493
29.7811
31.8584
30.2969
244.095
275.304
203.585
134.504
101.391
99.9681
64.9064
226.919
200.664
187.993
90.9871
73.7143
59.6496
53.7506
200.041
180.05
170.276
67.3126
48.6627
51.5986
42.5772
192.207
171.715
181.79
45.0655
40.7361
39.9455
36.776
176.189
181.767
174.822
39.9475
36.2276
36.887
38.3153
177.444
170.714
156.015
35.3106
33.9618
38.3048
36.9835
160.99
151.617
145.067
33.6639
32.6563
36.1806
33.7802
138.812
144.464
128.121
32.3433
30.48
33.2608
31.4514
189.674
267.184
209.224
67.6119
55.3621
84.0107
74.2161
180.883
199.344
185.703
54.1422
51.7804
72.2196
65.2969
158.08
187.045
173.798
50.4756
42.87
60.951
47.9005
168.795
160.478
142.953
40.1728
36.5023
44.1878
37.4366
167.585
140.86
140.162
36.5416
38.0751
36.6714
35.7341
149.216
141.316
145.668
38.1092
36.7126
35.4045
34.353
144.613
146.017
144.256
35.8743
33.803
33.9406
32.4186
128.145
141.221
115.938
33.4424
31.6563
32.0183
28.5024
216.657
352.609
257.547
101.56
82.9241
105.849
87.4116
183.109
242.411
185.086
78.8114
66.9752
82.1688
63.5229
173.344
176.034
157.69
62.0555
47.6224
56.8901
44.9626
143.18
155.92
154.978
43.8283
36.9183
41.846
36.6278
141.673
154.939
151.256
36.015
34.7246
35.3558
32.9572
145.17
147.984
142.628
34.4095
33.0658
32.2664
31.0172
138.704
139.407
128.91
32.5244
30.6714
30.5261
29.2152
112.273
125.277
107.224
30.2512
27.3239
28.6437
26.0457
86.2721
114.331
91.6182
69.9307
58.1884
73.7435
61.203
52.5581
81.7949
64.6546
53.4948
42.2689
56.7031
46.0282
43.3466
58.8485
44.2443
40.162
35.6287
42.8106
35.7275
38.1182
41.6063
37.6378
34.768
30.9956
34.2746
31.1075
31.185
36.2614
31.7543
29.7279
26.7838
30.1991
28.0633
28.4935
30.8235
29.5905
26.2376
25.2826
27.6991
27.3185
27.7353
29.4079
29.0306
25.0835
24.8473
27.3007
27.3429
27.4937
28.9292
28.6747
24.8375
24.8577
27.3725
27.6347
93.0147
84.8717
57.7926
76.82
62.5738
57.6741
44.9635
65.6193
53.6543
47.8692
57.852
46.4309
42.9332
38.1421
43.3646
45.7051
37.8611
42.9522
35.081
36.4397
31.5569
36.2636
35.6403
33.2948
33.4543
30.8523
30.2913
39.1521
32.4242
33.5334
35.0012
30.386
29.5935
41.4755
43.4559
30.7431
34.9955
34.0025
29.5778
29.6997
43.2785
39.6131
29.9717
33.3489
31.4118
29.7019
29.5603
37.8677
32.986
29.1563
30.947
29.7982
29.4907
28.8505
31.6635
28.088
50.1367
74.5101
68.3108
46.7004
41.725
56.2876
51.4798
46.0643
66.5635
59.3383
40.69
37.0943
50.0786
43.4972
37.7797
54.7431
41.7775
35.6338
31.2742
40.3244
32.4823
32.9711
38.5909
33.1653
29.6599
38.9725
30.759
27.9816
34.6183
32.5223
31.6919
41.6811
43.8046
27.6337
27.0772
33.5386
31.4277
30.4664
43.1954
37.0405
26.894
26.0613
31.0437
30.0925
28.7425
34.9392
30.1226
25.7128
24.5446
29.767
28.3812
26.1997
28.9106
26.7183
24.1995
22.69
75.9863
83.1454
74.555
61.8503
55.1959
61.6802
55.3695
61.2306
71.2815
55.4871
53.3666
44.8108
52.6979
41.7063
41.7618
49.7471
39.4216
41.1919
32.5645
38.3686
31.646
32.8414
36.7912
32.3374
30.7844
27.7921
30.1297
27.3999
30.8666
31.2137
28.9852
27.3147
26.3665
26.5824
24.732
29.3791
28.4335
27.2705
26.0994
25.1505
24.3552
23.3632
27.3776
26.8411
25.5992
24.7933
23.6132
22.9241
21.7599
25.0506
25.1608
23.6576
23.2433
21.9976
21.4464
20.2667
52.9941
63.7619
54.6153
49.89
45.5697
49.9372
44.7264
40.4025
51.1204
42.4546
43.7993
38.1945
42.9651
38.4555
34.4059
39.9474
34.4049
36.7651
33.8476
37.2211
34.2271
30.114
33.1807
30.3842
33.1922
30.8345
33.3878
31.4313
26.6016
29.643
28.1091
30.2048
29.1277
31.0472
30.6279
25.3892
27.8924
27.7137
28.9756
28.6051
30.6288
30.7534
25.0317
27.7121
27.7717
28.5088
28.3847
30.8069
30.9586
25.012
27.7968
27.9912
28.3556
28.1736
30.9702
31.0333
55.6081
51.3751
42.5418
50.3456
44.8452
43.614
39.642
42.6473
40.8536
36.4454
42.9753
38.316
38.5749
35.4975
33.8392
34.9387
30.8437
37.0511
33.9336
34.5876
32.13
31.3791
31.4868
31.5467
32.0554
31.0139
31.2668
31.3083
36.9824
30.0881
33.0963
30.5888
33.9387
30.6609
35.5832
30.6147
57.14
45.8236
33.2775
33.2926
62.3312
44.8425
30.2639
42.2649
34.3172
33.1679
32.7155
41.0773
34.614
29.2618
32.4938
28.2974
32.5508
31.8762
33.3661
30.8125
40.1729
51.5102
47.5884
41.2424
38.7577
45.2449
41.89
35.5929
46.2129
40.1133
37.8779
34.9482
40.616
36.1063
30.5772
37.4791
31.1461
34.0479
31.7135
34.6378
31.3125
33.5573
43.1678
29.3399
33.577
30.3919
218.633
29.2799
39.4373
69.1507
34.3477
186.401
34.8131
172.318
39.3927
41.7348
26.5804
25.7342
64.1426
41.252
28.0405
27.3258
30.5992
25.3867
24.2674
37.5216
31.903
27.1239
26.6279
26.7036
23.9402
22.6463
30.9216
29.5452
26.5032
26.1633
50.4815
55.1497
51.1278
46.7257
43.0389
48.1811
44.1215
41.1347
48.3349
38.895
41.53
36.3964
41.3409
35.2806
31.1976
36.1468
30.4745
34.7844
31.2338
33.6755
30.3734
27.3312
29.2285
26.8923
30.4627
28.8278
29.7042
27.9576
26.006
26.1171
24.3842
28.4532
27.5752
27.3371
26.0584
24.8457
24.0471
23.0535
27.3532
26.6981
25.8226
24.8315
23.4033
22.631
21.5053
26.4978
25.972
24.4949
23.8688
22.0116
21.2351
20.2172
25.8432
25.6886
23.7545
23.2397
45.3119
48.2403
44.0916
53.9384
52.4968
52.3302
51.8692
38.7583
42.713
39.1311
51.0989
47.5159
51.4883
50.3241
35.0148
38.1475
35.6621
47.087
46.3558
49.9532
48.1633
32.4284
34.8774
33.0405
45.8832
44.988
47.2851
45.7016
31.3022
32.7152
32.4483
45.1056
45.5978
45.5682
45.8933
30.9492
32.4722
32.8578
45.5357
45.3143
46.1959
47.5947
30.7868
33.0001
33.3557
45.3273
45.1406
47.9338
48.042
30.182
33.3639
33.0251
44.9422
43.9424
47.8063
47.1237
44.0478
43.1366
40.1978
51.4565
51.6019
49.7176
50.57
39.0067
39.319
36.848
51.4081
50.6884
50.5693
50.3801
35.4492
36.1525
33.8539
50.3309
47.8595
49.9775
46.3559
33.3743
33.396
48.7147
46.7404
44.8549
45.0981
44.7468
34.2236
51.7019
51.8007
44.7852
45.2534
45.5023
45.7561
34.6119
49.5644
41.1637
45.64
47.61
45.4116
47.0648
34.6458
39.108
35.5071
48.1756
48.5421
47.8133
48.6345
33.6966
34.8019
32.8371
48.3175
47.3953
48.4383
47.3752
39.5893
44.9758
41.9675
49.7172
50.5522
52.7092
51.2613
36.3309
40.7599
36.7798
50.4262
50.0067
50.4245
48.7137
33.4417
35.6178
32.9877
49.6125
46.0542
48.4298
46.4407
49.654
32.2547
30.7495
44.7934
44.0982
45.363
43.1716
52.3784
30.4717
29.8073
44.6836
44.7522
42.8663
42.4791
38.5957
29.6015
29.2083
44.4357
46.1406
42.6607
44.5425
33.5167
29.2022
29.2468
46.9694
47.9516
45.1253
45.7732
31.7685
29.2613
28.9435
47.8178
47.0115
45.7358
45.4857
42.7151
47.1724
43.4036
53.8497
51.0077
54.9343
48.3019
36.8719
40.6898
35.4972
49.9108
47.9328
46.074
43.568
32.8801
34.2069
31.7036
47.7018
46.5626
43.6802
43.2356
30.5733
31.1445
29.4636
45.7023
43.9263
42.7643
41.3861
29.336
28.925
27.9431
43.6769
43.3545
41.506
41.422
28.7787
27.7224
26.7966
43.4272
44.4319
41.1618
40.3737
28.6716
26.5674
26.3495
44.7115
45.0999
40.4941
40.6746
28.4854
26.3025
25.6366
45.0409
44.9573
40.579
39.8548
59.9856
59.2851
60.6788
101.028
107.042
99.0122
117.385
55.3522
60.4947
59.6042
105.832
111.087
118.681
121.998
54.6453
59.2421
57.6167
114.536
114.417
123.178
130.759
53.2577
56.8848
55.7225
114.268
119.361
133.361
139.738
53.8597
55.6354
55.8476
122.172
121.734
141.162
141.606
53.3887
55.9232
56.8481
122.048
123.317
140.72
133.964
53.1162
57.0427
56.6802
124.895
123.502
132.661
130.103
51.0968
56.2919
54.8429
124.174
122.559
129.898
132.628
60.4404
57.113
59.7575
97.3136
118.336
97.9389
120.576
60.137
59.9547
59.9408
120.299
124.181
122.778
129.134
57.6451
59.5506
56.4307
126.25
136.804
133.388
149.297
54.8778
54.946
53.0915
140.088
147.266
154.419
164.008
55.1372
53.3067
53.3517
148.66
149.139
165.483
165.311
56.9059
53.4243
56.2227
147.869
138.627
162.593
148.38
57.221
57.1377
57.7511
135.376
131.303
142.56
134.209
55.0216
57.3229
55.2485
130.948
132.022
133.463
134.503
59.7301
60.7612
60.2415
101.057
121.111
107.881
121.5
59.5542
59.4918
58.1386
122.985
129.509
122.093
127.004
56.1651
57.793
56.3165
133.877
149.981
129.585
141.042
52.5171
55.3274
53.3295
155.188
164.191
144.453
151.091
52.4802
53.0616
52.6831
165.699
166.387
152.004
152.338
55.595
52.8498
54.2396
163.608
148.971
150.654
140.861
57.3128
54.9543
55.3099
143.069
134.7
137.447
133.986
55.0057
55.152
53.9492
133.924
134.292
133.629
135.513
59.7279
63.4836
54.9815
111.685
119.55
108.239
100.498
57.1894
52.896
51.6113
120.01
125.616
103.108
114.745
55.912
52.132
51.3969
127.249
135.635
119.543
117.426
53.8336
50.7513
49.6128
138.398
144.219
118.636
123.396
53.1593
49.9762
49.6759
145.201
145.319
126.98
124.531
54.0013
49.3618
48.7512
144.217
136.626
125.641
126.212
54.5595
49.1356
49.1471
135.285
133.113
128.463
125.644
53.4889
49.0374
47.39
132.863
135.312
126.832
124.821
32.449
30.8449
32.2012
30.6216
31.2942
30.7685
34.3515
38.6737
30.7916
41.0923
34.0759
32.3707
31.274
169.566
56.3615
42.3709
54.7248
205.449
37.3981
64.4151
224.546
31.8697
32.2191
32.3746
32.5185
31.5335
31.6295
32.4896
33.2398
31.1397
31.9659
34.9187
31.1314
35.5112
33.1982
40.2785
35.2819
32.3174
45.0644
31.7836
176.741
34.6651
59.7196
213.219
49.3825
63.81
69.4181
232.686
41.8491
38.7177
30.1027
35.9211
31.2147
35.0144
30.9026
39.5896
69.0235
44.8539
62.5914
190.239
46.8577
65.5463
175.106
69.8866
48.9764
61.412
96.3565
48.9266
65.3171
116.68
38.7305
31.2157
32.3087
36.4077
31.4227
36.9808
37.9258
40.6103
32.2049
32.7208
40.017
31.841
41.1896
39.3607
75.7164
196.354
52.81
75.1904
70.8703
180.917
56.2564
75.4019
99.6615
56.2389
72.734
69.0992
121.104
57.5427
37.1934
58.6825
33.5045
198.856
32.1374
212.077
38.891
28.8353
29.5359
28.7321
29.3764
28.7855
29.213
28.5456
28.8034
28.4763
28.0153
27.5992
28.5099
28.8988
27.9693
34.1982
34.888
50.7794
30.7581
214.33
29.752
32.2911
38.4267
204.494
73.2924
37.0897
218.432
40.3276
35.0696
29.2968
29.6052
30.5219
29.8832
29.5182
28.9016
30.1864
29.3537
28.0827
30.3058
29.415
29.5295
28.4055
30.1891
38.5906
72.0623
34.7318
125.196
34.9396
161.961
38.2633
29.0902
28.5312
27.1062
27.3618
28.6032
29.0445
27.1954
29.0399
28.557
26.9277
26.8471
28.5944
28.9941
27.0138
40.65
191.135
86.4131
38.0187
177.225
40.8121
38.1726
39.6908
122.172
85.967
37.4961
157.176
39.2035
37.9911
29.6877
27.8592
30.4183
28.6535
29.6832
27.684
30.4026
29.606
27.3144
30.1672
28.4435
29.5208
27.4911
30.3153
153.1
183.596
159.59
105.946
84.4778
112.93
95.5104
148.156
152.406
149.303
71.492
66.127
77.1215
66.8841
137.629
144.941
139.185
62.7732
58.182
61.2143
58.1419
113.561
128.431
116.071
57.146
53.6835
56.7487
53.76
100.422
107.41
103.918
49.1913
43.4521
48.4574
43.7121
98.5453
103.031
103.148
40.1128
38.5119
40.4727
38.8116
97.0345
103.63
103.681
37.4074
36.4065
37.8794
37.4015
88.0274
103.091
96.0986
36.0868
29.7409
37.1998
30.9627
215.384
267.105
224.718
161.32
137.03
162.745
141.763
177.89
291.579
345.157
198.7
174.064
200.697
300.124
103.491
211.874
231.592
104.635
89.3488
115.064
224.219
87.9776
200.74
212.887
76.0711
75.5286
90.9742
209.995
80.0038
189.644
203.83
74.1555
73.6309
79.8303
199.662
68.4105
161.596
167.948
68.0313
64.239
74.5016
165.685
59.7866
166.927
170.49
58.2353
57.6668
60.1747
173.262
58.7944
172.185
176.055
56.8651
56.1537
59.0884
175.591
57.2358
167.259
170.233
54.7025
53.8595
57.7102
167.458
94.422
100.531
86.3172
33.7589
27.7674
34.2706
28.2998
225.216
242.588
186.152
163.362
140.819
152.429
119.373
182.568
308.193
346.319
210.978
188.615
208.954
291.042
106.228
227.847
225.81
121.783
110.809
114.696
223.378
85.9319
212.656
210.601
95.8517
88.9779
92.4179
199.119
68.9765
199.579
191.059
74.0156
72.2899
70.6984
194.236
67.3141
176.156
187.079
69.9512
68.5276
67.6188
181.457
63.4569
179.382
178.174
62.8179
62.1326
64.3001
177.564
59.0653
169.229
167.143
60.1324
59.1762
60.4314
162.521
53.5509
154.862
151.38
55.7342
54.6213
54.7697
148.769
82.305
90.9446
77.3208
34.205
29.0592
35.3429
30.0796
140.149
184.477
155.119
103.787
79.6711
105.297
86.7054
107.628
196.634
223.799
128.612
109.573
126.764
203.013
83.121
187.901
191.272
83.6953
83.533
83.346
189.647
84.8889
166.81
186.681
84.5633
83.7808
84.2382
181.425
69.7825
158.96
153.281
70.3866
65.7558
75.1587
151.061
64.9043
171.066
152.45
63.2331
64.3555
64.6358
152.932
65.5474
156.784
148.051
66.9743
66.6017
66.3694
146.079
59.2768
145.688
144.943
61.1184
59.103
60.4212
145.136
57.4132
143.953
145.355
56.1134
55.8471
57.6784
144.386
75.7335
83.7397
68.0297
36.5215
31.2613
33.2111
25.1583
191.306
231.089
205.036
137.612
113.952
138.334
118.034
154.921
266.278
309.561
173.436
150.657
176.549
270.936
101.836
191.605
202.842
107.557
98.2443
111.586
190.851
80.9095
182.87
179.005
81.6758
80.4154
82.7
177.373
66.1405
151.782
155.142
73.5072
69.0338
69.9891
149.363
59.0703
141.216
145.022
61.4703
60.7956
59.7331
145.005
56.2447
144.378
145.54
59.9938
59.6849
56.9361
145.35
52.6021
144.284
142.247
56.9769
56.0308
53.4806
139.692
48.0564
131.487
130.055
52.5548
50.7588
49.6772
125.372
65.9224
70.2628
63.5665
29.2394
23.2546
29.5271
25.5931
172.033
202.439
167.635
113.976
99.8178
114.453
99.4421
121.767
139.165
127.282
90.7461
72.6809
84.6838
73.6797
102.925
119.93
107.011
60.9417
54.055
66.8423
58.4964
96.3598
100.454
98.4797
48.138
43.7004
49.7199
47.412
91.1556
95.1313
90.5496
40.7607
38.404
44.7699
41.4345
84.6075
86.6117
84.3258
36.8468