/*--------------------------------*- C++ -*----------------------------------*\
  =========                 |
  \\      /  F ield         | OpenFOAM: The Open Source CFD Toolbox
   \\    /   O peration     | Website:  https://openfoam.org
    \\  /    A nd           | Version:  10
     \\/     M anipulation  |
\*---------------------------------------------------------------------------*/
FoamFile
{
    format      ascii;
    class       volScalarField;
    location    "3";
    object      p;
}
// * * * * * * * * * * * * * * * * * * * * * * * * * * * * * * * * * * * * * //

dimensions      [0 2 -2 0 0 0 0];

internalField   nonuniform List<scalar> 
12920
(
690583
830879
617255
608147
454692
410567
326418
282862
232896
200116
166360
141408
117070
97640.8
79223.5
63501.8
48718.9
36510.3
23792
8890.41
654755
918542
643263
579317
444798
402694
311468
274276
225396
194656
161912
137890
114039
95172.2
77167.3
61832.5
47401.6
35523
23159.9
8479.78
798438
837033
628117
553317
430671
380823
302591
261918
215469
185676
154420
131539
108733
90757.6
73539.3
58899.4
45133.4
33858.6
22066.4
7777.21
932069
793202
574260
507765
373729
342098
272760
238894
197360
170764
142683
121707
100808
84112.1
68113.9
54466.3
41631.5
31206.3
20315.3
6972.13
894364
713358
524451
446712
342834
300327
245487
213507
177542
153801
128605
109963
91045.6
75978.3
61409
48919.5
37298.5
27993.5
18221.9
5927.5
417153
511925
343503
340183
263593
242954
203091
178742
151298
131160
110942
94693.2
78820.5
65459.6
53003.5
42083.6
32036.3
24146.9
15785.1
4837.53
176960
325828
240077
247581
200441
188990
160550
145543
123229
108829
91496.6
78720.2
64771.2
53978.2
43361.6
34332.3
26230.1
19960.9
13128.3
3660.28
-222627
100166
111772
149701
127707
130310
127644
118104
103789
90983.1
78345.1
66840.6
55217.8
45424.1
32533.2
25634.4
19743.9
15384.7
10192.9
2342.34
-431799
35460.9
10109.5
73202.9
57018.9
83526.5
89266.1
84473.5
75992.6
67377.7
59050.9
50298.2
40861.8
33189.3
23204.5
16696.1
12949.5
10382.5
6960.81
666.711
-171018
-3087.11
-27794.9
15726.6
7185.82
31827.1
41330.8
42653.8
40378.8
36916.4
32666.9
27347.6
22039.6
17657.8
11513.3
6427.91
5486.49
4975.71
3506.96
-832.504
-354279
-61383.3
-138514
-53414.8
-53143.7
-17063.5
-2500.02
3013.87
5520.49
6130.78
4769.67
3735.77
3339.62
2192.63
-910.33
-3170.53
-2237.48
-792.247
-275.183
-2479.59
-177311
-102144
-147158
-92386.3
-86776.3
-55809.6
-41805.1
-32735.6
-26542.3
-22041.9
-19485.8
-17180.8
-14971.2
-13298.8
-12873.4
-12331.4
-9934.48
-6219.31
-3690.75
-4056.2
-165168
-162859
-223169
-150464
-134834
-101587
-81977.4
-67003.4
-59102.7
-51362.4
-46273.2
-40340.1
-35069.4
-29800
-26417.2
-21780.5
-17346.4
-11661.1
-7159.96
-5571.76
-398473
-254351
-270750
-188869
-165284
-132474
-119791
-102815
-93870.3
-81611.6
-73672.4
-62892.6
-54591
-45232.8
-37590.6
-30371.9
-23910.2
-16448.8
-10294.4
-6995.66
-422390
-336004
-348808
-253751
-235266
-190784
-169506
-140595
-124643
-107536
-94564.4
-81092.2
-69145.9
-57587.2
-47300.2
-37973.2
-29720
-20724.4
-13569.8
-8418.88
-790667
-494612
-408817
-303438
-277825
-230586
-213129
-181234
-160258
-134221
-116118
-97504.2
-82766.3
-68185.6
-55971.4
-44777.2
-34937.9
-24489.7
-16056.1
-9662.35
-649654
-547211
-434058
-352699
-340781
-283216
-254655
-216187
-189583
-159550
-135904
-112594
-94285.5
-77330.5
-63122.3
-50426.8
-39198.5
-27607.5
-18034.5
-10692.7
-847303
-629754
-534812
-425436
-379543
-317508
-280503
-237536
-207700
-174552
-148654
-123377
-103376
-84413.1
-69185.7
-55248.7
-42876.9
-30222
-19653.7
-11382.9
-657803
-592515
-525651
-437892
-399690
-338092
-298612
-252517
-218473
-183838
-156511
-130564
-109776
-90670
-74110
-59051.3
-45626
-32220
-20876.4
-12005.8
-887325
-595205
-529452
-445468
-405827
-344378
-303597
-257693
-223551
-188122
-160261
-133989
-112954
-93204.8
-76301.8
-60588.8
-46835
-33095.8
-21535.1
-12254.3
687961
848500
626016
611426
454723
411183
326608
282966
232902
200135
166393
141445
117115
97689.6
79262.9
63501
48712
36515.8
23792.8
8829.94
818862
829506
633354
576615
444692
404093
310512
274058
225185
194551
161844
137856
114011
95145.2
77139.3
61799.8
47376.5
35528.8
23179.5
8429.21
835564
824022
632231
553340
431534
381184
302136
261713
215201
185562
154354
131507
108719
90751.2
73544.3
58905.4
45132.9
33881.9
22089.8
7634.08
929394
781607
569038
505935
374723
342551
272303
238816
197096
170686
142645
121694
100798
84100.2
68117.5
54473.9
41639.2
31227.8
20300
6803.42
749799
686037
521516
446103
342830
300460
245320
213477
177460
153807
128603
109966
91023.5
75968
61398.7
48920.1
37291.9
27987.7
18217.4
5825.01
272061
528048
331941
338776
262955
243096
202857
178746
151240
131181
110935
94655.6
78783.3
65422.7
53007.8
42069.8
32017
24126.1
15778
4750.9
221567
309701
238700
247714
199965
189406
160780
145636
123255
108860
91430.3
78625.6
64745.4
53965
43359.6
34338.7
26212.7
19948.6
13116.7
3568.69
-153867
123651
113050
149675
127736
130986
127835
118320
103853
91134.2
78288.7
66738.6
55167.1
45423.2
32552
25628.7
19750
15398.1
10202
2214
-322232
50794
10440.6
72473
56088.7
83336.4
89512.4
84888.6
76148.2
67548.9
58920.1
49997.4
40810.3
33187.7
23069.7
16758.7
13011.4
10458.7
6917.89
630.354
-155867
10130.8
-29178.6
14884.2
6193.21
31559.1
41245.1
42669.9
40379.9
36841.9
32454.4
27021.9
21935.3
17595.2
11358.8
6505.32
5595.91
5052.66
3445.55
-897.581
-371644
-56900.5
-143344
-54646.7
-53748.5
-17125.2
-2541.46
3006.68
5551.22
6146.03
4967.58
4147.25
3481.23
2238.24
-1026.8
-3154.96
-2214.16
-899.704
-220.006
-2520.33
-151290
-108165
-157157
-93370.8
-87827.9
-56039.1
-41906.9
-32761
-26511.2
-22013.3
-19371.2
-17038.8
-14934.4
-13305.7
-12964.4
-12370.4
-10026.4
-6125.24
-3670.81
-4085.11
-234758
-169189
-222161
-151473
-135708
-101699
-82558.6
-67494.7
-59364.6
-51538.3
-46384.8
-40368.9
-35105
-29812.9
-26424.7
-21830.8
-17452.1
-11728.8
-7163.56
-5589.01
-332678
-273399
-270840
-187247
-161980
-130884
-120282
-102967
-94108.8
-81811.7
-73814.9
-62954.1
-54606
-45250.7
-37607.4
-30380.5
-23967.7
-16605
-10370.6
-7034.44
-300594
-321364
-347273
-249126
-234794
-190101
-169475
-140518
-124732
-108188
-94892.6
-81232.3
-69206.7
-57626.2
-47304.2
-37979.6
-29749.5
-20744.4
-13419.7
-8425.55
-630319
-470560
-407104
-304396
-280582
-232326
-212779
-181137
-160723
-134783
-116594
-97666.1
-82850.2
-68233.7
-55998.3
-44789.2
-34966.4
-24514.8
-16086.3
-9649.38
-643955
-539397
-441188
-355955
-342049
-283845
-256367
-216893
-190321
-159189
-135560
-112530
-94292.5
-77373.9
-63177.8
-50456.4
-39240.1
-27639.8
-18050.9
-10717.7
-779506
-615468
-538151
-426896
-379334
-317268
-280698
-237452
-207052
-173917
-148387
-123266
-103367
-84521.1
-69106.9
-55142.4
-42826.8
-30200.2
-19669.8
-11405.3
-710029
-588238
-528812
-436970
-397332
-337150
-297228
-251718
-218292
-183755
-156465
-130536
-109680
-90354.4
-74130.8
-59122.6
-45719.5
-32268.4
-20868.5
-12011.2
-906336
-591099
-534170
-446733
-405647
-344479
-303530
-257526
-223167
-187916
-160219
-133964
-112892
-93203.1
-76327
-60601.4
-46851.3
-33103.4
-21535.7
-12255.9
790905
817140
632067
610791
455328
411817
327151
283204
232970
200212
166490
141515
117232
97812.9
79336.5
63558.5
48741.6
36499.6
23765.2
8679.16
897415
836689
624692
576055
444320
405781
310777
273927
224810
194432
161782
137839
113994
95129.3
77130.4
61817.5
47365.9
35534.3
23177.2
8275.54
753896
810837
627511
551959
432841
382441
301679
261417
214746
185379
154259
131468
108700
90743.3
73544.8
58920
45129
33892
22112.4
7393.14
854857
772517
565836
503080
378993
343994
271739
238648
196593
170525
142550
121649
100776
84091.2
68126.4
54497.1
41656.1
31266.8
20232.3
6559.91
784948
685126
526650
446686
342756
300867
245142
213439
177344
153812
128583
109960
90997.4
75949.5
61389.5
48928.2
37290.7
27996.9
18194.7
5645.04
337086
480811
330608
336220
261804
243248
202508
178689
151184
131168
110890
94607.1
78736.9
65390.6
52981.3
42061.2
31994.8
24091.9
15774.6
4589.93
104408
315246
249610
249618
199088
189947
160730
145555
123200
108766
91303.7
78500.2
64685.9
53925.8
43359.1
34351.7
26202.1
19935.2
13105.7
3389.39
-110725
153258
114690
148955
126860
131749
128230
118431
103820
91185.9
78058.7
66599.7
55122.9
45454.6
32513.7
25629.6
19774.8
15436.7
10140.8
2026.45
-195150
87756
14209.3
71233.3
55873.6
83626.8
89921.7
85128.1
76239.7
67631.5
58602.3
49679.5
40803.6
33214.7
22993
16781.2
13105
10599.3
6943.07
515.116
-83840.5
29368.7
-32718.8
14251.8
6036.45
32151.4
41547.1
42479.8
40250.4
36626.5
31989.4
26715
21868.3
17535.7
11255.6
6546.57
5783.52
4761.64
3417.18
-1010.7
-386957
-46727
-135373
-54023.2
-53351.1
-16577.5
-2416.02
2986.8
5559.63
6005.46
4953.14
4756.49
3712.73
2292
-1087.57
-3162.84
-2276.37
-856.142
-169.941
-2601.93
-254683
-113263
-151665
-94047.9
-88002.1
-55620.8
-41693.3
-32851.6
-26542.2
-22000
-19232.9
-16858.4
-14869.6
-13310.7
-13017.4
-12448.6
-10188.3
-6140.86
-3633.08
-4145.4
-280036
-193060
-214396
-150533
-136356
-101534
-82859.1
-68239.7
-59670
-51787.4
-46406.2
-40296.9
-35051.4
-29779.5
-26481
-21898.2
-17609.7
-11664.3
-7146.31
-5627.52
-352814
-282412
-272961
-189009
-163120
-130823
-121023
-103373
-94462.2
-82057.8
-74013.7
-63023.2
-54628.1
-45270.8
-37629.3
-30395.9
-24043.7
-16738.8
-10396.5
-7077.73
-334849
-330019
-349606
-244734
-233639
-188482
-169240
-140804
-125025
-108690
-95288.6
-81374.3
-69312.1
-57670.3
-47314.8
-37984.8
-29785.8
-20772
-13331.5
-8456.8
-448633
-423489
-407475
-300540
-280880
-233114
-212358
-180997
-161390
-135155
-116906
-97778.4
-82949.6
-68259.9
-56027.7
-44800.5
-35000.4
-24548.7
-16134.6
-9690.97
-540550
-522118
-450288
-357674
-343235
-284044
-257531
-217030
-190424
-158860
-135343
-112455
-94314.1
-77425.4
-63244.1
-50501.9
-39297.5
-27683.6
-18063.5
-10713.5
-714116
-594562
-538820
-426666
-379115
-316954
-280732
-237262
-206791
-173565
-148134
-123162
-103391
-84672.7
-69196.4
-55140.9
-42883.2
-30244.2
-19675.1
-11420.4
-857985
-598966
-530754
-435411
-395521
-335015
-296559
-251199
-218103
-183572
-156391
-130486
-109604
-90251.8
-73971.7
-59043.2
-45666.1
-32240.3
-20843.4
-12006.8
-727192
-567720
-533784
-448964
-405391
-344350
-303194
-256997
-222781
-187696
-160163
-133933
-112812
-93083.7
-76341.5
-60619.1
-46862.8
-33104.3
-21529.4
-12251.9
802948
834618
638217
613806
456221
412694
327928
283603
233107
200344
166627
141635
117387
97989.3
79436.3
63576.2
48778.4
36491.5
23745.9
8443.99
959574
835438
625357
573505
444307
406104
312351
273584
224195
194185
161646
137768
113923
95055
77089.1
61814.1
47334.7
35530.6
23143.6
7814.76
763336
812781
628483
551065
433788
385853
301375
261018
214150
185136
154124
131381
108664
90718.8
73534.5
58936.8
45134.7
33914.8
22085.7
7098.08
848807
777999
563916
502165
380438
345524
271710
238436
195808
170335
142448
121595
100749
84075.5
68127.1
54522.4
41678.7
31316.6
20203.6
6248.77
793052
679496
529132
447174
342619
301256
244835
213319
177112
153756
128530
109933
90964.8
75935.3
61376.3
48942.8
37291.7
28006
18185.4
5377.25
316261
462156
329324
335099
260160
243222
201855
178454
150987
130993
110794
94523.3
78677.9
65350.9
52972.4
42052.1
31965.4
24035.2
15767.2
4333.34
209616
314064
255793
249569
198658
190773
160601
145359
123020
108416
91045.6
78271.9
64562.5
53848.9
43358.1
34378.9
26195.4
19926.1
13090.2
3117.6
-92281
158809
118061
148495
126298
132565
128545
118410
103709
91141.5
77854.7
66489.9
55115.2
45532.7
32532.7
25649.6
19816.8
15476.7
10102.5
1780.54
-155972
76471.2
12479.2
68540.3
54609.4
83344.9
90104.5
85235
76233.5
67600.2
58279.5
49455
40801.5
33254.1
23166.7
16895.1
13214.4
10566.5
6944.5
315.566
-119123
35583.1
-31810.1
13606.8
5379.95
32465
41485.8
42308
40154.4
36486.4
31718.3
26618.5
21881.9
17538.7
11369.3
6628.07
5763.5
4648.14
3404.24
-1196.66
-282151
-50335.7
-127159
-55146.8
-53696
-15688.1
-2341.48
2986.65
5605.96
5706.68
5463.39
4998.55
3782.12
2279.5
-1021.15
-3160.02
-2388.15
-832.856
-127.425
-2739.01
-200817
-117783
-143183
-94770.6
-88593.5
-55202.4
-41622.6
-32884.6
-26562
-21929.9
-19124.5
-16675
-14781.9
-13280.1
-12886.6
-12496.8
-10298.5
-6175.07
-3597.2
-4260.79
-192721
-198548
-215701
-155797
-138201
-101708
-83134.3
-68871
-59816.6
-51920
-46292.4
-40115.1
-34897.1
-29662.5
-26526.5
-21950.3
-17666.4
-11794.5
-7123.85
-5755.11
-493943
-308700
-267355
-186823
-163054
-130606
-121561
-103755
-94663.2
-82226.4
-74239
-63080.5
-54709.2
-45284.9
-37646.6
-30402.2
-24076.9
-16726.2
-10386.1
-7153.13
-393710
-321361
-351362
-241568
-232990
-187333
-169030
-141264
-125404
-108994
-95563.9
-81502.5
-69421.2
-57729.6
-47319.6
-37983.6
-29816.4
-20790
-13365.7
-8521.27
-397278
-419121
-404563
-299097
-281138
-232962
-212038
-180622
-161733
-135330
-117137
-97863.2
-83020.2
-68281.8
-56057.4
-44810.9
-35028.1
-24570.4
-16130.6
-9756.41
-569038
-508218
-460266
-360483
-344274
-283265
-258118
-216887
-190434
-158697
-135270
-112434
-94339.4
-77465.3
-63308.2
-50546.6
-39357
-27726.5
-18066.1
-10737.2
-687803
-589158
-544277
-428004
-379249
-316727
-280851
-237159
-206774
-173420
-148074
-123115
-103419
-84767
-69337.6
-55246.8
-42973.5
-30301.8
-19669.2
-11446.4
-945694
-597103
-531468
-434804
-394532
-334336
-296177
-250854
-217917
-183373
-156306
-130436
-109565
-90219.6
-73865.4
-58908.5
-45597
-32202.3
-20807.8
-12002.6
-742544
-543788
-544216
-452819
-402806
-343241
-302821
-256406
-222491
-187549
-160067
-133870
-112780
-92939.8
-76270.7
-60643.8
-46872.2
-33086.7
-21501.3
-12263.6
925948
845148
643742
615349
456280
413144
328221
283788
233279
200576
166809
141848
117449
98053.2
79514.8
63612.5
48739.9
36477.1
23761.8
8130.52
885407
834931
625719
573071
444871
406126
315599
273377
223299
193904
161477
137697
113944
95031.6
77028.5
61805.1
47338.1
35527.6
23172.9
7428.29
675220
800300
624021
548771
434338
387981
301764
260732
213505
184959
154023
131318
108655
90714.2
73537.3
58964.8
45146.5
33935.8
22130
6808.17
1.04283e+06
785848
565502
502450
380894
344705
273675
238591
194702
170223
142392
121569
100743
84074.3
68135.6
54553.8
41693.9
31353.3
20266.8
5948.25
820175
675388
528226
448423
342353
301787
244459
213340
176935
153797
128529
109952
90963.6
75944.7
61379.3
48966.3
37293.4
27993.2
18217.2
5105.01
341019
458620
329678
331677
260712
243829
201033
178322
150831
130855
110738
94478.3
78656.8
65340.3
52970.5
42055.1
31947.8
24016.8
15803
4056.89
114971
304263
260619
249628
199031
191980
160178
145091
122797
108090
90843
78100.7
64460.3
53813
43368
34419.5
26198
19931.3
13122.2
2847.11
-127655
169788
116801
148507
125278
132760
128547
118293
103727
91094.4
77845.9
66397.9
55214.9
45556.3
32495.2
25673.3
19850.7
15478.4
10081.6
1553.44
-273013
87996
10976.2
65280.6
54623.6
81948.6
90157.5
85240
76261.5
67585
58122.6
49352.7
40842.1
33353.5
23453.8
16954.5
13255.4
10525.8
6931.9
112.939
-26375.1
40931.3
-27786.7
13163.6
5089.81
32873.9
41280.8
42330.7
40195.3
36424.5
31624.4
26635.3
21960
17601.7
11545.4
6618.08
5598.02
4752.82
3416.82
-1395.5
-256160
-51876.7
-118243
-55254.5
-53341.5
-15092.6
-2357.12
3056.36
5725.89
6483.7
5846.03
4945.82
3772.43
2269.91
-840.237
-3223.92
-2535.32
-859.493
-85.398
-2890.18
-314352
-133399
-141685
-95558.5
-88893.5
-54388.1
-41619.4
-32812.1
-26492.7
-21815.2
-18971.8
-16469.2
-14709.5
-13225.5
-12557.8
-12563.5
-10407.1
-6391.1
-3542.93
-4422.59
-149210
-201202
-210004
-156671
-137731
-101302
-83188.8
-68974.4
-59717.9
-51915.5
-46056.8
-39924.7
-34687.3
-29496.9
-26605.3
-21971.6
-17622.7
-11871.4
-7073.45
-5906.17
-580840
-323256
-265993
-187786
-163091
-130520
-121900
-103828
-94698.7
-82214.4
-74407.1
-63074.5
-54846.9
-45272.7
-37652.5
-30399.8
-24080.6
-16661.3
-10437.6
-7238.67
-349320
-325850
-351709
-239111
-232495
-186459
-168701
-141411
-125738
-109082
-95663.7
-81574.8
-69479
-57756
-47318.2
-37979
-29835.1
-20793.6
-13443.8
-8593.37
-286481
-398731
-402749
-296382
-281424
-231972
-211861
-180162
-161522
-135354
-117312
-97908.1
-83065.2
-68286.7
-56073.2
-44813.8
-35048
-24571.3
-16073.2
-9830.7
-614208
-505800
-464521
-360890
-344706
-282141
-258165
-216675
-190576
-158623
-135293
-112414
-94358.4
-77481.4
-63339.7
-50568.3
-39400.4
-27750
-18051.2
-10800.9
-755478
-589020
-545281
-427397
-379209
-316466
-281013
-237104
-206870
-173361
-148081
-123079
-103441
-84811.5
-69415.7
-55308.6
-43042.5
-30338.2
-19647.7
-11458.7
-1.04139e+06
-599670
-532101
-433328
-394241
-333852
-296031
-250638
-217900
-183324
-156365
-130453
-109579
-90200.9
-73848.4
-58879.4
-45577.9
-32166.5
-20740.5
-11968.1
-779417
-540282
-538841
-450991
-403534
-342757
-302338
-256047
-222338
-187471
-160053
-133836
-112762
-92877.7
-76188.7
-60593.3
-46861.4
-33068.5
-21432.8
-12260.2
33209.7
12892.7
12531
36497.3
33011.9
13035.7
12694.7
27982.9
11803.4
9738.07
31761.7
27841.4
11994.8
10008.9
5425.01
-15149.7
-13596.8
6308.69
5628.21
-15083.1
-13478.6
5012.6
-13143
-11914.2
5199.21
5443.74
-13011.2
-11753.1
87131.7
54013.1
53399
89607.4
87454.2
54266.4
53450
78983.1
52970.5
50346.1
84747.1
79064.7
53011
50337.7
70141.9
49365
45863.3
76076
70257.4
49368.4
45832.4
61724.5
44661.4
40960.7
67484.4
61729.8
44644.9
40794.7
53385.4
39862.4
34909
58974.9
53149.1
39567.6
34724.4
43781.1
33281.2
28219.1
50094.7
43723.9
33060.4
28107.1
35742.9
26811.8
22751.3
40822.3
35754.9
26733
22689.5
28183.2
21573.8
17987.6
33183.1
28075
21513.9
17828.9
42811
9879.52
11978.7
41516.9
42872.3
10128.7
12014.7
41002.5
12565.4
13689.9
42693.8
41043.1
12598.8
13739.9
37885.1
13899.2
13900.6
40394.1
37845.2
13952.8
13894.4
33877.1
13628.2
11962.7
36872.4
33681
13623.2
12025.8
28682.3
11391.7
9950.53
32568
28515.5
11393.2
9963
23250
9393.29
8352.2
27121.2
23139.7
9550.13
8456.87
18692.6
7969.72
6583.88
21962.9
18642.3
8031.53
6604.46
14394.9
6060.88
4560.83
17612
14263
6075.09
4429.3
2073.59
-32180.3
-25895.9
-2440.94
2081.86
-32117.5
-26067.7
5045.19
-24056.6
-19819.4
3009.57
5065.22
-24209.6
-19864.3
6191.25
-18719.1
-15877.4
5545.66
6205.69
-18707.8
-15858.1
5094.11
-15223.7
-13949.3
6151.23
5294.08
-15184.1
-13829.6
3858.96
-13611.4
-12498.6
4867.3
4132.37
-13444.3
-12276.7
3507.64
-12007.7
-10772.4
4015.25
3644.97
-11823.8
-10699.4
2531.92
-10411.4
-9666.66
3432.09
2571.12
-10360.6
-9659.3
1114.98
-9454.56
-8976.81
2224.62
1006.8
-9453.12
-9059.62
-34746.9
-70299.3
-59695.8
-41747.5
-34764.2
-70323.6
-59799.2
-27973.3
-57622.2
-50979.6
-32748.6
-27974.8
-57761.5
-51161.3
-22990.5
-49627.7
-43619.9
-26516.5
-22985.1
-49810.2
-43690.7
-20117.6
-42792.5
-38967.5
-22019.3
-20049.2
-42874.7
-39095.1
-17838.1
-38442.9
-34354.5
-19404.6
-17722.7
-38552.4
-34385.8
-15552.1
-33795.5
-30069.4
-17079.6
-15513.8
-33826
-30110.3
-13735.7
-29591.1
-25964.7
-14945.5
-13745.7
-29643.6
-25995.5
-12392.6
-25598.3
-22483.1
-13301.4
-12482.1
-25625.9
-22582.4
87618.6
53961.5
53404.8
90016.8
87834.9
54358
53269.7
79140.8
52982.2
50321.3
85052.1
79181.6
52858.2
50216.8
70322
49356.4
45801.2
76204
70398.2
49263.3
45654.7
61724.9
44620.7
40684
67612.5
61584.7
44485
40318.7
53042.6
39408.4
34560.7
58693.2
52749.8
38946.6
34110.7
43699.9
32934
28061.2
49756.9
43647.8
32596.1
27939.2
35756.9
26702.3
22664.2
40805.8
35769.8
26622.1
22598.4
28073.7
21489.7
17807.3
33203
27920
21431.9
17589.6
42833.3
9894.73
11989.8
41718.8
42684.5
10003.4
11879.8
41037
12595.3
13762.7
42537.4
40957.6
12553.1
13801.8
37812.9
13972.8
13876.8
40288
37655.8
13993
13654.6
33588.7
13614
12074.5
36694.7
33305.1
12815.4
12313.2
28401.1
11450.1
10043.3
32099.7
28070.6
11714.1
11016.9
23100.6
9636.35
8500.56
26772.6
23011.5
9992.92
8664.25
18623
8063.19
6617.48
21875.4
18580.2
8195.15
6668.89
14245.9
6083.56
4449.8
17550.1
14046.9
6116.58
4340.65
2066.53
-32243.6
-26091.4
-2366.25
2003.51
-31954.5
-26101.1
5073.12
-24228.5
-19877.1
2991.3
5099.77
-24248.9
-19941.6
6194.28
-18709.2
-15853.4
5561.49
6058.5
-18735.5
-15854.3
5372.35
-15173.1
-13779.4
5499.34
5525.73
-15155.4
-13642.3
4263.57
-13380
-12194.3
5186.54
5420.57
-13202
-11977.1
3709.47
-11753.9
-10667.2
4668.66
3925.47
-11558.8
-10560.7
2592.84
-10337.9
-9656.74
3656.88
2666.47
-10260.3
-9641.17
1015.76
-9454.31
-9062.49
2282.18
898.554
-9450.86
-9166.09
-34792.6
-70651.3
-59939.7
-41577.8
-34875.1
-70784.9
-60242.8
-27976.2
-57881.7
-51294.6
-32828.8
-28020.7
-58215.2
-51675.6
-22987.2
-49940
-43757.9
-26530.5
-23006.6
-50295.5
-43909.2
-20019.4
-42940.7
-39161.9
-22003.6
-19945.6
-43107.9
-39309.4
-17681.5
-38605.5
-34397.2
-19267
-17560.4
-38701.2
-34371.1
-15494.7
-33837.2
-30133.4
-16905.5
-15425.5
-33800
-30136.5
-13749.7
-29668.4
-26013.1
-14888.7
-13748.6
-29663.2
-26019.6
-12492.5
-25646.5
-22605.3
-13312.2
-12602.7
-25659.6
-22738.6
87909.9
54170.3
53211.5
90172.6
87966.6
54173.4
53058
79227.9
52807.8
50173.6
85197.3
79184
52691.1
50068.7
70429.2
49224.8
45594.5
76221.6
70423
49135.7
45461.9
61524.1
44423.3
40202.9
67607
61303.7
44280.4
39933.1
52651.2
38816.5
33991.4
58347.5
52409.1
38514.9
33751.7
43623.2
32509.2
27911.2
49503
43553.1
32340.7
27884.5
35769.2
26605.1
22584.4
40798.6
35742.3
26595.8
22573.5
27967.6
21420.5
17605.2
33232.4
27881.6
21417.2
17496.2
42616.7
9788.17
11836.7
41653.5
42432.2
9719.01
11726.7
40921.9
12534
13804.4
42336.9
40835.8
12482
13816.6
37585.5
13985.4
13529.3
40165.6
37462.8
13992.2
13494.9
27960
35512.5
28845.9
36561.1
28007.7
35441.9
28781.5
23922.7
30644.5
25075.6
31885.7
24012.3
30535.9
24973.1
22998.7
9941.04
8716.95
26626.3
23012.3
10166
8806.24
18572.1
8236.96
6683.11
21878.9
18560.1
8299.07
6686.17
14080.6
6124.85
4396.67
17527.7
13989.4
6119.89
4324.42
1984.22
-31976
-26101
-2285.36
1938.46
-31715.4
-26110
5107.29
-24253.5
-19960
2982.13
5138.75
-24274.8
-19975.2
6029.14
-18741.6
-15855.9
5582.23
6046.24
-18732.7
-15816.5
-1940.13
6494.68
-1752.09
7228.53
-1676.01
6903.82
-1930
-676.738
4344.31
-1117.74
3841.63
-981.916
2887.07
-894.329
3992.93
-11498.8
-10524.1
4992.84
4102.57
-11337.3
-10419.7
2684.54
-10233.3
-9633.1
3784.13
2688.95
-10157.5
-9601.99
919.797
-9446.6
-9144.83
2288.4
844.37
-9427.26
-9172.91
-34911.6
-71093.5
-60393.6
-41526.5
-34985.7
-71110.7
-60692.1
-28041.5
-58348.9
-51826.8
-32884.7
-28088.9
-58651.2
-52146.5
-23012.1
-50439.1
-43974.9
-26563.6
-22995.1
-50684.1
-44046.2
-19923.9
-43163.7
-39350.1
-21956.6
-19859.8
-43238.7
-39397.3
-17515.4
-38722.5
-34360.8
-19149.9
-17385.9
-38697.4
-34266.3
-15398.9
-33787.1
-30135.5
-16719.8
-15310.7
-33678.2
-30082.5
-13743.5
-29662.7
-26027.5
-14804.7
-13716.1
-29586.7
-25988.6
-12593.6
-25665.6
-22741.5
-13291.5
-12638.1
-25626.6
-22823.1
87977.8
53972.8
53019.5
90266
87878.8
53781.8
52979.8
79191.6
52668.4
50049.1
85202.6
79080.4
52681.5
50060.5
70422.5
49121.9
45440.6
76213.9
70372.5
49141.1
45402.1
61235
44255.1
39871.6
67558.2
61027.5
44196.6
39725.7
52334.8
38443.9
33709.5
58121.5
52154
38305
33644.4
43529.2
32313.6
27890.4
49348
43438
32276.2
27899.9
35737.7
26597.3
22587.5
40804.8
35694.3
26643.4
22645
28030.4
21431.4
17628.9
33301.5
27984.9
21498.6
17630
42384.7
9553.12
11697.8
41421
42324.3
9457.23
11665.8
40823.8
12471.8
13830.1
42300.2
40844.6
12490.2
13913.5
37459.1
14014.4
13674.1
40172
37445.8
14099.8
13965.3
32977.7
12953.5
12472.7
36440.6
32884.1
13764
12582.7
27829.8
11932.7
11344.4
31637.7
27826.6
12045.9
10702.3
23021.8
10262.2
8814.02
26627
23048.8
10245.2
8838.21
18572.4
8300.62
6682.78
21939.7
18620.4
8301.64
6676.88
14122
6111.75
4412.9
17585.7
14111.9
6097.4
4375.59
1930.36
-31764.9
-26115.2
-2251.63
1941.32
-31659
-26083.9
5156.96
-24270.9
-19967.9
3030.34
5242.21
-24208.8
-19909
6133
-18720.2
-15784.8
5693.47
6382.36
-18653.2
-15679.4
5778.35
-15043.4
-13443.5
6440.86
6048.1
-14917.4
-13306.5
5821.76
-12979.8
-11706.5
5775.93
5133.45
-12843.6
-11552.8
4110.94
-11290.2
-10387.7
4922.2
4121.86
-11140.2
-10321.6
2682.2
-10133.6
-9589.41
3767.67
2675.1
-10083.7
-9550.03
902.125
-9418.07
-9097.02
2272.4
872.6
-9383.52
-9093.43
-34993.2
-71356.6
-60794.4
-41531.2
-34973.3
-71030.6
-60896.3
-28095.3
-58737.3
-52234.2
-32840.8
-28073.7
-58791
-52323.4
-22975.6
-50742.7
-44056
-26517.2
-22899.7
-50690.5
-43993.6
-19837.2
-43242.4
-39400
-21839.9
-19744.4
-43165.1
-39367.4
-17346.4
-38674.1
-34235.2
-19016.5
-17207
-38520.2
-34089.8
-15281.5
-33637.7
-30070.4
-16523.6
-15234.8
-33464.3
-30037.5
-13703.9
-29560.2
-25981.7
-14730.3
-13669.8
-29431.6
-25950.9
-12586.3
-25615.1
-22788.5
-13237.4
-12599.1
-25501.5
-22882.1
87889.8
53562.8
53001
90149.7
87827.7
53430.5
53178.1
79099
52719.9
50090.7
85142.5
79116
52920.1
50245.8
70395
49169.6
45398.1
76341.5
70392.8
49338.9
45512.9
61002.7
44186
39693.4
67613.4
60960.1
44283.2
39646.5
52137
38281.8
33627.3
58128.7
52008.7
38250.1
33536.4
43440.9
32272.2
27906.3
49316.9
43399.9
32215.7
27863.4
35712
26665.7
22661
40885.5
35706.9
26686.6
22687.5
28137.5
21523
17778.8
33392
28262.6
21579.8
17886.5
42342.4
9294.57
11678.3
41271.4
42499.4
9170.66
11794.2
40873
12515.2
13952
42496.2
41028.3
12646.2
14274.8
37441
14131.5
14003.9
40362.2
37530.1
14391.8
14114.9
32861
13800.4
12625.9
36445
32810.7
13895.3
12753.1
27829.4
12100.9
10733.7
31600.4
27823.2
12210.7
10741.5
23065
10273.1
8853.7
26616
23016.7
10301.3
8766.35
18633.5
8307.56
6673.84
21942.2
18648.7
8140.47
6653.81
14257.4
6093.46
4497.23
17632.1
14333.8
6083.18
4520.32
1958.03
-31776.9
-26054.9
-2451.78
2066.64
-31930.9
-25881.4
5280.21
-24173.6
-19880.7
3182
5586.3
-23978.5
-19722.4
6424.68
-18624.3
-15649.3
5957.72
6560.18
-18455
-15519.6
6107.5
-14883.4
-13255.9
6611.81
6280.96
-14740.7
-13111.8
5162.02
-12789.9
-11495.6
6009.88
5205.88
-12623
-11357.9
4140
-11080.7
-10294.6
4962.47
4100.97
-10946.4
-10387.9
2672.9
-10062.8
-9539.87
3582.45
2658.95
-10145.7
-9531.56
985.468
-9373.32
-8974.31
2271.9
1017.43
-9355.95
-9054.61
-34950.2
-71230.1
-60942.3
-41358.8
-34821.4
-70782.5
-60605.2
-28057.3
-58793.3
-52352.4
-32650.3
-27969.2
-58451.8
-52225.9
-22879.9
-50665
-43975.6
-26361
-22807.1
-50420
-43795.9
-19709.4
-43137.4
-39369.4
-21723.1
-19607.4
-43026
-39287.1
-17157.2
-38479.6
-34077.3
-18816.5
-17053.6
-38375
-34121.5
-15220.8
-33433.9
-30059.1
-16329
-15358.5
-33349
-30159.2
-13663.6
-29408.6
-25966
-14719.7
-13671.9
-29349.3
-26015.7
-12503.4
-25481.1
-22852
-13207.4
-12552.8
-25375.3
-23097.2
26918.4
34396.3
26088.8
33115.2
27016.1
34314
25982.7
19605.7
20485.7
14057.5
13650.4
19972.2
20276.7
15567.1
19497.9
19270.7
13165.5
13946.3
19733.7
19163.3
14454.3
27936.8
36516.8
35372.8
28764.1
35394.1
28752.1
27945.9
26895.8
33049.7
34236.8
26003.5
34260.9
25953.2
26954.6
19594.6
13730.3
20449.3
14216.4
20241.5
15650.6
20054.6
19518.4
13933.2
19314.7
13280.6
19188.9
14431.2
19806.6
22869.1
29321.3
21967.7
27913.5
22949.9
29224.3
21932.8
18014.3
18596.4
11102
13078.7
17958.3
18558.8
12115.6
17636
16623.4
10043.7
9210.69
17436.2
16768.4
10391.3
23904.8
31809.6
30416.3
24984.3
30459.7
24942.1
23954.3
22850.6
27864.8
29129.3
21949.9
29159.3
21922
22910.5
18046
13095.8
18653.1
11319.1
18577.9
12155.2
18003.1
17637.4
9157.94
16729.2
10122.1
16784.7
10340.1
17490.1
-1340.72
5988.27
-1174.45
4375.04
-1369.87
5278.1
-1011.14
-7794.67
-8210.21
-14598.2
-15135.7
-7861.26
-8176.8
-14575.9
-7498.15
-7279.64
-14070.6
-13546.4
-7569.64
-7192.53
-14031.6
-1890.21
7407.37
6757.69
-1668.44
7104.47
-1899.84
-1522.16
-1282.26
4416.77
6129.32
-975.693
5232.57
-961.65
-1188.84
-7746.78
-15112.4
-8116
-14512.5
-8139.71
-14546.6
-7732.04
-7451.88
-13507.4
-7118.15
-13958.7
-7140.75
-13994.4
-7425.02
-139.942
3999.3
-257.567
3234.67
-576.218
1548.09
69.12
-6704.25
-7040.36
-12749.2
-13082.3
-6809.05
-6934.54
-12682.9
-6506.39
-6396.69
-12313.2
-11854.5
-6576.39
-6352.3
-12247.2
-631.708
3875.44
4560.25
-891.659
2930.24
-843.607
-726.731
-104.729
3131.49
4136.57
16.0047
1458.72
144.562
-318.437
-6643.2
-13039
-6858.07
-12603.6
-6877.67
-12635.5
-6613.33
-6446.83
-11801.7
-6193.73
-12155.6
-6287.79
-12195.9
-6381.45
126681
109278
104046
128004
126805
109728
104333
112640
100182
93882.3
118173
112653
100447
93974.9
99049.8
88800.8
82534.4
103774
99070.1
88921
82635.9
86187.4
78381.1
72225.3
90997.7
86167.6
78477.9
72226
74262.8
68100.9
62016.5
78324.6
74231.9
68111.3
61962.5
62495.8
58032.4
51453.5
66792.2
62434.5
57996.4
51465.1
51754.4
47691.3
42222.3
55191.6
51749.2
47723.2
42246.7
42308.7
39122.6
34452.9
45418.3
42281.9
39137.2
34410.2
85421.8
60557.5
58605.7
83683.4
85498
60795.2
58541.2
77357.1
90117.8
79373
89180.4
90151.3
79338.2
77278.5
72368.1
83481.4
74322.9
84545.3
83541.2
74344.7
72354.6
65240.1
74638.1
67452.4
76007.6
74669.4
67458.1
65228.9
57932.8
66037.2
60180.8
67398.3
66048.3
60193.4
57931
50853.2
57845.9
53195.9
59046.1
57830
53176.9
50905.4
42312.1
48742.7
45250.6
50256.9
48703.3
45163.8
42365.8
34309.7
39752.8
36572.7
40847
39755.5
36561.4
34313.9
27648.7
32288.4
29668.4
33183.6
32284.8
29661.3
27662.1
22908.2
18038.6
15768.8
23150.6
22826.8
17961
15675.8
33770.2
10132.8
11128.6
32278.2
33748.7
10273.9
11306.8
31613.1
42278
31309.8
41258.5
42337.2
31234.1
31527.2
32350.9
42253.2
32416.3
42671.8
42245.2
32445.8
32341.4
31096.2
39658.1
31497.1
40391.4
39646.7
31505.7
31100.9
28338.1
35881.6
29150.1
36908.8
35864.8
29144.2
28360.4
24483.5
31464.2
25546.6
32687.9
31418.9
25495.3
24510.5
20193.3
25968.9
21330.9
27302.1
25896.8
21284.1
20195.5
16408.2
20879.2
17316.7
22017.1
20861.2
17304.9
16417.9
12965.3
16607.2
13794.8
17644.3
16594.7
13786.9
12968.5
10074.4
5240.01
4571.47
11460.8
9986.05
5173.47
4501.35
-11308.1
-37022.4
-32993.7
-17095.5
-11259
-36978
-32951.2
-10672.7
-412.985
-11700.8
-2573.84
-367.135
-11732
-10689.4
-5231.93
3768.02
-6359.82
3013.15
3766.38
-6381.51
-5212.16
-2061.02
5891.83
-2653.46
5531.62
5902.82
-2655.26
-2066
-1108.44
5935.64
-1155.26
6142.69
5944.43
-1145.84
-1119.39
-1814.36
4342.37
-1776.45
4713.7
4342.81
-1683.95
-1889.03
-1472.03
3560.85
-1836.31
3774.43
3675.91
-1666.71
-1586.58
-1271.75
3113.57
-1250.2
3359.92
3127.56
-1225.53
-1289.84
-1832.11
1876.84
-1691.76
2200.39
1882.1
-1684.23
-1832.4
-1137.6
-7142.51
-6705.22
-956.478
-1188.42
-7173.41
-6728.18
-51479
-75027.5
-70414.5
-55774.7
-51281.6
-75218.3
-70320.6
-48402.3
-39048.9
-50364.9
-41900.4
-39039.4
-50504.1
-48435.6
-39270.5
-31021.1
-41126.2
-32744.9
-31031.9
-41136.9
-39278.4
-32608
-25213.3
-34101.1
-26542
-25213.4
-34094.5
-32604.6
-27885.7
-21319.5
-28739.4