/*--------------------------------*- C++ -*----------------------------------*\
  =========                 |
  \\      /  F ield         | OpenFOAM: The Open Source CFD Toolbox
   \\    /   O peration     | Website:  https://openfoam.org
    \\  /    A nd           | Version:  10
     \\/     M anipulation  |
\*---------------------------------------------------------------------------*/
FoamFile
{
    format      ascii;
    class       surfaceScalarField;
    location    "3";
    object      phi;
}
// * * * * * * * * * * * * * * * * * * * * * * * * * * * * * * * * * * * * * //

dimensions      [0 3 -1 0 0 0 0];

internalField   nonuniform List<scalar> 
38556
(
-497.96
4637.86
-4673.25
-180.424
511.045
-828.58
300.131
-491.146
10.5913
454.964
-276.393
121.56
485.853
-277.5
246.611
558.461
-275.165
202.557
628.945
-239.659
169.175
712.719
-216.165
132.391
798.147
-185.731
100.302
875.005
-150.719
73.8612
942.665
-123.675
56.0149
1006.3
-99.0145
35.3822
1060.98
-81.9962
27.3115
1119.41
-66.1272
7.69839
1175.64
-59.2649
3.03188
1240.19
-56.602
-7.94711
1309.3
-52.4288
-16.6765
1365.06
-37.0499
-18.7144
1401.75
-20.6618
-16.0252
-9.13984
-5.75559
4540.2
677.918
-8305.31
1036.14
1288.25
2726.86
180.416
-126.89
491.469
-9.93858
-209.061
123.022
253.027
-425.182
-115.283
296.6
-332.348
13.6098
450.383
-414.187
20.7446
523.828
-306.737
17.1267
610.501
-287.51
15.106
663.239
-205.573
2.1161
714.948
-170.642
-4.74202
755.602
-122.474
-17.1943
795.134
-101.267
-20.2616
832.671
-74.3948
-29.2696
866.781
-63.7272
-29.6476
897.378
-51.2263
-35.9719
925.724
-48.6829
-32.0923
948.215
-40.2095
-19.3316
961.055
-35.5363
2.03461
-25.8703
11.7439
471.785
-2396.3
370.569
406.503
380.962
972.565
595.345
44.7142
-360.447
561.471
-120.625
-54.5618
611.925
-399.87
-75.7667
644.496
-350.896
-14.0226
643.142
-458.988
46.1559
652.671
-351.76
35.4942
661.982
-345.215
48.3947
673.012
-239.674
23.0703
693.098
-207.811
17.0825
712.293
-149.466
7.79698
734.839
-135.471
11.6584
756.947
-111.173
14.6696
777.499
-105.125
20.8455
796.552
-90.6455
20.3666
811.572
-85.5161
21.8131
823.39
-70.397
18.3694
826.622
-47.4853
8.7169
-19.0622
-3.65131
-650.809
-604.898
3832.65
-251.175
-83.357
64.6853
493.32
-330.919
-368.862
535.451
-215.713
52.9567
695.279
-563.312
3.61389
806.109
-428.469
-33.2565
814.206
-536.296
69.2109
819.946
-402.059
44.5592
786.435
-391.363
79.6594
758.521
-265.118
53.3582
732.133
-226.885
45.4621
715.568
-157.024
24.1228
710.349
-148.909
18.6578
710.925
-124.331
12.5814
717.348
-122.581
11.0335
727.51
-112.101
11.2937
739.653
-110.63
12.9698
758.767
-98.1572
8.64662
773.764
-71.4917
9.00956
-22.8014
0.594813
3540.66
2072.1
-1286.21
2553.06
718.615
185.631
1707.37
134.521
380.248
1424.52
-87.2644
154.403
1171.24
-409.349
99.3101
1107.77
-381.677
16.6858
1011.44
-497.14
57.1652
963.011
-376.758
23.1327
889.77
-369.182
51.0598
839.761
-251.089
35.9797
784.102
-212.157
40.9307
742.68
-140.731
25.1286
714.652
-141.44
20.559
701.11
-120.471
9.68244
698.926
-127.045
6.64839
704.841
-120.829
2.81261
715.348
-122.238
1.10093
735.537
-111.286
-7.06049
752.876
-82.2323
-6.59782
-16.2861
-9.64264
760.162
2131.02
-2095.06
742.701
1045.51
-309.433
873.089
128.133
-123.999
903.811
-102.845
-15.1417
847.798
-409.705
56.3705
849.233
-377.904
-5.20908
849.089
-535.822
38.8256
840.125
-368.305
0.511673
827.693
-365.967
9.21771
817.28
-233.771
-6.90542
791.349
-195.948
9.72218
750.614
-113.018
13.0223
708.255
-116.835
17.7532
679.735
-101.474
9.52246
674.872
-120.044
-2.13766
681.497
-124.201
-3.2535
693.713
-129.33
-5.12352
713.064
-120.036
-10.6009
728.252
-88.608
-8.81186
-11.5045
-8.73027
2099.62
523.844
-3228.61
2236.86
216.791
691.482
1921.48
-161.165
604.669
1643.89
-209.775
384.519
1202.85
-363.541
394.884
976.982
-299.274
147.235
839.201
-99.4736
60.9058
-128.55
-101.598
-129.325
796.661
-99.4717
10.6648
-76.8187
-94.0233
-66.1162
749.573
-80.3978
1.34743
-87.0052
-72.1789
-80.6446
717.919
-61.6068
-7.36118
-43.1767
-53.7698
-36.2028
684.288
-37.7578
-5.46551
-42.3779
-35.0679
-41.6482
667.7
-24.7269
-7.1478
-19.3689
-24.6301
-20.5569
660.956
-21.6311
-4.56731
-29.8725
-23.2816
-30.7375
668.054
-26.0874
-3.36163
-26.1652
-25.981
-26.9764
680.183
-130.781
-1.39212
695.08
-136.01
-3.08737
709.409
-141.919
-1.74074
723.767
-130.018
-4.3763
734.611
-93.2231
-6.22934
-9.35783
-4.2259
1358.22
-143.681
593.965
1833.86
-140.657
-118.193
1449.56
-290.959
514.095
1289.09
-372.104
322.795
1092.48
-394.543
227.617
238.924
-73.4983
108.327
247.193
233.803
250.026
-56.6667
-85.085
-69.8197
206.101
-80.5255
13.8744
-181.31
183.283
-102.812
1.36691
-199.464
198.01
-77.5729
-1.3708
-194.505
188.905
-60.7402
4.7333
-185.322
170.047
-26.9513
4.46867
-159.413
153.726
-18.3977
-0.64207
-157.805
156.544
-17.0634
-3.30672
-161.763
164.958
-26.7653
-2.51692
721.698
-36.1484
-12.5157
-172.801
-178.217
-166.669
-170.015
-40.0335
-36.2529
-39.8266
740.726
-152.453
-2.58508
743.178
-145.776
1.40491
746.362
-127.649
-5.55242
744.789
-81.121
-10.5295
0.581582
-4.88321
-197.635
167.323
1373.83
393.834
153.57
-885.695
849.016
-559.846
-186.296
1158.69
-555.754
-126.028
278.046
-563.123
113.159
302.193
311.269
322.609
280.859
-99.0124
22.7015
17.7745
-72.1236
69.8572
-18.4975
2.98939
-61.5935
24.189
59.0949
-19.3954
-2.295
-55.4011
21.7029
54.3336
-21.2124
0.577027
-52.4806
15.2364
51.263
-14.7784
0.759492
-47.3872
5.81531
45.2729
-4.9416
1.24058
-41.2915
3.0293
40.3855
-1.76144
-0.361799
-41.6041
3.90111
41.8165
-3.21553
-0.898028
-44.808
6.88297
45.1623
-6.44212
-0.795152
-48.1975
195.016
-35.1726
-3.32516
-48.9235
-47.5373
-48.0088
823.285
-161.804
-10.2087
-201.113
-208.542
-193.877
-200.193
807.629
-134.759
4.63832
784.028
-106.707
2.65845
751.714
-44.7781
-4.02862
32.9041
-7.57735
1696.6
174.569
742.106
1891.7
2.96005
-44.495
1483.87
-353.569
201.556
1477.49
-504.615
-44.7593
336.302
-498.597
87.6995
280.833
365.311
342.817
124.912
329.985
-131.429
12.8331
23.7305
-75.1571
71.572
-23.9888
3.84337
16.5144
-69.1737
70.6196
-17.2978
-0.662493
17.6382
-69.8339
67.0496
-14.3207
-0.533155
13.4692
-58.8388
57.1661
-11.4016
-0.394914
2.02212
-53.8661
52.4071
-1.10462
0.54145
0.654879
-48.4626
48.1418
0.128343
-0.46242
4.14573
-49.4928
50.1158
-3.9571
-0.811586
7.29306
-51.493
51.9517
-7.16857
-0.583214
-53.7862
38.7694
219.989
-40.2926
-2.89298
-54.7533
-53.1054
-53.9281
865.715
-153.771
-17.0077
-219.793
-218.529
-210.074
-208.344
845.262
-104.001
-10.3045
808.119
-60.134
-9.42989
756.119
13.8971
-6.67617
78.593
-8.8097
-633.667
-627.386
-1205.74
-101.279
-22.6314
-506.796
524.639
-371.741
-607.746
717.213
-475.558
-221.631
135.104
-516.771
90.2748
151.485
166.978
191.545
100.393
125.848
-105.852
14.7146
17.5771
-28.278
27.7958
-20.165
3.07011
19.3343
-34.0256
36.5557
-22.5711
0.706646
16.7865
-43.7497
45.6876
-21.5147
2.79034
9.70596
-48.6387
48.458
-11.1829
1.65767
1.50396
-49.797
50.9415
-2.62046
-0.0280445
0.120217
-53.2454
53.8482
-1.34046
0.617524
4.7141
-54.7569
54.7954
-5.3578
0.605154
7.72256
-55.1944
55.3352
-8.22083
0.357412
-54.3319
41.7001
203.593
-40.3582
6.83523
-52.943
-53.0825
-51.4131
708.229
-124.912
-19.3815
-190.565
-172.532
-186.166
-168.444
713.082
-67.2668
-41.5876
715.288
-22.8009
-39.5392
698.834
58.6545
-28.3033
113.405
-17.2113
1122.23
80.2145
-198.828
1508.8
-118.009
-291.19
1433.4
-342.58
46.2407
1448.7
-450.68
-40.1789
274.176
-440.209
157.261
299.359
312.906
328.434
116.988
260.773
-117.874
14.2893
26.7827
-62.9241
63.0149
-26.5954
-0.278141
26.9254
-61.5392
61.4843
-25.9552
-0.915305
22.9877
-62.1298
61.2713
-21.3617
-0.767476
12.9268
-53.664
51.1617
-11.7144
1.28981
7.23504
-47.5198
47.4862
-8.23559
1.03418
6.42964
-47.5768
47.6994
-7.42149
0.869295
7.66033
-46.9307
46.6631
-7.88488
0.492208
8.67759
-45.349
44.9707
-8.74924
0.449941
-42.7504
36.9363
163.133
-35.3281
3.0793
-41.7875
-42.3253
-40.9571
600.044
-102.199
-13.936
-154.137
-153.954
-150.957
-149.773
616.987
-51.1106
-33.0987
652.306
-21.3602
-36.7597
674.214
62.8108
-26.0646
122.879
-16.4389
1524.37
-679.611
-601.073
2042.02
-656.516
20.8643
2073.27
-556.058
182.222
1916.23
-415.773
122.135
1549.45
-204.65
131.224
331.935
-309.905
38.7271
116.526
131.822
123.817
128.305
333.266
325.728
329.226
27.5253
321.85
-89.6655
-3.05419
21.8631
28.5706
24.8458
21.7357
-288.343
242.384
-53.0447
13.796
20.8102
21.9796
20.6821
17.4897
-207.528
193.044
-57.2493
8.5728
14.0561
17.4688
14.1451
10.2662
-169.256
159.366
-34.0804
6.39703
8.72537
10.0861
8.49578
9.15829
-158.613
162.783
-38.1792
0.934065
7.55563
8.92657
7.43545
8.17806
-157.26
159.429
-32.8455
0.206031
7.19294
8.03017
7.06944
8.99929
-160.555
164.927
-37.719
-0.0750998
7.81773
8.85147
7.75385
9.12991
-160.715
160.254
-35.222
1.25197
8.14338
9.06146
8.09586
595.275
-110.067
11.4417
31.5844
25.785
29.4518
24.0218
-154.505
-155.656
-147.074
-150.258
585.972
-96.2479
3.35233
593.684
-52.2846
-6.53752
621.775
-32.855
-16.5961
662.499
36.908
-14.8211
104.172
-10.5683
1534.47
-1593.27
-3944.05
1597.43
-771.531
52.057
1705.21
-552.749
-111.093
1652.98
-463.382
99.8455
1402.48
-232.279
278.13
1176.16
-268.503
184.91
959.647
-84.8851
128.804
59.7248
22.1757
67.0722
23.6254
830.055
-138.654
91.7901
34.753
50.5956
36.8571
54.2496
733.999
-71.3634
45.4912
41.464
20.0416
42.1886
18.2345
682.27
-123.822
31.3157
31.3403
40.8952
30.9825
41.0171
658.652
-105.05
12.8115
35.4419
23.4864
34.6218
22.3067
647.077
-137.101
7.58129
33.4883
37.6293
33.0316
36.9447
638.589
-123.188
5.02878
35.9608
28.9195
34.5887
27.1786
629.845
-127.885
7.132
33.5749
32.5729
31.9925
31.3567
616.673
-104.934
8.03912
597.659
-87.2673
10.0331
592.756
-53.7183
6.33668
597.852
-38.6826
0.731552
638.387
0.473296
-4.09983
58.1373
4.36564
670.529
-550.359
-346.084
1264.35
-402.475
-962.874
1456.37
-425.744
-319.031
1706.84
-430.897
-282.955
1682.3
-223.261
15.5249
1551.53
-188.587
50.8511
1234
26.2634
206.39
987.267
-18.4564
126.531
845.912
11.9283
58.0629
759.905
-51.9656
14.1516
719.765
-60.519
-4.39194
688.795
-97.5649
-8.5658
668.021
-99.3396
-3.07471
648.908
-107.271
-1.50077
626.907
-86.2013
3.26889
604.536
-69.2
4.30398
592.264
-44.4541
3.00793
582.958
-33.7027
4.32605
596.421
-16.1184
3.12844
12.3266
20.2625
109.328
-1309.88
-516.634
837.357
-445.127
-685.378
1078.29
-316.284
-350.39
1168.29
-259.34
-261.564
1014.88
-55.4717
-14.3709
884.485
-10.6699
-47.5275
779.452
106.753
24.5434
744.135
26.4939
-9.63285
743.739
25.5306
-13.2061
744.99
-27.891
-25.3264
740.956
-34.7569
-21.728
720.57
-56.8886
-20.2907
693.668
-69.4373
-3.00025
667.073
-80.8221
0.146564
645.148
-70.1953
5.91868
629.079
-55.4048
2.27355
623.044
-39.786
1.36688
618.058
-29.9467
1.23006
622.396
-24.7308
4.27452
-8.58917
9.31677
220.534
256.838
129.516
300.689
223.152
-748.434
538.45
-48.0551
-505.99
473.59
-75.2296
-119.25
567.037
-61.1323
-87.7866
571.475
1.49125
-16.599
675.493
14.7391
-12.0036
708.954
6.40839
-13.3757
772.104
-16.8926
-20.7269
811.299
-37.8101
-29.2762
843.685
-49.4551
-17.688
844.469
-54.3945
-3.27749
806.143
-49.4598
18.3486
745.503
-41.5885
21.4063
688.756
-27.1062
13.6573
653.606
-18.4657
-1.78896
638.651
-14.8288
-10.0019
630.041
-9.8203
-11.5165
629.537
-13.424
-10.8026
-7.6955
-6.97325
844.048
967.651
-1572.36
662.534
638.66
-233.995
852.849
66.6438
-305.013
894.269
-29.0507
-87.599
874.288
-31.8824
-9.26885
849.451
57.3553
-31.0275
858.247
16.1293
-10.186
885.202
-0.522913
-20.0237
920.486
-41.1878
-10.9891
950.225
-58.4836
-9.06556
966.679
-66.8557
0.947123
963.926
-56.4798
4.83837
922.755
-23.4475
15.1591
860.916
0.654833
19.595
792.572
26.5265
14.7117
744.901
32.6385
-3.43339
723.404
23.1277
-16.459
711.541
22.1847
-20.1421
714.762
5.18727
-21.8326
0.632112
-17.8797
2878.95
1617.95
-387.826
2463.33
733.591
320.689
1731.58
584.126
214.276
1395.01
277.18
30.3372
1128.24
191.171
43.7185
963.73
182.245
39.6165
860.854
99.0252
19.9797
819.623
84.7374
-44.0291
832.271
12.9677
-66.8037
858.514
-20.6169
-64.1095
891.101
-55.7033
-43.7388
911.187
-42.523
-34.0431
916.627
-15.8636
-13.0237
904.553
11.9848
0.743664
882.718
36.0258
12.3361
857.208
48.91
9.23816
830.019
48.3185
1.99784
808.087
48.1466
-4.02978
789.628
38.9932
-15.3471
35.2695
-25.225
317.199
966
720.023
330.766
1417.88
-113.726
1755.47
-60.4192
1831.72
114.93
1764.51
249.452
1610.5
253.035
1515.68
179.556
1419.87
108.774
1323.92
75.3392
1241.01
27.2089
1194.81
3.67174
1173.43
5.51769
1171.07
14.3454
1182.77
24.3282
1203.89
27.7867
1223.65
28.5576
1237.82
33.9775
1246.41
30.4057
29.3697
354.278
-572.793
-10602.1
-601.647
-84.1317
211.475
321.949
-505.615
-407.389
346.636
-154.282
251.155
457.73
-174.965
310.481
547.621
-166.062
278.728
629.714
-130.788
217.87
719.252
-123.304
166.157
803.999
-109.205
124.761
880.67
-91.1018
88.2921
945.472
-76.347
67.5598
1005.95
-62.3564
37.257
1055.13
-51.1622
29.3008
1102.9
-41.4557
1.38456
1145.2
-34.2444
-5.0271
1184.9
-25.1469
-22.4966
1213.64
-16.9053
-28.5182
1225.46
-9.73754
-20.7949
1230.84
-10.0424
-11.3596
-9.49075
-0.880398
-1042.45
-1960.9
-4935.32
-511.502
-46.7213
2158.49
-226.785
-339.464
40.6019
-125.569
-176.449
43.9729
115.45
-341.146
-190.121
180.172
-219.855
2.68071
379.177
-300.43
-8.61981
459.959
-195.951
8.99198
552.097
-193.571
7.33493
604.187
-131.376
-9.70075
655.845
-114.753
-17.994
692.763
-81.9281
-34.5403
727.354
-69.2863
-36.7285
754.86
-53.5394
-44.6919
778.744
-46.6887
-41.0878
798.638
-38.7573
-42.2551
815.233
-34.5375
-31.0553
828.997
-27.0201
-15.8123
838.397
-19.8255
2.41673
-9.30551
6.77455
787.603
-334.629
-271.704
778.313
254.04
681.094
365.569
-24.5811
-262.587
338.126
-162.457
-41.1107
390.519
-385.662
-83.6432
419.916
-264.559
1.28492
474.772
-367.513
58.3834
500.361
-231.834
45.7884
542.897
-243.623
55.9106
565.657
-154.183
23.1188
596.501
-147.289
18.7741
619.063
-102.7
6.00621
645.581
-95.8322
11.6866
668.066
-73.5224
12.1678
688.526
-66.3329
20.03
703.916
-51.3907
17.6094
714.23
-42.6861
19.6474
718.537
-29.0266
16.0695
711.833
-10.33
5.92572
4.19799
-8.65633
-787.782
1747.75
3482.95
-456.176
216.393
-229.273
2.7934
-377.616
-474.798
111.109
-304.037
86.2205
379.758
-601.079
-49.618
453.326
-359.863
-11.5213
526.298
-463.988
92.714
556.238
-272.472
55.2556
579.561
-281.145
93.8589
583.817
-161.791
56.7104
592.475
-159.598
49.1127
595.604
-105.496
23.7899
605.917
-106.952
19.4643
615.508
-81.9434
11.4109
627.264
-77.9352
10.8798
639.15
-61.6966
9.71371
649.836
-52.5919
12.1897
658.477
-36.034
7.01254
658.247
-7.57476
6.4848
14.2427
-4.26046
1447.31
2247.91
-3751.01
1483.05
671.058
-304.779
1168.31
35.5189
281.855
1021.12
-171.992
169.551
803.074
-444.8
161.077
750.869
-325.724
34.7522
700.665
-435.108
78.4885
679.767
-255.358
26.9168
652.995
-264.455
61.142
632.869
-142.986
37.3001
614.252
-145.284
45.2338
601.299
-92.6034
25.1901
596.85
-103.897
21.9518
597.663
-83.5605
10.4869
604.056
-85.9415
8.2613
614.319
-72.0404
2.89357
625.002
-63.8999
1.72603
634.568
-45.0495
-7.6112
634.934
-6.41314
-8.1253
23.88
-12.925
1467.55
-43.7347
-5936.57
489.102
406.84
933.229
605.255
-89.5641
-115.07
611.944
-235.517
41.6937
575.667
-441.324
89.172
583.282
-338.678
0.129118
612.492
-474.139
48.6468
606.633
-249.722
0.734812
609.698
-272.733
14.4306
601.977
-137.564
-4.6066
595.113
-142.569
13.8714
582.906
-81.2572
13.8822
576.185
-98.249
18.8271
572.89
-80.7445
10.0011
576.966
-92.5766
0.421251
588
-84.4454
-1.88214
600.067
-77.5646
-3.52589
611.435
-56.8733
-10.145
616.076
-9.84356
-10.0231
28.0916
-10.9388
583.686
-534.924
-2007.44
1055.29
-452.031
1078.75
1110.56
-348.05
807.88
1030.89
-256.127
484.802
844.439
-339.677
479.684
718.998
-227.359
161.357
618.71
-84.9745
82.0117
-116.138
-82.2207
-111.623
591.395
-75.0388
19.8243
-47.7718
-67.2012
-41.5543
564.463
-59.2238
8.73097
-70.3571
-55.5484
-68.0562
553.531
-41.9362
-3.05365
-26.1448
-38.4602
-24.3975
544.754
-30.2909
-2.62305
-38.0408
-30.0617
-38.2415
546.853
-22.7571
-5.64419
-19.4752
-22.8451
-19.7823
555.096
-23.4799
-2.79864
-30.4741
-23.9359
-30.3714
569.915
-24.3633
-1.2013
-25.6224
-23.5912
-24.1467
583.201
-109.515
2.25952
595.802
-101.473
1.33941
607.362
-92.3075
1.44197
616.335
-66.2786
-3.94341
620.175
-12.0115
-7.90173
32.2467
-6.17298
1195.73
660.524
1392.16
966.171
-422.054
81.3895
880.073
-185.043
437.186
854.968
-205.32
297.093
759.403
-255.833
239.338
173.871
-52.139
119.818
185.051
159.639
167.047
-40.3977
-44.8654
-27.6534
-32.387
156.631
-65.8616
30.5144
-6.49993
-140.516
142.99
-81.7594
10.7469
2.54736
-155.309
148.475
-54.8329
-0.104399
-4.1106
-142.903
140.834
-42.5736
6.81748
-3.46386
-144.813
138.013
-23.3374
3.3101
2.72666
-135.641
135.094
-21.8231
-3.11297
5.01987
-141.29
140.664
-22.4636
-5.41022
3.73554
-145.047
147.249
-26.4593
-3.84162
621.359
-32.9199
-4.14608
-153.388
-156.182
-146.49
-149.067
-36.2914
-31.3418
-33.5622
630.918
-119.494
5.87663
629.601
-96.82
7.23499
626.947
-63.6842
-5.49296
620.102
-4.26467
-11.4314
42.9577
-7.85898
-649.508
786.642
-862.113
-298.36
-225.465
-1433.43
330.063
-410.047
-589.715
499.539
-326.068
-174.757
180.688
-365.196
62.3972
184.194
147.117
147.665
-34.9099
220.476
-77.647
20.6303
-10.3454
16.2262
-64.8685
66.2348
-17.4875
10.2405
-4.17389
-58.0628
20.1107
52.7561
-17.2661
6.63602
-2.66234
-45.9252
15.9192
44.5209
-15.2045
3.35192
-1.85897
-42.0375
11.0172
40.8675
-10.3318
2.34356
-1.96296
-39.5031
5.64629
38.515
-4.54836
1.85317
1.24576
-37.4554
5.27672
36.9741
-4.46705
-1.5742
2.26864
-38.5753
6.37448
38.5774
-6.04443
-2.60078
1.95415
-40.6229
7.75948
40.704
-7.68528
-2.10937
-43.1882
5.06374
172.951
-34.9745
-4.20747
-43.6146
-42.264
-42.686
688.757
-128.064
6.15285
-176.078
-182.207
-166.948
-171.315
662.988
-77.6062
11.1938
636.753
-37.3272
2.53602
610.689
24.282
-6.5115
66.359
-11.0215
1202.4
-65.5802
-202.947
1026.53
-200.126
106.038
735.294
-274.742
357.484
760.146
-343.518
-52.1613
215.607
-350.5
69.1716
200.401
177.673
170.296
-18.8591
90.091
240.458
-98.5758
2.49312
-12.5621
21.4972
-64.311
66.4144
-22.0682
11.0297
-4.89833
14.6695
-62.4955
61.4523
-15.2059
6.47793
-3.2238
14.0304
-55.4725
53.3217
-12.8259
4.17004
-0.951019
9.38077
-48.5774
47.5039
-8.76266
1.40644
-1.40716
3.22605
-45.2231
44.8982
-2.89927
1.4052
1.17593
4.43022
-44.5104
44.5725
-4.2653
-1.40292
2.05762
7.70725
-45.5108
45.9615
-7.88216
-2.33346
1.74777
9.51702
-47.2757
47.7126
-9.71364
-1.98804
-48.6695
3.08907
40.0967
194.614
-41.2719
-2.85421
-49.3039
-47.5705
-48.13
722.305
-114.461
-10.1172
-192.02
-190.224
-180.882
-179.672
680.843
-37.8953
-8.55394
638.087
0.183662
-4.18462
599.777
64.5531
-8.6372
92.6406
-11.3517
-496.041
-253.968
-1203.44
-208.465
-239.931
-754.567
156.505
-409.749
-837.707
274.471
-471.741
-211.375
100.942
-463.272
80.2592
113.747
87.9151
94.6556
-13.7392
86.8266
121.072
-96.8781
3.65994
-4.59575
18.4976
-33.1587
35.1605
-19.6183
3.71464
-1.73315
17.4291
-37.7756
38.8969
-19.0123
2.19506
-6.69433
13.8917
-42.7196
43.8412
-15.4539
7.135
-3.73805
8.65757
-45.2802
45.2276
-8.93895
4.07202
-0.92917
4.74123
-45.6271
46.1568
-5.37573
1.03405
-1.3819
5.40192
-48.2036
48.7957
-5.86734
1.25517
-0.867105
8.06946
-49.5574
49.5827
-7.97648
0.748835
-0.594393
9.52916
-49.2207
48.9644
-9.2821
0.603692
-47.4662
-8.33854
39.9458
180.349
-35.6763
7.60158
-45.644
-46.1838
-44.5874
636.064
-86.926
-28.7014
-174.329
-160.116
-165.433
-154.401
617.629
-16.5816
-44.4665
595.006
21.7308
-38.4631
574.101
83.8925
-26.7382
104.345
-17.8127
-341.25
898.238
-512.271
40.3939
-154.628
-758.136
613.187
-533.19
-403.112
763.901
-624.731
-37.9028
191.07
-502.496
199.287
215.113
161.028
193.889
-30.4466
113.321
205.646
-124.704
27.2527
-7.37636
26.6238
-53.6399
56.2144
-28.9899
7.16803
-4.25307
24.1211
-55.4172
54.6139
-24.538
5.47323
-3.63086
17.5238
-50.2286
48.3717
-16.8761
4.83996
-4.00261
9.0412
-44.1482
43.4966
-8.86573
4.47877
-2.68431
6.64948
-42.6221
42.7262
-6.98075
2.91143
-1.7597
6.67329
-42.6987
42.7703
-6.79993
1.81474
-1.0492
7.58649
-42.3434
42.2109
-7.49543
1.09061
-1.02061
8.30926
-41.1221
40.7968
-8.04191
1.07858
-38.8933
-4.07958
31.2762
149.351
-29.2608
3.98055
-37.4492
-38.1372
-36.7872
551.478
-73.9531
-21.599
-143.054
-139.952
-138.321
-135.46
558.09
-21.1629
-35.1303
569.132
7.61424
-33.6844
574.189
76.9444
-24.174
99.1958
-15.4103
1540.86
1455.81
-2233.69
1748.05
558.799
-899.751
1960.38
-14.3263
-548.978
1765.01
-253.214
-54.0114
1308.21
-207.164
292.697
257.69
-336.24
146.599
128.092
136.868
126.743
138.489
261.956
241.111
245.627
28.9677
-8.28999
243.645
-97.7203
12.2803
24.8812
29.2014
24.7249
20.3485
-32.2314
-200.663
167.795
-51.6303
39.494
18.6371
19.9853
18.2643
15.4018
-16.6968
-157.773
153.562
-53.9327
19.7969
12.5366
14.9394
12.166
8.63174
-10.1494
-137.874
135.661
-30.1518
10.8701
7.36578
8.40527
7.24066
8.03898
-1.84359
-138.239
143.32
-34.5947
2.11543
6.67833
7.91639
6.60761
7.22997
-0.71834
-137.703
140
-29.4202
0.750229
6.398
7.12706
6.33644
7.91408
-0.556248
-140.608
143.759
-32.6575
0.657944
6.8892
7.80101
6.80101
7.91426
-2.18977
-138.308
138.143
-29.6113
2.36785
7.0227
7.76628
6.89557
524.443
-85.3594
11.3327
25.7294
19.7912
24.0579
18.2874
-133.977
-135.098
-128.319
-129.446
526.294
-70.9572
-1.49465
537.796
-30.5238
-8.67919
558.623
-10.2155
-19.5932
583.479
51.7086
-14.4413
78.4909
-8.71111
3458.52
1488.95
-3070.87
3727.99
744.995
-403.607
2633.28
561.506
407.788
1686.32
156.095
637.489
1141.75
63.0059
552.528
856.81
-116.227
249.843
701.323
-17.1996
162.118
58.594
16.0648
52.7224
11.9905
610.643
-126.615
113.614
38.439
57.6846
39.2856
60.063
563.92
-64.6444
52.1197
39.0488
14.7249
37.6081
13.3565
542.872
-125.046
36.4014
30.1756
40.4629
30.0574
40.3122
538.258
-95.7588
12.8286
31.8633
19.3191
31.0181
18.1547
534.608
-124.729
9.10149
30.3298
33.9105
29.578
33.0403
532.62
-101.324
5.68552
30.2103
22.4614
28.993
20.991
528.47
-104.493
8.2012
27.8046
27.0657
26.6323
26.0707
523.557
-81.0737
8.66647
517.107
-64.8399
10.3659
523.337
-35.8566
5.43923
536.304
-22.1872
-0.263594
570.062
16.9696
-3.1187
45.0868
7.69411
1622.07
1489.2
-1445.73
1256.94
460.832
-313.58
1088.91
126.848
283.655
1048.71
-40.0906
-46.56
962.655
36.3701
128.211
893.295
-73.3727
77.3566
808.727
49.1039
224.654
720.77
-46.3405
134.214
660.208
-20.6705
74.6509
609.378
-77.8159
17.7521
585.341
-76.6868
0.573333
565.096
-107.214
-5.83594
555.437
-94.3807
-0.358574
543.831
-93.9292
-0.458194
532.642
-71.0786
4.46248
521.977
-55.1808
5.3096
518.704
-33.0368
3.46191
519.304
-22.3489
3.88722
539.258
-5.30921
5.45357
16.2334
23.9376
462.808
1019.25
-2114.62
527.188
-28.1251
-260.8
529.281
-237.151
11.5147
567.106
-212.128
-127.352
603.358
-50.3662
36.1141
579.376
-76.0892
-20.8289
604.029
20.8838
28.1101
601.132
-53.423
0.346516
615.585
-42.1792
-6.15063
612.176
-77.2112
-22.522
607.971
-77.5662
-16.6433
591.25
-95.9255
-14.8574
577.822
-84.9542
1.00045
563.87
-82.3172
2.48709
553.881
-61.7241
6.55313
544.866
-45.5108
1.61838
542.409
-30.6258
1.41298
540.519
-20.29
1.06128
548.797
-13.982
4.66944
0.348552
11.3826
506.887
1561.46
1462
398.851
129.697
-798.22
369.963
-186.485
-527.768
341.039
-189.259
-113.195
472.219
-158.946
-110.386
486.426
-92.3429
-14.5528
595.645
-78.2082
-22.1302
625.136
-72.979
-23.3111
672.81
-81.7994
-28.7805
690.13
-94.3278
-29.4795
700.184
-94.8438
-10.4644
687.272
-89.8289
3.53753
663.975
-64.9987
21.6903
634.206
-51.4024
20.2607
605.187
-32.4799
13.4318
582.183
-21.9966
-2.29867
569.333
-16.4189
-11.3586
560.312
-10.0918
-12.6943
558.925
-11.0845
-12.3135
-3.17881
-8.44071
819.031
198.392
-107.158
879.13
406.627
-571.023
810.233
34.3811
-456.983
779.309
-113.646
-132.288
757.684
-128.509
-18.0806
751.04
-65.0443
-51.6818
774.632
-80.7268
-31.2598
793.329
-70.7362
-40.9629
813.851
-89.3864
-23.9245
822.509
-92.4181
-19.6333
819.818
-89.7161
-1.48949
802.502
-71.5412
3.86631
768.057
-34.1015
18.7071
731.308
-13.3043
18.2461
697.374
1.75878
14.4073
669.836
8.31757
-6.20926
653.54
3.0053
-19.5873
643.742
3.64592
-24.0825
643.431
-5.72964
-26.8761
-4.86132
-21.6668
2704.42
885.185
311.1
2395.76
790.443
245.536
1712.54
586.976
344.893
1271.57
203.21
154.451
1004.72
101.627
80.4396
896.105
84.6945
-1.5103
857.643
27.9386
-50.2242
845.015
22.7658
-124.903
855.561
-29.1331
-137.603
864.614
-50.918
-114.663
872.95
-77.9792
-63.8114
870.793
-64.4647
-38.9622
860.804
-32.1285
-5.00758
847.117
-3.4606
4.58662
833.874
19.5882
7.74981
820.351
30.2329
0.845538
804.67
31.6306
-10.9467
792.326
31.4784
-19.5183
779.452
25.1791
-33.3821
22.2502
-45.3172
-134.007
-30.8259
479.826
507.376
1145.5
-192.427
1412.56
-124.265
1584.4
44.7204
1627.82
290.725
1575.5
333.293
1534.06
243.759
1463.15
150.55
1393.22
94.3508
1311.04
31.415
1246.88
3.3617
1202.95
17.3245
1182.11
31.7239
1184.56
41.4671
1199.48
43.0928
1217.6
42.0723
1234.96
48.0908
1246.94
43.6095
44.3873
-905.604
-1428.88
-7442.32
-74.9136
-806.396
187.181
303.775
-504.006
-282.073
403.858
-99.0279
250.101
465.168
-77.8903
327.062
566.875
-66.349
243.37
643.983
-44.6486
185.411
731.213
-52.6098
131.537
806.517
-52.9974
102.454
876.662
-47.3967
65.5436
933.922
-40.2049
50.5052
983.978
-32.3507
19.5513
1021.43
-22.0976
13.9462
1049.84
-16.608
-10.4143
1066.14
-8.97752
-12.353
1071.12
-4.72915
-22.7449
1068.88
-2.69238
-23.5909
1065.06
-1.65808
-15.3127
1063.45
-4.96158
-4.79318
-4.9644
1.26438
-393.49
-1510.62
-4000.37
-183.682
-395.253
1537.54
-110.63
-375.05
-161.406
-87.6934
-134.626
56.6345
71.636
-251.116
-176.224
129.195
-135.504
14.2768
322.323
-216.596
-29.8003
399.874
-123.764
2.59456
490.362
-136.889
0.738409
536.999
-87.328
-16.4064
584.461
-82.7017
-22.9585
613.643
-57.5738
-38.4995
641.731
-50.409
-36.5056
661.057
-39.18
-41.4458
678.516
-34.0832
-33.4406
690.232
-27.7566
-30.9433
699.067
-24.052
-18.5308
705.926
-17.1652
-7.16446
710.239
-10.2781
3.41972
-0.708543
0.272376
462.364
-634.986
-2902.78
614.833
-0.876344
134.248
260.97
-49.9247
-233.849
236.667
-132.837
-18.5967
255.283
-304.384
-48.9918
288.283
-172.033
4.81509
364.611
-280.191
45.6502
394.329
-146.345
38.6512
448.562
-179.872
44.661
472.547
-103.905
15.7111
506.84
-112.713
14.4913
527.395
-74.2719
2.14961
552.634
-72.378
8.41622
570.397
-51.6389
6.8642
587.445
-44.9355
13.8346
597.87
-31.6487
11.0764
603.944
-22.9116
12.4331
605.103
-11.1851
8.93025
597.587
0.738546
2.42541
10.8859
-10.7598
-757.737
404.422
1866.22
-372.744
-74.3491
-540.793
-223.242
-464.274
-209.95
-40.7845
-310.998
81.9246
183.015
-532.378
-45.4235
229.083
-256.57
26.9481
347.54
-380.38
74.446
384.303
-173.324
45.4715
437.965
-213.686
74.0105
456.045
-105.012
39.7377
482.261
-124.828
35.0122
493.237
-76.4684
15.0098
510.435
-83.795
13.6836
521.786
-58.3028
6.72365
534.365
-54.2366
7.60122
543.837
-37.1187
5.71213
551.017
-25.4462
7.54404
554.045
-10.4925
3.29193
548.745
10.378
2.14559
21.3272
-7.08015
1435.65
-28.5615
-3054.15
1188.29
58.7389
-190.509
768.569
-121.642
358.945
660.245
-189.635
156.512
536.162
-393.803
146.584
506.944
-228.409
35.8085
498.908
-360.954
67.0987
491.122
-160.716
22.0955
492.294
-203.917
50.2006
488.594
-89.58
25.5675
491.899
-116.578
33.6793
492.634
-68.461
16.447
499.951
-85.2873
16.127
506.989
-61.9866
7.13268
516.879
-62.7362
6.87051
526.633
-45.7143
1.73532
534.755
-33.2536
1.41214
537.218
-14.4274
-6.13976
531.084
15.5898
-7.20309
29.3536
-12.0268
293.999
-78.3801
-2675.17
504.867
-21.3182
802.418
340.563
-230.482
158.074
383.322
-264.656
73.9562
374.231
-395.246
99.7066
390.108
-250.196
6.0393
444.948
-409.634
42.486
442.48
-160.798
3.28415
461.277
-223.428
15.1447
460.777
-92.4153
-1.27043
468.708
-123.854
13.2152
470.423
-66.7683
10.4741
478.551
-88.808
14.2201
484.375
-65.1627
7.35353
492.628
-72.6161
2.04798
504.798
-58.9826
-0.784166
515.337
-46.0552
-1.26275
520.025
-22.6045
-6.65678
519.132
14.7591
-8.29938
32.893
-9.99819
-475.396
61.8692
-3848.9
219.046
-379.085
742.079
415.995
-260.238
640.688
490.672
-232.886
378.356
535.394
-306.99
346.704
487.107
-145.203
104.652
446.603
-73.5883
62.6082
-103.557
-72.2127
-100.368
440.973
-53.3344
19.3737
-29.3688
-46.8613
-25.1525
437.177
-49.2836
10.8866
-63.0303
-47.4955
-61.9789
441.646
-32.5338
1.65179
-19.831
-30.462
-18.7629
447.863
-28.7485
0.0123842
-37.3784
-28.8558
-37.7229
458.328
-21.9065
-1.8204
-18.9291
-21.6858
-18.5355
472.418
-23.5072
-0.222838
-29.6785
-23.25
-29.0386
487.844
-21.51
1.89972
-21.9545
-20.2291
-19.9958
499.962
-87.7023
5.22787
510.892
-72.4245
3.85121
520.18
-56.8545
2.95295
523.565
-27.2786
-2.65384
522.144
15.1586
-6.88018
38.7482
-6.9165
208.392
-1032.56
1340.55
370.641
-569.688
109.743
502.332
-91.6702
136.927
532.239
-147.262
181.562
512.612
-212.763
164.739
119.587
-27.3569
87.055
124.641
107.665
111.08
-10.7024
-20.6042
-4.13668
-33.1985
107.78
-53.1325
24.5498
-9.75251
-96.1971
104.554
-63.1508
11.2118
-0.213097
-119.442
113.653
-44.9183
1.6371
-6.61196
-110.102
111.807
-35.1279
7.50041
-1.82729
-119.569
115.916
-24.3487
1.08001
3.46777
-116.086
117.278
-23.7533
-2.81353
5.37889
-124.265
123.642
-23.7224
-4.54041
3.35933
-127.302
128.514
-23.975
-2.10542
528.445
-27.1409
7.56016
-133.047
-135.145
-125.397
-126.889
-29.4197
-24.7598
-26.0539
534.386
-82.4355
9.94659
531.751
-55.4042
8.41928
525.927
-22.8514
-4.0963
514.623
25.0378
-10.0063
50.1707
-9.21277
905.829
-2485.09
-3740.84
-31.1687
-723.552
-342.57
165.726
-359.983
-518.296
199.324
-254.115
-101.502
91.0712
-300.384
30.2217
88.5401
71.8091
67.6994
-21.4292
123.665
-53.6621
15.1405
-11.9361
9.88745
-39.1651
39.9945
-9.46796
10.6871
-8.00536
-38.2412
16.7027
36.5421
-14.7771
7.77879
-3.61709
-35.7222
13.1124
34.9881
-12.3782
3.61709
-2.70465
-33.7491
9.47112
33.0877
-8.82783
2.72277
-1.1479
-33.6434
6.45369
33.172
-5.69041
0.856064
2.12161
-33.3134
6.66882
33.0151
-6.27407
-2.21805
2.92048
-34.6821
7.23394
34.5684
-7.17034
-2.87044
2.09119
-35.9742
7.47617
35.8808
-7.5761
-1.89779
-37.4791
2.85299
147.264
-29.0739
-0.0147183
-37.67
-36.4447
-36.576
563.056
-81.1676
18.3208
-148.162
-151.2
-138.224
-138.906
542.03
-34.0266
10.8419
521.698
-3.61572
3.63223
498.366
47.8316
-5.97345
67.2963
-10.93
300.563
-1172.06
-609.528
200.237
-537.635
20.4464
343.384
-329.8
184.153
372.902
-288.707
-47.0864
110.321
-296.108
42.8668
108.262
87.5352
88.8133
-5.68514
68.3755
123.067
-76.4193