/*--------------------------------*- C++ -*----------------------------------*\
  =========                 |
  \\      /  F ield         | OpenFOAM: The Open Source CFD Toolbox
   \\    /   O peration     | Website:  https://openfoam.org
    \\  /    A nd           | Version:  10
     \\/     M anipulation  |
\*---------------------------------------------------------------------------*/
FoamFile
{
    format      ascii;
    class       surfaceScalarField;
    location    "3";
    object      phi_0;
}
// * * * * * * * * * * * * * * * * * * * * * * * * * * * * * * * * * * * * * //

dimensions      [0 3 -1 0 0 0 0];

internalField   nonuniform List<scalar> 
38556
(
-481.133
5008.67
-4056.96
-229.933
525.11
-776.31
152.771
-474.955
92.2514
336.059
-311.661
128.374
355.02
-268.191
249.23
432.374
-284.775
207.421
517.166
-256.38
171.587
611.951
-228.329
133.544
707.129
-195.708
100.53
791.429
-158.417
74.1171
865.032
-129.811
56.2083
933.521
-104.163
35.6751
992.18
-86.2872
27.6284
1054.05
-69.772
7.90407
1113.11
-62.2732
3.21428
1180.11
-59.0586
-7.94613
1250.95
-54.1835
-16.6597
1307.76
-38.1508
-18.6521
1345.09
-21.3068
-16.0244
-9.59388
-5.89324
3868.08
241.926
-8545.16
675.963
1085.59
2631.64
-14.5371
-187.783
403.328
-193.947
-249.719
117.467
111.904
-468.637
-105.405
177.672
-365.473
14.9296
343.503
-433.37
11.1593
426.103
-325.974
15.0453
521.473
-304.117
13.0393
581.106
-219.454
1.40341
638.634
-182.245
-5.09422
683.905
-131.992
-17.4418
727.156
-109.103
-20.4357
767.82
-80.9792
-29.4564
804.516
-69.0991
-29.8701
837.201
-55.6062
-36.1382
867.185
-52.0377
-32.1296
890.814
-42.6657
-19.1137
904.355
-37.1342
2.28571
-26.7673
11.6157
408.59
-2112.98
225.883
265.069
340.865
888.247
443.67
7.45485
-373.84
424.144
-167.371
-62.8217
470.486
-450.937
-64.0411
513.719
-400.447
-8.25856
531.881
-495.656
44.1244
553.665
-382.13
34.371
573.644
-370.446
46.3501
592.101
-260.03
22.1191
618.146
-224.973
16.6833
642.005
-163.452
7.6001
668.331
-147.178
11.7489
693.432
-120.809
14.728
716.32
-112.976
20.9893
737.249
-97.048
20.5127
753.808
-90.4783
21.8809
766.68
-73.9627
18.4258
770.523
-49.705
8.72681
-20.0833
-4.03543
-1086.92
-591.468
3580.08
-505.982
-181.969
-58.1071
311.428
-406.437
-403.518
395.484
-291.21
39.7838
569.165
-632.43
7.81178
689.581
-492.885
-27.9779
711.785
-585.188
67.3278
727.405
-442.103
44.3524
702.832
-423.782
77.909
681.37
-291.212
52.6439
660.044
-248.879
45.2328
647.691
-175.001
23.9017
645.932
-164.03
18.612
649.325
-136.715
12.5127
658.05
-132.818
11.1167
669.894
-120.368
11.4765
683.353
-117.071
13.1333
703.382
-102.814
8.82251
718.998
-74.1397
8.81814
-23.9608
0.0855062
3084.38
1550.62
-1271.03
2285.51
479.702
137.201
1500.01
8.94334
370.115
1272.79
-212.402
148.417
1050.34
-509.874
99.8962
1001.22
-462.434
18.6597
917.802
-559.325
57.56
877.926
-425.473
23.2462
811.552
-408.759
51.351
766.452
-282.508
36.3967
715.099
-238.832
41.3057
677.19
-162.283
25.1911
652.443
-159.741
20.457
641.532
-135.358
9.55467
641.494
-139.406
6.62712
649.048
-130.788
2.86564
660.822
-129.91
1.06477
681.915
-116.757
-7.15042
699.75
-85.3042
-6.67039
-17.4541
-9.95748
596.3
1841.14
-1091.96
538.968
808.195
-271.16
755.499
18.5357
-226.124
800.666
-229.333
-28.2358
755.846
-513.536
48.4823
762.728
-462.834
-6.48281
769.869
-604.02
37.5532
766.775
-421.792
-0.586623
758.635
-409.953
9.33443
751.486
-268.704
-6.65563
727.844
-225.176
9.98595
689.32
-136.665
12.9054
649.124
-137.078
17.5344
622.818
-118.242
9.18892
619.912
-134.229
-2.27164
627.95
-135.49
-3.33537
641.196
-137.871
-5.28504
661.357
-126.053
-10.8662
677.004
-91.9747
-8.97645
-12.6728
-8.97572
2064.77
187.95
-2364.64
2101.51
67.7531
703.695
1822.83
-335.846
633.06
1551.24
-351.117
393.38
1122.69
-477.707
392.719
903.123
-390.898
147.631
771.976
-114.077
60.7821
-151.56
-115.946
-152.071
732.342
-110.218
10.4879
-94.4276
-104.528
-83.4725
687.903
-88.1723
1.65104
-102.839
-79.8235
-96.3308
657.753
-67.2088
-7.36409
-55.9514
-59.3752
-48.6541
626.198
-41.5045
-5.99148
-54.0459
-38.8114
-53.2678
611.28
-27.2382
-7.95955
-29.1001
-27.1172
-30.3323
606.528
-23.1109
-4.82932
-39.3982
-24.7241
-40.2644
614.196
-26.6415
-3.50746
-34.2271
-26.4872
-35.0462
627.843
-146.518
-1.35685
643.94
-148.519
-3.06876
659.171
-151.215
-1.88649
674.149
-136.45
-4.58085
685.39
-96.8162
-6.39945
-10.5944
-4.37888
1502.14
-45.0455
1571.73
1819.01
-288.855
39.7319
1406.88
-459.735
536.024
1238.68
-504.995
322.074
1041.03
-505.585
225.526
225.389
-92.7555
112.189
231.819
220.391
235.117
-82.1067
-104.208
-95.6995
195.444
-98.3508
14.2192
-164.529
171.714
-118.644
1.24157
-183.444
186.917
-90.224
-1.42078
-178.448
177.518
-71.207
4.92841
-169.41
158.955
-35.3791
4.32922
-143.462
142.673
-25.5789
-0.870573
-142.29
146.033
-23.4294
-3.42394
-146.681
154.977
-32.4139
-2.5239
672.951
-36.7196
-12.8682
-159.453
-166.05
-153.48
-157.908
-48.2089
-36.7775
-48.0039
692.472
-165.422
-2.61804
695.545
-155.732
1.4438
699.027
-134.366
-5.56508
697.705
-85.05
-10.4444
-0.231553
-5.26702
-151.998
58.1222
2685.52
412.425
-47.1333
-806.144
839.558
-713.654
-173.215
1145.18
-679.777
-130.837
272.591
-663.311
112.86
293.554
307.912
315.987
276.434
-119.69
23.0916
21.7391
-69.8109
68.1175
-23.1049
3.05928
-58.2074
27.22
56.8119
-23.5273
-2.29713
-51.9895
23.8972
52.0484
-24.5765
0.620393
-49.0684
16.802
48.9448
-17.4673
0.788785
-43.9182
6.8131
42.9015
-6.99601
1.19965
-37.6737
3.65665
37.9171
-3.42844
-0.471654
-38.0821
4.3729
39.4999
-4.87778
-0.912909
-41.4058
7.19716
42.9024
-7.89622
-0.797582
-44.8131
186.984
-40.0017
-3.69374
-45.9132
-44.2347
-45.0468
778.651
-175.494
-10.0076
-189.291
-197.726
-182.111
-189.443
762.38
-144.711
5.2502
738.383
-113.644
3.2754
706.462
-48.4947
-4.63411
31.3001
-7.24519
1927.25
433.391
565.839
1898.62
-27.3323
8.82443
1485.48
-505.13
204.62
1475.34
-620.677
-48.9658
335.444
-591.897
86.906
276.094
365.686
339.798
147.436
325.313
-150.898
13.5928
28.5503
-73.816
69.6681
-28.2587
3.85627
20.3767
-67.2467
68.6114
-21.0416
-0.69971
20.9903
-67.4993
64.5234
-17.5182
-0.496119
16.178
-56.2308
54.5624
-14.0664
-0.443254
3.42964
-51.0993
49.7042
-2.67445
0.639855
1.83267
-45.6899
45.3391
-0.923341
-0.558504
5.66446
-46.734
47.3547
-5.44601
-0.839165
8.6416
-48.7288
49.1785
-8.49236
-0.598986
-51.0807
43.325
209.626
-44.7213
-3.15666
-52.2054
-50.4316
-51.3553
824.824
-166.664
-16.9332
-209.592
-208.662
-199.979
-198.489
803.051
-113.786
-9.15157
765.175
-67.0824
-8.68578
713.208
10.8962
-7.4245
76.7478
-8.75929
-416.251
-598.933
-153.655
-10.8505
-89.2752
-343.458
564.307
-465.601
-614.687
743.793
-580.179
-219.984
138.899
-595.099
92.7544
151.162
171.776
192.405
121.562
124.518
-122.265
15.0831
21.8916
-27.791
26.7692
-23.972
3.10221
22.8528
-32.5625
34.9932
-26.0233
0.739847
19.6164
-41.9915
43.8596
-24.3084
2.82394
12.0502
-46.5317
46.2699
-13.418
1.62951
2.8725
-47.6101
48.5918
-3.78237
-0.0718149
0.951169
-50.9951
51.4888
-2.10631
0.661449
6.15474
-52.3547
52.3537
-6.79683
0.643087
9.0165
-52.6923
52.8158
-9.51324
0.373269
-51.8533
45.9646
193.858
-44.3697
6.59041
-50.5344
-50.6389
-49.0168
669.719
-136.798
-19.8933
-180.983
-163.04
-176.586
-159.082
673.77
-76.4402
-41.3971
675.481
-28.0457
-40.7477
659.035
55.0473
-27.7054
111.626
-17.0275
1219.54
214.848
-10.4179
1575.98
-190.079
-255.639
1479.5
-421.732
52.6122
1474
-528.333
-46.3449
277.223
-500.961
157.219
299.937
316.286
329.195
133.271
259.942
-130.566
14.5766
30.3601
-62.8643
62.4741
-29.6916
-0.278268
30.0254
-60.6632
60.5601
-28.9362
-0.986104
25.5552
-60.8662
59.8022
-23.7455
-0.745624
14.9567
-51.8672
49.2706
-13.6556
1.2955
8.85828
-45.5853
45.5263
-9.87573
1.07646
7.86001
-45.6511
45.7512
-8.86316
0.902977
9.05353
-44.7965
44.4693
-9.22859
0.502283
9.90412
-43.0773
42.6592
-9.93559
0.449636
-40.5552
40.6913
154.063
-38.4498
2.87597
-39.6488
-40.1464
-38.8298
563.438
-114.374
-14.4529
-145
-144.34
-141.846
-140.223
580.717
-59.4378
-34.2815
615.39
-26.681
-36.0379
637.01
59.266
-25.839
121.218
-16.2481
1522.8
-1058.23
-876.092
2136.5
-773.671
-30.1132
2143.35
-648.229
219.645
1963.01
-465.335
117.342
1570
-232.435
124.486
333.786
-345.932
36.2449
130.391
143.96
137.671
139.821
335.04
327.903
331.118
31.0781
321.037
-97.9575
-3.36277
23.7755
32.3491
26.8665
24.8332
-285.454
237.476
-59.6746
13.3136
22.3331
25.0596
22.1125
20.3302
-202.851
187.928
-64.0265
8.207
15.0368
20.2811
15.0941
12.7671
-163.368
152.483
-39.0938
6.23076
9.33757
12.5623
9.08112
11.6493
-152.235
155.85
-43.3888
0.868883
7.99741
11.4076
7.8506
10.5238
-150.278
151.808
-37.3534
0.229216
7.42309
10.3622
7.28523
11.2856
-153.173
157.071
-41.9442
-0.0775003
7.89557
11.1285
7.81472
11.238
-152.913
151.922
-38.5932
1.2938
7.97296
11.1564
7.92335
561.973
-122.978
11.1521
38.8691
24.6848
36.6549
22.8824
-146.292
-146.717
-138.87
-141.358
551.274
-106.557
2.88192
559.327
-59.8119
-7.67928
587.715
-38.0733
-16.9957
627.76
34.0481
-14.8269
102.668
-10.3853
1625.63
-1945.94
-2722.76
1735.91
-914.622
30.6669
1811.06
-565.818
-157.555
1710.09
-456.464
92.0966
1424.47
-231.399
284.587
1172.6
-285.573
191.511
953.093
-94.2308
121.838
68.3837
22.9083
76.0868
24.5171
815.546
-157.401
91.6173
42.9484
55.6645
45.2407
59.478
713.81
-84.6291
44.0665
51.3105
20.6346
52.0863
18.2664
658.932
-143.131
30.2676
40.2646
43.7389
39.9069
43.8312
633.54
-122.746
11.7931
44.7923
24.4718
43.9608
23.12
620.452
-155.505
7.27456
42.4292
38.8544
41.9291
38.1067
610.585
-139.075
4.89291
44.6046
29.0521
43.1706
27.2218
600.165
-141.645
7.09806
41.716
32.2027
40.0774
30.9703
585.586
-116.338
7.93897
565.381
-96.3268
9.97445
560.235
-60.4392
5.77294
565.931
-43.4664
-0.302748
605.408
-0.623034
-4.80624
56.6414
4.5526
976.928
-344.49
117.043
1412.43
-313.547
-1036.58
1562.04
-389.065
-326.359
1768.53
-411.53
-251.422
1721.02
-213.623
29.7246
1560.79
-184.791
59.4495
1236.76
15.8565
213.944
975.587
-28.0443
131.817
832.027
-2.14029
61.0711
739.785
-60.8156
9.92625
697.225
-73.034
-7.15273
664.7
-113.333
-9.64599
642.264
-113.013
-3.62663
621.639
-119.223
-1.79596
598.002
-95.9441
3.24295
574.344
-76.9241
4.25458
561.414
-50.2748
2.76566
551.779
-37.9799
4.14814
565.365
-18.7692
4.56072
11.0094
20.5978
690.457
-669.581
151.44
1074.42
-166.307
-531.2
1195.99
-180.306
-330.332
1215.99
-201.943
-229.586
1035.42
-37.2544
4.19652
885.681
-5.77965
-29.2682
775.388
90.841
35.3082
737.779
15.1366
-5.57123
735.088
13.3297
-12.7797
731.255
-28.8186
-28.1634
723.471
-39.4925
-25.7576
699.839
-68.0448
-21.6571
670.712
-80.3402
-3.54529
641.897
-90.4088
0.000609679
618.286
-78.0316
5.69805
600.869
-61.6309
2.12406
594.029
-44.5724
1.13762
588.515
-33.4974
1.03128
592.836
-27.0418
3.95114
-9.77817
9.80491
-67.7507
53.4187
-9.14791
157.565
279.118
-670.741
529.982
-7.6583
-545.064
475.352
-51.7351
-95.5787
567.258
-55.8858
-73.274
574.523
-2.16302
-10.8817
670.2
9.24887
-14.0853
704.004
1.04164
-19.7092
764.083
-16.3941
-30.355
801.807
-39.1381
-27.4046
831.759
-54.9549
-14.4892
827.952
-61.9677
-2.26977
785.648
-56.5639
18.527
721.934
-47.8335
21.1392
663.264
-32.4204
13.0591
626.743
-22.8781
-2.23195
610.951
-18.3264
-10.4549
601.785
-12.4735
-11.8573
600.992
-15.2936
-10.9557
-8.67085
-6.8203
977.871
1035.45
-1222.32
660.791
733.143
-136.944
859.257
111.995
-318.119
907.936
-9.80066
-90.6137
879.132
-14.9329
-12.1481
849.772
58.5227
-31.3257
854.903
17.0305
-12.913
879.496
-1.70655
-21.8442
914.146
-40.9512
-10.0938
942.229
-61.465
-5.7556
955.777
-71.6099
3.10669
949.318
-61.5117
6.00297
904.329
-26.9303
15.355
838.555
-1.30296
19.2436
768.277
22.4869
15.3706
719.533
28.8284
-2.96226
697.147
20.1941
-16.1345
684.84
19.8579
-20.0242
687.655
3.86769
-21.9765
-0.0194178
-17.7592
2865.63
1690.63
-1109.29
2392.65
846.067
360.053
1681.1
626.922
196.626
1369.42
295.418
6.45837
1114.23
203.41
36.8566
952.605
185.669
34.4743
853.512
100.951
15.1721
812.562
83.9807
-44.7376
825.164
11.2616
-64.8146
849.198
-22.272
-63.227
879.369
-58.7748
-43.0064
896.148
-44.8228
-33.4674
898.503
-17.2607
-12.0243
884.44
10.7329
2.02678
860.495
34.235
12.1971
833.325
47.34
8.6584
804.939
47.0194
1.56059
782.118
47.1003
-4.42174
763.047
38.2739
-15.3357
34.8856
-25.1103
215.078
738.864
645.684
415.461
1387.67
-115.064
1743.3
-60.2138
1824.13
122.58
1757.11
252.691
1603.84
254.217
1509.18
178.644
1411.67
108.776
1313.5
75.8943
1227.93
26.7909
1179.44
3.6665
1155.98
6.20246
1152.36
14.353
1162.3
24.2941
1181.93
27.7135
1200.5
28.4513
1213.74
33.8579
1221.69
30.3225
29.4057
309.072
-361.375
-8966.18
-767.242
-101.329
401.333
176.272
-494.691
-356.571
227.956
-184.522
261.212
326.469
-162.932
313.649
421.898
-173.576
285.568
517.935
-147.974
223.525
618.62
-135.864
168.723
713.13
-119.541
125.559
797.231
-98.9858
89.0027
867.918
-82.6852
68.2061
933.278
-67.6007
37.9157
986.342
-55.5555
30.1199
1037.43
-45.1494
1.96163
1082.36
-37.1762
-4.53857
1124.11
-27.4537
-22.2363
1154.3
-18.6937
-28.1601
1167.59
-11.12
-20.8206
1174.17
-11.0143
-11.5872
-10.084
-1.38406
-1300.61
-2177.44
-4002.37
-738.248
-159.299
2127.25
-428.56
-386.407
-14.6433
-307.539
-217.363
29.2873
7.66266
-382.112
-201.427
84.0917
-252.164
17.089
273.88
-318.331
-8.27264
363.641
-214.662
4.0824
464.003
-210.094
3.22996
522.724
-145.309
-10.9941
580.1
-126.442
-18.7133
621.493
-91.4552
-34.9809
659.797
-77.1945
-37.1007
690.461
-60.0821
-45.1868
716.892
-52.0228
-41.4548
738.78
-43.0718
-42.4082
756.943
-37.8012
-31.1851
771.812
-29.3937
-15.7093
781.862
-21.366
2.58712
-10.1859
6.34134
732.061
-4.94903
362.387
612.431
246.938
601.641
210.817
-67.7442
-290.889
192.576
-206.237
-55.7074
252.709
-432.428
-73.8572
292.94
-314.101
13.4471
365.779
-403.208
56.1621
403.159
-261.876
44.205
456.022
-268.826
52.2197
485.734
-174.571
21.6696
522.308
-164.518
18.1849
549.453
-116.618
5.61785
579.722
-107.484
11.7692
605.069
-82.9683
12.2675
627.771
-74.0197
20.2836
644.993
-57.6123
17.8317
656.798
-47.4456
19.7196
662.165
-32.4817
16.1468
655.917
-12.4633
6.07217
3.31101
-9.52041
-1093.79
1746.26
3527.13
-705.81
76.5422
-275.696
-182.594
-462.187
-532.291
-18.2966
-382.131
51.3802
253.574
-672.526
-23.9602
340.499
-423.848
-5.15588
425.68
-511.86
90.7988
465.055
-311.75
54.8508
497.562
-313.109
89.6849
507.838
-187.73
55.5267
521.425
-181.55
48.6781
528.484
-123.268
23.4929
542.063
-121.907
19.4567
554.284
-94.0934
11.4162
568.212
-87.8918
11.0607
581.78
-69.6751
9.9718
593.766
-58.7156
12.4169
603.246
-40.4266
7.28714
603.561
-9.80991
5.84984
13.0963
-5.08712
1231.02
2091.76
-4479.29
1295.51
468.583
-319.329
980.942
-78.1814
300.682
876.85
-301.809
172.187
683.953
-544.545
164.811
644.289
-405.699
40.1751
607.679
-496.614
78.924
595.185
-303.008
26.9976
576.088
-303.545
60.8842
560.929
-173.808
37.6326
546.757
-171.645
45.5726
537.016
-113.613
25.2773
535.508
-121.86
21.9176
538.594
-98.0587
10.4342
547.024
-97.9629
8.26742
558.833
-81.6154
2.99758
570.662
-71.1875
1.70768
580.967
-50.1866
-7.69541
581.724
-8.72041
-8.51687
22.5212
-13.3957
1126.98
-334.163
-5999.97
414.178
190.499
719.73
502.729
-223.138
-169.718
514.862
-363.414
21.2366
486.185
-543.369
75.9832
497.694
-421.247
-2.4437
534.154
-541.503
45.9822
533.528
-301.88
-1.08904
541.137
-316.053
14.2336
537.091
-171.576
-4.84103
532.865
-171.378
13.9453
522.896
-104.336
13.5974
518.183
-118.196
18.5824
516.654
-97.0414
9.70121
522.399
-106.278
0.298592
534.719
-95.2993
-1.9713
547.735
-85.7092
-3.77916
559.807
-62.5104
-10.6145
564.817
-12.5556
-10.1516
26.5772
-11.2785
368.049
-702.837
-3024.74
933.466
-683.907
1012.68
1017.52
-518.937
844.802
946.375
-395.91
497.022
770.226
-452.637
478.136
647.826
-315.965
164.75
552.873
-98.9812
81.3819
-138.384
-96.1153
-133.671
527.577
-85.4685
19.3669
-64.5031
-77.5699
-57.9214
503.646
-66.8006
8.64748
-85.8264
-63.0514
-83.4399
494.245
-47.5133
-3.83922
-38.0392
-44.0067
-36.1406
487.435
-34.0221
-3.44275
-49.5684
-33.7882
-49.7381
490.932
-25.2009
-6.59084
-29.2145
-25.2774
-29.5095
501.1
-24.8918
-3.20867
-39.9486
-25.3347
-39.809
516.58
-24.8199
-1.4937
-33.6297
-24.0248
-32.0604
531.484
-124.85
2.3106
545.107
-113.492
1.50137
557.33
-101.161
1.34234
566.782
-72.3274
-4.21609
570.92
-14.9375
-8.15575
30.5701
-6.46593
1069.5
465.649
921.375
932.216
-589.276
82.3824
841.509
-346.683
454.477
807.548
-335.244
295.368
711.347
-365.726
234.817
160.97
-71.3971
127.001
170.61
147.164
153.032
-64.9966
-63.6638
-51.1478
-33.0477
146.712
-82.8658
31.1902
-6.22394
-124.54
131.683
-96.8575
10.4707
2.69989
-139.791
137.695
-66.9922
-0.41307
-4.33955
-127.222
129.817
-52.7754
7.00661
-3.19219
-129.534
127.395
-31.6669
2.97525
3.0532
-120.262
124.47
-29.0348
-3.4278
5.16701
-126.272
130.505
-28.7499
-5.54123
3.75489
-130.322
137.544
-31.9415
-3.85515
572.884
-33.445
-4.21768
-140.33
-144.22
-133.49
-137.165
-44.3524
-31.8581
-41.524
582.851
-132.083
6.00576
581.991
-106.311
7.45241
579.56
-70.0282
-5.43244
572.896
-6.42548
-12.2923
40.9991
-8.16161
-756.752
416.354
-1618.3
-331.203
-424.682
-1396.29
317.561
-552.171
-616.492
482.282
-444.594
-186.207
175.758
-463.062
57.5019
176.388
142.525
140.304
-35.5467
217.332
-98.4538
21.0298
-10.5415
19.9096
-62.9686
64.9113
-21.8141
10.5033
-4.19437
-55.0343
22.8757
50.7456
-21.0544
6.66178
-2.71797
-42.9548
17.9457
42.5958
-18.2683
3.39959
-1.89267
-39.0034
12.4941
38.859
-12.8336
2.37658
-1.83697
-36.4359
6.63216
36.4878
-6.55718
1.71016
1.45482
-34.3016
5.98478
34.8755
-6.22993
-1.78351
2.29303
-35.4882
6.84529
36.5891
-7.61685
-2.62238
1.95741
-37.574
8.01285
38.7273
-9.01497
-2.10858
-40.0572
5.48865
165.195
-39.6513
-4.51936
-40.8204
-39.1632
-39.9177
644.059
-141.27
6.99807
-164.442
-171.495
-155.315
-160.625
617.72
-86.9652
12.2437
591.089
-43.7399
3.61778
565.722
20.7798
-6.4714
64.4797
-10.9339
1434.48
409.309
518.787
1014.91
-317.943
321.654
736.721
-417.629
348.268
755.657
-453.574
-58.9214
214.463
-440.598
66.4642
196.331
176.517
166.324
-19.9206
111.74
236.466
-116.909
3.08692
-12.9428
25.8853
-63.3266
64.9824
-25.9611
11.3628
-4.74233
18.1703
-60.7641
59.647
-18.6145
6.30361
-3.20475
17.0003
-53.416
51.2165
-15.7242
4.12811
-0.844637
11.731
-46.4126
45.3161
-11.0769
1.28711
-1.17678
5.02368
-42.9478
42.5692
-4.61577
1.14744
1.3985
6.15028
-42.1129
42.1475
-5.96905
-1.61431
2.10743
9.22037
-43.0717
43.5059
-9.38123
-2.38086
1.78135
10.7905
-44.7832
45.1982
-10.9646
-2.02218
-46.1414
3.51272
44.5165
184.507
-45.5191
-3.17988
-46.8864
-45.081
-45.7282
681.105
-126.838
-9.5672
-181.896
-180.49
-170.706
-169.81
638.301
-46.6588
-6.65404
595.017
-2.25232
-6.889
557.173
60.2416
-9.04235
90.6335
-11.2786
-424.31
-407.046
-1570.55
-89.8311
-370.498
-625.382
191.522
-498.229
-815.439
301.812
-571.914
-211.934
105.374
-538.762
83.2924
114.987
92.5856
96.4918
-14.8205
106.904
120.795
-112.781
5.27673
-4.65368
22.3436
-32.9016
34.4481
-23.0455
3.80903
-1.80696
20.5723
-36.6444
37.6812
-22.0617
2.25961
-6.74853
16.4953
-41.2756
42.3143
-17.9691
7.18367
-3.64632
10.7873
-43.5028
43.4333
-10.9933
3.92174
-1.12139
6.44029
-43.669
44.1919
-7.02516
1.18336
-1.68814
7.00648
-46.1521
46.7141
-7.44039
1.55996
-0.954317
9.51021
-47.3645
47.3559
-9.39228
0.844984
-0.613702
10.7619
-46.9315
46.6717
-10.5111
0.622628
-45.1605
-8.08445
44.0693
170.904
-39.5262
7.36782
-43.3828
-43.8629
-42.3237
597.365
-98.2239
-29.061
-164.919
-150.813
-155.962
-145.117
577.73
-23.1101
-45.3114
555.348
17.3256
-37.9435
534.303
79.8706
-26.2894
102.387
-17.5966
-348.939
951.912
-183.141
87.25
-285.95
-776.375
654.875
-633.135
-380.107
786.891
-707.057
-43.2181
193.839
-561.889
199.422
215.518
163.958
194.5
-31.2555
128.71
204.974
-136.785
28.1956
-7.51213
29.8388
-53.6132
55.8212
-31.8672
7.33254
-4.17246
26.8963
-54.6867
53.7631
-27.1926
5.39234
-3.65485
19.7603
-49.0837
47.1141
-18.99
4.85422
-4.00636
10.8673
-42.6787
41.9404
-10.6043
4.48169
-2.75357
8.20283
-40.9557
41.0233
-8.4983
2.98139
-1.82182
8.09029
-40.9548
40.9815
-8.17998
1.88486
-1.07342
8.90203
-40.4359
40.2502
-8.76334
1.12041
-1.00912
9.45362
-39.0771
38.7099
-9.14405
1.06678
-36.8309
-3.80887
34.868
140.473
-32.1554
3.74498
-35.4151
-36.0969
-34.7791
514.927
-85.6669
-22.3089
-133.992
-130.421
-129.288
-125.927
521.965
-27.8565
-36.5734
531.99
5.00625
-33.743
536.92
72.9988
-23.8973
97.3124
-15.154
1504.85
1196.06
-3231.37
1836.2
403.588
-1051.01
2032.48
-91.0343
-518.729
1815.38
-318.587
-54.0281
1329.6
-242.362
290.733
259.574
-373.136
144.575
141.547
148.351
140.226
150.214
263.647
243.261
247.588
32.3848
-7.79376
243.243
-105.68
11.7876
26.635
32.5404
26.4567
23.2584
-31.3651
-198.224
163.71
-58.2206
38.4329
19.9738
22.8542
19.5802
18.0889
-16.2227
-153.912
149.034
-60.3952
19.4082
13.3892
17.6085
13.0016
11.0038
-9.8812
-132.308
129.113
-34.8596
10.5762
7.85213
10.7767
7.72614
10.4401
-1.83439
-132.149
136.657
-39.5578
2.1747
7.01563
10.3134
6.94052
9.49642
-0.850075
-130.891
132.511
-33.6829
0.984371
6.55312
9.38883
6.49078
10.1169
-0.64674
-133.397
136.019
-36.633
0.837294
6.89933
9.99637
6.80779
9.9496
-2.26864
-130.597
129.842
-32.7123
2.498
6.81563
9.78951
6.68308
491.383
-97.6511
10.806
32.8167
18.5849
31.0837
17.0287
-125.818
-126.232
-120.227
-120.624
491.634
-80.8642
-2.17171
503.65
-37.2395
-10.3124
524.482
-13.8076
-19.0132
548.601
48.3239
-14.2716
76.741
-8.43069
3618.51
1210.73
-3320
3948.37
618.97
-514.58
2717.4
553.967
428.417
1707.33
129.63
653.949
1160.01
42.3822
547.162
852.869
-124.494
250.013
696.021
-32.2604
156.679
67.5811
15.2756
61.0151
10.3951
595.518
-143.755
112.56
47.0704
62.8533
48.1422
65.2502
543.875
-76.0118
50.8489
48.754
13.4464
47.0695
11.6021
519.506
-145.013
35.3713
39.0176
43.2403
38.9228
43.0968
513.156
-112.753
11.4034
41.0627
19.7874
40.1777
18.4658
507.788
-142.669
8.8229
39.1191
34.9659
38.3398
34.0641
504.458
-116.333
5.41298
38.6584
22.313
37.393
20.7779
498.595
-117.755
8.20901
35.773
26.6039
34.5515
25.5795
492.424
-92.0838
8.54167
484.822
-73.5671
10.2797
490.745
-42.1189
4.72936
504.411
-26.3414
-1.43573
537.061
14.1161
-3.24812
43.4427
8.08437
1800
1511.39
-2163.3
1363.42
431.063
-412.089
1169.22
131.667
290.141
1093.41
-24.2422
-21.7435
992.623
28.3715
144.527
903.697
-73.3028
97.1851
814.022
36.2612
235.098
710.553
-46.5641
138.095
645.627
-26.8923
76.8774
589.533
-93.271
14.2798
563.232
-91.575
-2.03039
541.097
-123.24
-6.94018
529.767
-107.604
-1.02556
516.514
-105.518
-0.780092
503.691
-80.4411
4.42314
491.765
-62.6563
5.26888
487.855
-38.5675
3.12496
488.339
-26.3418
3.66453
507.968
-7.37731
6.42545
14.8418
24.3543
841.544
1602.56
-760.525
719.153
150.433
-128.178
620.101
-149.636
50.0223
602.415
-161.233
-74.9094
619.259
-34.9117
50.6363
582.379
-63.0125
-2.67829
598.961
16.8969
38.0903
593.513
-48.3103
1.62276
605.711
-41.353
-10.5167
597.594
-88.4972
-24.8198
590.341
-90.7121
-19.3681
570.451
-109.179
-15.8285
554.901
-96.0978
0.498443
538.794
-91.7565
2.34558
527.042
-69.2764
6.28555
516.589
-51.5398
1.46103
513.283
-35.2234
1.09899
510.798
-23.6305
0.805281
519.204
-16.0972
4.26506
-0.261908
11.6951
216.653
1665.72
1082.04
275.348
179.247
-758.25
353.568
-163.062
-609.858
337.64
-137.463
-103.42
467.006
-127.63
-109.921
486.682
-78.7605
-14.8101
589.428
-71.4098
-28.5245
618.951
-71.0258
-26.5166
665.729
-86.0546
-32.4313
679.845
-102.747
-27.2708
686.911
-103.82
-8.44728
669.904
-98.869
4.4279
643.36
-72.7803
21.7536
610.845
-57.9739
19.8714
579.812
-37.9479
12.7637
555.34
-26.5007
-2.799
541.554
-19.9154
-11.9765
531.909
-12.6925
-13.1512
530.207
-12.8846
-12.4657
-4.09005
-7.80335
903.107
170.689
-187.95
900.757
510.283
-465.631
812.253
73.6606
-466.338
789.935
-80.0594
-125.699
761.186
-94.1993
-16.83
750.156
-47.8157
-51.241
770.724
-71.8884
-33.0025
787.588
-68.8079
-40.9262
806.98
-92.4313
-23.109
813.106
-97.345
-17.2847
807.574
-95.2592
0.0777761
786.701
-76.8965
4.90385
749.247
-38.7035
18.7321
709.372
-15.8966
17.0409
673.367
-0.361287
13.7891
644.524
5.42955
-6.04986
627.236
1.35604
-20.1173
616.93
2.06639
-24.4771
616.217
-7.15033
-26.998
-5.66101
-21.3288
2735.02
998.02
-485.464
2355.5
942.279
307.581
1670.83
633.671
321.279
1240.57
218.134
138.523
987.884
113.376
81.9718
886.54
89.999
-1.99692
850.343
27.4624
-47.9817
838.338
21.3516
-122.892
847.987
-29.4577
-137.438
854.899
-54.0263
-113.457
860.591
-81.2116
-62.7467
855.216
-66.9562
-38.0329
842.679
-34.1967
-3.99389
826.554
-3.23027
5.48502
811.789
17.9998
8.60166
796.724
28.7734
0.37884
779.952
30.4808
-10.7923
766.703
30.4778
-19.584
753.132
24.4418
-33.3566
21.8356
-45.1825
-222.391
1328.73
372.703
762.646
1097.37
-206.057
1394.22
-138.933
1577.5
52.6769
1622.94
297.243
1570.58
334.046
1528.1
242.473
1455.98
151.444
1383.46
94.3826
1298.07
30.9669
1231.27
3.51224
1185.04
18.2383
1163.1
33.062
1163.9
41.4903
1177.55
42.84
1194.54
41.9379
1210.8
48.0759
1221.92
43.6511
44.5194
-1028.44
-1241.76
-7713.96
-196.047
-768.594
337.531
153.655
-504.163
-202.111
279.45
-125.502
260.919
334.558
-72.4024
330.943
440.561
-69.3575
248.922
531.63
-58.6505
191.106
630.333
-65.2013
135.221
715.622
-63.7991
104.07
793.218
-55.5903
66.9969
856.311
-46.7511
51.8646
911.356
-37.6864
20.5566
952.613
-26.5507
15.413
984.056
-20.3734
-9.10804
1002.95
-11.8377
-11.591
1010.3
-6.94397
-22.6476
1009.9
-4.3435
-23.4103
1007.23
-2.79818
-15.3614
1006.38
-5.97562
-4.75259
-5.44271
0.688773
-601.754
-1808.73
-3297.74
-366.301
-469.267
1592.47
-299.325
-425.955
-159.828
-261.319
-174.586
40.3658
-61.4456
-286.771
-186.932
34.6692
-168.034
19.6507
216.637
-235.827
-13.0637
304.424
-142.227
-6.67841
403.048
-153.406
-5.78854
456.009
-101.186
-18.3587
509.063
-94.3564
-24.1623
542.8
-67.0631
-39.3413
574.776
-58.2714
-37.3563
597.174
-45.5392
-42.4193
617.078
-39.2834
-33.9126
630.773
-31.9145
-31.1326
641.107
-27.183
-18.6794
649.041
-19.3996
-7.04264
654.043
-11.6933
3.30304
-0.883194
-0.932957
385.427
-518.141
-3694.43
503.059
-25.1338
39.8754
111.987
-80.9979
-244.773
93.8058
-180.785
-31.3269
120.451
-345.032
-42.2411
165.127
-219.391
20.1276
257.112
-314.981
43.3308
298.665
-176.188
36.6126
363.012
-205.197
39.6642
393.449
-124.183
14.2302
433.245
-129.889
13.9214
458.195
-88.0357
1.64086
487.119
-83.9402
8.51338
507.866
-60.9243
6.90606
527.336
-52.4958
14.0253
539.457
-37.6339
11.4308
546.783
-27.4508
12.6604
548.905
-14.3785
9.00361
541.638
-0.457733
2.10413
9.88374
-11.2907
-1070.31
141.665
1237.01
-554.829
-203.933
-612.378
-396.3
-544.124
-227.693
-213.336
-383.292
70.9228
61.0355
-609.724
-33.6403
125.377
-322.543
33.6544
248.711
-427.77
80.2541
294.695
-211.882
44.5615
357.649
-245.047
66.5802
381.08
-130.532
38.444
411.957
-146.683
34.5946
426.625
-94.0209
14.8107
447.02
-98.6098
13.7308
460.986
-70.2259
6.75149
475.754
-63.9903
7.7876
486.806
-44.797
6.0827
495.145
-31.2263
7.85372
498.877
-14.3161
3.49277
494.271
8.15684
1.84105
20.1311
-7.92081
1242.73
-27.6654
-3310.66
957.854
-42.073
-196.312
580.645
-251.177
384.944
519.683
-315.871
165.728
419.238
-492.928
148.461
401.023
-307.259
43.1061
406.988
-422.206
67.3948
407.146
-207.48
22.4379
416.482
-242.761
49.2619
417.362
-119.766
25.987
425.151
-142.853
33.9543
428.905
-89.1245
16.6263
439.136
-103.091
16.1676
448.312
-76.1731
7.20549
460.136
-74.4865
6.93984
471.348
-54.9576
1.94559
480.549
-40.1628
1.44373
483.693
-19.039
-6.11644
477.991
12.8387
-7.49639
27.9227
-12.468
95.7995
-557.752
-3805.07
461.064
-238.547
550.94
256.364
-368.098
151.903
295.578
-393.539
59.6901
289.572
-494.824
83.8846
305.986
-331.092
4.97679
367.849
-476.112
38.0244
369.811
-211.899
1.36825
393.211
-266.416
14.4881
396.332
-125.659
-2.06907
406.922
-152.617
13.1194
410.913
-89.5855
10.0675
421.003
-108.611
14.013
428.5
-81.0727
7.10324
438.295
-85.9699
1.98756
451.681
-69.4706
-0.844138
463.101
-53.8212
-1.54115
468.501
-27.7644
-7.28869
467.831
11.8551
-8.49887
31.2246
-10.3021
-450.374
3.62599
-3531.55
131.758
-528.513
720.517
318.446
-418.029
708.045
407.189
-373.128
387.868
464.377
-419.254
345.379
417.508
-230.791
111.318
382.107
-87.16
60.665
-125.213
-85.7184
-121.903
377.725
-63.6584
18.3745
-45.1665
-57.1507
-40.549
376.909
-56.7616
10.3331
-78.3334
-54.9579
-77.2316
382.811
-38.0372
0.282155
-31.4432
-35.9444
-30.2587
390.966
-32.524
-0.957157
-48.89
-32.6226
-49.2206
402.823
-24.3384
-2.71962
-28.6373
-24.1275
-28.2105
418.741
-24.8878
-0.769978
-39.0659
-24.6312
-38.3831
434.787
-21.8977
1.49321
-29.8199
-20.6076
-27.78
448.445
-102.634
5.31663
460.342
-84.0229
4.15657
470.235
-65.2648
2.89281
474.02
-32.8483
-2.91652
472.804
12.0805
-7.16531
36.9393
-7.3271
93.1907
-1119.83
1487.85
289.074
-733.164
91.1499
463.961
-264.974
126.535
488.325
-278.874
176.751
468.477
-322.672
158.082
107.268
-45.9245
92.3646
111.128
95.6189
97.8231
-31.2516
-38.807
-23.5323
-33.8483
98.5311
-69.5801
25.0056
-9.44626
-80.9199
93.5212
-77.7538
10.9404
0.186264
-104.521
103.18
-56.7927
1.18586
-6.69652
-94.7478
101.031
-45.1696
7.54575
-1.46303
-104.698
105.638
-32.6401
0.639217
3.74374
-101.015
106.912
-30.95
-3.02895
5.46739
-109.547
113.693
-29.9389
-4.56214
3.33021
-112.782
118.946
-29.368
-2.02428
480.12
-27.6474
7.84612
-120.125
-123.312
-112.445
-115.004
-37.2723
-25.2248
-33.7872
486.507
-94.597
10.1929
484.205
-64.2905
8.78011
478.356
-28.4768
-3.95453
467.393
21.3263
-10.5746
48.1854
-9.4143
886.812
-2826.18
-3181.19
-6.11134
-921.443
-315.083
154.488
-493.555
-548.511
183.963
-369.806
-124.75
86.0742
-396.832
20.6386
81.3188
66.7644
60.8295
-21.6445
120.67
-73.8333
14.957
-12.0986
13.1794
-37.7197
39.1117
-13.3328
10.8599
-7.99814
-35.7534
19.333
34.985
-18.3372
7.77066
-3.62044
-33.1124
15.0379
33.3362
-15.248
3.60669
-2.70719
-30.97
10.9085
31.2925
-11.2391
2.7152
-0.97041
-30.8238
7.45462
31.3567
-7.68036
0.663288
2.29553
-30.3981
7.39224
31.1118
-8.02522
-2.3763
2.93268
-31.7832
7.69412
32.7231
-8.68783
-2.87888
2.08678
-33.0538
7.70855
33.9996
-8.85388
-1.8872
-34.4419
2.97218
139.648
-33.6485
0.0404152
-34.9506
-33.4115
-33.8558
518.564
-93.883
19.6079
-136.574
-140.528
-126.611
-128.175
496.903
-42.3923
12.0071
475.952
-6.66325
2.75512
453.322
43.6739
-6.18854
65.2899
-10.8689
339.848
-1121.78
247.079
217.899
-678.998
201.157
347.742
-479.216
204.087
369.35
-397.415
-52.9217
108.601
-384.759
40.1928
103.996
85.9962
84.9555
-6.25523
89.1649