/*--------------------------------*- C++ -*----------------------------------*\
  =========                 |
  \\      /  F ield         | OpenFOAM: The Open Source CFD Toolbox
   \\    /   O peration     | Website:  https://openfoam.org
    \\  /    A nd           | Version:  10
     \\/     M anipulation  |
\*---------------------------------------------------------------------------*/
FoamFile
{
    format      ascii;
    class       volScalarField;
    location    "3";
    object      turbidity_0;
}
// * * * * * * * * * * * * * * * * * * * * * * * * * * * * * * * * * * * * * //

dimensions      [0 0 0 0 0 0 0];

internalField   nonuniform List<scalar> 
12920
(
-0.0217053
-0.0665074
-0.104401
-0.131278
-0.156334
-0.187706
-0.216435
-0.241103
-0.262229
-0.279732
-0.294309
-0.306461
-0.316817
-0.324946
-0.330873
-0.333493
-0.335433
-0.339273
-0.346301
-0.357379
-0.070485
-0.0849548
-0.0917588
-0.133771
-0.14922
-0.191646
-0.221463
-0.251716
-0.28055
-0.304211
-0.3211
-0.328718
-0.333985
-0.336957
-0.343778
-0.35584
-0.377659
-0.406981
-0.436892
-0.462162
-0.0467682
-0.0690787
-0.0763238
-0.107647
-0.12703
-0.158493
-0.186616
-0.221673
-0.258963
-0.300854
-0.341128
-0.377814
-0.408797
-0.434391
-0.45543
-0.47348
-0.489746
-0.50522
-0.519283
-0.527302
-0.04017
-0.052238
-0.063118
-0.0882934
-0.108649
-0.132465
-0.157106
-0.188181
-0.223794
-0.268501
-0.315055
-0.359628
-0.395736
-0.423392
-0.443257
-0.458896
-0.473133
-0.490008
-0.513642
-0.543239
-0.0169532
-0.0464171
-0.0645263
-0.0777651
-0.0966636
-0.119096
-0.143345
-0.170188
-0.201344
-0.241114
-0.285327
-0.330251
-0.365358
-0.389323
-0.40246
-0.410932
-0.419054
-0.430292
-0.45473
-0.490792
-0.0523115
-0.062192
-0.0622434
-0.078648
-0.104064
-0.130348
-0.152036
-0.172674
-0.196138
-0.226641
-0.261608
-0.298517
-0.326691
-0.342703
-0.344543
-0.343976
-0.348209
-0.362996
-0.396131
-0.445873
-0.051139
-0.0435693
-0.0411628
-0.0565039
-0.0881912
-0.124615
-0.146688
-0.16429
-0.181783
-0.212801
-0.244274
-0.273055
-0.277772
-0.268775
-0.256037
-0.253485
-0.263806
-0.287339
-0.329955
-0.392638
-0.0125731
-0.026516
-0.0458097
-0.0722676
-0.0969773
-0.121098
-0.126721
-0.128538
-0.128993
-0.134914
-0.151749
-0.162935
-0.150196
-0.125028
-0.101002
-0.132141
-0.167736
-0.206791
-0.256022
-0.321868
-0.0115734
-0.03278
-0.0501788
-0.0639555
-0.079932
-0.0819035
-0.0909467
-0.111998
-0.122835
-0.120034
-0.123368
-0.129118
-0.112446
-0.0937733
-0.0823581
-0.105105
-0.142334
-0.182927
-0.230887
-0.293108
-0.0103354
-0.0243142
-0.0427322
-0.0627846
-0.0847108
-0.0864032
-0.0897497
-0.103351
-0.123112
-0.131422
-0.122653
-0.11553
-0.107029
-0.0961738
-0.0970147
-0.132587
-0.162301
-0.194766
-0.23555
-0.290673
-0.0267892
-0.0366547
-0.05231
-0.0780202
-0.116393
-0.136872
-0.155299
-0.149355
-0.148018
-0.138999
-0.122138
-0.11335
-0.106721
-0.104206
-0.128147
-0.172952
-0.193111
-0.217308
-0.25152
-0.2984
-0.0130409
-0.0274462
-0.0424247
-0.0598714
-0.081789
-0.0890122
-0.101182
-0.119039
-0.137288
-0.150642
-0.151751
-0.146296
-0.147791
-0.159471
-0.202638
-0.243405
-0.243843
-0.250501
-0.270762
-0.305708
-0.0219076
-0.0295729
-0.0377736
-0.0520749
-0.0767682
-0.11342
-0.126124
-0.14761
-0.174973
-0.194915
-0.221198
-0.242051
-0.273915
-0.299516
-0.387199
-0.411603
-0.402738
-0.37849
-0.357937
-0.358827
-0.0293662
-0.0426798
-0.0571896
-0.0757869
-0.0990979
-0.123829
-0.157322
-0.199514
-0.250534
-0.301593
-0.351183
-0.396902
-0.443811
-0.491663
-0.538254
-0.577776
-0.597325
-0.587549
-0.542226
-0.50185
-0.0164984
-0.0297785
-0.0426624
-0.0569386
-0.0724328
-0.0931936
-0.125422
-0.174862
-0.23051
-0.275413
-0.319155
-0.365859
-0.423018
-0.48244
-0.541651
-0.596708
-0.643834
-0.676018
-0.679566
-0.65896
-0.0167394
-0.0279326
-0.0391453
-0.0612756
-0.0921569
-0.131799
-0.170302
-0.197877
-0.220531
-0.241059
-0.275895
-0.325854
-0.391608
-0.458616
-0.520321
-0.572525
-0.616366
-0.653557
-0.685763
-0.712155
-0.0144327
-0.0398731
-0.0566556
-0.0981707
-0.136669
-0.171622
-0.193272
-0.209753
-0.225426
-0.24355
-0.269973
-0.30598
-0.354121
-0.412123
-0.466203
-0.504264
-0.530494
-0.555462
-0.583662
-0.61822
-0.0118933
-0.0395236
-0.0547291
-0.082931
-0.120427
-0.157866
-0.194372
-0.221484
-0.244179
-0.26331
-0.283231
-0.307857
-0.340982
-0.382581
-0.422252
-0.446141
-0.456367
-0.462821
-0.469947
-0.484392
-0.010752
-0.0249443
-0.0432208
-0.0688572
-0.103171
-0.150302
-0.194229
-0.217958
-0.234044
-0.254167
-0.282243
-0.317129
-0.358655
-0.397797
-0.431345
-0.456718
-0.470348
-0.471055
-0.460112
-0.448198
-0.0201074
-0.0392312
-0.0511549
-0.065313
-0.083408
-0.109908
-0.139508
-0.16837
-0.192511
-0.216202
-0.242119
-0.271223
-0.302784
-0.334828
-0.363814
-0.387642
-0.405664
-0.419129
-0.429374
-0.438645
-0.042732
-0.0473591
-0.0489165
-0.0691675
-0.087743
-0.100113
-0.105345
-0.105969
-0.103642
-0.0989773
-0.093409
-0.0848978
-0.0756183
-0.0638789
-0.054228
-0.0472357
-0.0429729
-0.0412849
-0.0427958
-0.0484379
-0.0116538
-0.0454844
-0.0174937
-0.0238371
-0.0286011
-0.0457598
-0.0520602
-0.0553346
-0.0541322
-0.04808
-0.0446751
-0.0429083
-0.0437747
-0.04643
-0.051752
-0.0599414
-0.0718965
-0.0880469
-0.107643
-0.122056
-0.0271313
-0.025533
-0.0151749
-0.0213252
-0.0303445
-0.0395736
-0.0565608
-0.0619947
-0.0694912
-0.0672167
-0.0720198
-0.0801179
-0.0961525
-0.113149
-0.129404
-0.139171
-0.141785
-0.135595
-0.119902
-0.104391
-0.0587566
-0.013981
-0.0163534
-0.0256391
-0.0364377
-0.0460151
-0.0631578
-0.076752
-0.0913567
-0.0958853
-0.0972576
-0.0948394
-0.0964139
-0.101519
-0.110232
-0.121263
-0.13383
-0.144892
-0.153307
-0.155325
-0.0196149
-0.0227923
-0.024649
-0.0266988
-0.0342054
-0.0399957
-0.0511025
-0.0618791
-0.0753933
-0.0854959
-0.0888334
-0.0812674
-0.0708768
-0.0608497
-0.0560773
-0.0557388
-0.060743
-0.0713594
-0.0885259
-0.110881
-0.0222635
-0.0210348
-0.0194911
-0.025849
-0.0346173
-0.0356079
-0.0397193
-0.0405593
-0.0445372
-0.0492357
-0.0546427
-0.0550848
-0.0480855
-0.0387566
-0.0337588
-0.0360662
-0.0437516
-0.0563606
-0.0751751
-0.101904
-0.0115842
-0.020658
-0.0273429
-0.0373939
-0.0482318
-0.0458674
-0.0390459
-0.0333268
-0.0335086
-0.032881
-0.0292186
-0.0258127
-0.0230436
-0.0225671
-0.0251831
-0.0308439
-0.0396156
-0.0530279
-0.0741454
-0.106904
-0.00299745
-0.0147034
-0.0316862
-0.0375472
-0.0436174
-0.0437942
-0.0477469
-0.0398848
-0.0384817
-0.0485331
-0.040631
-0.0238723
-0.0157727
-0.0147748
-0.0219072
-0.0300223
-0.0394241
-0.0523308
-0.0732955
-0.105645
-0.010022
-0.00835971
-0.0149605
-0.0195097
-0.0366835
-0.047008
-0.061642
-0.0744365
-0.0708117
-0.0743529
-0.0673247
-0.0274399
-0.0130408
-0.0126283
-0.0200434
-0.0360415
-0.0444751
-0.0548168
-0.0729552
-0.100572
-0.00238563
-0.00597578
-0.0140536
-0.0219426
-0.0430369
-0.0521331
-0.0672408
-0.0785733
-0.0890919
-0.0772936
-0.0681275
-0.0437267
-0.030529
-0.0278979
-0.0387128
-0.0522489
-0.055036
-0.0603955
-0.0726154
-0.0926847
-0.00188327
-0.00689629
-0.0165678
-0.035983
-0.0737573
-0.0877997
-0.0901626
-0.0877886
-0.116944
-0.109756
-0.0915798
-0.0911175
-0.0879907
-0.0842996
-0.0880731
-0.0656198
-0.0605709
-0.0607431
-0.0680743
-0.0812663
-0.00241823
-0.00681989
-0.0121516
-0.0184899
-0.040896
-0.0558135
-0.0727834
-0.0912898
-0.111736
-0.132734
-0.132083
-0.117338
-0.0986569
-0.100669
-0.102772
-0.0620142
-0.0526533
-0.0517429
-0.0575523
-0.0669873
-0.002395
-0.00402737
-0.00779125
-0.0107252
-0.0181576
-0.0321172
-0.0441804
-0.0824811
-0.0966699
-0.0907575
-0.0698593
-0.0655281
-0.080623
-0.106667
-0.100848
-0.0860476
-0.0704163
-0.0610816
-0.0593731
-0.0639373
-0.00193796
-0.00627203
-0.0138574
-0.0297906
-0.0451173
-0.0453145
-0.0534806
-0.0601093
-0.0641437
-0.0643993
-0.0651554
-0.0718636
-0.0851213
-0.100482
-0.114546
-0.121873
-0.118667
-0.107997
-0.0984364
-0.101218
-0.00648919
-0.011192
-0.0191471
-0.0246734
-0.0343407
-0.0421854
-0.0548313
-0.0538303
-0.0499815
-0.0474769
-0.052777
-0.0598505
-0.0666788
-0.0718762
-0.0809485
-0.0907659
-0.10281
-0.121585
-0.143371
-0.170773
-0.00372351
-0.00578891
-0.0125186
-0.0192889
-0.0338944
-0.0279811
-0.0315179
-0.0292901
-0.0338975
-0.0436949
-0.0570865
-0.0682923
-0.0737513
-0.0687257
-0.0618386
-0.054949
-0.0544862
-0.0599796
-0.0749651
-0.0967265
-0.00365762
-0.0048586
-0.00735443
-0.0125046
-0.0184138
-0.0202271
-0.0237762
-0.0290214
-0.0380783
-0.0504872
-0.0688309
-0.0871742
-0.0988227
-0.0882533
-0.0635343
-0.0441247
-0.0362377
-0.0349909
-0.0367163
-0.0411622
-0.00472439
-0.00643588
-0.00814922
-0.0153542
-0.0302895
-0.0388353
-0.0440762
-0.0459292
-0.0496388
-0.0562945
-0.0694943
-0.0833608
-0.0939965
-0.0878413
-0.0681479
-0.0489205
-0.0397229
-0.0378209
-0.040155
-0.0445523
-0.0035156
-0.0103416
-0.0163045
-0.0249029
-0.0458222
-0.053751
-0.0443103
-0.0331108
-0.0312308
-0.0338201
-0.0401649
-0.0498775
-0.0634178
-0.0734743
-0.075065
-0.0671233
-0.0573702
-0.0521307
-0.0517094
-0.0549897
-0.0140547
-0.014219
-0.0208531
-0.0312718
-0.0480043
-0.0652038
-0.0795975
-0.0876363
-0.088571
-0.0808346
-0.0654226
-0.0520343
-0.0498251
-0.0570472
-0.0683285
-0.079194
-0.0886488
-0.0979583
-0.106042
-0.114697
-0.00898404
-0.0200903
-0.0262446
-0.0467674
-0.0610386
-0.0646409
-0.0607929
-0.0553104
-0.050235
-0.045343
-0.0410093
-0.0360921
-0.031758
-0.0277428
-0.0250935
-0.0236681
-0.0233806
-0.0242115
-0.0263498
-0.0297167
-0.00338576
-0.0147992
-0.00992849
-0.0150807
-0.015832
-0.019108
-0.0198999
-0.0196049
-0.0191534
-0.0187537
-0.0194245
-0.020735
-0.0229849
-0.0259551
-0.0298766
-0.034779
-0.0407885
-0.0476754
-0.0544632
-0.0587416
-0.00663176
-0.00874929
-0.0100957
-0.0131046
-0.0166078
-0.019304
-0.0247685
-0.0239538
-0.0252628
-0.0244806
-0.0270191
-0.0306204
-0.0366435
-0.0423671
-0.0477976
-0.0505331
-0.0510658
-0.0498066
-0.0480303
-0.0476407
-0.0147355
-0.00945863
-0.0121106
-0.0162962
-0.0215367
-0.0264665
-0.0338349
-0.0363788
-0.0387253
-0.0359985
-0.0348819
-0.035241
-0.0384201
-0.0433036
-0.049172
-0.0548492
-0.0598888
-0.0631488
-0.064757
-0.0653805
-0.00862592
-0.0120663
-0.0145199
-0.016278
-0.0204496
-0.0243038
-0.0290665
-0.0337916
-0.036274
-0.0349077
-0.0316842
-0.0281017
-0.0269447
-0.0281467
-0.0314069
-0.0360614
-0.0419545
-0.0488932
-0.0571797
-0.0663431
-0.00446819
-0.0135371
-0.01331
-0.0134798
-0.0158841
-0.0167983
-0.0186996
-0.0199846
-0.0204053
-0.0205487
-0.0204801
-0.0204119
-0.0209702
-0.0231474
-0.0271605
-0.0328401
-0.0400853
-0.0492251
-0.0611888
-0.0769342
-0.00675585
-0.0179712
-0.0235828
-0.0236218
-0.0239282
-0.0193331
-0.0169602
-0.0159121
-0.0148986
-0.0140956
-0.0138627
-0.0150427
-0.0172796
-0.0207092
-0.0255877
-0.0323276
-0.0413021
-0.0531878
-0.069204
-0.090255
-0.0028359
-0.0110939
-0.0186559
-0.0174051
-0.0195569
-0.0184277
-0.0188616
-0.0169837
-0.0160785
-0.0150598
-0.0124171
-0.0120726
-0.0137977
-0.0165406
-0.0234429
-0.0305592
-0.0404655
-0.0538163
-0.0710529
-0.0904257
-0.00612413
-0.0050317
-0.00721585
-0.0106997
-0.0208391
-0.0256025
-0.0319612
-0.0316085
-0.0264096
-0.023073
-0.0131869
-0.0092181
-0.0109768
-0.0148842
-0.021833
-0.0305745
-0.0396372
-0.0526279
-0.0685447
-0.0825556
-0.00233478
-0.00560156
-0.00893385
-0.014194
-0.0283127
-0.033867
-0.044271
-0.0468519
-0.0422927
-0.0296355
-0.018441
-0.0116344
-0.012826
-0.0185175
-0.0283796
-0.0333154
-0.0396719
-0.0498103
-0.0622564
-0.071633
-0.00059218
-0.00394754
-0.00957265
-0.021164
-0.0396106
-0.0406879
-0.037247
-0.0358056
-0.0381114
-0.0291323
-0.0218887
-0.0197151
-0.0224147
-0.0310265
-0.0400155
-0.0332199
-0.0370731
-0.0443196
-0.0533087
-0.0595749
-0.000826597
-0.0040899
-0.00717166
-0.0142254
-0.0307008
-0.038309
-0.044504
-0.0507701
-0.046349
-0.0401885
-0.0342489
-0.0306865
-0.0354762
-0.045294
-0.0378158
-0.0293974
-0.0324198
-0.0378091
-0.0442504
-0.0491013
-0.000267504
-0.00110276
-0.00237619
-0.00573287
-0.0130539
-0.0196899
-0.0253578
-0.0383356
-0.0343553
-0.0294651
-0.0290854
-0.0338969
-0.0401111
-0.0435425
-0.036684
-0.0353547
-0.0359258
-0.0384433
-0.0422418
-0.0462878
-0.00107316
-0.00745448
-0.0148821
-0.0191232
-0.0221226
-0.0195008
-0.0238546
-0.0251197
-0.0256867
-0.0271918
-0.0295312
-0.0324673
-0.0359891
-0.0392112
-0.0421408
-0.0442837
-0.0457136
-0.0472941
-0.0501432
-0.0559455
-0.00344366
-0.0107027
-0.0138266
-0.0121832
-0.0181008
-0.0199431
-0.0245853
-0.0235039
-0.0238677
-0.0252868
-0.0270047
-0.028088
-0.029399
-0.0309848
-0.0342821
-0.0387339
-0.0447275
-0.0529124
-0.0632116
-0.0762418
-0.00635079
-0.00612447
-0.00780561
-0.00921587
-0.0140907
-0.014393
-0.0173442
-0.0207284
-0.0245646
-0.0283697
-0.0305678
-0.0306173
-0.0293201
-0.0277756
-0.0278083
-0.0292946
-0.0322216
-0.0359996
-0.0411737
-0.047516
-0.00741892
-0.00489356
-0.00618434
-0.0100352
-0.0130086
-0.0158062
-0.0189126
-0.0226271
-0.0280687
-0.0333019
-0.038723
-0.0404557
-0.0382541
-0.032566
-0.028413
-0.027574
-0.0288469
-0.0309047
-0.0332875
-0.0358661
-0.00505641
-0.00471657
-0.00670491
-0.0122221
-0.0187962
-0.0202348
-0.0200658
-0.019965
-0.0217194
-0.0250195
-0.0301063
-0.0336151
-0.034814
-0.0323176
-0.0300635
-0.0302063
-0.0322819
-0.0351925
-0.0384894
-0.0415047
-0.0033303
-0.0077527
-0.0134998
-0.019576
-0.026141
-0.0223194
-0.0187753
-0.0163773
-0.0164883
-0.0167072
-0.0177884
-0.019938
-0.023477
-0.026612
-0.0290889
-0.0317229
-0.0354222
-0.0400303
-0.0452985
-0.0510175
-0.00866071
-0.0130103
-0.0150615
-0.0233451
-0.0368394
-0.0489081
-0.0562745
-0.0575073
-0.0531296
-0.0443839
-0.0339177
-0.0252248
-0.020938
-0.0208437
-0.0233679
-0.0271844
-0.0317922
-0.0373771
-0.043518
-0.0509937
-0.00729474
-0.0149909
-0.0224277
-0.0358992
-0.0418476
-0.0385129
-0.0329684
-0.0282079
-0.0250327
-0.0222754
-0.0200778
-0.0179586
-0.0166731
-0.0163353
-0.0170393
-0.0187277
-0.0212386
-0.0243042
-0.027539
-0.0306301
-0.0102954
-0.00791878
-0.0099447
-0.015197
-0.0139219
-0.0136026
-0.0124416
-0.0124653
-0.0131622
-0.014329
-0.0160382
-0.0181672
-0.0208334
-0.023992
-0.0276075
-0.0312111
-0.0342731
-0.0362921
-0.0370052
-0.0362867
-0.00209087
-0.00813355
-0.00976594
-0.0101393
-0.0104919
-0.0109841
-0.0123219
-0.0125123
-0.0137084
-0.0148948
-0.0169623
-0.0191244
-0.0216968
-0.0238544
-0.0258154
-0.0269211
-0.0274561
-0.0275477
-0.0274935
-0.027475
-0.0118855
-0.00883409
-0.00982308
-0.0112178
-0.0129425
-0.0143122
-0.016094
-0.0158642
-0.0163948
-0.0164502
-0.0177622
-0.0197432
-0.0224151
-0.025199
-0.0279804
-0.030173
-0.031877
-0.032983
-0.0338836
-0.0345993
-0.00508562
-0.0101949
-0.0115934
-0.011761
-0.0136052
-0.0148924
-0.015831
-0.0161852
-0.0161781
-0.0156693
-0.0161235
-0.0172987
-0.0195494
-0.0222726
-0.0255502
-0.0290091
-0.0327897
-0.0368715
-0.0414492
-0.0461544
-0.00581225
-0.0106938
-0.00919019
-0.00930493
-0.0104274
-0.0107931
-0.010968
-0.0113096
-0.0118976
-0.0129319
-0.0148348
-0.0172003
-0.0203884
-0.0240526
-0.0283838
-0.03316
-0.0386416
-0.0451577
-0.0531657
-0.0623734
-0.0076419
-0.014311
-0.0155426
-0.0131999
-0.0126911
-0.0111786
-0.0101293
-0.00989717
-0.0106884
-0.0124465
-0.0149518
-0.0180426
-0.0217108
-0.0261291
-0.0313892
-0.037372
-0.0440691
-0.0517514
-0.0607694
-0.0698182
-0.00140442
-0.00629327
-0.00980784
-0.0106069
-0.0113551
-0.010917
-0.0106799
-0.00964598
-0.00966848
-0.0107999
-0.012867
-0.0150141
-0.0175791
-0.020705
-0.0303344
-0.0371425
-0.0438514
-0.0502312
-0.0565435
-0.0605383
-0.00305869
-0.00346478
-0.00524158
-0.0079638
-0.0113931
-0.012679
-0.0135796
-0.0124617
-0.0104042
-0.00926275
-0.00993244
-0.0120348
-0.0145152
-0.0169058
-0.0214723
-0.0346893
-0.0412027
-0.045757
-0.0483564
-0.0474567
-0.00393131
-0.00492693
-0.00611204
-0.0091019
-0.0144861
-0.0163664
-0.0193397
-0.017838
-0.013778
-0.00993588
-0.00902491
-0.0115077
-0.0152192
-0.0182425
-0.0214853
-0.0325674
-0.0384023
-0.0418581
-0.042844
-0.0410841
-0.000293689
-0.00273049
-0.006468
-0.0114508
-0.0156787
-0.0158118
-0.0150591
-0.0144007
-0.0130771
-0.0112208
-0.0120878
-0.0157481
-0.020008
-0.0222894
-0.022408
-0.0298415
-0.0345159
-0.0375033
-0.0386804
-0.0382466
-0.000380725
-0.0026128
-0.00545911
-0.00996761
-0.016757
-0.019091
-0.01942
-0.0184734
-0.0159177
-0.0155199
-0.017483
-0.0210012
-0.0230665
-0.0222187
-0.0208896
-0.0262817
-0.0300382
-0.0330414
-0.0351479
-0.0364364
-0.00055002
-0.00164535
-0.00308034
-0.00565809
-0.0101579
-0.0122697
-0.0143043
-0.0174738
-0.0175192
-0.0184328
-0.019868
-0.0210972
-0.0220449
-0.022353
-0.0246983
-0.0268104
-0.0293636
-0.0321034
-0.03478
-0.0374014
-0.00123124
-0.0105007
-0.00990056
-0.00959581
-0.0111263
-0.0116118
-0.013965
-0.0155313
-0.0169721
-0.0186297
-0.0201687
-0.0220631
-0.0239138
-0.0262757
-0.0287705
-0.0316103
-0.0345274
-0.0378323
-0.0415295
-0.0463169
-0.00429827
-0.00773184
-0.00739449
-0.00721579
-0.0105596
-0.0122191
-0.0144498
-0.0154143
-0.0168046
-0.0182659
-0.0198898
-0.0217978
-0.0242125
-0.0271153
-0.0306659
-0.0347033
-0.0391931
-0.0441863
-0.0496351
-0.0555933
-0.002391
-0.00418988
-0.00594487
-0.00786144
-0.0100215
-0.011998
-0.0139286
-0.015809
-0.0175077
-0.0191661
-0.0205813
-0.0221034
-0.0239828
-0.0262693
-0.0289513
-0.0317755
-0.0346575
-0.0373855
-0.0400909
-0.0425916
-0.00265008
-0.00416108
-0.00597161
-0.00883617
-0.010598
-0.0119355
-0.013898
-0.0156206
-0.0180663
-0.0200596
-0.0222061
-0.0236429
-0.0250467
-0.0267537
-0.0291108
-0.031822
-0.0345952
-0.0373159
-0.0400384
-0.0423871
-0.00186332
-0.00510134
-0.00819087
-0.0106993
-0.0119682
-0.0114432
-0.0113075
-0.0116621
-0.0130822
-0.0152247
-0.0181426
-0.020905
-0.0237101
-0.0265709
-0.0298409
-0.033435
-0.0371163
-0.0408798
-0.0449049
-0.0490023
-0.00258475
-0.00534107
-0.0102686
-0.0138231
-0.0171051
-0.016771
-0.0161514
-0.0146768
-0.0137345
-0.0132145
-0.0139718
-0.0164258
-0.0200794
-0.0241548
-0.0283589
-0.0326872
-0.0370686
-0.0416241
-0.0462774
-0.0511422
-0.00690099
-0.00598045
-0.0045593
-0.00892397
-0.0216949
-0.034126
-0.0392902
-0.0377853
-0.0321369
-0.024597
-0.0177595
-0.01323
-0.0116233
-0.0122408
-0.0142634
-0.0172396
-0.0210902
-0.0259523
-0.0318809
-0.0392628
-0.00596435
-0.0162929
-0.0221801
-0.0245346
-0.0229674
-0.0190776
-0.0165999
-0.0146327
-0.0133003
-0.01221
-0.0122126
-0.0133207
-0.0153403
-0.0175274
-0.0193358
-0.02055
-0.0212737
-0.0217189
-0.0220245
-0.0222644
-0.0076842
-0.0091874
-0.012011
-0.0130075
-0.0116206
-0.0111427
-0.0111712
-0.0119445
-0.013246
-0.014878
-0.0165453
-0.0180663
-0.0191804
-0.0198013
-0.0199359
-0.0196444
-0.019065
-0.0182808
-0.0173161
-0.0163831
-0.00224735
-0.00694549
-0.00906149
-0.00902151
-0.00891382
-0.00967193
-0.0107583
-0.0120853
-0.0135006
-0.0147615
-0.0159713
-0.0168506
-0.0176048
-0.0179572
-0.0180611
-0.0177195
-0.0170624
-0.0161372
-0.0151109
-0.0142391
-0.00836207
-0.00649428
-0.00793675
-0.00822931
-0.00862241
-0.00966618
-0.0107872
-0.0120795
-0.0136667
-0.0151476
-0.016793
-0.0180895
-0.0192693
-0.0199323
-0.0202756
-0.0200807
-0.0195918
-0.0188614
-0.0181531
-0.0176391
-0.00532849
-0.00827895
-0.00856943
-0.00863457
-0.00898014
-0.0097094
-0.0109628
-0.0121601
-0.0140247
-0.0156783
-0.0177223
-0.0194092
-0.0210384
-0.0222406
-0.0232357
-0.0239101
-0.0244428
-0.02487
-0.0253571
-0.026053
-0.00240455
-0.00647597
-0.00745038
-0.00804639
-0.00836326
-0.00915985
-0.010853
-0.0126144
-0.0152283
-0.0173871
-0.0197151
-0.021489
-0.0229617
-0.0240059
-0.0247867
-0.0255041
-0.0262437
-0.0270562
-0.0280397
-0.0292854
-0.0127466
-0.00959228
-0.0104061
-0.00997348
-0.0093794
-0.0094159
-0.0110548
-0.0134712
-0.0164725
-0.018977
-0.0211701
-0.0227266
-0.0235485
-0.0238921
-0.0236659
-0.0233835
-0.0230265
-0.0227
-0.0226
-0.0226112
-0.00230822
-0.00522311
-0.00866837
-0.0096108
-0.00957093
-0.00961353
-0.00990643
-0.0120814
-0.0146368
-0.017277
-0.0198949
-0.0220222
-0.023706
-0.0244947
-0.019901
-0.0183558
-0.0168783
-0.0156075
-0.0148164
-0.0141056
-0.00160781
-0.00410753
-0.00650471
-0.00849051
-0.00945898
-0.00971124
-0.00969702
-0.00989976
-0.0114718
-0.0138438
-0.016367
-0.0186575
-0.0215429
-0.0243938
-0.0238119
-0.0150071
-0.0125348
-0.010477
-0.00901655
-0.007889
-0.00500543
-0.00467314
-0.00622161
-0.00840587
-0.00987124
-0.010274
-0.0103036
-0.00972811
-0.00992981
-0.011533
-0.0138451
-0.016262
-0.0195046
-0.0234205
-0.02478
-0.0173938
-0.0151564
-0.012937
-0.0108382
-0.00931503
-0.000336237
-0.00337102
-0.00635647
-0.00892884
-0.0100961
-0.0105618
-0.0107593
-0.0103814
-0.0105389
-0.0117821
-0.0134764
-0.0152735
-0.0178087
-0.0215229
-0.0262027
-0.0219161
-0.0209369
-0.019453
-0.0175564
-0.0162579
-0.000192862
-0.002282
-0.00555327
-0.00842003
-0.0103224
-0.0116407
-0.0120201
-0.0120602
-0.0126825
-0.0139643
-0.0153816
-0.0164955
-0.0180444
-0.0203046
-0.0242371
-0.0228185
-0.0226373
-0.021689
-0.0201239
-0.0188192
-0.00160039
-0.00280988
-0.00449404
-0.00677376
-0.00911125
-0.0112962
-0.0122093
-0.0151706
-0.017105
-0.0185377
-0.0203687
-0.0213788
-0.0227466
-0.0235289
-0.0255847
-0.0262554
-0.026408
-0.0263744
-0.0259602
-0.0259923
-0.00179759
-0.00584351
-0.00578944
-0.00739221
-0.0095926
-0.0122404
-0.014686
-0.0176261
-0.0199742
-0.0225123
-0.0245139
-0.0267448
-0.0286292
-0.0306842
-0.0326319
-0.0346581
-0.0365216
-0.0383572
-0.0398882
-0.0416715
-0.000886315
-0.00401672
-0.00549477
-0.00765964
-0.0103521
-0.0132538
-0.0154314
-0.0182078
-0.0207361
-0.0235177
-0.0257988
-0.027967
-0.0297631
-0.0312695
-0.0325897
-0.0335471
-0.0343758
-0.0349216
-0.0355343
-0.0361749
-0.00292696
-0.00354248
-0.00595783
-0.00881438
-0.0115274
-0.0141261
-0.0167037
-0.0193956
-0.0220531
-0.0246928
-0.0268902
-0.0288479
-0.0299718
-0.0306077
-0.0303628
-0.0295088
-0.0281095
-0.0263593
-0.024708
-0.0235949
-0.000642418
-0.00218173
-0.00466068
-0.00783899
-0.0103627
-0.012747
-0.0156978
-0.0185178
-0.0217428
-0.024869
-0.0280123
-0.0311265
-0.03388
-0.0363482
-0.0380405
-0.0390551
-0.0392402
-0.0387084
-0.0377119
-0.0363115
-0.00369754
-0.00656585
-0.00745201
-0.00825106
-0.00892728
-0.00945988
-0.0110124
-0.0135628
-0.0168926
-0.0207118
-0.0247325
-0.0290029
-0.0333851
-0.0379005
-0.042314
-0.0465198
-0.0502704
-0.0534433
-0.0557257
-0.0569578
-0.00372009
-0.00814597
-0.0117227
-0.0135322
-0.0144714
-0.0130589
-0.0117803
-0.0110049
-0.0120392
-0.0149678
-0.0185027
-0.0220663
-0.0254062
-0.0287102
-0.0321597
-0.0359612
-0.0401428
-0.0448755
-0.0500294
-0.0554643
-0.000907443
-0.00498613
-0.0118912
-0.0184431
-0.0237443
-0.0250762
-0.0227645
-0.0176804
-0.0126674
-0.0100118
-0.0103353
-0.0124026
-0.0153665
-0.0188506
-0.0226866
-0.0268107
-0.0311131
-0.0355604
-0.040228
-0.0449857
-0.0211538
-0.0285026
-0.0221571
-0.0124524
-0.00964001
-0.0125759
-0.0111639
-0.0124852
-0.0207311
-0.0179706
-0.00928015
-0.0100979
-0.0112766
-0.0132003
-0.0233143
-0.0395161
-0.0352915
-0.0131759
-0.0123742
-0.0169025
-0.0169574
-0.0198044
-0.0340528
-0.0308918
-0.0125865
-0.0144426
-0.0173843
-0.0199603
-0.106628
-0.0881924
-0.0990486
-0.0857436
-0.0994359
-0.08435
-0.0933415
-0.121733
-0.103697
-0.117988
-0.105999
-0.117718
-0.0987474
-0.116907
-0.121313
-0.122455
-0.129724
-0.118302
-0.117473
-0.122009
-0.12671
-0.120727
-0.129385
-0.122637
-0.118032
-0.121769
-0.125031
-0.118873
-0.130052
-0.120394
-0.117214
-0.120894
-0.09807
-0.116444
-0.0966324
-0.117771
-0.115927
-0.109158
-0.085018
-0.0522971
-0.0870861
-0.0673537
-0.0977806
-0.106405
-0.0978011
-0.0457172
-0.0358478
-0.0640469
-0.0577624
-0.0838965
-0.0949606
-0.0874665
-0.0345254
-0.0329195
-0.0559673
-0.0521884
-0.098818
-0.118079
-0.138425
-0.0856588
-0.0915785
-0.109017
-0.129189
-0.118311
-0.141403
-0.144171
-0.0963951
-0.115767
-0.134249
-0.142389
-0.131423
-0.143885
-0.138414
-0.121993
-0.129508
-0.14315
-0.139136
-0.125341
-0.135207
-0.12546
-0.127934
-0.12029
-0.135889
-0.124662
-0.117029
-0.122739
-0.116233
-0.117572
-0.101973
-0.121726
-0.116112
-0.10953
-0.11433
-0.108445
-0.0950245
-0.0808483
-0.114791
-0.111099
-0.0988217
-0.106412
-0.101194
-0.0781381
-0.0708109
-0.109965
-0.107195
-0.0896088
-0.100073
-0.099486
-0.0683431
-0.0638952
-0.106833
-0.109736
-0.151148
-0.125414
-0.122801
-0.148798
-0.146791
-0.122179
-0.117599
-0.148082
-0.124156
-0.133223
-0.145973
-0.147928
-0.118718
-0.131321
-0.142949
-0.136846
-0.147162
-0.148539
-0.1443
-0.137192
-0.151606
-0.125528
-0.149201
-0.146655
-0.140846
-0.129057
-0.153486
-0.150597
-0.115197
-0.143655
-0.134803
-0.12579
-0.119364
-0.14828
-0.142379
-0.108182
-0.13292
-0.131453
-0.11802
-0.115415
-0.141163
-0.140062
-0.104203
-0.132065
-0.137077
-0.115026
-0.115802
-0.140471
-0.144665
-0.107039
-0.13977
-0.150847
-0.116795
-0.12196
-0.147074
-0.156188
-0.113803
-0.113249
-0.131544
-0.0967954
-0.10797
-0.111097
-0.129287
-0.133442
-0.13848
-0.154829
-0.113223
-0.130877
-0.136143
-0.153747
-0.147976
-0.16061
-0.171983
-0.136984
-0.152914
-0.159973
-0.171018
-0.152826
-0.175334
-0.186207
-0.155909
-0.157079
-0.173351
-0.17912
-0.147362
-0.190575
-0.201494
-0.155857
-0.151636
-0.181209
-0.185695
-0.146528
-0.205579
-0.222066
-0.150521
-0.149695
-0.187899
-0.200762
-0.155752
-0.229054
-0.247855
-0.150474
-0.157082
-0.20773
-0.226907
-0.172985
-0.253935
-0.270987
-0.160443
-0.171589
-0.233011
-0.248387
-0.0736044
-0.0642654
-0.0749589
-0.0481291
-0.0466681
-0.0525906
-0.0555647
-0.0718318
-0.0760925
-0.0833717
-0.0447906
-0.0399353
-0.0558425
-0.0549919
-0.0717028
-0.0861922
-0.0824731
-0.0388793
-0.0357575
-0.053317
-0.0450415
-0.0742071
-0.0796787
-0.0782552
-0.033909
-0.0240439
-0.0418642
-0.0308186
-0.0356168
-0.0747731
-0.0480041
-0.0202032
-0.0119648
-0.0264829
-0.0156359
-0.0145898
-0.0395191
-0.0251056
-0.0106713
-0.00996785
-0.0136185
-0.0117664
-0.0121734
-0.0230587
-0.0208577
-0.0104016
-0.0128624
-0.0121384
-0.0151297
-0.015363
-0.0210252
-0.0241195
-0.013985
-0.0180053
-0.0166137
-0.0220345
-0.0770281
-0.0791304
-0.0847772
-0.0578812
-0.0605423
-0.0647454
-0.059163
-0.0862388
-0.0879105
-0.105574
-0.0607565
-0.059563
-0.0572891
-0.0547898
-0.0826349
-0.109029
-0.101187
-0.0575881
-0.0471708
-0.05348
-0.0444256
-0.0702439
-0.0941416
-0.0759032
-0.0432211
-0.0316514
-0.0407005
-0.0313436
-0.0500372
-0.0745019
-0.077513
-0.0277257
-0.0175611
-0.0292877
-0.0247968
-0.0323195
-0.0786058
-0.077836
-0.0154545
-0.013187
-0.023586
-0.0221626
-0.0279251
-0.076252
-0.0706271
-0.0134834
-0.0165942
-0.0224427
-0.0262999
-0.0311671
-0.0697822
-0.0743094
-0.0182347
-0.0243803
-0.0286102
-0.0376857
-0.0831105
-0.0812929
-0.0830763
-0.0730545
-0.0584275
-0.0693788
-0.0649619
-0.111708
-0.0862015
-0.102364
-0.0553674
-0.0518129
-0.063826
-0.0597385
-0.114851
-0.109624
-0.128499
-0.0510149
-0.0444295
-0.0585596
-0.0559972
-0.0940796
-0.131327
-0.130398
-0.0414528
-0.0335331
-0.0548007
-0.0500933
-0.0908588
-0.12854
-0.121247
-0.0317656
-0.0281396
-0.0483888
-0.0427222
-0.0893449
-0.118189
-0.107563
-0.0274303
-0.0269013
-0.0408898
-0.0384943
-0.0843366
-0.104241
-0.10024
-0.0273111
-0.031689
-0.0393437
-0.046907
-0.0905706
-0.101655
-0.111647
-0.0342819
-0.0440117
-0.0503444
-0.0579001
-0.0869457
-0.0600759
-0.0779744
-0.0619264
-0.065045
-0.0499488
-0.0566604
-0.105846
-0.0875865
-0.106261
-0.0649915
-0.0617867
-0.0602555
-0.0619974
-0.129229
-0.110695
-0.117806
-0.0602495
-0.0567584
-0.0602734
-0.0522586
-0.133945
-0.11671
-0.0999049
-0.055557
-0.0503544
-0.0487209
-0.0415015
-0.121948
-0.0927431
-0.0750766
-0.0482242
-0.0416654
-0.0404764
-0.0417042
-0.102305
-0.0714553
-0.0708156
-0.040041
-0.03999
-0.0438015
-0.0534583
-0.097603
-0.0747575
-0.0924097
-0.0419133
-0.0517829
-0.0576892
-0.0683896
-0.113883
-0.100432
-0.118797
-0.0553337
-0.0609241
-0.0712569
-0.0742514
-0.0333112
-0.0369038
-0.0415673
-0.0207142
-0.0179628
-0.0240792
-0.0224375
-0.0270448
-0.0414302
-0.0400989
-0.0171176
-0.0145852
-0.0217288
-0.0187712
-0.0245282
-0.0386204
-0.031876
-0.0137132
-0.0111077
-0.0175197
-0.0135088
-0.0156047
-0.0294368
-0.0209415
-0.0103231
-0.00906612
-0.0122147
-0.00936869
-0.00942782
-0.0178191
-0.0114009
-0.00912056
-0.0103292
-0.0089985
-0.00977358
-0.0102739
-0.0106072
-0.0111329
-0.0109386
-0.0130131
-0.0104939
-0.0133195
-0.0137719
-0.0119687
-0.0156608
-0.0137393
-0.0159468
-0.0143443
-0.0172502
-0.0185982
-0.0171735
-0.022135
-0.0166912
-0.0189424
-0.01812
-0.0204017
-0.0474021
-0.0431107
-0.0403845
-0.0296632
-0.0256586
-0.0283699
-0.0219571
-0.0443736
-0.0404172
-0.0416113
-0.024363
-0.020135
-0.0208236
-0.0182842
-0.0327629
-0.0405884
-0.0327571
-0.0185319
-0.0138218
-0.0171878
-0.0133939
-0.0184491
-0.0266987
-0.0295007
-0.0208354
-0.026303
-0.0187057
-0.020664
-0.0122934
-0.015942
-0.0189335
-0.013077
-0.0168244
-0.0117078
-0.0134569
-0.0119787
-0.0173911
-0.0179576
-0.0108839
-0.0140408
-0.0142511
-0.0184121
-0.016827
-0.018933
-0.0242004
-0.0151882
-0.0183499
-0.0198732
-0.0235837
-0.0241263
-0.026623
-0.0345461
-0.0192533
-0.0214565
-0.0244971
-0.0261099
-0.0346651
-0.0421606
-0.0455258
-0.0269619
-0.0200904
-0.0300256
-0.02516
-0.0385687
-0.0463145
-0.0457569
-0.0188833
-0.0168123
-0.0235272
-0.0197097
-0.032701
-0.0447243
-0.0409491
-0.0161205
-0.0135695
-0.0188772
-0.0172297
-0.0229864
-0.0273244
-0.033572
-0.021313
-0.0316146
-0.0197806
-0.0243053
-0.0198291
-0.020828
-0.0274228
-0.0168485
-0.0265358
-0.0165401
-0.0202322
-0.0212187
-0.0302612
-0.0314229
-0.0155714
-0.0199857
-0.0212072
-0.0253634
-0.0283723
-0.0330429
-0.0404565
-0.0215353
-0.0253097
-0.026547
-0.0282751
-0.0391945
-0.0429831
-0.0464151
-0.026141
-0.0272334
-0.0281405
-0.0261354
-0.0502722
-0.0333841
-0.0409486
-0.0306239
-0.026478
-0.0260178
-0.0249526
-0.0480341
-0.0438138
-0.0426398
-0.0248204
-0.0205227
-0.0245842
-0.0224462
-0.0416477
-0.0409653
-0.035597
-0.019577
-0.0179829
-0.0216747
-0.0203878
-0.0356643
-0.0335132
-0.0294212
-0.0177603
-0.0181882
-0.0205502
-0.0228755
-0.0310193
-0.0291494
-0.0307519
-0.0187599
-0.0217418
-0.0239871
-0.0270172
-0.0333681
-0.0322226
-0.0377033
-0.023047
-0.026881
-0.0280277
-0.0302309
-0.0432124
-0.0398371
-0.0443549
-0.0277862
-0.0284283
-0.0306593
-0.0303397
-0.0461721
-0.045147
-0.0436675
-0.0279425
-0.025343
-0.0298389
-0.02818
-0.0130492
-0.0155328
-0.0162692
-0.0103866
-0.00923356
-0.0107472
-0.00974444
-0.0108091
-0.0158891
-0.0138924
-0.00888615
-0.00858972
-0.00938623
-0.00851897
-0.00944151
-0.0130396
-0.0104891
-0.00876193
-0.00991358
-0.00839183
-0.008735
-0.00957266
-0.009785
-0.00878866
-0.0104969