/*--------------------------------*- C++ -*----------------------------------*\
  =========                 |
  \\      /  F ield         | OpenFOAM: The Open Source CFD Toolbox
   \\    /   O peration     | Website:  https://openfoam.org
    \\  /    A nd           | Version:  10
     \\/     M anipulation  |
\*---------------------------------------------------------------------------*/
FoamFile
{
    format      ascii;
    class       volScalarField;
    location    "3";
    object      turbidity;
}
// * * * * * * * * * * * * * * * * * * * * * * * * * * * * * * * * * * * * * //

dimensions      [0 0 0 0 0 0 0];

internalField   nonuniform List<scalar> 
12920
(
-0.0242794
-0.0668103
-0.104772
-0.131649
-0.156578
-0.187941
-0.216653
-0.241349
-0.262503
-0.280031
-0.294622
-0.306777
-0.317137
-0.325288
-0.331254
-0.333908
-0.335829
-0.33961
-0.346549
-0.357551
-0.0685033
-0.0840068
-0.0920897
-0.134068
-0.149244
-0.191729
-0.221506
-0.251766
-0.280629
-0.304412
-0.321419
-0.329132
-0.334441
-0.337387
-0.344136
-0.356042
-0.377684
-0.406898
-0.436883
-0.462208
-0.0490682
-0.0697411
-0.0763219
-0.107643
-0.127032
-0.15841
-0.186491
-0.221494
-0.258739
-0.30065
-0.340982
-0.377753
-0.40882
-0.43449
-0.455584
-0.473671
-0.489957
-0.505445
-0.519544
-0.527639
-0.0370783
-0.0528859
-0.0632656
-0.088519
-0.108801
-0.132472
-0.157067
-0.188037
-0.22354
-0.268158
-0.314716
-0.359384
-0.395627
-0.423411
-0.44337
-0.459059
-0.473301
-0.490137
-0.513697
-0.543255
-0.0160644
-0.0449349
-0.0641049
-0.0778234
-0.0967071
-0.119175
-0.143408
-0.170174
-0.201212
-0.240839
-0.284986
-0.329957
-0.365223
-0.389361
-0.40262
-0.411143
-0.41926
-0.430426
-0.454724
-0.490658
-0.0514157
-0.0621011
-0.0625828
-0.0787739
-0.103968
-0.130349
-0.15211
-0.172759
-0.196135
-0.226546
-0.261466
-0.298372
-0.326645
-0.342814
-0.344778
-0.344226
-0.348392
-0.363039
-0.395982
-0.445573
-0.051816
-0.044702
-0.0418359
-0.0565147
-0.087738
-0.124221
-0.146553
-0.164201
-0.181612
-0.212479
-0.243963
-0.272856
-0.277804
-0.268972
-0.256271
-0.253661
-0.263872
-0.287269
-0.329665
-0.392177
-0.0128989
-0.0266655
-0.0456221
-0.0719234
-0.0966871
-0.120825
-0.126479
-0.128512
-0.128994
-0.134783
-0.151472
-0.162825
-0.150372
-0.125275
-0.101072
-0.132099
-0.16763
-0.206628
-0.255705
-0.321362
-0.0116537
-0.0328442
-0.0503053
-0.0640823
-0.0801081
-0.0818737
-0.0905957
-0.111489
-0.122748
-0.120147
-0.123152
-0.129108
-0.112662
-0.0939582
-0.0824839
-0.105133
-0.142272
-0.182794
-0.230622
-0.292641
-0.0103018
-0.0243202
-0.0426093
-0.0628018
-0.0848826
-0.086589
-0.0898373
-0.103151
-0.122757
-0.131406
-0.122808
-0.115594
-0.107161
-0.0963317
-0.0971156
-0.132673
-0.162328
-0.194717
-0.235364
-0.290301
-0.027905
-0.0368838
-0.0522792
-0.0778559
-0.115943
-0.136233
-0.154938
-0.149194
-0.147909
-0.1393
-0.122338
-0.113445
-0.106815
-0.104262
-0.128142
-0.173206
-0.193284
-0.21735
-0.25142
-0.298152
-0.0130478
-0.0275015
-0.0424289
-0.0597511
-0.0815964
-0.0888484
-0.100975
-0.118764
-0.137089
-0.150484
-0.151875
-0.14647
-0.147896
-0.15952
-0.202773
-0.244034
-0.244379
-0.250832
-0.270862
-0.305636
-0.0222226
-0.029997
-0.0381528
-0.0521764
-0.0764082
-0.112839
-0.125532
-0.147227
-0.174719
-0.194875
-0.221233
-0.242149
-0.274015
-0.299716
-0.387538
-0.412138
-0.403508
-0.379317
-0.358498
-0.359121
-0.0292519
-0.042555
-0.0569382
-0.0754614
-0.0986887
-0.123453
-0.156968
-0.199118
-0.250142
-0.301261
-0.350922
-0.396698
-0.443639
-0.491517
-0.538165
-0.577813
-0.597637
-0.588232
-0.543101
-0.502573
-0.0163628
-0.0296993
-0.0426442
-0.0568775
-0.0724793
-0.0931324
-0.124916
-0.174137
-0.229893
-0.275097
-0.31889
-0.365535
-0.422627
-0.482064
-0.54133
-0.59647
-0.643727
-0.676112
-0.68002
-0.659525
-0.0172974
-0.0281796
-0.0393441
-0.0612489
-0.0919481
-0.131393
-0.170085
-0.197905
-0.220633
-0.241139
-0.275757
-0.325467
-0.391068
-0.45809
-0.519902
-0.572259
-0.616231
-0.653522
-0.685803
-0.712289
-0.0144572
-0.0397761
-0.0565401
-0.097984
-0.136562
-0.17166
-0.193418
-0.209959
-0.22561
-0.243669
-0.269982
-0.305849
-0.353779
-0.411646
-0.465855
-0.504185
-0.530517
-0.555494
-0.583648
-0.618174
-0.0121245
-0.0393797
-0.0547174
-0.0827966
-0.1202
-0.157613
-0.194197
-0.221431
-0.244216
-0.263404
-0.28334
-0.307882
-0.34084
-0.382301
-0.422057
-0.446227
-0.456573
-0.463053
-0.470153
-0.484523
-0.0105597
-0.0248
-0.0428432
-0.0684614
-0.102697
-0.149722
-0.193858
-0.217875
-0.234001
-0.254024
-0.281993
-0.316773
-0.35829
-0.397565
-0.431221
-0.456754
-0.470601
-0.471499
-0.460662
-0.448687
-0.0204748
-0.0393847
-0.0513025
-0.0653747
-0.083333
-0.109566
-0.139054
-0.168004
-0.192273
-0.216017
-0.241921
-0.270988
-0.302518
-0.334579
-0.363671
-0.387635
-0.405784
-0.419343
-0.429638
-0.438916
-0.0407598
-0.0473366
-0.0485028
-0.0690595
-0.0877638
-0.100183
-0.105522
-0.10619
-0.103879
-0.0992214
-0.0936532
-0.0851593
-0.0759011
-0.06415
-0.0544524
-0.0473919
-0.0430732
-0.041329
-0.0427696
-0.0483146
-0.0120671
-0.0471427
-0.0181322
-0.0240891
-0.0285642
-0.0457465
-0.0521196
-0.0554044
-0.0542688
-0.0482007
-0.0447716
-0.0429797
-0.0438235
-0.0464486
-0.0517304
-0.0598582
-0.071738
-0.0877996
-0.107341
-0.12189
-0.026218
-0.0263252
-0.0153015
-0.021295
-0.0303184
-0.0395452
-0.0565961
-0.0621291
-0.0697088
-0.067439
-0.0721356
-0.0801013
-0.0960309
-0.113009
-0.129299
-0.139154
-0.141892
-0.135824
-0.120204
-0.104601
-0.0559577
-0.014062
-0.0163925
-0.0257027
-0.0363891
-0.0458988
-0.0630231
-0.0766288
-0.0913135
-0.09598
-0.0974097
-0.0949638
-0.0964496
-0.101468
-0.110111
-0.121117
-0.133678
-0.144753
-0.15325
-0.155289
-0.0203037
-0.0227156
-0.0248851
-0.0268055
-0.0341879
-0.0399028
-0.050943
-0.0616657
-0.0751698
-0.0853652
-0.088845
-0.0814299
-0.07107
-0.0609922
-0.0561397
-0.0557334
-0.0606668
-0.07121
-0.0883021
-0.110598
-0.0222724
-0.0210856
-0.0195144
-0.0258424
-0.0347163
-0.035674
-0.0397521
-0.0405114
-0.0444539
-0.0491273
-0.0545407
-0.0550891
-0.0482108
-0.038892
-0.0337995
-0.0360307
-0.0436549
-0.0562046
-0.0749428
-0.101574
-0.0111233
-0.0208178
-0.0274168
-0.0373248
-0.0482862
-0.0461243
-0.039294
-0.0334322
-0.0335244
-0.0329032
-0.029255
-0.0258345
-0.0230539
-0.0225583
-0.025146
-0.0307764
-0.0395111
-0.0528645
-0.0738847
-0.106494
-0.00298509
-0.0143581
-0.0314111
-0.0375696
-0.0437108
-0.0439752
-0.0480677
-0.0402565
-0.0385198
-0.0485156
-0.0408322
-0.0240361
-0.0158293
-0.0147646
-0.0218404
-0.0299365
-0.0393193
-0.0521719
-0.0730323
-0.105243
-0.0105779
-0.00829031
-0.0148612
-0.0194634
-0.0366544
-0.046906
-0.0615206
-0.0745918
-0.0712218
-0.0744
-0.0678478
-0.0278389
-0.0131272
-0.0126215
-0.0199772
-0.0359659
-0.0443854
-0.0546915
-0.0727238
-0.100234
-0.00259039
-0.00589354
-0.0140174
-0.02192
-0.0430133
-0.0520379
-0.0671702
-0.0786258
-0.0891037
-0.0777013
-0.0683102
-0.0441
-0.0307301
-0.0280224
-0.0386791
-0.0522236
-0.0549979
-0.0603214
-0.0724577
-0.0924487
-0.001938
-0.00687754
-0.0164083
-0.0356685
-0.073283
-0.087552
-0.0904437
-0.0875558
-0.1169
-0.110364
-0.0919169
-0.0912588
-0.0882136
-0.0844586
-0.088038
-0.0657092
-0.0606116
-0.0607287
-0.0679848
-0.0811272
-0.00242194
-0.00676709
-0.0120853
-0.0183068
-0.0404414
-0.0553903
-0.0724956
-0.091171
-0.111549
-0.132657
-0.132225
-0.117558
-0.0988127
-0.100565
-0.102858
-0.0622272
-0.0527521
-0.0517479
-0.0574969
-0.0669021
-0.00228574
-0.0039276
-0.00773156
-0.0108034
-0.018157
-0.0319044
-0.043828
-0.082101
-0.0966521
-0.0910025
-0.0700782
-0.0655534
-0.0804419
-0.106437
-0.100967
-0.0862764
-0.0706087
-0.0611846
-0.0593852
-0.0638868
-0.00175662
-0.0059711
-0.0132861
-0.0290458
-0.0449025
-0.0455923
-0.0536013
-0.0602514
-0.0642397
-0.064496
-0.0651922
-0.0718071
-0.0849741
-0.100309
-0.114405
-0.121843
-0.118746
-0.10812
-0.0984984
-0.101163
-0.00626277
-0.0109663
-0.0188856
-0.0245502
-0.0341632
-0.042066
-0.0548923
-0.0541246
-0.0502376
-0.0475598
-0.0527189
-0.0597817
-0.0666141
-0.071811
-0.08085
-0.0906614
-0.102679
-0.121405
-0.143159
-0.17061
-0.00398573
-0.00581143
-0.0124315
-0.0191612
-0.0337068
-0.0280367
-0.0315719
-0.0293176
-0.0338433
-0.0435757
-0.0569295
-0.0681802
-0.0737305
-0.0688198
-0.0619732
-0.0550394
-0.0544942
-0.0599227
-0.0748411
-0.0966231
-0.00352914
-0.00484898
-0.00732609
-0.0124705
-0.0183972
-0.0202434
-0.0237734
-0.0289801
-0.0379762
-0.0503178
-0.0685675
-0.0869044
-0.0987462
-0.0885315
-0.0639628
-0.0443661
-0.0363314
-0.0350054
-0.0366969
-0.0411116
-0.00462763
-0.00638278
-0.00810438
-0.0152449
-0.0300804
-0.0387002
-0.04398
-0.0458598
-0.0495315
-0.0561291
-0.0692259
-0.0831031
-0.0938751
-0.0880444
-0.068545
-0.0491912
-0.039846
-0.0378455
-0.0401255
-0.044495
-0.00323942
-0.0100381
-0.0161149
-0.0246264
-0.0453384
-0.0536626
-0.044518
-0.0332668
-0.0312596
-0.0337868
-0.040066
-0.0496857
-0.0631661
-0.0733069
-0.0751233
-0.0673235
-0.0575414
-0.0522112
-0.0517125
-0.0549348
-0.0143584
-0.0143244
-0.0207101
-0.0309818
-0.0476029
-0.0648537
-0.0794031
-0.0876409
-0.0887658
-0.0812645
-0.0659508
-0.0524072
-0.0499137
-0.0569536
-0.0682056
-0.0790981
-0.0885811
-0.0979185
-0.106009
-0.114644
-0.00873995
-0.020163
-0.0260658
-0.0467014
-0.0610305
-0.0647478
-0.0609881
-0.0555064
-0.0504048
-0.0454883
-0.0411366
-0.0362089
-0.0318643
-0.0278225
-0.025148
-0.0236976
-0.0233871
-0.0241951
-0.0263078
-0.0296486
-0.0040082
-0.0160176
-0.00994896
-0.0150823
-0.0158306
-0.0191087
-0.0199164
-0.0196236
-0.0191783
-0.0187668
-0.0194292
-0.0207301
-0.0229708
-0.0259296
-0.0298368
-0.0347202
-0.040709
-0.0475789
-0.0543694
-0.0586887
-0.00668823
-0.00894441
-0.0100822
-0.0131001
-0.0166198
-0.0193225
-0.0248299
-0.0240333
-0.0253523
-0.0245327
-0.0270314
-0.0305979
-0.0365977
-0.042323
-0.0477704
-0.0505354
-0.0510993
-0.0498527
-0.0480607
-0.0476409
-0.017776
-0.00948231
-0.0121481
-0.0163186
-0.0215171
-0.0264393
-0.0338194
-0.0363973
-0.0387935
-0.0360863
-0.0349442
-0.035254
-0.0383912
-0.0432485
-0.049104
-0.0547868
-0.0598424
-0.0631213
-0.0647502
-0.0653653
-0.00814322
-0.0119641
-0.0145223
-0.0162753
-0.0204033
-0.0242369
-0.0289751
-0.0337114
-0.0362279
-0.0349289
-0.031738
-0.0281512
-0.0269643
-0.028135
-0.0313725
-0.0360116
-0.0418921
-0.0488179
-0.0570902
-0.0662407
-0.00428966
-0.0136179
-0.0133728
-0.0135517
-0.0159678
-0.0168068
-0.0186902
-0.0199589
-0.020382
-0.0205335
-0.0204722
-0.0204139
-0.020968
-0.0231264
-0.0271195
-0.0327838
-0.0400136
-0.0491326
-0.0610623
-0.0767621
-0.00706513
-0.0179687
-0.0235901
-0.0237192
-0.0241255
-0.0194649
-0.0170206
-0.0159268
-0.0149077
-0.0141002
-0.0138595
-0.0150286
-0.0172547
-0.0206723
-0.0255363
-0.0322576
-0.0412095
-0.0530646
-0.0690332
-0.0900239
-0.00294513
-0.0109889
-0.0186783
-0.0175099
-0.0196538
-0.0185129
-0.0189825
-0.0170593
-0.016097
-0.015097
-0.0124373
-0.0120637
-0.0137741
-0.0165073
-0.0233915
-0.030484
-0.0403585
-0.0536733
-0.0708681
-0.0902202
-0.00610813
-0.00505044
-0.0072078
-0.0107008
-0.0208638
-0.0256017
-0.0320769
-0.0318927
-0.0265723
-0.0232131
-0.0133137
-0.00922792
-0.0109496
-0.0148405
-0.0217823
-0.0305117
-0.0395361
-0.0524867
-0.068377
-0.0824152
-0.00225727
-0.00556209
-0.00895853
-0.0141951
-0.028295
-0.0338067
-0.0443145
-0.0470226
-0.042526
-0.0298355
-0.0185912
-0.0116876
-0.0128008
-0.0184544
-0.0283309
-0.0332762
-0.0395976
-0.0496989
-0.0621313
-0.0715492
-0.000588426
-0.00389839
-0.00948232
-0.021057
-0.0395392
-0.0407221
-0.0374998
-0.035876
-0.0382794
-0.0293646
-0.0219897
-0.0197763
-0.0224006
-0.0309413
-0.040005
-0.0332146
-0.03703
-0.0442443
-0.0532267
-0.0595279
-0.000814564
-0.00404208
-0.00710792
-0.0140869
-0.0304485
-0.0381434
-0.0444638
-0.0508628
-0.0465402
-0.0403415
-0.0343536
-0.0307222
-0.0354038
-0.0452198
-0.0379152
-0.0294098
-0.03239
-0.0377584
-0.0441976
-0.0490675
-0.000271858
-0.00107735
-0.00231891
-0.00567972
-0.0129472
-0.0196019
-0.0252524
-0.0383277
-0.034451
-0.0295353
-0.0290783
-0.0338397
-0.040046
-0.0435297
-0.0367259
-0.0353777
-0.0359243
-0.0384185
-0.0422053
-0.0462495
-0.00101031
-0.00712858
-0.0146119
-0.0191584
-0.0223169
-0.0196709
-0.0238971
-0.0251803
-0.0257182
-0.0271991
-0.0295135
-0.0324362
-0.0359497
-0.0391754
-0.0421148
-0.0442736
-0.0457073
-0.0472809
-0.050109
-0.0558835
-0.00347984
-0.010649
-0.0138389
-0.0122052
-0.0180751
-0.0199482
-0.0246696
-0.0235934
-0.023903
-0.0252846
-0.0269932
-0.0280824
-0.029386
-0.0309637
-0.0342465
-0.038688
-0.0446683
-0.0528352
-0.0631194
-0.0761479
-0.0062683
-0.00612841
-0.00778914
-0.00921106
-0.0140733
-0.0143936
-0.0173312
-0.0206966
-0.0245288
-0.0283365
-0.0305584
-0.0306362
-0.0293496
-0.027801
-0.0278131
-0.0292793
-0.0321919
-0.0359617
-0.0411251
-0.0474729
-0.00722983
-0.00492192
-0.00617574
-0.0100184
-0.0130111
-0.0157955
-0.0188854
-0.0225783
-0.0279895
-0.033215
-0.0386393
-0.0404252
-0.0383012
-0.0326535
-0.0284698
-0.0275849
-0.0288359
-0.0308857
-0.0332659
-0.0358422
-0.00515015
-0.00472738
-0.00671135
-0.0121726
-0.018734
-0.020211
-0.0200577
-0.0199508
-0.0216774
-0.0249494
-0.0300086
-0.033549
-0.0348097
-0.0323674
-0.030103
-0.0302055
-0.0322589
-0.0351609
-0.0384556
-0.041474
-0.00322281
-0.00759875
-0.0133411
-0.0194499
-0.0260518
-0.0224056
-0.0188744
-0.0164517
-0.0165376
-0.0167428
-0.0177969
-0.0199085
-0.0234174
-0.0265651
-0.0290573
-0.0316826
-0.035366
-0.0399614
-0.0452202
-0.0509326
-0.00789247
-0.012765
-0.0149659
-0.0230466
-0.0364179
-0.0486293
-0.0561983
-0.0576134
-0.0533677
-0.0447084
-0.0342331
-0.0254577
-0.0210562
-0.0208703
-0.0233473
-0.0271417
-0.0317327
-0.0373026
-0.0434234
-0.050866
-0.00712861
-0.0149356
-0.0223349
-0.0358914
-0.0419351
-0.0386688
-0.03313
-0.0283349
-0.0251239
-0.0223442
-0.0201331
-0.0180014
-0.0166999
-0.0163417
-0.0170274
-0.018699
-0.0211963
-0.0242538
-0.0274863
-0.0305788
-0.0100805
-0.00816488
-0.00998508
-0.0151866
-0.0139212
-0.0136115
-0.0124468
-0.0124655
-0.0131592
-0.0143208
-0.0160251
-0.0181482
-0.0208075
-0.0239577
-0.0275657
-0.0311673
-0.0342361
-0.0362675
-0.0369975
-0.0362932
-0.00194155
-0.00802689
-0.00974382
-0.0101404
-0.0105013
-0.0109921
-0.012345
-0.0125265
-0.0137194
-0.0148921
-0.0169519
-0.0191086
-0.0216791
-0.0238393
-0.0258055
-0.0269177
-0.0274583
-0.0275514
-0.027495
-0.0274738
-0.0125219
-0.00884534
-0.00984707
-0.0112361
-0.0129453
-0.0143212
-0.0161169
-0.015885
-0.0164232
-0.0164641
-0.0177619
-0.0197303
-0.022395
-0.0251765
-0.0279587
-0.0301568
-0.0318669
-0.0329757
-0.0338767
-0.0345898
-0.00475309
-0.0100626
-0.0115884
-0.0117658
-0.0135903
-0.014878
-0.0158127
-0.0161803
-0.0161829
-0.0156791
-0.0161279
-0.0172934
-0.019536
-0.0222538
-0.0255276
-0.0289834
-0.0327605
-0.0368369
-0.0414075
-0.0461084
-0.00590735
-0.0107328
-0.00923765
-0.00932936
-0.0104503
-0.0107941
-0.0109673
-0.011305
-0.0118916
-0.0129244
-0.0148239
-0.0171853
-0.0203678
-0.0240271
-0.0283541
-0.0331259
-0.0386003
-0.0451043
-0.0530937
-0.0622868
-0.00704235
-0.0143329
-0.0156202
-0.0132715
-0.012764
-0.011206
-0.0101437
-0.00990001
-0.0106823
-0.0124342
-0.0149336
-0.0180191
-0.0216808
-0.0260924
-0.0313456
-0.0373229
-0.0440134
-0.0516864
-0.060689
-0.069735
-0.00139218
-0.00624755
-0.00979253
-0.0106195
-0.0113766
-0.0109343
-0.0107059
-0.00965956
-0.00966533
-0.0107858
-0.012846
-0.0149915
-0.0175529
-0.0206683
-0.0302772
-0.0370809
-0.0437917
-0.0501759
-0.0564884
-0.0605058
-0.00296103
-0.0034814
-0.00525572
-0.00796929
-0.0114134
-0.0126964
-0.0136381
-0.0125343
-0.0104437
-0.00927235
-0.00991332
-0.0120105
-0.0144928
-0.016884
-0.021428
-0.0346204
-0.0411447
-0.0457189
-0.0483375
-0.0474688
-0.0039806
-0.00490958
-0.00612432
-0.00910507
-0.0144882
-0.0163644
-0.0194193
-0.0179219
-0.0138536
-0.00997565
-0.00902293
-0.0114808
-0.0151921
-0.0182246
-0.0214611
-0.0325062
-0.038351
-0.0418287
-0.0428387
-0.0411004
-0.000290112
-0.00272155
-0.00646954
-0.0114418
-0.0157209
-0.0158504
-0.0151335
-0.0144391
-0.013127
-0.0112531
-0.0120825
-0.0157143
-0.0199788
-0.02228
-0.0223967
-0.0297935
-0.034474
-0.037478
-0.0386722
-0.0382502
-0.000349
-0.00255601
-0.00541711
-0.00991728
-0.0167265
-0.0190906
-0.0194647
-0.0185445
-0.0159623
-0.0155337
-0.0174668
-0.0209727
-0.023057
-0.0222343
-0.0208832
-0.0262525
-0.0300067
-0.033018
-0.0351326
-0.0364262
-0.000575832
-0.00164133
-0.00310044
-0.00565226
-0.0101345
-0.0122639
-0.0143043
-0.0174947
-0.0175279
-0.0184275
-0.0198574
-0.021088
-0.0220424
-0.0223577
-0.0246956
-0.0267987
-0.0293451
-0.0320815
-0.0347574
-0.037378
-0.00118001
-0.0104029
-0.00996611
-0.00971115
-0.0112053
-0.0116383
-0.0139674
-0.0155348
-0.0169669
-0.0186209
-0.0201578
-0.0220494
-0.0239007
-0.0262601
-0.0287548
-0.0315929
-0.0345075
-0.0378078
-0.0414959
-0.0462726
-0.00420257
-0.00770564
-0.00745086
-0.00722289
-0.0105609
-0.0122184
-0.0144673
-0.0154212
-0.016801
-0.0182562
-0.0198772
-0.021782
-0.0241921
-0.0270898
-0.0306354
-0.0346687
-0.0391553
-0.0441447
-0.0495913
-0.0555489
-0.00241684
-0.00418667
-0.00594308
-0.00785905
-0.010013
-0.0119844
-0.0139165
-0.015793
-0.0174936
-0.0191527
-0.0205715
-0.0220929
-0.0239684
-0.0262502
-0.0289285
-0.0317516
-0.0346334
-0.0373629
-0.0400687
-0.0425743
-0.00266665
-0.00412813
-0.00596301
-0.00883202
-0.0105962
-0.0119246
-0.0138759
-0.0155949
-0.0180318
-0.020029
-0.0221769
-0.0236261
-0.0250362
-0.0267387
-0.029089
-0.0317979
-0.0345715
-0.0372929
-0.0400158
-0.0423668
-0.0018152
-0.00505626
-0.00815415
-0.0106876
-0.0119854
-0.0114708
-0.0113269
-0.0116671
-0.0130674
-0.0151948
-0.0181006
-0.020868
-0.0236788
-0.0265391
-0.0298051
-0.0333982
-0.0370807
-0.0408448
-0.0448682
-0.0489638
-0.00253987
-0.00530744
-0.0101854
-0.0137479
-0.0170727
-0.0168336
-0.0162326
-0.0147579
-0.0138006
-0.0132544
-0.0139709
-0.0163863
-0.020022
-0.024094
-0.028299
-0.0326281
-0.03701
-0.0415638
-0.0462143
-0.0510763
-0.00700905
-0.0061844
-0.00469631
-0.00869216
-0.0211355
-0.0337708
-0.0392295
-0.0379113
-0.0323495
-0.0248299
-0.0179463
-0.0133418
-0.0116662
-0.0122356
-0.0142287
-0.0171845
-0.0210148
-0.0258544
-0.0317562
-0.039106
-0.00550261
-0.0162645
-0.0221468
-0.0245647
-0.0230514
-0.0191461
-0.0166499
-0.0146653
-0.0133248
-0.0122259
-0.0122159
-0.0133092
-0.0153196
-0.0175052
-0.0193181
-0.0205382
-0.0212666
-0.0217144
-0.0220213
-0.0222621
-0.00740187
-0.00917877
-0.0120007
-0.0130209
-0.011633
-0.0111509
-0.0111749
-0.0119442
-0.0132428
-0.014871
-0.0165366
-0.0180571
-0.019173
-0.019797
-0.0199344
-0.0196455
-0.0190678
-0.0182851
-0.0173223
-0.0163888
-0.00222937
-0.00687322
-0.00904006
-0.00902119
-0.00891365
-0.00967158
-0.0107578
-0.0120827
-0.0134973
-0.0147573
-0.0159678
-0.0168475
-0.017603
-0.0179567
-0.0180626
-0.0177227
-0.0170675
-0.0161429
-0.0151163
-0.0142437
-0.00827473
-0.0065136
-0.00794306
-0.00823679
-0.00862735
-0.00967335
-0.0107909
-0.01208
-0.0136672
-0.0151439
-0.0167891
-0.0180853
-0.0192664
-0.0199307
-0.0202762
-0.0200832
-0.019596
-0.0188656
-0.0181566
-0.0176413
-0.00524491
-0.00827604
-0.00858598
-0.00864014
-0.00898507
-0.00970999
-0.0109631
-0.0121578
-0.0140226
-0.0156731
-0.0177169
-0.0194031
-0.0210332
-0.0222361
-0.0232322
-0.0239075
-0.0244408
-0.0248681
-0.0253542
-0.0260485
-0.00234799
-0.00649529
-0.00745821
-0.00805098
-0.00836809
-0.00916041
-0.0108526
-0.0126108
-0.0152247
-0.0173811
-0.019709
-0.0214826
-0.022956
-0.0240012
-0.0247825
-0.0254998
-0.026239
-0.0270516
-0.0280345
-0.0292788
-0.013026
-0.00963392
-0.0104334
-0.00998584
-0.00938966
-0.00941755
-0.0110508
-0.0134643
-0.0164635
-0.0189678
-0.0211612
-0.0227196
-0.0235434
-0.0238898
-0.0236646
-0.0233834
-0.0230269
-0.0227005
-0.0226008
-0.0226121
-0.00253914
-0.00520722
-0.00865946
-0.00961083
-0.0095736
-0.00961476
-0.00990454
-0.0120687
-0.01462
-0.0172559
-0.0198779
-0.0220071
-0.0236955
-0.0244913
-0.0199107
-0.0183646
-0.0168879
-0.0156135
-0.0148211
-0.014111
-0.00171823
-0.0041173
-0.00651582
-0.00849411
-0.00946085
-0.00971409
-0.00969902
-0.00989021
-0.0114448
-0.0138141
-0.0163436
-0.0186351
-0.0215173
-0.0243752
-0.0238251
-0.0150309
-0.0125517
-0.0104898
-0.00902503
-0.00789627
-0.00482749
-0.00467419
-0.00622617
-0.00840894
-0.00987288
-0.0102764
-0.0103129
-0.00973293
-0.00992065
-0.011512
-0.0138233
-0.0162408
-0.0194763
-0.0233899
-0.0247844
-0.0174123
-0.0151689
-0.0129484
-0.0108482
-0.009322
-0.000326239
-0.00337561
-0.00636558
-0.00893008
-0.010101
-0.0105689
-0.0107658
-0.0103915
-0.0105378
-0.011771
-0.0134637
-0.0152603
-0.0177869
-0.0214859
-0.0261814
-0.0219209
-0.0209423
-0.0194601
-0.0175633
-0.0162619
-0.000184591
-0.00223208
-0.00552706
-0.00840994
-0.0103216
-0.0116458
-0.0120233
-0.0120648
-0.0126821
-0.0139578
-0.0153775
-0.0164923
-0.0180359
-0.0202852
-0.0242159
-0.0228197
-0.0226395
-0.0216946
-0.0201312
-0.0188252
-0.00144357
-0.00277586
-0.00448275
-0.0067658
-0.00910888
-0.0112919
-0.0122025
-0.0151606
-0.0171035
-0.018533
-0.0203688
-0.0213791
-0.0227502
-0.0235316
-0.0255898
-0.026259
-0.0264112
-0.0263778
-0.0259614
-0.0259908
-0.00173892
-0.00581137
-0.00580426
-0.00740048
-0.00958719
-0.0122252
-0.0146735
-0.017611
-0.0199627
-0.0225
-0.0245046
-0.0267343
-0.02862
-0.0306734
-0.032621
-0.0346459
-0.0365105
-0.0383461
-0.0398787
-0.0416604
-0.000864853
-0.00400915
-0.00549963
-0.00765868
-0.0103478
-0.0132452
-0.0154213
-0.0181914
-0.0207198
-0.0235014
-0.0257857
-0.0279552
-0.0297526
-0.0312598
-0.0325803
-0.0335391
-0.0343689
-0.0349163
-0.0355307
-0.0361753
-0.00278123
-0.00353487
-0.00594475
-0.00880786
-0.0115177
-0.014112
-0.0166905
-0.0193783
-0.0220371
-0.024677
-0.0268781
-0.028839
-0.0299685
-0.0306093
-0.0303694
-0.029519
-0.0281215
-0.0263721
-0.0247193
-0.0236042
-0.000634489
-0.00214836
-0.00464499
-0.00783007
-0.010349
-0.0127286
-0.0156735
-0.0184925
-0.0217161
-0.0248426
-0.0279875
-0.0311027
-0.0338596
-0.0363317
-0.0380309
-0.0390515
-0.0392419
-0.0387138
-0.0377204
-0.0363187
-0.00357372
-0.00649516
-0.00745678
-0.00827127
-0.00895157
-0.00946812
-0.0110031
-0.0135374
-0.0168582
-0.0206747
-0.0246948
-0.0289642
-0.0333463
-0.037862
-0.0422779
-0.0464869
-0.0502416
-0.0534199
-0.0557089
-0.056949
-0.00382066
-0.00811205
-0.0116907
-0.0135394
-0.0145151
-0.0131308
-0.0118455
-0.0110382
-0.0120307
-0.0149295
-0.0184596
-0.0220269
-0.0253702
-0.0286757
-0.0321243
-0.0359224
-0.0400994
-0.0448266
-0.0499761
-0.0554112
-0.00107447
-0.00491968
-0.0117204
-0.0182517
-0.0236144
-0.0250868
-0.0228755
-0.0178347
-0.0127876
-0.0100643
-0.0103337
-0.0123715
-0.01532
-0.018794
-0.0226236
-0.0267435
-0.0310441
-0.0354906
-0.0401575
-0.0449171
-0.0213105
-0.0287291
-0.0223104
-0.0125205
-0.00967398
-0.0126401
-0.0111882
-0.012566
-0.0208603
-0.0180425
-0.00930033
-0.0100813
-0.0112886
-0.0131786
-0.0234376
-0.0397094
-0.0354368
-0.0132409
-0.0124018
-0.0169501
-0.0169711
-0.0198668
-0.0341825
-0.0309783
-0.0126016
-0.0144208
-0.0173871
-0.0199308
-0.106075
-0.0880214
-0.0986365
-0.085508
-0.09888
-0.0842672
-0.0929124
-0.121544
-0.10325
-0.117532
-0.105436
-0.117628
-0.098227
-0.116407
-0.121436
-0.122042
-0.129634
-0.118332
-0.11754
-0.121617
-0.126779
-0.120589
-0.129412
-0.122815
-0.118028
-0.121705
-0.125182
-0.119006
-0.129929
-0.120522
-0.117233
-0.120928
-0.0985346
-0.116603
-0.0971238
-0.117947
-0.115971
-0.109284
-0.0855349
-0.0526204
-0.0875651
-0.0676037
-0.0979724
-0.106546
-0.0979649
-0.045963
-0.0359406
-0.0642397
-0.0579334
-0.0840457
-0.0951257
-0.0876115
-0.0345881
-0.0329587
-0.0561431
-0.0523322
-0.0986747
-0.118304
-0.138476
-0.0858252
-0.0914407
-0.109377
-0.129258
-0.117955
-0.141427
-0.144214
-0.0961455
-0.115324
-0.134256
-0.142415
-0.131308
-0.143961
-0.138618
-0.121592
-0.129517
-0.143219
-0.139361
-0.125502
-0.135431
-0.12563
-0.12805
-0.120443
-0.136154
-0.124915
-0.117093
-0.122886
-0.116335
-0.117743
-0.102366
-0.121939
-0.116233
-0.109645
-0.114427
-0.108551
-0.095404
-0.0810672
-0.114904
-0.111223
-0.09898
-0.106523
-0.101295
-0.0783346
-0.0710458
-0.110095
-0.107342
-0.0897378
-0.100163
-0.0995294
-0.0685837
-0.064076
-0.10697
-0.109797
-0.151006
-0.124739
-0.122454
-0.148449
-0.146664
-0.121491
-0.117343
-0.147917
-0.123841
-0.132926
-0.145814
-0.14779
-0.118464
-0.13093
-0.143167
-0.136542
-0.146921
-0.148479
-0.144534
-0.136778
-0.151397
-0.125789
-0.149049
-0.146829
-0.141138
-0.129341
-0.153404
-0.150783
-0.115299
-0.143893
-0.135044
-0.126036
-0.119511
-0.148494
-0.142566
-0.108278
-0.133129
-0.131567
-0.118152
-0.115524
-0.141328
-0.140163
-0.104273
-0.132157
-0.137119
-0.115129
-0.11587
-0.140555
-0.144697
-0.107052
-0.139798
-0.150846
-0.116849
-0.121973
-0.147091
-0.156203
-0.113527
-0.112962
-0.131205
-0.0966628
-0.107791
-0.110847
-0.129009
-0.133239
-0.13817
-0.154645
-0.113016
-0.130606
-0.135881
-0.153552
-0.147773
-0.160532
-0.171975
-0.136683
-0.152694
-0.159859
-0.170981
-0.152889
-0.17538
-0.186269
-0.155778
-0.157178
-0.173369
-0.179218
-0.147541
-0.190685
-0.201603
-0.155995
-0.151792
-0.181352
-0.185845
-0.146646
-0.20573
-0.222155
-0.15067
-0.149797
-0.188074
-0.20084
-0.155806
-0.229184
-0.247973
-0.15056
-0.157108
-0.207827
-0.226985
-0.173025
-0.254122
-0.271175
-0.160461
-0.171634
-0.233151
-0.248587
-0.0736327
-0.0641625
-0.0750057
-0.048106
-0.0468681
-0.0525846
-0.0556835
-0.0722386
-0.0761795
-0.0833078
-0.0450184
-0.0401208
-0.0559533
-0.0551579
-0.0718699
-0.0862054
-0.0828007
-0.0390344
-0.035896
-0.0535231
-0.045265
-0.0745658
-0.0799098
-0.0783454
-0.034062
-0.0242588
-0.0420733
-0.0310554
-0.0361249
-0.0750443
-0.0485325
-0.0204022
-0.0120518
-0.0267277
-0.0157885
-0.0147269
-0.0399752
-0.025321
-0.0107262
-0.00996329
-0.0137279
-0.0117834
-0.012184
-0.0232253
-0.0209455
-0.0103858
-0.0128253
-0.0121353
-0.0150841
-0.0153259
-0.0210918
-0.0241192
-0.0139403
-0.0179482
-0.0165578
-0.0219594
-0.0770697
-0.0792885
-0.0848329
-0.0578156
-0.0605745
-0.0648703
-0.0592835
-0.0861701
-0.0878501
-0.105577
-0.0607829
-0.059666
-0.0573599
-0.0548391
-0.0830845
-0.109182
-0.10184
-0.057752
-0.0474137
-0.0535882
-0.044689
-0.0703361
-0.0948677
-0.0763799
-0.0434528
-0.0318688
-0.0409627
-0.0315534
-0.0504422
-0.0748315
-0.0776151
-0.0279455
-0.0177164
-0.0294718
-0.0249398
-0.0325481
-0.0787068
-0.0780471
-0.0155734
-0.0132158
-0.0237047
-0.0222256
-0.0280735
-0.076502
-0.0708904
-0.0134899
-0.0165491
-0.0224831
-0.0262619
-0.0312011
-0.0700121
-0.0743651
-0.0181767
-0.0242999
-0.0285481
-0.0375841
-0.0831081
-0.0812088
-0.0831304
-0.0732168
-0.0586745
-0.0692459
-0.0650357
-0.111483
-0.0862161
-0.102174
-0.0555803
-0.0519794
-0.0639415
-0.0599421
-0.115375
-0.109367
-0.128378
-0.0512225
-0.0447589
-0.0587643
-0.0562131
-0.0945379
-0.131317
-0.130599
-0.0417712
-0.0337393
-0.0550241
-0.050293
-0.0910053
-0.128763
-0.121487
-0.0319381
-0.0282654
-0.0485766
-0.0428833
-0.0895518
-0.118431
-0.107788
-0.0275506
-0.0269701
-0.0410337
-0.0385375
-0.0845322
-0.10444
-0.100288
-0.0273565
-0.0316465
-0.0393438
-0.046806
-0.0905765
-0.101641
-0.111548
-0.0342125
-0.0439102
-0.0502328
-0.0578672
-0.0867959
-0.0595332
-0.0774423
-0.0616888
-0.0650098
-0.0495347
-0.0564142
-0.105702
-0.0871453
-0.106014
-0.0650164
-0.0619609
-0.0601309
-0.0621088
-0.129084
-0.110475
-0.117688
-0.0604364
-0.0569328
-0.0604364
-0.0524929
-0.134056
-0.116641
-0.100095
-0.0557261
-0.0505135
-0.048949
-0.0416519
-0.12216
-0.0929376
-0.0752436
-0.0483771
-0.0417924
-0.0405907
-0.0417069
-0.102515
-0.0715718
-0.0707549
-0.0401421
-0.0399812
-0.0437783
-0.0533497
-0.0975637
-0.074634
-0.0921189
-0.0418647
-0.0516631
-0.0575771
-0.0682871
-0.113753
-0.100144
-0.118633
-0.055221
-0.0609402
-0.0711897
-0.0743118
-0.0335769
-0.0370664
-0.0418332
-0.0207679
-0.0180385
-0.0241915
-0.0225508
-0.0272508
-0.0416767
-0.0403213
-0.0171872
-0.0146496
-0.0218309
-0.0188648
-0.0246606
-0.0388559
-0.0320664
-0.0137747
-0.0111587
-0.0176102
-0.0135837
-0.0157594
-0.0296043
-0.0211165
-0.010365
-0.00907168
-0.0122828
-0.00940363
-0.00945712
-0.0179885
-0.0114783
-0.00911537
-0.0103063
-0.00901787
-0.00975653
-0.0102529
-0.0106538
-0.0111179
-0.0109141
-0.0129866
-0.0104699
-0.0132865
-0.013733
-0.0119408
-0.0156078
-0.0137123
-0.0159201
-0.0143112
-0.017222
-0.0185483
-0.0171154
-0.0220705
-0.0166633
-0.0189138
-0.018094
-0.0203807
-0.0475807
-0.0431793
-0.0404163
-0.029718
-0.0257507
-0.0284293
-0.0219968
-0.0445671
-0.0404081
-0.0416572
-0.024451
-0.0202321
-0.0208487
-0.0183306
-0.0329967
-0.0406978
-0.0329856
-0.0186299
-0.0138995
-0.0172514
-0.013466
-0.0185748
-0.0268722
-0.029726
-0.0209695
-0.0264919
-0.0188243
-0.0208149
-0.0123624
-0.016076
-0.0190717
-0.0131669
-0.0169501
-0.0117797
-0.0135411
-0.0119684
-0.0174504
-0.0179626
-0.0108593
-0.0140055
-0.0142179
-0.0183608
-0.0167702
-0.0189193
-0.0241343
-0.015153
-0.0183222
-0.0198228
-0.0235502
-0.0240579
-0.0265443
-0.0344629
-0.0192292
-0.021442
-0.0244716
-0.0261091
-0.0347811
-0.0423468
-0.0457174
-0.0270832
-0.0201924
-0.0301164
-0.0252815
-0.038691
-0.0464991
-0.0459602
-0.0189666
-0.0168796
-0.0236504
-0.0198083
-0.032944
-0.0449298
-0.0411502
-0.016194
-0.0136409
-0.0189647
-0.0172878
-0.0231403
-0.0275303
-0.0338274
-0.0214587
-0.0318534
-0.0199253
-0.0244766
-0.0198903
-0.0209141
-0.0275551
-0.0169176
-0.0266477
-0.0165959
-0.0203089
-0.0212249
-0.0303275
-0.0314052
-0.0155398
-0.019932
-0.0211687
-0.0253173
-0.0283003
-0.0329962
-0.0403617
-0.0214817
-0.0252756
-0.0265067
-0.0282701
-0.0391151
-0.0428946
-0.0464205
-0.0261165
-0.0272379
-0.0281493
-0.0261717
-0.0503227
-0.0331835
-0.0407854
-0.0306382
-0.0265704
-0.0259394
-0.0249874
-0.0482218
-0.0437306
-0.0427299
-0.024925
-0.0206155
-0.0246619
-0.0225344
-0.0418141
-0.0410641
-0.0357119
-0.0196572
-0.0180292
-0.0217516
-0.0204257
-0.0357817
-0.0336154
-0.0294719
-0.0177964
-0.0181931
-0.0205752
-0.0228583
-0.0310794
-0.0291775
-0.0307197
-0.0187546
-0.0217073
-0.0239652
-0.0269858
-0.0333201
-0.0321757
-0.0376182
-0.0230068
-0.0268429
-0.0279997
-0.0302146
-0.0431192
-0.0397496
-0.044293
-0.0277571
-0.0284391
-0.0306524
-0.0303644
-0.0462173
-0.0451073
-0.0437243
-0.0279664
-0.0253861
-0.0298732
-0.0282264
-0.0131248
-0.0156378
-0.0163696
-0.0103961
-0.00924589
-0.0107736
-0.00976688
-0.010859
-0.0159807
-0.0139673
-0.00889705
-0.00858555
-0.00940669
-0.00853081
-0.00945974
-0.0131086
-0.0105355
-0.00875269
-0.0098909
-0.00839921
-0.00872643