/*--------------------------------*- C++ -*----------------------------------*\
  =========                 |
  \\      /  F ield         | OpenFOAM: The Open Source CFD Toolbox
   \\    /   O peration     | Website:  https://openfoam.org
    \\  /    A nd           | Version:  10
     \\/     M anipulation  |
\*---------------------------------------------------------------------------*/
FoamFile
{
    format      ascii;
    class       volScalarField;
    location    "4.1";
    object      k_0;
}
// * * * * * * * * * * * * * * * * * * * * * * * * * * * * * * * * * * * * * //

dimensions      [0 2 -2 0 0 0 0];

internalField   nonuniform List<scalar> 
12920
(
675.508
1452.78
1053.03
526.368
389.844
339.929
300.901
291.497
276.987
261.15
232.717
202.833
176.054
154.885
136.259
117.452
103.254
92.0348
85.5182
67.3738
1900.95
2563.1
1570.23
876.541
684.483
608.706
511.16
477.348
417.326
389.671
341.808
311.373
272.365
241.522
208.159
183.981
164.795
150.269
129.995
116.895
2127.07
4103.97
2102.2
1024.78
700.943
609.954
500.095
459.863
402.885
386.396
354.863
341.949
316.23
300.288
279.424
263.225
237.987
205.902
170.156
139.84
1540.09
2965.27
1909.06
973.759
620.903
511.696
399.902
361.635
321.739
318.063
312.743
311.103
303.369
297.071
288.739
275.325
246.928
207.982
175.01
148.105
2849.74
1709.49
990.368
583.49
562.59
439.649
367.662
313.755
275.285
261.765
252.168
255.317
257.148
259.554
256.845
244.942
219.097
191.072
174.249
150.223
7489.56
2988.47
1653.86
1079.04
844.825
609.47
520.464
394.767
317.998
265.403
232.263
218.389
211.428
211.077
208.936
202.069
189.843
171.31
156.539
130.546
1917.26
2531.65
1706.68
1285.03
1008.25
832.025
710.827
544.924
436.331
329.797
259.976
212.631
187.554
178.219
174.056
169.66
160.752
144.509
130.799
115.519
1035.81
1298.44
1317.85
1286.58
1071.57
941.336
641.522
403.528
307.199
265.778
217.368
167.716
126.529
102.693
171.354
153.572
138.241
121.136
108.088
100.882
474.16
852.952
1020.86
1087.51
907.212
435.573
245.173
122.465
157.861
174.021
170.799
144.994
118.059
92.2264
127.254
152.657
125.071
106.076
96.9662
92.6948
27.8444
483.128
945.928
1077.06
998.082
584.573
268.826
142.371
132.979
121.829
122.531
117.269
104.563
74.6487
129.525
142.028
116.984
104.038
99.648
92.7068
181.337
1246.43
1399.41
1144.7
815.798
442.243
235.032
160.274
198.583
194.489
171.947
135.631
115.441
110.656
81.7138
121.034
112.949
110.28
108.655
100.548
1431.63
2080.78
2114.63
1488.11
922.865
506.707
298.97
176.482
197.294
197.382
189.704
159.648
145.967
143.312
111.495
150.47
142.315
141.704
138.603
113.268
1793.33
2291.63
2187.15
1598.57
1010.54
777.169
462.82
313.022
283.555
252.037
198.623
165.993
168.37
165.864
202.278
174.737
171.364
170.416
164.757
130.608
1054.34
1694.56
1916.3
1614.63
1045.11
736.897
565.683
472.558
387.669
319.252
264.725
229.957
205.301
186.793
177.28
175.531
178.121
181.098
179.023
154.335
861.397
717.573
1423.25
1414.38
987.942
637.637
490.033
437.307
385.287
339.415
286.376
258.631
229.296
212.809
199.283
194.615
193.055
189.857
182.247
150.5
2902.54
2530.57
1859.18
1173.54
773.812
545.825
398.346
324.722
300.585
277.983
256.065
244.026
228.33
219.922
208.479
199.986
193.391
179.71
165.278
127.109
190.37
1290.39
1375.61
1135.74
688.699
492.521
331.266
255.905
219.919
207.79
201.962
199.266
198.082
195.088
188.537
177.875
164.649
141.679
123.724
102.328
1031.63
1555.51
1339.07
771.639
621.753
531.573
347.681
248.688
195.311
180.261
178.786
178.886
176.085
171.486
162.236
152.228
139.854
126.25
115.24
103.848
640.742
1374.19
1199.47
1018.56
785.731
714.538
540.249
390.823
242.481
170.042
141.312
139.17
142.075
141.837
137.737
130.603
122.058
113.483
106.877
104.367
26.6624
488.852
707.019
712.417
638.202
565.012
472.963
395.968
354.654
271.396
154.095
87.8484
70.7353
68.5274
68.0145
65.9939
63.908
61.1357
60.5516
59.6051
8821.83
5773
2900.73
1500.82
1034.84
802.372
707.951
682.199
645.353
596.426
508.472
429.312
362.341
315.428
271.242
239.184
224.878
209.777
184.27
137.138
11427.5
6464.33
3923.83
2065.9
1725.59
1524.22
1289.04
1221.24
1076.15
1008.86
871.257
786.227
674.961
603.114
530.007
484.817
447.559
423.451
402.154
388.978
10366.2
10682.7
4491.2
2389.2
1744.68
1523.72
1277.17
1184.25
1051.69
1007.62
917.279
873.782
799.79
758.67
704.944
671.895
623.994
573.011
503.138
448.793
10969
9914.89
4224.08
2233.49
1497.07
1315.67
1059.64
992.023
892.82
888.977
862.893
847.847
809.361
790.606
758.085
730.903
676.893
602.057
525.815
470.999
13593.5
4983.17
2744.46
1548.46
1537.44
1079.02
971.122
837.957
748.135
736.945
717.059
730.969
727.269
725.403
708.97
677.956
629.897
570.162
520.918
467.972
12687.7
6412.88
4204.25
2642.41
1820.47
1419.24
1211.49
983.038
802.933
716.515
641.19
621.083
603.335
598.352
586.813
568.284
540.577
497.455
449.116
390.81
14078.4
5754.73
3744.11
3182.44
2375.06
2046.58
1632.64
1314.82
1007.17
794.821
646.984
564.784
515.586
499.214
486.296
469.836
446.031
408.837
373.898
350.155
8805.39
4556.22
2906.05
3015.75
2612.4
2296.42
1903.54
1642.42
1200.74
973.501
739.943
594.688
479.136
420.903
433.538
405.566
376.322
342.106
317.77
317.29
3400.32
2470.88
2615.46
2704.91
2063.96
1496.85
1420.35
1085.37
951.752
876.625
774.308
654.564
532.995
452.524
384.455
358.462
322.467
298.053
290.564
295.341
361.876
1271.23
2169.04
2698.83
2308.32
1797.8
1232.64
1005.38
870.412
789.748
732.912
642.443
523.576
417.173
347.423
321.528
302.314
296.135
293.491
291.3
995.922
2947.31
2852.16
2587.8
1818.42
1415.35
1125.4
1105.32
1073.37
944.971
781.791
607.357
530.262
410.625
278.42
298.258
309.762
318.43
316.78
295.761
6634.29
6103.6
4741.81
3064.37
2042.88
1552.83
1315.5
1264.34
1173.18
1003.78
878.403
749.786
653.772
494.064
365.141
391.993
390.966
387.469
370.053
300.014
4641.96
6035.3
5196.06
3389.06
2427.01
1985.07
1539.17
1310.06
1082.61
924.862
728.692
638.633
578.229
513.463
483.372
475.976
471.521
460.84
433.537
340.386
7841.37
7001.53
5305.22
3648.35
2519.93
1958.18
1576.4
1301.17
1050.87
856.957
712.752
629.797
562.675
521.238
504.909
508.177
518.948
515.583
498.259
417.225
1279.64
2686.79
4080.69
3914.01
2578.75
1765.47
1397.79
1228.91
1030.96
907.507
778.815
720.367
643.252
607.55
575.946
567.632
560.769
543.327
510.935
415.788
17005.5
8377.26
4900.48
2934.44
1885.08
1468.61
1162.04
1020.59
899.226
815.189
735.447
703.099
650.218
627.469
589.443
566.906
540.845
500.438
453.081
359.053
6271.37
6416.9
4064.97
2593.31
1472.86
1200.45
857.74
766.033
680.174
636.489
604.736
589.061
569.213
548.571
514.249
479.966
439.489
392.746
349.057
303.12
3823.23
6288.92
3219.15
1709.92
1298.52
1083.62
731.055
652.286
543.493
528.355
513.429
506.341
486.061
467.449
437.354
413.679
384.91
359.955
335.687
313.646
9005.22
5863.14
3048.51
2195.97
1385.73
1227.89
831.126
731.319
481.643
409.999
380.052
391.159
389.375
381.955
364.885
352.276
335.632
323.406
314.22
313.902
1657.08
2068.65
2064.27
1776.18
1294.44
908.964
644.529
460.801
350.456
236.262
160.272
148.181
153.462
156.754
155.869
149.039
143.404
137.486
137.46
137.294
5300.63
4852.22
3220.26
2141.4
1446.66
1030.58
853.915
797.26
724.984
638.794
538.041
453.72
388.871
340.805
302.1
270.58
244.462
213.338
182.46
153.898
12781.8
7830.52
4737.35
2947.11
2354.95
1996.66
1698.6
1575.94
1365.49
1247.23
1056.49
937.103
800.649
721.236
643.351
600.624
565.23
543.851
537.464
541.421
26009.8
15008.8
5557.9
3021.27
2397.98
1985.27
1715.37
1543.16
1381.67
1282.48
1147.79
1064.1
962.869
899.789
832.652
787.793
737.012
693.621
653.741
626.435
23301.8
14044.2
5273.72
2764.13
2197.26
1795.3
1548.83
1387.49
1259.52
1201.13
1113.34
1062.44
990.688
946.227
890.348
842.659
784.348
726.559
681.641
640.169
14150
7516.52
3916.38
2356.49
2164.47
1547.75
1472
1262.49
1121.73
1056.2
985.809
961.193
913.221
885.104
838.96
797.065
749.491
702.563
667.882
624.284
12377.6
7863.81
5521.63
3200.75
2455.83
1832.01
1643.5
1355.83
1123.53
997.106
882.864
837.213
789.252
761.187
727.406
696.259
662.537
621.953
586.218
548.045
27516.2
6965.47
5383.8
3875.07
2974.43
2302.75
1982.96
1556.07
1223.16
992.687
837.025
751.122
688.717
658.185
627.088
599.769
571.04
541.286
521.05
507.711
9622.73
7155.98
5591.03
4576.39
3307.14
2758.45
2379.7
2028.4
1463.88
1181.61
905.658
751.651
644.648
586.377
558.494
529.168
506.007
487.723
481.721
485.619
3246.72
4364.43
4427.16
3785.63
2602.74
2168.21
2116.66
1623.66
1332.16
1145.83
957.304
798.044
662.513
576.103
503.601
474.963
456.194
448.427
449.896
460.209
1196.24
4047.58
4227.98
3988.25
2898.53
2344.73
1817
1482.59
1261.19
1117.68
975.472
813.398
654.402
538.698
454.657
441.46
434.765
433.123
433.697
438.697
7626.56
6721.85
4466.57
3436.84
2514.33
2064.06
1798.33
1614.35
1414.62
1235.29
798.671
564.494
555.987
464.196
400.57
440.946
448.386
446.91
437.008
418.443
3661.58
6325.12
6001.89
4129.34
2890.92
2333.72
2066.57
1868.45
1533.62
1256.94
1069.54
908.765
737.538
559.576
518.999
539.186
526.129
497.726
451.182
396.445
5640.12
7593.61
6635.04
4297.39
3237.29
2639.79
2197.84
1786.16
1391
1137.46
932.27
829.723
741.318
667.221
657.216
636.72
609.56
561.226
501.619
418.693
2359.01
6448.64
6725.88
4908.16
3384.3
2549.3
2016.2
1589.65
1277.44
1080.68
936.448
858.716
787.227
746.645
718.971
698.16
672.275
626.243
574.139
477.884
597.861
2796.78
5585.25
5333.82
3459.55
2253.54
1779.03
1491.31
1253.95
1117.69
1005.29
941.44
870.31
821.69
773.784
736.394
696.433
639.11
579.897
479.543
16066.1
10387.8
6362.32
3804.66
2546.13
1871.78
1539.65
1300.86
1157.24
1051.37
975.607
919.829
857.925
806.845
750.051
700.78
647.541
582.582
520.848
440.706
21940.5
12154.9
5420.1
3062.44
1950.2
1454.69
1206.31
1036.8
962.846
883.526
845.853
794.157
749.093
697.027
642.661
591.067
540.565
491.296
452.18
413.653
24278.8
14982.9
4857.43
2218.83
1556.7
1142.43
980.775
847.466
799.957
740.833
712.372
672.921
634.036
598.615
560.849
531.819
502.759
479.923
459.626
444.34
14495.7
8851.81
3882.99
2538.19
1545.21
1174.53
790.931
700.525
604.698
564.487
550.939
538.185
517.897
501.552
482.41
471.008
459.48
454.843
453.202
459.667
3281.53
2836.86
2483.15
2022.05
1410.74
847.262
487.538
322.689
259.615
217.843
202.824
202.104
202.961
200.017
196.489
187.614
186.283
184.701
186.965
186.137
1262.01
3092.02
2808.12
2156.8
1507.41
1086.54
904.04
805.131
705.764
588.518
489.248
409.934
354.806
310.383
276.084
243.787
216.047
191.156
172.749
160.938
12680.6
6476.92
4953.36
3406.37
2869.67
2275.88
2043.65
1789.28
1577.89
1364.42
1151.11
989.837
855.146
775.712
711.021
677.751
658.418
654.138
658.77
678.973
38101.5
13409.8
5866.96
3550.62
3008.45
2311.3
2100.8
1789.59
1647.71
1453.5
1305.89
1166.11
1056.82
970.938
905.064
857.304
820.545
792.197
774.317
768.387
15028.7
12791.1
6115.77
3402.5
2814.03
2160.56
1965.51
1674.01
1558.74
1407.69
1297.63
1188.35
1100.04
1024.66
960.554
904.563
857.808
816.49
791.108
769.754
21095.6
9180.32
5041.81
3178.08
2725.07
1958.58
1893.76
1559.26
1420.03
1270.83
1182.43
1100.42
1032.51
972.586
918.473
870.505
831.69
795.157
771.706
745.694
14042.1
9057.67
6259.23
3649.92
3025.08
2145.06
2005.37
1631.89
1378.74
1189.96
1065.24
984.843
918.436
868.039
822.986
784.41
751.852
718.505
696.065
676.367
16782.2
8954.1
6416.47
4226.31
3487.84
2448.67
2244.83
1706.03
1388.39
1127.59
982.101
882.74
814.858
769.287
729.272
698.178
674.554
654.538
645.345
640.452
12769
11763.2
7937.87
5488.22
4011.84
3058.44
2608.64
2158.09
1568.18
1258.84
995.6
847.283
752.547
692.476
657.797
635.266
623.29
618.477
620.078
627.306
18693.5
8401.24
6430.61
4306.64
3134.12
2605.94
2484.24
1901.63
1516.91
1255.36
1018.64
848.571
727.863
651.837
594.485
585.711
582.903
584.059
590.727
605.487
17479.5
9035.76
6507.07
4715.2
3423.29
2730.95
2178.68
1763.79
1475.75
1263.09
1043.51
836.485
690.901
606.604
553.116
557.283
556.467
557.578
562.354
576.448
13357.1
8776.53
5740.12
3964.12
3151.87
2544.89
2210.72
1877.28
1572.81
1339.45
899.021
590.883
547.162
536.282
524.68
564.44
560.411
550.223
540.28
537.552
8430
9603.05
7669.12
4610.16
3597.32
2939.78
2584.38
2139.11
1647.28
1328.48
1109.15
911.928
738.405
654.969
632.315
643.456
607.192
560.99
520.787
494.019
9126.34
10520.3
8787.56
5063.06
4021.5
3162.36
2617.2
1974.97
1507.23
1217.46
1042.07
936.51
852.805
789.316
790.436
738.287
678.466
605.981
545.616
494.722
7201.43
7641.53
7844.61
5540.96
4084.66
2909.72
2307.89
1751.67
1437.13
1229.64
1112.42
1030.77
971.497
919.162
869.842
810.806
747.642
671.119
603.431
532.366
5825.9
8622.86
8955.48
6386.73
4010.24
2553
2073.47
1657.35
1436.97
1271.93
1185.57
1100.37
1036.6
964.432
899.416
828.246
758.755
677.023
607.041
531.318
19210.1
9936.61
7283.53
4194.34
3075.51
2121.38
1826.86
1477.86
1364.28
1217.37
1160.17
1065.45
1004.76
917.307
847.871
768.492
700.309
625.45
567.451
510.586
13540.5
10256.8
6285.3
3496.01
2445.45
1724.72
1508.88
1241.64
1185.93
1059.25
1021.92
927.682
871.317
786.691
726.843
663.775
616.578
571.122
539.766
511.871
49202.2
12194.5
5218.53
2652.92
1869.08
1374.35
1233.51
1034.11
1000.41
893.087
863.151
787.655
746.902
693.076
660.131
629.142
607.862
590
575.846
569.214
25311.3
10197.5
4618.62
2694.67
1702.61
1196.28
903.03
788.307
751.151
673.235
672.612
637.507
620.201
595.683
586.03
579.905
580.327
583.059
589.09
605.344
5077.72
4475.9
2703.36
1896.41
1265.37
688.574
400.971
303.064
264.268
241.765
235.166
222.516
216.91
205.861
200.976
191.559
192.106
190.978
193.637
191.208
339.581
2269.96
2502.11
2118.61
1432.7
1037.17
849.999
716.754
587.447
463.963
372.223
298.445
248.931
211.783
189.31
173.562
165.275
160.527
158.125
158.122
9472.83
6919.87
6395.71
4008.81
4053.21
2747.35
2813.4
2190.75
2078.45
1606.14
1428.72
1127.18
1037.89
915.003
886.682
854.592
863.1
872.303
902.437
950.338
21570.3
12830.6
7839.69
4370.39
4212.65
2802.56
2891.52
2225.36
2212.72
1809.59
1702.31
1420.93
1339.01
1187.06
1143.13
1075.04
1060.56
1035.21
1038.17
1053.32
16651
15054.9
8433.55
4361.97
4031.58
2704.71
2783.7
2170.18
2154.14
1812.05
1723.07
1483.14
1404.19
1260.86
1204.23
1124.63
1093.88
1053.82
1045.44
1045.09
14862.4
11528.8
6829.02
4213.25
3689.79
2502.28
2679.77
1974.48
1993.34
1657.51
1603.85
1402.6
1344.53
1218.29
1172.49
1100.06
1074.03
1032.88
1020.87
1011.93
11575.8
9862.95
7922.84
4318.51
4205.71
2698.43
2824.1
2119.12
1931.38
1555.18
1459.1
1291.61
1221.48
1128.62
1076.77
1019.73
989.721
954.642
941.861
939.267
22412.5
11966.5
7643.31
4732.37
4500.45
2813.26
2949.55
2091.83
1862.01
1440.15
1342.44
1168.74
1111.13
1025.56
980.81
936.153
919.912
898.258
896.422
901.122
56263.1
21460.2
12621.2
6612.63
5652.58
3687.8
3079.82
2361.08
1821.79
1418.59
1192.38
1021.23
935.932
862.568
917.793
884.227
874.973
871.109
875.657
889.487
38697.2
13189.8
9106.58
4792.98
4069.44
3068.7
2928.06
2183.67
1739.86
1383.64
1127.32
953.115
862.005
797.066
777.562
842.416
834.65
834.174
844.483
865.051
21009.3
12267.8
10019.2
5518.74
4742.41
3288.65
2654
2114.68
1730.71
1384.26
1075.12
853.884
792.639
765.834
748.432
802.643
792.183
791.015
802.139
827.315
28268.1
11728.3
8274.5
4508.81
4255.46
3112.13
2673.91
2193.49
1794.33
1424.45
1038.24
711.879
674.439
716.34
729.825
800.872
775.13
758.246
759.375
769.164
9276.89
11711.2
10222.5
5297.21
4942.31
3690.23
3204.41
2424.15
1813.77
1426.17
1159.79
943.878
860.581
826.113
818.737
861.943
789.882
731.843
709.699
702.703
12724.4
14051.1
11775
6000.51
5569.58
3961.05
3171.6
2221.52
1742.52
1394.57
1256.86
1129.98
1066.31
993.854
1065.55
947.386
847.099
756.745
709.647
683.514
9996.08
10037.2
10134.1
6152.45
5436.74
3391.36
3001.66
2119.84
1885.41
1558.93
1507.82
1364.7
1330.92
1230.31
1152.17
1028.23
930.855
820.075
754.268
705.509
13283
13223.6
13058.4
7443.57
5402.79
3078.29
2854.33
2082.63
1930.71
1622.15
1582.28
1429.97
1377.31
1246.9
1161.09
1031.61
936.826
825.548
757.304
701.078
26589.9
12397.1
9158.79
4746.14
4207.05
2482.47
2482.79
1820.69
1823.14
1548.91
1541.68
1366.84
1320.22
1160.41
1085.33
949.7
879.556
786.249
739.314
697.503
19948.3
11564.3
8315.26
4200.16
3568.63
2203.43
2166.09
1613.11
1631.73
1372.63
1373.65
1193.49
1146.1
1000.37
949.88
855.822
822.48
767.149
745.787
724.657
19732.7
10057.6
6582.77
3565.43
2595.89
1846.48
1754.63
1341.35
1382.46
1149.63
1172.65
1024.16
1007.54
912.086
899.752
851.717
847.533
824.613
821.077
819.933
16869.1
9818.11
5457.87
3007.88
2207.5
1437.11
1292.97
1060.01
1069.34
882.987
940.135
838.532
855.445
803.293
818.16
804.198
827.224
829.874
849.776
867.717
6240.85
3755.1
2431.79
1668.56
972.587
527.151
342.276
304.136
273.558
245.911
232.675
215.025
204.156
194.586
188.818
184.138
183.366
182.4
182.07
179.308
1015.77
1209.73
900.404
1239.19
1091.59
1292.68
931.992
852.919
793.81
618.371
1037.88
884.808
790.091
589.7
915.737
1264.6
1118.21
1323.78
943.046
1331.45
1162.28
607.176
1069.59
929.864
801.794
568.125
1104.25
932.169
121.148
241.825
148.439
1110.37
948.499
945.953
859.175
150.868
144.825
138.122
896.261
831.004
837.383
757.962
169.81
130.043
123.306
813.436
777.374
726.799
677.827
174.676
124.493
130.094
771.153
722.105
671.794
649.634
150.264
130.648
129.545
694.945
613.791
637.335
590.47
125.85
127.328
115.342
589.698
506.429
569.918
494.947
96.5749
106.64
81.4247
478.277
417.19
462.036
394.902
60.9749
81.5555
73.8275
401.471
355.273
386.202
350.365
147.877
251.024
147.761
927.853
852.093
863.827
854.845
139.267
149.788
174.913
831.628
761.067
862.235
873.67
121.971
178.703
179.515
730.491
674.962
867.218
811.948
122.849
177.054
162.768
666.387
642.278
786.023
708.599
119.54
156.345
131.748
630.026
582.203
672.696
563.893
109.32
124.374
108.97
561.777
493.705
534.211
483.135
75.6662
108.406
107.414
461.652
374.418
480.251
425.76
69.5046
100.319
41.5772
363.206
336.69
353.808
265.323
155.882
273.628
182.035
836.177
897.337
935.679
1011.69
193.773
177.573
196.774
920.259
945.522
1025.58
1039.1
197.817
206.353
209.318
937.891
865.979
1025.89
930.198
178.666
206.622
195.794
835.215
741.744
898.502
816.526
143.788
192.457
174.122
703.433
585.49
790.177
698.142
117.146
163.117
143.237
551.795
484.594
667.49
600.364
114.538
143.459
145.915
479.552
449.256
581.191
505.354
47.0236
142.534
68.7122
393.654
251.702
456.965
266.058
187.966
376.016
212.551
971.418
1025.28
1002.88
1025.96
189.337
198.826
187.711
1033.58
1036.28
1011.28
944.608
198.975
187.941
181.797
1016.24
917.228
912.581
836.963
191.653
176.992
160.345
888.588
813.623
812.32
720.294
172.219
151.601
123.354
788.196
697.605
685.824
589.88
144.432
118.545
121.261
669.409
612.252
575.28
547.797
147.252
126.691
127.761
594.655
512.935
539.358
488.1
75.9207
124.987
83.2334
468.186
292.196
465.416
404.585
1149.79
1243.32
1043.57
1966.69
1613.93
1752.98
1453.41
983.474
1007.95
902.024
1520.73
1323.99
1390.05
1228.71
889.372
866.752
803.877
1260.48
1130.41
1181.83
1079.13
807.716
792.539
753.505
1097.21
973.464
1052.72
964.437
682.27
735.52
672.023
926.94
809.6
930.643
825.204
563.228
646.839
558.617
774.542
670.431
788.944
674.852
469.563
523.647
452.394
639.353
572.217
638.386
557.156
392.52
438.606
380.309
552.455
499.175
534.567
467.523
1039.54
1156.94
1048.34
1692.84
1447.01
1640.86
1483.27
905.536
1042.3
1019.09
1388.08
1230.44
1444.87
1331.47
802.821
1002.54
927.544
1184.37
1082.4
1291.49
1167.07
750.872
899.179
801.408
1056.34
970.263
1143
929.413
667.552
755.66
627.814
935.168
825.101
843.07
663.696
559.211
594.567
541.624
788.681
674.312
631.666
606.173
433.013
536.544
450.41
634.766
541.413
598.744
498.083
368.772
389.069
299.113
517.631
456.667
462.943
393.726
1098.71
1263.18
1248.32
1646.02
1550.03
1842.65
1769.24
1093.66
1248.17
1212.44
1516.5
1398.54
1726.73
1547.72
979.899
1179.79
1050.6
1352.4
1207.83
1475.42
1276.35
830.383
1011.47
912.037
1173.77
947.694
1223.42
1086.16
644.56
880.064
776.913
854.81
663.829
1041.17
911.116
536.585
744.515
663.479
620.217
572.038
870.404
742.757
477.421
636.457
532.296
568.34
490.832
696.184
545.788
284.313
474.007
299.906
451.231
380.222
495.313
425.801
1270.07
1411.63
1298.64
1893
1806.13
1987.72
1826.81
1211.8
1254.24
1123.81
1756.98
1553.34
1734.01
1463.06
1040.57
1075.26
966.746
1474.91
1269.95
1381.85
1200.75
909.604
932.299
818.064
1216.76
1083.1
1148.33
994.285
778.955
777.967
677.41
1040.59
923.741
949.13
848.537
679.396
660.058
618.812
888.418
776.393
826.43
755.831
546.44
603.741
538.69
732.375
587.621
729.064
644.879
326.611
512.897
442.956
541.121
460.028
620.114
571.376
1721.44
1884.37
1555.95
2394.96
1960.38
2187.54
1797.63
1403.92
1485.84
1309.54
1846.82
1568.73
1710.32
1491.03
1184.44
1258.69
1143.3
1481.82
1291.66
1428.3
1275.12
1006.99
1112.09
1008.42
1237.07
1063.56
1229.04
1081.66
834.403
969.949
852.967
1009.07
877.349
1031.23
888.212
693.129
813.981
695.61
839.206
740.133
844.388
727.06
595.885
659.732
577.865
712.988
651.668
696.192
623.862
522.562
554.62
487.092
633.192
589.344
603.205
550.382
1547.61
1774.8
1590.1
2094.51
1784.27
2068.19
1830.29
1310.58
1542.8
1404.78
1702.98
1491.92
1760.25
1562.79
1147.97
1358.61
1224.06
1432.18
1284.07
1502.41
1343.08
1148.84
1087
1136.04
1167.92
1103.65
1132.21
1185.85
946.438
934.526
970.594
1005.31
923.055
959.994
998.549
693.171
598.01
602.085
838.628
717.112
584.149
590.434
562.784
597.253
509.46
684.499
609.239
585.684
543.996
476.376
480.504
415.385
588.801
540.743
529.319
491.648
1659.21
2012.79
1893.2
2118.85
1898.5
2385.77
2156.11
1467.34
1835.11
1614.43
1824.96
1609.29
2051.55
1730
1260.59
1533.24
1319.9
1541.97
1364.04
1631.62
1392.76
1226.18
1166.57
1249.09
1268.72
1196.41
1106.46
1287.95
835.419
715.704
938.359
597.055
862.075
524.073
919.336
555.085
885.044
743.148
537.113
536.306
876.032
714.813
493.979
693.11
548.306
539.002
523.522
671.877
591.366
402.074
508.803
457.698
513.57
484.603
578.458
557.303
1934.02
2166.48
1952.14
2460.77
2206.42
2549.08
2205.78
1621.15
1842.83
1533.65
2090.3
1736.01
2052.42
1656.08
1313.34
1444.33
1245.16
1630.54
1382.97
1552.46
1316.76
1114.42
1188.89
1029.17
1319.67
1157.99
1253.73
1092.82
946.929
983.903
883.794
1107.45
965.149
1050.31
950.923
784.365
860.149
783.703
918.268
777.498
923.852
841.535
597.854
754.717
671.787
735.41
646.217
813.074
744.855
492.723
648.634
600.376
628.878
589.242
727.101
689.751
2020.53
2266.21
1864.63
2759.37
2225.88
2559.94
2105.09
1607.06
1771.64
1537.46
2077.94
1741.05
1989.45
1701.21
1314.99
1470.76
1304.03
1647.35
1401.52
1620.19
1395.22
1073.51
1252.34
1090.83
1321.81
1122.88
1320.9
1112.39
886.445
1037.23
889.06
1070.1
937.186
1050.64
893.689
753.507
844.824
732.755
899.811
821.549
852.731
774.997
669.482
704.728
639.149
801.776
751.72
759.71
721.493
609.023
620.386
571.072
735.812
699.398
708.846
672.184
1850.31
2156.06
1893.26
2480.09
2091.68
2458.31
2120.65
1539.11
1816.32
1602.74
1983.3
1708.25
2021.7
1758.17
1313.82
1538.47
1368.43
1628.97
1403.77
1676.54
1443.22
1100.51
1313.31
1022.95
1329.13
1116.25
1363.28
1103.8
883.365
898.299
661.645
1049.36
876.304
1002.39
752.696
719.999
630.73
594.658
831.346
751.207
699.406
637.972
624.655
588.337
559.986
738.731
708.634
639.61
652.74
562.072
549.415
517.399
698.032
665.916
651.546
634.056
1958.82
2501.69
2218.59
2507.89
2173.24
2860.58
2430.41
1643.69
2099.27
1751.32
2067.65
1784.29
2267.63
1849.23
1385.63
1649.54
1404.73
1697.13
1454.09
1737.15
1459.14
1026.29
1340.89
1164.36
1376.37
1108.38
1381.24
1174.13
635.625
1103.87
922.931
1003.8
737.792
1106.16
907.437
546.642
864.294
709.094
678.722
613.465
849.303
745.542
542.173
673.118
615.662
617.289
643.417
734.146
722.401
511.67
606.78
583.836
644.095
631.145
716.953
691.035
2271.4
2676.36
2264.37
2988.79
2490.26
3083.86
2451.17
1755.91
2096.98
1678.77
2305.91
1845.99
2239.28
1769.61
1393.78
1572.32
1329.39
1728.11
1447.15
1660.22
1393.09
1161.1
1265.27
1106.79
1370.19
1179.26
1323.76
1174.05
960.683
1065.29
966.312
1121.84
958.901
1136.87
1036.09
775.057
938.429
858.418
910.203
814.571
1006.69
940.213
668.514
831.306
769.448
797.892
768.336
919.954
871.482
614.961
752.913
714.964
758.286
718.545
855.459
815.206
2344.55
2713.39
2242.13
3810.82
3147.07
3728.2
3314.44
1833.19
2116.73
1806.7
2972.47
2748.18
3163.03
2836.65
1471.8
1719.68
1464.1
2685.56
2268.43
2741.97
2311.71
1179
1378.27
1148.22
2153.35
1995.56
2178.75
1879.45
990.911
1082.74
922.224
1958.37
1758.45
1803.24
1618.61
879.826
883.666
825.899
1721.51
1681.65
1597.83
1675.41
812.796
816.389
786.69
1681.23
1614.24
1682.21
1658.95
755.079
775.284
733.673
1608.6
1568.85
1653.28
1635.31
2231.35
2629.55
2257.47
3754.03
3370.12
3703.3
3426.44
1817.36
2151.03
1867.08
3221.3
2886.78
3306.32
2965.13
1470.5
1775.75
1505
2758.83
2314.73
2806.94
2347.24
1146.26
1412.47
1135.97
2177.43
1847.86
2196.72
1814.45
896.453
1034.87
781.002
1758.44
1549.84
1692.01
1383.37
795.913
727.652
680.931
1524.39
1618.31
1342.23
1453.03
774.83
691.338
722.578
1663.03
1658.06
1550.23
1627.03
727.531
722.303
697.627
1653.69
1625.71
1627.63
1598.24
2305.48
3055.71
2562.83
3627.78
3437.72
4151.7
3685.49
1889.95
2385.7
1942.7
3324.72
2980.77
3474.64
2982.78
1515.27
1824.43
1521.12
2820.3
2357.97
2820.93
2354.9
1142.12
1434.05
1208.64
2210.51
1825.82
2226.64
1931.71
769.917
1136.72
931.387
1699.56
1377.16
1844.79
1604.98
661.922
875.558
798.017
1331.91
1440.03
1564.74
1629.22
715.178
796.119
792.772
1537.25
1616.24
1672.97
1659.86
695.027
786.57
750.714
1617.89
1595.06
1654.05
1621.7
2625.1
3306.09
2566.89
4473.83
3745.94
4483.76
3399.76
1935.24
2337.71
1850.21
3485.53
2932.09
3142.64
2699.67
1510.54
1740.49
1459.99
2798.56
2340.02
2621.61
2233.55
1220.16
1387.3
1237.93
2220.08
1966.42
2152.56
2038.57
990.905
1202.03
1098.28
1898.62
1703.85
2029.75
1875.22
870.558
1067.88
1005.18
1672.05
1725.5
1852.04
1801.52
836.757
986.7
938.793
1725.84
1689.92
1806.11
1728.74
778.14
921.875
873.029
1681.03
1658.61
1724.28
1677.57
1104.68
1053.73
1018.82
1050.47
1064.55
1093.74
1052.49
1172.03
1162.63
1151.54
1246.22
1129.75
1210.7
1117.77
1099.93
993.666
1035.53
720.843
1069.6
1011.35
902.23
1184.17
1208.03
1192.88
1255.52
1167.18
1225.18
1209.47
1135.92
1075.45
1144.21
1094.84
1123.64
1078.02
1157.11
1204.89
1268.53
1275.15
1228.98
1247.42
1128.71
1228.68
1129.33
717.244
1065.27
1105.21
1036.2
905.498
1154.55
897.796
893.667
837.201
871.15
878.978
915.296
851.582
871.238
922.594
697.086
609.232
862.215
933.103
517.162
809.922
769.613
633.406
509.79
808.746
772.072
484.548
962.194
1025.77
985.345
1031.09
976.563
1018.67
970.683
908.967
881.262
934.261
860.826
928.398
858.601
914.058
885.567
598.197
979.059
692.849
952.58
508.72
905.697
821.571
485.102
789.848
635.67
778.375
473.307
841.938
1126.13
1046.86
1024.29
725.196
1115.29
897.155
1018.06
1243.22
1261
1214.89
1295.19
1211.4
1294.51
1243.32
1184.51
1098.2
1166.72
1140.77
1157.33
1119.02
1192.56
1252.52
1294.53
1258.96
1333.01
1141.75
1315.47
1273.57
1145.43
722.38
1113.51
1067.06
911.625
1027.61
1179.17
1266.3
1316.89
1335.52
1275.32
1319.12
1263.05
1280.27
1203.67
1155.04
1141.34
1219.62
1132.75
1209.83
1215.35
771.828
638.456
735.576
471.274
796.486
459.77
693.95
988.205
1037.35
1021.67
1088.77
978.798
1052.19
1037.55
928.105
868.125
975.39
938.086
923.94
865.989
987.672
825.381
588.142
697.5
956.89
504.668
918.427
857.326
754.391
444.876
611.561
691.979
436.354
670.121
772.583
991.171
1099.89
1065.81
1046.37
1060.73
1045.22
991.455
924.919
938.064
849.48
989.091
857.704
991.54
919.541
490.801
579.689
436.402
1047.47
1146.01
1014.02
1007.59
344.977
364.321
321.883
1141.05
1054.54
959.176
871.512
278.066
291.949
283.062
919.605
837.345
785.836
758.672
245.579
276.961
267.698
769.54
673.251
725.263
677.443
191.887
246.318
227.698
583.887
523.038
610.839
563.819
147.239
203.054
180.489
461.452
398.876
508.832
457.803
109.362
160.518
142.108
344.46
315.294
403.263
375.08
80.5798
130.009
95.0446
283.438
299.634
322.109
322.306
331.752
462.277
357.827
846.874
891.064
880.273
880.889
371.66
167.366
217.902
422.772
443.17
356.264
175.735
405.841
125.964
138.838
444.34
442.94
402.43
138.852
414.07
160.826
139.578
459.692
461.799
407.286
143.941
439.677
175.368
162.252
475.048
475.481
437.8
165.031
412.01
162.799
163.036
447.157
429.392
423.603
158.655
360.177
138.317
144.631
381.657
364.294
374.545
139.134
285.488
109.639
120.244
306.377
287.661
307.446
110.474
248.08
87.8945
94.3326
245.579
236.657
251.197
93.2042
96.5784
139.447
92.3915
278.975
275.942
284.529
283.064
417.592
555.899
390.601
975.725
884.831
941.083
816.986
355.587
205.642
264.961
384.872
371.413
372.339
199.212
396.694
141.474
138.918
388.822
398.366
382.276
139.768
383.294
126.765
141.247
373.599
356.056
390.988
140.181
361.729
122.371
134.468
341.142
342.144
364.149
133.299
335.388
121.45
124.791
340.209
336.797
341.991
121.633
302.067
114.222
114.505
319.561
309.411
312.148
111.158
263.595
93.3684
105.302
270.949
240.903
280.54
101.293
180.702
76.025
69.1379
200.968
205.853
180.772
68.2655
92.4679
104.221
84.1876
265.608
272.114
231.66
238.627
343.765
451.956
371.124
777.239
731.254
768.488
772.835
358.489
182.89
244.223
339.759
342.444
348.342
201.023
508.259
172.719
172.389
450.911
492.837
468.027
179.05
573.84
199.728
206.789
546.75
545.858
573.612
208.499
525.008
189.881
203.323
512.542
496.021
541.087
199.2
452.813
163.37
184.419
438.44
414.155
474.027
177.451
354.382
128.286
151.035
339.362
320.088
376.738
141.907
320.472
115.453
127.238
290.106
292.7
320.183
127.519
248.503
93.5474
124.267
273.449
207.532
302.335
109.542
65.3099
83.4499
61.4424
193.388
203.575
194.871
206.214
414.757
562.878
480.027
832.453
826.925
851.749
832.898
424.062
248.059
305.153
413.426
415.731
421.582
253.817
476.032
176.637
171.766
458.019
489.186
448.502
169.999
526.057
200.242
182.322
561.456
562.332
527.231
183.66
503.711
195.679
182.919
538.115
529.107
508.853
182.671
466.269
187.334
179.67
500.18
488.71
479.977
176.792
380.049
149.66
145.75
419.938
400.498
393.413
139.646
373.513
148.853
144.754
382.629
379.201
375.342
146.912
307.652
130.927
140.338
342.176
309.108
332.56
128.758
68.8265
146.259
106.14
246.639
249.082
313.982
322.017
353.403
482.387
376.73
780.947
830.506
792.425
820.896
303.032
337.343
324.995
834.466
810.427
788.304
691.761
268.627
295.39
258.288
763.717
744.883
650.976
623.915
230.391
227.621
207.32
703.113
627.82
583.745
491.662
175.49
183.002
154.787
550.039
506.704
471.922
438.611