/*--------------------------------*- C++ -*----------------------------------*\
  =========                 |
  \\      /  F ield         | OpenFOAM: The Open Source CFD Toolbox
   \\    /   O peration     | Website:  https://openfoam.org
    \\  /    A nd           | Version:  10
     \\/     M anipulation  |
\*---------------------------------------------------------------------------*/
FoamFile
{
    format      ascii;
    class       volScalarField;
    location    "4.1";
    object      omega;
}
// * * * * * * * * * * * * * * * * * * * * * * * * * * * * * * * * * * * * * //

dimensions      [0 0 -1 0 0 0 0];

internalField   nonuniform List<scalar> 
12920
(
115.737
169.729
144.502
102.165
87.9227
82.1013
77.2445
76.0279
74.1114
71.9616
67.9313
63.4199
59.0852
55.4192
51.9803
48.2599
45.2491
42.72
41.1799
36.5511
194.152
225.444
176.456
131.838
116.503
109.865
100.678
97.2911
90.969
87.9032
82.3279
78.577
73.4905
69.2044
64.2471
60.4006
57.1647
54.5871
50.7714
48.1452
205.374
285.271
204.17
142.551
117.895
109.978
99.5822
95.4926
89.3812
87.533
83.8853
82.3449
79.1876
77.1658
74.4367
72.2469
68.696
63.8977
58.087
52.6588
174.754
242.487
194.565
138.957
110.96
100.731
89.0496
84.6819
79.8744
79.4167
78.7497
78.543
77.5606
76.7512
75.6673
73.8888
69.9746
64.2198
58.9098
54.1926
237.716
184.115
140.137
107.565
105.621
93.3702
85.3846
78.8771
73.8834
72.0462
70.7131
71.1534
71.408
71.7413
71.366
69.6926
65.9135
61.5537
58.7815
54.5788
385.375
243.433
181.095
146.276
129.431
109.934
101.59
88.4761
79.4087
72.5452
67.865
65.8067
64.7496
64.6957
64.3668
63.3002
61.3554
58.2837
55.7142
50.8789
194.983
224.056
183.964
159.629
141.397
128.447
118.724
103.95
93.0172
80.8684
71.7996
64.9335
60.9843
59.4474
58.749
58.0022
56.4591
53.5307
50.928
47.8611
143.316
160.46
161.655
159.725
145.769
136.624
225.575
178.905
156.097
145.193
131.306
115.338
100.18
90.252
58.2911
55.1838
52.3569
49.0109
46.2962
44.7262
96.9656
130.052
142.278
146.85
134.125
185.873
278.902
197.116
223.796
234.972
232.787
214.482
193.538
171.058
100.467
55.0191
49.8004
45.8632
43.8496
42.8729
23.4977
97.8784
136.957
146.142
140.682
215.33
292.046
212.533
205.403
196.608
197.177
192.891
182.139
153.896
101.359
53.0692
48.1637
45.4205
44.4519
42.8757
59.9651
157.213
166.582
150.661
127.188
187.291
273.073
225.5
251.008
248.428
233.611
207.452
191.38
187.371
80.5069
48.9903
47.3257
46.7632
46.4174
44.6522
168.489
203.128
204.773
171.78
135.277
200.477
307.985
236.628
250.191
250.25
245.336
225.061
215.2
213.234
94.0402
54.6236
53.1229
53.0086
52.4254
47.3925
188.576
213.171
208.255
178.041
141.557
124.14
191.598
157.57
149.97
141.39
125.516
114.744
115.563
114.7
63.3329
58.8637
58.2929
58.1313
57.158
50.8909
144.593
183.309
194.934
178.934
143.958
120.881
105.911
96.8017
87.677
79.5651
72.4525
67.5273
63.8045
60.8606
59.2906
58.9974
59.4309
59.9256
59.5813
55.3207
130.694
119.286
167.995
167.47
139.966
112.446
98.5753
93.1212
87.4073
82.0391
75.357
71.6137
67.4302
64.9607
62.8624
62.1218
61.8722
61.3577
60.1154
54.6291
239.908
224.009
192.007
152.547
123.872
104.036
88.8763
80.2437
77.2039
74.2445
71.2576
69.5623
67.288
66.0374
64.2964
62.9731
61.926
59.6954
57.2484
50.2046
61.4405
159.962
165.159
150.07
116.861
98.8253
81.0483
71.2353
66.037
64.19
63.2835
62.8596
62.6726
62.1972
61.144
59.39
57.1393
53.0039
49.5316
45.0456
143.027
175.627
162.951
123.698
111.036
102.668
83.0321
70.2235
62.2328
59.7869
59.5418
59.5585
59.0903
58.3137
56.7191
54.9418
52.6615
50.0346
47.8032
45.379
112.719
165.074
154.224
142.118
124.822
119.033
103.503
88.0331
69.3417
58.0675
52.9353
52.5326
53.0781
53.0335
52.2614
50.89
49.1969
47.4375
46.036
45.4923
22.9935
98.4565
118.405
118.856
112.495
105.848
96.8432
88.6106
83.8606
73.3597
55.2776
41.7371
37.4519
36.8628
36.7245
36.1749
35.5986
34.8179
34.6512
34.3793
167.3
135.337
95.9333
69.0048
57.2996
50.4549
47.3933
46.5233
45.2496
43.5005
40.1651
36.9064
33.9058
31.6349
29.3355
27.5474
26.7109
25.7985
24.1792
20.8591
265.182
146.469
99.9952
78.3385
63.2477
56.3175
50.0492
48.416
45.3552
44.0422
41.2272
39.3011
36.6468
34.8184
32.8996
31.4402
30.134
28.9342
28.4516
27.8521
253.623
204.028
102.33
74.4118
61.6739
54.3998
47.9655
45.4177
42.597
41.94
40.5519
39.9398
38.6956
38.0979
37.2695
36.7736
36.2307
35.3578
34.654
31.9548
272.302
189.14
93.2755
70.3281
62.5495
54.2078
47.9844
44.0174
41.0876
40.0639
39.215
39.1776
38.9379
38.9025
38.8417
38.8807
38.7474
38.1334
36.8675
32.4652
316.293
104.685
70.9771
59.3626
57.5898
54.0916
49.7041
45.5038
41.5601
39.213
37.4073
37.0509
37.0152
37.2635
37.4391
37.4202
37.16
36.2135
35.2051
32.1382
253.723
124.869
91.6281
79.2726
72.2808
64.7566
57.5356
51.2402
44.0614
39.6432
35.9723
34.2275
33.1592
33.026
32.9661
32.7081
32.3666
31.5493
31.0574
28.9381
308.803
174.268
108.094
89.4071
75.5941
72.9606
67.8949
60.7202
48.499
41.7551
36.2619
33.6429
31.6259
30.3845
29.6562
29.1018
28.7142
27.948
27.5123
26.2246
233.343
184.816
132.255
95.785
74.0458
69.7999
76.0005
75.1448
61.709
48.4727
40.9492
37.4829
35.3499
33.6665
28.9507
27.4332
26.5695
25.8891
25.643
25.2356
237.145
131.551
109.035
84.2104
69.5305
67.0334
63.3992
53.9476
48.1203
43.1166
40.8653
39.5383
38.3956
37.2121
31.523
25.9621
25.1196
24.2419
23.9515
23.8529
131.605
117.395
114.299
96.4431
75.384
74.3534
68.2488
55.4963
50.6676
47.9522
44.7395
41.7351
40.3527
36.3893
28.4925
24.828
24.4681
24.1804
24.1841
24.1493
124.264
140.62
113.177
85.7026
72.1565
70.5327
66.1011
57.2008
52.959
49.1449
48.3781
48.3151
47.4592
48.7301
31.5936
26.2242
25.5405
25.5302
25.6002
25.042
237.858
179.397
113.294
84.4154
72.3507
71.6602
69.2285
62.7234
54.8701
49.0885
46.521
45.7853
42.7798
41.5411
37.1683
29.1016
27.5357
27.3901
27.3664
25.9852
206.391
143.862
109.042
84.523
70.1832
60.7478
63.7716
59.4805
52.2857
47.8262
42.8456
37.9782
34.3636
33.8481
31.2607
30.0293
29.4208
29.5852
29.8195
28.4515
268.123
230.785
132.113
95.7272
73.4218
62.0635
57.3084
52.1716
47.8859
43.8703
39.0489
35.7185
32.8845
31.6825
31.4233
31.0541
31.147
31.5823
31.9682
31.2925
122.664
148.65
131.207
101.129
72.7866
61.0182
54.8699
49.3104
44.7968
41.3724
38.432
36.8433
35.4687
34.6125
34.0212
33.4594
33.3318
33.142
32.9373
31.4795
386.816
175.389
106.685
83.2826
66.8365
59.6391
53.2582
45.7046
40.9474
38.5919
37.1624
36.3437
35.3271
34.4223
33.664
33.0687
32.715
31.9825
31.3986
28.8002
228.052
171.366
104.642
78.5614
61.6678
56.2992
50.1354
42.4428
37.8892
35.0108
34.0978
33.2479
32.4448
31.5778
30.8137
29.96
29.1742
27.5392
26.482
23.8908
250.48
158.972
79.2716
57.9529
49.7469
49.1865
45.3216
40.6261
37.3182
33.7754
31.8455
30.4627
29.5295
28.9995
28.3028
27.5948
26.7391
25.5568
24.5899
23.1635
278.307
143.52
80.7137
69.2691
55.3316
52.1214
44.1489
47.0274
44.7005
37.9548
32.5081
28.938
27.3366
26.6749
26.2578
25.7872
25.3384
24.7649
24.1249
23.572
72.5082
81.0138
80.9281
75.0686
64.0851
53.7018
45.2207
38.236
33.3451
27.3787
22.5499
21.6826
22.0656
22.3011
22.238
21.7453
21.3303
20.8855
20.8835
20.8709
129.682
124.075
101.079
82.4261
67.7483
57.1816
52.0503
50.2939
47.9601
45.019
41.3165
37.9411
35.1252
32.8828
30.9593
29.2997
27.8498
26.0165
24.0602
22.097
198.389
147.093
95.1151
70.85
58.2411
50.812
44.7382
42.7821
39.6156
38.5787
36.2518
35.1302
33.2216
32.2868
31.0071
30.0701
28.9319
27.8415
27.3329
26.9419
349.205
214.086
93.1212
62.5687
52.6613
45.7053
41.0429
38.6291
36.6005
35.9725
34.6928
34.2206
33.2079
32.8029
32.1232
31.7256
31.2189
30.3881
29.7231
28.0853
297.461
201.09
85.4777
56.0249
49.5588
42.9665
39.4716
36.6349
34.6756
34.1608
33.3994
33.34
33.0574
33.0064
32.8471
32.6481
32.2007
31.1413
30.1316
27.8611
236.7
117.388
65.9814
49.9248
47.6452
41.0853
39.7284
36.356
33.9017
32.6275
31.5582
31.5192
31.3842
31.4824
31.4096
31.1752
30.7319
29.7926
29.1624
27.6304
176.788
119.431
87.16
61.8461
55.7162
47.0012
43.3869
38.9284
34.527
32.0498
29.8943
29.1021
28.4048
28.2911
28.0742
27.769
27.4547
26.8611
26.4739
25.3487
340.865
136.564
95.628
72.0715
60.9672
53.4071
49.3272
42.6844
36.2341
32.2192
29.5057
27.9916
26.8826
26.2369
25.7484
25.3671
25.0759
24.6926
24.5308
24.1394
185.514
173.363
140.387
89.4309
63.989
56.8812
56.1744
53.6088
43.2096
36.9149
31.9787
29.973
28.2399
26.9306
25.474
24.5433
24.1068
23.9719
24.047
24.2191
209.464
141.7
105.873
72.069
55.0426
50.9591
51.4701
44.777
39.8532
36.1159
33.5755
32.1488
30.6743
28.8304
25.9967
24.6018
23.9658
23.7176
23.7503
23.9304
119.209
134.815
120.91
84.2438
60.7169
55.1624
49.1467
43.8167
41.1248
38.9717
37.1334
35.5652
33.2858
28.9605
25.6903
25.3408
24.7807
24.5446
24.501
24.3854
207.909
160.289
101.27
71.5701
57.1467
52.1857
49.7514
45.7874
42.9863
40.0909
82.843
74.4868
51.5892
37.2496
30.2407
27.4804
26.175
25.3985
25.0051
24.0995
129.117
114.674
103.686
75.8244
59.7885
55.4894
52.6421
49.6632
44.529
40.3028
38.8643
39.04
38.6372
36.6612
32.6568
27.853
26.543
25.7718
25.1649
23.5478
169.601
136.307
107.905
73.3108
59.9161
52.1051
50.6283
47.2794
41.0088
37.7642
34.2759
32.1066
30.4484
30.0869
28.846
27.7053
27.2426
26.8528
26.3238
24.4777
90.3639
149.1
133.239
84.8196
61.7679
51.1396
46.4836
41.4086
37.5688
34.2154
31.5726
29.9818
28.9388
28.559
28.4291
28.2888
28.2659
28.1158
27.7367
26.3238
78.7901
120.725
124.739
99.283
63.2481
49.2172
43.6933
39.275
35.7581
33.3451
31.5576
30.7077
29.9864
29.6978
29.4385
29.177
28.9495
28.4084
27.827
26.0625
220.555
167.055
103.988
70.5907
54.7247
46.8575
41.8331
37.0113
34.0261
32.2816
31.1519
30.4548
29.7549
29.2685
28.7694
28.3054
27.8305
26.8304
26.039
23.9631
408.977
253.756
100.844
62.7155
49.5198
42.7759
38.6547
33.9107
31.6993
29.8813
29.186
28.3007
27.5986
26.9286
26.2812
25.5756
24.8064
23.7108
22.906
21.7226
602.311
424.664
109.908
51.5052
43.3499
36.9535
34.7568
30.9925
29.6567
27.7677
26.8506
26.0869
25.4515
25.0791
24.5704
24.156
23.5977
23.0369
22.4896
22.0039
214.871
186.369
80.3468
62.472
52.3912
42.7046
34.5399
31.5515
30.2114
27.9312
26.0925
24.9149
24.1513
23.9656
23.7413
23.6852
23.5522
23.5373
23.5168
23.7782
102.036
94.8713
88.7599
80.0962
66.9021
51.8471
39.3296
31.9969
28.6999
26.2898
25.3674
25.3223
25.3759
25.1912
24.9681
24.3976
24.311
24.2075
24.3554
24.3014
63.2771
99.0459
94.3894
82.722
69.1563
58.7135
53.5562
50.5416
47.3201
43.2111
39.3985
36.0639
33.5514
31.3808
29.5962
27.8113
26.1812
24.6269
23.4112
22.5967
222.103
125.497
94.2419
70.9
62.9893
51.911
48.1916
44.2758
42.3649
40.6601
38.9619
37.8391
36.4013
35.4456
34.2439
33.2575
32.2957
31.6411
31.4418
31.7144
441.248
181.002
86.7646
60.9659
55.088
45.2946
43.3607
39.3281
38.652
37.0885
36.3266
35.3207
34.5553
33.8803
33.2753
32.7283
32.2382
31.6709
31.2528
30.9293
197.233
164.592
86.0241
56.6217
50.6109
42.2679
40.9295
37.2658
36.5508
35.2333
34.8376
34.2199
33.8505
33.4419
33.0687
32.5768
32.0746
31.3381
30.8118
30.2497
246.302
125.074
72.7966
53.9357
48.9158
40.4597
40.4173
36.2128
35.0638
33.2114
32.8252
32.3375
32.1433
31.9114
31.6582
31.2983
30.9616
30.4654
30.2313
29.8704
198.537
118.167
85.6849
58.1401
53.7649
43.2562
42.2668
37.7234
34.8329
32.2963
31.0573
30.2789
29.7951
29.5319
29.2671
29.0033
28.822
28.5534
28.4401
28.2861
218.826
132.679
88.8015
64.3174
58.4821
46.5829
45.4571
38.7781
35.4025
31.6942
30.5282
29.1472
28.7066
28.1978
27.8354
27.5616
27.505
27.4861
27.5787
27.8294
226.852
196.876
127.241
80.4077
63.4432
53.4546
50.6489
46.7446
38.8188
35.3774
31.9165
30.5371
29.2616
28.5535
29.1559
27.8538
27.545
27.5806
27.8489
28.3075
397.151
171.56
101.523
65.4631
52.9098
48.5352
48.7693
43.5376
39.3871
37.0139
34.3943
33.0582
31.5097
30.458
30.5012
29.5948
28.36
28.1196
28.2131
28.5568
308.916
177.617
114.843
74.4849
57.6597
50.8551
45.6066
42.7184
41.0127
39.1232
37.3523
35.5213
33.4891
32.0118
32.3202
31.0135
29.4126
28.8805
28.7838
28.8412
184.627
141.64
92.5825
64.1718
54.7679
48.8495
46.4296
44.3666
42.6841
41.2118
62.2192
55.5891
43.6358
37.4429
35.4567
32.1069
29.9864
28.9213
28.4327
28.11
149.996
136.746
106.472
69.6443
59.0686
53.1713
50.3921
47.6133
43.3237
40.5616
39.5167
39.5758
39.0435
37.6926
35.4443
31.9223
29.8249
28.4712
27.6232
26.9199
143.304
157.959
124.473
72.4794
61.722
52.2526
49.2649
44.5023
39.314
37.0401
35.1911
34.5658
33.8079
33.4724
32.8252
30.9863
29.9169
28.7682
27.8626
26.7859
156.177
138.773
115.223
74.1016
60.9652
49.0345
45.1349
38.692
36.1003
33.0215
32.3462
31.3809
31.4309
31.2898
31.1839
30.8222
30.3833
29.5225
28.7879
27.6346
191.764
182.83
143.17
85.8311
61.219
46.3053
42.4348
37.1941
34.8542
32.5668
31.9938
31.3469
31.3194
31.1854
31.0632
30.6884
30.2284
29.2804
28.5187
27.2644
252.508
143.639
99.4872
64.0734
53.5343
43.1974
40.2763
35.3145
33.9558
31.9507
31.6516
30.8908
30.7416
30.2812
29.9778
29.3292
28.7486
27.7638
27.0321
26.106
214.235
171.509
95.6584
60.0702
49.3062
40.4792
37.6377
33.0739
32.1898
30.2448
30.0433
29.096
28.7976
28.1086
27.7288
27.1068
26.6229
26.0245
25.6356
25.3848
771.518
275.984
88.5579
53.9844
44.6568
37.1738
34.4682
30.7768
30.1621
28.4255
28.2486
27.4978
27.3334
26.9553
26.8414
26.6419
26.5145
26.3897
26.3134
26.4441
345.292
177.336
86.1173
63.4541
54.7458
41.3899
33.7252
30.1375
29.3157
27.6685
27.4789
26.9545
27.0071
27.0537
27.2685
27.5982
28.0175
28.5192
29.0177
29.9417
126.926
119.167
92.6121
77.5678
63.3614
46.7402
35.6674
31.0086
28.956
27.6957
27.3151
26.5703
26.2334
25.5565
25.2515
24.6528
24.688
24.6154
24.7862
24.6302
32.8237
84.8642
89.0982
81.9862
67.4207
57.364
51.9307
47.6871
43.1718
38.3669
34.365
30.7714
28.1032
25.9216
24.5077
23.4662
22.8991
22.5678
22.3983
22.3981
226.779
144.956
123.101
77.9975
90.0736
63.1259
73.1546
58.4293
64.9751
56.3143
59.1351
53.5777
54.1179
50.5425
50.3128
48.3551
48.4829
48.061
48.9859
50.767
309.196
169.593
114.528
71.0934
78.138
54.6161
64.0504
50.5935
57.4272
49.7807
53.1653
48.5999
49.7368
47.0027
47.263
45.793
45.9986
45.3975
45.859
46.7802
220.836
189.269
115.929
69.8705
73.8276
52.5234
62.0864
49.3568
55.3423
48.5635
51.4457
47.7376
48.7167
46.5404
46.6039
45.2579
45.2353
44.571
44.989
45.791
190.818
143.497
93.6773
70.802
67.4991
50.0731
60.1337
45.4739
52.774
45.3398
48.9955
45.3726
46.8452
44.9046
45.3447
44.2506
44.4791
43.994
44.523
45.2989
165.345
123.113
103.307
65.5397
75.6987
53.1556
63.3474
48.9823
51.8532
45.6078
46.7684
44.1025
44.4809
43.2595
43.2106
42.5585
42.7102
42.5229
43.0374
44.0715
237.834
146.265
96.3332
68.4968
74.7955
52.6708
61.7812
47.3463
50.4778
43.5971
45.6453
42.7092
43.7314
42.3707
42.4022
41.6781
42.0613
42.011
42.7072
43.7169
601.204
270.082
161.384
86.6878
90.7937
68.2069
63.2126
51.7633
49.6503
44.508
44.0703
42.0559
42.1576
41.3908
45.5441
42.7568
42.4763
42.52
43.189
44.2208
378.283
185.859
120.504
67.6227
67.5248
56.4758
60.4524
54.6978
52.5968
49.8786
48.2379
47.2789
47.0422
46.8972
47.618
45.45
43.4058
43.0677
43.5622
44.3919
236.941
178.203
145.103
79.2573
82.0959
64.1909
58.5796
58.3393
56.5548
53.0849
50.1986
48.9475
50.2508
50.7224
49.7574
46.1752
43.7708
43.1336
43.4448
44.1358
292.356
159.653
116.991
66.4927
71.4207
57.8095
57.7668
59.3442
57.9976
53.5555
52.6115
50.9002
52.1084
52.2014
50.3706
46.3768
43.62
42.5874
42.78
43.1716
136.371
150.474
133.591
74.6627
79.5819
64.788
64.9814
60.9698
57.1206
54.3795
52.9651
52.2475
52.377
51.8006
50.1587
46.5596
43.3994
41.7592
41.6991
41.7784
188.159
182.24
149.616
79.0799
84.8169
65.8651
61.9007
52.1189
51.0186
47.9363
48.4631
47.5377
47.8337
47.0846
49.0363
45.1934
43.5573
41.8149
41.5254
41.2704
196.969
154.563
132.543
75.2595
80.7928
57.2502
59.7544
48.1484
49.3011
43.8259
46.2086
44.1615
46.176
45.3875
45.9531
44.7665
44.2589
42.5004
42.2289
41.7256
223.73
187.841
168.062
94.0638
87.6689
57.8764
61.81
48.3912
48.9928
43.3893
45.0905
43.2686
44.8704
44.2137
44.9021
44.0057
43.7242
42.1644
41.9166
41.3857
298.97
163.553
116.008
69.7115
73.5436
49.9137
55.99
43.4313
47.0824
41.3686
44.4654
41.8775
44.0302
42.5246
43.4783
42.1282
42.2147
40.9243
40.9842
40.8631
218.679
156.297
118.741
69.8654
72.7098
51.3628
55.1822
43.0179
46.028
40.076
43.1935
40.1717
42.1434
40.3495
41.2794
40.1314
40.5781
39.8504
40.2734
40.5291
257.245
153.104
106.462
74.9524
64.1327
50.9009
50.2274
40.3968
43.1644
37.8752
41.7173
38.796
41.2274
39.5184
40.9755
40.1464
41.0947
40.7579
41.4406
42.1873
207.461
151.158
103.011
72.5984
72.7172
52.2883
50.5809
42.1252
43.312
37.7006
42.994
40.0342
43.3348
41.7299
43.8677
43.4801
45.1826
45.4638
46.8198
48.0535
140.714
109.151
87.8373
72.7589
55.5495
40.8962
32.9537
31.0634
29.4605
27.9322
27.1701
26.1192
25.4505
24.8468
24.4758
24.1706
24.1199
24.0563
24.0345
23.8515
37.5053
41.433
82.2507
38.3179
37.049
40.7529
96.7014
35.9874
84.1342
75.4715
36.7388
35.557
96.8102
75.712
81.9203
40.4419
39.858
40.0519
88.9618
39.9854
39.9511
77.5602
40.1117
41.5786
88.8348
76.3936
40.4335
42.0193
196.053
276.991
217.015
73.6449
61.1313
78.4862
64.135
218.783
214.357
209.337
58.6707
54.0555
61.1868
56.3441
232.111
203.123
197.793
52.7155
48.6291
55.0722
50.8738
235.414
198.743
203.167
47.7959
46.5544
49.7206
47.2586
218.345
203.599
202.736
45.9977
44.8706
46.5722
44.9224
199.821
200.993
191.297
44.5215
43.6654
44.5272
43.9016
175.044
183.94
160.729
43.1259
42.2903
43.7947
42.5244
139.088
160.858
153.047
42.0364
39.4728
40.9366
35.1771
216.604
282.21
216.519
83.6878
65.3934
82.1384
65.2381
210.203
217.998
235.574
61.8486
56.7138
62.0204
58.182
196.72
238.113
238.664
55.9302
53.8937
57.8011
55.4971
197.434
237.032
227.29
53.132
50.7889
54.8587
53.7094
194.751
222.76
204.468
49.8036
47.0041
53.6838
52.8093
186.237
198.656
185.939
46.2952
44.8422
52.0531
51.0924
154.941
185.457
184.606
44.6613
42.9075
51.1834
54.1565
148.499
178.405
114.853
40.928
34.4866
54.2002
37.6643
222.389
294.643
240.321
79.2696
66.5409
83.3967
71.9293
247.949
237.358
249.861
63.7876
59.6124
68.9545
62.2814
250.536
255.871
257.706
58.9437
55.8804
60.5694
56.0741
238.132
256.043
249.249
54.7751
53.0338
54.8086
52.4464
213.606
247.117
235.045
52.9886
52.7374
52.047
51.6412
192.788
227.494
213.179
52.2792
50.9704
51.5408
49.8612
190.63
213.343
215.162
50.9769
53.2534
48.7735
47.6464
122.144
212.654
147.65
55.7016
43.1098
47.9459
48.4086
244.205
345.397
259.685
85.3059
73.3989
92.5303
77.1128
245.094
251.161
244.039
70.242
62.6496
72.0381
63.7922
251.256
244.189
240.165
60.5748
55.7488
61.7854
57.4394
246.593
236.97
225.55
54.5693
52.3778
55.9812
53.185
233.754
219.314
197.83
51.8833
51.1674
52.0643
47.8998
214.066
193.936
196.145
50.9209
48.0862
46.1455
41.3841
216.145
200.488
201.333
46.8978
45.5266
40.3694
39.1646
155.201
199.135
162.504
45.573
45.4446
39.0037
38.2479
56.0492
66.074
57.1629
53.6168
47.4876
52.4427
46.3384
49.6833
54.9361
50.9175
46.0811
42.4494
45.1367
42.5165
44.0091
49.7863
46.1563
41.0247
37.5804
41.6986
39.2889
41.4621
45.1081
42.6479
36.8965
35.0256
38.5732
36.6204
39.7959
41.9658
40.3822
34.4014
33.2378
36.0799
34.8403
38.7922
40.0407
39.5029
33.0135
32.0921
34.5629
33.7094
37.5471
39.3969
37.8415
31.7044
30.4282
33.3296
30.8147
35.4665
36.387
32.0505
29.9113
27.7942
29.7099
26.5412
58.0787
67.2586
58.0446
52.1537
46.6723
51.9171
47.3212
51.3936
55.7254
52.5198
45.4811
43.0725
46.2762
44.2861
48.6896
52.0391
49.9243
42.4772
40.7885
43.7893
42.2633
45.6214
49.4023
48.7935
40.1961
38.4897
42.3046
54.7033
42.3303
49.0258
48.7287
38.006
36.6587
57.3092
57.8451
40.5486
48.1574
47.4093
36.2581
34.9263
56.0753
48.3558
38.2136
47.4337
47.7848
34.3725
31.1761
45.7146
37.9074
31.4289
46.9219
33.6231
29.8198
26.3267
35.2146
28.5716
59.2568
68.6598
63.7912
52.2839
48.4522
54.8891
51.9635
53.6889
61.7034
56.4496
47.3994
45.0512
50.9002
47.3661
50.1044
54.8469
50.4081
44.3537
42.3269
46.0317
42.441
48.1585
49.1988
47.0216
41.7408
54.747
41.5618
40.5297
48.5718
46.7123
46.5457
57.1844
58.5767
40.6007
41.5969
47.4413
46.5393
45.4337
57.5548
51.6757
41.9867
42.4629
48.5478
44.7801
43.8719
49.2698
41.1931
42.436
40.4444
36.9219
43.9482
43.4787
38.6604
30.3786
39.3096
35.4582
64.8329
71.2763
66.2419
55.0551
52.4715
55.4702
52.5906
56.7311
63.1264
56.3411
51.4589
47.5417
51.0951
46.2744
50.2302
54.5171
50.6037
46.062
42.3182
44.7293
41.4318
46.9559
49.4676
46.912
41.4485
39.9501
40.6275
38.3952
45.9707
45.957
42.6415
39.7347
39.676
37.661
35.6394
43.621
41.3648
37.5172
39.6692
39.0932
35.0006
32.9526
41.5955
36.6603
35.6651
38.8969
37.6435
32.4465
31.7823
41.3493
35.6021
36
37.1378
34.8544
31.7487
31.7408
46.097
50.0477
44.5781
48.8782
44.3533
46.8784
42.7419
41.2456
43.5356
41.1754
43.2294
39.9929
42.0588
40.2873
36.7487
40.4228
38.2718
38.865
36.6946
39.6932
38.0876
34.2088
37.6326
35.8248
36.1664
34.1215
37.5564
35.874
32.3914
35.3229
34.1394
33.5378
32.4179
35.3828
34.1268
31.0936
33.8449
32.778
32.0983
30.8306
33.7317
32.3713
29.3443
32.2906
29.7828
30.4449
29.4265
31.8811
30.3242
26.9832
28.8172
26.2085
29.0675
27.9811
29.8412
28.8027
44.8052
49.0417
45.5811
45.6853
42.7647
45.6613
43.5818
41.6895
44.7295
42.9582
42.1778
40.6899
43.1253
41.9351
39.5274
42.4736
41.2215
40.2272
38.8479
41.5487
40.4818
39.2082
38.4057
40.1335
38.2592
39.8777
37.7237
39.2602
40.8662
36.7642
40.7517
36.6721
40.7479
36.3524
40.8421
33.967
68.6502
50.3648
35.0073
33.1255
65.3462
45.3335
30.1218
45.9294
36.2566
32.492
30.6105
41.5236
35.0165
26.0492
33.7847
28.5731
30.083
28.943
33.7998
31.8584
46.6754
52.4124
50.1081
46.4849
44.5133
49.7737
47.7985
43.6519
49.1403
45.7691
43.9777
42.4629
46.9331
43.9431
41.3356
44.5052
41.2249
41.9622
40.7045
42.9477
40.5687
52.8331
59.3967
40.952
46.1129
44.2211
280.197
40.6387
74.5497
81.9179
57.2316
222.658
58.7861
203.756
73.6179
56.4584
42.1142
42.8632
70.6434
51.3492
42.4202
42.415
39.9552
42.8171
40.1171
46.6463
38.1182
41.9359
39.1672
30.3507
38.762
34.9891
36.5417
33.2948
38.2443
35.4425
50.5952
52.8969
50.6398
50.1857
48.3419
50.5748
48.107
45.9285
49.2381
44.519
47.4208
43.9994
46.6791
42.0965
41.0851
43.0438
39.9684
42.8704
40.3542
40.89
38.5825
39.0057
39.2454
37.1281
39.7691
38.7965
38.0433
36.3692
38.9866
36.4748
34.7747
38.7539
38.962
35.9774
35.0607
38.7785
34.2614
32.5824
39.0004
38.7399
34.7951
33.8161
37.2324
32.1425
31.5476
38.5055
37.214
33.5466
33.1091
34.5027
31.5014
31.4031
36.7541
34.9474
33.0115
32.4294
44.6343
46.8908
43.1943
54.2098
50.3644
52.0756
50.9503
40.3906
42.6203
41.0376
49.065
46.4694
50.5233
49.1906
37.5432
40.4995
39.0257
46.2175
44.833
48.7652
46.842
34.9271
38.4897
36.7518
44.0434
42.153
46.0061
43.9855
33.3906
36.2446
34.9694
42.0891
41.5649
43.506
42.5692
31.8343
34.5611
33.3959
41.2716
40.6131
42.4711
43.0041
30.7426
33.0333
32.0215
40.7143
40.6572
43.1964
43.5046
29.3888
31.7041
30.8334
40.5792
39.8009
43.4952
43.2598
43.1883
45.5866
43.9327
51.555
51.1175
51.241
51.5466
41.4344
43.5948
42.6419
50.8323
49.7814
51.5049
50.9892
39.6707
42.3043
41.1446
49.3746
47.0901
50.4334
48.0898
37.7096
41.1234
61.7155
46.294
44.2906
47.2044
48.1035
36.0728
63.3213
57.5762
43.796
42.5799
48.3119
46.559
33.9317
53.2133
42.4244
42.3314
43.0408
45.5673
44.8698
32.3289
40.1013
36.0484
43.3988
43.9049
45.1617
45.5011
31.0471
35.3124
33.7369
43.9104
43.5664
45.4459
44.7058
44.7887
49.8859
47.9884
51.603
51.9488
55.8871
54.5573
43.1148
47.1442
44.344
51.8608
51.2398
53.6644
51.3706
41.3578
43.4649
41.3487
50.6371
48.3395
50.7715
48.5176
60.503
40.7962
40.5549
47.5125
48.5827
47.8602
46.779
58.7418
40.9084
42.0365
48.8938
47.3252
46.6935
46.4601
46.3526
42.2185
41.9018
46.3845
45.9294
46.3646
46.7059
38.4503
41.4565
39.4838
46.1633
46.1785
46.7917
46.487
34.9481
38.8004
36.3138
46.0006
44.9831
46.2104
45.0315
48.553
50.754
48.1486
57.5084
55.1764
57.7005
53.0031
44.3358
46.6732
42.1633
53.9333
50.9924
51.2498
47.2751
41.1101
41.0907
39.0997
50.2999
48.3091
46.916
45.6738
39.5877
38.6166
37.1034
47.6739
46.5696
45.2551
44.3319
39.5984
36.8073
36.143
46.401
46.1356
44.4592
44.3944
39.2526
35.9366
35.1264
46.0609
46.3324
44.2736
43.8012
38.0803
34.9022
34.5406
46.3455
46.0793
43.8333
43.6235
35.9112
34.4221
33.606
45.8183
44.8401
43.4757
42.4178
56.1116
58.5138
58.2453
97.2062
94.7427
101.636
111.35
52.5244
57.7434
56.2854
95.4344
104.95
111.362
113.395
50.8363
55.8384
53.6897
107.995
102.134
113.991
117.003
48.1388
52.7502
50.6381
101.72
105.288
118.04
120.325
47.5675
50.1595
49.2211
106.781
102.673
120.507
117.464
46.7755
49.1216
49.7533
102.728
104.195
115.821
109.907
46.9414
50.0046
50.3229
105.576
103.928
109.473
108.781
45.4463
50.2996
49.3854
104.819
104.887
109.056
111.143
58.6514
58.0156
59.1303
104.796
115.187
102.981
117.321
57.0443
59.1095
58.4213
114.887
115.737
117.914
120.093
54.0338
57.7971
54.7499
116.644
122.133
122.407
132.315
50.7317
53.2549
52.1349
123.67
125.937
134.644
138.301
49.0309
52.0358
50.5071
125.951
123.012
138.37
134.691
49.8003
50.2481
50.9463
120.901
112.572
131.579
118.344
50.7346
51.4426
51.951
110.653
109.427
114.407
110.526
49.6623
51.8856
50.396
109.59
111.223
110.542
111.437
59.3311
62.5219
61.7433
97.2435
115.691
105.239
116.253
58.6173
60.7851
58.3784
117.041
120.066
116.246
116.257
55
57.7081
55.393
122.455
132.442
116.872
122.257
52.6644
54.601
53.1644
135.033
138.307
123.941
126.162
51.1302
52.9272
52.3103
138.296
134.862
126.444
124.924
51.6783
52.2254
52.5076
131.635
118.23
122.852
112.975
52.351
52.6504
52.3588
114.254
110.192
110.493
108.456
50.5497
52.1058
50.47
110.241
111.373
108.575
109.964
62.3806
64.9863
58.691
113.167
116.516
108.373
99.0345
57.8036
56.7964
53.0575
115.078
114.024
98.8458
102.737
55.0393
52.9704
51.5371
113.887
116.812
105.648
100.686
53.1827
51.057
50.1906
118.11
120.09
100.786
102.977
52.4216
50.4731
50.2491
120.545
119.107
105.547
102.269
52.3577
50.1006
49.6098
117.619
110.007
102.857
103.051
52.0437
49.7348
49.4282
109.088
107.738
104.997
102.745
50.347
49.2843
47.6408
107.909
110.204
103.979
104.21
39.5774
37.9149
40.4384
36.9746
39.9846
37.2934
40.4393
43.9599
40.9531
57.0674
45.6872
41.9743
40.378
210.107
52.3384
49.1234
74.053
246.18
45.4922
57.1995
272.593
38.8894
38.0405
37.7851
39.0513
37.5167
38.8938
38.9067
39.3477
36.8276
37.36
39.8629
37.113
40.2711
39.1638
44.0035
46.1643
39.9218
62.1028
40.0281
214.938
41.3154
52.5455
246.537
50.2513
86.7112
57.5932
274.227
45.8975
40.8857
36.3928
40.2411
35.6094
40.6548
36.0227
40.2497
58.1664
51.0145
83.8586
226.316
51.5415
58.2797
206.371
58.8001
50.655
81.9559
110.025
51.5978
54.6232
138.326
40.6442
36.5417
36.4086
40.1279
36.2313
40.644
40.0841
40.6004
35.4506
36.0323
39.1289
35.8943
39.827
39.8682
58.204
225.149
51.6343
95.9719
58.4097
205.544
51.6713
58.0259
108.751
49.05
89.458
53.654
139.179
51.2812
64.7216
75.6868
54.3108
245.392
49.951
266.581
70.5882
40.5634
40.5283
39.9399
39.8206
40.6259
40.0192
39.4455
42.0679
42.7015
39.7937
39.6262
41.2941
44.0924
39.4469
53.7511
46.9447
61.1438
40.673
269.726
40.5786
44.7985
68.391
244.095
82.0867
59.3692
268.001
75.1996
53.2781
40.6085
39.6678
40.2323
39.687
39.9314
39.3724
40.5807
42.429
39.6871
43.9043
39.7215
44.7153
39.4264
41.8628
73.7538
83.3894
61.3755
135.612
60.0934
180.754
75.9319
47.1981
44.051
40.5182
40.0624
45.1497
45.8427
40.5853
48.363
47.4559
41.0039
41.8574
46.1947
50.0582
41.1645
78.9065
220.251
87.3617
62.6622
199.403
78.3185
64.3469
77.602
125.775
86.1387
64.5706
166.75
77.9647
64.9523
48.0618
40.2025
45.6236
40.9652
46.6134
40.7734
46.9546
49.2141
42.0482
49.0425
41.4877
50.8376
41.3671
47.9641
197.305
214.429
186.05
123.53
104.965
120.2
98.5629
165.417
169.992
159.785
97.5755
89.6575
83.758
76.1683
148.511
152.173
149.839
81.023
71.3675
69.4936
65.0345
139.567
148.216
145.716
65.3241
59.4444
61.7918
58.5464
123.37
139.776
134.389
55.5415
51.6031
55.8929
53.9445
108.068
126.909
119.65
49.7324
48.2271
52.3115
50.101
93.1361
112.836
106.168
46.9338
45.2809
49.3586
48.5425
79.9463
101.548
86.8259
44.755
39.4476
48.5667
43.6066
162.215
191.486
168.47
107.355
80.3358
114.549
91.8932
126.569
230.436
262.934
147.242
124.978
146.946
236.126
89.5766
199.912
209.879
81.6245
79.0127
92.9383
209.89
82.7781
225.888
210.438
81.3784
81.274
84.2893
213.702
81.9718
235.88
226.887
80.6446
80.7366
81.8013
228.823
80.6548
227.269
227.436
81.2913
80.1733
81.398
224.359
77.9519
209.485
214.213
77.3731
76.3116
78.6453
210.103
73.5701
186.508
195.32
72.8976
71.2581
74.8269
187.217
70.3039
166.992
173
69.7916
69.8041
71.3459
171.962
87.5237
105.17
85.6055
43.4382
38.3805
40.279
33.3312
181.996
209.983
176.016
126.191
100.86
124.943
99.0686
140.857
255.43
289.939
163.686
139.395
165.143
251.405
90.4291
211.862
209.94
95.7121
90.5087
95.4948
210.581
90.1481
200.547
211.693
86.7599
86.2834
89.9602
210.893
88.6421
197.046
206.558
84.5209
83.9849
89.461
205.662
85.292
196.304
198.996
81.985
80.8167
86.6117
196.46
80.4288
190.368
190.607
77.5332
76.6333
81.3281
187.798
77.732
172.114
182.782
73.9489
73.0417
77.8027
179.269
66.8275
155.308
148.106
67.2004
63.7761
72.9313
147.169
85.6409
90.9207
81.7165
37.2775
30.6983
37.8405
28.1097
165.126
189.336
171.571
112.002
92.7536
113.228
96.0236
137.38
240.885
278.361
151.992
133.933
153.342
252.545
99.4366
234.091
233.868
99.7454
96.7922
104.116
238.343
96.0672
251.733
256.142
96.2638
96.2979
96.2878
257.2
92.1749
245.477
254.003
92.9655
91.558
93.4276
251.422
88.8857
227.705
241.925
89.8432
89.3162
89.5506
237.307
85.3264
201.751
218.913
86.2562
84.2736
87.3835
212.191
79.8669
191.389
200.921
81.4352
79.7701
82.0336
201.142
92.5799
172.279
198.561
89.7807
95.1738
83.5168
186.426
71.9739
81.3577
69.8103
43.0235
28.7578
47.7611
33.6594
181.377
211.297
195.128
117.945
98.6444
118.487
105.97
148.311
280.539
311.153
166.711
146.769
167.754
283.776
103.61
236.732
233.445
108.97
102.359
110.146
232.241
93.3609
252.054
240.511
95.2838
94.0544
94.9647
241.392
89.2663
249.169
240.905
91.0496
90.5305
89.6779
240.742
86.9167
243.798
238.757
89.2184
88.6569
87.5684
236.837
79.8423
217.906
215.041
85.7545
84.045
81.9795
210.489
75.0149
217.318
214.305
78.6688
77.3756
75.3381
215.896
73.0606
203.813
211.01
76.6674
76.3071
74.408
202.117
73.8862
107.708
91.754
47.2623
36.1508
43.8481
39.0594
167.425
195.607
172.862
109.659
90.6285
108.352
90.3718
155.035
163.577
160.555
77.7039
72.1659
81.1334
79.2286
145.969
153.068
143.132
68.3902
65.1953
75.1481
70.2602
135.182
134.367
128.235
62.9049
60.1224
64.6122
62.3505
117.981
120.48
110.803
56.9238
54.0931