/*--------------------------------*- C++ -*----------------------------------*\
  =========                 |
  \\      /  F ield         | OpenFOAM: The Open Source CFD Toolbox
   \\    /   O peration     | Website:  https://openfoam.org
    \\  /    A nd           | Version:  10
     \\/     M anipulation  |
\*---------------------------------------------------------------------------*/
FoamFile
{
    format      ascii;
    class       volScalarField;
    location    "4.1";
    object      omega_0;
}
// * * * * * * * * * * * * * * * * * * * * * * * * * * * * * * * * * * * * * //

dimensions      [0 0 -1 0 0 0 0];

internalField   nonuniform List<scalar> 
12920
(
122.558
170.98
142.721
101.363
87.7897
82.1403
77.3285
76.1331
74.2035
72.0067
67.9209
63.3834
59.0464
55.3816
51.9301
48.2032
45.205
42.6934
41.1433
36.4769
192.654
227.01
175.499
131.591
116.561
109.919
100.69
97.3175
90.9709
87.9006
82.3008
78.542
73.4345
69.1344
64.1693
60.3309
57.1008
54.5098
50.6933
48.1047
211.273
286.435
202.581
141.889
117.793
110.006
99.5905
95.5252
89.4098
87.5774
83.9227
82.3805
79.2098
77.185
74.451
72.2432
68.6486
63.8036
57.9726
52.5882
169.07
241.802
193.34
138.273
110.779
100.695
89.0196
84.7025
79.9178
79.4938
78.8236
78.6107
77.6111
76.7988
75.7037
73.8812
69.8986
64.1154
58.807
54.1339
252.713
183.283
139.882
107.492
105.659
93.2927
85.3295
78.8587
73.886
72.0823
70.7656
71.2252
71.4727
71.7939
71.3968
69.6573
65.8401
61.4851
58.7224
54.5328
388.671
244.552
180.89
146.133
129.357
109.82
101.461
88.3183
79.2935
72.4841
67.845
65.8211
64.7827
64.7312
64.3854
63.2888
61.3235
58.2404
55.6503
50.8257
201.152
225.805
183.912
159.706
141.427
128.441
118.668
103.794
92.8804
80.7301
71.6948
64.8749
60.9713
59.4617
58.767
58.0059
56.4355
53.4895
50.8816
47.8294
137.852
161.185
162.714
160.357
145.752
136.62
225.397
178.414
155.871
145.101
131.058
115.059
99.8995
90.0885
58.2599
55.1587
52.3178
48.9614
46.2584
44.7056
99.1122
131.173
143.054
147.362
134.063
184.953
278.65
196.861
224.184
235.195
232.482
214.097
192.901
170.588
100.1
54.9473
49.7338
45.8136
43.8225
42.8552
24.7647
100.255
138.122
146.789
140.828
214.344
290.339
212.415
204.548
196.36
196.913
192.507
181.395
153.714
101.149
52.9891
48.106
45.3893
44.4285
42.852
60.0485
158.938
167.044
150.425
127.075
186.927
272.331
225.868
250.845
248.015
233.021
206.751
191.231
186.714
80.3208
48.9628
47.3161
46.764
46.4145
44.6246
158.085
204.405
205.685
170.948
134.856
199.922
307.398
236.521
250.379
250.044
245.175
224.156
215.29
212.774
93.5489
54.5822
53.1436
53.0363
52.4299
47.3096
191.137
213.176
208.362
177.901
141.264
123.96
191.025
157.531
149.887
141.296
125.176
114.687
115.578
114.622
63.2257
58.8505
58.3203
58.1578
57.1518
50.792
144.191
184.392
195.427
178.882
143.608
120.675
105.82
96.7496
87.5993
79.4855
72.3918
67.4895
63.7696
60.8383
59.2984
59.0252
59.4771
59.959
59.5922
55.2566
118.54
119.231
169.057
167.643
138.989
112.068
98.4784
93.1337
87.3867
81.996
75.314
71.591
67.4158
64.9635
62.8793
62.1531
61.901
61.3757
60.102
54.5525
241.574
223.58
191.288
152.36
123.705
103.897
88.7694
80.2341
77.21
74.2428
71.259
69.5702
67.2988
66.0516
64.3082
62.9884
61.9314
59.6736
57.1921
50.1098
67.5361
162.282
165.62
149.73
116.523
98.6057
80.8474
71.14
66.0131
64.2076
63.3055
62.8897
62.7005
62.2178
61.1509
59.3813
57.1016
52.9404
49.4622
44.9988
145.515
175.975
162.766
123.646
110.992
102.575
82.8204
70.0609
62.1871
59.8151
59.5958
59.6044
59.1136
58.3266
56.7175
54.9274
52.6322
49.9974
47.7652
45.3559
115.054
165.385
154.289
142.365
124.916
119.065
103.297
87.6782
69.066
57.9216
52.9108
52.582
53.1245
53.0636
52.2624
50.8817
49.1788
47.4158
46.0213
45.49
23.9068
100.084
118.98
119.152
112.488
105.88
96.797
88.6003
83.7919
72.9906
54.8163
41.5283
37.436
36.8907
36.749
36.1857
35.6057
34.8253
34.6609
34.386
169.173
132.665
94.8294
68.4397
57.091
50.3942
47.4216
46.5677
45.2787
43.491
40.1233
36.8577
33.8657
31.6005
29.303
27.5336
26.7094
25.784
24.132
20.8206
273.807
145.991
99.8064
78.186
63.1629
56.2852
50.0487
48.4346
45.3725
44.0514
41.2173
39.284
36.6243
34.7972
32.8796
31.4236
30.1197
28.9251
28.4501
27.8541
264.716
205.447
101.805
74.3287
61.6585
54.3878
47.9618
45.4337
42.6236
41.9741
40.5823
39.9664
38.7188
38.1222
37.2934
36.798
36.2508
35.372
34.6598
31.9293
276.561
189.031
92.5954
70.2808
62.5664
54.1658
47.9601
44.0063
41.1002
40.0945
39.2535
39.2208
38.9774
38.9427
38.8822
38.9202
38.7793
38.1444
36.8507
32.4121
327.448
102.706
70.7381
59.373
57.6001
54.07
49.6687
45.4779
41.5428
39.2143
37.4277
37.0857
37.0547
37.3077
37.476
37.4512
37.1795
36.2106
35.1893
32.1093
234.519
125.654
91.4367
79.356
72.3302
64.7129
57.4323
51.1403
43.9839
39.5999
35.9559
34.2345
33.1787
33.0534
32.9895
32.7223
32.3748
31.5511
31.0558
28.9162
294.733
173.007
107.656
89.3531
75.697
73.0746
67.9048
60.5699
48.3478
41.6742
36.2206
33.6336
31.627
30.389
29.6668
29.1123
28.7208
27.95
27.5127
26.2161
238.345
184.495
131.996
95.4731
73.946
69.932
76.1389
75.285
61.4728
48.3323
40.8877
37.4684
35.3503
33.6511
28.928
27.4264
26.5695
25.8916
25.6486
25.2394
237.227
132.583
109.077
84.1278
69.4552
66.9225
63.3953
53.9136
48.0721
43.0996
40.8628
39.562
38.4069
37.2164
31.4575
25.9483
25.1136
24.2399
23.9567
23.8571
133.651
117.298
114.872
96.1994
75.2217
74.2233
68.0285
55.425
50.6985
47.9322
44.687
41.7106
40.3597
36.2485
28.4248
24.8236
24.4702
24.1861
24.1923
24.1552
131.011
141.396
112.688
85.6212
72.1535
70.4987
66.0465
57.1343
52.9623
49.1311
48.4502
48.3279
47.519
48.7578
31.3582
26.203
25.5442
25.5399
25.6116
25.0404
241.061
180.044
113.017
84.2495
72.3387
71.6164
69.2049
62.6681
54.8274
49.0832
46.5596
45.8311
42.7555
41.5752
37.0768
29.0466
27.5298
27.4011
27.3785
25.9703
200.903
143.69
108.795
84.4165
70.1096
60.7553
63.8011
59.4373
52.2584
47.8092
42.8135
37.916
34.3521
33.8724
31.2648
30.0104
29.4312
29.6087
29.84
28.44
285.886
231.206
131.042
95.3174
73.2261
62.0031
57.3031
52.1742
47.8847
43.8476
39.0165
35.6906
32.8721
31.6912
31.4348
31.0708
31.1741
31.6164
31.9957
31.298
117.743
146.044
130.11
100.296
72.3545
60.9156
54.8448
49.2944
44.7854
41.3663
38.4329
36.8531
35.483
34.631
34.0424
33.4823
33.3553
33.1627
32.9551
31.4724
385.319
173.219
106.137
83.1501
66.8353
59.6653
53.2396
45.6784
40.9433
38.6102
37.1884
36.3651
35.3429
34.4355
33.6782
33.0853
32.7288
31.9885
31.3989
28.7706
232.104
169.698
103.747
78.1715
61.5514
56.3113
50.1042
42.3982
37.8753
35.024
34.1204
33.2668
32.4577
31.587
30.8203
29.9627
29.1686
27.5243
26.4615
23.8671
263.062
157.564
78.3485
57.8891
49.7721
49.2503
45.3384
40.6189
37.3063
33.7564
31.8375
30.4693
29.5412
29.0105
28.3103
27.5978
26.7358
25.5485
24.5779
23.1566
289.144
141.829
80.3578
69.2049
55.2696
52.0862
44.1542
47.1307
44.6659
37.8276
32.4214
28.8983
27.3296
26.6834
26.2673
25.7942
25.343
24.766
24.1232
23.5753
69.7868
81.519
81.1431
75.0023
63.9418
53.5769
45.1162
38.1612
33.2412
27.2457
22.4956
21.7082
22.1016
22.3227
22.2505
21.7454
21.3322
20.8902
20.8906
20.8776
133.426
123.126
100.567
82.1332
67.5155
57.0679
52.0513
50.3291
47.9654
44.9926
41.272
37.8994
35.0946
32.859
30.9397
29.2833
27.8286
25.9849
24.0229
22.0795
206.76
145.765
94.8521
70.6945
58.1663
50.7667
44.7283
42.7902
39.6237
38.5874
36.2488
35.126
33.2157
32.2827
31.0016
30.0624
28.9209
27.8348
27.3347
26.9483
338.966
214.536
92.4026
62.431
52.6399
45.6931
41.0434
38.6435
36.6241
35.9983
34.7154
34.2423
33.2266
32.8224
32.1417
31.7427
31.2317
30.3945
29.7228
28.0777
305.763
201.835
84.5329
55.8648
49.546
42.9373
39.4639
36.634
34.6922
34.1874
33.4288
33.372
33.0868
33.0363
32.8746
32.6708
32.214
31.1399
30.1183
27.8462
227.377
116.306
65.775
49.8993
47.6368
41.0607
39.7178
36.3393
33.8994
32.6391
31.5808
31.5486
31.4135
31.5115
31.4337
31.1908
30.7403
29.7926
29.159
27.6247
168.5
119.666
87.324
61.7889
55.6854
46.9496
43.3397
38.8786
34.4925
32.0353
29.8938
29.1132
28.4211
28.3092
28.0889
27.7802
27.4621
26.8654
26.4756
25.3438
356.177
136.56
95.3281
71.9064
60.9363
53.3944
49.2851
42.5923
36.1677
32.1855
29.4934
27.9906
26.8874
26.2448
25.7574
25.3762
25.0839
24.6998
24.5382
24.1449
179.819
174.675
140.914
89.0777
63.8265
56.8773
56.2142
53.61
43.0783
36.8533
31.9457
29.9649
28.2362
26.921
25.4673
24.5449
24.1151
23.9837
24.0626
24.2321
187.116
142.358
105.896
71.8672
54.9409
50.9474
51.4926
44.7491
39.8021
36.101
33.5638
32.1583
30.6691
28.8097
25.9686
24.5976
23.9708
23.7282
23.764
23.9436
118.26
135.701
120.995
83.6962
60.4766
55.0198
49.0603
43.8036
41.1285
38.9572
37.1205
35.5536
33.2499
28.886
25.6627
25.3407
24.7886
24.5568
24.5141
24.3963
209.052
159.842
100.967
71.41
57.096
52.1596
49.7417
45.7727
42.983
40.1464
82.887
74.1935
51.3408
37.0804
30.1796
27.4611
26.174
25.4037
25.0096
24.1005
124.085
114.286
103.9
75.5953
59.7119
55.4765
52.6698
49.6581
44.4874
40.2982
38.9015
39.0758
38.6445
36.6387
32.5922
27.8249
26.5393
25.7743
25.1627
23.5369
165.062
136.855
107.741
73.1559
59.8541
52.1151
50.6624
47.255
40.987
37.7438
34.2586
32.0905
30.4502
30.1038
28.8403
27.7052
27.2517
26.8614
26.3247
24.4612
92.9379
151.551
133.426
84.1018
61.5563
51.0776
46.4706
41.3948
37.5518
34.199
31.5625
29.982
28.9486
28.5758
28.4467
28.3089
28.2856
28.1298
27.7433
26.3151
77.0767
121.845
124.752
98.1271
62.6673
49.0672
43.6585
39.2531
35.7455
33.3441
31.5656
30.7224
30.0049
29.7188
29.459
29.1956
28.9645
28.415
27.8276
26.0492
222.759
167.947
103.668
70.3818
54.6429
46.8484
41.8212
37.0026
34.0306
32.2966
31.17
30.4717
29.7708
29.283
28.7826
28.3159
27.8351
26.8257
26.0281
23.9437
417.325
249.167
98.8155
62.2953
49.4269
42.7488
38.6349
33.8949
31.7052
29.8957
29.2034
28.3127
27.6079
26.9355
26.2855
25.5759
24.8013
23.7023
22.8955
21.7171
650.806
429.641
105.703
51.0848
43.3082
36.9351
34.7562
30.9865
29.6613
27.7698
26.8574
26.0961
25.4613
25.0881
24.5774
24.1607
23.5998
23.0373
22.4895
22.0076
230.329
185.392
79.2991
62.4499
52.3022
42.5769
34.4833
31.5325
30.2083
27.9101
26.0732
24.9087
24.1568
23.9759
23.7527
23.6968
23.5631
23.5489
23.5292
23.7947
99.9828
94.6853
88.8484
80.0838
66.721
51.6408
39.1938
31.943
28.6711
26.2791
25.3994
25.3493
25.3993
25.2044
24.9766
24.4031
24.32
24.2169
24.3655
24.3094
63.1538
99.061
94.3722
82.5637
68.9712
58.6227
53.5523
50.5566
47.3044
43.1721
39.3583
36.0312
33.5274
31.361
29.5774
27.7899
26.158
24.6054
23.3955
22.5928
221.589
124.526
94.0573
70.7719
62.8939
51.8349
48.1616
44.252
42.3549
40.6466
38.9503
37.8259
36.3879
35.4306
34.227
33.2403
32.2838
31.6393
31.4505
31.729
439.504
179.71
86.2803
60.8801
55.0223
45.2652
43.3438
39.3183
38.6539
37.0877
36.3281
35.3196
34.556
33.8811
33.2771
32.7298
32.2398
31.6726
31.2557
30.9345
193.197
164.288
85.0713
56.5046
50.546
42.2376
40.9086
37.245
36.5465
35.2353
34.8422
34.2245
33.8558
33.4462
33.0719
32.5777
32.0732
31.3354
30.8095
30.2521
256.408
124.657
72.6301
53.9282
48.8473
40.4545
40.4034
36.1783
35.0474
33.2077
32.8291
32.344
32.1504
31.9168
31.662
31.3003
30.963
30.4674
30.2348
29.8755
191.891
118.282
85.6324
58.0909
53.6798
43.1936
42.2234
37.6641
34.7942
32.2745
31.0486
30.2777
29.7979
29.5358
29.2708
29.0075
28.8268
28.5593
28.4468
28.293
226.634
131.41
88.3553
64.1856
58.3893
46.5302
45.4172
38.697
35.3535
31.6669
30.5166
29.1431
28.7084
28.2013
27.8397
27.5686
27.5143
27.497
27.5924
27.8427
226.689
197.018
126.852
79.9952
63.2387
53.3343
50.5977
46.6823
38.7596
35.3316
31.906
30.529
29.2662
28.5541
29.1455
27.8555
27.5563
27.5953
27.8692
28.324
375.302
171.995
101.193
65.2565
52.8034
48.5185
48.7811
43.5239
39.3661
37.011
34.3912
33.0622
31.512
30.4612
30.4921
29.5816
28.3656
28.1339
28.2311
28.5746
317.94
176.735
114.073
73.9714
57.4205
50.7095
45.5606
42.7284
41.0247
39.1181
37.3505
35.5032
33.4764
32.0128
32.3086
30.9962
29.4148
28.8925
28.7991
28.8569
190.379
141.579
92.2481
64.0049
54.6951
48.8086
46.4221
44.3764
42.6983
41.2504
62.2969
55.4346
43.5271
37.4231
35.4262
32.0787
29.9787
28.9245
28.4403
28.1205
144.161
137.523
106.09
69.3637
58.961
53.1314
50.4107
47.6034
43.3067
40.5706
39.5498
39.5985
39.0448
37.689
35.4082
31.8929
29.8116
28.4661
27.6207
26.9237
144.338
159.722
124.423
72.2624
61.6147
52.2034
49.2499
44.4602
39.2971
37.0287
35.1993
34.5748
33.8224
33.484
32.8116
30.9764
29.9103
28.7611
27.8544
26.7834
159.067
138.924
114.771
73.6479
60.7936
48.94
45.0809
38.6446
36.0686
33.006
32.3447
31.3872
31.4444
31.3019
31.1948
30.8281
30.3835
29.5181
28.7804
27.6302
194.236
183.129
141.817
84.6932
60.7122
46.1252
42.3579
37.1399
34.8253
32.5567
31.9972
31.356
31.3324
31.1972
31.0733
30.6925
30.2272
29.274
28.5097
27.2582
248.737
143.476
98.9396
63.8716
53.4106
43.1569
40.241
35.2969
33.9496
31.9547
31.6601
30.8985
30.7508
30.2867
29.9809
29.3277
28.743
27.7555
27.0236
26.1031
216.435
169.158
94.5321
59.7472
49.162
40.4256
37.5974
33.0581
32.1899
30.2507
30.0533
29.0987
28.8014
28.1103
27.7298
27.1059
26.6214
26.0241
25.638
25.3913
742.721
258.477
86.4885
53.742
44.544
37.141
34.4402
30.7757
30.168
28.4334
28.2592
27.5048
27.3417
26.963
26.8497
26.6496
26.5226
26.3986
26.3239
26.4574
352.346
174.587
85.536
63.4254
54.6103
41.2604
33.6499
30.119
29.3188
27.6767
27.4873
26.9646
27.0212
27.068
27.2858
27.6172
28.0383
28.5419
29.0426
29.9637
129.246
119.106
92.4047
77.4566
63.201
46.5676
35.5814
30.9852
28.9568
27.7128
27.3329
26.5829
26.2445
25.5655
25.2589
24.6622
24.7007
24.6265
24.7977
24.639
34.2782
85.9378
89.4735
81.8585
67.2829
57.314
51.9303
47.6824
43.1445
38.3309
34.3306
30.7427
28.0818
25.908
24.5014
23.4658
22.9037
22.5756
22.4087
22.4097
236.02
143.173
121.349
77.5168
88.9203
62.4184
72.219
57.6591
64.1173
55.5258
58.3242
52.8131
53.355
49.8159
49.5984
47.6828
47.8274
47.4326
48.3831
50.0877
295.882
170.384
113.417
71.1839
77.2966
54.2365
63.308
50.0533
56.7162
49.1603
52.4759
47.964
49.0802
46.3866
46.6445
45.2061
45.4138
44.8314
45.306
46.1755
229.133
189.339
114.567
69.7491
73.0563
52.1789
61.3923
48.8092
54.6478
47.9413
50.7708
47.1069
48.0717
45.9279
45.9915
44.6726
44.6561
44.013
44.4442
45.1945
187.901
144.207
93.3838
71.1974
66.9706
50.1183
59.5862
45.1065
52.1617
44.8129
48.3738
44.7959
46.2324
44.3229
44.7523
43.6843
43.9126
43.4441
43.9837
44.7077
168.372
123.472
103.275
65.6703
75.2589
52.908
62.7762
48.4518
51.219
45.0218
46.1534
43.5236
43.8954
42.6957
42.6514
42.0168
42.1704
41.9946
42.5219
43.5002
248.292
144.964
95.5148
68.6667
74.3632
52.518
61.387
47.0008
49.9557
43.1271
45.0986
42.1971
43.1867
41.8411
41.8547
41.1555
41.5363
41.4923
42.1999
43.152
588.294
266.585
160.132
86.1758
90.1422
67.5541
62.8334
51.5556
49.355
44.2669
43.8232
41.8519
41.9528
41.1995
44.9502
42.2207
41.9483
41.9955
42.6773
43.6505
404.548
186.473
119.843
67.6219
67.1636
56.3034
60.1358
54.3616
52.2493
49.5964
48.0018
47.0837
46.8721
46.7436
47.3352
44.8602
42.8697
42.5356
43.0442
43.8197
248.427
178.207
143.623
78.5028
81.3596
63.6842
58.1484
57.8813
56.1626
52.7916
49.9765
48.8053
50.1102
50.5812
49.4721
45.5747
43.2233
42.5987
42.9278
43.5724
304.086
159.475
115.91
66.3662
71.0023
57.569
57.4107
58.8808
57.5869
53.3108
52.4975
50.7774
51.9984
52.062
50.0894
45.7677
43.0649
42.0537
42.2642
42.6192
138.482
152.168
133.665
74.4611
79.1431
64.4944
64.5422
60.4531
56.7206
54.1113
52.7596
52.0829
52.2006
51.6316
49.8691
45.9322
42.827
41.2201
41.1834
41.242
183.398
185.352
150.306
79.0323
84.3917
65.3361
61.5499
51.8934
50.7408
47.7357
48.2469
47.3495
47.6344
46.8937
48.3888
44.5894
42.966
41.2627
40.9984
40.7342
193.472
152.876
131.059
74.526
79.9688
56.6914
59.2035
47.637
48.7668
43.3353
45.6817
43.6487
45.6324
44.8351
45.3653
44.1741
43.6615
41.9262
41.6827
41.1734
227.443
189.2
167.441
92.7716
86.4689
57.1352
60.9871
47.7012
48.3104
42.8245
44.5129
42.7252
44.3007
43.6487
44.319
43.4223
43.1341
41.593
41.3697
40.8332
298.656
165.182
115.157
69.7631
72.732
49.599
55.3263
43.0256
46.5114
40.9304
43.9197
41.3798
43.4708
41.9824
42.9044
41.5681
41.6476
40.3769
40.4571
40.3216
227.947
155.236
116.464
69.4778
71.6229
50.8829
54.3632
42.5525
45.396
39.6248
42.6261
39.6732
41.5826
39.8278
40.7307
39.6082
40.0456
39.335
39.7707
40.0004
256.148
151.745
104.716
75.2556
63.0661
50.9926
49.4464
40.213
42.6192
37.5564
41.1978
38.3499
40.6923
39.0264
40.4438
39.6381
40.5685
40.2404
40.9356
41.6405
206.842
151.725
101.46
72.7835
71.5452
52.0951
49.6746
41.9498
42.7316
37.3798
42.4408
39.5384
42.7459
41.1806
43.2828
42.9128
44.6012
44.8775
46.2469
47.4163
141.405
108.947
87.8376
72.7078
55.424
40.7853
32.9281
31.0569
29.4649
27.9451
27.1828
26.1288
25.461
24.8584
24.4884
24.1852
24.1358
24.072
24.0497
23.8634
37.4924
41.483
82.5386
38.3099
37.0472
40.8154
97.0445
35.9753
84.2917
75.3687
36.7355
35.5408
97.0218
75.4081
82.0334
40.4363
39.903
40.1152
89.0755
39.9918
40.0048
77.6137
40.172
41.6557
88.8879
76.1689
40.4938
42.0799
195.935
275.785
216.712
73.5976
61.0446
78.1076
63.9859
219.556
214.224
208.56
58.6257
54.0554
61.0999
56.3407
232.546
202.383
197.606
52.6925
48.6133
55.0392
50.7939
235.415
198.776
203.142
47.7989
46.555
49.6554
47.2181
218.054
203.539
202.57
46.004
44.8892
46.5386
44.9077
199.372
200.684
190.738
44.5485
43.6636
44.5257
43.9239
174.59
182.946
160.471
43.1335
42.3084
43.8223
42.4394
138.631
160.755
153.045
42.0577
39.4332
40.8242
35.1188
216.181
280.852
216.554
83.2058
65.208
81.8123
65.0849
209.722
218.181
235.494
61.7423
56.751
61.9317
58.2309
196.405
237.926
238.329
55.9711
53.8854
57.8355
55.4915
197.218
236.59
226.729
53.1094
50.733
54.8635
53.7704
194.446
222.127
203.7
49.7348
46.9563
53.741
52.7946
185.82
197.919
185.655
46.2602
44.8448
52.0381
51.1499
154.463
185.306
184.224
44.672
42.7933
51.2558
54.2606
148.573
177.057
114.272
40.7665
34.4048
54.2029
37.2623
222.532
294.188
239.909
79.1103
66.4247
83.2804
71.8371
248
237.427
250.359
63.6966
59.6341
68.8517
62.239
250.166
256.048
257.419
58.957
55.8399
60.5392
56.0414
237.634
255.729
248.975
54.7452
53.0781
54.7869
52.4725
212.854
246.86
234.324
53.0428
52.7735
52.089
51.7055
192.449
226.685
213.001
52.2768
51.0254
51.5985
49.8147
190.373
213.3
215.036
51.041
53.5559
48.7333
47.6996
120.638
212.209
145.57
55.8472
42.334
48.0576
48.2246
243.535
344.492
258.824
85.1642
73.3163
92.4263
76.9276
245.543
250.532
244.01
70.1494
62.5988
71.9047
63.7476
251.014
243.989
240.005
60.5322
55.7349
61.752
57.4065
246.423
236.487
225.14
54.5691
52.4048
55.9671
53.1755
232.918
218.654
197.171
51.9215
51.2268
52.0468
47.8205
213.913
193.416
196.335
50.9666
48.023
46.0526
41.3104
215.928
200.558
201.071
46.8503
45.566
40.3255
39.1756
152.924
198.669
161.769
45.6253
45.3831
39.021
38.3045
55.9771
65.8943
57.0539
53.6398
47.4447
52.3441
46.2897
49.6521
54.8743
50.9086
46.0542
42.4032
45.1097
42.5021
43.9741
49.7592
46.0921
40.9715
37.5528
41.679
39.2549
41.4514
45.0522
42.6098
36.8796
35.0072
38.5412
36.5969
39.8124
41.9348
40.3721
34.3925
33.2471
36.0623
34.838
38.7962
40.0425
39.526
33.0285
32.0918
34.567
33.7101
37.5537
39.4203
37.7568
31.7056
30.4124
33.3215
30.7469
35.395
36.2862
31.9748
29.893
27.7532
29.6395
26.4952
57.9528
67.1084
57.9419
52.0341
46.6331
51.8423
47.2939
51.422
55.6671
52.5561
45.4613
43.0795
46.2644
44.3034
48.6809
52.0661
49.9329
42.4844
40.777
43.8054
42.2913
45.5748
49.4214
48.8601
40.1799
38.4693
42.349
54.866
42.2949
49.0901
48.7283
37.9862
36.6457
57.4232
57.8408
40.5537
48.1533
47.4617
36.2488
34.911
55.9841
48.2346
38.0984
47.4899
47.7931
34.3466
31.0858
45.5728
37.7221
31.3392
46.8078
33.3184
29.7288
26.2746
35.0192
28.4686
59.1728
68.6419
63.7343
52.2587
48.4205
54.9003
51.9492
53.7
61.6371
56.4099
47.3767
45.049
50.8792
47.327
50.0812
54.8105
50.3733
44.3497
42.329
45.9897
42.4162
48.213
49.1774
47.0511
41.7746
54.904
41.552
40.5725
48.6111
46.7574
46.6112
57.2981
58.6009
40.6527
41.6699
47.4967
46.6002
45.4162
57.5046
51.5929
42.0533
42.4995
48.6501
44.7723
43.9131
49.1483
41.0267
42.4666
40.384
36.4557
44.0094
43.2524
38.4689
30.2556
39.2463
35.357
64.7903
71.323
66.1809
55.07
52.4727
55.5297
52.5924
56.6859
63.0703
56.306
51.4505
47.501
51.0876
46.2349
50.2109
54.4949
50.593
46.0191
42.2973
44.6983
41.4193
46.9823
49.471
46.9095
41.4427
39.9774
40.6264
38.3838
46.0281
45.9487
42.5947
39.7726
39.7212
37.654
35.6196
43.5843
41.3036
37.4627
39.709
39.103
34.9782
32.9285
41.62
36.6288
35.6824
38.9053
37.6233
32.4337
31.7959
41.2344
35.6278
36.0485
37.1194
34.7845
31.7682
31.7604
46.056
49.9798
44.54
48.9037
44.3311
46.836
42.7322
41.1972
43.5155
41.1619
43.2131
39.9585
42.0594
40.2864
36.7248
40.4059
38.2446
38.836
36.6893
39.6915
38.0797
34.1889
37.6066
35.8053
36.161
34.1063
37.5465
35.863
32.3978
35.3084
34.1367
33.5298
32.4217
35.3737
34.1201
31.0887
33.8461
32.7692
32.1
30.8248
33.7241
32.3559
29.3262
32.2721
29.7234
30.4397
29.421
31.8631
30.3035
26.948
28.7582
26.1706
29.0606
27.9742
29.8239
28.7958
44.7782
48.9942
45.5657
45.6377
42.765
45.6421
43.5924
41.6933
44.7253
42.9723
42.1845
40.699
43.1409
41.9534
39.5161
42.4876
41.2517
40.2355
38.8435
41.567
40.498
39.2193
38.3896
40.1392
38.2465
39.8887
37.7101
39.2647
40.8775
36.7516
40.773
36.6641
40.7595
36.3433
40.8665
33.9421
68.3467
50.1154
34.9863
33.0984
64.949
45.1133
30.0443
45.7002
36.0841
32.4626
30.5842
41.3536
34.9509
26.0082
33.6292
28.4994
30.0627
28.9373
33.7576
31.8391
46.654
52.4357
50.0982
46.4809
44.5161
49.8002
47.7932
43.6491
49.1239
45.7305
43.9842
42.4713
46.9233
43.9199
41.3563
44.4649
41.2048
41.9711
40.7011
42.9267
40.5653
53.3517
59.5662
40.9799
46.2072
44.3629
279.869
40.6806
74.86
81.9496
57.4138
221.938
58.92
203.217
73.9519
56.2173
42.1845
42.9007
70.334
51.1052
42.4683
42.4214
39.7714
42.8445
40.0424
46.443
38.0388
41.9155
39.1304
30.2679
38.6937
34.9022
36.4857
33.2715
38.2123
35.392
50.6
52.9599
50.6502
50.2187
48.346
50.6303
48.1094
45.8881
49.2359
44.482
47.4163
43.971
46.6692
42.063
41.0669
43.0149
39.9599
42.8458
40.3518
40.8692
38.5828
39.0327
39.2444
37.1189
39.7743
38.8234
38.0468
36.3716
39.0295
36.4693
34.7619
38.7873
38.9941
35.9841
35.067
38.7917
34.2466
32.5646
39.0257
38.7448
34.7995
33.8166
37.2076
32.1331
31.5594
38.5007
37.2007
33.5507
33.1218
34.4393
31.5189
31.4117
36.7413
34.9049
33.0262
32.4257
44.6155
46.8495
43.189
54.0049
50.1633
51.8267
50.7032
40.3613
42.6246
41.0416
48.8818
46.2869
50.2951
49.0041
37.5435
40.5035
39.0239
46.043
44.6964
48.5904
46.7137
34.9168
38.4845
36.744
43.9143
42.058
45.9119
43.9284
33.3973
36.239
34.9647
42.0015
41.5022
43.4585
42.544
31.8346
34.5556
33.3909
41.206
40.5752
42.4434
42.9868
30.7473
33.0284
32.0193
40.6781
40.6338
43.182
43.4933
29.3975
31.705
30.8441
40.5499
39.7639
43.4817
43.2121
43.1926
45.5672
43.9464
51.2845
50.8683
50.9908
51.3033
41.4469
43.6134
42.6638
50.6017
49.5925
51.2756
50.7981
39.6699
42.3258
41.161
49.1993
46.9928
50.2515
48.0015
37.7093
41.1546
61.8932
46.2084
44.2341
47.1469
48.1261
36.0584
63.3764
57.3872
43.7484
42.5517
48.31
46.5136
33.9174
53.008
42.2992
42.3131
43.0327
45.5281
44.8646
32.3252
40.0075
36.025
43.3933
43.8969
45.167
45.5019
31.06
35.3038
33.7367
43.9003
43.5218
45.4446
44.6596
44.7945
49.8985
47.9777
51.3845
51.7035
55.6261
54.2504
43.1286
47.1318
44.3274
51.6251
51.0438
53.3818
51.1566
41.368
43.4523
41.3513
50.454
48.2515
50.5802
48.428
60.6999
40.8059
40.6007
47.4576
48.6154
47.7823
46.7451
58.6071
40.964
42.0831
48.8986
47.2869
46.6711
46.4478
46.224
42.2518
41.9022
46.3525
45.9292
46.3522
46.6875
38.4148
41.4444
39.4675
46.1661
46.1737
46.7702
46.4597
34.9439
38.7851
36.2852
45.9941
44.9368
46.1829
44.9749
48.5487
50.7915
48.1437
57.2265
54.8568
57.4655
52.7864
44.3123
46.6558
42.1315
53.6447
50.7794
51.0483
47.105
41.1135
41.0741
39.1046
50.1105
48.2099
46.7518
45.563
39.6149
38.6235
37.1119
47.5987
46.5288
45.148
44.2545
39.6271
36.8207
36.1562
46.37
46.1146
44.3855
44.3344
39.2598
35.9475
35.134
46.0398
46.3012
44.2102
43.752
38.0783
34.9125
34.5572
46.3137
46.0456
43.7848
43.5822
35.8836
34.439
33.6083
45.7851
44.7803
43.4304
42.3603
55.7582
58.1342
57.7882
95.6176
93.0898
99.9886
109.101
52.1797
57.303
55.8891
93.5078
102.512
109.024
110.805
50.5352
55.4526
53.367
105.369
99.5415
111.329
113.964
47.8978
52.4664
50.4142
99.0189
102.445
114.905
116.982
47.3686
49.9524
49.062
103.825
99.8567
117.135
114.136
46.6077
48.9649
49.6031
99.8463
101.317
112.562
107.016
46.7891
49.8523
50.1764
102.59
101.047
106.612
105.953
45.2931
50.1566
49.2088
101.844
101.774
106.199
107.965
58.1747
57.603
58.6556
102.737
112.807
101.183
114.876
56.6324
58.6444
57.9961
112.434
113.083
115.381
117.285
53.7273
57.3879
54.4155
113.871
118.944
119.408
128.865
50.4912
53.0034
52.0142
120.361
122.399
131.066
134.423
48.8686
51.9173
50.3774
122.38
119.444
134.455
130.805
49.6674
50.1189
50.8435
117.416
109.548
127.754
115.085
50.5906
51.3339
51.8168
107.75
106.588
111.369
107.691
49.4852
51.7488
50.2151
106.731
108.059
107.692
108.249
58.8656
62.1304
61.2116
95.4457
113.292
103.345
113.723
58.1897
60.2736
57.9432
114.525
117.241
113.645
113.449
54.6664
57.303
55.0914
119.439
128.99
113.988
119.038
52.548
54.3105
52.934
131.438
134.45
120.635
122.662
51.0069
52.7161
52.1467
134.412
130.991
122.91
121.334
51.578
52.0764
52.3582
127.824
114.987
119.318
109.913
52.215
52.4928
52.197
111.234
107.382
107.579
105.623
50.3691
51.9456
50.2831
107.414
108.225
105.727
106.767
61.8323
64.618
58.3044
110.829
113.918
106.517
96.9603
57.3783
56.4299
52.7334
112.454
111.246
96.6309
100.117
54.7456
52.6402
51.2717
111.07
113.717
102.937
98.0535
52.9638
50.8028
49.9688
114.947
116.766
98.0971
100.159
52.2502
50.2488
50.0479
117.178
115.73
102.63
99.4594
52.184
49.8982
49.4235
114.288
107.064
99.9922
100.137
51.873
49.5462
49.2523
106.185
104.885
101.993
99.8154
50.1542
49.1059
47.4624
105.048
107.086
100.978
100.933
39.6162
37.8995
40.4771
36.9675
40.0059
37.2834
40.4848
44.0339
40.9782
57.3589
45.7631
42.0351
40.3961
209.902
52.5004
49.2601
74.2844
245.309
45.6133
57.3355
271.906
38.903
38.03
37.7767
39.0549
37.5057
38.8988
38.9222
39.3913
36.8238
37.3558
39.9029
37.1067
40.3159
39.1965
44.0756
46.2408
39.9517
62.591
40.0513
214.695
41.3836
52.7668
245.617
50.3895
87.2472
57.7682
273.453
46.0668
40.8823
36.3794
40.2147
35.5961
40.6534
36.0109
40.2157
58.2425
51.106
84.0173
225.582
51.5888
58.3663
205.801
58.7547
50.6018
81.9975
109.486
51.6237
54.4966
138.16
40.6521
36.5365
36.4022
40.1433
36.2239
40.6639
40.089
40.5944
35.4353
36.0209
39.0882
35.8827
39.7867
39.8554
58.2324
224.402
51.6828
96.0873
58.4751
204.967
51.6826
58.0067
108.167
48.9246
89.2604
53.5061
139.043
51.2643
65.2966
75.8706
54.5321
244.514
50.1597
265.91
71.0495
40.6194
40.5323
39.9534
39.8191
40.6538
40.0327
39.4665
42.1801
42.8127
39.8268
39.6781
41.3728
44.229
39.4808
54.3004
47.0283
61.4392
40.6973
269.403
40.6168
44.9805
69.0054
243.114
82.3726
59.6425
267.19
75.6714
53.5858
40.6745
39.6703
40.2558
39.7118
39.9514
39.3966
40.6307
42.5536
39.7435
44.0295
39.7577
44.8609
39.4629
41.9682
74.1428
83.3544
61.4725
135.211
60.2489
180.399
76.14
47.3208
44.1591
40.5863
40.128
45.253
45.9724
40.6562
48.5035
47.5663
41.0798
41.9362
46.3126
50.1979
41.2429
79.2089
219.456
87.3625
62.8504
198.771
78.6731
64.4809
77.9234
125.074
85.9959
64.6128
166.408
78.1237
65.0544
48.1895
40.2669
45.7377
41.0287
46.75
40.843
47.0571
49.3535
42.1215
49.137
41.5528
50.9738
41.4419
48.0686
196.911
214.003
185.708
123.486
104.921
120.157
98.4067
165.037
169.831
159.621
97.6852
89.5954
83.7191
76.1874
148.438
152.13
149.912
80.8457
71.1262
69.4859
65.0036
139.405
148.295
145.713
65.1318
59.3175
61.7259
58.5078
123.118
139.662
134.228
55.4664
51.5425
55.8685
53.9362
107.812
126.696
119.437
49.7099
48.2184
52.2876
50.0914
92.9377
112.623
105.966
46.9286
45.2868
49.3914
48.5915
80.0593
101.32
86.5602
44.7586
39.4744
48.6168
43.5826
162.067
190.751
167.944
106.756
80.0898
114.016
91.4437
126.041
229.664
262.121
147.007
124.608
146.592
235.259
89.5674
200.342
209.687
81.4905
79.1751
92.741
209.691
82.7463
226.347
210.499
81.5834
81.4199
84.2074
214.077
82.0732
236.077
227.245
80.7874
80.8689
81.9077
229.019
80.6874
226.966
227.276
81.3581
80.1868
81.4316
224.143
77.9824
209.082
213.898
77.3663
76.3315
78.671
209.76
73.5726
185.858
194.664
72.7878
71.2126
74.7864
186.431
70.3367
166.541
172.756
69.8089
69.8565
71.3371
171.717
87.3624
104.762
85.3927
43.3805
38.3632
40.2145
33.2986
181.094
209.157
175.319
126.03
100.365
124.777
98.6543
140.117
253.931
288.297
162.845
138.634
164.323
249.835
90.4276
211.769
209.904
95.4264
90.4511
95.2055
210.541
90.1911
199.868
211.355
86.7858
86.2863
90.0562
210.439
88.6135
196.887
206.152
84.4699
83.938
89.4248
205.258
85.1882
196.005
198.433
81.858
80.6856
86.5259
195.948
80.3678
190.004
190.105
77.4607
76.575
81.2406
187.34
77.7553
170.901
182.365
73.9245
73.0163
77.8175
178.586
66.4632
155.461
147.607
66.9537
63.6061
72.5427
147.001
85.4187
90.9824
81.6002
37.1886
30.7051
37.5749
28.1358
164.967
189.026
171.467
111.691
92.607
112.973
95.9029
137.005
239.982
277.861
151.757
133.571
153.079
251.84
99.3497
234.67
234.099
99.6009
96.7886
103.869
238.814
96.1011
251.451
256.098
96.3689
96.3605
96.3558
256.98
92.1297
245.026
253.629
92.8657
91.5043
93.3697
251.036
88.9329
226.97
241.482
89.8799
89.3547
89.5644
236.712
85.2821
201.084
218.228
86.1542
84.198
87.3049
211.426
79.8217
191.292
200.833
81.3854
79.8252
81.8925
201.165
93.0965
170.119
198.021
90.7797
95.3853
84.479
184.403
72.0901
80.9297
69.9191
42.4389
28.5174
47.2066
33.3488
181.132
210.81
194.879
117.658
98.458
118.117
105.808
148.015
279.821
310.567
166.415
146.505
167.435
283.03
103.474
236.801
233.192
108.7
102.206
109.881
232.33
93.3493
252
240.632
95.2935
94.0654
94.9519
241.377
89.3287
248.99
240.791
91.0882
90.5835
89.715
240.636
86.9588
243.556
238.591
89.2598
88.7093
87.6054
236.556
79.729
217.243
214.253
85.7107
83.9814
81.8812
210.097
75.0568
217.314
214.476
78.6033
77.3765
75.3433
215.861
72.9829
202.366
210.516
76.7279
76.3638
74.4136
200.88
73.9074
107.344
91.4349
47.1278
35.9389
43.8659
39.0603
167.105
195.133
172.486
109.37
90.3683
108.101
90.1195
155.012
163.412
160.437
77.5619
72.1168
81.042
79.175
145.906
152.812
142.847
68.3565
65.1749
75.09
70.14
134.94
134.095
128.022
62.8957
60.0968
64.5304
62.2661
117.759
120.152
110.516
56.8878
54.015
57.558
53.0777
114.78
105.368
102.865
50.1025
46.8615