/*--------------------------------*- C++ -*----------------------------------*\
  =========                 |
  \\      /  F ield         | OpenFOAM: The Open Source CFD Toolbox
   \\    /   O peration     | Website:  https://openfoam.org
    \\  /    A nd           | Version:  10
     \\/     M anipulation  |
\*---------------------------------------------------------------------------*/
FoamFile
{
    format      ascii;
    class       surfaceScalarField;
    location    "4.1";
    object      phi_0;
}
// * * * * * * * * * * * * * * * * * * * * * * * * * * * * * * * * * * * * * //

dimensions      [0 3 -1 0 0 0 0];

internalField   nonuniform List<scalar> 
38556
(
1820.47
-289.819
4293.16
1258.07
518.997
43.4012
1648.54
115.712
-506.177
1466.9
178.6
3.03713
1438.78
102.112
-73.986
1436.81
27.2328
-25.264
1467.19
-16.6748
-13.7027
1530.77
-50.1324
-13.4492
1585.15
-60.0303
5.65044
1644.15
-63.9136
4.90614
1679.06
-61.6478
26.7437
1707.57
-59.3256
30.8113
1720.35
-54.7338
41.9614
1730.51
-49.1692
39.0012
1728.09
-37.0485
39.4765
1721.32
-23.7502
30.5185
1705.17
-1.83647
17.9818
1674.3
16.491
14.3846
1585.67
54.303
34.325
44.3848
27.0634
287.043
606.87
-288.8
658.995
336.282
-189.236
1164.25
-197.291
-192.251
1142.67
56.5347
143.647
1244.95
-30.2331
30.0608
1285.93
-4.00108
-9.74483
1327.69
-51.4406
-6.9973
1352.32
-53.7742
-20.9801
1356.48
-55.0463
-9.14794
1349.92
-37.6317
-19.7238
1328.55
-25.922
-14.3556
1302.85
-6.23769
-27.3873
1276.56
2.03204
-30.4752
1255.12
15.2936
-43.0203
1235.93
27.3511
-45.2082
1223.19
44.1061
-55.1166
1222.87
59.3468
-60.8649
1231.18
67.4398
-59.2608
1241.57
70.6176
-26.7061
49.3857
-4.88589
381.18
658.817
2480.29
885.029
353.912
-521.48
1083.9
-146.655
-249.509
1103.45
80.427
-43.4442
1075.52
-15.435
13.1394
1082.21
7.75431
-18.4453
1123.7
-80.4761
-12.4598
1157.23
-67.7221
-19.5796
1192.99
-80.2116
-10.5927
1218.74
-42.76
-20.6223
1236.65
-25.9324
-17.9056
1249.5
7.3843
-26.4711
1257.49
19.7648
-25.7244
1263.57
41.9769
-32.759
1270.08
49.8036
-28.9676
1278.6
65.9753
-30.3836
1287.68
74.2808
-24.0149
1290.56
77.7358
-13.1728
1272.9
82.1451
6.12732
57.445
12.6863
557.718
-1152.57
-608.752
1107.63
286.448
-482.444
1105.11
137.248
-281.388
1126.95
112.639
-54.048
1069.95
-46.4382
87.9973
1055.1
-14.7714
37.3793
1098.23
-165.483
41.8726
1118.77
-108.647
20.39
1161.33
-139.766
16.9932
1185.04
-70.619
4.15291
1214.21
-57.3806
2.27528
1232.27
-1.59076
-9.0837
1250.29
10.9167
-9.17608
1267.6
43.3822
-18.7167
1287.14
50.4871
-20.2167
1308.55
66.6361
-22.0694
1320.16
77.6156
-14.948
1311.31
84.847
1.74143
1270.36
97.2136
25.8747
72.7565
19.0007
550.337
279.575
4157.62
431.614
399.439
5.73224
375.774
71.598
121.489
468.225
-49.9584
70.1473
786.175
-340.017
-24.3724
816.154
-175.737
130.988
939.623
-368.475
79.5229
983.753
-220.893
68.1156
1048
-260.85
56.8374
1083.56
-138.249
32.0696
1126.63
-123.13
22.6779
1162.02
-42.6836
5.70404
1192.04
-20.0227
0.91869
1222.77
22.0566
-9.40422
1246.44
35.674
-8.85882
1264.32
58.8068
-10.0467
1270.96
74.6291
-3.65158
1259.47
87.5781
8.75795
1233.98
98.4694
24.2349
72.5566
19.5431
-85.6536
-22.1201
-181.14
384.833
250.367
-321.416
859.701
-228.464
-174.806
1096.12
-302.883
16.5047
1162.23
-458.923
52.7963
1197.6
-264.324
53.2152
1196.03
-427.678
60.7776
1145.3
-242.059
71.889
1119.43
-283.475
48.5011
1091.28
-144.454
34.3513
1083.37
-132.811
17.5927
1081.61
-46.0691
5.14528
1091.73
-32.399
2.25917
1105.38
14.3735
-5.97317
1121.62
29.4948
-10.0572
1132.57
58.9881
-11.1338
1137.1
76.3747
-6.26891
1133.52
89.7496
1.40387
1125.78
92.1018
14.1035
60.0243
21.02
1098.41
47.2853
1874.71
908.969
215.461
224.346
899.822
-350.129
130.811
1122.59
-489.912
-35.7363
1220.81
-563.152
6.01029
1273.39
-308.778
-8.13236
1224.46
-93.8259
74.2603
-133.945
-94.8409
-130.389
1168.26
-83.7492
81.4973
-63.8018
-73.0674
-46.7449
1087.75
-54.901
51.8118
-80.606
-44.8392
-74.424
1046.65
-43.9121
32.3959
-33.7211
-36.5234
-21.5949
1026.18
-26.5716
18.3615
-44.3234
-20.7971
-39.009
1017.13
-17.9677
11.0218
-10.5941
-13.2662
-6.22086
1017.43
-7.26607
5.23554
-14.1678
-4.82539
-11.6744
1022.78
-2.22834
5.92682
1.48305
0.379664
3.46243
1029.92
24.5751
-2.214
1037.92
58.405
-7.42228
1049.45
70.6649
-5.81633
1053.32
82.0868
3.78818
1060.48
74.9719
9.96811
36.6922
19.5155
1780.69
-274.814
-347.121
1952.32
-253.565
297.389
1670.14
-394.171
326.224
1597.25
-437.373
20.3554
1562.29
-487.694
-40.4997
401.117
-68.2183
-102.654
389.158
393.415
379.783
-35.5281
-65.9754
-37.5871
398.882
-79.1618
-12.4285
-372.992
376.121
-81.0358
-5.8419
-358.116
344.94
-44.4789
2.75344
-306.314
301.387
-44.8193
5.8346
-288.67
291.093
-28.7206
-0.2742
-273.284
280.62
-25.7603
0.456256
-272.922
279.206
-16.8467
3.29683
-269.133
274.778
-14.0365
6.16302
1038.17
9.79934
10.7062
-264.441
-279.445
-251.948
-261.746
6.10073
11.5146
5.86588
1028.01
70.5493
-1.98334
1028.9
69.4469
0.326289
1034.41
68.1675
8.41139
1056.42
38.2198
14.7348
-2.66478
22.4496
-170.678
-2276.13
2585.69
530.435
-1078.67
123.989
825.166
-904.423
215.521
958.994
-535.846
-35.3557
199.733
-467.071
54.7576
216.711
225.303
241.866
218.334
-87.6026
0.783125
8.93799
-62.8935
61.6403
-8.53477
0.849994
-58.8184
13.3034
63.513
-17.4864
-0.511718
-69.6943
8.22844
73.4063
-11.9899
0.0495235
-73.5048
7.45305
76.2714
-9.7201
-0.499507
-75.9789
4.80685
77.8099
-6.47801
-0.159821
-75.4812
3.67654
77.2833
-5.29962
-0.178987
-75.3924
2.33008
77.0217
-4.00668
0.0472956
-75.0215
2.12356
76.6296
-4.4769
0.745234
-73.0193
284.974
9.37156
5.21291
-74.4454
-70.7025
-71.5919
1031.51
80.6351
4.37516
-266.799
-267.921
-254.707
-256.543
1027.76
68.8408
4.35732
1037.17
51.7178
7.03621
1062.57
2.74393
10.0749
-30.7927
13.4167
2440.6
-1151.03
972.022
2038.77
-1013.48
336.643
1616.33
-759.265
277.279
1585.59
-489.142
-15.9578
351.949
-341.713
11.2402
336.283
387.524
373.232
100.87
335.527
-80.1849
-4.26246
24.1892
-80.4389
78.8048
-20.8423
-1.71281
20.096
-79.5188
80.2847
-20.4059
-0.456024
14.7584
-83.5942
84.4837
-16.4464
0.798498
9.50628
-85.93
86.1908
-10.8763
1.10921
5.98731
-86.5477
86.2253
-6.66086
0.995963
4.32875
-84.3262
83.5946
-4.26564
0.668474
3.44684
-81.7945
80.908
-3.19863
0.638276
2.77506
-76.6071
75.2186
-2.10815
0.721574
-71.4431
-18.6213
273.821
25.5721
1.5014
-71.4502
-69.5444
-69.8357
1059.34
82.582
-1.57605
-267.886
-269.524
-258.449
-263.848
1066.01
65.2834
-3.12083
1079.89
45.8403
-8.00305
1096.6
-6.55372
-7.41259
-35.9432
1.50253
1952.65
-35.3411
-1407.06
1426.5
-602.73
115.397
1158.64
-531.468
40.0674
1172.09
-448.127
-54.4733
264.262
-334.551
70.5201
265.785
280.293
284.073
66.0051
260.209
-73.2715
11.3197
17.3779
-69.3106
69.6052
-17.793
0.120423
23.202
-78.236
81.3989
-25.7473
-0.617548
25.0398
-87.5909
88.586
-26.2066
0.171769
17.1895
-90.0546
90.5416
-17.7306
0.0540926
10.3943
-91.9052
92.566
-11.5134
0.458376
5.66065
-93.9239
93.9412
-6.46495
0.78702
4.47806
-93.6968
93.7717
-5.28606
0.733095
-1.76615
-95.6182
93.3374
1.79166
2.25526
-75.318
-32.6226
283.822
42.695
9.03966
-76.8993
-74.35
-76.367
1111.77
105.74
-11.3875
-278.311
-287.849
-273.747
-283.633
1109.4
80.3169
-12.6629
1112.13
55.8082
-12.7012
1108.6
5.05367
-8.07131
-24.3784
0.424359
1490.17
-1105.7
-1301.3
1299.59
-397.553
-14.5879
1339.26
-354.199
-216.948
1385.3
-367.493
-126.671
310.557
-297.847
61.7336
309.925
335.668
330.714
97.3381
312.968
-106.744
6.99498
30.9444
-84.3962
86.1943
-31.6889
-1.05361
27.4787
-89.186
88.8865
-26.1093
-1.07
23.7357
-86.5573
85.9665
-22.1087
-1.0361
15.6071
-86.4547
86.7743
-14.8875
-1.03927
11.3511
-87.3359
87.5537
-10.5967
-0.97225
7.61572
-88.6617
88.6712
-7.13341
-0.491763
3.89055
-86.0687
85.4275
-2.05343
-1.19595
-2.4155
-85.3377
85.4488
3.94212
-1.63771
-82.7544
-53.3019
316.785
57.2909
4.76154
-82.1435
-80.5996
-80.0376
1148.36
147.778
2.24171
-304.711
-304.359
-292.313
-291.256
1121.8
119.398
-12.5229
1118.76
76.5193
-17.6667
1107.89
27.4083
-11.4892
-2.42023
-2.72563
-628.725
44.2634
622.453
177.525
-593.178
-610.625
1005.68
-568.335
-614.025
1160.71
-451.99
-70.5325
1271.23
-395.455
-12.9046
325.992
-520.814
3.76709
124.412
141.519
119.307
133.101
312.679
322.122
309.141
31.6712
311.24
-98.6994
-1.50784
23.1807
34.2581
25.8494
23.9884
-291.228
283.348
-78.5536
-0.232038
19.7225
23.7812
19.1729
23.0466
-298.031
306.624
-83.2012
-5.27763
18.0998
21.7818
16.9576
14.4955
-305.166
300.464
-38.0043
-3.18053
9.65398
13.163
8.57496
9.53874
-308.628
306.912
-23.3488
-2.58448
5.27004
8.41337
4.42651
3.04268
-301.04
289.326
6.40547
0.248187
0.486161
1.98831
-0.457297
-0.988528
-292.498
292.922
18.8489
-4.88567
-5.4367
-1.77603
-6.18608
-6.32605
-294.973
296.458
38.6037
-4.26814
-11.0271
-6.99414
-11.4737
1154.92
163.982
14.8496
-47.7347
-55.0468
-44.4677
-50.3728
-297.569
-283.163
-282.681
-272.717
1144.03
154.902
3.7701
1142.37
137.235
-16.1835
1154.78
87.2164
-23.1078
1152.48
46.0737
-16.3565
21.8999
-5.95887
1590.22
1168.35
-707.585
1296.74
-226.392
-73.3042
1415.09
-328.341
-358.345
1382.03
-389.376
-29.5573
1307.21
-345.137
24.5046
1224.5
-446.98
8.87273
1192.62
-284.186
33.4377
93.1195
53.4465
89.3683
46.7008
1182.06
-361.52
12.1328
87.5331
99.6036
80.749
92.0596
1152.61
-186.553
4.48136
77.4404
38.0918
67.891
28.0964
1133.26
-153.214
17.8076
45.3158
39.6918
36.2804
33.4672
1099.26
-10.3847
20.8557
21.2911
-0.201156
11.6076
-9.16443
1082.14
13.76
25.0473
-2.17825
-5.69589
-5.10127
-8.71414
1078.82
87.2093
19.6604
-15.0003
-35.1981
-17.2161
-36.1301
1095.74
91.436
20.8762
-28.3878
-37.5502
-27.41
-35.8865
1117.6
120.832
21.2857
1146.35
115.155
10.9963
1175.29
111.432
-3.13029
1196.97
79.0452
-13.5124
1207.86
51.7318
-16.55
33.6612
-3.27235
1976
-1084.43
-4146.92
1707.93
152.934
-111.254
1709.57
218.291
-548.27
1700.54
-154.039
-226.305
1487.37
-117.649
-14.316
1357.67
-323.593
6.30723
1268.57
-219.976
24.8918
1202.18
-282.977
-12.1482
1164.72
-126.541
-22.5554
1141.26
-110.546
-19.2078
1127.02
6.95784
-3.1038
1121.68
14.6541
4.44888
1125.96
69.0217
13.9029
1139.22
63.7487
14.428
1154.82
87.9855
17.247
1181.5
80.2542
8.2199
1204.52
83.5649
4.84607
1216.67
68.7052
-1.80941
1214.7
59.5092
-5.80732
47.6337
0.278536
-401.763
-1528.67
1266.79
88.2121
80.6375
-417.678
1006.78
46.7804
-747.061
1025.81
-186.232
13.1642
1102.83
-178.161
-16.5067
1094.27
-321.6
6.56728
1052.72
-222.065
43.6349
1033.72
-261.563
-2.41444
1037.85
-117.949
-12.718
1059.4
-115.051
-17.0482
1081.7
-10.5413
-4.79211
1101.02
-7.33452
2.66345
1114.99
45.3868
9.6619
1129.88
43.5837
5.28214
1143.79
68.623
5.44797
1158.37
66.2728
-0.596583
1167.61
75.9756
-1.65291
1171.25
67.2998
-2.23137
1156.24
73.2314
1.2815
65.8397
3.74125
3706.97
448.543
943.837
2247.29
997.92
542.397
1622.02
418.403
253.646
1399.85
-13.4164
49.3618
1254.78
-86.1071
53.0135
1180.27
-247.233
0.138793
1078.88
-162.94
42.2699
1000.31
-189.588
6.59382
966.79
-101.184
16.755
972.423
-118.778
-1.90617
1005.02
-51.3067
8.16496
1025.24
-32.2292
4.67643
1038.64
27.7229
4.2689
1046.17
37.8509
-1.79842
1052.27
66.3478
-3.82301
1056.83
68.6821
-6.9707
1056.32
81.583
-5.10103
1049.54
77.108
-3.02477
1029.92
89.0908
3.75424
80.1403
5.10964
-821.161
-513.826
3215.55
-75.2077
344.51
-92.5437
585.888
275.572
-518.265
623.879
9.00616
-60.4146
924.915
-138.976
-248.166
949.844
-183.373
-88.7901
958.819
-163.565
-8.35055
913.706
-132.465
-12.0098
877.752
-114.821
49.5912
886.263
-154.405
27.1157
925.116
-120.167
30.0078
952.968
-65.4674
5.38628
975.77
3.50746
1.41438
990
30.127
-6.50701
1001.96
60.1472
-5.75577
1010.08
68.3844
-7.82895
1013.73
82.7659
-4.83035
1011.58
84.1404
-4.88488
1005.3
96.3044
-0.931609
85.9229
1.2302
509.893
425.891
2776.16
615.793
48.4853
190.125
912.706
85.8008
-107.141
879.87
108.072
-66.2297
1110.85
-59.0085
-310.952
1212.4
22.1747
-307.093
1315.48
16.2872
-282.932
1329.17
79.1397
-225.297
1211.09
11.4932
-8.23206
1087.75
-79.806
48.7377
1000.14
-144.275
111.719
970.889
-77.0634
40.8477
968.247
-8.89167
15.0413
976.677
22.2858
-0.589056
990.905
46.7642
-0.844308
1004.46
57.1802
-2.34837
1015.62
69.7873
1.8158
1020.55
77.0061
2.20841
1020.57
91.2207
5.05771
83.0127
4.37425
1763.63
4295.4
1338.05
474.064
1383.22
40.6284
1502.17
-10.8751
1608.26
-165.096
1824.55
-194.117
2063.82
-222.987
2332.8
-189.838
2250.57
93.7266
1899.1
271.659
1402.11
352.719
1155.15
169.889
1074.44
71.8243
1047.68
49.0403
1050.22
44.2271
1061.94
45.4595
1080.69
51.033
1100.27
57.4265
1129.05
62.446
60.1847
3887.67
-1965.17
-873.624
2160.45
108.78
1661.83
1785.47
102.479
-233.676
1525.12
173.549
89.8382
1420.59
131.06
-100.515
1382.83
51.1235
-38.6245
1375.92
14.5361
-21.3282
1409.39
-31.3098
-15.6072
1443.38
-46.8007
18.4544
1488.3
-50.9885
10.9806
1523.71
-47.2875
38.6214
1558.64
-40.1065
35.9796
1581.26
-30.8635
50.2069
1597.14
-20.6865
43.8101
1596.85
-6.97065
46.7333
1584.08
3.995
39.2971
1545.67
26.4871
29.9008
1487.07
42.413
30.5721
1403.9
51.9735
65.5243
25.3305
56.4282
439.697
-78.2427
-2016.27
553.645
328.931
-523.334
1012.27
-66.962
-481.43
1030.15
144.92
154.395
1136.93
61.597
-7.26299
1156.08
38.9336
-16.7024
1180.09
-9.95702
-6.51623
1185.7
-35.0455
-22.8481
1186.77
-49.9506
-7.07296
1178.76
-35.5945
-27.1055
1167.14
-27.0712
-22.9588
1150.76
-5.06289
-46.047
1135.24
3.39596
-49.2097
1118.94
18.2243
-65.6318
1104.64
29.7129
-67.5993
1092.35
41.5958
-80.4271
1084.75
50.3379
-77.1144
1079.37
52.2244
-63.692
1078.66
45.4378
-19.4593
21.5812
1.18522
734.399
143.844
3496.36
891.307
294.696
-644.154
865.166
-103.568
-186.762
887.78
126.784
-47.9215
932.238
30.6672
-0.388709
943.688
29.4642
-20.426
992.437
-72.2601
1.09398
1013.03
-62.5043
-12.7136
1041.14
-82.5581
-6.09632
1052.81
-46.5623
-21.3195
1063.86
-38.6979
-17.3343
1065.88
-1.67849
-31.8711
1067.11
5.94721
-29.5098
1065.44
26.1394
-39.0052
1065.35
34.7934
-33.957
1064.56
46.6698
-34.6651
1064.02
51.6532
-24.7876
1062.16
53.8825
-12.9721
1056.79
48.1506
8.77934
26.4495
15.465
729.954
0.740879
-353.361
900.007
365.475
-723.276
808.074
143.014
-436.036
819.419
133.582
-72.1917
891.601
-21.3244
67.8064
896.386
13.0455
49.0132
967.788
-149.027
47.2373
978.88
-81.1971
27.9914
1015.05
-121.295
19.563
1022.76
-53.8651
3.74326
1041.38
-54.7258
-0.316603
1046.86
-2.2492
-13.9969
1054.27
1.89874
-12.5367
1058.47
26.4897
-23.2637
1063.06
33.3069
-23.3192
1064.6
46.8068
-23.7446
1061.74
53.7733
-14.2155
1055.67
59.4963
2.19825
1043.69
59.0799
26.923
35.8409
21.7243
-141.664
440.772
3356.18
-51.6537
266.348
14.8485
236.247
42.3452
-65.7423
360.3
-10.5922
90.2684
631.302
-267.07
-49.6293
675.646
-76.1661
175.855
825.113
-298.264
79.2937
863.282
-131.725
80.4747
924.786
-188.201
62.2388
945.872
-75.6834
32.8012
974.54
-83.4262
22.7108
989.65
-12.7388
1.08301
1004.66
-10.1527
-2.04443
1016.6
17.827
-12.6754
1025.08
26.505
-10.5382
1028.15
45.165
-11.4776
1027.87
53.6868
-3.28563
1025.16
61.4914
9.47877
1022.49
61.203
24.7755
35.9882
23.952
-368.295
307.02
-3022.09
35.3471
-25.0484
-433.662
607.367
-334.743
-369.737
803.769
-242.205
51.7158
903.186
-357.95
44.2602
925.669
-115.062
69.6287
973.705
-349.299
63.7755
949.697
-113.282
77.4543
956.228
-196.273
50.042
940.716
-56.5047
30.6839
939.831
-81.1728
16.2242
934.064
-5.82904
4.00311
937.74
-11.3354
-0.233591
939.234
19.267
-8.90755
942.341
24.0911
-10.7497
945.622
43.081
-12.3316
948.972
50.5279
-6.45951
952.167
56.5153
3.18458
959.23
51.8757
16.3685
26.9242
26.5686
435.047
1394.28
-1491.1
512.864
214.723
-93.242
645.174
-385.143
48.9007
822.526
-427.868
-27.4251
888.183
-440.721
23.1241
889.203
-130.578
6.36254
884.912
-66.9648
74.4325
-109.614
-63.3774
-105.225
877.841
-46.507
82.7263
-16.723
-36.4389
-7.77071
871.848
-32.5874
49.4374
-64.233
-29.3239
-61.7612
868.972
-23.9159
33.7181
-7.89372
-19.3747
-3.76554
872.607
-13.5101
17.2476
-30.4121
-11.7684
-28.0034
876.02
-7.57856
13.0675
-0.085873
-5.35231
1.72898
884.523
-2.32031
5.82206
-8.51321
-1.74974
-7.84187
888.907
3.18435
5.36184
3.96684
4.05204
4.24481
892.84
21.59
-3.64598
896.178
39.6193
-7.29858
905.645
40.3308
-5.08659
915.562
44.9658
5.42113
931.683
33.4966
12.2259
13.7502
22.8605
1256.78
906.42
-99.8367
1409.75
-79.6398
438.783
1376.72
-402.793
376.899
1341.01
-399.683
27.8799
1292.98
-394.716
-38.4737
323.879
-38.4753
-103.54
314.489
307.194
300.689
-10.1495
-30.4347
-3.90174
14.7074
314.183
-49.2284
-22.7475
1.4161
-278.254
282.712
-55.6945
3.31345
-5.79648
-273.716
268.602
-31.4375
9.76117
-5.35243
-240.94
247.093
-32.4107
7.69439
1.29455
-240.062
244.2
-18.9582
0.0159968
0.398091
-229.415
237.531
-17.072
0.97873
-4.07514
-232.236
238.398
-9.20351
4.79619
-6.96143
-229.242
236.593
-4.40388
7.19898
901.66
10.6579
10.0565
-227.752
-237.396
-217.791
-225.286
4.82496
8.97748
4.34489
901.861
40.7723
-3.33765
909.549
32.4194
0.549785
924.312
29.4345
9.18015
947.228
10.3489
14.9664
-2.61317
24.693
-272.073
-442.02
1737.21
296.05
-749.321
225.548
739.659
-835.698
204.818
780.508
-468.487
-7.40076
190.886
-380.816
61.0351
198.54
184.187
186.717
-2.32646
220.002
-65.6086
0.34432
0.641755
5.5981
-62.356
63.2624
-6.39138
-0.754869
-0.0040417
-62.6664
10.4314
65.4018
-13.6569
0.494178
-1.20103
-66.3021
6.5015
68.186
-8.78139
1.59702
0.424814
-65.57
5.31272
67.1176
-7.08807
-0.197083
0.554113
-65.5682
3.17446
66.8215
-4.55065
-0.431268
0.690444
-64.1925
2.29185
65.5163
-3.67755
-0.628503
-0.357726
-63.5326
0.873547
64.8514
-2.41901
0.584412
-1.1162
-62.6988
-0.849945
63.9143
-0.63247
1.38311
-60.9944
-5.92679
245.157
8.80776
6.07746
-62.2172
-59.5148
-60.7316
926.235
40.6436
6.65758
-233.962
-239.283
-224.681
-230.463
930.468
28.6311
3.91284
942.758
15.9505
8.22953
960.888
-7.70558
9.99961
-15.1891
16.7922
2164.85
356.361
-1445.6
1905.1
-443.972
291.041
1521.15
-507.054
332.584
1365.5
-328.557
-0.239146
321.871
-248.796
12.6058
309.758
305.218
295.271
0.398804
81.8702
316.637
-71.0208
-6.01458
-0.232129
17.6284
-77.0025
76.0581
-16.5522
0.100278
-1.42873
14.7141
-73.6144
73.4489
-15.0912
1.97136
-2.61709
10.2189
-74.44
74.8652
-11.0372
3.01018
-2.94539
6.18074
-75.3483
75.1971
-6.28439
3.20026
-1.90834
3.02263
-74.4212
74.0247
-2.40704
1.6892
-1.2158
1.68898
-72.704
72.2193
-1.19633
1.20793
-2.12047
0.695805
-70.3732
69.3323
-0.313548
2.7791
-2.38225
-1.10831
-66.0546
65.1964
1.77153
2.57723
-62.8888
-3.4635
-13.8806
246.409
17.4124
4.37267
-63.7225
-61.675
-62.5638
967.806
45.496
-1.29986
-244.229
-250.466
-236.125
-242.114
967.825
30.6472
-5.15666
970.363
12.807
-7.39733
976.253
-13.315
-7.69328
-21.003
6.80181
1927.59
791.713
1393.66
1477.92
-175.283
296.373
1030.45
-278.825
259.309
935.594
-256.07
-32.1035
235.884
-240.301
67.1772
239.941
225.676
228.942
-11.5888
59.9567
238.93
-56.283
4.86836
-3.24026
14.2534
-64.8279
66.789
-15.9753
3.00098
-0.774403
16.9421
-72.9435
74.207
-18.5545
1.12328
-0.520283
14.51
-76.7948
77.3919
-15.2038
0.617002
-0.359777
7.97288
-78.6183
78.7882
-8.50099
0.718029
-1.90407
2.6999
-79.6634
80.0741
-3.54231
2.33588
-1.86526
0.452367
-81.4863
81.8407
-0.605236
1.66375
-1.42063
-2.08894
-82.0497
81.3668
2.65817
1.53428
-7.23487
-6.26153
-75.7334
73.0451
8.13213
8.05261
-67.9635
-11.0196
-22.5315
265.317
31.3723
9.55042
-69.7192
-66.6951
-68.3106
1005.26
66.3318
-3.89112
-260.148
-267.874
-250.179
-255.387
990.819
44.8088
-12.3879
980.834
21.168
-11.0774
973.187
-7.28605
-6.45271
-16.3046
5.24693
928.456
-348.538
-1118.84
1011.27
-212.713
-59.97
1125.78
-282.026
-328.26
1119.54
-264.359
-112.14
287.789
-222.744
42.4176
283.457
276.946
273.106
-16.9029
75.7288
301.653
-85.6436
12.9538
-2.04763
25.963
-80.2345
81.1155
-26.684
1.88757
0.16884
20.5137
-80.5029
79.5049
-19.7356
0.0511137
2.04054
14.2242
-76.4207
75.6928
-13.3426
-2.19436
2.58982
7.89583
-74.2819
74.0552
-7.39031
-2.86866
2.6722
4.05051
-74.0246
74.1566
-3.83922
-3.01549
2.10946
0.743913
-74.4501
74.5184
-0.390675
-2.53104
3.38517
-3.84504
-74.5389
74.4903
4.28767
-3.77929
2.22372
-10.1852
-73.6798
73.1784
10.1082
-1.64529
-71.9498
-7.14617
-40.6235
278.593
44.6606
8.48247
-71.7061
-70.2326
-70.0783
1011.37
92.8304
7.66338
-269.278
-266.797
-254.783
-252.428
990.397
67.7716
-14.5178
975.852
33.5679
-15.521
959.494
8.54822
-10.965
-4.4341
2.02061
331.814
-322.62
-404.788
513.349
-479.338
-525.534
865.493
-559.133
-689.063
1004.26
-409.292
-64.3647
1118.19
-319.899
-29.6805
286.33
-411.407
7.38405
102.045
113.824
98.6584
108.232
274.638
276.426
265.824
26.2305
-2.90532
269.759
-67.6563
-1.07116
18.9933
25.139
17.8404
16.5659
-2.77979
-250.61
244.899
-48.1011
0.33419
12.7154
15.3179
11.6584
13.1493
2.89456
-258.527
260.179
-42.6857
-3.5938
8.90012
11.8849
7.79805
6.29925
2.73746
-254.368
247.321
-8.30166
-5.35055
3.67774
5.06562
2.91986
2.58531
4.63921
-256.047
253.386
0.465975
-6.79076
0.34015
1.82586
-0.405471
-0.851232
2.40959
-251.476
248.876
16.5837
-5.31307
-4.15642
-1.40711
-4.66508
-3.9395
8.1078
-255.679
256.621
24.6513
-9.40128
-7.91209
-4.29321
-8.1549
-7.65665
4.45818
-257.752
258.375
36.2115
-3.38244
-11.401
-7.66173
-11.1903
1014.71
120.571
24.1024
-35.3836
-41.4588
-30.8306
-35.5229
-260.095
-251.759
-247.741
-241.741
1010.78
100.193
0.33552
1002.25
77.5676
-17.4542
993.064
41.7793
-22.1282
976.297
24.3933
-15.4351
11.3622
-1.77799
1813.91
1032.12
-1312.66
1447.38
177.424
-363.532
1249.58
-155.349
-564.337
1170.71
-317.726
-42.2444
1110.23
-246.05
11.1275
1022.68
-315.835
0.859615
990.007
-98.2754
24.8648
57.0807
21.2767
49.5074
11.6525
964.797
-202.952
9.49176
55.902
66.199
49.4363
59.2657
934.398
-21.1715
-6.35236
38.0323
3.77272
26.0697
-5.47071
927.661
-60.07
22.9059
14.9771
19.6393
10.3634
16.7285
922.263
55.9039
17.2022
1.02836
-21.2675
-2.33292
-24.2798
930.819
32.9734
25.3384
-8.47605
-12.0009
-9.25079
-12.0929
947.301
89.5815
21.2232
-18.2436
-35.9182
-18.5344
-34.9308
972.061
75.6469
26.9659
-24.1039
-32.2125
-22.0463
-28.1339
993.162
95.8074
24.9493
1011.23
82.0626
11.0596
1022.08
69.8261
-6.24353
1019.97
44.8232
-14.4472
1009.25
34.5725
-16.0077
23.6716
-0.319679
3404.07
513.764
-6053.2
3236.22
593.335
-359.318
2127.36
501.229
-95.9848
1611.67
-0.90521
-27.4376
1290.2
35.6604
25.4417
1149.83
-189.769
20.6136
1079.95
-31.468
27.9633
1012.03
-136.904
-10.2783
970.67
14.8514
-17.216
943.339
-35.0683
-16.879
939.345
56.2999
0.494371
946.071
24.6548
6.04111
962.402
70.902
16.2519
980.627
55.4175
16.4321
996.572
76.8578
20.2519
1013.19
64.3348
9.32834
1021.16
64.4076
2.29262
1019.06
48.115
-2.99694
1005.41
47.3777
-4.96288
37.7196
3.50289
785.684
518.149
-1151.92
638.385
445.842
-122.887
919.291
207.164
-733.902
873.691
-22.5614
80.4203
909.868
0.961396
-17.9846
880.613
-167.352
13.4059
878.831
-18.6307
32.5793
865.12
-116.351
-9.25602
872.827
9.93957
-15.5131
884.727
-49.1461
-14.8711
906.754
28.349
1.13197
925.128
4.26498
4.67936
943.261
50.4612
11.9698
958.218
39.849
5.89277
970.749
63.6469
6.12795
979.087
55.8499
-0.449679
979.905
63.4054
-1.46823
974.972
53.1982
-2.38182
959.883
60.979
2.76938
51.3613
7.188
940.103
392.534
1575.72
853.33
941.551
133.461
1100.86
390.121
-176.838
1032.72
76.62
18.3186
987.878
69.4993
29.316
922.407
-105.801
4.05925
888.696
15.7234
41.6271
839.468
-60.4051
-0.124655
839.282
15.1688
11.7121
843.829
-54.2047
-1.39455
870.2
-1.03289
11.1759
882.11
-7.77774
4.80911
893.714
38.1314
4.99412
898.444
36.1495
-2.82795
903.175
59.1204
-4.02769
905
54.6099
-7.55598
903.273
64.8373
-4.80564
898.612
58.3582
-3.52439
891.802
69.0526
2.49129
57.6977
7.1302
-971.443
-2192.12
6541.18
-270.799
95.8435
52.5195
271.992
254.444
-925.379
425.611
40.0556
-177.469
670.925
-94.7227
-329.258
644.356
-93.1047
-74.9185
717.64
-49.452
-16.4591
688.74
-25.2045
-18.3098
729.838
-21.4274
45.0895
757.174
-84.6603
30.2352
806.961
-58.044
37.2316
829.791
-33.848
8.62678
849.626
16.1198
3.59123
859.983
27.0672
-7.78158
870.972
48.9803
-6.60412
877.96
49.7289
-9.93642
883.455
60.4948
-5.98311
884.955
58.6989
-6.72527
887.906
69.21
-4.04038
56.4996
2.27756
244.015
446.41
-528.842
371.468
214.411
-55.8951
712.149
273.136
-466.514
725.574
134.783
-174.382
853.392
-117.599
-415.894
839.611
-72.0053
-314.412
860.502
-98.9416
-254.333
827.28
-35.032
-182.248
830.011
-47.6427
15.2522
826.283
-104.017
71.8229
849.673
-99.541
129.826
857.632
-48.4723
47.5135
867.511
1.69769
19.5838
875.157
20.69
-1.85731
887.586
38.5532
-2.84657
899.046
42.902
-6.98101
911.329
52.4121
-2.38471
919.192
56.3395
-3.29555
927.401
68.6711
-2.61213
57.4438
-1.54274
1571.73
-2586.09
1282.79
977.412
1487.15
109.402
1533.01
78.052
1395.54
-145.232
1374.58
-245.161
1335.23
-282.58
1389.41
-279.045
1360.3
75.1889
1250.36
277.583
1111.53
392.007
1032.92
200.036
997.208
109.229
992.149
74.79
1003.36
71.572
1020.31
71.4044
1043.98
79.7815
1068.85
88.8901
1105.53
94.4408
89.3192
2682.81
-1465.36
1514.48
2465.7
88.0925
1790.86
1913.68
167.922
150.425
1657.05
154.301
192.162
1442.99
130.318
-16.7688
1356.51
57.1991
-9.34349
1303.98
22.9083
8.28923
1306.89
-14.4813
-4.0326
1326.06
-31.6893
30.9738
1357.71
-32.2719
11.5969
1387.26
-25.1419
34.2155
1415.1
-14.6907
22.8321
1431.58
-1.67979
35.4097
1438.21
7.35631
29.8191
1430.13
18.9803
35.8332
1406.1
28.9213
34.4012
1344.4
46.187
45.421
1274.65
51.2065
49.1121
1223.23
36.9204
80.0197
14.8101
67.4445
1816.34
-491.804
397.561
1086.45
259.773
34.8706
959.9
144.255
-331.208
971.303
213.191
84.103
1034.33
106.484
-46.4523
1034.29
63.1068
-22.572
1049.46
9.51878
-8.2986
1045.2
-13.0851
-19.9849
1048.45
-39.3027
-2.70628
1039.11
-23.3273
-26.7159
1033.14
-17.932
-24.1997
1020.02
-0.173577
-47.4357
1009.65
7.48672
-48.009
994.976
20.5682
-64.1715
981.207
28.3452
-63.1953
964.686
36.6878
-71.6729
950.946
41.2636
-58.451
940.478
37.8666
-39.884
941.244
26.6427
-9.94748
10.8821
2.69893
890.976
-458.631
1390.73
918.56
245.829
-657.794
771.253
-8.34365
113.144
768.89
170.247
-2.61525
825.567
58.3336
-8.91477
831.74
35.3902
1.1174
879.255
-47.6356
10.733
890.884
-35.6533
-1.7738
916.826
-70.4666
-0.874162
919.249
-31.8681
-15.2024
927.692
-33.7413
-9.96806
922.752
-1.48895
-25.6155
919.99
2.21684
-21.4774
912.389
19.9692
-30.8058
907.461
25.1926
-25.8758
900.827
34.7356
-26.0791
896.978
36.5614
-16.2365
894.022
35.2799
-7.42971
895.652
26.9322
6.86014
12.3494
13.229
1094.38
89.9964
-1681.2
914.624
365.549
-663.242
719.596
156.604
-405.955
695.494
163.717
-41.5602
769.068
14.1974
38.3682
776.723
28.8999
47.8483
856.034
-120.645
40.9358
859.494
-31.5579
20.4361
893.13
-98.5673
14.0282
891.758
-25.0192
-1.73394
904.91
-46.6854
-0.524979
902.287
-0.811609
-12.0512
903.073
-1.05459
-10.0503
898.587
19.8311
-18.6398
895.326
22.2935
-17.1595
888.994
34.7445
-17.4217
882.603
37.6022
-8.8645
878.266
39.3245
2.48975
879.191
34.6025
18.3281
16.2581
17.8471
119.847
1230.26
323.417
118.109
292.507
89.6282
188.453
93.3898
-72.8716
313.15
38.1995
91.0892
503.761
-185.168
-40.8744
559.245
6.56575
142.705
711.971
-238.68
44.6026
747.465
-58.0838
71.5068
808.845
-141.857
44.1488
822.767
-27.036
20.8953
846.397
-63.0334
15.4286
852.487
-4.39496
-1.42356
860.763
-8.63648
-2.73876
862.956
15.9572
-10.9938
864.562
17.8556
-7.70629
862.024
34.331
-8.52621
860.68
37.037
-1.37667
861.232
40.5346
7.71706
867.615
35.7615
17.2337
16.8389
19.8923
-373.337
235.591
-3324.24
100.994
-193.239
-422.247
461.759
-234.183
-402.929
631.503
-150.257
70.4283
722.964
-266.42
34.0507
744.783
-9.10593
63.4811
822.052
-293.707
41.5338
807.195
-13.0002
47.2273
827.631
-145.745
33.4943
817.727
-7.39461
20.947
819.914
-58.8966
9.90007
813.775
5.86675
-0.119748
815.747
-9.10013
-1.7419
811.994
18.806
-8.0027
810.697
16.1198
-7.71689
811.323
30.3516
-8.97905
813.897
31.9545
-3.9512
819.305
34.4742
3.83786
830.998
28.2942
12.1427
12.7678
22.2464
-210.459
1091.09
-1880.14
-86.9624
-229.558
-180.42
417.44
-424.336
-265.349
583.145
-350.833
7.44507
664.484
-343.219
18.5845
648.691
-18.727
31.7772
682.656
-53.5518
43.255
-96.3534
-52.5437
-94.0464
703.985
-21.5204
75.533
2.84421
-15.6701
7.21049
732.223
-23.3461
29.9402
-55.3644
-22.3535
-53.4217
745.046
-12.1015
29.7659
1.66255
-9.06127
3.23455
758.058
-9.15692
9.21643
-23.7336
-8.56228
-22.4241
764.81
-2.54588
10.2407
2.41147
-1.04896
3.12456
776.263
-1.293
2.69378
-7.30133
-1.48817
-7.34285
779.991
4.23017
3.26548
4.35037
4.12418
4.47016
783.389
12.369
-3.29354
785.976
25.3553
-4.88913
794.223
21.1008
-2.47991
804.177
24.747
5.19449
820.096
15.8538
8.7469
6.15037
18.9239
315.765
52.1844
-108.42
1127.53
-307.691
-294.847
1194.05
-363.389
249.427
1162.74
-314.361
22.7204
1095.02
-305.752
-8.22186
262.498
-12.7043
-60.0611
258.282
248.015
244.889
15.5094
-4.85722
21.1831
18.0716
245.327
-34.392
-20.0597
-5.14419
-205.85
216.437
-36.0528
9.09014
-9.3057
-216.362
218.391
-24.4226
8.35377
-7.3353
-198.447
208.968
-23.2732
7.9856
-0.444364
-205.419
210.719
-14.8299
0.817019
-1.9122
-197.725
206.408
-12.2916
2.97516
-4.19107
-201.917
208.248
-6.90254
3.46933
-6.35297
-199.729
207.565
-2.69806
5.44546
795.141
5.84681
6.64978
-199.634
-206.889
-190.814
-197.186
3.15873
3.92734
2.2249
797.701
21.9956
-2.53785
805.282
13.2185
0.850898
818.312
13.7251
7.17195
835.899
3.81104
9.42159
-0.320261
19.7364
134.908
-464.327
58.5158
316.21
-665.871
402.425
594.786
-630.054
192.907
609.191
-344.449
8.28285
161.888
-299.646
39.3105
159.98
153.921
149.02
-1.1392
191.308
-40.4332
-0.55252
0.989222
2.01706
-54.7946
55.4564
-1.98212
-1.68595
-1.46702
-54.6513
7.25229
57.0523
-10.02
1.83371
-2.17588
-58.4982
4.68671
60.0662
-6.36317
2.28427
-0.311949
-57.2551
3.87325
58.5132
-5.31139
0.491974
0.334883
-57.0723
1.93807
58.1109
-3.09434
-0.217193
0.319335
-55.3728
1.2518
56.469
-2.52876
-0.138601
-0.735603
-54.7594
-0.0799388
55.9515
-1.19772
0.821167
-1.55566
-54.0273
-1.54287
55.2474
0.370861
1.50751
-53.2088
-5.51161
216.495
3.20983
4.90519
-54.5616
-52.0711
-53.4102
823.839
19.0887
10.6762
-207.643
-214.246
-198.542
-204.52
827.142
10.7168
3.11134
836.586
5.20285
7.30794
848.558
-3.92982
5.76794
-6.08849
15.1018
2516.13
387.723
-1237.14
1819.27
-385.849
707.878
1336.18
-346.208
531.833
1157.42
-217.102
51.1657
268.346
-189.787
29.4586
260.139
254.536
247.691
1.80641
60.4938
262.39
-52.8759
-3.46822
-2.39627
11.6159
-64.7747
64.6445
-11.2497
2.1602
-2.8934
9.93232
-64.3402
64.4254
-10.1124
2.98826
-3.47226
6.28319
-65.2113
65.4733
-6.47944
3.40646
-3.19992
3.07384
-65.6256
65.3198
-2.36414
2.79595
-64.3334