/*--------------------------------*- C++ -*----------------------------------*\
  =========                 |
  \\      /  F ield         | OpenFOAM: The Open Source CFD Toolbox
   \\    /   O peration     | Website:  https://openfoam.org
    \\  /    A nd           | Version:  10
     \\/     M anipulation  |
\*---------------------------------------------------------------------------*/
FoamFile
{
    format      ascii;
    class       volScalarField;
    location    "4.1";
    object      turbidity;
}
// * * * * * * * * * * * * * * * * * * * * * * * * * * * * * * * * * * * * * //

dimensions      [0 0 0 0 0 0 0];

internalField   nonuniform List<scalar> 
12920
(
-0.0292716
-0.0731312
-0.082735
-0.107439
-0.117629
-0.131677
-0.144959
-0.155808
-0.167241
-0.178444
-0.189824
-0.201885
-0.215133
-0.230115
-0.247238
-0.266828
-0.289009
-0.314198
-0.344176
-0.382983
-0.0298465
-0.0658148
-0.0891442
-0.111336
-0.125963
-0.136126
-0.148018
-0.15847
-0.17176
-0.182308
-0.193945
-0.202885
-0.213005
-0.224182
-0.240179
-0.259245
-0.284456
-0.319072
-0.367927
-0.420021
-0.0296372
-0.0481207
-0.0751423
-0.102606
-0.128588
-0.146958
-0.167872
-0.18251
-0.196748
-0.203191
-0.208992
-0.211501
-0.2167
-0.223839
-0.236149
-0.253966
-0.279693
-0.313964
-0.35539
-0.401264
-0.0301229
-0.0498579
-0.0823375
-0.1108
-0.142752
-0.174103
-0.203025
-0.225609
-0.243512
-0.253387
-0.259583
-0.258529
-0.258038
-0.258329
-0.263887
-0.27658
-0.298144
-0.327795
-0.3643
-0.40931
-0.0406288
-0.0800953
-0.126874
-0.163023
-0.171823
-0.196408
-0.208899
-0.232124
-0.252625
-0.275898
-0.294152
-0.30418
-0.309995
-0.311778
-0.318056
-0.329402
-0.347237
-0.369955
-0.397913
-0.431267
-0.0323958
-0.0623394
-0.0935312
-0.119653
-0.136093
-0.156499
-0.169394
-0.191409
-0.212508
-0.247959
-0.28318
-0.316996
-0.34122
-0.354502
-0.364501
-0.375466
-0.392558
-0.41476
-0.441094
-0.473707
-0.0152981
-0.0645683
-0.0884184
-0.102155
-0.116111
-0.132309
-0.140842
-0.15527
-0.165053
-0.193517
-0.22688
-0.276
-0.319465
-0.358484
-0.385484
-0.404225
-0.424159
-0.446543
-0.46939
-0.491153
-0.0129773
-0.0353755
-0.0596477
-0.0802707
-0.100468
-0.113009
-0.114088
-0.112176
-0.107483
-0.0993336
-0.0987605
-0.107989
-0.130736
-0.16497
-0.241426
-0.309178
-0.360267
-0.394326
-0.412291
-0.414317
-0.0249527
-0.0527032
-0.0708112
-0.0872629
-0.11523
-0.118692
-0.11701
-0.104369
-0.0901714
-0.0789235
-0.0702072
-0.0661846
-0.0661433
-0.0695134
-0.118092
-0.215819
-0.268315
-0.299283
-0.31143
-0.318521
-0.0105884
-0.0304096
-0.0556856
-0.0782607
-0.102289
-0.106736
-0.110986
-0.108197
-0.100403
-0.0909824
-0.0830313
-0.0775399
-0.0730172
-0.0724686
-0.103208
-0.170438
-0.209926
-0.236285
-0.257433
-0.2817
-0.00964837
-0.0302936
-0.0615449
-0.0900605
-0.116764
-0.118135
-0.116804
-0.110923
-0.105334
-0.0960927
-0.0855273
-0.0764465
-0.069825
-0.0662537
-0.091742
-0.139987
-0.175368
-0.206154
-0.239247
-0.277121
-0.0159564
-0.0316088
-0.0516034
-0.0818794
-0.114963
-0.12241
-0.128225
-0.125221
-0.120262
-0.113031
-0.103746
-0.0930201
-0.0795435
-0.0693383
-0.0758049
-0.120209
-0.158203
-0.19405
-0.235026
-0.284631
-0.041769
-0.0497979
-0.0549942
-0.0857232
-0.116923
-0.14207
-0.144791
-0.146589
-0.15299
-0.147952
-0.141294
-0.128251
-0.110987
-0.0948392
-0.117051
-0.149729
-0.180939
-0.213215
-0.253582
-0.303846
-0.0181031
-0.0562205
-0.0628003
-0.0871391
-0.113825
-0.138632
-0.16414
-0.188054
-0.210068
-0.232384
-0.247069
-0.255419
-0.247822
-0.239994
-0.238061
-0.249023
-0.266484
-0.290787
-0.324279
-0.36563
-0.0217264
-0.0339675
-0.054572
-0.0826398
-0.110864
-0.135661
-0.162853
-0.188534
-0.210219
-0.232514
-0.256001
-0.2778
-0.29244
-0.304404
-0.313456
-0.32562
-0.340553
-0.359214
-0.384089
-0.414687
-0.0468961
-0.0553069
-0.0651187
-0.0940803
-0.113212
-0.132939
-0.161458
-0.195949
-0.226164
-0.252579
-0.274842
-0.295998
-0.314532
-0.331844
-0.346763
-0.360874
-0.377112
-0.399256
-0.428854
-0.465281
-0.00919146
-0.0321258
-0.0555971
-0.080267
-0.10265
-0.124168
-0.157008
-0.200668
-0.24622
-0.281436
-0.305368
-0.325409
-0.342424
-0.357438
-0.370835
-0.386146
-0.408256
-0.439827
-0.478539
-0.521517
-0.0453001
-0.0480401
-0.0543379
-0.0842939
-0.0871124
-0.104707
-0.137752
-0.182003
-0.233267
-0.280038
-0.316954
-0.339905
-0.356335
-0.369576
-0.38576
-0.405299
-0.431893
-0.464818
-0.504262
-0.543513
-0.0331883
-0.0593879
-0.0595873
-0.0642116
-0.0596602
-0.065111
-0.0834555
-0.114499
-0.162231
-0.220582
-0.287094
-0.341206
-0.37264
-0.391137
-0.409874
-0.430969
-0.457012
-0.486809
-0.518988
-0.548737
-0.00776546
-0.0389303
-0.0583564
-0.0653347
-0.0649526
-0.0648143
-0.0682814
-0.0777053
-0.0914318
-0.118713
-0.181301
-0.274666
-0.352504
-0.400937
-0.431563
-0.455098
-0.476929
-0.499322
-0.522546
-0.545114
-0.128543
-0.0790561
-0.023901
-0.0142092
-0.00980053
-0.00848756
-0.00906052
-0.0106528
-0.0147694
-0.0203798
-0.0306887
-0.0415316
-0.0528528
-0.0620906
-0.0696156
-0.0731618
-0.0735092
-0.0778953
-0.0973953
-0.126703
-0.0247255
-0.0144319
-0.0144269
-0.021971
-0.0142083
-0.0102478
-0.00976164
-0.00991121
-0.0101818
-0.0104125
-0.0112775
-0.0133271
-0.0168877
-0.0220129
-0.0288372
-0.0373102
-0.047929
-0.0617411
-0.0813691
-0.102222
-0.0330734
-0.0193249
-0.0177749
-0.0169342
-0.0175694
-0.0154201
-0.0176787
-0.0176843
-0.0176361
-0.0158141
-0.0149384
-0.0156215
-0.0187342
-0.0246131
-0.0335948
-0.0463616
-0.0644793
-0.0891313
-0.122701
-0.152346
-0.0266311
-0.0168222
-0.0199006
-0.0254648
-0.0414342
-0.0400355
-0.0484851
-0.0458845
-0.0455645
-0.0376238
-0.0322463
-0.0284064
-0.0290516
-0.0341116
-0.044105
-0.059378
-0.0810774
-0.108522
-0.13783
-0.149413
-0.0448481
-0.0231539
-0.029873
-0.0500227
-0.0457881
-0.0735915
-0.0750381
-0.0816917
-0.0829448
-0.0771581
-0.0697193
-0.0595479
-0.0548967
-0.0553934
-0.061861
-0.0731945
-0.0900287
-0.109491
-0.128231
-0.135836
-0.00869889
-0.0211145
-0.0193472
-0.0322824
-0.0428278
-0.053856
-0.0563268
-0.0673584
-0.0713244
-0.0763001
-0.0741865
-0.0669808
-0.0591095
-0.0549375
-0.0559494
-0.0620178
-0.0734979
-0.0906623
-0.112501
-0.123433
-0.0214098
-0.0360498
-0.0225672
-0.0210161
-0.0274023
-0.0343191
-0.0408033
-0.0472085
-0.0469619
-0.0554318
-0.0612476
-0.0667932
-0.0652091
-0.0588859
-0.0544873
-0.0569383
-0.0663651
-0.0828203
-0.101176
-0.108463
-0.016158
-0.0221572
-0.0225827
-0.0166663
-0.0196017
-0.023204
-0.025801
-0.033541
-0.0341814
-0.026775
-0.0321802
-0.0483096
-0.0699207
-0.0805139
-0.060379
-0.0617226
-0.0720782
-0.0890877
-0.104787
-0.109662
-0.0283587
-0.0166722
-0.0156855
-0.0134424
-0.025881
-0.0286943
-0.0282568
-0.033432
-0.0276333
-0.0178999
-0.0175274
-0.026725
-0.046965
-0.0721874
-0.0772097
-0.0672571
-0.0764753
-0.0848897
-0.0898012
-0.090549
-0.00624787
-0.012831
-0.0168348
-0.014141
-0.021064
-0.0250305
-0.033053
-0.0434363
-0.0553679
-0.0632058
-0.0600437
-0.0561291
-0.0631353
-0.0729866
-0.0694555
-0.060752
-0.062989
-0.065085
-0.06843
-0.0737824
-0.00480534
-0.0132824
-0.0164275
-0.0175219
-0.030792
-0.034962
-0.0432
-0.038918
-0.0302446
-0.0297469
-0.0408764
-0.0549088
-0.0624883
-0.0741336
-0.0770029
-0.0570829
-0.0550446
-0.0570232
-0.064617
-0.0757701
-0.00642654
-0.00667191
-0.00768889
-0.0134526
-0.0264512
-0.0328344
-0.0373087
-0.0359318
-0.0288508
-0.0291932
-0.0335612
-0.0407873
-0.0438119
-0.0553415
-0.0675025
-0.0578364
-0.0552999
-0.0584871
-0.0702358
-0.0872819
-0.0133895
-0.00983901
-0.00821877
-0.0110384
-0.0165433
-0.0229388
-0.0282962
-0.034777
-0.0389207
-0.0448608
-0.0539884
-0.0562114
-0.0544187
-0.0568505
-0.0634619
-0.0610154
-0.058987
-0.062988
-0.0769448
-0.0975395
-0.0156041
-0.0191635
-0.0143802
-0.0170207
-0.021828
-0.0267483
-0.0353568
-0.041287
-0.0517918
-0.0631682
-0.0696084
-0.0733629
-0.0743333
-0.0753222
-0.0729537
-0.0660318
-0.060852
-0.0632702
-0.0771479
-0.101559
-0.00366656
-0.0072421
-0.010217
-0.0134251
-0.0208077
-0.0292232
-0.0360664
-0.0372327
-0.0384426
-0.0401741
-0.0467703
-0.0515855
-0.0584288
-0.0609964
-0.0614331
-0.056524
-0.052997
-0.056032
-0.0708925
-0.094112
-0.0232428
-0.0107181
-0.00964921
-0.0146908
-0.0248502
-0.0363969
-0.0493573
-0.051858
-0.0508472
-0.0533392
-0.0561297
-0.0557197
-0.0537612
-0.0472152
-0.0430751
-0.0407924
-0.0441172
-0.0542544
-0.0747175
-0.093208
-0.0164407
-0.0116353
-0.0129042
-0.0172391
-0.031438
-0.0446547
-0.0668868
-0.0713966
-0.0743723
-0.0723337
-0.0703698
-0.0625612
-0.0521625
-0.0420479
-0.0378967
-0.0399408
-0.0478504
-0.0599327
-0.0761978
-0.0843592
-0.029275
-0.0102988
-0.0110434
-0.0185178
-0.0240076
-0.0373826
-0.0617654
-0.0697255
-0.0812892
-0.0707711
-0.0603702
-0.0464137
-0.0388464
-0.0355704
-0.0370621
-0.0425212
-0.0509102
-0.0592949
-0.0673711
-0.0701455
-0.0313685
-0.00801978
-0.00706452
-0.00708141
-0.00809921
-0.0143895
-0.0300999
-0.0511377
-0.0829832
-0.0935209
-0.0883228
-0.0598336
-0.0422489
-0.0365811
-0.0394934
-0.0462007
-0.0561823
-0.0644745
-0.0690541
-0.0657053
-0.019535
-0.0201017
-0.0156179
-0.01138
-0.00796522
-0.00723786
-0.0124452
-0.0258343
-0.0528075
-0.0870504
-0.122315
-0.137073
-0.13811
-0.142066
-0.152496
-0.167375
-0.18422
-0.201244
-0.214878
-0.224932
-0.0221646
-0.0273695
-0.0149829
-0.0102647
-0.00759367
-0.00601286
-0.00551673
-0.00585687
-0.00722766
-0.00925099
-0.012582
-0.016086
-0.019794
-0.0227831
-0.025594
-0.028295
-0.0330454
-0.0433353
-0.0619553
-0.0847406
-0.00568262
-0.00536251
-0.00577359
-0.00688908
-0.00542475
-0.00512012
-0.00551459
-0.00623827
-0.00726401
-0.00889427
-0.0112565
-0.0144703
-0.0183662
-0.0227757
-0.0275026
-0.0324245
-0.0376942
-0.0429405
-0.0471534
-0.0478785
-0.0201617
-0.00988804
-0.00792168
-0.00708736
-0.00702525
-0.00753827
-0.00899643
-0.00960906
-0.010511
-0.0116736
-0.0140979
-0.0179015
-0.0232842
-0.0299288
-0.0379209
-0.0468918
-0.0570346
-0.0670418
-0.0764007
-0.0793658
-0.0163813
-0.0116128
-0.00863913
-0.00945659
-0.0123221
-0.0134161
-0.0169885
-0.016704
-0.0175807
-0.0175737
-0.019581
-0.0231608
-0.0287913
-0.0358239
-0.0442015
-0.0531211
-0.0619256
-0.0687124
-0.0725862
-0.0684554
-0.0201376
-0.0105457
-0.011554
-0.0185254
-0.0165236
-0.029567
-0.0283045
-0.0301159
-0.029547
-0.0272581
-0.0267324
-0.0278524
-0.0312438
-0.0359826
-0.041635
-0.0473649
-0.052857
-0.057177
-0.060451
-0.0591909
-0.0053187
-0.0102812
-0.0112363
-0.016375
-0.0183075
-0.0238225
-0.0232314
-0.0279265
-0.028468
-0.028444
-0.02741
-0.0268349
-0.027712
-0.0298903
-0.0326076
-0.0357179
-0.0388828
-0.0419147
-0.0446727
-0.0427418
-0.0200284
-0.0175854
-0.0102278
-0.010857
-0.012653
-0.0156117
-0.0160812
-0.0201417
-0.0209099
-0.0243517
-0.0259514
-0.0273461
-0.027913
-0.028756
-0.0303878
-0.0326919
-0.0353011
-0.0378255
-0.0395648
-0.0380546
-0.0101034
-0.0152155
-0.013062
-0.00935257
-0.00925518
-0.010424
-0.0112872
-0.0131873
-0.0141952
-0.016353
-0.0218692
-0.027737
-0.0313685
-0.032019
-0.0350535
-0.0389726
-0.0431917
-0.0469297
-0.0489573
-0.047056
-0.0132588
-0.0103624
-0.00766482
-0.0069939
-0.0104798
-0.0106286
-0.0103084
-0.0106432
-0.00978757
-0.0118178
-0.0181825
-0.0266792
-0.0335307
-0.0364045
-0.0380087
-0.0436586
-0.0474329
-0.0490739
-0.0484334
-0.0455924
-0.00230727
-0.00624872
-0.00679086
-0.00526625
-0.00725961
-0.00829719
-0.0111793
-0.0153135
-0.0186474
-0.0193141
-0.0207837
-0.0290553
-0.0389202
-0.0382699
-0.0359554
-0.037347
-0.0397613
-0.0417197
-0.0432251
-0.0436513
-0.00463612
-0.00778523
-0.00871605
-0.00755053
-0.010731
-0.0110335
-0.0130418
-0.0137514
-0.01513
-0.0193646
-0.0240691
-0.0267482
-0.0343297
-0.0459061
-0.0374728
-0.0338464
-0.0357949
-0.0395636
-0.0439132
-0.0467404
-0.000909649
-0.00158421
-0.00297701
-0.00488639
-0.00753793
-0.00905376
-0.0107477
-0.0111854
-0.0131871
-0.0187713
-0.023691
-0.0253992
-0.0292896
-0.0380235
-0.0415073
-0.0334803
-0.0352131
-0.0407547
-0.0477253
-0.0522824
-0.00313986
-0.00433219
-0.00401889
-0.00442719
-0.00590488
-0.00865937
-0.0101977
-0.0133165
-0.0181965
-0.0246908
-0.0306742
-0.034321
-0.0385164
-0.0433145
-0.0365743
-0.0345059
-0.0368292
-0.04322
-0.0518248
-0.0576623
-0.00132179
-0.00613532
-0.00674335
-0.00642651
-0.00808465
-0.0110294
-0.0145594
-0.0181312
-0.0224198
-0.0259641
-0.0289546
-0.0311127
-0.0330082
-0.0334318
-0.0324893
-0.0321168
-0.0353051
-0.0424942
-0.0531077
-0.0628001
-0.00103027
-0.00330046
-0.0048368
-0.00688429
-0.0105504
-0.0141416
-0.0157806
-0.0161099
-0.0173007
-0.0171295
-0.0191082
-0.0197566
-0.0219961
-0.0228764
-0.0241778
-0.025857
-0.0298067
-0.0362344
-0.0450767
-0.0521454
-0.00553972
-0.00613198
-0.00605491
-0.0086018
-0.0143004
-0.0200474
-0.0225568
-0.0232149
-0.0220949
-0.021335
-0.020209
-0.0183501
-0.0177196
-0.0175429
-0.0192061
-0.0221625
-0.0265947
-0.0318244
-0.0380631
-0.0412158
-0.0178548
-0.011219
-0.00717247
-0.0126651
-0.0223677
-0.0285915
-0.0330804
-0.0314697
-0.0292187
-0.0259208
-0.0227379
-0.0192478
-0.0174744
-0.0177967
-0.0199639
-0.0231809
-0.0268179
-0.0301142
-0.0332379
-0.0344546
-0.0415673
-0.0292021
-0.0115844
-0.0152269
-0.0184105
-0.0247636
-0.0308813
-0.0283905
-0.0282096
-0.0226321
-0.0191716
-0.01701
-0.0172193
-0.0188267
-0.0211536
-0.0235252
-0.0256128
-0.0270033
-0.0280805
-0.0285443
-0.00879423
-0.00796426
-0.00530338
-0.00579918
-0.00655941
-0.0116229
-0.0203497
-0.0268156
-0.0379356
-0.0351838
-0.0280483
-0.0206807
-0.0186952
-0.0194068
-0.0209244
-0.0222795
-0.0233249
-0.0238748
-0.0242232
-0.0243975
-0.00266574
-0.00840186
-0.00724228
-0.00576896
-0.00441548
-0.00563982
-0.0128722
-0.0264256
-0.0487404
-0.0647228
-0.0740577
-0.0707758
-0.0698222
-0.0742369
-0.0827459
-0.0934122
-0.10427
-0.114846
-0.122369
-0.127594
-0.00745552
-0.0138708
-0.0114721
-0.00890884
-0.00665505
-0.0050883
-0.00439153
-0.00433673
-0.00480341
-0.00542305
-0.00651713
-0.00790032
-0.0100459
-0.0130521
-0.0176322
-0.0245035
-0.0343613
-0.0471494
-0.0618164
-0.0759249
-0.00386761
-0.00446338
-0.00506298
-0.0048899
-0.00484074
-0.00518342
-0.00604337
-0.00746947
-0.00943364
-0.0120101
-0.0148624
-0.0178979
-0.0209381
-0.0240217
-0.0270334
-0.0298136
-0.0318725
-0.032403
-0.0313279
-0.0295768
-0.0117595
-0.0056667
-0.00570192
-0.0057717
-0.00627744
-0.00696556
-0.00811146
-0.00939745
-0.0115648
-0.0143205
-0.0178732
-0.0215458
-0.0252564
-0.0283442
-0.0309068
-0.0325746
-0.0335327
-0.0334011
-0.0330544
-0.0308563
-0.00452871
-0.00622132
-0.00653212
-0.0068803
-0.00776837
-0.0090391
-0.010777
-0.0120059
-0.0140699
-0.016507
-0.0195761
-0.0227432
-0.025736
-0.0281673
-0.0299776
-0.0310295
-0.0314929
-0.0311703
-0.030569
-0.0284902
-0.0153385
-0.0100357
-0.00885332
-0.00910747
-0.00919921
-0.0136437
-0.0135598
-0.0151263
-0.0160884
-0.0173327
-0.0188438
-0.0206517
-0.022201
-0.0236604
-0.0247532
-0.0255843
-0.0262982
-0.0267577
-0.027235
-0.0265709
-0.00533734
-0.0125561
-0.0118451
-0.0107661
-0.00974715
-0.0123174
-0.0122917
-0.0143989
-0.0153483
-0.0161139
-0.0166572
-0.0172611
-0.0176772
-0.0182715
-0.018697
-0.0192983
-0.0199637
-0.0207866
-0.0217759
-0.0222581
-0.00449354
-0.0102271
-0.0080756
-0.007575
-0.00760391
-0.00948965
-0.00970208
-0.0126971
-0.0140144
-0.0155172
-0.0161662
-0.0165755
-0.0166358
-0.0168075
-0.0171815
-0.0177104
-0.0184363
-0.0193486
-0.0204534
-0.0215002
-0.00581525
-0.00970625
-0.00773664
-0.00604318
-0.00603713
-0.00687573
-0.00728803
-0.00961098
-0.0121048
-0.0146353
-0.0165719
-0.0182438
-0.0187541
-0.0191068
-0.0194846
-0.0200851
-0.0206938
-0.0213738
-0.0218563
-0.0219295
-0.0193612
-0.00914344
-0.00543526
-0.00498043
-0.0063085
-0.00668959
-0.00700979
-0.00798123
-0.0102394
-0.0139357
-0.0173674
-0.0200513
-0.022195
-0.0239194
-0.0259916
-0.0220266
-0.0213565
-0.0205256
-0.0198745
-0.0196101
-0.00663626
-0.00507319
-0.00423226
-0.00432437
-0.00582789
-0.00663358
-0.00790861
-0.00942738
-0.011321
-0.0149546
-0.0201425
-0.0238286
-0.0246623
-0.0252252
-0.0251018
-0.0187385
-0.0178606
-0.0176707
-0.0181679
-0.0190676
-0.0038062
-0.00564259
-0.00575718
-0.00555345
-0.00704455
-0.00780937
-0.0090932
-0.0110483
-0.0131277
-0.015123
-0.0183652
-0.0228593
-0.0260332
-0.0267633
-0.0237641
-0.0194245
-0.0199178
-0.0206619
-0.0216962
-0.0226418
-0.00085421
-0.00276906
-0.00357411
-0.00447406
-0.00567543
-0.00638668
-0.00729203
-0.00909119
-0.0129126
-0.017003
-0.0196044
-0.0222381
-0.0257635
-0.0280852
-0.0232175
-0.020627
-0.0223535
-0.0240963
-0.0256582
-0.0263624
-0.00211945
-0.00377157
-0.00362051
-0.00393669
-0.00481273
-0.00610471
-0.00698151
-0.01016
-0.0139204
-0.0184923
-0.0215811
-0.0235784
-0.0243766
-0.0237492
-0.0210011
-0.0228563
-0.0253643
-0.0276784
-0.0294598
-0.029852
-0.00125408
-0.00279719
-0.00369406
-0.00450943
-0.0053372
-0.00655389
-0.00834194
-0.00971126
-0.0117731
-0.0128924
-0.0146347
-0.0159665
-0.0175105
-0.0191127
-0.0210365
-0.0235821
-0.026656
-0.0297983
-0.0327532
-0.0343305
-0.00248593
-0.00444219
-0.00607922
-0.00681191
-0.00720307
-0.00791927
-0.00846178
-0.00859793
-0.00946575
-0.00968158
-0.0111579
-0.0123748
-0.0144401
-0.0164136
-0.0187846
-0.0212221
-0.0238741
-0.0264444
-0.0290916
-0.0307026
-0.00404106
-0.00585334
-0.00642832
-0.00765551
-0.00967895
-0.0111965
-0.0109079
-0.010628
-0.0101302
-0.0100855
-0.0107193
-0.0117665
-0.0134774
-0.0153986
-0.0175391
-0.0195933
-0.0216228
-0.0234487
-0.0254129
-0.0266787
-0.00247915
-0.00396161
-0.00540697
-0.00965201
-0.0135029
-0.0145754
-0.0140642
-0.0127202
-0.0116769
-0.0113831
-0.0117276
-0.0127531
-0.0142243
-0.0159584
-0.0176566
-0.0192287
-0.0207015
-0.0221119
-0.0236742
-0.0252312
-0.0258525
-0.0103461
-0.00745362
-0.0109674
-0.0121696
-0.0130401
-0.0133125
-0.0123548
-0.012146
-0.0120225
-0.0124307
-0.0134054
-0.0145478
-0.0157126
-0.0167887
-0.0178072
-0.0188955
-0.0201411
-0.0216137
-0.0232495
-0.00756164
-0.00504297
-0.00426795
-0.00498121
-0.00653341
-0.0104101
-0.0134446
-0.0144907
-0.0168756
-0.0166927
-0.0155786
-0.015562
-0.0157479
-0.0165212
-0.0171971
-0.0179474
-0.0187026
-0.0196643
-0.0209221
-0.022432
-0.0023536
-0.00423292
-0.00336574
-0.00244249
-0.00269335
-0.00659295
-0.0136156
-0.0212195
-0.0330015
-0.0381267
-0.0414722
-0.0420932
-0.0458468
-0.0517923
-0.0590478
-0.0668839
-0.0740756
-0.0806486
-0.0845516
-0.0866449
-0.00305628
-0.00891967
-0.00901576
-0.00639928
-0.00443009
-0.00373951
-0.00403122
-0.00510316
-0.0068883
-0.00982865
-0.0138133
-0.0190581
-0.02464
-0.0305271
-0.0359103
-0.0411127
-0.0457926
-0.0497947
-0.0527505
-0.0535073
-0.00402374
-0.00567582
-0.00581583
-0.00528046
-0.00569078
-0.00752041
-0.0102538
-0.0134136
-0.0166113
-0.0195406
-0.0220262
-0.0240178
-0.0254565
-0.0263251
-0.0266078
-0.0263202
-0.0256428
-0.0247462
-0.0237442
-0.023048
-0.00359602
-0.00465538
-0.00539726
-0.00608518
-0.00719364
-0.00882168
-0.0109755
-0.0132224
-0.0151434
-0.0165505
-0.0172762
-0.017649
-0.0177482
-0.0178808
-0.0180098
-0.0181379
-0.0182377
-0.0182547
-0.0182912
-0.0181587
-0.00316566
-0.00570805
-0.0060904
-0.00684713
-0.00810535
-0.0094028
-0.0107375
-0.0120221
-0.013081
-0.0139974
-0.0146727
-0.0153384
-0.0160095
-0.0167533
-0.0175379
-0.0182696
-0.0189466
-0.0194495
-0.0198479
-0.0199736
-0.00591302
-0.0103645
-0.00883562
-0.00768476
-0.00872872
-0.010122
-0.0106856
-0.011604
-0.012193
-0.012922
-0.0137032
-0.0145794
-0.015622
-0.016713
-0.0178783
-0.0190028
-0.0201311
-0.021165
-0.0221325
-0.0228497
-0.00242879
-0.0145893
-0.0148246
-0.00956333
-0.0086692
-0.00973185
-0.0102553
-0.0110348
-0.0117521
-0.0125214
-0.0135823
-0.014767
-0.016168
-0.0175573
-0.0189673
-0.020266
-0.021477
-0.0225747
-0.0235782
-0.0244259
-0.00821969
-0.00785136
-0.00608391
-0.00644766
-0.00739629
-0.00902095
-0.00983305
-0.0110322
-0.0119181
-0.0129039
-0.0140523
-0.0153399
-0.016743
-0.0181372
-0.0194331
-0.0205882
-0.0215057
-0.022187
-0.022646
-0.0229529
-0.0265644
-0.0104016
-0.00471443
-0.00445731
-0.00576199
-0.00748011
-0.00826136
-0.010381
-0.0113461
-0.0124096
-0.0130017
-0.0138706
-0.0147696
-0.0159248
-0.0179336
-0.018824
-0.0194499
-0.0196996
-0.0195562
-0.0192424
-0.0155572
-0.00517794
-0.00358591
-0.00480981
-0.00683993
-0.00764763
-0.00828848
-0.00978131
-0.0112331
-0.0123237
-0.0127423
-0.0128213
-0.0128138
-0.013017
-0.0145469
-0.016325
-0.0170853
-0.0173662
-0.0171106
-0.0165794
-0.0042308
-0.00335611
-0.0030047
-0.00430022
-0.00654078
-0.00760966
-0.00883279
-0.0103772
-0.0121316
-0.0134379
-0.0140646
-0.0137128
-0.0125041
-0.0115947
-0.013065
-0.0154717
-0.0166187
-0.017379
-0.0176032
-0.0174018
-0.00704567
-0.00401658
-0.00415248
-0.00552818
-0.00754835
-0.00863699
-0.00981952
-0.0114354
-0.0129098
-0.0140574
-0.0151255
-0.0145965
-0.0133434
-0.0125034
-0.0135561
-0.0163469
-0.0177621
-0.0189911
-0.0198361
-0.0202153
-0.000819072
-0.00242212
-0.00319705
-0.00457434
-0.00628478
-0.00706551
-0.00780159
-0.00985736
-0.0127401
-0.0144195
-0.0147928
-0.0144248
-0.0136792
-0.0135856
-0.0153942
-0.0186683
-0.0199309
-0.0209846
-0.0216936
-0.0219925
-0.00279528
-0.00558227
-0.00458636
-0.00435915
-0.0052283
-0.00627596
-0.00713442
-0.00952486
-0.0111596
-0.012362
-0.0131731
-0.0141384
-0.0153335
-0.0168702
-0.0210846
-0.022558
-0.0238679
-0.0249496
-0.0257159
-0.0261387
-0.00124094
-0.00192273
-0.00310538
-0.00419397
-0.00494939
-0.00607921
-0.00793722
-0.00982348
-0.0119566
-0.0140241
-0.0159699
-0.018015
-0.0198775
-0.0218864
-0.0237617
-0.0257543
-0.0276485
-0.0295924
-0.0314551
-0.0330238
-0.00189479
-0.00481129
-0.00592153
-0.00573332
-0.00562159
-0.00640785
-0.00783726
-0.00966436
-0.011874
-0.0141928
-0.0163969
-0.0186488
-0.0207142
-0.0228665
-0.0248666
-0.0268238
-0.0285723
-0.0301447
-0.0314796
-0.0324766
-0.00642215
-0.00603965
-0.00633172
-0.00653239
-0.00666043
-0.00744259
-0.00850876
-0.0103568
-0.0124397
-0.0148481
-0.0171504
-0.0195873
-0.0217793
-0.023986
-0.0258841
-0.0275641
-0.0288119
-0.0295842
-0.0298304
-0.0296535
-0.0053917
-0.00540974
-0.006415
-0.00731029
-0.00783813
-0.00864444
-0.00953126
-0.0111852
-0.0130821
-0.0152267
-0.0175784
-0.0199985
-0.022518
-0.0250446
-0.0274809
-0.0298563
-0.0319254
-0.0337908
-0.0350933
-0.0361591
-0.00266227
-0.00569871
-0.00641257
-0.00775172
-0.0087426
-0.00962312
-0.010504
-0.0117651
-0.0130682
-0.0145069
-0.0161004
-0.0178395
-0.0199932
-0.0222881
-0.025067
-0.0280264
-0.0313398
-0.0347529
-0.0381013
-0.0408469
-0.00298532
-0.00381594
-0.00406361
-0.00640312
-0.00898866
-0.0114693
-0.0130882
-0.0142517
-0.015471
-0.0169888
-0.0180038
-0.01958
-0.0206171
-0.0220047
-0.0230577
-0.0240763
-0.024869
-0.026007
-0.027237
-0.0284884
-0.00246931
-0.0023227
-0.00164676
-0.00251083
-0.00583539
-0.0113026
-0.0160121
-0.0193817
-0.0235723
-0.0263172
-0.029444
-0.0321441
-0.0358055
-0.0394727
-0.0433315
-0.0467233
-0.0496599
-0.0512475
-0.0504769
-0.0474651
-0.019889
-0.0210518
-0.0238254
-0.014643
-0.0191147
-0.0155996
-0.0178559
-0.0263794
-0.0244975
-0.0259897
-0.0208034
-0.0253554
-0.0189795
-0.0231967
-0.0230889
-0.018101
-0.0215793
-0.0159724
-0.0177699
-0.0176266
-0.0190015
-0.0260583
-0.0224379
-0.0241538
-0.018738
-0.0225345
-0.0194475
-0.0213813
-0.108028
-0.114829
-0.110612
-0.107348
-0.102789
-0.111811
-0.108846
-0.0933946
-0.108927
-0.102691
-0.099904
-0.0857112
-0.107475
-0.101511
-0.0815594
-0.100154
-0.0918924
-0.0801752
-0.0618102
-0.0990277
-0.0908367
-0.0719442
-0.0892427
-0.0827597
-0.055387
-0.042468
-0.0879649
-0.0797755
-0.0667681
-0.0810849
-0.0770072
-0.041245
-0.0449621
-0.0774449
-0.0725799
-0.066011
-0.0757871
-0.0723841
-0.0481949
-0.062561
-0.0718024
-0.0722609
-0.0679044
-0.0714418
-0.070434
-0.0680116
-0.0873041
-0.0734305
-0.0813275
-0.0862878
-0.0711898
-0.0786012
-0.0953038
-0.125839
-0.0861524
-0.107502
-0.109606
-0.112297
-0.109847
-0.107854
-0.107946
-0.109079
-0.10688
-0.102574
-0.108295
-0.103564
-0.106957
-0.101763
-0.105
-0.0975136
-0.0933336
-0.101778
-0.095247
-0.0996208
-0.0931949
-0.0947172
-0.0864795
-0.084746
-0.0927709
-0.0855298
-0.0912242
-0.086166
-0.0842071
-0.0799569
-0.0787694
-0.0832627
-0.077232
-0.0847056
-0.0809078
-0.0792592
-0.0779291
-0.0740607
-0.0754692
-0.0710396
-0.0798699
-0.0780571
-0.0775431
-0.0765589
-0.0716382
-0.0698439
-0.067548
-0.0781904
-0.0832463
-0.0764133
-0.078301
-0.0804923
-0.0676324
-0.0770746
-0.0872742
-0.106165
-0.080723
-0.0970779
-0.112269
-0.123006
-0.122295
-0.113355
-0.108601
-0.119729
-0.119233
-0.106942
-0.121247
-0.117603
-0.106582
-0.0982482
-0.117268
-0.103363
-0.0987265
-0.116226
-0.110556
-0.0950052
-0.0846488
-0.0976613
-0.0827802
-0.0880676
-0.108144
-0.100768
-0.0815107
-0.0759014
-0.0784365
-0.0686606
-0.0784999
-0.0983225
-0.090658
-0.0751947
-0.0745104
-0.066969
-0.0667551
-0.0712529
-0.0878873
-0.079328
-0.0743533
-0.0738394
-0.0671131
-0.0649045
-0.0666258
-0.0765539
-0.0698451
-0.0737823
-0.0754248
-0.0637496
-0.065429
-0.073484
-0.0681538
-0.0673265
-0.0773134
-0.0915679
-0.0680817
-0.0787473
-0.126476
-0.13687
-0.138704
-0.1256
-0.124155
-0.13514
-0.136082
-0.121459
-0.138666
-0.140616
-0.121842
-0.10688
-0.134551
-0.128304
-0.115258
-0.141354
-0.139253
-0.100917
-0.0862844
-0.125652
-0.114702
-0.106069
-0.13689
-0.130497
-0.0822335
-0.0727489
-0.110596
-0.104427
-0.0960298
-0.12787
-0.118168
-0.0708577
-0.0693275
-0.102348
-0.0942457
-0.0828703
-0.113461
-0.0977399
-0.0688356
-0.0636171
-0.0895611
-0.073438
-0.0713537
-0.0923519
-0.0785295
-0.0616393
-0.0621281
-0.0688867
-0.0630192
-0.0666033
-0.0750151
-0.0676784
-0.0648075
-0.0756352
-0.0636732
-0.0705565
-0.0323382
-0.0363564
-0.0413806
-0.0236645
-0.0193773
-0.0254497
-0.0228208
-0.0300246
-0.0431414
-0.0526515
-0.0177444
-0.0138443
-0.0222976
-0.0219723
-0.0196316
-0.0554856
-0.0560513
-0.0130899
-0.0125995
-0.0218965
-0.0206857
-0.0166952
-0.0539227
-0.0453697
-0.0131411
-0.0171677
-0.0201781
-0.0202138
-0.0234456
-0.0429885
-0.0404734
-0.0192046
-0.0268884
-0.0211013
-0.0267713
-0.0409611
-0.0417746
-0.0517277
-0.0297404
-0.037668
-0.0295316
-0.0384739
-0.0662634
-0.0562445
-0.0671979
-0.0398897
-0.0449442
-0.0408706
-0.0434802
-0.0849172
-0.0694053
-0.0752877
-0.0459126
-0.0472293
-0.0432023
-0.0426526
-0.0416586
-0.037683
-0.0426889
-0.0251577
-0.0236031
-0.0259292
-0.0231669
-0.0517407
-0.0412978
-0.0375913
-0.0232749
-0.0239356
-0.0223614
-0.0217556
-0.0624872
-0.0373762
-0.0381992
-0.0244348
-0.0250464
-0.0220715
-0.0241563
-0.0614234
-0.0398155
-0.048076
-0.0248389
-0.0239644
-0.0252204
-0.0287063
-0.0563677
-0.0516689
-0.0604288
-0.0240919
-0.0274222
-0.029781
-0.0317364
-0.0602375
-0.0623937
-0.0658956
-0.0297023
-0.0388606
-0.0323192
-0.0370911
-0.0714301
-0.0669702
-0.0740328
-0.0417545
-0.0450911
-0.0403311
-0.0513981
-0.0756942
-0.07756
-0.0856914
-0.0445213
-0.0425422
-0.0529551
-0.0483754
-0.0422738
-0.0413388
-0.0387985
-0.0276602
-0.0231244
-0.0270706
-0.0233182
-0.0311753
-0.0356418
-0.0282218
-0.0221529
-0.0211675
-0.0225341
-0.0210424
-0.0291243
-0.0272093
-0.0268323
-0.0213418
-0.0230461
-0.0208738
-0.0218668
-0.0371108
-0.0271818
-0.0296766
-0.0239492
-0.0272616
-0.0227037
-0.0259728
-0.0519864
-0.0310815
-0.0366607
-0.0284259
-0.0310624
-0.0270086
-0.0288304
-0.0609613
-0.0385638
-0.0429434
-0.0318211
-0.0356883
-0.0290732
-0.0307508
-0.0702484
-0.0444784
-0.0539718
-0.0383316
-0.0502816
-0.0323013
-0.0410185
-0.0850779
-0.0592284
-0.074343
-0.0532547
-0.051032
-0.0444885
-0.0495927
-0.038099
-0.032937
-0.036519
-0.0260467
-0.0236201
-0.0262814
-0.0263711
-0.0297089
-0.0362007
-0.0349347
-0.0230335
-0.0216525
-0.0266973
-0.0280626
-0.0287721
-0.0354968
-0.0378498
-0.0214983
-0.0226205
-0.0284604
-0.0297758
-0.0320203
-0.0389485
-0.0445958
-0.023546
-0.0271442
-0.0306859
-0.0348062
-0.0391907
-0.0467935
-0.0519823
-0.0282339
-0.0297511
-0.0356666
-0.0358807
-0.0431582
-0.0523472
-0.0499717
-0.0297504
-0.0305191
-0.0354356
-0.035218
-0.0507954
-0.0488911
-0.0491771
-0.0316816
-0.0386859
-0.0357506
-0.0396066
-0.0697768
-0.050913
-0.0598356
-0.0416028
-0.0475402
-0.0414671
-0.0478593
-0.0106937
-0.0120204
-0.0140163
-0.00968465
-0.00871617
-0.00924349
-0.00911976
-0.00988472
-0.0146131
-0.0160611
-0.00858628
-0.00936272
-0.00926723
-0.0101665
-0.0108504
-0.0162265
-0.0158616
-0.00995994
-0.0128277
-0.0106695
-0.0132934
-0.0163091
-0.0158395
-0.0178395
-0.0140873
-0.0177472
-0.0146121
-0.0193807
-0.0244992
-0.0194269
-0.0266144
-0.0188312
-0.0216175
-0.0209718
-0.0247966
-0.0320965
-0.0294494
-0.0365791
-0.0224935
-0.0249487
-0.0256364
-0.0267617
-0.0359989
-0.0378519
-0.0376379
-0.0257554
-0.0282439
-0.0269136
-0.0278342
-0.0371094
-0.0369847
-0.036593
-0.0291666
-0.0320445
-0.0284424
-0.0308979
-0.0144279
-0.0120157
-0.0141789
-0.00906944
-0.0097356
-0.00955943
-0.0108037
-0.0179602
-0.0145187
-0.0160179
-0.01003
-0.0110911
-0.0113194
-0.0129121
-0.0193634
-0.0168075
-0.0199018
-0.0115232
-0.0135594
-0.0134059
-0.0147878
-0.0181072
-0.0192811
-0.021886
-0.0158442
-0.0221699
-0.0163188
-0.0177287
-0.0216823
-0.0221636
-0.0229795
-0.0198471
-0.0236334
-0.0218088
-0.0203055
-0.037121
-0.0268539
-0.0330594
-0.0264589
-0.027894
-0.0248062
-0.0286721
-0.0392408
-0.036408
-0.0448125
-0.0278721
-0.0277879
-0.029444
-0.0296823
-0.0365256
-0.0452225
-0.0402558
-0.0280731
-0.0298716
-0.0293181
-0.0289773
-0.0137757
-0.0119458
-0.011663
-0.0101938
-0.0110539
-0.00939926
-0.00998692
-0.0145011
-0.0114089
-0.012194
-0.0115899
-0.0134091
-0.010601
-0.0133133
-0.0180318
-0.0130798
-0.016765
-0.0139689
-0.0153391
-0.014336
-0.0169889
-0.018064
-0.0206725
-0.0177263
-0.0175796
-0.0189928
-0.0183708
-0.0172307
-0.0209696
-0.0248479
-0.0225427
-0.0211006
-0.0235104
-0.0219296
-0.0202869
-0.0314069
-0.0246816
-0.0277858
-0.0239628
-0.02784
-0.0222883
-0.0255885
-0.0443074
-0.0296681
-0.0374212
-0.0288543
-0.0301541
-0.0267708
-0.0298275
-0.0421471
-0.0398943
-0.0428199
-0.0299691
-0.0292514
-0.0305018
-0.0308849
-0.0113056
-0.0106152
-0.0118538
-0.00874424
-0.00970372
-0.00932368
-0.010653
-0.012247
-0.0122563
-0.0146051
-0.0103268
-0.0131298
-0.0114344
-0.0145968
-0.0172346
-0.0157163
-0.019927
-0.0142671
-0.0175037
-0.0156862
-0.0194091
-0.0227892
-0.0217486
-0.0271751
-0.0183582
-0.0200969
-0.0207262
-0.0239765
-0.0250809
-0.0284291
-0.0303893
-0.0205383
-0.0221774
-0.0246727
-0.0265502
-0.0277512
-0.030745
-0.0327727
-0.0229501
-0.0259592
-0.0272626
-0.0299383
-0.035791
-0.0338341
-0.0384171
-0.027105
-0.0302859
-0.0308516
-0.0332766
-0.0423453
-0.0402474
-0.0456419