/*--------------------------------*- C++ -*----------------------------------*\
  =========                 |
  \\      /  F ield         | OpenFOAM: The Open Source CFD Toolbox
   \\    /   O peration     | Website:  https://openfoam.org
    \\  /    A nd           | Version:  10
     \\/     M anipulation  |
\*---------------------------------------------------------------------------*/
FoamFile
{
    format      ascii;
    class       volScalarField;
    location    "7.9";
    object      nut;
}
// * * * * * * * * * * * * * * * * * * * * * * * * * * * * * * * * * * * * * //

dimensions      [0 2 -1 0 0 0 0];

internalField   nonuniform List<scalar> 
12920
(
0.101445
3.14805
1.84258
3.19635
1.96801
1.61332
1.21213
1.2225
1.09666
1.03301
0.875526
0.730751
0.578102
0.497907
0.436368
0.402258
0.367642
0.343836
0.334228
0.332764
0.790674
9.37045
6.99638
8.11949
4.05418
3.74784
2.18357
1.84371
1.39662
1.27921
1.09864
1.02465
0.984803
1.03852
1.05645
1.07993
1.05454
1.01173
0.981733
0.93942
0.242473
7.2918
6.89413
7.93429
3.99785
4.50287
3.09801
2.77912
1.98257
1.64389
1.3329
1.27738
1.24297
1.29246
1.29409
1.32268
1.29839
1.27246
1.24616
1.19586
3.81565
12.2371
9.1617
9.72573
3.86003
3.33417
2.70019
2.82742
2.4536
2.23202
1.85368
1.67188
1.52372
1.50709
1.49008
1.50811
1.49354
1.45158
1.40696
1.31528
4.26569
13.6405
7.73425
7.85601
3.32815
3.98961
2.90326
3.18944
2.66817
2.58071
2.24451
2.12073
1.94653
1.88052
1.79504
1.74079
1.63808
1.53694
1.48192
1.40738
3.6256
8.00622
8.23903
8.95336
4.97103
5.03705
3.29171
3.04358
2.51178
2.40037
2.20373
2.13373
2.02624
1.97709
1.88472
1.7732
1.60029
1.47672
1.43687
1.4189
0.130828
8.73317
9.40091
9.17539
5.34492
6.44133
3.97018
3.61937
2.89909
2.74008
2.48173
2.37823
2.22676
2.1286
1.85712
1.5417
1.30134
1.23386
1.25445
1.34769
3.84271
10.9506
11.7165
10.1593
5.95246
5.60356
1.45588
1.13437
1.01156
0.943025
0.855517
0.779146
0.7131
0.645976
1.6964
1.32701
1.20699
1.20014
1.22803
1.30841
13.3702
12.6663
10.1546
8.51147
6.8318
2.49122
0.605272
0.37213
0.323338
0.301778
0.267373
0.244274
0.211434
0.186091
0.504516
1.17457
1.07001
0.997652
0.99473
1.05311
7.65561
7.20978
8.31501
5.91266
4.67537
2.20089
0.622125
0.404188
0.361332
0.279088
0.236397
0.195878
0.163195
0.138584
0.407878
1.10493
0.949485
0.837947
0.790309
0.837567
0.282721
7.6702
6.49921
5.10234
3.76916
1.51688
0.489253
0.310422
0.283296
0.24811
0.216107
0.171129
0.136512
0.120205
0.388146
1.26904
1.14372
0.99303
0.873862
0.813546
6.47004
9.68214
7.19802
5.74621
4.1103
1.64931
0.403786
0.161353
0.132024
0.147708
0.201417
0.189877
0.170117
0.154299
0.473632
1.35941
1.19979
1.067
0.964901
0.88524
2.79363
10.3831
6.46101
6.59229
4.7952
5.82883
1.84342
1.33601
0.863309
0.704664
0.555559
0.528262
0.455726
0.431744
1.41789
1.22716
1.0864
0.967909
0.901669
0.874661
5.88535
12.627
6.91021
7.72688
4.85222
6.54031
4.85491
4.77998
3.45055
3.19899
2.38365
2.1024
1.70132
1.49248
1.28088
1.12454
0.986991
0.889123
0.839101
0.817011
3.62495
9.01703
8.54552
10.1889
7.34619
6.99802
4.37914
3.96073
2.89107
2.69459
2.32409
2.11458
1.69718
1.42889
1.21719
1.08852
0.965858
0.87392
0.830834
0.788578
0.775791
10.3413
10.2168
11.106
7.17299
6.38597
4.35337
4.56532
3.41985
2.93577
2.30055
2.04531
1.68309
1.44933
1.23681
1.10324
0.952088
0.855615
0.809597
0.775767
2.43135
7.84534
5.48776
8.02499
4.583
6.33721
4.20054
4.25421
2.86501
2.46607
1.88441
1.64064
1.37994
1.3005
1.19331
1.12687
0.998525
0.905868
0.859332
0.827294
13.85
6.5072
8.39473
7.50588
5.36897
5.7775
3.41456
3.28082
1.85182
1.60942
1.25311
1.27257
1.24217
1.29211
1.19696
1.14737
1.04637
0.974003
0.935607
0.898194
1.9585
8.51063
7.96462
6.91255
5.68339
5.85709
3.96682
4.16132
2.35167
1.97769
1.33483
1.15483
1.01435
1.02686
0.965632
0.953038
0.919796
0.913343
0.914783
0.947279
1.23275
2.23888
3.59053
5.31436
3.40376
4.70199
2.49212
2.68357
1.8625
1.6968
1.3327
1.07703
0.799283
0.664237
0.57529
0.486056
0.406809
0.352828
0.331177
0.323263
0.118588
8.69927
11.9746
18.2461
10.2477
10.0642
7.59466
6.81252
5.25486
4.29942
3.41438
2.87359
2.70681
2.97882
3.13845
3.24307
3.15588
3.0403
2.99026
2.98667
0.859805
27.1144
39.142
39.7997
32.5808
27.2762
22.2975
20.1292
17.2796
16.4182
14.8074
14.7543
15.066
16.1285
16.7384
16.6719
16.2947
15.6913
15.179
14.2207
1.5705
25.847
40.4738
39.0491
32.5272
30.7882
27.2518
25.0779
20.2271
18.4196
16.88
17.3877
17.669
18.4984
18.7889
18.7079
18.496
17.969
17.5419
16.4231
11.8342
30.2219
42.0794
42.4117
34.8303
30.737
28.547
27.9995
25.6752
24.2973
22.0318
21.2583
20.5789
20.7172
20.529
20.3588
19.9588
19.1655
18.5364
16.8914
19.3403
50.4657
50.4623
36.9858
29.0759
27.6964
27.3194
27.8243
26.63
26.1112
24.9133
24.3534
23.5794
23.0745
22.4161
21.5834
20.6465
19.7494
19.1785
17.6607
2.13457
31.2961
44.8208
42.2735
35.6827
32.2771
29.227
28.4852
26.6509
26.0295
24.9848
24.4489
23.721
23.1472
22.3133
20.9377
19.6334
18.8938
18.7806
18.1019
1.74008
28.1821
49.0203
44.3248
37.5343
33.2153
29.905
28.2094
26.8339
25.8638
24.8899
23.99
22.9985
22.07
20.058
17.215
15.9382
16.2721
17.3028
17.3438
13.2386
43.7842
52.9055
49.8122
40.8462
35.4855
25.5747
23.4809
22.5382
21.5685
20.6306
19.5905
18.4957
16.9397
15.7282
14.0602
14.9806
15.8071
16.1188
16.1708
21.2214
34.9155
50.8614
42.106
37.0876
28.4871
22.8795
21.4682
20.8462
19.3505
18.129
16.8133
15.4027
13.8216
11.9063
12.9702
13.2771
13.5425
14.0451
14.4415
10.284
40.1617
48.4986
34.1114
30.2818
25.8337
24.7649
22.6195
20.3743
17.5453
15.8708
13.8597
12.2873
11.214
10.997
11.7005
11.4076
11.3759
11.8298
12.8987
5.16799
31.0237
29.2721
16.7113
15.6995
17.2012
17.7457
17.208
16.8106
16.0904
12.7225
10.1097
9.02969
8.87328
10.7747
13.1435
12.8542
12.0282
11.5805
12.2155
28.2997
38.1737
28.1477
15.6528
12.3691
13.5403
14.0911
11.4589
11.0712
12.6032
13.9801
13.4693
12.7914
11.9707
12.1552
13.4417
13.2695
12.8776
12.6461
12.7265
40.5346
35.6432
25.7327
23.5513
22.5515
27.7568
19.6051
14.9938
14.8818
13.7602
13.4645
12.8511
12.3599
12.0372
13.6719
13.2803
12.9377
12.5357
12.3773
12.4956
13.4756
31.7305
29.775
31.9946
32.0705
32.2983
26.117
22.2625
20.0034
19.039
17.8479
16.4984
14.9665
13.7587
13.0094
12.5599
12.3251
12.0541
11.8912
11.8537
15.3591
41.078
42.4557
46.4233
37.9254
32.0714
24.8721
21.6801
17.8363
18.1583
18.5943
17.4901
15.2802
13.2248
12.3192
11.9124
11.8945
11.7519
11.5912
11.328
6.94085
41.9594
45.7732
43.6874
32.3114
31.0204
29.0531
27.8009
20.6058
18.4574
17.8174
17.7196
15.3786
13.2466
11.9983
11.6082
11.4803
11.4202
11.5095
11.3909
5.37267
31.7004
28.7168
29.0437
23.0536
25.6377
24.0401
21.8964
17.2125
15.8391
14.334
13.7889
12.572
12.5046
12.876
12.8931
12.5541
12.2448
12.2296
12.0504
24.6966
32.8207
26.4313
27.4145
24.1664
25.5295
19.5728
15.8002
11.0868
9.91697
10.114
11.5533
12.842
13.6541
13.8202
13.8001
13.6796
13.5765
13.4284
13.2107
5.97209
35.8695
34.293
25.9877
27.4295
26.5543
23.3228
21.6732
15.8969
12.5479
9.50264
9.59646
10.567
11.7764
12.4987
12.6544
12.8273
13.133
13.3472
13.5094
3.71448
8.29942
16.737
19.7063
17.6141
17.5624
15.9461
15.09
10.0525
8.29969
6.19297
5.31189
4.20342
3.44898
2.7399
2.11691
1.82746
1.77636
1.79647
1.9054
0.415322
22.6293
17.0949
22.3025
13.6476
13.3886
9.22469
7.94556
6.26321
5.71906
5.16553
5.04667
4.8366
4.82126
4.82067
4.79976
4.69219
4.55606
4.54863
4.59566
2.23687
35.9106
45.4585
49.9302
42.6989
36.4921
30.95
29.1441
27.3158
27.1271
26.3437
26.3593
26.3895
26.5937
26.3669
25.7856
25.2434
24.5473
23.979
22.919
4.84475
49.933
56.2602
54.5535
48.7535
45.6956
41.3285
38.2565
34.1245
32.5293
31.1504
31.0288
30.6657
30.4638
29.8931
29.0963
28.3152
27.2832
26.5021
24.8894
43.9756
52.2276
55.799
58.004
51.9698
48.154
45.2554
43.4351
40.2414
38.0148
35.7402
34.5401
33.5274
32.8266
31.9529
30.8892
29.7336
28.2535
27.1482
24.7747
25.4519
52.687
63.788
53.712
46.8187
45.6066
44.5892
43.8818
41.8496
40.3746
38.6113
37.334
36.0181
34.8056
33.4918
31.9565
30.485
28.9569
27.8374
25.2824
21.1323
41.4443
56.5811
59.9954
52.966
49.3804
46.2659
44.7029
42.415
40.7629
39.0426
37.635
36.2197
34.8118
33.2053
31.3551
29.854
28.6694
27.8663
25.8717
12.2659
54.8384
60.5
61.5886
56.5075
51.0134
46.7735
44.3872
42.0355
40.2155
38.2808
36.4782
34.5429
32.5789
30.0548
27.8239
26.9935
26.7134
26.6006
25.2938
10.4238
58.1127
60.3949
64.023
59.0654
53.0943
45.6574
41.2282
38.6819
36.1362
34.3581
32.1313
30.1117
27.5236
24.4448
23.7312
24.266
24.4121
24.3473
23.759
7.78904
40.2121
59.4168
59.8113
54.7375
48.8085
41.0851
38.7317
35.3971
31.9889
29.6851
27.1225
24.7521
22.2916
19.5226
19.2889
19.8877
20.6698
21.4156
21.6868
6.12426
45.7108
54.311
54.8013
47.4177
43.7
41.9311
36.5557
31.9002
27.8054
24.1247
20.4608
18.0314
16.6628
15.5148
15.785
16.5841
17.8176
19.1101
20.1852
10.2548
35.1569
41.4309
37.3441
34.3171
32.579
32.0571
29.0244
26.8874
24.48
6.15979
5.64781
9.17856
12.0249
15.6556
17.7368
17.7673
17.9875
18.6583
19.4486
39.623
55.5093
44.5877
32.5623
31.2611
29.3012
29.603
24.1778
22.2329
22.1042
21.5519
20.6143
19.8464
19.0229
18.8492
19.047
18.9655
18.9497
19.1435
19.4459
53.2445
58.5364
49.0691
43.2737
42.1885
42.7042
34.4527
28.4909
26.1195
24.2581
23.306
22.2478
21.3044
20.3809
20.2876
19.7058
19.2366
18.8404
18.7573
18.8521
47.7724
61.3046
59.0334
57.8984
53.0146
47.3376
38.5164
34.3188
31.3619
29.269
27.0402
24.967
23.1066
21.6499
20.5155
19.6312
18.9384
18.3361
18.0056
17.8258
42.2697
65.0175
64.9794
65.0583
53.0345
47.3162
37.6598
34.3373
30.8509
29.8425
27.8627
25.4808
23.0966
21.2908
20.1916
19.2912
18.6414
17.9797
17.503
17.0569
13.7116
63.1444
67.3587
60.4088
48.5775
46.5151
41.24
37.4671
31.0864
29.4312
27.4021
25.7023
23.1209
21.3142
20.1119
19.3322
18.6616
18.0797
17.6673
17.1817
35.3319
52.0645
51.6679
47.5719
41.6916
41.7472
36.035
31.9443
27.3798
25.8263
24.068
23.2431
21.9882
21.4422
20.8939
20.2656
19.5998
19.0074
18.5687
18.0778
16.1306
49.974
49.1336
45.0065
42.5883
38.8632
31.2401
26.3786
21.957
21.5711
21.4944
22.1822
21.9865
21.588
20.9562
20.4469
20.0952
19.8725
19.659
19.3791
16.6424
45.2192
46.8064
41.3911
40.5764
37.2887
32.6674
29.4916
23.8787
21.5089
19.3769
19.2834
18.8904
18.3865
17.7865
17.5365
17.6363
17.9615
18.266
18.5476
5.81339
22.5531
18.7557
22.3208
20.8168
19.4496
17.608
15.6932
12.0471
10.218
7.5168
6.34515
4.9215
3.80747
3.01383
2.6815
2.60391
2.56718
2.55181
2.5661
2.84222
9.72796
13.1914
20.5
15.3479
14.4854
9.37936
7.7301
6.88617
6.72666
6.60074
6.45903
6.23585
6.00305
5.9089
5.74662
5.66007
5.50784
5.52658
5.53346
2.95887
39.5877
48.591
50.953
43.3202
38.1852
34.2011
34.1868
33.3517
33.0711
32.1059
31.3256
30.6516
29.8827
29.1612
28.3618
27.8007
27.0757
26.557
25.6117
23.9209
61.0096
65.4277
63.4311
56.9846
52.7772
48.2065
45.0489
41.4367
39.5152
37.9477
36.7929
35.8055
34.6409
33.608
32.3526
31.2691
29.9684
29.0166
27.4358
81.1294
71.4703
73.3369
69.1693
63.1868
59.001
54.3359
50.9931
47.1017
44.2149
41.9347
40.1526
38.7681
37.2066
35.7543
34.0221
32.3936
30.5395
29.1073
26.7831
47.3895
58.7171
73.4525
66.5779
60.2417
57.4791
54.4245
52.0062
48.9706
46.6189
44.4891
42.5727
40.8756
39.0005
37.2005
35.1717
33.3404
31.3192
29.7262
26.9106
43.2553
57.5482
71.1544
70.8556
64.343
59.7529
55.401
52.6948
49.7741
47.2706
45.0637
42.9388
41.019
38.9752
37.0149
35.0039
33.3899
31.558
30.1734
27.4919
35.4355
61.7529
69.729
71.7402
66.736
60.573
55.2503
52.4469
49.0127
46.5313
43.6209
41.1266
38.5002
36.0484
33.7922
32.1094
31.1278
29.9362
28.953
27.0074
35.432
73.1678
72.2384
69.555
66.8788
62.3749
55.7272
49.9098
46.0423
42.5812
39.8253
36.7297
34.022
31.1507
27.1203
26.9618
27.0949
26.7596
26.3503
25.4027
40.5533
61.6763
70.6637
69.0327
63.7662
58.8561
50.1633
46.0879
40.8101
35.9553
32.7916
29.4146
26.7566
24.3403
21.4233
20.8103
21.9553
22.9859
23.4714
23.5298
23.6006
51.0799
62.1496
61.4539
55.0973
51.3802
48.7299
40.6465
34.1675
29.2021
24.7459
20.8344
18.2676
17.1774
16.2611
17.6219
19.1728
20.8344
21.8838
22.4603
54.077
58.3467
55.7003
47.6383
44.0293
40.6232
39.0383
33.5309
29.3125
25.4291
11.8528
10.5752
12.7737
14.8431
17.0585
18.7114
19.7432
20.5955
21.3382
21.9824
73.097
60.4568
56.4229
45.7512
43.544
39.5817
37.7819
30.8898
27.4453
25.5539
23.7961
22.3554
21.1598
20.3975
19.7002
19.6942
20.3219
20.8314
21.1255
21.4897
21.6767
74.1845
67.0572
57.8232
52.816
49.2861
40.6726
34.4856
30.887
28.6119
26.9686
25.3246
23.8385
22.3398
21.1912
20.9473
20.6947
20.4584
20.4097
20.4311
80.8805
82.4288
80.6535
73.2152
63.0917
53.4672
44.0739
40.0267
35.8972
33.2174
30.3257
27.8879
25.8066
24.0261
22.5679
21.3601
20.4209
19.682
19.3011
19.0866
83.8432
81.6004
80.7169
75.6026
62.7263
54.1695
45.6693
41.1356
37.3505
34.3934
31.3818
28.4903
26.0824
24.0978
22.5529
21.1811
20.0423
19.1298
18.5397
18.1291
70.1625
72.6793
77.13
70.0885
59.7458
54.2017
47.0959
41.8308
36.9572
34.1873
31.3292
28.7887
26.3121
24.3252
22.8241
21.5243
20.401
19.4439
18.7375
18.2044
58.6355
63.3788
67.1822
60.3846
54.3161
48.7823
41.9825
36.8583
33.3741
31.1861
29.1625
27.3793
25.777
24.3786
23.1754
22.0885
21.1316
20.2766
19.6308
19.0856
26.6868
63.1001
62.8205
56.4099
51.6371
43.87
36.7713
32.2564
29.4817
28.422
27.3271
26.1008
24.75
23.4404
22.4997
21.7708
21.3235
20.9806
20.7
20.4018
37.3556
47.2845
51.9867
49.6203
46.2675
40.9527
35.967
31.6301
27.528
25.4166
23.5427
21.9298
20.4064
19.3087
18.6364
18.4605
18.5604
18.8127
19.035
19.2748
7.91836
25.1042
17.2272
23.0732
21.5034
20.0058
17.7042
15.1743
11.4573
9.34437
7.27765
5.92739
4.6073
3.76402
3.29016
3.17233
3.09409
3.00031
2.99526
2.95096
2.23189
11.6284
6.01161
8.16668
5.66849
6.04838
3.558
3.89601
3.21594
3.71433
3.26747
3.42224
3.07262
2.9901
2.81154
2.72822
2.64802
2.57158
2.62057
2.52701
23.6804
52.3785
48.6125
49.1146
25.3425
23.4152
17.6001
20.2908
17.5631
19.0228
17.3106
17.946
16.8667
16.8454
16.3153
16.2288
15.8638
15.52
15.5251
16.4265
91.0245
80.775
77.2728
68.9653
36.4267
43.7028
27.0213
29.91
23.5066
24.3913
21.7889
22.2477
20.7614
20.5521
19.6183
19.1016
18.3248
17.4748
17.1431
17.8382
57.2182
87.9458
77.995
76.5636
45.5185
46.1416
31.5845
31.7418
26.4762
26.3598
24.183
24.0687
22.6328
21.9372
20.7442
19.876
18.709
17.4666
16.7128
16.9753
81.2342
83.6859
69.4353
74.4894
37.7914
52.2394
31.67
36.5363
29.1389
30.1643
27.0039
26.8505
24.8866
24.044
22.4337
21.3341
19.7844
18.1087
16.9373
16.7924
49.7803
71.2296
75.9604
77.7469
43.8075
51.851
32.7114
34.5335
29.7364
29.7794
27.6279
26.9085
25.3042
24.1469
22.7495
21.639
20.2121
18.6315
17.5007
17.3594
92.3848
81.9431
72.8272
79.1936
42.5164
61.6639
37.8771
39.8321
32.1616
31.8078
28.0783
27.0698
24.5194
23.451
21.8816
20.7904
19.505
18.2018
17.5794
17.9457
64.2463
92.2071
82.1456
80.9117
44.0232
44.9391
54.9406
49.1352
43.839
40.2812
36.6328
33.4676
30.5136
28.0573
18.5771
17.8833
17.2747
16.6718
16.6453
17.5104
81.7728
77.1672
61.5899
74.8623
49.7736
58.5901
51.3667
41.212
34.7026
29.6514
26.4308
23.3994
21.3491
19.7989
18.8726
15.2389
15.1373
14.9835
15.3242
16.4666
92.6478
76.5978
71.1108
61.6535
48.3981
49.4632
44.1144
32.7247
26.0744
21.4982
18.0483
15.3201
14.4876
14.5952
15.5938
14.3249
14.1479
14.2236
14.7132
15.9022
28.0107
62.0403
60.976
42.1222
44.7951
38.3522
34.395
26.8395
22.3801
19.6082
15.6834
13.108
12.9143
14.3287
16.2983
14.6124
14.3642
14.259
14.8167
15.9538
35.0919
63.7196
60.0163
41.4322
44.9184
38.4991
34.4106
25.7922
22.5221
20.1538
18.3813
17.0944
16.8039
16.7262
17.3485
15.2783
14.694
14.4493
14.8726
15.9639
62.156
83.1308
71.6283
60.1355
48.4076
47.9941
37.1514
30.9225
27.439
25.1824
23.3539
21.6682
20.2697
19.0217
16.8699
15.4454
14.6876
14.1316
14.4538
15.3126
26.857
90.0182
94.7979
80.6485
53.0395
52.8355
35.1453
39.2843
34.3094
31.5216
26.6374
25.6848
21.211
19.8092
16.9914
15.6655
14.3499
13.7061
13.9029
14.5777
73.2789
91.789
77.8086
81.3639
44.773
54.4231
36.5272
40.452
32.9584
32.5036
25.1384
24.5916
20.4381
18.7849
16.4727
15.3816
14.2193
13.5234
13.6597
14.1344
105.871
82.5832
75.2926
72.807
47.724
54.2821
33.8971
40.3322
29.7503
32.4053
24.1632
24.9503
19.8033
19.3315
16.7012
15.7619
14.3954
13.6953
13.6849
14.195
70.2869
72.3812
41.1907
62.7704
36.5996
48.4856
31.4973
36.171
28.8446
30.3516
23.8438
25.1835
19.9513
19.5107
17.217
16.6771
15.3264
14.5674
14.4414
14.9385
56.5568
36.3816
45.5265
34.5049
43.3212
44.1129
30.675
32.67
26.0523
28.2598
21.8831
24.0994
19.2331
19.9578
18.0901
17.8163
16.2631
15.513
15.2293
15.7513
44.8319
47.9574
54.1463
44.7241
46.8674
41.7503
32.501
28.7629
23.136
22.8719
17.8041
18.1396
14.5678
14.499
13.2883
13.1697
12.5938
12.443
12.5953
13.4399
7.08926
5.64772
7.45475
20.3338
9.93403
19.2877
8.56156
13.224
4.84221
5.10792
3.03271
2.66698
2.04025
1.88389
1.65702
1.51422
1.35475
1.25778
1.22211
1.19269
25.107
24.3411
6.10463
29.67
26.3309
25.4001
7.0147
21.2779
5.35774
5.96561
25.1864
22.063
6.31118
7.39633
7.11019
22.7915
21.2094
25.7911
8.05044
25.4913
23.2101
5.31901
20.7487
19.77
7.24373
7.00949
22.6354
21.4449
0.39759
0.486421
0.372251
13.4455
15.252
16.6874
17.5686
0.326389
0.380356
0.372874
15.6382
15.7027
17.514
16.8596
0.312637
0.360037
0.308786
15.6259
14.9795
16.3879
14.645
0.27529
0.29039
0.255994
14.7
13.956
14.1076
13.1923
0.251836
0.247022
0.217557
13.784
13.1273
12.8991
11.9083
0.21979
0.207648
0.184914
12.8605
12.0891
11.55
10.7028
0.191076
0.176897
0.155411
11.8232
11.0631
10.4063
9.67354
0.136675
0.148736
0.101825
10.6672
10.183
9.39322
9.11506
0.408386
0.53512
0.378568
17.8744
17.8823
15.1215
15.2304
0.375664
0.366447
0.320863
17.5959
16.541
15.0016
14.3474
0.298818
0.307971
0.269706
15.9897
14.1191
14.0659
13.18
0.245916
0.256347
0.229159
13.6057
12.7019
12.8725
11.5889
0.205768
0.216459
0.180368
12.3798
11.2636
10.9209
9.17963
0.170946
0.166949
0.136197
10.8813
9.96813
8.70549
7.66769
0.144775
0.129294
0.119677
9.70131
9.09026
7.44692
7.17292
0.100538
0.117303
0.0919637
8.87115
8.77171
7.12354
7.40061
0.312153
0.364415
0.165716
12.7431
13.3724
8.80708
8.38534
0.289202
0.161388
0.156041
13.3165
13.234
8.43807
8.55333
0.257246
0.153706
0.187262
13.1555
12.7508
8.67181
10.2664
0.226159
0.198083
0.2109
12.5859
11.3577
10.7433
11.46
0.182959
0.211495
0.196479
10.7412
9.17733
11.4672
10.9861
0.144451
0.188626
0.171754
8.76746
7.89362
10.7648
10.261
0.123377
0.16799
0.15507
7.69803
7.4267
10.1182
9.61874
0.089482
0.149307
0.100189
7.3765
7.62233
9.40605
9.1275
0.175228
0.5922
0.333371
8.93961
8.19203
10.2497
9.57442
0.143582
0.290433
0.219738
8.14346
8.14743
9.33247
9.47295
0.129385
0.211831
0.175531
7.99135
8.88529
9.66024
9.50098
0.194224
0.160675
0.141389
9.52196
10.9453
9.46509
9.38583
0.196484
0.142383
0.151833
11.1347
10.967
9.41548
9.53924
0.173379
0.153662
0.147228
10.7686
10.2919
9.47717
9.04294
0.158796
0.140864
0.128262
10.1484
9.64954
8.85863
8.56045
0.106149
0.12533
0.0941752
9.41802
9.27863
8.5016
8.96203
21.5044
24.05
22.9767
35.1494
36.3098
39.2363
35.6685
21.0391
22.6612
21.5046
35.2602
33.2324
34.5994
31.7455
19.7605
20.887
18.7541
32.5685
30.3376
30.7404
27.7658
18.4012
18.1271
16.9405
29.6176
28.0871
26.9324
24.9078
17.194
16.5457
15.2396
27.5863
25.9172
24.2248
22.0949
15.7694
14.7841
13.6385
25.2963
23.6734
21.4018
19.5994
14.2879
13.2623
12.298
23.0944
21.3749
19.0629
17.6968
12.4109
11.9554
11.0127
20.7314
19.054
17.2767
16.209
23.132
20.7221
19.6654
38.3934
35.1123
32.5168
29.9486
21.0689
19.2975
18.3582
33.986
30.9454
29.1494
27.1556
18.1452
17.9949
16.8686
29.8882
26.89
26.513
24.5635
16.3206
16.5045
14.0996
26.0739
23.7562
23.5307
11.4647
14.3598
13.0774
10.7415
22.8935
20.3049
10.0902
8.56276
12.6339
10.1909
9.04668
19.5333
17.6806
8.61497
8.95404
11.4768
8.81437
8.525
17.197
16.1053
9.15954
10.1006
10.6612
8.52186
8.65457
15.8155
15.3391
10.5415
11.8916
17.3827
13.5795
11.8118
28.903
27.2591
24.4047
21.9772
16.9302
11.7569
11.6591
26.6641
25.4157
21.4607
20.4381
16.2846
11.7651
13.3348
25.0369
23.7305
20.3614
20.9013
13.7104
13.8126
14.3999
23.014
11.4465
21.07
20.1068
10.5853
14.306
13.6465
9.94479
7.88227
19.6985
18.7493
9.19717
13.4039
12.8497
7.78956
8.85489
18.5279
18.0372
8.8659
12.688
12.1227
9.35012
10.8414
17.8914
17.4099
8.96426
11.8906
11.2193
11.338
12.6606
17.2338
16.976
11.6151
16.3605
13.3358
25.8612
21.9542
24.0371
24.0832
11.2433
12.8795
12.982
21.3128
20.0798
23.1798
22.2837
12.0167
12.9803
12.4129
19.8015
20.0118
21.7507
20.3904
13.8484
12.3383
12.2651
20.1998
20.3114
20.2207
19.9754
13.6815
12.2855
12.3304
20.1516
19.523
19.8479
19.5107
12.9578
12.2428
11.8417
19.3145
18.7714
19.3619
18.9191
12.2244
11.6534
11.3721
18.5826
17.9731
18.7172
18.2816
11.3104
11.2897
11.2521
17.7479
17.284
18.1109
17.8788
39.8876
42.8644
38.6229
44.0673
46.8665
49.6569
43.6556
36.216
37.3495
33.9912
45.1904
41.5299
41.8566
37.2428
32.7868
32.8729
29.6624
40.3295
36.7535
35.8343
31.9955
30.2681
28.7633
26.4791
35.7714
33.5787
30.9217
28.076
27.802
25.7127
23.3617
32.7846
30.3561
27.1474
24.4154
25.3766
22.6135
20.6828
29.5611
27.6155
23.5868
21.4674
22.946
20.1216
18.7118
26.9239
25.0655
20.8869
19.5331
20.5284
18.2958
17.1859
24.449
23.085
19.1796
18.2117
37.8524
35.3818
32.3901
47.8954
42.3676
40.8051
36.5836
33.0599
31.4539
29.0744
40.595
35.9218
35.2439
31.7067
28.6867
28.3238
25.9303
34.4936
30.7272
30.6344
27.5295
26.5825
26.9699
26.9717
28.9804
25.8071
28.0552
28.0342
20.5098
23.141
21.4521
24.8893
20.2398
23.8287
21.7884
18.525
6.74683
8.39896
21.2088
19.1748
8.29328
10.3968
16.9375
8.89574
10.5072
18.6714
17.6722
11.012
12.798
16.1978
11.1029
12.6755
17.4619
17.1045
13.3725
14.7713
29.7554
28.2517
24.9425
37.9948
34.4017
35.3788
31.1834
27.3831
24.2707
22.9042
33.2647
30.386
30.0984
27.7239
25.0949
22.7198
22.7748
29.516
26.8418
27.1611
25.8871
12.6069
13.5839
23.4035
21.1089
17.6586
2.92501
23.8172
8.11309
5.53749
10.4916
1.78796
10.0632
1.6327
7.9918
8.3099
19.5618
19.1073
7.76166
10.8271
21.1864
20.5338
11.3764
18.9677
18.525
11.6812
13.748
20.3327
19.9157
13.5098
18.3757
18.1222
14.3462
15.6238
19.8317
19.6829
24.9746
27.7433
27.0514
36.5207
31.2859
31.956
33.1655
22.585
26.0612
24.7657
30.098
27.5722
31.9661
29.6551
22.0603
24.088
22.5504
26.9595
25.7112
28.7508
26.8733
21.792
22.3432
22.0094
25.4019
24.2143
26.5622
25.8082
20.8283
21.8207
21.3532
23.8157
22.7859
25.4614
24.5262
20.0438
21.1756
20.6831
22.5025
21.6872
24.2501
23.4572
19.2338
20.4548
19.9332
21.438
20.8063
23.1461
22.2935
18.4786
19.7248
19.2702
20.6312
20.114
21.9964
21.2296
47.851
50.6097
43.991
49.4035
45.9204
49.0565
39.8346
42.1371
42.0386
37.1024
43.7922
39.1604
37.4985
31.9606
36.977
35.6187
31.6305
37.4339
33.3224
30.3836
26.5865
33.6554
30.5242
27.5949
32.215
29.8566
25.5948
22.8854
30.2286
26.6487
23.9039
28.8466
26.3239
22.0115
19.5473
27.4593
23.0725
20.937
25.5277
23.8574
18.7816
17.1901
24.9302
20.3706
19.1161
23.1714
21.7421
16.8934
16.3519
23.1583
18.8009
17.9897
21.2626
20.5752
16.2352
15.9613
42.5602
41.5519
36.7755
46.476
37.9732
38.7018
32.0519
35.6632
35.3121
31.4471
35.7312
30.3007
30.4556
26.3808
30.291
30.2981
27.2047
28.7574
25.3825
25.2896
22.973
25.8716
25.6591
12.7412
24.3911
21.5411
22.1293
17.9253
21.6788
11.5445
10.5604
20.6229
18.116
16.6896
14.2278
18.7689
10.7368
11.7059
17.3335
15.6373
13.6951
12.7409
17.3534
12.0668
13.4592
15.4226
15.2395
12.8191
13.7932
16.9215
13.9362
15.1304
15.2351
15.3029
14.1043
14.8657
34.7941
36.8035
32.079
36.8163
30.6428
35.7658
29.1466
30.2786
30.8907
28.2168
29.2338
25.6421
27.8631
24.9888
26.5962
27.5329
25.9627
24.6788
22.6923
24.1792
22.6748
13.0621
25.4974
23.3213
21.9378
17.787
22.259
20.5639
10.3381
22.7284
21.4404
16.6462
14.4574
20.0262
18.7149
12.2401
21.1411
20.3236
14.0091
13.255
18.3063
17.2303
14.3461
20.0859
19.6886
13.3673
14.3869
17.1441
17.2126
15.9219
19.6258
19.5428
14.7064
15.3736
17.2397
17.2639
32.1641
35.6658
33.9169
36.6566
29.19
38.7348
30.5678
28.1381
32.6965
30.2369
27.8637
25.0846
29.3924
27.3301
25.936
29.2911
27.3524
24.3427
22.7438
26.3235
24.4802
24.2313
27.0157
26.1162
22.3888
21.0317
24.1143
23.0224
22.6739
25.7145
24.6331
20.5795
19.3783
22.5222
21.3744
21.4242
24.3271
23.4342
18.9841
18.0929
21.0426
20.1694
20.5541
23.095
22.1625
17.9746
17.7722
19.8205
19.0269
19.946
21.8456
21.0634
17.7108
17.4629
18.7555
18.1688
43.4824
46.6479
36.7968
28.4935
24.4003
24.6667
21.9832
36.4098
34.4656
29.1111
22.1585
18.1527
21.2421
18.3779
30.685
27.6118
23.7889
18.3199
17.5129
18.0408
14.5394
27.3857
22.7552
20.1464
16.9638
15.6102
13.7824
12.3254
24.0994
19.3629
17.3109
15.7484
15.4993
12.1083
12.1738
21.9455
16.7635
15.8867
15.4466
15.0234
12.7548
14.7832
20.1727
15.7501
15.4794
15.2172
15.2948
14.8971
14.9098
19.4094
15.4108
15.3062
15.3171
13.9158
14.894
14.8095
34.9115
36.1548
29.3273
28.3418
21.3672
26.6082
20.903
27.5415
27.8365
24.0321
20.7593
18.3576
20.5931
17.5986
22.4808
22.8605
20.3458
17.2371
13.4688
15.7425
12.0983
18.8601
19.7155
16.6885
12.7041
11.1841
11.4368
9.76235
15.9174
15.68
13.387
10.8856
10.7772
9.38687
8.89073
14.5071
12.7788
12.151
11.318
13.6772
9.22643
11.9033
14.5698
12.4533
13.5427
14.1485
14.46
12.8968
14.1564
14.7571
13.8156
14.4929
14.486
14.5022
14.2926
14.4909
28.1476
33.6218
26.9931
30.3355
20.8666
29.8682
22.0895
23.4637
25.8106
23.1204
20.5839
17.8106
21.7957
20.2177
20.1447
22.3155
20.3313
15.9072
12.1959
18.6441
14.6429
16.6162
19.8539
18.2932
11.5246
9.98985
13.8884
12.6725
13.6492
17.8149
16.6501
9.6738
9.14983
12.4521
12.2994
12.5857
16.3187
15.9554
9.48214
12.1732
12.7324
14.7674
14.0518
16.0612
16.3245
13.1725
14.4723
15.3137
15.685
14.9249
16.3615
16.4181
14.6072
14.7582
15.6905
15.5621
27.023
36.6782
28.3445
30.2987
22.5084
30.5929
25.4441
23.2325
27.2062
25.3456
22.3149
20.9486
24.3101
22.4997
20.6304
24.4353
22.7219
20.378
16.3651
21.7598
20.3885
18.7918
22.3229
21.2664
15.5401
14.3317
19.8327
18.859
17.3602
20.8103
19.792
14.1115
14.0886
18.4214
17.7146
16.7954
19.4846
18.7726
14.5609
15.6478
17.3702
16.9312
16.7668
18.4804
17.8273
15.8235
15.8916
16.6727
16.2769
16.5649
17.5855
17.1702
15.8473
15.5983
16.0312
15.8777
24.8533
26.0669
22.7851
25.9612
24.2827
27.0349
23.1915
22.2718
25.8548
13.4547
21.9421
23.4675
26.5863
4.00481
17.8076
17.2332
8.0973
2.15426
19.6999
15.549
2.43073
27.0073
29.5999
28.6222
28.5501
28.6018
28.5447
27.0788
25.2
26.361
27.4973
23.6884
27.5047
23.4764
25.3878
22.448
21.8478
27.1941
13.7971
27.0227
3.97537
24.3704
17.9326
2.1983
17.7917
8.70488
15.65
2.45985
20.2948
19.3136
22.1806
18.1688
21.859
19.1199
22.806
18.3726
13.1754
15.6669
4.83614
1.97563
14.4582
14.2173
1.81943
12.1917
12.9489
5.05283
3.9239
13.4452
12.1927
2.66603
20.717
25.2347
24.0739
22.2385
24.1311
22.0322
20.9219
19.5054
22.1152
23.0302
18.767
23.0821
18.5553
19.7566
13.2557
2.0481
16.2155
5.94077
14.3179
1.94769
14.9717
12.3179
4.12735
13.5756
6.37593
12.3565
2.71837
14.0481
9.00366
8.98648
11.2862
2.08704
13.1654
2.41455
8.10456
21.7984
23.2539
22.3855
24.1107
21.6744
24.2659
23.4712
19.2313
18.2866
21.7762
22.0496
19.5558
18.0623
22.7089
13.2729
21.2378
14.2025
25.0867
3.17631
24.3922
18.9519
9.57815
2.19403
9.59207
13.0384
2.50106
8.73534
14.5746
22.4534
25.0164
25.3844
24.7667
25.0025
24.2858
23.5315
19.8705
22.7356
20.052
23.942
18.7098
23.4426
21.2903
8.49903
5.03343
9.85027
2.7056
9.93386
1.89137
8.52945
17.1073
17.5262
20.362
21.5529
17.0362
17.4171
21.1596
16.9692
16.5111
20.0517
20.5494
16.783
16.7214
20.8464
8.72605
2.03833
6.76494
12.34
1.98122
8.63792
11.9808
9.13489
3.24617
6.4339
11.8393
2.14939
9.28975
11.8152
17.7246
22.1996
19.2749
22.1668
18.0556
21.7769
18.7705
17.561
21.1216
18.1743
21.7882
17.3194
21.4394
18.4564
1.22133
1.36526
1.13564
7.68873
9.95003
8.10234
10.1436
1.04898
1.10397
1.04704
11.1087
10.0867
11.5361
11.8164
0.989713
0.97143
0.966218
10.0016
10.5062
11.7705
11.7525
0.885939
0.939554
0.891263
10.225
9.66968
11.2953
11.0565
0.822863
0.834948
0.804389
9.53127
9.56378
10.8682
10.6818
0.748063
0.764384
0.719684
9.4106
9.10786
10.2994
10.0576
0.681098
0.673377
0.636267
8.91079
8.79523
9.71541
9.48114
0.556016
0.597867
0.479298
8.29067
9.26306
8.82549
9.89645
1.45268
2.35858
1.55324
9.41875
9.68301
10.2591
12.8859
3.46447
0.51635
0.505969
2.70116
3.04846
2.80195
0.393309
5.30066
0.347511
0.34745
3.89465
3.91187
5.12343
0.348266
5.21746
0.318683
0.336055
3.85814
3.90669
5.28171
0.328971
4.80951
0.293858
0.298771
4.02004
3.95721
4.9168
0.288708
4.51555
0.262107
0.261094
3.75472
3.75537
4.5648
0.254818
4.19843
0.236665
0.233308
3.6205
3.57709
4.28002
0.224611
3.87533
0.204561
0.201063
3.37566
3.36786
3.94679
0.1932
3.55656
0.179526
0.173853
3.17981
3.13216
3.61894
0.167128
0.392668
0.442147
0.300868
6.37467
6.20779
6.50304
7.92885
1.716
1.88194
1.50104
10.2122
14.2701
8.8746
12.7689
4.98148
0.458149
0.607575
3.52619
4.8648
3.43978
0.49319
5.72078
0.394169
0.431036
5.99544
5.94944
5.85312
0.409344
5.05789
0.343806
0.351242
5.53282
5.33283
5.22988
0.329073
4.33453
0.265481
0.269978
4.55806
4.41503
4.4223
0.258554
3.89842
0.226502
0.226788
4.16577
4.07148
4.02351
0.215146
3.28772
0.18711
0.179149
3.68173
3.5795
3.41833
0.168672
3.03519
0.156525
0.146248
3.32259
3.2522
3.06386
0.14198
2.9139
0.13269
0.129686
3.0563
3.04152
2.92392
0.126073
0.314775
0.382542
0.300833
6.56751
8.46984
6.20528
8.13674
1.14782
1.43411
1.04616
7.63997
9.62717
6.32864
7.58688
2.99035
0.349081
0.393628
2.60322
3.7819
2.11372
0.273945
3.93459
0.302456
0.254391
4.51651
4.54517
3.81525
0.25409
4.21389
0.27499
0.253717
4.49619
4.45163
4.17618
0.249772
4.12889
0.240955
0.237413
4.23449
4.17525
4.15037
0.233724
3.85502
0.20603
0.217702
3.86501
3.7545
3.9456
0.209029
3.43402
0.161449
0.179713
3.34005
3.22926
3.52288
0.171338
3.1561
0.131954
0.149429
2.95075
2.9205
3.20417
0.143529
2.95925
0.117153
0.128434
2.83035
2.81528
3.00604
0.123071
0.287123
0.422506
0.33625
6.54783
8.95724
6.99533
8.64907
1.11557
1.97896
1.36744
5.60164
7.33092
6.13884
7.41931
2.29569
0.267798
0.465239
1.91218
2.0515
2.16043
0.333643
2.36371
0.151409
0.190266
2.1949
2.24362
2.38001
0.172489
2.30606
0.124724
0.149304
2.17648
2.16514
2.37079
0.136564
2.97469
0.167366
0.124519
2.9394
3.34831
2.64978
0.134641
3.88284
0.202748
0.179611
3.97202
4.02413
3.77342
0.187671
3.78091
0.182496
0.18315
3.88872
3.80612
3.85316
0.178525
3.50158
0.167138
0.165671
3.64501
3.59642
3.57663
0.16216
3.188
0.14658
0.149786
3.38168
3.25432
3.25781
0.144703
0.364453
0.438918
0.346643
6.75164