/*--------------------------------*- C++ -*----------------------------------*\
  =========                 |
  \\      /  F ield         | OpenFOAM: The Open Source CFD Toolbox
   \\    /   O peration     | Website:  https://openfoam.org
    \\  /    A nd           | Version:  10
     \\/     M anipulation  |
\*---------------------------------------------------------------------------*/
FoamFile
{
    format      ascii;
    class       volScalarField;
    location    "7.9";
    object      omega_0;
}
// * * * * * * * * * * * * * * * * * * * * * * * * * * * * * * * * * * * * * //

dimensions      [0 0 -1 0 0 0 0];

internalField   nonuniform List<scalar> 
12920
(
22.3096
88.8371
107.812
110.613
99.8366
84.1591
77.1931
75.093
72.2218
68.279
62.9022
56.1632
48.844
42.8887
39.4891
37.393
35.8717
34.9
34.5086
34.2682
105.596
191.628
194.785
159.088
129.258
109.559
91.0574
80.8887
72.9831
68.3324
63.527
59.644
57.8337
57.5596
57.6633
57.3955
57.0224
56.0817
55.3262
53.1052
56.8306
149.009
178.305
156.196
128.876
120.911
110.351
99.757
86.7988
76.5108
68.8911
65.2816
64.0565
63.9322
63.9546
63.7589
63.4595
62.6632
61.8242
58.842
191.583
244.75
238.96
189.21
138.653
117.396
108.385
104.772
97.6949
89.958
81.5774
75.6176
71.9153
70.2949
69.7229
68.758
68.1159
66.5737
65.3108
61.2326
192.583
272.077
211.019
153.519
123.961
113.516
105.412
102.631
96.9093
92.9097
87.7872
84.259
81.0429
78.8453
77.1075
74.8875
72.6656
69.9448
68.5688
64.8463
180.484
214.366
209.753
177.016
147.224
130.162
113.082
102.976
94.0237
89.5316
85.7146
83.4165
81.3543
79.9729
78.3192
75.7388
72.5569
69.4442
68.2664
65.7606
49.4705
185.065
212.459
181.416
146.936
128.651
111.393
101.25
93.7561
89.4958
86.1075
83.5655
81.5025
79.3416
74.6817
67.8939
62.2382
59.6662
59.4605
59.8024
213.63
220.985
233.738
199.802
155.744
132.618
197.521
154.998
149.015
140.223
137.889
132.31
128.484
122.809
66.928
58.1343
54.8379
54.2434
54.5615
55.3238
266.807
247.655
211.711
168.085
137.651
208.749
337.21
248.758
231.822
219.778
209.162
202.208
191.297
181.619
101.848
51.2841
49.2338
48.0771
48.1374
48.7074
200.326
208.224
162.561
116.074
104.822
174.816
296.779
256.234
241.903
206.883
184.213
165.515
149.72
137.158
84.7631
51.0267
48.4295
45.7983
44.2709
44.3467
69.7167
164.169
148.493
100.126
82.7897
120.085
208.343
195.835
194.618
183.792
169.182
152.41
140.199
135.942
88.0437
56.9167
54.5499
50.9658
47.3863
44.4746
171.454
197.433
153.64
114.572
95.7574
131.43
220.223
148.414
136.777
149.053
171.767
169.807
163.475
159.124
98.3371
55.7398
52.6591
50.0036
47.5801
44.985
197.697
211.489
157.5
131.475
116.573
116.136
172.56
125.378
109.17
97.4025
94.8971
92.0806
87.0898
83.9549
53.077
50.0902
47.8042
45.6826
44.1023
42.8627
292.018
254.454
187.321
160.041
136.611
129.968
108.896
94.7734
82.5282
75.4924
68.3212
63.1825
58.2317
54.2955
50.8735
47.5804
44.9733
42.7556
41.3425
40.0801
252.268
265.798
252.535
242.794
210.24
174.663
136.68
115.905
97.5566
85.7273
77.6893
71.9272
64.3718
57.5698
51.7717
47.0362
43.7301
41.2255
39.8791
38.2775
100.631
208.097
225.582
220.824
192.238
160.586
139.265
131.511
115.573
99.5841
86.2486
77.8089
70.6191
63.3793
56.5998
50.5022
45.8871
42.3859
40.6188
38.7014
142.335
181.99
177.25
157.645
138.962
128.841
121.003
107.685
94.7536
83.5135
74.9352
68.2212
62.2382
57.1085
53.3527
49.8481
46.6972
43.6969
41.9694
39.9283
285.062
199.788
174.583
149.973
129.811
114.647
97.2123
82.831
71.6774
63.78
58.9487
56.8049
55.6385
53.8156
51.7418
49.9828
48.5869
46.9066
45.7504
43.64
138.142
191.182
166.975
138.218
125.049
116.762
103.678
94.2543
82.4093
72.497
62.0892
54.6987
50.9491
49.0589
47.7187
47.0868
47.0766
47.2913
47.502
47.4626
126.444
110.915
121.017
105.938
99.9993
93.4563
88.3206
85.2222
80.0153
75.4549
70.5777
64.5017
59.0331
55.5189
52.536
47.5724
41.5422
36.6997
34.7581
33.3794
11.7132
57.1715
66.0043
63.2335
55.1266
50.0355
45.917
41.7006
37.3124
33.5476
30.0897
27.3973
25.7222
25.2945
25.3021
25.2215
24.9383
24.5269
24.3799
24.1559
80.2148
118.219
107.088
75.5601
59.2455
50.6216
44.2187
41.6767
39.9032
39.6184
38.9637
37.2254
35.2448
32.8744
31.6095
30.884
30.8131
30.8888
31.0302
30.8167
129.007
137.349
108.414
81.2739
67.6298
60.8982
55.1336
51.484
48.6475
45.1293
41.7437
38.6068
36.8871
35.1964
34.4651
33.8258
33.5443
33.1487
32.8773
31.9177
287.383
195.174
158.711
111.075
80.8978
65.9414
56.7697
52.3889
48.4038
45.13
42.561
40.3537
39.0098
37.7557
37.0912
35.7461
34.8516
33.9492
33.549
32.4499
256.087
160.173
123.009
88.9838
72.9619
63.7159
55.2265
51.0583
47.4059
45.3449
43.4934
42.3383
41.4226
40.6782
40.0537
38.8551
37.8915
36.7257
36.2271
35.0454
183.021
149.791
113.832
87.2131
73.3279
65.0547
55.9061
50.5739
46.5187
44.4048
42.8274
41.9426
41.2061
40.6991
40.2357
39.8302
39.4452
38.3442
37.4635
36.0754
128.475
148.084
119.369
85.4179
69.4029
62.388
53.903
49.2003
45.7251
43.7728
42.1377
41.2066
40.3903
39.4268
38.6655
37.8692
36.0349
33.3718
31.3855
30.9478
291.431
170.516
138.124
95.9166
71.0301
60.5227
62.0743
51.9594
46.8824
42.7354
41.834
40.3306
39.5739
38.4024
33.7324
31.4873
28.39
26.8814
26.63
27.0002
217.523
170.338
107.053
78.8562
61.5833
61.2279
65.2021
52.6953
44.4178
40.1553
38.0758
36.7352
35.8016
34.9212
31.2686
24.7144
23.9253
23.7642
23.8886
24.2866
206.044
155.964
85.0992
59.6732
49.6699
50.4747
53.4951
47.129
41.301
36.9157
32.5822
30.3158
28.2738
26.2002
24.2133
24.7454
25.1932
25.1363
24.504
23.7528
117.929
115.772
83.2665
61.182
53.3339
46.4031
47.0458
40.7144
36.0168
32.1812
31.4798
30.9131
29.7776
28.5398
27.0478
27.6749
27.82
27.5478
26.429
24.5323
219.089
118.63
79.7667
80.4676
68.9493
60.1077
59.8687
49.6136
43.3565
36.8923
33.0533
32.0776
31.5186
31.2364
30.2501
27.1767
25.9747
25.1562
24.3238
23.5015
332.834
144.956
97.5212
86.7776
68.3778
58.8103
61.3074
50.8404
40.4234
36.6521
34.8247
33.0653
30.9751
29.0761
25.839
24.8402
23.9515
23.2744
22.6227
21.9295
158.055
169.067
132.54
100.105
73.435
65.7757
54.3242
49.755
43.2627
38.8601
34.8243
32.642
30.8503
29.2338
27.2763
25.1834
23.4416
22.0948
21.2074
20.3875
118.218
193.908
165.777
133.441
113.257
102.846
82.4007
75.0113
63.0324
51.2083
42.5068
39.2742
36.8978
33.9435
29.6143
25.6559
22.7157
20.8561
19.9112
19.1868
119.014
159.088
134.57
123.863
110.05
98.0761
84.5448
79.8917
74.4471
63.0048
51.9208
46.6791
44.4837
40.9295
35.5426
29.8376
25.6724
22.7038
21.0304
19.6727
120.629
164.103
134.304
107.136
90.738
79.4197
71.1023
62.3445
57.0514
51.8692
47.8513
44.7487
41.2062
35.4549
30.8337
27.4006
25.1334
22.9372
21.3723
19.9044
260.119
135.608
112.347
91.1163
76.1603
62.5906
55.6863
51.2669
48.7729
46.2769
42.5933
37.9262
33.4128
29.5406
27.2346
25.7898
24.8032
23.7305
22.9646
21.6759
177.98
110.383
87.114
76.9832
68.5236
61.2534
54.2098
50.6739
48.9912
47.6868
44.3934
38.0538
33.0576
29.6887
27.3013
25.8559
24.9956
24.5402
24.3591
24.0342
65.1273
55.503
69.9856
62.7957
59.4952
55.8543
52.2677
47.9172
42.9803
38.5575
34.9435
32.6452
30.7967
28.7195
25.8454
22.344
19.7587
18.5226
18.4009
18.5974
17.0506
74.0057
77.3702
70.5933
62.409
54.9168
48.33
42.4288
37.503
34.0176
31.7541
30.2176
29.5282
29.1244
29.0514
28.7558
28.5636
28.2904
28.3501
28.2515
71.3087
126.13
121.913
79.8024
56.6685
46.1154
40.448
38.0766
35.5119
34.4398
32.8927
31.7881
30.627
29.817
29.2738
29.0201
29.0076
29.0943
29.193
29.1851
147.806
145.581
114.939
76.4293
61.1424
52.5547
46.8207
43.7758
40.5678
38.2645
35.8012
34.0608
32.7869
31.8687
31.2716
30.7485
30.4265
30.0303
29.7587
28.9933
266.816
187.582
157.275
108.571
78.0439
60.8413
50.2948
45.4244
41.396
38.9859
36.9178
35.5491
34.4687
33.5025
32.7022
31.6557
30.9858
30.2741
29.8753
28.8358
311.515
189.689
125.283
84.9819
66.9803
56.3354
47.8122
43.9194
40.6792
39.0682
37.6029
36.7457
35.9387
35.177
34.4805
33.4719
32.8044
31.9937
31.5342
30.2875
281.335
152.361
113.441
80.4261
65.4672
55.93
47.4889
43.3351
39.9445
38.381
37.0637
36.3262
35.6869
35.0899
34.6572
34.14
33.7266
32.8961
32.4024
31.2021
259.364
162.201
126.835
78.3547
60.8125
52.8482
45.4143
41.4669
38.7461
37.1036
35.8716
35.1217
34.4433
33.6198
32.9018
31.9775
30.8487
29.5943
28.9229
28.4992
115.69
189.066
174.77
106.253
65.0461
51.8714
48.0612
41.1749
37.9918
35.1614
34.2988
33.1297
32.4541
31.3623
28.9461
27.3244
26.0864
25.4551
25.3779
25.5565
126.459
172.796
121.396
73.0958
53.6809
48.9611
48.1351
40.6114
35.6761
32.5917
31.0934
29.9325
29.1051
28.1181
25.9882
24.3597
23.7895
23.5336
23.5165
23.5593
138.612
147.932
113.834
58.5878
43.0828
41.5096
42.7279
37.4141
33.0004
29.6786
27.6216
26.6394
25.4492
24.2072
24.3434
26.1225
25.3352
24.5413
23.9166
23.4443
222.334
134.425
99.5667
50.6066
42.5846
38.6823
38.9199
34.0823
30.572
28.6041
64.2145
54.0248
35.304
29.3457
27.2933
27.6999
26.8658
25.8395
24.807
24.0349
231.696
106.742
65.0427
53.1962
48.574
45.2516
44.763
37.613
34.3939
31.4228
29.6249
28.3069
27.3586
26.8754
26.6941
25.6472
24.753
24.067
23.4914
23.2233
237.843
114.091
76.9698
63.3522
52.0458
46.8112
45.0015
36.9085
32.3266
30.1269
28.4756
27.1469
25.8063
24.818
23.8047
22.977
22.4082
22.0129
21.6935
21.5704
253.245
162.536
119.631
84.3882
60.6299
53.0673
42.8206
38.9919
34.2872
31.4621
28.9845
27.4164
25.996
24.6416
23.3369
22.0759
21.1728
20.574
20.1987
20.053
219.578
176.738
130.33
100.074
79.0378
70.2419
57.0977
52.9607
44.1603
39.0212
34.381
31.9758
29.3722
26.7993
24.1769
22.0046
20.5546
19.7
19.2681
19.1004
198.142
172.336
111.181
90.5055
76.2075
69.26
60.9718
56.72
49.8623
44.1257
38.9136
35.9456
33.2975
30.1211
26.8945
24.0389
22.0864
20.726
19.9508
19.4416
207.691
166.741
99.1618
79.9443
66.6564
59.0668
51.6623
46.8464
42.6634
40.0728
36.9168
34.1385
31.0307
27.9472
25.5865
23.7833
22.4736
21.3526
20.5811
19.9202
217.56
111.289
83.2895
67.2879
59.4292
51.2742
45.3279
43.2591
40.3035
38.4137
34.6371
31.2148
28.1634
26.2869
25.2133
24.6224
24.1228
23.5074
22.9846
22.2073
212.432
100.951
76.6717
64.4461
61.0535
55.5951
48.441
44.97
40.4553
37.6704
34.0189
31.0267
28.5485
27.3098
26.6305
26.2906
26.1744
26.1052
26.0747
25.9462
91.3089
86.9823
79.7836
71.0027
66.1524
61.8553
55.9565
49.7832
43.7091
38.8367
35.0789
32.5721
30.5336
28.2342
25.7534
23.7663
22.6764
21.9953
21.6994
21.3088
48.7547
78.64
76.3557
71.4591
65.9334
56.3085
47.1996
40.4896
36.9385
34.4846
33.416
32.0753
31.6066
30.9426
30.7737
30.2987
30.221
30.0495
30.2617
30.0887
108.021
161.181
155.251
103.447
69.7856
50.5357
44.7958
40.5182
38.4171
36.707
35.6089
34.7526
34.2621
34.0086
33.8943
33.8831
33.9705
34.1849
34.3218
34.6574
206.648
207.68
146.01
79.8135
64.4084
51.5404
47.9342
43.7728
41.7824
39.493
37.9996
36.6713
35.8739
35.2118
34.7502
34.341
34.1359
33.8037
33.5696
33.0553
419.819
260.806
177.776
112.721
81.533
60.0994
51.6847
46.0593
43.0807
40.5705
39.1011
37.7701
36.9047
35.9758
35.3058
34.5229
34.1156
33.4825
33.086
32.1497
441.026
309.75
152.496
85.3883
68.6855
54.7404
48.883
44.3125
42.2446
40.3627
39.3891
38.3699
37.6999
36.8739
36.3312
35.5978
35.2464
34.5552
34.056
32.741
219.799
181.878
124.308
79.4542
67.2795
54.6129
48.5504
44.0294
41.4482
39.6572
38.6387
37.7796
37.2696
36.6582
36.3929
36.0037
35.7816
35.2174
34.7549
33.4995
202.32
181.962
140.55
80.1851
64.001
52.117
45.7047
41.627
39.4991
37.8212
36.9577
36.1924
35.7067
35.078
34.571
33.9536
33.5331
32.9561
32.7287
32.2012
271.551
240.253
195.789
115.419
71.4907
53.0887
46.7179
40.1754
37.7492
35.3103
34.7161
33.7335
33.2571
32.4615
32.4284
31.1138
30.5033
30.0943
30.0672
30.0547
212.012
188.122
125.706
74.4517
55.206
49.0463
47.1831
39.1306
35.6779
33.3464
32.3739
31.5691
31.0724
30.5074
30.6087
30.7164
29.5339
28.9159
28.757
28.651
283.739
194.115
127.611
65.965
45.9246
42.5022
42.4555
37.2886
33.9716
31.4613
30.3178
29.8503
29.9082
30.1597
32.0063
32.5295
30.6679
29.6516
29.1683
28.8902
250.617
161.691
81.2343
53.5287
42.5612
39.2616
38.3999
34.9072
32.8023
31.8262
47.7488
43.0773
35.4624
33.8099
34.1067
33.5558
31.6331
30.5129
29.9271
29.696
239.18
112.869
63.7872
53.4556
45.2977
42.8536
41.9635
36.0662
34.2847
32.8793
31.8381
31.0551
31.1116
31.4082
32.2886
31.4202
30.0301
29.281
29.0275
29.0698
129.751
129.29
83.1086
59.4806
51.1832
45.2133
41.5614
35.4588
32.4651
30.9688
29.9764
29.3239
28.8119
28.6095
28.8338
27.7703
27.3063
27.1422
27.1811
27.3863
277.607
177.732
138.583
86.5339
61.5217
49.2833
40.5645
36.6966
33.5667
31.2733
29.9499
28.7644
28.024
27.186
26.5414
25.9591
25.7156
25.651
25.7154
25.9987
241.629
170.704
128.478
85.1816
66.7861
55.0709
47.9772
43.9007
39.0203
36.2119
33.4393
31.405
29.5361
27.8933
26.6017
25.5835
25.1444
24.9518
24.9858
25.2478
450.189
242.032
109.362
73.4822
64.7207
55.1948
51.0069
45.7927
42.1388
38.8771
36.2983
33.8988
31.8725
29.8871
28.2814
26.9921
26.2742
25.8151
25.6599
25.7197
318.444
228.714
92.295
65.6314
59.7577
49.7542
46.4914
41.8095
39.8095
37.3374
35.2105
33.0132
31.166
29.6801
28.631
27.7773
27.2208
26.7453
26.4764
26.3687
254.491
121.66
78.6801
62.4626
58.5319
48.2665
45.1355
41.5111
39.7777
37.4145
34.9435
32.8992
31.544
31.0354
30.9221
30.9059
30.7903
30.3854
29.9462
29.442
304.723
105.581
79.1116
65.6379
64.0346
55.5882
49.6342
43.9915
40.15
37.5336
35.4083
34.5903
34.2544
34.3788
34.5613
34.7848
35.1774
35.3425
35.3958
35.2795
80.8116
78.7014
77.1703
73.2888
68.345
63.6322
56.2086
48.0852
41.5738
36.7949
33.7454
31.1913
29.1059
27.1376
25.9813
25.0888
24.5945
24.0009
23.7622
23.2378
68.5287
85.2962
76.4737
68.839
65.2217
55.8101
44.0587
38.3685
36.1546
34.1457
33.3043
31.6775
31.1721
30.2282
29.9665
29.3813
29.378
29.2409
29.5883
28.9771
316.694
265.177
222.037
117.716
101.594
65.7849
69.6021
56.187
58.7977
51.864
53.1394
50.0147
51.076
49.9148
50.4329
50.0584
50.4912
50.5188
50.9626
51.6527
444.592
284.465
193.598
90.0682
85.018
59.6447
65.7908
54.6273
57.485
51.6469
52.6485
49.5958
49.987
48.4732
48.4665
47.7552
47.8054
47.247
47.2394
46.8274
288.361
280.256
217.801
120.313
101.941
67.0643
69.6031
58.4467
59.0403
53.2724
53.3135
50.3802
50.2532
48.6492
48.353
47.3952
47.2522
46.3749
46.2041
45.2358
430.429
355.631
203.08
89.0782
88.7984
61.239
64.4393
53.8713
55.8349
51.1845
51.992
49.6277
49.7655
48.4322
48.3885
47.7085
47.7642
46.9539
46.6959
45.229
244.519
192.143
141.331
80.1619
86.2028
62.6185
65.0491
55.2194
54.7685
50.7613
50.6277
48.9572
48.9169
48.2051
48.3059
48.0132
48.1799
47.5073
47.2063
45.6241
417.655
249.344
151.668
77.1683
80.9423
58.2952
57.082
50.4417
50.2837
47.5294
47.7963
46.5649
46.7633
46.1176
45.9678
45.7921
46.1031
45.6824
45.5922
44.6049
276.214
227.094
197.876
105.037
90.9648
64.7255
56.3504
48.6453
47.3698
44.8796
45.0627
44.0294
44.1645
43.8038
45.6298
43.8294
43.5433
43.0338
43.0536
42.6561
405.316
194.349
125.959
72.4906
65.5148
59.1908
59.0336
50.1514
48.8262
47.0714
46.8559
46.4329
46.7335
46.8861
46.9456
44.0595
42.546
41.9806
42.0883
41.8137
424.395
234.55
137.958
72.7746
61.7745
53.1664
54.5261
52.5012
50.7188
47.9885
46.7666
47.4065
49.2919
49.793
48.2348
44.6276
43.0172
42.5208
42.6306
42.4265
195.931
182.708
99.485
76.2496
55.9913
52.012
51.3045
52.272
51.2025
46.6321
46.775
47.5537
50.9067
51.4806
49.387
45.4182
43.5984
43.1484
43.2898
43.3287
175.39
138.635
83.4119
77.9193
59.0395
54.8186
53.7393
52.5336
51.2117
49.5947
48.7939
49.0011
50.0682
50.4562
48.5661
44.0688
42.5813
42.143
42.4021
42.5834
268.986
155.649
103.725
73.3923
66.6617
54.8949
52.7109
46.7373
44.9154
43.2635
43.4221
43.0811
43.6596
43.7048
42.2739
40.5721
40.2985
40.4125
40.7198
40.9388
197.779
186.907
169.012
96.7484
80.2428
54.2829
51.3683
43.261
42.1675
39.0691
39.7008
38.515
39.037
38.6307
38.7003
38.6856
39.0525
39.1279
39.467
39.6872
211.153
175.226
152.711
85.649
77.6797
54.1515
56.1264
46.7357
46.4064
42.5814
42.1099
39.8266
39.4774
38.6171
38.6135
38.3377
38.5107
38.5013
38.7573
38.9976
526.155
204.024
128.878
73.9544
75.8156
54.4171
58.3814
47.278
49.0654
44.0274
44.6569
41.6137
41.3783
39.9107
39.9926
39.5527
39.737
39.5022
39.6435
39.6354
279.105
193.587
113.885
77.6613
72.5014
52.0855
56.1138
45.5189
48.3974
43.2827
44.274
41.4743
41.6964
40.6061
40.7724
40.2856
40.4628
40.1968
40.3292
40.204
415.436
177.988
91.6806
78.8108
70.5029
52.7425
56.0103
45.9713
49.3202
44.0642
45.6349
42.9728
43.8039
42.9486
43.7813
43.8211
44.3726
44.0733
44.0878
43.6625
265.047
134.879
87.8648
78.4086
74.7161
57.5584
60.3228
47.957
51.7897
46.7897
50.0577
48.4127
50.3142
49.5186
50.8218
51.2433
52.571
52.6422
52.9789
52.6461
108.068
73.0908
66.5885
64.3629
63.8181
61.3884
51.7216
42.4704
36.6902
32.7415
30.3207
28.1878
26.9169
26.0877
25.5701
24.9318
24.583
24.0014
23.7226
23.0568
27.9661
29.3814
75.3634
30.3287
29.2877
31.0511
76.0606
26.892
74.3942
53.6127
29.1138
28.6862
74.7954
53.8865
64.3295
30.1013
29.7006
30.5651
68.008
31.217
31.2352
58.8338
29.444
28.5219
67.2987
58.2694
31.024
30.2034
256.821
286.412
253.609
84.6967
66.6636
68.0528
57.7066
233.803
254.026
250.107
60.8972
52.6918
54.9749
49.5189
224.053
245.6
223.585
50.9738
47.1853
48.3434
44.8638
211.308
214.948
197.339
45.9791
44.1114
43.6178
39.624
204.661
193.143
179.772
43.5858
42.5402
38.6788
36.6045
194.157
175.354
164.439
42.0875
41.3659
36.0537
34.1132
183.516
160.517
149.034
41.0013
40.3206
33.522
31.4449
156.408
145.525
119.466
39.9986
38.6141
30.8094
27.5076
258.601
242.25
218.485
62.6813
55.7479
54.4404
47.4737
247.255
215.723
207.386
53.5677
48.5278
45.8704
41.9901
215.937
203.976
192.043
47.2906
43.7364
40.9354
37.8765
188.856
186.845
174.584
42.4231
38.123
36.9298
34.4355
169.927
169.282
154.871
37.0865
34.8117
33.9557
32.8122
153.512
149.884
138.215
34.2038
32.2101
32.5863
31.9301
140.269
135.667
133.551
31.5738
29.5613
31.6874
30.6854
117.462
133.11
119.727
29.0153
26.7191
30.4686
28.9279
194.8
190.923
148.191
53.1998
46.7689
63.6614
55.8008
195.7
145.602
145.804
45.1794
41.4049
52.5543
47.5138
187.332
146.986
164.258
40.2798
37.1774
46.2529
39.6387
173.577
168.208
172.949
36.251
34.2621
37.9828
35.1026
156.59
173.047
168.218
33.8633
32.8572
34.531
33.6099
142.922
165.428
159.516
32.641
31.9207
33.492
33.0947
136.487
158.491
155.154
31.6855
30.7688
33.0058
32.9294
120.173
153.593
128.278
30.5968
28.9713
32.9853
32.7131
157.155
302.077
192.086
70.0787
59.6398
83.4784
66.3466
140.944
179.672
157.501
55.6096
49.1214
61.1529
49.8027
140.366
155.241
147.488
48.2624
42.9161
46.7473
42.9482
168.724
145.357
145.731
40.6537
36.7096
43.0157
43.2999
172.118
147.604
154.133
36.0769
35.3258
42.8252
40.9289
164.443
154.786
150.445
35.296
35.104
40.559
39.2195
160.687
146.75
138.162
35.0217
34.931
38.6469
36.4523
134.501
136.119
117.406
34.9787
33.8974
35.7265
32.1735
56.9548
57.1334
50.7988
50.4029
44.8129
46.2801
41.4135
45.9266
48.5272
43.5334
42.2271
37.7215
39.7601
35.8594
41.1837
42.375
39.1505
36.7233
34.1393
34.8472
32.1312
38.5163
38.0371
34.719
33.4055
32.1265
31.2694
29.0868
37.1091
33.9277
32.2056
31.7805
30.8781
28.5596
27.4087
36.0888
31.7367
30.2074
30.5752
29.9723
27.0759
26.0906
35.2163
29.7155
28.0521
29.7352
29.0722
25.7464
24.6551
34.6919
27.5283
25.6026
28.7775
27.9952
24.3023
23.2352
49.0541
46.9996
42.3405
44.1166
40.1584
39.5993
35.9115
42.4704
40.9227
37.3219
38.6181
34.8914
34.7983
31.8893
38.0742
36.3119
33.4615
33.9086
31.231
31.0259
28.7166
33.4154
32.6136
31.4668
30.3577
28.2789
28.8338
43.1986
30.7959
31.3167
30.7088
27.8374
26.9281
43.7229
40.2629
28.7824
30.5043
29.7962
26.6485
25.6993
38.058
33.4837
26.6547
29.546
28.6671
25.3493
24.2535
32.3558
29.5717
24.8027
28.3881
27.4965
23.9296
23.0723
28.7224
27.0412
42.1419
55.7299
49.8148
39.9256
35.9735
45.6361
39.863
37.1163
47.1706
42.8753
34.8744
31.9607
38.3943
35.6478
33.0241
41.6467
35.9559
31.0483
28.6771
34.6932
31.367
31.5003
34.4739
31.9111
28.6531
42.0732
30.4487
29.5169
31.0897
31.4652
30.661
43.1244
43.1503
29.2595
28.399
30.0863
30.5066
30.021
41.6831
34.9004
28.1098
27.2977
28.7767
29.8921
29.707
33.1406
29.5162
27.0736
26.6436
27.5677
29.7235
30.1673
28.6847
26.953
26.5965
26.6808
52.8688
66.6795
57.8223
47.1743
41.1156
50.6622
42.8825
44.2169
53.6273
44.1543
39.4288
36.4024
40.4921
35.8815
38.6739
41.8365
39.2547
35.6665
32.8885
34.6602
33.2204
33.6082
39.3122
39.0487
32.0258
30.2549
33.1375
32.1129
32.1959
38.3883
36.5109
29.8535
28.8273
31.4883
29.986
31.6552
36.1037
34.6053
28.551
27.8052
29.6117
28.2798
31.2445
34.0351
32.1222
27.5906
27.1315
27.8255
26.6175
31.2208
31.5421
29.3432
27.0514
26.9379
26.2925
25.104
43.0157
44.8427
40.0325
46.6717
40.768
43.7002
38.783
36.5778
38.4704
34.8286
38.8074
35.7656
37.4107
34.413
33.2638
33.8723
31.3186
35.0631
33.0827
33.6354
31.5868
31.4246
30.5269
28.595
32.5569
31.7097
30.9754
29.6049
30.2261
28.129
27.1095
31.4577
30.768
29.2827
28.6036
29.3458
26.8083
25.9309
30.5329
30.0879
28.4083
28.0143
28.4255
25.6222
24.6759
29.9027
29.3777
27.8991
27.6202
27.3456
24.3733
23.4545
29.143
28.5403
27.5274
27.4312
38.8807
38.6276
35.0614
41.7738
37.8529
37.9312
34.8247
33.9266
34.02
31.3286
36.5794
33.7403
34.0216
32.0563
30.4798
30.5285
28.5641
32.9935
30.9491
31.4706
30.1364
28.7111
28.9568
28.8209
29.4647
28.5059
28.8357
28.7377
29.1862
27.3447
28.5305
27.796
28.4315
27.5809
29.2084
25.7694
46.4016
36.4236
28.506
28.0974
46.9303
36.775
24.4854
34.5139
30.482
28.0051
27.8085
35.1883
32.5506
23.41
29.452
27.5207
27.7647
27.7391
32.006
31.2727
35.0989
43.315
38.1014
37.9635
34.7454
40.6566
36.0932
31.4075
36.8593
34.4538
33.9929
32.1106
35.3011
33.6846
28.5862
33.6073
30.858
31.5294
30.3098
33.1509
31.6031
52.509
47.3964
29.3158
34.4312
36.474
207.134
30.2648
56.2177
63.3107
45.6187
158.604
44.4685
145.626
60.3094
38.1539
28.1993
27.32
51.44
37.5001
29.9333
29.4484
30.3415
27.0942
26.6931
35.4787
32.5093
29.4245
29.5255
27.4358
26.6529
26.6909
31.9889
31.2711
29.5824
29.8311
39.0224
47.3973
40.3335
41.8251
36.4576
43.7259
36.7181
35.0671
38.2551
34.5749
35.5636
33.956
35.3301
33.3402
32.1072
33.5075
32.2468
33.4901
32.2299
32.5561
31.6241
29.9992
32.1438
31.0336
31.8522
30.9972
31.4651
30.4444
28.5957
30.4526
29.1019
30.6988
29.8944
30.0434
29.2644
27.5641
28.762
27.5449
29.6905
29.3651
29.0452
28.3075
26.9454
27.1449
26.1321
29.3239
29.3404
28.098
27.7047
26.8102
25.8732
24.9044
29.3693
29.5775
27.6022
27.1726
40.9757
44.2771
39.3586
53.8389
46.5619
51.0164
47.1267
36.3273
38.0429
35.2347
45.1316
43.2852
46.1439
44.2359
33.8298
34.5201
32.623
42.995
41.3505
43.782
41.86
32.5908
32.0521
30.8063
41.0909
40.6187
41.1755
40.0011
31.7741
30.5249
29.9645
40.6502
40.2151
39.8553
39.9356
31.2116
29.8321
29.7564
40.2057
40.1772
40.289
41.6195
30.6866
29.7598
29.7913
40.369
40.4255
41.9265
42.4597
29.9088
29.7867
29.7137
40.5376
40.1911
42.5351
42.484
38.4948
38.4331
35.6686
49.2248
46.7177
45.7923
45.3546
34.6536
34.961
33.262
45.8703
44.1298
44.9893
44.0352
32.0463
32.7371
31.3
43.6673
41.1146
43.4099
40.2518
30.4698
31.683
48.4941
40.4011
39.2477
39.5146
40.6456
29.9756
48.6238
43.6179
39.1062
39.1133
40.9439
40.7933
29.8345
41.0996
36.0153
39.5262
41.6827
40.818
43.0736
30.1098
35.2495
34.0566
42.1921
42.9012
43.8747
44.7349
30.1233
33.7832
33.2156
42.977
42.8268
44.7373
44.2474
35.5544
40.8127
36.5782
45.4163
45.319
46.9501
45.9209
33.3141
35.8883
34.5135
45.0338
44.2013
45.5186
44.6056
31.4811
34.0795
32.7389
43.5871
40.4373
44.3072
42.0531
47.5372
32.3795
32.2345
39.7914
41.2351
41.3477
40.6485
45.7089
32.0544
31.3894
41.4555
41.21
40.5455
40.3956
36.4657
31.1982
31.1214
41.2194
43.2651
40.6899
42.8492
34.0735
31.2496
31.6299
44.051
44.9151
43.3711
44.0681
33.2478
31.7295
31.8372
44.9184
44.4592
44.1461
43.9224
36.8561
43.7878
36.924
48.0707
46.0105
50.5532
45.2482
34.6791
35.6448
33.8927
45.4787
44.4551
44.0479
42.187
33.2242
33.1907
32.3668
44.1882
42.7222
41.9491
41.2675
32.0965
32.191
31.2622
42.0623
41.2295
40.9601
40.316
31.1901
30.9413
30.3879
41.1222
41.1152
40.349
40.2763
31.0503
30.2133
29.6681
41.4127
42.8382
40.2375
40.2412
31.3448
29.5388
29.372
43.147
43.6611
40.4303
40.6806
31.521
29.3257
28.8956
43.7283
43.5935
40.7232
40.2664
51.2041
56.2492
53.3335
79.4009
72.9322
77.9611
80.1418
48.9913
52.546
51.034
72.6322
74.8752
80.0065
81.4662
47.2482
50.6702
49.1374
75.4288
74.6135
81.9767
85.3584
46.7397
48.6045
47.6486
74.9174
76.9164
86.6117
88.9861
46.3911
47.5474
47.5979
77.6256
77.7094
89.4515
89.4455
46.4512
47.8587
48.7502
78.1641
79.3088
89.0288
86.6755
46.7654
48.9699
49.2908
79.9779
80.1102
86.4459
86.0902
45.9467
49.3453
48.6933
80.5792
78.763
86.177
85.6897
53.1859
51.7476
52.4906
77.3869
81.5011
75.5845
84.9666
51.1065
52.2187
51.4233
81.3823
82.825
85.0232
86.8844
48.6871
50.9957
47.7042
83.6741
88.5932
88.4239
95.928
46.8666
46.3966
46.0672
90.1014
92.6975
98.2437
101.587
46.9288
46.2464
46.5547
93.1295
93.0319
102.007
101.058
48.8822
47.2876
50.0843
92.3484
88.7821
99.4631
93.1932
49.7538
50.7398
51.3433
87.8391
86.9641
91.0841
88.2828
48.9866
51.2972
50.0874
86.8934
85.5705
87.9923
85.9666
52.4782
52.6192
52.9988
75.3301
85.5749
77.2896
86.0362
51.5649
52.6186
51.7231
85.5964
87.4039
85.559
85.8476
47.9279
51.4445
49.8008
88.9156
96.402
86.4141
90.5505
46.659
49.0616
48.248
98.8075
101.802
91.815
93.296
46.8558
48.1639
48.1417
102.042
101.015
93.393
92.9088
50.2972
48.5335
49.9951
99.3522
93.0304
92.0255
88.1646
51.5168
50.3751
50.8226
90.9343
88.2128
87.1654
86.3933
50.3629
50.8638
50.0742
87.9517
86.0763
86.4039
85.4407
53.0459
56.002
51.6412
80.1314
85.1672
80.6568
77.9218
51.4632
50.3927
48.3081
84.3781
84.3315
76.9944
76.6139
50.1315
48.1994
47.5013
84.5299
87.3515
77.8877
76.8574
48.8755
47.1584
46.5903
88.2456
89.5121
76.6917
77.9119
48.7896
46.6758
46.6039
89.6224
89.3145
78.6628
78.5903
49.8499
46.5587
46.5568
88.7054
86.0803
78.7202
79.6949
50.4138
46.7624
46.9658
85.7794
85.5829
80.2856
80.4932
49.7709
47.0081
46.0056
85.6623
85.2161
80.9121
79.0396
28.9651
28.394
28.5886
28.0641
28.5367
28.3887
29.1902
32.7613
28.5609
48.6439
33.6735
29.8514
28.8601
157.843
37.6752
34.3744
68.2971
179.998
32.8211
39.4113
199.117
29.1358
29.6803
29.8264
29.8182
29.1271
29.0797
29.7963
29.5026
28.5089
29.5017
30.3644
28.7626
29.8105
30.0575
33.5668
34.7692
29.9737
52.3098
29.327
162.407
31.7021
38.8287
185.326
37.2941
71.8403
40.7434
203.27
35.4469
29.1615
27.1173
28.1696
27.1998
28.3354
27.3974
28.9542
39.4614
34.7498
72.0394
166.753
34.7909
39.5776
153.692
39.2111
33.7554
64.3804
73.8603
34.5962
36.9555
104.884
29.9278
28.2971
28.9768
30.4769
28.1272
29.8897
30.5449
29.9251
27.7915
28.8389
30.3756
27.9696
29.7059
30.5226
40.975
172.724
37.8242
72.4353
40.9872
160.982
38.0224
40.679
75.6927
36.6931
64.8404
38.1099
110.95
37.771
64.4519
60.6921
46.0467
172.539
43.8879
190.306
64.1518
31.7288
29.3243
29.8773
30.1288
30.2549
29.6685
30.1285
34.0699
32.3735
29.8325
30.1132
31.8625
34.4381
30.1938
52.6358
35.5599
51.9396
31.152
201.937
30.8907
39.186
64.5499
180.413
66.1708
47.6221
196.213
64.0747
46.4492
32.3587
30.4986
30.9414
31.2274
30.1877
30.5582
32.1959
34.6852
30.6043
34.268
31.2916
35.003
30.6695
33.889
52.5753
64.015
42.3218
99.0702
43.409
134.872
50.4524
33.434
32.2745
29.1372
29.8497
31.9
34.1409
29.517
32.7322
31.0547
28.8175
28.8765
31.4122
32.3049
29.1738
56.6857
167.895
65.8084
46.9683
156.079
60.3732
45.7325
52.7811
95.08
65.1461
43.0542
137.343
50.0262
44.6375
34.002
30.3577
34.1286
30.7534
34.6924
30.0383
33.7163
33.2959
29.4169
32.8136
30.4597
32.8259
29.7033
33.225
165.073
196.824
168.079
111.721
85.343
110.015
87.4046
153.007
153.066
147.155
72.2346
70.4204
71.8095
63.4163
142.712
142.594
139.203
67.6536
62.3323
59.6003
56.4198
139.614
134.929
132.856
60.3174
60.663
54.6262
53.6278
135.028
131.352
129.507
60.0296
58.3771
53.0296
52.0876
131.136
126.595
124.066
56.9765
56.792
51.4848
50.6798
125.831
121.322
118.562
55.9832
54.9615
50.061
49.3399
114.319
115.694
103.254
53.9733
49.9836
48.8096
43.8586
195.068
186.623
181.819
105.747
98.1032
94.7417
81.6417
139.077
293.523
301.322
178.308
157.43
170.211
264.407
94.0157
239.367
239.999
113.094
108.621
97.7328
240.137
87.8624
228.447
237.384
101.532
98.8743
89.4701
234.229
79.6173
216.053
219.121
90.3987
88.8057
81.7338
214.065
74.4942
206.921
204.247
86.8196
85.3762
75.7721
201.73
71.0598
199.016
194.001
83.1206
81.8823
72.1384
190.614
68.0591
188.037
182.345
80.0364
78.3642
69.0702
179.085
65.3957
178.207
171.225
76.1041
75.1429
66.091
168.123
89.0459
88.8158
73.0619
43.5284
41.3618
33.5257
27.7443
174.496
148.775
152.904
77.8658
69.4959
72.9227
63.5882
111.659
269.266
282.502
143.834
116.663
140.185
264.534
90.139
254.019
251.102
94.6154
92.4843
92.3769
246.738
80.8757
234.845
229.145
87.4467
85.2106
83.5117
221.651
71.511
199.583
198.115
78.6269
75.6094
74.5184
192.295
62.8202
179.48
176.805
67.8597
65.8446
64.6984
171.485
57.6596
161.302
155.984
61.6991
60.1404
59.0245
151.211
52.0768
146.297
140.938
55.7153
54.273
53.398
138.882
48.3201
134.059
133.408
50.4047
49.0198
49.249
131.773
74.5262
84.9981
76.5338
30.1033
24.5767
31.2415
26.0496
121.852
114.012
116.459
61.6732
61.1267
64.2592
67.2731
86.6115
197.25
183.422
106.614
87.5031
104.881
171.437
72.0455
196.462
175.803
75.2239
73.9015
73.2424
179.25
67.9218
193.008
184.823
70.7977
69.6871
68.9946
184.732
63.6867
180.739
180.607
65.945
64.4865
64.8474
178.767
58.517
165.186
170.942
60.1383
58.6082
59.8336
167.784
55.2141
148.92
157.321
55.5115
54.6511
55.9364
154.35
52.7404
138.804
146.678
52.7015
51.8599
53.4366
144.744
51.1398
135.165
140.113
50.4751
50.157
51.4718
138.315
77.2356
92.8426
84.3307
32.7641
26.6624
36.2544
32.4427
135.341
158.471
164.761
80.824
76.6843
88.212
88.962
117.194
193.242
247.282
126.013
113.486
128.198
214.014
81.2371
144.36
156.537
83.9935
79.5819
85.702
149.289
72.6691
135.994
141.2
74.7045
73.9748
74.0351
137.188
64.0539
157.667
138.482
65.5541
63.2476
66.3182
143.988
61.8864
172.78
166.389
60.8414
60.3982
61.9191
170.299
63.1118
167.265
171.084
60.2352
60.1892
62.7263
169.579
63.276
162.723
164.806
60.0132
59.977
63.2713
163.241
62.613
155.811
157.846
60.3795
60.911
62.757
155.218
86.9053
90.4014
79.8217
40.3531
37.1087
38.3645
33.8164
146.557
192.805
148.461
97.7233
82.5703
100.08
77.1784
116.997
130.911
126.351
69.6719
58.9574
65.7044
64.1565
102.452
118.32
104.168
53.2822
48.2126
60.732
52.3826
96.1266
100.66
98.7064
47.766
47.1433
48.5398
48.2979
94.2059
94.498
89.4665
46.0472