/*--------------------------------*- C++ -*----------------------------------*\
  =========                 |
  \\      /  F ield         | OpenFOAM: The Open Source CFD Toolbox
   \\    /   O peration     | Website:  https://openfoam.org
    \\  /    A nd           | Version:  10
     \\/     M anipulation  |
\*---------------------------------------------------------------------------*/
FoamFile
{
    format      ascii;
    class       volScalarField;
    location    "7.9";
    object      p;
}
// * * * * * * * * * * * * * * * * * * * * * * * * * * * * * * * * * * * * * //

dimensions      [0 2 -2 0 0 0 0];

internalField   nonuniform List<scalar> 
12920
(
1.83135e+06
1.79208e+06
1.54794e+06
1.44492e+06
1.2805e+06
1.17008e+06
1.05279e+06
957179
862359
777910
694401
616895
540995
468754
397283
328377
260403
194007
124910
48069.2
1.80337e+06
1.70186e+06
1.51886e+06
1.42177e+06
1.26356e+06
1.15672e+06
1.04191e+06
949487
856497
773465
691073
614358
539023
466924
395778
327068
259466
193374
124511
47991.9
1.82224e+06
1.62581e+06
1.44402e+06
1.37525e+06
1.22523e+06
1.13509e+06
1.02599e+06
937075
845981
765071
684298
608764
534254
462981
392623
324406
257492
192036
123811
48015.3
1.53538e+06
1.57765e+06
1.39354e+06
1.33094e+06
1.18865e+06
1.10351e+06
1.00309e+06
919858
833050
753752
675173
600939
527860
457603
388394
321123
254745
190175
122894
47788.3
1.68123e+06
1.50311e+06
1.35698e+06
1.28368e+06
1.15242e+06
1.07709e+06
978406
900136
815129
739332
662655
590493
518890
450175
382352
316318
251279
187639
121393
47406.5
1.41642e+06
1.35225e+06
1.2316e+06
1.19416e+06
1.0963e+06
1.03417e+06
948904
874835
796302
722420
649081
578477
509071
441807
375477
310732
247163
184607
119455
46900.6
1.16695e+06
1.29933e+06
1.22544e+06
1.16999e+06
1.0642e+06
1.00687e+06
919505
850363
773927
703946
632874
564816
497280
431733
367052
303829
242049
181067
117387
46189.7
1.18641e+06
1.21773e+06
1.14585e+06
1.09799e+06
1.02356e+06
970248
916369
846041
774515
704324
635733
568369
502524
437597
357511
296531
236446
177386
115192
45464
1.61943e+06
1.33188e+06
1.12446e+06
1.0781e+06
988525
955319
900771
832835
762971
695433
628980
563988
499763
436143
362136
288672
231052
173666
113104
45036
1.00035e+06
1.10312e+06
1.03589e+06
1.01586e+06
943918
921166
869250
802786
737372
673901
611127
549086
487498
425753
354992
281108
225487
169802
110807
44761.8
878487
1.04909e+06
974948
960038
899004
875817
832018
772480
712788
652696
593274
534514
475473
415548
346771
275014
220865
166504
108900
44498.9
543228
961301
928998
912468
857429
841943
801436
746613
690289
633784
577369
521070
463994
405812
339322
270807
217570
164262
107683
44357.9
877677
1.00442e+06
930192
897262
840315
801919
765951
714035
659837
606809
553386
499305
444966
390323
322499
268437
215069
162574
106769
44285.6
1.0429e+06
966277
880178
853829
805746
774008
724657
678837
626581
578187
525915
475626
423319
371776
318467
265473
212822
161012
105857
44353.2
652247
884769
875890
851434
793402
760283
706406
664787
614947
567774
518049
468378
417245
366231
314349
262610
210742
159633
105220
44501
827080
867180
804410
802397
753328
732183
684219
649363
601032
558661
509870
462721
412367
362408
311337
260225
208954
158458
104649
44675.7
877930
933480
871959
827365
751914
723820
668560
636341
588220
548281
501295
456229
407840
359721
309542
259028
207985
157682
104459
44812.6
997227
898618
775053
782082
710295
700861
652655
625024
578634
540992
494832
451156
403304
356015
306563
257188
207061
157305
104326
44771.1
737915
893158
800013
790170
706125
696068
643966
618242
572022
535361
489750
446731
399806
352982
304251
255334
205896
156623
104216
44897.8
733961
853399
708795
772738
693059
690917
641628
615766
569638
533070
487584
444876
397946
351576
302853
254523
205504
156272
104309
45212.9
2.02876e+06
1.81049e+06
1.55767e+06
1.44586e+06
1.2804e+06
1.1701e+06
1.05272e+06
957160
862311
777734
694390
616866
540959
468690
397251
328353
260372
193995
124837
47887.4
1.77651e+06
1.69686e+06
1.521e+06
1.4205e+06
1.26258e+06
1.15587e+06
1.04175e+06
949462
856493
773411
691076
614362
538994
466894
395754
327048
259432
193366
124475
47900.9
1.71487e+06
1.6204e+06
1.44427e+06
1.37667e+06
1.22609e+06
1.13548e+06
1.02559e+06
937217
846143
765198
684398
608833
534289
462992
392658
324442
257477
192024
123746
47778.2
1.56892e+06
1.58311e+06
1.39444e+06
1.32822e+06
1.18837e+06
1.10312e+06
1.00338e+06
919845
833006
753774
675188
600957
527880
457619
388431
321108
254764
190164
122726
47543.6
1.65718e+06
1.49234e+06
1.35175e+06
1.28086e+06
1.15221e+06
1.07754e+06
978415
900216
815223
739367
662671
590501
518905
450187
382360
316323
251276
187624
121208
47150.8
1.41845e+06
1.35273e+06
1.22714e+06
1.19154e+06
1.09706e+06
1.03404e+06
948716
874714
796258
722452
649109
578510
509099
441825
375485
310742
247132
184606
119366
46641.2
1.10547e+06
1.30628e+06
1.21863e+06
1.16923e+06
1.06393e+06
1.00709e+06
920107
850307
773948
704005
632889
564822
497261
431654
366978
303876
242025
181083
117355
46020
1.07458e+06
1.22079e+06
1.13783e+06
1.09884e+06
1.02314e+06
970159
916434
846110
774370
704228
635701
568398
502491
437555
357441
296495
236415
177394
115132
45297.8
1.3985e+06
1.31582e+06
1.12118e+06
1.07738e+06
988792
955614
901022
832676
762822
695338
628965
563957
499728
436035
361540
288631
230982
173606
113044
44881.5
895507
1.09312e+06
1.02555e+06
1.01471e+06
944128
921595
869853
802550
737159
673651
610874
548927
487415
425551
354486
280994
225376
169747
110675
44426.5
632669
1.03219e+06
963967
960766
896533
876263
832778
772518
712613
652338
592898
534536
475564
415577
346133
274893
220750
166387
108754
44108.9
656494
978361
927631
914468
855522
841903
801357
746337
690091
633684
577363
521102
463888
405620
338771
270651
217399
164190
107583
44070.9
857756
1.01362e+06
925312
897146
840252
802242
765942
713049
659116
606437
553155
499204
444908
390117
322099
268296
214981
162493
106561
43978
992549
966845
880283
854617
805785
773921
724605
678539
626270
577990
525819
475570
423276
371613
318348
265403
212765
160910
105656
43994.1
677906
900675
878964
851243
792951
759836
706211
664552
614835
567703
517745
468144
417152
366263
314388
262598
210693
159535
104994
44073.3
770267
877093
802942
802473
752510
731636
683907
649256
600996
558472
509666
462430
412167
362246
311263
260225
208950
158390
104488
44231.2
799121
941257
873008
827311
752044
723884
668305
636159
588047
548231
501276
456228
407832
359636
309430
258894
207937
157688
104373
44439.7
937901
901838
782858
781834
709991
701019
652302
624740
578527
541015
494864
451184
403310
355992
306549
257172
207024
157247
104254
44545
842433
886537
794063
790637
705474
695805
643732
617976
571749
535123
489638
446744
399700
352882
304175
255282
205879
156599
104144
44750.2
654717
821946
701721
770219
693946
690937
641633
615584
569481
532860
487346
444816
397833
351421
302821
254551
205568
156224
104277
45167
2.01461e+06
1.80565e+06
1.5664e+06
1.44754e+06
1.28042e+06
1.16987e+06
1.05266e+06
957110
862283
777650
694395
616982
541000
468656
397254
328300
260312
193983
124792
47680.6
1.80212e+06
1.71737e+06
1.52585e+06
1.42039e+06
1.26184e+06
1.15552e+06
1.04184e+06
949559
856595
773502
691137
614424
538937
466855
395697
327022
259386
193369
124386
47675.2
1.75281e+06
1.62692e+06
1.44199e+06
1.37603e+06
1.2266e+06
1.13534e+06
1.02528e+06
937437
846364
765373
684510
608923
534319
463014
392667
324459
257454
192003
123554
47253.6
1.71414e+06
1.58467e+06
1.39675e+06
1.32765e+06
1.18936e+06
1.10347e+06
1.0038e+06
919875
832990
753845
675232
600997
527891
457625
388441
321106
254768
190084
122352
46900.7
1.61772e+06
1.47841e+06
1.34553e+06
1.27802e+06
1.15283e+06
1.07745e+06
978510
900314
815314
739444
662720
590540
518947
450210
382379
316346
251284
187536
120800
46472.3
1.33322e+06
1.34496e+06
1.22343e+06
1.19171e+06
1.09815e+06
1.03416e+06
948757
874666
796219
722497
649152
578591
509155
441859
375515
310787
247112
184576
119076
45983
1.09093e+06
1.29649e+06
1.21132e+06
1.16764e+06
1.06432e+06
1.00722e+06
920560
850328
773967
704012
632912
564880
497244
431625
366985
303921
241997
181056
117107
45493.5
1.21573e+06
1.23342e+06
1.14353e+06
1.10197e+06
1.02386e+06
970586
916813
846101
774321
704235
635740
568477
502514
437545
357289
296396
236352
177352
114924
44859.6
1.45937e+06
1.32618e+06
1.13234e+06
1.07917e+06
990290
956405
902054
832477
762659
695273
628926
563990
499724
435870
360855
288480
230871
173462
112673
44252.6
851475
1.09837e+06
1.02652e+06
1.01421e+06
945256
922250
870768
802254
736861
673383
610475
548784
487341
425375
353865
280752
225274
169663
110361
43738.1
746923
1.03898e+06
975424
966149
895831
875787
833390
772304
712253
650026
592416
535042
475811
415543
345379
274623
220528
166273
108415
43319.9
754429
985328
933477
918755
853181
840807
801394
745761
689601
633376
577342
521127
463714
405427
338079
270365
217178
164040
107065
43169.6
942526
1.01578e+06
930815
897225
840593
802907
766004
711241
658166
605854
552727
498977
444714
389743
321528
267947
214778
162253
105974
43117.6
924578
965146
881441
855965
805994
774058
724788
678523
625850
577763
525653
475404
423003
371382
318133
265271
212647
160654
105037
43034.9
733062
911936
875464
849818
793572
759909
706057
664372
614592
567560
517513
468188
417166
366255
314375
262533
210588
159266
104355
43056
808257
890253
798391
802768
751558
731290
683493
648964
600891
558207
509397
462223
412067
362238
311200
260218
208883
158221
103960
43204.9
887154
944458
871346
826321
751748
723853
667830
636006
587782
548156
501260
456162
407753
359439
309247
258777
207881
157585
103879
43525.1
1.08369e+06
917737
784461
782564
710855
701340
651835
624462
578274
540892
494744
451118
403223
355944
306501
257130
206934
157161
104034
44029.8
796330
880412
791340
789067
707830
696478
643544
617748
571395
534912
489427
446659
399580
352839
304130
255282
205849
156572
104094
44464.7
533497
796001
696126
767750
695175
690997
641648
615304
569207
532694
487213
444716
397774
351369
302844
254551
205458
156224
104218
45079.7
1.99741e+06
1.83766e+06
1.57433e+06
1.44692e+06
1.27993e+06
1.16944e+06
1.05265e+06
957098
862282
777616
694431
616979
540986
468628
397251
328263
260286
194009
124767
47320.8
1.86325e+06
1.7449e+06
1.53185e+06
1.4195e+06
1.26158e+06
1.15505e+06
1.04192e+06
949611
856657
773525
691094
614387
538852
466811
395699
327015
259347
193399
124295
46750.1
1.7461e+06
1.64203e+06
1.43979e+06
1.37402e+06
1.22688e+06
1.13488e+06
1.0251e+06
937536
846458
765441
684572
608969
534349
463058
392703
324496
257433
192008
123332
46101.5
1.78736e+06
1.59497e+06
1.39747e+06
1.32703e+06
1.19016e+06
1.10359e+06
1.00387e+06
919814
832951
753856
675241
601013
527901
457640
388439
321132
254774
190020
121972
45644.5
1.49706e+06
1.46177e+06
1.3418e+06
1.27671e+06
1.1538e+06
1.07718e+06
978638
900304
815347
739483
662728
590561
518967
450233
382398
316349
251282
187473
120429
45219.1
1.31181e+06
1.32261e+06
1.22168e+06
1.19132e+06
1.09897e+06
1.03411e+06
948701
874571
796158
722530
649187
578694
509226
441902
375550
310800
247068
184530
118722
44783.5
1.16437e+06
1.27175e+06
1.21081e+06
1.16606e+06
1.06493e+06
1.00718e+06
920531
850206
773838
703998
632890
564985
497287
431625
366960
303880
241894
181018
116726
44267
1.26392e+06
1.22761e+06
1.13805e+06
1.10095e+06
1.02416e+06
970924
917204
846263
774342
704319
635837
568593
502564
437436
357140
296267
236307
177295
114516
43655.1
1.48787e+06
1.31096e+06
1.13206e+06
1.07866e+06
991251
956856
903090
832473
762586
695251
628910
564082
499761
435756
360460
288330
230737
173405
112164
42841
779614
1.11314e+06
1.02209e+06
1.01321e+06
945865
922496
871104
801968
736620
673183
610402
548770
487388
425294
353506
280484
225165
169601
109997
42258
691662
1.01778e+06
969079
965968
895238
875088
833311
771910
711908
650319
592493
535038
475862
415385
344941
274340
220387
166203
108008
41802.9
821275
984538
938488
921859
852844
839302
800969
745142
689074
633073
577212
520981
463683
405318
337777
270123
216895
163738
106374
41476.5
987428
1.01142e+06
935490
898202
841733
803823
766352
709606
657613
605246
552341
498698
444451
389360
320921
267500
214485
161886
105237
41287
874307
955991
886187
857591
806081
774237
724901
678601
625417
577328
525256
474992
422387
370964
317774
264985
212375
160299
104256
41141
835740
919728
878410
848548
793513
759876
705737
664271
614414
567405
517402
468179
417097
366151
314286
262436
210446
158946
103564
41097.7
907884
920840
799494
804040
750534
730988
683017
648570
600682
557868
509232
462081
412030
362182
311130
260180
208803
158017
103233
41259
923653
958663
882110
827207
752269
724166
667014
635683
587324
547903
501106
456001
407662
359269
309075
258681
207774
157372
103248
41672.9
1.10368e+06
911844
786084
781835
713841
702675
651039
624040
577774
540591
494519
450966
403110
355726
306354
257042
206841
157074
103719
42717.3
789696
875528
787672
786622
711861
698619
643137
617293
570634
534323
489074
446482
399415
352781
304099
255262
205841
156602
104115
44007.7
329767
751463
687253
763581
696907
691183
641597
614931
568776
532346
486927
444558
397701
351312
302820
254561
205444
156296
104217
44925.9
1.9945e+06
1.84592e+06
1.57722e+06
1.44566e+06
1.27979e+06
1.1692e+06
1.05261e+06
957033
862242
777647
694495
617026
541008
468625
397249
328221
260267
194057
124766
46914.4
1.943e+06
1.78047e+06
1.53632e+06
1.41951e+06
1.26149e+06
1.15485e+06
1.04187e+06
949609
856713
773493
691099
614386
538847
466819
395737
327036
259327
193452
124277
45855
1.76007e+06
1.65721e+06
1.44e+06
1.37215e+06
1.22722e+06
1.13467e+06
1.02526e+06
937599
846532
765443
684569
608956
534345
463049
392739
324529
257434
192064
123236
45003.8
1.78142e+06
1.59227e+06
1.3972e+06
1.32658e+06
1.19111e+06
1.10386e+06
1.00409e+06
919727
832956
753843
675236
600990
527904
457642
388447
321150
254796
190069
121866
44545.4
1.40802e+06
1.44755e+06
1.33426e+06
1.27625e+06
1.15429e+06
1.07613e+06
978932
900298
815523
739522
662758
590573
518986
450255
382433
316378
251242
187514
120325
44170.1
1.21327e+06
1.3044e+06
1.21652e+06
1.19202e+06
1.09986e+06
1.0342e+06
948758
874505
796142
722585
649233
578782
509295
441950
375579
310792
247031
184556
118616
43691.7
1.14494e+06
1.25978e+06
1.21052e+06
1.16469e+06
1.06569e+06
1.00735e+06
920301
850095
773711
704085
633001
565113
497464
431704
366939
303858
241836
181050
116511
43024.2
1.22304e+06
1.23096e+06
1.13837e+06
1.10214e+06
1.02499e+06
971609
918192
846491
774155
704208
635681
568425
502328
436982
356913
296145
236261
177289
114235
42250.4
1.53059e+06
1.31746e+06
1.13606e+06
1.07975e+06
991886
957006
904054
832543
762540
695208
628925
564134
499796
435677
360172
288159
230643
173409
111954
41438.5
801847
1.12889e+06
1.01563e+06
1.01341e+06
946278
922100
870835
801818
736545
673129
610539
548928
487527
425283
353300
280294
225089
169585
109789
40886.3
696150
1.03029e+06
972954
967993
895838
875220
832656
771670
711697
652048
592964
534714
475784
415278
344808
274116
220327
166195
107784
40369.3
832109
987902
943915
925369
854051
838233
800331
744741
688753
632914
577099
520895
463757
405274
337496
269906
216697
163586
106060
39955.1
989668
999950
940055
899681
842335
804898
766196
709418
657486
604844
552192
498523
444269
389022
320354
266974
214065
161513
104816
39594
939200
951735
891370
858712
806083
774292
724780
678842
625147
576961
525012
474599
421916
370388
317272
264542
211990
159989
103809
39304.7
693177
910482
874199
846707
793658
760399
705528
664397
614308
567382
517222
468205
417044
366047
314209
262343
210275
158733
103191
39229.8
910179
926473
800520
805433
749166
730854
682587
648577
600580
557603
509179
461905
411980
362257
311143
260161
208748
157874
102924
39391.1
950729
955684
876693
826961
752309
724583
666086
635444
586887
547646
500952
455892
407630
359162
308959
258538
207661
157306
103026
39760.7
1.20072e+06
907044
786366
781585
718030
704737
649800
623640
577229
540353
494301
450797
402980
355592
306277
256978
206784
157042
103635
41112.6
708412
863682
785673
784916
714938
701622
642610
616761
569509
533650
488761
446066
399263
352785
304102
255275
205815
156607
104191
43547
308479
738539
685035
763349
697526
691626
641341
614649
567962
531814
486778
444487
397705
351325
302838
254517
205417
156281
104249
44782.3
626117
655211
612345
673202
625991
655018
612352
564153
597147
554348
610381
564119
597156
554457
607323
638084
595418
649964
607356
637894
595363
551699
581281
538857
592391
551577
581235
538820
852574
879301
827346
900897
852600
879695
827189
782237
810554
760360
832730
782166
810381
760220
714270
743830
695501
762865
714226
743694
695350
647483
679446
631676
695354
647516
679286
631504
582177
615751
568599
628968
582177
615595
568478
517775
552907
506251
563959
517766
552804
506170
454077
490664
444099
499739
454050
490591
443973
390109
428412
381339
436080
389735
428267
381029
819197
842512
794958
869634
819043
843020
794985
753558
779637
733917
802619
753410
779622
733815
689697
718752
672986
737229
689527
718634
672829
626786
657776
612591
673732
626620
657563
612405
564549
597585
552826
610963
564423
597402
552788
502924
537945
493257
548987
502856
537916
493314
441244
478291
433093
487444
441139
478359
433132
378952
417953
372563
425610
378687
417965
372235
787379
808356
766137
832584
787474
808551
766039
727687
752703
710212
772513
727589
752610
710169
667755
695717
652834
712676
667569
695719
652770
608062
638502
595544
652477
607802
638401
595494
549170
581308
538718
593033
549157
581274
538725
490315
524453
481373
534520
490356
524471
481418
430586
466869
423003
475528
430632
466903
422836
370277
408261
364048
415570
369937
408018
363619
759790
780346
742777
801405
759810
780713
742581
704703
727520
687630
746430
704539
727353
687403
647940
672575
634019
690175
647911
672493
633994
591490
618830
580084
633734
591471
618906
580207
535262
564900
525843
577360
535268
565009
525732
478434
510432
470524
521087
478430
510315
470307
420497
455034
414420
463954
420335
454792
414289
362084
398586
357545
405676
361698
398468
357183
852566
879873
827134
901842
852504
880624
826979
782135
810307
760148
832521
782029
810064
759918
714208
743635
695283
762703
714153
743440
695082
647521
679219
631428
695287
647486
679014
631176
582180
615520
568426
628941
582197
615288
568317
517760
552753
506139
563979
517759
552668
506070
454021
490557
443917
499725
453936
490482
443776
389632
428197
380918
435914
389099
428011
380433
818991
843233
795002
870615
818851
843961
794976
753337
779615
733754
802329
753096
779520
733516
689455
718566
672745
736935
689240
718295
672193
626531
657444
612331
673449
626220
655793
612360
564359
597323
552765
610563
564182
597294
553883
502823
537908
493331
548795
502746
538238
493456
441094
478381
433158
487342
440996
478519
433249
378561
417973
372152
425408
378102
418003
371710
787499
808576
766026
833322
787412
808687
765901
727537
752517
710070
772386
727309
752113
709651
667459
695665
652717
712357
666826
695358
652489
607656
638345
595470
650446
607226
638147
595423
549159
581266
538745
592445
550849
581273
538835
490389
524496
481433
534973
490562
524595
481403
430657
466894
422757
475747
430737
466788
422614
369822
407948
363475
415568
369248
407788
362892
759825
780693
742395
801479
759637
781737
741915
704412
727205
687299
745918
703928
726723
686916
647862
672402
633935
689741
647623
672030
633646
591461
618886
580181
633465
591409
618688
579932
535283
564988
525662
577352
535332
564758
525390
478396
510241
470235
521130
478228
509960
470004
420290
454727
414226
463736
420186
454462
414012
361585
398406
357051
405468
361013
398187
356491
852467
880765
826930
902948
852440
881138
826780
781998
809981
759842
832460
781924
809766
759648
714123
743375
695015
762614
714045
743211
694853
647463
678938
631100
695258
647381
678760
630975
582199
615228
568304
628918
582227
615139
568286
517756
552659
506061
564063
517760
552651
506077
453902
490473
443746
499758
453824
490490
443693
389011
427962
380371
435784
388619
427860
380021
818805
844074
794930
871129
818662
844208
794721
753016
779456
733423
802035
752808
779219
733160
689171
718191
672097
736669
688992
717925
671836
652052
657650
667653
673298
652159
657572
667486
590623
595000
605812
610418
590667
594959
605738
502744
538378
493510
548769
502768
538517
493615
440978
478575
433278
487367
440954
478673
433292
378034
418006
371618
425305
377673
417953
371143
787339
808601
765809
833433
787050
808320
765505
727212
751964
709492
772007
726927
751547
709027
666784
695224
652398
711974
666543
694828
652146
631104
636765
646294
651123
631670
637037
645983
574721
577394
588906
591636
574699
576224
588771
490625
524620
481379
535195
490714
524585
481325
430745
466757
422587
475878
430695
466708
422539
369154
407749
362805
415421
368680
407661
362397
759530
781619
741694
801171
759194
782202
741046
703754
726482
686714
745288
703251
725740
686099
647523
671843
633504
689192
647235
671374
633093
591385
618588
579832
633135
591283
618268
579525
535340
564663
525306
577258
535251
564406
525095
478193
509886
469941
521032
478152
509734
469791
420160
454404
413948
463679
420103
454332
413805
360924
398111
356379
405337
360545
397935
355948
852428
881086
826729
904014
852676
880930
826626
781865
809700
759603
832610
781737
809583
759540
714007
743170
694818
762602
713992
743114
694762
647336
678730
630964
695270
647252
678687
630978
582222
615135
568283
628946
582222
615160
568336
517751
552650
506093
564149
517741
552713
506187
453790
490507
443689
499806
453718
490598
443714
388600
427845
380036
435705
388364
427831
379886
818609
844110
794639
871025
818503
843736
794417
752754
779137
733093
801837
752672
778948
732946
688971
717868
671889
736554
688933
717733
672261
626001
655582
612359
673145
626075
657103
612166
564130
597301
553962
610502
564252
597249
552940
502785
538292
493621
548871
502883
538099
493633
440956
478678
433275
487487
440981
478677
433191
377711
417922
371155
425280
377544
417814
370989
786950
808159
765410
832863
786721
807888
765191
726850
751425
708892
771700
726674
751147
708597
666547
694714
652082
711742
666923
694452
651953
607298
637829
595327
651978
607559
637728
595255
550794
581199
538777
592874
549325
581132
538686
490700
524535
481317
534688
490644
524431
481333
430668
466710
422534
475795
430586
466759
422551
368706
407642
362405
415307
368541
407615
362218
759081
782168
740816
800513
758814
782569
740429
703106
725489
685903
744807
702800
725066
685525
647159
671233
632958
688809
646993
671010
632703
591238
618159
579410
632937
591139
617919
579129
535184
564326
525028
577112
535075
564179
524908
478147
509702
469747
520896
478215
509698
469726
420093
454305
413762
463735
420084
454352
413729
360553
397886
355915
405279
360383
397893
355755
852705
880687
826610
905094
853214
880770
826674
781659
809567
759542
832837
781972
809616
759604
713982
743114
694743
762849
714226
743173
694738
647209
678673
631003
695347
647440
678671
631050
582205
615184
568371
629119
582460
615244
568447
517721
552756
506229
564287
517929
552840
506306
453698
490635
443731
499938
453826
490703
443771
388410
427837
379960
435756
388329
427868
379809
818492
843498
794377
870845
818549
843346
794426
752664
778919
732920
801866
752715
778987
732936
688918
717699
672274
736573
688914
717712
672304
626105
657152
612166
673129
626159
657210
612233
564303
597282
552980
610610
564412
597371
553031
502930
538144
493650
549036
503003
538222
493665
440995
478683
433160
487590
441027
478670
433070
377608
417775
371058
425296
377440
417679
370807
786683
807758
765147
832603
786757
808066
765191
726640
751087
708541
771748
726646
751119
708534
666962
694397
651927
711698
667025
694384
651919
607622
637715
595255
652155
607771
637717
595267
549358
581130
538682
593134
549401
581132
538685
490644
524429
481342
534768
490635
524434
481338
430555
466774
422565
475744
430457
466778
422582
368655
407612
362291
415179
368438
407628
362099
758758
782560
740407
800512
758731
782367
740147
702746
725054
685431
744719
702727
725148
685145
646961
670991
632663
688721
646959
670805
632309
591127
617858
579053
632915
591120
617550
578871
535072
564121
524880
577092
535080
563880
524835
478232
509690
469731
520900
478230
509553
469737
420086
454363
413736
463772
420102
454324
413728
360435
397897
355827
405277
360244
397865
355724
636422
641824
621142
626048
636560
641746
621037
646309
661523
642413
655489
646535
661071
643683
631498
616495
627401
613232
631524
616588
628463
652010
673228
657477
667476
657512
667422
652029
636389
626007
641668
621041
641695
621006
636439
646334
655394
661322
642467
660989
643883
646437
631468
613217
616400
627437
616547
628488
631447
575407
579519
560355
564132
575460
579483
560361
586950
601464
582129
597772
586667
601636
582588
572239
557208
567320
553132
571924
557467
567409
590588
610387
594931
605733
594935
605713
590602
575367
564121
579467
560325
579464
560352
575391
586934
597786
601402
582103
601620
582577
586609
572180
553121
557234
567218
557489
567207
571864
617096
622295
603214
606681
617465
622127
602988
627763
642445
623815
638015
627855
642354
623775
613475
599345
609558
595409
613527
599338
609538
631164
651251
636894
646170
637357
645925
631682
617099
606741
622353
603206
622173
602993
617457
627739
637954
642298
623690
642300
623736
627780
613461
595392
599307
609481
599332
609514
613469
561117
563230
546865
549632
560822
561215
547086
571135
585187
567181
581278
571068
585214
567182
557079
542639
553023
538860
556941
542741
553024
574714
591634
577355
588878
576220
588762
574677
561068
549576
563031
546880
560887
547115
560694
571128
581262
585150
567146
585203
567170
571036
557075
538847
542625
552985
542749
553010
556892
886176
904462
872083
916411
886193
904545
872073
814389
835310
800240
846056
814355
835258
800195
743436
764469
730559
774449
743366
764450
730560
674063
696063
662646
704249
674055
696051
662649
605960
628512
595992
635713
605961
628538
596011
539455
562725
530713
568374
539446
562732
530701
473937
497735
466140
502505
473930
497729
466120
410179
433751
402524
437574
410070
433712
402360
924428
943037
907622
955353
924635
943111
907891
878311
886609
896162
900688
886641
896301
878247
808883
817244
826087
832817
817216
826064
808917
740571
748113
757172
762942
748109
757143
740596
674409
680752
690691
695403
680734
690670
674432
609172
614690
625165
628973
614685
625138
609201
545047
549881
560804
563974
549872
560797
545059
481670
485869
497254
499754
485864
497247
481684
418306
422195
434025
436129
422170
434014
418344
337189
359359
330674
361920
337072
359136
330510
887171
900494
867579
921384
887443
900728
867886
843788
852150
860945
869256
852135
860967
843768
778741
786264
794887
802739
786223
794862
778768
715216
721387
731025
737340
721352
730990
715249
652859
658188
668396
673870
658157
668364
652895
591125
595569
606514
611098
595539
606483
591153
530065
533708
545278
549069
533698
545267
530076
469062
472101
484355
487487
472093
484346
469065
407603
410194
423029
425719
410164
423010
407623
325727
350788
322097
354781
325601
350622
321969
845891
859378
830752
876336
846504
859342
830865
809024
817029
824081
832129
817083
824126
808972
750920
757494
765516
772476
757480
765546
750917
692240
697820
706992
712766
697796
706967
692262
633058
637742
647873
652665
637699
647839
633097
574598
578518
589178
593227
578480
589142
574625
516581
519832
531127
534511
519831
531127
516578
457835
460563
472616
475484
460575
472625
457826
398154
400460
413128
415555
400452
413125
398167
318436
343106
315111
346537
318281
342872
314936
815608
827146
803696
841948
815793
827245
804093
780953
786891
794702
801364
786890
794676
780951
726639
732931
740450
746553
732867
740407
726680
670776
676009
684780
690284
676030
684761
670811
615205
619697
629149
633785
619691
629164
615203
559670
563376
573550
577360
563370
573556
559670
503761
506951
517817
521067
506949
517811
503758
446880
449592
461240
463995
449575
461228
446918
389138
391239
403647
405780
391207
403635
389176
312199
334797
311837
339119
312041
334595
311711
741185
752911
732395
766162
740794
753170
732452
687394
702861
678569
713687
686902
702458
678286
633085
649165
626546
659547
632938
649009
626453
580471
597934
574930
606676
580340
597753
574800
526633
545720
522466
553315
526580
545566
522341
472313
492800
469022
499273
472273
492677
468932
417736
439281
415717
444995
417688
439156
415625
363432
386191
362910
390245
363282
386106
362797
886267
904714
872063
916867
886396
905270
872197
814368
835192
800183
846051
814327
835194
800162
743326
764446
730574
774346
743307
764455
730583
674063
696028
662673
704213
674056
695999
662687
605974
628589
596050
635729
606000
628635
596078
539444
562758
530705
568437
539442
562783
530699
473925
497737
466099
502517
473915
497735
466043
410105
433647
402346
437557
409857
433567
401987
925244
943264
908481
956008
925843
943656
909145
878722
886872
896859
901290
878583
887006
897201
808593
817080
825913
832616
808680
817021
825847
740400
748059
757035
762781
740447
748037
756995
674223
680672
690560
695317
674278
680648
690515
609046
614690
625047
628958
609075
614691
625020
544982
549861
560769
563961
544998
549865
560760
481560
485848
497203
499726
481589
485845
497186
417998
422011
433887
436000
418089
421950
433826
336959
358752
330361
361167
336679
358401
330012
887971
900868
868455
922029
888540
901327
869105
844166
852305
861531
870136
844043
852406
861799
778535
786037
794751
802478
778600
785958
794700
714943
721169
730800
737085
715022
721095
730721
652501
657944
668095
673578
652605
657868
667998
590866
595335
606257
610776
590941
595242
606162
529958
533574
545177
548867
529988
533527
545128
469002
472021
484305
487382
469018
471988
484281
407413
409960
422913
425495
407465
409883
422884
325541
350331
321865
354164
325218
349988
321488
847082
858689
830978
876188
847432
858090
830948
809226
817421
824456
833002
809176
817515
824600
750844
757453
765598
772498
750904
757418
765550
692020
697628
706843
712538
692092
697540
706772
632650
637306
647555
652244
632785
637259
647393
574436