/*--------------------------------*- C++ -*----------------------------------*\
  =========                 |
  \\      /  F ield         | OpenFOAM: The Open Source CFD Toolbox
   \\    /   O peration     | Website:  https://openfoam.org
    \\  /    A nd           | Version:  10
     \\/     M anipulation  |
\*---------------------------------------------------------------------------*/
FoamFile
{
    format      ascii;
    class       surfaceScalarField;
    location    "7.9";
    object      phi_0;
}
// * * * * * * * * * * * * * * * * * * * * * * * * * * * * * * * * * * * * * //

dimensions      [0 3 -1 0 0 0 0];

internalField   nonuniform List<scalar> 
38556
(
965.929
-143.047
1832.09
1336.94
-132.246
-238.766
1207.19
16.1409
113.613
1221.82
-134.239
119.611
1211.16
-86.665
97.3225
1263.51
-60.9714
8.62032
1295.91
18.4113
-50.8094
1338.68
66.1392
-108.913
1366.65
98.6764
-126.644
1388.37
113.146
-134.871
1386.44
107.984
-106.046
1330.58
114.441
-58.5844
1186.98
108.34
35.259
1065.05
85.1818
36.7478
1009.27
48.1445
7.63887
987.656
25.9369
-4.32519
987.917
5.81579
-6.07685
996.502
-3.74455
-4.84067
1016.97
-19.4882
-0.983648
-20.8791
-2.09273
599.276
567.415
2485.45
654.017
-184.896
-2.09169
892.82
221.188
-443.85
912.45
5.15763
-159.027
970.765
7.75331
-152.734
997.948
-1.70255
-86.4517
1051.96
30.2819
-65.8794
1105.74
56.6199
-44.2682
1141.03
74.5261
-11.1309
1151.38
93.95
8.84573
1126.82
96.8442
35.6935
1084.18
108.067
49.0173
1023.52
103.72
65.274
977.213
90.9024
40.5905
949.919
55.1813
20.2568
939.941
21.8544
14.06
948.881
-16.1007
12.9774
961.073
-32.8214
16.8838
970.285
-53.0241
24.3247
-53.7893
21.9754
1196.18
-219.745
2133.15
713.209
-34.1229
332.196
803.605
194.155
-63.3629
950.223
-43.6769
-97.7834
1015.96
-25.6827
-32.299
1071.94
-27.6723
-30.0137
1111.84
0.0924369
-9.71075
1134.62
44.8479
-11.0116
1128.82
56.3737
23.9563
1104.52
86.561
31.6893
1060.4
93.2382
47.7243
1021.89
106.664
39.9164
992.896
94.2819
38.4319
977.382
83.9855
22.4311
966.899
50.7557
14.9083
962.241
17.5321
8.98034
965.149
-24.0646
5.05618
966.219
-40.751
6.85895
961.881
-56.0697
7.38378
-55.1244
-1.42481
-354.485
-1393.98
-2216.52
113.741
131.663
-634.013
1046.53
167.878
-906.508
1235.71
-6.21306
-226.647
1287.17
69.6535
-146.797
1264.53
51.5094
-56.5377
1215.03
64.0154
-14.4278
1182.31
95.3374
-17.7692
1146.3
97.9444
-5.56118
1116.48
120.767
-4.38705
1086.42
111.482
11.8155
1063.52
115.568
14.0035
1043.07
97.0093
17.7204
1029.07
87.6041
10.3825
1009.23
60.2873
10.3072
985.384
39.1761
2.20111
966.638
0.208659
-5.52723
959.177
-29.6621
-3.62786
953.281
-49.7952
-0.378174
-49.8147
-7.05458
-1169.56
278.029
1130.69
172.911
-132.514
-1078.29
1002.26
-84.6301
-576.843
1019.49
-50.7242
27.2846
1082.47
21.264
-14.5901
1047.36
88.2696
-1.64875
1035.7
68.3221
7.35419
1032.86
109.094
-10.9176
1040.71
96.5844
-6.49036
1050.95
122.43
-11.9042
1058.07
109.141
-4.78455
1062.76
115.226
-4.3495
1062.3
98.5199
-1.04987
1060.95
91.8347
-2.87582
1050.86
72.4057
-2.03103
1038.34
56.2666
-4.5685
1026.66
15.9736
-4.08892
1020.64
-21.4614
-2.17682
1014.34
-43.1609
-0.333464
-42.873
-7.80521
-2169.74
40.7585
454.014
-426.302
-542.66
-1333.29
877.765
-511.182
-877.514
1042.29
-181.486
-33.7668
1128.86
1.85312
-67.1606
1114.88
127.601
-25.3517
1113.97
66.2815
2.95879
1080.13
150.082
-7.1469
1056.83
116.297
3.5797
1038.86
141.137
-0.735559
1031.91
113.036
3.06059
1029.66
115.822
1.64731
1031.1
94.7843
2.29922
1037.02
85.1133
0.804862
1041.74
67.5377
0.146418
1052.54
41.3543
4.11388
1057.48
0.806745
10.225
1053.56
-28.7707
11.2315
1041.58
-38.6417
7.45186
-34.1976
-6.81204
2107.83
449.396
2438.28
917.662
-132.4
779.912
892.566
-424.571
-61.5149
856.705
-124.786
-20.8389
931.215
-48.3607
-24.2953
871.842
205.045
-18.0705
881.198
30.0825
-3.0316
-1.76563
29.595
2.04474
889.585
21.8924
-2.59553
44.8015
28.0471
49.5498
901.938
33.7328
-6.63066
19.412
35.4611
21.969
910.072
28.1419
-2.50255
36.6359
31.7472
38.9813
918.416
29.8375
-6.55443
24.8508
30.8402
25.7182
927.393
26.0914
-4.67058
28.8564
27.2854
29.2821
937.285
23.8699
-6.97654
22.4096
23.7813
21.8075
950.214
20.1235
-9.71805
21.5969
19.3541
20.8287
961.073
55.6145
1.064
952.705
25.865
23.8572
922.174
-5.89601
37.2333
889.893
-23.5244
27.0347
872.831
-28.4904
6.91117
-22.8734
-12.7085
1351.06
183.566
2323.27
842.419
160.852
215.385
1052.48
-207.458
-427.173
1032.05
76.538
-180.901
1059.38
92.9751
-168.659
244.728
69.7916
-67.2146
242.806
239.621
232.443
116.393
72.7854
113.07
223.568
51.9247
-0.681795
-195.658
190.257
28.4353
-1.14262
-190.403
186.781
38.1692
-0.814722
-182.541
188.917
24.9194
-3.15268
-195.665
199.906
27.9324
-2.33667
-202.19
207.434
23.5473
-2.70062
-211.394
214.805
22.3889
-1.93035
-216.27
218.23
18.7195
-0.556714
811.437
14.182
17.8653
-215.721
-212.003
-205.25
-194.094
14.0822
12.8435
12.2719
775.005
30.1569
32.1399
747.477
4.01254
17.6195
738.863
-17.2066
2.29638
745.592
-24.4273
-10.7926
-16.075
-21.5396
-459.407
248.826
-880.977
-9.8158
666.038
-954.777
605.667
-98.9741
-723.967
521.826
287.894
-127.515
142.648
233.839
-102.248
93.9118
147.534
99.116
162.882
60.479
-10.9221
-19.9235
-46.0117
42.1594
21.9334
1.84238
-42.9173
-12.358
43.7707
12.7688
-1.26421
-44.8949
-10.7188
44.9188
11.1028
-0.407843
-44.5586
-7.04989
44.7532
7.28486
-0.429612
-45.5602
-6.41824
46.0549
6.20672
-0.283135
-47.067
-5.83551
47.5896
5.76012
-0.447219
-48.9929
-5.42271
49.528
5.2245
-0.336947
-50.7976
-4.62612
51.1756
4.44314
-0.195024
-50.6221
192.586
14.1898
3.55447
-49.4131
-49.1475
-46.9654
672.399
18.0951
16.604
-182.435
-163.127
-172.345
-159.033
683.836
-15.0991
7.67365
700.852
-32.9098
-1.31291
716.906
-35.1891
-5.29178
-17.9456
-13.4533
-1030.4
8.28138
1302
-402.517
326.461
-288.304
183.45
-87.9048
-597.036
219.964
288.903
-37.5236
86.7786
173.885
-54.1069
69.3181
96.2614
81.6673
-50.7001
96.2815
54.5725
-13.3754
-19.4778
-33.2072
36.6156
18.1952
-2.12591
-14.9141
-43.322
43.9397
15.1651
-0.86876
-12.6529
-44.6768
44.5385
13.224
-0.432764
-9.73836
-43.3153
42.4098
10.3348
0.309149
-7.32384
-40.0526
39.6279
7.74996
-0.00145957
-6.2282
-38.9199
38.689
6.28889
0.170208
-5.389
-38.1393
37.9094
5.50112
0.117764
-4.61085
-37.5315
37.532
4.64232
-0.0320242
-38.3008
-13.65
158.176
11.844
-1.39304
-38.988
-38.3941
-39.2938
733.314
-22.7444
-14.812
-163.466
-178.516
-161.386
-174.295
762.619
-45.1467
0.742676
770.687
-49.143
8.16542
765.509
-41.7431
11.7323
-20.5273
-1.66418
2046.45
798.807
1157.1
1360.54
638.66
373.708
663.958
526.858
81.8231
373.406
451.249
128.205
32.5474
222.221
176.581
29.6614
44.5288
41.7519
-51.5197
47.0009
36.848
0.21816
-12.9561
-22.172
24.7129
9.8907
0.524548
-12.6599
-31.7397
32.8332
11.3098
0.256646
-12.3442
-35.1162
35.6795
11.9767
-0.195853
-11.1821
-36.5732
36.5252
11.4755
-0.245433
-8.37767
-36.0864
36.2584
8.51387
-0.308196
-4.94895
-37.7172
38.3152
4.68673
-0.335819
-3.98271
-40.2508
40.9253
3.47147
-0.163217
-3.59031
-43.216
44.0564
3.08208
-0.332146
-46.0672
-10.9311
187.598
8.0744
-2.07888
-46.1737
-45.0033
-45.4179
803.939
-47.2406
-9.11236
-193.738
-199.576
-187.137
-189.878
817.646
-55.0211
-3.83244
818.021
-50.416
0.897737
803.63
-36.3258
8.97436
-21.114
0.229704
858.768
-554.634
1707.5
814.918
631.13
51.3796
648.921
747.106
-54.2528
590.455
383.663
126.053
83.8141
142.954
221.627
124.665
103.907
135.71
-13.5112
97.6349
-8.65712
8.34747
6.91864
-35.2335
38.1195
-11.2713
1.46666
-5.62572
-40.0675
39.4616
4.2558
1.97577
-7.54228
-40.3274
41.3793
4.43067
2.05969
-12.377
-41.3472
40.4252
12.3549
0.944122
-9.87363
-40.2235
40.718
10.3256
-0.946491
-5.06844
-43.49
44.0563
5.18553
-0.683421
-2.78163
-45.5045
45.8391
2.74782
-0.300759
-1.15262
-47.9557
48.4434
0.67938
-0.0144147
-49.6507
-0.454088
196.298
-5.85921
4.54892
-49.7655
-47.7117
-47.406
712.179
-60.9111
11.779
-189.372
-174.654
-177.875
-168.386
716.683
-59.3522
-0.173179
727.189
-53.5378
-7.38363
736.769
-40.1356
-5.77125
-26.2602
-9.4498
1478.29
837.49
2056.28
1045.31
947.217
116.889
855.038
706.042
231.339
798.848
297.738
142.115
711.174
117.303
113.324
155.868
-104.153
-20.2649
33.5469
91.9534
17.5823
86.6632
156.731
145.32
147.927
12.1289
151.182
-20.2533
-3.32317
1.71212
12.0946
2.32737
-0.85196
-132.403
121.52
6.88742
8.11756
-1.45784
-0.484792
-1.32741
0.338781
-130.516
132.371
-1.58494
3.33026
-1.69222
-0.0447843
-2.20261
-6.25815
-127.279
133.419
15.3454
4.83151
-7.2534
-6.01034
-6.79513
-6.29483
-145.945
155.777
10.2509
3.80639
-6.50844
-5.34971
-5.73629
-3.89431
-154.344
155.111
9.22209
5.1307
-4.30148
-3.25155
-3.67279
-1.50093
-156.442
157.112
1.78908
3.91489
-2.10211
-1.05847
-1.7122
0.315791
-153.895
154.61
-4.50198
2.97266
-0.177652
0.548862
0.127466
628.113
-59.9795
3.17941
9.94609
9.97894
10.0802
9.71619
-155.083
-156.572
-148.203
-151.176
642.257
-72.4154
-2.63923
655.727
-68.6915
-4.13136
668.674
-63.0588
-3.42585
676.14
-46.0037
-1.59712
-26.9582
-11.4628
1320.82
1926.1
-537.535
1240.87
924.837
102.325
1304.82
471.41
170.691
1240.06
283.508
78.9866
1026.45
305.421
25.4881
796.046
212.374
-86.1187
682.704
262.933
-62.9832
-0.237492
-38.62
-6.2407
-41.5097
631.69
36.7747
-19.271
-7.30209
22.8306
-5.99699
23.9787
624.287
58.6587
0.176621
-1.1881
-23.579
-3.29846
-23.3667
628.956
-9.28761
7.15569
-6.76876
3.89148
-4.98436
5.3247
637.546
29.5654
-3.98232
-4.30657
-13.9384
-3.78981
-12.1386
642.325
5.25826
-11.0317
-3.32574
1.64892
-1.3739
4.04557
646.359
-2.65814
-6.26757
2.00933
-0.792649
3.21101
0.464284
646.987
-54.2369
2.6317
9.76414
14.8584
10.95
15.405
646.916
-66.3162
6.40733
645.508
-76.3776
5.37071
643.355
-68.5084
1.96973
640.992
-60.2969
-0.399086
638.391
-43.3149
-0.0874624
-23.7985
-10.3954
1806.48
-341.698
1061.63
2304.5
560.802
-133.986
2211.88
717.938
-153.915
2157.69
565.524
-227.825
1883.37
658.229
-78.481
1644.17
499.516
-47.9437
1394.44
422.164
90.4962
1231.68
162.757
36.774
1055.57
134.195
100.578
911.969
64.9684
69.3449
853.991
86.7165
0.827026
831.301
44.3609
-16.4116
805.219
27.866
-4.44264
750.681
-11.5055
11.8074
685.255
-21.9062
21.0157
636.397
-43.6798
16.16
609.303
-47.306
5.89115
597.883
-50.3039
1.42783
595.975
-42.4794
1.07245
-25.836
-7.32332
1236.33
-821.031
2891.89
1209.52
290.215
297.405
1392.8
639.804
-105.147
1597.17
513.992
-152.838
1573.52
640.862
41.0176
1557.31
439.511
76.2122
1484.96
411.65
82.8598
1448.52
214.948
-15.7538
1333.9
205.196
43.6189
1206.52
150.831
41.5178
1097.6
146.587
49.0497
1053.2
82.8896
5.87696
1011.81
54.6942
14.5569
935.076
28.97
36.2607
831.369
28.896
52.9049
746.35
6.67314
34.6658
690.432
-12.4817
21.094
655.572
-27.6703
12.2262
635.761
-30.5608
7.8927
-19.4549
-6.1848
2076.48
-427.393
-26.5383
1723.65
570.156
72.8923
1275.63
898.529
189.291
1157.67
546.4
85.5538
1048.97
611.987
137.573
1066.68
353.892
67.9069
1062.01
315.746
100.575
1062.39
174.97
39.5987
1040.43
169.593
57.568
1027.62
121.947
41.6896
1015.76
111.62
46.8303
991.749
76.5949
30.3036
913.101
82.2775
51.065
826.099
71.0446
44.9271
760.554
66.4091
28.0322
717.846
34.2853
15.0964
686.942
9.41104
9.01126
658.742
-4.92056
5.45019
636.332
-12.2912
4.13998
-5.99929
-8.25069
-545.423
-833.591
-158.641
-247.754
224.711
47.7759
356.607
512.734
-218.566
533.684
313.021
56.3027
625.167
378.527
141.977
721.614
214.167
43.2779
791.354
174.32
71.687
843.331
72.9932
49.9989
877.251
46.4079
89.2655
898.421
15.978
84.7983
886.875
37.3268
85.8393
843.016
63.6994
56.7541
772.502
111.148
41.6442
724.228
102.272
17.0464
708.417
76.9938
5.22675
709.195
35.3448
-1.83773
714.342
9.99485
-5.73082
710.62
7.09767
-8.29625
696.695
6.42784
-4.79382
12.2314
-13.9308
-612.91
2654.42
1090.25
-79.0521
-15.227
-293.92
272.258
367.764
-206.34
321.075
117.007
147.198
546.968
103.059
49.574
680.721
75.1044
5.30942
819.077
34.415
1.54923
911.602
3.05065
-22.5827
960.387
-29.027
26.6503
973.239
-36.4402
39.5654
916.336
-10.4
104.63
832.897
53.6797
93.4583
757.726
104.834
81.4855
711.961
105.677
42.359
699.186
79.4571
10.3119
702.768
36.9755
-5.21338
721.818
1.39432
-10.4493
739.332
11.6018
-22.0183
745.111
28.5603
-27.9108
41.9544
-34.1244
-636.918
-2575.69
-627.14
-25.0051
178.91
-438.286
284.932
10.9852
587.587
-199.596
740.629
-77.9367
860.917
-85.8733
962.824
-98.8564
1034.87
-101.073
1117.72
-119.294
1195.71
-88.3817
1310.58
-61.1921
1409.88
5.53322
1450.08
65.4771
1433.98
95.5546
1332.14
138.814
1171.01
162.523
1058.83
123.782
1003.22
84.1743
58.2167
1391.16
-291.558
-1101.25
1069.55
-170.977
253.825
939.85
-61.1048
304.418
1025.82
-106.019
139.658
1097.26
-29.8168
55.7025
1143.91
-1.80877
-36.2216
1136.63
52.9723
-96.4996
1099.12
67.3498
-138.751
1030.51
67.4157
-125.459
970.743
52.4859
-127.585
916.123
32.1187
-83.5442
881.152
27.0153
-50.6288
868.79
26.3827
21.2382
859.831
23.0148
22.6928
853.304
6.13881
8.02652
855.134
-7.80731
1.65288
868.41
-19.4337
0.0808463
888.148
-24.5734
-0.00570895
915.266
-36.532
8.4308
-35.9156
8.74386
1922.05
906.178
2839.03
1284.45
154.627
309.906
910.197
278.456
-409.157
855.687
53.3336
-263.869
880.523
45.9167
-253.303
895.01
28.5577
-131.306
919.379
49.8804
-87.1566
929.414
64.0365
-50.9891
923.838
65.6577
-3.7968
904.812
70.0432
10.3146
876.461
57.5665
38.5973
849.99
57.9642
44.5391
832.594
49.5369
59.5164
819.201
41.1558
35.8423
807.525
15.0522
23.0188
804.172
-4.32514
13.9305
810.429
-24.4657
11.7527
819.406
-30.7529
14.0867
827.02
-42.7786
22.9566
-39.8804
16.4149
415.112
1089.33
2186.21
393.489
302.891
205.555
705.25
239.179
-335.848
802.723
40.0454
-181.967
877.482
34.2972
-95.4392
910.623
20.8325
-55.43
931.602
26.6044
-7.41358
937.851
60.3989
-13.6232
930.554
69.351
27.5598
909.05
94.1852
29.0516
879.716
86.665
47.9603
852.685
88.9523
35.9597
832.594
69.6083
38.4515
818.489
57.8648
19.8274
807.073
25.3524
16.0235
797.761
4.17818
9.78927
795.621
-22.6849
5.41521
794.302
-29.3422
6.76723
788.223
-39.1972
9.88111
-35.0296
-6.79207
170.748
-489.773
-3668.97
696.482
64.9096
-921.765
1100.37
89.1407
-1160.36
1222.3
63.7603
-372.291
1193.24
136.933
-220.377
1133.64
102.384
-78.4834
1057.8
88.7145
-0.699636
1001.37
113.609
-14.5484
955.443
107.805
1.90904
920.832
127.647
-3.23799
893.435
111.645
14.2331
872.208
110.565
13.6182
853.807
86.1428
19.5866
837.863
73.8216
10.3703
818.548
44.0376
10.9363
800.335
21.0765
3.51585
788.514
-12.0951
-4.29607
782.957
-25.3358
-2.0774
774.723
-34.2356
2.89468
-28.57
-11.6685
-632.395
-1199.72
2101.75
410.55
-452.161
-1604.17
870.94
-100.736
-847.357
933.973
33.5104
-5.49877
977.697
114.528
-35.9089
927.857
147.807
2.76849
897.653
107.886
18.3864
871.69
142.185
-13.5309
862.491
113.361
-2.84596
855.62
135.639
-13.0257
852.396
112.276
-2.19059
847.741
114.509
-3.63923
840.986
91.1608
0.687269
834.838
79.4811
-2.38708
824.387
53.7636
-1.30558
815.329
28.608
-3.04193
811.806
-9.49916
-3.16247
810.483
-25.966
-0.223696
802.621
-30.4972
3.79027
-20.858
-12.8103
348.757
-610.877
-2034.71
395.362
-592.913
-1239.14
722.635
-395.588
-909.934
886.692
-99.1588
-65.1546
949.988
74.157
-90.0848
928.483
174.983
-31.0234
930.284
97.2648
11.7797
890.206
184.987
-9.87098
866.398
135.37
5.37823
843.668
159.644
-2.01113
832.796
122.168
4.04101
825.448
121.709
1.79583
821.621
93.5881
3.6989
821.627
77.7809
2.49931
823.159
49.2755
3.10158
828.256
19.1276
8.4979
830.95
-14.2271
12.2591
829.508
-25.1173
11.8238
818.378
-21.6711
9.75594
-9.36603
-13.9859
383.361
146.891
5536.61
313.367
-199.527
456.52
680.353
-369.073
-455.016
682.509
-56.0561
-66.0977
779.448
52.8378
-99.9157
707.827
265.916
-37.3818
720.679
34.6922
-6.52446
8.71524
34.3108
10.1876
718.833
36.4136
-4.97636
55.7275
39.8438
57.228
727.82
37.9519
-6.81225
25.2736
37.7777
25.5611
730.584
35.4412
-0.833473
41.557
36.267
41.9463
735.969
31.65
-5.23984
26.5365
31.257
26.0246
741.902
28.0142
-3.07791
29.4294
27.7286
29.0114
747.011
22.9282
-3.85138
20.6307
22.1404
19.6547
750.011
17.7224
-5.95534
18.61
16.8917
17.7943
757.061
37.123
6.16632
758.96
13.6869
27.3981
753.897
-7.34291
35.4124
744.873
-13.4559
24.3972
732.901
-9.71927
6.93136
-0.11866
-20.5946
75.3583
-349.198
231.759
453.912
-104.383
-258.313
853.852
-272.147
-924.038
860.448
89.7366
-333.289
882.718
141.277
-279.369
202.326
82.7828
-95.6424
193.919
192.799
183.334
118.343
84.976
118.582
-2.19979
185.253
57.2748
-3.30996
3.57777
-164.724
164.211
37.542
-4.19275
1.85322
-165.002
162.986
40.5647
-2.44961
5.35308
-160.556
165.208
30.2968
-4.86046
3.22785
-169.086
171.251
29.6266
-3.36919
3.85588
-171.927
175.315
24.5179
-3.7479
2.32543
-177.551
179.436
21.2022
-2.48508
0.634927
-179.504
181.148
15.9785
-0.535703
665.531
10.9338
22.64
-177.974
-169.884
-166.022
-158.161
9.56756
9.56269
8.79454
658.26
21.1731
31.9249
649.926
3.20046
15.4095
645.425
-7.83593
1.17737
645.924
-9.94963
-11.0611
-1.91172
-26.3976
174.078
1371.76
-3113.93
313.627
434.633
-1633.34
463.163
-70.5898
-1075.06
406.817
259.63
-241.063
124.67
214.61
-174.787
82.8398
118.691
79.8229
18.3932
140.746
72.1028
-23.7899
2.7128
-20.8376
-40.2765
38.7744
23.4357
-3.80886
1.03299
-37.4384
-12.757
37.2114
12.9984
-1.04746
0.900325
-37.7542
-10.9503
37.8315
10.9018
-0.929159
0.861488
-37.3466
-7.79199
37.5435
7.57253
-0.838892
0.916146
-38.5646
-7.03214
38.9834
6.64216
-0.944978
0.995322
-39.601
-5.97887
39.9502
5.66038
-1.02599
0.666378
-40.9406
-5.16556
41.2791
4.8488
-0.688091
0.214605
-41.7561
-4.09516
41.8982
3.90653
-0.168118
-41.1591
-5.02921
159.51
10.3934
6.08511
-40.0741
-39.8909
-38.9015
602.037
11.1041
20.4468
-156.079
-148.915
-147.911
-142.905
611.746
-7.26891
8.4335
619.343
-17.6671
0.92177
623.065
-16.6209
-2.34267
-5.02405
-17.5948
-379.45
946.439
2912.5
-208.598
328.809
-353.332
74.557
31.4711
-982.252
166.579
283.596
-153.512
82.0672
164.389
-137.996
69.4167
80.1196
69.0844
14.8729
-56.4464
91.1681
49.5864
-17.1139
3.97648
-19.5559
-29.335
31.8457
17.2659
-4.19716
1.37872
-12.9703
-35.2419
35.4999
12.6509
-1.31729
0.690017
-10.6693
-35.9989
35.9744
10.663
-0.659203
-0.171503
-7.96372
-35.4752
35.226
8.29995
0.0844733
0.221136
-6.49878
-34.8387
34.761
6.63781
-0.28246
-0.153555
-5.41746
-34.9089
35.0171
5.4096
0.0531779
-0.101153
-4.51935
-35.4258
35.5444
4.48044
0.0214679
0.146921
-3.65056
-35.9354
36.0439
3.57756
-0.182417
-36.6625
1.69039
-10.0828
149.768
7.42145
-1.73352
-37.4457
-36.1161
-36.839
645.439
-24.5748
-4.83203
-152.816
-163.604
-147.229
-156.091
657.368
-27.6115
9.15672
660.062
-24.591
12.3958
654.725
-14.9853
15.4336
-2.79202
-7.26662
-42.1601
-263.266
967.216
195.915
421.307
43.1343
20.3066
390.026
-101.124
60.9708
327.251
43.8867
38.1699
157.377
100.624
32.988
39.8191
32.9628
-6.86227
-42.3512
48.4501
28.6861
10.247
-2.50144
-10.0015
-20.8907
23.5113
6.97973
2.90254
-1.93377
-9.57416
-29.3168
30.4187
7.93127
2.47476
-0.230684
-9.72414
-32.6135
33.0042
9.08292
0.481249
0.513506
-8.63482
-33.3658
33.5007
8.56848
-0.58213
0.452919
-6.6926
-33.4337
33.6377
6.37555
-0.339881
1.03529
-4.68211
-35.0008
35.6138
4.30869
-1.27485
0.722045
-3.6684
-37.4107
38.0174
3.18738
-0.84769
0.848421
-2.7128
-39.7137
40.2651
2.22316
-0.910185
-41.5723
2.77094
-4.26486
169.814
0.375028
-3.22615
-42.0194
-40.7058
-41.1717
683.534
-38.3153
-4.89451
-172.916
-173.344
-164.112
-163.64
686.022
-33.5535
-0.378378
683.518
-25.3395
4.1503
676.925
-11.9053
12.4876
-2.62329
-4.85283
-94.2815
313.227
958.688
28.6627
370.485
-20.7426
29.6542
493.649
-158.867
156.288
219.048
107.622
72.3453
78.4186
140.637
96.2555
64.3008
83.3353
-8.51751
-1.99427
87.6848
-16.3247
11.497
-5.28794
6.90462
-30.7539
33.2891
-9.52503
5.37316
-6.84878
-3.99192
-33.6891
33.2246
3.82179
7.48342
-5.02045
-6.8533
-34.2017
34.914
5.94917
5.21229
-1.84257
-8.47841
-35.9943
36.0664
8.42082
1.82799
1.28167
-5.69185
-36.8188
36.9919
5.36439
-1.12723
0.923438
-3.20264
-37.6917
37.8597
2.92216
-0.810969
0.208958
-1.64516
-38.8582
39.1557
1.20827
-0.0696288
-0.609562
-0.405589
-40.2506
40.5624
-0.056326
0.759724
-41.7121
-5.98139
5.20465
164.563
-6.95381
6.21434
-40.9925
-40.5351
-39.8071
613.413
-45.6092
14.0076
-160.504
-152.47
-150.515
-144.857
620.285
-38.5048
-2.09386
626.776
-31.8158
-7.39885
632.455
-20.3962
-2.95897
-9.69148
-13.9038
262.144
213.691
1253.14
278.093
469.956
1.46976
500.358
563.77
-61.0464
508.879
285.475
67.167
501.105
122.318
77.1986
97.0949
-107.062
-26.5709
35.3292
86.7152
39.276
84.1831
100.558
83.3668
87.9506
6.24151
-3.65405
91.0029
2.71831
1.20456
-2.25271
4.91236
-3.07802
-2.4863
-13.0547
-74.6441
80.5637
8.31953
11.3356
-3.39405
-2.83513
-3.8045
-2.1984
-5.59155
-97.826
103.852
6.71774
6.78874
-4.44215
-2.54296
-4.75717
-4.80101
-7.73487
-100.419
107.799
11.1723
9.06405
-5.42158
-4.51407
-5.1447
-3.12552
-5.62387
-118.898
125.695
6.15634
6.20349
-3.94228
-2.80354
-3.66229
-1.51622
-7.25536
-124.267
126.953
3.41053
7.83182
-2.01042
-1.30291
-1.84412
0.00203572
-5.37836
-130.966
133.434
-1.99047
5.9305
-0.643049
0.145583
-0.53454
1.2858
-4.80896
-132.027
134.414
-7.26791
5.26783
0.851845
1.37713
0.906881
536.902
-51.0691
4.88107
9.43564
8.32542
8.77037
8.03092
-134.198
-134.264
-126.784
-126.851
549.629
-58.4561
-2.51916
561.417
-49.662
-4.76216
573.051
-42.6861
-4.18938
580.635
-27.5252
-2.05191
-14.6486
-17.4432
1523.87
149.449
3161.22
1179.99
449.117
467.04
1059.68
505.104
349.667
961.336
386.546
76.2611
774.482
342.482
-7.82142
565.311
130.949
-114.959
493.94
192.028
-53.7715
-13.5529
-46.6226
-20.8428
-48.8516
455.216
-6.22996
-27.1383
-0.463426
26.1314
2.49778
24.6559
466.51
46.028
4.26655
-5.9208
-23.342
-8.73203
-23.417
479.771
-29.2282
8.95926
-2.53698
8.75998
-1.7075
9.64787
493.1
10.087
-2.04595
-2.72793
-10.1189
-2.88245
-9.62316
500.295
-32.3356
-5.71828
1.34669
7.80294
2.18636
8.49159
509.208
-25.2173
-2.24087
4.46767
1.69915
4.45212
1.65901
514.903
-60.7349
5.28252
11.5089
14.903
11.3279
14.6487
522.337
-60.1262
8.03054
528.427
-65.7297
6.55442
534.143
-55.1834
1.77485
539.63
-46.869
-1.70348
544.269
-31.4893
-0.761963
-17.1451
-16.8713
2817.71
-8.82666
2873.09
2308.68
395.765
428.404
1687.87
808.481
163.509
1388.32
601.78
-143.505
1103.8
610.304
-61.7838
956.41
293.615
-63.2193
885.119
252.721
101.095
809.355
76.7471
29.5608
751.284
96.8995
107.778
693.993
35.4275
61.98
654.37
37.7423
12.7954
623.632
-4.1568
-13.8532
599.797
-7.7112
1.88674
575.522
-42.2433
17.5899
548.424
-36.2868
24.2751
527.908
-48.0933
19.0393
518.245
-45.8627
6.23388
515.898
-44.5936
1.49883
518.681
-35.048
1.84825
-20.3896
-13.6983
569.023
117.477
4361.2
796.436
468.226
-2.4685
913.391
749.764
-163.383
985.71
502.352
-125.729
983.347
556.899
96.7866
994.205
270.427
88.5418
959.505
276.595
93.6853
921.242
113.059
-13.8021
859.462
141.911
60.3876
810.825
79.1912
46.3914
772.288
69.5383
55.7902
738.787
22.8678
12.3533
704.897
18.4152
22.3215
662.299
2.38993
34.2254
619.616
6.65018
52.6502
586.352
-16.5907
36.427
565.068
-26.0741
22.5891
551.401
-31.5154
12.8153
543.622
-28.9117
9.53528
-17.3177
-12.5997
1966.06
1256.26
-1218.51
1338.42
1089.42
79.345
998.037
1114.75
164.689
835.748
626.251
123.944
738.614
593.823
197.782
721.711
271.242
83.9959
734.494
241.537
122.85
734.921
110.836
41.3941
742.239
121.691
70.4709
742.944
74.4825
45.6928
735.01
70.1863
54.1169
711.164
41.875
35.1424
672.156
53.5364
54.9516
631.309
42.6615
45.5026
599.23
34.4348
32.3258
577.267
6.64151
13.8281
566.916
-13.0524
6.33982
558.466
-20.7769
3.1622
550.362
-19.8908
3.22291
-10.2644
-15.7935
-1519.49
1247.23
-749.702
-552.933
514.749
-344.118
-97.4802
613.999
-173.267
159.968
342.113
82.9932
439.655
333.64
122.472
530.993
163.192
59.9904
627.74
133.65
82.8265
676.037
62.507
50.0308
716.788
65.5848
104.62
727.981
57.0431
91.0456
709.822
76.4276
97.757
669.427
81.3809
57.643
628.257
93.0839
43.2665
601.744
74.012
12.2086
594.093
44.5689
2.74397
601.007
3.62102
-5.73093
610.821
-18.8295
-9.76851
613.504
-18.9856
-12.7697
610.267
-14.2
-7.24771
-3.43134
-21.5707
-498.571
1945.1
2135.42
-220.065
95.6993
-153.376
-9.95844
439.902
-242.35
139.682
143.008
196.662
423.766
71.371
27.7585
529.824
43.4967
18.9473
640.176
18.8422
6.00445
693.016
21.856
-34.7708
725.552
32.7054
26.9931
736.636
59.9377
25.5879
729.876
91.269
96.5485
706.614
132.861
65.24
683.512
142.107
55.5647
669.416
121.609
8.85773
672.106
61.9808
-9.78991
684.134
8.21476
-21.8352
699.467
-22.5007
-22.111
707.704
-13.0317
-36.2096
708.589
0.219281
-43.2151
13.1281
-52.3951
10.0644
-4622.91
-94.4538
175.212
182.418
-275.256
394.844
-58.4323
588.596
-321.977
716.938
-162.782
792.738
-142.831
852.538
-136.8
882.736
-98.5644
917.155
-93.7757
956.719
-36.6768
1034.31
-5.92168
1155.09
26.857
1268.85
73.3273
1293.21
133.175
1230.45
209.793
1137.44
233.033
1075.12
173.069
1041.99
117.525
80.2429
646.257
1252.55
-1734.37
570.316
132.067
197.701
870.097
20.6416
-16.0046
970.762
-34.2429
73.236
1055.19
29.5221
-58.2431
1075.74
33.6212
-90.3942
1028.9
65.1546
-114.82
951.414
60.9174
-122.18
855.45
47.9618
-77.4568
781.099
27.8324
-81.0658
736.523
8.70828
-47.6771
716.411
4.74055
-35.257
722.999
1.60993
13.0405
731.797
0.581903
13.3129
740.301
-10.4058
9.92746
750.221
-14.8571
6.58983
766.684
-22.3166
5.9344
787.037
-24.2328
3.87467
814.706
-33.9355
14.6977
-31.6124
15.1536
1225.09
763.943
3244.35
1238.62
228.954
199.495
975.745
295.539
-421.182
861.78
102.482
-286.63
822.088
92.2241
-276.313
802.635
64.6702
-142.902
800.204
65.5291
-85.1002
782.191
72.1713
-44.2301
760.731
61.4974
4.1282
732.048
58.9943
7.83606
708.154
40.2288
30.9709
689.737
38.7793
28.9176
683.994
27.2726
39.5965
678.638
21.0442
20.7362
673.706
3.42107
14.1244
672.843
-8.03287
7.96862
676.185
-20.2742
6.36815
681.658
-23.3488
7.73029
687.269
-33.0419
16.4517
-27.7991
4.86399
-133.105
661.422
2109.69
322.46
129.684
-150.74
649.71
115.16
-482.719
715.175
24.5928
-169.542
755.112
50.8277
-93.9797
760.548
50.1037
-46.2987
768.892
53.4596
-3.68858
759.517
78.6239
-10.7007
748.848
76.5106
23.2149
726.533
93.515
16.847
707.022
75.4077
32.2922
687.732
73.3545
20.6743
676.612
51.8634
24.9815
666.287
41.0034
10.1926
658.753
15.5467
11.4316
652.305
2.29249
5.91276
650.194
-16.3508
3.60206
648.666
-19.1354
4.08164
643.949
-27.5994
9.15581
-22.0725
-11.2563
594.816
-497.907
-2113.08
1136.28
-205.085
-1128.46
1186.03
-108.306
-986.639
1164.47
11.3357
-337.471
1025.65
130.957
-161.693
934.06
108.573
-45.3607
867.023
98.055
21.7417
814.147
124.194
-7.24206
776.442
108.944
7.18139
743.617
125.835
-2.73299
720.707
101.42
11.13
701.403
98.396
7.88108
687.204
71.821
13.8283
673.882
58.938
5.75786
661.068
31.9627
7.33443
650.054
13.6247
3.19777
642.596
-10.6738
-2.51563
638.38
-16.023
-0.973619
630.454
-21.7892
5.01031
-14.7145
-14.7447
136.472
-1988.51
1848.37
656.117
-724.353
-1604.54
832.221
-184.252
-947.514
844.705
53.7758
-60.4228
839.982
143.405
-43.633
770.924
180.373
0.0258257
743.808
121.215
22.3433
710.782
156.283
-12.594
700.703
114.46
1.71606
687.776
135.791
-10.0554
682.729
103.943
0.334097
674.93
105.359
-2.80238
668.783
77.3179
1.33758
662.583
64.5553
-1.80434
656.166
37.1466
-0.0732413
651.783
15.7316
-0.765282
651.542
-11.7129
-1.88205
651.698
-17.0701
0.666664
643.925
-16.4307
6.20521
-5.8163
-16.1319
945.643
-1692.96
-3730.66
648.36
-687.98
-978.232
707.727
-390.788
-762.764
790.005
-37.8987
-55.759
800.01
110.661
-67.3465
759.633
206.444
-16.7171
765.564
105.792
21.2712
721.192
199.045
-8.26137
700.833
133.276
6.92125
677.193
159.337
-1.91583
667.105
113.854
4.21756
658.747
113.978
1.53505
655.051
80.7126
4.00009
654.092
65.1243
2.88942
655.43
35.0422
3.86829
659.061
13.3216
7.2759
661.642
-10.6046
8.57004
661.916
-13.5238
8.00415
652.322
-5.83512
8.75377
4.36302
-17.851
78.0718
-1339.71
1901.67
482.991
-256.345
-380.033
626.916
-337.959
-651.77
624.561
-18.6465
-82.9954
655.75
90.783
-111.227
563.819
294.893
-33.9001
580
34.5821
-6.99131
11.832
32.7396
10.9244
570.283
44.1654
-3.3511
59.0351
45.3674
58.5687
580.815
36.5206
-4.26075
25.0455
34.7404
23.8862
581.419
36.6912
2.04366
41.6831
36.3079
41.1738
586.988
29.5835
-2.51587
24.4484
28.2837
23.245
590.879
26.6253
-0.26079
27.7615
25.7872
27.0959
594.54
20.0479
0.351627
17.4089
19.0033
16.3887
594.311
15.2536
-1.19966
15.5207
14.6513
15.1717
599.948
28.3555
7.21598
606.454
13.393
20.8207
609.209
-0.223238
22.2754
608.175
-1.83045
13.7379
601.253
3.73333
4.28554
8.23341
-21.7918
2287.37
192.629
2511.72
1601.16
-26.3001
197.858
1137.22
-213.095
-584.969
917.632
98.3633
-230.707
784.873
165.434
-221.261
168.502
90.2097
-70.25
159.195
158.868
149.287
119.925
90.1799
118.208
3.41076
151.217
55.7569
-7.30084
4.36562
-132.273
133.007
42.2499
-3.18362
2.6735
-134.693
133.366
38.2608
-3.0871
4.20122
-130.975
135.411
31.2486
-3.19477
2.96975
-138.753
140.256
28.1409
-3.02926
3.26186
-140.042
143.017
23.315
-2.92724
2.03262
-144.65
146.01
18.9276
-2.2725
0.151098
-145.41
146.901
13.8733
-0.262402
543.139
8.47938
18.8518
-144.055
-137.917
-132.819
-126.829
7.0281
7.96134
7.15624
546.42
20.19
21.8468
546.101
6.15492
9.3499
544.912
0.501531
0.03449
543.089
0.67163
-6.17627
3.87286
-24.0205
2571.44
920.456
513.171
1268.53
317.091
-673.826
606.697
-55.7075
-570.615
406.742
228.912
-171.657
104.598
208.163
-144.825
69.418
96.5904
63.444
24.8612
114.914
78.5173
-23.4852
4.50734
-19.8427
-32.587
31.0647
21.7554
-4.89775
0.872475
-29.8799
-12.2286
29.9422
12.038
-0.744125
0.726782
-31.289
-10.2617
31.4858
10.0016
-0.66349
0.65352
-31.0567
-7.63143
31.3305
7.27228
-0.568186
0.856267
-32.4635
-6.86435
32.8413
6.43377
-0.803457
0.892279
-33.1694
-5.65978
33.4689
5.3079
-0.839961
0.550238
-34.2415
-4.7315
34.5254
4.42516
-0.527776
-0.137186
-34.7006
-3.67411
34.8269
3.48827
0.196801
-34.3974
-6.31702
134.761
8.30594
5.91546
-33.849
-33.2326
-32.7069
515.661
13.4963
18.8057
-132.74
-129.66
-124.002
-120.925
521.385
1.93255
6.93176
525.198
-5.38735
2.99815
525.999
-4.01328
1.54138
1.65247
-18.2417
787.972
-349.339
4594.18
770.969
-82.9278
63.69
287.392
16.4848
-570.867
218.616
256.632
-112.457
69.22
162.928
-124.202
59.4481
64.9264
56.4634
13.3366
-59.6963
78.0815
48.1012
-10.603
3.27397
-18.2365
-25.1045
26.9639
16.0763
-2.97324
0.825682
-11.2021
-29.1764
29.3684
10.8123
-0.627863
0.45006
-9.09053
-29.9712
30.0625
8.92035
-0.371144
0.00244347
-6.95144
-30.0681
30.0324
7.05307
-0.0683861
-30.1839
0.40963
-5.79014
30.2711
5.73393
-0.440637
-30.623
0.307713
-4.81938
4.78995