/*--------------------------------*- C++ -*----------------------------------*\
  =========                 |
  \\      /  F ield         | OpenFOAM: The Open Source CFD Toolbox
   \\    /   O peration     | Website:  https://openfoam.org
    \\  /    A nd           | Version:  10
     \\/     M anipulation  |
\*---------------------------------------------------------------------------*/
FoamFile
{
    format      ascii;
    class       volScalarField;
    location    "7.9";
    object      turbidity_0;
}
// * * * * * * * * * * * * * * * * * * * * * * * * * * * * * * * * * * * * * //

dimensions      [0 0 0 0 0 0 0];

internalField   nonuniform List<scalar> 
12920
(
-0.0135382
-0.0366808
-0.0598113
-0.0891966
-0.111862
-0.12283
-0.122064
-0.116687
-0.114656
-0.11837
-0.133552
-0.162117
-0.201509
-0.244939
-0.285247
-0.31951
-0.350778
-0.377705
-0.401093
-0.420426
-0.0310569
-0.0507006
-0.0526078
-0.0800181
-0.103399
-0.127627
-0.14884
-0.165335
-0.180398
-0.19482
-0.212479
-0.235396
-0.265073
-0.29929
-0.333677
-0.364833
-0.391535
-0.414108
-0.43434
-0.454385
-0.0177893
-0.0367413
-0.0645691
-0.0896416
-0.109505
-0.124043
-0.141963
-0.163082
-0.186622
-0.212016
-0.238969
-0.266634
-0.294449
-0.32115
-0.345169
-0.365426
-0.382238
-0.398005
-0.414615
-0.43383
-0.0533252
-0.0482332
-0.0545591
-0.0741648
-0.0978477
-0.121673
-0.141289
-0.156491
-0.175385
-0.198875
-0.225692
-0.253731
-0.2807
-0.305387
-0.326634
-0.344408
-0.358213
-0.372276
-0.388518
-0.408178
-0.0418652
-0.0413152
-0.0629811
-0.0883982
-0.111782
-0.133629
-0.153665
-0.167715
-0.182535
-0.197891
-0.216809
-0.236666
-0.257093
-0.276193
-0.293956
-0.309725
-0.32494
-0.341269
-0.358711
-0.378327
-0.0623464
-0.0484125
-0.0513673
-0.0786077
-0.100962
-0.12495
-0.15197
-0.175069
-0.197016
-0.215423
-0.232428
-0.247781
-0.262116
-0.275458
-0.28903
-0.303129
-0.317802
-0.333514
-0.350183
-0.367099
-0.0140604
-0.0542125
-0.0588785
-0.084216
-0.107971
-0.12932
-0.152418
-0.174317
-0.193358
-0.209606
-0.222891
-0.235355
-0.247994
-0.262647
-0.281146
-0.299216
-0.316072
-0.331881
-0.344898
-0.355335
-0.0798185
-0.0789938
-0.0526349
-0.0718714
-0.0957996
-0.121043
-0.126785
-0.130504
-0.141421
-0.141876
-0.148397
-0.149105
-0.153953
-0.158858
-0.163069
-0.190983
-0.215743
-0.236905
-0.25237
-0.269773
-0.0909543
-0.0452697
-0.0562324
-0.0871933
-0.111414
-0.114415
-0.117974
-0.113238
-0.108527
-0.101244
-0.098322
-0.0966537
-0.0969952
-0.0988124
-0.109745
-0.150651
-0.182205
-0.210125
-0.236714
-0.26517
-0.0608327
-0.0736725
-0.0963013
-0.144287
-0.160366
-0.12757
-0.102774
-0.0900512
-0.085254
-0.0869454
-0.090859
-0.0951463
-0.09903
-0.101244
-0.112396
-0.140262
-0.174941
-0.208398
-0.242361
-0.276871
-0.0107234
-0.0372662
-0.0726906
-0.134894
-0.178863
-0.150007
-0.125791
-0.105971
-0.096889
-0.0937858
-0.0945032
-0.0933724
-0.0912123
-0.0900434
-0.0971642
-0.132915
-0.169409
-0.203844
-0.237899
-0.272612
-0.016311
-0.0473191
-0.0766878
-0.111312
-0.138503
-0.134155
-0.13289
-0.129619
-0.119761
-0.102809
-0.094344
-0.0901073
-0.0860277
-0.0827797
-0.0980296
-0.189488
-0.234519
-0.269112
-0.298692
-0.325296
-0.0159043
-0.0524526
-0.0783161
-0.0976954
-0.115687
-0.133167
-0.134453
-0.143329
-0.153163
-0.147665
-0.146405
-0.149609
-0.165095
-0.190338
-0.300512
-0.351403
-0.392588
-0.426366
-0.449893
-0.461757
-0.0324719
-0.0521906
-0.0639593
-0.0730208
-0.0871874
-0.105931
-0.143354
-0.180088
-0.212295
-0.240446
-0.2683
-0.298945
-0.335288
-0.374907
-0.420528
-0.471274
-0.523099
-0.571473
-0.611746
-0.639247
-0.0317797
-0.0397031
-0.0417654
-0.0458155
-0.0586289
-0.0774936
-0.105246
-0.13168
-0.162991
-0.19587
-0.226342
-0.254122
-0.292714
-0.339785
-0.40072
-0.473054
-0.549763
-0.621258
-0.681737
-0.727921
-0.0168533
-0.0339788
-0.0444548
-0.0549257
-0.0686624
-0.0850979
-0.101793
-0.115826
-0.134499
-0.159788
-0.191516
-0.222334
-0.252034
-0.286569
-0.335373
-0.403275
-0.48546
-0.571693
-0.652642
-0.720405
-0.0208417
-0.0405685
-0.0583344
-0.0755951
-0.0895766
-0.107429
-0.125564
-0.14765
-0.16924
-0.192909
-0.217146
-0.243574
-0.27487
-0.316349
-0.367827
-0.426838
-0.49178
-0.562501
-0.635633
-0.704012
-0.0610848
-0.0530322
-0.0738615
-0.0956807
-0.114727
-0.139012
-0.160057
-0.18067
-0.19965
-0.222196
-0.249248
-0.282077
-0.318667
-0.358974
-0.399853
-0.439491
-0.479402
-0.522889
-0.571495
-0.619481
-0.0546456
-0.058676
-0.0708069
-0.103447
-0.120519
-0.132792
-0.145965
-0.156002
-0.169392
-0.190607
-0.22886
-0.280154
-0.334728
-0.384643
-0.425867
-0.454331
-0.472688
-0.485232
-0.49712
-0.512298
-0.0892727
-0.0490437
-0.055821
-0.0933332
-0.103651
-0.117674
-0.121688
-0.119204
-0.117652
-0.119084
-0.130271
-0.155992
-0.188478
-0.217035
-0.241177
-0.267954
-0.311042
-0.372467
-0.435273
-0.488346
-0.00794377
-0.0160196
-0.0332085
-0.0383248
-0.034092
-0.0247584
-0.0182514
-0.0147572
-0.014759
-0.0178014
-0.024416
-0.0323393
-0.0419168
-0.0412156
-0.0369631
-0.0384464
-0.0442958
-0.0517104
-0.0604183
-0.0692086
-0.0103181
-0.0103805
-0.00913623
-0.0107124
-0.0134449
-0.0181552
-0.0243075
-0.0313839
-0.0418368
-0.052959
-0.0650926
-0.0714872
-0.0737908
-0.0715844
-0.0737876
-0.0826021
-0.0968487
-0.115229
-0.13498
-0.153518
-0.0123168
-0.0196792
-0.0149168
-0.0153814
-0.016388
-0.0184411
-0.0257131
-0.0376545
-0.0565477
-0.0726809
-0.0857538
-0.09039
-0.0911888
-0.0867072
-0.0825146
-0.079406
-0.0786667
-0.0830832
-0.0921127
-0.10381
-0.0361909
-0.0298265
-0.0217035
-0.018976
-0.0188483
-0.018828
-0.0180609
-0.0197505
-0.026036
-0.0365335
-0.0499468
-0.0601055
-0.0654759
-0.0633273
-0.0572906
-0.0488391
-0.0441894
-0.0458764
-0.0550295
-0.0702224
-0.0530485
-0.0143672
-0.0175448
-0.0215346
-0.0246873
-0.0235858
-0.0199408
-0.0165887
-0.0163311
-0.0193788
-0.0239211
-0.0284629
-0.0313665
-0.0325607
-0.0324169
-0.0325635
-0.0344787
-0.0386017
-0.0463463
-0.058722
-0.0126911
-0.00928561
-0.0107169
-0.0127995
-0.0136981
-0.0141768
-0.0154282
-0.0162999
-0.0185498
-0.0193909
-0.020484
-0.020891
-0.0217705
-0.0237503
-0.0285528
-0.0380319
-0.049714
-0.0573321
-0.0606076
-0.065398
-0.0219758
-0.0217439
-0.0113624
-0.0107887
-0.0101826
-0.0105393
-0.011434
-0.0128071
-0.0136119
-0.0143189
-0.0153718
-0.0180862
-0.0239425
-0.0345133
-0.0530062
-0.0759321
-0.0885461
-0.0848384
-0.0711921
-0.0624658
-0.0265433
-0.0146741
-0.00855935
-0.00896543
-0.00906207
-0.00929965
-0.0105253
-0.0109223
-0.0114726
-0.0118735
-0.0133535
-0.0168748
-0.0238659
-0.0368235
-0.0597628
-0.0619971
-0.0518764
-0.0401917
-0.0344491
-0.0357453
-0.0121086
-0.00538825
-0.00738646
-0.00922109
-0.00919747
-0.00927072
-0.00933343
-0.00938922
-0.00977103
-0.0108817
-0.013806
-0.0196835
-0.0302208
-0.0480405
-0.0778835
-0.0512526
-0.0413181
-0.034845
-0.0316268
-0.031713
-0.00882798
-0.0108555
-0.0194696
-0.0329014
-0.0233426
-0.0161907
-0.0104714
-0.00931949
-0.0106231
-0.0162529
-0.027291
-0.0461886
-0.0678745
-0.0795217
-0.0602044
-0.0528129
-0.0592379
-0.0633712
-0.0623129
-0.056817
-0.00449672
-0.0161325
-0.0421791
-0.0737784
-0.0834124
-0.0575462
-0.0507696
-0.0421033
-0.0277551
-0.0282855
-0.0383029
-0.0481492
-0.0528105
-0.0539311
-0.0573323
-0.055516
-0.0603135
-0.0685385
-0.0777385
-0.083907
-0.0127394
-0.0224461
-0.0390248
-0.0630274
-0.0800263
-0.0722942
-0.0703485
-0.104705
-0.103298
-0.0800823
-0.0649556
-0.0644062
-0.0655616
-0.0687134
-0.0688464
-0.0549678
-0.0539169
-0.0566609
-0.062011
-0.0689761
-0.0194232
-0.0241643
-0.0350968
-0.0360026
-0.0348641
-0.0258197
-0.0373016
-0.0628527
-0.0648299
-0.0762919
-0.0784983
-0.0803409
-0.0796219
-0.0767123
-0.0630983
-0.061031
-0.0602856
-0.0605729
-0.0607026
-0.061039
-0.00500193
-0.0177263
-0.0229414
-0.0198983
-0.0154391
-0.0164205
-0.023979
-0.0306553
-0.0378212
-0.0420164
-0.0483664
-0.057324
-0.0683172
-0.0792305
-0.0855206
-0.08663
-0.0846258
-0.0826392
-0.0811005
-0.0801159
-0.00750284
-0.0114776
-0.0127977
-0.0125543
-0.0171594
-0.0252876
-0.0374706
-0.0467821
-0.0570737
-0.0551809
-0.0516071
-0.0591185
-0.0756137
-0.0954493
-0.105324
-0.103287
-0.0918292
-0.0810283
-0.0742826
-0.0740896
-0.0107995
-0.0106301
-0.0115835
-0.01436
-0.0216055
-0.0235472
-0.0270967
-0.0311103
-0.0452217
-0.0537804
-0.058058
-0.0640938
-0.0823705
-0.104404
-0.122686
-0.128942
-0.125321
-0.113692
-0.0977122
-0.085596
-0.00419617
-0.0150764
-0.0235273
-0.0244643
-0.0302325
-0.0305985
-0.0380674
-0.0453278
-0.0590323
-0.0703663
-0.081836
-0.0928181
-0.105533
-0.108625
-0.104409
-0.10052
-0.0991579
-0.0939494
-0.0820663
-0.071157
-0.0126749
-0.0162586
-0.0259328
-0.0262089
-0.0352747
-0.0398118
-0.0576631
-0.0751769
-0.0953881
-0.109747
-0.115389
-0.107652
-0.0933477
-0.0745677
-0.0617182
-0.0545648
-0.0512587
-0.0485362
-0.0457491
-0.0433621
-0.0267582
-0.0121191
-0.0132231
-0.0221276
-0.0211245
-0.0225335
-0.0293598
-0.040015
-0.0629021
-0.0878488
-0.115392
-0.125912
-0.11925
-0.0999916
-0.080416
-0.0694792
-0.0629533
-0.05534
-0.0490992
-0.0452804
-0.0119771
-0.00924349
-0.00767625
-0.00993794
-0.0106669
-0.0121533
-0.0126891
-0.0136717
-0.0178003
-0.0277054
-0.042821
-0.0589878
-0.0744517
-0.0930408
-0.118233
-0.151972
-0.187568
-0.21641
-0.234832
-0.24433
-0.00332177
-0.0123661
-0.0163393
-0.0150685
-0.0117166
-0.00932688
-0.00805302
-0.00766224
-0.00832243
-0.00971898
-0.0118301
-0.0140386
-0.0167372
-0.0186577
-0.0208459
-0.0233961
-0.0262881
-0.0291216
-0.0324674
-0.0357087
-0.00440798
-0.00655058
-0.00677727
-0.00733074
-0.00808625
-0.00964293
-0.0119382
-0.0146012
-0.0185393
-0.0218888
-0.0257209
-0.0276567
-0.0294831
-0.0313172
-0.0350346
-0.0401134
-0.0461688
-0.0529338
-0.0596375
-0.0651237
-0.0121951
-0.0124524
-0.0101847
-0.0103887
-0.0109671
-0.0123767
-0.0162976
-0.0210739
-0.0280329
-0.0322945
-0.0352145
-0.0345976
-0.0339499
-0.0328936
-0.0335606
-0.0354133
-0.0381005
-0.0415423
-0.0450815
-0.0474413
-0.0218369
-0.0155599
-0.0122339
-0.0111929
-0.0115685
-0.0114384
-0.0110898
-0.0123699
-0.0152448
-0.0185899
-0.021684
-0.0231211
-0.0233506
-0.0224617
-0.0220677
-0.0226888
-0.0246591
-0.0278635
-0.032064
-0.0360541
-0.0472388
-0.0133313
-0.0130871
-0.0157633
-0.0158462
-0.0130195
-0.00990002
-0.0087021
-0.00920314
-0.0107545
-0.0121948
-0.013253
-0.0137537
-0.0141359
-0.0147485
-0.0159977
-0.0180154
-0.0208781
-0.0249724
-0.0295915
-0.0114926
-0.00687826
-0.00874182
-0.0114302
-0.01166
-0.0100673
-0.00812319
-0.00706031
-0.0070373
-0.0077145
-0.00868137
-0.00984583
-0.01124
-0.0130242
-0.0154693
-0.0183907
-0.0210384
-0.0231484
-0.0258864
-0.0301622
-0.028525
-0.00995168
-0.00950268
-0.00949138
-0.00845078
-0.00746057
-0.00644016
-0.00616709
-0.00658232
-0.0077443
-0.00994169
-0.0130751
-0.017553
-0.0228256
-0.0287276
-0.0332995
-0.0336728
-0.0307826
-0.0285671
-0.0298723
-0.00199488
-0.00475448
-0.00609881
-0.0066512
-0.00680868
-0.00667917
-0.00646116
-0.00616379
-0.00658344
-0.00823218
-0.0108247
-0.0151547
-0.0207628
-0.0277796
-0.0269924
-0.0237136
-0.0197219
-0.0183654
-0.0200355
-0.0238264
-0.00100503
-0.00220652
-0.00347362
-0.00539759
-0.00645909
-0.00662801
-0.00651377
-0.00631797
-0.00716268
-0.00985316
-0.0140201
-0.0201259
-0.0274952
-0.0348735
-0.0313982
-0.0185342
-0.0168299
-0.0163517
-0.0168981
-0.0187488
-0.00255126
-0.00319315
-0.00681376
-0.0122664
-0.0104672
-0.00884145
-0.00749469
-0.00753987
-0.00960894
-0.0144637
-0.0208608
-0.027071
-0.0292855
-0.0278405
-0.026764
-0.0309309
-0.0324512
-0.0313681
-0.0281487
-0.0248139
-0.002358
-0.00328128
-0.0150516
-0.0330418
-0.0314389
-0.0270336
-0.0241625
-0.0227617
-0.0213567
-0.0230772
-0.0253541
-0.0262778
-0.0266764
-0.028044
-0.0295957
-0.032121
-0.0370762
-0.0412936
-0.0432627
-0.042581
-0.00743511
-0.0109254
-0.0220411
-0.0349953
-0.0388537
-0.0330199
-0.0279664
-0.0372656
-0.0403512
-0.03936
-0.0372895
-0.0360918
-0.0359973
-0.0364527
-0.0303661
-0.0258412
-0.0280251
-0.0310046
-0.0340798
-0.0368877
-0.00877024
-0.0136048
-0.0153839
-0.0145179
-0.013648
-0.0128226
-0.0183049
-0.0276889
-0.030751
-0.0341164
-0.0331501
-0.0318367
-0.0293019
-0.0269687
-0.0240913
-0.024217
-0.0249157
-0.0260684
-0.027376
-0.0289914
-0.00867465
-0.0119198
-0.0101755
-0.00734901
-0.00750257
-0.0105763
-0.0152044
-0.0186841
-0.0212452
-0.0228947
-0.0242692
-0.0261304
-0.0278586
-0.0291458
-0.0292236
-0.0286683
-0.0281386
-0.0281566
-0.0285881
-0.0294157
-0.00734453
-0.00640966
-0.00598091
-0.00642816
-0.0105234
-0.0148346
-0.0210519
-0.0240301
-0.0272547
-0.0273247
-0.0282145
-0.0307776
-0.0341871
-0.0366145
-0.0352702
-0.0317591
-0.0279218
-0.0260443
-0.0259236
-0.0273046
-0.00756153
-0.00525795
-0.00539792
-0.00714202
-0.0111076
-0.0132901
-0.0179947
-0.0226932
-0.0286185
-0.0317188
-0.0342121
-0.0368301
-0.0420203
-0.0457528
-0.0464827
-0.0421718
-0.0360606
-0.0305183
-0.0266793
-0.0253332
-0.00699819
-0.00815787
-0.0104718
-0.0110274
-0.0156603
-0.0200362
-0.0268964
-0.0330393
-0.0385577
-0.041178
-0.0430099
-0.0431418
-0.0439021
-0.0405019
-0.035918
-0.0319091
-0.0287142
-0.0256224
-0.0228653
-0.0212274
-0.00517162
-0.00587647
-0.00751483
-0.0111548
-0.0178488
-0.0257164
-0.0386084
-0.0494682
-0.0591493
-0.0600788
-0.0547284
-0.043465
-0.0347306
-0.0289464
-0.0268141
-0.0261444
-0.0252571
-0.0238091
-0.0220974
-0.0204837
-0.0134204
-0.00420648
-0.00454705
-0.00859012
-0.00895637
-0.0113184
-0.0172422
-0.024907
-0.0374542
-0.0457622
-0.053372
-0.0498269
-0.0446669
-0.0415347
-0.0434335
-0.046886
-0.0482012
-0.0467017
-0.0432786
-0.0390672
-0.0104449
-0.012701
-0.00675839
-0.0048913
-0.00442484
-0.00499482
-0.0061582
-0.00909686
-0.0145657
-0.0221654
-0.0307725
-0.0396806
-0.0512759
-0.0679765
-0.0906536
-0.115314
-0.135782
-0.147921
-0.153736
-0.155767
-0.00600013
-0.00768821
-0.00620475
-0.00603527
-0.00572639
-0.005519
-0.00545591
-0.00589972
-0.00692956
-0.00823019
-0.00957953
-0.0107084
-0.0118862
-0.0129246
-0.0141633
-0.0155363
-0.0171976
-0.0190366
-0.0213376
-0.02393
-0.002078
-0.00458823
-0.00581864
-0.00610572
-0.0061887
-0.00664785
-0.00762708
-0.00899118
-0.010957
-0.0125356
-0.0143389
-0.0156172
-0.0170165
-0.018227
-0.0197818
-0.0214383
-0.0232334
-0.0251703
-0.0270401
-0.028644
-0.00639099
-0.00937058
-0.00794262
-0.007811
-0.00812381
-0.00888295
-0.0105186
-0.011817
-0.0138887
-0.0147674
-0.015938
-0.0165606
-0.0176638
-0.0185976
-0.0197028
-0.0205953
-0.0212427
-0.0217594
-0.0221119
-0.022041
-0.0193012
-0.0118063
-0.00886493
-0.00871455
-0.00844093
-0.0077484
-0.00753673
-0.00816295
-0.00927994
-0.0104668
-0.0116793
-0.0125839
-0.0133364
-0.0139465
-0.0146404
-0.0154462
-0.0163615
-0.0174017
-0.0184839
-0.0190894
-0.0411432
-0.0203861
-0.0117586
-0.010719
-0.00868007
-0.00654416
-0.00549853
-0.00578784
-0.00654593
-0.00758756
-0.00843454
-0.00919705
-0.0097799
-0.0104429
-0.011248
-0.0123321
-0.013669
-0.0152042
-0.0168942
-0.0181859
-0.00200514
-0.00408096
-0.00629547
-0.00763652
-0.00677658
-0.0053452
-0.00451516
-0.00466036
-0.00527524
-0.00615505
-0.00693971
-0.00770179
-0.00846081
-0.00936768
-0.0105387
-0.011962
-0.0135712
-0.0154435
-0.0177275
-0.0200526
-0.00545057
-0.007214
-0.00817723
-0.0075488
-0.00590164
-0.00464196
-0.00424916
-0.00462668
-0.00556089
-0.00661062
-0.00788047
-0.00917301
-0.0106904
-0.0122253
-0.013872
-0.0151717
-0.0159208
-0.0169149
-0.0187695
-0.021324
-0.00481886
-0.00680639
-0.00686626
-0.0063562
-0.00544847
-0.00469715
-0.00450934
-0.00495474
-0.0058574
-0.00726914
-0.00848996
-0.00996739
-0.0112778
-0.012552
-0.0116523
-0.0121886
-0.0132673
-0.0151213
-0.0175324
-0.0201468
-0.00109349
-0.00136282
-0.00195646
-0.00387093
-0.00504207
-0.00481799
-0.00463319
-0.00540679
-0.00690932
-0.00879684
-0.0102582
-0.0115069
-0.0120414
-0.0120011
-0.0103044
-0.0111458
-0.011968
-0.0131819
-0.0148501
-0.0168162
-0.00269666
-0.00203587
-0.0034266
-0.00650959
-0.00771097
-0.00695395
-0.00610533
-0.00699238
-0.00888464
-0.0107245
-0.012217
-0.0133591
-0.0142597
-0.0151121
-0.0166631
-0.0180055
-0.0173393
-0.0163409
-0.0155849
-0.0155969
-0.00399845
-0.00665631
-0.0132249
-0.0166335
-0.0146649
-0.0163527
-0.0169603
-0.0181532
-0.0171838
-0.016439
-0.0166713
-0.018112
-0.0195675
-0.0211771
-0.0230932
-0.0238263
-0.0250308
-0.0252126
-0.0244763
-0.0233816
-0.00632862
-0.00873622
-0.0134253
-0.0172324
-0.0171592
-0.0164939
-0.0158989
-0.0221552
-0.0243205
-0.0226974
-0.0202131
-0.0190166
-0.0186175
-0.0187402
-0.0184885
-0.0188482
-0.0204839
-0.0218512
-0.0226481
-0.0228496
-0.00141081
-0.00648801
-0.00782052
-0.00830659
-0.00917782
-0.0102514
-0.0137059
-0.0168206
-0.0164968
-0.0163463
-0.0155905
-0.0152264
-0.0149091
-0.0149208
-0.0148342
-0.0153534
-0.0159462
-0.0165045
-0.016942
-0.0173428
-0.00619119
-0.0066218
-0.00557924
-0.00493978
-0.00646502
-0.00906085
-0.0115826
-0.0126527
-0.0131631
-0.013511
-0.0137564
-0.0141404
-0.0144801
-0.0147201
-0.0149051
-0.0150633
-0.0153437
-0.015732
-0.0161836
-0.0167167
-0.00629482
-0.00403033
-0.00370304
-0.00481412
-0.00800756
-0.0107798
-0.0138293
-0.0146313
-0.0155312
-0.0153496
-0.0153071
-0.0155883
-0.0159151
-0.0158133
-0.015134
-0.0145284
-0.0142684
-0.0145129
-0.0150634
-0.0158543
-0.0118924
-0.00557836
-0.00415508
-0.00605281
-0.00914517
-0.0121455
-0.015061
-0.0168051
-0.0184255
-0.0184845
-0.0187081
-0.0185421
-0.0191971
-0.0187432
-0.0176604
-0.0159255
-0.0145361
-0.0137493
-0.013485
-0.0136772
-0.00860492
-0.00612137
-0.00574507
-0.00883288
-0.0134015
-0.0173247
-0.0206765
-0.0217566
-0.022538
-0.0215454
-0.0210858
-0.0200063
-0.0193681
-0.0177396
-0.0162164
-0.0150467
-0.0141119
-0.0133692
-0.0128378
-0.0125529
-0.00343439
-0.00326473
-0.00463461
-0.0083253
-0.0142074
-0.0203185
-0.0274612
-0.030146
-0.0317031
-0.0284265
-0.0251826
-0.0221836
-0.0213303
-0.0214536
-0.0217756
-0.0216921
-0.0206622
-0.0191746
-0.0176302
-0.0163546
-0.00934568
-0.00166915
-0.0026678
-0.0044688
-0.0061132
-0.00877279
-0.0137123
-0.0183608
-0.0240729
-0.0265391
-0.0296854
-0.031118
-0.0339583
-0.0379208
-0.0422443
-0.0448725
-0.0449258
-0.0428601
-0.0393744
-0.035379
-0.00192842
-0.00330436
-0.00257352
-0.00263107
-0.0029343
-0.00372158
-0.00537921
-0.0093715
-0.0150193
-0.0217596
-0.0293162
-0.037905
-0.0483797
-0.0612575
-0.0755082
-0.0883986
-0.0966747
-0.0995175
-0.0990861
-0.0967934
-0.00449384
-0.00406425
-0.00297062
-0.00372287
-0.00479941
-0.00526907
-0.00570789
-0.00662915
-0.00777609
-0.00881368
-0.00984382
-0.0108741
-0.0120221
-0.0133122
-0.0147762
-0.0164484
-0.0183099
-0.0204455
-0.0227061
-0.0254441
-0.00488757
-0.00503219
-0.0041807
-0.00472513
-0.00544987
-0.00622066
-0.00724497
-0.00831594
-0.00932975
-0.00998792
-0.0106274
-0.0110291
-0.0114914
-0.0118637
-0.0123554
-0.0128827
-0.0134585
-0.0141329
-0.0148039
-0.0155965
-0.0179769
-0.0136304
-0.00889719
-0.00658334
-0.00649483
-0.00708621
-0.0079981
-0.00884593
-0.00987208
-0.0105556
-0.0112418
-0.0115982
-0.0119362
-0.0120405
-0.0121535
-0.0121909
-0.0122339
-0.0123444
-0.0125461
-0.0127789
-0.00958037
-0.0106885
-0.00797406
-0.00793188
-0.00692984
-0.00642042
-0.00695255
-0.00792587
-0.00885583
-0.00963541
-0.010228
-0.0106637
-0.0109885
-0.0112106
-0.0113852
-0.0115305
-0.0116926
-0.0119163
-0.0122398
-0.0125315
-0.0237806
-0.0197924
-0.0110606
-0.00619271
-0.00483459
-0.00503587
-0.00583345
-0.0068742
-0.00771985
-0.00853391
-0.00917517
-0.00978215
-0.010291
-0.0107358
-0.0111106
-0.0114241
-0.0117135
-0.0120067
-0.0123725
-0.0126653
-0.00240991
-0.00459586
-0.00494857
-0.00374493
-0.00347346
-0.00408817
-0.00489913
-0.00588978
-0.00675322
-0.0076568
-0.00845519
-0.00925703
-0.010007
-0.0107196
-0.0113934
-0.0120036
-0.0125597
-0.0130624
-0.0135792
-0.0139816
-0.00865862
-0.00721763
-0.00508966
-0.00360939
-0.00336243
-0.00392202
-0.00483773
-0.0057359
-0.00662693
-0.00750743
-0.00838095
-0.00924639
-0.0101074
-0.0109516
-0.0117922
-0.0125828
-0.0132991
-0.0139482
-0.0145363
-0.0150764
-0.00180572
-0.00372483
-0.00380824
-0.00350929
-0.00366642
-0.00412264
-0.00459557
-0.00563125
-0.00630266
-0.00708519
-0.00775177
-0.00845403
-0.00916534
-0.00993864
-0.0112415
-0.011923
-0.0125304
-0.0130551
-0.0135361
-0.013962
-0.00284405
-0.00239429
-0.00284267
-0.00370931
-0.0045635
-0.00452075
-0.00468577
-0.00561746
-0.00624876
-0.0068136
-0.00733091
-0.00787121
-0.00846025
-0.00909717
-0.0101583
-0.0110913
-0.0115422
-0.0118986
-0.012213
-0.0125053
-0.00439044
-0.00342869
-0.00431029
-0.0057155
-0.00696768
-0.00660668
-0.00614046
-0.00692426
-0.0079116
-0.00889249
-0.00976828
-0.0103552
-0.0105329
-0.0104867
-0.0108768
-0.0113982
-0.0113126
-0.0112338
-0.01124
-0.0113516
-0.00335007
-0.00636177
-0.00750972
-0.00925163
-0.0100005
-0.0117559
-0.0121966
-0.0124901
-0.0121403
-0.0126227
-0.0135462
-0.0143035
-0.0147276
-0.0153017
-0.0150947
-0.0132582
-0.0127033
-0.0120872
-0.0116577
-0.0115462
-0.00155064
-0.00504723
-0.00797736
-0.00983651
-0.0103434
-0.0112258
-0.0115943
-0.013593
-0.0133823
-0.0130164
-0.0130289
-0.0131249
-0.0132434
-0.0137044
-0.0131629
-0.011537
-0.0112488
-0.0109671
-0.0108608
-0.0110603
-0.00550197
-0.00500759
-0.00574695
-0.00740479
-0.00848198
-0.00909703
-0.0102035
-0.0107077
-0.010524
-0.0105428
-0.0103512
-0.0102726
-0.0101299
-0.0100806
-0.0095752
-0.00967858
-0.00981818
-0.0100697
-0.0104389
-0.0109345
-0.00210435
-0.00541715
-0.00606504
-0.00574825
-0.00700959
-0.00833742
-0.00925907
-0.00931975
-0.00935136
-0.00924261
-0.0091846
-0.00913819
-0.00914848
-0.00918864
-0.00931942
-0.00950522
-0.00981329
-0.0102621
-0.0108442
-0.0114986
-0.002628
-0.0030501
-0.00389681
-0.00551658
-0.00741591
-0.0087197
-0.00963707
-0.00960124
-0.00965258
-0.00934755
-0.00917494
-0.00907386
-0.00905237
-0.00905237
-0.00911558
-0.00932538
-0.00969759
-0.0102471
-0.0109399
-0.011679
-0.00795741
-0.00343572
-0.00453609
-0.00664716
-0.00838178
-0.00958355
-0.0103609
-0.0104353
-0.010539
-0.0101586
-0.00995055
-0.00965713
-0.00960826
-0.00943894
-0.00938287
-0.00942906
-0.00968754
-0.0101628
-0.0108139
-0.0115015
-0.00207671
-0.00349043
-0.00556385
-0.00829301
-0.0103026
-0.0114388
-0.0121444
-0.011846
-0.0117405
-0.0112257
-0.0109227
-0.010514
-0.0102585
-0.0099732
-0.00984551
-0.00990649
-0.0101286
-0.0105325
-0.0110947
-0.011684
-0.00247949
-0.0028993
-0.00509555
-0.008051
-0.0112095
-0.0136083
-0.0153027
-0.0151123
-0.0150821
-0.0143469
-0.0140011
-0.013714
-0.0135919
-0.0135321
-0.0133095
-0.0130377
-0.0126472
-0.0123559
-0.0122456
-0.0123163
-0.00241698
-0.00209979
-0.003031
-0.00426459
-0.00685926
-0.0112934
-0.0153362
-0.0180254
-0.020288
-0.0220593
-0.0239086
-0.0256175
-0.0270541
-0.0281211
-0.0280689
-0.0268688
-0.0247727
-0.0225462
-0.0205356
-0.0192237
-0.00233197
-0.00219318
-0.00235028
-0.00269612
-0.00298919
-0.00462646
-0.0083413
-0.0138243
-0.019913
-0.0256306
-0.0313579
-0.0370337
-0.0429939
-0.0486949
-0.0534593
-0.0556198
-0.054228
-0.0499355
-0.0443279
-0.0388115
-0.0191778
-0.0198372
-0.0220663
-0.0139216
-0.0154433
-0.0172645
-0.0177634
-0.0257342
-0.0227656
-0.0247608
-0.0157532
-0.016175
-0.0178266
-0.018135
-0.0249358
-0.0366457
-0.0358251
-0.0195249
-0.0190745
-0.0261109
-0.0242325
-0.0261968
-0.0356569
-0.0353507
-0.0190444
-0.0193853
-0.0237137
-0.0226587
-0.114783
-0.104578
-0.0955366
-0.10464
-0.0977566
-0.0797623
-0.0623477
-0.1101
-0.092899
-0.0873308
-0.0940214
-0.0840298
-0.057078
-0.0476025
-0.102986
-0.0863182
-0.085875
-0.0803169
-0.0710954
-0.0475553
-0.0549064
-0.0990713
-0.0862916
-0.0881855
-0.0688274
-0.0647504
-0.0575031
-0.0600428
-0.097047
-0.0888338
-0.0908781
-0.0629757
-0.0600268
-0.0608803
-0.0684185
-0.0969545
-0.0917157
-0.0946501
-0.0601085
-0.0642991
-0.0724347
-0.0863375
-0.0982005
-0.095627
-0.098231
-0.0665583
-0.0760673
-0.0912762
-0.104379
-0.10204
-0.0989533
-0.100565
-0.0802196
-0.0927954
-0.107807
-0.113614
-0.0924453
-0.111193
-0.100235
-0.0703918
-0.0542337
-0.0897863
-0.0790022
-0.0857274
-0.0980869
-0.0938371
-0.0507498
-0.0463747
-0.076168
-0.0678009
-0.086151
-0.0929879
-0.0921842
-0.0476376
-0.0569813
-0.0656392
-0.0621804
-0.0898484
-0.0924481
-0.0942657
-0.0597069
-0.0643626
-0.062427
-0.0669957
-0.0940393
-0.0948555
-0.0953997
-0.0666267
-0.0785541
-0.0706039
-0.0837861
-0.0982019
-0.0951766
-0.0943212
-0.0835116
-0.0977185
-0.0879525
-0.0961765
-0.10087
-0.0940697
-0.0934621
-0.101819
-0.110632
-0.0971016
-0.0947503
-0.101672
-0.0932672
-0.0923412
-0.112297
-0.112962
-0.0932724
-0.0883471
-0.109253
-0.139036
-0.129868
-0.115546
-0.0997698
-0.133857
-0.13071
-0.0986084
-0.126359
-0.115193
-0.0954286
-0.081429
-0.12908
-0.119808
-0.0940303
-0.111308
-0.101065
-0.0770299
-0.0668086
-0.114926
-0.0985942
-0.094311
-0.0986751
-0.0945573
-0.0652608
-0.0667652
-0.0936209
-0.081998
-0.0939277
-0.0937195
-0.0910884
-0.0689865
-0.0775193
-0.080318
-0.081784
-0.0916726
-0.0900923
-0.0872313
-0.0803051
-0.0860888
-0.0834395
-0.0879953
-0.0902988
-0.0863646
-0.0838784
-0.0869328
-0.0866797
-0.0891939
-0.0917791
-0.0891752
-0.0830588
-0.0811241
-0.0863658
-0.0855817
-0.0922757
-0.0929494
-0.130996
-0.132022
-0.134011
-0.129122
-0.131498
-0.129467
-0.134301
-0.123199
-0.135456
-0.140431
-0.131608
-0.127243
-0.135841
-0.138123
-0.106646
-0.140559
-0.129201
-0.123458
-0.108293
-0.136904
-0.127313
-0.0956072
-0.123377
-0.111286
-0.103451
-0.0917708
-0.123995
-0.118538
-0.091192
-0.109055
-0.10642
-0.0891876
-0.0873765
-0.117625
-0.116561
-0.0869714
-0.106258
-0.109936
-0.0881157
-0.0903761
-0.116775
-0.121894
-0.0835144
-0.112275
-0.125387
-0.0908744
-0.0917126
-0.124323
-0.134521
-0.0813723
-0.130883
-0.153479
-0.0919085
-0.0929196
-0.138554
-0.153627
-0.00932933
-0.0090956
-0.00891087
-0.00881581
-0.00864148
-0.00841624
-0.00799342
-0.00965505
-0.00888015
-0.00930175
-0.00866467
-0.00895316
-0.00796125
-0.00875812
-0.0104197
-0.00971203
-0.012345
-0.00915351
-0.0102278
-0.00944263
-0.012949
-0.0128012
-0.0138054
-0.0198459
-0.0109239
-0.0135132
-0.014556
-0.0203909
-0.0177167
-0.0224963
-0.0331342
-0.0148158
-0.0195782
-0.0226805
-0.0300732
-0.0268365
-0.0377451
-0.0542359
-0.0218238
-0.0289676
-0.0324613
-0.0380673
-0.0424952
-0.0602975
-0.0770658
-0.0319471
-0.0406383
-0.0392384
-0.0403947
-0.0667924
-0.0814615
-0.0878634
-0.043635
-0.0503717
-0.0401071
-0.0378945
-0.00934293
-0.0205365
-0.0222064
-0.00948882
-0.00839505
-0.0168025
-0.0170352
-0.010032
-0.0216027
-0.0186415
-0.00843844
-0.00968929
-0.0170827
-0.0178831
-0.0143076
-0.018582
-0.0222005
-0.0105851
-0.0148714
-0.0185871
-0.0221798
-0.0238979
-0.024405
-0.0328926
-0.0167736
-0.0234274
-0.0237788
-0.0284617
-0.0406792
-0.0361465
-0.0467297
-0.0258753
-0.0328673
-0.0299235
-0.0327755
-0.0629231
-0.0502602
-0.0574971
-0.0347782
-0.0380347
-0.0332683
-0.0332721
-0.0780077
-0.0582375
-0.0570093
-0.0382538
-0.0369786
-0.032877
-0.0315764
-0.0781996
-0.0563052
-0.0549665
-0.0362441
-0.0342982
-0.0313982
-0.0319283
-0.0449469
-0.0816347
-0.102296
-0.0324272
-0.0264316
-0.0469886
-0.0467196
-0.0306254
-0.103619
-0.0980406
-0.0255891
-0.024169
-0.0468231
-0.0461613
-0.0267344
-0.0926922
-0.0702177
-0.024278
-0.0264505
-0.045149
-0.0423483
-0.0355252
-0.0636842
-0.0556078
-0.0275685
-0.0315364
-0.0421032
-0.0422395
-0.0460441
-0.0557642
-0.0589721
-0.0326124
-0.0335609
-0.0423387
-0.0426397
-0.0521968
-0.060221
-0.0632374
-0.03358
-0.0333841
-0.0427398
-0.0430314
-0.0535965
-0.0641498
-0.0680314
-0.0332804
-0.0332417
-0.0431816
-0.0439536
-0.0559971
-0.0698705
-0.074848
-0.0334153
-0.0343027
-0.0442622
-0.0446075
-0.101064
-0.0437055
-0.0791138
-0.0420265
-0.0454124
-0.0324118
-0.0369648
-0.105883
-0.0833463
-0.0789163
-0.0460871
-0.0481347
-0.0388092
-0.0430131
-0.0864867
-0.0783631
-0.0863079
-0.0481891
-0.0460912
-0.0446233
-0.0491852
-0.0667401
-0.088386
-0.0889078
-0.0454224
-0.0441403
-0.0502145
-0.0513065
-0.0640384
-0.0877733
-0.0841548
-0.0438491
-0.0431627
-0.0511954
-0.0505661
-0.0653249
-0.0837495
-0.0837026
-0.0430004
-0.0426434
-0.0503635
-0.0495624
-0.067445
-0.0838372
-0.0825294
-0.0426368
-0.0430917
-0.0490986
-0.0474643
-0.0729193
-0.0819059
-0.0777875
-0.0433431
-0.0436285
-0.046838
-0.0451209
-0.00630423
-0.00671906
-0.00679614
-0.00621212
-0.00611005
-0.00634625
-0.00655047
-0.00675582
-0.00689519
-0.00787908
-0.00625369
-0.00704623
-0.00682411
-0.00857174
-0.0089384
-0.00854062
-0.0116548
-0.00760498
-0.00960997
-0.00943056
-0.0122409
-0.0127141
-0.0130022
-0.0176138
-0.0104867
-0.0126805
-0.0130926
-0.0150253
-0.0183
-0.0193277
-0.0247241
-0.0135636
-0.0157948
-0.0154553
-0.0160624
-0.025442
-0.0264337
-0.0301705
-0.0165562
-0.018
-0.0160785
-0.0158017
-0.0330661
-0.0307933
-0.0307976
-0.0183107
-0.0183954
-0.015682
-0.015458
-0.0382988
-0.0303526
-0.0283759
-0.0181864
-0.0170831
-0.0154473
-0.0155425
-0.00737654
-0.0133174
-0.0150651
-0.00713039
-0.00725395
-0.0127526
-0.014819
-0.00882903
-0.0152349
-0.015756
-0.00761839
-0.0096131
-0.0151995
-0.0161699
-0.0130437
-0.0161989
-0.0185735
-0.0105143
-0.0131984
-0.0165011
-0.0170527
-0.017149
-0.0159725
-0.0159613
-0.0149142
-0.0173968
-0.0161469
-0.0161041
-0.0205717
-0.0225561
-0.0219078
-0.0194692
-0.0234086
-0.0204267
-0.0198296
-0.0292217
-0.0252039
-0.0256344
-0.0162047
-0.0162812
-0.018395
-0.019615
-0.0282772
-0.0256353
-0.0260004
-0.0163688
-0.0169002
-0.0201057
-0.0216575
-0.0271272
-0.0263527
-0.0280412
-0.0171546
-0.0181061
-0.0222121
-0.0241137
-0.023143
-0.03304
-0.0375297
-0.0193433
-0.0197239
-0.0220335
-0.024286
-0.021495
-0.038092
-0.0387891
-0.0198613
-0.0199846
-0.0252477
-0.0271441
-0.0224025
-0.038471
-0.0370312
-0.0200284
-0.0197609
-0.0273218
-0.0266454
-0.0265586
-0.0238108
-0.0278509
-0.022556
-0.0283248
-0.0231787
-0.0265333
-0.0268034
-0.02567
-0.029541
-0.0245265
-0.0297793
-0.0246484
-0.0267995
-0.0265084
-0.0353381
-0.0356677
-0.0196085
-0.0204458
-0.022433
-0.0219661
-0.0276163
-0.0359201
-0.0368385
-0.0207821
-0.0219166
-0.0218724
-0.0217099
-0.0293917
-0.0370549
-0.0366745
-0.0223518
-0.023921
-0.0216987
-0.0218901
-0.0362221
-0.0189726
-0.0294471
-0.0191744
-0.0233329
-0.0162007
-0.0221628
-0.0399468
-0.0313302
-0.0341754
-0.0245988
-0.0272627
-0.0235338
-0.0250019
-0.0397981
-0.0356452
-0.0397439
-0.0276424
-0.0272617
-0.0253108
-0.0254119
-0.0377534
-0.0402536
-0.039326
-0.0267551
-0.0248211
-0.0250854
-0.0237212
-0.0362781
-0.038715
-0.0369181
-0.0242484
-0.0229618
-0.023291
-0.0220921
-0.0359169
-0.0363522
-0.0340802
-0.0226593
-0.0219599