/*--------------------------------*- C++ -*----------------------------------*\
  =========                 |
  \\      /  F ield         | OpenFOAM: The Open Source CFD Toolbox
   \\    /   O peration     | Website:  https://openfoam.org
    \\  /    A nd           | Version:  10
     \\/     M anipulation  |
\*---------------------------------------------------------------------------*/
FoamFile
{
    format      ascii;
    class       volVectorField;
    location    "7.9";
    object      U;
}
// * * * * * * * * * * * * * * * * * * * * * * * * * * * * * * * * * * * * * //

dimensions      [0 1 -1 0 0 0 0];

internalField   nonuniform List<vector> 
12920
(
(118.697 -93.2495 120.124)
(70.0911 -23.4734 -12.1461)
(187.473 -33.7925 -7.1597)
(116.25 -38.4481 0.797974)
(150.829 -33.1002 2.46422)
(132.824 -23.7339 0.600803)
(148.431 -12.7691 -1.03178)
(142.72 -0.952181 -3.52604)
(150.742 5.98376 -4.78361)
(148.549 10.0416 -5.41407)
(151.276 10.9864 -4.82469)
(147.98 12.4489 -3.12195)
(138.673 11.7658 1.35172)
(119.251 8.39636 1.6839)
(112.638 4.45354 0.307285)
(107.628 2.73658 -0.245936)
(107.489 1.84599 -0.311205)
(107.836 1.72001 -0.285376)
(108.062 0.973278 -0.259852)
(106.898 0.86546 -0.343202)
(154.304 4.20271 7.84017)
(4.78481 -17.4128 -28.3416)
(153.172 34.2831 -23.1244)
(77.4745 14.3577 -6.50746)
(131.374 19.1114 -4.58171)
(104.289 13.6579 -2.80088)
(123.375 16.9677 -2.5258)
(118.017 16.0209 -1.76531)
(127.833 15.6174 -0.759709)
(125.389 14.3319 0.0548199)
(126.682 12.1374 1.04119)
(120.455 11.6802 1.72168)
(116.498 11.0414 2.47776)
(107.927 9.5953 1.56797)
(105.88 5.9114 0.660621)
(102.074 3.0292 0.483452)
(103.216 -0.220371 0.470883)
(104.124 -2.14564 0.654649)
(104.582 -4.66213 0.920411)
(101.036 -4.94018 0.908696)
(223.688 137.434 -9.05776)
(41.1088 -11.1803 13.7137)
(146.408 7.68693 7.96311)
(71.4827 -11.6625 0.697276)
(135.679 -14.2349 0.724225)
(109.108 -10.2032 -0.46474)
(130.513 -8.11157 -0.278862)
(122.077 -0.498012 -0.374165)
(128.762 3.16645 0.682613)
(121.707 7.81725 1.07363)
(120.686 9.95414 1.69063)
(112.757 12.1149 1.52678)
(111.055 11.4686 1.39491)
(106.516 10.1338 0.884007)
(106.741 6.44062 0.547035)
(104.135 2.35776 0.302574)
(105.43 -2.20711 0.16908)
(104.977 -3.8762 0.229294)
(104.546 -5.62745 0.199734)
(99.2835 -5.71402 0.00562867)
(113.607 -240.43 64.827)
(-134.642 12.4826 -18.0526)
(168.052 32.6218 -26.5275)
(102.087 10.9016 -5.05351)
(161.475 16.2664 -2.80046)
(135.557 10.9635 -1.0251)
(142.374 12.7082 -0.64064)
(129.162 13.7386 -0.777115)
(129.958 13.7969 -0.469067)
(122.526 14.5475 -0.287308)
(121.422 13.0063 0.316479)
(116.16 12.7383 0.477813)
(115.296 10.3902 0.601816)
(111.7 9.10135 0.395834)
(111.526 5.74973 0.376488)
(107.552 2.75562 0.0944787)
(106.234 -1.4579 -0.195788)
(104.252 -3.48513 -0.177635)
(103.603 -5.14523 -0.111931)
(98.2546 -5.1887 -0.257788)
(-63.4072 40.4558 49.6848)
(-102.889 20.2918 -32.678)
(178.552 10.0039 -14.2512)
(73.1467 2.23224 0.904892)
(149.865 6.61492 0.0859454)
(105.865 7.85603 0.0445321)
(125.182 7.35149 0.0247561)
(109.739 13.6237 -0.353371)
(117.391 12.8739 -0.308543)
(112.842 15.9683 -0.444543)
(116.337 14.4459 -0.269663)
(114.345 14.6938 -0.206079)
(115.71 12.4948 -0.0974113)
(114.133 11.2995 -0.123463)
(114.635 8.62532 -0.0903458)
(112.004 6.91556 -0.187813)
(111.87 2.57157 -0.189825)
(110.111 -1.44899 -0.158139)
(109.733 -4.25695 -0.118374)
(104.149 -4.60633 -0.285754)
(-140.785 41.0201 45.3855)
(-213.208 -20.6098 -50.2411)
(135.894 -16.7826 -32.2875)
(75.8427 2.19419 -2.19523)
(144.159 7.66936 -2.2364)
(112.382 18.0979 -0.969843)
(129.147 15.1537 -0.210322)
(117.042 17.8996 -0.29193)
(118.272 15.3842 0.0553046)
(112.891 16.0191 0.00158966)
(112.983 13.8946 0.091396)
(111.153 13.5941 0.0521068)
(111.632 11.6673 0.0593453)
(111.261 10.624 -0.0108156)
(112.233 8.69184 -0.0829595)
(111.995 6.56837 -0.0296031)
(114.239 2.15322 0.261185)
(113.388 -1.66349 0.376572)
(112.593 -3.70971 0.214111)
(106.458 -3.77351 -0.160852)
(428.817 17.6785 -105.658)
(55.3734 -23.7218 13.1223)
(158.276 -36.5191 4.73623)
(51.6545 -5.11182 -0.460832)
(132.408 9.44922 -0.0369588)
(84.3495 23.6857 -0.277527)
(104.706 8.68347 -0.0430865)
(93.2942 24.0442 -0.0968143)
(101.153 17.2812 -0.27714)
(97.5058 20.6528 -0.125718)
(100.711 15.6238 -0.286803)
(99.4887 15.381 -0.228608)
(101.551 11.9787 -0.328282)
(101.555 10.1516 -0.487276)
(103.814 7.8273 -0.200792)
(103.495 3.96038 0.628809)
(102.292 -0.706313 1.3172)
(97.7256 -2.90393 1.04228)
(94.9931 -3.32621 0.258253)
(89.7758 -2.8782 -0.340984)
(307.904 47.8915 147.006)
(23.6715 22.1652 20.5279)
(144.283 -25.4639 -8.51981)
(81.9092 0.192446 -5.21841)
(136.091 -0.235001 -4.3421)
(98.7456 35.376 -2.41835)
(103.995 23.9334 -1.04455)
(83.6832 8.25548 0.00925186)
(84.3377 19.7823 0.00977378)
(81.2618 12.9699 -0.250832)
(86.8988 16.1037 -0.245803)
(89.0992 12.8603 -0.300851)
(92.4413 12.5587 -0.264708)
(93.8039 10.323 -0.120914)
(90.4622 6.45166 0.675463)
(86.1971 3.46433 1.20247)
(82.9979 0.842755 0.68283)
(81.3138 -0.595731 0.103832)
(80.383 -1.60993 -0.355884)
(78.3089 -1.46705 -0.690145)
(13.2903 101.953 88.1941)
(-102.745 82.5422 -19.3821)
(129.819 28.3164 -21.2)
(25.9977 42.4685 -3.53441)
(81.692 39.0343 -2.30523)
(53.3714 40.0329 -1.49994)
(75.9786 45.6319 1.68176)
(76.3308 27.1507 -0.82491)
(78.5721 23.744 -0.175646)
(78.0785 15.3357 -0.161353)
(79.8925 13.7428 -0.052572)
(82.1726 12.2035 -0.182622)
(85.2887 11.402 -0.161217)
(87.8859 9.52106 -0.136926)
(84.3365 7.82564 0.487791)
(73.7359 4.76039 0.676905)
(74.336 0.967598 0.298237)
(76.2607 -1.60727 -0.0708755)
(77.1584 -2.46856 -0.219061)
(75.383 -1.54648 -0.399488)
(-27.5829 -44.5245 68.3873)
(-181.457 54.5524 -7.3493)
(80.5334 -12.6883 -14.7347)
(-34.6903 40.4766 0.0234037)
(72.9969 28.7124 -0.271265)
(20.5588 30.441 -2.1213)
(56.3071 38.6181 -1.15789)
(75.1173 31.8658 -0.459211)
(77.3505 27.1478 -0.222307)
(74.8499 21.2538 0.159742)
(69.8551 16.1696 0.0372263)
(68.2512 13.5136 0.0700462)
(66.9667 11.5915 0.0510152)
(66.0193 9.55893 -0.00444042)
(69.2027 6.49308 -0.200349)
(77.2325 0.887463 -0.54227)
(82.1113 -2.40933 -0.0825289)
(83.691 -3.66187 0.208477)
(83.1108 -3.7822 0.357263)
(78.9145 -1.82157 0.0404011)
(367.252 155.395 -207.014)
(99.9089 58.851 -20.7502)
(123.157 28.0726 16.355)
(11.1835 43.9176 9.28357)
(54.5009 25.4025 8.45154)
(-9.45223 26.9314 -0.626977)
(34.7572 25.0902 -0.0501674)
(55.6432 26.301 -0.027616)
(61.1551 25.3489 -0.122285)
(63.4617 23.0929 -0.111308)
(62.9765 17.6836 -0.127448)
(66.2104 10.527 -0.146459)
(70.531 8.09765 -0.0489796)
(75.4956 7.24817 -0.1419)
(79.1355 5.61258 -0.37753)
(85.3057 -3.08938 -0.195464)
(87.6287 -4.56279 -0.100391)
(88.5262 -4.76852 -0.0153445)
(87.1755 -3.77303 0.228576)
(82.1645 -2.10318 0.0806617)
(190.793 -3.75106 99.8546)
(21.7344 87.9847 5.54101)
(88.0471 99.974 6.59189)
(34.9132 66.9956 5.38565)
(71.4886 35.5788 9.84066)
(14.0918 4.46276 0.641871)
(56.0153 -9.98874 0.340966)
(66.2776 11.336 0.576322)
(68.7763 13.5099 0.818266)
(69.4227 24.7324 0.401338)
(69.1091 20.0756 -0.442373)
(74.8406 11.1269 -0.354043)
(78.0635 6.09387 -0.160798)
(82.2993 2.13257 -0.0501811)
(83.233 -1.33863 0.547579)
(76.5776 -3.79784 0.543574)
(77.0031 -4.22711 0.129329)
(78.1415 -3.76787 -0.227685)
(78.5689 -2.61347 -0.23972)
(76.8093 -1.88415 -0.283962)
(260.118 -66.0337 9.17894)
(64.8666 72.2799 -2.13132)
(115.33 75.2183 10.9232)
(56.587 32.4043 6.72841)
(96.7188 9.0986 4.88918)
(49.8575 -20.7081 -0.378535)
(66.042 -1.44962 -1.89079)
(50.6402 2.22168 0.427663)
(57.0128 2.77582 0.219642)
(54.5071 9.2654 0.510178)
(65.8043 9.01047 0.435213)
(65.6087 6.36083 0.60029)
(67.5094 2.75653 0.481453)
(65.5302 -0.865688 0.286351)
(66.6265 -4.13035 0.166873)
(68.3765 -5.38944 -0.0748242)
(70.3394 -5.48096 -0.121671)
(72.032 -5.5028 -0.125556)
(72.2504 -4.56818 -0.0364481)
(70.4469 -3.1579 -0.31921)
(199.761 196.394 -85.4703)
(87.1728 120.188 -9.40399)
(151.556 69.2601 -0.710404)
(110.172 35.9475 2.08011)
(127.862 22.98 1.70593)
(78.9796 7.77045 -2.1665)
(77.8504 22.6918 -2.55976)
(61.0415 -1.07125 -0.726925)
(67.1986 7.0476 -0.176513)
(62.7463 -1.83419 0.116977)
(68.0613 3.63698 -0.197732)
(66.5185 -0.679731 -0.47482)
(69.1719 -0.278777 -0.291539)
(68.3604 -4.17675 -0.0304464)
(69.5518 -5.17117 0.149341)
(68.8537 -6.5181 0.137743)
(69.6852 -6.22199 0.054361)
(69.4346 -5.73036 -0.00668989)
(68.6479 -3.87048 0.0262293)
(66.0716 -2.04236 -0.282383)
(190.046 134.777 -64.5237)
(198.488 81.7956 -26.759)
(229.38 51.1715 -13.973)
(207.906 40.5635 -11.9957)
(213.465 54.0984 -5.24852)
(169.138 47.0904 -2.36024)
(156.689 40.8524 2.67381)
(128.375 13.6654 1.07751)
(119.988 10.4928 3.5069)
(96.8216 2.51128 2.4113)
(91.0325 5.59988 -0.236909)
(86.432 3.37237 -0.889914)
(86.8366 1.20404 -0.407334)
(82.1193 -3.82596 0.263556)
(76.4462 -5.25922 0.653448)
(69.4884 -6.35505 0.478448)
(66.8323 -5.66883 0.193133)
(65.0091 -5.10924 0.0181183)
(63.8553 -4.07146 0.0302375)
(61.9075 -2.50251 -0.181474)
(188.112 -164.09 97.1907)
(72.0967 37.788 17.2693)
(144.316 83.8787 -0.565603)
(130.891 72.7138 -6.08183)
(168.938 81.4869 -0.903558)
(146.954 59.1148 1.81059)
(157.207 52.1504 2.50171)
(144.045 26.3801 -0.665231)
(145.17 22.633 0.933118)
(127.722 15.3076 1.32204)
(117.872 16.4282 1.52566)
(108.719 9.05016 -0.0594503)
(108.335 7.04172 0.170035)
(101.804 3.16028 1.02593)
(93.3378 2.80741 1.65)
(81.6211 -0.486306 1.15352)
(76.5433 -2.26068 0.730932)
(71.3109 -3.83696 0.40774)
(68.7597 -3.82559 0.241949)
(64.7879 -2.47307 -0.113466)
(215.251 -13.6206 67.1547)
(164.148 26.8955 4.63217)
(162.572 78.6044 6.4708)
(91.2326 52.4216 2.44227)
(127.021 64.0876 3.28841)
(88.3847 40.6415 2.14643)
(117.598 38.4163 2.77668)
(99.9028 23.2579 1.0906)
(110.807 23.7226 1.51138)
(102.201 19.0628 1.21073)
(106.095 16.9083 1.36908)
(103.008 10.9747 0.954745)
(101.063 6.86355 1.77556)
(89.0259 4.8158 1.64185)
(83.6126 5.02906 0.940036)
(76.5187 2.75357 0.431512)
(75.2015 0.794503 0.354911)
(71.4435 -0.763177 0.252376)
(68.9546 -1.72772 0.155429)
(64.2855 -1.23107 -0.183368)
(13.8294 -130.292 56.9668)
(-134.302 48.2416 1.32576)
(73.9611 75.6417 -6.60774)
(-2.27239 49.5665 1.06884)
(84.2016 56.5825 4.29721)
(44.3395 32.8015 1.28175)
(88.5671 30.1889 2.09062)
(72.4713 16.6039 1.63033)
(92.6338 14.6289 2.72408)
(86.8914 9.17825 2.83295)
(94.6387 8.72896 2.77884)
(88.2715 7.11948 1.9941)
(85.4253 11.6383 1.41013)
(75.9707 11.0473 0.623145)
(75.5588 9.66934 0.179784)
(73.6044 5.3607 -0.0327015)
(75.9678 1.80771 -0.159359)
(75.7763 0.318502 -0.24449)
(74.7097 -0.323331 -0.120361)
(70.3666 0.185866 -0.368024)
(-11.0061 -39.8855 60.0611)
(-111.712 -28.2451 -25.8084)
(102.01 43.5854 -9.59673)
(-30.2791 22.1475 2.10835)
(82.9481 28.6566 0.653923)
(34.3156 16.2586 -0.241342)
(89.871 8.90481 -0.109282)
(77.384 1.33475 -0.547685)
(100.493 -2.53302 0.82022)
(95.3869 -4.21398 1.47246)
(100.51 0.660102 3.8418)
(88.0253 7.07891 4.0717)
(83.5175 11.9751 3.40722)
(74.5358 10.6281 2.10782)
(74.379 6.8898 0.640021)
(72.6985 2.53498 0.00577444)
(75.3979 0.695975 -0.319826)
(77.5344 1.508 -0.616355)
(78.5264 1.85019 -0.713158)
(75.9581 2.40804 -0.864035)
(209.177 475.608 -84.2404)
(-237.169 -14.7181 -7.42038)
(110.212 11.404 -23.4326)
(-43.9602 -3.76708 1.22732)
(82.2091 -6.25788 -4.10634)
(42.5377 1.16461 -0.994728)
(92.0325 0.110282 -1.80165)
(82.6012 0.122187 -2.80281)
(105.056 -1.55721 -3.69303)
(105.564 -1.71105 -5.43502)
(119.018 -1.88223 -5.49015)
(125.087 4.45693 -4.54159)
(141.441 9.66592 -0.747908)
(147.14 11.2193 2.32983)
(149.494 9.54553 2.96971)
(145.285 5.48537 3.82315)
(129.938 -0.113634 4.47222)
(113.991 0.98638 3.34786)
(106.877 3.8985 2.07246)
(99.5725 5.98071 1.37738)
(223.815 -112.37 -50.3908)
(81.7839 -50.767 -1.18233)
(158.063 -42.0816 14.2724)
(89.4974 -32.8998 7.70559)
(139.066 -23.6434 4.98553)
(121.526 -13.7201 0.1532)
(135.833 -4.04633 -2.7634)
(123.168 1.6199 -5.04825)
(122.434 3.87221 -5.29881)
(109.554 3.58875 -5.37758)
(107.155 1.88232 -3.72074)
(98.0499 1.625 -1.83025)
(97.98 1.87617 1.28827)
(95.0848 1.59761 1.25231)
(94.9144 0.148627 0.313638)
(93.5888 -0.89947 -0.105133)
(94.5801 -1.57213 -0.175876)
(96.5818 -1.84491 -0.130993)
(97.565 -2.93604 0.0987145)
(96.9827 -3.07075 0.0175154)
(316.772 16.0723 167.956)
(128.901 0.870622 22.7404)
(158.081 30.0773 -12.59)
(75.1887 13.8139 -6.8188)
(122.822 20.0267 -7.55487)
(94.0828 14.3813 -3.99375)
(112.739 16.5382 -2.91283)
(101.862 13.8162 -1.81609)
(108.627 11.6556 -0.190764)
(100.937 8.76459 0.568901)
(101.633 6.11576 1.73139)
(94.9496 5.08213 2.10839)
(94.4583 4.49097 2.74371)
(91.0064 3.89755 1.73867)
(90.6198 1.72635 0.997202)
(88.4068 -0.110495 0.646921)
(89.3154 -1.87377 0.563637)
(89.9611 -2.76137 0.674422)
(90.1009 -4.18683 1.02428)
(86.5974 -4.04102 0.759359)
(151.278 196.187 149.742)
(-27.9434 25.8716 12.7469)
(140.78 25.2546 -11.2949)
(54.6794 -2.69932 -8.10974)
(123.569 -8.66344 -3.79727)
(92.8239 -5.55 -2.20363)
(114.453 -3.65077 -0.209378)
(101.899 3.54057 -0.441164)
(109.25 5.44772 1.21606)
(101.019 8.68585 1.41686)
(101.667 8.20934 2.1168)
(94.9143 8.79838 1.68103)
(94.428 7.25911 1.70859)
(90.5444 5.92091 0.952965)
(90.5799 2.54952 0.683217)
(87.9387 0.164859 0.414041)
(88.2895 -2.28592 0.233685)
(87.7292 -2.88402 0.293547)
(87.0267 -4.06099 0.341258)
(81.7647 -3.8345 -0.2025)
(96.3773 22.167 -265.306)
(-16.1235 37.0734 -37.0141)
(171.299 25.0097 -47.4717)
(108.088 14.4548 -13.1645)
(153.758 19.8405 -8.95884)
(123.242 13.3433 -3.45483)
(128.209 13.5144 -0.675314)
(111.243 14.5095 -0.717718)
(111.429 14.4061 -0.0261837)
(102.406 15.1641 -0.100473)
(101.884 13.3885 0.619147)
(96.5585 12.4954 0.644771)
(96.1577 9.6352 0.839724)
(92.5425 8.08809 0.465296)
(92.113 4.46165 0.48501)
(88.4148 1.81095 0.121935)
(87.9279 -1.13685 -0.215069)
(86.4644 -2.23104 -0.176579)
(85.7683 -3.35512 -0.000749878)
(80.1125 -3.06269 -0.520499)
(-30.7166 -77.1597 62.0067)
(-37.8305 -16.2088 -52.9227)
(155.663 0.618172 -31.9988)
(66.3046 9.19948 1.6054)
(139.98 16.5164 -0.806724)
(93.9424 15.9332 0.10088)
(112.875 12.8187 0.558451)
(93.9769 17.1037 -0.497313)
(100.682 14.4181 -0.159964)
(93.5195 16.7103 -0.507512)
(96.2949 14.0785 -0.119202)
(92.8931 13.9221 -0.138918)
(93.8534 11.0764 0.018571)
(91.3943 9.5481 -0.105918)
(91.8431 6.63835 -0.0669557)
(89.1582 4.13193 -0.163685)
(89.712 0.0605421 -0.14427)
(88.8569 -1.8978 -0.100631)
(88.5073 -2.96964 0.0192686)
(82.6967 -2.50461 -0.560794)
(133.66 -120.986 4.62265)
(-39.6902 -47.4751 -51.2994)
(118.748 -9.81713 -36.5448)
(62.3958 9.09002 -0.132483)
(126.95 15.5106 -3.13516)
(92.4814 24.9191 -1.08365)
(111.518 19.2585 0.355081)
(97.4134 21.4852 -0.349317)
(99.5285 17.4352 0.208869)
(93.1091 17.9088 -0.0606135)
(93.3138 14.8802 0.155972)
(90.5937 14.2109 0.0835182)
(90.9464 11.6053 0.133988)
(89.6308 9.91078 0.0857027)
(90.3893 6.94974 0.0918762)
(89.733 3.75609 0.340875)
(91.2759 -0.446292 0.556693)
(90.6488 -2.18241 0.50031)
(90.0997 -2.50649 0.308432)
(83.9755 -1.50526 -0.591573)
(240.439 62.6466 266.715)
(-72.5436 -14.2384 46.9826)
(137.538 -23.4049 -6.26475)
(29.2318 0.532574 -0.345264)
(118.785 15.2953 -2.28391)
(66.778 28.5979 -1.09706)
(89.2559 12.0572 -0.171924)
(75.9754 27.7543 -0.121418)
(83.992 19.2726 -0.286733)
(79.3767 22.4714 -0.0509504)
(82.5358 16.4284 -0.249739)
(80.7394 15.8896 -0.157126)
(82.7939 11.7497 -0.223789)
(81.7898 9.34735 -0.318889)
(83.1148 5.85336 0.247805)
(82.9885 2.08745 1.23075)
(83.4486 -0.814469 1.628)
(82.3626 -1.72343 1.11959)
(80.8795 -1.19071 0.215106)
(75.5919 -0.255536 -0.87126)
(105.586 14.326 8.26984)
(-55.1372 -0.877993 -8.9927)
(127.167 -28.2244 -27.0586)
(63.3143 8.24928 -9.53245)
(118.747 10.7269 -9.12727)
(79.3165 42.9883 -3.29791)
(87.6511 25.4902 -0.244731)
(72.6392 16.6374 -0.702478)
(73.7348 21.4505 -0.345065)
(72.0693 16.6334 -0.857543)
(75.3088 16.7377 -0.57606)
(76.2402 13.6769 -0.66566)
(78.1626 11.9922 -0.426616)
(78.4136 9.16767 -0.125994)
(74.2757 4.66514 0.743362)
(72.8102 2.24012 1.36078)
(72.6191 0.667992 0.73314)
(71.7879 0.087835 0.0110773)
(70.8917 -0.188176 -0.521352)
(67.61 0.153424 -1.14577)
(93.9917 31.4793 -149.106)
(-48.044 42.0218 -67.3557)
(109.257 19.5253 -40.19)
(15.073 36.4662 -7.4082)
(69.0896 38.0093 -5.95952)
(48.0023 43.8642 -3.72673)
(67.3121 44.8715 -2.2511)
(65.2296 27.1934 -0.567779)
(66.0311 23.2927 -0.513559)
(65.4064 16.4497 -0.489122)
(67.5653 14.654 -0.582779)
(69.0801 12.2935 -0.653743)
(71.2571 10.6524 -0.446842)
(72.4013 8.48512 -0.108186)
(69.6148 6.13319 0.87394)
(66.2001 3.63409 0.696899)
(67.3865 0.964797 0.325658)
(68.5268 -0.724664 -0.0738031)
(68.2766 -1.15583 -0.234732)
(65.2499 -0.527151 -0.807716)
(36.0877 233.588 54.2977)
(-129.85 61.0888 -20.8977)
(58.0838 -1.09227 -37.4582)
(-33.8246 36.2533 -2.90839)
(60.3767 25.2035 -4.43122)
(23.4385 29.9766 -2.85105)
(49.6498 36.7389 -2.67432)
(60.7157 27.1462 -0.807198)
(62.2079 22.4954 -0.347144)
(61.4891 17.4834 0.232752)
(60.8944 14.1569 -0.0149295)
(61.1474 11.6914 0.150583)
(62.025 9.71159 0.0732762)
(62.885 7.7698 -0.0170535)
(64.9223 4.95657 -0.178932)
(69.597 0.232183 -0.546819)
(71.8796 -1.1656 0.174132)
(72.6027 -1.65892 0.400299)
(71.7912 -1.48472 0.527287)
(67.8135 -0.345746 -0.213107)
(85.9008 -10.279 265.391)
(-87.0834 45.8925 36.9587)
(46.6885 36.5425 -10.571)
(-46.7575 47.2808 0.144484)
(45.7125 24.6904 4.95104)
(-1.0028 21.8808 1.07131)
(34.1483 19.0738 1.67471)
(50.9724 19.9224 1.39369)
(56.217 20.181 0.24302)
(57.8141 18.1027 -0.212739)
(58.6887 14.3192 -0.089377)
(61.4212 10.109 -0.742715)
(65.2214 7.73817 -0.537232)
(68.9531 5.69017 -0.590564)
(71.7501 1.69578 -0.619264)
(73.8075 -2.81961 -0.47639)
(74.6399 -2.51768 -0.188656)
(74.9034 -2.01482 0.0354204)
(73.6484 -0.857666 0.408734)
(70.0197 -0.23192 -0.0995345)
(75.4431 -35.7454 20.193)
(-84.5122 58.4875 -5.15828)
(35.8125 64.6073 -10.4232)
(-38.7026 37.8834 3.91292)
(55.067 20.1519 7.20901)
(15.5243 0.276713 0.760483)
(49.0461 -8.97128 3.46279)
(55.5648 9.61631 4.71944)
(58.3978 14.6078 3.32644)
(61.0464 17.6552 1.19884)
(62.81 12.1031 -0.748601)
(64.3716 7.07846 -0.565226)
(66.547 3.59946 -0.113451)
(68.9615 1.11945 0.474085)
(69.6695 -1.81652 1.0398)
(66.0973 -2.53615 0.404144)
(67.3577 -2.26465 -0.116958)
(68.2582 -1.72259 -0.389294)
(68.1126 -0.921683 -0.234837)
(66.1317 -0.353357 -0.57295)
(120.044 113.027 135.777)
(-76.4108 46.2072 11.8383)
(86.8457 55.6428 4.54986)
(13.2359 24.4772 4.63191)
(80.3321 6.8833 4.43174)
(22.8656 -20.5903 -0.989474)
(44.3077 5.81081 -0.513798)
(30.8299 7.05463 1.92781)
(44.8606 6.9802 1.02188)
(43.4023 7.88226 1.36641)
(53.6472 5.71689 0.961217)
(53.5479 3.16423 1.25447)
(57.3885 0.383117 0.953889)
(56.9052 -1.86866 0.829149)
(57.3767 -3.29065 0.166995)
(59.0602 -3.86415 -0.130468)
(60.7866 -3.4455 -0.189021)
(62.3954 -3.31084 -0.201048)
(62.4708 -2.43354 -0.0961514)
(60.8354 -1.47673 -0.75497)
(257.347 -105.244 61.2357)
(85.2551 45.03 12.8825)
(134.7 58.9984 13.7717)
(77.9559 40.6703 3.77909)
(104.295 25.9249 0.238041)
(51.1063 7.16114 -4.66399)
(59.0937 24.748 -2.70943)
(41.1327 -3.59731 -1.02539)
(50.9748 7.3336 0.28908)
(46.9266 -3.12414 0.458915)
(53.4578 2.60888 -0.0143191)
(51.7982 -2.13693 -0.322377)
(54.9914 -1.01308 -0.118674)
(54.5838 -4.45841 0.20999)
(56.4065 -4.3721 0.348049)
(56.6158 -5.32202 0.305432)
(58.1453 -4.52549 0.0986347)
(58.8174 -3.89095 -0.0483606)
(58.672 -2.34519 -0.00195787)
(56.9088 -1.28322 -0.704962)
(389.462 67.0138 110.281)
(228.039 47.0045 13.2981)
(206.086 66.4193 4.13681)
(130.144 57.2239 -5.65491)
(138.75 59.0522 -1.90377)
(86.6982 29.5313 -1.91936)
(100.365 24.1928 4.34883)
(80.8211 6.34438 1.90645)
(82.196 7.17428 4.49278)
(72.4958 0.417271 3.04192)
(70.9339 1.95374 0.492627)
(65.977 -1.50802 -0.532574)
(65.2497 -1.74115 0.0732296)
(62.1508 -4.75738 0.729489)
(60.7011 -4.84242 1.0614)
(57.3036 -5.4673 0.83795)
(56.8469 -4.73757 0.286107)
(56.3953 -4.25703 0.0663396)
(55.7362 -3.24189 0.0940095)
(54.2874 -1.93837 -0.470384)
(103.403 -25.7659 121.219)
(6.71628 37.6648 4.16584)
(114.416 84.7047 -5.05257)
(64.7889 63.2974 -5.9756)
(112.631 67.4914 3.73049)
(83.8237 35.6052 4.13505)
(107.058 34.3406 4.20985)
(88.2091 14.4395 -0.380931)
(94.9508 17.8571 2.56053)
(81.9509 9.82003 2.05415)
(83.5177 9.00945 2.46242)
(76.9304 2.5476 0.7377)
(76.7629 1.77258 0.909583)
(71.2657 -0.951963 1.59095)
(68.6026 -0.201229 2.4173)
(63.3624 -2.2193 1.66241)
(62.1613 -2.89762 1.00431)
(60.1114 -3.56721 0.5405)
(58.7447 -3.16974 0.340342)
(56.0288 -1.95686 -0.374813)
(276.981 31.8702 -93.9573)
(90.1313 80.2814 -3.32491)
(143.541 100.171 8.19951)
(51.6236 59.4973 5.14717)
(102.08 61.6081 7.45713)
(49.4832 29.8944 3.28383)
(87.0366 28.9137 5.24234)
(63.8741 13.9481 1.99402)
(80.6462 15.5729 3.07569)
(72.0012 9.93038 2.10151)
(78.767 8.53651 2.39532)
(73.6795 3.85845 1.5779)
(73.716 3.5512 2.40486)
(67.4257 2.46002 2.04259)
(65.6288 2.38407 1.41322)
(61.5703 0.250295 0.679337)
(61.6106 -1.01515 0.355076)
(60.5466 -1.79182 0.16608)
(59.3925 -2.04216 0.1602)
(56.3457 -1.30029 -0.59023)
(-121.3 157.229 -72.2663)
(-179.251 102.657 3.40034)
(43.5468 100.763 -8.46199)
(-50.2049 58.1325 3.21348)
(70.4737 54.8269 6.09049)
(20.804 26.7987 2.28902)
(73.7421 24.5473 3.60765)
(53.8098 12.69 2.30116)
(77.5292 13.0958 4.42021)
(69.4939 8.67377 4.02143)
(77.5863 8.67073 4.13663)
(69.5245 6.92152 2.62625)
(68.9406 9.04546 1.96579)
(63.0171 7.58128 0.763984)
(63.5414 5.80702 0.243971)
(62.3659 1.66383 -0.111983)
(65.1631 -0.715498 -0.314682)
(65.4952 -1.57198 -0.482685)
(65.222 -1.54841 -0.313373)
(62.2875 -0.597635 -0.86127)
(3.76415 62.6908 76.8191)
(-106.644 -22.3415 1.97403)
(74.8896 43.0445 -7.29658)
(-49.4212 20.4414 10.6186)
(74.0603 20.8337 2.37152)
(18.4707 11.3816 0.951715)
(75.6746 6.17513 0.36198)
(55.1499 2.98949 -1.30528)
(78.8228 2.83543 1.21897)
(69.6361 5.05731 1.53433)
(78.6363 8.56262 4.42656)
(72.0357 10.8991 3.39749)
(73.5425 10.9839 3.11377)
(69.145 8.43781 1.2725)
(70.9385 4.24645 0.187336)
(70.5373 -0.554189 -0.413267)
(73.7184 -2.50173 -0.512469)
(74.6233 -1.78876 -1.1595)
(74.9947 -1.06878 -1.52512)
(72.0757 0.128764 -1.91718)
(169.2 232.528 -33.0822)
(-118.175 6.00898 16.2231)
(88.7052 27.8712 -11.4486)
(-25.8348 4.3517 1.66329)
(80.9351 -6.82906 -10.9503)
(42.5864 -1.35277 -4.8799)
(87.5543 -1.02041 -4.95105)
(73.112 3.00603 -5.1439)
(92.5782 5.38479 -4.38393)
(87.3401 8.28508 -4.15815)
(97.0067 10.7729 -1.70973)
(99.2361 16.5814 -0.454825)
(111.821 18.2016 1.0432)
(125.409 16.6858 2.78543)
(134.875 8.85829 4.56132)
(131.833 2.82121 7.18322)
(122.93 -1.59463 8.58622)
(113.958 -0.629476 6.57452)
(110.033 1.21967 4.69301)
(104.188 2.58488 3.2719)
(146.394 76.4433 -27.4673)
(-4.29705 -8.06528 18.2298)
(146.434 -30.3107 5.81148)
(81.5203 -22.7682 2.81067)
(136.736 -16.0498 -0.756476)
(115.778 -8.37895 -2.74014)
(128.049 -1.44426 -4.73447)
(109.341 1.78378 -5.95387)
(106.787 2.06023 -4.71372)
(90.0097 0.907048 -4.81729)
(88.4899 -1.03272 -3.07497)
(80.362 -1.27655 -2.27849)
(82.2887 -1.38615 0.36278)
(81.2195 -1.22106 0.567362)
(82.8677 -1.7797 0.338715)
(82.7419 -1.84793 0.210953)
(84.2525 -2.29393 0.14883)
(86.3879 -2.27798 0.0434553)
(87.3033 -3.25254 0.497048)
(87.0043 -3.27162 0.453318)
(224.474 87.5283 -6.26971)
(109.104 20.684 -8.30304)
(167.916 34.5823 -18.4388)
(80.0447 17.8423 -12.3874)
(119.466 22.416 -11.8812)
(85.3639 15.5885 -6.16867)
(103.02 16.6398 -3.91079)
(87.3848 12.4801 -2.21655)
(93.4751 9.59735 -0.124436)
(83.1408 6.48024 0.304172)
(84.5162 3.91077 1.37088)
(77.9076 3.08965 1.48733)
(78.8903 2.35518 2.05073)
(76.3226 1.89617 1.17154)
(76.6152 0.330697 0.816999)
(75.1245 -0.604734 0.486858)
(75.8261 -1.76422 0.387591)
(76.1732 -2.29195 0.416149)
(75.9784 -3.35626 0.760264)
(72.5135 -2.9727 0.337988)
(58.2318 109.932 55.6881)
(-41.8267 22.599 7.80635)
(134.535 23.5736 -15.9877)
(47.3593 3.24174 -6.66596)
(113.713 -1.86838 -4.31817)
(77.1436 0.448927 -2.30892)
(100.023 1.07538 -0.326535)
(83.4893 6.72698 -0.594693)
(91.6487 6.70805 0.97599)
(81.8574 8.72537 0.921786)
(83.9725 6.91244 1.68862)
(77.6048 6.95018 1.20143)
(78.2941 4.96584 1.36288)
(75.0068 3.85967 0.665326)
(75.2123 1.29248 0.618296)
(73.1594 -0.0761174 0.372721)
(73.4776 -1.57299 0.203637)
(72.9992 -1.88816 0.196462)
(72.2623 -2.9419 0.266664)
(67.3256 -2.54087 -0.4744)
(94.801 21.0874 -91.3267)
(74.0941 6.77802 -48.7098)
(184.605 4.47081 -43.8309)
(110.909 6.20812 -15.0361)
(140.449 16.3867 -8.4546)
(102.187 13.2148 -2.69014)
(109.359 14.326 0.37963)
(91.3038 15.5018 -0.449089)
(93.6316 14.6088 0.200808)
(83.9843 14.9403 -0.133527)
(84.447 12.4006 0.522853)
(78.976 11.1851 0.458078)
(79.104 8.33506 0.735278)
(75.7915 6.7196 0.386391)
(75.6259 3.55563 0.418544)
(72.9196 1.57006 0.19464)
(72.8888 -0.613276 -0.122431)
(71.8356 -1.19812 -0.130046)
(71.0865 -2.15107 0.00883361)
(65.6007 -1.74128 -0.753679)
(77.6963 -115.059 88.4384)
(18.7738 -30.715 -77.7645)
(151.369 -9.44017 -37.1761)
(61.492 7.68159 -0.811755)
(127.79 18.6455 -1.62061)
(77.0531 18.3996 0.259288)
(98.3572 14.4747 0.895658)
(77.0876 18.4561 -0.557047)
(85.0615 14.5236 -0.0666667)
(76.3455 16.5623 -0.510304)
(79.5359 13.0292 -0.0409034)
(75.3132 12.778 -0.132102)
(76.4945 9.50587 0.0515813)
(73.8994 7.91819 -0.0759735)
(74.4894 5.05936 -0.0133728)
(72.4338 2.71234 -0.0478026)
(73.2712 -0.238523 -0.0997915)
(72.7882 -1.10428 -0.0468726)
(72.4297 -1.70088 0.0577025)
(66.7 -1.06644 -0.826438)
(202.011 -166.537 -125.482)
(6.92567 -76.4372 -40.4574)
(123.571 -13.4913 -33.3243)
(56.1585 12.9893 -3.25486)
(114.189 21.598 -3.86221)
(74.2347 29.5381 -1.13547)
(95.8413 20.8722 0.580977)
(79.6402 22.9307 -0.418924)
(83.135 17.4768 0.226384)
(75.9731 18.0405 -0.0969927)
(76.7307 14.221 0.174411)
(73.6233 13.5086 0.0857873)
(74.1518 10.3879 0.180377)
(72.6697 8.53996 0.125964)
(73.4194 5.13863 0.156397)
(72.7299 2.31896 0.347542)
(73.928 -0.615132 0.440623)
(73.6177 -1.2697 0.403672)
(73.1864 -1.00628 0.22596)
(67.3326 0.0290193 -0.90743)
(132.305 -165.904 155.546)
(-46.5809 -13.9791 -0.583913)
(128.551 -20.6421 -25.9445)
(26.7921 3.84732 -3.51968)
(108.424 18.2421 -5.44974)
(51.2665 30.9049 -1.74392)
(75.8451 12.7774 -0.477963)
(60.4794 29.1917 -0.231355)
(69.4075 18.7721 -0.264153)
(64.0465 22.1979 -0.0061825)
(67.6125 15.3498 -0.156558)
(65.422 14.9847 -0.0606006)
(67.4553 10.3153 -0.0485486)
(66.1514 8.11367 -0.125753)
(67.1491 4.70735 0.240884)
(67.089 1.89401 0.980222)
(68.2978 -0.0235865 1.2031)
(68.1145 -0.415303 0.781345)
(67.3617 0.329855 0.0866569)
(62.4438 0.94775 -1.16528)
(336.422 -2.73398 23.1791)
(158.199 -8.67916 -17.1337)
(169.334 -23.3142 -35.7031)
(82.1121 11.9157 -14.5083)
(112.191 16.7982 -12.5554)
(65.8646 46.389 -4.26202)
(73.8129 24.9005 -0.93855)
(59.6324 20.8733 -0.607379)
(61.3162 20.6139 -0.507888)
(59.8196 17.4724 -0.654812)
(62.6873 15.8963 -0.554517)
(62.9946 13.185 -0.564799)
(64.5904 10.8414 -0.402256)
(64.4748 8.07087 -0.0520805)
(61.1737 3.88533 1.00107)
(60.9217 2.31158 1.17054)
(61.6714 1.03601 0.532824)
(61.4919 0.714865 -0.0345951)
(60.6427 0.707479 -0.470623)
(56.9866 0.831007 -1.28397)
(448.034 116.917 -88.1051)
(132.149 62.164 -60.9806)
(130.922 25.6111 -40.7379)
(23.4549 35.606 -10.6524)
(62.3803 38.373 -7.56924)
(38.6716 46.2556 -4.15067)
(54.2209 41.8655 -3.10337)
(52.7273 25.3498 -0.361425)
(55.2509 21.6399 -0.344797)
(54.8663 15.865 -0.330402)
(57.2726 14.2599 -0.514047)
(58.274 11.6164 -0.561757)
(60.0429 9.82022 -0.35801)
(60.6894 7.69667 0.119966)
(59.2732 5.07128 1.01386)
(57.4633 3.3226 0.898904)
(58.4224 1.25777 0.386017)
(59.1255 0.0148552 0.0796542)
(58.5145 -0.240904 -0.0817185)
(55.2481 0.0619859 -0.959667)
(151.67 77.5855 189.136)
(24.5761 23.7865 -6.62911)
(81.8503 -5.85203 -34.5508)
(-13.9946 30.5383 -7.37723)
(51.8168 23.6508 -6.41362)
(19.2736 30.2642 -2.04043)
(42.3944 34.3027 -2.04422)
(50.4858 23.647 -0.385007)
(52.1359 19.3825 -0.1473)
(52.1935 15.398 0.00127338)
(52.8697 12.5294 -0.280479)
(53.6542 10.3145 -0.139889)
(54.9825 8.42151 -0.193514)
(56.3272 6.56048 -0.163754)
(57.651 4.00232 0.0402769)
(59.246 0.969573 0.361661)
(60.5561 0.141169 0.56479)
(61.1342 -0.278312 0.511035)
(60.3636 -0.159151 0.504116)
(56.904 0.329665 -0.402343)
(202.92 -33.3717 -162.822)
(82.7997 12.578 -34.6793)
(79.871 39.1743 6.62762)
(-36.312 47.2078 4.56469)
(34.4846 24.4375 3.29495)
(-1.77283 19.3693 3.36972)
(30.322 16.9451 2.85075)
(45.2997 17.2666 2.36589)
(49.7415 17.2753 0.668127)
(51.5678 15.2475 -0.218839)
(53.5206 12.9518 1.32959)
(55.9325 8.50776 -0.250839)
(58.1319 6.67447 -0.557237)
(60.6621 4.01028 -0.590894)
(62.0867 0.372684 -0.174778)
(61.5987 -1.41968 0.244494)
(61.9677 -0.598599 0.235525)
(62.2279 -0.279884 0.188023)
(61.2158 0.429216 0.379801)
(58.3333 0.499778 -0.291078)
(9.83051 -47.5066 -25.1956)
(-52.5202 50.722 -8.29277)
(11.9852 59.9439 -0.643484)
(-55.4869 32.7634 4.2507)
(38.2982 17.7028 3.36484)
(3.32309 -2.20287 3.29681)
(37.368 -3.48525 3.81344)
(42.9282 13.0172 4.84871)
(47.3607 15.6959 2.8496)
(50.4667 14.085 0.928814)
(52.6739 8.9482 -0.354537)
(53.9793 5.40451 -0.258894)
(56.4916 2.84863 0.163863)
(58.8362 0.829872 0.64904)
(58.9378 -1.3345 0.997213)
(55.9507 -1.25499 0.671461)
(57.2559 -0.788967 0.00231744)
(58.0626 -0.482128 -0.250821)
(57.6866 0.082218 -0.0894071)
(55.7093 0.328287 -0.685053)
(71.2096 94.441 -118.593)
(-61.3878 12.5426 -13.7658)
(62.8917 45.3987 -9.94202)
(-12.1059 17.184 0.602631)
(67.3549 4.3675 1.35655)
(4.45029 -19.0822 -0.780982)
(28.1989 13.747 0.557012)
(18.5876 9.7261 1.6201)
(35.2032 9.82144 1.2924)
(34.2216 7.34891 1.39758)
(43.8729 4.97435 0.896704)
(43.9276 2.3189 1.13239)
(48.3085 0.26719 0.862637)
(48.2872 -1.56066 0.824841)
(48.5158 -2.01412 0.477331)
(50.3411 -2.50973 -0.0430102)
(51.9453 -1.92575 -0.171133)
(53.4423 -1.90605 -0.228407)
(53.2834 -1.20364 -0.0956806)
(51.7471 -0.667478 -0.887517)
(127.028 51.9242 127.393)
(-11.8502 40.7006 17.6671)
(107.752 49.4387 12.9448)
(49.2134 30.1826 1.32816)
(87.4103 20.2551 -0.990781)
(29.2468 4.51909 -4.38908)
(45.4902 26.883 -1.53816)
(25.7474 -4.59966 -1.22612)
(39.0975 9.31844 0.28286)
(34.6137 -2.85519 0.423112)
(42.2696 3.4152 -0.0154056)
(40.3926 -2.02236 -0.0333628)
(44.1659 -0.320558 0.0917872)
(44.0085 -3.62599 0.269685)