/*--------------------------------*- C++ -*----------------------------------*\
  =========                 |
  \\      /  F ield         | OpenFOAM: The Open Source CFD Toolbox
   \\    /   O peration     | Website:  https://openfoam.org
    \\  /    A nd           | Version:  10
     \\/     M anipulation  |
\*---------------------------------------------------------------------------*/
FoamFile
{
    format      ascii;
    class       volVectorField;
    location    "7.9";
    object      U_0;
}
// * * * * * * * * * * * * * * * * * * * * * * * * * * * * * * * * * * * * * //

dimensions      [0 1 -1 0 0 0 0];

internalField   nonuniform List<vector> 
12920
(
(118.756 -101.374 154.25)
(54.3229 -28.2747 -12.2223)
(172.026 -34.8593 -5.27869)
(103.445 -39.8802 1.16052)
(138.799 -34.0494 2.46195)
(122.918 -24.3732 0.532914)
(140.069 -13.0947 -1.08811)
(135.538 -1.16296 -3.58008)
(144.329 5.81194 -4.82306)
(142.75 9.86016 -5.45726)
(145.99 10.8524 -4.81615)
(142.914 12.3644 -3.05651)
(133.65 11.6213 1.41426)
(114.541 8.21785 1.65929)
(108.291 4.31472 0.284239)
(103.563 2.63591 -0.253978)
(103.59 1.78609 -0.311465)
(103.759 1.68649 -0.279508)
(103.245 0.946625 -0.258877)
(100.946 0.872345 -0.355337)
(133.604 6.06501 7.66155)
(-10.5052 -28.3336 -31.1813)
(141.778 29.2275 -23.0755)
(64.6122 10.339 -6.44537)
(119.884 16.0998 -4.65363)
(94.5736 11.7094 -2.88233)
(115.405 15.5486 -2.54058)
(111.07 14.883 -1.74499)
(121.713 14.6878 -0.730412)
(119.666 13.5896 0.0718033)
(121.383 11.5327 1.07212)
(115.369 11.2171 1.74912)
(111.728 10.6501 2.46957)
(103.417 9.22516 1.54201)
(101.635 5.59604 0.644058)
(98.0816 2.75039 0.477822)
(99.403 -0.441013 0.469088)
(100.105 -2.29274 0.665032)
(99.8201 -4.73783 0.925765)
(95.0686 -4.93009 0.907976)
(209.106 142.215 -16.6128)
(13.3561 -20.6059 12.9118)
(136.527 0.64481 8.05966)
(61.8472 -16.8108 0.785285)
(125.876 -18.4524 0.836079)
(100.705 -13.055 -0.472956)
(123.006 -10.1896 -0.365141)
(115.336 -1.96806 -0.328533)
(122.829 1.92773 0.748148)
(116.122 6.80725 1.11401)
(115.502 9.07618 1.71825)
(107.849 11.3768 1.53598)
(106.487 10.82 1.39627)
(102.192 9.57632 0.878611)
(102.619 5.94621 0.544807)
(100.232 1.9489 0.299864)
(101.697 -2.53824 0.167073)
(101.032 -4.08998 0.235845)
(99.8606 -5.72807 0.197786)
(93.3298 -5.71546 -0.0149441)
(97.6244 -250.066 60.5455)
(-141.603 6.47282 -16.6815)
(156.956 30.029 -26.2308)
(92.2466 5.88112 -5.05979)
(152.257 12.5886 -2.66978)
(127.799 7.74629 -0.995486)
(135.527 10.1298 -0.561488)
(122.872 11.7525 -0.795884)
(124.186 12.053 -0.478355)
(117.128 13.0609 -0.275863)
(116.463 11.7233 0.325164)
(111.489 11.6387 0.484048)
(110.912 9.45967 0.60441)
(107.536 8.32025 0.396246)
(107.535 5.10324 0.380412)
(103.692 2.23362 0.0841418)
(102.539 -1.86214 -0.190116)
(100.402 -3.7662 -0.170151)
(99.0071 -5.28915 -0.128872)
(92.354 -5.21479 -0.275364)
(-82.2178 14.9827 53.3056)
(-120.928 2.87196 -34.5367)
(170.407 -0.585098 -14.6888)
(61.6937 -6.83999 0.563895)
(141.806 1.01447 0.000531332)
(98.1862 3.79007 0.122907)
(118.634 4.14698 0.0283114)
(103.686 11.0717 -0.347662)
(111.973 10.6829 -0.288212)
(107.831 14.1655 -0.440723)
(111.715 12.8784 -0.263257)
(109.964 13.377 -0.204564)
(111.598 11.3601 -0.0940172)
(110.187 10.3503 -0.122391)
(110.846 7.83962 -0.0892713)
(108.344 6.27293 -0.190886)
(108.338 2.07153 -0.189597)
(106.384 -1.81467 -0.15162)
(105.276 -4.46486 -0.139213)
(98.3386 -4.64687 -0.304024)
(-132.104 4.8212 48.2441)
(-218.151 -34.8991 -48.7051)
(132.686 -25.9715 -33.2611)
(71.3652 -5.273 -2.27753)
(139.716 1.90506 -2.11581)
(107.074 13.8293 -0.992219)
(123.898 11.4255 -0.240447)
(111.812 14.8864 -0.320995)
(113.308 12.837 0.0535355)
(108.197 13.8995 0.00804496)
(108.603 12.0792 0.0978573)
(106.993 12.0692 0.055364)
(107.698 10.355 0.0601832)
(107.495 9.5286 -0.0111557)
(108.613 7.7769 -0.0829924)
(108.546 5.81257 -0.027734)
(110.904 1.55809 0.260843)
(109.801 -2.06497 0.382564)
(108.281 -3.92709 0.205646)
(100.766 -3.8139 -0.183889)
(440.162 14.4331 -102.286)
(50.5817 -33.4432 17.1972)
(157.02 -42.2318 3.40342)
(43.7858 -11.4075 -0.605804)
(127.506 4.66104 -0.089189)
(78.8874 19.7079 -0.27777)
(99.5329 5.1413 0.0445168)
(88.4862 21.1192 -0.112226)
(96.6348 14.6255 -0.279253)
(93.2064 18.4242 -0.114196)
(96.6655 13.6349 -0.288313)
(95.6039 13.7198 -0.231662)
(97.8605 10.5212 -0.34023)
(98.0107 8.93448 -0.505215)
(100.386 6.77429 -0.204066)
(100.191 3.12343 0.653684)
(99.0711 -1.3314 1.31399)
(94.2552 -3.28726 1.04068)
(90.7847 -3.51622 0.248598)
(84.2302 -2.90887 -0.355979)
(300.027 89.636 129.647)
(24.3273 23.3773 20.0159)
(144.705 -34.9415 -10.47)
(77.622 -6.85007 -4.97491)
(133.973 -5.98233 -4.29744)
(94.7534 30.6071 -2.4149)
(100.44 20.8631 -1.01282)
(79.0008 6.10571 0.0172951)
(79.9613 17.768 -0.0283987)
(77.1842 11.4686 -0.291631)
(82.9873 14.7669 -0.250718)
(85.4483 11.8498 -0.300635)
(88.856 11.7447 -0.268416)
(90.4337 9.71068 -0.120596)
(87.1559 5.36026 0.66913)
(83.0399 2.65127 1.20223)
(79.9674 0.301976 0.670714)
(78.0662 -0.94368 0.102614)
(76.369 -1.78605 -0.365462)
(72.8746 -1.47355 -0.705517)
(-6.28154 88.9227 48.8762)
(-134.695 74.1553 -21.5816)
(118.292 19.1813 -21.4741)
(21.3141 36.5344 -3.43524)
(78.4929 33.5027 -2.21861)
(50.8902 35.8527 -1.46933)
(73.072 42.2191 1.64216)
(72.2447 24.1613 -0.847661)
(74.7365 21.4217 -0.202362)
(74.3773 13.5749 -0.193507)
(76.3702 12.4485 -0.0622364)
(78.7569 11.2078 -0.197107)
(81.9867 10.6404 -0.16649)
(84.5848 8.93826 -0.142133)
(81.3651 7.32868 0.434341)
(70.8421 3.9708 0.665934)
(71.583 0.434482 0.274326)
(73.1914 -1.96197 -0.0793348)
(73.3297 -2.64877 -0.224369)
(70.0098 -1.51618 -0.41208)
(-16.2403 -110.032 39.5544)
(-176.35 29.5801 -9.65252)
(81.6031 -24.5233 -16.3277)
(-35.0378 32.3292 -0.146635)
(71.8147 22.9295 -0.217684)
(18.9096 24.9647 -2.10316)
(53.919 33.7996 -1.15353)
(71.8286 27.9883 -0.481221)
(74.0669 24.1789 -0.238546)
(71.5462 18.7433 0.141044)
(66.5407 14.1897 0.009686)
(65.0172 11.8905 0.0596429)
(63.7496 10.2784 0.043985)
(62.7832 8.45607 -0.0271867)
(66.274 5.62356 -0.262024)
(74.7081 0.208641 -0.566692)
(79.5695 -2.90666 -0.103153)
(80.7886 -3.98357 0.205312)
(79.444 -3.94084 0.339695)
(73.593 -1.7703 -0.00440567)
(373.497 106.034 -235.999)
(120.143 44.1122 -20.147)
(127.58 20.2488 14.7746)
(12.9303 37.413 9.27548)
(54.6289 20.1613 8.0633)
(-10.3508 22.3408 -0.523847)
(33.5774 20.9019 0.0467845)
(53.3209 23.1613 -0.035252)
(58.6266 22.8303 -0.136132)
(60.6531 21.0344 -0.125879)
(60.1515 15.9219 -0.160678)
(63.4196 9.18171 -0.144911)
(67.6461 7.05111 -0.0378568)
(72.5722 6.36611 -0.129822)
(76.4368 4.97715 -0.433312)
(82.8817 -3.55668 -0.228922)
(85.2151 -4.88081 -0.121158)
(85.7693 -4.96142 -0.0285527)
(83.6396 -3.82913 0.210217)
(76.8947 -2.04137 0.0275387)
(223.406 2.81095 122.537)
(58.5464 90.4328 7.69765)
(95.6392 100.275 6.40599)
(37.4698 64.475 5.71414)
(73.1587 32.8307 9.56347)
(14.7737 1.01417 0.517691)
(55.0039 -12.2987 0.349155)
(64.3638 9.32341 0.552473)
(66.4766 11.6253 0.845996)
(67.0024 22.9544 0.393577)
(66.7006 18.561 -0.456923)
(72.3445 9.88348 -0.349234)
(75.3859 5.11005 -0.159277)
(79.5548 1.34494 -0.0637361)
(80.6625 -2.07545 0.485743)
(74.2055 -3.96975 0.506697)
(74.6625 -4.38788 0.0992033)
(75.4728 -3.83474 -0.237429)
(75.1602 -2.60874 -0.250017)
(71.5511 -1.81103 -0.314242)
(257.104 -6.57431 24.9885)
(76.9069 78.7804 -1.00176)
(118.144 74.581 10.2964)
(56.9606 30.1554 6.69072)
(97.1877 7.38342 4.87623)
(48.6951 -22.2838 -0.375599)
(65.1751 -2.67335 -1.80663)
(48.6954 1.00239 0.318055)
(54.7605 1.4391 0.107368)
(52.3478 8.13121 0.489737)
(63.5916 7.92594 0.431355)
(63.2048 5.3525 0.594)
(65.0715 1.97508 0.499025)
(63.1928 -1.21458 0.269306)
(64.1994 -4.09426 0.0971405)
(65.9185 -5.48742 -0.0957194)
(67.9818 -5.5974 -0.13207)
(69.423 -5.55485 -0.131139)
(68.896 -4.55408 -0.0604794)
(65.1474 -3.07363 -0.355541)
(192.62 196.874 -83.3211)
(83.1783 116.843 -8.20968)
(154.282 68.8964 -0.559319)
(111.817 35.5998 2.33137)
(129.193 22.2448 1.73137)
(78.4003 6.87075 -2.3009)
(76.806 21.6732 -2.59554)
(59.2536 -2.05607 -0.760741)
(65.4177 6.45174 -0.244791)
(60.7417 -2.40511 0.0837166)
(66.0235 3.25388 -0.220135)
(64.3924 -1.02541 -0.475389)
(66.9793 -0.542766 -0.288495)
(66.0301 -4.46785 -0.0500143)
(67.105 -5.48241 0.136917)
(66.4501 -6.71704 0.131712)
(67.3872 -6.33817 0.0488303)
(66.864 -5.77661 -0.0184387)
(65.3341 -3.84817 -0.00157707)
(60.736 -1.95554 -0.326793)
(211.605 127.826 -60.247)
(225.607 79.4205 -22.5702)
(235.211 50.2625 -13.3566)
(207.658 40.3726 -12.0812)
(213.05 53.8388 -5.07661)
(166.983 46.1611 -2.22937)
(154.858 39.4016 2.72167)
(126.586 12.4728 0.996736)
(117.954 9.65674 3.49143)
(94.6725 1.97661 2.32926)
(88.9276 5.22675 -0.359997)
(84.2646 3.03968 -0.975746)
(84.5794 0.856603 -0.442215)
(79.7181 -4.21773 0.290964)
(74.0275 -5.53303 0.669261)
(67.1203 -6.53548 0.478737)
(64.5421 -5.78026 0.185867)
(62.4722 -5.16052 0.00722953)
(60.6016 -4.06012 -0.00254285)
(56.5304 -2.42729 -0.237024)
(179.511 -125.224 99.1643)
(73.1689 53.924 18.8854)
(145.244 90.9249 -0.833018)
(131.113 75.043 -6.08076)
(168.96 81.66 -0.803743)
(145.967 57.9097 1.82633)
(156.407 50.6658 2.46235)
(142.831 24.782 -0.727995)
(143.671 21.5201 0.952478)
(125.706 14.4806 1.30954)
(115.778 15.7574 1.47656)
(106.635 8.59735 -0.154299)
(106.112 6.75554 0.120811)
(99.4032 2.9935 0.991686)
(90.8844 2.71896 1.62682)
(79.2346 -0.567768 1.15599)
(74.2685 -2.33367 0.733669)
(68.7964 -3.88826 0.399443)
(65.5444 -3.8103 0.21802)
(59.3767 -2.42142 -0.17503)
(219.157 11.8213 51.0511)
(158.938 38.9465 3.99489)
(156.065 82.163 6.98133)
(82.5009 53.6998 2.41242)
(122.925 63.0794 3.36457)
(85.178 39.3209 2.11875)
(115.829 37.0843 2.74494)
(98.2744 22.0886 1.04735)
(109.257 22.7904 1.50333)
(100.576 18.246 1.2144)
(104.401 16.2178 1.381)
(101.144 10.3731 0.974145)
(98.9939 6.48735 1.79826)
(86.7118 4.61836 1.62542)
(81.2555 4.91434 0.913876)
(74.1794 2.70326 0.394251)
(72.9264 0.771629 0.348868)
(68.947 -0.783669 0.261165)
(65.7645 -1.71359 0.146773)
(58.8384 -1.21878 -0.231525)
(9.29193 -132.38 44.2849)
(-152.883 52.7745 1.36143)
(64.8451 73.8894 -4.87419)
(-6.04457 49.0625 1.07298)
(81.5228 54.5978 4.10379)
(43.4028 31.6311 1.20584)
(87.7318 29.196 2.02171)
(71.3296 15.7701 1.5711)
(91.3966 13.9186 2.73122)
(85.4728 8.54487 2.85667)
(93.0697 8.17567 2.79151)
(86.41 6.66915 1.99031)
(83.3872 11.2973 1.40862)
(73.8331 10.7116 0.614888)
(73.3966 9.40451 0.182351)
(71.4431 5.15114 -0.0311049)
(73.7994 1.71451 -0.167601)
(73.3277 0.280481 -0.251019)
(71.5309 -0.323369 -0.126313)
(64.9134 0.184094 -0.396278)
(-18.3182 -42.3624 71.985)
(-117.398 -25.44 -28.7382)
(90.9501 40.8024 -10.7516)
(-38.021 23.1014 2.16492)
(78.5653 28.4416 0.339468)
(32.7636 16.2597 -0.38269)
(88.7957 8.5775 -0.177618)
(76.3749 0.97041 -0.599947)
(99.3634 -2.95795 0.795472)
(94.0348 -4.59376 1.4394)
(98.9386 0.389491 3.86859)
(86.1198 6.90418 4.07948)
(81.5269 11.7249 3.3782)
(72.4793 10.3534 2.07715)
(72.2673 6.62515 0.621189)
(70.5855 2.35859 -0.00375892)
(73.3016 0.616235 -0.328445)
(75.1571 1.46454 -0.619522)
(75.4081 1.85967 -0.71981)
(70.5167 2.42357 -0.882747)
(178.909 444.137 -110.933)
(-243.53 -17.3975 -13.8419)
(100.333 4.17503 -25.2623)
(-45.138 -4.72738 0.700047)
(78.5671 -6.88118 -3.83005)
(41.6864 1.16681 -0.930154)
(90.966 0.181596 -1.80415)
(81.4476 0.114877 -2.87138)
(103.835 -1.65558 -3.7625)
(104.278 -1.81253 -5.49989)
(117.692 -1.9274 -5.53858)
(123.721 4.4782 -4.51515)
(139.963 9.64605 -0.683552)
(145.423 11.1399 2.35346)
(147.581 9.43902 2.98273)
(143.069 5.29198 3.85854)
(127.407 -0.204887 4.48046)
(111.374 1.00636 3.31744)
(103.635 3.95349 2.05086)
(94.0891 6.00756 1.36774)
(210.388 -132.213 -29.1102)
(49.6098 -57.3861 -0.632682)
(140.37 -43.5437 18.1899)
(76.0856 -34.214 8.15731)
(127.111 -24.5078 4.87304)
(111.651 -14.3754 -0.0127695)
(127.48 -4.52454 -2.82917)
(115.727 1.30309 -5.11771)
(115.893 3.56544 -5.33037)
(103.499 3.3412 -5.42701)
(101.688 1.6996 -3.71348)
(92.9684 1.5012 -1.78278)
(93.2776 1.77249 1.3079)
(90.6093 1.48407 1.22635)
(90.6708 0.032922 0.296851)
(89.5682 -0.987339 -0.114749)
(90.7238 -1.63908 -0.178597)
(92.5219 -1.88716 -0.11137)
(92.7472 -2.96461 0.107773)
(91.0437 -3.06496 -0.00547592)
(315.041 1.13516 156.56)
(115.485 -11.6426 21.3922)
(146.097 24.228 -12.6643)
(61.8698 9.80859 -6.90163)
(111.271 17.1285 -7.75524)
(84.3827 12.4722 -4.11448)
(104.784 15.0842 -2.89115)
(94.8291 12.6653 -1.77087)
(102.438 10.7036 -0.136915)
(95.1419 8.00606 0.596242)
(96.3349 5.51192 1.76299)
(89.936 4.60705 2.13058)
(89.8073 4.10399 2.73197)
(86.5662 3.54313 1.70556)
(86.4138 1.43102 0.968923)
(84.4351 -0.37118 0.636683)
(85.5093 -2.07538 0.556568)
(85.9448 -2.88924 0.696256)
(85.3376 -4.25542 1.03105)
(80.6423 -4.02855 0.74645)
(141.661 194.634 133.188)
(-46.4983 20.3408 9.12997)
(131.671 18.253 -12.4794)
(44.746 -8.09254 -8.36365)
(113.722 -12.9603 -3.62535)
(84.2954 -8.43562 -2.25499)
(106.928 -5.7378 -0.346816)
(95.1438 2.03224 -0.354883)
(103.305 4.16359 1.33297)
(95.4495 7.6264 1.47756)
(96.5472 7.29895 2.17333)
(90.0415 8.0351 1.70374)
(89.8956 6.6037 1.72151)
(86.2299 5.35754 0.948931)
(86.4608 2.08423 0.682675)
(84.0274 -0.210635 0.411388)
(84.5507 -2.58373 0.229737)
(83.7823 -3.08006 0.310004)
(82.3289 -4.16086 0.327004)
(75.8287 -3.83655 -0.28577)
(69.0022 13.8225 -234.216)
(-28.5775 32.0475 -34.1115)
(160.882 22.2911 -47.3681)
(98.3166 9.56744 -13.1975)
(144.659 16.2381 -8.67275)
(115.598 10.1774 -3.31121)
(121.424 10.9591 -0.46732)
(104.934 12.5143 -0.74579)
(105.684 12.6601 -0.04583)
(97.0307 13.6871 -0.0926793)
(96.9514 12.1046 0.636408)
(91.9 11.3972 0.656024)
(91.7862 8.70605 0.846205)
(88.3739 7.30815 0.466948)
(88.1127 3.82506 0.490629)
(84.5709 1.31352 0.10715)
(84.2514 -1.5158 -0.205686)
(82.6108 -2.49385 -0.164466)
(81.1682 -3.49744 -0.0527388)
(74.2258 -3.08068 -0.612978)
(-39.337 -99.5248 53.2953)
(-55.4459 -33.3895 -57.395)
(148.445 -9.90821 -33.6328)
(55.4395 0.509233 0.900168)
(132.164 11.0717 -0.776785)
(86.2955 11.878 0.170095)
(106.302 9.5446 0.589053)
(87.8987 14.5214 -0.492328)
(95.2396 12.2063 -0.124685)
(88.4645 14.8978 -0.49907)
(91.65 12.5013 -0.105141)
(88.4822 12.6032 -0.135792)
(89.709 9.93589 0.0253605)
(87.4221 8.60076 -0.105493)
(88.0321 5.8493 -0.0666046)
(85.4926 3.48896 -0.169475)
(86.1852 -0.412432 -0.141625)
(85.1254 -2.22661 -0.0907884)
(84.0447 -3.15324 -0.0408303)
(76.8983 -2.53147 -0.659509)
(139.401 -162.316 9.51794)
(-44.0716 -59.8753 -49.7198)
(115.571 -18.5116 -37.9956)
(58.3099 1.86855 -0.228367)
(122.547 9.75284 -2.90477)
(87.1206 20.598 -1.11516)
(106.31 15.5431 0.322127)
(92.2152 18.463 -0.413343)
(94.6056 14.8717 0.192728)
(88.4274 15.7991 -0.0551666)
(88.938 13.0655 0.166688)
(86.4282 12.6896 0.0947394)
(87.0056 10.2913 0.138393)
(85.8547 8.80541 0.0876334)
(86.7559 6.02405 0.096823)
(86.2627 2.9927 0.348769)
(87.9184 -1.00976 0.547667)
(87.0567 -2.54965 0.511206)
(85.7811 -2.69777 0.276784)
(78.2912 -1.52613 -0.693214)
(235.018 53.5325 280.044)
(-65.8913 -23.5256 45.2078)
(135.961 -29.273 -8.9573)
(21.6968 -5.68032 -0.530556)
(113.929 10.4441 -2.30201)
(61.3313 24.6048 -1.10474)
(84.0708 8.51831 -0.00916367)
(71.1025 24.8443 -0.148228)
(79.4749 16.6075 -0.299331)
(75.0621 20.247 -0.0473073)
(78.4743 14.4482 -0.256989)
(76.8348 14.2377 -0.161134)
(79.0811 10.2975 -0.250928)
(78.2182 8.12086 -0.352137)
(79.6794 4.80144 0.244055)
(79.6949 1.26973 1.26571)
(80.2623 -1.40951 1.61545)
(78.9379 -2.08917 1.12254)
(76.6999 -1.36882 0.188292)
(70.0427 -0.272448 -0.941752)
(90.6338 31.735 14.6588)
(-47.5896 -0.701823 -3.73535)
(125.728 -37.2291 -27.7304)
(59.3649 1.36383 -8.47986)
(116.515 5.04567 -8.94969)
(75.4014 38.232 -3.25081)
(84.154 22.3065 -0.110634)
(68.115 14.4432 -0.818036)
(69.3909 19.36 -0.414508)
(68.0345 15.1027 -0.923904)
(71.4337 15.3641 -0.57456)
(72.5825 12.6706 -0.664047)
(74.5785 11.1816 -0.423184)
(75.0233 8.55072 -0.127683)
(70.9664 3.53064 0.724285)
(69.7185 1.45089 1.33872)
(69.6286 0.137718 0.716784)
(68.5548 -0.251289 0.0186513)
(66.881 -0.358381 -0.552289)
(62.176 0.152848 -1.21125)
(69.2307 15.0886 -168.713)
(-68.7794 31.102 -67.8777)
(98.519 9.97224 -38.5379)
(10.6437 30.3527 -6.84719)
(65.8387 32.5598 -5.6351)
(45.603 39.8147 -3.5422)
(64.2247 41.5353 -2.05143)
(61.2921 24.3646 -0.743537)
(62.3534 21.078 -0.644721)
(61.8436 14.786 -0.589346)
(64.1472 13.3837 -0.62694)
(65.768 11.3345 -0.678215)
(68.037 9.93001 -0.463594)
(69.1224 7.91992 -0.165719)
(66.716 5.58229 0.659808)
(63.3612 2.85573 0.65937)
(64.637 0.43875 0.27237)
(65.463 -1.07334 -0.0978274)
(64.4382 -1.33855 -0.282899)
(59.8809 -0.513827 -0.900021)
(57.3244 179.46 24.6605)
(-115.047 36.7626 -22.861)
(59.4096 -13.3206 -39.4246)
(-33.5027 28.1496 -3.12173)
(59.2897 19.2227 -4.24454)
(21.9936 24.5096 -2.73929)
(47.2167 32.0524 -2.43914)
(57.5989 23.3896 -0.920201)
(59.1005 19.5945 -0.469026)
(58.3696 15.0574 0.0895322)
(57.7436 12.2204 -0.175767)
(58.0588 10.1339 0.0638153)
(58.9218 8.44285 0.0245155)
(59.7156 6.71262 -0.110228)
(62.0321 4.11816 -0.376912)
(67.0527 -0.433741 -0.634635)
(69.3278 -1.6456 0.122692)
(69.7065 -1.97857 0.387158)
(68.1157 -1.64659 0.470173)
(62.5358 -0.322275 -0.347587)
(106.944 -33.612 244.026)
(-50.3062 35.477 37.5298)
(51.7122 29.8488 -10.9412)
(-44.0109 40.7945 1.06111)
(45.7834 19.4106 4.44614)
(-1.58322 17.1802 0.890293)
(32.8866 14.9375 1.97962)
(48.6807 16.9315 1.43331)
(53.7536 17.7422 0.162512)
(55.0635 16.0922 -0.364296)
(55.9838 12.6187 -0.290442)
(58.687 8.81613 -0.690951)
(62.38 6.68647 -0.469216)
(66.0098 4.7898 -0.564393)
(69.0966 1.01269 -0.841761)
(71.3765 -3.25338 -0.578192)
(72.2184 -2.81787 -0.261066)
(72.1398 -2.19775 0.00795828)
(70.1145 -0.91367 0.346453)
(64.8083 -0.175082 -0.261358)
(101.964 -12.8494 51.219)
(-53.8579 61.1848 -0.0811124)
(41.6949 64.588 -9.63118)
(-36.1745 35.3883 5.06633)
(56.6202 17.7933 6.58935)
(16.3525 -3.00776 0.512279)
(48.0317 -11.2966 3.50206)
(53.651 7.55183 4.62328)
(56.1517 12.695 3.29416)
(58.718 15.9062 1.14564)
(60.4464 10.6687 -0.750422)
(61.8818 5.89175 -0.532141)
(63.8551 2.60527 -0.188057)
(66.2207 0.402359 0.413479)
(67.1025 -2.54259 0.790974)
(63.7537 -2.68987 0.317261)
(65.0407 -2.41119 -0.190834)
(65.5933 -1.78957 -0.415932)
(64.6916 -0.917546 -0.317435)
(60.8968 -0.274231 -0.738359)
(124.664 144.993 144.954)
(-62.7067 49.6319 12.8951)
(89.2848 55.4333 5.11245)
(14.0163 22.7894 4.72532)
(80.8866 5.55518 4.52316)
(21.6827 -22.1939 -0.885219)
(43.2787 4.60014 -0.222927)
(28.8345 5.64001 1.40854)
(42.7438 5.59797 0.668611)
(41.2909 6.58788 1.26123)
(51.4471 4.56846 0.896877)
(51.203 2.13652 1.21889)
(54.981 -0.340706 0.922831)
(54.5465 -2.18622 0.722623)
(54.9674 -3.21231 -0.00738215)
(56.623 -3.94644 -0.209008)
(58.4329 -3.5477 -0.229529)
(59.7827 -3.36357 -0.234697)
(59.1081 -2.42748 -0.20485)
(55.5663 -1.40178 -0.908345)
(239.831 -110.592 43.2081)
(87.0491 44.4349 12.6434)
(137.014 60.9308 14.4962)
(79.1782 40.9574 4.23998)
(105.497 25.2948 0.337924)
(50.4656 6.18875 -4.87078)
(58.0922 23.6268 -2.73017)
(39.3011 -4.52676 -1.09693)
(49.1908 6.74877 0.127174)
(44.9198 -3.68529 0.372723)
(51.4144 2.20218 -0.0742558)
(49.6586 -2.49325 -0.356989)
(52.7759 -1.26978 -0.174482)
(52.2418 -4.70188 0.150958)
(53.9786 -4.64688 0.304916)
(54.2161 -5.50727 0.283012)
(55.8457 -4.63079 0.0775219)
(56.2413 -3.94273 -0.0940557)
(55.3602 -2.33432 -0.122975)
(51.6079 -1.208 -0.885503)
(406.613 65.5183 118.892)
(247.521 46.9893 14.2447)
(209.085 66.5386 3.81768)
(128.597 57.4352 -6.11439)
(137.885 58.444 -1.67466)
(84.6771 28.2414 -1.91323)
(98.834 22.7979 4.41163)
(79.1245 5.32629 1.69716)
(80.3086 6.4477 4.41955)
(70.4652 -0.147409 2.91156)
(68.862 1.54737 0.290924)
(63.7853 -1.90218 -0.637978)
(63.0089 -2.09837 0.0321117)
(59.814 -5.1279 0.756389)
(58.3327 -5.10987 1.08179)
(54.963 -5.63955 0.833261)
(54.5759 -4.84538 0.26477)
(53.8632 -4.30819 0.0189875)
(52.4766 -3.2322 -0.0375533)
(48.952 -1.87198 -0.67761)
(107.296 7.18082 114.17)
(11.4287 50.7394 7.63738)
(114.628 91.4358 -6.36704)
(64.4404 65.3756 -5.92801)
(112.614 67.3667 3.72524)
(82.9949 34.29 4.00774)
(106.296 32.9572 4.09066)
(86.8527 13.1492 -0.528815)
(93.4104 16.8561 2.57754)
(80.1114 9.0316 1.9534)
(81.5506 8.40513 2.3774)
(74.7967 2.10846 0.57601)
(74.528 1.51563 0.819586)
(68.9217 -1.10975 1.5408)
(66.2627 -0.284121 2.3885)
(61.0512 -2.30221 1.67387)
(59.9271 -2.95856 1.00355)
(57.6169 -3.60328 0.514298)
(55.531 -3.14528 0.240766)
(50.6611 -1.90267 -0.592833)
(291.668 50.9851 -101.435)
(89.3531 91.8901 0.473265)
(138.234 104.719 9.01949)
(42.9954 60.7952 5.02386)
(98.2555 60.4837 7.4947)
(46.3383 28.6588 3.16843)
(85.3514 27.6492 5.15233)
(62.319 12.8174 1.91552)
(79.1802 14.619 3.02999)
(70.4465 9.11158 2.1013)
(77.0946 7.86794 2.41763)
(71.7979 3.35252 1.58176)
(71.6715 3.23269 2.41718)
(65.1985 2.2877 1.98784)
(63.3207 2.27994 1.3499)
(59.2568 0.198669 0.618655)
(59.3713 -1.03568 0.344663)
(58.0774 -1.80379 0.171405)
(56.209 -2.0185 0.0823551)
(50.9316 -1.27315 -0.77284)
(-131.246 162.91 -64.8482)
(-197.012 106.516 6.75777)
(34.0376 98.8256 -6.51162)
(-55.1703 57.9221 3.55107)
(67.4588 52.7434 5.90551)
(19.9332 25.6195 2.15466)
(72.9047 23.5755 3.43227)
(52.7009 11.8989 2.15945)
(76.3272 12.4185 4.39013)
(68.0683 8.05566 4.02563)
(75.9922 8.12326 4.14228)
(67.6668 6.45752 2.61252)
(66.9562 8.66488 1.96033)
(60.916 7.23908 0.754014)
(61.3924 5.53344 0.246275)
(60.2033 1.48204 -0.112234)
(62.9923 -0.796957 -0.339313)
(63.0605 -1.60813 -0.498451)
(62.0555 -1.54601 -0.342288)
(56.8653 -0.584581 -0.960177)
(6.89931 48.537 82.2411)
(-118.217 -23.6788 -2.31792)
(65.189 38.4429 -8.65965)
(-56.4703 21.0729 10.6598)
(69.4667 20.6915 2.42071)
(16.9666 11.4328 0.841101)
(74.5421 5.89823 0.226893)
(54.0432 2.69448 -1.44643)
(77.5966 2.4689 1.11787)
(68.2253 4.73584 1.44106)
(77.0698 8.2616 4.41102)
(70.2724 10.6237 3.37861)
(71.6689 10.7017 3.07595)
(67.1398 8.14575 1.23637)
(68.8753 3.962 0.168246)
(68.4453 -0.741676 -0.420986)
(71.5938 -2.57789 -0.529869)
(72.2249 -1.83507 -1.17191)
(71.8652 -1.05891 -1.53924)
(66.6483 0.157507 -1.97839)
(165.711 215.678 -42.6533)
(-115.495 1.10646 4.9235)
(81.226 20.1624 -14.4562)
(-26.1463 3.02588 0.590133)
(77.6174 -7.41857 -10.4549)
(41.5982 -1.36671 -4.80154)
(86.4125 -0.921852 -4.98244)
(71.8996 3.05391 -5.29997)
(91.299 5.37331 -4.48719)
(85.976 8.25848 -4.24735)
(95.5601 10.7689 -1.74806)
(97.7149 16.572 -0.472048)
(110.332 18.1345 1.05135)
(123.791 16.5233 2.79678)
(132.936 8.62134 4.62897)
(129.608 2.63578 7.25359)
(120.581 -1.64882 8.58008)
(111.442 -0.625272 6.53289)
(106.832 1.25751 4.65299)
(98.7202 2.60834 3.24852)
(137.179 57.3148 -40.358)
(-31.7492 -14.0536 20.4091)
(130.305 -32.5234 8.53097)
(67.5017 -24.1957 2.85131)
(124.712 -17.0267 -0.919124)
(105.863 -9.11821 -2.87273)
(119.666 -1.98929 -4.78636)
(101.797 1.39569 -6.00415)
(100.188 1.73645 -4.74106)
(83.9389 0.655519 -4.86154)
(83.0531 -1.21713 -3.06907)
(75.3093 -1.41107 -2.25804)
(77.6417 -1.497 0.400218)
(76.7972 -1.32182 0.553656)
(78.6808 -1.88405 0.337538)
(78.7421 -1.92937 0.199614)
(80.4114 -2.35636 0.143795)
(82.3332 -2.31603 0.0703947)
(82.479 -3.28344 0.518156)
(81.0732 -3.26395 0.406515)
(220.084 68.1697 4.13015)
(96.9127 8.53163 -1.49665)
(155.263 27.3222 -17.4862)
(66.1528 13.5388 -12.5685)
(107.759 19.5557 -12.0911)
(75.6261 13.671 -6.27353)
(95.0673 15.1428 -3.84303)
(80.2862 11.3315 -2.16567)
(87.2639 8.66129 -0.0613714)
(77.3249 5.75341 0.330279)
(79.2406 3.32532 1.37843)
(72.9301 2.62952 1.48338)
(74.2814 1.96893 2.02536)
(71.9143 1.56618 1.13693)
(72.4367 0.0388961 0.79324)
(71.162 -0.849539 0.477226)
(72.0243 -1.95608 0.377385)
(72.1577 -2.41058 0.446417)
(71.2031 -3.42921 0.770401)
(66.5688 -2.97596 0.214177)
(48.5276 110.819 36.0058)
(-58.4802 16.9119 8.18719)
(125.598 16.1924 -17.6247)
(37.7515 -2.14346 -7.4373)
(103.923 -6.04568 -4.2461)
(68.5075 -2.38221 -2.48994)
(92.5255 -0.994848 -0.41762)
(76.7233 5.19336 -0.532442)
(85.6817 5.39047 1.0702)
(76.2625 7.6461 0.966446)
(78.8655 5.98623 1.73994)
(72.7548 6.18531 1.21911)
(73.7914 4.30712 1.37935)
(70.6935 3.30996 0.66479)
(71.0931 0.851338 0.617086)
(69.2453 -0.431519 0.376908)
(69.7352 -1.85309 0.200154)
(69.0448 -2.07926 0.220817)
(67.5363 -3.05393 0.246886)
(61.4239 -2.56463 -0.684041)
(80.6416 11.62 -55.785)
(55.4838 -0.643289 -46.3097)
(174.751 0.876423 -43.4514)
(101.262 1.20329 -14.9005)
(131.253 12.868 -8.04591)
(94.4513 10.1472 -2.53961)
(102.566 11.8452 0.521924)
(84.9627 13.5127 -0.505337)
(87.9195 12.8519 0.179345)
(78.6303 13.4664 -0.140337)
(79.5416 11.1025 0.539116)
(74.3169 10.095 0.463735)
(74.7397 7.40526 0.740955)
(71.6181 5.94529 0.385123)
(71.6259 2.93395 0.41532)
(69.0828 1.08895 0.188666)
(69.2163 -0.975522 -0.115802)
(67.9643 -1.45366 -0.116252)
(66.4533 -2.29994 -0.0553983)
(59.7614 -1.76331 -0.990256)
(70.0771 -141.412 73.7259)
(2.5129 -47.3548 -84.2043)
(144.578 -20.4573 -38.5467)
(51.2577 -0.848329 -1.29779)
(120.132 13.2887 -1.28766)
(69.367 14.362 0.19016)
(91.82 11.1769 0.957832)
(70.9964 15.8815 -0.57944)
(79.6211 12.3112 -0.0505634)
(71.2663 14.7549 -0.508718)
(74.8772 11.4502 -0.032581)
(70.8804 11.465 -0.131804)
(72.3356 8.36757 0.05551)
(69.9121 6.97556 -0.0778471)
(70.6663 4.273 -0.0176399)
(68.7674 2.08752 -0.0568714)
(69.7411 -0.692535 -0.0923537)
(69.0356 -1.41447 -0.0324343)
(67.9294 -1.87211 -0.0100353)
(60.9506 -1.0895 -1.07005)
(203.372 -207.742 -129.284)
(1.11978 -90.3891 -40.4794)
(120.496 -22.4101 -34.0148)
(52.313 6.04972 -3.18263)
(109.734 15.9101 -3.60929)
(68.7859 25.2544 -1.17237)
(90.6411 17.1803 0.576249)
(74.4303 19.9233 -0.487178)
(78.2306 14.911 0.199434)
(71.2892 15.9397 -0.0977997)
(72.3574 12.4081 0.182115)
(69.4456 11.9939 0.104838)
(70.1996 9.06916 0.190152)
(68.8801 7.4299 0.130663)
(69.775 4.21375 0.16616)
(69.2409 1.57701 0.359215)
(70.5592 -1.15828 0.429969)
(70.0224 -1.62077 0.415833)
(68.8358 -1.17863 0.176109)
(61.6897 0.0216402 -1.14044)
(126.056 -181.358 140.753)
(-34.1082 -20.6609 -6.2371)
(127.177 -25.9859 -27.7796)
(19.9614 -2.0907 -3.77574)
(103.586 13.4119 -5.34256)
(45.8074 26.943 -1.77763)
(70.661 9.26077 -0.38776)
(55.5524 26.292 -0.271354)
(64.8865 16.1105 -0.303015)
(59.7204 19.9842 -0.0223731)
(63.5457 13.3803 -0.17886)
(61.4998 13.34 -0.0568149)
(63.7202 8.86945 -0.0716677)
(62.5688 6.8895 -0.152228)
(63.7119 3.6612 0.24258)
(63.7934 1.09107 1.00035)
(65.118 -0.601813 1.18751)
(64.7005 -0.773637 0.792452)
(63.1749 0.158587 0.0354229)
(56.9201 0.941446 -1.37857)
(319.832 24.2625 51.3546)
(156.023 -8.26028 -15.7253)
(166.596 -31.2278 -36.7155)
(77.5676 5.37691 -13.932)
(109.488 11.2882 -12.4576)
(61.8791 41.7277 -4.15722)
(70.2974 21.7044 -0.82281)
(55.1389 18.6642 -0.69391)
(57.0244 18.534 -0.521498)
(55.8152 15.9396 -0.663964)
(58.824 14.5304 -0.521919)
(59.3306 12.1889 -0.538411)
(61.0139 10.0345 -0.374523)
(61.073 7.44526 -0.0443812)
(57.8859 2.72105 0.96732)
(57.8543 1.51846 1.13359)
(58.701 0.502433 0.523055)
(58.2598 0.372233 -0.0216448)
(56.613 0.530702 -0.540167)
(51.5776 0.819733 -1.49264)
(406.338 96.5045 -78.6858)
(107.593 49.6133 -62.6389)
(119.384 15.4575 -38.9289)
(18.0772 29.1822 -10.134)
(58.9012 32.9614 -7.14603)
(36.2001 42.3053 -3.92782)
(51.0636 38.7146 -2.86512)
(48.9308 22.6279 -0.520219)
(51.694 19.4653 -0.452532)
(51.411 14.2342 -0.399991)
(53.969 12.9852 -0.548891)
(55.0386 10.6724 -0.551634)
(56.8856 9.10581 -0.349786)
(57.4408 7.11869 0.0714958)
(56.4218 4.47145 0.846819)
(54.6551 2.53539 0.841353)
(55.6766 0.729618 0.324307)
(56.0622 -0.335747 0.058605)
(54.651 -0.428665 -0.193688)
(49.9316 0.0565502 -1.23505)
(176.374 11.2123 187.419)
(44.4512 -1.90811 -6.44375)
(83.7504 -18.5268 -36.0826)
(-13.8368 22.7508 -7.66736)
(50.7248 17.5449 -6.19593)
(17.8717 24.8114 -1.91371)
(39.9404 29.7219 -1.91163)
(47.4737 20.0189 -0.504128)
(49.1448 16.5366 -0.271354)
(49.1659 12.979 -0.12959)
(49.8396 10.59 -0.390932)
(50.66 8.82889 -0.139286)
(51.9327 7.19676 -0.185967)
(53.1646 5.56086 -0.210894)
(54.7652 3.17661 -0.166222)
(56.7096 0.303264 0.214218)
(58.0178 -0.340765 0.503204)
(58.2351 -0.595313 0.499562)
(56.6643 -0.322499 0.431816)
(51.688 0.335565 -0.702638)
(225.19 -66.2257 -146.954)
(114.468 3.65558 -33.5009)
(85.2169 33.1396 8.10893)
(-34.5847 41.1453 5.49768)
(34.0489 18.9771 3.06365)
(-2.18999 14.3931 3.10835)
(29.0898 12.8121 2.97432)
(43.0673 14.3291 2.31941)
(47.3029 14.9176 0.571761)
(49.0999 12.9493 1.95659)
(50.5997 11.2024 1.0442)
(53.0175 7.19253 -0.359632)
(55.2815 5.61591 -0.461941)
(57.6527 3.05948 -0.604595)
(59.4218 -0.328268 -0.410469)
(59.1831 -1.83685 0.0918869)
(59.5625 -0.891933 0.14374)
(59.4694 -0.466894 0.167597)
(57.6582 0.352562 0.294631)
(53.1918 0.53518 -0.615846)
(35.7403 -24.7717 10.7471)
(-26.2193 53.3441 -4.76986)
(16.7718 59.9455 1.17576)
(-53.6101 30.0701 5.6728)
(39.2503 15.5469 2.96524)
(4.37208 -5.21361 2.6914)
(36.4058 -5.45696 3.74127)
(41.0051 10.9593 4.69382)
(45.2192 13.7223 2.72807)
(48.1975 12.3634 0.843225)
(50.3627 7.56333 -0.3554)
(51.4988 4.19241 -0.246272)
(53.8552 1.88278 0.154272)
(56.0854 0.116597 0.602497)
(56.3837 -2.04474 0.783236)
(53.6319 -1.39898 0.562117)
(54.9471 -0.925973 -0.102669)
(55.3862 -0.556727 -0.320188)
(54.2209 0.0680389 -0.271998)
(50.5614 0.402126 -1.07614)
(72.7154 113.066 -95.8381)
(-51.4129 14.9233 -14.7956)
(64.9631 45.2083 -8.06977)
(-11.845 15.4229 0.936159)
(67.9307 3.27551 1.58882)
(3.25252 -20.6738 -0.579305)
(26.9837 12.4907 0.820078)
(16.3527 8.09811 0.87015)
(33.2975 8.41931 0.986026)
(32.134 5.9452 1.2436)
(41.6885 3.79851 0.799405)
(41.6092 1.29673 1.06561)
(45.9053 -0.438308 0.812431)
(45.8863 -1.87864 0.662575)
(46.1243 -1.90322 0.226152)
(47.9328 -2.57627 -0.182051)
(49.6 -2.01737 -0.248871)
(50.808 -1.96547 -0.307553)
(49.8861 -1.20833 -0.29131)
(46.5631 -0.596537 -1.28707)
(122.184 50.9721 114.983)
(-7.66096 39.1805 16.783)
(110.444 50.5065 14.896)
(50.2914 30.3001 2.05903)
(88.5102 19.6954 -0.856148)
(28.5515 3.55684 -4.49497)
(44.5227 25.7419 -1.50271)
(23.8528 -5.41326 -1.25826)
(37.2969 8.75983 0.105025)
(32.6169 -3.39298 0.251524)
(40.2212 2.9912 -0.148155)
(38.2335 -2.36903 -0.175189)
(41.9429 -0.564455 -0.110254)