/*--------------------------------*- C++ -*----------------------------------*\
  =========                 |
  \\      /  F ield         | OpenFOAM: The Open Source CFD Toolbox
   \\    /   O peration     | Website:  https://openfoam.org
    \\  /    A nd           | Version:  10
     \\/     M anipulation  |
\*---------------------------------------------------------------------------*/
FoamFile
{
    format      ascii;
    class       volScalarField;
    location    "0.9";
    object      k;
}
// * * * * * * * * * * * * * * * * * * * * * * * * * * * * * * * * * * * * * //

dimensions      [0 2 -2 0 0 0 0];

internalField   nonuniform List<scalar> 
12920
(
6735.06
3005.69
742.414
166.009
158.497
182.283
196.128
193.703
153.996
85.2293
42.9975
18.467
7.26504
2.42612
0.624843
0.127235
0.0232182
0.00445991
0.00155185
0.00116275
7743.23
4555.48
1472.55
371.71
133.968
77.8355
75.3726
68.232
52.8321
30.3169
15.5857
6.01163
1.9068
0.456154
0.0921971
0.0172746
0.00402023
0.00159363
0.00118455
0.00112036
3297.34
3688.22
2279.32
977.904
332.319
79.134
26.5801
15.8332
10.1082
4.93529
2.09994
0.627554
0.150104
0.0309276
0.00657907
0.00211125
0.001318
0.00115186
0.00111842
0.00111178
5964.12
3751.71
1068.08
470.843
264.288
117.839
46.2837
8.86784
1.84356
0.530989
0.150558
0.0382782
0.00899606
0.00279716
0.00145574
0.00118608
0.00112829
0.00111453
0.00111162
0.00111076
4470.98
3208.41
909.657
388.629
180.621
62.9208
12.7813
2.04729
0.260291
0.0505069
0.0105656
0.00365616
0.00173493
0.00127374
0.00114931
0.00111981
0.00111284
0.00111128
0.00111097
0.00111063
4999.25
3177.34
404.771
120.807
40.2037
9.01466
1.18951
0.279451
0.05444
0.017018
0.00475182
0.00198133
0.00131133
0.00116176
0.00112417
0.00111444
0.00111175
0.00111098
0.00111079
0.00111052
6207.22
1571.06
166.148
174.904
83.7626
15.1342
3.67556
0.380012
0.0316989
0.00633585
0.00281506
0.00194557
0.00175917
0.00135914
0.00121709
0.00114781
0.00111988
0.00110887
0.00110547
0.00110548
4119.75
1996.11
523.627
211.147
141.558
42.9906
13.4184
0.107655
0.00611894
0.00432257
0.00318398
0.00267363
0.00209155
0.00161915
0.00183391
0.00133915
0.00114373
0.00106761
0.00104378
0.00104548
2210.91
2984.11
1685.25
519.069
176.587
38.3069
24.3531
1.01763
0.0182377
0.0556264
0.109784
0.00323177
0.00179559
0.001655
0.00189709
0.000977255
0.00094353
0.000935662
0.000938089
0.000970848
1307.07
3184.72
2203.75
903.444
371.379
121.507
14.7713
0.233462
0.00957935
0.923898
6.21398
1.33811
0.00557509
0.00180829
0.00271874
0.000937874
0.000879678
0.000875534
0.000884697
0.000945159
1341.15
2933.81
2633.42
1252.01
447.3
132.575
33.4812
8.15702
1.43763
2.45082
13.3323
4.50501
0.048564
0.0024169
0.00257238
0.000939503
0.000879891
0.000875877
0.000885558
0.000946832
295.249
646.962
633.573
612.924
562.555
317.512
129.35
37.2926
22.1605
17.8806
11.9388
0.242811
0.00355059
0.00199166
0.00224939
0.00114983
0.00103693
0.000989793
0.000977899
0.000989848
783.402
1182.87
940.797
613.756
449.112
279.499
150.338
46.2181
24.5208
6.39412
1.44316
0.079536
0.00668173
0.00174466
0.00219786
0.00145892
0.00119158
0.00108912
0.0010562
0.00105569
1726.41
2497.71
1794.81
858.394
464.585
348.983
265.369
222.181
173.559
115.075
48.0234
11.8318
1.80045
0.212275
0.0235324
0.00381277
0.00150395
0.00118032
0.00112315
0.00111172
2973.7
2048.16
983.546
745.143
516.981
391.745
302.372
227.311
174.411
111.438
49.9543
14.1461
2.87405
0.493909
0.0779413
0.012944
0.00297079
0.00142225
0.00116581
0.00111961
6748.32
1793.27
1264.67
1108.97
671.306
367.472
227.723
114.777
80.9501
56.1806
35.1355
14.2914
4.71572
1.20531
0.245011
0.0426239
0.00718547
0.00193941
0.00122777
0.00112661
2297.08
2592.79
2481.44
1549.78
741.669
277.72
98.3987
29.0379
13.7678
10.1263
10.5841
7.47057
2.66333
0.650357
0.121336
0.0183861
0.00322008
0.0013528
0.00114008
0.00111419
3866.73
4678.3
3815.89
1713.56
629.483
244.882
118.788
54.0654
23.8867
10.4222
4.99413
1.78887
0.457549
0.0809435
0.0127531
0.00254477
0.00128482
0.00113184
0.00111332
0.00111089
5596.96
2561.25
1094.08
421.11
180.31
101.596
70.052
32.2329
11.8649
2.94433
0.695768
0.131305
0.0237235
0.0040875
0.00151668
0.0011581
0.00111531
0.00111059
0.00111034
0.0011104
346.641
799.025
677.173
488.695
201.888
64.13
26.8638
11.4284
3.88404
0.950071
0.186361
0.0312524
0.00561884
0.00174941
0.00119763
0.0011218
0.00111179
0.00111067
0.00111044
0.0011103
4989.16
4589.3
1426.71
565.593
543.331
578.453
596.695
553.692
449.491
313.305
198.664
99.666
41.4791
13.6975
3.27475
0.553526
0.0771657
0.00983592
0.00193919
0.0011288
11871.7
9882.68
4194.27
1397.34
508.209
170.64
75.9861
33.3751
15.458
7.89937
6.12131
5.315
4.1123
1.40994
0.31331
0.0452303
0.00784509
0.00224186
0.0010721
0.000709707
15039.6
6107.67
3773.29
2185.73
1098.97
358.162
80.4128
13.3602
3.38072
1.33141
0.752971
0.472016
0.262849
0.0945278
0.0228143
0.00492322
0.00163996
0.000912763
0.000686914
0.000591658
8619.68
4583.16
2731.15
1354.03
967.742
851.597
506.768
127.139
14.6912
1.19761
0.139695
0.0514649
0.0230508
0.00863732
0.00280761
0.00117275
0.000776583
0.000643256
0.000593487
0.000566158
9090.62
4728.21
2138.39
971.664
449.383
315.421
98.2799
20.7081
2.06174
0.223501
0.0323806
0.0110146
0.00439389
0.00189855
0.000991128
0.000710589
0.000627585
0.000589204
0.000574731
0.00056145
5118.49
2070.23
628.278
600.575
176.39
38.3289
5.81859
1.47936
0.321836
0.0737474
0.0184171
0.00597856
0.00238903
0.00125735
0.000849879
0.000688707
0.00062361
0.000589496
0.000574006
0.000561537
7494.72
3308.26
624.22
708.883
289.731
46.4107
8.14184
5.57406
0.646786
0.0580921
0.0128005
0.004637
0.00270318
0.00143998
0.000993898
0.000763242
0.000661795
0.000605942
0.000580508
0.000563218
9774.12
6726.24
1962.88
1018.3
316.371
97.857
15.22
4.29951
0.311292
0.252661
0.0708665
0.041306
0.0131249
0.00463575
0.00174966
0.00111411
0.000824367
0.000682594
0.000616071
0.000577579
7019.76
6285.6
2804.35
814.845
190.317
85.6559
20.2362
1.62002
1.07755
1.13279
0.0302412
0.0418938
0.00653413
0.00199367
0.000871894
0.000684958
0.000656775
0.000620735
0.000600503
0.000577807
4320.14
5660.09
2497.22
1440.4
448.867
234.787
70.63
0.719747
0.534017
2.25677
1.85019
0.85263
0.0423626
0.00405046
0.000817877
0.000638379
0.000617247
0.000595366
0.000578716
0.000564264
2237
4867.9
3708.92
2176.5
1012.86
494.112
157.688
57.6586
1.99007
5.26443
3.37772
5.80626
0.170413
0.00552249
0.000927803
0.000612997
0.000590691
0.000580473
0.000572421
0.000562507
2789.99
2681.81
1644.26
1672.3
1407.74
931.756
403.232
184.652
50.4138
24.6591
21.2909
1.44372
0.0214201
0.00535681
0.00101802
0.00074619
0.000677756
0.000630921
0.00060574
0.000579748
4361.36
2845.31
1682.32
1272.55
916.621
503.931
270.866
149.932
61.7111
30.9931
6.01981
0.288981
0.0116455
0.00260158
0.00175593
0.00108608
0.000780449
0.000650236
0.000597843
0.000570261
2998.49
3799.39
2772.39
1659.68
848.27
679.597
447.619
382.129
250.512
133.82
43.4677
8.42082
1.03557
0.116997
0.016704
0.00406169
0.00146386
0.000808734
0.000631666
0.000574299
5964.57
4368.78
2133.61
1813.71
1072.65
831.516
618.135
501.062
335.096
164.788
54.1559
12.8555
2.4275
0.470004
0.103368
0.0237284
0.00539767
0.00155149
0.000766424
0.000594462
8239.14
3639.31
2773.92
2187.4
1200.02
537.768
331.114
129.626
90.1442
44.3923
23.0585
8.00834
2.55639
0.824173
0.235703
0.0539732
0.0108814
0.00236198
0.000890007
0.000613935
4069.25
5313.89
4796.69
2498.67
852.174
127.523
46.3305
13.4964
10.9743
5.65361
4.87264
2.8381
1.12324
0.27885
0.056597
0.0103775
0.00224344
0.000871736
0.000623984
0.000568166
8877.23
8622.17
5000.53
2178.57
695.835
178.676
51.9272
20.2562
9.61757
4.89895
2.24785
0.75281
0.195288
0.0362203
0.00643227
0.00154617
0.000767901
0.000609789
0.000570382
0.000557256
10787.4
6464.03
1912.18
618.638
207.879
119.968
43.5165
12.3317
3.5242
0.700762
0.163372
0.0294309
0.00710506
0.00185732
0.000914002
0.000673407
0.000604399
0.000577538
0.000567354
0.000562161
97.3072
728.86
860.624
743.973
421.737
114.863
27.9358
8.10482
2.59054
0.687435
0.149152
0.0272933
0.00514643
0.00162035
0.0010875
0.00101618
0.00101018
0.00101736
0.00102655
0.00103503
5744.44
2228.18
1118.16
890.279
937.991
936.035
876.806
680.496
529.622
404.356
312.67
217.964
123.119
48.2433
11.6764
1.66265
0.163125
0.0146775
0.00213478
0.00112286
10867.6
6378.06
3337.14
1474.36
906.893
556.263
250.757
90.1609
40.3668
20.8054
11.0969
7.8329
10.0664
6.56542
1.50227
0.196411
0.0200706
0.00269766
0.00094522
0.000664051
11086.1
5925.38
4170.55
2544.83
1246.86
494.764
168.765
36.7311
7.24713
2.76163
2.35978
2.26124
1.55511
0.649932
0.163627
0.0282077
0.0042721
0.00111966
0.000671563
0.000579433
12840.9
6619.04
4285.93
2535.26
1812.98
1326.26
582.551
131.602
13.6753
1.2646
0.325355
0.24156
0.143761
0.0604378
0.0172788
0.00392106
0.00118022
0.000682217
0.000590308
0.000563314
16177.9
9421.45
4582.02
1884.49
759.17
389.153
76.3632
11.9397
1.36296
0.219887
0.0673659
0.0370431
0.0170349
0.00710167
0.00244265
0.00100917
0.000671387
0.000591574
0.000572628
0.000559971
6349.64
5222.8
2441.95
1345
365.936
52.5053
23.8417
5.6406
2.31966
0.392461
0.0753232
0.0190997
0.00546514
0.00204786
0.00102215
0.000720591
0.000626307
0.000587758
0.000572374
0.000560423
12040.1
4554.07
1547.85
986.399
459.803
79.6697
44.5062
51.3672
7.64512
0.593441
0.044281
0.0082958
0.00321149
0.00155479
0.00102283
0.000765695
0.000660006
0.00060386
0.000579043
0.000562091
12760.6
10749
3788.8
1309.51
374.334
155.661
43.3518
52.3721
4.71299
0.292602
0.0736055
0.0390519
0.0110721
0.00427909
0.0025103
0.0015476
0.000896555
0.000688714
0.000614733
0.000576358
29516.2
8627.94
2593.16
865.406
148.683
117.74
99.1978
14.441
16.8391
1.3176
0.283326
0.0138035
0.00687682
0.00174098
0.000860767
0.0193871
0.0146191
0.00361164
0.00100716
0.000615606
12695.9
6719.71
3078.3
1604.38
375.64
44.6983
14.8825
2.72071
2.77726
11.25
7.70248
0.682219
0.0110382
0.00165306
0.00120479
0.0275093
0.0216753
0.00556592
0.00135879
0.00067141
1610.97
5689.24
4575.74
2932
1441.59
699.326
162.545
10.8727
3.35401
57.9451
42.2797
4.48232
0.0487869
0.00476931
0.00124796
0.0296288
0.0240974
0.00633454
0.00142029
0.00066027
1313.09
3375.16
3151.98
2885.89
2158.08
1257.51
486.668
110.59
87.1714
47.2007
40.3305
0.581267
0.0172568
0.00564279
0.00114095
0.0215099
0.0175165
0.00477062
0.00120202
0.000637675
1328.57
3312.12
3147.86
2658.79
1967.06
1066.29
535.536
288.96
110.796
65.3342
5.27989
0.147242
0.0072451
0.00228285
0.00157351
0.00101664
0.000741887
0.000632015
0.000589699
0.000567108
1784.12
3950.18
2904.01
2253.39
1355.68
791.579
438.882
299.76
165.603
71.4772
15.3237
2.00848
0.20882
0.0264451
0.00533557
0.00184312
0.000932953
0.000664771
0.000588014
0.000561689
5649.09
4410.32
2314.22
1773.98
989.45
580.857
425.153
245.992
142.457
60.3041
15.6666
2.48769
0.372862
0.0760484
0.0220266
0.00717061
0.00226431
0.000953652
0.000644636
0.000570441
11229.4
4260.21
2843.78
1906.13
696.074
205.862
170.877
56.3716
32.2372
8.87037
2.69829
0.619671
0.226568
0.130067
0.0629862
0.0195597
0.00491104
0.00142205
0.000722444
0.000581607
6987.84
6790.39
5348.66
1845.23
331.067
30.5983
28.1325
7.86417
3.59844
0.755433
0.242078
0.184646
0.108707
0.035147
0.00937072
0.00250405
0.000994249
0.000654587
0.000576612
0.000556712
8696.82
8101.03
6323.86
1825.51
252.78
20.5361
4.07123
1.24974
0.572266
0.329288
0.246774
0.0893399
0.0242655
0.00540317
0.00158267
0.000805852
0.000628586
0.000576239
0.000559693
0.00055355
9615.1
4962.23
2776.44
386.058
88.0065
38.096
12.945
2.36538
0.652186
0.121119
0.024772
0.00649781
0.0027739
0.00141205
0.000876875
0.000676369
0.000604806
0.000576715
0.000566468
0.000561239
424.745
1355.58
895.117
379.871
213.801
71.639
24.017
8.66633
3.0483
0.782754
0.149196
0.0231064
0.00397695
0.00141519
0.00106099
0.00101391
0.00101008
0.00101705
0.00102637
0.00103496
5298.6
1752.8
1444.74
1324.2
1356.01
1301.46
1118.79
796.196
583.305
438.812
342.226
265.4
181.862
90.1972
28.2539
4.7023
0.457127
0.0360272
0.00362946
0.00122179
21166.8
5525.35
3492.57
1940.68
1772.41
1172.64
708.388
343.361
169.21
80.0042
37.6427
16.7552
16.5064
14.1594
5.13687
0.940687
0.104961
0.0129581
0.00356118
0.00222502
5769.85
7071.15
4694.07
2480.62
1573.13
940.025
550.102
233.305
90.9213
32.0724
21.1962
15.4283
8.76941
3.89739
1.34868
0.363928
0.0612107
0.00996262
0.00319377
0.00205599
7589.95
6570.8
5127.85
2894.4
2255.86
1472.94
596.825
156.208
27.898
5.5999
1.77578
1.46229
1.11946
0.582012
0.225523
0.0609743
0.0129233
0.00355258
0.00191165
0.00162936
8405.46
7743.11
6136.55
2351.3
1074.54
377.897
99.6211
22.8129
6.45926
1.40918
0.446934
0.275715
0.153732
0.0909919
0.0454963
0.0165561
0.00398328
0.00190103
0.00160774
0.00158406
14475.8
8825.32
4821.43
2007.8
832.15
261.889
203.634
60.0752
22.2383
3.5893
0.555151
0.109907
0.0284141
0.0108979
0.00442872
0.00213179
0.0014175
0.00131276
0.0013198
0.00139691
30290.5
6764.63
3326.02
1566.42
894.697
344.928
310.597
219.738
53.6612
6.48052
0.756948
0.120787
0.0408321
0.00901606
0.0112304
0.00347113
0.00182862
0.00158295
0.00150665
0.00149079
22771.5
21778.9
6837.54
1750.33
592.299
378.157
167.841
116.157
41.3874
1.09216
0.11028
0.0265493
0.0112786
0.00586922
1.55499
0.9198
0.277767
0.078047
0.0216398
0.00582119
29643.7
9870.11
3251.3
740.585
189.109
129.541
159.978
27.5157
56.7551
5.5374
0.0552332
0.0108302
0.00670414
0.0021643
0.0471477
8.36671
6.27831
2.29425
0.617144
0.113656
14991.8
8425.59
3140.33
1261.81
424.757
16.8992
43.5296
7.8881
44.4231
5.17049
0.388854
0.0114861
0.00434075
0.00165185
0.121048
10.1644
7.80241
2.93361
0.802863
0.148175
4555.49
9202.09
5734.09
3340.4
1782.61
917.743
253.414
34.8682
53.3513
73.0357
11.9817
0.535248
0.0781426
0.00319209
0.153927
10.7007
8.37452
3.23919
0.898827
0.166886
4459.77
6685.88
5269.93
3951.64
2895.9
1730.43
915.983
488.565
337.819
138.099
48.5072
0.666174
0.0285819
0.00713948
0.130297
8.8761
6.93202
2.71912
0.779603
0.149553
12169.7
8746.92
5368.29
3810.84
2856.04
1699.46
969.131
557.361
123.362
26.46
0.799732
0.0589717
0.0169961
0.00959906
0.492766
0.371369
0.144393
0.04725
0.0153015
0.00485264
8614.65
6582.14
3969.2
2780.63
2090.21
993.491
506.144
172.651
49.5864
13.8609
2.4042
0.364965
0.0699644
0.0226097
0.00694225
0.00336962
0.00256284
0.00218146
0.00198006
0.00180557
9493.52
4388.1
2337.07
1540.46
1307.55
600.374
311.895
88.2469
27.6621
7.51581
1.65112
0.448203
0.22975
0.0720722
0.014894
0.00544635
0.00328873
0.00241826
0.00209788
0.00185929
12262.7
4235.55
2288.83
1048.38
692.648
217.698
187.96
61.4347
21.7249
5.87339
1.64022
0.549131
0.128453
0.0326939
0.0142608
0.00698684
0.00416538
0.00280855
0.00233135
0.00198613
20089.1
9755.02
4728.42
875.423
166.355
37.5106
48.4351
15.5094
7.96415
2.43768
0.708216
0.104992
0.0255524
0.009338
0.00503433
0.00323826
0.00262765
0.00223546
0.00208974
0.00190815
12250.5
9329.59
7236.1
2003.48
238.2
13.9834
7.96581
3.06675
1.28947
0.505283
0.109932
0.0361535
0.0145587
0.00652309
0.00387548
0.00276431
0.00238565
0.0021412
0.00203794
0.00193723
9466.72
4834.21
2346.44
218.632
38.6347
19.548
13.6464
3.97098
0.893389
0.202508
0.132993
0.110508
0.0840337
0.052317
0.0238735
0.0100807
0.00411334
0.00246544
0.00204389
0.00193148
727.955
1277.64
571.712
188.18
105.688
55.5008
27.2586
11.0911
3.43334
0.710127
0.107363
0.0156297
0.00482233
0.00274304
0.00192413
0.0013351
0.00112093
0.00105272
0.00103847
0.00103664
4168.34
1301.82
1775.62
1683.97
1694.73
1526.68
1343.63
1028.32
761.264
513.983
358.453
257.409
180.983
100.909
37.6731
8.00928
0.977583
0.0880077
0.00838103
0.00189881
8129.62
6483.52
5214.68
2856.29
3347.25
1952.32
1967.32
1289.89
910.374
384.966
188.087
78.4762
69.88
51.6793
21.0831
6.92714
4.1067
3.31676
3.08455
2.77163
4304.68
7431.59
6085.44
2718.92
2813.49
1752.49
1857.71
1257.75
947.52
434.23
276.149
132.333
62.2818
25.2739
10.6429
5.03798
3.62024
3.01333
2.83764
2.6023
9886.36
8021.6
5596.7
3216.19
2919.98
1384.71
1156.14
529.794
334.266
121.202
47.3683
18.8516
13.0217
6.88761
4.01416
2.65886
2.36897
2.23512
2.21128
2.20399
11519.2
8145.33
7441.27
2876.14
1859.84
788.522
666.308
270.938
176.703
54.4478
20.7937
8.13425
4.63775
2.88552
2.36178
2.10148
2.09504
2.09189
2.11481
2.16111
5670.13
8428.48
7451.94
2790.43
1696.12
1068.11
1026.49
431.106
175.646
41.9598
9.65196
3.24845
1.90116
1.54523
1.48746
1.51149
1.58111
1.69621
1.76658
1.92021
15131.2
12710.6
5865.51
2376.13
2026.45
944.345
1286.38
611.624
178.427
28.1699
10.9883
5.6275
7.7249
3.78848
3.09195
2.15505
2.04592
1.98106
1.97434
2.00017
46018.5
38888.7
13548.7
3002.82
1915.32
1049.72
931.766
458.345
174.001
17.2518
13.9438
23.59
25.7289
17.3958
96.81
55.0788
29.487
15.6636
8.24505
4.12153
45091.9
16182.1
4735.15
1699.32
951.99
537.056
757.59
335.247
279.821
331.872
126.024
149.818
152.292
137.604
184.374
199.992
145.377
85.9046
42.4359
15.5769
38722.5
10406.6
3667.24
2005.9
979.956
371.486
210.372
222.024
574.762
517.287
320.015
263.579
248.817
236.017
233.399
217.707
162.491
97.4601
48.6651
17.8216
27292
9799.41
7494.8
3356.62
2350.78
765.821
216.719
104.87
326.463
495.51
329.833
331.048
306.125
263.445
250.499
225.256
169.465
102.96
51.7854
18.9369
22130.5
8046.37
7586.51
4345.37
3725.84
2034.51
1457.82
896.413
593.332
370.641
246.739
239.898
241.89
235.124
235.945
205.754
154.587
94.6324
48.8007
18.2375
18493.8
8531.15
7509.24
4189.03
3817.17
1629.96
1228.81
413.124
134.9
114.406
37.8755
13.6978
21.7036
32.8527
62.2436
38.0701
22.8393
12.8525
7.28518
3.94063
34660.3
8557.53
5460.37
3220.76
3162.36
1249.56
914.459
176.454
107.665
34.9729
19.1053
8.26942
4.88857
3.16631
3.02811
2.9308
2.88278
2.71877
2.57989
2.42878
13170.3
6218.33
3105.25
2965.58
2321.18
761.269
900.771
255.438
114.202
35.7265
19.9559
9.13513
5.32943
3.80222
3.46935
3.3362
3.23993
2.90148
2.69771
2.48919
22042.2
6396.16
2672.47
1987.29
1296.28
324.751
655.628
192.325
99.3399
29.5191
18.7741
8.54755
6.20429
4.36254
4.10365
3.76297
3.67964
3.2741
2.99106
2.6673
26830.7
14836
5400.44
1268.18
370.009
72.5235
112.851
30.4674
26.2958
9.51085
8.10641
4.50502
4.24764
3.49472
3.55269
3.30198
3.19771
2.88732
2.76647
2.57943
21331
11547.7
9027.46
1384.72
124.308
14.4099
20.4155
9.04844
10.1342
6.123
6.44655
4.72909
4.53953
3.42352
3.31014
2.96203
2.93714
2.77321
2.71987
2.59841
9238.67
6809.78
2132.66
142.275
56.1
26.3274
9.44084
2.47038
4.32385
2.60156
3.3377
2.61325
2.9328
2.58483
2.69836
2.56658
2.62389
2.56924
2.58067
2.55898
4856.02
998.391
259.395
77.0021
49.5684
31.3812
16.5033
5.60038
1.38771
0.213911
0.0317864
0.0132434
0.0162841
0.0260041
0.0493724
0.0486654
0.046635
0.0283976
0.0183041
0.00678265
11.7821
42.6719
53.4476
4.49398
1.1552
26.0307
18.7015
1.94385
41.3597
9.64499
0.621589
0.0368205
13.3043
1.14686
54.5508
49.6446
32.8581
45.1999
31.5111
106.609
52.9383
11.1324
37.8721
3.95155
25.1314
2.63395
46.0986
1.55599
3.22097
11.4217
1.12343
50.7035
6.39197
32.7257
0.772899
0.0454622
0.291835
0.019666
1.10602
0.226078
0.353451
0.104966
0.0625806
0.0121976
0.103248
0.329023
1.25039
0.197773
0.526199
0.148331
0.884345
4.6573
0.619756
0.0507062
0.425492
0.528599
0.00950232
3.8702
1.30032
0.0439561
0.048655
0.33644
0.273134
0.00176131
0.454561
0.00703302
0.0439313
0.00913216
0.214394
0.0662604
0.00160893
0.00333307
0.00189377
0.00619195
0.00257723
0.0390932
0.00740144
0.00162343
0.00186984
0.00164831
0.0021567
0.00117309
0.00451967
0.00125307
0.934663
35.6558
8.31747
69.3874
1.61827
96.8846
83.3317
0.0097966
5.3363
0.558788
0.352902
0.125069
64.0442
1.04897
0.155568
0.197445
0.0799102
0.198759
0.723212
0.294311
0.447616
6.65161
0.952938
8.5289
0.79537
0.968371
0.885144
1.93522
2.9903
11.6577
7.84394
0.789912
0.639045
1.94342
2.78286
0.0184115
4.55528
0.180381
0.465268
0.0733859
2.84721
0.40087
0.00188749
0.0425587
0.00273989
0.0404581
0.0086851
0.131921
0.010273
0.00152056
0.00216512
0.00155249
0.00526895
0.00137023
0.00663717
0.00173078
11.9891
40.6942
16.6401
105.66
63.5403
131.943
77.2342
2.39029
13.4632
11.2854
53.927
6.3658
57.9605
29.3076
0.578879
10.711
11.4953
2.14082
0.521998
26.5046
21.9126
9.2829
12.8904
11.8196
0.719861
3.93804
16.2502
25.7133
7.8634
11.7047
1.34468
3.65111
5.34292
24.3819
6.08127
0.196572
0.433514
0.0152277
4.9216
0.460113
2.20276
0.0859981
0.00314077
0.00828202
0.00296851
0.155251
0.0102039
0.0397854
0.00871946
0.00157434
0.00240642
0.00161842
0.00652514
0.00183601
0.00564905
0.00172194
50.5384
165.556
65.755
301.227
223.792
336.667
190.894
24.5275
47.3205
22.3788
190.712
60.4335
175.494
101.473
18.8215
17.2786
5.89311
48.0182
26.5755
70.0972
26.7904
13.4473
5.52086
7.56484
22.7449
24.912
25.4142
37.1886
0.871115
6.42271
0.372016
23.2646
3.8769
35.5198
2.58748
0.00648396
0.0840437
0.00295741
1.23453
0.031023
0.617488
0.0118207
0.0019933
0.00185022
0.00149349
0.0191347
0.00747027
0.00565784
0.00234915
0.00162931
0.00149259
0.00130829
0.00516946
0.00159789
0.00205706
0.00179581
5.08305
8.39013
1.4674
33.2424
8.08399
9.24523
4.86253
1.04935
0.706936
0.342927
8.67339
9.42361
3.72274
3.7165
1.52791
0.589812
0.853377
9.51924
1.92156
4.2758
3.39527
0.0321665
0.760374
0.443302
1.46361
0.481028
5.44463
7.72693
0.0437742
0.681995
0.588014
0.199106
0.0244062
6.01895
0.907363
0.00986522
0.329271
0.0700873
0.0177616
0.00724099
0.353056
0.0277926
0.00241952
0.0392791
0.00557707
0.00646612
0.00235003
0.0122073
0.00193765
0.00111797
0.00299701
0.00098492
0.00180505
0.00105164
0.00143617
0.0008535
1.40624
131.113
89.0056
11.3647
2.63302
92.2082
37.1883
0.342982
62.8022
0.891254
3.05588
2.51492
13.5562
0.916017
1.36134
0.328522
1.95542
2.6192
4.65876
0.955642
28.3254
1.37993
5.22551
3.05664
10.1878
14.0486
45.3246
53.7363
1.54479
3.00072
4.52241
12.0954
2.84716
42.1893
12.507
0.0808168
4.43811
0.446046
1.16684
0.0547337
6.16716
0.251933
0.00738462
0.146413
0.00939458
0.0221897
0.00256352
0.0792737
0.00637847
0.00108652
0.00541485
0.00134818
0.00172008
0.000935048
0.00385363
0.00135097
73.5904
175.53
75.6437
156.468
35.4747
213.218
71.9403
6.1088
58.6885
31.4175
20.077
1.94771
54.7608
49.5416
2.80214
30.2656
27.6253
1.86422
47.9574
58.3649
47.7037
3.48087
20.7362
17.9553
59.4249
57.9897
39.7446
26.0038
6.2189
19.0525
7.55783
41.741
15.1188
30.0438
6.85947
0.506599
2.60007
0.0902787
7.05424
0.266156
1.80534
0.0562048
0.00983484
0.0394023
0.00894968
0.0854673
0.00770666
0.0302569
0.00839801
0.00143638
0.00567817
0.00154953
0.00475184
0.00144014
0.00571895
0.00168152
240.774
452.047
237.836
448.718
148.473
621.83
364.175
61.921
214.737
152.266
103.376
61.667
310.742
189.731
31.6954
121.367
51.921
61.5302
49.5475
167.597
113.701
21.5149
49.3296
51.6315
39.9069
24.9248
103.524
82.1386
4.76214
47.501
3.29772
33.3299
3.8776
72.7461
2.21648
0.0354688
0.729403
0.00996198
1.00239
0.030039
0.41754
0.00735097
0.00818525
0.00437984
0.00193704
0.0185355
0.00801462
0.00399442
0.00201605
0.00146852
0.00172076
0.00145196
0.00584123
0.00171914
0.00176822
0.00133997
12.9459
35.8653
4.72082
143.07
26.8582
84.4238
10.6805
19.411
4.97698
4.95478
20.4663
34.4601
5.62301
13.1979
2.35974
5.55873
3.66612
38.0307
12.5551
31.2387
4.74253
0.684478
6.2152
7.77864
2.67771
0.16475
3.20092
0.60211
0.0213399
4.63517
0.574476
0.0847168
0.0167364
0.278781
0.0219013
0.00749196
0.193724
0.0131892
0.01416
0.00582055
0.0121063
0.00433635
0.00224897
0.00648638
0.00174915
0.00489851
0.00179414
0.00329083
0.00161611
0.00106188
0.00140114
0.000860441
0.00154987
0.00111199
0.00135504
0.000896316
3.22504
40.9753
12.3523
41.8873
7.36008
28.5492
5.40698
2.74666
5.10422
2.05492
4.02636
12.7815
4.19613
2.60727
5.54001
2.27473
35.081
17.9843
4.60075
4.78077
26.9202
10.4236
15.0421
19.0156
7.87887
23.1871
7.42821
12.1861
2.47054
5.78047
13.2684
1.97267
11.0528
1.25106
3.58326
0.0259939
3.79675
0.127216
0.0173528
0.00449707
0.342796
0.0145193
0.00213712
0.0451402
0.00646942
0.00335998
0.00176502
0.00866409
0.00394458
0.000953406
0.00430967
0.00172536
0.00155359
0.00106602
0.00310985
0.00182428
21.8427
255.844
86.8687
207.904
24.1258
435.231
270.444
2.65599
73.1538
100.996
14.1695
17.9446
284.176
295.719
50.5451
115.841
69.8991
45.5746
46.7167
264.243
145.72
65.3275
61.7612
64.8821
43.6427
69.8622
45.557
64.0858
36.8857
31.489
48.0839
38.7461
37.7832
28.3739
51.7211
0.141036
0.878454
0.0458652
0.71076
0.0420093
0.497998
0.0817682
0.00718709
0.0326313
0.00919058
0.0183645
0.00462957
0.0644044
0.0162458
0.00172241
0.00590867
0.00167083
0.00336128
0.00157768
0.00871771
0.00165526
154.1
725.236
399.49
758.079
386.618
1097.15
653.496
85.8782
329.837
204.615
352.779
326.543
558.146
375.699
57.0762
184.09
128.286
293.719
158.03
318.731
206.896
31.7546
116.585
97.8102
111.01
55.358
177.652
130.413
2.5802
81.6801
1.54844
51.0854
1.42749
48.7288
0.417308
0.0225893
0.268355
0.0062271
0.350044
0.0316385
0.0975284
0.00738414
0.00786661
0.00383705
0.00205419
0.0278471
0.0106064
0.00481653
0.00227711
0.00169971
0.00181195
0.00136752
0.00660706
0.00158675
0.00196593
0.00160666
44.2924
67.2842
11.8545
433.558
212.08
147.202
85.3061
35.5737
9.7221
32.2383
172.967
139.399
81.4567
313.231
26.7167
71.879
8.99916
175.139
244.362
419.484
340.179
0.109842
4.6351
0.423064
193.864
37.6792
286.862
136.054
0.0120998
0.140772
0.0124906
22.7755
22.2494
114.841
87.9496
0.00695808
0.00947183
0.00765701
22.4254
24.5678
74.1819
53.683
0.00271416
0.00711646
0.00257318
23.5556
20.711
49.7117
45.8945
0.0014489
0.00182234
0.00211955
18.7293
13.7296
42.27
28.083
10.643
48.6604
9.82441
112.655
86.1221
118.074
36.2276
34.5758
7.96367
5.30696
87.9388
340.554
31.5005
34.3274
5.40505
11.4823
31.3148
346.477
325.325
43.9354
375.911
1.19556
47.5675
16.7824
308.86
186.072
389.592
261.49
0.0189567
8.19164
0.646761
159.744
101.991
224.062
165.421
0.00547957
0.437577
0.0376407
84.8903
67.4277
149.659
108.337
0.00203908
0.0141357
0.00324742
66.1498
64.3781
98.5242
84.9365
0.00493961
0.00253288
0.00539519
59.0962
36.0086
78.594
52.7371
47.5962
538.65
378.218
246.021
65.6466
834.787
597.567
43.0552
377.148
322.444
45.9385
45.3414
532.732
456.744
67.827
287.318
166.235
76.834
414.762
458.348
344.547
20.2818
129.036
63.6843
391.187
204.545
267.04
101.422
0.657994
42.3428
1.98333
171.436
171.223
93.9875
134.051
0.259061
1.08368
0.136546
176.393
149.3
136.165
128.987
0.00512116
0.0880853
0.020983
120.566
81.9913
119.7
82.9463
0.00790207
0.0108763
0.0055958
74.0025
49.8439
71.2048
43.9431
532.023
1252.3
784.957
1319.61
922.419
1600.82
1133.1
386.47
679.924
452.269
820.206
546.468
999.079
493.138
190.298
369.273
231.732
490.026
329.54
357.916
205.708
64.5698
196.624
112.145
268.184
103.116
177.178
41.7008
2.04048
32.3243
0.391559
79.1774
85.6481
20.3923
5.05151
0.0347972
0.12231
0.00958991
76.283
64.9281
3.69606
6.39079
0.0114413
0.00573852
0.00265075
65.4866
64.4658
8.15197
14.4022
0.00650005
0.00227826
0.00776815
59.151
43.3691
13.9493
11.9083
413.218
295.153
190.105
1781.79
1081.31
914.352
847.194
233
183.113
466.789
872.515
672.468
811.359
1005.81
374.317
556.148
552.464
680.765
849.537
1085.7
1034.16
159.676
487.6
319.477
830.368
664.167
959.559
768.812
148.807
294.267
268.751
684.066
714.127
746.41
736.737
156.593
253.281
225.015
721.458
734.595
749.835
798.106
143.916
218.626
211.376
745.845
733.751
806.427
805.543
108.447
204.355
162.585
733.486
685.382
806.103
771.649
207.557
137.391
93.6323
840.913
993.196
684.458
1049.2
529.397
126.809
216.932
1022.77
1261.83
1129.05
1358.14
573.061
269.978
558.344
1290.58
1062.14
1347.9
977.182
347.252
526.052
371.63
948.279
733.78
853.797
717.015
277.853
345.111
302.391
712.568
711.901
698.275
666.952
248.57
292.305
290.35
733.955
816.31
690.848
829.148
244.8
288.127
278.472
831.772
831.324
859.983
871.463
179.651
269.747
215.038
829.766
782.039
867.075
819.026
94.337
930.345
651.85
681.2
1028.06
1293.94
1151
209.606
596.585
572.982
1101.31
1308
1133.08
1187.21
553.599
581.773
483.999
1281.97
930.571
1162.51
1005.68
346.959
413.855
283.367
840.336
766.089
977.206
938.584
328.256
298.739
316.09
751.985
709.233
910.735
825.699
323.543
308.107
311.417
723.412
841.569
822.758
869.373
273.859
309.167
269.724
866.221
869.013
873.049
851.441
209.911
253.671
197.997
864.704
817.125
845.697
804.844
1023.49
1708.04
1209.7
1933.21
1450.43
2188.18
1438.02
622.339
1043.17
470.355
1307
1233.05
1192.16
1072.81
458.798
367.519
248.149
1209.78
1043.6
1075.04
882.774
217.416
204.357
98.482
1006.13
960.866
825.526
778.46
260.043
94.8058
44.0337
931.992
824.788
732.095
619.547
238.147
36.5658
56.2993
816.318
836.908
587.64
626.396
242.918
67.7007
102.226
839.397
834.125
645.799
691.594
196.518
103.385
85.2876
834.187
810.889
692.929
678.236
7.60712
14.8627
16.9231
3.49835
21.9974
5.89163
5.43343
15.28
30.702
57.7302
29.5419
33.8554
19.4522
22.8739
12.7169
27.8204
59.6956
22.9168
32.2163
10.5686
22.7048
6.14474
5.10185
3.31393
7.73806
3.99959
8.84786
5.62132
4.14869
1.43827
1.8949
3.12012
2.32088
3.09954
4.14289
11.3159
27.7235
13.5524
25.9057
15.1072
20.9281
11.655
8.71388
13.2405
8.12214
23.9596
7.09058
15.4676
10.3451
1.63037
4.04581
4.61864
0.402539
8.51251
0.785663
0.833982
5.66703
24.6251
30.4814
21.2043
19.1233
8.18066
15.2765
2.94739
7.49147
19.0597
2.77412
13.2623
1.34743
7.11841
0.718686
0.740491
0.264043
1.90586
0.316389
1.73647
0.864796
0.248761
0.0768728
0.097335
0.095712
0.138954
0.102207
0.312627
1.91065
9.24918
5.44782
7.45958
4.37395
4.66047
2.81338
0.609748
0.94762
0.347709
3.26785
0.226527
1.59379
1.12011
66.1268
60.7468
63.6626
44.1426
69.4142
45.4567
63.2423
63.5251
66.6268
39.3375
67.8341
48.6038
75.3155
46.6488
51.5154
32.69
32.2466
37.5689
35.7229
44.05
37.6694
62.9929
42.4674
40.3306
72.3216
40.7182
65.5693
64.7194
58.2879
39.1633
35.2121
48.9431
39.8578
52.9149
56.4205
68.7519
89.5289
94.371
73.2889
82.6594
59.0868
75.258
60.3636
42.8514
56.7993
57.1028
53.2582
45.4838
64.4619
19.8359
20.4746
12.446
8.43422
25.3216
17.4776
8.05167
36.3461
34.1338
36.2419
39.8599
34.5114
41.9392
34.0927
16.8238
9.06885
16.9456
2.35299
26.7563
4.46185
11.1667
25.5248
33.7316
14.9836
33.2937
20.8577
43.8085
15.9368
10.7625
4.63585
7.10457
1.57418
10.8597
3.42789
5.57626
29.4156
42.9047
44.5463
21.9993
46.294
29.5891
20.4942
10.1197
1.70994
1.77988
6.00289
2.66529
7.82971
6.35805
2.17442
15.7869
4.80968
17.2716
2.55266
24.2036
7.36249
0.040847
0.374581
0.0378899
0.28416
0.21834
0.347555
0.216191
0.00784303
0.0262604
0.0432687