/*--------------------------------*- C++ -*----------------------------------*\
  =========                 |
  \\      /  F ield         | OpenFOAM: The Open Source CFD Toolbox
   \\    /   O peration     | Website:  https://openfoam.org
    \\  /    A nd           | Version:  10
     \\/     M anipulation  |
\*---------------------------------------------------------------------------*/
FoamFile
{
    format      ascii;
    class       volScalarField;
    location    "0.9";
    object      nut;
}
// * * * * * * * * * * * * * * * * * * * * * * * * * * * * * * * * * * * * * //

dimensions      [0 2 -1 0 0 0 0];

internalField   nonuniform List<scalar> 
12920
(
14.3823
12.4001
2.13461
2.61872
0.762285
1.43569
1.01514
1.11704
0.747543
0.438192
0.215017
0.105941
0.0469394
0.0184292
0.00441889
0.000869044
0.000163467
3.99249e-05
1.74777e-05
1.3759e-05
18.8042
15.1231
5.18988
4.36452
0.763832
1.98596
0.586515
0.946485
0.448556
0.336383
0.141529
0.0694918
0.022409
0.00605456
0.00103042
0.000188698
4.49549e-05
2.07589e-05
1.67056e-05
1.51346e-05
9.65621
13.5148
8.04789
7.06035
1.83724
1.06639
0.214175
0.248674
0.106808
0.0807069
0.027437
0.0104863
0.00209805
0.000446965
8.62848e-05
2.93213e-05
1.86388e-05
1.7583e-05
1.71588e-05
1.57521e-05
11.8635
13.649
4.57618
4.88902
1.51003
1.66845
0.358026
0.162222
0.0224243
0.0116515
0.0025378
0.000904766
0.000178368
6.12586e-05
2.7634e-05
2.32364e-05
2.04599e-05
2.01233e-05
1.91656e-05
1.68871e-05
13.3905
12.6005
3.82987
4.43619
1.21802
1.79045
0.120288
0.0439671
0.00333391
0.0011986
0.00018125
8.7223e-05
3.33267e-05
2.67643e-05
2.15498e-05
2.17327e-05
2.05048e-05
2.04678e-05
1.9761e-05
1.74581e-05
10.7153
12.6563
2.49549
0.810718
0.259622
0.0944143
0.0105534
0.0152099
0.000846592
0.000477194
0.000104099
4.9936e-05
3.12642e-05
2.7268e-05
2.5183e-05
2.4088e-05
2.30586e-05
2.23589e-05
2.144e-05
1.84442e-05
17.2943
9.17933
1.8067
1.00946
0.436114
0.320745
0.0327757
0.00457324
0.000726166
0.000170926
0.000154218
0.000116986
6.08726e-05
4.29013e-05
2.97613e-05
2.78767e-05
2.41994e-05
2.34253e-05
2.19861e-05
1.88755e-05
8.34237
10.0553
2.14884
2.24515
0.763682
0.410375
0.0877973
0.000559239
5.18544e-05
3.20432e-05
0.000171661
8.59272e-05
3.44866e-05
2.37647e-05
4.50197e-05
2.98813e-05
2.51737e-05
2.25538e-05
2.12003e-05
1.82442e-05
8.7637
12.1679
7.51612
5.14792
1.46854
0.400439
0.0658142
0.00496185
0.000109895
0.00142426
0.000639168
2.65964e-05
1.19628e-05
1.0099e-05
2.02393e-05
2.11611e-05
2.01745e-05
2.01569e-05
1.98135e-05
1.77965e-05
2.78935
12.5038
10.3038
6.77048
2.64278
1.09848
0.0445427
0.000955244
3.07856e-05
0.0048626
0.0186713
0.00391762
2.44653e-05
8.65311e-06
2.63832e-05
1.95532e-05
1.85701e-05
1.86988e-05
1.85668e-05
1.72394e-05
2.07105
10.8842
8.79029
7.22522
2.42334
0.747136
0.115756
0.0215904
0.00331675
0.00534795
0.0414041
0.0125531
0.000186125
1.09615e-05
2.47214e-05
1.95051e-05
1.86157e-05
1.8756e-05
1.87018e-05
1.74453e-05
0.573262
4.33129
2.45816
4.10569
2.78122
1.06643
0.254422
0.0831235
0.0459818
0.0368354
0.0462466
0.000856684
1.67923e-05
1.02303e-05
2.26082e-05
2.52091e-05
2.24559e-05
2.15048e-05
2.07342e-05
1.82013e-05
1.5477
7.69425
3.78809
4.51053
2.32455
2.21848
0.554733
0.307875
0.171153
0.0758652
0.0121082
0.000775627
6.69844e-05
2.1269e-05
5.26113e-05
3.22049e-05
2.58265e-05
2.3e-05
2.16277e-05
1.88031e-05
3.56843
11.1405
7.82749
6.59252
2.71296
2.65986
1.56051
1.33667
0.969681
0.726178
0.352606
0.144359
0.0260927
0.00383136
0.00042841
7.26329e-05
2.83126e-05
2.2944e-05
2.15901e-05
1.91007e-05
7.04112
10.2168
5.46825
6.12979
3.42754
3.19546
1.80959
1.5088
1.06431
0.813169
0.409636
0.154211
0.0321679
0.00604838
0.00101055
0.00019982
4.99285e-05
2.67932e-05
2.20638e-05
1.92273e-05
6.69136
5.72352
7.40113
7.45692
5.82306
4.31135
2.26052
1.64529
0.78694
0.6761
0.326
0.14268
0.0420331
0.0118059
0.00247643
0.000524752
0.000102248
3.32483e-05
2.17499e-05
1.87136e-05
5.1685
11.3279
11.1304
8.84355
6.12397
3.75283
1.43346
0.719485
0.184239
0.180032
0.116736
0.0868288
0.0271052
0.00745103
0.00143876
0.000274184
5.26164e-05
2.56829e-05
2.15625e-05
1.91467e-05
9.66238
15.2206
13.802
9.34799
4.13719
3.13723
1.05955
0.809033
0.261547
0.172081
0.0624984
0.02825
0.00650506
0.00145322
0.0002219
5.12567e-05
2.46554e-05
2.27815e-05
2.15475e-05
1.91635e-05
10.589
7.92946
4.34919
4.62097
1.63562
1.8043
0.820679
0.749754
0.198188
0.129774
0.0146887
0.00488589
0.000522354
0.000116438
3.27352e-05
2.72078e-05
2.30368e-05
2.36137e-05
2.21735e-05
1.95289e-05
1.06996
3.1421
3.70148
4.96329
1.61137
1.54041
0.311606
0.23082
0.0543382
0.0263665
0.00346214
0.000993953
0.000117324
4.65456e-05
2.44304e-05
2.48891e-05
2.16787e-05
2.22893e-05
2.08617e-05
1.83504e-05
11.6535
23.3765
10.5074
12.6544
7.38638
13.4876
9.172
11.2801
6.74378
4.97841
2.50637
1.11742
0.487961
0.280474
0.0844335
0.0122679
0.00163395
0.000253097
6.38611e-05
3.76017e-05
38.6108
41.4219
28.451
16.0425
9.85935
4.40088
2.14505
0.746039
0.419978
0.204506
0.147695
0.127958
0.155455
0.0686756
0.0226525
0.0103907
0.00291208
0.000830799
0.000324773
0.000153841
40.6911
36.0938
27.7188
20.8633
14.4662
6.98715
2.04004
0.405708
0.160321
0.0775607
0.0508835
0.0380659
0.0273703
0.0127818
0.00388836
0.000989099
0.000353827
0.000191655
0.00013041
0.000105533
32.7937
33.1343
29.5662
17.4094
13.842
12.5065
8.22992
3.779
0.735991
0.0924762
0.0133275
0.00591306
0.00311202
0.00133965
0.000472638
0.000207415
0.000138188
0.000113426
0.000103176
9.81866e-05
28.4737
32.1127
26.3372
14.0912
7.58748
6.2105
3.33011
0.856566
0.14836
0.0180196
0.00312927
0.00132056
0.000622618
0.000298686
0.000164203
0.000121143
0.000107608
0.000101509
9.90617e-05
9.71499e-05
19.2682
11.512
8.53594
9.32092
3.99679
1.48325
0.221036
0.0756797
0.0184481
0.00606004
0.00193054
0.000760295
0.000339688
0.000192423
0.00013572
0.000113888
0.00010502
0.00010064
9.85888e-05
9.70907e-05
13.3978
21.6376
8.1651
9.99661
5.78855
1.23648
0.247655
0.20613
0.0292492
0.00451241
0.00113445
0.000487137
0.00030274
0.000190479
0.000144516
0.000120107
0.000108564
0.000102339
9.93166e-05
9.7327e-05
21.1866
38.3822
19.8465
10.1336
6.60686
2.51333
0.367636
0.144669
0.0116027
0.00955573
0.00423438
0.00267138
0.00105071
0.000430877
0.000211207
0.000154907
0.000126204
0.000111112
0.0001035
9.90033e-05
21.526
39.2539
22.9192
11.6861
3.94566
1.08565
0.309899
0.0534654
0.031939
0.0449524
0.00490439
0.00377252
0.00164261
0.000318627
0.000131154
0.000112021
0.000110241
0.000106107
0.000102989
9.95701e-05
12.9941
37.3633
23.2707
17.7263
7.77925
1.67459
0.604476
0.0218454
0.019691
0.0589036
0.072566
0.0610826
0.00262388
0.000610855
0.000126558
0.000107507
0.000106513
0.000103582
0.000100787
9.81859e-05
9.44276
37.1752
30.2516
24.3438
17.3093
9.021
3.74536
1.25575
0.0775036
0.135183
0.171277
0.227613
0.00996704
0.000519119
0.000141429
0.000104859
0.000103244
0.000101777
0.000100169
9.80214e-05
7.73143
19.1411
16.5553
19.9477
20.2245
13.9605
5.12385
1.7946
0.782378
0.60552
0.491361
0.07024
0.00127779
0.000433404
0.000145409
0.000118636
0.000112598
0.000107238
0.000103485
9.97436e-05
14.0215
16.4275
16.9895
15.2804
12.8441
8.72778
5.29819
3.05356
1.59589
0.844915
0.232932
0.0207313
0.00113535
0.000300637
0.000243558
0.000166574
0.000126814
0.000109508
0.000102271
9.84291e-05
12.5168
25.1933
23.37
17.4841
10.9923
9.19857
6.52622
5.7083
3.96772
2.16786
0.884853
0.369651
0.0847844
0.0128099
0.00238449
0.000696508
0.000264317
0.000147019
0.000113371
0.000101015
18.8906
29.098
21.8829
18.8502
12.5932
9.73229
7.81241
6.06327
4.69952
2.59842
1.62133
0.646737
0.149447
0.0365828
0.0122663
0.00438565
0.00112003
0.000307589
0.000139501
0.000104701
29.971
23.9497
23.1953
19.8188
14.6215
6.35147
5.41332
2.22673
1.95202
1.06734
0.845723
0.327879
0.123066
0.0599975
0.0365425
0.0154996
0.00314598
0.000528079
0.00016842
0.000109421
9.13183
31.9734
36.241
22.2158
10.582
1.42667
1.22616
0.460713
0.433999
0.251818
0.225088
0.158556
0.0769685
0.01711
0.00576166
0.00383592
0.000532704
0.000170068
0.000113086
0.00010003
18.7428
43.2023
36.4256
16.7859
8.5434
1.65903
1.15634
0.492399
0.361196
0.226275
0.135673
0.0503584
0.027549
0.00842363
0.00149403
0.000315478
0.000142997
0.000109027
0.000100341
9.72917e-05
18.4765
25.6488
19.0808
6.51146
3.34238
1.30503
1.11412
0.3363
0.18777
0.0797939
0.0231649
0.00455479
0.00113703
0.000304943
0.000153746
0.000115688
0.000105196
0.000101558
0.000100149
9.94192e-05
0.278183
5.07202
9.15635
10.2099
6.52139
2.87709
0.791581
0.320788
0.0808666
0.0387717
0.00672358
0.00236299
0.000290954
0.000118801
5.90844e-05
5.96319e-05
5.19162e-05
5.3765e-05
5.05884e-05
4.51598e-05
13.1064
15.4021
8.35916
16.732
12.9722
17.1436
14.2314
14.6508
8.89207
8.13123
5.12343
3.39654
1.53719
0.639094
0.251069
0.0525768
0.00475872
0.000476675
7.5794e-05
3.79558e-05
38.5788
31.1027
31.4435
18.9608
14.8264
10.2755
5.16336
1.97288
1.01317
0.682327
0.616423
0.451294
0.388894
0.308429
0.119069
0.0657811
0.0076896
0.000838072
0.000236333
0.00013667
47.1462
47.7361
39.9134
27.7644
18.2168
9.87542
4.38115
1.19168
0.258312
0.100807
0.0937895
0.114112
0.120737
0.0778951
0.0266158
0.00528162
0.00081527
0.000207886
0.000119263
0.000101176
40.8913
43.3744
46.0189
32.0207
24.205
18.3669
10.0729
4.19521
0.684615
0.0751738
0.0233845
0.0211282
0.0160536
0.00838664
0.00271357
0.000653891
0.000199836
0.000116627
0.00010126
9.73417e-05
26.7255
42.3654
45.0152
26.2772
13.5273
7.88322
2.63153
0.58117
0.073729
0.0142954
0.00556377
0.00393392
0.00221618
0.001058
0.000389332
0.000167471
0.00011311
0.000100977
9.82376e-05
9.67918e-05
15.702
40.0669
29.4112
19.8099
8.30424
1.75863
0.708352
0.209078
0.0985111
0.0245455
0.00640856
0.00209926
0.000708391
0.000298263
0.0001594
0.000117531
0.000104637
9.99112e-05
9.81061e-05
9.68245e-05
35.5234
32.8629
19.9332
15.4358
9.03353
2.39562
1.04695
1.29262
0.293036
0.0413083
0.0037184
0.000829446
0.00034924
0.00020177
0.000147125
0.000119628
0.000107787
0.000101643
9.88737e-05
9.70372e-05
50.5451
59.0284
37.4908
18.7037
8.19873
3.24139
0.904059
0.984968
0.166714
0.0123611
0.00474244
0.00241941
0.000831862
0.000387776
0.000301403
0.0002133
0.00013635
0.000111572
0.000103004
9.86921e-05
72.4568
56.6251
28.843
11.2065
3.97805
2.33158
1.19898
0.283517
0.45173
0.0512446
0.0402341
0.00258787
0.000976433
0.000229267
0.000127959
0.00307888
0.00236561
0.000602769
0.000170535
0.000105548
33.059
53.1804
36.2586
23.3013
8.11976
1.1386
0.258961
0.059565
0.0779884
0.275594
0.286667
0.025716
0.000892928
0.000203916
0.000195001
0.00504601
0.00395409
0.00101436
0.00024441
0.000118275
3.24555
31.8681
42.3448
35.7159
24.9571
9.40065
2.16426
0.287774
0.0908054
0.640271
0.715526
0.164655
0.00332715
0.000425077
0.00021124
0.00503628
0.00410059
0.00109104
0.000246155
0.000114576
3.87482
28.6788
31.0693
35.6806
32.7293
22.2447
9.86756
2.76489
2.10909
1.29923
0.904335
0.0302507
0.00113233
0.000475286
0.000159592
0.00331283
0.00279875
0.000789579
0.000202473
0.000109104
4.09865
19.0687
30.2642
33.7871
30.1605
19.2615
11.4624
6.44285
2.46868
1.39031
0.232562
0.0107321
0.000692649
0.000260174
0.000212931
0.000152522
0.000118816
0.00010534
0.000100215
9.76282e-05
8.62177
31.1343
30.8551
28.8141
20.9325
12.9318
7.84341
4.94187
3.21364
1.80824
0.635884
0.126016
0.0178242
0.00286964
0.000705181
0.000278833
0.000151294
0.000112157
0.000100842
9.71991e-05
29.3953
35.039
28.9971
17.0302
13.5299
7.59989
6.37817
4.00415
2.93957
1.7
0.696119
0.149849
0.0279069
0.00681722
0.00242051
0.000977323
0.000351816
0.000158633
0.000110191
9.86921e-05
20.9731
32.2827
29.2682
18.918
10.5393
4.22863
3.60607
1.51672
1.03144
0.364324
0.131727
0.0365
0.0162188
0.0109835
0.00643442
0.00252729
0.000742729
0.0002339
0.00012307
0.000100554
28.3275
41.418
41.1297
21.3099
6.9962
1.02462
0.83672
0.27864
0.153349
0.0469553
0.0197943
0.0179215
0.013649
0.00542841
0.00156977
0.000418693
0.000166662
0.000111521
9.95369e-05
9.66151e-05
26.0999
49.553
46.3008
23.1662
5.61292
0.657742
0.156426
0.0584228
0.0327631
0.023053
0.0227991
0.0104006
0.00339474
0.000827023
0.000256019
0.000134062
0.000106747
9.91865e-05
9.69507e-05
9.61696e-05
22.8931
36.8842
28.5479
5.89589
1.83377
0.810668
0.428839
0.153564
0.0595592
0.013679
0.00291818
0.000846986
0.00039178
0.000217825
0.000142418
0.000114447
0.00010459
0.000101198
9.99464e-05
9.92506e-05
1.07559
6.81948
8.95825
4.37367
4.0701
2.29141
0.666446
0.341328
0.0976421
0.0516902
0.00766856
0.00237026
0.000237131
0.000106956
5.80839e-05
5.97571e-05
5.20215e-05
5.38445e-05
5.06296e-05
4.51732e-05
9.87755
11.6305
11.8845
20.3731
18.3635
20.2109
16.2811
13.2821
8.41223
7.37491
5.37992
4.16799
2.56065
1.22451
0.414847
0.12195
0.0171608
0.00138873
0.000137217
4.16259e-05
48.9828
42.2893
36.0686
26.1149
24.9168
19.2314
11.7936
6.19614
3.10218
1.52199
0.887117
0.808846
0.775593
0.62607
0.48557
0.111676
0.0231167
0.00305918
0.000775843
0.000413013
19.9652
53.4042
47.2405
32.3922
23.4731
16.3199
10.1984
5.00466
2.10699
0.803125
0.530632
0.392489
0.271174
0.174663
0.0814193
0.033859
0.0087097
0.00159647
0.000515887
0.000331838
42.9294
51.0432
53.226
37.65
30.2792
21.1248
11.2602
4.19379
0.883721
0.20632
0.07744
0.0720054
0.0625499
0.0397071
0.0204304
0.00771533
0.00194755
0.000563718
0.000307188
0.000263843
18.4666
45.0388
51.9423
32.7122
18.3052
8.11904
2.82013
0.765462
0.238334
0.0673556
0.0269874
0.0199012
0.0139991
0.00986727
0.00576251
0.00241381
0.000623972
0.000304681
0.000259232
0.000256823
40.4176
56.2624
47.2234
29.225
14.8706
5.50413
4.14297
1.40598
0.609975
0.162694
0.0389096
0.0104033
0.00331233
0.00145852
0.000650038
0.000331058
0.000226068
0.000212413
0.000214851
0.000228021
70.6336
46.3541
35.7493
24.01
15.1669
7.0057
5.86674
4.08661
1.26026
0.299069
0.0552305
0.0116419
0.00430709
0.00114194
0.00155296
0.000520448
0.000284698
0.000252846
0.000243479
0.000242701
68.7701
76.2997
50.0943
24.7467
10.6134
7.39738
3.66129
2.06458
0.940012
0.0409905
0.00638448
0.0016245
0.000839716
0.000537681
0.116083
0.0747403
0.0279233
0.00945318
0.00300634
0.000894782
97.4729
64.2735
37.6854
12.7322
4.21928
2.83739
2.32397
0.585353
1.1298
0.181522
0.00643879
0.00104773
0.000576931
0.000264383
0.00662118
0.464821
0.364927
0.159094
0.0567143
0.0142628
64.3299
60.6908
38.3801
20.1733
8.79385
0.357012
0.838619
0.214336
0.866005
0.159159
0.0149858
0.000844253
0.000418629
0.000214153
0.0164898
0.541145
0.436071
0.194536
0.0706819
0.0181174
13.3761
40.1528
53.4377
42.9228
28.7736
14.8275
4.8504
0.897913
1.12767
1.34436
0.23359
0.0240086
0.00615822
0.000382705
0.0207765
0.561992
0.460419
0.209953
0.0773611
0.0201141
16.3789
43.5171
49.2714
48.7538
41.8677
28.0943
16.5663
9.06213
6.62021
3.14586
1.26234
0.0297929
0.00169536
0.00060678
0.0166513
0.480919
0.39397
0.182186
0.0682813
0.0180964
33.4892
48.6478
49.4212
48.4354
41.5359
27.7886
18.6935
8.27815
2.83292
0.689385
0.0390455
0.00424041
0.00156921
0.00104881
0.0449569
0.035549
0.0159813
0.00607024
0.00218704
0.000752406
31.3024
43.8532
43.061
38.1579
31.7083
16.8298
9.71918
4.02998
1.47173
0.531765
0.131521
0.0272344
0.00689487
0.00273816
0.000957749
0.000499372
0.000393487
0.000344143
0.000316593
0.000291693
22.0116
40.5256
31.6908
23.0016
19.682
10.6871
6.41002
2.50655
0.98243
0.342773
0.0945751
0.0286128
0.0173878
0.00720523
0.00180057
0.000743565
0.00048567
0.00037605
0.000333733
0.00029993
24.0568
39.4652
30.2987
16.4502
11.1676
4.41475
3.89143
1.49776
0.66195
0.221699
0.0849812
0.0379759
0.0116226
0.00334165
0.00158516
0.000887399
0.000591249
0.000429234
0.000367698
0.000318949
35.7749
55.6405
43.2196
13.8055
3.44491
1.06215
1.01299
0.390785
0.215722
0.0935027
0.0460359
0.0106893
0.00311957
0.00125101
0.000713293
0.000481923
0.000405078
0.000353735
0.000334545
0.000307994
24.8054
55.9821
51.887
25.1573
5.71096
0.764938
0.330774
0.161612
0.0688693
0.0311823
0.00872087
0.00346451
0.00167569
0.000865069
0.000560914
0.000422153
0.000373906
0.000341199
0.000327107
0.000312647
22.0457
39.3192
27.7325
4.9841
1.37752
0.822647
0.597347
0.315083
0.0883009
0.0192582
0.0109729
0.00898958
0.00729716
0.00560932
0.00309524
0.00148236
0.000645361
0.000398745
0.000333942
0.000316882
1.84172
8.03524
7.23014
2.71986
1.87653
1.61441
0.600292
0.355948
0.0947726
0.0334452
0.0055006
0.00154162
0.000289413
0.000209536
0.000106041
7.90273e-05
5.78487e-05
5.57946e-05
5.12493e-05
4.52526e-05
8.78152
9.59838
7.21129
22.9617
9.06371
15.3257
8.30538
7.41527
4.23622
2.83787
1.73276
1.19718
0.770695
0.450748
0.209642
0.0710111
0.0119934
0.00120813
0.000112406
2.32994e-05
20.2853
27.7761
26.7683
35.9115
23.4393
26.3501
17.0802
16.2878
10.3689
4.91723
2.46235
1.23997
1.47749
1.19632
0.468541
0.143227
0.0780951
0.05983
0.0524483
0.0452872
12.4828
51.8298
34.4666
36.2209
22.1617
24.9731
17.3511
16.3156
11.3004
5.51621
3.41638
1.71801
0.865398
0.395462
0.16644
0.0802092
0.0575497
0.0482288
0.0451376
0.0413622
43.5
59.4304
50.8068
40.7009
24.8809
21.4194
13.1116
8.87402
5.11963
2.04362
0.794187
0.340348
0.227923
0.119693
0.067805
0.0448637
0.0393997
0.0369465
0.036217
0.0359094
48.2049
52.8147
50.604
35.6518
18.5592
13.1828
9.4973
4.96407
2.9089
1.02062
0.370454
0.149462
0.0822941
0.0511892
0.0407646
0.0360002
0.0352227
0.0349378
0.0349988
0.0355564
15.0907
58.6517
41.996
34.8518
16.3247
15.4253
12.7154
6.99824
2.89734
0.804938
0.194122
0.0653022
0.0372391
0.0291845
0.0272456
0.0270652
0.027791
0.0293335
0.0302086
0.0323151
51.544
65.6704
36.1001
31.047
17.4426
15.0872
14.656
9.48054
3.19887
0.643987
0.263909
0.136267
0.170803
0.0813762
0.0608308
0.0410471
0.0371221
0.0351235
0.0342415
0.0339777
104.168
101.172
66.7643
33.4413
14.9755
14.8212
12.0958
6.00065
2.67517
0.468948
0.403419
0.610312
0.630573
0.438133
1.71611
1.00092
0.532132
0.277306
0.143891
0.0705475
109.163
76.428
34.3155
18.2237
11.5945
7.82319
9.28889
4.18026
3.40225
4.22393
1.77687
2.02006
2.03704
1.84238
2.61017
3.53331
2.68001
1.57479
0.766648
0.274432
68.49
65.8123
34.3381
16.0719
12.4473
5.52991
3.07607
2.89112
6.48582
5.87715
4.12395
3.31928
3.20171
3.02666
3.20663
3.83729
3.00571
1.78899
0.877642
0.312421
48.5744
66.4466
42.5358
44.1003
22.6189
12.0221
4.45573
1.71995
3.82007
6.23961
4.35136
4.26008
3.89459
3.36526
3.41935
3.94129
3.12329
1.88466
0.932975
0.332306
70.0043
57.6809
49.2482
54.7225
38.5612
28.6524
20.0544
11.3623
6.93881
4.51022
2.89424
3.03141
3.15785
3.02116
3.24919
3.58838
2.81178
1.71329
0.871662
0.317856
51.6871
55.8428
44.3852
53.5768
33.0777
25.4679
18.409
6.79331
2.47346
1.91427
0.737388
0.328296
0.478778
0.659778
1.05028
0.656981
0.394049
0.220526
0.124333
0.0666835
67.4103
28.2908
34.6814
22.1103
24.9796
17.738
8.73484
3.31947
1.86355
0.699208
0.355955
0.151861
0.0859301
0.0558594
0.0530519
0.0510019
0.0490117
0.0458221
0.0430417
0.0403211
61.7676
25.434
35.6967
18.5105
22.7564
10.5422
10.4263
4.23053
1.8111
0.644273
0.331736
0.150895
0.0878168
0.0654264
0.060912
0.0585441
0.055182
0.0487339
0.0448189
0.0412635
67.3372
26.7501
30.9648
11.6707
15.4579
5.18184
7.72587
3.08464
1.44214
0.496785
0.293304
0.140926
0.100998
0.0754017
0.0722226
0.0664869
0.0626278
0.0544199
0.0487868
0.0434983
87.4624
68.7443
42.8893
9.28032
5.6167
1.79111
1.73593
0.625831
0.440299
0.186114
0.144749
0.0863191
0.07912
0.0664489
0.0645165
0.0582977
0.0536393
0.0479498
0.0454379
0.0423468
52.3802
57.6817
55.413
13.5239
3.29805
0.548783
0.787448
0.364482
0.21185
0.131306
0.117054
0.08929
0.0799222
0.0607745
0.0562658
0.0500695
0.0482615
0.0455043
0.0443297
0.0423425
22.0742
29.0508
22.5784
1.54333
1.5747
0.496944
0.350181
0.103357
0.214836
0.102633
0.0785125
0.0589538
0.0544097
0.0474112
0.0460876
0.0437139
0.0434909
0.0426029
0.042458
0.0419905
17.6972
3.31789
2.05939
0.661672
0.557688
0.828622
0.16843
0.0980945
0.0170826
0.0051413
0.000573638
0.000418373
0.000343394
0.000697979
0.00100789
0.00107477
0.00090287
0.000564469
0.000340437
0.000110945
0.385685
0.624131
0.86165
0.143267
0.0408074
0.652258
0.449344
0.063357
0.782557
0.146501
0.022222
0.00238308
0.345516
0.0455103
0.720059
1.26862
0.905178
1.03911
0.799817
2.43204
1.37653
0.282471
0.920047
0.15957
0.652771
0.103688
1.16234
0.0627077
0.0150289
0.0292167
0.00461966
0.311014
0.124927
0.29121
0.0269314
0.000141048
0.00133862
6.30647e-05
0.0401509
0.0153177
0.0192995
0.0109765
0.000630282
4.26382e-05
0.000701067
0.0138029
0.0371242
0.0130464
0.0228216
0.0010232
0.00650526
0.0145682
0.0279812
0.00666732
0.0252456
0.0267567
6.52425e-05
0.0121987
0.0039423
0.00577042
0.00446721
0.0180426
0.027905
1.19336e-05
0.00148249
3.09451e-05
0.00395696
0.00204411
0.0212266
0.00408528
9.97916e-06
1.5126e-05
9.40065e-06
0.00170873
0.000667358
0.00269034
0.00162887
8.7176e-06
9.61503e-06
9.2159e-06
0.000422186
0.0001753
0.00103439
0.00021388
0.00348095
0.131845
0.0231886
0.741199
0.0523724
1.93753
1.43742
3.06057e-05
0.0142242
0.0014369
0.0188069
0.0105018
0.86117
0.0434193
0.000821517
0.000501572
0.000205308
0.0117085
0.0267311
0.0176295
0.0234751
0.0194058
0.00242147
0.0244026
0.0360421
0.0422573
0.0389457
0.0673219
0.00876921
0.0337561
0.0218177
0.0364346
0.058697
0.0815066
0.131266
7.79897e-05
0.0124811
0.00063036
0.0421357
0.00464239
0.127352
0.0211466
8.87343e-06
0.000168452
1.22458e-05
0.00261516
0.00161959
0.00733798
0.00108471
7.68106e-06
9.93173e-06
7.61248e-06
0.00117502
0.000249359
0.000967715
0.000332477
0.0340612
0.123111
0.0550403
2.59015
1.61025
1.75852
1.27802
0.00566844
0.0430878
0.027803
1.21477
0.136326
1.07296
0.721412
0.00127509
0.0244124
0.0236684
0.0680844
0.0321014
0.661246
0.542712
0.0291273
0.0273053
0.0459403
0.0322879
0.11606
0.402135
0.379358
0.0215414
0.041621
0.00433075
0.121723
0.200956
0.398028
0.206134
0.000667472
0.00146619
6.54141e-05
0.186994
0.0240803
0.0962983
0.00465986
1.39429e-05
3.72909e-05
1.42616e-05
0.00855197
0.00088658
0.00217338
0.000622745
7.45948e-06
1.17432e-05
8.61598e-06
0.000767627
0.000327725
0.000488214
0.000246924
0.108827
0.246065
0.139801
3.77765
2.7886
4.09889
2.59617
0.0534105
0.11643
0.0788079
2.35521
1.02939
2.05841
1.04634
0.0370986
0.0657953
0.0320543
0.833914
0.466044
0.891722
0.372247
0.0597121
0.0344008
0.041724
0.498953
0.406732
0.345935
0.507703
0.00295969
0.0287206
0.00153458
0.456277
0.143322
0.527579
0.120173
2.89875e-05
0.000376259
1.68819e-05
0.0591751
0.00257616
0.0416142
0.00199918
1.01934e-05
1.12782e-05
9.47648e-06
0.00138185
0.000551469
0.00101953
0.000384084
8.44534e-06
9.516e-06
7.78558e-06
0.000458665
0.000230533
0.00031723
0.000265106
0.113316
0.135599
0.0357282
0.530332
0.184613
0.167386
0.0923365
0.0361969
0.0244346
0.0144599
0.235314
0.270376
0.0887538
0.112458
0.0454285
0.0201595
0.0329771
0.27302
0.0562576
0.124457
0.0722224
0.00522201
0.0350227
0.0215411
0.0502812
0.0450483
0.129856
0.276163
0.00410336
0.035153
0.0559964
0.0282283
0.00391676
0.246818
0.0396209
0.00214239
0.027123
0.00404067
0.00293169
0.00156186
0.0161495
0.00194664
0.000442728
0.00268285
0.000871814
0.00113358
0.000309578
0.0010856
0.000239133
0.000162399
0.000468161
0.000148692
0.000239597
0.000148909
0.00018627
0.000126715
0.029035
2.39931
1.15648
0.212189
0.0543084
1.47428
0.639519
0.0142921
0.585677
0.0343933
0.0643391
0.0742757
0.291183
0.0255603
0.037962
0.0143092
0.0604987
0.0765675
0.0952306
0.0246391
0.622334
0.0508933
0.160659
0.145661
0.23689
0.4008
0.617359
0.683746
0.106178
0.153271
0.216222
0.37093
0.0983855
0.52266
0.341327
0.00486557
0.193028
0.0237072
0.0443426
0.00307326
0.200984
0.0147188
0.00103784
0.00829919
0.000861632
0.00158253
0.000295938
0.00516093
0.000535525
0.000163521
0.000593107
0.00019944
0.000214615
0.000135448
0.000368566
0.000180428
1.79201
3.28057
1.33992
2.12911
0.742171
5.33852
2.11067
0.192078
0.975507
0.657692
0.448016
0.0578327
1.65383
1.36432
0.106013
0.625438
0.644403
0.0513006
0.859694
1.4398
1.19154
0.143295
0.605627
0.400952
0.636401
0.525822
1.07261
0.763525
0.257516
0.407096
0.259145
0.391116
0.37798
0.652313
0.238963
0.0267454
0.112925
0.00528819
0.229037
0.015847
0.0829869
0.00324231
0.000797401
0.00241314
0.000626115
0.0056585
0.000611094
0.00188055
0.000673228
0.000202264
0.000460915
0.000197257
0.00042157
0.000190078
0.000488923
0.000208436
2.37299
6.59863
3.57302
8.79217
3.12367
11.1038
6.68123
0.948037
3.2337
1.56864
2.51676
1.63008
5.76037
3.96561
0.579159
1.30017
0.589754
1.59356
1.31697
3.68722
2.65638
0.443492
0.572456
0.819379
1.11446
0.712939
1.90339
1.15916
0.179467
0.802858
0.151028
0.710433
0.162755
1.19644
0.121692
0.00221691
0.0459008
0.00101152
0.0502581
0.00187005
0.0282085
0.000675596
0.000567327
0.000473839
0.000235062
0.00119368
0.000607405
0.0003916
0.000228635
0.000189892
0.000213541
0.000190841
0.00047624
0.000212896
0.000207515
0.000167444
0.224643
0.543372
0.103185
1.67991
0.485815
1.66853
0.26735
0.469853
0.100058
0.139898
0.382129
0.740485
0.162044
0.350741
0.067539
0.156281
0.0813017
0.828381
0.301836
0.673549
0.135416
0.0682108
0.161085
0.286178
0.0960865
0.0163164
0.113071
0.024078
0.00394557
0.199667
0.025655
0.010412
0.00192472
0.0119375
0.00154653
0.00134836
0.0095586
0.00109006
0.00141189
0.000557628
0.00093088
0.000397166
0.00029007
0.000620129
0.000213865
0.000475228
0.000225563
0.000324002
0.000203987
0.000149549
0.000179793
0.000126556
0.000201287
0.000156062
0.000181907
0.000134745
0.0754829
0.81916
0.269064
0.854314
0.200748
0.706463
0.158725
0.0770951
0.122266
0.0428615
0.11854
0.334824
0.128631
0.0823804
0.118988
0.0442226
0.788615
0.411892
0.123427
0.144263
0.663412
0.347029
0.396486
0.445602
0.21456
0.580915
0.251362
0.317971
0.121746
0.209623
0.422133
0.0918541
0.344099
0.0643154
0.154264
0.00170938
0.132282
0.00786207
0.00130228
0.000436283
0.0160055
0.00125004
0.000246605
0.00298121
0.000526917
0.000351192
0.000227408
0.000948524
0.000654967
0.000135433
0.000408375
0.000222001
0.000213399
0.000157675
0.000561514
0.000346207
0.536728
6.18509
2.40825
3.3389
0.68322
9.1165
5.53285
0.0746173
2.01683
2.15549
0.421919
0.503755
5.57462
5.75851
0.884121
2.11526
1.61938
1.00711
1.03941
5.17426
3.22821
1.00628
0.722317
1.00624
0.581859
0.797554
0.330395
1.14039
0.744382
0.68021
0.637581
0.217
0.680787
0.160731
0.838074
0.00944706
0.0433029
0.00262597
0.0321108
0.00296038
0.0233548
0.00423649
0.000559637
0.00193441
0.000734064
0.00163219
0.00063877
0.00338366
0.00117509
0.000230844
0.000513732
0.000207169
0.000514661
0.000305938
0.000739312
0.000213816
3.57417
13.4062
7.73132
14.5823
7.75352
19.9363
12.9938
2.10835
6.57064
4.55674
7.05972
6.56773
11.4153
6.74704
1.49047
4.24445
3.09621
6.03367
3.50121
6.54926
3.35216
0.896863
2.03439
1.32245
2.62781
1.45382
2.39838
2.34592
0.117423
1.46331
0.0893447
1.27809
0.0556121
1.18793
0.0235015
0.00143788
0.018359
0.000568633
0.0178094
0.00182639
0.00643883
0.000620362
0.000615665
0.000372052
0.000231922
0.00159896
0.000790094
0.000434023
0.000247647
0.000211093
0.000211419
0.000171729
0.000563878
0.000206616
0.000223592
0.000197658
0.845601
1.24576
0.299945
6.54965
3.05023
2.44994
1.41454
0.776433
0.262745
0.747178
2.53071
2.14471
1.3889
4.02705
0.575207
1.2924
0.251918
2.43443
3.38499
5.05714
4.02814
0.0105484
0.158719
0.0178807
2.6093
0.750347
3.44895
1.94979
0.00129174
0.00680584
0.000918028
0.56578
0.515021
1.71272
1.35835
0.000600227
0.000726036
0.00061018
0.512199
0.543611
1.17623
0.94052
0.000310611
0.00059163
0.000306187
0.527877
0.480005
0.897111
0.837921
0.000205292
0.000234401
0.000319575
0.446838
0.34895
0.785008
0.567214
0.276625
1.09216
0.281861
2.06724
1.42994
2.68675
0.913433
0.770104
0.240707
0.163808
1.45667
4.37881
0.759618
0.736222
0.153378
0.312211
0.685434
4.34603
3.77984
0.88771
4.58624
0.0417877
0.912811
0.294136
3.66006
2.55158
4.86519
3.64891
0.00125162
0.143267
0.024802
2.2572
1.52182
3.17225
2.35823
0.000487975
0.0200881
0.00293412
1.3189
1.12085
2.14461
1.59592
0.000248373
0.00124417
0.000374634
1.10378
1.06684
1.47893
1.30925
0.000729518
0.000314651
0.000813072
0.991046
0.67065
1.22925
0.884342
1.18575
10.5109
7.08933
5.31489
1.63861
13.3534
8.63631
0.986526
6.92703
5.84646
1.14499
0.986829
7.36067
5.79061
1.24328
5.07992
3.42907
1.3813
5.1989
5.76184
4.39326
0.484742
2.80332
1.45113
5.0801
2.91897
3.6213
1.77812
0.0256173
1.09376
0.0753537
2.47868
2.41117
1.57271
1.82299
0.0177282
0.0465272
0.00696683
2.45536
2.0867
1.91273
1.85024
0.000560046
0.00453706
0.00145542
1.73475
1.27087
1.70767
1.2639
0.00120372
0.000899972
0.000751385
1.17728
0.849486
1.12905
0.765485
9.87972
21.8118
14.7247
19.9108
13.3196
23.8511
16.8225
7.45178
12.6548
6.7803
11.6311
7.26357
13.416
7.65449
4.12619
6.02401
3.29086
6.24624
4.39643
6.20189
3.64277
1.66174
2.74179
2.1818
3.93282
1.94434
3.22577
0.980464
0.0718721
0.898337
0.0190144
1.45884
1.24074
0.498082
0.148464
0.00215985
0.00755966
0.000838446
1.1884
1.08553
0.132784
0.24366
0.000831852
0.000532966
0.000289053
1.08761
1.05815
0.285306
0.402417
0.000866992
0.000256793
0.000970935
0.987404
0.760032
0.388417
0.344378
4.98701
3.91928
2.5378
15.2405
9.97132
8.65761
7.75581
3.04564
2.51916
5.68886
8.18435
6.08854
7.79637
9.97873
4.80313
6.53662
6.25171
6.64068
8.71346
10.63
10.0316
2.14628
5.60605
4.04641
8.43621
7.03384
9.35881
7.80421
1.99877
3.78696
3.38585
7.1623
7.52336
7.59196
7.52171
2.08912
3.1708
2.88337
7.59027
7.66464
7.66956
8.31563
1.92008
2.82984
2.74003
7.70644
7.56418
8.40184
8.35427
1.4877
2.64878
2.12813
7.52209
7.10137
8.3302
8.04038
2.71718
2.81877
1.57825
7.96445
8.88705
6.98727
9.22763
6.21442
1.82152
2.7062
9.39386
11.6829
9.99335
11.9161
6.31281
3.20013
6.43799
11.8932
10.0933
11.8703
9.26207
4.41557
6.36511
4.87022
9.16134
7.41796
8.2071
6.87006
3.51536
4.53918
3.94375
7.20939
7.23758
6.69465
6.59068
3.18011
3.79284
3.72588
7.47812
8.47085
6.90895
8.50878
3.14623
3.69906
3.56246
8.66049
8.62651
8.89266
9.03976
2.33016
3.44715
2.76946
8.57959
8.17594
8.9765
8.58134
1.7934
13.4617
8.3758
6.95042
9.02533
13.6849
10.5771
2.72187
7.35074
6.85561
9.76112
11.6961
10.4903
11.4287
6.72257
7.00731
5.80283
11.6218
9.02093
11.3487
9.72527
4.57987
4.97897
3.42628
8.13196
7.25145
9.28066
8.66762
4.24936
3.50133
3.84237
7.12238
6.92909
8.44898
8.05005
4.11197
3.88661
3.96746
7.16949
8.59737
8.17069
8.9321
3.49769
3.90213
3.41396
8.92822
9.00605
9.02517
8.82022
2.7098
3.23012
2.57045
8.94599
8.55867
8.75189
8.43841
13.2393
23.6865
15.1043
20.0023
13.1501
18.2904
14.3369
7.37519