/*--------------------------------*- C++ -*----------------------------------*\
  =========                 |
  \\      /  F ield         | OpenFOAM: The Open Source CFD Toolbox
   \\    /   O peration     | Website:  https://openfoam.org
    \\  /    A nd           | Version:  10
     \\/     M anipulation  |
\*---------------------------------------------------------------------------*/
FoamFile
{
    format      ascii;
    class       volScalarField;
    location    "0.9";
    object      omega;
}
// * * * * * * * * * * * * * * * * * * * * * * * * * * * * * * * * * * * * * //

dimensions      [0 0 -1 0 0 0 0];

internalField   nonuniform List<scalar> 
12920
(
367.277
242.392
119.724
56.7659
55.9842
60.1413
62.2996
61.839
54.8775
40.7267
28.8958
18.9062
11.8337
6.81651
3.4441
1.55104
0.662777
0.292044
0.174368
0.151721
403.907
301.227
169.802
85.1662
51.2007
39.193
38.5758
36.6539
32.1333
24.2849
17.371
10.7582
6.03855
2.94193
1.31906
0.571458
0.277507
0.176639
0.153091
0.149024
260.291
272.903
212.149
138.507
80.3755
39.1412
22.7676
17.5917
14.0241
9.77368
6.3588
3.46292
1.68865
0.765821
0.354152
0.202549
0.161203
0.151041
0.1489
0.148468
345.268
274.871
144.738
96.3062
72.1786
48.0891
30.0756
13.1117
5.97428
3.19931
1.69987
0.855687
0.415426
0.232907
0.169226
0.153214
0.149539
0.148648
0.148458
0.148402
300.158
254.626
134.203
87.6044
59.7602
35.1425
15.7781
6.29154
2.23994
0.985812
0.452198
0.266777
0.184757
0.158709
0.150908
0.148994
0.148539
0.148436
0.148415
0.148393
319.828
251.049
87.0391
48.772
28.1637
13.2964
4.82482
2.33497
1.03533
0.578114
0.306091
0.197845
0.161152
0.151743
0.149288
0.148646
0.148467
0.148417
0.148404
0.148386
358.918
171.151
57.3363
58.6683
40.5313
17.1619
8.47914
2.74061
0.789714
0.353566
0.235887
0.196349
0.186572
0.16413
0.155328
0.150848
0.149005
0.148273
0.148047
0.148049
271.875
198.514
101.61
64.5089
52.7736
29.099
32.4947
2.91577
0.69223
0.585344
0.500301
0.459709
0.40694
0.35815
0.190513
0.162858
0.150546
0.145472
0.143852
0.143975
216.542
245.245
182.116
100.831
58.9116
54.8299
87.6344
17.9192
2.39387
4.1497
5.73603
1.001
0.75482
0.723525
0.387025
0.139167
0.136766
0.136201
0.136382
0.138752
167.936
254.699
209.451
133.439
85.4759
98.1747
68.0828
8.45415
1.73563
17.3403
44.0625
20.0205
1.3076
0.75685
0.462873
0.136292
0.132055
0.131755
0.13245
0.136913
164.094
244.139
229.591
155.734
93.1304
101.564
102.696
50.7276
21.275
28.8077
64.9979
37.3021
3.81468
0.871772
0.449932
0.136398
0.132069
0.131779
0.132514
0.137034
77.8548
112.484
111.284
110.077
105.711
158.929
202.866
108.63
83.8936
75.204
60.9862
8.52664
1.0533
0.794114
0.421326
0.150922
0.143354
0.140075
0.139241
0.140096
124.959
153.734
136.84
110.163
94.1803
74.2118
108.791
60.3322
43.9228
22.4139
10.5674
2.48053
0.720334
0.371461
0.208334
0.169893
0.153637
0.146921
0.144704
0.144675
180.645
224.202
189.204
130.207
95.7948
83.1646
72.5735
66.3676
58.5852
47.5654
30.601
15.1296
5.89321
2.02139
0.673857
0.272461
0.172199
0.152897
0.149212
0.148464
244.791
200.469
139.087
121.561
101.25
88.0798
77.4403
67.118
58.7501
46.8545
31.2565
16.5817
7.46467
3.08873
1.22688
0.500717
0.240989
0.167564
0.151973
0.148983
349.899
184.85
158.973
148.717
115.284
85.2336
67.131
47.6924
40.0679
33.362
26.2737
16.7189
9.58317
4.82972
2.17306
0.905715
0.37263
0.194947
0.155849
0.149436
202.971
228.885
222.943
175.244
121.109
74.0029
44.0232
23.9291
16.4906
14.1666
14.4526
12.0841
7.18778
3.53849
1.52581
0.594078
0.249928
0.163343
0.150299
0.148626
285.389
307.366
276.474
183.307
110.61
69.1675
48.3237
32.6204
21.6734
14.3122
9.88824
5.89805
2.9706
1.24755
0.495384
0.222658
0.159292
0.149767
0.148569
0.14841
328.886
224.706
146.359
91.1302
59.5179
44.7647
37.1541
25.1657
15.2446
7.57613
3.68019
1.59498
0.676293
0.281633
0.172693
0.151439
0.148694
0.14839
0.148374
0.148378
81.8972
125.682
116.18
98.4618
63.0276
35.4569
22.9678
14.9775
8.72616
4.31418
1.90923
0.781776
0.331736
0.185688
0.153996
0.149123
0.148469
0.148395
0.148381
0.148371
128.782
120.458
65.9063
42.1175
41.5199
42.8879
43.5225
41.8994
37.6777
31.3895
24.9207
17.5966
11.3238
6.48429
3.15639
1.2937
0.482404
0.172537
0.0775495
0.0597495
247.976
238.586
147.421
87.1026
51.546
38.774
35.4239
35.0954
28.8196
23.027
15.7494
10.9296
7.96662
6.84627
5.05341
3.49035
2.69398
2.69844
3.30107
4.61325
369.605
157.773
136.128
104.765
75.9681
51.2601
35.8934
26.0293
21.0872
17.166
14.7979
12.4
9.60344
7.39552
5.86732
4.97747
4.63494
4.76253
5.26735
5.60636
256.87
138.32
92.3741
77.7756
69.9133
68.0921
61.5764
33.6436
16.6428
12.9504
10.4817
8.7036
7.40702
6.44746
5.94029
5.65411
5.61976
5.67114
5.75218
5.76614
319.264
147.238
78.6053
68.9555
59.2269
50.7883
29.5125
17.235
13.8969
12.4032
10.3477
8.34085
7.05711
6.35635
6.03599
5.86572
5.83212
5.80448
5.80175
5.77921
187.569
147.621
64.6885
64.433
44.133
25.8412
26.3242
19.5477
17.4455
12.1695
9.53988
7.86347
7.03302
6.53429
6.26201
6.04723
5.938
5.85745
5.82223
5.78363
235.748
152.895
73.5895
68.2151
50.0525
28.0089
32.8757
27.0415
22.1129
12.8738
11.2834
9.51888
8.92905
7.55979
6.87741
6.35469
6.0959
5.92094
5.84503
5.78686
284.726
175.244
98.9033
80.6952
47.8852
32.8234
40.9676
29.7197
26.8293
26.4407
16.736
15.4624
12.4915
10.7589
8.28411
7.1921
6.53202
6.1433
5.95239
5.83394
198.556
159.278
122.358
69.7279
45.225
39.8154
59.993
30.3003
33.7377
25.1997
6.16615
11.105
3.9779
6.25708
6.64787
6.11455
5.95762
5.85011
5.83075
5.80302
180.313
151.488
107.312
79.6524
57.7005
79.9107
79.1662
32.9473
27.1199
38.3129
15.8842
13.9586
16.145
6.63081
6.46249
5.938
5.79503
5.74775
5.74198
5.7469
93.1569
130.945
122.602
89.4068
58.5153
52.4179
42.1023
45.9158
25.6771
27.92
19.7208
25.5093
17.0976
10.6382
6.56022
5.84592
5.72133
5.7034
5.71453
5.73861
174.836
140.107
99.3193
83.8341
69.6056
66.7425
66.0641
75.8419
47.6103
40.7238
43.3304
20.5542
16.7634
12.3598
7.0011
6.28976
6.01926
5.88339
5.85339
5.81239
311.049
145.713
99.0212
83.2799
71.365
57.7388
51.1244
49.1008
38.6687
35.8612
25.8437
13.9393
10.2572
8.65357
7.20951
6.5201
6.1543
5.93777
5.84566
5.79362
170.526
150.81
118.63
94.9247
77.1698
73.8807
68.5878
66.9427
62.3317
50.8847
30.7073
17.5645
12.2141
9.1333
7.00527
5.8315
5.5383
5.50088
5.57168
5.68529
154.486
150.14
97.5015
96.2171
85.1775
83.6474
79.1222
76.7338
70.1644
53.1144
30.1727
19.8774
16.2431
12.8477
8.42698
5.41046
4.81922
5.04406
5.49404
5.67771
179.359
151.957
119.59
110.37
82.072
67.7967
61.1666
48.0055
42.9695
34.3797
27.0436
24.4247
20.7725
13.7368
6.45011
3.48223
3.45884
4.47277
5.28444
5.61075
224.22
166.197
132.355
112.473
80.5306
52.0207
35.4889
29.2945
25.2865
22.4512
21.6478
17.8996
10.7153
4.74965
2.43974
2.70534
4.21141
5.12579
5.51777
5.67996
247.656
199.577
137.281
118.418
81.4471
70.9594
42.9172
38.2467
26.627
19.6504
12.3933
7.62727
4.89241
4.29984
4.30532
4.90103
5.37006
5.59301
5.68444
5.72768
430.095
252.02
100.215
95.0076
62.195
65.2412
39.0592
27.0695
13.9079
8.78214
7.05257
6.46154
6.24877
6.09072
5.94487
5.8209
5.74548
5.68677
5.66512
5.65445
16.4012
48.0114
52.2122
48.6941
36.5808
18.9964
9.3585
5.04286
2.85156
1.46864
0.683519
0.292341
0.12703
0.0714855
0.0586999
0.0567763
0.0566139
0.0568157
0.0570708
0.0573044
137.105
82.5024
59.2022
53.2083
54.6741
54.5996
52.8017
46.4476
40.9736
35.7862
31.4331
26.1773
19.593
12.1988
5.9665
2.24192
0.700904
0.210468
0.0811903
0.0595775
217.067
158.102
106.131
77.7587
61.1674
54.1347
48.5647
45.7002
39.8422
30.4918
18.0021
11.4024
8.08825
5.42432
3.69379
2.63535
2.61009
3.21889
3.99952
4.85879
235.143
124.128
104.49
91.6581
68.4456
50.1006
38.5206
30.8229
28.0557
27.3953
25.1604
19.816
12.8801
8.34368
6.14774
5.34073
5.2401
5.38595
5.63094
5.727
314.025
152.602
93.1342
79.1756
74.9009
72.2091
57.8335
31.3696
19.9751
16.8224
13.9133
11.4331
8.95509
7.20643
6.36755
5.9965
5.90594
5.84957
5.82964
5.78698
387.62
222.385
101.788
71.7157
56.1213
49.3647
29.0185
20.5442
18.486
15.3816
12.108
9.41633
7.68663
6.71233
6.27396
6.02596
5.93571
5.85848
5.82901
5.78531
152.431
130.352
83.0279
67.8952
44.0661
29.8558
33.658
26.9785
23.5472
15.9891
11.7535
9.09828
7.71487
6.86597
6.41252
6.13107
5.98554
5.8828
5.83424
5.78803
241.139
138.578
77.6519
63.9031
50.8996
33.2564
42.5104
39.7389
26.0894
14.3662
11.9086
10.0016
9.19568
7.70578
6.9521
6.40061
6.12325
5.94098
5.85639
5.79254
244.745
182.098
101.059
70.0132
45.6576
38.1043
47.9524
53.1714
28.2698
23.6712
15.5206
16.141
13.31
11.0349
8.32873
7.25547
6.5754
6.17284
5.96803
5.83996
407.362
152.37
89.9061
64.4142
37.3759
36.9435
71.7076
50.9352
37.2769
25.7119
7.04194
5.33393
7.0428
7.59367
6.72691
6.29679
6.17982
5.99174
5.90589
5.83249
220.944
126.357
84.8985
68.8535
46.2625
39.2573
57.47
45.6764
35.6112
40.8208
26.8691
26.5289
12.3618
8.10656
6.17837
5.45169
5.48175
5.48712
5.55947
5.67667
94.5787
126.067
108.059
82.0924
57.7626
55.5648
46.6928
37.7822
36.9363
50.2373
54.4161
27.2225
14.6633
11.2199
5.90775
5.88307
5.87656
5.80598
5.7699
5.76272
112.723
117.688
101.45
80.8815
65.9373
56.5306
49.32
39.9981
41.3313
36.3297
41.8107
19.215
15.2401
11.8724
7.14916
6.49289
6.25868
6.04198
5.93667
5.84466
125.849
122.837
104.013
78.6925
65.2196
55.3584
46.7211
44.8497
40.596
42.9467
22.7031
13.7198
10.46
8.77434
7.38977
6.66556
6.24402
5.99976
5.88432
5.80885
101.616
126.876
94.1175
78.2044
64.7643
61.2121
55.7742
56.2777
51.5313
39.2193
24.0983
15.9382
11.7155
9.21547
7.56624
6.61014
6.16648
5.92715
5.83102
5.77875
143.303
124.025
79.8087
86.7676
73.1309
67.3951
64.3719
57.8376
48.462
35.0059
22.5056
16.6013
13.3609
11.1553
9.09998
7.33699
6.43605
6.01169
5.85018
5.78001
226.084
131.966
97.1626
93.9625
66.0455
48.6828
47.3859
37.1669
31.2545
24.3475
20.484
16.9773
13.9695
11.842
9.78895
7.7394
6.61216
6.07976
5.87016
5.78401
246.681
163.948
130.044
86.5903
47.3209
29.863
33.6223
28.2234
23.4657
16.0883
12.2297
10.3031
7.96445
6.47464
5.96949
5.98063
5.96567
5.86963
5.79295
5.76217
201.167
163.482
136.582
78.8008
45.0354
31.2221
26.0266
21.3913
17.4668
14.284
10.8238
8.58986
7.14797
6.53328
6.18185
6.01102
5.88854
5.80965
5.77297
5.75598
274.294
134.535
97.2554
65.4792
47.9921
46.9934
30.1862
15.4032
10.9502
8.85439
8.48886
7.67168
7.08026
6.48251
6.15707
5.90989
5.78265
5.69886
5.66772
5.65477
35.1208
65.3992
53.1128
34.7651
25.9444
14.9949
8.68899
5.22431
3.09623
1.56648
0.682831
0.268672
0.11164
0.0668469
0.0579933
0.0567149
0.0566112
0.0568069
0.0570659
0.0573025
131.565
74.5172
67.8525
64.9975
65.7726
64.3937
59.6165
50.2406
43.0006
37.3008
32.9308
28.9599
23.8844
16.7427
9.31491
3.77839
1.17449
0.329709
0.105335
0.0620258
419.526
130.656
96.8314
74.3131
71.1332
60.9749
60.0656
55.4153
54.5453
52.5655
42.4327
20.715
12.4627
10.7782
10.5791
8.42336
4.54049
4.2358
4.59008
5.38729
149.938
132.408
99.3653
76.5807
67.0186
57.5998
53.9399
46.6175
43.1523
39.9345
39.9451
39.3088
32.3387
22.3138
16.5646
10.7483
7.02787
6.24042
6.19083
6.19575
156.938
128.73
96.3411
76.8766
74.5019
69.7254
53.003
37.2475
31.5688
27.1418
22.9311
20.3081
17.8971
14.6576
11.0386
7.90301
6.6357
6.30206
6.22305
6.17552
214.38
171.921
118.142
71.8783
58.701
46.5445
35.325
29.8028
27.1017
20.9215
16.5608
13.8542
10.9816
9.22159
7.89523
6.85892
6.38374
6.23941
6.20193
6.16792
228.657
156.86
102.098
68.7014
55.9593
47.5804
49.1516
42.7283
36.4578
22.0616
14.2677
10.5646
8.57827
7.47187
6.81301
6.43933
6.27026
6.18023
6.14285
6.12624
416.997
145.934
93.0374
65.2402
58.99
49.2354
52.9421
53.7701
42.5794
21.669
13.7053
10.3752
9.48019
7.8954
7.23165
6.6695
6.42301
6.26055
6.18802
6.14248
331.125
285.439
136.493
70.7299
55.8069
51.1205
45.8419
56.262
44.0286
26.6443
17.2732
16.3431
13.4314
10.9158
13.3954
12.3066
9.94749
8.25617
7.19804
6.50571
304.123
153.564
86.2749
58.1661
44.8202
45.655
50.8736
47.0069
50.2347
30.5054
8.57819
10.3368
11.6204
8.18622
7.12073
17.9998
17.2043
14.4207
10.8816
7.9687
204.942
138.828
81.8217
62.5486
48.3016
47.3351
51.9063
36.8025
51.2966
32.4864
25.9481
13.6051
10.369
7.71341
7.3408
18.7832
17.8925
15.08
11.3588
8.1786
120.137
154.251
107.304
77.8233
61.953
57.8384
47.6404
38.8325
47.3113
54.3276
37.3753
22.294
12.6892
8.34086
7.40869
19.0407
18.1889
15.4282
11.6186
8.29699
156.101
141.628
106.957
81.053
69.1678
61.5934
55.2918
53.9128
51.0285
43.8987
38.4264
22.3602
16.8589
11.7662
7.82508
18.4565
17.5953
14.9249
11.4175
8.26429
257.37
179.801
108.623
78.679
68.7607
61.1567
51.8431
52.8748
43.5459
38.3821
20.4821
13.9071
10.831
9.15235
10.9609
10.4467
9.03514
7.78387
6.99645
6.44949
275.207
150.095
92.1762
72.8715
65.9198
59.0318
52.0768
42.8417
33.6925
26.0659
18.2799
13.4009
10.1473
8.25727
7.24851
6.7477
6.51315
6.33881
6.25427
6.18995
196.363
108.28
73.7463
66.9717
66.4337
56.1775
48.6574
35.2066
28.1569
21.9265
17.4583
15.6644
13.2133
10.0028
8.27182
7.32465
6.77152
6.43069
6.2861
6.19906
204.623
107.324
75.542
63.7303
62.023
49.3116
48.3012
41.0177
32.8196
26.4927
19.301
14.46
11.052
9.78376
8.99643
7.8734
7.04505
6.54315
6.34041
6.22709
348.102
175.322
109.405
63.4112
48.2901
35.3157
47.8139
39.6877
36.9185
26.0707
15.384
9.82212
8.191
7.46438
7.05787
6.71946
6.48677
6.31958
6.24651
6.19542
241.005
166.653
139.459
79.6381
37.8983
18.2805
24.0823
18.976
18.7235
16.2041
12.6056
10.4354
8.68819
7.54054
6.90923
6.54813
6.38036
6.27553
6.2302
6.19621
196.323
122.948
84.61
41.6591
28.0467
23.7624
16.5419
12.603
10.1176
10.5154
12.1202
12.2928
11.516
9.3268
7.71295
6.80047
6.3737
6.18299
6.1205
6.09527
47.539
63.4856
42.4469
24.4427
18.2722
13.2301
9.27611
5.9087
3.28055
1.48955
0.578212
0.221064
0.123238
0.0930304
0.0779174
0.0649847
0.0595965
0.0577808
0.0573954
0.0573477
113.557
64.2431
75.3168
73.3382
73.5323
69.7429
65.3728
57.1316
49.1054
40.3345
33.6787
28.5222
23.854
17.7416
10.7856
4.94606
1.72163
0.516033
0.159755
0.0770597
198.571
151.575
115.054
79.5369
95.2426
74.0918
87.2311
79.1939
85.0154
78.2893
76.385
63.2886
47.2966
43.1986
44.9973
48.3646
52.5859
55.4364
58.8113
61.201
144.394
143.384
114.936
75.0649
86.3245
70.175
83.7401
77.0887
83.8486
78.719
80.8307
77.0269
71.969
63.9098
63.944
62.8105
62.9064
62.4799
62.8664
62.915
154.55
133.36
99.6509
79.0201
84.3678
64.6476
69.5301
59.7016
65.2911
59.3076
59.6438
55.3893
57.1318
57.5441
59.2015
59.2653
60.1265
60.4963
61.0563
61.3765
218.348
154.225
130.755
80.6731
76.4713
59.8147
64.8292
54.5798
60.7459
53.3475
56.1303
54.4234
56.3558
56.3697
57.937
58.374
59.4798
59.8746
60.4252
60.7798
137.273
143.704
127.526
80.0657
72.8789
69.2436
73.3198
61.6021
60.6234
52.128
49.7211
49.7449
51.0529
52.9471
54.5946
55.8462
56.893
57.8251
58.4795
59.4214
224.921
193.551
119.464
76.5334
83.8775
62.5925
82.4162
64.5136
55.7783
43.743
41.6366
41.2975
45.227
46.5552
50.8287
52.5017
55.1132
56.4027
57.6591
58.8671
441.772
384.382
202.934
89.7936
93.7176
70.8254
77.0324
76.3826
65.0431
36.7882
34.5641
38.6524
40.8024
39.7045
56.4124
55.0279
55.413
56.4851
57.3006
58.4221
413.069
211.73
108.759
85.7814
81.826
68.6493
81.5587
80.1975
82.2459
78.5696
70.9247
74.1649
74.7614
74.6883
70.6365
56.6018
54.2447
54.55
55.3525
56.7607
384.11
158.125
96.9043
92.4667
70.5362
67.1776
68.3897
76.7951
88.6184
88.0167
77.5993
79.4086
77.7136
77.9794
72.7864
56.7347
54.0608
54.4777
55.4498
57.0436
373.97
147.478
122.469
76.1133
78.3537
63.701
48.6382
60.9728
85.4599
79.4137
75.8001
77.7093
78.6028
78.2835
73.2594
57.1527
54.2587
54.6307
55.5057
56.9862
316.131
139.498
120.91
79.4074
81.8925
71.0066
72.6931
78.8934
85.5091
82.1781
85.2516
79.1375
76.5996
77.8257
72.6165
57.339
54.9783
55.2343
55.9858
57.3768
270.79
151.943
126.128
77.1741
83.7052
64.0006
66.7503
60.8134
54.539
59.7647
51.3644
41.7239
45.3313
49.7935
59.2639
57.947
57.9606
58.2808
58.594
59.0946
514.169
169.306
108.976
81.0491
86.4712
64.5364
78.4815
53.1573
57.7741
50.018
53.6732
54.4539
56.8901
56.6836
57.0782
57.4647
58.8182
59.333
59.9392
60.2361
213.224
135.102
86.9897
96.5833
85.7186
62.9355
83.2883
60.3797
63.0569
55.4525
60.156
60.5398
60.688
58.1145
56.9567
56.9861
58.7135
59.5371
60.1914
60.3242
286.263
136.338
86.3067
93.2522
83.8586
62.671
84.8614
62.3492
68.8838
59.4203
64.0089
60.6529
61.4302
57.8573
56.8196
56.5971
58.7541
60.1636
61.3087
61.3196
306.768
215.815
125.916
90.3958
65.8765
40.4908
65.0086
48.6831
59.7226
51.1023
56.0031
52.1903
53.686
52.5927
55.0663
56.6399
59.615
60.2154
60.8847
60.9119
380.518
200.197
162.912
74.5715
37.6912
17.4516
25.9262
24.8255
47.8365
46.6317
55.0733
52.9633
56.7994
56.3315
58.8305
59.1584
60.8589
60.9439
61.3557
61.3665
190.737
167.111
92.705
56.5094
35.6259
22.216
13.8832
6.96203
20.1263
25.3482
42.5117
44.3271
53.9022
54.5194
58.5483
58.7131
60.332
60.3069
60.7817
60.9419
122.95
56.2816
28.3301
15.6195
12.5172
9.95603
7.20549
4.18937
2.08033
0.815563
0.315088
0.204645
0.2275
0.287661
0.394541
0.391609
0.382837
0.298415
0.239401
0.146047
30.5486
45.3396
62.0293
31.3679
28.3085
39.9086
40.1149
30.681
52.852
37.7174
27.9718
15.4508
38.5057
25.2
62.5987
39.1328
36.3002
43.4988
39.3979
43.8351
38.4577
33.1804
41.1632
24.7637
38.4996
23.9284
39.66
24.8134
31.7744
59.6557
18.5401
91.4213
47.092
87.8267
28.6988
3.80701
9.42579
2.45493
23.0009
14.7593
18.314
9.56273
4.41308
1.95491
5.71633
23.8372
33.6813
15.1592
23.0571
6.66918
16.8239
38.0544
22.149
7.60518
16.8541
15.6816
1.68778
34.6275
19.7674
7.61748
10.8916
10.7568
8.62674
0.748303
11.5878
1.4648
11.1023
4.46754
10.1002
16.2193
0.714794
1.01605
0.774412
3.62371
3.86184
14.531
4.54392
0.717465
0.769723
0.722771
5.1084
6.69188
4.36939
5.85875
16.9549
106.197
51.3891
70.014
30.8993
50.0042
57.7028
1.74294
41.0817
13.2815
18.7645
11.9093
57.4168
18.6461
7.02748
7.89254
5.14252
16.9756
27.0551
16.6942
19.0677
45.7332
18.0051
52.1684
22.0678
20.2174
18.7331
24.656
30.21
60.7522
49.3248
15.6155
10.8872
23.8437
21.2001
2.34696
37.4801
7.33392
11.0421
15.8078
22.357
18.9567
0.772555
3.57
0.926497
15.4706
5.36255
17.9779
9.47077
0.694923
0.826014
0.702001
4.48415
5.49499
6.85859
5.20573
61.5182
113.721
72.7148
40.7929
39.4599
52.294
51.4534
27.4723
65.4029
59.9728
44.3929
30.054
44.2723
31.1416
13.7503
58.393
60.7067
22.228
16.2609
29.8637
28.5266
54.4404
64.0388
61.0995
16.8985
33.1779
30.1362
66.4831
49.3852
60.5054
20.2339
29.9954
26.5875
61.2568
29.5016
7.66119
11.4302
2.16872
26.3196
19.1074
22.8744
18.4551
0.991304
1.60828
0.966312
18.1539
11.5092
18.3058
14.0017
0.707016
0.87096
0.716311
8.5004
5.60227
11.5708
6.97358
126.446
228.558
143.959
79.7393
80.2526
82.1361
73.5291
88.3808
122.113
84.1957
78.979
52.3936
72.6071
63.5484
77.4009
73.9238
43.178
49.7524
43.2181
53.2959
49.7847
65.0911
41.8967
48.8915
45.4117
61.2492
54.327
50.1545
16.2078
44.8698
10.5814
50.988
27.0502
47.4244
21.5313
1.41415
5.02809
0.964937
20.8624
12.0423
14.8384
5.91278
0.794327
0.763084
0.688375
13.8471
13.5461
5.54945
6.11624
0.718652
0.687887
0.644129
11.2707
6.93129
6.48443
6.7739
44.8571
61.8748
41.0711
62.6823
43.7889
55.2328
52.661
28.9902
28.9317
23.7158
36.8588
34.8538
41.9446
33.0479
33.6332
29.2572
25.8779
34.8664
34.1564
34.3556
47.0113
6.1598
21.7109
10.2805
29.1086
9.37784
41.9283
27.9795
10.6679
9.98143
10.5009
6.4387
6.23122
24.3861
22.9011
4.60478
12.1399
17.3455
6.05847
4.63612
21.8617
14.2772
5.46501
14.6408
6.39708
5.70415
7.59107
11.2448
8.10282
6.88408
6.40167
6.62388
7.53369
7.06234
7.71014
6.73561
48.4327
54.6464
59.3622
53.5592
48.4827
62.5445
58.1504
23.9979
64.562
25.9136
47.4965
33.8593
46.5556
35.8374
35.8605
22.9587
32.3216
34.2077
48.9208
38.7855
45.5148
17.0533
32.5254
20.9846
43.0066
35.0513
47.9988
65.8398
14.549
19.5779
20.9156
32.6082
28.9388
62.766
36.6424
16.6099
22.9921
18.8148
26.3142
17.8097
30.6848
17.1164
7.11536
17.6418
10.9032
14.0216
8.66234
15.3604
11.9107
6.64451
9.12964
6.75986
8.01473
6.90338
10.4558
7.48756
41.0659
44.75
44.6822
47.7107
47.7986
39.9395
34.0841
31.8037
41.8675
32.0213
44.8131
33.6783
33.1114
36.3122
26.432
31.557
30.9791
36.3391
46.445
40.5367
40.0354
21.7519
30.5203
44.7817
51.9226
69.2787
37.0541
34.0576
24.1495
43.7039
29.1645
62.125
36.9438
38.5364
28.7052
18.9415
23.0248
17.0717
30.7996
16.7953
21.7545
17.3348
12.3336
16.3283
14.294
15.1042
12.6112
16.0894
12.4742
7.10151
12.3193
7.85536
11.2718
7.57657
11.697
8.06729
76.6182
68.5062
66.5643
51.036
45.8959
56.0016
54.5072
49.5435
66.4013
63.7649
41.0751
37.8307
53.9447
47.8441
40.4594
57.5034
53.6406
38.6117
37.6222
45.4535
42.0293
48.5126
54.0394
45.7032
35.8085
34.9607
41.813
47.6399
26.5349
44.7607
21.8351
40.9845
23.8247
47.92
18.2139
15.9992
15.8909
9.84849
19.9448
16.0632
14.8019
10.8807
14.4278
9.24331
8.24055
15.5281
13.1949
10.2002
8.81774
7.73347
8.05819
7.60818
12.2653
8.07502
8.52093
8.00253
57.6285
66.0051
45.7509
51.4693
55.2849
50.5977
39.9495
41.3128
49.7408
35.4172
53.5586
46.5372
34.7004
37.6286
34.9389
35.5689
45.0928
45.9097
41.5958
46.3792
35.0221
10.0347
38.5833
27.1811
27.8677
10.0972
28.3091
25.0067
5.40857
23.2145
22.3924
8.13648
8.69552
23.3534
14.1615
5.55636
20.267
12.0995
10.0291
10.4381
13.0053
10.9182
7.75319
10.4597
8.17874
10.3077
7.95406
10.1568
7.92258
7.10055
7.79304
6.79887
7.69978
7.12533
7.44908
6.65193
42.7254
50.0212
45.9086
49.0303
36.6632
40.4114
34.065
35.6268
41.747
47.9433
33.9663
38.1739
32.6215
31.6491
46.5594
51.4381
44.4843
43.6626
37.275
33.1394
40.5784
30.0368
37.9385
42.6739
36.7211
39.9147
29.5518
38.3246
20.2926
27.5756
31.4317
21.4761
32.121
19.4519
23.228
15.2066
28.7019
16.181
13.3249
10.3077
21.4174
11.615
8.66619
15.1416
12.2779
9.56736
7.7615
9.13428
6.02256
7.03967
10.5532
7.77188
7.2802
6.76088
5.53833
5.26932
40.696
41.3646
36.0713
46.5053
35.3119
47.741
48.8797
35.5948
36.2716
46.8554
33.5834
35.6218
50.9767
51.3533
45.7688
48.7341
43.1641
45.2527
44.9452
51.0688
45.1394
50.1576
62.4078
47.2616
42.5608
57.6875
56.8502
43.4904
46.2998
46.293
53.7666
56.3703
46.8312
46.927
50.4531
14.929
20.2863
17.466
22.1347
14.1905
21.3232
19.301
12.8424
16.8689
12.5201
11.2515
7.24763
19.0339
13.8251
7.46137
11.5015
8.06504
6.53107
5.15687
11.7917
7.74153
43.115
54.0969
51.6716
51.9861
49.8635
55.0326
50.2928
40.7325
50.1986
44.9039
49.9708
49.7194
48.8944
47.3579
38.294
43.3719
40.7966
48.68
45.1358
46.7328
45.9338
35.4063
41.1573
50.5208
42.2443
38.0775
47.305
53.7285
21.9736
49.2302
17.3311
39.9702
25.6687
41.0199
17.7567
15.7101
14.6171
10.951
19.655
17.323
15.1469
11.903
12.7774
10.3132
8.85725
17.4158
13.4242
11.0974
9.19499
8.05193
8.57042
7.96324
11.7172
7.67971
8.7925
8.12849
52.3798
54.0106
39.5222
66.1957
69.5292
60.0838
60.3068
45.8167
37.002
43.1467
68.3475
64.9967
58.6482
77.7817
46.4471
55.6167
35.7226
71.9423
72.19
82.9488
84.4507
10.4131
29.2031
23.6604
74.2975
50.2157
83.174
69.7788
9.36705
20.684
13.6059
40.2551
43.201
67.0517
64.7476
11.5924
13.046
12.5488
43.7825
45.1938
63.0673
57.078
8.73814
12.0286
8.40393
44.6232
43.1475
55.4131
54.7719
7.05776
7.77446
6.63241
41.9153
39.3454
53.8465
49.5103
38.4744
44.5542
34.8555
54.4956
60.2277
43.9467
39.661
44.8976
33.0845
32.3974
60.3697
77.7732
41.4688
46.6265
35.2401
36.7773
45.6861
79.7226
86.0684
49.493
81.9648
28.6104
52.111
42.455
84.3868
72.9241
80.0773
71.6624
15.1457
40.063
26.0769
70.7706
67.0191
70.6321
70.1463
11.2292
21.7829
12.8286
64.3645
60.1577
69.784
67.8836
8.20972
11.3616
8.66823
59.9302
60.3448
66.6184
64.8744
6.77106
8.04981
6.63557
59.6302
53.692
63.9364
59.6343
40.1402
51.2468
53.3503
46.289
40.0623
62.515
69.1924
43.6433
54.4458
55.152
40.1215
45.9465
72.3755
78.8767
54.5551
56.5595
48.4781
55.6245
79.7788
79.5489
78.4263
39.2791
45.882
40.3427
77.0037
70.0746
73.7415
57.0391
25.6855
38.7131
26.3202
69.1645
71.0122
59.7615
73.534
14.613
23.2914
19.5994
71.84
71.5484
71.1887
69.7136
9.14417
19.4146
14.4172
69.5003
64.5158
70.0959
65.6274
6.56471
12.0852
7.44731
62.8591
58.6754
63.0662
57.4056
53.85
57.4139
53.3087
66.2763
69.2525
66.5277
67.356
51.8628
52.3875
51.3845
70.5182
75.2341
67.3404
60.6044
46.1196
50.0253
50.183
78.4514
74.9563
57.7108
56.4702
38.8568
51.1732
51.4002
68.1912
53.0341
54.9258
42.5317
28.3904
35.9824
20.5927
54.2741
69.0296
40.9416
34.0252
16.1109
16.1793
11.4377
64.1897
59.8124
27.8351
26.2284
13.754
10.7671
9.17045
60.2117
60.923
28.5728
35.7893
7.49724
8.87197
8.00069
59.9056
57.0622
35.9132
34.5792
82.8588
75.308
74.9092
116.912
108.442
105.612
109.233
76.5026
72.6882
82.0532
106.608
110.448
104.069
100.795
77.932
85.0819
88.37
102.514
97.497
102.136
103.09
74.3963
86.9776
78.9533
98.429
94.4245
102.53
98.5125
74.4493
77.7052
79.3746
95.5093
94.9214
98.3159
97.9481
74.9566
79.8792
78.0388
95.0505
95.8421
97.7676
95.9765
74.9532
77.2577
77.1435
96.7821
97.0034
95.9823
96.4229
72.8956
77.1507
76.3981
97.5109
96.5141
96.7687
95.9717
76.3869
48.7415
59.3265
105.583
111.758
97.9579
113.702
85.1885
69.6169
80.1612
108.877
108.007
112.98
113.975
90.7775
84.3648
86.7265
108.515
105.232
113.552
105.504
78.6427
82.6462
76.3067
103.509
98.9194
104.031
104.368
79.0397
76.0294
76.6758
98.8388
98.3617
104.304
101.196
78.1638
77.0674
77.928
98.1471
96.367
99.9932
97.4461
77.8074
77.8922
78.1686
96.0421
96.3685
96.7071
96.4033
77.0982
78.2522
77.6461
96.714
95.6513
96.5939
95.4427
52.6022
69.1103
77.8254
98.0084
113.908
94.5529
108.82
77.0081
81.1599
83.5785
112.826
111.832
108.012
103.88
82.3493
83.0237
83.4074
110.307
103.157
102.435
103.409
75.7573
83.1206
82.7038
103.337
105.646
105.295
108.286
77.2485
85.3216
82.2643
105.581
102.356
107.792
102.571
78.6833
79.274
78.4928
100.902
97.8868
100.696
97.3312
78.2973
79.2302
79.0064
97.0206
96.4922
96.7349
96.5328
77.4634
78.533
77.0282
96.6583
95.4735
96.6302
95.3786
77.307
72.1103
73.6437
96.6493
110.298
96.1729
100.302
84.3827
73.4206
65.9992
110.913
107.584
101.066
110.905
85.0444
66.2386
67.9567
105.549
104.754
110.399
103.92
77.5995
63.5425
63.8199
106.232
109.83
104.95
116.647
83.2632
69.9838
61.765
109.338
102.759
117.324
110.674
76.1887
56.2588
57.5187
100.959
96.8542
108.22
103.963
77.8471
60.9523
67.7181
96.4591
96.3843
102.68
100.291
77.0016
68.0596
66.5912
96.5944
95.8061
100.455
100.516
28.0379
36.0084
34.7678
24.8815
38.6573
27.0169
26.573
30.358
44.897
59.4727
39.5802
44.7301
38.8884
29.9506
31.1811
44.1014
64.4933
43.8867
45.5866
30.4956
43.3119
28.2023
32.838
28.7494
32.8694
27.3892
34.3862
32.1651
26.5536
24.6271
28.3247
32.5601
25.2462
26.0171
32.6865
28.8859
38.7919
35.8043
42.5649
36.4456
28.902
37.4461
29.4143
33.042
37.0131
41.4772
29.4058
35.3153
38.2829
19.2544
30.7015
34.1234
19.6569
34.509
19.3977
17.9316
24.5095
42.0449
45.9585
42.0679
40.1419
27.9727
35.1391
17.6145
36.1711
42.1844
21.8707
39.0871
14.8365
16.5378
17.9006
22.4265
25.8151
31.4497
18.0591
23.7597
28.7904
12.5809
13.8256
19.869
18.1314
14.9132
9.91327
23.4445
17.9322
27.5007
35.3093
34.4533
26.284
19.2635
31.5065
8.71096
15.2528
22.9055
29.4615
7.58291
7.88232
26.5065
55.8572
64.5185
61.5685
60.4113
62.8817
59.9898
55.7904
46.448
45.8096
36.5024
42.1041
44.386
44.8752
38.2885
45.6238
39.5634
35.465
37.4743
40.1448
42.8744
36.9147
44.7385
41.1626
40.1704
45.3267
50.6722
42.6272
43.7328
45.6191
56.6189
39.3407
41.7366
55.8446
45.1536
42.4828
45.7624
43.7393
44.1315
40.302
43.1919
39.4825
44.1785
46.3827
37.6695
43.5195
37.9055
44.8606
37.2194
44.2329
39.7983
38.4983
34.3753
28.9321
41.9313
34.7504
31.0333
42.3821
41.4906
42.7605
41.2537
42.9836
42.8306
41.0652
36.2786
31.1279
36.0929
23.2674
41.0437
25.5364
31.8598
40.3589
52.2671
34.2409
40.4689
39.9333
43.7238
35.1983
32.2435
22.2113
26.5876
24.1723
25.8316
26.0517
28.2929
40.7195
40.6001
42.0689
36.2781
43.3896
38.8541
36.527
30.7224
23.2786
23.42
28.9024
23.8094
29.6088
27.5488
13.154
35.2781
19.4779
40.6653
34.2902
41.3977
47.0075
1.78724
5.5108
1.74149
11.2386
12.075
13.9763
13.9168
0.784278
1.43081
1.84822
18.3919
15.8226
20.17
20.8345
0.511903
1.31363
1.33515
9.30147
6.669
14.8346
7.81267
0.475008
1.23632
0.830064
7.17881
8.17186
6.75361
7.37125
0.436131
0.612506
0.563913
9.61187
9.9526
8.38591
7.89915
0.39161
0.553164
0.543197
9.3571
9.28333
7.35488
7.35336
0.323506
0.505423
0.415117
8.55039
8.1631
7.70546
8.77084
49.549
36.4487
35.8236
44.17
31.5966
48.5731
39.1592
69.732
64.9743
83.4654
64.3201
56.4608
63.4979
65.3454
16.1747
11.537
17.2498
19.4153
15.1789
19.6843
10.7601
18.4367
2.70217
2.439
7.97816
18.7112
7.45445
2.9059
16.7918
6.67574
7.60133
20.4936
14.658
17.8496
14.473
20.0525
4.68632
13.0712
13.8451
13.5149
21.6352
11.107
13.0973
0.795141
2.2798
10.2627
8.42789
15.5896
1.22524
5.09723
0.753933
0.77229
5.90441
5.70189
5.58958
0.769036
5.20109
0.731069
0.753339
5.97669
6.48072
4.95914
0.734584
0.358541
0.395011
0.349065
6.30982
6.45021
5.87527
6.83783
58.0281
104.427
75.6377
80.269
67.8943
66.0545
56.4965
38.1456
46.0238
75.4239
40.9295
31.5682
50.1045
51.5563
10.633
4.06396
11.4445
12.1654
9.86709
13.3988
5.46566
13.5219
2.70322
1.50673
8.06432
15.3026
8.26126
2.06913
27.6666
37.2253
16.3506
25.4145
27.6753
25.185
36.6252
82.0209
41.8935
50.0231
73.0048
70.3177
82.1939
49.2525
30.5452
10.7688
29.1851
35.0127
24.5621
44.5678
17.3257
12.3533
0.955993
1.92434
14.7523
10.1566
16.3423
1.14888
4.61256
0.750469
0.762587
4.8473
4.6724
5.06325
0.752377
0.379894
0.446704
0.377107
5.3993
6.71463
5.0262
6.31965
69.0456
108.343
76.1064
61.3133
45.5667
64.0312
51.549
55.838
87.4632
101.179
68.5977
70.0429
62.2746
85.2947
41.9512
42.2643
54.5449
56.3532
39.7146
51.4501
47.2505
20.6206
15.2476
32.5864
15.971
14.3301
25.178
29.3185
51.8913
45.4322
44.9511
16.8791
33.72
25.886
50.3338
99.039
66.4997
66.3569
107.539
103.513
106.708
67.2604
32.8217
25.4544
29.6239
50.344
37.357
44.8153
19.2578
15.8984
1.99186
3.41995
18.0036
15.8914
18.0239
1.92261
6.02454
0.805261
0.897327
6.89063
5.73888
7.23322
0.832263
0.376873
0.454987
0.379048
5.34678
6.34375
5.84347
6.75275
130.37
162.201
139.987
96.3714
84.1384
100.345
90.6642
114.727
172.502
209.6
121.566
116.872
124.57
182.352
91.1713
96.6759
124.982
80.8093
69.4966
101.864
114.946
70.2262
79.2242
94.3335
66.2179
63.628
71.9868
90.2146
86.4883
63.0346
75.1685
67.7451
81.3202
74.1858
61.9496
55.3889
44.3652
65.135
74.4401
56.2019
73.9039
44.6645
13.7269
4.32719
7.1101
22.9169
16.1627
21.1485
3.22201
3.07439
0.882456
0.797939
4.74375
4.65673
3.44867
0.742719
3.70658
0.788801
0.718278
5.26342
5.09883
3.29565
0.717761
0.372543
0.404454
0.39941
6.1175
7.06932
5.7265
5.66056