/*--------------------------------*- C++ -*----------------------------------*\
  =========                 |
  \\      /  F ield         | OpenFOAM: The Open Source CFD Toolbox
   \\    /   O peration     | Website:  https://openfoam.org
    \\  /    A nd           | Version:  10
     \\/     M anipulation  |
\*---------------------------------------------------------------------------*/
FoamFile
{
    format      ascii;
    class       volScalarField;
    location    "0.9";
    object      p;
}
// * * * * * * * * * * * * * * * * * * * * * * * * * * * * * * * * * * * * * //

dimensions      [0 2 -2 0 0 0 0];

internalField   nonuniform List<scalar> 
12920
(
695341
411492
242361
317081
260268
279456
249688
252158
230229
221590
200620
186131
165424
148134
127827
108795
87866.3
68777.6
48470.8
31724.1
469230
373043
240762
316686
263225
282317
249056
253757
229618
222459
200299
186561
164670
147112
126623
107759
87012
67673
47290
30757.4
317833
347699
229432
300783
262572
282809
257284
259346
235350
227124
203494
188986
166222
148004
126419
107220
85814.6
66256.8
46066.9
29696.2
146388
312723
250095
310536
269484
293231
264179
267215
241824
231343
206432
189992
166517
147177
125314
105825
84413.9
64916.9
45005.1
28568.1
-111815
220858
221964
284465
276273
304900
275772
278175
248446
238454
210382
193346
168233
148358
125510
105703
84037.6
64367.4
44440.3
27885.2
208278
311643
328298
348560
329785
335051
302205
294277
261514
243153
214978
194919
169732
147296
125107
105015
83619.6
63805.5
44032.5
27203.2
827682
579289
414680
419494
353786
363285
319155
304785
271830
250472
226660
200928
171967
148806
124798
105389
83738
63865
43992
26964.6
981536
757700
491450
446313
384465
379801
341820
313698
284433
262051
235684
211622
184794
159385
130956
106169
84514.7
64349.4
44426.1
26921.8
912941
721635
521258
484484
414331
400049
358458
329828
297971
271100
243584
219182
194267
169295
142824
111631
87486
66040.9
45442.7
27053.7
720880
618023
488774
499124
419994
407464
371509
338182
307037
277310
252711
227194
201335
175288
146559
117163
92124.5
69319.2
47322.8
27840.9
187919
498865
476341
500328
443544
425582
384222
348454
317056
289830
262217
235941
208872
181460
153099
122234
96168
72158.6
49249.3
28670.4
359245
535408
467232
498344
439071
430797
394660
360077
327984
300383
271571
244402
215583
188330
158852
124823
98097.7
73911.6
50593.7
29509
412739
608620
489558
518774
459315
440487
403551
371377
338709
307829
276410
248773
219037
190063
154513
126919
100577
75886.9
51991.5
30657.5
655022
720591
521992
552669
467990
450456
399052
373083
332190
305214
272703
247004
215350
187457
157682
130295
103083
77930.8
53471.8
31840.3
895726
827576
611295
594102
502639
473311
409821
381429
335193
308022
274425
247717
216839
188907
160302
133372
105502
80017.6
54813.3
32732
836490
912981
611670
598365
506072
480353
416155
388730
337795
312088
274483
249364
217227
190788
161767
135300
107664
81668.3
55915.9
33518
960948
885704
622407
608486
515648
494984
423334
396453
338278
315704
274971
250278
217911
192066
162678
136295
107950
82007.3
56103.2
33585.1
848595
758622
601901
587872
514203
494293
430723
400233
345455
320261
278602
253265
219361
193335
162753
136220
107490
81800.5
55981.4
33480.6
546107
637331
553398
578655
508421
500614
433840
407555
349359
325086
280370
255197
219224
193471
162200
135970
107108
81631
55808.5
33308.2
365121
514384
504502
553387
495452
495573
434510
408811
354557
327783
284106
256849
220300
193801
162292
135987
107030
81578.1
55734.4
33195.1
599999
374778
240846
316376
261232
279030
249434
251902
230050
221342
200209
185774
165541
148354
128075
109029
87784.3
68564.2
48245.8
31604.6
298634
358156
239493
315710
263833
281819
248937
253908
229296
222240
199653
186022
164165
146974
126582
107803
86832.8
67451.5
47146.8
30702.3
368158
343527
227453
304125
262249
282322
257641
259002
234970
226835
203273
188844
166150
147989
126357
107173
85729.5
66173.7
46021.2
29688.8
177793
300534
251738
311466
271044
293065
264301
267381
242520
231327
206346
189766
166462
147067
125296
105818
84396.2
64901.4
44998.7
28605.2
-40146.5
214010
224695
289071
275550
305796
277220
278208
249230
238670
210296
193317
168171
148326
125501
105702
84033.6
64365.4
44439.9
27933.5
140572
301678
324371
347748
328237
335736
302465
294239
261270
243061
215284
194922
169677
147235
125075
105009
83618.5
63806.7
44034.2
27251.2
718298
566191
412427
413955
353554
363258
318011
304842
272174
250573
226577
200971
172013
148738
124767
105385
83742.4
63873
43995.9
27016.6
1.03187e+06
731615
492338
446340
388417
379441
340678
314664
284021
262504
235747
211323
184961
159425
130918
106111
84530.7
64371.8
44431.8
26967
910172
715042
514555
483623
412786
398430
357678
329161
297714
270927
243810
219506
194260
169459
142785
111584
87418.3
66019.3
45439.3
27067.9
757383
608339
490093
499392
420946
407474
371813
337733
306239
278076
252930
227093
201260
175249
146543
117095
92072.1
69272.8
47308
27847.2
130953
484166
476996
498764
441936
423474
383406
348376
317023
290116
262608
235982
208694
181552
153083
122183
96116.8
72136.8
49237.6
28678
315491
527037
472276
501581
438173
430672
394158
359908
328186
299656
272246
244425
215415
188435
158996
124721
98037.3
73894.5
50585.6
29523.8
556681
624868
489652
521520
458640
440184
403596
370919
337796
307733
276767
248797
218997
190191
154396
126895
100526
75871.6
51987.9
30698.1
742420
722702
519594
552394
465812
451378
398309
373197
331784
305394
272294
246583
214803
187293
157545
130287
103033
77900.4
53452.5
31854.5
796019
812728
613433
592872
501046
473549
408461
381411
334145
307865
273889
247287
216607
188784
160281
133217
105505
79971
54791.1
32755
835483
870925
612781
597500
506515
479977
414258
388269
336526
311908
273791
248957
216955
190695
161615
135156
107453
81565.7
55873.8
33518.9
905638
872442
623011
609657
516545
495723
422655
395677
337040
315713
274447
250177
217626
191973
162434
136099
107768
81916.5
56070.7
33595
787687
764991
604060
589609
514670
496301
429812
399546
343926
320032
278002
253166
219107
193179
162569
136096
107407
81762.7
55965.3
33514.6
420243
628488
557447
578286
510174
500845
434741
406681
348238
324676
279689
255036
219084
193416
162147
135939
107089
81623.5
55807.8
33358.6
297761
511056
504612
554668
496571
496115
433918
408436
354190
327687
284084
256904
220310
193796
162281
135976
107023
81576.5
55737.3
33250.7
410217
327136
233235
316429
261475
280182
250254
252285
230000
221247
200065
185417
165074
148459
128829
109487
88032.7
68306.7
47908.1
31403.8
294015
319104
229768
317292
262831
282259
249794
254277
230142
222564
200051
186200
163881
146893
126824
107955
86798.6
67253.8
46993.9
30597.3
368769
323630
222514
305747
261718
281045
256955
259414
235347
226731
202981
188670
166221
148056
126424
107228
85686.4
66105.9
45956.7
29659.5
270249
320284
252106
315934
273918
293254
262512
265792
241868
230767
206065
189610
166455
146935
125241
105805
84395.9
64897.5
44989.4
28605.7
-82636.1
236532
221839
291515
278696
305417
278217
278073
249428
239080
210725
193263
168067
148272
125449
105687
84033.4
64366.1
44437.3
27943
142479
295573
320712
348447
326495
336740
303071
295099
260912
243416
215583
194963
169564
147155
125010
104997
83614.8
63806.5
44033.9
27266
664662
547945
411257
410587
355364
361507
317052
305726
271555
251042
226454
201096
172037
148649
124689
105365
83750.4
63884.2
43998.6
27026.3
879474
687395
486439
446291
389545
378096
340807
314782
283491
263749
236040
211344
184918
159333
130774
105990
84563.3
64410.6
44437.4
26969.5
699592
711188
511245
485860
409408
397041
357628
328336
297810
270548
244710
219570
194121
169284
142736
111452
87290.9
65996.9
45436.6
27053.7
627477
605618
490181
495252
419670
406766
369334
337558
306098
279546
253512
226995
200900
175037
146484
116926
91934.4
69149.5
47258.1
27813.4
249245
514680
473678
497298
440946
422340
382161
347743
317058
289335
262467
235915
208326
181356
153081
122008
96029.6
72111.3
49222.2
28650.4
451393
534647
476399
502356
437415
430597
393430
359524
328233
299549
272778
244196
215754
188526
159195
124504
97936.8
73864.2
50567
29503.7
418111
578855
502107
521880
458296
440052
403372
370622
337623
307706
276551
248580
218947
190516
154347
126742
100471
75855.2
51978.6
30696
711019
709628
527799
552993
462990
452185
396989
372960
330883
304853
271232
245921
214252
186918
157251
130082
102935
77836.8
53419.1
31844.3
718198
797146
617306
593591
497614
473117
406433
381677
333425
307850
273027
247088
216336
188653
159883
132905
105287
79847.6
54734.5
32735
872220
870743
619250
598471
508795
479829
412896
387853
336069
312286
273506
249046
216805
190577
161312
134832
107106
81362.3
55773.2
33477.5
791472
863051
617893
607307
518093
496422
422861
394912
336773
315976
274254
250233
217286
191794
161994
135745
107422
81748.3
56021.3
33580.2
795486
769282
601735
590808
514812
496948
429845
398626
342916
319894
277406
253068
218725
192958
162290
135926
107284
81714.4
55941.4
33518.3
415992
621581
554080
575804
512130
500298
436148
405885
347741
324423
279243
254867
218956
193365
162086
135898
107059
81609.6
55803.6
33373.8
257162
541561
502332
556424
496891
496285
433025
408071
354168
327747
284023
256981
220285
193775
162252
135956
107009
81570.9
55736.9
33270.8
312408
294580
227119
311936
261731
280849
250588
252648
229956
221298
199643
185147
164756
148516
129168
110284
88278.7
68176
47696.8
31232.9
176562
313612
221535
319540
262869
282041
249589
254337
230034
222638
200127
186053
163650
146722
126973
108178
86800.8
67125.9
46862.5
30512.6
173958
297934
214858
306560
260367
279917
256536
259714
235502
226872
203117
188635
166433
148225
126519
107311
85675.8
66068.5
45910.5
29626.3
407685
328132
249829
322961
276847
293686
262107
265539
241270
231048
206243
189356
166452
146992
125232
105804
84391.5
64888.7
44981.1
28602.1
57813.8
221594
218591
294126
281645
304243
276219
278053
249290
238454
210338
193240
167968
148254
125444
105690
84032.6
64365.2
44433.9
27944.6
34580
275863
316107
347759
326708
337023
303864
294760
260811
243757
215442
195056
169504
147102
124956
104984
83613.6
63805.6
44032.6
27269.8
490325
532411
406898
407682
353801
360019
316152
306180
271836
251794
226814
201219
172018
148564
124564
105340
83760.1
63892.7
43999.7
27028.4
911070
670340
489200
445234
388925
376475
339503
314827
285116
262769
236120
211687
184664
159095
130509
105830
84599.4
64444.6
44441.2
26961.9
626734
674339
519670
483441
406040
396499
356750
328647
299636
271421
245020
219361
193857
168974
142737
111190
87123
65946.3
45422.1
27018.3
540799
607083
493162
489109
415565
405108
367529
338280
306181
280852
253903
226867
200543
174808
146492
116591
91765.5
69023.3
47193.3
27756.4
332636
548668
474636
498485
441267
421008
380855
347085
318005
291518
262770
235491
208022
181200
153062
121639
95889.3
72043.1
49195.9
28597.4
523675
553450
478187
505190
436758
429864
392316
359037
328459
299442
272472
244430
215886
188466
159292
124072
97832.9
73821.5
50532.5
29458.6
412026
571573
505214
522051
457552
440526
403052
370674
337543
306901
275727
248308
219229
190501
154159
126616
100426
75833.3
51965.5
30683.2
759911
703982
536181
551106
461812
452494
396122
372456
329685
304289
270367
245558
213811
186428
156899
129922
102824
77767.7
53382.7
31825
744124
768466
620067
594724
498190
473195
405326
381073
332182
307489
272324
246828
216124
188495
159534
132589
105057
79699.4
54667.3
32701.7
972733
870932
627349
598304
513305
480452
412597
387283
335464
312370
273389
249064
216678
190568
160989
134472
106708
81115.2
55657.6
33422.5
736111
865794
620429
606463
523274
496978
423288
394192
336576
316181
274153
250366
217118
191668
161654
135475
107174
81623.8
55972.9
33555.6
787200
779183
600557
590638
514647
497080
430189
398117
342458
319775
277164
253080
218410
192832
162108
135798
107188
81668.6
55920
33516.4
578847
645155
559989
576241
513436
500186
435630
405757
347586
324424
279062
254849
218821
193304
162033
135863
107033
81598.4
55798.1
33377.6
372458
572504
505599
557076
498125
496155
433118
408118
354365
327821
283817
256836
220227
193754
162226
135937
106997
81563.7
55735
33277.9
223591
276695
220490
309026
261631
281247
250575
252813
229918
221320
199634
185017
164607
148290
129248
110506
88539.6
68168.5
47590.9
31152.3
87156.7
265403
213895
325515
263693
281364
249666
254460
229855
222772
200263
186164
163348
146688
127006
108355
86928.8
67100.3
46812
30462.5
183093
288613
210092
310637
261346
278658
256445
259892
235394
226996
203270
188621
166636
148270
126572
107395
85703.3
66062.3
45889.8
29606.1
499916
340052
252636
325898
280364
294034
262641
265506
240655
231143
206529
190272
166690
147248
125248
105803
84393.2
64888.1
44977
28594.9
-89136.3
220731
214232
298328
284494
303504
274671
277446
248985
238267
210227
193474
168285
148305
125449
105692
84033.5
64365.6
44431.7
27941
-65869.2
267816
310748
347842
327050
336412
304111
294240
260732
244515
215594
195141
169629
147105
124935
104970
83611.9
63804.5
44031.1
27265.6
466027
515946
410296
403926
352307
359672
316339
305657
272360
251989
227170
201311
171805
148524
124474
105296
83763.5
63893.3
43998
27022.6
857535
650725
495466
447399
389696
376454
338991
314609
286472
262414
236250
211853
184447
158680
130112
105568
84596.6
64433.4
44427.3
26938.1
626552
651913
527866
483351
405893
395370
355984
329514
300839
272700
244996
219219
193506
168340
142871
110673
86868.2
65776.7
45336.3
26931.4
419998
616119
488652
487070
413970
403217
366511
338585
307498
281707
254136
226792
200327
174669
146579
115983
91481.7
68751.1
47049.2
27644.4
403716
591664
466479
499920
442000
419583
379765
346995
319341
291908
262697
235554
208205
181323
153038
120909
95645.3
71858.9
49102.8
28485.3
480567
548208
479431
505251
437131
428797
391015
359191
329583
299621
272087
244607
215801
188260
159040
123414
97676
73661.8
50428.9
29356.2
321746
552356
507647
523440
457870
440865
402881
370497
337238
305696
275042
248307
219433
190426
153958
126448
100373
75801.1
51945.1
30659
770170
685533
543998
549156
464781
451963
396307
371397
327993
303643
269736
245256
213565
186203
156797
129848
102773
77731.7
53363.2
31807.1
583705
747385
625457
596452
500882
471995
407677
379929
330960
307036
271953
246632
215859
188404
159366
132432
104930
79619.6
54628.4
32674.8
1.08656e+06
874716
634241
600000
514897
481858
413301
386110
334776
312343
273349
249240
216774
190565
160849
134293
106522
80999.2
55593.7
33385.1
822950
863513
623977
607294
526078
496969
423503
393541
336327
316235
274145
250323
217025
191650
161448
135325
107025
81541.2
55942.9
33534.2
798442
786365
598180
589043
514441
496637
430601
397945
342357
319755
276960
253049
218286
192694
162007
135726
107132
81643.3
55906.6
33509.6
603960
647300
555065
575514
514998
500485
434873
405745
347513
324421
279126
254904
218798
193279
162000
135836
107017
81590.8
55793.8
33372.5
617314
616766
499493
560551
497803
496838
433392
408480
354270
327677
283542
256745
220168
193747
162207
135924
106989
81557.9
55732.6
33279.6
260144
286950
266599
280566
260581
288008
266823
233507
259825
241322
253848
233502
260032
241428
269231
296883
276624
290280
269462
296858
276571
243580
270328
249366
262783
243365
270181
249320
336562
368431
343879
357933
335964
369082
343409
306277
335796
311716
329339
305799
335408
311135
276060
305110
282418
297942
276188
304283
282601
249853
275201
256583
270962
249595
275468
256793
225029
250359
231346
243701
225048
250533
231305
199154
225170
205733
219455
199232
225053
205714
173984
199485
180109
194275
173994
199452
180078
149989
173862
154310
169469
149878
173833
154354
346351
378908
353633
371642
346424
378291
353734
313905
345841
321834
337824
313402
346049
321684
284279
314322
292397
306472
284213
314192
292676
259128
285988
266680
277741
259236
285802
266473
233552
259723
240132
252818
233496
259625
240147
207747
233666
213915
227113
207700
233701
213759
181725
207059
186689
201306
181707
206952
186739
155592
179963
160218
175279
155609
180031
160247
356497
392384
364796
384078
356371
391985
364879
324538
356599
332604
348449
324610
356675
332775
295957
325308
304027
317063
296214
325385
304060
269405
297690
276191
290002
269640
297299
276469
242518
269353
249351
262466
242561
269895
249474
215804
242464
220695
235989
215670
242495
220715
188225
213647
193621
208763
188329
213563
193534
162007
187103
166730
181566
161935
187212
166833
368157
402382
377918
394350
367996
402383
377646
335290
370585
344371
359997
335560
370255
344422
306383
338099
314381
328102
306442
338125
313997
278311
307753
283016
299721
278617
307515
283474
251277
277310
256000
272040
251400
277905
256092
222466
250105
226630
244458
222414
250199
226554
194942
220661
197983
215395
195027
220582
198010
167743
191737
169858
188403
167822
191871
169865
336012
369242
343227
357409
335513
367473
343364
305545
335257
310798
328718
305227
335466
310182
275908
303876
282590
297537
275635
303490
283012
249637
275689
256955
270501
250261
276740
257605
225081
250651
231300
244557
225158
251163
231409
199234
225024
205673
219568
199173
224985
205421
173969
199405
180039
194167
173837
199170
179866
149856
173800
154334
169345
149790
173655
154222
346197
378133
353642
370415
345356
377453
352847
313088
346078
321556
337405
312844
345276
321247
284451
314105
292914
306017
285330
313903
293628
259371
285987
266534
279160
259948
287229
266779
233494
259676
240141
253365
233523
259976
239855
207655
233720
213672
227041
207398
233660
213368
181670
206887
186718
201001
181489
206589
186536
155593
180015
160241
175098
155497
179881
160246
356252
391819
364881
382455
355763
391144
364632
324553
356710
332793
347944
324363
356519
332715
296424
325384
304041
316953
296642
325288
303856
269761
297174
276439
290023
269105
296893
276557
242531
270159
249499
262222
241880
270344
249419
215559
242461
220712
235803
215318
242249
220713
188312
213585
193594
208422
188122
213693
193795
161923
187250
166853
181418
161947
187349
166846
367883
402128
377472
393739
367677
401876
377286
335636
370045
344443
359658
335627
369679
344214
306482
338088
313768
328207
306387
337459
313680
278695
307430
283807
299566
279132
307228
284351
251410
278295
256105
272726
251332
278832
255967
222383
250174
226478
244230
222393
249829
226180
195051
220498
198013
215650
195088
220415
198061
167859
191850
169866
188513
168005
191948
169863
335008
366912
343647
356942
334557
365726
344456
305406
335752
310406
328369
306021
336664
311291
275694
303610
283198
299174
276349
304219
284011
250407
277058
257779
271171
250861
277951
258223
225165
251284
231397
244946
225099
251598
231349
199102
224950
205331
219430
198810
224835
205056
173775
199087
179797
193936
173534
198834
179567
149765
173596
154168
169061
149661
173411
154016
345375
377018
352475
367849
345550
376235
351754
312987
344947
321224
338117
313466
344341
321416
285531
313941
294032
306211
286567
314437
295229
276194
273193
282373
279899
275794
273538
282740
249047
246803
255602
253707
248893
246935
255816
207296
233796
213250
226891
207008
233651
213025
181416
206461
186451
200623
181194
206190
186250
155457
179818
160255
174855
155354
179664
160237
355535
390842
364468
381280
354940
390079
363893
324316
356390
332666
347219
324264
355929
332896
296869
325258
303877
317475
297713
325576
303769
284599
282394
292112
288891
285010
281332
291945
258357
256218
264829
263060
258458
257118
264748
215247
242180
220743
235673
215020
242201
220877
188037
213785
193838
208060
187870
214075
193888
161963
187364
166812
181213
161938
187320
166616
367522
401541
377185
392716
366903
401064
377048
335604
369567
344140
359080
335915
369484
344152
306426
337353
313640
328290
306287
337703
313675
279134
307158
284381
299402
278982
307475
283989
251316
278875
255858
272612
251429
278360
255622
222414
249661
226085
244316
222428
249356
225873
195093
220417
198088
215881
195082
220355
198156
168041
192026
169862
188495
168053
192200
169789
334465
365568
344547
355980
334540
364711
344494
306345
336916
311513
329377
307126
337380
311882
276822
304366
284323
300670
278191
304735
285133
251042
278232
258327
272312
251091
278922
258493
225023
251640
231302
244989
224699
251792
231183
198709
224779
204947
219248
198467
224685
204806
173440
198748
179489
193627
173171
198580
179265
149634
173353
153989
168577
149569
173217
153830
345627
376034
351616
366996
345694
375570
351397
313544
344243
321540
338558
313823
344242
322435
286925
314594
295566
307060
287795
315580
296263
260676
289057
267325
281504
260924
289437
267584
233505
260388
239576
254042
233431
260449
239902
206918
233400
213000
226786
206743
233293
213027
181131
206160
186225
200359
180958
206178
186237
155360
179644
160228
174694
155340
179662
160204
354742
389682
363706
380129
354387
388990
363455
324151
355843
333027
346959
325128
355800
333358
298060
325853
303888
318822
298705
326696
304492
269626
296954
276573
291701
269691
297255
276354
241353
270089
249379
262632
242262
269831
249447
214988
242284
220865
235560
215142
242397
220795
187851
214158
193874
208117
187914
214149
193573
161932
187274
166555
181254
161924
186971
166275
366732
400656
377004
391468
366431
400282
376953
335802
369516
344243
359123
336466
369557
344278
306350
338058
313657
329332
306631
337961
313580
278916
307326
283667
299544
278578
306869
282689
251507
278048
255605
272148
251585
277223
255707
222419
249407
225790
244593
222423
249592
225766
195061
220329
198165
215788
194961
220319
198155
168008
192246
169753
188341
167688
192204
169672
334667
364402
344449
357101
335087
364251
343941
307328
337455
311923
329304
307587
337028
312461
278552
305111
285411
300453
278517
305596
285686
250969
279156
258551
273118
251140
279482
258660
224639
251829
231219
245360
224730
251942
231287
198554
224723
204714
219197
198736
224815
204718
173150
198522
179197
193485
173255
198575
179206
149720
173199
153823
168163
150121
173196
154051
345644
375459
351371
366364
345310
375377
351267
313970
344312
322943
338422
314547
344351
323274
288050
315735
296472
307725
288317
316483
296534
261025
289649
267691
281922
261187
289662
267591
233496
260506
239929
254235
233509
260411
240013
206697
233258
213036
226824
206734
233213
212998
180916
206213
186279
200371
180974
206273
186399
155403
179703
160286
174725
155677
179845
160593
354334
388633
363453
379080
354098
388494
363545
325672
355798
333156
346995
326023
356046
333453
298956
326520
304748
319588
299041
326588
305049
269757
297402
276277
291995
269879
297690
276310
242286
269778
249429
262797
242313
269810
249153
215185
242393
220801
235529
215097
242143
220626
187988
214057
193509
208327
188209
213877
193353
162025
186860
166252
181533
162266
186691
166342
366407
399909
377018
390558
366621
399320
377106
336601
369530
344360
359394
336249
369305
344415
306745
337967
313660
329356
306967
337483
313703
278483
306730
282538
299868
278593
306403
282380
251565
277002
255738
272189
251084
276514
255641
222428
249642
225855
244217
222277
249195
226034
194855
220323
198188
215566
194675
220194
198258
167626
192129
169815
188158
167600
191913
170300
269470
266727
262397
260381
269106
267026
262656
278623
284977
279769
286359
278195
285230
278618
272160
264734
273330
266001
271574
265243
272254
276515
280253
274104
283395
273845
283087
276765
269717
260502
267421
262871
267249
262820
269838
278951
286580
286040
280290
285576
278679
279195
272360
266057
265183
273612
265385
272724
272246
242178
240213
235513
233478
242125
240276
235424
251722
257992
253469
259470
251254
258472
253266
244888
238005
247427
241521
244627
237947
247798
249114
253802
247028
255949
246993
255925
249170
242221
233494
240340
235538
240317
235437
242331
251743
259442
258262
253615
258552
253251
251463
244923
241721
238097
247542
237983
247664
244802
277843
275914
271345
269568
278229
275941
271105
287901
294424
289990
296609
288042
294521
289792
280793
274188
283188
276595
280951
274017
283076
284825
289057
282646
292634
281782
292123
285365
278136
270161
276212
271573
276508
271351
278408
287899
296728
294761
289943
294625
289854
287891
280785
276583
274093
283109
274006
283077
280848
251591
250042
244997
243749
251740
251580
244922
260829
267689
263638
270258
260952
267531
263553
253829
247012
256645
249309
254030
246793
256562
258324
263407
256440
264981
257323
264882
258376
251535
243955
250112
244806
251548
244895
251572
260792
270213
267555
263337
267549
263464
260784
253739
249295
246850
256434
246745
256484
253799
324135
349241
336783
341557
322360
349279
336279
300888
323338
306041
314069
301201
323518
305793
269375
290025
274496
284331
269374
289912
274855
247738
268939
251762
262334
247636
268528
251703
222370
238254
225302
235671
222403
238118
225323
195340
214342
199704
211441
195365
214504
199603
169445
189220
174344
184885
169473
189296
174383
144569
164260
149619
159400
144604
164385
149634
367833
402135
373408
399618
368592
401912
374285
354726
349871
361882
358297
349359
361745
354957
323302
321913
332210
329732
321820
332052
323347
292918
290830
301962
297996
290815
301743
292970
265237
264233
273433
271087
264122
273485
265207
239473
237613
246133
243654
237515
246170
239512
214160
211908
221601
219295
212053
221607
214125
188838
186803
196349
194273
186776
196390
188802
163661
161708
171337
169386
161736
171307
163643
127886
145250
129505
142816
127865
145278
129495
378496
412671
386207
407595
378443
412699
385815
364581
361758
372898
371425
361848
372792
364529
332241
329505
340812
338147
329487
340766
332278
302057
300057
309216
306989
300053
309165
302092
274029
271527
279419
277364
271410
279706
274014
248594
246325
254967
252750
246371
254988
248540
222901
220799
229275
227175
220747
229272
222929
196635
194759
203218
201338
194769
203205
196634
170395
168717
176868
175299
168732
176881
170388
134232
150097
136386
146560
134234
150071
136364
396348
427315
404124
424959
396316
426895
403962
376791
373076
386201
384196
373084
386066
376806
342792
340227
351041
348448
340252
351041
342774
312513
309754
319753
317069
309728
319766
312515
286231
283528
292886
289746
283367
292881
286438
258002
255534
264473
262240
255585
264494
257969
231402
229324
238173
235960
229330
238188
231382
203528
201927
210521
208836
201922
210506
203510
176693
174898
183344
181528
174923
183280
176785
139976
156249
142570
153087
139970
156261
142575
405905
435071
411722
430523
405859
435158
412549
387996
384730
396444
394589
384723
396388
387966
354880
351576
363431
360092
351595
363402
354895
323786
320647
331528
327974
320615
331444
323815
295780
293819
303632
300228
293498
303317
296098
266978
264980
273717
271662
265052
273811
266902
238915
237109
246357
244428
237151
246382
238864
210263
208486
217501
215500
208433
217511
210187
182195
181357
189385
188346
181383
189382
182182
142809
160844
144391
158881
142843
160877
144397
385922
406734
391837
403931
385740
406860
391850
352678
375861
356554
371107
352387
375734
356489
321083
342058
324666
338294
320866
341921
324487
288222
309615
292458
307866
288455
309822
292234
260185
280043
264114
276495
260276
279943
263990
230723
250612
233405
248801
230678
250461
233405
202169
221377
205578
219088
202167
221193
205483
173390
192294
175031
190056
173406
192343
175041
322140
348587
334252
340462
322148
348258
333677
301738
323653
305800
314986
302365
323559
305693
269622
290741
275074
283506
269959
291316
275448
247734
268050
251519
263378
248107
267276
250436
222526
238382
225405
235921
222638
238771
225497
195487
214709
199685
211283
195664
214795
199627
169485
189391
174407
184983
169460
189331
174318
144511
164390
149608
159395
144391
164314
149569
368569
401790
375085
397686
367952
401186
374274
351997
347289
360860
357435
352610
347257
360735
322239
321181
331305
329120
322480
321046
331184
292196
290541
300687
297560
292435
290473
300433
265509
263976
273477
270773
265376
264147
273303
239684
237484
246392
244020
239554
237577
246608
214167
212316
221631
219540
214179
212349
221636
188757
186771
196304
194240
188794
186754
196267
163577
161747
171215
169434
163609
161718
171180
127810
145250
129446
142759
127745
145186
129375
377859
412407
384946
407033
376871
412299
383610
364100
362167
372619
371915
364384
361488
372542
331049
328898
340658
337646
331365
328755
340418
301324
299325
308746
306082
301508
299102
308636
274789
271968
280671
278388
274551
272261
281045
248691
246464
255036
253070
248627
246552
255163
222691
220621
229197
227071
222756
220561
229170
196486
194688
203114
201190
196554
194622
203041
170338
168698
176843
175207
170369
168662
176805
134205
150071
136347
146513
134159
150099
136341
394892
426342
403153
423037
393984
425945
402340
376152
372468
385591
383003
376417
372160
385303
342736
340280
350898
348248
342769
340166
350864
312591
309636
319821
316999
312554
309610
319833
285765
283534
292487
290214
285891
283523
292421
258416
255728
264825
262504
258366
255692
264817
231320
229252
238217
235968
231351
229223
238199
203438
201861
210417
208608
203505
201787
210349
176561
174898
183200
181519
176584
174876
183164
139943
156269
142531
153084
139898
156264
142461
405319
434709
412533
430959
404802
434893
412463
387582
384415
395976
394093
387673
384308
395963
354672
351573
363111
359835
354727
351511
363038
323462
320709
331062
328245
323466
320762
331087
294826
292747
302246
299615
294875
292665
302165
267516
265486
274344
272439
267369
265635
274545
238777
237056
246390
244359
238839
236977
246356
210338
208417
217399
215475
210329
208472
217366
182277
181480
189453
188467
182252
181511
189479
142843
160894
144386
159096
142832
160906
144363
385394
406144
391749
403781
385256
406243
392052
352177
375512
356160
370721
352016
375541
356558
320850
341831
324528
337624
320665
341535
324488
288455
309921
291435
307787
288452
309302
290820
260282
279144
263628
276793
260154
278507
263332
230585
250260
233305
248732
230461
250037
233070
202151
221226
205431
218934
202177
221144
205325
173400
192251
174976
190356
173385
192117
174934
322498
348221
334284
340084
324960
347342
333644
302842
321875
306009
315012
303001
320122
306659
270173
291521
275875
283967