/*--------------------------------*- C++ -*----------------------------------*\
  =========                 |
  \\      /  F ield         | OpenFOAM: The Open Source CFD Toolbox
   \\    /   O peration     | Website:  https://openfoam.org
    \\  /    A nd           | Version:  10
     \\/     M anipulation  |
\*---------------------------------------------------------------------------*/
FoamFile
{
    format      ascii;
    class       volVectorField;
    location    "0.9";
    object      U_0;
}
// * * * * * * * * * * * * * * * * * * * * * * * * * * * * * * * * * * * * * //

dimensions      [0 1 -1 0 0 0 0];

internalField   nonuniform List<vector> 
12920
(
(94.2355 -307.481 4.72734)
(-10.9318 -104.727 -20.3022)
(168.129 -14.7336 3.7215)
(-0.414496 21.9896 -2.95914)
(104.281 21.3231 -8.35276)
(56.1862 11.3834 -5.14066)
(97.3122 11.6368 -8.25983)
(84.9835 9.77501 -9.16963)
(101.76 15.5237 -10.0989)
(91.0151 17.4796 -9.74309)
(89.8225 27.9457 -9.63354)
(69.1419 33.9925 -11.2057)
(63.2825 35.4783 -11.0503)
(61.7664 28.4147 -10.7425)
(77.351 19.7948 -7.76281)
(83.9576 13.1901 -3.05406)
(80.6229 11.719 -0.223143)
(59.5017 9.5137 1.85177)
(44.6488 5.47916 1.52891)
(37.5666 2.15339 0.478844)
(88.2652 -201.2 -53.3374)
(-87.9729 -59.6849 -23.3002)
(153.318 -50.6018 -16.4971)
(-22.5669 -15.1872 -0.981756)
(99.4304 -18.2361 -7.55755)
(23.8445 10.1768 -2.44564)
(76.7044 22.0329 -2.82489)
(51.6762 29.3433 -5.42219)
(75.7286 35.6064 -3.0835)
(61.3043 35.6353 -2.18608)
(65.6193 36.5939 1.66764)
(48.7976 30.667 2.89819)
(47.4318 24.7437 1.66257)
(45.1666 15.7457 -0.153606)
(54.9351 12.577 -0.287858)
(55.2248 9.99073 1.06809)
(51.5112 10.702 2.60879)
(40.3082 9.41709 2.34429)
(36.2509 6.25898 0.929897)
(34.2671 2.58463 0.279683)
(151.514 -65.2471 -6.17937)
(75.2757 -23.1538 -2.04333)
(173.346 -18.1593 17.443)
(65.0366 10.7509 3.82314)
(99.7901 11.9189 -1.84001)
(34.6376 23.9784 -3.61151)
(71.7359 22.1081 -1.58481)
(38.0614 27.1891 1.63286)
(55.2123 24.7765 3.71707)
(33.3593 25.054 3.67868)
(42.4823 21.0206 3.8871)
(32.0579 19.0815 2.45768)
(38.9716 16.6428 1.15028)
(36.1131 17.8213 0.336023)
(39.3253 16.7597 0.53917)
(36.0824 15.3592 0.844942)
(34.8846 13.9432 1.08729)
(31.5574 11.1832 0.713481)
(31.869 7.33777 0.292096)
(32.083 3.57619 0.102452)
(116.243 -63.8504 -162.755)
(-33.8035 -55.4889 -30.923)
(132.279 -33.3126 10.1816)
(18.9073 -2.14798 12.8926)
(91.001 20.1936 13.2746)
(-4.7601 22.7515 4.57883)
(53.2842 21.4948 -4.06383)
(9.40653 22.7897 1.30064)
(38.6157 21.1184 3.50116)
(13.7813 20.607 4.69543)
(25.3228 17.5994 4.0189)
(12.7517 17.5157 2.78766)
(18.7417 16.4268 1.46633)
(15.2709 15.2552 0.703742)
(21.1515 13.6669 0.367845)
(21.0632 11.859 0.441233)
(24.4539 10.4746 0.420556)
(25.4647 7.89268 0.200654)
(27.4842 5.64744 0.0739395)
(29.371 2.94593 0.0154756)
(103.118 -2.99282 -3.73056)
(-78.8562 30.2037 3.27981)
(127.179 -73.0364 3.59087)
(7.50027 -36.405 5.34224)
(78.5946 -8.04856 15.7309)
(-19.8132 20.3573 4.32553)
(51.8937 19.2643 3.30637)
(5.77832 24.7856 4.91091)
(38.4613 8.6296 4.13537)
(13.3386 16.2499 3.11062)
(26.8244 6.21225 1.90978)
(15.1036 11.57 1.02293)
(22.5091 7.36624 0.53102)
(18.5928 11.0141 0.220224)
(23.0502 9.37936 0.124585)
(22.0801 9.74591 0.112905)
(24.5505 7.98358 0.0949977)
(24.9748 7.01872 0.0473603)
(26.5322 5.00911 0.0235221)
(28.2317 2.8406 0.00196829)
(265.781 -197.302 29.3864)
(121.752 -69.931 54.6678)
(79.3796 -4.27317 30.1109)
(-93.4256 40.2185 2.96589)
(88.8897 20.39 2.09691)
(-65.5279 25.0896 3.91939)
(54.9567 -20.0757 0.122468)
(-4.32013 5.77849 1.83312)
(30.8891 -5.09155 0.776185)
(10.8617 12.7244 1.3871)
(18.6973 7.68015 1.30966)
(11.4923 14.0606 0.977868)
(14.7767 9.98261 0.625969)
(15.0214 10.865 0.297764)
(17.4362 8.94633 0.122476)
(19.0737 8.36881 0.051868)
(20.9694 6.92444 0.032124)
(22.4661 5.34399 0.0193661)
(23.9767 4.1357 0.0099111)
(26.3536 2.33005 -0.00457546)
(260.54 -123.169 -224.325)
(-103.026 16.0264 23.1919)
(1.59625 26.6434 4.72044)
(-135.654 -8.84338 -8.80244)
(109.306 -5.13712 -6.44976)
(-11.7504 18.9712 3.42242)
(38.9373 -55.2447 -0.851282)
(-39.3014 28.1394 -0.142452)
(-9.28013 -15.2606 -1.17184)
(-19.5823 17.9675 -1.64923)
(-4.18892 -2.77757 0.0904985)
(-5.21365 7.91369 0.0104668)
(7.5132 -0.475213 0.162073)
(9.49022 5.67075 0.0252543)
(16.4461 2.95649 0.0676947)
(16.9161 4.63505 0.00400077)
(20.3968 4.16602 0.00772871)
(21.3425 3.82011 0.0141761)
(23.2507 2.8306 0.0113009)
(25.5002 1.56805 -0.00261273)
(29.6002 -161.241 -124.461)
(-137.36 -6.97281 -24.0824)
(107.43 -15.6905 13.4735)
(-114.244 -13.5712 -4.34789)
(108.854 -32.0817 -13.2763)
(-27.7994 58.8652 0.0131513)
(38.4441 5.82594 -1.24087)
(-33.8894 48.6624 3.03758)
(-41.8029 -11.8849 -0.708031)
(-41.0391 21.501 0.349808)
(-9.2509 0.284622 -0.0242376)
(-3.76269 2.39133 -1.08725)
(8.2461 -0.0399465 -0.148654)
(11.2508 4.302 0.0962991)
(16.7068 0.00912134 0.064512)
(19.3513 2.06898 0.0669455)
(20.2361 1.94374 0.05566)
(21.5754 2.17753 0.0428294)
(22.738 1.57934 0.024637)
(24.7943 1.04518 0.000826374)
(67.354 -12.458 14.0953)
(7.4051 -22.9495 -11.7951)
(116.69 8.63161 -1.54527)
(1.30642 2.8379 2.86591)
(66.4099 -24.5452 4.0145)
(-2.82234 23.8443 0.812318)
(29.3389 39.1383 -3.30892)
(2.61521 29.9467 0.471618)
(-4.10143 25.2793 -0.610686)
(-11.6733 -5.33931 0.301911)
(2.45015 -19.7705 1.07535)
(3.36761 -2.22409 -0.62419)
(11.7617 0.345289 -0.23579)
(14.8061 2.45936 -0.194904)
(20.0942 2.64353 -0.0807301)
(20.2038 0.148812 0.179917)
(20.8517 1.31831 0.16246)
(21.0011 1.07428 0.124583)
(21.5752 1.04895 0.0805086)
(23.1327 0.459266 0.022631)
(192.695 -121.481 72.0763)
(10.7423 -41.4953 18.2649)
(126.618 -33.0785 4.64926)
(28.0366 -3.52843 2.22345)
(83.4538 -11.302 7.42914)
(1.07255 9.99659 3.41548)
(21.1554 37.9679 2.4033)
(12.5565 25.6407 -0.513509)
(13.8852 37.4418 -1.1624)
(16.9241 -11.4714 -2.5366)
(15.9989 -43.2953 -0.546326)
(26.6355 -35.3521 1.33286)
(20.2703 -5.98843 -0.390556)
(20.7216 -2.22359 -0.240629)
(22.6647 -0.374332 0.0334031)
(21.2286 0.20845 0.223241)
(21.1706 0.0395617 0.17434)
(21.161 0.409563 0.143239)
(21.7013 0.309073 0.0906182)
(23.225 0.109345 0.0311846)
(251.595 123.367 -54.0236)
(158.798 39.5597 -16.6091)
(197.68 -1.51448 -2.98599)
(110.221 15.5339 -0.093737)
(108.921 3.57644 3.99706)
(26.1797 6.32596 -1.08956)
(26.7914 17.9389 0.95717)
(32.7149 38.2963 0.384632)
(50.7194 31.2216 -0.18744)
(63.5425 -3.46348 2.57145)
(19.0212 -36.0235 -0.500496)
(35.7639 -21.8116 -2.09357)
(27.9257 -6.52603 1.00458)
(22.7062 -0.338801 -0.122971)
(23.0447 0.293657 0.0223053)
(21.3122 0.102573 0.220511)
(21.0703 -0.0661597 0.191171)
(21.048 -0.580486 0.155225)
(21.4833 -0.416177 0.0999644)
(22.7941 -0.639851 0.0341914)
(187.022 -133.21 34.3113)
(110.474 42.7974 6.85591)
(149.837 65.5797 19.8137)
(86.0902 58.4161 2.16223)
(118.152 58.9585 3.74524)
(61.2029 33.1769 4.07688)
(61.991 18.9154 2.94721)
(55.9041 15.0515 -0.166516)
(64.6313 11.1922 1.58944)
(61.5505 -1.25456 3.65949)
(18.0411 -18.5477 -2.91741)
(31.1603 -5.828 -0.499156)
(24.845 3.10455 0.530574)
(20.1275 4.23094 0.0225924)
(21.5327 1.70149 -0.0427735)
(19.8194 -0.389656 0.137814)
(20.4335 -1.12931 0.139245)
(20.6573 -1.24185 0.135968)
(21.3567 -0.952919 0.0804395)
(22.7736 -0.839137 0.0228439)
(163.561 -21.0462 96.2856)
(23.8394 19.3237 -0.502979)
(155.747 20.0941 15.4812)
(96.13 19.6077 10.8581)
(113.642 26.7612 13.2669)
(74.1581 6.48741 8.59996)
(72.4029 14.2943 2.8883)
(27.9336 9.85793 2.00416)
(25.735 -3.7938 0.790613)
(8.48939 -2.84172 -3.42102)
(25.1131 5.70862 -1.02752)
(21.1523 6.46489 0.403852)
(21.2696 4.44079 0.442398)
(15.7771 2.62716 0.162634)
(17.6208 1.4919 -0.242358)
(19.7998 -1.76745 -0.226707)
(20.5543 -1.96754 -0.0973236)
(21.4163 -2.57028 -0.0118841)
(22.3517 -1.83851 0.0168058)
(23.708 -1.54543 -0.000801451)
(89.2137 -104.765 -51.4915)
(-24.6897 77.4403 -31.9109)
(119.025 62.5436 -0.248287)
(59.7888 39.3159 1.08989)
(97.1991 24.6981 6.9188)
(85.2105 -3.17235 4.2095)
(103.213 5.2984 7.12663)
(104.195 -18.7692 5.78454)
(110.773 -8.04397 6.6014)
(98.8092 -15.0166 6.14498)
(81.8182 5.72149 5.32492)
(42.6179 1.46611 2.52926)
(33.1237 10.2711 -0.768781)
(25.0926 2.34658 -2.35253)
(24.6963 1.50612 -2.26064)
(23.7632 -2.33143 -1.18874)
(24.6684 -2.49354 -0.407017)
(24.0229 -3.04428 -0.0662759)
(24.4399 -1.87471 0.0627978)
(24.9045 -1.45358 0.0313729)
(99.5361 63.2103 -92.1731)
(-18.0094 79.3661 -8.78843)
(88.9184 19.0134 0.628221)
(49.9776 -3.93926 -2.10183)
(91.8272 -19.1045 0.414475)
(78.799 -36.5669 -2.17877)
(103.464 -34.9706 2.46474)
(94.5178 -41.2486 0.865506)
(103.534 -31.488 3.94376)
(87.2713 -26.1932 4.60528)
(71.3787 15.8475 5.04682)
(43.9372 21.9267 -0.351158)
(40.9084 23.106 -3.53828)
(37.6358 17.5092 -3.99661)
(36.5923 11.5723 -2.65003)
(30.5814 1.32755 -1.10689)
(28.2168 -1.1995 -0.148547)
(24.7891 -2.56289 0.077655)
(24.7812 -1.73863 0.0383984)
(24.7445 -1.4151 0.0171563)
(259.165 412.62 -244.998)
(-110.866 139.395 7.39178)
(67.1895 46.0524 -11.6089)
(26.5268 9.68553 -7.30473)
(70.4867 -7.28021 -4.72885)
(48.1617 -17.732 -7.78139)
(64.2078 -16.1045 -5.81026)
(43.4231 -22.6966 -10.3464)
(65.9021 -11.2097 -8.92442)
(56.0895 -10.2395 -7.78567)
(64.608 15.5397 -1.18254)
(54.6854 23.1312 0.504224)
(57.2985 27.9396 0.692675)
(50.9345 21.601 0.730045)
(50.4036 14.9665 0.66484)
(40.8056 5.7317 0.641387)
(35.2822 2.09993 0.538884)
(28.3115 -0.677011 0.387742)
(27.2117 -0.470001 0.154273)
(25.9645 -0.78288 0.0635613)
(27.4811 44.4556 -13.4538)
(-106.033 6.01289 19.7579)
(83.2737 -23.7208 1.99777)
(51.5788 -16.3639 -0.812874)
(76.4169 -7.92668 1.65607)
(26.2754 4.1305 -0.631932)
(40.3836 12.1484 0.930887)
(8.98119 10.4445 -8.90989)
(38.8391 14.1888 -8.98516)
(31.5156 16.2815 -8.18483)
(49.1023 26.6048 -2.35615)
(46.1462 26.5221 0.547822)
(52.4728 24.4267 2.36809)
(47.3206 16.767 2.96209)
(45.6784 11.6249 3.05554)
(34.3002 5.7514 2.25379)
(30.5079 4.48302 1.13101)
(25.1667 1.71757 0.495195)
(25.131 0.958655 0.166165)
(24.7897 0.0984939 0.0622837)
(127.771 -80.5177 -58.4802)
(79.6597 -60.3094 -21.9789)
(139.508 6.46876 -8.05786)
(105.682 10.077 2.36179)
(106.657 29.3879 3.81055)
(73.8023 23.9115 1.1716)
(74.2828 34.0604 3.70486)
(48.7747 30.7464 0.618838)
(54.8127 29.7968 2.27094)
(37.136 21.3943 1.1964)
(44.6305 20.4172 2.40589)
(34.4466 12.7736 2.60201)
(37.4868 10.3389 2.89346)
(28.2719 4.82638 2.30719)
(28.8477 5.21788 1.463)
(23.724 2.76699 0.687976)
(24.8965 2.536 0.314505)
(23.3511 0.899442 0.117223)
(24.3634 0.560217 0.0524168)
(24.7119 -0.105074 0.0150584)
(68.4601 43.5146 26.0524)
(-258.999 37.0799 -62.8386)
(100.442 55.0981 -35.6494)
(-19.74 -0.719733 0.3276)
(51.3085 17.2129 4.37528)
(13.9261 21.8281 2.58708)
(43.4507 31.1089 5.66357)
(10.1111 28.2795 2.95745)
(29.9072 21.3218 5.20453)
(4.5906 12.5916 2.44248)
(21.3591 9.95834 2.65399)
(8.40218 6.83391 1.27581)
(20.0009 7.19432 0.734008)
(13.9114 4.90058 0.153777)
(20.7215 4.67861 -0.0366858)
(18.584 2.86033 -0.0846906)
(22.2374 2.456 -0.0601506)
(21.5562 1.28681 -0.0327057)
(23.3228 0.957736 -0.0158531)
(24.0867 0.321954 -0.01097)
(-83.5014 -98.0996 -65.9477)
(-139.519 55.7681 -27.2024)
(76.1158 -2.83451 -15.6775)
(25.2144 -14.7183 -8.26003)
(69.0189 -28.7593 -5.17843)
(24.4488 -5.19771 -1.44939)
(42.88 5.03415 6.44493)
(14.632 18.3117 7.7325)
(30.4226 11.9077 7.41598)
(9.33478 9.32209 4.40932)
(21.4357 2.49364 2.2591)
(9.46287 1.20853 0.995914)
(19.3125 0.00864665 0.402017)
(13.87 -0.0946691 0.175173)
(20.4611 0.112496 0.0584701)
(18.2816 -0.0465223 0.0208425)
(21.8767 -0.00142205 0.00641277)
(21.1431 -0.17755 0.0023484)
(22.9717 -0.160534 0.00141211)
(23.7161 -0.208792 -0.00484928)
(187.434 -22.5432 -57.1413)
(-5.71257 -33.1442 46.4202)
(167.429 -9.93028 42.4418)
(44.6029 3.13359 4.30795)
(113.178 0.356464 -6.21076)
(75.3067 -10.2971 -8.67898)
(109.086 -12.7396 -12.6949)
(99.4611 -18.0536 -12.418)
(119.258 -17.1612 -11.0529)
(117.308 -18.7263 -8.89997)
(124.516 -15.6296 -6.74747)
(115.715 -8.73273 -5.02677)
(92.9746 13.4666 -9.51777)
(65.2044 18.725 -13.2038)
(62.6879 15.4013 -14.1612)
(66.2103 7.92977 -7.84569)
(65.4505 6.44493 1.29722)
(51.2069 6.76204 5.07156)
(42.4149 4.58114 3.70302)
(37.3976 1.99953 1.24546)
(226.702 -48.6628 -75.6615)
(58.0201 -104.62 -35.0655)
(140.135 -72.1081 7.59385)
(4.6453 -24.1433 9.43363)
(92.4589 -17.2898 0.507901)
(-7.33034 8.21915 -1.7577)
(58.2467 14.243 -6.77924)
(3.49928 13.2187 -4.76127)
(38.2936 15.0252 -1.45551)
(15.7974 9.93476 1.40788)
(36.6205 12.9958 7.42063)
(25.7236 9.97037 9.30244)
(30.1408 11.6667 7.96171)
(25.3123 10.2526 1.04311)
(34.3368 9.70192 -2.39444)
(37.5604 6.70492 -0.692589)
(38.7876 7.96349 2.7398)
(36.2874 8.35752 3.21427)
(35.3913 6.20225 1.81787)
(34.5694 2.55749 0.612131)
(138.26 28.4254 57.5598)
(-60.0193 -14.8158 -29.2421)
(146.057 -32.2807 11.0696)
(55.5561 -24.053 3.57456)
(106.755 -15.0518 9.79295)
(33.3071 -1.52737 4.02306)
(61.3394 -9.1661 4.17074)
(11.6523 0.359507 4.32763)
(38.4358 -2.46613 5.72114)
(13.1396 2.06224 5.46262)
(28.8022 0.0767213 4.93676)
(18.7092 5.12651 2.8016)
(28.2688 8.44153 0.467542)
(25.6164 13.6877 -1.3356)
(31.5288 14.4519 -1.08696)
(30.4672 13.2088 -0.302044)
(31.9037 12.0704 1.0227)
(30.8725 10.6049 1.13064)
(31.9795 7.31623 0.68516)
(32.6409 3.60369 0.222983)
(27.2507 -56.0702 51.8783)
(-116.629 -40.5028 -29.0277)
(109.814 -56.0464 6.24641)
(13.8018 -29.7641 9.10813)
(108.219 -7.7292 12.6424)
(68.6401 4.20633 7.35411)
(87.0174 8.04961 2.61978)
(26.3621 9.50639 3.44374)
(38.1271 8.99181 3.39439)
(11.2054 11.0346 4.33234)
(23.2002 10.8939 3.43524)
(11.1318 13.2014 2.77212)
(17.7478 13.6844 1.46708)
(15.0011 14.0622 0.44866)
(20.9346 13.0197 0.065557)
(21.009 11.3533 0.156605)
(24.652 10.0938 0.266223)
(25.8789 7.8244 0.237733)
(28.0163 5.66761 0.131516)
(29.9724 2.97494 0.0231443)
(-29.3449 -172.98 149.825)
(-189.44 -94.7042 -23.474)
(98.1339 -102.988 -21.6467)
(-60.3534 -39.041 -4.82477)
(86.01 -23.131 4.19346)
(4.36265 3.33175 3.62708)
(55.0939 11.354 5.98869)
(8.92198 17.9783 5.32116)
(38.4292 2.03277 5.57175)
(13.2704 10.3947 3.57917)
(26.7963 1.27752 2.56222)
(15.2282 8.46805 1.24884)
(22.8155 5.73359 0.638806)
(19.0236 10.432 0.158728)
(23.5221 9.28189 0.0160001)
(22.5657 9.73731 0.023712)
(25.05 8.015 0.0853004)
(25.5255 7.06381 0.0649183)
(27.1073 5.07267 0.0504575)
(28.8366 2.88505 0.0081626)
(-27.8524 -139.426 -44.8047)
(-53.1394 -41.7114 25.3393)
(67.3346 -25.2442 13.2012)
(-84.1155 14.8485 -20.7521)
(83.7954 5.58476 -15.323)
(-59.6793 19.1248 6.66262)
(48.5292 -18.8119 4.66863)
(-11.5563 6.10997 4.50233)
(25.7142 -6.63316 3.54844)
(6.29175 11.5761 3.42304)
(16.3095 6.44668 2.8093)
(10.5028 13.4493 2.17523)
(14.4432 9.68606 1.49467)
(15.2727 10.9282 0.701513)
(17.9359 9.04293 0.361799)
(19.5997 8.50747 0.142569)
(21.5127 7.01954 0.0824926)
(23.0092 5.42096 0.046239)
(24.5213 4.19327 0.022448)
(26.9209 2.36478 -0.00471949)
(151.27 163.274 1.73064)
(-76.1316 19.5882 51.9729)
(73.4937 14.2436 23.7688)
(-80.0787 -23.0714 -19.9756)
(87.0534 -13.3932 -17.7131)
(-24.9652 13.358 7.2741)
(25.5305 -52.6442 3.41079)
(-51.251 33.236 -1.3437)
(-12.0279 -17.695 -3.30591)
(-23.7845 16.3298 -3.27307)
(-4.30109 -4.45179 0.344745)
(-5.39649 7.26568 0.560632)
(7.86473 -0.739759 0.704807)
(9.92051 5.61126 0.349998)
(16.9859 2.97201 0.244378)
(17.4359 4.70649 0.1111)
(20.9015 4.26484 0.0832059)
(21.8533 3.91786 0.0640675)
(23.7762 2.90082 0.0426367)
(26.0653 1.60093 0.00607623)
(187.952 -102.344 -118.696)
(-69.2824 -40.0574 -16.3108)
(128.28 -36.023 3.59664)
(-3.72437 -18.3055 -1.10348)
(83.8188 -24.5279 -10.4463)
(-37.0702 58.0368 5.9743)
(5.21287 -17.3648 4.93837)
(-48.4285 57.3326 -3.31302)
(-35.6912 -12.8533 -1.84926)
(-39.9333 17.3433 -2.48151)
(-4.96371 -1.85329 0.537733)
(-0.295171 0.399733 -0.763341)
(10.6869 -1.35837 0.300754)
(12.5059 3.45713 0.369834)
(17.1712 -0.158568 0.421018)
(19.791 2.02278 0.31512)
(20.6947 1.97659 0.222635)
(22.0779 2.21572 0.146029)
(23.2684 1.59508 0.0915165)
(25.363 1.05009 0.0278776)
(161.744 -72.5582 83.07)
(21.5541 -15.0271 2.80776)
(107.139 19.2885 23.4484)
(-3.49343 6.99355 6.25636)
(51.0992 -7.13125 13.8507)
(-29.4871 48.6234 8.59597)
(-18.4979 -15.5357 -5.01971)
(-26.9792 45.3956 7.31956)
(-7.50538 24.503 -8.16965)
(-10.4732 -2.42771 -6.06557)
(5.62658 -10.7089 4.14938)
(17.1418 -16.5979 7.60915)
(23.3635 -3.46809 1.66386)
(20.3871 0.717029 0.624609)
(21.5421 2.30939 0.421617)
(20.8731 0.103132 0.459101)
(21.4157 1.32038 0.515552)
(21.5312 1.10128 0.397344)
(22.0985 1.06547 0.287419)
(23.6838 0.460325 0.113995)
(67.4084 -67.134 2.668)
(-107.46 -14.5771 -11.6238)
(107.841 -12.0269 4.39191)
(-39.5469 14.0753 -2.75971)
(63.6856 6.13836 1.20922)
(-12.8655 20.4205 16.2276)
(17.2894 30.5406 15.5132)
(-9.10608 47.4435 -1.51006)
(8.93326 54.4116 -4.15372)
(12.6188 -6.56391 -13.2303)
(28.2968 -11.4828 -9.68164)
(32.3845 -28.5826 -0.96445)
(30.4045 -12.3334 3.18572)
(26.415 -3.99157 1.21213)
(24.3769 -0.603171 0.634604)
(22.0071 0.174381 0.540419)
(21.8224 0.0334079 0.570206)
(21.738 0.403894 0.446873)
(22.2406 0.286812 0.311954)
(23.7729 0.087556 0.140989)
(322.681 160.804 -84.64)
(150.649 49.8294 -27.1206)
(150.604 9.77873 -3.61913)
(65.3317 27.7775 -2.55855)
(88.1246 18.6095 2.00894)
(48.5907 20.0546 -3.44947)
(49.3053 15.7765 -0.546266)
(54.3434 29.5491 5.95657)
(41.8566 40.312 7.36588)
(57.7487 7.17165 -5.27956)
(59.0331 5.56796 -0.839318)
(49.4447 -22.7206 -4.42003)
(39.436 -11.5416 0.680265)
(29.6479 -2.59794 0.776144)
(24.6963 -0.0107947 0.438678)
(22.1118 0.0131195 0.393555)
(21.7117 -0.112442 0.490803)
(21.6314 -0.616352 0.417651)
(22.0443 -0.43832 0.317269)
(23.3616 -0.655683 0.141589)
(230.494 146.357 -10.0368)
(20.8009 82.2629 -19.72)
(116.357 70.3291 7.29032)
(43.6 49.2382 -1.27958)
(85.8198 46.3523 4.57825)
(57.1052 38.2529 -0.737646)
(68.5203 29.8331 3.65511)
(64.4326 21.7998 7.03088)
(61.9056 19.678 12.5881)
(74.7119 10.4982 20.8365)
(59.9259 -8.29102 -8.25217)
(36.5653 -6.92701 2.148)
(29.1786 -0.378922 0.284674)
(26.0083 3.73454 -1.11606)
(23.1983 1.70318 0.0400694)
(20.5625 -0.511591 0.304918)
(21.0934 -1.23463 0.424249)
(21.2797 -1.35038 0.381944)
(21.9425 -1.01392 0.263184)
(23.352 -0.868719 0.10764)
(221.693 322.715 -11.2105)
(-103.566 78.49 -29.1322)
(119.804 31.8643 -17.2946)
(47.9419 28.5183 2.77018)
(95.4426 32.2705 13.526)
(59.7562 13.2104 12.7546)
(67.3028 21.1268 12.4537)
(44.276 18.9152 8.67083)
(50.8941 3.73847 4.21028)
(32.7931 3.35241 -2.1766)
(30.1437 12.8046 -0.682871)
(20.5519 7.58053 0.468625)
(21.5396 4.39976 0.194253)
(17.0223 2.09191 -0.161202)
(18.0168 0.568646 -0.393887)
(20.1828 -2.36669 -0.184915)
(20.9961 -2.28534 0.00754728)
(21.9501 -2.71233 0.0835592)
(22.9131 -1.88613 0.101099)
(24.2948 -1.58031 0.0294213)
(150.446 -170.258 -48.7475)
(-69.0703 69.6784 -28.462)
(94.1646 62.151 -0.730012)
(19.9542 55.0421 -2.10993)
(77.5687 47.3575 13.3849)
(58.886 19.314 5.96836)
(81.6058 30.3387 13.8339)
(81.157 1.41053 10.5501)
(89.7335 10.8074 12.6032)
(75.2111 -1.92522 13.2051)
(62.1067 12.5672 13.2067)
(38.2068 5.96174 8.02555)
(33.5743 11.4612 0.743762)
(26.9562 1.87066 -1.3864)
(26.3883 -0.23988 -1.11106)
(24.5141 -4.15295 -0.092405)
(25.0918 -3.6528 0.197316)
(24.2095 -3.59244 0.336269)
(24.7964 -2.00688 0.269934)
(25.4252 -1.50434 0.105716)
(197.353 59.2961 -201.91)
(-34.0001 118.441 -34.4726)
(86.9398 29.9845 -6.97354)
(21.3876 14.3231 -2.10474)
(71.4174 -3.34527 5.822)
(42.0117 -17.1617 -5.11154)
(78.1518 -11.2025 3.17993)
(63.4655 -15.813 -2.78213)
(77.2203 -4.56255 1.98317)
(61.9111 -1.14133 5.32057)
(56.752 23.4758 9.05339)
(47.1981 19.4369 3.62873)
(47.8363 13.8089 -0.89606)
(44.1325 3.01352 -2.04216)
(41.0389 -0.167787 0.223981)
(32.9984 -5.01259 1.15383)
(29.5473 -3.52818 1.06109)
(25.6412 -3.25973 0.577148)
(25.5159 -1.86488 0.220847)
(25.4229 -1.45709 0.0941712)
(10.8239 203.679 -250.867)
(-84.0622 140.803 42.0877)
(58.1275 51.8855 0.632616)
(3.01072 17.7228 -1.564)
(48.2125 3.12881 1.92059)
(-0.646294 3.20694 -10.2772)
(38.1511 20.3924 -6.19293)
(6.07602 8.4878 -14.4532)
(36.006 25.8212 -12.0663)
(21.6504 18.9562 -10.7246)
(42.8505 29.617 -1.44764)
(45.7658 19.2629 -0.769449)
(58.259 15.8451 0.941723)
(56.4184 6.75979 1.81639)
(54.7395 4.50272 3.69908)
(43.8367 -0.113905 3.55875)
(36.3125 -0.111669 2.48685)
(28.9513 -1.31117 1.40825)
(27.8096 -0.637771 0.561401)
(26.5863 -0.834573 0.221907)
(-5.34694 62.0652 30.9693)
(-116.363 39.6703 15.2136)
(55.6045 7.95323 -27.0107)
(-25.0924 -2.72579 -12.3114)
(23.4472 1.44016 2.36065)
(-68.1054 6.10106 -9.30799)
(17.5007 15.2849 -8.72006)
(-23.7555 2.50452 -16.3951)
(22.7293 7.81065 -13.7576)
(7.08517 4.13567 -11.4715)
(34.7402 15.3313 -3.63726)
(35.3907 12.5615 1.3714)
(46.0348 11.3681 4.99469)
(40.8677 5.63585 6.06423)
(40.2533 6.06437 6.46731)
(32.2258 3.76886 4.89721)
(29.9127 4.0641 2.76296)
(25.4149 1.64669 1.1764)
(25.5734 0.960524 0.348084)
(25.4138 0.10336 0.141694)
(161.572 34.9333 64.3564)
(11.1936 15.6326 -4.8955)
(74.0269 49.4328 -16.8961)
(4.38265 39.6542 -6.59202)
(44.5293 53.9556 8.51732)
(-21.2844 40.074 0.135988)
(24.4393 39.0507 2.59854)
(-6.00462 20.6842 -2.99127)
(28.0378 17.7249 1.89328)
(13.4581 6.589 2.23828)
(31.0152 7.87934 6.61506)
(22.7617 2.57325 6.92495)
(30.064 4.63908 7.18767)
(22.9627 2.69603 5.37765)
(26.068 4.88028 3.58883)
(22.5483 3.01923 1.86969)
(24.7429 2.78655 0.991319)
(23.6696 1.0456 0.373236)
(24.8865 0.63677 0.166617)
(25.3624 -0.0741066 0.0528727)
(350.871 -113.911 -179.073)
(-84.9739 -16.5756 -18.4506)
(86.2909 67.878 -37.0222)
(-88.2002 37.9158 16.9493)
(39.8514 57.4516 12.244)
(-41.5668 41.407 3.54326)
(17.7335 31.5096 12.9862)
(-36.3742 16.0503 2.75375)
(15.6506 7.96322 7.67414)
(-10.4557 4.26228 3.79038)
(16.8173 5.60644 4.5186)
(5.34383 5.26645 2.85397)
(18.9703 6.53667 1.94917)
(13.6262 4.71103 0.948014)
(20.9238 4.68326 0.540555)
(19.0418 2.94399 0.267475)
(22.7986 2.52075 0.156895)
(22.1769 1.33683 0.0748619)
(23.9476 0.979901 0.0322508)
(24.735 0.333424 0.0043773)
(184.95 -31.0224 233.845)
(-47.0785 4.18335 -1.21895)
(76.5628 9.60493 -21.3593)
(12.2532 12.5225 -8.3593)
(62.373 -6.23167 11.9462)
(6.11146 -0.171878 11.5293)
(33.2792 -0.584107 16.2242)
(7.08196 10.4584 12.8535)
(29.9724 2.97552 10.4379)
(13.0895 2.03461 6.49631)
(24.3123 -2.76626 3.87173)
(11.6976 -1.74321 2.1767)
(20.4498 -1.44634 1.22186)
(14.7441 -0.682107 0.633376)
(21.1125 -0.1022 0.331682)
(18.9384 -0.110569 0.157797)
(22.5093 -0.0199744 0.0836101)
(21.7998 -0.181887 0.0361115)
(23.6204 -0.161745 0.0201381)
(24.3841 -0.209761 -0.000913828)
(81.4696 76.9881 50.9935)
(-137.27 49.9005 54.4625)
(169.012 3.88685 30.6285)
(42.3462 5.04383 4.75459)
(115.14 0.532119 -3.60587)
(74.441 -11.4751 -9.60856)
(105.56 -14.5077 -13.2322)
(93.3298 -20.5523 -14.701)
(114.17 -20.1201 -14.0477)
(114.742 -21.5209 -10.2888)
(129.49 -20.696 -6.36631)
(131.228 -16.5161 0.0525644)
(129.088 -1.09413 -0.844826)
(92.3525 16.9138 -10.741)
(62.6342 18.5875 -17.7673)
(46.6126 12.1785 -10.5017)
(43.3527 7.94497 0.639895)
(38.6173 6.27377 5.17975)
(37.8898 4.34591 3.82265)
(36.1693 1.95516 1.40582)
(32.786 -0.143953 120.514)
(-77.6 -47.8973 -24.8717)
(122.988 -54.9556 32.2242)
(-4.93302 -14.7653 12.5179)
(95.8294 -17.9508 10.2797)
(17.9099 -8.82073 2.53821)
(64.1062 -11.5279 -4.46845)
(13.7691 -10.231 -6.67128)
(40.0802 -3.45812 -11.9694)
(12.6744 -1.01025 -10.8053)
(31.8985 4.03656 -7.2083)
(24.3704 5.54978 0.229659)
(33.5955 11.8068 5.03255)
(27.9099 15.0674 -0.0256451)
(31.7201 14.6739 -4.61701)
(30.8156 10.3265 -3.08847)
(32.8935 7.98903 1.21425)
(32.5002 7.21607 2.25544)
(33.7252 5.36356 1.58841)
(34.3032 2.40584 0.604148)
(109.669 -101.672 -173.352)
(-88.3855 -45.5224 -44.0028)
(134.598 -41.112 -13.1455)
(28.3101 -18.1216 2.75743)
(97.6122 -11.5104 15.3513)
(34.2778 -7.12937 10.7159)
(64.8167 -21.6826 13.6468)
(15.9689 -18.3489 10.7774)
(40.7945 -19.4086 6.99278)
(17.0051 -10.1645 6.23603)
(32.8994 -8.17897 2.79576)
(22.2502 0.0280602 -0.0149503)
(30.2194 5.57598 -2.71698)
(25.7742 13.5132 -3.62963)
(30.5278 15.2805 -2.9318)
(28.6011 13.9831 -1.6532)
(30.3783 12.2328 0.219868)
(29.7798 9.85468 0.889223)
(31.4926 6.81101 0.706828)
(32.4958 3.50254 0.238244)
(184.885 -157.952 46.3236)
(-109.799 -55.5478 -34.2992)
(112.926 -48.7255 -14.2486)
(-1.78636 -21.8328 4.31884)
(99.4898 -4.96618 4.42241)
(55.924 5.33041 3.73059)
(78.6275 6.36371 10.7572)
(20.4041 3.44136 11.4338)
(34.9027 0.580142 10.2918)
(7.34974 4.30803 7.43048)
(21.2909 6.04757 4.5054)
(9.89162 10.0953 3.37668)
(16.9733 12.1482 1.41323)
(14.4044 13.6726 0.115331)
(21.0409 13.2179 -0.219315)
(21.2807 11.6652 -0.0191064)
(25.1101 10.035 0.168161)
(26.076 7.65142 0.263414)
(28.0425 5.52893 0.167156)
(29.9553 2.93956 0.0373146)
(315.947 -273.405 23.7676)
(-64.3934 -134.085 -34.2962)
(109.236 -102.881 -38.3518)
(-30.0439 -39.8577 -6.23987)
(77.2804 -24.0837 -6.74174)
(-11.1763 3.87105 6.37517)
(50.0275 2.14479 15.9897)
(-0.192162 5.55578 11.0944)
(35.7799 -10.4696 10.4803)
(9.98387 0.898486 6.40223)
(25.2202 -5.62325 3.74958)
(13.7866 4.11036 1.62999)
(22.1504 3.00361 0.597381)
(18.5374 9.12698 0.0160871)
(23.2959 8.48298 -0.0560229)
(22.5843 9.45595 -0.0216549)
(25.1201 7.88924 0.0691572)
(25.5413 7.00811 0.0742664)
(27.0935 5.05316 0.0635816)
(28.8292 2.88116 0.0181038)
(221.111 -97.2578 68.0584)
(15.6152 -9.60749 -23.65)
(133.385 -25.7721 -5.80682)
(-29.8602 0.728799 -12.8312)
(64.1015 7.27715 -11.8699)
(-72.6613 18.1702 10.6556)
(51.3314 -18.9287 6.55564)
(-16.3313 5.98946 2.23718)
(23.0953 -8.05019 2.94337)
(1.53271 9.1159 2.51425)
(12.8734 3.83672 2.88608)
(8.09842 11.9528 2.33856)
(13.1123 8.53439 1.64456)
(14.674 10.3887 0.741861)
(17.7065 8.70583 0.441839)
(19.4454 8.40912 0.204627)
(21.4334 6.9835 0.118262)
(22.9777 5.41674 0.0656761)
(24.5058 4.19257 0.0311611)
(26.9188 2.36508 0.00412037)
(48.7941 140.208 31.014)
(-95.1886 20.1353 47.5744)
(114.179 4.96534 28.2374)
(-36.5073 -13.0197 -6.16567)
(76.6844 -5.4484 -9.5959)
(-38.5639 14.8264 8.23075)
(38.7696 -53.7229 1.53883)
(-37.3034 31.0062 -8.34214)
(-7.62339 -17.5254 -8.37622)
(-25.8405 14.8402 -3.3827)
(-4.89774 -6.09757 0.20419)
(-6.20223 6.43033 0.869743)
(7.49588 -1.26359 0.911681)
(9.60876 5.45176 0.551101)
(16.9021 2.95401 0.324288)
(17.386 4.72608 0.213535)
(20.8775 4.27526 0.141263)
(21.8348 3.92632 0.0982416)
(23.7615 2.90948 0.0595903)
(26.0589 1.60271 0.0190567)
(131.353 -63.8083 25.0465)
(-67.2346 -30.2696 8.49669)
(128.24 -33.708 -6.66392)
(4.72575 -19.1015 -0.452847)
(89.1154 -19.9071 1.04252)
(-21.167 55.6664 1.08809)
(21.7799 -13.0292 10.3619)
(-31.0752 55.4134 -19.6131)
(-29.0695 -9.16742 -11.7976)
(-35.2818 8.13585 -1.72508)
(-0.933851 -7.7528 0.623338)
(0.971112 -0.886045 2.98726)
(10.4422 -1.15686 1.50089)
(12.2748 3.66677 0.654863)
(17.1215 -0.00510653 0.667526)
(19.735 2.10226 0.518049)
(20.6381 2.10808 0.3415)
(22.0344 2.32137 0.22142)
(23.2406 1.6618 0.131027)
(25.3506 1.0761 0.0504972)
(197.384 -19.4068 -103.847)
(-128.284 34.2645 -0.427493)
(112.898 28.2354 15.7995)
(-29.4441 13.6185 9.21787)
(52.8272 -4.11168 20.0887)
(-23.5815 52.2971 6.62083)
(-4.89259 1.00087 15.0948)
(-20.393 37.1004 -2.9467)
(-1.4637 33.9971 -22.9074)
(5.59674 -19.4209 -10.5856)
(17.1212 -17.7079 4.55683)
(19.5866 -11.8442 6.32405)
(20.6102 -2.69215 3.45266)
(19.328 0.840205 1.41402)
(21.4943 2.4607 0.723479)
(20.8629 0.169908 0.892446)
(21.4093 1.41945 0.928955)
(21.462 1.18709 0.692267)
(22.0083 1.12736 0.454231)
(23.6138 0.488748 0.191989)
(137.355 -137.487 60.9823)
(-139.764 -15.5193 -23.4857)
(106.866 -17.0857 -14.6815)
(-59.5591 19.6924 2.9672)
(44.8426 14.8494 9.21913)
(-66.3407 53.8136 19.8207)
(-16.4913 18.0562 6.32807)
(4.20663 26.2349 -2.65665)
(19.5 47.4057 -11.7593)
(32.4138 -28.7562 -16.6108)
(27.0789 -26.1064 -8.22551)
(21.4642 -16.7266 3.82064)
(23.4531 -7.16655 5.01175)
(24.9517 -3.46544 1.73521)
(24.0806 -0.0813104 1.04285)
(21.7739 0.567229 0.997277)
(21.7048 0.29306 1.02987)
(21.6218 0.529539 0.805023)
(22.1377 0.321225 0.511391)
(23.7048 0.0931715 0.234205)
(394.255 -37.9718 59.8198)
(135.704 22.9211 7.86632)
(143.993 6.90685 7.41326)
(53.5785 25.7856 0.486863)
(80.2315 17.0808 2.70615)
(29.8948 23.9346 -0.699734)
(29.7935 29.9586 1.29834)
(30.6366 36.8564 13.2006)
(46.394 21.046 7.76812)
(43.1745 -21.3165 -17.7037)
(35.0265 -28.1562 -11.64)
(37.5445 -20.9003 -3.86387)
(30.6205 -3.4078 0.0824678)
(28.0747 -2.32114 2.29978)
(24.3745 0.156334 0.839208)
(21.9437 0.0528519 0.895919)
(21.6503 -0.0651217 1.00469)
(21.5438 -0.601876 0.800976)
(21.9544 -0.431045 0.530245)
(23.292 -0.655025 0.241776)
(282.373 -18.8462 65.0807)
(81.4861 15.921 24.2393)
(108.334 44.3562 14.7241)
(27.8303 42.4554 1.74918)
(69.4552 43.444 5.6494)
(36.4738 35.3297 1.65813)
(47.5491 30.7416 8.20831)
(38.5138 32.5546 10.2639)
(54.2387 23.2953 10.3246)
(67.6646 5.76103 22.7213)
(54.3939 -12.9019 6.81202)
(28.6725 -10.8403 0.0470445)
(32.0447 -0.111782 0.365772)
(28.2394 3.43751 0.0624563)
(23.5309 1.51169 0.470072)
(20.5922 -0.615687 0.771401)
(21.1502 -1.35367 0.884656)
(21.2967 -1.4613 0.731331)
(21.9255 -1.0856 0.451809)
(23.3142 -0.903362 0.196879)
(351.114 213.943 -13.9757)
(143.732 108.311 4.00405)
(145.325 58.7072 -19.6799)
(50.1156 40.639 2.89201)
(85.8275 40.4505 12.6575)
(46.6133 18.3238 14.5017)
(58.5215 29.7499 13.8056)
(48.2487 30.5544 11.1907)
(53.2632 12.0848 9.73586)
(28.7893 13.463 3.79903)
(24.4541 11.913 2.10874)
(17.5281 4.95482 0.819612)
(20.3126 3.254 0.14538)
(16.5655 1.54754 -0.236812)
(17.9156 0.14255 -0.14301)
(20.1277 -2.47198 0.00204584)
(20.9407 -2.37732 0.163616)
(21.9088 -2.75296 0.175767)
(22.8907 -1.90882 0.135611)
(24.2823 -1.59015 0.0475162)
(123.615 -132.198 -14.3018)
(-97.4871 89.8583 -44.1563)
(71.1546 85.2793 -1.49764)
(-27.7634 71.7162 -2.47775)
(56.8446 68.5813 17.9425)
(24.3142 38.9435 9.91157)
(51.6228 62.0647 20.5349)
(38.7954 21.4025 15.6655)
(47.115 34.629 17.653)
(32.5767 12.1733 17.0341)
(34.4002 18.9182 13.7919)
(27.2653 4.28885 5.55262)
(28.2212 5.70008 -0.298737)
(22.6661 -3.0832 -1.34995)
(23.2218 -2.79385 -0.693044)
(22.4643 -5.01394 0.257339)
(23.7658 -3.88452 0.405299)
(23.5937 -3.51706 0.445955)
(24.5295 -1.89651 0.284684)
(25.3679 -1.47315 0.11796)
(251.948 166.041 -76.7552)