/*--------------------------------*- C++ -*----------------------------------*\
  =========                 |
  \\      /  F ield         | OpenFOAM: The Open Source CFD Toolbox
   \\    /   O peration     | Website:  https://openfoam.org
    \\  /    A nd           | Version:  10
     \\/     M anipulation  |
\*---------------------------------------------------------------------------*/
FoamFile
{
    format      ascii;
    class       volScalarField;
    location    "5.5";
    object      k;
}
// * * * * * * * * * * * * * * * * * * * * * * * * * * * * * * * * * * * * * //

dimensions      [0 2 -2 0 0 0 0];

internalField   nonuniform List<scalar> 
12920
(
354.098
387.072
285.324
289.051
286.93
279.204
236.925
194.643
162.36
147.525
132.847
124.696
117.497
112.043
102.889
90.1637
75.466
63.064
56.9633
49.6199
429.335
804.393
633.678
389.965
346.94
294.929
248.243
215.232
184.13
178.286
168.197
165.759
158.722
150.757
133.376
116.296
101.191
93.1232
89.1872
89.0156
678.004
1926.08
1858.22
1311.39
831.362
540.493
345.986
246.203
190.474
167.911
145.408
135.075
122.13
114.16
105.445
99.9997
96.109
94.4556
94.3463
94.6431
297.089
1452.38
2099.6
1579.99
1010.54
638.701
378.459
239.236
184.289
153.961
135.907
121.95
111.726
105.253
101.102
99.303
98.3331
97.399
97.0515
96.1511
2227.84
2318.32
1812.42
1050.69
690.017
486.59
356.401
270.044
222.423
187.441
164.082
148.718
135.198
126.556
119.197
114.239
109.325
104.493
101.638
98.8076
8186.02
2292.39
1624.58
981.558
738.434
481.869
429.157
325.346
288.68
227.02
191.536
164.081
146.114
133.743
124.163
115.869
107.78
102.219
99.7683
98.4427
1908.54
1527.72
1688.4
1559.43
1138.34
750.29
623.21
521.227
468.309
378.48
297.186
233.419
190.123
160.871
137.483
119.492
107.149
101.363
99.4673
99.6297
2569.54
3568.33
1915.62
1346.03
962.09
807.537
500.5
385.25
356.123
252.502
204.286
158.543
118.343
99.0739
133.731
116.965
108.727
104.507
100.328
98.522
1063.89
2928.63
2225.21
1554.75
972.242
562.567
417.647
179.759
118.811
44.4614
75.2373
108.598
94.7224
75.7619
86.3544
119.999
104.892
96.2542
92.5088
93.1691
194.9
1194.12
1497.22
1302.28
809.147
388.982
195.72
99.5316
93.3228
110.487
74.3513
99.5861
95.4913
76.6441
83.8023
109.112
96.8735
91.2592
91.1375
92.9313
709.996
1390.76
1516.96
1232.13
945.641
494.062
265.945
201.32
204.933
144.939
61.0563
66.7181
71.5387
63.7455
74.5643
122.848
114.545
108.337
107.524
105.818
490.814
1677.28
1556.46
1167.23
872.242
471.064
266.206
204.757
190.631
77.2845
64.8401
70.3007
63.2999
55.2466
91.5154
141.863
128.787
123.368
122.878
120.176
6362.37
4147.62
1752.94
1085.05
883.43
780.107
451.733
290.679
174.211
104.99
104.52
105.793
98.654
91.8997
141.97
135.024
134.279
135.499
136.694
134.11
5904.84
2475.99
1213.01
1046.69
911.087
692.705
489.408
328.668
236.152
204.057
182.413
169.049
155.982
150.727
147.937
148.101
149.137
150.274
150.93
146.22
2642.5
1546.07
1005.99
902.111
751.809
517.105
389.119
316.755
262.346
257.34
245.786
238.249
218.472
201.913
188.437
179.428
173.18
168.366
166.007
155.7
1168.06
1748.56
1195.09
709.639
597.354
525.668
419.911
395.222
358.281
353.749
334.633
319.045
289.553
257.429
227.033
203.976
187.134
176.384
171.745
158.436
2724.81
1039.25
711.734
562.779
572.883
540.854
477.767
454.586
419.66
410.091
383.946
363.964
326.021
281.78
244.832
217.899
198.779
182.892
176.592
162.255
1369.67
705.416
912.315
976.885
796.726
682.656
607.457
548.189
479.693
448.968
395.102
342.687
284.139
242.635
221.179
204.893
194.359
179.734
173.495
160.891
64.0943
290.361
717.542
816.91
731.171
677.195
603.944
569.887
488.863
405.77
301.465
219.981
172.786
147.722
138.251
134.238
131.816
124.307
116.751
110.474
1078.28
1072.48
943.525
893.921
775.173
571.453
449.019
408.281
367.118
322.33
276.26
226.265
174.609
135.813
111.034
95.7731
82.9441
70.8746
59.4954
46.6688
200.928
542.179
568.51
821.92
819.729
741.113
598.85
483.012
395.694
346.175
309.621
290.177
273.654
254.108
220.689
179.583
147.578
131.569
128.107
128.39
1071.26
2469.63
2030.48
996.605
942.693
694.691
598.96
546.975
477.23
457.438
415.091
406.743
383.52
371.474
343.257
323.835
307.107
294.651
279.451
274.117
2588.88
5839.04
4762.91
3054.87
1828.78
1204.83
717.239
591.538
479.925
432.876
381.96
360.704
333.015
320.728
301.988
292.876
285.083
283.115
282.75
283.912
3493.47
6414.03
5759.09
3791.02
2244.07
1358.08
746.978
571.487
470.664
411.675
368.43
337.19
313.066
300.317
289.685
286.523
283.658
283.752
283.754
283.511
2913.36
6194.34
4800.22
2679.19
1658.96
1174.89
863.315
695.308
582.44
502.259
435.618
404.398
369.822
355.587
336.099
325.887
312.692
303.316
296.388
291.187
8078.19
6687.3
4284.63
2606.09
1897.97
1232.47
1111.11
853.256
756.562
605.874
504.692
441.252
396.363
370.556
345.103
327.019
307.026
296.753
291.831
290.606
10449.8
5736.7
5096.79
4017.45
2675.28
1852.72
1488.83
1282.92
1100.46
927.911
712.072
587.156
484.052
430.809
373.427
332.221
302.837
292.702
291.994
297.415
11307.1
8596.52
4820.08
3305.97
2158.75
1783.96
1483.41
1373.35
1195.49
956.391
807.518
668.948
509.602
382.762
323.456
295.357
282.826
283.67
287.421
296.452
1404.53
6401.48
4774.78
3546.73
1990.49
1589.87
1285.22
1044.02
752.78
463.036
532.415
567.91
478.402
354.339
273.185
263.76
254.039
257.287
265.603
280.503
3508.33
4266.02
3813.32
3231.04
2027.89
1360.04
981.218
767.262
629.955
503.541
466.387
454.351
403.8
312.562
244.01
238.629
239.6
247.498
258.79
274.248
15329.4
8147.06
4790.03
3159.66
2365.53
1776.62
1362.96
1151.75
962.801
611.854
392.697
320.064
283.345
239.995
216.359
279.507
281.059
284.244
290.713
295.147
4865.36
6965.23
4204.63
2943.49
2198.07
1770.55
1373.3
1175.19
908.549
492.353
397.272
353.302
306.869
269.992
291.208
327.163
326.556
329.286
334.165
333.888
21235.4
4384.21
3142.93
2620.27
2328.23
2107.25
1523.26
1183.86
642.285
461.149
411.098
375.856
348.895
329.157
361.771
364.341
372.809
379.884
382.269
375.809
6170.36
2940.31
2661.16
2667.61
2286.74
1779.25
1199.8
836.386
626.8
563.013
502.902
471.481
439.655
429.085
424.745
427.571
433.798
432.945
430.343
411.207
7366.11
2933.2
2809.64
2232.07
1806.1
1297.25
1023.15
843.357
721.555
713.36
678.454
659.891
619.581
584.89
551.596
529.24
514.322
498.133
486.272
447.479
2859.3
5340.31
3498.09
1869.6
1577.61
1372.03
1119.42
1034.01
928.035
900.162
843.443
812.982
760.991
710.357
650.779
596.85
557.075
529.735
515.432
473.509
4746.07
3541.4
2165.15
1595
1636.49
1447.41
1292.57
1203.47
1083.37
1034.88
952.264
905.524
846.827
786.474
712.239
644.427
590.276
548.067
530.207
490.148
4498.67
2464.52
2425.54
2712.41
2099.68
1946.99
1599.03
1518.3
1310.34
1197.09
1013.51
885.808
783.75
722.82
669.316
618.874
582.569
538.708
519.949
482.196
1227.04
901.677
1352.5
1946.71
1771.77
1731.36
1536.76
1405.85
1150.21
927.014
686.277
524.61
434.283
410.042
417.157
431.001
427.328
403.362
386.572
362.426
2464.75
2474.74
1736.15
1626.63
1579.57
1362.09
1025.25
865.568
738.337
645.795
540.721
425.782
333.063
265.654
220.032
188.015
166.341
145.335
131.145
118.268
1721.54
1933.12
1661.68
1582.46
1262.19
979.71
774.657
614.831
494.631
416.023
361.683
321.81
288.828
250.279
209.409
175.294
157.054
153.274
156.867
161.957
4590.82
4211.59
3097.81
1737.34
1469.1
1066.9
894.476
772.909
640.431
598.373
529.644
517.031
480.732
466.566
439.774
432.059
431.269
432.354
427.706
425.688
5735.59
8859.78
6273.21
3687.07
2300
1432.58
992.769
789.165
657.866
584.241
524.374
496.159
465.575
454.882
439.841
437.111
433.06
433.483
432.561
432.295
4066.82
9321.77
7676.01
4690.19
2754.33
1591.47
1028.06
786.639
673.955
581.568
528.268
486.2
457.255
441.708
428.915
424.679
419.82
419.566
418.895
419.572
11425.2
9882.62
6266.13
3659.61
2373.82
1573.91
1194.54
926.906
803.093
690.503
617.019
565.886
520.44
494.502
468.531
453.895
438.811
431.173
425.31
422.26
9848.05
8383.44
5628.25
3565.32
2531.53
1630.34
1456.6
1102.27
973.049
797.866
697.78
620.125
560.796
518.532
482.672
458.236
438.369
429.864
426.007
424.171
14195.4
8821.98
7364.05
5101.22
3366.83
2305.1
1794.31
1472.91
1237.92
1048.76
863.505
744.752
630.917
562.452
499.196
463.079
439.394
435.058
435.992
440.489
11755.6
9817.48
6267.34
4044.41
2667.72
2135.77
1862.54
1656.99
1375.79
1189.68
995.894
814.467
635.395
506.664
435.313
415.011
412.638
420.053
431.954
442.618
1065.99
6496.66
6323.21
4279.87
2457.53
2036.75
1743.35
1399.4
1047.91
844
826.91
729.501
578.75
447.322
377.811
366.149
369.587
386.762
405.226
424.821
4139.99
5312.62
5136.14
4225.72
2706.81
1881.39
1461.33
1128.78
894.168
718.005
662.856
578.036
481.348
380.779
328.404
339.164
350.893
376.093
393.779
411.266
10863.1
7249.08
5492.85
4155.49
3118.57
2426.48
1845.77
1439.04
1112.11
779.244
449.599
310.225
291.164
276.841
317.326
384.466
393.291
406.957
417.902
422.93
20157.9
8210.29
5208.5
3864
2885.64
2383.7
1899.81
1490.85
1064.44
711.213
573.151
475.272
411.029
382.129
406.713
450.533
455.723
462.918
465.078
459.985
16169
7469.25
5060.52
3855.39
3128.49
2572.87
1982.62
1442.2
878.562
688.331
584.62
526.073
492.917
475.24
527.441
530.652
535.119
533.538
527.527
504.821
3007.09
5573.6
4657.54
3743.64
2888.87
2113.35
1525.67
1142.78
903.726
807.083
727.256
695.258
663.537
651.519
640.641
630.038
620.995
600.929
584.652
541.863
11701.1
5753.18
4221.6
2882.15
2395.9
1705.82
1432.1
1175.9
1019.72
974.758
914.626
888.256
845.003
812.671
778.088
744.089
712.939
674.727
645.237
577.081
4723.11
8145.24
5477.63
2805.05
2316.13
1856.53
1542.34
1364.48
1220.93
1161.58
1089.84
1051.49
993.57
940.982
880.507
822.421
773.639
725.636
691.009
610.822
9956.74
5484.88
3303.31
2436.54
2390.37
2009.99
1782.05
1585.39
1407.88
1316.32
1209.66
1156.04
1088.51
1024.39
953.911
879.672
816.832
755.406
718.385
638.34
7497.53
4870.71
4083.89
3640.93
2779.61
2631.07
2210.79
2007.16
1657.13
1458.81
1240.65
1131.6
1050.81
998.359
938.23
864.593
801.178
732.952
697.075
625.94
3312.22
3744.73
3425.15
3413.01
2670.14
2441.24
2014.84
1760.44
1368.26
1099.71
844.419
713.462
655.038
654.06
660.105
650.49
619.162
568.863
544.344
496.221
1997.63
3520.74
2835.15
2108.57
1853.01
1573.17
1230.53
1011.62
854.946
723.163
586.626
453.169
349.827
277.863
235.428
204.43
184.353
163.157
154.009
139.785
5021.45
3449.29
3024.82
2117.96
1473.25
1075.82
840.588
657.906
524.575
421.966
353.468
291.528
244.486
205.039
181.167
169.603
167.132
168.665
178.004
181.03
15911.8
5632.3
4258.33
2349.09
1853.95
1302.26
1127.6
916.905
778.58
700.353
630.97
612.225
580.158
575.065
563.499
567.771
576.333
583.396
583.427
587.317
25124.5
14844
7840.36
4090.19
2676.76
1588.42
1249.11
938.071
828.606
716.032
669.719
628.505
607.431
595.479
589.08
589.232
589.335
591.538
591.808
594.973
18495.3
15056.9
8796.42
4912.33
2972.14
1708.35
1276.2
951.756
861.355
729.212
685.9
627.843
604.522
583.561
573.799
568.471
565.477
566.531
567.081
571.18
10075.7
10705.5
8105.79
4339.88
2927
1810.78
1465.26
1097.67
1003.58
842.856
783.808
705.967
665.695
628.81
605.557
588.663
576.883
572.034
567.576
568.575
17593.8
10068.5
6633.15
4239.06
2991.21
1904.75
1723.67
1272.43
1157.32
938.854
859.855
759.09
703.678
652.121
618.341
593.576
579.088
573.874
570.412
569.855
12301.8
10649.6
9166.79
5703.23
3921.19
2538.06
1999.06
1546.45
1338.8
1108.99
969.398
842.747
747.949
679.9
628.506
602.546
589.842
590.795
592.962
595.766
26073.1
10850.1
7661.75
4368.79
3150.16
2364.06
2044.53
1759.8
1437.03
1265.3
1045.16
866.983
715.735
612.471
563.99
560.055
566.172
583.786
596.328
605.359
7182.23
9596.37
8376.19
4601.72
2845.96
2329.66
2012.8
1557.01
1225.03
1079.66
951.164
788.222
634.299
535.086
493.708
509.874
522.662
552.538
572.933
592.136
15935.2
8190.06
7201.29
4784.58
3153.11
2155.7
1729.12
1326.55
1054
882.74
769.957
633.207
523.456
457.898
446.472
486.284
503.686
534.613
553.035
570.132
15286.4
8049.87
7094.86
4873.59
3656.51
2719.56
2010.11
1510.17
1140.39
880.653
604.763
435.74
374.159
387.951
455.82
521.481
532.843
551.708
562.125
568.298
14619.3
8724.92
6616.32
4490.58
3415.96
2682.04
2100.85
1559.69
1097.69
839.122
680.011
564.61
508.755
501.846
533.504
591.359
600.631
606.2
605.143
596.171
11092.8
9598
7120.88
4708.5
3786.93
2736.12
2156.72
1473.11
1034.33
840.914
725.134
664.623
636.77
625.948
696.166
696.863
696.005
684.639
669.434
637.175
17809.7
8827.35
6203.94
4243.35
3429.18
2268.27
1785.78
1332.56
1120.75
996.245
923.667
889.978
864.767
850.088
833.935
811.675
791.63
755.674
725.925
671.998
40000.9
9290.39
5137.44
3469.35
2905.07
2006.76
1765.97
1405.16
1263.45
1171.63
1114.83
1077.67
1041.32
1006.83
970.92
926.485
884.053
827.78
779.632
701.677
17788.4
9102.7
5529.25
3439.43
2974.97
2194.32
1901.18
1580.37
1455.97
1347.25
1288.85
1236.99
1189.8
1134.98
1077.85
1013.51
955.795
887.366
829.16
731.29
12573.9
6044.89
4109.44
3215.91
3036.72
2369.47
2160.4
1800.22
1644.38
1498.92
1417.39
1353.09
1296.45
1224.03
1155.87
1074.19
1005.06
926.98
867.271
761.625
12441.7
6828.92
5582.16
4018.31
3547.36
3006.98
2604.27
2197.5
1854.89
1616.3
1454.72
1372.81
1310.76
1238.83
1162.96
1067.11
989.244
905.305
850.284
757.001
8596.33
9921.49
5981.07
4132.97
3370.16
2797.16
2331.17
1874.61
1459.34
1216.78
1037.8
971.467
939.946
927.943
903.071
841.918
786.338
720.441
685.126
626.859
7358.96
5959.35
3303.36
2364.17
1975.22
1545.03
1200.8
953.72
788.683
630.486
499.791
389.408
317.083
266.719
235.248
206.275
186.867
166.504
155.906
140.956
8913.22
4640.72
3567.83
2342.22
1542.28
1054.62
767.47
574.671
436.438
324.604
249.405
203.933
181.687
170.991
167.623
166.911
168.107
169.742
174.175
170.928
13735.2
8448.46
5548.05
3409.4
2328.05
1603.44
1485.39
1000.12
1023.97
783.258
795.722
709.729
732.339
703.553
727.05
728.761
752.573
760.123
768.036
786.302
30767
15044.2
9990.84
4570.98
3366.75
1833.45
1664.29
1098.61
1088.1
861.087
872.904
778.727
793.612
755.6
771.165
761.244
773.771
774.361
778.491
790.124
23947.6
16665.2
10620.8
5185.02
3437.44
1966.95
1619.37
1142.81
1104.89
888.217
888.218
786.404
790.34
746.163
751.367
737.103
743.309
742.672
745.396
756.719
9571.3
12615.6
9942.92
4815.59
3727.44
2061.64
1873.4
1296.89
1269.62
1009.56
993.727
856.699
847.85
781.363
776.704
749.444
749.55
742.787
741.55
748.033
13111.3
10786.8
7608.12
5027.27
3535.72
2301.64
2074.29
1468.63
1378.08
1080.51
1043.82
898.484
871.721
800.122
782.251
754.201
750.585
744.864
740.99
745.314
18024.1
12555.7
11081.7
6133.53
4874.5
2685.57
2422.45
1711.39
1562.19
1204.98
1134.25
953.915
905.399
820.499
794.109
771.526
772.583
772.431
772.749
774.71
37062.2
15272.5
9329.11
5039.71
4049.75
2705.6
2241.16
1846.11
1543.86
1313.66
1123.82
947.713
846.396
766.288
748.939
752.349
758.964
774.957
781.213
790.529
19497.6
17941.2
12230.7
5272.48
3730.05
2594.92
2298.5
1680.67
1405.81
1230.51
1046.49
879.627
777.463
722.475
703.971
711.066
725.377
748.833
766.151
783.198
27589.4
11629.4
9897
5233.35
3756.75
2357.39
1946.76
1513.8
1248.83
1027.58
840.708
699.769
679.118
683.952
678.76
687.024
700.141
723.756
738.533
755.84
10297.1
10242.5
9182.29
5434.07
4368.49
2852.5
2090.1
1585.94
1242.12
963.625
745.565
578.03
586.979
659.79
688.421
706.838
715.648
727.397
733.056
741.671
20187.9
9686.03
8248.65
5027.61
4123.81
2809.93
2221.85
1603.23
1205.49
961.391
795.76
703.527
718.402
735.683
747.191
768.911
775.578
769.7
763.808
754.423
17325.5
10532.9
8855.05
5269.39
4703.31
2884.67
2289.42
1545.79
1211.28
1009.67
917.567
858.629
845.555
836.465
886.783
877.506
865.108
840.816
817.566
786.968
23993
10710.6
7808.53
4859.01
4278.24
2502.47
2282.76
1551.47
1409.87
1177.99
1149.49
1076.97
1070.86
1038.56
1018.79
983.933
956.082
904.404
866.061
814.047
26904
9849.97
6047.07
4593.41
3489.1
2509.8
2172.05
1609.32
1533.06
1337.79
1320.7
1244.82
1227.41
1176.49
1142.53
1085.56
1036.25
962.461
904.274
832.958
41080.6
11476.4
6917.86
4331.1
3874.14
2564.74
2377.03
1753.02
1738.7
1497.04
1495.44
1388.51
1372.76
1296.22
1250.46
1169.83
1108.36
1015.09
942.745
851.724
19485.1
8090.81
5047.61
4390.6
3667.27
2749
2580.76
1924.22
1900.78
1617.65
1617.36
1496.53
1473.78
1377.07
1321.19
1225.77
1157.23
1056.09
980.243
876.254
27739.9
11009.6
7179
4520.38
4554.34
3123.27
3075.17
2214.37
2097.05
1709.26
1683.37
1549.21
1522
1407.99
1335.54
1219.91
1143.84
1041.63
975.078
881.061
44496.7
14763
7859.15
4220.35
4275.62
2861.49
2711.13
1792.49
1630.05
1280.73
1266.92
1190.29
1196.3
1136.44
1084.45
983.962
924.585
847.803
814.481
763.771
29278.6
10730.2
3182.45
2198.86
1733.93
1279.78
957.231
708.154
551.829
428.541
349.902
295.21
261.514
230.226
203.524
177.095
158.891
141.802
135.04
128.557
676.461
774.382
515.254
845.662
777.689
850.001
590.874
600.774
458.867
365.395
749.626
653.591
524.74
437.461
512.89
723.087
608.913
856.922
576.796
824.296
698.603
334.839
574.63
481.905
513.84
406.175
658.341
549.907
203.804
249.574
127.494
982.487
909.551
785.96
701.57
140.504
109.76
78.097
878.954
710.306
644.911
514.066
47.2087
76.4983
88.4283
635.564
395.236
486.431
419.36
57.6334
88.1924
75.7043
365.414
400.556
398.483
390.066
108.308
77.15
104.128
441.369
497.555
408.086
430.93
99.4031
106.533
102.353
495.32
452.378
427.209
399.234
83.461
99.283
82.3227
426.785
350.398
384.614
318.136
49.3497
76.5283
45.6428
316.969
250.045
292.673
229.634
111.937
196.785
153.011
756.715
677.257
913.64
909.162
88.6819
155.149
174.657
632.052
541.183
882.722
813.327
114.995
185.494
177.719
530.639
476.319
793.945
648.731
74.5492
144.681
67.1435
439.104
388.728
545.536
363.184
95.2159
64.4314
69.8734
394.061
408.424
346.224
317.653
98.7131
73.8635
79.6477
404.943
380.614
311.927
298.887
81.5472
79.4081
70.9509
366.956
308.312
291.842
257.323
45.1879
68.36
40.6843
284.752
225.088
242.531
191.747
203.536
304.69
229.44
1105.85
1047.26
1193.75
1123.85
201.421
228.949
220.181
1009.31
901.203
1080.49
933.222
186.271
214.119
147.114
869.181
675.381
878.111
572.559
63.4054
95.2035
61.1592
554.247
346.771
442.625
338.507
64.8869
62.1311
66.1506
331.304
298.23
332.345
308.938
71.5214
66.0831
62.5757
288.935
270.021
299.156
267.274
65.8188
60.8874
56.4024
263.144
234.707
257.222
229.653
39.306
55.3218
40.3558
223.001
182.288
221.639
213.08
203.873
282.582
141.281
1090.49
1057.16
1024.11
959.903
199.822
138.312
126.447
1022.45
873.956
924.858
734.439
112.073
116.335
67.6104
814.168
503.52
657.955
441.411
62.0309
58.0107
59.6402
410.651
341.177
395.412
338.33
70.0379
64.1123
71.7652
336.177
317.958
336.348
325.851
65.8885
73.0613
70.5158
310.134
280.845
322.862
300.521
56.8395
68.3596
61.7537
270.859
242.837
294.298
274.311
40.4608
59.9989
47.1328
235.38
227.032
270.42
265.223
1090.45
1033.58
849.302
1648.28
1418.36
1396.9
1154.67
836.276
782.906
626.705
1338.88
1077.32
1074.92
873.518
494.96
590.038
493.521
994.552
785.785
819.488
683.853
498.061
469.868
466.188
764.914
768.903
660.931
650.99
573.713
482.003
488.076
771.993
736.332
649.5
606.239
508.581
478.847
441.197
704.589
601.732
585.545
517.517
389.183
423.194
349.171
562.799
459.806
491.346
406.616
281.564
322.261
255.543
427.485
367.242
381.004
327.381
821.762
1160.33
1067.43
1362.57
1130.11
1577.87
1367.41
651.144
1026.84
921.656
1059.22
889.629
1296.15
1108.36
541.61
888.76
702.716
843.507
701.769
1043.62
798.649
462.348
603.689
433.081
669.431
633.147
735.669
531.978
462.942
406.753
355.539
624.371
575.097
482.509
387.328
420.341
345.274
324.767
555.653
492.804
372.955
353.373
337.614
316.32
278.494
468.757
390.809
345.696
308.015
250.195
262.416
209.871
366.639
318.183
293.559
264.267
1205.07
1458.49
1284.59
1760.92
1481.31
1860.38
1558.47
1008.25
1224.24
1035.36
1397.57
1174.27
1464.76
1186.59
727.098
966.339
633.32
1097
810.613
1084.5
750.921
417.915
516.81
408.914
740.465
526.342
679.74
569.674
334.681
395.805
355.16
472.532
360.16
539.159
456.023
291.748
341.347
301.775
335.557
299.221
432.405
374.889
252.522
290.132
259.494
293.816
273.77
360.964
332.117
201.332
251.446
243.201
266.238
258.191
328.014
334.029
1227.66
1369.6
1174.19
1805
1533.19
1872.19
1582.56
983.376
1118.88
861.98
1444.75
1156.62
1465.69
1052.5
580.629
768.026
526.379
1048.05
728.549
937.378
694.183
408.524
475.897
403.088
667.076
563.77
650.271
552.963
364.508
395.249
372.808
537.657
468.964
533.187
484.735
317.894
367.955
341.326
449.833
400.672
475.678
440.688
277.237
334.475
313.481
388.171
360.395
433.234
412.079
259.146
310.004
300.14
355.906
353.607
409.643
403.084
1489.86
1494.75
1227.62
1944.86
1638.57
1713.09
1396.13
1131.22
1144.59
933.505
1525.56
1260.36
1304.33
1077.08
861.544
876.446
739.324
1185.79
1048.23
1017.6
886.521
833.49
717.15
699.151
1032.71
963.067
863.345
808.651
765.286
691.83
633.112
930.164
817.723
783.375
687.532
617.975
608.975
532.497
775.554
655.358
655.648
564.843
477.033
504.731
420.454
618.49
530.706
537.042
466.67
389.498
396.539
346.228
508.803
465.072
450.162
417.688
1203.37
1676.9
1425
1670.79
1368.47
1846.29
1524.91
945.678
1346.85
1138.89
1284.93
1075.59
1433.74
1189.04
747.933
1067.18
823.236
1016.28
873.72
1108.62
897.371
741.455
699.658
732.21
763.582
701.431
744.906
771.305
630.515
644.988
625.077
696.468
602.921
673.873
656.382
507.01
359.299
354.562
622.755
536.719
423.119
389.502
403.325
348.752
314.323
510.756
446.242
380.08
358.574
335.805
302.22
281.26
431.311
405.785
356.859
366.781
1529.64
1944.44
1604.77
1984.47
1603.3
2083.52
1672.33
1196.18
1503.42
1203.58
1500.08
1222.72
1554.6
1216.96
831.971
1095.45
783.497
1131.84
902.444
1109.19
871.199
734.171
692.951
761.403
801.077
699.622
639.878
795.232
485.922
403.74
529.56
350.145
478.398
311.65
542.831
292.054
456.006
394.951
380.774
345.579
520.62
458.064
280.695
381.084
355.423
342.067
343.037
447.146
436.038
277.351
353.077
359.746
348.172
372.5
437.549
449.974
1588.18
1989.76
1658.52
2065.03
1672.36
2209.15
1764.17
1177.96
1522.44
1078.74
1553.13
1197.21
1581.87
1123.8
765.491
963.938
736.379
1087.9
858.722
1028.34
841.966
602.609
694.585
592.058
812.295
692.194
801.58
689.972
496.178
569.484
515.741
656.88
565.938
663.298
601.824
423.434
505.913
469.668
542.493
490.205
591.347
555.594
385.487
462.168
441.962
480.548
466.511
549.519
534.342
379.55
440.005
432.352
466.525
467.987
533.903
528.946
1676.47
1777.76
1441.52
2205.44
1769.78
1961.64
1578.93
1297.39
1347.65
1119.4
1642.81
1412.84
1482.54
1264.17
1097.77
1060.63
931.217
1354.57
1230.34
1209.55
1067.4
989.781
905.831
835.158
1194.14
1059.59
1026.44
903.066
830.493
804.766
700.161
1015.39
885.497
861.436
744.835
669.258
666.952
576.603
844.996
748.299
714.434
656.088
554.236
550.939
490.132
724.536
672.768
646.522
624.414
494.154
476.828
448.169
659.689
630.768
619.176
604.112
1411.88
1881.91
1544.5
1884.12
1543.5
1960.47
1606.6
1113.66
1451.38
1202.56
1456.93
1248.13
1514.8
1273.72
912.466
1122.4
919.689
1189.66
1032.6
1196.31
994.804
802.396
877.141
679.257
989.071
863.138
942.002
784.202
665.585
617.485
494.999
820.546
703.31
728.7
590.129
547.173
467.317
412
672.904
620.267
556.409
511.833
469.343
401.54
389.221
615.927
607.199
517.722
556.756
436.444
390.796
404.128
604.64
596.049
565.959
579.824
1614.96
2110.7
1681.58
2062.53
1655.46
2170.7
1711.39
1229.84
1560.44
1220.25
1553.28
1285.9
1586.46
1265.95
922.87
1117.15
897.059
1202.52
993.098
1179.45
979.973
667.104
850.284
721.618
939.584
775.967
926.923
788.465
467.838
680.667
571.008
720.143
578.075
747.813
644.89
379.731
541.899
483.098
543.729
502.593
621.801
600.714
380.04
474.713
470.953
510.807
559.249
608.442
632.444
410.865
474.225
484.21
570.7
587.347
637.476
641.342
1684.09
2260.17
1774.64
2183.07
1713.38
2374.05
1767.88
1201.07
1583.14
1139.52
1580.28
1246.21
1575.29
1211.31
885.542
1050.86
873.096
1162.71
974.54
1141.39
979.949
716.144
832.788
720.164
923.294
792.964
937.976
833.959
587.827
693.149
631.96
757.458
672.483
809.915
756.563
516.109
621.91
588.141
655.052
639.839
747.018
725.658
500.91
582.879
570.549
644.662
656.525
723.411
718.795
501.679
570.572
564.313
658.93
655.599
718.669
711.499
1809.23
2040.17
1636.75
2850.88
2124.54
2495.61
2048.88
1459.86
1539.99
1326.22
1987.53
1802.88
1932.14
1711.81
1274.94
1272.17
1117.89
1759.1
1571.98
1650.69
1433.17
1089.98
1069.56
929.851
1505.39
1377.18
1362.4
1186.16
918.021
886.389
772.461
1332.16
1195.08
1139.39
1037.95
796.097
746.365
711.222
1160.77
1119.69
1029.64
1074.34
734.099
709.13
699.311
1108.8
1073.68
1085.22
1086.29
692.756
695.665
677.142
1064.06
1026.61
1083.95
1049.51
1600.45
1997
1643.78
2306
2007.48
2303.61
2010.95
1308.02
1553.48
1316.94
1906.52
1691.24
1910.97
1663.87
1078.64
1238.82
1025.99
1617
1381.17
1566.99
1294.12
885.318
967.654
806.732
1307.33
1122.25
1212.46
1019.82
725.688
752.501
616.702
1072.99
970.235
965.143
839.2
673.722
586.64
569.008
964.477
1033.72
832.387
932.885
685.099
589.636
645.995
1061.76
1078.48
990.069
1057.78
670.295
654.617
657.276
1077.79
1041.22
1061.38
1027.25
1686.29
2201.73
1737.08
2395.63
2040.85
2522.73
2066.39
1325.31
1612.31
1303.5
1931.48
1663.75
1928.41
1633.7
1022.72
1220.86
1016.64
1563.69
1286.8
1547.1
1300.5
799.715
959.513
817.63
1205.46
1016.57
1230.08
1078.31
608.242
778.202
681.973
963.025
838.014
1041.52
962.038
563.773
663.718
666.143
831.296
933.689
961.805
1047.82
649.729
683.272
713.266
991.559
1061.36
1080.7
1105.16
664.341
717.368
711.722
1065.78
1034.16
1105.59
1067.8
1737.07
2416.47
1776.22
2556.98
2049.54
2775.61
1995.16
1283.63
1589.24
1253.86
1903.73
1610.44
1823.13
1564.81
1015.8
1188.39
1031.65
1537.96
1314.95
1515.31
1346.39
829.939
988.141
889.765
1250.09
1118.42
1298.12
1224.28
717.069
866.896
817.615
1087.53
1023.68
1211.55
1154.92
708.01
807.53
791.696
1024.19
1094.13
1143.85
1139.15
734.096
789.814
786.944
1109.48
1118.62
1140.31
1130.5
724.956
785.928
773.664
1117.68
1084.95
1127.54
1093.58
712.049
687.812
648.181
714.938
674.001
730.554
683.052
735.424
754.406
696.095
799.339
703.051
787.918
673.915
663.327
589.946
595.388
414.535
643.26
603.347
514.649
779.333
806.109
823.562
842.16
786.235
807.924
813.391
749.01
748.764
802.297
746.891
768.739
717.035
781.664
771.258
820.811
845.609
786.001
817.025
695.285
806.4
702.873
427.661
693.464
687.147
643.593
529.234
749.436
604.896
623.721
560.127
621.976
581.352
648.451
580.301
539.588
551.769
407.666
359.232
524.267
565.217
312.569
515.589
489.359
376.568
328.751
503.275
502.908
310.851
656.251
725.399
718.541
712.229
698.354
686.273
678.22
626.241
639.335
686.028
613.463
669.067
597.918
645.038
572.89
373.673
647.584
481.068
602.519
337.139
610.515
542.245
350.105
549.385
456.391
523.389
333.159
576.742
667.794
593.052
583.624
413.213
639.539
501.278
604.3
734.165
742.203
681.393
761.546
695.458
778.835
720.352
687.766
608.401
644.375
642.973
651.43
641.41
681.234
769.47
825.733
776.172
852.652
670.343
827.096
801.147
700.878
421.66
663.724
672.051
514.667
632.841
737.584
767.144
795.185
838.975
781.844
811.567
753.598
794.088
719.613
672.729
698.432
740.039
671.66
712.919
746.655
434.702
357.181
389.119
279.141
431.224
272.923
386.683
551.977
566.378
541.677
605.892
525.824
596.008
570.187
510.302
451.263
510.686
505.79
487.307
471.567
536.699
509.387
361.277
468.216
610.079
325.166
568.089
552.704
456.261
305.906
425.948
455.327
291.897
409.834
499.289
577.995
633.693
650.469
619.544
624.304
596.07
603.269
534.25
528.354
518.79
583.199
494.386
560.797
558.719
416.646
483.889
399.636
867.498
965.059
836.496
892.086
379.369
362.663
337.418
960.561
917.503
893.564
871.112
292.954
294.885
226.126
888.398
787.037
766.057
553.524
225.601
164.405
143.867
695.141
615.574
405.32
385.711
181.41
145.427
152.86
565.625
521.607
402.087
446.794
133.57
153.72
148.111
471.453
403.776
472.569
457.222
107.109
135.67
124.917
357.979
327.073
395.529
350.671
77.1284
112.119
79.0957
267.647
259.153
275.159
253.014
509.932
511.054
390.792
920.23
849.608
860.85
750.443
444.673
319.878
357.446
490.947
465.633
473.572
279.54
354.856
166.613
155.202
414.724
402.376
370.926
142.712
184.577
86.0147
98.1148
280.908
220.901
232.557
77.9179
179.472
45.9583
62.5097
159.965
163.981
171.304
65.0119
270.584
93.6036
86.982
244.969
277.276
240.818
102.051
294.266
107.43
117.467
298.317
292.653
298.174
115.128
252.046
92.605
99.3295
248.896
235.031
265.197
94.9589
180.504
70.8432
77.0875
187.257
169.659
197.593
69.098
69.7957
86.9702
66.2501
196.09
204.061
193.937
200.945
303.021
381.631
311.471
760.702
682.851
787.364
759.239
306.963
151.198
182.013
304.314
305.404
299.405
142.884
318.162
90.8522
107.693
286.333
269.62
318.982
106.447
370.865
105.381
131.944
276.469
291.854
357.816
143.452
255.519
93.2596
129.632
276.972
239.264
317.967
99.2425
208.876
77.5578
72.0888
210.478
223.716
203.416
73.0829
237.581
100.46
90.5197
254.965
255.248
235.682
92.9139
220.332
91.4786
91.3581
241.428
231.113
229.568
87.7703
172.438
68.7539
75.5523
189.567
175.442
184.674
68.3345
65.6109
77.9256
58.1642
183.439
192.257
166.889
173.928
426.292
527.476
465.497
995.929
1023.63
1055.05
1091.89
535.161
217.866
289.234
447.966
488.492
486.247
241.632
605.331
199.965
221.755
563.142
560.42
607.447
221.007
561.991
204.92
219.531
545.802
537.598
579.402
215.936
212.805
100.86
131.212
349.739
245.475
312.254
88.5636
165.34
61.1796
59.9873
166.716
167.904
162.865
60.354
168.41
68.7607
64.2585
176.08
177.979
169.496
64.538
158.688
70.9199
64.632
177.208
173.202
162.014
64.3117
136.308
59.4202
60.147
152.44
143.958
143.947
56.6808
54.6218
79.8814
67.6831
162.077
175.23
182.696
211.732
399.556
467.564
395.433
944.507
941.01
924.664
904.76
427.138
221.596
257.363
431.863
476.335
408.542
206.477
487.086
205.152
176.599
560.159
558.849
488.94
174.757
382.943
179.944
157.441
506.306
469.077
426.742
146.5
166.546
63.6475
69.2517
182.535
164.563
174.752
61.8192
190.21
66.8589
66.2406
179.492
183.535
183.946
69.4556
193.067
69.979
74.4716
186.516
183.909
194.822
74.3545
167.91
60.6044
68.2525
165.243
157.917
175.435
64.7333
143.268
52.3651
56.7154
141.31
134.698
148.614
54.0562
77.8412
100.056
79.4149
214.111
236.039
229.113
244.533
345.93
482.289
350.871
803.922
809.08
860.281
855.07
235.837
283.561
209.444
764.398
613.165
776.356
564.6
129.035
151.167
100.873
421.238
330.984
399.535
314.643
102.936
94.6406
96.842
283.408
283.07
292.428
282.072
107.781
96.0089
93.3339
285.017
284.62
278.026
271.679
103.569
90.9291
87.7613
274.236
265.165
256.362
245.495
95.4361