/*--------------------------------*- C++ -*----------------------------------*\
  =========                 |
  \\      /  F ield         | OpenFOAM: The Open Source CFD Toolbox
   \\    /   O peration     | Website:  https://openfoam.org
    \\  /    A nd           | Version:  10
     \\/     M anipulation  |
\*---------------------------------------------------------------------------*/
FoamFile
{
    format      ascii;
    class       volScalarField;
    location    "5.5";
    object      omega;
}
// * * * * * * * * * * * * * * * * * * * * * * * * * * * * * * * * * * * * * //

dimensions      [0 0 -1 0 0 0 0];

internalField   nonuniform List<scalar> 
12920
(
85.9889
87.8721
75.0755
75.7652
75.5261
74.4585
68.5166
62.1134
56.7576
54.114
51.3561
49.7605
48.3028
47.1526
45.1702
42.262
38.6499
35.3441
33.5997
31.3686
95.1439
126.308
111.696
87.8977
82.9182
76.5384
70.2016
65.3555
60.4564
59.4976
57.7875
57.3644
56.1165
54.6677
51.3899
47.9744
44.7654
42.9663
42.0629
42.0281
117.402
195.886
192.171
161.083
128.202
103.385
82.7389
69.8308
61.4504
57.7082
53.7021
51.7601
49.2131
47.5787
45.7266
44.5333
43.6639
43.2921
43.2683
43.3354
65.9167
172.292
205.507
176.688
141.39
112.415
86.5384
68.8126
60.4395
55.2506
51.915
49.1772
47.0725
45.6925
44.7867
44.3899
44.1732
43.9617
43.8821
43.6767
213.127
214.578
189.054
144.006
116.877
98.1631
84.0313
73.1489
66.3955
60.9598
57.0448
54.312
51.7846
50.1037
48.6267
47.6047
46.5679
45.5263
44.9018
44.2746
401.226
212.699
179.321
139.581
120.952
97.7533
92.2312
80.3212
75.6279
67.0595
61.6046
57.031
53.8258
51.5038
49.6251
47.9368
46.2333
45.0285
44.4898
44.1952
178.972
173.015
183.233
175.96
149.905
121.772
111.127
101.702
96.3559
86.5754
76.6843
67.9653
61.3556
56.4519
52.1919
48.661
46.0905
44.8401
44.4252
44.4628
228.425
267.248
194.471
163.479
138.227
126.635
199.403
175.074
168.065
141.483
127.323
111.885
96.7656
88.586
51.4662
48.164
46.4477
45.5357
44.6151
44.2115
143.898
239.684
209.319
175.248
138.528
211
364.314
239.057
193.23
118.792
155.516
185.463
173.324
154.836
82.6846
48.7874
45.6092
43.6951
42.8404
42.9948
65.6846
154.776
172.862
160.688
126.43
175.35
248.537
177.284
172.406
186.562
153.638
177.988
173.993
155.723
81.4198
46.5153
43.8301
42.5505
42.526
42.9432
110.307
166.147
173.991
156.214
136.894
197.828
290.237
252.807
255.205
212.207
139.233
145.741
150.764
142.145
76.8268
49.3909
47.6767
46.3655
46.1916
45.8199
104.586
184.177
176.101
152.052
131.459
193.173
290.387
255.012
245.576
155.194
143.701
149.42
141.641
132.305
85.2484
53.0515
50.5511
49.4819
49.3824
48.8276
345.632
290.159
186.064
146.534
132.438
124.352
188.958
151.646
117.092
91.2284
91.1697
91.6493
88.4776
85.385
53.08
51.7713
51.631
51.8645
52.0864
51.5808
341.016
218.073
154.6
144.328
134.539
117.086
98.3291
80.5979
68.3905
63.6148
60.1553
57.9057
55.6301
54.6911
54.1895
54.2209
54.4091
54.6145
54.7296
53.8546
241.55
173.274
141.169
133.992
122.144
101.241
87.8045
79.2479
72.1669
71.4864
69.8545
68.7496
65.8054
63.266
61.126
59.6546
58.61
57.7957
57.3895
55.5634
150.484
186.341
153.402
118.48
108.896
102.16
91.3039
88.6042
84.3731
83.8347
81.508
79.5639
75.7615
71.4094
67.0605
63.5706
60.9002
59.1412
58.3603
56.0451
220.812
143.734
118.551
105.707
106.681
103.673
97.431
95.0452
91.3171
90.2706
87.3198
84.9852
80.38
74.6997
69.6375
65.7038
62.7622
60.2148
59.1719
56.7193
162.914
117.148
135.552
139.599
125.481
116.357
109.835
104.288
97.559
94.3851
88.4987
82.3711
74.996
69.3331
66.2203
63.7417
62.0771
59.697
58.6538
56.4901
35.8123
76.755
120.624
127.832
120.526
116.045
109.565
106.402
98.4451
89.5981
77.1535
65.9016
58.4496
54.0891
52.3663
51.6105
51.1353
49.6343
48.1068
46.8072
143.216
145.142
136.926
133.613
124.035
106.296
94.3891
90.0801
85.3991
79.9966
74.0187
66.9267
58.7454
51.8198
46.8739
43.5468
40.5223
37.4498
34.3004
30.3969
24.5648
41.3898
42.5967
51.1967
51.068
48.4885
43.5783
39.1366
35.4305
33.1479
31.3553
30.3594
29.4803
28.3952
26.4407
23.8416
21.6225
20.4314
20.1715
20.1935
132.274
107.468
72.492
58.0839
54.4762
50.4016
43.3532
36.5702
31.2009
29.7373
28.2601
27.9815
27.2577
26.641
25.7189
25.117
24.9519
25.1431
25.2735
24.7918
182.682
141.346
110.533
80.7724
64.0819
55.7386
46.1156
36.008
29.9928
27.1734
25.298
24.4598
23.744
23.5527
23.5753
23.7572
23.7907
23.5339
22.9667
22.2629
183.246
167.174
138.697
97.9105
71.7193
58.6673
47.9759
35.8932
30.3285
26.7503
25.2872
23.9649
23.2081
22.5655
22.2452
21.9447
21.7477
21.4858
21.3913
21.4422
159.113
131.262
98.378
78.3756
62.1896
52.5944
43.6729
36.3508
33.6419
31.2458
30.0665
28.2151
26.7342
25.2529
24.3211
23.5361
23.0069
22.4718
22.1365
22.0195
197.874
115.999
87.5512
69.8232
56.7976
46.5459
43.1813
38.8772
38.275
36.5162
35.4864
32.8699
30.6847
27.8414
25.9795
24.3904
23.4777
22.667
22.2326
22.2251
309.222
147.134
113.842
88.3777
69.5427
55.7429
52.4446
50.5151
51.577
51.9728
51.056
46.1413
38.2291
32.4271
28.7009
25.953
24.1773
23.1226
22.6892
22.7196
251.297
184.488
106.068
80.6192
64.9429
58.2081
65.105
65.9861
65.3508
65.7968
62.7766
60.7637
47.4919
34.4464
24.6744
22.8231
22.1344
22.0933
22.1944
22.5499
105.343
177.382
135.399
94.6735
73.0408
71.5707
71.8088
64.5548
61.719
50.3411
39.7199
41.4786
40.9263
32.9692
25.4158
21.7018
21.7744
21.8729
21.8785
21.9603
189.661
221.428
148.037
88.9994
67.754
65.1499
64.105
52.2473
42.1558
38.62
37.2051
30.6313
30.8108
28.6224
24.2681
22.4161
22.2719
21.9076
21.6243
21.6531
378.59
247.128
138.952
85.6689
67.6022
66.6062
63.5619
56.4884
50.5946
51.8958
42.5228
31.6341
30.2392
28.7473
26.0779
23.5536
23.2024
22.5382
22.3504
22.4086
168.426
166.398
118.751
85.3819
70.9884
70.4805
66.9999
59.6376
56.3365
59.7918
34.3446
27.6312
26.6876
25.8793
25.0042
24.3089
24.0927
23.7769
23.7772
23.889
429.253
170.667
122.209
93.9534
76.0071
66.6766
68.4561
66.1605
59.4794
42.3617
29.6106
26.5021
26.0293
26.1388
25.3545
25.3007
25.0225
25.0405
25.2198
25.3438
198.121
131.396
105.009
86.399
70.075
60.8954
54.8311
49.6129
40.481
34.6719
31.2958
30.357
29.6894
29.1371
28.6301
27.8005
27.0711
26.8536
26.8935
26.7439
245.797
132.143
91.6011
71.4023
58.2306
50.8763
46.0067
41.5268
37.2548
35.4388
34.2563
33.8251
33.3394
33.0598
32.5691
31.6156
30.5775
29.6172
29.2854
28.4259
172.562
153.676
92.7468
67.0524
57.7536
50.8744
44.854
41.8521
39.2494
38.6504
37.7126
37.0959
36.2907
35.398
34.5584
33.5312
32.6114
31.5
31.0532
30.1245
188.152
105.069
75.0826
64.7459
58.5897
55.1975
49.2928
46.3029
43.9466
43.1491
42.1357
41.0805
40.1214
38.9483
37.5736
35.7772
34.1373
32.6261
32.0436
31.2556
234.213
148.421
117.114
97.0298
82.7919
78.0871
70.9339
63.0641
55.3737
50.2845
46.4504
43.4736
41.2114
39.414
37.9963
35.8563
33.7173
31.9546
31.1925
30.6045
152.603
104.98
108.156
97.5294
77.6426
66.6911
59.4624
54.9076
49.4498
44.953
40.3698
36.2771
32.9992
30.8234
29.7789
29.6025
29.4663
28.8511
28.3156
26.8567
91.6474
87.9938
73.7156
71.9832
70.9763
65.708
57.0031
52.416
48.4228
45.2786
41.3953
36.6989
32.4512
28.9877
26.3939
24.4063
22.9592
21.4612
20.39
19.3711
73.5547
78.3812
72.8847
71.0143
63.2821
55.7606
49.5783
44.1603
39.6089
36.3308
33.8806
31.9605
30.2723
28.1665
25.7556
23.5686
22.3234
22.0636
22.3267
22.6802
227.06
122.951
77.9575
52.6308
47.2018
41.2457
36.7502
32.5063
29.3742
28.6415
27.4771
27.2135
26.3476
25.6447
24.5988
23.9591
23.7045
23.6429
23.5526
23.3835
210.886
160.415
106.611
70.1594
53.7052
42.1856
34.7942
29.09
25.9195
24.24
23.0745
22.5202
22.0293
21.9078
21.8281
21.8458
21.7655
21.606
21.3827
21.2653
113.726
169.725
139.877
91.0276
60.7647
43.8615
34.8328
28.2144
25.6194
23.4158
22.5093
21.536
21.0672
20.6825
20.4802
20.356
20.2726
20.2737
20.3065
20.4755
239.144
159.66
95.8296
66.6094
50.884
40.5008
34.7468
30.0111
28.5876
26.5
25.391
23.99
22.9961
22.1721
21.6002
21.2025
20.918
20.7416
20.6752
20.7407
190.364
124.377
82.1534
60.1184
48.9385
38.5284
37.2639
33.1519
32.7162
30.3342
28.8425
26.5406
24.9682
23.3749
22.3601
21.6165
21.1718
20.9115
20.8523
20.9454
220.314
137.768
110.017
77.9711
59.0818
46.7201
44.1613
41.0861
41.331
40.2461
37.3634
32.8441
28.6383
25.6773
23.6948
22.4816
21.7913
21.5711
21.5824
21.7361
196.289
149.514
91.6298
66.2779
53.5648
48.1109
48.7227
50.1012
49.2012
49.8299
47.7472
40.7602
31.4421
25.8501
22.7841
21.8736
21.6741
21.7632
21.8836
22.0537
92.1458
147.2
107.607
71.0778
53.8497
52.1945
50.9254
48.6536
45.2816
40.1507
37.4361
34.9383
29.4842
24.8775
22.4044
22.7866
22.4789
22.2383
22.0062
21.9183
181.995
192.203
120.709
74.7193
56.5931
49.3765
46.7603
40.977
36.0072
33.3453
31.1428
27.6629
25.6471
23.5929
22.9887
24.0367
22.909
22.0739
21.5674
21.43
199.129
169.594
111.495
75.5959
60.9568
54.9334
49.3936
44.5263
41.0453
39.7202
65.4728
54.0737
37.9415
29.4788
25.6988
23.7461
22.5708
21.8193
21.4871
21.4318
262.07
135.786
95.1013
72.9557
59.6344
55.4964
51.478
47.0247
44.7525
41.6887
27.8139
24.9403
24.3772
23.6585
23.2848
23.4166
22.7919
22.3934
22.2631
22.1667
244.008
154.418
101.716
79.3403
63.9674
55.3231
51.5504
49.8218
40.1545
30.3917
25.1272
23.5756
23.1377
23.0057
23.8176
23.5423
23.394
23.2959
23.2849
23.1428
162.343
132.075
94.0751
72.14
58.3895
48.2144
43.3457
37.2208
31.799
28.6297
26.8362
26.3199
25.9113
25.678
25.4458
25.0825
24.8679
24.6702
24.5765
24.1416
260.231
117.958
78.7158
57.0242
49.2969
40.6825
38.3512
34.2323
31.5331
30.4899
29.6359
29.4591
29.0874
28.8584
28.4854
27.8758
27.3501
26.7324
26.37
25.3508
151.092
184.209
115.352
61.1911
49.3886
41.9407
38.0761
35.5043
33.7383
33.3486
32.5992
32.2595
31.5759
31.0164
30.413
29.6996
29.1283
28.4229
28.0023
26.8125
212.969
117.023
73.973
56.8373
51.8971
45.7827
42.1693
39.8799
38.2414
37.7513
36.7075
35.9742
34.8801
33.828
32.7114
31.4188
30.4134
29.5095
29.0691
28.0065
232.341
143.139
103.407
82.0073
68.5405
64.1078
56.5987
51.7949
45.8458
42.897
39.7227
37.7938
36.1013
34.8529
33.4635
31.7939
30.4396
29.2654
28.7722
27.8552
189.088
168.51
120.228
88.4212
67.0849
59.5313
52.3958
48.912
44.0529
41.4801
38.2884
35.9014
33.4326
31.4702
30.151
28.9508
28.1329
27.1206
26.5986
25.4599
80.6972
105.922
94.5229
81.7352
76.7669
70.6859
62.4706
56.6576
52.0889
47.8851
43.0909
37.8495
33.2568
29.6543
27.3098
25.4541
24.1741
22.7445
22.101
21.0594
122.592
104.9
98.2525
82.0713
68.3888
58.4373
51.6569
45.6883
40.7906
36.5826
33.4811
30.4014
27.8378
25.4948
23.9718
23.2028
23.0388
23.1484
23.7825
23.9757
367.872
119.615
77.2885
54.6464
49.2272
41.4136
40.4988
36.3337
35.6862
34.5471
33.8171
32.6794
31.4327
30.4116
29.6988
29.5296
29.5983
29.8646
29.9943
30.4644
365.39
222.031
112.458
66.6328
53.2961
39.8943
36.6676
31.2216
30.3978
28.3746
28.1281
27.2444
27.1924
26.9498
27.0711
27.1471
27.2934
27.4851
27.5846
27.9035
197.688
193.502
124.436
76.1388
55.1795
39.9963
35.6233
29.9384
29.3493
26.9922
26.9069
25.8415
25.8995
25.5823
25.7356
25.7828
25.982
26.268
26.4782
26.8847
156.727
145.915
106.524
63.9103
51.4916
39.2294
36.6307
31.5214
31.1977
28.8368
28.4747
27.1266
26.8993
26.3377
26.2786
26.1709
26.2501
26.4274
26.5688
26.8855
253.98
135.642
84.9235
60.018
50.7263
39.5639
39.8787
34.4402
34.2014
30.9231
30.236
28.2967
27.6714
26.7645
26.4926
26.2788
26.3288
26.5308
26.6858
26.973
168.75
144.03
115.472
74.9929
60.104
46.6468
44.8197
39.4904
39.43
36.103
34.5795
31.5021
29.9666
28.3311
27.6215
27.3046
27.3319
27.5856
27.7964
28.006
326.542
142.084
93.1319
62.4803
55.571
47.6803
47.3026
46.4388
43.9005
42.9415
39.0552
34.4201
30.7183
28.9661
30.2218
28.7981
28.534
28.5733
28.6127
28.6826
173.764
172.201
114.998
66.4789
53.1033
49.4774
48.5927
45.9053
42.1161
40.4658
37.8575
34.1219
30.8186
29.8709
31.7053
31.8994
30.063
29.3778
29.0683
28.9345
332.913
163.655
110.874
71.6264
56.9084
47.5024
44.8984
41.9234
38.9226
35.7748
33.6701
31.1661
30.6826
31.5827
33.9956
32.7856
30.158
29.0158
28.449
28.2957
216.162
125.53
101.387
73.7103
62.5707
54.1776
47.5993
44.4947
41.155
37.2504
53.2515
43.9599
36.8438
35.0432
34.4609
31.7969
29.3606
28.3172
27.853
27.7385
176.446
119.191
93.3107
68.9912
59.1456
53.0519
48.7203
45.3646
40.7636
35.8108
31.209
30.3816
31.2533
31.7341
32.3771
30.986
29.0982
28.2648
27.9283
27.7434
200.776
142.346
104.061
74.4888
63.9758
52.4035
48.9662
42.9223
35.9682
31.9297
30.3468
29.895
29.7994
29.8485
30.9053
29.522
29.03
28.7023
28.5366
28.2345
303.884
134.222
92.1324
65.7284
58.545
45.0792
43.057
35.7785
33.3692
30.6866
30.335
29.8864
30.0523
30.1061
30.0956
29.9987
29.9739
29.752
29.5316
28.946
511.365
147.331
78.223
56.9827
51.3816
40.8442
40.5191
35.5304
34.0106
32.7326
32.445
32.365
32.3834
32.4209
32.397
32.1775
31.9644
31.4208
30.924
29.805
308.361
171.012
92.5408
58.7388
52.114
42.0264
40.7556
36.9169
36.4771
35.4421
35.3277
35.0124
34.8739
34.686
34.4796
34.111
33.8138
33.1297
32.4769
30.943
217.33
104.64
71.2005
57.3868
54.1562
45.3001
44.6181
41.0204
40.7114
39.5358
39.1312
38.4758
37.8784
37.1293
36.5676
35.7978
35.2913
34.4949
33.8662
32.3114
257.965
129.698
96.8756
71.5116
66.5896
58.5559
54.6496
50.0118
46.7741
44.7049
42.7879
41.4354
40.2201
39.0043
37.9131
36.6541
35.8301
34.8142
34.1883
32.8451
248.155
192.926
118.441
79.0245
67.0246
58.4783
54.5548
51.2042
48.1502
46.49
43.7801
41.9651
39.9764
38.3401
36.9934
35.5459
34.679
33.5917
32.9457
32.093
147.452
136.013
101.858
86.6289
79.2493
70.0196
61.703
54.9928
50.0023
44.6833
39.7689
35.1034
31.6864
29.0716
27.3068
25.5704
24.3393
22.9762
22.234
21.1448
164.877
121.848
106.693
86.3456
69.9897
57.8507
49.349
42.6939
37.1962
32.0708
28.1157
25.431
24.0133
23.3003
23.0731
23.0248
23.109
23.22
23.5191
23.2938
241.192
133.118
87.9381
74.6398
62.0695
51.9332
57.4796
45.7191
52.2105
44.2927
47.1523
42.5425
43.9732
41.8287
42.946
42.6824
43.7034
44.1148
44.5914
45.4077
329.186
187.603
128.419
73.279
68.6039
47.79
51.5395
40.6833
44.3847
38.2446
40.8963
37.7014
39.5235
38.1423
39.4061
39.1468
39.9962
40.2066
40.564
41.0454
214.705
190.485
131.848
73.7525
63.5331
47.5654
47.5402
39.2769
41.7369
36.6249
39.0353
36.2807
38.0172
36.8036
37.9134
37.682
38.451
38.7335
39.1575
39.6963
122.575
153.631
120.792
65.4679
64.9863
46.1095
49.5043
39.8376
42.7819
37.4663
39.9692
37.1517
38.853
37.5036
38.4627
38.0728
38.7237
38.8821
39.2645
39.685
170.661
137.251
91.3761
68.5146
60.4852
50.0105
50.8001
41.3904
42.8689
38.1105
39.9144
37.6428
38.8662
37.9166
38.4062
38.2241
38.6652
38.9814
39.3141
39.78
228.111
154.478
128.031
74.017
75.6999
53.0258
56.5441
45.3538
47.2359
41.085
43.0485
39.848
41.1332
39.6474
39.7964
39.4927
39.9417
40.2576
40.6272
40.9575
349.901
176.033
107.7
71.2812
73.2229
56.7951
54.3762
50.3655
49.7068
46.8667
46.185
44.0813
44.7712
44.0873
43.7542
41.4402
41.0196
41.1981
41.3352
41.604
257.176
242.689
155.987
73.5161
72.8644
57.4359
58.9474
55.6898
54.7626
53.9533
52.6435
51.5271
52.1591
52.7097
52.0341
44.5109
42.3428
41.8009
41.7417
41.7579
360.412
162.002
125.758
74.0455
68.1965
54.4761
55.412
58.2469
57.9198
55.7042
54.2712
54.8806
57.421
58.1078
54.4402
45.014
42.2493
41.4442
41.1526
41.0858
163.591
138.22
115.016
76.2823
73.6196
58.8946
56.0696
59.0876
58.2242
53.3982
52.7771
54.2334
59.4536
59.4029
54.2197
44.5459
41.7409
40.8115
40.4853
40.4002
242.442
118.495
102.77
70.6096
69.9074
57.31
57.2745
57.9383
56.0721
54.9193
55.0897
55.8875
57.2628
57.0587
53.0356
43.8217
41.4486
40.4943
40.328
40.1547
206.546
130.872
112.784
74.748
76.6546
57.5757
56.3263
48.5423
47.9431
46.7563
47.6699
47.2696
47.8379
47.8336
44.0448
41.7734
41.0353
40.7073
40.5692
40.3328
254.536
134.652
102.088
69.6076
71.5331
50.84
56.0126
42.5386
44.0297
39.2663
41.0513
39.8883
41.2775
41.224
41.6005
41.6182
41.8197
41.4931
41.3721
40.8151
318.489
139.719
86.7539
71.7766
60.9031
51.4144
51.6695
42.3575
43.691
40.3521
41.6664
40.9569
42.0424
42.2371
43.0075
43.1471
43.3134
42.7868
42.4269
41.4636
569.638
204.723
103.445
68.2423
65.7363
49.0258
52.5019
43.2236
46.3536
42.3182
44.3599
43.0412
44.4715
44.3305
45.1556
45.1008
45.2602
44.4913
43.9679
42.6059
270.565
127.468
79.0375
71.98
62.6049
51.7205
54.7317
46.2888
49.5875
45.3544
47.1723
45.5398
46.6492
46.209
46.9037
46.6804
46.8049
46.0383
45.5156
43.9925
365.059
166.79
106.76
72.155
77.8622
58.7383
64.0567
53.6029
56.5537
51.0951
52.319
49.8257
50.3086
49.0332
49.0786
48.2146
47.9961
46.934
46.4296
45.0885
513.12
214.765
124.645
74.2534
80.6613
61.0154
68.1979
56.851
60.563
54.0782
55.2138
52.2672
52.7606
51.3293
51.1892
49.8988
49.4878
48.2219
47.8638
46.9695
322.25
177.727
99.1425
83.5014
74.1812
63.6819
55.0698
47.3613
41.8142
36.8524
33.3079
30.5998
28.8029
27.0222
25.4046
23.697
22.4469
21.2075
20.6993
20.1991
32.1708
39.0362
66.7935
34.037
32.7561
36.9773
79.9047
28.2971
66.3418
55.8628
32.1767
30.0243
78.761
55.7408
66.3132
42.6239
31.7478
37.0587
82.1571
36.1236
31.1135
57.2818
29.3844
27.0317
79.2876
58.9108
30.2991
29.6872
254.057
280.221
200.484
91.1053
74.8988
85.3568
70.2442
210.755
186.016
157.205
72.1191
69.0041
64.6475
54.1238
122
155.731
167.392
68.7089
61.3381
50.0467
40.9275
136.064
166.99
154.952
55.0163
42.8282
40.1933
39.7377
185.312
156.684
182.081
41.6317
42.2665
38.4062
34.6008
177.374
183.981
180.172
43.5071
46.6123
34.6237
36.4766
162.476
177.402
161.401
46.1803
40.7818
36.6578
34.7394
124.792
155.573
120.088
38.3472
32.4435
33.583
28.8171
188.088
249.944
220.544
77.5248
62.9899
71.0646
61.6877
167.744
222.027
235.962
58.4611
48.4911
59.1951
53.2245
190.824
243.008
236.835
45.5511
41.3301
51.5816
51.0784
153.668
212.258
145.641
41.6497
42.8008
52.3142
51.6835
174.244
143.032
149.297
41.2112
34.2096
46.5077
35.2086
176.971
153.449
159.099
33.8074
34.6512
33.919
32.7977
160.707
158.823
149.964
34.8169
33.5599
32.7209
32.1849
119.469
147.171
113.287
32.7697
28.757
31.8569
29.6726
254.384
310.691
270.032
75.1387
65.9242
76.4202
67.5359
253.01
269.637
264.17
63.4088
57.4516
65.2911
61.1379
242.184
260.456
213.541
55.7861
55.4883
60.7445
64.8147
141.545
171.614
139.388
56.9362
53.0364
65.2136
47.3021
143.742
140.611
144.956
46.24
35.0005
40.7682
32.4118
150.776
144.865
140.896
33.7134
32.4345
31.5448
30.447
144.468
138.969
133.753
32.3022
31.7627
30.2262
29.3431
111.367
132.436
113.188
31.4857
29.5389
29.0314
27.4825
254.542
298.872
211.641
78.0568
68.4972
84.4195
73.0676
251.429
209.726
199.681
66.2702
61.8935
70.3428
66.4471
186.302
191.406
145.627
61.7417
65.7068
66.2043
66.5259
140.512
135.429
137.808
65.5143
43.798
63.9221
38.1855
149.183
142.934
150.996
38.3302
31.6225
34.8063
30.3115
144.516
152.35
149.505
30.8656
29.9041
29.8682
29.1191
134.242
147.247
139.886
29.6977
28.885
29.1088
29.0267
113.457
137.948
122.43
28.6301
27.3189
29.061
28.5424
66.1713
69.5482
61.5875
54.2491
51.7467
51.9693
46.7797
62.0724
57.2816
48.6452
51.0689
48.8402
44.7978
39.6703
54.9515
45.4868
38.1153
48.1126
43.314
37.9876
34.0533
40.5387
37.3966
36.4571
41.5339
38.2316
33.4656
31.8142
40.5488
34.9752
31.5878
37.9146
37.2646
30.8865
28.7279
42.4594
31.5545
32.4176
36.5758
33.0631
28.3689
27.2538
35.0817
32.3761
30.1804
31.2105
26.9053
26.6879
24.5525
28.5862
29.1905
25.9538
25.6924
23.0945
23.8787
22.1232
55.6811
60.5818
55.2243
49.3445
44.2174
49.3005
45.6416
44.4833
53.3264
48.5773
42.5128
38.1791
44.5153
41.5932
38.4091
47.2258
46.8242
36.8485
34.2692
40.7446
40.2044
39.1284
48.0412
47.6847
34.1194
32.9699
40.6676
47.8909
31.0915
42.8309
32.9693
31.5894
28.3238
46.8429
42.2869
30.83
31.8831
30.5132
27.7445
26.5056
40.3623
33.7068
29.3225
30.1687
29.0491
26.0481
24.3633
31.6129
27.6423
25.8801
28.6709
27.2934
23.8072
22.2088
26.8603
25.3148
58.4066
64.655
60.0396
51.4131
47.3977
52.8533
49.0002
51.8857
58.4084
55.2167
46.2317
43.3749
47.9753
45.872
50.532
55.0868
58.7485
42.6077
42.5018
45.7826
46.8956
48.8328
59.1501
42.6649
42.7323
47.8112
46.3118
33.3668
32.6595
36.6484
29.1504
45.9426
42.4507
30.1694
26.6383
30.5204
28.417
27.6193
41.4542
36.9015
26.4525
26.2648
29.1209
27.4696
26.7547
34.7676
29.7003
26.0748
25.007
27.388
26.4878
25.7468
28.5791
26.1356
24.6548
23.5807
61.2889
71.6065
66.3911
53.929
49.9836
56.9072
53.8834
56.3518
64.587
61.9427
49.0324
47.1481
53.1034
50.6066
59.9967
61.8258
61.5166
47.1238
47.6187
49.8864
43.4894
39.3151
57.0746
33.7951
45.9456
31.2791
38.5788
27.6399
28.2915
30.9776
27.0998
28.5117
25.1169
26.1219
23.7924
26.8339
26.7358
26.0401
24.7891
24.3361
23.5883
22.9805
26.0745
26.0443
25.9949
24.2012
23.649
22.9454
22.793
25.4668
26.0419
26.0623
23.4892
23.0678
22.8165
22.708
49.4188
48.7403
44.3998
48.2259
46.6191
45.5398
42.3993
46.1296
42.7354
38.2126
45.4386
42.4692
41.2964
38.0176
41.3357
36.7779
33.484
41.5686
39.6094
37.086
34.8527
37.8634
32.9304
31.3476
39.3212
37.7638
34.3003
32.8024
35.944
30.5835
28.5731
36.9607
34.2213
32.2311
30.2984
31.1153
28.112
26.6445
33.0404
29.8648
29.7232
28.3211
25.8367
26.0473
24.1233
28.9622
27.3341
27.9883
27.3945
22.7555
23.5673
22.2146
26.9679
26.2132
27.3109
27.3947
42.4176
47.3771
44.0664
44.3459
41.3658
45.5361
43.0326
37.1729
43.0511
40.3431
40.4641
37.7567
42.3524
40.0638
33.6318
39.5251
38.757
36.9236
34.6665
39.179
36.692
34.5987
33.1228
34.8312
32.9884
35.1003
32.6851
34.1436
33.8874
30.048
34.8591
31.1021
33.1514
30.1828
35.4745
26.1501
49.7389
36.3047
29.3825
28.1104
48.1987
36.3122
24.0688
33.3062
28.303
27.8751
27.5488
34.3242
31.4909
22.3312
27.4239
25.7277
27.5319
27.7208
31.0635
30.35
45.598
50.7946
47.0902
47.2452
44.1132
48.4093
45.1751
41.8111
46.1155
43.9211
43.3361
40.7936
44.3057
41.3006
40.593
43.6318
43.6287
39.8575
37.4252
40.3761
37.7373
44.8369
55.9105
41.8303
42.9302
43.3013
212.659
39.5506
52.7666
63.0883
41.7603
170.31
41.8571
156.971
51.0344
41.4587
26.9702
26.7769
52.6479
39.437
29.6397
29.4425
30.8862
26.4833
25.2362
36.9868
32.9138
29.307
28.8668
26.5682
24.8585
23.7322
32.1494
30.5855
28.7273
28.1324
47.9112
53.9626
51.5507
48.5122
45.5442
50.7592
47.6013
45.0061
50.6283
47.1157
44.6729
41.4434
45.7744
40.0129
43.9297
46.0717
39.181
40.4555
37.1835
38.6052
33.8727
29.9622
35.3497
26.9705
35.3031
30.1032
32.2178
28.6637
25.1868
25.7519
23.8208
29.1867
28.04
28.1146
27.2694
24.528
23.6538
23.0616
27.9326
27.8823
27.1669
26.7419
23.8139
23.0148
22.843
27.9238
27.9138
26.7044
26.6542
23.2206
22.8649
22.7152
27.8767
27.6565
26.6583
26.5119
47.2403
45.9651
43.4659
54.6233
53.7908
52.5407
53.3136
42.9271
42.5561
39.7271
52.3413
50.4094
53.1691
52.1801
40.6828
38.9569
36.8844
50.5353
50.3687
51.9879
50.41
38.71
36.2669
34.621
49.7657
47.8501
49.6105
47.8882
35.2567
34.0634
32.2126
47.6309
46.5966
47.6106
47.1112
31.4269
31.7186
30.8596
45.7484
45.3273
47.2083
48.6502
30.0392
30.8021
31.0939
45.6522
46.3274
49.1701
49.9142
29.3895
31.2564
31.392
46.1953
45.8443
50.0026
49.8309
42.62
46.0244
44.1494
51.295
52.9445
51.5482
53.6335
39.6396
43.6471
41.6217
53.0485
52.5199
53.928
53.4164
36.5299
40.7138
37.4839
52.254
49.621
52.6457
48.0336
34.2192
37.1119
52.8423
48.5316
46.5132
46.4555
46.1667
31.7137
52.5051
44.8226
46.1922
45.7687
46.1679
45.3648
30.6041
41.8953
36.0397
46.102
48.5781
45.4515
49.3315
31.3604
35.1836
34.4403
49.3806
50.4476
50.6075
52.1351
31.7614
34.3782
33.7409
50.5518
50.2444
52.0636
50.891
45.1035
48.6871
46.0078
52.7494
54.1524
53.6498
54.4245
42.1409
45.2144
42.0473
54.3208
53.449
54.1525
52.0402
37.946
41.0145
37.907
52.5991
47.9389
51.3913
48.2603
53.7828
36.3962
32.457
46.3478
46.1209
47.104
45.3395
46.5814
31.8756
31.4034
46.1893
45.6458
45.309
45.8584
37.961
31.3766
31.8776
45.8122
49.8834
46.6387
49.4136
35.3355
32.1077
32.5196
51.0845
52.2921
50.0863
50.5573
33.8363
32.4945
31.7393
52.1478
50.7919
50.4416
49.4633
46.2301
50.7274
47.552
53.7704
54.1645
55.1592
51.9157
41.8422
45.3922
39.4932
53.5909
51.0994
49.4802
45.9758
37.4056
38.2805
34.6044
50.5645
48.4791
46.0981
46.0601
31.8703
33.3637
30.9223
47.6482
46.5577
45.581
45.6413
30.3834
30.5608
30.1508
46.59
47.1136
45.8139
46.2862
30.9415
30.06
29.8205
47.5667
49.1906
46.0023
46.0439
31.7292
29.8197
29.9599
49.5831
49.8484
46.0164
46.2239
31.2518
29.9432
29.5662
49.7641
49.0307
46.0506
45.3845
57.0901
56.7782
58.227
84.0758
71.8707
79.9788
79.8377
54.3544
58.1959
57.647
70.3809
72.4003
78.6875
77.9884
54.7176
57.5842
56.6891
73.5325
71.448
77.9735
79.3973
52.5819
56.1937
55.1815
70.7204
72.6734
80.024
81.6393
52.1954
55.0934
54.9885
72.9007
71.851
81.8627
81.3782
51.7671
55.0896
56.435
71.4563
73.3803
81.0247
79.7229
52.8664
56.8591
57.4664
73.5845
73.6003
79.441
78.895
51.8405
57.5067
56.4289
73.4612
71.9887
78.8597
76.8942
58.0164
55.1987
58.3886
73.2134
79.4771
70.1405
78.6452
58.0753
58.8412
58.7462
78.9271
78.5476
78.5251
79.0404
56.4776
58.32
54.9757
78.7185
81.4477
79.9247
85.8452
54.3637
53.5321
52.6342
82.4818
84.33
87.9406
91.1878
54.4938
52.7951
53.1265
84.5237
83.9578
91.4762
90.2198
56.7853
53.9436
58.0187
83.4903
81.3178
88.9753
84.8734
58.1061
59.1371
59.6906
80.5472
79.4301
83.2442
80.32
56.8152
59.4284
57.1845
79.3127
76.9201
79.9094
76.5715
58.7545
56.9899
58.7803
71.0338
78.5771
72.6958
77.2135
58.7092
58.6433
57.2505
78.4245
78.7884
76.511
76.1979
54.836
56.8845
55.3123
79.6824
85.797
76.7379
80.9522
52.5464
54.6131
53.999
88.022
91.3606
82.4977
85.1983
53.2803
54.1965
55.1553
91.6658
90.5713
85.5915
85.3983
58.4052
55.7719
57.5558
89.2365
84.9446
84.6854
81.5866
59.7316
58.0199
57.955
83.246
80.1973
80.5019
78.8511
57.0479
57.7647
55.9299
79.7868
76.5838
78.633
75.8413
58.3624
58.3454
54.9881
73.2987
75.8567
75.3909
67.4628
56.2897
52.7717
50.6012
75.0424
75.0107
66.0489
67.6204
55.2431
51.0879
51.7871
75.454
78.6763
69.6884
69.8192
54.8964
51.3539
51.8217
79.8391
82.4097
69.7464
71.7404
55.6796
52.0051
52.568
82.8061
82.6986
72.7465
72.1926
57.0288
52.193
52.3876
82.1208
79.8427
71.8898
72.3195
57.2003
52.3316
52.5866
79.2414
78.1901
72.6021
72.3272
55.5149
52.3477
51.0891
78.0508
75.9819
72.2298
69.8199
36.1145
32.8461
35.8155
31.9024
35.9373
32.4464
36.1557
44.5601
37.1145
51.5943
41.6802
39.8089
36.5373
162.872
59.0972
47.5518
64.5774
186.36
46.3239
60.04
205.393
34.3472
33.1673
33.5508
34.3926
32.7846
33.9359
34.4807
35.7115
32.0599
33.2078
35.2223
32.5274
35.7927
35.1621
44.0569
41.6005
35.6578
55.7117
35.975
168.442
38.5919
56.511
190.192
46.6808
75.2417
57.3607
209.204
45.1214
32.316
29.0858
30.1285
28.5316
31.5754
29.314
30.7153
52.438
46.7315
65.9986
173.588
44.322
57.3978
160.416
47.7081
37.6744
63.9372
78.9303
41.5045
40.8874
110.862
34.0015
31.4045
31.4709
34.8494
30.6137
35.2874
33.8651
32.6057
29.0555
30.7403
31.5323
29.8167
31.1122
32.7189
51.0495
177.934
45.9685
76.0084
55.204
167.424
44.0528
47.3626
79.7604
37.9858
67.6661
40.8503
116.862
41.3835
47.7455
65.8276
42.4079
184.915
43.3602
198.799
49.1981
38.2322
42.5848
39.4653
39.4502
41.0292
39.7799
36.5126
36.0277
34.6109
35.1742
30.8438
37.6208
34.2752
33.3331
44.4274
42.7219
60.7095
36.8978
206.322
37.8416
39.7079
49.3874
186.198
81.2906
45.9212
200.907
52.3466
43.5508
36.3983
37.159
36.5667
34.1947
37.6141
34.7738
35.4188
35.1023
30.6335
34.1125
32.4155
34.2419
32.4145
34.5656
53.9016
63.3556
43.6919
95.6321
42.8933
139.11
54.0704
33.0782
32.6156
27.9985
29.1731
31.6504
33.2933
28.2451
33.185
31.6152
27.2712
27.7238
31.4465
33.6887
27.8021
56.4248
172.48
73.5872
47.3117
159.975
54.7325
47.9752
56.211
91.3851
69.2811
47.006
136.347
55.274
47.8586
33.9892
29.4688
34.0192
29.8948
33.9286
28.8648
34.0995
34.2505
28.5783
34.498
29.7256
34.6471
28.6056
34.3263
182.023
196.064
178.301
106.462
90.6517
107.705
91.5168
173.669
169.876
163.633
86.475
85.1053
84.9765
82.9179
152.161
152.734
133.626
82.3682
80.5902
83.4694
82.7364
133.794
114.044
106.95
79.172
77.0903
77.6602
69.6287
119.85
107.558
110.221
73.8644
71.6748
63.5274
61.7065
102.687
110.418
108.23
71.0293
69.3249
63.3933
65.1049
92.1019
103.646
99.4597
63.9355
54.2489
63.4818
55.1647
78.2237
94.1763
79.0925
48.7794
39.0171
49.6883
37.5504
201.167
200.702
175.605
117.461
103.554
116.474
97.7554
157.068
317.979
336.195
184.369
162.257
182.518
296.754
106.759
230.26
221.697
113.377
108.85
111.841
212.755
100.232
163.969
175.691
107.014
104.729
102.565
156.381
61.7817
120.922
140.851
77.8502
69.1723
66.5866
143.667
61.4628
173.039
167.026
60.279
60.7315
60.4391
180.711
65.8161
184.392
192.998
63.5203
65.5734
64.1572
190.891
70.0904
171.395
177.374
71.5661
72.8413
69.3358
173.432
62.2465
149.638
156.095
67.8903
66.4941
66.2475
147.72
74.4002
82.9341
72.5455
34.6615
29.461
32.1116
25.2291
154.916
173.855
157.244
101.808
87.52
99.7049
83.5067
118.159
218.501
239.872
144.733
127.245
140.402
212.748
79.3959
169.531
184.671
89.8671
83.3893
84.669
183.716
70.9862
183.253
205.158
68.0271
66.025
71.3671
213.553
70.5937
170.857
201.429
66.2162
65.7623
71.9479
176.088
61.1441
157.341
151.27
62.0307
60.6236
63.3317
152.469
59.2829
178.642
169.783
59.9481
60.3901
59.1108
171.869
60.7482
170.27
170.248
62.6948
62.5897
60.8407
166.791
56.0101
147.347
154.657
59.0231
56.7021
58.2755
146.917
72.1892
78.4942
67.9981
31.7915
25.024
32.1752
25.0043
183.938
204.446
192.184
108.402
88.3216
108.801
89.1677
135.328
263.091
303.133
161.874
133.796
162.037
277.044
101.284
251.943
265.357
103.213
99.1314
104.999
264.873
94.6869
255.116
263.992
91.9395
90.911
95.5422
261.68
94.9054
177.008
201.596
92.7342
90.812
98.9819
165.863
61.4084
139.457
138.02
65.4676
61.8768
65.6288
138.53
54.9443
147.941
142.93
56.473
55.4437
56.1065
143.214
52.9806
150.04
143.289
55.0423
55.0443
53.2652
142.899
51.0909
137.094
138.109
54.0682
52.7154
52.1064
133.911
65.952
79.5991
73.4238
31.8099
24.7576
31.1538
26.7664
178.008
192.395
176.662
109.776
90.3789
110.709
93.7127
136.228
265.189
285.338
158.768
134.759
160.746
255.824
100.684
255.165
236.807
105.368
102.112
104.447
235.396
97.8944
238.323
223.147
97.3892
98.3656
96.5342
214.849
80.6148
141.732
147.464
97.9242
83.6071
89.9899
139.929
57.3042
145.841
145.329
61.465
58.6038
59.9047
148.698
54.1588
149.05
153.809
54.5008
54.0306
54.5788
153.664
51.9447
138.604
147.066
52.2338
51.4542
52.602
143.212
49.2735
128.799
134.042
49.2397
48.6484
49.6074
130.897
78.7138
89.0997
79.4356
32.3296
28.4483
34.2375
30.5285
165.504
195.253
166.498
109.441
91.5799
109.052
92.8653
136.403
149.603
128.355
83.9012
80.1223
87.8512
79.8283
100.849
109.056
89.2579
74.4094
70.067
72.0955
61.4031
90.4622
86.722
87.6837
58.3845
45.9539
50.7734
43.5913
92.5454
87.3293
86.0661
40.2207
36.873