/*--------------------------------*- C++ -*----------------------------------*\
  =========                 |
  \\      /  F ield         | OpenFOAM: The Open Source CFD Toolbox
   \\    /   O peration     | Website:  https://openfoam.org
    \\  /    A nd           | Version:  10
     \\/     M anipulation  |
\*---------------------------------------------------------------------------*/
FoamFile
{
    format      ascii;
    class       volScalarField;
    location    "5.5";
    object      p;
}
// * * * * * * * * * * * * * * * * * * * * * * * * * * * * * * * * * * * * * //

dimensions      [0 2 -2 0 0 0 0];

internalField   nonuniform List<scalar> 
12920
(
311772
184381
81978.3
114534
73749.5
101177
83586.7
98939.3
92219.2
97927.6
91931.4
91451.1
83907
78911
69611.3
61927.6
51435.1
41825.4
31550.6
21141.1
414210
180354
103045
118970
65417.6
104331
80937.8
100959
93106.6
99996
93335
93131.6
85352.4
80269.1
70594
62440.8
51874.6
42068.2
31636.7
21088.8
150306
84522.9
33858.5
92455.6
68979.9
101549
88274.8
104727
98092.3
103774
96617.1
95725.8
87236.5
82349.6
72776.9
64247.3
53055.1
42761.9
31872.9
20956.6
-191462
44457.7
25593.5
78876.3
75829.5
102426
95867.7
108520
102484
107514
99625
97935.4
89674.5
83866.1
73663.2
65670.2
53938.8
43207.7
32115.9
20884.1
11594.8
78172.2
63665.1
95802.7
88067.1
111857
106204
115599
111402
114099
106391
103422
94394.9
87387.6
76776.9
67528.1
55469.8
44345.3
32705.8
20932.4
196555
245968
86524
126314
106865
127582
116179
126501
119450
121336
113587
108728
99647.9
91022.1
79983.8
69643.4
57274.8
45483.3
33392.2
20901.8
134913
262749
79385.9
128941
117339
137183
137107
142322
134426
132342
123545
118028
106929
96634.6
84479.1
72198.8
59325.4
46886.4
34208.4
20959.7
155509
209336
120913
158216
136102
159443
148961
154347
148876
140452
132350
124726
113543
101925
86419.7
74410.9
61055.8
48179.6
35054.7
20971.8
-438886
33991
82782
132160
147147
170081
165392
167321
162898
153579
143527
133304
119762
106688
92475
76895.8
63809.4
50171.4
36139
21042.5
105487
139486
99597.2
153039
155416
181296
185773
182967
177367
168350
157036
144065
129360
115172
99123.1
81947.1
67327.1
52513
37418.7
21078.4
-101984
184029
116351
193920
195952
207358
207282
200585
192344
183515
171392
155205
140171
124239
106217
87182.4
71233.6
55141.1
38780.5
21190
-178488
190718
174207
242169
233464
239171
231277
221042
210782
200699
186070
168345
151944
134080
113898
92489.8
75174.5
57719.7
40154.1
21343.6
-65550.7
304377
228885
302216
282330
287300
257928
248074
231605
216465
199712
182971
163504
143096
117820
97837.5
78927.3
60352.3
41558
21497.9
493842
426008
352201
387017
345121
335629
307137
291386
263986
245197
218666
196290
170704
145921
122582
102613
82732.8
63033.5
42919.3
21670.2
340379
451741
444889
466720
421452
401668
358092
330751
294662
266452
235973
205825
177444
153621
129892
108239
86656.1
65586.2
44258.4
21727.8
260726
579444
525474
552970
498850
463088
410589
370448
324734
287549
249701
219686
188424
162654
136946
113651
90356.5
68036.5
45471.3
21831.1
747581
874908
714270
699859
596929
538383
459533
406876
349627
305951
262964
230454
198026
170254
143061
118209
93614.1
70135.2
46574.3
21924.2
1.6742e+06
1.24585e+06
945444
836530
681461
596903
501214
437059
371960
324461
278213
241507
207497
177807
148676
122369
96494.8
71931.8
47435.9
22001.4
1.88286e+06
1.4356e+06
1.07572e+06
919581
742903
638262
530497
459245
388654
337702
288540
250376
213907
182817
152582
125192
98427.8
73083.5
48026.8
21988.5
2.01767e+06
1.53408e+06
1.17739e+06
977803
783012
665462
550170
473950
399674
346298
295147
255081
217418
185631
154808
126803
99444.9
73607.2
48222
22071.9
169834
178715
79329
113587
72926
100947
83481.6
98885.5
92234.3
97999
92029.4
91478.4
83939.2
78976.8
69610.5
61913.8
51445.2
41831.7
31558.2
21090.1
374112
185553
100465
116665
63385.4
104140
80084.1
101126
92991.8
100093
93329
93171.6
85353
80340.3
70618
62519.6
51904.2
42086.1
31625.1
20948.8
5193.83
70505.3
31716.1
91770.6
68269.4
101072
87512.7
104425
97745.2
103680
96443.3
95600.9
87134.8
82230.3
72702.5
64302.5
53108.5
42818.1
31908.4
20823.3
-215370
35429.4
20657.9
79330.2
75744.2
102781
94914.5
108509
101930
107469
99496.4
98176.1
89717.2
84054.9
73721.6
65609.6
53869.5
43232.1
32247.4
20888.7
-48668.3
72489.8
58651.8
94418.1
87610.1
111774
105970
115451
111184
114034
106320
103511
94424
87551.8
76790
67513.2
55448.3
44378.3
32865.2
20948.8
171755
237110
90120.5
126174
107072
127428
115749
126330
119143
121219
113477
108693
99622.8
91048
79974
69620.5
57251.8
45505.8
33536.7
20910.4
173004
269579
81684.6
129743
117988
137232
136841
142080
133924
132154
123570
117621
106952
95929.7
84331.9
72251.4
59255.9
46905.5
34311.2
20930.7
130028
207342
120316
156874
134751
159592
149388
153972
148296
140686
132748
124924
113732
102059
86668.3
74444.5
61081.8
48220
35177.6
20882.3
-346889
32160
83593.6
134743
149394
171386
164973
167577
162127
153771
143746
133766
119683
106752
92685
76670.2
63832.4
50201.2
36243.6
20912.6
51084.4
121679
94689.4
151458
153873
180984
185871
183343
177489
168146
157011
143808
129472
115201
99027.8
81778.7
67322.3
52525.4
37525.2
20950.4
-82072.3
193482
114681
194719
195986
207647
207671
201134
192879
183268
171346
155135
140188
124231
106134
87349.2
71222.7
55151.3
38894.5
21074.9
-159903
196850
169822
243495
232948
238947
230995
221217
210814
201238
185349
168415
151936
134007
113754
92565
75167.8
57736.8
40277.7
21229.1
87829.1
330975
225077
305385
281856
288594
257391
247895
230896
216657
199995
183021
163493
143030
117499
97648.5
78887.2
60376.8
41685.4
21382.5
555061
411850
347285
384647
344266
335868
307227
292296
264139
245564
218833
196272
170706
146056
122758
102878
82779
63077.6
43048.9
21546.2
226187
454014
440192
466295
420806
401218
358278
330249
294906
266368
236258
205826
177562
153680
129914
108271
86650.5
65621.9
44382.1
21626.3
212159
570854
524448
552363
498167
461737
410548
370170
325126
287753
249637
219090
188163
162573
136910
113608
90345.4
68068.6
45595.7
21763.4
678759
840937
714876
700499
596986
538436
460110
406538
349826
305683
262424
230304
197888
170173
143003
118160
93606.8
70166.1
46674
21856.7
1.63294e+06
1.22258e+06
943593
833283
679193
596277
500708
436375
371316
324173
278487
242125
207478
177759
148670
122370
96496
71970.9
47564.1
21938
1.81971e+06
1.42453e+06
1.07817e+06
921719
744435
637646
530200
458840
388177
337349
288277
250522
213871
182839
152591
125182
98430.8
73109
48100.1
21909.8
2.01031e+06
1.50134e+06
1.17474e+06
976283
782688
665440
549833
473692
399375
346157
295080
255076
217603
185696
154857
126801
99430.5
73599.2
48218.9
21978.8
89418.3
196189
72465.4
117549
72373.9
100875
83094.9
98848.4
92249.3
98152.7
92189.3
91599.7
83984.2
79011.1
69668
61922
51402.7
41816.5
31576
21158.7
323984
187828
96460.5
114982
62462.7
103590
79061.3
101374
92798.3
100339
93388.8
93368.4
85468.8
80444.2
70764.4
62682.7
51924.2
42129.9
31642.6
20798.4
-174987
54402.8
30363.2
92321.6
67712.3
100896
86548.5
104127
97335.1
103455
96184.4
95544.9
86951.3
82222.4
72595
64320.5
53122.2
42863.2
32004.8
20774
-187823
17026.2
22998.4
80838.6
76176.8
102720
93933.1
108318
101303
107508
99498.5
98444.8
89690.9
84160.9
73733.5
65545.1
53793.1
43290
32454.4
20925.2
-99652.7
65548.8
52562.5
93437.2
87190.8
111966
105248
115633
110811
113938
106199
103518
94388.3
87608.7
76765.6
67494.9
55445.5
44508.2
33088.7
20989.6
244508
243583
96955.7
125999
107311
127176
114992
126036
118668
121015
113227
108747
99501.4
90923.8
79948.4
69573.3
57224.5
45596.1
33768.9
20968.6
109779
269609
77406
128176
118260
137159
135937
141918
133642
132007
123636
116587
106654
95429.8
84093.1
72202.1
59225.3
46964.4
34527.5
20997.5
-7117.04
199429
107026
156088
132937
159631
149993
153617
147714
141239
133546
125197
113727
101880
86815.8
74359.4
61102.1
48296.2
35388.4
20929.8
-203810
52559.4
95145
140056
151299
172325
165361
167028
161721
153972
144554
133489
119878
107013
93087.9
76490.6
63834.1
50258.7
36463.3
20948.6
-13745.4
102892
91477.9
151391
154435
182231
186395
183448
177496
168063
156921
143620
129680
115245
98954.1
81703.9
67309.7
52581.4
37755.1
20994.8
68624.9
170931
124271
197535
196942
208620
208174
201541
193150
181993
170479
155069
140292
124252
105964
87153.9
71162.3
55206.3
39182.4
21123.9
-94538.6
215310
166475
245378
232633
238932
230695
221557
211082
200307
184339
168448
151881
133856
113412
92458.1
75139.4
57799.1
40563
21265.6
135514
303451
227840
303651
281220
289516
257046
248812
230526
217112
200286
183148
163349
142800
117194
97758.4
78866.7
60447.5
41986.2
21424.4
391376
424709
347416
382043
344010
337184
307800
292950
264403
245356
218839
196177
170713
146379
123058
103030
82813.8
63167.7
43350.4
21614.9
295248
450988
438459
466695
421169
400726
358815
330475
295116
266304
236356
206144
178058
153632
129823
108295
86638.6
65680.7
44691.3
21715.6
325324
574597
526047
551562
497665
460367
410089
369735
325547
287822
249547
218674
187809
162463
136801
113549
90323.2
68147.9
45891.8
21910.8
548063
810994
712214
699290
596707
537543
460034
405976
349236
305079
262155
230124
197666
170025
142835
118104
93591.1
70239.2
46972
22001.4
1.52236e+06
1.19911e+06
938034
831566
678096
595413
500317
435512
371511
324609
278376
242367
207457
177730
148606
122360
96489.9
72047.7
47871.6
22097
1.77758e+06
1.40568e+06
1.07895e+06
923812
745437
637718
529787
458155
387539
337220
288553
250624
213991
182841
152568
125200
98440.7
73190.3
48357.2
22078
1.79961e+06
1.4556e+06
1.16476e+06
973674
781523
664888
549318
473243
398845
346003
295118
255381
217775
185746
154837
126783
99397.3
73615.1
48337.4
22072
156178
213831
70876.1
117314
71436.1
100717
82454.3
98744.1
91964.1
98206.7
92124.3
91658.2
84021
79028.5
69666.7
61929.3
51340.1
41791.6
31580.3
21108.6
290488
201379
95002.2
114003
62550.1
102621
78108.2
101423
92867.9
100601
93675.3
93623.1
85542.4
80572.5
70840.6
62772.9
51984.4
42173.7
31747.5
20898.3
-70880.2
61152.1
33656.7
92290.6
66315.1
100384
85487.6
103758
96996.5
103317
95929
95504.6
86847.6
82205.6
72453.8
64304.2
53066.1
42862.4
32231.8
21069.1
-420755
-23510.4
11395.4
78464.5
74675.7
102605
93043.1
108662
100765
107528
99294.7
98529.4
89597.7
84184.8
73779.2
65503.1
53813.6
43399.2
32767.5
21146.3
-264713
46782.8
45542
92556.1
86381.6
112132
104750
115842
110537
113553
106083
103459
94367.6
87575.1
76716
67492.4
55449.4
44601.3
33405.6
21187.8
186766
248866
95276.2
125510
107684
126645
114125
125917
117942
120559
112849
108549
99347.8
90681.8
79879.9
69562.2
57208.9
45678.4
34090.7
21182.3
183560
273316
75471.1
126729
117503
136961
135185
141699
133431
131839
123633
115901
106311
95227.4
83836.1
72176.4
59249
47011.3
34869.8
21254.3
105503
205289
99509.4
154559
130965
159206
149103
152998
147476
142023
134484
124983
113795
101770
86899.5
74465.7
61122
48326.8
35733.8
21245.7
-305564
20340.6
92645.7
141774
151648
171993
166670
166729
161681
154604
145172
133181
120290
107379
93186.8
76358.6
63793.1
50258.3
36817.4
21324.6
-108405
76273.4
83465.5
151593
155200
183760
186668
183418
177334
168009
156649
143648
129942
115470
98790.3
81609.6
67260.2
52611.8
38158
21406.8
-25158.9
146644
120521
199352
197463
209538
208502
201655
193196
182446
169507
155088
140417
124315
105694
87028.7
71088.2
55262.3
39631
21556.9
69959.4
211871
176208
246202
232298
238263
230339
221661
210903
198774
183937
168425
151824
133658
113188
92376.7
75109.9
57861.9
41067.1
21722.6
109022
282522
234092
300887
281005
290331
257630
249123
230461
217752
200336
183184
162996
142352
117098
97804.3
78883
60512.9
42507.5
21891.7
274111
402346
337469
380225
343353
337578
308225
293233
264723
245041
218746
196018
170753
146867
123490
103046
82809.6
63261.4
43867.1
22081.2
316762
457466
434017
466794
421553
399947
358938
330515
295308
266111
236234
206623
178492
153470
129667
108284
86631.5
65755.7
45174.3
22192.1
355853
578331
519453
550638
496348
460210
409605
369158
325552
287822
249659
218379
187573
162257
136622
113436
90297.5
68241.8
46389.1
22368.6
632544
800840
714717
696193
596864
535689
459333
405223
348644
304898
261988
229752
197254
169726
142582
118008
93570.9
70309.9
47474.1
22490.9
1.47849e+06
1.19578e+06
928219
829054
677984
594343
500122
435442
371483
324404
278214
242372
207328
177616
148529
122350
96491.2
72144.4
48385.1
22621.1
1.72402e+06
1.38693e+06
1.07624e+06
923034
745074
636768
529162
457203
386979
337289
288764
250749
213975
182808
152521
125188
98459
73307.4
48906.6
22620.7
1.66365e+06
1.42886e+06
1.16075e+06
971428
781171
664838
548995
472868
398940
346097
295236
255541
217841
185750
154808
126755
99344.7
73627.9
48624.3
22397.9
160654
226090
66238.3
117842
70847.7
100778
81994.5
98793.2
91777.4
98270.6
92080.7
91743.3
83928
79063.8
69615.9
61911.3
51289.9
41751
31574.7
21009.1
354654
206289
91266.6
113745
63740.4
101722
77656
101781
92887.4
100762
93741.9
93743.6
85461.9
80549.2
70786.8
62853.7
52001.6
42194.4
31885
21190.9
-98724.3
60628.6
31030.9
92126.4
65533.8
100069
84862
103798
96721.5
103298
95858
95534.2
86806
82209.2
72369
64261.5
53004.3
42843.9
32532.3
21415.4
-303970
-14726.6
10057.1
79448.5
74564.4
102717
92651.1
108545
100275
107479
98949.3
98523.6
89423.7
84162.2
73888.6
65503.2
53892.6
43520.2
33048.3
21414.8
-256563
47123.3
39217.5
93261.8
85422
112398
104690
116086
110616
113489
106054
103301
94379.1
87510.2
76694.2
67528.5
55447.2
44607.7
33659.6
21445.3
261610
259531
98635.4
125908
107969
126323
113345
125759
117267
120378
112536
108231
99216.4
90461.2
79765.8
69575
57195.5
45675.5
34353.3
21450.3
250426
282026
66273.1
127056
116551
136818
134606
141649
133450
131917
123493
115862
105991
95260.2
83579.3
72195.4
59320.2
47041.1
35154.3
21523.3
145453
203812
102471
151863
129434
158866
148504
151603
147410
142200
134822
124474
113710
101652
86872.8
74636.1
61165.7
48248.7
36040
21524.9
-218864
35170.8
97317.2
145325
152289
171444
168286
166684
162238
154989
145218
133164
120693
107638
93057.7
76432.5
63777.1
50191.9
37160.1
21625.3
-61271.4
72009.5
79500
152779
155875
184259
186491
183215
177076
167849
156528
143846
130246
115634
98575.5
81522.6
67199.4
52588.5
38546.1
21753.1
-122106
130125
129007
200540
198568
209534
208315
201744
193126
182283
168793
155112
140591
124250
105418
86841
70986
55241
40039.9
21939.3
-80165.5
200277
178950
247073
231993
237962
230134
221650
210544
198031
183800
168448
151807
133505
112839
92117
75068.7
57868.6
41457.9
22148.5
112078
274159
237803
299740
280913
290914
259227
248885
230721
218040
200133
183029
162568
141994
116996
97890.1
78884.8
60528.8
42896.2
22318
290021
400171
344008
379135
342820
337852
308699
293365
264798
244829
218651
195978
170731
147156
123729
103084
82789.9
63348.2
44258.2
22499.1
193128
440084
434342
465907
421748
399743
359628
330017
295242
265761
235835
206786
178731
153622
129820
108302
86662.2
65828.7
45585.2
22615.2
507898
586957
523912
551133
495583
460440
409038
368818
325100
287836
249775
218673
187732
162119
136568
113317
90311.9
68316.9
46820.8
22788.7
696368
795677
715401
694976
595727
534338
458401
404548
348334
305317
262162
229287
196776
169424
142289
117941
93570.1
70368
47909.1
22925.5
1.52338e+06
1.19876e+06
926143
829038
678457
593831
499979
435202
371270
323960
277965
242289
207220
177550
148468
122351
96494.4
72238.5
48839.4
23076.4
1.84112e+06
1.38277e+06
1.08404e+06
923548
744500
636159
528777
456661
386802
337067
288737
250685
213936
182770
152477
125188
98479.9
73402.6
49332.3
23029.8
1.81412e+06
1.42203e+06
1.16013e+06
970081
782172
665222
549578
472905
399076
346121
295302
255619
217828
185736
154756
126716
99272.7
73645.6
48875.1
22590.3
159769
178469
170113
168042
159694
178423
169292
147221
166565
156645
156716
147034
165856
156498
174160
196562
185145
181698
173601
195359
184184
158835
180811
168737
169861
158855
180207
168673
166051
180108
179048
165280
166236
180416
179543
163540
178678
175684
167621
163269
179040
175657
155518
173995
167579
162380
155565
174031
167444
145432
164624
156428
153721
145309
164573
156428
135409
153582
145027
143627
135388
153605
144864
122393
141404
130351
133652
122552
141162
130467
109652
126817
116567
119681
109718
126912
116625
97020.4
112981
102344
106718
97041.1
113024
102325
184132
202094
198378
185846
184277
202158
198285
179011
196680
190545
183290
179216
196670
190820
171275
188473
182161
177460
170939
188727
182040
159916
179799
170821
168189
159883
179384
170684
147989
167656
156497
157022
147685
167566
156285
132834
152208
141083
143895
132940
152152
141104
118783
137383
125847
129431
118804
137401
125845
104098
121913
109629
115189
104045
121900
109586
202477
224182
217387
207579
202704
224515
217698
194420
215263
208397
200950
194892
215524
208595
185491
205871
198446
192743
185994
206070
198931
174666
196305
186846
183358
174600
196556
186887
159450
182946
168958
171402
159085
182314
168860
143966
164965
153051
155133
143968
164929
153044
128289
148883
135965
140176
128294
148879
135952
111704
131536
117911
124236
111632
131517
117805
223421
247795
241563
231179
223568
247862
241172
213728
239377
230312
221135
213733
239236
229861
203022
225974
214378
210750
203351
225591
213978
191043
210932
200490
201169
190426
210989
200550
172482
195897
183356
185581
172493
196035
183630
156348
179477
166746
168399
156335
179595
166724
138725
161686
147238
151940
138690
161665
147186
120343
141959
126864
134033
120234
141945
126685
166271
180356
179718
165406
166294
180905
179910
163110
179099
175680
167162
162783
179199
175648
155584
174069
167401
161789
155493
174102
167362
145259
164567
156433
153882
145384
164608
156469
135584
153614
144758
144212
135678
153676
144520
122664
141092
130523
133604
122948
140868
130708
109752
126962
116652
119804
109868
127128
116710
97122.3
113047
102386
106929
97186.2
113094
102324
184304
202269
198299
186346
184328
202814
198386
179260
196734
190924
183430
179343
196909
191110
170851
188802
181906
177517
170678
188913
181634
159872
179262
170588
168092
159781
178971
170210
147557
167495
156232
156977
147289
166837
156094
132993
152148
141125
143627
133165
152085
141226
118821
137421
125850
129620
118887
137521
125894
104068
121900
109592
115219
103962
121921
109530
202875
224579
217881
208189
203192
224857
218383
195066
215702
208731
201474
195360
216199
209031
185915
206197
199198
193116
185725
206544
199488
174567
196611
186615
182808
174501
196688
185502
158981
182027
168833
170850
158851
181125
168748
143977
164913
153042
155074
144040
164868
153038
128297
148878
135944
140259
128326
148872
135897
111645
131502
117807
124237
111516
131435
117643
223656
247925
241049
230888
223912
248317
240622
213766
239259
229744
221505
213892
239412
229437
203563
225517
214026
211042
203815
225507
214086
190107
211112
200551
200781
189127
211223
200563
172505
196098
183718
184547
172506
196287
183922
156331
179647
166701
168444
156312
179775
166553
138668
161656
147156
151899
138594
161563
146929
120226
141950
126599
133901
120023
141852
125973
166192
180916
179928
166495
165983
181200
179932
162682
179199
175611
166776
162447
179156
175451
155454
174107
167377
161631
155377
173847
167385
145742
164634
156501
154363
146357
164683
156565
135674
153688
144473
145068
135524
153607
144359
123055
140860
130774
133211
123349
140893
131004
109917
127190
116737
120178
110074
127377
116903
97274.4
113114
102393
107288
97325.6
113235
102496
184327
202778
198422
186724
184300
202996
198485
179339
196952
191141
183450
179253
197010
191180
170651
188925
181495
177372
170591
188955
181378
169007
165372
171591
168063
168947
165371
171612
156960
153913
160252
156859
157087
153828
160116
133228
152070
141273
143630
133443
152089
141407
118920
137568
125924
129875
119087
137703
126044
104022
121946
109561
115401
104028
122040
109406
203265
224813
218472
208566
203372
224909
218613
195411
216291
209109
201638
195481
216444
209165
185683
206628
199470
193192
185568
206614
198584
184342
180342
187326
182482
184439
181564
187321
169819
166625
173979
171080
169834
167037
173865
144073
164868
153034
155082
144157
164836
153013
128348
148864
135892
140385
128430
148839
135872
111545
131407
117645
124303
111342
131335
117358
223942
248156
240661
230555
223991
248442
241006
213891
239622
229343
221653
213873
239864
229082
203539
225430
214048
210991
202427
225067
213961
188829
211214
200595
199067
188088
211284
200752
172500
196327
183968
184009
172478
196399
184034
156305
179808
166497
168437
156288
179850
166338
138567
161544
146864
151835
138513
161438
146590
119998
141832
125871
133712
119632
141625
125475
165927
181125
179924
168092
166012
181196
179894
162415
179133
175399
166649
162313
179040
175214
155468
173704
167315
162048
156033
173399
167112
146554
164629
156564
155000
146973
164467
156548
135459
153579
144342
145200
135389
153539
144400
123452
140917
131091
133150
123734
141049
131366
110124
127443
116987
120609
110314
127666
117231
97454.6
113307
102630
107596
97504.3
113487
102504
184277
202909
198483
186655
184184
202893
198419
179212
197014
191186
183260
179033
197008
191189
170577
188967
181476
177162
170468
188970
181405
159651
178846
169150
167889
159565
178590
169113
147003
165659
155950
156540
147046
165592
155550
133524
152112
141445
143784
133771
152157
141580
119163
137739
126082
130176
119361
137875
126154
104100
122064
109461
115624
103859
122058
109184
203388
224754
218620
208573
203407
224786
218576
195487
216460
209116
201730
195475
216453
208920
185521
206520
198229
193154
185301
206189
197505
173255
195011
183980
182358
172530
194312
183610
158670
180090
168647
168866
158499
179860
168653
144188
164820
153019
155092
144324
164856
153075
128458
148840
135854
140545
128506
148870
135791
111382
131304
117346
124272
111093
131211
117031
223990
248225
241117
230345
223974
248186
241545
213833
239907
229033
221650
213688
239977
228976
202131
224856
214012
210619
201551
224414
214308
187951
211353
200808
198171
187729
211603
200853
172474
196404
184039
183819
172498
196406
184060
156289
179858
166319
168431
156333
179924
166176
138490
161407
146502
151804
138391
161216
146184
119600
141536
125491
133533
119274
141211
125265
166146
181110
179888
169028
166237
181455
179938
162306
178997
175137
166365
162267
178981
175022
156147
173301
167050
162214
156170
173126
166952
147114
164411
156546
154554
147209
164328
156572
135444
153534
144450
145237
135685
153526
144565
123791
141105
131453
133143
123966
141236
131560
110388
127729
117283
120892
110594
127810
117295
97636.3
113505
102575
107653
97434.7
113472
102172
184154
202584
198391
186479
184133
202404
198354
178946
197001
191182
183206
178834
197011
191150
170423
188958
181358
176936
170336
188906
181249
159551
178515
169079
167780
159558
178387
169028
147092
165581
155540
156534
147212
165653
155653
133851
152185
141634
143989
133996
152306
141799
119394
137923
126153
130351
119383
138035
126126
103921
122036
109234
115581
103532
122020
108852
203383
224586
218552
208423
203329
224680
218548
195463
216441
208856
201761
195411
216453
208815
185222
206092
197355
193046
185065
205952
197069
172407
194153
183551
182120
172366
193866
183539
158500
179830
168671
168866
158643
179846
168744
144379
164887
153109
155238
144539
164988
153230
128491
148894
135780
140691
128465
148981
135772
111139
131192
117042
124229
110763
131162
116664
223985
248013
241803
230466
224072
249021
242403
213646
239984
228967
221723
213659
239927
229137
201424
224430
214443
210478
201220
224988
214894
187720
211711
200808
197845
187720
211877
200679
172514
196433
184090
183799
172562
196509
184172
156360
179978
166065
168525
156417
179949
165813
138374
161149
146114
151864
138372
161005
145971
119268
141118
125292
133459
118892
140945
124985
165992
162543
163171
159755
165999
162533
163112
171962
174999
175878
178969
172087
174969
175350
168777
166401
172844
169037
169130
166087
171643
168985
168061
165350
171581
165372
171612
168843
165898
159732
162507
162928
162527
163018
165817
171926
178978
174911
175542
174933
175361
171936
168767
168842
166014
172284
165939
171506
168932
153460
150618
150116
147139
153593
150532
150049
159747
163400
162998
165651
160116
163039
162284
156336
152908
159459
157013
156559
152896
158689
156819
156788
153656
159855
153740
159973
156683
153329
147083
150339
149904
150442
149982
153203
159550
165431
162895
162359
162817
161979
159594
156143
157020
152748
158939
152857
158478
156133
181359
177623
177944
174981
181530
178613
177780
188677
192012
193154
196233
188937
191989
192694
184998
181489
189249
184806
185441
181103
188835
184213
182153
179995
186973
181284
187180
183869
181026
174451
176983
176955
178099
177432
180552
188267
195776
191352
191894
191761
192265
187914
184585
184481
180425
188142
180736
188464
184272
165754
162892
161874
159131
165602
163565
161975
172971
177334
176646
180541
173071
177007
176591
169052
165269
172623
168731
169071
165273
172598
169578
170569
165970
173014
166541
173510
169239
165656
159147
162517
161795
163128
161945
165458
172812
180354
176471
176400
176675
176496
172696
168966
168707
165166
172486
165237
172547
168881
151439
158427
160370
149099
151569
158455
160180
150827
160735
161091
154183
150852
160238
160487
142623
155660
151595
148646
142844
155592
151787
133943
147625
142363
140500
134119
147745
142624
128483
138323
134153
132492
128601
138540
134437
117628
128974
121909
124778
117584
128957
121783
107762
115647
109665
113696
107624
115406
109475
93480.3
103076
97238
101997
93617.2
102971
97254.9
167457
171015
174990
170930
167916
171019
175435
169392
165236
170069
165081
165207
169887
169399
170158
165582
171188
167373
165613
171203
170164
164617
159911
166740
162829
159841
166749
164624
154622
150785
157259
153611
150770
157278
154622
144140
140789
146681
143532
140764
146693
144156
132348
129617
136004
133355
129535
136070
132379
118583
116087
121888
119725
116097
121897
118574
105380
103326
108593
106688
103336
108607
105366
85599
95653
88835.1
92535.3
85489.2
95662.8
88773.9
185161
195155
196955
180935
185414
195334
197273
191069
185615
192104
185724
185652
192114
190989
185941
181728
187472
183052
181876
187575
185811
178936
175604
180678
177409
175586
180839
178823
169232
165603
172187
168299
165576
172088
169274
157580
154166
160545
157036
154168
160532
157592
142670
140018
146807
144016
139950
146778
142651
128390
125865
131984
129371
125873
131989
128387
113562
111521
117388
115170
111525
117381
113565
91669.5
102533
95015.3
99097.2
91614.4
102502
94988.4
208684
221324
220691
207607
209016
221269
220836
210508
205845
212400
207270
205918
212493
210412
202995
198523
204970
200623
198571
205022
202936
194263
190116
196560
192395
190161
196605
194231
184894
180766
187630
183513
180734
187700
184904
171355
167947
175135
171396
167946
175190
171413
154512
151411
158373
155197
151410
158344
154517
138985
136252
143012
140168
136250
143009
138988
122341
120102
126618
124236
120093
126615
122348
98210.3
110021
101367
106187
98131.6
109980
101303
238049
261000
249537
238902
237520
261027
249198
234773
228589
239307
231145
228599
239147
234780
224458
218699
227025
221049
218692
227012
224489
212371
207926
215582
210741
207917
215503
212429
202366
198149
204501
200784
198233
204527
202467
184473
181280
189194
185965
181241
189115
184496
168039
164565
171878
168360
164560
171914
168025
150665
147653
155137
151943
147650
155136
150663
131955
129558
136733
134073
129551
136712
131970
105214
117839
108482
113861
105116
117876
108254
254975
275056
272257
257886
254836
275135
272199
242819
264364
255178
247904
242601
264340
255152
224391
245106
238109
231281
224167
244923
238103
209826
228051
218616
216546
209887
228114
218669
191701
208518
200345
199823
191833
208631
200402
174669
190256
179033
182981
174714
190312
178966
154028
169226
158841
163503
154020
169181
158769
132936
147915
135404
143072
132842
147830
135266
151727
157950
160040
150148
151936
158098
160340
150881
159870
159875
153768
150818
159551
159432
143324
155654
152083
147971
143730
155656
152317
134472
147888
142926
140888
135076
148073
143097
128745
138815
134563
133107
128845
139074
134635
117419
128817
121809
125108
117253
128450
122008
107379
115274
109368
113703
107177
115242
109345
94054.4
102991
97455.1
101961
94203.2
103100
97548.4
168111
170987
175661
172415
168645
171966
176083
169838
165763
170179
165254
169437
166226
170613
170111
165533
171316
167478
170118
165419
171429
164492
159457
166739
161985
164609
159475
166584
154627
150759
157343
153797
154620
150727
157362
144240
140665
146823
143814
144191
140670
146906
132166
129280
135831
133769
132191
129191
135752
118743
116204
122014
119704
118694
116238
122067
105546
103433
108705
106798
105496
103474
108752
85437.1
95679.3
88821.5
92897.6
85296.8
95565
88720.8
185767
195518
197706
181663
186192
196440
198347
191097
185687
192334
186058
191076
185697
192535
186389
182128
187834
183380
186337
182172
187878
179014
175567
181098
177515
179031
175543
181134
169010
165481
171765
168118
169055
165462
171702
157527
154161
160464
157006
157582
154143
160443
142816
140036
146497
143695
142778
140070
146451
128489
125957
132069
129517
128453
125995
132108
113575
111557
117389
115204
113576
111563
117392
91607.6
102445
95030.6
98975.8
91400
102390
94864.1
209335
221854
221203
208250
209638
222757
221101
211051
206234
213013
207930
210915
206384
213241
203842
199172
205658
201273
203642
199320
205873
194964
190597
197148
192986
194826
190685
197283
184750
180599
187573
183173
184804
180572
187531
170516
167474
175049
171227
170746
167248
174769
154495
151412
158251
155134
154501
151412
158262
139016
136277
143012
140206
139001
136297
143020
122287
120058
126609
124227
122300
120051
126598
98176.1
109868
101342
106063
98004.7
109750
101148
236398
261235
248409
239272
235822
260803
247810
234441
228722
238247
230998
234495
228749
238113
224425
218888
226988
221354
224386
218994
227036
212539
208200
215471
210905
212458
208328
215520
201249
198313
204650
201236
201626
198144
204511
184224
180861
188675
185101
184269
180696
188460
168096
164555
172044
168429
168085
164556
172077
150613
147629
155128
151928
150637
147615
155109
131820
129496
136600