/*--------------------------------*- C++ -*----------------------------------*\
  =========                 |
  \\      /  F ield         | OpenFOAM: The Open Source CFD Toolbox
   \\    /   O peration     | Website:  https://openfoam.org
    \\  /    A nd           | Version:  10
     \\/     M anipulation  |
\*---------------------------------------------------------------------------*/
FoamFile
{
    format      ascii;
    class       volScalarField;
    location    "5.5";
    object      turbidity_0;
}
// * * * * * * * * * * * * * * * * * * * * * * * * * * * * * * * * * * * * * //

dimensions      [0 0 0 0 0 0 0];

internalField   nonuniform List<scalar> 
12920
(
-0.0422618
-0.0532383
-0.0707484
-0.0920528
-0.113503
-0.143771
-0.185044
-0.225956
-0.253218
-0.269385
-0.278146
-0.282952
-0.287693
-0.293662
-0.304865
-0.318517
-0.335884
-0.355882
-0.379882
-0.412157
-0.0403085
-0.0875013
-0.124369
-0.162554
-0.187996
-0.228578
-0.263411
-0.290487
-0.299479
-0.286087
-0.272071
-0.261283
-0.263159
-0.276533
-0.30803
-0.351023
-0.403114
-0.451749
-0.503993
-0.560959
-0.0357287
-0.0555101
-0.068087
-0.0917638
-0.119183
-0.158213
-0.211473
-0.271935
-0.324238
-0.350674
-0.376889
-0.395698
-0.420121
-0.443026
-0.469897
-0.500921
-0.540998
-0.587045
-0.635306
-0.675235
-0.0109789
-0.0306897
-0.0530987
-0.0742697
-0.0995721
-0.140626
-0.201251
-0.282444
-0.349926
-0.40295
-0.440326
-0.476951
-0.509703
-0.542851
-0.574932
-0.606337
-0.63604
-0.661638
-0.679465
-0.690805
-0.0605279
-0.0529518
-0.0778274
-0.112755
-0.148257
-0.183674
-0.225133
-0.269009
-0.304689
-0.341356
-0.370883
-0.407551
-0.442488
-0.479374
-0.512229
-0.542718
-0.569149
-0.591708
-0.607415
-0.616424
-0.0873979
-0.0557625
-0.0879579
-0.134096
-0.161136
-0.199566
-0.214472
-0.248256
-0.261999
-0.288943
-0.306506
-0.341167
-0.37966
-0.428175
-0.469676
-0.505373
-0.530853
-0.546999
-0.551313
-0.548825
-0.02559
-0.0442851
-0.0621005
-0.0832529
-0.10329
-0.12981
-0.144648
-0.168444
-0.178441
-0.193698
-0.203649
-0.227572
-0.265639
-0.325972
-0.38606
-0.436697
-0.463911
-0.470309
-0.46242
-0.455425
-0.0336112
-0.0584453
-0.0778274
-0.088297
-0.0993869
-0.113491
-0.112175
-0.111104
-0.113217
-0.107244
-0.106997
-0.108001
-0.117789
-0.154523
-0.240226
-0.287828
-0.307065
-0.317207
-0.330365
-0.349355
-0.0117171
-0.0265634
-0.0482662
-0.0745498
-0.102133
-0.105718
-0.105668
-0.0993887
-0.0955526
-0.0995674
-0.105794
-0.100111
-0.0962868
-0.11005
-0.161721
-0.202215
-0.228532
-0.254369
-0.285494
-0.322855
-0.0105808
-0.0304625
-0.0596761
-0.0932571
-0.122996
-0.117765
-0.110494
-0.104104
-0.102388
-0.0993607
-0.105324
-0.111086
-0.103997
-0.102618
-0.12929
-0.171955
-0.205824
-0.242464
-0.285814
-0.335025
-0.0111373
-0.0396882
-0.0663547
-0.0899156
-0.102283
-0.0989172
-0.0929743
-0.0877539
-0.0860598
-0.0851508
-0.103424
-0.113533
-0.114181
-0.111293
-0.123575
-0.161093
-0.199052
-0.242994
-0.294472
-0.351617
-0.00895958
-0.0426008
-0.0672565
-0.085928
-0.101662
-0.0964936
-0.089892
-0.0816845
-0.07775
-0.0891214
-0.123238
-0.126469
-0.117767
-0.113957
-0.123196
-0.156966
-0.206972
-0.258952
-0.314341
-0.372305
-0.0290418
-0.0513202
-0.0703197
-0.0851655
-0.0977872
-0.11094
-0.108218
-0.108119
-0.115797
-0.147185
-0.179983
-0.173985
-0.156672
-0.142672
-0.216104
-0.263332
-0.309411
-0.347009
-0.38417
-0.423417
-0.0488681
-0.0671939
-0.0826813
-0.0949788
-0.110218
-0.137076
-0.157014
-0.192144
-0.227465
-0.27867
-0.31554
-0.347811
-0.37252
-0.396994
-0.420829
-0.441876
-0.455702
-0.461632
-0.464711
-0.474519
-0.0345846
-0.0582429
-0.0840458
-0.113311
-0.138569
-0.172326
-0.193741
-0.22205
-0.245846
-0.261149
-0.276269
-0.290727
-0.313644
-0.339416
-0.367786
-0.395824
-0.420548
-0.439064
-0.451857
-0.465727
-0.0355785
-0.0615397
-0.0847439
-0.120893
-0.151136
-0.17417
-0.191674
-0.196413
-0.202081
-0.201687
-0.210692
-0.22472
-0.250188
-0.28317
-0.319977
-0.355558
-0.389373
-0.420152
-0.447442
-0.471608
-0.0694882
-0.0751487
-0.102627
-0.136681
-0.155084
-0.170489
-0.181017
-0.181981
-0.180745
-0.177873
-0.182837
-0.19262
-0.215888
-0.249017
-0.286203
-0.323187
-0.359526
-0.393769
-0.424931
-0.453221
-0.0388957
-0.0360978
-0.0484208
-0.0645551
-0.0803441
-0.0993049
-0.117276
-0.137699
-0.15603
-0.169197
-0.183307
-0.200147
-0.225569
-0.254364
-0.284978
-0.317595
-0.351086
-0.383752
-0.413871
-0.439332
-0.0124436
-0.0267452
-0.0498227
-0.0770552
-0.0959054
-0.109321
-0.122176
-0.133228
-0.150001
-0.1685
-0.194885
-0.223931
-0.253797
-0.282512
-0.310955
-0.338678
-0.368058
-0.399025
-0.43229
-0.46652
-0.0626106
-0.0420718
-0.0532204
-0.0717154
-0.0917302
-0.114014
-0.132505
-0.146919
-0.160559
-0.175442
-0.192519
-0.211463
-0.231178
-0.248563
-0.261442
-0.273867
-0.294148
-0.323899
-0.36529
-0.408286
-0.0171681
-0.0131381
-0.0299352
-0.0334708
-0.0318761
-0.031218
-0.0310306
-0.0353064
-0.0410179
-0.0432651
-0.0441283
-0.0430277
-0.0456036
-0.0520197
-0.0626647
-0.0732065
-0.0743456
-0.0643433
-0.0612021
-0.0672134
-0.0341738
-0.026894
-0.0566189
-0.0905945
-0.0787447
-0.0915233
-0.0794407
-0.0546099
-0.0334502
-0.0252056
-0.023799
-0.0251544
-0.0290297
-0.0354531
-0.046849
-0.0631588
-0.0874208
-0.122059
-0.157751
-0.177925
-0.0187065
-0.0180345
-0.0207423
-0.0294231
-0.0445205
-0.0565241
-0.0735638
-0.0560571
-0.0455957
-0.037598
-0.0398281
-0.0446318
-0.0552586
-0.0699314
-0.0924182
-0.116246
-0.137334
-0.149165
-0.151236
-0.1459
-0.0138826
-0.0156224
-0.0162849
-0.0218317
-0.0357369
-0.0564982
-0.0827279
-0.0766922
-0.0728623
-0.0670641
-0.073791
-0.0802477
-0.0879474
-0.0923866
-0.0957759
-0.095406
-0.0938251
-0.0915987
-0.0927456
-0.0989486
-0.0103259
-0.012253
-0.0181971
-0.0349634
-0.0471206
-0.051857
-0.0559023
-0.0539441
-0.0625349
-0.0706122
-0.0818219
-0.0826601
-0.0822855
-0.0749859
-0.0709853
-0.0663865
-0.0656045
-0.0660467
-0.0685311
-0.0729504
-0.00959074
-0.00953586
-0.0143403
-0.0245128
-0.0248111
-0.033013
-0.0349828
-0.0467951
-0.0587323
-0.0761519
-0.0918148
-0.101023
-0.102447
-0.0930208
-0.0842481
-0.0760748
-0.0745129
-0.0709962
-0.0672545
-0.0651961
-0.0107045
-0.00857359
-0.00832378
-0.0104631
-0.0138106
-0.0191534
-0.0255848
-0.0349303
-0.0481728
-0.0658796
-0.084999
-0.10163
-0.108893
-0.106262
-0.104046
-0.100712
-0.0936917
-0.0831983
-0.0721654
-0.0632014
-0.0214327
-0.0214675
-0.0142371
-0.0150938
-0.0226582
-0.0269577
-0.0304027
-0.0391882
-0.0508082
-0.0681711
-0.0765728
-0.0845509
-0.0948423
-0.101052
-0.0712749
-0.0606919
-0.0538927
-0.0500961
-0.0485081
-0.0483199
-0.0030686
-0.0106238
-0.0223886
-0.0219406
-0.0344586
-0.036165
-0.0392907
-0.0541869
-0.0792043
-0.093178
-0.0901509
-0.0815599
-0.0806001
-0.0897683
-0.091691
-0.0635566
-0.060267
-0.0566123
-0.0527734
-0.0502319
-0.010851
-0.015168
-0.0153104
-0.0176246
-0.0290774
-0.0358446
-0.0528081
-0.0624258
-0.0701229
-0.0755558
-0.0825885
-0.063915
-0.05806
-0.075461
-0.0865824
-0.0606725
-0.05491
-0.0493773
-0.0451286
-0.0431659
-0.0123782
-0.0182783
-0.0147833
-0.0138888
-0.0152365
-0.0168607
-0.0192064
-0.0238744
-0.0341293
-0.0609567
-0.0904866
-0.0799753
-0.0614038
-0.0698579
-0.0783728
-0.0514528
-0.0448641
-0.040204
-0.038425
-0.0399896
-0.00391497
-0.0146055
-0.0203324
-0.0192357
-0.022313
-0.0226172
-0.0253301
-0.0288954
-0.0463634
-0.087671
-0.0971045
-0.0710013
-0.0700258
-0.0807592
-0.0642275
-0.0405161
-0.0361233
-0.0339628
-0.0354637
-0.040529
-0.0102336
-0.0311422
-0.0288699
-0.0241111
-0.0218038
-0.0245853
-0.0327077
-0.055093
-0.091629
-0.105197
-0.0683482
-0.0438781
-0.0433882
-0.0505746
-0.0470294
-0.0403786
-0.033688
-0.0320604
-0.0356766
-0.0432962
-0.0118176
-0.0311095
-0.0255008
-0.0182168
-0.0200462
-0.0341101
-0.0558575
-0.0852895
-0.0971641
-0.0950995
-0.0923397
-0.0948069
-0.096855
-0.0929115
-0.0832629
-0.0663239
-0.0494076
-0.0418156
-0.0434275
-0.0513778
-0.0070737
-0.0204722
-0.0163189
-0.0233627
-0.0269996
-0.0411436
-0.0558115
-0.0613129
-0.0642029
-0.0597172
-0.0628215
-0.0669168
-0.0742782
-0.080866
-0.0831714
-0.0773809
-0.066633
-0.0577025
-0.0576945
-0.0656953
-0.0135533
-0.0151123
-0.0151664
-0.0264031
-0.0305514
-0.026978
-0.0313867
-0.0289272
-0.0307019
-0.0312482
-0.0358541
-0.0419646
-0.050447
-0.0594611
-0.0691735
-0.0769825
-0.0805267
-0.0796366
-0.0806787
-0.0882801
-0.0173842
-0.0160096
-0.0200837
-0.028934
-0.0236509
-0.025611
-0.0213002
-0.018302
-0.0197726
-0.0231534
-0.0289099
-0.0356295
-0.0436409
-0.0517679
-0.0610596
-0.0693718
-0.0759005
-0.080468
-0.0867247
-0.0966828
-0.0133221
-0.0115928
-0.0137975
-0.0149099
-0.0208962
-0.0243229
-0.0310981
-0.030031
-0.0297281
-0.0299841
-0.0355859
-0.0433725
-0.0512274
-0.0569883
-0.060823
-0.0594699
-0.0540909
-0.050093
-0.0502628
-0.0567301
-0.0118594
-0.0163077
-0.022754
-0.0224312
-0.0239243
-0.0187962
-0.0184934
-0.0212818
-0.0273523
-0.0361076
-0.0469685
-0.0561483
-0.061435
-0.0604188
-0.0582849
-0.0604596
-0.0673878
-0.0755528
-0.0810034
-0.0777746
-0.0221227
-0.0210448
-0.0167846
-0.0122354
-0.0109129
-0.0156086
-0.0296351
-0.0430625
-0.0575352
-0.0705963
-0.0839012
-0.0923687
-0.0882517
-0.0715469
-0.0533565
-0.04042
-0.0349777
-0.0352261
-0.0391778
-0.0442575
-0.0226506
-0.0195589
-0.0261675
-0.0250007
-0.025615
-0.0268884
-0.0266441
-0.0253001
-0.0242921
-0.0235238
-0.0240925
-0.0257225
-0.0287378
-0.032144
-0.0353943
-0.0364674
-0.0347256
-0.0316883
-0.0316703
-0.0339557
-0.0263611
-0.0126183
-0.0233393
-0.0438502
-0.0326102
-0.0363136
-0.0264274
-0.0187804
-0.0157233
-0.0155318
-0.0167158
-0.0183023
-0.020779
-0.0236296
-0.0277028
-0.0325221
-0.0392649
-0.0472675
-0.0542067
-0.055319
-0.00807948
-0.015863
-0.0170787
-0.019893
-0.0246348
-0.0255292
-0.026583
-0.0187674
-0.016438
-0.0157949
-0.017339
-0.0193397
-0.0229252
-0.0272926
-0.0334097
-0.0389274
-0.0430914
-0.0439411
-0.0430171
-0.040848
-0.00298052
-0.00916237
-0.0125611
-0.014556
-0.0206648
-0.0275209
-0.0327589
-0.0258091
-0.024632
-0.0236696
-0.0252733
-0.0262579
-0.0278292
-0.0289092
-0.0304176
-0.0317067
-0.0332303
-0.0347632
-0.0366994
-0.0389197
-0.00897635
-0.00796325
-0.0115453
-0.0159944
-0.0180987
-0.0199344
-0.0225776
-0.0233623
-0.0272619
-0.0282061
-0.0300144
-0.0285105
-0.0276401
-0.0262459
-0.0261754
-0.0266565
-0.027798
-0.029214
-0.0308478
-0.0328014
-0.00473904
-0.00581104
-0.00891322
-0.0117891
-0.013771
-0.0179755
-0.0223552
-0.0270022
-0.0329811
-0.0365547
-0.0389356
-0.036607
-0.0331189
-0.0282808
-0.0255346
-0.0239029
-0.023484
-0.0230458
-0.0231574
-0.0240485
-0.00397052
-0.00390071
-0.00499917
-0.00794323
-0.0115683
-0.0154673
-0.0224214
-0.0283128
-0.0369231
-0.0436846
-0.0482799
-0.0481131
-0.0430858
-0.035824
-0.0310697
-0.027359
-0.0244057
-0.0216676
-0.0200092
-0.0196445
-0.00831568
-0.00891361
-0.00892056
-0.0140499
-0.0228711
-0.0254767
-0.0288882
-0.0360602
-0.0440835
-0.0529441
-0.055977
-0.0558324
-0.0486978
-0.0372478
-0.01936
-0.0163266
-0.0151099
-0.0147968
-0.0151912
-0.0161152
-0.00163321
-0.00528849
-0.00913089
-0.014907
-0.0261575
-0.0307625
-0.0350923
-0.0462091
-0.0619548
-0.0691042
-0.0572304
-0.0460273
-0.0412771
-0.0364527
-0.0242607
-0.0187841
-0.0182301
-0.017429
-0.0168606
-0.016916
-0.00271226
-0.00814675
-0.00825848
-0.0110733
-0.0178404
-0.0252116
-0.036709
-0.0483823
-0.0546554
-0.0567928
-0.0409426
-0.025689
-0.0266999
-0.0306102
-0.0273307
-0.0193371
-0.017755
-0.0165857
-0.016151
-0.0164267
-0.00188985
-0.0101673
-0.00777046
-0.00851147
-0.0112536
-0.0137728
-0.0185088
-0.0277527
-0.0416432
-0.0583306
-0.052952
-0.0345047
-0.028513
-0.0321791
-0.0280162
-0.0165332
-0.0151995
-0.0150506
-0.0159642
-0.0174932
-0.00487516
-0.0109128
-0.011401
-0.0109691
-0.013698
-0.0160059
-0.0212759
-0.031659
-0.0521395
-0.0641055
-0.0358546
-0.0259078
-0.0284952
-0.0297873
-0.0207817
-0.0140831
-0.0141963
-0.0154632
-0.0175564
-0.0199486
-0.00363945
-0.0156841
-0.0132181
-0.011965
-0.0125142
-0.0173576
-0.0223256
-0.0418581
-0.0564499
-0.0385031
-0.0178523
-0.0132657
-0.0141973
-0.015479
-0.0134203
-0.0132883
-0.0142787
-0.0164211
-0.0192924
-0.0222144
-0.00201361
-0.0102494
-0.0103385
-0.0102002
-0.0135567
-0.0210784
-0.0317187
-0.0407524
-0.0379089
-0.0323471
-0.0283375
-0.0273223
-0.0257566
-0.02304
-0.0200075
-0.0175636
-0.0173063
-0.0192386
-0.022479
-0.0256334
-0.00793421
-0.0110757
-0.0104666
-0.0125841
-0.0150683
-0.0201189
-0.0274827
-0.027628
-0.0281694
-0.0267512
-0.027159
-0.027146
-0.0272469
-0.0265472
-0.0252141
-0.0234535
-0.0228718
-0.0244257
-0.0280345
-0.0316844
-0.0072745
-0.0123172
-0.0117677
-0.0129969
-0.0133531
-0.013555
-0.0171156
-0.0170427
-0.0185223
-0.0190855
-0.0205574
-0.021759
-0.0233411
-0.0248031
-0.0266317
-0.0281162
-0.029632
-0.0318591
-0.0359827
-0.0404649
-0.0109988
-0.0121716
-0.0121882
-0.013091
-0.0111258
-0.0116399
-0.012629
-0.0136964
-0.0155277
-0.0169594
-0.0184339
-0.019312
-0.0203754
-0.0218343
-0.0244834
-0.0276113
-0.03122
-0.0353386
-0.040669
-0.0459973
-0.00908842
-0.00925139
-0.00971124
-0.00891652
-0.0111087
-0.0121512
-0.0150482
-0.0163143
-0.018814
-0.021164
-0.0234016
-0.0238532
-0.0232199
-0.0222951
-0.0223358
-0.0228837
-0.0246511
-0.0280419
-0.032827
-0.0382018
-0.00901026
-0.0116493
-0.0136876
-0.0119165
-0.0115089
-0.0113371
-0.0137117
-0.0173451
-0.0225294
-0.0273063
-0.031683
-0.0327425
-0.0306624
-0.0269524
-0.0251241
-0.0256285
-0.027514
-0.0294425
-0.0307021
-0.0309548
-0.00287493
-0.0067826
-0.00713154
-0.00550052
-0.00550444
-0.00771149
-0.013568
-0.0212903
-0.0310437
-0.0402589
-0.048318
-0.0513739
-0.0463445
-0.0355454
-0.026905
-0.0229152
-0.0224074
-0.0234033
-0.0247453
-0.0258322
-0.0278806
-0.0208438
-0.0204158
-0.0204548
-0.0224324
-0.0262664
-0.0290833
-0.0279679
-0.0248276
-0.0215996
-0.0198845
-0.0193758
-0.0198027
-0.020011
-0.0203403
-0.019923
-0.0193826
-0.0190072
-0.0194746
-0.0203614
-0.0235733
-0.0120246
-0.0230517
-0.0272104
-0.0201492
-0.0193029
-0.0157451
-0.0137328
-0.0133276
-0.0133154
-0.0139259
-0.014356
-0.0147913
-0.014904
-0.0152129
-0.0156512
-0.0166353
-0.0174303
-0.0182406
-0.0182007
-0.0230081
-0.0177451
-0.0173612
-0.0166369
-0.0153275
-0.0138931
-0.0125468
-0.0107406
-0.0104559
-0.0105995
-0.0111531
-0.0117541
-0.0126666
-0.0136176
-0.0150441
-0.0160979
-0.0170972
-0.0176224
-0.0183706
-0.0193066
-0.00892518
-0.0112947
-0.0124007
-0.0136026
-0.0153884
-0.0146591
-0.0144693
-0.0123283
-0.012255
-0.0121913
-0.0127543
-0.0132427
-0.014085
-0.0148802
-0.0159828
-0.0170618
-0.0182924
-0.0194135
-0.0206138
-0.0219094
-0.00187174
-0.00493566
-0.00924123
-0.0121513
-0.0123827
-0.0125692
-0.013337
-0.0130725
-0.0138263
-0.0136509
-0.0140186
-0.0139452
-0.0143331
-0.0149002
-0.0157922
-0.0168046
-0.0178121
-0.0187588
-0.0196232
-0.0205778
-0.00382361
-0.00513172
-0.00816377
-0.0105155
-0.0117001
-0.0132291
-0.0150993
-0.0153342
-0.0163373
-0.016209
-0.0160346
-0.0150167
-0.0142548
-0.013884
-0.0139982
-0.0144396
-0.0149721
-0.0155873
-0.0162894
-0.0171616
-0.00367736
-0.00414984
-0.00535021
-0.00858882
-0.0116195
-0.0136976
-0.016991
-0.0177769
-0.0193288
-0.0205765
-0.0200373
-0.0182688
-0.015591
-0.013643
-0.0128027
-0.0125738
-0.0127813
-0.0133012
-0.0141454
-0.015256
-0.0181992
-0.00874297
-0.00996963
-0.0151582
-0.0197146
-0.0197611
-0.0213581
-0.0236244
-0.0258976
-0.0278339
-0.0257868
-0.0215312
-0.0160846
-0.0120427
-0.00901662
-0.00922933
-0.00992481
-0.0110389
-0.0124416
-0.0140263
-0.00412341
-0.00522755
-0.00810094
-0.0149514
-0.022266
-0.0238897
-0.0248151
-0.032559
-0.0392444
-0.031747
-0.0207188
-0.0163109
-0.0134275
-0.0102712
-0.00795646
-0.00872826
-0.00967261
-0.0108596
-0.0123227
-0.0139551
-0.00478311
-0.00633653
-0.00760769
-0.0122751
-0.0175204
-0.0226533
-0.0282402
-0.030485
-0.0282703
-0.0220146
-0.0124407
-0.010491
-0.0108791
-0.0107004
-0.00898655
-0.0091623
-0.0102697
-0.0115486
-0.0130409
-0.0145935
-0.0032317
-0.00530056
-0.00583249
-0.00775168
-0.0111209
-0.0140888
-0.0180215
-0.0213695
-0.0246806
-0.0266349
-0.0179704
-0.013654
-0.0133079
-0.0117677
-0.00830665
-0.0094707
-0.0108583
-0.012399
-0.0140056
-0.0155469
-0.00296292
-0.00741088
-0.00703483
-0.00812782
-0.0118494
-0.0141263
-0.0171127
-0.0219133
-0.0283502
-0.0205566
-0.0118693
-0.0113071
-0.010956
-0.00969758
-0.0081413
-0.01007
-0.0114789
-0.0129911
-0.0145287
-0.0160894
-0.00236079
-0.00698662
-0.00811929
-0.00832636
-0.0103242
-0.0127822
-0.0157536
-0.0224303
-0.0182483
-0.00956632
-0.00675547
-0.00675163
-0.0072118
-0.00777782
-0.00931463
-0.0103896
-0.011606
-0.0129278
-0.0143
-0.0158683
-0.00808366
-0.00819644
-0.00759842
-0.0087089
-0.0106259
-0.0128098
-0.0145797
-0.0150913
-0.0116239
-0.0102513
-0.00928909
-0.00939085
-0.00948865
-0.00976504
-0.0102678
-0.0110259
-0.0120317
-0.0131296
-0.0142786
-0.0156185
-0.0143571
-0.00919429
-0.00911155
-0.0100204
-0.0104707
-0.0117259
-0.0126648
-0.0120636
-0.011341
-0.010851
-0.0106059
-0.0106395
-0.0109684
-0.0114448
-0.0120674
-0.012809
-0.0136744
-0.0145828
-0.0155243
-0.0164527
-0.0107772
-0.00692885
-0.00832356
-0.00892585
-0.00905355
-0.00951304
-0.010476
-0.0105243
-0.0107127
-0.0108157
-0.0110803
-0.011542
-0.0123177
-0.0133136
-0.0145005
-0.0155912
-0.0165874
-0.0174455
-0.0184704
-0.019183
-0.00888359
-0.0088869
-0.00882758
-0.00864889
-0.00841333
-0.00917744
-0.00988099
-0.0102846
-0.0106677
-0.0109118
-0.0113256
-0.0119926
-0.013133
-0.0146299
-0.0163837
-0.0180399
-0.0194672
-0.0205775
-0.0216564
-0.0221979
-0.00743179
-0.00775714
-0.00798745
-0.00788343
-0.00907105
-0.00998576
-0.0114923
-0.0121601
-0.0130109
-0.0132529
-0.0133695
-0.0133653
-0.0138831
-0.0149345
-0.0164346
-0.0179698
-0.0193294
-0.0203496
-0.0211784
-0.0218343
-0.00394186
-0.00651991
-0.00910159
-0.00776951
-0.00850998
-0.00982705
-0.0121337
-0.0143612
-0.0168735
-0.0180977
-0.0184337
-0.0173293
-0.0161577
-0.0157551
-0.0162082
-0.0167142
-0.0170898
-0.0174394
-0.0180789
-0.0192902
-0.00410875
-0.00558136
-0.0055206
-0.00515353
-0.00566374
-0.00707489
-0.010383
-0.014911
-0.0206334
-0.0251625
-0.0277435
-0.0261853
-0.0218804
-0.0171287
-0.0148435
-0.0144732
-0.0149222
-0.0158062
-0.0172505
-0.0195701
-0.046152
-0.0331965
-0.0231189
-0.0177452
-0.0177012
-0.0195982
-0.0199542
-0.0175318
-0.0149596
-0.0128022
-0.0119301
-0.0118557
-0.0122868
-0.0125483
-0.0128538
-0.0127717
-0.01269
-0.0125838
-0.0127917
-0.0131147
-0.00955635
-0.0155266
-0.0197593
-0.0179162
-0.013871
-0.012491
-0.0112358
-0.0102227
-0.0100726
-0.010067
-0.0105822
-0.0114029
-0.0125952
-0.014024
-0.015616
-0.0172948
-0.0189483
-0.0205549
-0.0219375
-0.0230777
-0.0218436
-0.0243428
-0.0185173
-0.0134814
-0.0104861
-0.00934013
-0.00868849
-0.00866382
-0.0091402
-0.00983316
-0.0107927
-0.011835
-0.0129616
-0.0140575
-0.0150655
-0.0159501
-0.0166729
-0.0172666
-0.0177409
-0.0181449
-0.0105662
-0.0148376
-0.0131741
-0.0113419
-0.00986818
-0.00907337
-0.00899885
-0.0092147
-0.00981681
-0.0105166
-0.0113203
-0.0121454
-0.0129639
-0.0137633
-0.0145132
-0.0152238
-0.0159003
-0.016544
-0.017208
-0.0178563
-0.00186027
-0.00787959
-0.0100929
-0.00973114
-0.00883888
-0.00865457
-0.00880158
-0.00924734
-0.00981376
-0.0104829
-0.0111569
-0.0118829
-0.0126069
-0.0133605
-0.0141277
-0.014905
-0.0157276
-0.0165642
-0.0174625
-0.0182926
-0.00279747
-0.00559069
-0.00735949
-0.00862641
-0.00872755
-0.00885879
-0.00895172
-0.00939563
-0.00978912
-0.0104564
-0.0109899
-0.0116657
-0.0123375
-0.0131377
-0.0139862
-0.0149183
-0.0159025
-0.0169496
-0.0179955
-0.0189087
-0.00291662
-0.00480656
-0.00716175
-0.00863039
-0.00904814
-0.00914104
-0.00918535
-0.00956076
-0.00980482
-0.0106894
-0.0109481
-0.0114856
-0.0119985
-0.0127515
-0.0135675
-0.0145254
-0.0155136
-0.0166071
-0.0176424
-0.0185549
-0.0133492
-0.00910946
-0.00921503
-0.0102798
-0.00980355
-0.00991041
-0.00986065
-0.0101785
-0.0100697
-0.0106152
-0.0102839
-0.0102613
-0.0105523
-0.0111645
-0.012937
-0.0137855
-0.0146369
-0.0155351
-0.0163876
-0.0171569
-0.00743658
-0.00918577
-0.00951718
-0.0104505
-0.0102004
-0.0111704
-0.0105526
-0.0115235
-0.0106345
-0.0087836
-0.00836016
-0.00830098
-0.00864902
-0.00926141
-0.0107086
-0.0127548
-0.0135055
-0.0142639
-0.0149968
-0.0156591
-0.00821613
-0.00661486
-0.00851612
-0.0101708
-0.0102913
-0.0111085
-0.0119837
-0.0102351
-0.00835795
-0.00715147
-0.00669853
-0.00675963
-0.00737045
-0.00847091
-0.0107242
-0.0126566
-0.0133024
-0.013941
-0.0145963
-0.0152006
-0.00152806
-0.00520565
-0.00699968
-0.00837603
-0.00921582
-0.00939666
-0.00909374
-0.00838844
-0.00826568
-0.00796071
-0.00705537
-0.00680957
-0.00740645
-0.00850478
-0.0108202
-0.0131566
-0.0139579
-0.0146541
-0.015373
-0.0159929
-0.00344986
-0.00597948
-0.00662622
-0.00764659
-0.00808985
-0.00811648
-0.00781326
-0.00709091
-0.00660116
-0.00625685
-0.00618544
-0.00641581
-0.00720695
-0.00853439
-0.0113039
-0.0146487
-0.0156554
-0.0164981
-0.0173457
-0.0179544
-0.00578703
-0.009009
-0.00788173
-0.00732135
-0.00737614
-0.00705465
-0.0071814
-0.00709303
-0.00621642
-0.00635022
-0.00708334
-0.00803913
-0.00920605
-0.0105978
-0.0146254
-0.0161065
-0.0175062
-0.0188173
-0.0200377
-0.0209084
-0.0112332
-0.00864005
-0.00776903
-0.00721534
-0.00684761
-0.00678873
-0.00639257
-0.0068267
-0.00699137
-0.00776089
-0.00874818
-0.00993899
-0.0113554
-0.0129496
-0.0146994
-0.0165586
-0.0184212
-0.0202199
-0.0218925
-0.0232121
-0.00785761
-0.00811211
-0.00852679
-0.00765351
-0.00675527
-0.00672005
-0.00638682
-0.00670466
-0.00712805
-0.0078785
-0.00883936
-0.0100477
-0.0114625
-0.0130952
-0.0149002
-0.016849
-0.0188572
-0.0208021
-0.022555
-0.023945
-0.0115465
-0.00520979
-0.00688931
-0.0069081
-0.00666807
-0.0068063
-0.00684204
-0.00728559
-0.00782195
-0.00863806
-0.00956342
-0.0106971
-0.012007
-0.0135269
-0.0152505
-0.0171494
-0.0191529
-0.0211465
-0.0229241
-0.0243402
-0.00916009
-0.00690614
-0.00681248
-0.00672959
-0.0068609
-0.00718772
-0.00745611
-0.00799454
-0.00873374
-0.00960111
-0.0105713
-0.0116113
-0.0127854
-0.0141152
-0.0156694
-0.0174458
-0.0194391
-0.0215862
-0.0237407
-0.0256605
-0.0126939
-0.00657173
-0.00670323
-0.00685557
-0.00752117
-0.00770157
-0.00819274
-0.00841534
-0.00908864
-0.00988887
-0.0108698
-0.0119058
-0.0130197
-0.0141728
-0.0154393
-0.0168644
-0.0185058
-0.0203899
-0.0224364
-0.0244344
-0.0188444
-0.00792198
-0.00664598
-0.00641024
-0.00739429
-0.00828278
-0.0092177
-0.00973606
-0.0101775
-0.0103402
-0.0108053
-0.0115931
-0.0128134
-0.0142846
-0.0159633
-0.0177712
-0.0197058
-0.0217499
-0.0237816
-0.0257374
-0.0244109
-0.00791415
-0.00446025
-0.00395765
-0.00473749
-0.00620149
-0.00884716
-0.0107442
-0.0124322
-0.0121627
-0.0118707
-0.0108679
-0.0108418
-0.0114932
-0.0132476
-0.0159242
-0.0193964
-0.0235563
-0.0281835
-0.0330642
-0.046844
-0.0566522
-0.0551898
-0.0309129
-0.0207272
-0.0353287
-0.027394
-0.0275328
-0.0511873
-0.0355368
-0.0179267
-0.0139295
-0.0241416
-0.0175995
-0.0568278
-0.064335
-0.0493971
-0.0362053
-0.0279719
-0.0332248
-0.0210687
-0.0386392
-0.0430652
-0.032207
-0.0246471
-0.0184209
-0.0186804
-0.016101
-0.100724
-0.104454
-0.100654
-0.102014
-0.0978157
-0.101796
-0.0997143
-0.0965382
-0.0997029
-0.0989988
-0.0971578
-0.0957859
-0.0991365
-0.0980543
-0.0972158
-0.0997784
-0.101574
-0.0956575
-0.0975701
-0.097958
-0.0961958
-0.105141
-0.101507
-0.104956
-0.0990511
-0.101271
-0.0963218
-0.100092
-0.102378
-0.10731
-0.110432
-0.0998934
-0.0935272
-0.0991476
-0.0875877
-0.0958303
-0.109147
-0.102667
-0.0925849
-0.0963224
-0.084544
-0.0827082
-0.104148
-0.100881
-0.0999077
-0.0995735
-0.115396
-0.0841265
-0.0960102
-0.137235
-0.101389
-0.112251
-0.123756
-0.149806
-0.103048
-0.127597
-0.105124
-0.110706
-0.102618
-0.107913
-0.103532
-0.104634
-0.0844878
-0.102466
-0.101162
-0.0973465
-0.102227
-0.0970859
-0.0783079
-0.0637837
-0.100283
-0.0958626
-0.0914019
-0.0941018
-0.0867892
-0.0609106
-0.064944
-0.102515
-0.0903799
-0.097993
-0.0877958
-0.0971539
-0.0708386
-0.091049
-0.111443
-0.102239
-0.111512
-0.098604
-0.0882757
-0.0968386
-0.100723
-0.105811
-0.113203
-0.113568
-0.0837402
-0.0777128
-0.0963617
-0.0805542
-0.101911
-0.112621
-0.109556
-0.0783511
-0.0893057
-0.0780702
-0.0828586
-0.110124
-0.108936
-0.110027
-0.0963755
-0.121146
-0.0880881
-0.108388
-0.0885073
-0.0873004
-0.0812738
-0.0792045
-0.0646409
-0.0691472
-0.0561622
-0.0865882
-0.0798613
-0.077011
-0.0607594
-0.0528085
-0.0536111
-0.0533551
-0.0845093
-0.0764872
-0.0792034
-0.0519941
-0.0625086
-0.0564579
-0.0743845
-0.0984037
-0.084756
-0.110149
-0.069971
-0.0926251
-0.0828785
-0.108989
-0.112192
-0.116341
-0.122239
-0.0988873
-0.106237
-0.114639
-0.119074
-0.114648
-0.121357
-0.117067
-0.10393
-0.0898598
-0.117954
-0.113455
-0.111928
-0.11597
-0.114373
-0.0866893
-0.088116
-0.112385
-0.112446
-0.111358
-0.114217
-0.114382
-0.0920402
-0.108501
-0.113723
-0.118506
-0.0832208
-0.0937622
-0.0888975
-0.0835514
-0.0709649
-0.0915229
-0.088779
-0.0783906
-0.0877366
-0.0858195
-0.0679175
-0.0676665
-0.088302
-0.0890366
-0.0821642
-0.085893
-0.0964646
-0.0703261
-0.0835501
-0.0901326
-0.104522
-0.116897
-0.107424
-0.147914
-0.091331
-0.117049
-0.115957
-0.143052
-0.127958
-0.155105
-0.15301
-0.121335
-0.119016
-0.141539
-0.11279
-0.119712
-0.147599
-0.130999
-0.116256
-0.112068
-0.103545
-0.0932265
-0.114372
-0.125869
-0.115083
-0.112157
-0.114473
-0.0937437
-0.0973925
-0.114051
-0.112588
-0.107661
-0.115591
-0.117579
-0.0982041
-0.0992489
-0.0497657
-0.0557116
-0.0684386
-0.0390144
-0.0477276
-0.0452666
-0.0536356
-0.072698
-0.0707317
-0.0789445
-0.0505556
-0.0607295
-0.056641
-0.0652099
-0.0912733
-0.0809055
-0.0822503
-0.0648659
-0.0746203
-0.0671796
-0.0689207
-0.0925338
-0.0831407
-0.0850279
-0.0754774
-0.0703472
-0.0682365
-0.0586778
-0.0830091
-0.0825582
-0.0696729
-0.0672372
-0.0595484
-0.0530481
-0.0398387
-0.0799731
-0.0665072
-0.0623452
-0.0583646
-0.0569121
-0.0380355
-0.0383019
-0.0860586
-0.0627206
-0.072593
-0.056609
-0.056844
-0.0395237
-0.0438365
-0.100603
-0.0789706
-0.09867
-0.0566724
-0.0531972
-0.0447531
-0.0441755
-0.0607214
-0.034728
-0.03414
-0.0402918
-0.0491137
-0.0307734
-0.0324251
-0.0687272
-0.035394
-0.0406648
-0.0523573
-0.0598054
-0.0339152
-0.0402621
-0.0732244
-0.0427323
-0.0539855
-0.0611126
-0.0639123
-0.0433173
-0.0559325
-0.08355
-0.0612037
-0.0834535
-0.0645795
-0.0589841
-0.0600579
-0.0643929
-0.0684446
-0.0874572
-0.0797015
-0.0535941
-0.0377234
-0.0620791
-0.0463833
-0.0576115
-0.073019
-0.0578798
-0.0350037
-0.0342587
-0.0412872
-0.0336277
-0.0688268
-0.0563239
-0.0631476
-0.0355654
-0.0406811
-0.0336931
-0.0383494
-0.096045
-0.0687513
-0.0880934
-0.0420243
-0.0430639
-0.0403119
-0.0438618
-0.0222177
-0.0167741
-0.0205671
-0.0188699
-0.0239866
-0.017937
-0.0252618
-0.030938
-0.0226925
-0.0323538
-0.0265339
-0.0366334
-0.0288464
-0.0431796
-0.0512308
-0.0375432
-0.0675256
-0.0410495
-0.056763
-0.049137
-0.0671492
-0.0860848
-0.0787661
-0.0989338
-0.0614137
-0.0661185
-0.0707352
-0.0609301
-0.0860306
-0.0987279
-0.0860611
-0.0637271
-0.0493414
-0.0541986
-0.041142
-0.0637814
-0.0818807
-0.0759962
-0.0448285
-0.0372057
-0.0396268
-0.0397761
-0.0653289
-0.0760621
-0.0807011
-0.0367815
-0.0398247
-0.0405575
-0.0428802
-0.0860884
-0.0831401
-0.088559
-0.0413571
-0.0439539
-0.0432185
-0.0418732
-0.0271582
-0.0332333
-0.0408627
-0.0247133
-0.0301598
-0.0271426
-0.035811
-0.039417
-0.0433162
-0.0635638
-0.0333876
-0.0474726
-0.0407744
-0.0590654
-0.0775091
-0.0723991
-0.100147
-0.053284
-0.0709506
-0.0653558
-0.0757577
-0.101461
-0.109333
-0.0980803
-0.0728724
-0.0548638
-0.0704864
-0.0400044
-0.0756151
-0.0817948
-0.0455383
-0.0469328
-0.0345008
-0.0325339
-0.0223728
-0.0683095
-0.0405919
-0.0384981
-0.0336604
-0.0355993
-0.021731
-0.0234256
-0.0780384
-0.0401267
-0.0476802
-0.0367667
-0.0393651
-0.0243878
-0.0265594
-0.0842687
-0.0505661
-0.0564227
-0.0395978
-0.0380757
-0.0270128
-0.027648
-0.0430171
-0.041475
-0.0501117
-0.0346457
-0.0407956
-0.0400043
-0.0445919
-0.0579354
-0.0527712
-0.0596968
-0.0426302
-0.0471039
-0.0450375
-0.0435231
-0.0694079
-0.0610705
-0.0609999
-0.0480341
-0.0454397
-0.0421262
-0.0349082
-0.0609333
-0.0592414
-0.0460696
-0.0423276
-0.0323996
-0.0314135
-0.0206916
-0.0480429
-0.0404998
-0.0295477
-0.0298673
-0.0251087
-0.0181687
-0.0147904
-0.0423863
-0.028205
-0.0283843
-0.024466
-0.0222569
-0.0145871
-0.0145625
-0.0379754
-0.029183
-0.0314317
-0.0210498
-0.0175512
-0.0144713
-0.0138078
-0.0307787
-0.0316888
-0.0308848
-0.016355
-0.0133789
-0.0135215
-0.0127949
-0.0458094
-0.0273837
-0.0314506
-0.0359154
-0.0412362
-0.026651
-0.0282934
-0.0536355
-0.0332123
-0.0395894
-0.0416305
-0.0396138
-0.0286786
-0.0305515
-0.0569362
-0.0425085
-0.0536421
-0.0384093
-0.0335602
-0.0317407
-0.0347781
-0.0475914
-0.0552992
-0.0558461
-0.0488613
-0.0559
-0.0460235
-0.049042
-0.0292992
-0.0353005
-0.0443781
-0.0314845
-0.0381951
-0.0271148
-0.0343346
-0.0256967
-0.0310272
-0.0255229
-0.0136683
-0.0138842
-0.0166584
-0.0161971
-0.0299185
-0.0258359
-0.0295513
-0.0139812
-0.0139893
-0.0163171
-0.0164312
-0.0311644
-0.0309046
-0.0331327
-0.0139017
-0.0134601
-0.0162126
-0.0147127
-0.0250432
-0.0179154
-0.0258847
-0.0190968
-0.0244437
-0.0188995
-0.0257719
-0.0375239
-0.0293687
-0.0430925
-0.0258621
-0.0301101
-0.0278917
-0.0344064
-0.0552409
-0.0488998
-0.0635857
-0.031877
-0.0356181
-0.0363746
-0.0366657
-0.0537127
-0.0597391
-0.0607423
-0.0516157
-0.0616945
-0.0517765
-0.0544944
-0.0376706
-0.0482374
-0.0527703
-0.0435083
-0.0477417
-0.0401062
-0.0421263
-0.0286119
-0.0310887
-0.0314155
-0.0175867
-0.0170385
-0.0160243
-0.0161465
-0.0311031
-0.0320264
-0.0333373
-0.017064
-0.0166743
-0.0160276
-0.0149636
-0.0336201
-0.0332355
-0.0307314
-0.0162533
-0.014282
-0.0143977
-0.0125749
-0.028341
-0.0214938
-0.0304431
-0.022051
-0.0281591
-0.0215563
-0.0294245
-0.0460711
-0.0357464
-0.0544728
-0.0301564
-0.0360053
-0.0322291
-0.0363301
-0.0654304
-0.059871
-0.0620752
-0.0375679
-0.0345462
-0.0353106
-0.0237103
-0.0427252
-0.0541595
-0.0256899
-0.0298478
-0.0172871
-0.0185568
-0.010541
-0.0263513
-0.0198643
-0.0138612
-0.0154089
-0.0140666
-0.0097774
-0.00943812
-0.0276662
-0.0137909
-0.015288
-0.0141902
-0.0145627
-0.00954581
-0.00986072
-0.0299093
-0.01597
-0.0178642
-0.0144908
-0.0136554
-0.00990413
-0.00990429
-0.0276976
-0.0183232
-0.01853
-0.0132021
-0.0118415
-0.00989117
-0.00986596
-0.0298291
-0.0301076
-0.0337982
-0.0222545