/*--------------------------------*- C++ -*----------------------------------*\
  =========                 |
  \\      /  F ield         | OpenFOAM: The Open Source CFD Toolbox
   \\    /   O peration     | Website:  https://openfoam.org
    \\  /    A nd           | Version:  10
     \\/     M anipulation  |
\*---------------------------------------------------------------------------*/
FoamFile
{
    format      ascii;
    class       volVectorField;
    location    "5.5";
    object      U;
}
// * * * * * * * * * * * * * * * * * * * * * * * * * * * * * * * * * * * * * //

dimensions      [0 1 -1 0 0 0 0];

internalField   nonuniform List<vector> 
12920
(
(77.1005 -118.758 43.1286)
(77.1228 -12.0601 -12.3871)
(154.438 8.58806 -10.9616)
(69.5647 25.0064 -5.67567)
(119.365 37.5122 -3.15399)
(75.2985 24.3454 -2.62604)
(103.531 23.6902 -1.15001)
(83.6325 8.27956 -0.183138)
(99.9851 3.61662 0.323491)
(93.7812 -3.53987 0.433952)
(105.606 -5.24821 0.322956)
(106.183 -8.11817 0.111427)
(115.546 -8.48877 -0.114082)
(119.565 -8.96074 -0.61733)
(126.424 -5.13555 -0.111535)
(125.083 -0.853974 0.517555)
(118.039 5.67687 0.522727)
(108.627 7.7315 -0.279012)
(104.701 6.09692 -0.653163)
(102.439 3.53656 -0.631237)
(121.044 -39.3337 57.9252)
(-63.8352 9.09251 9.1283)
(119.858 -5.38323 -0.106448)
(-49.7829 -1.76227 8.33556)
(94.422 -9.30153 5.80225)
(7.26924 -11.5785 4.88224)
(76.7607 -16.397 4.1297)
(37.6395 -14.8048 1.71757)
(70.3803 -12.6358 0.472276)
(53.1254 -10.2648 -0.641208)
(70.0067 -6.89783 -1.34092)
(63.7676 -4.86857 -1.94072)
(73.7193 -2.31303 -2.19335)
(72.3896 -0.0796696 -2.3901)
(78.5824 1.9329 -2.27764)
(80.7672 4.73702 -2.22887)
(85.9505 5.47356 -0.781476)
(86.6601 4.45409 0.416116)
(86.9765 1.08107 1.20946)
(84.7931 -1.80653 1.11855)
(77.696 -124.688 44.166)
(-70.3985 -47.5458 -0.653288)
(128.528 -50.716 -9.20869)
(33.2101 -17.5367 -3.10772)
(111.997 -30.2536 -2.38187)
(63.0372 -9.24593 -1.04852)
(90.2603 -15.5541 1.53489)
(53.7991 -4.20973 0.450121)
(70.5435 -6.7909 0.496963)
(52.1489 -1.43993 -0.401497)
(65.6062 -2.70984 -0.413587)
(58.0505 -0.313009 -0.530321)
(67.0476 -0.609074 -0.351319)
(64.6115 1.01923 -0.199855)
(69.9473 1.62935 0.0189035)
(69.7419 3.06309 0.347962)
(72.7203 3.5426 0.581922)
(73.1592 3.17547 0.712712)
(73.8898 0.969796 0.691766)
(73.1997 -1.84197 0.353042)
(336.435 24.3567 -92.3283)
(138.813 -11.8268 13.339)
(155.904 -33.8939 15.6886)
(73.4555 2.72464 0.216472)
(106.131 -7.42608 -3.187)
(61.6836 1.41026 -1.86704)
(84.2928 -7.80544 2.1331)
(42.9345 -3.62371 0.889406)
(62.7589 -8.83072 1.00296)
(41.7186 -5.0202 0.124408)
(58.7489 -7.18118 0.070727)
(50.1706 -4.11545 0.122196)
(59.9843 -4.59736 0.197798)
(57.0237 -2.18156 0.227598)
(61.9426 -2.17912 0.273896)
(61.7414 -0.960141 0.188644)
(64.5931 -1.30888 0.174935)
(66.2158 -1.37876 0.107082)
(68.1272 -3.17118 0.0795906)
(69.5369 -4.6618 0.0589345)
(37.0033 -8.19825 -67.3361)
(0.496111 85.1712 -26.3926)
(123.019 58.1355 -9.33625)
(44.6418 32.468 1.79581)
(105.941 17.6559 2.37441)
(59.4799 11.0112 1.85704)
(85.4264 0.870796 1.66459)
(57.3682 7.03439 0.288222)
(73.3355 -5.48996 0.28011)
(58.9729 -0.234562 0.115065)
(70.3925 -8.80363 0.350722)
(63.4279 -4.05232 0.326133)
(70.4161 -7.20652 0.439657)
(67.1767 -2.84818 0.213525)
(70.4323 -3.26396 0.138142)
(69.272 -0.882667 0.027523)
(70.9294 -1.47418 0.00734026)
(70.9048 -1.39737 0.00262542)
(71.6854 -3.22164 0.0161289)
(71.8275 -5.0902 0.00194045)
(12.4507 11.0344 -147.678)
(-142.665 30.9762 -21.6936)
(94.02 -7.96888 -10.2531)
(-22.7848 -1.8138 1.87383)
(90.1687 -17.6614 -0.773383)
(13.1546 3.45564 0.633447)
(76.9317 -7.68604 -0.84216)
(46.0782 2.13152 -0.301168)
(71.8254 -7.85936 -1.00098)
(62.3137 -5.89555 -0.329274)
(74.1136 -12.102 0.0515296)
(69.4547 -9.02915 0.549608)
(74.6269 -10.1911 0.986374)
(71.7315 -4.88694 0.772114)
(72.4573 -4.70086 0.523793)
(70.9875 -2.35252 0.158082)
(70.932 -2.92127 0.179357)
(70.8162 -2.90656 0.116386)
(71.1299 -4.75419 0.09877)
(71.9851 -6.44411 0.0957548)
(58.0032 183.96 -18.1526)
(-24.3691 83.7358 5.71754)
(142.577 34.4127 0.772246)
(95.9699 7.19219 -1.58079)
(129.935 5.52883 -2.60299)
(95.4386 10.0223 -2.24732)
(108.716 -17.1045 -2.79061)
(93.0485 8.83121 -1.73748)
(104.93 -11.9384 -1.6958)
(101.488 -4.06059 -0.383362)
(107.73 -15.2589 0.39422)
(100.542 -9.75696 1.75402)
(95.0613 -14.7108 1.86979)
(86.7888 -5.964 1.07305)
(83.0646 -5.01581 0.818498)
(77.8063 -0.821605 0.518977)
(75.852 -2.21655 0.371298)
(74.5292 -2.6146 0.248969)
(75.1098 -5.4458 0.276149)
(76.6861 -7.96174 0.117696)
(68.4255 -126.608 43.7438)
(-64.3486 -51.868 -15.11)
(111.374 2.45072 -9.76352)
(13.5196 2.66536 -3.38433)
(102.8 9.89296 -3.85834)
(66.9409 30.0912 -3.72841)
(96.384 19.3434 -3.21571)
(94.9862 4.56344 -1.87848)
(120.365 7.06397 -1.58075)
(122.161 -13.8807 0.238843)
(130.514 -12.7555 0.552071)
(126.354 -13.7251 0.773545)
(113.407 -10.3696 1.60501)
(89.1614 -7.5181 1.48026)
(72.8901 0.257306 0.351682)
(70.4269 1.09031 0.0370431)
(70.0327 -1.68635 -0.109317)
(73.3675 -4.00215 -0.21421)
(76.2012 -8.97174 -0.0557158)
(78.1629 -10.2726 -0.0182196)
(241.719 -32.2347 -197.06)
(139.299 64.4255 -52.6989)
(213.773 23.0066 -4.91531)
(137.46 3.67788 2.02488)
(146.154 -11.6059 3.97118)
(105.651 12.4214 -2.15203)
(124.061 20.3503 -0.12423)
(111.202 -4.65405 -0.314819)
(108.596 -6.19493 1.2179)
(75.5869 -26.888 0.342402)
(80.1782 -27.2856 -0.103575)
(92.3604 -12.9357 -0.532935)
(94.2594 0.590613 0.0878698)
(87.0849 1.23433 0.225618)
(76.9186 2.76642 0.468752)
(71.1925 1.15347 -0.165472)
(74.1948 -4.52281 -0.23021)
(77.2111 -7.84247 -0.202079)
(78.7604 -10.7513 -0.131238)
(78.0657 -11.3201 -0.0860237)
(280.645 267.601 143.903)
(114.661 151.382 12.4329)
(143.503 103.727 -2.29185)
(59.7633 60.0819 -3.06375)
(94.8375 37.4877 1.28098)
(56.0058 20.8262 0.587381)
(82.0034 15.3914 1.11972)
(85.155 1.5834 0.22016)
(78.0623 -1.09837 -0.578016)
(82.0915 -20.8212 -0.714289)
(81.5022 -26.0394 -0.0694266)
(80.0417 -4.29027 -0.633049)
(82.7605 6.4058 -0.326208)
(81.8708 8.83435 -0.150783)
(75.7332 8.00728 0.322282)
(76.9105 0.308183 -0.453397)
(77.913 -6.62544 -0.214686)
(77.7127 -7.72707 -0.10853)
(76.6971 -9.74013 -0.0902251)
(74.9133 -10.4762 -0.12292)
(127.956 -36.2169 125.366)
(-45.6838 36.007 12.9782)
(124.401 52.1567 -2.50932)
(49.1199 28.2109 -4.3677)
(113.995 12.7167 -4.00533)
(82.3538 6.94992 -2.41198)
(94.5953 1.79004 -0.283594)
(102.542 1.61607 -0.779272)
(104.292 3.66507 -0.900819)
(104.593 -7.50539 0.771322)
(87.5157 -17.8318 0.0870814)
(78.4112 -0.30358 0.112249)
(79.7227 7.80315 -0.19898)
(82.4486 9.99925 -0.0670327)
(79.7311 10.0567 -0.0850991)
(79.5417 -0.0706561 -0.0842971)
(77.7149 -4.28774 0.044669)
(75.8094 -6.20202 -0.147935)
(74.9369 -8.48283 -0.247734)
(73.9589 -10.1856 -0.228591)
(362.041 24.3441 59.141)
(63.425 59.9247 12.2398)
(128.402 90.0618 -2.04157)
(60.2625 57.1784 -4.35921)
(116.872 41.6512 -0.381207)
(76.8052 11.279 -0.374262)
(103.338 5.77808 -0.0567175)
(108.412 11.3428 -0.448779)
(115.388 9.98713 0.0193169)
(97.3481 -8.54635 1.19868)
(77.1824 -7.68142 0.130272)
(73.2617 -0.240471 -0.159126)
(76.2506 6.19604 -0.0382067)
(77.4833 9.6725 -0.0365128)
(78.2049 9.0702 0.127864)
(77.0394 1.37319 0.377172)
(76.7029 -2.99734 0.156745)
(75.9125 -4.27468 -0.183799)
(76.1184 -7.32776 -0.453124)
(76.1788 -9.54159 -0.412052)
(159.37 196.158 -52.5699)
(-13.6368 99.9992 -31.3072)
(152.542 75.38 14.8416)
(90.1082 26.59 3.05698)
(145.26 16.1226 2.56318)
(110.981 -16.6874 -0.123162)
(126.477 6.5629 -0.776454)
(111.067 7.09711 -0.274097)
(105.502 5.11357 1.54949)
(70.9526 2.01041 1.99992)
(65.2116 0.11572 0.38619)
(59.0537 1.49789 -0.0314073)
(65.5971 3.63272 -0.0463004)
(68.8852 5.07058 0.258154)
(71.8473 0.623688 0.708229)
(74.7706 -0.747305 0.467784)
(75.6851 -3.92707 0.0150052)
(77.2786 -4.55296 -0.279397)
(78.4612 -7.17112 -0.469493)
(79.1989 -9.36109 -0.470043)
(211.068 -144.691 -32.0072)
(21.9861 37.9726 36.6541)
(153.547 27.7881 17.4079)
(63.976 20.2379 4.771)
(129.734 32.2949 0.854124)
(83.4415 12.1279 -0.309728)
(103.627 41.3572 0.56099)
(71.6734 6.94089 2.1557)
(81.1831 23.4858 2.08396)
(65.4869 2.57652 0.971758)
(72.3488 6.76686 0.581874)
(68.2916 -2.48716 0.586709)
(73.4018 -0.64747 0.815657)
(73.5164 -4.29202 0.791155)
(76.5741 -3.41657 0.832184)
(78.3923 -4.72043 0.48237)
(80.7589 -5.4641 0.0841443)
(81.8203 -5.57221 -0.108964)
(83.5994 -7.59885 -0.354032)
(83.4301 -8.98298 -0.5004)
(327.701 23.6037 47.1644)
(54.2599 11.2883 17.172)
(154.239 -0.921788 3.27359)
(2.04462 -4.39326 2.98725)
(107.015 13.8137 0.28839)
(24.5642 -2.35312 0.655568)
(91.1749 15.4601 0.162701)
(55.9974 1.82762 0.971924)
(80.3695 5.99155 0.492057)
(71.2332 -3.16164 -0.0938799)
(81.4786 -2.94911 -0.416224)
(80.4848 -7.78051 -0.529276)
(85.8879 -7.75364 -0.383604)
(86.9647 -9.55849 0.187959)
(89.954 -9.01699 0.45518)
(90.8813 -8.33288 0.434987)
(91.9875 -7.74563 0.297299)
(91.8314 -7.03714 0.0460988)
(92.0929 -7.57111 -0.115798)
(89.7215 -7.75455 -0.390402)
(94.0328 126.213 -55.4624)
(-84.9427 93.1309 -5.89561)
(138.612 38.1727 -3.28692)
(29.7917 25.463 1.61753)
(112.556 22.9578 3.0361)
(47.9983 9.34019 0.816525)
(93.5001 17.5399 0.285393)
(65.1736 5.25768 -0.603613)
(88.5539 9.71114 -0.973813)
(77.7936 0.904967 -1.58288)
(89.855 1.67088 -1.65771)
(86.81 -4.52911 -1.7245)
(93.9395 -5.29704 -1.4094)
(94.8065 -10.0115 -0.816551)
(98.939 -9.96951 -0.211242)
(99.0424 -9.72336 0.210527)
(100.514 -7.99553 0.402529)
(99.7561 -6.11126 0.305534)
(100.107 -5.66079 0.194135)
(97.4802 -5.52152 0.00790743)
(61.5828 26.9032 -209.208)
(-194.194 -1.72654 -6.16206)
(84.1881 21.4701 -4.90853)
(-39.3208 6.2719 0.289278)
(103.134 4.90343 -1.0386)
(30.9198 5.46845 1.07745)
(95.0836 4.05482 0.142105)
(65.9931 4.71167 0.0189844)
(93.892 2.05369 -0.763551)
(85.0915 0.456491 -1.48551)
(98.3495 -1.46107 -1.7055)
(96.6325 -5.03994 -2.68785)
(105.402 -8.68371 -2.31299)
(107.316 -12.333 -1.11263)
(110.159 -12.7777 -0.0657255)
(108.529 -12.3767 0.338427)
(107.576 -10.7966 0.564342)
(105.367 -8.66344 0.454204)
(105.587 -7.3003 0.311583)
(103.262 -6.15243 0.219223)
(163.893 121.62 -57.6447)
(80.2744 5.11107 -5.20325)
(183.865 -23.7747 -3.85336)
(120.295 -22.8491 -5.15426)
(177.546 -21.8142 -1.39442)
(149.909 -8.95469 0.0908224)
(164.341 -7.80674 2.35813)
(139.964 -0.713502 1.45959)
(141.837 1.61012 1.07629)
(127.373 3.33033 -0.348201)
(129.418 2.74683 -0.645025)
(122.925 0.796984 -1.10794)
(125.118 -3.66063 -0.275919)
(120.992 -9.93882 0.202224)
(119.856 -10.7857 0.56224)
(114.743 -10.06 0.645363)
(111.725 -8.15479 0.426328)
(107.682 -7.06852 0.231943)
(106.858 -6.52615 0.152559)
(103.939 -5.36076 0.0171702)
(236.935 -104.037 -50.8702)
(187.62 -61.3881 -6.66757)
(214.794 -16.4003 9.38647)
(117.551 -13.1855 3.24493)
(151.708 -5.26794 2.55519)
(116.132 1.09524 0.330134)
(138.13 7.77928 -0.145983)
(119.6 12.6708 -1.35446)
(130.026 13.1034 -0.965474)
(118.596 12.433 -1.04806)
(122.109 8.92335 -0.0373897)
(112.327 3.684 0.0311237)
(114.215 -4.79691 -0.512732)
(113.306 -9.0214 -0.406512)
(114.615 -9.06053 -0.174905)
(112.775 -8.26626 0.123358)
(111.417 -6.25181 0.572452)
(107.738 -5.62604 0.840505)
(105.982 -5.52163 1.03445)
(100.602 -4.35274 0.499695)
(2.48523 89.7821 100.735)
(10.7032 -51.9166 -65.0247)
(227.398 -4.34807 -25.8616)
(124.269 -29.2819 -2.83981)
(171.112 -20.9307 -1.01091)
(129.325 -11.2515 0.512678)
(150.613 -0.614961 2.24837)
(135.887 9.12973 2.58289)
(148.248 13.7006 3.33123)
(143.658 16.4213 3.3239)
(150.408 15.5373 3.42692)
(147.216 13.5356 2.7556)
(147.492 2.93127 1.50664)
(135.657 -7.26869 -0.597431)
(131.03 -8.63956 -1.54439)
(124.858 -8.20137 -2.14473)
(123.127 -5.95214 -1.7819)
(120.213 -5.90643 -1.35788)
(117.032 -5.26779 -0.297765)
(109.119 -2.67605 -0.196417)
(168.255 -128.756 125.774)
(76.3238 2.24968 -17.3853)
(139.535 0.689807 29.9915)
(55.4126 4.1597 -3.41343)
(117.135 14.7955 -1.67851)
(78.6542 7.5274 -2.93774)
(106.543 13.4527 -0.184795)
(86.8075 4.55759 0.671826)
(101.251 3.50674 1.46699)
(93.9755 -1.42755 1.1339)
(104.456 -2.20173 0.820701)
(103.377 -3.30294 0.132411)
(110.727 -2.45069 -0.165725)
(110.676 -1.60788 -0.668802)
(112.693 1.88319 -0.354382)
(107.466 5.84845 0.841422)
(101.154 6.64333 1.8077)
(94.0687 4.25452 0.605594)
(91.8395 0.69021 0.315377)
(90.6703 -1.19795 0.117566)
(29.8933 -51.3303 191.959)
(-55.7213 -2.15467 17.0356)
(90.5106 -16.647 4.9476)
(-67.2495 -5.63659 9.03421)
(85.8727 -15.7413 4.94555)
(-4.66954 -12.0856 7.64806)
(72.1183 -13.5298 5.35528)
(33.9537 -11.0758 2.09293)
(67.5138 -8.901 0.153784)
(50.8055 -7.06077 -1.64615)
(67.1792 -4.29259 -2.63348)
(60.0025 -3.11427 -3.49928)
(68.9676 -1.04333 -3.65217)
(66.142 -0.0717029 -4.02468)
(70.9727 1.46541 -3.34805)
(70.245 2.48985 -2.48505)
(72.6939 2.65638 -0.488075)
(73.0737 1.06566 0.90208)
(74.1544 -1.13711 1.61868)
(73.6479 -2.22431 1.18546)
(21.9331 -72.2474 19.9948)
(-59.486 -33.6268 -13.7674)
(113.619 -40.5761 -10.0486)
(11.067 -13.9312 -2.67255)
(96.0463 -30.6711 -2.19786)
(31.4248 -5.13606 -0.602665)
(74.7721 -13.0137 3.10543)
(37.9056 -0.996954 0.573963)
(62.0252 -5.29517 0.549395)
(43.4455 -0.958426 -0.743912)
(58.4661 -3.1854 -0.783862)
(49.8908 -1.09521 -0.93363)
(59.065 -1.70493 -0.641443)
(55.6254 -0.223395 -0.419693)
(60.9475 0.205968 0.0235047)
(60.2815 1.51776 0.467941)
(63.2936 1.70508 0.877762)
(63.7821 1.3863 0.940854)
(64.9695 -0.217582 0.939984)
(64.7121 -1.64889 0.468167)
(229.637 -134.964 -125.512)
(2.94396 -52.0043 -28.2182)
(130.017 -46.424 -11.2572)
(54.7825 -11.721 -6.58929)
(90.1928 -20.6196 -5.56773)
(27.5359 -5.74421 -2.00772)
(66.8949 -13.1235 3.38028)
(25.763 -4.09434 0.697642)
(55.4454 -9.34098 1.20009)
(34.851 -4.76308 0.150537)
(53.1077 -7.21219 0.16434)
(44.0072 -4.02619 0.181825)
(53.9592 -4.62527 0.23625)
(50.4503 -2.17509 0.239325)
(55.3621 -2.19437 0.272218)
(54.7945 -0.961005 0.275905)
(57.5763 -1.25146 0.335464)
(58.679 -1.23818 0.19079)
(60.3027 -2.56485 0.172604)
(61.1333 -3.33345 0.0560152)
(168.504 -48.1269 148.658)
(18.4777 56.2614 -19.4402)
(106.796 33.9689 -12.0874)
(25.9174 19.2283 3.2044)
(93.4336 9.50969 2.37164)
(38.8986 7.58084 1.93657)
(73.6779 -3.31163 2.05051)
(43.2314 5.20361 0.268222)
(63.0098 -8.43772 0.359082)
(47.1585 -0.937215 0.397236)
(60.1997 -9.24766 0.64879)
(52.3561 -3.3237 0.67866)
(60.0403 -6.6293 0.73093)
(56.172 -2.18842 0.391284)
(59.8 -3.17998 0.270565)
(58.4644 -1.05223 0.0989346)
(60.3664 -1.99346 0.0945988)
(60.57 -1.77126 0.0463605)
(61.7292 -3.33799 0.06455)
(62.0478 -4.03222 -0.0328271)
(58.2139 54.9155 -124.443)
(-78.9359 2.71537 -34.7608)
(76.5149 -8.22773 -21.7228)
(-21.612 -3.82833 1.01225)
(78.6328 -14.1033 -3.91709)
(2.94232 5.62187 0.54608)
(68.2727 -10.887 -2.49157)
(33.4897 1.52347 -0.332719)
(60.2756 -10.3419 -1.24507)
(48.0852 -5.30214 0.262278)
(60.7616 -11.2606 0.530997)
(55.8113 -6.41021 1.30495)
(61.7724 -8.05595 1.51489)
(59.3955 -3.33282 1.20692)
(60.9152 -4.13798 0.808926)
(60.0023 -2.2832 0.298302)
(60.5772 -3.34155 0.302412)
(61.02 -3.2031 0.143619)
(61.8617 -4.78293 0.143525)
(62.6282 -5.20983 0.0903894)
(77.4741 215.488 -72.1735)
(-14.3726 37.9832 -28.2401)
(135.583 21.1071 -15.1765)
(77.6656 2.17513 -4.9851)
(112.361 3.03729 -3.08421)
(71.862 7.65744 -2.14929)
(85.6628 -22.8598 -3.4537)
(65.813 7.91212 -1.80392)
(77.8925 -18.1615 -2.14344)
(71.4035 -5.0985 0.453947)
(79.223 -16.4833 1.4636)
(72.0963 -6.94448 3.12923)
(73.0332 -10.0388 2.79511)
(67.3022 -2.23987 1.58079)
(66.5188 -3.12907 1.21891)
(64.5105 -1.39196 0.686462)
(64.3584 -2.9148 0.549616)
(64.6139 -3.23147 0.325438)
(65.8608 -5.73314 0.36223)
(66.6221 -6.29749 0.119204)
(143.252 -111.073 11.0102)
(-34.7857 -35.6576 -14.1643)
(106.12 3.85253 -8.40776)
(3.25632 -5.19643 -0.539338)
(90.9483 2.12719 -2.01814)
(42.5243 24.5562 -2.23238)
(74.3654 8.02413 -4.46428)
(66.6102 -0.340079 -3.11048)
(89.5582 -3.17277 -1.59865)
(90.2838 -17.574 1.33249)
(99.7973 -13.8534 1.47918)
(91.0772 -11.5884 2.99512)
(81.7435 -5.82756 4.01681)
(69.6961 -3.24701 2.17482)
(62.4013 -0.983382 -0.0055542)
(62.7751 -0.635128 -0.0730232)
(63.423 -3.60211 -0.138111)
(66.1082 -5.08008 -0.241894)
(67.5626 -7.61271 -0.0100075)
(68.1545 -7.59713 -0.0485368)
(370.703 -52.9264 -110.516)
(36.8217 -29.2361 -67.564)
(156.602 -34.3794 -14.8303)
(79.69 -16.8618 -0.412325)
(114.799 -24.8728 3.0316)
(92.7654 -3.29442 -0.379348)
(106.464 8.67761 -0.2865)
(90.3474 -11.4694 0.188162)
(92.7331 -12.5919 4.66685)
(85.8504 -19.7565 5.09279)
(85.9625 -15.457 -0.101819)
(82.6987 -5.41326 -2.10461)
(76.6708 1.67673 0.542365)
(70.26 1.7132 0.887384)
(66.7308 0.36092 0.411987)
(65.4972 -2.75578 -0.568958)
(67.3666 -6.14592 -0.334678)
(68.5304 -7.62505 -0.226007)
(69.159 -8.92395 -0.176139)
(68.2212 -8.539 -0.184669)
(258.454 239.769 -26.1268)
(146.581 74.9861 19.3331)
(150.298 52.6448 17.2818)
(54.79 36.7472 1.95821)
(81.288 23.2625 2.15665)
(51.1806 11.6434 -0.447445)
(76.2598 8.42042 2.32987)
(80.301 -3.30188 1.25578)
(76.3243 -5.50673 -0.516767)
(73.475 -16.9201 -1.21042)
(73.4728 -14.9783 -0.184699)
(71.9112 -1.38255 -2.05026)
(70.5759 5.47473 -0.96051)
(69.3125 6.3456 -0.194003)
(68.7598 3.25243 -0.0706352)
(69.8782 -3.55984 -0.800604)
(69.2629 -7.35678 -0.22917)
(68.5746 -7.31732 -0.152797)
(67.6965 -8.42091 -0.0670128)
(65.9033 -8.15983 -0.188666)
(231.46 36.4365 -183.377)
(-9.87047 -55.8527 6.31369)
(130.757 8.14598 0.0949535)
(49.9978 13.8139 -2.79422)
(102.096 6.71085 -4.11292)
(77.6966 4.28957 -3.76563)
(87.1045 0.711033 -2.20439)
(88.2992 -3.04787 -2.79902)
(89.6808 -5.25908 -3.73022)
(87.061 -18.0611 1.8807)
(78.9209 -10.9353 2.96068)
(73.6424 1.29598 0.168789)
(73.302 6.01917 -0.808404)
(73.8241 6.98024 -0.230356)
(73.0959 3.3537 -0.301565)
(69.7746 -3.98339 -0.150209)
(68.3413 -5.7764 0.00247781)
(66.7581 -6.49805 -0.238256)
(66.0238 -7.72908 -0.316183)
(64.5642 -8.13682 -0.28485)
(235.745 278.364 4.68836)
(-3.238 63.6217 10.3216)
(108.714 62.4494 12.2047)
(36.1167 29.3907 -2.0953)
(94.2056 22.9969 0.717533)
(72.2188 5.93764 -2.64399)
(94.9632 -3.06393 -1.01444)
(93.6374 -1.1522 -1.92192)
(93.331 -4.48355 0.0158053)
(83.244 -12.5057 7.30106)
(69.4355 -3.6684 1.57906)
(66.8298 2.72914 -0.619756)
(68.3559 5.6651 -0.328597)
(69.9786 5.91431 0.140295)
(69.9216 1.6581 0.670899)
(67.4844 -1.90815 0.302745)
(67.1619 -4.73159 0.0316442)
(66.3407 -5.26384 -0.310504)
(66.2601 -7.4988 -0.497043)
(65.0516 -8.00189 -0.450297)
(246.115 295.574 -24.2407)
(-209.487 10.0054 12.5541)
(144.357 12.046 8.73737)
(47.393 -6.12719 2.34584)
(120.678 1.82518 1.21584)
(75.1729 -26.8405 -0.475151)
(99.2621 2.9676 1.76807)
(78.399 -0.160359 2.18018)
(78.9726 -0.040046 5.93533)
(55.6346 -0.290126 5.5473)
(58.606 0.922205 0.986327)
(54.6392 1.30161 -0.0378224)
(60.613 1.87621 0.336119)
(62.0121 1.12436 0.940329)
(64.452 -1.85635 0.710366)
(66.443 -2.81848 0.469669)
(66.7973 -4.88155 -0.062412)
(67.3969 -5.5731 -0.429495)
(67.6945 -7.78714 -0.525299)
(66.6864 -8.31437 -0.53176)
(58.1526 -112.812 -111.133)
(-29.103 -0.427901 9.57237)
(134.139 -3.07032 -0.556106)
(35.2409 9.21678 1.94956)
(109.775 23.703 0.391894)
(50.8436 1.49681 0.0192502)
(80.4684 37.5287 0.969789)
(46.9336 -4.31725 3.43546)
(65.3609 18.3692 2.76495)
(51.7087 -2.43228 1.30253)
(61.7718 4.75725 0.729905)
(58.1611 -3.52386 0.827095)
(64.0684 -0.866894 1.12654)
(64.2462 -4.28661 1.10109)
(67.559 -3.31376 1.08527)
(68.781 -4.62003 0.596243)
(70.4912 -5.51962 0.0811967)
(70.614 -6.07633 -0.200242)
(71.3334 -8.09867 -0.458953)
(69.5067 -8.2669 -0.6068)
(159.813 -46.2534 78.4773)
(1.98521 31.7439 28.2808)
(118.2 2.42342 17.6411)
(-23.1831 -8.06267 3.95468)
(95.3126 8.0192 -0.378198)
(5.97017 -9.45213 1.27934)
(79.283 12.018 0.0622897)
(41.5247 -2.01857 1.40928)
(68.2914 4.28161 0.521629)
(57.2951 -3.77219 -0.283331)
(67.8751 -2.34474 -0.473927)
(65.7808 -6.18129 -0.589586)
(70.6685 -5.25429 -0.213895)
(71.4141 -7.12737 0.352554)
(74.6328 -6.54933 0.725946)
(75.821 -6.40963 0.641035)
(76.9981 -6.64842 0.368434)
(76.7477 -6.52058 -0.0040651)
(76.7563 -7.71247 -0.232395)
(73.6425 -7.59975 -0.546053)
(88.6263 95.2661 -31.3924)
(-64.9144 58.7604 -32.1889)
(117.293 23.8558 -19.0622)
(2.91467 14.7396 -2.31729)
(101.971 13.0923 1.21367)
(33.5503 1.75225 0.888797)
(83.7694 12.0474 0.132591)
(52.6136 0.109392 -0.75663)
(77.3317 5.70883 -1.31078)
(64.3167 -3.05478 -2.13387)
(76.352 -1.83533 -1.91451)
(71.8287 -6.84008 -1.84454)
(77.9973 -6.61345 -1.15838)
(77.763 -9.0714 -0.576005)
(81.3759 -8.20691 0.129967)
(81.9845 -7.621 0.538936)
(83.7452 -6.32013 0.592333)
(83.1989 -5.81783 0.345361)
(83.3591 -6.11713 0.230042)
(79.7771 -5.97168 -0.138255)
(29.3666 -74.5499 -159.848)
(-125.136 -3.96712 -17.4518)
(69.3089 20.5651 -9.03582)
(-36.5526 0.676197 2.13841)
(94.4906 1.62677 -1.19369)
(24.638 0.773767 2.69716)
(87.7947 -0.496448 0.032817)
(56.454 -1.10441 -0.2999)
(83.9321 -4.07059 -1.5278)
(72.0384 -5.91048 -2.46559)
(83.9718 -8.50329 -2.37728)
(79.8519 -10.7821 -3.02377)
(85.3904 -12.4736 -2.15948)
(85.0378 -12.9332 -0.953452)
(88.4559 -11.7444 0.150145)
(88.0525 -10.0013 0.714067)
(89.1189 -7.88353 0.871692)
(88.0212 -6.34269 0.626454)
(88.1657 -5.57835 0.451788)
(84.8386 -4.78243 0.111133)
(129.472 128.653 -22.0191)
(31.8188 -9.91006 26.8297)
(160.493 -40.4963 9.98974)
(75.7576 -37.6542 -2.65936)
(142.826 -31.3015 2.71329)
(105.424 -11.9773 1.19843)
(131.054 -8.53167 4.02682)
(107.281 -1.89666 1.7379)
(115.723 -2.20787 1.49564)
(101.173 -3.44428 -0.889576)
(104.742 -6.17763 -0.834792)
(97.1387 -9.69198 -1.48903)
(99.0946 -12.5712 -0.279546)
(96.4741 -13.6897 0.0865201)
(97.1772 -11.809 0.643443)
(93.987 -9.30117 0.742496)
(92.8759 -6.41971 0.64176)
(90.0362 -5.21362 0.365461)
(89.4897 -4.38806 0.216099)
(85.9894 -3.37462 -0.116313)
(185.588 -101.261 15.6815)
(131.742 -78.3572 40.9408)
(199.058 -54.1614 35.615)
(104.047 -34.4135 11.2482)
(138.127 -16.7015 6.47714)
(96.554 -3.26901 0.723707)
(122.472 4.38474 0.574191)
(102.25 8.43966 -1.72103)
(115.033 6.72435 -1.14642)
(103.436 3.82514 -2.25237)
(108.927 -1.34833 -1.52917)
(101.733 -6.33272 -2.64341)
(104.065 -11.1101 -2.00032)
(100.788 -11.7983 -1.08394)
(100.301 -9.47263 -0.215871)
(95.4811 -6.4753 0.256717)
(93.8834 -4.25199 0.641972)
(90.4865 -3.55339 0.779809)
(89.345 -3.00757 0.889853)
(84.8971 -2.20814 0.102797)
(360.957 -175.869 -190.422)
(226.632 -52.6605 -73.0235)
(232.457 -0.0672138 -15.2358)
(144.359 -14.562 -1.49484)
(172.437 -13.167 -3.95504)
(126.622 -10.6915 -2.88046)
(146.593 -5.61117 2.17981)
(132.008 1.54973 3.755)
(145.619 5.31395 6.11841)
(142.385 7.84811 5.71011)
(150.025 6.58497 5.74882)
(147.005 4.06361 4.57812)
(142.942 -6.8248 2.71555)
(125.049 -10.4536 0.311794)
(115.182 -7.54144 -1.0009)
(104.263 -3.8053 -1.46842)
(100.627 -0.96774 -1.17334)
(96.2572 0.279795 -0.900093)
(95.2426 1.3283 0.00375367)
(92.6883 1.45649 -0.0417968)
(329.679 -227.957 141.131)
(-166.138 19.5158 -4.70376)
(165.988 -24.583 24.2269)
(45.5211 -4.32651 -4.11538)
(117.253 5.55214 -2.29478)
(75.8393 1.73433 -3.03016)
(104.972 10.4995 0.967773)
(85.3303 4.42855 1.12662)
(99.9853 5.18373 1.98912)
(91.8136 1.64826 0.924236)
(101.099 2.02196 0.405497)
(97.3046 1.81783 -0.686532)
(101.211 3.43875 -0.877847)
(96.23 4.80047 -1.23373)
(94.1104 7.29581 0.341176)
(85.2161 7.56618 1.39557)
(83.6019 4.76713 2.28822)
(80.6856 1.89069 1.14759)
(80.7392 -0.739149 0.928996)
(81.1669 -1.76284 0.600991)
(8.23231 -113.254 178.427)
(-66.3629 25.0683 -1.08311)
(82.284 -26.3853 9.29459)
(-61.0776 -2.34852 8.78145)
(74.7503 -16.2158 2.66263)
(-11.8645 -10.1566 8.5444)
(67.922 -10.1542 4.76113)
(29.4363 -7.68753 2.00669)
(64.5008 -5.76607 -0.160038)
(46.5596 -4.33538 -2.19913)
(63.2032 -2.08778 -3.28889)
(54.2057 -1.41386 -4.22638)
(62.7351 0.0535573 -4.10957)
(57.997 0.350313 -4.09909)
(61.7531 1.34493 -2.66258)
(59.7271 1.33408 -1.33311)
(61.8118 0.974789 0.228372)
(61.9487 -0.260029 0.880025)
(63.3957 -1.48744 1.35947)
(63.6322 -1.90595 0.943066)
(82.1825 19.907 14.1393)
(-64.382 -33.5101 -32.3553)
(105.094 -42.7461 -10.7509)
(-3.01848 -12.0449 -1.48506)
(85.6607 -28.5053 -0.989783)
(13.4403 -2.01391 0.418402)
(66.2433 -10.7184 2.81715)
(28.0883 1.34817 0.665917)
(56.1629 -4.01574 0.348896)
(36.4018 0.00473197 -0.789491)
(52.6056 -2.7717 -0.833933)
(42.6721 -0.761831 -1.03372)
(52.1022 -1.70998 -0.674431)
(47.5611 -0.180816 -0.401439)
(52.8845 -0.0373636 0.144509)
(51.6373 0.981001 0.445694)
(54.6888 0.781877 0.830819)
(55.0478 0.669035 0.78468)
(56.4126 -0.466035 0.77716)
(56.4276 -1.2853 0.324882)
(515.182 169.804 -117.561)
(145.513 -23.8363 -6.43831)
(146.496 -45.4149 -8.50576)
(49.1499 -14.2554 -2.62536)
(79.3658 -22.4771 -1.39865)
(8.98655 -4.82388 -0.694771)
(57.5134 -13.4633 2.73628)
(15.8399 -3.00606 0.678467)
(49.6147 -8.92068 0.84044)
(28.1138 -3.8168 0.191043)
(47.4767 -6.69578 0.157453)
(37.4184 -3.37587 0.13269)
(47.7825 -4.28919 0.18586)
(43.5885 -1.82566 0.146031)
(48.6872 -2.00631 0.218457)
(47.7809 -0.795841 0.27241)
(50.5917 -1.14419 0.340032)
(51.3494 -1.01361 0.158267)
(52.8166 -2.02368 0.133695)
(53.442 -2.42371 -0.0179014)
(213.861 88.133 86.025)
(32.6301 58.6628 -19.8567)
(99.1973 28.481 -18.7229)
(15.6481 15.6258 0.817361)
(82.4449 7.65046 0.625787)
(23.7959 7.22629 1.49968)
(64.6944 -5.21134 1.65884)
(32.1714 5.01895 0.261597)
(54.8316 -9.33917 0.267492)
(37.4202 -0.150668 0.552933)
(51.7945 -8.80798 0.655125)
(43.0593 -2.0954 0.685296)
(51.5417 -5.97903 0.652395)
(47.2824 -1.45601 0.338088)
(51.3914 -2.96932 0.242386)
(49.9454 -0.914817 0.0985929)
(52.1092 -2.04768 0.122098)
(52.2791 -1.58416 0.0363272)
(53.5054 -2.86145 0.044178)
(53.8167 -3.00376 -0.0931314)
(118.672 30.7622 -16.5834)
(-15.2128 -0.759536 -26.7936)
(69.8416 -6.86872 -17.2364)
(-17.8657 -3.53122 1.4582)
(67.5 -11.5194 -4.14649)
(-5.76254 6.00565 0.875915)
(59.7192 -13.4261 -2.83603)
(21.5826 2.17994 -0.0475016)
(50.1884 -11.4066 -1.15279)
(35.698 -3.3463 0.590732)
(49.9264 -9.75814 0.630172)
(44.4437 -3.87303 1.35919)
(51.3223 -6.44117 1.29796)
(49.2909 -2.09314 1.05603)
(51.5526 -3.66587 0.679424)
(51.054 -1.95303 0.283477)
(52.0948 -3.20264 0.245447)
(52.7566 -2.79455 0.0813169)
(53.6758 -4.04692 0.115156)
(54.3089 -3.92546 0.0164673)
(124.517 -7.90236 -90.2622)
(-27.1241 9.47817 -19.4035)
(121.401 16.7564 -14.5054)
(58.9446 -1.34401 -2.65461)
(97.7714 1.28792 -1.57589)
(53.7141 5.21999 -1.21571)
(69.4139 -27.4719 -2.86565)
(45.8054 9.13534 -1.4071)
(58.9698 -20.9296 -1.94613)
(49.5772 -1.99526 0.801445)
(59.098 -14.8345 1.37887)
(52.8636 -2.76438 2.71537)
(57.4993 -7.49666 2.32356)
(53.7773 -0.276555 1.32758)
(55.0523 -2.64877 0.964017)
(54.36 -1.29595 0.492453)
(55.2201 -3.0909 0.473459)
(55.8502 -3.07207 0.255295)
(57.0513 -4.9002 0.305471)
(57.4429 -4.68228 0.0568644)
(131.449 -279.912 135.708)
(-95.4563 -85.7479 -2.02296)
(95.9051 -12.8327 4.70102)
(-17.4058 -14.5245 2.69196)
(81.5955 -1.84588 -0.522002)
(23.9575 23.3505 -1.00905)
(58.0801 -0.209563 -4.36434)
(44.9469 0.693537 -2.73128)
(64.8484 -9.57007 -1.4263)
(61.7274 -14.4915 1.41896)
(70.8722 -10.3703 1.45787)
(62.6352 -6.26868 3.74008)
(62.2131 -3.5429 3.25098)
(56.8243 -1.78074 1.61834)
(53.9928 -1.88437 0.16594)
(55.1964 -1.31996 -0.0275384)
(56.0024 -3.87997 -0.0617712)
(57.782 -4.42249 -0.169534)
(58.6316 -5.90612 0.0240112)
(58.8286 -5.4305 -0.0345985)
(548.65 -38.9827 -101.255)
(135.531 -45.3258 -24.1552)
(160.635 -44.8695 -19.0982)
(62.3441 -21.9269 -0.293014)
(100.331 -28.2906 0.578001)
(72.9606 -2.56162 0.694955)
(84.0572 2.1322 0.279013)
(66.2338 -13.753 0.352774)
(70.4852 -14.3148 3.7606)
(69.6825 -15.4882 3.70556)
(71.2788 -8.65753 -0.269991)
(65.0329 -1.88661 -0.736351)
(62.1199 1.39258 0.938023)
(59.2659 0.860626 0.83948)
(59.1227 -1.66082 -0.0443669)
(58.0402 -4.02539 -0.19412)
(58.8342 -5.82777 -0.0878948)
(59.3932 -6.3069 -0.109693)
(59.7717 -6.93199 -0.147193)
(58.9423 -6.18672 -0.170822)
(286.441 120.313 94.7557)
(107.866 29.2836 52.5523)
(123.333 47.027 28.3024)
(34.4896 30.9533 2.98693)
(68.556 18.6445 1.21599)
(35.3193 8.93479 -1.71581)
(62.9924 5.36971 1.65709)
(67.3428 -5.59329 0.977874)
(65.412 -8.5515 -0.275811)
(63.4618 -12.43 0.0390187)
(64.3391 -7.54381 -0.598649)
(62.3913 0.540241 -1.90262)
(61.21 4.05379 -0.966504)
(61.0673 3.54517 -0.323107)
(62.051 -0.372909 -0.464922)
(60.5669 -4.66805 -0.139367)
(59.7644 -6.63475 0.118284)
(59.2327 -6.06896 -0.00879239)
(58.6966 -6.71949 -0.0220468)
(57.3429 -6.04597 -0.194977)
(40.521 97.6465 -158.756)
(0.258283 -4.93993 10.3347)
(108.383 24.916 4.86169)
(33.225 10.8691 -2.46309)
(89.6102 2.10815 -4.01884)
(60.6518 0.0412976 -4.25211)
(70.0694 -3.10287 -2.30432)
(71.5529 -6.93067 -3.03451)
(71.3625 -10.2675 -3.10226)
(68.0764 -14.0525 2.19748)
(69.9973 -6.76751 1.0723)
(67.3673 2.07648 -0.502006)
(65.6308 4.12776 -0.889)
(65.515 3.51816 -0.281325)
(64.2129 -1.13621 -0.0786493)
(59.9927 -5.16292 0.513939)
(59.0591 -5.65414 0.200473)
(57.9075 -5.73219 -0.141088)
(57.3299 -6.36294 -0.314389)
(55.969 -6.18774 -0.288145)
(71.8182 191.398 -15.4828)
(-121.362 21.4862 6.32389)
(92.5915 45.8008 2.72419)
(11.8209 20.0777 -2.03054)
(79.4776 16.2203 -0.477894)
(51.7673 -2.91784 -2.27127)
(75.9147 -9.36861 -0.772416)
(73.1148 -7.84245 -1.73581)
(69.3966 -10.0197 1.54366)
(62.8574 -8.94344 7.16504)
(60.7961 -0.806651 1.12758)
(59.9678 3.1494 -0.708106)
(61.0151 3.89443 -0.26565)
(62.3899 2.54026 0.381438)
(61.6526 -1.80783 0.961088)
(58.421 -2.97247 0.578685)
(58.0756 -4.92344 0.156195)
(57.3319 -4.92937 -0.232219)
(57.203 -6.48893 -0.452888)
(55.8412 -6.23162 -0.39674)
(101.931 -74.3765 -213.743)
(-143.878 -51.8748 -6.2189)
(122.649 -11.4471 -29.0175)
(25.7423 -10.4958 1.65182)
(103.181 -0.476073 -0.0120798)
(48.1449 -31.8131 0.00490452)
(76.1389 2.02109 1.74549)
(49.2514 -4.7671 3.17491)
(57.3073 -0.834903 5.90484)
(45.1152 -0.591534 4.28308)
(52.3066 1.61215 0.741958)
(49.278 0.940605 0.0867952)
(54.8384 0.770019 0.572418)
(55.4759 -0.7327 1.18508)
(56.3598 -2.55924 0.780608)
(57.7577 -3.32805 0.410744)
(57.8362 -4.86521 -0.015233)
(58.0398 -5.32724 -0.384657)
(58.006 -6.93827 -0.489819)
(56.6668 -6.69898 -0.451608)
(407.412 -48.2354 110.226)
(37.9616 7.1726 15.8017)
(129.315 5.37738 3.7716)
(14.6645 6.69319 1.98607)
(96.0532 19.1389 0.503837)