/*--------------------------------*- C++ -*----------------------------------*\
  =========                 |
  \\      /  F ield         | OpenFOAM: The Open Source CFD Toolbox
   \\    /   O peration     | Website:  https://openfoam.org
    \\  /    A nd           | Version:  10
     \\/     M anipulation  |
\*---------------------------------------------------------------------------*/
FoamFile
{
    format      ascii;
    class       volScalarField;
    location    "9.4";
    object      k;
}
// * * * * * * * * * * * * * * * * * * * * * * * * * * * * * * * * * * * * * //

dimensions      [0 2 -2 0 0 0 0];

internalField   nonuniform List<scalar> 
12920
(
2979.85
2165.18
1044.73
662.823
497.25
407.013
323.859
285.864
249.13
223.998
199.003
180.117
163.918
153.136
144.534
135.205
122.335
104.56
94.6162
88.6414
4899.29
4385.31
2852.16
1562.26
898.566
658.532
474.431
399.557
332.406
306.291
274.533
257.628
237.811
223.391
207.204
193.085
183.497
180.41
182.274
187.465
2369.4
3299.14
2973.53
1810.73
995.773
746.31
527.908
432.309
351.432
323.862
290.935
273.74
251.584
235.578
218.154
200.664
184.727
171.201
165.302
156.707
2625.36
1696.8
1526.58
931.177
589.667
481.1
367.792
317.153
268.438
248.005
222.041
209.225
192.826
182.116
170.092
159.561
149.273
139.968
134.063
129.898
3317.77
1554.45
1034.91
783.316
574.707
471.273
352.033
304.189
254.847
230.676
202.13
188.473
173.356
164.476
155.498
148.201
141.596
134.449
129.185
125.016
5428.61
3823.27
1885.22
895.521
525.637
406.159
334.555
295.096
252.955
224.525
197.667
182.9
170.361
163.927
156.782
149.838
141.509
131.704
123.88
119.174
5871.04
4885.52
2689.73
1182.44
583.095
399
369.337
305.846
278.562
225.545
203.092
177.947
164.446
152.676
143.023
132.748
122.345
112.956
106.259
104.043
11368.9
5075.55
2702.84
1404.86
726.689
498.934
267.763
211.746
189.925
172.062
148.375
123.009
107.805
98.8358
157.133
131.894
111.522
96.442
87.6356
85.5308
8316.01
5705.32
2845.38
1415.43
707.667
286.448
223.088
123.517
136.273
133.811
122.499
93.3514
72.8398
66.0259
114.532
144.609
119.862
98.4637
82.3494
72.2652
12756.6
5430.8
2644.62
1708.53
978.287
447.118
189.969
128.301
136.905
141.989
143.892
137.021
123.03
67.0806
86.2388
123.967
115.358
100.991
83.1949
65.8875
3844.73
2471
2104.49
1524.16
937.814
426.697
185.722
92.874
64.0131
93.0131
151.764
166.196
153.419
86.2909
83.456
112.53
102.152
91.1651
79.2196
66.6092
870.464
830.895
763.52
818.715
861.641
618.074
337.123
218.483
164.807
66.401
62.2684
132.742
113.942
63.6054
88.822
119.69
110.291
96.8431
85.8172
78.9354
2429.43
1753.13
1014.28
757.792
707.679
680.393
434.684
330.209
275.255
209.594
162.475
141.998
115.163
88.1753
121.635
107.917
103.076
100.816
100.823
100.41
6682.74
2179.3
1292.24
958.671
731.379
639.267
538.943
446.754
350.86
273.134
224.632
191.234
166.367
149.361
129.883
111.649
99.1073
94.9908
95.9778
95.7037
13041.8
4820.08
1318.37
1058.31
845.007
674.955
516.654
436.577
342.587
283.973
236.068
211.188
195.592
189.157
175.398
145.495
116.571
97.6535
90.8104
85.9334
6401.52
3533.06
1562.51
1365.11
1148.79
850.48
632.079
523.988
411.187
336.179
274.072
239.995
212.982
196.897
175.133
149.751
122.874
103.205
92.8034
89.0028
1379.52
1469.42
1477.74
1323.72
955.581
637.929
472.352
399.351
333.281
298.006
258.907
233.07
206.08
182.954
155.864
132.947
116.321
105.507
97.8289
94.8377
879.162
1597
1502.04
1107.76
766.607
542.035
405.805
341.434
283.081
255.704
226.612
204.85
180.106
159.029
139.601
124.358
113.15
106.167
101.647
97.8698
2717.72
2171.79
1561.56
992.466
686.212
547.512
390.703
319.872
250.97
213.923
189.675
176.752
161.208
146.236
130.989
117.852
108.407
102.986
100.679
99.5629
702.659
551.08
714.51
763.528
578.698
329.219
240.962
234.113
227.175
201.155
147.303
114.309
98.4144
88.2727
81.6149
74.2187
69.6071
62.3164
58.898
51.6836
6493.12
4359.53
1933.51
1252.12
898.048
759.131
634.162
569.776
492.651
440.009
392.091
364.986
347.076
337.466
325.947
303.273
266.134
222.261
200.072
185.154
7235.08
8496.01
4530.27
3027.58
1658.62
1479.14
1080.36
976.55
827.934
774.606
704.978
677.043
635.766
615.394
587.215
568.821
549.571
543.938
544.89
544.96
17711.1
9428.56
4985.31
3548.88
1972.46
1801.89
1261.41
1109.1
918.117
851.089
762.073
719.815
665.775
633.55
595.07
564.442
532.311
506.344
490.663
474.894
15918.2
10220.5
4632.71
2472.55
1262.95
1218.19
951.891
852.158
736.83
684.825
619.882
584.854
542.121
514.545
484.574
460.81
437.723
419.165
406.852
398.716
16607.7
4711.77
1837.19
1910.36
1152.29
1177.68
881.935
808.761
679.901
631.23
559.033
531.248
492.644
476.055
454.24
437.64
420.624
404.616
392.026
382.562
7386.51
4749.45
1935.93
1621.16
1038.47
1053.04
876.167
789.069
661.602
592.457
527.355
495.566
469.978
457.628
444.305
430.77
413.52
392.722
376.825
365.537
17444.1
9216.84
2675.34
1684.49
978.953
1063.57
982.801
809.684
682.222
562.067
503.953
456.88
429.829
408.284
392.772
375.023
354.743
336.064
323.267
317.995
30515.3
8114.24
3943.27
2406.36
1288.94
1216.02
1054.97
952.888
726.947
635.152
515.606
448.42
397.307
366.047
362.641
329.748
298.842
275.714
262.141
259.872
16072.7
8325.65
4224.24
2716.06
1353.62
1179.85
1070.6
902.181
777.782
709.285
588.696
467.924
378.671
349.848
334.019
322.898
288.604
252.761
224.098
212.587
12558.3
8677.91
5012.13
3499.86
1988.73
1505.38
1056.08
881.24
794.105
760.182
695.574
570.185
433.443
298.023
272.128
286.285
282.042
259.536
213.914
188.335
7946.93
5727.95
4246.89
3243.61
2065.77
1430.47
996.829
776.727
620.39
696.003
731.875
664.263
577.098
351.142
251.669
256.475
252.171
239.43
214.711
196.88
3403.16
2286.73
1729.96
2257.33
2240.05
1941.14
1593.12
1360.22
978.281
616.704
682.913
733.211
562.492
341.723
272.36
277.88
271.871
256.73
247.265
243.246
6325.72
3585.1
1853.95
1867.59
1798.3
1859.17
1499.51
1309.62
1016.35
808.908
661.611
549.036
404.524
310.906
296.974
285.617
284.71
286.395
294.984
302.087
8353.92
5705.44
3632.09
2525.42
1920.76
1734.69
1435.5
1183.02
921.053
713.161
579.064
495.192
429.412
387.876
346.541
310.613
288.063
281.545
286.372
290.014
14760.4
4099.45
3533.46
2658.07
2116.01
1693.39
1303.26
1120.59
882.125
747.16
629.093
569.93
521.221
492.367
451.161
391.497
326.879
286.97
272.6
261.551
1772.79
2821.79
3627.02
3564
2860.34
2141
1582.05
1328.1
1051.52
890.672
728.189
650.023
573
526.669
472.042
420.55
355.694
309.049
285.449
276.832
462.942
3151.83
3814.33
3470.14
2478.37
1672.35
1250.24
1067.16
899.832
806.868
697.516
632.106
556.525
501.89
439.94
390.315
351.896
328.517
309.781
302.162
1451.38
3611.48
3530.11
2787.17
1922.06
1348.73
1034.33
892.029
764.39
700.845
614.601
560.864
493.255
449.901
407.224
378.481
351.909
336.692
325.298
316.174
8034.82
5387.12
3684.91
2467.35
1799
1476.04
1015.9
825.049
644.099
581.657
510.582
483.468
441.653
414.418
383.958
361.009
342.007
330.997
325.01
320.062
759.379
2066.99
2092.52
1870.94
1514.86
1062.31
699.619
529.136
433.51
346.432
262.598
219.765
202.433
193.205
186.892
177.935
170.059
156.028
148.915
133.718
11308.2
6113.9
3349.58
1798.4
1200.1
981.187
827.375
720.908
619.168
540.665
488.239
452.241
422.663
389.6
353.373
309.008
273.494
241.273
228.797
204.492
15301.3
8018.86
4372.13
3026.62
2055.57
1772.9
1353.12
1227.27
1035.2
985.329
901.977
882.478
838.513
819.491
788.399
770.393
748.014
741.021
732.117
715.668
14711.7
11222.2
5306.49
3364.37
2450.46
2058.22
1584.69
1398.24
1192.65
1108.21
999.752
944.177
874.905
831.905
785.335
752.293
722.095
700.359
684.871
669.691
16198
13292.1
6399.07
2943
2004.5
1653.76
1333.17
1157.8
1018.46
939.217
855.919
804.173
747.465
710.047
672.683
644.919
620.963
603.738
593.411
587.836
29678
5961.93
3443.16
2388.19
1900
1566.32
1272.93
1093.07
942.015
862.5
779.425
736.291
688.562
661.435
632.32
610.387
590.402
574.803
564.872
557.457
14928.5
5144.05
3213.01
2179.66
1800.74
1460.6
1281.65
1072.55
896.743
798.173
719.914
680.262
646.665
626.314
604.7
585.751
566.822
549.064
538.141
528.338
22731.9
9211.82
4305.87
2285.84
1821.4
1616.66
1389.78
1073.52
888.056
740.827
669.18
617.752
583.97
560.313
538.155
517.475
498.623
483.818
474.829
469.933
20150.5
9217.01
5097.76
2745.99
1979.53
1747.16
1618.73
1299.14
976.712
825.239
670.41
596.539
537.597
501.793
476.784
447.252
423.941
407.481
398.73
396.881
13888.4
9437.19
5164.14
2915.12
1978.21
1737.63
1642.32
1318.63
1064.25
928.371
745.267
604.725
512.44
477.598
443.667
422.324
389.36
359.906
339.069
332.082
6323.75
7688.98
6193.58
3975.29
2492.91
1979.91
1577.39
1308.35
1158.56
1053.97
875.554
635.526
454.274
393.893
390.52
399.689
385.785
348.847
313.548
297.002
10312.7
7752.77
5413.76
3875.26
2671.46
1993.63
1596.93
1325.76
1162.77
1143.94
733.22
622.527
588.859
410.292
347.832
373.374
366.949
347.756
326.587
310.275
6921.51
4632.61
3776.7
3648.26
3210.9
2711.44
2266.46
1843.59
1353.39
1130.14
1080.75
925.647
654.523
449.219
378.84
398.172
397.851
391.553
387.641
377.705
8482.79
6167.19
4174.86
3354.84
2989
2645.54
2196.9
1756.58
1343.11
1100.7
888.306
700.768
525.437
429.56
419.591
418.468
425.304
436.705
446.183
443.496
17689.7
7753.42
5371.71
3658.3
3058.23
2486.03
1982.36
1556.1
1207.33
952.959
773.876
658.201
570.07
516.33
468.518
438.26
422.509
422.079
427.044
423.951
8416.75
6783.88
4834.23
3553.87
2930.61
2223.12
1778.25
1470.02
1186.71
1002.22
845.344
756.175
679.345
625.447
565.173
505.399
456.346
426.69
412.868
400.708
1586.69
3822.39
5363.49
4825.59
3655.61
2705.83
2007.98
1648.52
1321.85
1127.37
947.268
838.928
740.26
674.735
609.024
556.579
505.191
470.887
449.36
437.682
2246.57
5316.8
5411.15
4591.56
3198.13
2153.46
1651.12
1389.3
1198.04
1063.24
926.806
831.848
737.818
672.364
610.196
567.63
533.33
511.044
494.464
485.509
7297.87
5332.49
4632.65
3563.39
2439.26
1714.3
1373.05
1193.61
1052.42
964.247
858.328
786.887
708.768
659.114
611.098
579.419
551.048
532.629
519.86
508.662
7724.86
5506.42
4264.83
3101.66
2214.4
1831.61
1325.52
1132.19
890.716
828.419
745.673
710.974
657.604
627.122
590.994
566.367
543.191
526.576
515.876
500.999
3026.85
2995.75
2643.35
2208.7
1678.67
1232.04
871.011
637.562
478.564
374.774
312.169
280.241
260.675
244.14
230.39
214.127
202.519
186.972
179.421
162.638
13629.8
9809.02
3928.89
1880.97
1279.44
1013.88
859.493
742.152
645.293
567.724
512.074
455.904
402.711
346.402
304.205
269.697
248.401
226.103
214.822
191.498
14964.8
9415.66
4538.45
2949.76
2218.48
1813.28
1472.3
1338.38
1200.41
1168.95
1113.35
1096.39
1052.91
1019.37
987.526
963.657
937.619
922.978
898.493
876.533
28156.9
9657.5
5391.98
3446.31
2817.32
2133.9
1837.9
1553.06
1420.47
1294.4
1206.48
1121.71
1056.16
999.046
956.741
921.68
896.72
877.879
863.333
852.157
13686.1
11063.8
5889.93
3295.98
2593.25
1907.32
1645.95
1354.62
1249.67
1118.22
1048.16
969.284
917.357
868.841
835.572
807.862
790.088
777.922
771.38
769.765
19675.7
6767.3
4354.33
2941.25
2538.51
1822.01
1610.29
1284.64
1167.86
1035.17
966.187
898.51
856.122
817.831
790.87
766.179
750.023
738.458
731.298
728.271
18585.9
6752.83
4535.12
2806.47
2480.78
1770.14
1634.31
1269.45
1092.47
953.544
884.405
831.345
799.889
772.108
749.593
729.615
714.421
702.541
694.825
689.369
11087.6
10767.2
5917.19
2957.72
2661.5
1966.01
1734.48
1256.58
1059.12
876.87
812.212
753.919
725.419
698.25
675.56
656.2
642.522
632.538
626.407
625.302
15434.6
11508.5
6396.3
3264.61
2701.87
2142.04
1972.16
1494.66
1127.38
938.138
783.693
712.677
657.425
621.113
591.518
570.802
556.826
547.863
543.401
545.124
13166.2
10462.7
6200.11
3309.3
2494.27
2140.33
2042.88
1551.68
1226.47
1034.23
824.463
693.594
617.955
585.277
548.584
526.619
500.996
482.851
471.704
471.913
19068
9162.84
6833.82
4054.39
2875.43
2295.73
1939.02
1618.18
1414.27
1220.15
947.539
652.299
517.956
517.39
524.105
519.062
488.506
458.242
437.003
432.029
12428
8310.34
6558.8
4260.88
3134.42
2363.12
2005
1727.09
1559.5
1426.42
988.577
717.927
566.15
488.992
489.938
512.46
494.353
474.653
457.686
445.982
8510.03
6309.08
5847.05
4566.54
3885.64
3175.56
2649.74
2085.38
1648.59
1451.93
1235.06
945.469
680.811
544.499
511.755
550.144
553.994
550.188
541.307
520.402
9121.78
8061.14
6047.86
4374.04
3909.67
3073.61
2576.11
1968.45
1544.82
1267.26
999.256
775.765
619.605
547.27
563.814
574.222
593.015
606.518
607.632
590.172
22773.9
9349.65
6680.44
4500.63
3959.77
2873.17
2321.27
1751.84
1398.45
1101.69
916.664
782.503
695.449
638.071
597.644
578.613
572.083
575.987
577.691
567.587
14583.6
8813.78
6067.36
4322.52
3558.48
2519.15
2120.53
1662.5
1400.89
1164.09
1009.99
895.016
809.124
739.72
677.374
628.063
594.494
575.692
563.606
556.082
6649.5
8834.1
8328.99
5652.36
4222.26
2929.1
2294.76
1803.32
1522.89
1278.67
1118.1
980.887
885.266
807.366
745.647
696.672
658.695
636.145
619.552
614.384
13925.5
11350.7
8030.83
5243.28
3645.18
2385.03
1953.07
1585.27
1431.97
1236.74
1113.7
989.474
903.448
831.211
777.46
738.91
711.308
694.959
682.488
679.389
8136.52
6791.43
5998.05
4036
2813.61
1922.26
1654.64
1407.56
1307.39
1172.99
1078.54
982.992
912.228
853.518
808.95
774.058
748.022
731.185
718.816
712.342
13276.3
6694.43
5208.44
3364.01
2398.6
1802.13
1410.51
1239.02
1110.99
1051.18
980.665
928.88
875.255
836.277
799.279
769.706
743.961
724.775
708.427
692.624
3937.75
3506.36
2864.13
2172.65
1495.09
939.084
678.141
513.613
428.151
372.569
335.459
307.005
283.534
261.362
243.344
224.187
211.049
194.017
185.286
167.352
9474.03
5399.37
2245.08
1404.76
1050.73
863.265
750.498
654.83
573.007
481.912
399.566
330.012
285.325
253.385
233.577
218.078
205.256
193.113
183.902
172.08
23744.7
9815.61
5015.31
3105.54
2583.39
1694.66
1773.23
1374.93
1469.58
1268.69
1314.59
1195.69
1197.36
1118.73
1107.69
1062.54
1046.37
1019.27
992.309
971.946
23517.5
10787.3
5601.58
4353.37
3226.26
2329.81
2159.06
1613.72
1650.41
1371.64
1363.19
1196.19
1171.71
1080.99
1062.68
1018.92
1008.83
989.493
979.437
974.68
10388.7
10834.7
6556.02
4293.85
3261.15
2305.89
2015.35
1530.45
1470.45
1232.08
1199.31
1065
1038.87
968.393
952.689
921.576
915.605
906.043
902.654
905.178
16475.5
9419.26
5111.53
4512.73
3114.02
2359.94
1989.84
1488.99
1396.75
1169.54
1124.82
1012.34
987.369
929.449
913.469
883.372
876.117
865.907
861.206
862.766
23749.9
9737.92
5274.47
4208.09
3164.37
2360.76
2060.06
1484
1291.46
1091.86
1029.3
952.052
927.068
885.633
866.957
845.169
835.453
827.32
821.026
821.613
13489.7
12900.1
6653.57
4588.6
3614.71
2538.23
2202.4
1561.4
1259.27
1040.12
963.904
883.936
859.634
819.309
796.83
775.65
767.989
760.144
756.635
760.357
15831.9
13189.7
7429.17
4397.65
3568.58
2783.5
2247.91
1670.44
1286.35
1042.15
925.364
843.547
805.703
763.305
710.834
692.352
680.55
678.342
676.921
684.81
9348.91
10577.1
7593.57
4351.04
3055.89
2596.59
2375.08
1702.38
1369.52
1111.38
924.667
821.698
777.47
744.72
701.317
636.671
616.538
606.682
605.553
614.815
18550.2
10258.8
7418.45
4557.5
3304.9
2598.27
2269.48
1907.47
1632.48
1303.72
973.946
731.522
713.33
733.907
702.624
627.182
592.18
574.366
568.454
576.18
17069.5
10033.2
8072.93
4835.34
3635.54
2685.19
2338.56
2085.34
1876.41
1555.63
1116.04
773.85
695.034
712.449
689.416
639.628
613.511
594.79
584.125
583.21
17242.6
8610.78
7494.03
5306.79
4417.53
3408.27
2906.42
2289.39
1929.17
1624.76
1249.78
930.836
792.913
745.518
715.514
705.992
702.328
686.122
664.881
642.833
26926.5
11042.7
7656.92
5438.72
4753.96
3441.32
2814.78
2096.92
1717.91
1364.88
1084.89
862.518
769.822
724.274
725.083
739.164
748.791
751.847
735.506
704.161
20033.9
12146.8
7544.83
5696.49
4677.65
3157.64
2637.29
1910.67
1568.92
1210.23
1049.71
888.591
820.824
756.713
729.564
717.366
716.104
716.006
705.937
692.681
20749.4
12586.3
7305
5658.37
4054.25
2976.55
2417.95
1825.15
1574.9
1277.58
1144.54
994.716
915.628
832.545
780.403
742.985
723.97
713.924
702.259
702.635
30285
14412.5
11181.4
6147.84
4744.59
3074.47
2532.6
1893.17
1686.75
1369.4
1252.93
1072.51
1001.37
905.881
859.681
813.075
791.671
779.675
769.237
774.222
17608.5
12408.9
10288.8
5557.93
4088.67
2637.71
2213.46
1757.23
1615.03
1348.69
1256.54
1089.29
1030.82
942.182
906.625
867.953
852.715
842.776
834.294
841.141
4132.55
7622.58
7096.56
4446.04
3186.65
2206.07
1917.59
1602.07
1519.7
1310.32
1250.64
1105.39
1064.36
980.917
953.846
910.311
895.199
881.015
870.251
874.999
3424.02
7232.63
6382.2
3627.18
2642
1756.19
1565.23
1318.76
1325.72
1181.75
1173.53
1056.63
1036.14
962.713
943.068
898.405
881.235
860.124
840.789
838.703
8901.17
5243.58
2689.85
1605.53
949.802
626.61
497.741
434.698
395.269
356.575
322.575
288.798
262.587
237.671
218.534
199.501
184.916
170.695
162.171
150.333
930.504
1139.3
799.705
1189.18
1009.36
1331.32
928.319
696.114
707.93
558.474
935.951
711.835
814.703
609.298
825.258
1123.74
1106.34
1367.2
963.886
1398.44
1278.61
611.232
1090.17
986.508
862.521
706.678
1223.92
1027.41
119.509
168.944
138.584
843.802
763.47
864.296
780.368
136.405
138.728
139.009
752.064
698.217
757.922
699.709
134.043
138.641
137.543
673.771
634.322
685.421
653.417
125.739
136.406
136.356
624.476
551.662
644.154
609.3
98.617
135.1
128.172
526.308
441.433
591.358
522.549
76.7707
125.876
114.678
415.868
346.64
495.697
409.095
65.433
106.454
70.3918
332.925
308.179
377.705
287.31
59.0775
61.5583
46.1176
306.496
296.093
269.011
254.156
131.087
180.807
97.6974
845.167
765.572
728.947
612.365
133.865
85.972
73.2716
739.826
686.165
573.734
516.138
141.033
75.1619
110.567
677.256
662.219
520.61
601.415
144.125
122.484
150.431
659.186
635.313
630.598
661.392
138.828
154.583
158.389
619.026
550.318
652.681
600.833
130.059
157.597
154.36
523.881
440.956
580.767
526.219
79.9741
151.175
106.421
409.331
294.899
506.406
362.324
43.5708
82.6555
38.7436
265.914
236.647
301.227
211.471
103.7
321.667
223.36
769.787
650.691
1236.65
1158.34
67.611
212.187
179.54
605.343
481.798
1109.91
888.047
74.633
150.804
64.9799
463.745
511.881
762.593
433.283
141.583
55.134
57.0401
560.217
647.822
410.929
496.738
165.856
70.4156
138.601
653.302
631.446
562.348
660.214
160.032
147.304
142.207
617.375
564.374
659.992
589.336
109.933
130.459
86.4402
540.475
385.755
546.373
363.104
39.3803
69.9195
44.409
319.721
222.9
312.099
245.143
232.325
370.59
224.466
1293.36
1204.53
1200.12
1170.1
188.645
221.117
199.826
1160.22
957.613
1121.89
934.144
81.2496
191.675
148.834
841.918
514.81
865.362
692.031
57.4837
136.571
99.5769
464.999
484.935
651.524
564.944
121.445
91.3221
86.0803
536.224
637.403
549.829
537.872
128.487
90.3989
86.2677
639.018
562.428
529.357
432.954
73.6836
80.9772
61.8635
507.332
338.198
394.933
296.202
45.2233
56.1919
39.6722
299.065
242.347
273.256
230.02
926.348
1075.28
926.541
1511.8
1295.36
1511.36
1270.29
813.018
896.25
819.681
1235.11
1062.86
1223.36
1104.34
723.274
800.089
755.265
1008.36
916.118
1071.1
988.906
618.867
742.132
691.105
887.119
756.599
962.314
860.312
495.19
667.226
578.943
716.732
607.687
818.809
676.756
392.772
545.274
442.395
577.922
498.569
626.496
494.516
351.65
408.967
323.301
484.298
453.635
462.906
405.323
331.776
307.647
290.122
449.877
423.483
398.187
385.571
914.733
952.879
781.212
1465.59
1263.13
1401.03
1208.56
808.385
737.881
667.527
1216.62
1106.89
1159.21
1066.33
767.194
669.117
728.524
1079.97
1015.18
1056.07
1054.11
719.179
751.009
745.635
993.958
891.804
1049.56
846.706
604.347
722.435
644.297
844.489
685.934
775.156
621.311
468.276
618.557
554.765
631.032
487.908
587.208
540.446
323.552
532.012
384.112
452.983
380.639
519.134
400.938
270.745
328.553
237.332
370.098
364.577
365.32
305.377
829.047
1513.29
1359.04
1467.83
1268.5
2017.46
1765.46
640.177
1295.94
1025.69
1206.24
1063.16
1667.05
1319.55
657.991
895.884
587.527
1042.12
1037.96
1204.77
1013.34
738.758
570.897
655.17
1040.35
868.972
1004.78
1019.52
682.875
704.065
758.245
805.866
684.122
1017.82
951.493
604.577
750.216
650.73
667.989
633.518
909.702
737.69
411.982
599.322
403.24
598.623
443.472
668.927
477.134
250.477
353.664
277.525
400.209
319.965
435.019
360.352
1420.28
1564
1416.83
2134.55
1857.24
2167.73
1896.71
1102.66
1339.42
1091.93
1756.41
1395.31
1765.61
1405.32
659.42
1008.73
816.739
1272.7
1042.76
1303.16
1101.7
643.054
775.308
682.124
1019.19
1010.46
1061.61
946.539
740.293
664.071
632.794
1007.52
942.52
914.263
814.377
623.373
615.22
490.894
899.269
714.473
769.312
596.854
382.17
448.068
338.473
643.561
465.649
547.088
429.367
275.186
314.422
263.429
427.757
358.985
404.702
352.023
1390.76
1627.28
1362.98
1951.21
1606.86
1906.67
1598.05
1123.91
1311.51
1180.36
1505.09
1261.33
1533.83
1368.21
961.727
1143.05
1048.59
1192.88
1060.45
1319.63
1185.07
787.359
1017.08
898.29
1014.07
852.312
1137.04
970.961
634.005
851.181
693.233
807.55
697.684
910.154
721.698
526.39
639.307
505.4
671.402
602.667
664.969
548.277
481.502
476.631
429.774
590.274
561.421
530.783
510.29
448.23
424.679
412.178
556.238
523.444
509.044
498.141
1358.12
1526.21
1328.4
1855.08
1605
1839.26
1638.47
1189.34
1278.16
1180.29
1546.81
1399.77
1587.06
1474.73
1080.74
1166.08
1145.03
1357.4
1234.64
1448.31
1373.63
1107.85
1021.86
1089.71
1106.49
1056.7
1068.07
1148.58
812.332
818.266
870.742
900.542
802.339
836.244
890.976
486.183
529.538
514.525
644.229
509.445
560.558
490.058
399.601
498.131
401.11
491.341
478.096
474.615
436.697
391.553
373.178
327.316
480.012
483.573
430.422
425.402
1388.83
2142.91
1859.18
1913.32
1696.57
2423.82
2073.49
1184.93
1751.87
1399.95
1635.19
1499.84
1951.9
1628.95
1142.54
1295.96
1134.45
1471.34
1404.28
1553.91
1426.52
1188.48
1058.51
1130.32
1218.6
1103.83
984.633
1230.13
977.802
668.137
982.834
588.348
947.665
543.729
1021.6
624.252
935.335
745.616
680.477
596.103
955.536
743.768
447.422
675.374
493.717
561.872
476.141
680.74
543.39
340.296
454.66
382.917
458.401
430.2
515.924
465.085
1955.93
2327.43
2006.92
2568.29
2170.5
2678.19
2223.02
1468.42
1861.78
1480.77
2034.59
1666.68
2053.85
1655.89
1152.58
1376.9
1179.08
1577.83
1422.41
1555.61
1366.67
1097.34
1138.38
1010.2
1388.98
1267.47
1317.19
1139.95
978.647
971.63
849.344
1214.58
1022.11
1082.26
906.775
725.404
797.834
618.028
949.32
734.741
843.785
664.172
484.9
568.331
453.211
672.716
541.476
619.566
524.052
382.478
429.788
378.102
515.253
466.168
505.717
466.511
1662.53
1989.12
1667.06
2293.97
1795.98
2220.71
1870.24
1296.55
1598.58
1421.56
1664.06
1395.26
1788.63
1576.84
1084.78
1369.1
1218.74
1328.7
1151.78
1511.29
1300.35
868.976
1164.35
984.18
1086.85
927.827
1224.34
1009.12
718.281
920.238
729.445
889.425
801.468
942.101
769.142
629.681
674.749
570.61
779.64
736.511
729.621
681.697
590.848
557.218
543.924
727.512
705.636
681.359
683.82
551.231
543.303
530.935
695.861
661.91
682.385
661.033
1679.59
1933.21
1730.73
2184.61
1903.74
2196.01
1999.65
1461.3
1679.16
1561.25
1832.76
1640.9
1947.65
1807.03
1273.07
1529.79
1428.38
1577.41
1363.59
1754.81
1557.36
1024.38
1382.34
1042.24
1285.68
1046.93
1474.52
1160.33
718.286
926.115
669.699
966.424
751.101
1046.95
761.56
531.114
610.326
506.851
700.971
644.983
694.349
602.907
514.094
490.966
468.141
648.913
666.305
604.019
627.653
518.899
467.021
467.654
669.055
657.793
633.259
630.876
1787.37
2501.05
2132.48
2255.73
2051.18
2691.2
2303.39
1592.03
2010.19
1703.64
1995.72
1851.82
2189.07
1930.92
1465.83
1634.57
1501.47
1801.55
1610.88
1867.23
1677.34
1093.5
1463.89
1309.35
1530.14
1215.15
1604.03
1347.19
771.201
1243.85
1025.01
1105.43
833.421
1255.2
995.817
598.218
949.661
742.244
764.507
651.53
922.125
770.981
500.514
684.953
566.996
642.562
642.079
742.323
691.429
470.332
544.296
500.816
642.427
630.733
680.781
651.047
2225.19
2769.87
2270.95
2850.94
2372.75
2982.34
2365.98
1730.64
2097.23
1703.9
2234.68
1929.87
2191.24
1838.36
1493.36
1606.28
1416.95
1859.21
1663.48
1752.69
1539.91
1298.51
1362.4
1167.13
1590.24
1339.86
1463.12
1222.46
1021.24
1104.2
917.119
1251.12
1000.6
1149.22
946.277
737.206
853.125
679.738
928.193
778.237
885.859
754.878
566.677
638.375
552.827
747.479
692.571
727.693
678.31
502.064
536.884
502.539
681.36
652.656
667.154
647.25
1839.17
2300.68
1941.62
2664.47
2067.18
2569.89
2202.21
1434.64
1855.54
1632.16
1926.8
1620.44
2104.94
1848.32
1180.54
1561.61
1327.03
1565.63
1357.61
1764.49
1480.31
959.97
1243.86
1020.9
1286.49
1138.09
1383.78
1152.22
843.245
955.329
796.26
1116.1
1046.33
1093.2
974.864
785.575
764.162
738.541
1029.27
995.393
961.84
983.832
755.791
741.819
745.411
993.737
967.327
991.946
990.876
709.067
742.887
714.45
958.388
892.686
985.7
927.984
1982.86
2284.32
2090.81
2574.57
2257.26
2609.26
2393.74
1702.99
2037.99
1886.45
2171.03
1929.51
2333.03
2143.8
1390.63
1825.88
1592.31
1842.42
1538.61
2064.76
1745.84
1053.68
1497.4
1173.6
1432.85
1163.66
1621.18
1260.09
772.923
1060.43
777.281
1090.21
936.207
1147.8
897.148
703.573
715.222
654.531
919.055
955.382
863.523
897.999
732.633
666.175
700.981
974.975
988.092
934.315
976.512
713.562
705.723
693.6
985.281
928.341
976.6
926.577
2140.51
2746.7
2364.85
2666.8
2442.62
2995.34
2625.89
1934.79
2254.67
2007.88
2382.23
2199.27
2518.25
2271.66
1649.73
1942.21
1724.54
2123.67
1810.47
2195.39
1909.94
1227.71
1638.04
1349.3
1684.25
1310.77
1792.17
1433.86
839.403
1250.62
986.665
1195.32
933.253
1323.84
1071.65
691.649
918.583
802.538
893.813
913.309
1027.63
1009.07
711.561
785.825
753.547
946.103
981.714
1017.03
1013.1
693.395
745.235
712.855
980.825
925.326
1006.96
951.342
2424.63
3039.85
2400.13
3162.19
2669.74
3285.03
2647.76
2000.12
2225.7
1887.01
2537.92
2258.02
2456.23
2123.84
1710.6
1804.71
1578.94
2179.34
1900.86
2033.26
1786.33
1344.74
1493.01
1242.03
1786.66
1444.58
1666.98
1401.08
997
1167.23
966.287
1340.51
1105.04
1317.69
1150.61
813.767
909.068
797.906
1062.21
1032
1093.65
1030.53
754.592
775.665
736.229
1029.75
1017.14
1009.36
995.84
715.53
726.128
707.418
1010.3
954.802
977.975
940.215
1045.51
980.817
938.514
962.599
1004
1020.23
969.178
1126.18
1116.76
1057.21
1207.1
1073.43
1184.49
1018.19
1018.12
891.666
921.623
612.049
992.025
888.411
766.137
1152.33
1151.51
1137.96
1242.13
1106.77
1199.58
1188.69
1083.09
988.859
1077.98
1026.66
1052.66
998.975
1115.02
1178.95
1266.11
1293.61
1232.57
1243.99
1061.9
1228.91
1062.65
653.693
994.646
1077.02
924.083
806.356
1121.32
733.032
757.721
664.71
702.132
732.489
769.224
659.203
678.554
800.319
624.569
519.521
715.809
778.257
441.368
583.705
579.603
576.088
476.882
634.19
538.777
432.638
826.36
920.466
860.976
935.766
850.116
912.768
844.983
739.954
706.697
785.334
670.344
777.91
659.882
754.665
699.426
560.388
878.563
729.179
805.799
490.338
773.527
600.126
499.001
609.108
662.357
551.215
468.893
678.957
1125.57
934.807
1020.59
661.954
1062.08
784.217
1069.08
1215.78
1125.61
1118.81
1229.11
1119.86
1231.45
1216.38
1191.77
1092.63
1114.69
1178.17
1109.47
1161.24
1200.36
1275.56
1288.86
1265.62
1394.75
1055.13
1321.18
1345.65
1199.44
707.401
1102.27
1187.93
835.055
1129.62
1267.38
1298.87
1320.72
1400.61
1366.17
1323.52
1298.79
1365.74
1262.53
1235.52
1262.28
1326.26
1218.82
1270.79
1318.04
938.129
621.521
878.279
553.649
914.424
541.918
894.073
1083.69
1070.17
1064.88
1148.26
1040.67
1125.33
1109.88
1037.33
964.139
1029.91
1009.94
1005.24
986.072
1063.29
1012.31
633.168
785.018
1114.8
586.231
1069.6
1043.83
960.364
595.493
732.492
917.903
577.598
907.814
978.148
1116.29
1192.67
1201.48
1162.7
1169.87
1142.21
1137.02
1059.05
1023.05
1001.76
1096.52
998.154
1085.08
1070.23
199.725
264.646
226.576
560.461
693.31
536.242
638.739
213.192
209.3
207.889
636.227
527.509
612.701
593.545
173.514
203.824
211.467
526.949
501.543
551.418
560.387
164.022
204.596
194.144
474.328
427.806
530.927
487.11
133.568
177.125
161.242
395.247
366.977
436.05
395.882
115.737
140.407
128.319
338.45
319.458
349.009
320.55
102.391
119.965
116.211
296.993
287.79
300.103
290.693
84.1492
111.636
97.1668
268.077
279.557
276.762
284.709
309.86
317.613
287.865
713.382
718.709
782.111
830.33
342.325
147.348
190.568
349.983
351.522
334.703
141.793
363.624
126.628
118.877
367.297
370.245
357.406
120.833
381.004
136.427
131.497
379.717
383.226
381.008
132.877
361.418
131.973
131.122
377.739
369.512
368.73
129.712
319.843
115.177
124.845
334.12
316.425
335.31
119.525
249.971
86.8417
98.6087
261.172
243.658
265.484
94.3104
193.244
69.2948
78.2931
205.92
198.488
204.909
72.8586
170.096
66.2902
62.326
187.325
186.77
169.396
62.6412
91.6635
102.57
86.3756
252.659
260.633
234.814
245.456
330.77
437.471
316.453
899.11
778.663
824.464
697.76
316.548
153.564
188.465
344.83
353.655
323.504
145.275
314.882
128.493
106.016
372.91
373.427
312.723
106.301
361.579
138.932
123.445
380.45
382.346
349.178
130.087
395.975
143.13
142.606
385.969
387.352
388.307
146.586
394.467
143.041
151.135
382.149
375.873
399.416
150.791
357.729
135.674
145.13
348.188
338.442
366.257
144.413
298.88
111.293
136.676
293.555
266.287
323.132
127.367
145.115
57.3755
72.1067
164.639
145.328
170.718
59.1093
75.5786
78.484
58.4668
200.791
220.555
175.319
180.913
337.467
508.991
462.805
855.344
770.791
1009.09
1075.93
386.603
142.557
212.809
306.321
290.479
369.479
177.582
323.777
83.6693
136.342
228.719
203.939
362.624
126.638
140.933
63.8704
73.7284
162.531
166.296
158.398
61.732
209.402
112.217
60.756
268.554
315.359
163.558
69.9933
398.635
159.058
136.304
402.434
414.573
370.414
149.805
422.209
165.727
165.642
418.309
412.794
424.32
165.453
355.937
145.236
148.855
376.372
357.641
377.039
139.678
157.624
65.4864
86.5179
201.907
154.611
204.577
65.8228
64.3105
90.2436
75.0622
186.213
184.203
201.937
205.293
534.759
586.755
541.274
1140.64
1167.68
1092.83
1062.88
585.48
278.638
341.235
569.645
594.534
566.574
277.921
580.705
206.771
212.4
597.223
580.389
591.108
202.71
386.517
132.267
169.004
452.894
344.47
474.945
139.37
199.808
58.4695
85.0138
155.629
145.851
218.451
75.6639
254.665
77.3075
72.1434
195.976
260.37
220.363
77.875
346.625
135.153
120.183
373.482
375.696
346.691
121.059
237.71
97.6426
97.8087
305.624
264.931
269.775
86.7652
150.285
56.4572
62.2197
166.865
150.381
164.538
56.1424
71.3104
82.9614
67.2362
201.089
203.462
190.885
196.572
354.796
412.189
347.486
826.768
920.807
808.141
888.308
308.683
328.517
307.264
891.051
817.9
789.892
668.393
241.237
258.544
220.78
735.615
664.263
616.286
571.449
185.121
196.32
175.595
587.741
525.678
496.5
442.112
152.811
154.715
136.368
472.565
447.621
417.764
383.996
131.007
126.769
115.034
399.967
350.198
352.049