/*--------------------------------*- C++ -*----------------------------------*\
  =========                 |
  \\      /  F ield         | OpenFOAM: The Open Source CFD Toolbox
   \\    /   O peration     | Website:  https://openfoam.org
    \\  /    A nd           | Version:  10
     \\/     M anipulation  |
\*---------------------------------------------------------------------------*/
FoamFile
{
    format      ascii;
    class       volScalarField;
    location    "9.4";
    object      omega_0;
}
// * * * * * * * * * * * * * * * * * * * * * * * * * * * * * * * * * * * * * //

dimensions      [0 0 -1 0 0 0 0];

internalField   nonuniform List<scalar> 
12920
(
243.346
206.675
141.763
114.097
99.2833
89.9052
80.2524
75.424
70.4259
66.7643
62.9263
59.8632
57.1168
55.2163
53.6385
51.8491
49.267
45.5297
43.3461
41.9846
311.492
299.191
237.532
175.154
133.283
114.344
97.0891
89.1003
81.2695
77.9928
73.8381
71.5268
68.7199
66.5862
64.1126
61.8829
60.35
59.8623
60.1869
61.0334
194.047
259.375
246.217
189.192
140.696
121.834
102.501
92.6883
83.5913
80.2228
76.0469
73.7507
70.7029
68.402
65.8152
63.1028
60.5442
58.2803
57.2661
55.7524
160.666
179.55
174.601
134.858
108.264
97.9056
85.5548
79.4145
73.0455
70.1969
66.4153
64.4641
61.8846
60.1308
58.1073
56.2691
54.4202
52.6924
51.5689
50.7619
238.928
175.513
144.042
125.153
107.312
96.9885
83.7703
77.7974
71.1955
67.7054
63.3809
61.186
58.686
57.1528
55.5673
54.2403
53.0158
51.6533
50.633
49.8054
336.225
276.503
193.431
133.395
102.419
89.9806
81.624
76.6321
70.9379
66.8208
62.6942
60.2939
58.195
57.0684
55.8087
54.55
53.0038
51.1258
49.5831
48.6288
326.369
315.987
234.044
153.409
107.561
89.1391
85.7282
78.0223
74.4344
66.995
63.5408
59.4884
57.1712
55.0842
53.303
51.3394
49.2774
47.3424
45.9215
45.4383
451.802
317.956
233.456
167.512
120.289
99.6788
146.405
129.659
122.933
116.92
108.607
98.8732
92.598
88.6658
55.8882
51.1861
47.0501
43.7443
41.7027
41.1968
412.659
341.717
239.156
167.346
118.413
151.041
266.998
198.389
208.567
206.383
197.489
172.109
152.111
145.161
95.5151
53.6169
48.7944
44.2084
40.4233
37.8626
523.014
318.597
229.527
184.654
139.644
188.976
246.67
202.153
209.053
212.78
214.144
209.047
197.696
145.577
82.9207
49.6672
47.8892
44.7764
40.6232
36.1441
244.072
218.045
205.788
174.248
136.583
184.536
244.017
171.678
143.081
173.958
220.724
230.521
221.162
164.562
81.5143
47.2837
45.055
42.5417
39.6437
36.3418
122.079
127.256
122.986
128.016
131.533
223.199
329.495
263.336
226.912
144.562
141.529
205.979
189.59
142.007
84.0746
48.7824
46.8221
43.8539
41.2718
39.5797
224.67
188.755
142.474
123.008
119.053
116.614
186.606
162.231
147.951
128.981
113.478
106.223
95.6531
83.7011
49.1472
46.298
45.2513
44.7574
44.7551
44.6543
366.6
207.666
161.081
138.291
120.762
112.851
103.599
94.2447
83.4811
73.6643
66.818
61.6523
57.499
54.4668
50.7723
47.0624
44.345
43.4294
43.6528
43.5804
538.092
306.973
160.47
145.047
129.46
115.799
101.374
93.1476
82.5177
75.1155
68.5026
64.7929
62.3746
61.3295
59.0262
53.7115
48.0746
44.0076
42.4444
41.2854
363.099
255.971
173.613
165.143
151.345
130.053
112.14
102.074
90.3861
81.7039
73.7871
69.0547
65.0635
62.5428
58.9596
54.4868
49.3482
45.2327
42.9051
42.0203
167.648
171.261
172.041
162.36
137.71
112.621
96.9028
89.1225
81.3788
76.9473
71.7259
68.0461
63.9812
60.251
55.5914
51.3364
48.0247
45.7403
44.0507
43.3789
139.294
179.321
173.662
148.668
123.389
103.786
89.8123
82.3802
75.0067
71.2829
67.1105
63.7874
59.7965
56.1736
52.6192
49.6559
47.3693
45.8872
44.9011
44.0606
230.708
208.446
176.499
140.55
116.806
104.325
88.1368
79.7078
70.5953
65.1765
61.4113
59.2698
56.5878
53.8741
50.9713
48.3383
46.3651
45.1985
44.6977
44.4526
95.5755
103.722
119.467
123.464
106.688
80.2369
69.1609
68.3237
67.3145
63.1836
54.0139
47.6187
44.2181
41.885
40.2733
38.4014
37.1851
35.1778
34.1981
32.0353
157.233
116.141
77.6582
62.9781
53.4623
49.1806
44.9679
42.5993
39.5913
37.4
35.3152
34.0859
33.2553
32.7964
32.2171
31.0406
29.0394
26.5323
25.1963
24.2595
122.082
183.174
142.42
107.053
83.273
64.2287
53.0294
45.7699
41.3272
39.6882
37.8699
36.9707
35.8433
35.1469
34.3107
33.7099
33.1267
32.8212
32.6817
32.5245
316.962
187.084
117.104
98.4182
79.3105
65.8468
55.4998
47.5284
41.4082
38.8468
36.6319
35.6448
34.5789
33.8997
33.0656
32.1399
31.0163
29.7256
28.7808
28.2601
305.301
220.337
116.366
90.3912
72.3449
54.3019
44.8233
38.7989
35.1702
33.522
31.9921
31.1764
30.2292
29.4491
28.5325
27.5817
26.6533
25.8144
25.237
25.0662
286.852
165.77
109.472
98.7937
74.9275
54.7432
45.4255
38.5428
34.8699
32.7281
31.392
30.3392
29.6694
28.7931
28.0028
27.2188
26.5337
25.8721
25.525
25.0507
197.84
202.753
127.285
89.6606
66.6617
49.9967
44.1796
38.1407
33.7512
31.5423
29.8952
28.9954
28.4535
28.065
27.7969
27.3641
27.0062
26.4811
26.0788
25.0368
324.534
210.654
135.639
96.7602
71.3725
54.1383
45.7688
37.9334
33.3656
30.6478
29.1075
28.1024
27.2518
26.6109
26.2251
25.7353
25.2949
24.6552
24.0863
23.1892
416.579
157.91
121.88
92.4589
72.2167
54.8122
57.543
48.1004
38.407
34.7332
31.7917
29.9626
28.8115
27.8411
25.4158
24.992
24.3124
23.2248
22.1539
21.0539
211.941
145.488
105.178
79.0945
66.5456
59.1255
58.8217
49.105
42.5713
38.9332
34.9486
31.021
28.8301
27.8888
25.948
24.6229
24.4195
23.7427
22.3227
20.0985
250.944
170.012
114.497
87.759
70.8467
68.2488
60.017
49.5851
42.5495
38.8792
36.5391
36.2177
37.1891
35.0805
27.0286
24.8863
24.7629
24.3694
23.2981
20.1924
299.124
185.057
121.719
85.9868
68.3048
65.7121
63.6745
59.7867
58.2128
46.1443
43.5108
43.9533
42.4259
40.5511
26.5151
23.6468
23.7017
23.5352
22.8906
20.4918
173.641
131.508
98.5845
82.9455
73.6311
72.7301
69.7107
62.7658
59.3397
55.8515
45.4427
43.0248
43.2882
32.8448
23.0671
22.068
22.7251
22.777
22.613
21.7919
210.444
130.597
106.577
87.7672
76.1567
63.0232
62.9353
54.5776
48.6396
44.7528
40.5402
38.0584
31.9012
26.434
22.1307
21.9907
22.0923
22.3669
22.9869
23.7669
203.208
126.917
104.025
88.281
75.9338
64.364
55.3061
47.159
40.8659
36.8145
33.0137
30.0625
27.3903
25.867
24.5405
23.3172
22.297
21.9326
22.12
23.0147
261.123
119.725
94.345
81.1029
67.1941
58.7982
52.1104
47.5368
42.5039
38.2112
33.8904
31.5224
30.1722
29.6081
29.0485
28.0732
26.1422
23.2629
21.4931
20.8823
140.326
158.288
113.898
91.6138
74.1639
62.4149
53.8494
49.6039
45.5304
42.0147
37.9536
34.7034
32.4964
31.2025
29.9686
28.7788
27.3967
25.164
23.0348
21.5482
124.057
133.393
118.656
89.6372
66.1452
52.8147
45.9913
42.6404
40.3298
38.3447
36.2573
34.3596
32.5773
30.9288
29.5417
28.0437
26.5931
25.1175
24.1047
23.1
164.554
140.678
103.737
75.9223
57.5621
48.4086
42.4502
39.1928
36.8306
35.5062
34.5888
33.4927
32.2245
30.7038
29.1889
27.5958
26.3716
25.2162
24.5227
23.7656
285.144
198.683
105.755
80.1579
63.9891
56.1798
46.1278
40.9685
36.5914
34.4677
33.2889
32.076
30.7914
29.4481
28.2444
27.2162
26.6127
25.9407
25.6331
24.8452
39.2107
81.0606
81.3201
77.2341
69.4269
57.8668
46.9159
40.8948
37.0697
33.1258
28.8457
26.4246
25.3826
24.7968
24.3868
23.7861
23.246
22.2607
21.7445
20.6033
184.316
139.538
103.409
75.3416
61.6753
55.8604
51.3201
47.8859
44.3605
41.4572
39.4141
37.9422
36.6772
35.1977
33.4988
31.3064
29.4495
27.6684
26.9481
25.4777
204.057
130.521
88.0782
71.1501
60.2008
51.5682
45.2085
42.5744
39.7517
38.8125
37.1105
36.5015
35.3937
34.7324
33.7635
33.0588
32.4397
32.1093
31.9206
31.5667
200.065
166.494
87.2179
67.59
58.7102
50.9172
44.0133
40.1321
36.4555
35.1639
33.4614
32.8321
31.7713
31.1839
30.3431
29.5286
28.7285
27.9951
27.5399
27.34
202.506
206.914
111.75
66.0531
53.4333
42.583
36.8299
33.2239
30.9723
29.8871
28.7495
28.1696
27.3305
26.7319
25.9841
25.362
24.7956
24.378
24.1707
24.1987
401.934
141.633
85.1914
64.7051
53.3677
41.1534
36.1345
32.1421
29.6907
28.4944
27.4834
26.9526
26.3129
25.8092
25.2201
24.7154
24.2596
23.9235
23.7245
23.5963
247.978
126.227
85.4316
59.4035
49.6516
39.3296
36.1596
31.9112
28.7953
27.2321
26.1412
25.6793
25.311
25.1071
24.8402
24.5362
24.2515
23.9107
23.6468
23.2098
389.24
156.983
91.3327
62.9472
52.0943
42.9363
37.7241
31.5899
28.7042
26.2846
25.4688
24.7558
24.3492
24.015
23.7617
23.4145
23.0644
22.6535
22.2918
21.9584
258.28
131.576
89.009
61.7868
51.4292
43.3861
44.3678
38.2638
31.6615
29.3875
26.7847
25.7404
24.7271
24.1362
24.0252
23.2698
22.5396
21.7636
21.1239
20.6879
198.141
126.385
80.6052
56.5554
48.0796
45.3219
45.4363
39.5562
34.8285
32.403
29.0634
26.931
25.6762
24.9125
24.3515
24.4836
23.339
22.1961
21.1168
20.1873
188.056
144.902
99.3321
69.2197
53.2354
49.3647
44.8357
39.7733
36.3425
33.9506
34.8504
37.2122
36.0492
30.2083
26.565
26.2128
24.7178
23.1818
21.8178
20.3871
231.744
158.716
98.3777
68.3607
54.2536
48.6751
47.7609
45.8284
43.9657
39.4818
99.5297
77.0441
41.4546
31.6876
27.0363
26.2361
25.0409
23.7812
22.6079
21.0471
194.359
137.262
96.1209
73.8457
61.9138
57.1469
53.0462
49.3677
46.8532
43.682
39.1766
36.1868
31.8676
25.6248
23.2195
24.1243
23.8872
23.5918
23.3638
22.6297
193.394
125.54
92.6978
72.2726
62.1934
53.4389
49.4536
44.3236
39.6354
36.9627
33.4061
29.9778
25.5869
22.9416
22.4349
22.2782
22.4271
22.8935
23.4754
23.7329
336.334
119.483
93.5407
73.5939
63.0111
52.8317
45.0318
38.6626
33.9918
30.7035
28.004
25.9877
24.3754
23.3592
22.3809
21.6985
21.4097
21.5188
22.0547
22.5856
158.733
113.259
85.0848
66.942
56.9083
47.8032
42.2437
38.0792
34.0625
31.3372
28.76
27.5648
26.5821
26.0485
25.1932
24.0781
22.7474
21.5713
21.0268
20.9774
126.649
135.544
120.654
87.1568
66.5949
53.6865
45.2725
41.0122
36.7666
34.0265
31.1767
29.5607
28.1289
27.2581
26.1971
25.1977
24.0864
22.9843
22.0953
21.6776
235.522
182.653
128.456
86.1967
59.6078
45.6017
39.9401
36.7644
34.5393
32.8346
31.0034
29.8106
28.4589
27.4503
26.3562
25.4187
24.5584
23.8734
23.383
23.111
287.804
143.117
104.377
69.1391
51.0889
41.7479
37.3594
34.6019
32.689
31.6365
30.4832
29.7635
28.7132
27.9011
26.9264
26.0953
25.3452
24.7783
24.3988
24.1451
217.948
133.602
95.2269
69.9771
56.8698
51.6047
43.9313
39.7824
34.5792
32.2854
30.6374
29.919
29.0292
28.4851
27.8761
27.4235
27.0008
26.6093
26.3475
25.9936
96.4114
97.5603
91.6513
84.0723
73.0885
62.4704
52.4464
44.8746
38.9085
34.4699
31.4892
29.8524
28.7974
27.8657
27.066
26.0862
25.3654
24.3674
23.8675
22.72
209.382
177.489
109.998
76.6256
63.6114
56.7387
52.2723
48.5718
45.2906
42.4911
40.3592
38.0689
35.7599
33.1542
31.0663
29.2542
28.0768
26.7861
26.1084
24.648
166.802
125.756
77.3639
63.1617
58.5923
51.8061
50.3216
48.0834
46.8102
45.8984
44.3746
43.5772
42.1044
41.1658
40.076
39.3855
38.7964
38.4852
38.2084
37.7586
286.552
118.959
76.6986
59.775
55.6537
46.9049
45.1889
41.5695
40.7222
39.264
38.332
37.3082
36.3422
35.5123
34.7348
34.0604
33.5962
33.211
33.0777
33
187.572
152.569
82.9307
57.2623
50.3564
40.5814
38.6497
34.5216
34.1706
32.675
32.3219
31.538
31.08
30.5463
30.1342
29.7978
29.5959
29.5218
29.5443
29.7383
255.136
111.602
71.0797
55.6976
49.6333
39.0105
37.6704
33.1001
32.4054
30.8842
30.632
30.0188
29.7592
29.3847
29.1143
28.8333
28.6605
28.6037
28.592
28.7348
242.647
109.023
72.1848
53.3326
48.711
38.3699
37.8802
32.9137
31.0831
29.3383
28.9841
28.6436
28.6514
28.5956
28.5007
28.3677
28.2498
28.177
28.0929
28.1412
198.178
150.31
86.4392
55.9478
52.0673
41.3369
39.6447
32.4912
31.2994
28.318
28.5634
27.8569
28.128
27.9663
27.8569
27.5721
27.3835
27.2523
27.1504
27.27
199.844
143.694
90.7528
56.1684
51.3152
43.0806
43.003
37.4016
33.2064
31.2165
29.4613
28.9324
28.4558
28.3383
29.7642
28.1443
27.2547
26.8215
26.5859
26.6889
195.869
136.843
81.1433
53.6701
47.0116
43.5428
44.5759
39.5585
36.2178
34.7847
32.2433
31.2795
30.6242
30.5316
31.4813
30.7862
28.3579
27.2451
26.7361
26.7982
311.454
130.536
92.0276
60.0498
50.6504
45.6843
42.9947
40.8513
39.442
37.5296
38.0566
37.6265
36.2629
34.4255
34.5043
32.8027
29.6769
28.0155
27.3023
27.3113
187.521
133.136
93.6456
62.6812
53.1881
46.26
45.059
44.3599
43.5143
42.4761
64.4751
51.3308
39.6601
36.4069
36.185
33.4566
30.5693
28.9367
28.0571
27.8176
161.417
124.419
97.5842
71.0786
61.982
55.4924
51.5285
48.2978
45.4064
43.1848
40.1076
36.3545
33.0381
32.3054
33.5779
32.3466
30.6444
29.919
29.4625
28.8418
190.027
127.572
95.993
69.7947
62.7858
52.3129
48.7249
43.6386
40.1291
37.8156
34.5743
31.7409
29.9158
29.6788
30.0727
29.1852
29.2626
29.5911
29.8232
29.7436
291.439
123.687
97.0971
71.1036
63.9305
50.8034
45.1547
38.2674
35.3272
32.0125
30.6646
29.0344
28.3797
27.6113
27.0534
26.9118
27.0673
27.6913
28.1841
28.4919
197.857
122.565
86.4976
65.1899
57.2376
45.646
42.6502
37.2455
34.9767
32.5834
31.3996
30.5521
29.9255
29.2966
28.4008
27.5602
27.0674
27.0368
27.1165
27.5763
181.729
177.676
134.815
84.9011
66.4582
51.5329
45.6354
40.0321
37.3468
34.7424
33.3926
32.2507
31.4298
30.6644
29.8173
29.024
28.3768
28.1641
28.0878
28.4541
361.163
238.332
130.793
80.8246
59.2632
44.943
41.9607
37.4356
36.6621
34.6281
33.8926
32.8764
32.123
31.3681
30.6068
30.0388
29.6438
29.5733
29.5354
29.8646
218.674
130.877
104.201
67.075
53.4047
42.1021
40.2724
36.4832
36.151
34.766
34.3896
33.7475
33.2161
32.6854
32.1266
31.6806
31.3131
31.2316
31.1739
31.4162
300.965
128.328
95.3046
67.8299
58.946
49.6376
44.4991
40.0158
37.8183
36.3779
35.8576
35.4992
35.242
35.0413
34.7854
34.608
34.3824
34.3601
34.257
34.4178
112.455
104.646
95.6066
83.3722
68.9235
54.5459
46.3368
40.3711
36.8732
34.4166
32.6639
31.2477
30.0266
28.8247
27.8099
26.6888
25.8919
24.8183
24.2514
23.0433
186.316
128.709
83.2192
66.4871
57.7008
52.3729
48.8587
45.6447
42.6874
39.1301
35.6137
32.3639
30.0903
28.3598
27.2279
26.3096
25.5223
24.7545
24.156
23.3652
251.832
127.632
85.7684
71.7801
73.58
54.9655
64.5191
53.1203
58.5639
52.0504
54.1648
50.7141
51.2744
49.3702
49.3407
48.379
48.3353
47.8501
47.535
46.9207
228.987
128.153
78.3981
73.2057
62.5719
51.3765
54.4616
45.943
49.4223
44.4594
45.918
43.1338
43.5108
42.0371
42.0842
41.4281
41.5325
41.3121
41.3681
41.2852
158.726
139.56
87.2038
69.8034
58.8709
48.0108
48.0196
40.3893
42.2677
38.5018
39.8295
38.0031
38.6502
37.8164
38.1144
37.8628
38.1025
38.1659
38.3081
38.5535
200.98
140.15
76.1737
79.0802
57.0466
49.0095
47.4427
39.3627
40.7745
37.2501
38.3829
36.9023
37.5492
36.9028
37.1897
36.9367
37.1501
37.2124
37.3364
37.5906
258.03
130.695
76.8893
73.0742
58.9036
49.2526
48.4632
39.0222
38.424
35.767
36.3478
35.7121
36.3349
36.1752
36.4305
36.432
36.5985
36.7545
36.8274
37.0611
220.038
158.583
92.3058
79.1005
67.3025
50.8947
51.8553
41.0864
39.2662
35.6492
36.626
35.5836
36.6766
36.3302
36.3515
36.0891
36.1843
36.2023
36.2695
36.5294
190.959
153.764
98.5873
69.0449
65.0039
54.4971
50.1213
43.4842
42.1536
39.3242
40.1431
39.5741
40.6714
40.3562
39.1859
37.0033
36.2282
36.1068
36.0257
36.2646
186.131
144.529
96.2049
69.6078
56.0416
51.7148
53.0374
48.0406
47.9587
47.3506
47.3531
47.6167
48.1648
48.3172
46.4422
39.3867
37.1398
36.4685
36.3178
36.492
245.127
129.292
93.9216
64.5083
57.6729
50.2822
50.8345
52.9792
53.3354
51.7146
51.1838
52.0432
53.511
53.2818
49.1853
40.5491
37.8665
37.0519
36.8068
36.9568
208.581
141.68
104.942
66.7943
60.7275
51.0057
51.5452
55.0193
56.0085
54.7505
54.4554
52.761
54.8875
55.0152
50.0108
41.0128
38.5481
37.7184
37.3605
37.2878
224.2
128.438
106.12
72.9555
67.7779
58.3069
58.2438
56.9149
56.1483
54.9032
52.884
51.5019
52.7955
53.432
49.2038
41.0867
39.3971
38.9277
38.6452
38.1928
363.917
156.375
104.849
75.6032
71.1824
56.8773
54.2176
48.9145
48.3716
46.141
45.564
44.467
45.217
45.0456
40.155
38.7692
38.7556
39.2276
39.3272
39.162
234.821
147.343
101.283
78.9469
71.1885
54.1616
51.8011
43.1694
42.0081
38.4377
38.9362
37.2547
37.5445
36.7127
36.4661
36.4846
37.0068
37.7286
38.0343
38.3438
229.199
158.354
96.286
77.6345
62.4456
52.1356
48.933
41.9902
41.3241
38.807
39.0891
37.9571
37.9068
37.0659
36.6536
36.4348
36.5155
36.8636
37.0076
37.5218
349.14
202.022
151.348
85.6832
71.7434
53.4778
51.5156
43.9295
43.8492
40.5484
41.1396
39.5053
39.6415
38.5458
38.2836
37.7023
37.6397
37.7656
37.8598
38.4356
261.661
189.819
140.383
77.9621
65.0986
49.9518
48.8412
43.1089
43.7769
40.9412
41.8521
40.2726
40.5529
39.5151
39.386
38.9619
39.0004
39.1477
39.2347
39.8296
128.409
125.37
106.051
70.0159
61.2917
49.2252
48.4627
43.1859
44.7577
41.9667
43.4259
41.8598
42.4673
41.4535
41.5042
40.9778
40.9942
41.0243
41.0529
41.5509
171.666
143.239
108.646
72.1361
67.6851
51.3631
51.6483
45.1627
48.0151
45.0341
47.3992
45.7179
46.7115
45.6509
45.9118
45.4081
45.5083
45.4416
45.3727
45.715
172.021
126.423
91.9024
71.3001
54.877
44.5882
39.7984
37.1917
35.4669
33.6799
32.0281
30.2998
28.8867
27.4788
26.3452
25.1689
24.228
23.2753
22.6857
21.8358
34.231
39.4426
87.6013
35.8967
36.645
41.485
91.8201
36.8051
90.191
82.1007
37.1811
37.7972
89.0399
66.6398
91.9826
43.8459
40.4303
41.4353
97.5677
42.3918
40.5391
94.1805
39.5285
37.2103
95.9585
75.1392
39.7971
37.0843
195.223
232.623
210.29
69.4594
56.2598
67.1157
57.2242
208.62
210.303
210.454
54.6237
49.2075
54.875
48.5847
206.6
210.189
209.226
47.5678
44.0687
47.0524
43.8837
200.113
208.398
208.38
43.5308
40.2906
43.0636
40.5629
176.965
207.38
201.996
39.5079
35.7574
39.8317
37.9402
156.139
200.204
190.873
34.6472
32.0356
37.5613
37.5093
144.524
183.709
149.137
31.8086
30.9516
37.8038
37.5847
136.993
139.679
121.263
30.8368
29.3944
36.5402
30.4591
204.33
241.012
176.498
69.8809
58.1891
73.5862
62.9491
206.769
165.521
153.323
55.3754
48.6359
61.2205
57.1811
212.081
155.584
188.85
47.1228
44.0621
55.0449
48.721
214.326
198.537
219.568
43.3407
41.3069
47.4487
45.5937
210.367
222.494
225.078
40.7639
39.6769
45.5981
45.8015
203.521
224.46
222.079
39.5989
40.0637
45.7716
45.3467
158.826
219.645
182.898
40.46
40.4201
45.4682
46.8344
117.831
161.041
110.902
39.3981
31.2218
46.1209
33.4775
181.587
321.193
266.524
75.1873
67.6842
80.9058
72.639
146.643
259.389
237.383
67.0457
66.5647
70.6145
67.4743
155.891
216.588
142.696
64.8107
52.7263
67.7049
65.0379
213.422
132.213
135.631
49.9771
46.7233
61.0326
50.1813
230.367
151.775
210.888
46.4883
46.3194
48.1551
46.547
225.915
216.993
212.495
46.2297
45.8495
46.6708
48.7762
186.029
203.51
165.1
46.1707
48.0289
49.3077
45.5756
111.796
148.573
118.948
47.2184
33.6266
42.1647
29.5416
272.046
344.948
267.4
83.4068
72.9237
87.9761
74.4836
244.015
265.294
251.732
70.7103
66.0518
70.0725
62.5269
159.468
246.566
216.745
65.6484
64.2533
60.7503
58.4963
135.538
207.535
176.852
61.4001
51.1386
57.4812
51.0858
197.594
169.552
165.521
48.7987
46.964
49.0235
46.7686
201.939
169.645
165.559
47.1927
49.626
46.7947
44.109
152.738
160.425
140.213
49.5155
41.3937
42.0763
34.8382
119.968
133.621
112.183
38.229
28.2483
32.8542
26.5527
50.6875
58.8401
51.0283
47.523
42.003
47.4612
41.9237
44.0574
49.115
43.7276
40.7868
36.9209
40.7332
37.4047
39.5288
42.3405
39.3614
35.7264
33.5303
36.4881
34.2996
35.7519
38.5436
36.1412
32.9901
30.2317
33.6254
31.9891
31.8752
35.4885
34.0722
29.4916
27.4929
31.6859
31.4481
29.0381
33.8771
34.0748
27.0472
25.8575
31.514
31.5389
28.0341
34.2686
33.6962
25.6851
24.9471
31.3183
29.089
26.9165
32.4449
27.8918
24.8409
24.0331
27.9781
25.2493
51.8228
62.0153
56.2737
46.9455
42.2367
48.1215
45.6392
43.9193
55.0325
52.0265
40.9961
37.7488
45.0012
43.1927
39.6326
50.4147
44.7593
36.8954
34.8054
42.3486
39.2063
36.9478
43.2941
42.0624
34.1905
33.7788
38.8882
56.1996
36.0819
42.4897
43.5961
34.1356
35.6713
59.3324
61.9813
37.006
43.6551
42.728
36.1988
36.5554
60.5398
48.1561
36.4509
42.3377
41.5555
35.951
32.1759
44.2302
35.9908
28.7311
40.1207
30.3847
30.5177
26.2101
33.6981
28.4701
60.2623
68.4453
64.123
49.9938
48.3297
54.4359
51.9041
59.4231
62.7775
60.9291
47.9324
46.8785
51.182
49.9822
48.8246
61.1405
59.3582
46.0713
41.8863
49.8944
47.5923
43.3526
55.9449
46.7705
40.3219
57.6931
45.7542
41.1897
44.0536
44.8751
42.4662
62.1654
65.0625
40.1059
37.7905
42.4889
42.3927
43.3225
60.8617
43.9414
37.2586
35.5291
42.0817
43.3866
38.6508
40.9013
34.2919
34.4913
29.0711
30.2902
35.5926
26.4381
32.1192
27.5239
27.2674
23.3852
64.2798
71.4438
64.6508
55.1761
52.0086
55.5857
51.3987
59.6216
61.27
54.9907
51.1619
49.1794
49.4144
45.1568
58.2845
53.577
51.9144
48.8774
47.0491
44.142
42.4142
47.4104
51.064
45.8783
45.5512
41.1495
41.7266
38.5526
43.0383
44.4097
42.5598
40.0251
37.7044
37.7364
35.7155
43.7123
42.3171
38.8051
37.1876
34.9751
34.9363
30.6744
35.6472
36.8493
30.4292
33.5168
27.7258
29.135
24.8591
25.4742
28.6937
23.9166
26.096
22.8312
23.8759
21.5592
40.7665
45.5568
40.5786
44.0566
40.0037
43.4895
40.0291
35.9328
39.5396
36.6822
38.8138
35.8458
39.3995
37.6632
32.9146
35.8878
33.9322
35.0745
33.895
37.1597
35.6637
29.7716
33.311
31.9483
33.3884
31.148
35.1028
34.0125
27.2999
31.7468
31.7141
30.5938
29.5211
33.8518
33.5185
25.8435
31.7546
31.5193
29.2785
28.5322
33.2922
32.5481
24.9935
31.143
28.7334
28.3975
28.1092
32.1797
30.8014
24.1451
27.7524
25.4462
28.0612
27.5226
30.3861
29.4032
40.8172
45.8426
43.8718
42.6253
40.2007
43.3009
42.3517
37.0651
43.3174
41.7315
39.6612
38.2085
42.0945
41.2879
34.4949
41.0427
38.756
37.7832
36.3574
40.9404
39.908
36.3837
33.6575
35.0932
34.1561
35.5529
34.0011
35.4258
47.9883
35.5356
42.4555
35.7602
44.6317
36.5489
45.564
36.9783
74.9215
51.169
37.4933
36.0596
59.7869
45.7146
31.7865
45.9713
36.0397
35.2914
32.7434
42.6773
36.7536
26.4013
33.7761
29.1245
31.994
30.242
35.5623
33.3104
46.2499
52.2944
50.0236
44.9035
43.9782
50.1707
48.1161
44.6596
49.3014
47.8406
43.6913
42.8311
47.3471
45.3742
40.9559
47.5999
45.2802
42.4511
41.092
44.9302
43.1631
52.8853
66.6801
41.9727
47.1735
46.0189
265.695
41.9359
57.4715
101.414
51.8122
221.789
51.4618
208.174
59.3662
45.6379
36.5268
34.1023
61.77
42.8735
36.0686
32.9841
33.6561
32.8643
27.9622
39.9293
34.8388
31.9649
29.7844
28.0693
26.5589
23.7761
33.9939
32.8628
29.5302
29.4622
50.2033
53.2809
49.571
51.1175
48.6098
51.3622
47.7229
47.2604
47.7546
43.6763
47.6986
45.2334
46.0988
42.4724
44.8958
42.7078
40.9689
44.6871
42.984
41.6125
40.0897
40.1443
40.3331
37.4862
42.2607
39.9331
39.5376
37.0043
36.8514
36.7052
34.5358
39.1097
36.431
36.1979
33.7579
33.3734
33.6314
29.4816
35.4549
32.3099
32.7566
29.6284
26.8885
28.1007
24.5197
31.2706
29.2204
28.841
27.5166
23.2672
23.7542
21.9705
28.9944
28.934
27.3117
27.0263
40.7798
43.8478
41.024
49.9982
46.3308
48.4905
48.3059
36.832
40.5472
39.1644
45.0917
43.7773
48.3401
48.1642
35.3243
38.7502
37.3277
44.0678
44.1519
48.0903
46.8778
32.7174
36.741
35.5374
43.4061
42.6158
46.2282
45.1313
31.4937
35.3259
34.8211
42.6989
43.171
45.0361
45.2737
30.7266
34.5984
34.2014
42.8389
43.1606
45.5023
46.7631
30.5703
34.023
33.3069
43.1673
43.6497
47.0169
47.195
29.9737
33.0729
32.2676
43.3566
42.6051
47.1206
46.0814
41.212
43.5708
43.1063
47.7994
48.68
47.9274
49.9749
39.7882
43.0064
42.5538
48.9085
49.049
50.4921
51.267
38.0321
42.2921
41.1605
48.9632
47.4161
51.0975
49.7656
37.7597
41.8272
63.2071
46.804
45.92
49.3591
51.1215
38.0348
62.5072
53.7446
45.8453
45.8036
50.9214
48.5022
36.6811
50.5036
43.1337
46.0412
47.589
47.8523
48.9497
34.8617
41.3826
38.0585
47.9643
48.0986
49.544
49.9647
33.0897
37.4203
35.8887
47.9806
46.7434
49.8201
48.2916
44.5217
50.4648
48.6288
48.9426
50.7982
54.3808
53.9902
43.8045
47.8977
46.0204
51.2622
51.9694
53.6704
52.9959
42.1848
45.6028
44.0023
51.8108
50.5239
52.8661
51.5823
64.8274
43.3246
41.4839
50.0964
51.4759
50.999
49.0711
56.4318
40.7177
37.8905
51.1796
48.6858
48.3455
46.1288
41.459
36.8609
34.2371
47.8279
48.4044
45.7365
46.5694
36.79
33.5681
32.6983
49.0196
49.7897
47.1339
48.2209
35.6781
32.7931
33.1372
49.7458
48.4114
48.3479
47.6446
49.2012
51.7
48.1124
55.8379
54.5185
55.5295
51.8526
45.9196
46.5137
43.1073
53.9064
52.6858
50.4787
48.5433
43.8461
42.3469
41.0162
52.5241
51.3718
48.3644
47.8203
40.9417
40.4611
37.9261
50.7665
48.7834
47.1523
45.4174
37.3332
37.1393
34.7992
48.1064
46.1906
45.0156
44.112
33.7177
33.854
31.3216
45.8639
46.3981
43.5232
43.5921
32.2191
30.7909
30.3297
46.8164
47.7214
43.6896
44.5141
32.6147
30.2945
30.3061
47.8286
47.1514
44.3211
43.7898
49.2251
51.494
52.1548
63.795
59.1533
61.6805
63.2663
47.3748
52.3025
52.4103
58.5015
57.8192
63.343
63.4876
48.1127
52.4234
51.6017
58.9723
59.299
63.6631
65.3911
47.0953
51.1233
50.5834
59.1924
59.422
65.9647
67.366
47.9692
50.6577
51.1744
60.3098
61.102
67.7863
68.4098
48.1207
51.3419
52.3753
61.1341
61.4226
68.2502
67.5412
48.6323
52.5496
52.5842
61.8329
62.163
67.4008
67.0519
47.1433
52.4964
50.9198
62.1792
59.0261
66.988
64.0674
52.6414
50.7454
53.7673
61.7471
63.9615
61.1903
64.9975
53.3602
54.4363
55.4857
64.1756
64.4591
65.5082
66.7499
52.2136
55.4191
54.4918
64.8203
67.586
67.9731
72.5551
51.1293
54.0786
54.464
68.3852
69.8742
73.6
75.6774
51.7338
54.291
52.8933
70.2575
70.6657
76.1206
76.0264
53.2505
52.9465
54.7055
70.354
68.9618
75.0213
72.1147
53.4198
55.2322
55.2122
68.5722
67.7808
71.2554
69.5131
51.513
54.9818
52.7626
67.6257
64.3106
69.1467
65.4392
54.3919
56.6674
57.0001
62.1312
65.3466
65.1363
66.8027
56.0598
56.8519
56.6391
65.8544
67.16
66.7332
66.8524
55.1673
56.6273
55.7862
68.4139
72.9746
67.3164
70.2878
54.7694
55.3174
53.728
73.9623
75.7361
70.9122
71.1669
52.8903
53.1655
51.7298
76.0903
75.9372
71.0857
70.8863
54.2984
51.6735
52.6743
74.8988
71.9764
70.5114
69.5146
55.1852
53.2397
53.9274
71.1959
69.6191
69.3142
68.9346
52.8989
53.9437
52.4322
69.2914
65.4444
68.7827
65.5941
57.3948
57.6882
54.0058
67.0258
66.911
65.6024
63.3835
56.1909
52.7304
51.429
66.5465
66.2418
61.7026
61.2748
55.4035
51.4609
51.1233
66.3803
68.2489
61.2231
61.9393
53.3722
50.4406
49.2385
68.5804
68.657
60.7388
61.2827
51.6647
49.0359
48.6722
68.6435
68.9549
61.221
63.426
52.3657
48.2692
48.8876
68.84
68.6872
62.786
64.3755
53.4132
49.0218
49.701
68.6941
68.6233
64.0587
65.1429
52.0118
49.463
48.3499
68.5076
65.2607
64.327
61.4029
39.1458
33.7497
40.1251
35.0035
37.2573
34.2619
42.8945
47.8204
36.9806
61.3804
45.4223
40.7425
37.7924
201.363
63.884
56.9623
80.7556
227.719
49.1526
75.4719
252.336
37.2327
34.7947
35.7552
37.126
34.6981
36.1001
37.9492
40.2635
35.818
36.007
43.2482
35.0185
44.0178
40.3391
49.8087
46.9571
39.0282
70.2032
38.5208
209.265
44.4147
66.408
236.248
61.2362
90.6151
77.6906
259.892
54.4873
49.5981
36.1895
47.4101
37.6463
46.4188
37.2079
49.7303
85.0738
61.9752
90.8743
209.749
66.4099
80.5036
191.341
84.8185
67.7746
87.5799
104.247
68.9704
76.9763
131.017
48.5352
36.539
37.6372
45.0132
37.2371
46.4643
46.2234
49.4941
37.8905
37.8376
45.8723
37.7075
49.0224
46.435
84.7313
218.668
63.5406
85.3736
81.5824
202.41
64.1477
83.3363
95.9784
58.4749
76.5108
72.4823
138.767
62.9701
59.3042
83.7601
51.4346
235.323
49.7429
250.369
60.2944
42.4439
43.1493
42.5534
42.6564
42.5462
42.1604
41.7138
42.7508
41.9479
41.4233
40.0875
42.2822
42.6182
40.8785
54.2217
48.572
76.5676
42.2283
260.615
42.0169
48.424
60.9596
242.426
95.3865
54.0205
257.617
61.4568
53.2014
42.4559
42.1744
42.1466
41.7629
41.8503
41.4511
42.5136
43.0189
40.1139
42.8543
41.1795
42.9278
40.7946
42.9589
54.6496
104.277
48.9097
137.191
50.6606
196.704
51.8478
41.3151
41.4375
38.6943
39.2944
40.7672
42.1157
38.4874
40.3322
39.204
37.9058
36.8789
39.9933
39.3338
37.6626
57.6355
229.258
93.1422
53.2907
215.471
59.9613
51.7993
54.2693
121.906
90.3005
47.1874
192.18
50.9185
49.9772
41.5213
39.3673
42.3322
38.9517
42.4059
38.551
41.4483
40.4237
36.8043
39.1628
38.0287
39.2639
37.6759
40.3741
126.119
145.486
134.318
85.3577
70.9228
84.6551
73.4325
130.132
129.063
128.614
63.142
57.1144
62.5124
56.8044
117.413
127.351
129.633
51.7611
45.5981
52.7242
51.3777
114.171
127.587
124.287
46.1798
45.0168
50.2352
48.2502
103.044
118.665
113.148
42.4589
39.8209
45.9428
43.5077
95.9106
105.626
101.005
39.4695
38.6364
41.0467
39.2491
90.2525
97.7084
96.1761
38.0283
37.0571
38.3291
37.6094
81.6932
94.2606
87.8288
36.9284
31.6815
37.233
32.5577
156.999
159.057
151.297
79.7979
77.8951
84.9946
78.7816
110.746
217.315
246.486
136.778
108.693
135.73
212.687
86.7085
200.834
194.583
86.4256
85.427
89.1507
196.165
80.4188
208.58
204.633
80.4271
77.7296
81.7397
205.661
75.7956
204.946
204.248
74.24
73.5486
76.8499
203.19
71.2279
191.364
199.332
70.2575
67.8508
72.7058
194.899
62.6549
166.033
176.951
60.067
57.3048
64.7533
173.058
57.7561
148.469
157.588
52.7491
52.0318
58.6419
152.04
54.4587
145.452
141.027
51.8926
51.923
55.7409
141.439
85.3686
90.4467
82.9037
33.955
29.5143
33.4581
28.982
162.341
187.185
158.903
102.564
82.8292
106.432
87.1308
117.243
221.627
245.867
138.627
114.187
141.207
215.713
81.147
202.342
183.97
86.0618
82.5697
85.1669
184.253
76.9515
210.539
198.865
78.4364
77.8088
76.9144
204.043
77.3868
213.605
213.424
76.582
76.3085
77.1902
216.371
76.8022
213.499
219.594
75.0038
74.3506
77.2324
219.339
74.2152
208.044
215.304
72.0071
71.3518
74.9434
214.792
73.5494
187.688
208.676
70.2943
69.7438
73.5681
200.961
64.7829
134.89
150.784
65.2483
60.3851
70.5045
136.791
77.6005
79.0291
68.1788
33.3456
27.8048
34.2895
25.7342
163.994
201.858
192.246
104.897
89.0389
107.665
92.6469
131.494
213.557
261.067
144.857
124.626
147.791
237.964
110.553
162.814
207.273
103.276
102.738
110.863
199.283
100.567
143.143
151.893
89.768
79.9358
108.231
139.827
69.3722
190.619
139.951
71.9634
73.969
69.8957
151.059
79.1349
225.783
209.603
79.7427
80.3371
77.3319
219.366
81.1026
230.135
230.078
80.3313
80.0823
80.8973
229.9
82.1405
214.97
217.641
79.8719
80.4705
81.5973
210.83
80.3643
143.627
164.833
83.3712
79.4295
84.6428
144.015
71.434
84.7885
77.1882
34.2265
25.5212
31.7681
24.7588
207.081
217.307
208.242
113.492
98.4742
114.211
102.92
148.82
299.197
331.311
176.983
148.44
177.324
298.781
108.969
256.106
259.981
113.441
108.545
113.534
253.807
98.318
203.057
230.251
101.789
102.959
98.2865
208.834
86.8485
136.162
163.731
90.7298
84.3115
92.4215
154.656
68.5312
158.531
151.559
67.4436
67.8888
68.4212
157.867
79.7188
207.502
195.755
77.258
78.9891
75.9791
196.24
78.4542
175.654
175.85
86.8278
84.9371
84.1627
165.795
58.6109
133.933
140.551
68.5642
61.9963
63.9526
133.577
75.2376
81.1846
73.0596
29.7217
24.168
29.7995
25.4872
168.391
181.568
166.611
100.181
83.4209
99.7439
82.7315
156.699
161.639
156.179
72.7283
68.0611
75.7437
72.8987
138.406
143.279
132.434
64.1383
61.7495
66.5032
60.227
121.082
124.792
117.955
58.0306
54.3663
55.4212
52.1863
110.121
110.83