/*--------------------------------*- C++ -*----------------------------------*\
  =========                 |
  \\      /  F ield         | OpenFOAM: The Open Source CFD Toolbox
   \\    /   O peration     | Website:  https://openfoam.org
    \\  /    A nd           | Version:  10
     \\/     M anipulation  |
\*---------------------------------------------------------------------------*/
FoamFile
{
    format      ascii;
    class       surfaceScalarField;
    location    "9.4";
    object      phi;
}
// * * * * * * * * * * * * * * * * * * * * * * * * * * * * * * * * * * * * * //

dimensions      [0 3 -1 0 0 0 0];

internalField   nonuniform List<scalar> 
38556
(
104.934
432.296
-290.041
723.637
-223.597
-395.106
880.718
-427.239
270.158
850.954
-248.959
278.723
828.03
-239.48
262.404
828.183
-217.483
217.33
823.863
-180.075
184.396
865.867
-191.127
149.123
895.602
-148.844
119.109
946.422
-137.92
87.1005
971.973
-91.7253
66.1742
999.356
-68.962
41.5788
1008.84
-42.9573
33.4743
1020.78
-38.8844
26.9479
1029.81
-33.0057
23.9705
1041.98
-29.3543
17.1814
1036.25
-17.1778
22.912
1017.74
-11.4142
29.9215
1005.68
-17.0654
29.1321
-29.6942
22.7311
1509.88
735.548
-2179.09
1664.31
-390.91
12.8872
1276.58
-383.529
344.014
1076.55
-276.602
227.676
773.196
-184.652
248.524
649.826
-146.906
52.7926
521.967
-115.548
63.3323
476.139
-114.389
-30.9101
460.555
-92.4431
-40.8176
469.841
-78.9283
-68.2781
492.456
-52.5263
-61.8147
519.856
-36.5883
-59.7731
543.2
-18.6435
-47.6574
559.38
-10.5017
-44.5634
565.64
-2.81342
-36.4516
568.043
-1.58405
-30.1727
568.393
3.22054
-20.7482
571.153
1.45838
-15.6331
578.542
0.0304481
-24.4847
-2.14793
-39.1647
1246.79
659.913
-57.9386
1111.14
-171.374
-83.8832
961.753
-88.9801
-145.166
897.832
-81.4736
-131.207
669.687
-75.3352
118.827
629.866
-59.7305
-47.3544
536.742
-62.8323
40.4084
504.66
-47.8735
-34.4334
469.99
-44.8069
-12.9667
462.345
-24.1748
-47.1077
458.526
-12.3677
-36.3397
462.015
5.81809
-45.8951
463.634
15.2654
-35.5283
464.077
26.9328
-37.8777
458.211
33.0703
-30.0172
446.91
35.7678
-26.0508
426.144
39.0222
-15.0354
409.486
32.3817
-14.2662
405.732
19.507
-15.7219
10.6211
-22.3669
1869.98
209.954
-1903.19
1301.29
186.457
210.856
937.488
215.082
59.7404
794.124
43.5674
18.3232
441.686
51.9899
225.113
321.768
21.2258
38.962
259.848
-42.382
41.4697
224.544
-1.70144
-10.8681
245.352
-56.9983
-8.61585
241.211
-4.14269
-15.8915
265.171
-22.3861
-13.9422
272.043
13.1526
-14.2059
286.946
9.58356
-9.22158
289.906
34.5926
-10.6192
293.352
35.6183
-5.99407
292.581
42.7246
-6.18675
292.066
41.2957
-1.75759
291.588
35.2941
-2.43441
296.748
18.3902
-4.04278
8.85339
-11.6482
-82.6489
567.734
-1355.79
237.721
-122.374
-11.5385
374.889
-114.224
192.139
427.723
-149.169
139.903
260.328
-58.5342
277.918
205.283
58.0008
18.2701
199.094
-124.73
88.5371
193.333
15.4736
-11.4141
220.362
-98.3174
14.2899
228.753
-0.969929
-11.5634
252.61
-53.3328
7.08974
265.482
5.07014
-4.79021
282.8
-10.9249
3.19075
290.359
27.3017
-0.267559
294.162
30.4986
1.31671
293.369
45.1787
-1.66136
292.555
41.8774
0.232485
292.291
36.0338
-0.475904
294.365
15.9338
0.382864
7.17423
-9.33479
703.156
3.30899
-1598.27
679.316
-801.031
702.497
397.917
-430.594
597.769
346.324
-323.56
225.984
170.283
-143.03
260.537
134.358
94.7693
-0.844055
193.829
-235.92
51.7202
121.777
108.523
-20.9981
142.019
-124.282
5.72296
128.361
27.1685
-14.4802
154.493
-80.2522
0.78739
177.452
-6.34803
-11.5416
211.974
-44.4902
-0.956322
241.545
9.62412
-11.8931
270.328
8.32801
-6.61224
286.444
33.7609
-4.69888
295.688
33.6558
-1.02189
299.376
30.0504
2.29571
296.903
14.7838
3.62329
8.61502
-8.57864
-278.691
-1148.14
-1106.02
221.015
-878.905
-421.832
311.955
-776.64
255.105
358.429
-529.886
159.852
218.866
-340.957
337.491
114.475
164.766
34.3949
88.4344
-33.563
41.1613
-91.8889
-35.2348
-90.3542
8.82906
39.7666
-19.0201
64.9113
41.5778
60.8931
35.1093
-7.84665
-15.6857
-56.0617
-16.3073
-54.6612
41.6021
6.81621
-15.3098
11.5195
6.56526
11.0845
92.9508
-20.4841
-7.4248
-43.2087
-20.6206
-39.8629
124.479
-12.3968
1.74829
-11.2247
-8.40104
-7.60236
167.754
-18.11
-0.456501
-29.4554
-14.664
-25.0793
199.833
-6.5295
-1.82497
-7.22126
-2.53575
-4.34301
228.771
-15.7643
-4.8458
247.261
17.0186
-1.7471
255.952
23.9089
1.05539
255.082
26.5875
4.33354
250.915
13.8528
5.09789
9.40477
-7.86519
776.363
-777.463
-1813.8
725.832
-671.82
-156.554
578.042
-715.095
86.2452
530.059
-485.964
4.06109
341.117
-381.324
229.309
71.1204
17.0039
21.3241
74.2587
64.1176
66.8156
85.8517
21.3447
84.0458
34.2159
-3.94132
7.28283
19.7115
-6.30262
20.8787
5.47907
-18.2724
5.62767
2.11215
2.68596
9.55373
6.62982
-4.77323
-4.59413
-27.8217
28.5987
-19.4101
-1.851
-25.4951
33.5496
-19.668
-0.783371
-43.5899
46.6509
-23.0355
1.86455
-46.48
54.5065
-15.1757
0.619737
230.695
-4.17622
-1.302
-57.8524
-61.5337
-50.0313
-53.807
-8.46039
-1.94316
-7.35268
245.67
2.83592
-0.792637
241.392
25.6386
2.54847
232.594
31.0146
4.37105
218.004
22.2989
6.14317
15.0504
-8.09315
466.649
1696.13
-1269.93
754.628
-216.15
-743.65
539.719
-425.902
-74.2841
430.061
-302.423
-73.8831
7.48293
-249.184
217.571
16.0551
27.5731
29.2394
29.4449
2.71507
-7.6729
-4.72008
-19.2627
14.3826
8.59808
1.00214
-10.6359
-3.7238
11.4989
2.63435
0.226529
-16.8987
-1.1651
17.2125
0.787372
0.0638526
-15.872
2.17168
16.6202
-2.42517
-0.49464
-17.4153
3.33777
17.3145
-3.05461
-0.182316
-13.5153
4.3344
13.2912
-3.89999
-0.210332
-12.6499
5.77859
13.3422
-6.52481
0.053902
-14.1701
5.34121
15.4617
-6.94623
0.313376
-17.537
73.1369
-7.65425
-0.36941
-17.9426
-16.7455
-17.0644
272.128
7.17996
-1.74311
-70.5369
-73.4844
-63.5339
-67.1739
267.599
26.7829
3.38478
252.799
39.9496
5.86503
229.508
37.5547
8.03553
26.6064
-7.93336
1388.26
2876.94
-3925.03
720.994
917.244
-466.127
688.384
-17.7559
-375.537
495.18
-10.013
-99.2058
66.3513
-133.803
94.9222
66.5669
75.0453
76.9128
-2.00998
87.2977
-13.0861
-5.8504
1.42422
-21.9484
22.6751
-1.45983
-0.691076
2.29388
-24.2834
24.2823
-1.60497
-0.687788
0.637218
-23.2426
23.0148
-0.275979
-0.133444
0.92694
-22.1042
21.7251
-0.248964
-0.298834
0.545266
-19.9165
19.5269
0.489609
-0.645271
1.2632
-19.5707
20.0321
-0.457078
-1.26759
6.08272
-22.6275
23.3597
-5.18378
-1.6311
9.19624
-23.3429
22.8552
-9.07362
0.365042
-21.4612
11.6066
86.5797
-13.0886
-0.322237
-21.7097
-20.5801
-21.0245
328.27
14.0449
-6.7645
-84.9467
-85.5331
-77.5382
-80.3528
319.967
37.1713
-2.08511
299.379
56.73
3.80771
263.044
62.0442
11.8455
45.0984
-7.48526
946.112
985.894
232.028
1040.76
843.212
-20.6138
744.843
440.809
-162.65
598.612
228.986
-92.7679
72.4483
81.4276
38.6489
91.442
79.4451
101.397
24.4055
69.6891
-20.6088
-1.0377
5.38439
-17.2646
17.8548
-7.72318
1.74855
4.30752
-22.8743
24.6876
-8.49417
2.37344
2.42863
-28.9904
30.1216
-4.93748
1.37761
-0.206828
-31.9856
31.9487
0.435936
-0.192176
-2.65594
-30.1714
29.882
3.53344
-0.58808
-1.17483
-30.3514
30.9774
2.08359
-1.53474
3.09466
-33.6187
34.5219
-2.71003
-1.28783
6.41499
-33.3847
30.3555
-5.36271
1.97693
-22.1439
14.6245
83.343
-12.5238
0.0205344
-21.4019
-21.4659
-20.4526
304.73
16.5201
-16.1895
-80.0777
-69.7082
-75.9169
-65.3127
307.969
37.5361
-3.60445
296.108
66.152
2.43913
269.61
84.0494
4.49247
68.1203
-15.4408
53.5179
1037.73
-1362.53
532.516
444.284
-80.0706
437.525
386.419
149.381
474.164
165.576
26.7711
74.1274
115.548
104.002
82.7221
88.0516
91.141
20.7615
102.738
-45.224
-4.14852
14.8892
-33.6872
36.9409
-16.3863
-1.75651
16.6419
-41.587
42.3133
-15.7246
-1.6436
14.1471
-42.4981
41.7385
-14.8329
1.44538
2.57702
-34.4979
33.2159
-4.49362
3.19859
-4.31811
-36.712
38.3325
2.04491
0.652734
-4.26849
-38.9726
38.6911
4.3953
0.154661
2.68153
-36.6531
33.7493
-1.47489
1.69713
0.833574
-22.8297
20.4363
0.0991343
1.46072
-14.6669
8.46472
55.2444
-6.54465
-1.3892
-13.6169
-14.4186
-13.0728
222.055
5.64314
-16.2865
-52.839
-46.9388
-50.3112
-44.8021
258.052
8.72735
-7.18887
278.236
44.0525
1.91576
279.265
85.8577
-2.83681
81.9609
-18.7192
-99.8628
400.138
-359.77
460.168
-104.494
-11.254
403.82
-111.199
553.967
482.973
-179.731
266.154
439.857
-59.7351
218.399
93.4594
-290.801
42.5718
64.7079
103.399
54.4877
93.3499
98.5906
87.7905
92.3008
13.1825
84.5997
-38.5079
4.15588
6.41583
15.3488
8.26476
12.3746
-57.8217
65.8618
-50.7155
-5.4351
11.5363
12.6634
11.5362
13.783
-84.6672
89.9242
-44.5649
-9.15965
11.271
13.0081
10.4054
9.17579
-82.246
83.6839
-27.8249
-4.47941
7.26138
8.14924
6.28003
2.65448
-91.9089
92.9335
-2.11647
-2.21758
-0.377492
1.86583
-0.833433
-1.8612
-83.732
76.9861
13.8973
4.60105
-4.20951
-1.77908
-3.90264
-2.71356
-70.6265
63.7072
16.7157
4.63904
-4.81439
-2.42254
-4.48498
-0.928799
-52.911
49.5816
6.71212
3.29577
-2.737
-0.673969
-2.33869
141.436
28.8734
-13.0813
6.03847
-4.66541
4.62727
-7.8163
-44.0498
-39.0852
-38.0311
-34.2458
163.471
-6.79109
-9.60134
194.099
-14.8366
-7.06359
243.055
-3.5456
-1.35771
293.347
42.0328
-6.46721
61.2842
-16.0829
-1069.8
988.089
-1095.11
-515.588
-93.9367
-564.77
111.953
-690.217
-48.5234
265.45
-450.622
117.395
391.705
-298.865
112.875
359.446
-298.641
40.099
349.478
-40.7085
41.9519
24.0381
-14.9928
19.5039
-19.8249
279.549
-186.233
17.0424
58.5945
64.5663
55.4011
60.5581
232.016
-7.31956
9.69771
30.1324
-1.10611
23.6749
-7.54651
188.536
-44.9979
12.0149
25.2702
17.4539
20.3964
13.3422
175.385
74.2024
10.522
-3.34583
-30.8631
-6.1324
-31.2315
171.645
53.3448
7.73968
-10.8636
-19.3291
-9.38816
-17.7641
174.423
89.3171
-4.03849
-16.8995
-28.8879
-15.4393
-26.8302
174.138
51.1207
-16.961
-4.68962
-13.6491
-2.6496
-12.8862
178.652
43.7232
-19.3631
179.769
1.2029
-9.11097
184.136
-16.0921
-3.11135
205.293
-26.1229
1.41968
255.211
-1.80587
-6.07872
30.6642
-14.9598
568.104
1716.26
-1402.63
203.919
476.115
-205.866
50.2043
-642.354
105.852
54.5915
-538.054
83.044
158.656
-437.361
34.4311
177.133
-343.578
26.4597
275.231
-161.947
23.1404
245.704
-176.046
19.34
245.552
-34.4341
27.266
216.061
-35.0149
19.508
214.283
63.9394
12.0409
215.061
59.4217
-6.85524
232.931
87.539
-16.0919
254.605
59.0879
-29.6408
278.407
49.3316
-29.4103
274.855
17.6388
-12.8841
240.615
10.4242
7.72348
204.791
-3.08783
12.7895
195.02
9.46779
-1.50298
28.375
-11.3164
1933.39
877.167
136.221
1557.63
559.259
292.614
804.128
-57.2568
168.402
584.65
-285.152
-33.4236
435.493
-217.973
-70.2315
397.265
-252.524
-52.8249
394.6
-132.006
-27.2762
407.511
-150.713
-38.2432
408.302
-26.4639
-8.76069
385.823
-10.3293
-2.20719
354.073
80.5524
15.1369
335.15
77.6024
0.742363
329.486
96.1227
-2.91962
330.966
73.0603
-15.4515
332.756
60.0756
-12.5344
324.171
33.3923
-7.1688
294.131
29.1606
11.3042
251.076
21.2034
18.7639
220.19
26.0878
14.2653
33.0918
-7.15215
334.887
960.126
722.821
445.685
541.264
-92.804
379.179
261.079
-251.829
300.058
-66.132
-139.899
236.731
-50.6094
-104.037
196.671
-165.837
-46.6266
217.952
-112.281
-41.0057
232.295
-125.023
-40.0337
277.364
-44.9596
-26.5731
297.106
-10.1501
-19.9205
318.462
62.9567
-3.76059
326.417
74.7102
-5.06194
333.429
89.6359
-0.525699
336.524
75.7224
-5.75704
332.008
61.4314
3.16055
316.987
40.3176
8.09583
299.691
31.1686
15.2874
283.417
23.8307
13.6467
271.045
23.7913
14.6686
25.2869
-1.33821
-395.911
937.67
2981.17
189.368
265.807
-309.822
193.114
424.916
-167.583
134.186
-3.80741
-3.39683
199.401
-18.6401
-97.184
150.002
-80.0012
-36.4375
183.375
-109.613
-36.0418
201.807
-107.609
-35.8466
253.163
-82.1161
-14.199
285.255
-31.5952
-10.6472
317.728
22.7856
7.69827
338.194
47.6355
6.60816
350.571
62.9201
14.3383
356.776
58.9674
10.5505
354.721
50.7165
12.7695
345.457
40.7266
8.85477
332.919
30.7968
12.91
325.641
21.5033
9.60549
323.326
15.4563
10.6501
14.3678
-2.63132
-1630.9
1531.66
44.4592
-242.01
-577.244
-545.838
368.006
46.6953
-231.795
347.679
-79.5807
96.1008
355.273
-53.7574
27.5233
308.276
-31.0248
-1.97934
283.754
-76.9893
-8.10089
285.414
-60.2426
-49.0266
312.114
-75.4523
-33.3635
330.333
-35.6795
-14.1347
346.837
-8.27369
14.5545
364.303
20.7884
9.38139
377.316
36.6457
13.2613
387.162
42.2021
6.9194
390.937
39.5204
7.42095
393.456
32.7033
5.50456
394.223
20.6436
9.38643
395.904
11.1686
8.65377
396.865
6.21279
8.28221
7.44035
-2.32542
920.142
-1855.13
439.906
-97.0075
642.376
-155.775
721.598
-158.803
677.98
-10.1393
658.731
-11.7758
589.565
-7.8228
616.205
-86.8831
634.87
-94.1169
656.48
-57.2895
613.094
35.1122
580.026
53.8563
561.606
55.0665
567.493
36.3151
580.016
26.9973
605.359
7.36047
625.567
0.435015
638.09
-1.35382
643.637
0.666429
-0.314061
1312.49
198.562
2825.2
758.255
-187.416
346.549
905.59
-207.956
330.778
843.081
-69.1737
410.406
865.19
-98.2833
338.579
895.689
-105.462
292.293
906.737
-72.5234
245.871
954.151
-92.0955
193.805
971.625
-49.5237
151.158
1004.41
-48.1632
102.477
1006.57
-9.87051
73.8858
1009.31
-3.978
42.8218
995.606
14.2844
32.8892
991.166
12.924
18.4636
982.109
16.2694
16.758
974.541
13.0637
11.6865
951.558
16.4324
29.4624
932.135
13.1462
36.1985
923.391
11.5361
26.3404
7.61311
10.3456
1764.07
432.402
-844.828
1135.51
-203.043
657.08
740.486
21.3927
509.685
621.107
5.1853
272.697
500.661
-7.21152
277.898
436.234
-15.4086
27.1669
410.541
-9.66444
26.1657
398.641
-20.8789
-90.226
412.738
-4.66199
-99.7766
427.328
0.326239
-131.357
447.928
19.7131
-111.998
466.273
23.4974
-105.594
478.193
33.6443
-78.9377
483.119
33.022
-69.5868
480.49
33.3356
-50.8892
475.825
29.0083
-41.4518
470.303
28.0989
-26.8918
468.721
22.4793
-23.3848
469.119
20.0826
-33.4289
13.6607
-51.4455
513.438
346.61
-2264.95
95.2978
-16.0097
147.223
254.934
67.3687
-350.778
252.148
-17.4456
-105.79
303.622
-7.78284
67.9253
319.828
2.08586
-81.0547
330.94
-7.89823
27.5311
329.149
7.07373
-60.5952
331.855
6.13331
-26.4671
328.943
26.9739
-70.8433
328.456
33.7849
-49.9243
324.821
41.5567
-60.3203
321.635
41.8244
-40.5217
315.295
44.6727
-43.1887
307.01
41.867
-30.2635
298.164
39.1987
-27.3954
290.359
36.8546
-15.9854
286.567
28.5893
-16.5844
288.235
20.4655
-17.773
12.4864
-28.9641
945.884
154.845
-2601.81
732.456
208.901
199.374
494.732
167.725
197.108
373.295
12.4398
109.876
241.522
75.3875
273.716
174.451
75.8369
32.2813
181.241
-16.7582
43.5397
143.418
63.8119
-29.7832
171.329
-12.3219
-18.0714
159.437
52.9187
-29.9444
181.335
12.9638
-15.0189
179.768
48.7211
-19.8039
190.502
31.6538
-9.78428
188.348
49.7473
-13.5403
190.414
40.7227
-6.91571
189.199
41.9568
-7.72928
190.582
36.4769
-2.76317
192.948
27.3119
-3.52304
198.955
15.466
-5.05064
10.1414
-18.4606
-217.479
1030.5
-1541.18
-85.8503
-98.1751
163.908
32.3564
-0.942212
242.599
2.1833
-88.5598
271.075
75.1371
-3.91756
284.27
25.0192
119.63
24.5952
104.852
-101.672
93.618
95.193
81.4391
-19.3827
131.946
-54.0938
19.3084
132.478
54.9304
-14.107
153.479
-9.29953
8.35159
157.35
46.2209
-6.16058
169.693
17.3509
5.15096
171.228
50.2291
-2.2848
174.099
37.6446
1.52363
173.577
43.9146
-3.09666
174.793
35.1438
0.349783
176.644
25.4209
-0.435562
180.381
11.4102
0.701377
8.53669
-14.6308
-372.865
1372.3
-138.271
-286.91
-557.531
1075.9
29.4536
-212.887
493.349
12.8458
-187.123
341.154
49.7452
-54.3706
274.09
4.76622
153.722
10.0428
106.158
-215.785
64.4417
38.0194
152.484
-23.905
67.7404
-90.1202
12.0283
55.5902
76.2948
-23.6943
82.8423
-41.1457
5.38125
97.7213
32.0802
-12.2799
119.745
-8.537
2.90792
133.242
36.1134
-11.2741
149.176
18.2558
-3.15739
159.466
32.6369
-3.71123
166.068
26.937
0.582901
170.462
20.5005
2.82319
171.162
10.0174
4.31522
8.51954
-13.5377
101.159
-652.16
-2738.87
-440.187
-470.589
32.5716
67.6281
-503.543
37.9465
7.76859
-284.645
317.235
103.825
-172.272
359.335
-20.6762
268.058
44.5605
-15.9396
-31.1868
50.6331
-84.1622
-34.1203
-80.5244
-107.431
51.6242
-8.11562
64.5159
54.6903
62.2406
-42.8532
-18.4577
-31.1028
-50.3352
-21.7759
-48.7116
-33.8745
12.0717
-5.82781
14.8288
14.4746
16.459
23.9832
-17.4025
-6.16698
-34.2193
-16.7046
-31.935
55.5758
-2.20762
5.0494
-1.77764
0.6554
0.516194
92.6262
-9.27699
6.80454
-19.34
-7.30584
-16.9253
114.236
2.63523
4.88977
-1.02303
5.53456
0.642195
130.689
-1.47138
-1.57176
140.262
20.4752
0.841836
145.388
19.174
3.69272
146.405
19.2928
4.52427
145.804
9.76624
5.95005
9.19415
-12.6751
321.377
-559.4
-6172.06
-144.541
-280.39
119.166
202.959
-493.867
-270.931
98.2393
-246.304
70.439
166.364
-223.241
212.154
30.7204
59.7353
4.8231
32.8848
19.8677
22.8621
107.195
67.4586
110.199
-16.8179
2.68466
0.0217067
13.6452
-0.451708
47.6861
-27.8911
33.3036
-1.02262
-1.76315
0.327276
-8.37114
-8.27743
-0.373245
7.84163
20.4074
-5.96156
-2.8613
-7.35444
2.90114
-11.2688
10.5715
-17.3977
-2.20866
1.85912
-8.42347
16.4767
-11.691
-0.428958
-2.14161
-25.8132
28.2358
-12.9712
3.41318
0.691887
-28.1994
34.1078
-3.65161
-0.313438
138.93
1.36991
3.0284
-36.3047
-39.8537
-30.2755
-33.3773
-5.04705
2.91523
-4.15896
148.131
8.77528
1.70653
142.645
24.1218
3.08674
137.739
24.1114
4.45852
130.471
16.3062
6.87148
12.2088
-12.2839
-292.428
179.08
-2830.03
-52.1426
-213.67
-1050.66
114.531
-327.211
-407.614
2.66839
-151.942
-56.3824
5.87414
-161.23
157.92
-0.0601549
2.37896
-7.88498
5.07085
20.6186
38.6225
1.29761
-3.2074
-5.22593
-13.643
10.5271
8.41481
3.13442
-1.25359
-5.99747
-4.06032
6.523
3.17964
1.60874
-0.260553
-11.0598
0.497434
11.1271
-0.38675
0.0826201
1.35391
-9.17037
1.99279
9.67906
-2.35989
-1.4955
0.996281
-10.4657
3.37783
10.4849
-3.21099
-1.18236
1.03788
-8.47089
3.47634
8.87811
-3.82693
-1.0945
0.0517693
-9.23998
3.84846
9.9961
-4.76823
0.11188
-0.361331
-10.5502
2.4717
11.654
-3.71294
0.498758
-12.7735
1.40031
51.942
-0.834809
-0.753505
-13.2275
-11.9677
-12.4155
178.231
17.7804
1.13713
-48.7954
-53.3678
-42.1231
-45.83
168.609
32.1767
4.95219
154.858
36.9197
6.80719
141.016
28.1491
10.0347
19.7138
-12.3392
1144.69
250.062
-2700.09
339.9
619.436
-494.449
368.765
-3.33262
-728.28
149.647
46.9726
-79.0022
28.231
-90.3185
77.8065
32.8319
11.6117
23.1771
6.69278
-22.7612
51.5887
-0.677823
-6.61149
-0.725381
-3.60551
-17.085
18.8226
1.65854
0.934703
-1.35116
-0.629559
-18.8065
18.8227
0.0706328
1.89394
-0.781359
0.753237
-18.9445
18.897
-0.946879
1.02242
0.47763
1.54829
-18.1922
17.9007
-1.19073
-0.543726
2.1112
1.598
-16.924
16.7159
-1.00021
-2.50083
3.47044
3.207
-16.4365
16.5283
-2.91222
-3.857
2.42962
6.22049
-16.5392
16.4643
-6.42746
-2.14779
-1.18001
5.84204
-16.3231
16.5093
-6.21876
1.37053
-16.8179
-0.227528
3.2019
66.6613
-3.67515
0.803868
-17.4304
-15.9539
-16.5623
226.147
32.8156
-3.74757
-63.4072
-66.9797
-55.4333
-58.3789
206.785
48.2277
1.22585
185.083
55.4712
6.95866
163.718
48.1761
13.1832
31.7652
-12.8179
1054.77
607.08
-99.8615
911.499
555.51
186.579
492.711
233.615
19.1909
328.162
132.087
-13.333
44.2149
40.4943
39.7643
64.4313
34.5035
53.084
-0.145025
12.8715
46.5791
-11.5096
-3.58101
-3.8534
3.39541
-14.1357
16.1165
-5.22459
3.70171
-5.65075
3.23122
-21.0851
22.8216
-5.44658
6.1296
-7.50195
3.45583
-27.0607
27.6674
-4.84537
8.28471
-2.92285
1.17473
-27.2097
26.9415
-1.43203
3.44836
0.953107
0.0694567
-25.8229
25.7048
0.229399
-1.1339
3.94238
2.1314
-25.7753
25.761
-1.7036
-4.35589
1.50183
5.86538
-24.5959
23.7586
-5.44264
-1.08726
-4.18595
5.35518
-19.9294
19.0925
-4.53459
4.20227
-17.7686
1.19167
3.62612
67.5458
-2.33096
-2.64518
-16.7257
-16.9419
-15.9513
219.614
39.6752
-17.5207
-64.4027
-55.0324
-56.5044
-49.2031
210.592
54.5999
-0.954822
196.081
66.0621
6.35916
175.366
66.74
6.6435
46.6868
-22.0166
-470.894
-317.596
-614.744
65.2126
52.2881
-112.955
159.937
230.311
57.9607
193.777
92.5083
32.5097
49.8116
62.5842
89.0765
54.8067
37.8316
44.1617
10.4761
9.24964
83.4744
-36.3752
-17.0134
2.44917
10.9077
-27.6145
30.1335
-12.8792
-2.99668
2.48073
10.999
-31.228
31.3383
-11.1149
-2.47515
-2.69972
6.20872
-31.2612
31.1347
-6.25172
2.86924
-5.72123
1.46568
-29.8794
29.5042
-1.16162
5.79241
-1.70469
-1.79916
-29.0587
28.805
2.1019
1.65568
-0.508175
0.16722
-26.7843
25.8202
0.563859
0.741175
-3.50731
2.83025
-21.2764
19.4336
-1.21447
3.7343
-2.93026
1.31203
-14.5171
13.6915
-0.401833
2.84569
-11.9194
3.00272
1.2685
45.5005
-1.50654
-4.2511
-10.6793
-11.3069
-10.1086
163.622
25.1941
-16.5142
-42.4115
-36.7221
-37.4952
-32.2849
182.658
33.4504
-5.0753
192.867
54.6657
3.10325
191.876
67.428
-2.53379
53.4587
-26.2591
-546.789
-593.609
390.556
-206.33
155.332
-454.756
143.326
171.029
263.592
231.688
42.1289
228.172
290.325
45.6599
176.686
57.983
-229.903
44.3306
60.713
90.8561
62.1212
88.2278
61.0341
47.2022
50.3314
11.4208
-10.6533
52.8332
-25.1017
7.70409
5.8081
10.7244
5.24735
9.13994
7.26914
-27.1482
35.0618
-38.3211
-9.03971
7.72142
8.41403
6.90266
6.87556
11.5756
-48.6916
50.2518
-20.2887
-12.8786
4.22892
5.80622
3.12082
2.28996
6.11514
-42.4145
46.3193
-7.91699
-6.39419
0.599519
1.51226
-0.110446
-1.11547
2.31828
-52.5614
51.824
8.55885
-1.18556
-3.15864
-1.31316
-3.36684
-1.54092
-6.60064
-43.8176
41.3244
10.8603
7.70615
-3.28722
-1.46096
-3.18347
-1.29726
-6.90008
-39.0485
35.8497
11.9631
7.46537
-3.50727
-1.19101
-3.334
-0.059988
-3.65229
-30.1419
31.0032
3.15583
3.0249
-1.66328
-0.00493983
-1.66153
86.8469
25.0368
-14.3721
3.13515
-11.1269
2.20908
-12.1183
-28.2796
-23.5832
-22.7774
-18.0519
111.351
-0.140889
-8.77043
140.335
3.46804
-6.06478
177.128
15.2959
1.2187
201.658
41.5739
-5.14299
40.255
-20.9081
-1000.1
-140.974
2619.28
-574.501
-139.183
-695.859
-110.314
-251.416
-90.265
54.3897
-150.74
145.559
217.693
-111.447
106.679
168.591
-178.087
37.3846
174.708
60.2615
42.6607
5.15396
-33.8813
-1.30079
-37.0589
119.646
-129.034
8.44265
48.9233
51.2955
46.3522
46.1242
99.5358
52.0265
9.21651
10.586
-19.5082
3.69266
-26.2046
76.1573
-17.6419
13.185
14.4546
7.97426
11.7549
5.66668
78.774
84.0191
9.74348
-9.67744
-31.7889
-12.6742
-31.7166
80.5478
35.3091
7.95702
-6.37775
-13.5585
-5.19211
-12.1722
87.6351
63.4662
-4.58231
-12.288
-23.6979
-11.2372
-22.7865
85.9954
18.4713
-18.1175
0.622272
-9.25502
1.543
-8.58527
89.6446
19.6846
-17.6601
95.7194
-8.07545
-7.25102
109.537
-13.7798
0.319145
136.451
-13.4012
3.20242
167.137
9.03244
-4.22253
21.5389
-18.1695
-1685.82
-356.406
-2114.37
-1003.88
-583.052
-443.933
-374.175
-540.635
-234.637
-174.841
-333.768
66.738
8.92982
-275.497
14.7102
30.0718
-206.641
33.8714
129.056
-45.5005
29.9181
90.6974
-89.2934
17.9586
107.194
35.0798
27.7169
91.91
1.04312
16.1067
104.078
72.2326
11.6595
107.845
33.9461
-9.25898
120.714
52.5415
-18.0367
125.828
15.2066
-31.4902
131.48
11.3681
-26.7455
128.126
-8.49397
-9.1116
120.089
-7.56283
9.5443
115.463
-8.23713
12.2511
117.342
4.40742
1.24311
15.1372
-14.3895
1332.4
-1226.02
2198.37
733.836
-241.319
549.441
527.365
-68.2988
-97.4632
436.851
-148.981
-127.697
296.8
-99.1029
-106.574
244.008
-140.407
-66.2673
225.57
-30.0482
-24.2906
209.439
-67.9641
-43.4409
201.025
38.5026
-3.76977
187.702
16.3392
-4.18075
184.146
74.4239
16.5014
180.453
41.9012
-3.51948
182.914
50.8071
-3.64569
181.013
18.5912
-16.9351
177.955
13.3359
-11.4444
170.925
-1.30733
-7.32584
160.989
2.9104
10.7673
147.719
5.4904
18.3058
139.175
11.4313
15.7856
15.3538
-10.7429
790.242
-949.584
2679.14
492.983
240.287
-277.15
416.198
309.898
-553.241
278.042
100.492
-251.216
146.193
77.5173
-148.808
95.4825
-73.6581
-62.6651
103.87
-31.9492
-47.4919
104.935
-64.2669
-44.7957
141.172
-1.43173
-22.8762
152.306
3.23481
-17.9498
175.798
48.0924
-0.921282
183.8
35.5244
-6.68798
193.234
40.9711
-0.123099
193.033
21.1343
-8.09853
191.789
15.434
2.30627
187.106
5.61812
5.85299
183.448
7.256
14.5998
180.026
7.8073
14.7517
179.395
10.7769
15.9541
12.3273
-7.10052
552.177
1118.93
3400.23
543.951
380.807
-442.115
181.026
597.731
-92.4899
114.925
173.115
-9.91884
101.223
102.749
-108.714
57.275
-18.0968
-48.0506
86.2476
-63.2235
-33.74
98.015
-76.2024
-35.6783
144.653
-59.5114
-2.75716
169.16
-24.554
-7.36599
198.92
10.6284
15.4025
216.083
18.6258
6.3442
229.445
26.3506
15.5968
233.892
19.5952
7.64228
233.531
16.7264
11.8391
229.226
12.4809
6.29675
225.566
10.8778
12.9477
224.853
9.72002
8.40502
226.81
8.44819
11.0222
9.22397
-10.2671
290.222
-25.2629
1486.86
278.944
61.3116
-215.065
206.2
450.556
-11.8764
241.176
157.173
77.0652
288.384
132.973
-49.9079
268.583
74.4761
-74.7517
249.742
-21.6202
-30.8629
232.447
-51.9287
-56.0047
236.747
-88.6811
-8.49432
244.12
-42.2241
-3.83742
259.401
-16.8888
26.7911
272.595
1.57573
13.2378
284.285
9.35987
18.5618
290.859
13.7437
6.19725
294.065
12.3931
8.54781
295.275
12.7803
3.99523
295.799
11.6582
8.08303
297.465
12.4778
4.22944
299.079
12.9175
2.19855
13.562
-14.0259
102.289
-2457.98
32.4228
34.1706
558.638
-231.434
699.217
-142.208
826.942
-4.89109
925.169
-35.526
841.467
54.2586
752.316
-49.6609
603.958
-34.4399
542.533
-38.0883
508.592
52.1643
506.715
57.3092
507.556
63.5856
517.879
39.7352
525.456
31.814
533.149
12.4482
536.725
8.51674
542.45
5.39981
549.357
6.67688
0.773675
762.257
-478.677
1124.6
614.573
-154.698
648.931
903.955
-77.2274
118.623
979.837
8.20148
326.323
1015.48
2.69661
300.243
1069.31
-27.8584
266.314
1061.89
14.1775
239.112
1079.31
-2.93061
179.318
1040.87
44.9397
144.659
1017.02
39.2795
87.046
965.204
66.5013
59.2027
929.702
56.8563
21.4679
884.556
61.1963
16.8389
852.687
50.266
0.0666661
811.158
47.3399
10.9477
774.188
38.087
10.5691
741.284
34.8755
27.4908
724.011
26.8634
26.6085
708.749
28.1119
13.4902
23.1918
-8.76213
112.918
332.368
1777.94
190.943
-29.9671
454.324
345.04
167.506
110.854
340.431
115.618
169.89
379.148
111.495
130.382
342.553
70.7295
-34.8264
366.127
67.0509
-50.2824
364.584
47.7462
-139.359
386.624
59.7458
-136.623
392.726
54.1503
-152.33
400.562
64.767
-118.1
398.312
58.4649
-104.953
392.005
57.4739
-68.9084
381.474
50.0267
-58.8153
368.292
45.919
-36.2867
355.847
38.4869
-29.4072
346.225
35.732
-18.1264
342.841
28.5231
-21.66
339.283
27.2338
-28.9925
17.9368
-46.8642
921.158
1235.39
633.821
216.738
255.3
566.376
4.59063
184.387
-155.512
-7.75474
42.2608
-20.0879
134.047
57.496
-19.8773
141.883
48.7649
-66.926
202.898
35.878
-2.31145
204.61
56.39
-70.9508
223.631
49.25
-34.9933
217.833
56.1833
-67.0779
219.066
53.428
-39.8184
209.213
58.0336
-50.0365
204.381
50.7863
-29.0012
194.285
49.2565
-32.3225
186.972
42.8223
-19.8542
179.506
37.9517
-19.3945
175.911
34.0862
-10.7438
175.786
25.3565
-13.2929
177.692
20.5328
-12.9788
12.8986
-23.9588
527.155
776.186
-3123.46
427.738
382.844
171.248
204.686
273.049
331.498
133.971
92.539
130.312
116.358
147.506
201.318
62.9344
123.318
11.1518
103.329
12.462
26.5614
63.2628
90.4807
-23.807
97.3287
9.99591
-12.8833
77.8216
73.3152
-27.5691
99.0212
29.2485
-12.0391
91.466
62.9588
-17.1738
101.067
38.1516
-6.75067
96.1366
51.6752
-11.0288
99.0277
37.7639
-4.74829
97.8955
37.5029
-6.14797
100.741
30.3476
-1.8697
104.127
21.6318
-3.18499
107.823
13.8451
-2.05878
10.0012
-12.8105
-959.9
555.147
-2931.92
-614.232
-102.166
303.25
-337.465
142.655
96.2261
-260.582
-21.427
308.158
-54.5873
64.1381
161.644
-118.008
142.369
68.9657
29.0297
-80.7197
39.7624
5.57012
107.82
-13.2629
53.5146
-32.4637
13.8235
44.5963
82.0902
-13.9636
68.0062
7.70001
6.49
65.6612
65.6391
-6.49586
77.6804
25.4452
5.83827
76.3286
53.6847
-2.94248
80.2646
33.9996
1.35202
79.5727
38.0522
-2.95392
82.4961
27.2588
0.515362
85.1297
19.2978
-0.735025
86.7786
9.81466
3.08283
8.99878
-8.88643
-1169.82
1893.85
965.17
-700.217
-378.892
883.024
-249.309
-22.5682
207.664
-188.615
-98.2538
357.287
-47.0812
20.0237
176.671
-125.762
163.672
67.4201
27.5483
-198.216
28.6272
-57.5805
191.652
-22.6077
-12.1903
-74.6972
8.87151
-28.536
97.8233
-23.0819
3.42994
-24.7445
5.85979
14.2293
54.76
-12.2
34.8265
4.73404
3.02173
44.1698
41.664
-8.59659
56.4655
18.2653
0.28153
64.6254
28.7715
-2.5902
70.5534
20.3523
1.56167
75.4146
15.5987
1.66085
75.087
8.57426
5.88307
8.63194
-7.76929
-351.267
337.636
-4409.18
-844.613
-258.187
405.213
-164.001
-315.445
-349.788
-212.123
-147.637
414.739
25.7762
-63.9878
205.448
-175.729
319.19
90.5482
-118.729
-34.9168
15.7644
-75.0503
-38.6126
-71.7684
-186.349
60.9004
-0.0892618
63.8466
63.5791
62.9191
-121.233
-22.2015
-35.8466
-45.3043
-24.0263
-43.5367
-111.679
21.5877
-7.36823
21.0136
24.0269
23.1809
-46.628
-14.378
-12.5899
-28.4711
-13.8494
-26.6737
-22.8762
5.60823
10.9715
4.49954
9.14612
5.83218
15.7054
-4.4416
7.6295
-14.2541
-2.92842
-13.0485
32.5332
9.65536
3.93311
1.18095
12.3933
2.56342
46.9103
2.93652
-0.619974
53.4342
21.3886
1.70099
57.2168
17.2903
2.97208
59.4704
15.2555
2.61387
58.6778
8.04215
7.27479
8.75278
-6.96761
-462.439
-714.914
-5137.87
-257.971
-126.467
-217.022
-41.7513
-358.884
-443.712
-120.138
-124.637
125.825
68.0811
-125.08
85.0275
-7.40757
82.804
21.3619
-0.0597957
-19.7868
-12.3139
118.935
88.3458
120.216
-13.9784
-31.1902
-7.57573
10.4199
0.45446
66.2214
-45.6752
37.1773
2.72244
3.01328
18.2663
-25.7527
-13.4836
-4.24462
9.15806
40.4132
-22.0614
2.09447
-8.01657
2.0819
6.32934
-6.81276
-14.3504
-1.62602
-0.0880396
8.82845
-0.662548
-4.17206
1.70241
-3.46759
-8.64126
10.292
-6.23871
3.61395
-0.364671
-10.3565
15.1221
2.69066
2.56381
55.8432
5.26897
3.46716
-17.0187
-19.9327
-9.585
-12.1948
-3.71651
6.90204
-3.06886
62.2642
13.4581
3.21622
56.8226
22.8246
2.99413
54.8749
19.1652
2.49655
49.8828
12.294
7.61179
9.84196
-6.22975
-129.97
-1176.24
-1252.06
-109.187
-277.476
-920.43
-55.5172
-253.231
-566.937
-181.141
-66.1887
10.7931
-17.6572
-88.6859
58.2965
-31.8271
-27.1883
-41.2387
-10.0996
-2.61647
63.3617
14.5011
-3.62918
-4.62904
-6.4012
3.6135
8.32252
2.72341
-2.11826
0.152207
-3.6053
0.711562
2.68336
2.17643
0.59187
-5.53444
1.25604
5.5488
-1.04759
-0.814679
1.8161
-3.47264
1.48344
3.94002
-2.03069
-1.73624
1.71846
-5.0387
2.82428
5.1684
-2.94259
-1.72985
1.19045
-3.80965
2.26377
4.34467
-2.94802
-1.04123
-0.270865
-5.1311
2.0442
5.89708
-2.90291
0.363599
-0.471559
-6.15719
0.523007
7.09786
-1.51116
0.519041
-7.75083
0.385621
30.4112
3.79336
0.579326
-8.13713
-6.8494
-7.16318
86.367
26.2723
1.47307
-27.3857
-30.5448
-19.8377
-21.7487
76.4296
32.9011
4.81314
67.1972
30.5491
4.65574
58.5514
20.6607
10.314
14.2619
-6.47192
2503.65
-559.345
-1467.29
982.743
250.18
498.802
235.43
13.5454
-247.743
-36.8507
101.137
25.9524
-16.3742
-34.8136
60.7541
-4.00262
-33.1787
-20.1151
-3.74562
-47.3605
10.7056
15.6902
8.33623
-3.4136
-7.3256
-8.72559
10.9757
4.87521
3.61392
-2.73798
-1.48828
-12.1706
12.4448
1.17938
2.77274
-1.25689
0.928689
-13.2071