/*--------------------------------*- C++ -*----------------------------------*\
  =========                 |
  \\      /  F ield         | OpenFOAM: The Open Source CFD Toolbox
   \\    /   O peration     | Website:  https://openfoam.org
    \\  /    A nd           | Version:  10
     \\/     M anipulation  |
\*---------------------------------------------------------------------------*/
FoamFile
{
    format      ascii;
    class       volVectorField;
    location    "9.4";
    object      U;
}
// * * * * * * * * * * * * * * * * * * * * * * * * * * * * * * * * * * * * * //

dimensions      [0 1 -1 0 0 0 0];

internalField   nonuniform List<vector> 
12920
(
(-62.3512 -91.1684 -60.109)
(-39.972 -67.6931 -43.6264)
(121.559 -58.9449 10.7202)
(48.8401 -27.4462 9.29352)
(102.562 -28.6773 9.34863)
(65.3497 -27.6237 6.85428)
(92.7001 -23.4078 5.4926)
(77.503 -23.9453 4.34417)
(94.7141 -19.0239 3.53835)
(90.9992 -16.4015 2.66219)
(101.627 -10.6226 2.11111)
(100.501 -6.23847 1.33977)
(105.528 -3.32132 0.961619)
(104.831 -3.00676 0.755075)
(107.217 -2.95525 0.677343)
(108.179 -2.33103 0.571427)
(109.494 -0.425587 0.649775)
(108.053 0.409861 0.78193)
(105.242 -1.57849 0.786583)
(100.633 -4.50043 0.731185)
(161.981 99.0639 -126.125)
(106.656 -23.4816 -34.8852)
(156.302 -37.5065 1.60045)
(95.3216 -28.2488 6.01992)
(105.333 -19.9426 7.60087)
(52.0275 -17.2633 2.33035)
(71.5086 -13.4537 2.62814)
(38.0139 -15.4464 -0.26261)
(56.2479 -11.9137 -0.611671)
(41.8611 -12.2646 -1.37255)
(54.8225 -8.80735 -1.30348)
(50.6446 -8.44401 -1.28929)
(58.7261 -6.05725 -1.12846)
(57.7934 -5.41928 -1.1286)
(61.291 -4.18194 -0.982642)
(60.3468 -3.9775 -0.78615)
(61.6536 -3.33329 -0.582778)
(61.5684 -2.97098 -0.391445)
(61.9078 -2.00258 -0.769667)
(58.4761 -1.31955 -1.20972)
(137.212 96.873 62.1852)
(37.4598 -61.4361 -6.13541)
(133.131 -58.073 -5.51314)
(68.3652 -39.9564 -4.71329)
(94.8443 -28.8159 3.93562)
(46.8342 -18.8164 -0.689421)
(71.6171 -15.1496 1.44709)
(42.3306 -10.9989 -0.644858)
(57.6518 -9.44444 -0.226901)
(42.6563 -5.87108 -1.28318)
(52.6407 -3.67235 -1.15096)
(46.0986 -0.580529 -1.43989)
(51.6791 0.844034 -1.22515)
(48.842 2.08267 -1.2941)
(51.0212 2.63268 -1.07072)
(48.9572 2.79599 -0.921232)
(48.4797 3.31518 -0.48085)
(45.7935 2.61192 -0.453065)
(44.9808 1.36239 -0.584648)
(41.1479 0.650742 -0.763054)
(328.601 -84.1843 -85.5681)
(86.9756 -31.1742 -1.62118)
(134.794 17.5489 0.15746)
(65.6058 12.6204 -1.06058)
(83.6426 11.0124 6.37064)
(11.3603 3.11824 1.6721)
(49.2363 1.10017 1.41281)
(7.59232 -0.90003 -0.249953)
(36.386 -1.58979 -0.254247)
(17.272 -1.09475 -0.452052)
(33.0259 -0.562333 -0.357263)
(25.5453 0.404772 -0.362159)
(33.5596 1.07364 -0.26398)
(30.5577 1.76061 -0.290585)
(33.8003 2.47477 -0.184264)
(32.236 3.00225 -0.180923)
(33.4665 3.41707 -0.0515022)
(33.0636 2.98967 -0.0956172)
(33.6004 1.97658 -0.215838)
(30.7916 1.32714 -0.475388)
(74.9734 95.116 -90.9055)
(-46.7482 63.3547 -8.4781)
(80.1891 25.0114 5.35286)
(7.24701 -4.12943 4.58135)
(67.3212 -2.7057 8.99675)
(-6.45498 0.370205 1.54)
(41.8774 -14.3227 2.8551)
(3.68641 -0.358277 0.0238561)
(33.0394 -13.9366 0.363054)
(15.6528 -1.48271 -0.191838)
(31.644 -7.02051 0.200215)
(24.6272 0.779834 -0.10448)
(33.0717 -0.799765 0.0142887)
(30.4859 3.13672 0.0686747)
(34.145 2.52011 0.0468534)
(32.4864 3.72185 -0.0220893)
(33.6913 3.35374 -0.00839363)
(33.2359 2.9751 -0.0566577)
(33.9045 0.955896 -0.0746022)
(30.5246 0.144438 -0.477034)
(216.272 -5.99671 -85.4677)
(17.8164 -82.5052 0.46143)
(98.5825 -45.9576 15.7338)
(-2.24773 -26.74 7.44516)
(60.3596 -8.32848 8.16546)
(-18.9104 10.5206 0.460502)
(41.6682 -13.4073 1.68876)
(0.0355161 1.93859 0.0767156)
(22.5313 -10.1621 0.13755)
(7.28188 -2.02163 -0.229249)
(18.9721 -7.71223 -0.0993806)
(15.6584 -2.53457 -0.431423)
(23.7419 -4.28048 -0.111744)
(24.7237 0.332232 -0.466748)
(30.2934 1.67155 -0.32907)
(31.5754 3.33873 -0.219794)
(33.7637 3.54966 -0.102352)
(34.2037 3.11751 0.0165548)
(34.8598 1.52256 0.0419899)
(30.5788 1.02627 -0.469208)
(54.1648 19.4421 -22.5357)
(-83.9772 -68.9525 -21.1465)
(93.8711 -46.1956 3.09949)
(-11.9056 -42.5759 3.79748)
(66.6322 -26.4998 10.7604)
(-13.691 3.36297 2.23442)
(31.7753 -42.7433 1.56838)
(-14.8682 14.2295 -0.61991)
(12.2614 -21.6341 -0.624604)
(-5.40669 4.07766 -0.509269)
(12.6029 -13.4048 -0.564879)
(8.59631 -1.88261 -0.117176)
(19.2902 -7.84901 -0.113575)
(20.0187 -0.267967 -0.172305)
(26.1118 -1.68584 -0.239276)
(27.2269 1.75672 -0.15626)
(30.1097 1.79189 -0.0465053)
(29.8085 1.94783 0.101312)
(30.2527 0.888531 0.0766779)
(26.0981 0.601709 -0.476622)
(131.635 -176.122 50.4179)
(-4.11034 -85.6239 -20.3274)
(118.811 -99.9376 1.17597)
(17.3806 -67.1755 -1.24771)
(72.6358 -48.8503 7.43341)
(6.0187 18.715 1.24574)
(38.1707 -1.57196 -0.266012)
(-10.6761 9.13645 0.876164)
(10.4984 3.55706 0.317149)
(-4.5884 0.137786 -0.222946)
(14.703 -6.96685 -0.0852134)
(11.4954 -7.30422 0.169925)
(21.3888 -7.64052 0.434625)
(22.263 -4.01913 0.22816)
(25.4378 -3.22736 0.0574961)
(28.694 0.547345 -0.040751)
(28.7209 2.23529 0.0883065)
(28.2356 2.61684 0.137981)
(27.3618 1.51044 0.1195)
(22.4247 1.21754 -0.522706)
(51.3196 -37.8178 -55.376)
(11.2534 -86.0696 -26.8591)
(110.067 -67.6365 -0.837786)
(13.5288 -49.5887 -1.80654)
(59.4754 -40.953 7.97666)
(-25.1166 -4.56835 -0.757643)
(28.1521 9.75115 0.37596)
(16.5344 4.93451 0.0873088)
(30.8012 3.62958 -0.0583952)
(27.9516 -4.14041 -0.186841)
(31.0022 -4.32756 -0.0359806)
(23.8046 -6.75065 0.0225218)
(23.7237 -9.23989 0.174666)
(26.9609 -9.32927 0.329848)
(32.7532 -1.05414 0.158915)
(31.0662 -1.05788 0.0648652)
(32.1616 2.03393 0.140542)
(30.688 2.77875 0.163586)
(29.5221 2.43866 0.144388)
(23.0337 1.65683 -0.506546)
(297.325 311.269 -51.6615)
(-1.69831 41.3166 1.40706)
(138.946 -27.9442 -2.82173)
(19.3699 -19.8831 -3.03249)
(66.2527 -21.3786 3.44466)
(14.9618 -4.37185 -1.58776)
(32.6857 -7.09096 -0.166747)
(41.6609 -6.9415 -0.565515)
(40.2256 -3.44828 -0.140037)
(38.4338 -3.00939 -0.10448)
(35.1723 -1.43415 -0.230174)
(35.6119 -2.79713 -0.429669)
(41.5214 -10.6727 -0.807921)
(41.7366 -15.9569 0.0945015)
(39.2316 -6.34067 -0.126224)
(37.7372 0.657612 -0.00426875)
(37.9386 1.91141 -0.0390977)
(36.386 4.01495 0.0409852)
(34.165 4.38857 0.266707)
(25.761 3.45187 -0.450596)
(191.592 126.799 143.504)
(100.219 94.3531 6.07259)
(121.368 4.24584 -14.6173)
(41.1748 0.851211 -7.53105)
(75.829 -14.7285 0.626774)
(13.2315 -15.3445 -0.727678)
(24.9184 -14.7653 0.804378)
(41.2637 -13.6773 0.793766)
(51.6212 -9.32219 -0.148523)
(55.9145 -2.28786 -0.386648)
(52.5981 2.53156 -0.294444)
(53.9269 0.651154 -0.622395)
(59.9401 -6.26529 -0.656503)
(56.915 -10.9082 0.716026)
(38.2908 -7.30874 0.0144434)
(34.6164 0.151808 -0.298461)
(36.4764 3.57389 -0.0770517)
(35.8715 5.88501 -0.00638797)
(34.6552 7.25252 0.0141536)
(26.9466 5.29723 -0.743797)
(51.8106 127.883 -32.3052)
(-0.6031 84.7264 8.12087)
(81.9532 66.864 10.0981)
(21.8761 34.563 2.58979)
(63.5053 16.4603 4.0696)
(23.3443 -18.528 -0.474596)
(59.1167 -32.0853 -0.842142)
(72.2875 -31.9584 -0.899206)
(73.3769 -28.3423 0.497355)
(59.129 -8.94061 1.37254)
(66.0735 3.26993 0.202382)
(67.538 5.20467 0.0471165)
(62.4791 -5.64272 0.755347)
(39.4536 -1.18133 0.617757)
(25.6843 -4.25412 -0.0372698)
(23.8716 1.16288 -0.376724)
(29.655 1.91648 -0.236469)
(32.6842 5.91346 0.0474455)
(34.636 8.68222 -0.156897)
(29.425 8.01573 -0.8084)
(29.0496 87.5117 -21.8556)
(-12.115 6.28471 20.0769)
(79.4112 3.02197 28.1593)
(15.0711 -15.8862 13.5688)
(79.0116 -5.37965 9.60651)
(24.5802 -40.7774 1.94653)
(50.598 -18.2929 -0.333875)
(27.3782 -24.0302 -0.853839)
(42.9373 -22.3542 -1.34081)
(37.0094 -15.9765 -0.589666)
(44.2575 -2.97002 -0.374836)
(36.6745 3.53924 0.503647)
(32.0327 4.95892 0.477274)
(22.9698 1.86159 0.384044)
(16.5263 0.380057 -0.383262)
(19.2082 -1.91699 -0.35171)
(21.7048 -1.73572 -0.201355)
(27.1113 1.61302 -0.155598)
(33.2112 7.65852 -0.368392)
(34.2868 8.01563 -0.788339)
(6.76781 -22.6109 -133.402)
(-193.364 -57.5218 -15.9769)
(55.893 -53.2993 -1.73666)
(-23.5527 -42.2338 4.34089)
(74.4895 -25.2403 4.80768)
(24.5076 -33.4305 1.87891)
(56.0624 0.908474 1.51413)
(29.2836 -26.8148 0.69478)
(36.6585 -1.30157 0.372085)
(21.0841 -9.10321 0.405529)
(24.9747 6.86503 0.281343)
(19.66 2.79744 0.174487)
(23.0668 7.44346 -0.163671)
(21.0977 2.76782 -0.648249)
(22.4381 3.29717 -0.74203)
(22.0979 -0.963422 -0.385494)
(22.8332 -2.50579 -0.190356)
(24.045 -3.18456 0.025676)
(28.3575 0.162079 -0.374038)
(31.5609 4.08795 -0.840583)
(172.99 107.429 -104.481)
(-11.0476 -8.38452 -23.2665)
(74.7246 -109.636 9.36217)
(-46.8866 -68.16 5.06304)
(58.7593 -50.3237 1.31091)
(-5.99908 -39.8539 0.526795)
(49.8781 -19.2939 0.577928)
(22.252 -20.4486 0.5021)
(38.2499 -7.26465 0.93439)
(23.9132 -6.73898 0.688817)
(29.6679 3.01566 0.409122)
(24.5079 3.69393 -0.203951)
(28.881 6.87854 -0.547911)
(28.939 4.59774 -1.05236)
(33.0733 3.37022 -1.18078)
(34.0401 0.0300938 -0.603851)
(32.0451 -1.52656 0.209674)
(27.4101 -2.69872 0.437858)
(25.1682 -0.708854 -0.250043)
(22.3989 2.0929 -0.683783)
(258.438 132.535 -85.5355)
(201.084 49.2795 -8.57185)
(156.081 -49.8064 17.7736)
(47.7713 -61.5205 2.99976)
(82.9944 -51.1525 -0.410843)
(31.2217 -41.6276 -1.22448)
(60.7345 -24.0216 -0.95867)
(39.22 -23.9304 -1.30121)
(55.6418 -7.70197 -0.527205)
(43.2931 -6.77476 -0.0474264)
(46.9996 4.4954 0.452277)
(38.6201 3.95372 0.0793841)
(41.082 7.00798 -0.12135)
(38.3671 4.57115 -0.553697)
(40.308 4.52399 -0.535662)
(39.1308 2.37696 -0.343993)
(37.8994 2.90277 0.285831)
(33.3235 2.01685 0.581356)
(29.3673 2.67679 0.35983)
(23.7283 3.60144 -0.455841)
(102.705 35.8762 -85.2402)
(17.9928 36.6818 0.984631)
(117.37 15.4553 -0.434215)
(4.6919 -10.1811 -1.14063)
(71.1921 -4.59174 -1.55628)
(4.16835 -19.0302 -1.23812)
(47.208 -10.5448 -1.22794)
(16.7325 -13.7548 -1.47534)
(42.236 -3.3331 -0.988597)
(30.1916 -0.295741 -0.877855)
(42.4585 7.45441 -0.254615)
(36.6813 8.04251 -0.186674)
(41.9113 9.40173 -0.0387401)
(39.1 7.76765 -0.196926)
(41.2697 5.85111 0.0924267)
(38.4906 3.13455 0.316669)
(37.5014 2.31607 0.535528)
(35.4563 2.10814 0.451106)
(34.3178 2.63638 0.380407)
(29.4135 3.02173 -0.186985)
(-2.08464 100.003 81.0946)
(-10.1744 58.3021 -18.7993)
(100.618 31.8207 -10.1723)
(-25.6729 -13.0408 0.252303)
(71.3154 -12.9276 -2.5458)
(-1.66366 -21.4135 -1.30808)
(44.8836 -18.0321 -1.35553)
(13.5549 -16.7501 -1.32703)
(39.7057 -10.2926 -0.670647)
(28.6128 -5.41945 -0.463446)
(42.0548 1.85267 0.091328)
(37.6774 4.12171 0.139768)
(43.8498 6.26219 0.40923)
(41.3678 5.6422 0.39684)
(43.6051 5.11377 0.45496)
(41.3829 4.02557 0.363489)
(40.96 3.36779 0.484652)
(39.5097 2.5792 0.351025)
(39.3852 2.35884 0.287184)
(34.9584 2.25979 -0.131427)
(-130.974 100.521 -14.0126)
(-139.359 -13.9465 -36.8131)
(114.01 39.7344 -6.97044)
(0.566244 4.18187 3.88425)
(85.5066 1.35656 2.68879)
(18.9295 -0.841934 0.906097)
(57.0947 -8.86822 -0.779635)
(24.386 -8.36353 -2.21191)
(46.959 -9.13555 -1.57512)
(34.5925 -3.23897 -0.675918)
(45.8278 0.896909 0.216666)
(40.4479 3.71481 0.179104)
(46.7095 4.83459 0.325437)
(44.4278 4.92372 0.218754)
(47.1202 4.07696 0.212128)
(45.7026 3.44732 0.203344)
(46.9312 2.44145 0.346108)
(46.7421 1.74483 0.386981)
(47.0905 1.19785 0.36602)
(41.7077 0.94356 0.0466697)
(179.562 332.029 -148.254)
(-45.3744 -65.5445 -25.875)
(129.067 -27.0774 -4.57014)
(42.4581 -17.9612 -3.86186)
(112.902 -13.284 0.979095)
(61.2847 -6.56274 1.27569)
(84.513 -8.19891 -0.0935433)
(62.1044 -5.1581 -2.01709)
(77.5416 -7.37815 -1.3957)
(71.5273 -5.01464 -0.607403)
(76.0634 -3.36283 1.52437)
(65.5233 -0.426692 1.97456)
(66.2544 1.67523 1.7334)
(63.1204 2.86947 1.11425)
(65.7177 3.34151 0.821965)
(66.4013 2.76767 0.086805)
(70.189 1.51913 -0.217369)
(71.3969 0.484702 -0.268016)
(72.1184 0.281459 -0.179748)
(66.1293 0.61232 -0.141319)
(171.166 -67.3493 22.2692)
(-24.8628 -72.6831 -2.08534)
(127.94 -59.0631 15.1237)
(46.4463 -27.5331 14.3566)
(103.644 -24.9835 12.1717)
(71.9404 -21.9875 10.8082)
(99.6191 -16.1735 9.31768)
(87.2114 -15.6513 7.58816)
(102.69 -10.3893 5.99855)
(98.2675 -8.42962 4.33035)
(105.915 -3.5421 3.21802)
(102.934 -1.53489 2.04138)
(104.9 0.580676 1.79562)
(102.628 0.812162 1.40713)
(103.342 1.07727 1.2651)
(102.191 0.958516 0.838237)
(101.702 1.53197 1.20915)
(98.7904 1.17635 1.59337)
(97.3391 0.47049 1.46504)
(92.1932 0.042803 1.11667)
(273.134 27.8859 -99.513)
(58.8352 -13.0625 12.0816)
(115.404 3.702 24.9184)
(30.0717 7.06176 12.0374)
(80.1075 4.16798 12.3921)
(22.1232 -0.704284 1.80569)
(58.905 0.790996 2.41774)
(27.8423 -3.96292 -2.27259)
(50.8629 -0.623462 -2.5769)
(37.4322 -2.21732 -3.98217)
(50.6007 0.714931 -3.55766)
(45.6996 0.12857 -3.45732)
(52.7225 1.63281 -2.68729)
(50.4752 1.22879 -2.45274)
(53.0278 1.66125 -1.95654)
(51.1831 1.21734 -1.65298)
(51.9198 1.39125 -1.12195)
(51.1347 1.16327 -0.903795)
(51.2823 1.63317 -1.36303)
(47.0713 1.44267 -2.01842)
(154.339 64.7644 -180.925)
(-90.4268 -36.2299 -21.2149)
(83.8857 -14.3719 -12.4223)
(-24.685 -14.5586 -5.98361)
(60.9414 -12.8233 5.20218)
(5.72936 -6.7994 -3.03043)
(50.9477 -6.09343 1.68757)
(20.8792 -2.65861 -2.03557)
(43.6451 -1.95485 -0.860135)
(28.263 0.947061 -2.53841)
(39.8619 1.92209 -1.84738)
(32.0569 3.51733 -2.27092)
(37.5942 3.6968 -1.6022)
(33.5905 4.10515 -1.72579)
(35.6261 3.83973 -1.28016)
(33.0057 3.58375 -1.11767)
(33.5556 3.34075 -0.675087)
(32.3989 2.5945 -0.700862)
(32.6601 1.84561 -0.96762)
(29.3888 1.09738 -1.6769)
(216.935 -86.493 -92.0397)
(11.4716 -16.1556 5.99422)
(111.385 8.39394 3.49642)
(1.14801 0.401322 2.44876)
(63.991 8.51036 11.2681)
(-10.2025 4.99177 1.54878)
(41.4353 4.50405 2.17271)
(-1.73802 3.68277 -0.648995)
(28.9561 3.13686 -0.4144)
(8.46611 3.17398 -1.01918)
(24.5432 2.99768 -0.632289)
(15.8757 3.0409 -0.751742)
(23.6233 2.87393 -0.37775)
(19.8224 2.95391 -0.540684)
(22.9055 2.95318 -0.266722)
(21.0909 2.88037 -0.302459)
(22.4985 2.93589 -0.115412)
(22.2534 2.2198 -0.20051)
(23.1126 1.59885 -0.468527)
(20.871 1.11664 -1.32006)
(106.75 83.9326 -29.3054)
(-103.408 55.2123 -1.4364)
(70.1604 23.8057 10.9427)
(-60.8147 2.47856 7.2136)
(53.785 4.33782 13.753)
(-34.4387 7.93482 0.765234)
(33.8712 -9.58176 4.55155)
(-9.01419 6.52214 -0.229741)
(24.4243 -7.86705 0.982012)
(4.71696 4.73482 -0.442189)
(21.6204 -2.04131 0.380709)
(12.9816 4.69442 -0.269676)
(21.4017 1.80877 0.104158)
(17.7906 4.63009 -0.0167868)
(21.3386 2.98504 0.0769332)
(19.4786 3.69861 -0.110474)
(20.9739 2.88465 -0.0170107)
(20.5917 2.15265 -0.0938286)
(21.5004 0.721188 -0.236964)
(19.0252 0.558746 -1.19671)
(82.516 190.318 52.5137)
(-142.131 -66.043 63.6921)
(69.8546 -19.3334 30.3019)
(-59.3865 -17.6505 11.2163)
(52.3536 -2.63467 12.9749)
(-39.6889 11.3957 0.455414)
(34.2966 -13.3095 2.71239)
(-11.5138 5.40477 -0.265259)
(14.6853 -6.48108 0.567051)
(-1.42074 2.92331 -0.48542)
(11.2214 -3.01936 0.133035)
(7.02118 2.06798 -0.56155)
(14.2213 -0.250503 -0.025181)
(13.7108 2.7479 -0.51679)
(17.4322 2.45866 -0.234896)
(18.0713 3.11675 -0.198188)
(19.77 2.69371 -0.0477092)
(20.1893 1.85165 0.0563658)
(20.9182 0.872565 -0.0876647)
(18.0978 0.879568 -1.16763)
(237.735 85.3719 -3.08738)
(-211.246 -36.0107 -2.93419)
(91.933 -19.9544 19.2623)
(-71.1544 -20.3991 9.13565)
(60.4982 -11.5695 16.2229)
(-33.0095 11.8663 2.00466)
(21.6521 -38.5239 1.74894)
(-24.7164 20.2932 -1.04956)
(5.05252 -18.4398 -0.842513)
(-12.3695 7.65884 -0.327119)
(5.75286 -9.99952 -0.302395)
(1.16391 1.84195 0.0546209)
(11.1516 -4.43412 -0.0203196)
(11.1804 2.20653 -0.10467)
(15.7216 -0.354837 -0.219147)
(15.8376 1.7631 -0.030302)
(18.0122 1.38411 0.0758099)
(17.7222 1.38938 0.137361)
(18.3446 0.617709 -0.0242138)
(15.6319 0.690877 -1.15471)
(194.309 -186.073 -247.327)
(-139.78 -39.3108 15.1036)
(94.5715 -74.5822 4.51633)
(-50.354 -38.5768 2.35565)
(56.0259 -28.6029 10.2613)
(-17.1065 34.1346 0.505745)
(22.193 -2.35808 2.17871)
(-16.2034 15.9661 0.373364)
(3.54966 -4.26648 0.0433049)
(-7.68524 1.04816 -1.07551)
(7.07178 -6.6215 -0.293809)
(4.2589 -3.08409 -0.20436)
(13.2631 -3.87314 0.566882)
(13.855 0.358048 -0.0881358)
(15.6717 -1.39984 -0.100646)
(18.1542 1.03605 -0.0101805)
(17.7918 1.81356 0.170191)
(17.3633 1.88526 0.170797)
(17.0007 1.05764 0.0389344)
(13.9068 1.0585 -1.17267)
(38.4684 28.458 -75.0176)
(-98.4656 -51.0674 -30.8406)
(77.984 -45.5996 -5.80762)
(-54.1108 -27.1151 -2.99016)
(45.3691 -28.1855 8.50743)
(-19.4869 11.746 -1.05949)
(19.5786 9.03253 2.24191)
(8.7693 5.3076 0.612519)
(20.1001 -0.0935966 0.14905)
(16.0044 -3.91498 -0.886983)
(18.8938 -5.14369 -0.617513)
(15.4973 -5.83889 -0.61553)
(17.6975 -6.48059 0.0468656)
(20.3019 -4.6205 0.33605)
(23.9512 1.41367 -0.0926393)
(21.1322 -0.253063 -0.0640447)
(21.5798 2.18108 0.197022)
(19.6236 2.22265 0.256983)
(18.8786 1.78588 0.145454)
(14.5958 1.27185 -1.14865)
(285.992 -31.559 -239.24)
(-49.047 2.78463 -37.0737)
(109.917 -29.6897 -29.5938)
(-23.5244 -11.0454 -3.60823)
(40.7824 -15.2043 3.80397)
(-0.417023 1.27181 -1.9389)
(27.4107 0.133529 0.471734)
(31.8328 -2.64675 0.917119)
(32.6169 -3.80133 0.489056)
(31.3395 -4.35916 -0.308227)
(29.696 -3.82155 -1.38235)
(29.4942 -6.62446 -2.2041)
(29.8532 -11.9187 -1.43324)
(29.932 -11.2839 0.835554)
(30.8796 -2.65968 0.0488802)
(27.4216 2.19858 -0.319216)
(26.3555 2.76951 -0.0611857)
(23.6142 3.9797 0.1943)
(22.0944 3.20689 0.288932)
(16.6106 2.48088 -1.12319)
(190.5 59.2283 -41.7376)
(82.6364 88.9477 3.72918)
(104.235 10.2121 3.32797)
(5.45535 4.10688 0.959997)
(54.2922 -11.4108 2.78124)
(4.49763 -10.7561 -0.635153)
(22.3474 -11.0121 2.1265)
(37.6432 -10.4026 3.41287)
(47.5529 -10.0666 4.84207)
(47.0385 -4.52372 1.91924)
(45.3442 -1.97487 -0.762156)
(45.2522 -4.9204 -2.54093)
(42.8092 -10.8711 -0.799894)
(35.1106 -9.6507 2.72782)
(30.9458 -2.41918 -0.356232)
(26.2846 2.16742 -0.910751)
(26.4703 4.87847 -0.177483)
(24.8828 5.66135 0.119114)
(23.8348 5.61175 0.010371)
(17.8108 3.61783 -1.64473)
(-8.83601 56.3206 -28.0321)
(-64.6381 26.7492 -4.59053)
(46.4125 23.4064 3.85011)
(-14.8629 11.7733 0.47291)
(41.6769 4.12455 4.14319)
(18.0834 -11.9863 -2.67158)
(47.9141 -24.3943 -1.61688)
(53.2285 -22.3543 -1.67351)
(54.0124 -13.5277 1.72857)
(52.0044 -5.03521 3.63091)
(50.6723 1.24909 1.04385)
(46.0916 -1.21198 0.342767)
(36.6373 -4.57629 2.41155)
(26.146 -2.23269 1.93914)
(21.021 -1.71287 -0.537728)
(18.266 3.39841 -0.857846)
(22.324 3.97976 -0.337585)
(23.5149 6.09813 0.0368349)
(25.0812 6.83727 -0.414513)
(20.6082 5.40068 -1.8348)
(36.3265 -95.4957 14.4016)
(-118.036 -13.171 -8.03946)
(55.1098 10.0341 17.019)
(-25.8277 -8.06836 9.76268)
(65.2297 -2.63304 7.69513)
(6.09188 -38.5177 1.77149)
(37.051 -14.0682 1.58859)
(13.815 -16.922 -1.23658)
(26.282 -11.2569 -1.88983)
(20.1605 -5.01229 -1.11366)
(26.8172 2.06864 -0.26868)
(19.6358 2.9006 1.09712)
(19.0043 2.9645 1.07377)
(13.8171 0.549513 0.376417)
(10.017 1.03044 -0.879661)
(13.2897 -0.250022 -0.603436)
(15.8548 0.98188 -0.452437)
(20.9562 3.53118 -0.0760027)
(24.7077 5.83545 -0.609756)
(23.5654 4.95135 -1.56796)
(1.9699 -23.4885 23.2553)
(-171.122 17.5786 -37.9392)
(32.8257 4.64239 -0.825543)
(-53.453 -5.07298 6.62461)
(59.8067 -6.12926 4.44021)
(1.41256 -23.1464 1.51367)
(37.7572 8.58043 1.67816)
(9.70548 -23.011 0.907583)
(20.7032 3.84253 0.321766)
(7.37795 -7.18342 0.502265)
(13.9002 7.36767 0.357297)
(9.1924 1.15519 0.147287)
(13.3417 5.41384 -0.346954)
(11.4493 0.322323 -0.861262)
(12.357 1.76059 -0.881879)
(12.2389 -1.16966 -0.412901)
(13.7329 -1.44022 -0.18124)
(16.2924 -1.29378 -0.0490476)
(20.5375 1.89117 -0.584719)
(20.7471 2.92072 -1.50244)
(-63.5376 -85.5821 -35.8874)
(-194.449 -90.095 0.70655)
(17.0564 -81.6028 -1.59399)
(-78.6471 -42.7903 4.37724)
(46.8486 -31.4616 1.13592)
(-25.0932 -25.7676 1.64044)
(37.2644 -7.03133 0.632174)
(3.40738 -12.7407 1.01886)
(22.9944 -0.266025 1.13575)
(8.7701 -2.92254 0.764259)
(17.3342 4.39916 0.302487)
(12.4845 2.09782 -0.487227)
(17.1485 3.92711 -0.819506)
(15.9299 0.850141 -1.35498)
(17.7455 0.28924 -1.2164)
(17.1858 -1.62514 -0.454931)
(16.6941 -1.9691 0.426112)
(15.9803 -1.88413 0.462927)
(16.2514 -0.330123 -0.351115)
(14.6183 1.39949 -1.40675)
(290.455 -62.421 60.1248)
(69.0054 -68.918 20.6747)
(114.293 -55.9873 -4.68164)
(30.5077 -46.5631 -4.87609)
(69.9304 -36.2276 -4.53013)
(14.3706 -27.8558 -2.8073)
(45.3818 -11.4219 -1.14888)
(18.3547 -14.0782 -1.81117)
(34.5553 0.104227 -0.301281)
(20.098 -3.00051 -0.103024)
(27.9487 4.73781 0.715187)
(21.0921 1.09249 -0.103385)
(25.4768 3.20843 -0.149341)
(22.4452 -0.0647393 -0.710374)
(24.057 0.36673 -0.490484)
(22.0279 -1.06952 -0.331188)
(21.9398 -0.0284947 0.399676)
(20.3267 0.103949 0.67124)
(19.4969 1.15887 0.258487)
(16.116 1.6879 -1.11664)
(220.796 -204.647 109.861)
(23.4014 -9.03736 -15.9082)
(119.792 19.0537 -19.6249)
(8.84115 2.83488 -8.95476)
(62.3976 5.34122 -5.46289)
(-6.70919 -9.8333 -2.23988)
(36.9193 -1.73744 -1.7389)
(2.44406 -6.71715 -1.712)
(28.8471 1.94888 -1.38994)
(14.095 1.282 -0.968414)
(27.4346 5.96867 -0.189257)
(20.9636 3.94852 -0.310945)
(27.1065 4.22647 -0.0330514)
(23.8575 1.88709 -0.29385)
(25.8632 0.978185 0.163471)
(23.7618 -0.140235 0.300254)
(24.2032 0.0738484 0.607321)
(23.5511 0.588505 0.501562)
(23.6038 1.2641 0.295652)
(20.6146 1.47394 -0.76681)
(118.479 -4.44324 161.048)
(72.5318 46.2954 -11.9114)
(91.3756 39.7062 -1.06303)
(-19.4923 4.87555 0.425797)
(60.9214 0.302156 -3.93986)
(-12.1272 -12.0738 -1.42257)
(36.0448 -10.4538 -1.12996)
(1.86849 -11.3615 -1.40429)
(28.9643 -6.51476 -0.648296)
(15.8787 -4.19196 -0.544848)
(29.8296 0.439482 0.409064)
(24.397 0.533509 0.257595)
(31.1786 1.79988 0.70034)
(28.264 0.770162 0.436523)
(30.6685 0.941494 0.571001)
(28.4994 0.547529 0.325801)
(28.9906 0.824018 0.519528)
(28.4296 0.914772 0.317731)
(28.7183 1.22113 0.153872)
(25.375 1.38293 -0.814072)
(119.201 195.644 -1.64605)
(-6.59661 38.2825 -7.26565)
(89.5428 67.3183 -6.42273)
(-11.0926 19.1299 3.97601)
(76.2577 11.4387 -0.280786)
(13.6589 2.54389 -0.728449)
(54.1479 -7.04201 0.27333)
(19.9112 -7.43912 -1.66586)
(40.0968 -8.15141 -1.15622)
(25.219 -2.8901 -0.487635)
(36.9021 0.117654 0.905917)
(30.687 1.69072 0.525201)
(37.136 2.07581 0.706849)
(34.3395 2.00259 0.322098)
(36.9663 1.5131 0.382523)
(35.4329 1.3388 0.23341)
(36.52 1.08549 0.390983)
(36.3554 1.1677 0.263224)
(36.6889 1.11661 0.073065)
(31.9526 1.13435 -0.761709)
(121.819 -111.221 -133.63)
(-105.891 -8.68524 -4.49945)
(119.033 31.6997 -13.3516)
(33.1438 15.2827 -9.06741)
(118.288 14.0529 -1.98726)
(86.1289 11.2591 -2.0858)
(113.066 1.06507 -0.366796)
(85.2496 -4.35198 -4.83624)
(82.0172 -11.0335 -6.23033)
(60.7276 -6.69294 -4.08805)
(63.5927 -4.4489 1.23241)
(56.4298 -2.0167 2.28564)
(60.215 -0.831588 2.62417)
(57.9654 0.152269 1.7555)
(60.6243 0.499348 1.33414)
(60.104 0.901131 0.485243)
(61.5052 1.0877 0.228504)
(61.7398 1.28103 0.0233728)
(62.1503 1.53614 -0.0166665)
(57.2156 1.67879 -0.0930035)
(110.63 -179.954 88.294)
(-33.0296 -80.6824 4.29901)
(114.729 -59.5979 2.602)
(61.5765 -29.3352 17.2498)
(114.886 -22.0129 14.2318)
(91.0508 -16.763 12.4199)
(115.226 -8.77976 10.3408)
(102.716 -5.85202 7.95309)
(112.245 0.706295 6.16355)
(102.591 2.59818 3.9634)
(104.095 5.98829 2.79825)
(96.4965 5.95179 1.47244)
(95.4675 6.39058 0.876906)
(89.9219 5.53906 0.156426)
(88.3918 5.07038 0.141511)
(82.9424 4.13606 0.149028)
(80.8303 3.59315 1.19582)
(77.4447 2.54723 1.30832)
(76.6955 2.54715 0.431133)
(69.9102 2.4989 -0.604703)
(45.9746 -17.7152 -6.78859)
(-61.2645 3.75161 11.0001)
(81.4566 28.1293 8.07498)
(-15.0005 23.9731 8.38219)
(69.6085 20.6371 9.00189)
(7.9927 9.35404 -0.0110365)
(54.4953 10.9684 -0.499421)
(23.0789 4.31379 -5.11694)
(48.8403 7.23502 -5.42938)
(34.1098 4.32745 -6.44715)
(46.8975 6.31426 -5.30491)
(39.6139 4.57276 -4.92744)
(44.9148 5.06184 -3.53734)
(40.5888 3.87688 -3.0322)
(42.0846 3.84513 -2.03588)
(39.0545 3.02475 -1.59458)
(39.3624 3.00101 -0.993021)
(38.1118 2.53137 -1.00843)
(38.2375 2.85313 -1.67803)
(33.769 2.06267 -2.84223)
(204.55 75.1499 -53.6438)
(-31.1942 -20.0774 -0.323468)
(62.1841 -1.92918 -15.8444)
(-57.8571 -5.80041 -2.97689)
(48.3088 -3.02507 0.166216)
(-17.6999 0.611415 -3.66158)
(39.3208 -0.0781097 0.147696)
(5.71408 2.66494 -3.03957)
(33.4029 2.60268 -1.45792)
(16.0043 4.7289 -2.976)
(29.1095 4.72906 -1.9338)
(19.7746 5.45535 -2.39836)
(25.679 4.88434 -1.48024)
(20.6939 4.77878 -1.63638)
(22.9577 4.148 -1.0406)
(20.0988 3.66603 -0.998946)
(21.1258 3.26871 -0.573909)
(20.29 2.44373 -0.675117)
(20.7706 1.97871 -1.02843)
(18.029 1.07246 -2.20321)
(149.023 105.553 -144.866)
(-16.6316 41.136 -1.89897)
(86.9217 25.9339 9.54279)
(-35.2094 5.08374 5.52243)
(52.985 13.2227 10.3522)
(-25.5901 7.85764 1.84448)
(34.1337 7.29356 1.90064)
(-11.5902 6.26125 -0.71032)
(21.585 5.41994 -0.616884)
(-1.01497 5.06813 -1.1611)
(16.0643 4.30764 -0.618835)
(5.8803 3.97212 -0.767005)
(13.9533 3.33105 -0.304286)
(9.36683 3.14608 -0.509212)
(12.7191 2.822 -0.222105)
(10.6877 2.5394 -0.284734)
(12.3511 2.44505 -0.133107)
(12.1587 1.68706 -0.240393)
(12.8963 1.34692 -0.42478)
(11.2196 0.934945 -1.95955)
(39.4012 17.1634 -90.3296)
(-166.283 38.198 5.24906)
(44.8981 29.4683 3.78652)
(-100.759 11.5359 13.6574)
(42.6802 11.4976 8.87364)
(-51.6137 12.1606 2.65359)
(26.8521 -6.25873 3.94369)
(-19.7663 10.5095 -0.289034)
(16.7506 -4.75033 0.989832)
(-5.43126 7.7908 -0.421517)
(12.6714 -0.172426 0.317697)
(2.49841 6.14383 -0.160429)
(11.341 2.28682 0.292465)
(6.97178 4.80391 -0.0593676)
(10.7613 2.60034 0.0799109)
(8.70225 3.18338 -0.11504)
(10.4614 2.17007 -0.0124897)
(10.077 1.56193 -0.089849)
(10.8809 0.620356 -0.233366)
(9.15639 0.713425 -1.77377)
(-17.8757 163.535 -18.1177)
(-199.229 -45.4687 36.3573)
(47.6234 -1.96883 11.616)
(-92.0774 -12.6971 15.4296)
(44.2691 1.73697 10.197)
(-53.6565 11.7838 1.90263)
(27.3082 -12.5472 2.89789)
(-21.2671 8.31339 -1.00795)
(8.00946 -4.56415 0.762521)
(-9.74758 5.73532 -0.759778)
(3.85821 -0.997071 0.433706)
(-1.59399 3.93041 -0.29556)
(5.42445 0.813934 0.153695)
(3.93125 3.24773 -0.281398)
(7.22217 2.16125 0.00880014)
(7.37981 2.50615 -0.101777)
(8.94173 1.87551 0.00865979)
(9.25121 1.2482 0.0331639)
(9.87227 0.670396 -0.106439)
(8.10013 0.840814 -1.73554)
(230.643 177.143 -235.502)
(-282.607 -20.0238 12.4587)
(76.008 -0.739884 -13.0839)
(-103.228 -7.07742 15.249)
(54.2552 -1.13609 12.9817)
(-49.3007 16.3384 2.23307)
(13.3141 -35.8639 1.72497)
(-32.8406 23.7764 -0.754179)
(-0.972155 -16.7943 -0.612644)
(-18.5899 10.1368 0.0575084)
(-0.534747 -8.13997 0.0252526)
(-6.14386 4.11317 0.533885)
(3.53931 -2.85303 0.489643)
(2.63348 3.15551 0.211838)
(6.58139 -0.0963537 -0.0464423)
(6.20511 1.67954 0.111733)
(8.08557 1.01917 0.160464)
(7.65447 1.0979 0.0760767)
(8.28673 0.53843 -0.0380947)
(6.58888 0.715695 -1.70657)
(71.2546 -107.529 -244.014)
(-150.533 -18.8418 -2.94217)
(69.2997 -57.2226 -21.0417)
(-74.5738 -23.6588 3.47989)
(46.3602 -17.3142 6.80345)
(-33.1245 39.8029 0.751845)
(8.60198 -6.70035 0.650965)
(-22.3367 20.1615 0.307212)
(-3.42941 -7.80237 -0.417979)
(-12.9379 3.7076 -0.992232)
(0.300436 -5.84432 -0.152289)
(-2.33214 0.37003 0.314039)
(5.79934 -1.55485 0.421149)
(5.8408 2.83977 0.0862536)
(6.43774 -0.646437 0.27269)
(8.52871 1.30746 0.148647)
(7.96964 1.5548 0.161028)
(7.65999 1.49589 0.10438)
(7.50297 0.817903 0.00497305)
(5.70303 0.92437 -1.68096)
(62.9178 -60.8882 -133.93)
(-94.4814 -34.0481 -46.4496)
(65.1771 -34.5657 -22.0831)
(-71.045 -16.1643 -0.98848)
(33.7581 -18.5514 4.37556)
(-25.9801 24.1432 2.74715)
(7.33434 8.91725 1.95017)
(-0.516763 4.20944 1.18088)
(10.6427 -1.59042 -0.39261)
(6.27976 -3.31202 -1.09756)
(9.70691 -4.53545 -0.938977)
(7.50016 -4.11914 -0.577173)
(10.5949 -3.56678 0.277173)
(12.4736 -1.29585 0.229956)
(14.9705 2.9489 0.115928)
(10.6621 0.425491 0.334274)
(10.9633 2.19188 0.294813)
(9.1172 1.71247 0.20801)
(8.93136 1.29346 0.112999)
(6.32167 0.947061 -1.69772)
(441.01 -207.603 -22.69)
(90.8374 -29.1014 6.75215)
(95.7942 -24.0164 -20.9583)
(-39.379 -4.16564 -0.342611)
(25.7078 -9.42499 3.24484)
(-20.296 8.72824 1.00199)
(14.3593 5.52367 1.77859)
(20.7958 -0.76864 1.59877)
(22.9597 -3.85214 0.696508)
(21.9292 -4.83714 -0.633041)
(20.491 -5.30038 -1.88387)
(18.9612 -7.24584 -2.37751)
(18.1695 -9.23543 -0.401753)
(20.0517 -6.58826 1.05687)
(20.3467 -0.0949891 0.400987)
(15.2761 3.22883 0.230044)
(14.0583 2.90001 0.217026)
(11.6769 3.23635 0.218888)
(10.9316 2.21857 0.146972)
(7.67886 1.723 -1.7741)
(157.233 111.87 88.5691)
(31.2688 65.3781 22.1563)
(73.4432 9.13678 2.23051)
(-18.8451 8.87535 0.286693)
(41.0681 -5.64871 1.02778)
(-9.10416 -5.87025 -0.0690307)
(11.7621 -6.28127 2.40686)
(25.7819 -5.27343 3.69572)
(32.383 -4.84865 4.65139)
(34.419 -4.76911 3.79944)
(35.0645 -3.49885 -1.28281)
(31.9485 -6.50336 -2.51856)
(26.4702 -9.56008 0.275915)
(23.7888 -5.79486 1.82986)
(21.3083 0.510761 -0.436093)
(14.904 2.94629 -0.229561)
(14.4432 4.8518 0.149077)
(13.0439 4.44038 0.234624)
(12.4551 3.84062 -0.0320966)
(8.46792 2.20181 -2.20342)
(68.9327 67.136 7.53312)
(-52.7358 25.9009 9.29989)
(32.8823 31.8004 4.22205)
(-35.8023 17.7276 2.48751)
(25.5637 6.0108 2.52629)
(-0.680951 -12.1876 -2.26355)
(30.1433 -19.4258 -1.67122)
(33.2623 -12.324 -1.30465)
(33.5211 -3.16831 2.09625)
(33.499 0.716322 2.83185)
(33.0173 0.75838 0.569687)
(27.8964 -2.49353 0.918107)
(21.1953 -3.10067 2.34207)
(17.0711 -1.06504 1.18181)
(14.1337 0.148654 -0.703)
(9.79423 4.27721 -0.281837)
(12.8065 4.16996 -0.00773609)
(13.1816 5.03174 0.14232)
(14.2988 4.81261 -0.356228)
(10.7672 3.11237 -2.42479)
(70.1801 -80.6247 20.9279)
(-121.19 -28.1872 -23.1713)
(40.2945 19.5871 5.67076)
(-43.2028 -1.08968 9.89327)
(50.5804 -0.241365 5.81241)
(-12.4022 -35.6218 2.00216)
(22.209 -7.41434 1.04988)
(0.184457 -10.7197 -0.956248)
(13.0508 -2.94985 -1.9477)
(7.13824 -0.802083 -0.991277)
(13.8587 2.97805 -0.0937565)
(7.70811 1.94966 1.04174)
(9.58704 2.02528 0.848784)
(6.20947 0.306614 0.152586)
(2.73619 1.57772 -0.529781)
(6.20403 0.735388 -0.263999)
(8.48123 1.90366 -0.177944)
(12.4419 3.09774 0.117199)
(14.5912 3.9898 -0.41705)
(13.0475 2.86211 -2.11415)
(55.1862 -176.955 131.201)
(-175.087 9.01802 -29.9658)
(21.8824 18.4031 -4.40174)
(-70.3409 6.09814 7.80122)
(45.4285 0.47362 3.45543)
(-18.6613 -18.3241 1.7728)