/*--------------------------------*- C++ -*----------------------------------*\
  =========                 |
  \\      /  F ield         | OpenFOAM: The Open Source CFD Toolbox
   \\    /   O peration     | Website:  https://openfoam.org
    \\  /    A nd           | Version:  10
     \\/     M anipulation  |
\*---------------------------------------------------------------------------*/
FoamFile
{
    format      ascii;
    class       volVectorField;
    location    "9.4";
    object      U_0;
}
// * * * * * * * * * * * * * * * * * * * * * * * * * * * * * * * * * * * * * //

dimensions      [0 1 -1 0 0 0 0];

internalField   nonuniform List<vector> 
12920
(
(-75.4695 -118.69 -26.458)
(-68.6303 -78.4967 -44.2086)
(103.081 -62.6422 12.9898)
(41.2473 -29.2769 9.90618)
(101.002 -29.9555 9.47752)
(66.1054 -28.6391 6.88985)
(96.1574 -24.1295 5.50373)
(82.4611 -24.6183 4.34474)
(101.043 -19.5068 3.53856)
(98.2888 -16.7891 2.65628)
(109.709 -10.869 2.09638)
(109.221 -6.45649 1.33823)
(114.737 -3.51636 0.962747)
(114.504 -3.18682 0.740388)
(117.266 -3.10354 0.660937)
(118.543 -2.41751 0.56859)
(120.017 -0.469569 0.660114)
(118.483 0.398468 0.793502)
(115.215 -1.59803 0.806245)
(111.643 -4.43904 0.802017)
(161.79 79.8243 -114.509)
(103.963 -43.787 -33.1235)
(146.089 -49.6487 2.25666)
(90.5174 -35.892 6.25732)
(104.629 -25.8668 7.7491)
(53.1252 -21.1607 2.28064)
(75.1048 -16.4886 2.66161)
(42.9589 -17.7134 -0.277234)
(62.5867 -13.6757 -0.593672)
(49.1276 -13.6616 -1.35833)
(62.9216 -9.9374 -1.28679)
(59.4031 -9.32718 -1.28866)
(68.0161 -6.7719 -1.13863)
(67.5444 -6.01129 -1.14235)
(71.3874 -4.66946 -0.998367)
(70.7485 -4.35085 -0.797228)
(72.2734 -3.58389 -0.588879)
(72.1617 -3.08408 -0.383494)
(72.0803 -1.94339 -0.751504)
(69.3764 -1.11484 -1.11408)
(129.439 55.7114 42.9104)
(20.6348 -90.6762 -7.96454)
(125.526 -76.094 -5.90528)
(67.4559 -51.1771 -4.65821)
(97.0246 -36.8685 4.17357)
(50.7282 -24.6729 -0.653155)
(76.6692 -19.6494 1.48306)
(48.4873 -14.5359 -0.615338)
(64.6685 -12.2822 -0.200304)
(50.4417 -8.18383 -1.2986)
(61.0962 -5.53643 -1.17533)
(55.1376 -2.11808 -1.48231)
(61.1527 -0.377209 -1.24835)
(58.7444 1.08424 -1.30704)
(61.2549 1.85194 -1.06308)
(59.5127 2.19963 -0.911285)
(59.2529 2.89745 -0.459615)
(56.5705 2.37584 -0.436999)
(55.3483 1.36229 -0.586709)
(51.9203 0.832361 -0.670436)
(350.472 -150.002 -76.8547)
(98.7843 -63.0211 -0.00835576)
(140.423 0.773219 -0.912659)
(70.1745 0.293254 -1.25844)
(88.2771 1.39605 6.21351)
(16.1575 -4.39953 1.49163)
(55.2041 -5.08041 1.43023)
(14.3237 -5.78779 -0.360653)
(43.9329 -5.63626 -0.236502)
(25.5447 -4.40489 -0.530135)
(41.8684 -3.31023 -0.305897)
(34.9475 -1.84023 -0.377018)
(43.3661 -0.733351 -0.24427)
(40.7434 0.363461 -0.296465)
(44.2828 1.40639 -0.176428)
(42.9988 2.20337 -0.176165)
(44.4436 2.85413 -0.0391793)
(44.0715 2.64044 -0.0915407)
(44.181 1.86791 -0.245728)
(41.4996 1.39741 -0.379834)
(96.9744 67.0927 -63.3322)
(-15.9874 42.2697 -5.61809)
(92.5298 7.7749 6.10207)
(14.9524 -16.8739 4.8669)
(74.361 -13.7296 9.17761)
(0.939962 -8.22397 1.62741)
(49.3588 -21.3195 2.88308)
(12.0303 -6.3235 0.114965)
(41.5688 -18.7131 0.380615)
(24.7637 -5.56829 -0.177456)
(41.1332 -10.3497 0.207131)
(34.6096 -1.96807 -0.117307)
(43.3786 -3.01181 0.0358564)
(41.124 1.41688 0.0398412)
(44.971 1.23724 0.0422223)
(43.5447 2.73624 -0.0259581)
(44.9231 2.64078 -0.00339287)
(44.4926 2.49411 -0.0601802)
(44.6998 0.719713 -0.123064)
(41.3254 0.109419 -0.377265)
(243.035 -18.6772 -65.6507)
(46.6603 -92.9544 3.20842)
(113.455 -61.7734 14.8264)
(8.8912 -37.974 7.37952)
(69.1008 -18.4645 8.13691)
(-9.74505 1.80323 0.578277)
(50.2085 -20.0239 1.71741)
(9.03103 -4.03851 0.208968)
(31.9223 -15.0124 0.170992)
(17.0114 -6.25145 -0.179025)
(29.1331 -11.1665 -0.176118)
(26.1864 -5.46206 -0.447027)
(34.5839 -6.5841 -0.149153)
(35.8732 -1.56005 -0.489682)
(41.5405 0.200894 -0.34391)
(42.9431 2.21151 -0.234033)
(45.2759 2.71515 -0.10442)
(45.7172 2.5407 0.0116602)
(45.8976 1.22523 -0.00892151)
(41.5357 0.982073 -0.358276)
(63.8835 42.4322 -29.4524)
(-62.3385 -66.6946 -21.6449)
(103.86 -53.3048 3.78329)
(1.28459 -51.0375 4.00113)
(76.345 -36.0579 10.7586)
(-2.72821 -5.09004 2.46258)
(42.0824 -49.7706 1.70597)
(-4.65442 7.98848 -0.427277)
(22.5219 -26.6936 -0.743084)
(5.13938 -0.324251 -0.436577)
(23.347 -16.9612 -0.696931)
(19.7271 -4.85394 -0.0971999)
(30.6035 -10.2533 -0.258411)
(31.4808 -2.31954 -0.188186)
(37.7178 -3.32708 -0.261656)
(38.9502 0.491931 -0.183124)
(41.8984 0.844774 -0.0608017)
(41.6049 1.27732 0.0911339)
(41.5761 0.534647 0.0208782)
(37.2248 0.552355 -0.370957)
(129.227 -170.454 32.8776)
(-9.07922 -94.5045 -21.86)
(123.17 -107.308 0.574337)
(26.4532 -76.4878 -1.07236)
(81.736 -57.7073 7.36231)
(17.6198 10.6822 1.39865)
(50.5125 -10.5658 -0.194807)
(-0.32044 0.852075 0.674226)
(21.5072 -3.38808 0.369758)
(6.34379 -6.19635 -0.252683)
(25.8339 -12.4592 -0.10641)
(23.123 -12.207 0.186019)
(32.9353 -12.034 0.429299)
(33.9264 -8.00847 0.25907)
(37.4686 -4.87654 0.0271003)
(40.7443 -0.775748 -0.0224992)
(40.82 1.23026 0.0920374)
(40.3321 1.89288 0.136846)
(39.0025 1.0842 0.0695719)
(33.7798 1.10305 -0.421811)
(61.5406 -58.4162 -49.5235)
(23.7894 -104.992 -26.1238)
(121.067 -81.2249 -0.979383)
(24.7313 -61.3092 -1.57751)
(70.9645 -51.0069 7.87197)
(-11.134 -15.4091 -0.810484)
(41.0095 0.578273 0.327517)
(28.3261 -3.54773 0.0301217)
(42.5152 -3.93927 -0.0754834)
(39.7345 -10.7733 -0.165164)
(42.7764 -10.144 -0.023271)
(35.7921 -12.0374 0.0470799)
(35.7019 -13.9672 0.181346)
(39.1134 -13.519 0.337534)
(44.7153 -4.74255 0.153072)
(43.4921 -2.41822 0.0911538)
(44.5606 1.00541 0.143607)
(43.0763 2.06001 0.158494)
(41.4488 1.98661 0.105611)
(34.6904 1.47095 -0.402321)
(299.974 289.398 -42.3635)
(-7.3004 9.06269 1.93413)
(149.279 -43.4022 -2.98918)
(31.2433 -32.6291 -3.23768)
(78.8645 -30.8946 3.30995)
(30.4723 -13.1119 -1.6931)
(46.9619 -15.0133 -0.212599)
(54.5101 -13.6304 -0.569588)
(52.7823 -9.07646 -0.137934)
(50.9151 -7.77271 -0.0810123)
(47.7521 -5.49385 -0.204515)
(48.2409 -6.27448 -0.417626)
(54.0744 -13.6226 -0.812612)
(54.2618 -18.3624 0.105012)
(51.8081 -8.16511 -0.113576)
(50.4393 -0.721279 -0.00405601)
(50.6979 0.915756 -0.0371897)
(49.0652 3.33767 0.0322817)
(46.3381 3.97633 0.233614)
(37.7368 3.24698 -0.343597)
(210.635 58.2519 174.881)
(135.525 63.1271 9.02081)
(144.319 -15.8785 -14.7318)
(57.1126 -13.4499 -7.57069)
(90.9429 -25.2963 0.655714)
(29.0595 -24.5255 -0.634989)
(40.5298 -22.491 0.821461)
(55.1137 -20.3268 0.82235)
(65.2738 -14.8859 -0.20621)
(69.2668 -6.92471 -0.390278)
(65.8114 -1.42253 -0.277675)
(67.1193 -2.7787 -0.619001)
(73.0786 -9.26811 -0.650563)
(69.7162 -13.3577 0.737116)
(51.2819 -9.20429 0.0263933)
(47.7505 -1.14925 -0.297126)
(49.5888 2.6501 -0.0794273)
(48.8463 5.28519 -0.0248343)
(47.0638 6.89172 -0.0458957)
(39.2114 5.1102 -0.632419)
(82.0821 113.5 -26.9227)
(41.0994 72.609 10.6115)
(107.512 52.5046 11.3277)
(43.302 23.4586 3.01935)
(81.9183 7.08727 4.0454)
(42.4928 -26.6585 -0.503755)
(76.4711 -39.7885 -0.907591)
(87.4494 -38.4222 -0.908324)
(87.9542 -33.4425 0.549335)
(73.3056 -13.4923 1.38691)
(79.9961 -0.331789 0.131745)
(81.1761 2.01654 0.000974973)
(75.8342 -8.49343 0.776634)
(52.8755 -3.53512 0.649302)
(39.0652 -5.9812 -0.00916805)
(37.5709 -0.12489 -0.383276)
(43.1434 1.00965 -0.251364)
(45.9564 5.3572 0.0157453)
(47.2622 8.3634 -0.235168)
(41.9553 7.86939 -0.705462)
(52.4862 76.4983 -24.109)
(23.5302 -6.8917 24.69)
(104.06 -6.38239 28.4488)
(36.9242 -24.2845 13.8733)
(97.4985 -12.7163 9.54311)
(41.7905 -47.3018 1.91336)
(68.2973 -24.0211 -0.253933)
(43.5799 -29.2138 -0.89096)
(58.2648 -26.9236 -1.34835)
(52.2767 -19.8168 -0.592899)
(58.8323 -6.10099 -0.414882)
(50.9857 0.986643 0.509381)
(45.9523 2.78991 0.476414)
(36.7212 0.0821554 0.377588)
(30.4913 -1.11161 -0.423505)
(33.1384 -3.19552 -0.373406)
(35.5332 -2.72412 -0.212479)
(40.7067 0.993186 -0.189417)
(46.0801 7.36817 -0.441283)
(47.0823 7.93832 -0.673336)
(34.835 -31.138 -123.14)
(-149.566 -73.2754 -13.0612)
(85.3628 -61.9741 -0.916329)
(0.112492 -49.4545 4.71558)
(94.0079 -32.2556 4.9503)
(43.53 -39.1163 1.92872)
(73.4833 -4.13002 1.4847)
(46.0579 -31.1851 0.755682)
(52.6709 -5.11067 0.373421)
(36.5448 -12.4481 0.42403)
(40.052 3.8224 0.279751)
(34.53 0.18478 0.130299)
(37.6391 5.25782 -0.192239)
(35.5053 1.0654 -0.666756)
(36.6698 1.95418 -0.74761)
(36.2057 -2.16012 -0.408494)
(36.9221 -3.49073 -0.21073)
(37.9861 -3.89084 0.0195793)
(41.5647 -0.162092 -0.439063)
(44.5258 4.0814 -0.720821)
(193.687 129.29 -141.66)
(10.131 -15.9809 -20.9216)
(105.19 -117.081 8.50283)
(-23.9954 -74.6006 5.51947)
(78.5089 -55.5068 0.994946)
(13.3563 -44.4058 0.59079)
(67.7403 -23.6229 0.627372)
(39.4297 -24.0954 0.539184)
(54.6848 -10.6864 0.958071)
(39.8318 -9.6119 0.676995)
(45.1974 0.535595 0.39203)
(39.7458 1.64033 -0.222996)
(43.82 5.12383 -0.56497)
(43.6606 3.18181 -1.07278)
(47.5486 2.15075 -1.19087)
(48.3515 -0.931755 -0.598252)
(46.3285 -2.29377 0.229427)
(41.5963 -3.28504 0.43043)
(38.694 -1.0594 -0.327719)
(35.5338 2.06154 -0.569756)
(277.985 138.127 -92.3047)
(228.764 46.4556 -6.97653)
(184.263 -55.2452 18.002)
(71.5726 -66.4064 2.75814)
(104.089 -55.3439 -0.287676)
(50.8741 -45.3264 -1.241)
(79.1071 -27.7208 -0.988075)
(56.9947 -27.0341 -1.32842)
(72.5402 -10.5144 -0.548828)
(59.7261 -9.08192 -0.0704893)
(62.9135 2.4791 0.469849)
(54.2191 2.2797 0.0642992)
(56.3179 5.53951 -0.126798)
(53.3449 3.37682 -0.568068)
(55.0182 3.51452 -0.541586)
(53.6891 1.6418 -0.345335)
(52.3396 2.38052 0.293265)
(47.634 1.65093 0.580229)
(43.077 2.40741 0.320629)
(37.0703 3.49106 -0.350194)
(108.629 57.1708 -90.1583)
(36.948 39.7715 -0.0345223)
(143.888 16.4083 0.0716189)
(27.5504 -12.0559 -0.983614)
(92.1814 -6.91264 -1.50346)
(23.9391 -21.5369 -1.20246)
(65.6555 -13.1926 -1.25132)
(34.8254 -16.1295 -1.51309)
(59.4819 -5.42358 -0.984864)
(46.9619 -2.04794 -0.934675)
(58.6567 5.95284 -0.266766)
(52.5099 6.76388 -0.205667)
(57.3414 8.27408 -0.0417866)
(54.2693 6.83775 -0.210125)
(56.1772 5.07305 0.0926629)
(53.256 2.54663 0.319142)
(52.1525 1.92436 0.539931)
(49.908 1.88077 0.452483)
(48.0952 2.43877 0.351934)
(42.9347 2.86267 -0.0947773)
(-3.91994 108.719 62.0278)
(12.4855 60.5732 -19.9229)
(126.398 31.5715 -10.0039)
(-5.57951 -14.7122 0.383763)
(91.5118 -14.9193 -2.3922)
(17.5509 -23.1912 -1.29618)
(63.1799 -20.0573 -1.41566)
(31.7844 -18.4062 -1.32761)
(57.119 -11.8602 -0.726473)
(45.6292 -6.73125 -0.525898)
(58.4715 0.694667 0.0564531)
(53.703 3.17175 0.130431)
(59.4615 5.43281 0.413029)
(56.709 4.97346 0.39008)
(58.6668 4.56645 0.453141)
(56.311 3.6217 0.357826)
(55.7525 3.0793 0.487943)
(54.0376 2.37942 0.36018)
(53.1814 2.14185 0.266127)
(48.6542 2.00749 -0.0420788)
(-121.379 120.7 -15.0214)
(-122.412 -3.7261 -38.7346)
(136.666 39.1313 -6.41475)
(21.4984 3.94124 3.6212)
(106.295 -0.267588 2.75015)
(38.3777 -1.63213 0.820119)
(75.5396 -10.1545 -0.82741)
(42.7425 -9.31643 -2.26935)
(64.431 -10.1233 -1.59852)
(51.6856 -4.05908 -0.715627)
(62.3738 0.109165 0.201945)
(56.6186 3.0716 0.156306)
(62.438 4.29198 0.317455)
(59.8868 4.50116 0.204831)
(62.2936 3.741 0.208316)
(60.7286 3.20458 0.196697)
(61.7919 2.25283 0.348475)
(61.27 1.55985 0.399557)
(60.8183 0.9306 0.389896)
(55.6743 0.577034 0.15591)
(164.375 319.371 -162.407)
(-43.3201 -62.2497 -33.5772)
(145.151 -25.144 -5.21228)
(61.2605 -16.7371 -4.15417)
(132.743 -13.5306 1.19981)
(80.4862 -6.46826 1.28664)
(102.647 -8.53638 -0.123739)
(80.3791 -5.414 -2.04454)
(95.0397 -7.72691 -1.41951)
(88.6711 -5.29796 -0.630544)
(92.6198 -3.64962 1.54864)
(81.7036 -0.654022 1.97176)
(82.0546 1.48566 1.72002)
(78.6573 2.73031 1.09649)
(80.978 3.23493 0.806735)
(81.5069 2.68411 0.0731021)
(85.0789 1.43851 -0.222585)
(85.8528 0.395343 -0.257346)
(85.7211 0.136937 -0.15074)
(80.3941 0.417642 -0.022958)
(128.721 -109.509 10.117)
(-68.1228 -83.5565 -6.48515)
(110.363 -63.5326 15.7546)
(38.2156 -29.649 15.0996)
(101.988 -26.2456 12.1798)
(72.7582 -22.9886 10.8397)
(103.12 -16.8422 9.33338)
(92.1718 -16.2894 7.58674)
(108.988 -10.8341 5.99165)
(105.491 -8.81372 4.31157)
(113.917 -3.8294 3.19128)
(111.551 -1.77948 2.01727)
(114.057 0.374229 1.77655)
(112.258 0.62808 1.36886)
(113.339 0.927099 1.22238)
(112.501 0.844991 0.811354)
(112.202 1.472 1.22956)
(109.218 1.14583 1.62777)
(107.382 0.499087 1.51239)
(103.151 0.143375 1.30948)
(275.979 -15.9922 -76.7337)
(47.9618 -31.6995 9.743)
(104.89 -8.29788 24.3994)
(24.8259 -0.674994 11.9008)
(79.5326 -1.76537 12.4817)
(23.2042 -4.60698 1.64786)
(62.5348 -2.22689 2.44691)
(32.8032 -6.20847 -2.33884)
(57.2085 -2.36061 -2.57786)
(44.6846 -3.60823 -3.99496)
(58.6717 -0.411977 -3.54983)
(54.4231 -0.765415 -3.47568)
(61.9723 0.913347 -2.71079)
(60.1927 0.640557 -2.48098)
(63.0933 1.18639 -1.98729)
(61.5647 0.853134 -1.67616)
(62.5184 1.14812 -1.12656)
(61.7096 1.05487 -0.874301)
(61.4768 1.68843 -1.32184)
(57.9057 1.65648 -1.78948)
(138.561 31.3911 -196.849)
(-102.239 -64.7378 -26.573)
(75.0726 -32.3341 -11.6959)
(-25.7299 -25.941 -5.88362)
(62.9327 -21.0778 5.7606)
(9.6187 -12.7574 -2.9838)
(55.9223 -10.6001 1.77684)
(27.0481 -6.23365 -2.0285)
(50.6283 -4.78303 -0.851481)
(36.0249 -1.39346 -2.54688)
(48.2816 0.0804677 -1.85204)
(41.0766 1.97638 -2.32931)
(47.0499 2.48934 -1.63051)
(43.4815 3.11273 -1.74491)
(45.8429 3.06925 -1.26103)
(43.5411 2.99503 -1.10034)
(44.3153 2.9307 -0.634194)
(43.17 2.36257 -0.661777)
(43.0571 1.83059 -0.979922)
(40.1142 1.27879 -1.43455)
(239.379 -146.535 -79.2347)
(21.2659 -47.3931 2.28998)
(117.909 -8.99784 0.716429)
(5.88181 -11.9738 1.85378)
(68.7669 -1.04033 10.7718)
(-5.18305 -2.45535 1.19816)
(47.4124 -1.64797 2.24558)
(4.98855 -1.15807 -0.724537)
(36.4985 -0.896725 -0.309988)
(16.739 -0.113623 -1.0901)
(33.3905 0.271978 -0.577545)
(25.2501 0.810996 -0.78267)
(33.412 1.08761 -0.351497)
(29.9899 1.55023 -0.550662)
(33.3767 1.87893 -0.242037)
(31.8456 2.07441 -0.288154)
(33.4655 2.36556 -0.0839852)
(33.2377 1.86193 -0.194852)
(33.7251 1.47386 -0.57548)
(31.5525 1.19205 -1.12744)
(126.444 57.4443 11.9297)
(-82.0176 35.0401 4.58326)
(81.1645 6.51196 11.8288)
(-53.5286 -9.99107 7.51074)
(60.3343 -6.55754 14.033)
(-27.0656 -0.512183 1.04727)
(41.254 -16.5322 4.75782)
(-0.685296 0.676102 0.125594)
(32.8941 -12.6156 1.06037)
(13.8128 0.711771 -0.399538)
(31.0753 -5.41058 0.400788)
(22.958 1.94846 -0.306484)
(31.68 -0.42128 0.11853)
(28.4048 2.90165 -0.0655893)
(32.1577 1.69354 0.0800847)
(30.5301 2.70428 -0.115499)
(32.1936 2.1665 -0.00740848)
(31.8185 1.66636 -0.113101)
(32.3314 0.482469 -0.396401)
(29.8048 0.535183 -0.989343)
(100.95 174.779 89.2601)
(-123.072 -76.6563 71.0277)
(82.8211 -35.232 29.4795)
(-47.6918 -29.1445 10.8339)
(60.9077 -12.9503 13.1001)
(-30.4924 2.71604 0.882297)
(42.7846 -19.8655 2.70589)
(-2.51272 -0.536222 0.0490661)
(24.0124 -11.3687 0.521005)
(8.25551 -1.27277 -0.262618)
(21.3328 -6.51258 0.0101762)
(17.5511 -0.838313 -0.57089)
(25.0344 -2.61145 -0.13876)
(24.8338 0.859126 -0.5559)
(28.6563 0.978965 -0.279984)
(29.4191 1.97821 -0.233737)
(31.2646 1.85032 -0.0620202)
(31.6697 1.26951 0.0203912)
(31.9942 0.576178 -0.261283)
(29.0344 0.8408 -0.932443)
(227.272 104.354 13.0101)
(-194.037 -34.6246 -5.507)
(101.781 -27.042 21.9295)
(-58.2916 -28.8316 9.02921)
(69.9928 -21.2825 16.3005)
(-21.9444 3.44701 2.53267)
(31.9235 -45.532 1.87229)
(-14.6635 14.0234 -0.857885)
(15.2664 -23.4814 -0.911486)
(-1.86698 3.23159 -0.135159)
(16.4627 -13.4871 -0.456464)
(12.2756 -1.15526 0.152692)
(22.4319 -6.8167 -0.348532)
(22.6781 0.135746 -0.198275)
(27.2971 -2.00387 -0.296599)
(27.535 0.506729 -0.0948398)
(29.7945 0.43851 0.0385449)
(29.4939 0.719206 0.095266)
(29.7097 0.266581 -0.214472)
(26.7433 0.639267 -0.939067)
(183.148 -179.482 -249.84)
(-136.845 -47.4414 13.1055)
(98.0747 -82.2659 5.18742)
(-41.0378 -47.8784 2.40905)
(64.8048 -37.5271 10.1618)
(-5.39385 25.8574 0.87924)
(34.5191 -11.2662 2.42183)
(-6.17182 7.64067 0.590768)
(14.6392 -11.1501 0.182805)
(3.08605 -5.25128 -1.17282)
(18.2698 -11.9565 -0.327789)
(15.7174 -7.97526 -0.311194)
(24.8051 -8.18069 0.500755)
(25.4187 -3.65028 -0.140825)
(27.7266 -3.0656 -0.148987)
(30.2004 -0.269427 0.0291505)
(29.8718 0.811643 0.183563)
(29.432 1.1623 0.163905)
(28.6852 0.640681 -0.131527)
(25.2456 0.944633 -0.96974)
(44.4538 23.7348 -58.2114)
(-90.4216 -69.2001 -27.3058)
(87.7001 -58.9636 -5.04993)
(-42.9674 -38.8895 -2.74699)
(56.5127 -38.298 8.34273)
(-5.70772 0.588882 -1.47178)
(32.5313 -0.14074 2.19259)
(20.1101 -2.85575 0.422971)
(31.68 -7.34497 0.100679)
(27.5025 -10.3371 -0.787261)
(30.4551 -10.8061 -0.533188)
(27.2522 -10.951 -0.52636)
(29.5024 -11.0382 0.0669287)
(32.2567 -8.66125 0.415907)
(35.8488 -2.22017 -0.182618)
(33.5697 -1.6276 -0.00114352)
(33.9549 1.14815 0.218933)
(31.9822 1.49915 0.248368)
(30.8497 1.34026 0.00370329)
(26.236 1.08976 -0.937559)
(283.171 -48.1918 -269.821)
(-55.7401 -19.7893 -33.5058)
(120.075 -44.2756 -28.1434)
(-11.5663 -23.7396 -3.85352)
(53.221 -24.6013 3.59091)
(15.2192 -7.21415 -2.36633)
(41.5681 -7.46072 -0.0247393)
(44.4414 -9.11154 0.74359)
(44.9134 -9.29878 0.421367)
(43.566 -9.03973 -0.245753)
(41.9813 -7.78443 -1.23455)
(41.8283 -10.0178 -2.16706)
(42.1928 -14.7857 -1.43471)
(42.3794 -13.616 0.845747)
(43.4066 -4.52043 0.0842139)
(40.1182 0.803286 -0.25828)
(39.1014 1.76802 -0.0347147)
(36.2743 3.29229 0.173677)
(34.3197 2.78253 0.14897)
(28.5719 2.27995 -0.901921)
(208.427 7.76513 1.7037)
(108.683 61.3298 14.5783)
(125.143 -9.55199 5.41218)
(21.2466 -9.91382 1.18376)
(69.5064 -21.8647 2.7405)
(20.3284 -19.8859 -0.552915)
(37.5992 -18.5749 2.09884)
(51.3223 -16.9529 3.44984)
(60.9486 -15.582 4.83992)
(60.1035 -9.11757 1.89161)
(58.3695 -5.87089 -0.836984)
(58.1606 -8.31221 -2.47773)
(55.6325 -13.7554 -0.761298)
(47.9637 -12.0451 2.78251)
(43.9068 -4.29754 -0.318202)
(39.4074 0.854672 -0.876812)
(39.5667 3.94431 -0.168877)
(37.8338 5.04487 0.0765627)
(36.3006 5.22899 -0.185648)
(30.07 3.43029 -1.41737)
(19.4877 33.9624 -21.5175)
(-26.8797 13.2988 1.36575)
(70.6456 8.53477 6.87794)
(6.19814 0.828955 0.727563)
(59.7921 -5.18421 3.98972)
(37.155 -19.7769 -2.5887)
(64.7002 -31.8072 -1.64234)
(67.9878 -28.6121 -1.73029)
(68.3678 -18.7151 1.78465)
(66.0988 -9.45797 3.66549)
(64.3105 -2.38872 1.03592)
(59.4363 -4.35685 0.340957)
(49.8428 -7.29076 2.48576)
(39.4306 -4.51736 2.05817)
(34.3502 -3.45159 -0.438244)
(31.9575 2.1051 -0.865662)
(35.7832 3.06683 -0.376343)
(36.7541 5.52888 -0.0437844)
(37.7647 6.5091 -0.64675)
(33.1376 5.2516 -1.62984)
(63.5347 -101.631 27.9426)
(-83.848 -25.8345 1.44773)
(77.4107 0.924442 17.3269)
(-4.29249 -16.3927 10.1991)
(83.5155 -9.93045 7.42762)
(23.4317 -45.065 1.76133)
(54.7578 -19.6127 1.97507)
(29.7838 -21.8824 -1.32831)
(41.5146 -15.6892 -1.81347)
(35.2486 -8.80735 -1.12987)
(41.3237 -1.13959 -0.366033)
(33.8796 0.324993 1.13152)
(32.9238 0.775558 1.05295)
(27.5066 -1.23958 0.336269)
(23.9542 -0.453699 -0.97033)
(27.2233 -1.53015 -0.674718)
(29.6746 -0.00205603 -0.528294)
(34.5161 2.9121 -0.179088)
(37.6247 5.54193 -0.839703)
(36.3275 4.87274 -1.35936)
(19.4747 -8.38672 54.0188)
(-133.746 3.55669 -32.1263)
(61.881 -4.25566 1.08709)
(-30.4501 -12.1364 7.49573)
(78.938 -13.3137 4.4016)
(20.3128 -28.8664 1.74384)
(55.1309 3.39888 1.53814)
(26.5055 -27.3618 1.17833)
(36.6879 -0.0439125 0.253014)
(22.8462 -10.5224 0.535584)
(28.9407 4.29921 0.344783)
(24.0421 -1.47809 0.0701474)
(27.9085 3.20761 -0.41112)
(25.8532 -1.40005 -0.875787)
(26.5668 0.428177 -0.909833)
(26.3244 -2.34437 -0.469913)
(27.8194 -2.4086 -0.244705)
(30.2169 -1.98408 -0.134172)
(33.7808 1.55626 -0.845316)
(33.6785 2.90747 -1.29375)
(-54.1505 -89.3054 -47.22)
(-168.448 -98.9485 7.22881)
(46.8044 -88.6434 -2.26641)
(-55.6923 -49.3263 5.50106)
(66.4594 -36.587 0.871438)
(-5.58207 -30.3368 2.03683)
(55.0633 -11.3805 0.363142)
(20.5637 -16.4181 1.21136)
(39.381 -3.70784 1.13049)
(24.6815 -5.80899 0.761599)
(32.841 1.90913 0.252361)
(27.7075 0.0457082 -0.528707)
(32.0599 2.16767 -0.866625)
(30.6227 -0.569784 -1.39583)
(32.1804 -0.924155 -1.24484)
(31.4776 -2.57609 -0.45042)
(30.9671 -2.72224 0.456044)
(30.1296 -2.46896 0.430543)
(29.8245 -0.675926 -0.594537)
(27.7366 1.35893 -1.26314)
(315.947 -61.6549 63.3739)
(98.6652 -70.7374 25.5114)
(144.458 -59.3954 -4.46602)
(54.1499 -51.3289 -4.91884)
(91.109 -40.1992 -4.19639)
(33.9508 -31.5177 -2.80651)
(63.6936 -15.1256 -1.26227)
(36.092 -17.1837 -1.82786)
(51.3789 -2.73735 -0.351167)
(36.5293 -5.33448 -0.103839)
(43.8488 2.67712 0.742067)
(36.684 -0.603392 -0.107743)
(40.697 1.7254 -0.161192)
(37.4061 -1.26904 -0.73749)
(38.7471 -0.647454 -0.500877)
(36.5707 -1.80771 -0.337576)
(36.3741 -0.559138 0.416848)
(34.6333 -0.258056 0.664397)
(33.2604 0.904845 0.0684946)
(29.4315 1.56494 -0.988178)
(236.254 -200.43 111.315)
(47.5955 -2.82687 -18.8597)
(146.797 20.7631 -18.0259)
(31.1567 1.3027 -8.40428)
(83.3164 3.14178 -5.13719)
(12.9945 -12.2648 -2.09369)
(55.3086 -4.35834 -1.80757)
(20.5152 -9.04946 -1.70229)
(46.0335 -0.150133 -1.44906)
(30.8325 -0.489551 -1.04861)
(43.6158 4.42301 -0.232667)
(36.7836 2.65168 -0.347856)
(42.5198 3.08469 -0.053986)
(39.0159 0.946022 -0.318469)
(40.7553 0.200087 0.167707)
(38.5236 -0.720336 0.307226)
(38.8446 -0.31843 0.619487)
(37.9815 0.366001 0.476564)
(37.4203 1.07031 0.13606)
(34.113 1.30573 -0.66908)
(131.836 -5.4497 184.269)
(98.0306 49.3475 -10.1824)
(117.084 39.7942 -1.40615)
(0.511666 3.1606 0.709211)
(81.0742 -1.63941 -3.72071)
(6.98949 -13.8689 -1.29945)
(54.3056 -12.4704 -1.2862)
(20.0745 -13.0162 -1.39336)
(46.3123 -8.0988 -0.793473)
(32.8831 -5.51391 -0.671595)
(46.2387 -0.745039 0.291626)
(40.4243 -0.437269 0.219961)
(46.7745 0.955456 0.691414)
(43.5949 0.0920452 0.41649)
(45.7193 0.391108 0.566739)
(43.4193 0.141996 0.321403)
(43.7764 0.535683 0.51266)
(42.9383 0.721632 0.318388)
(42.5449 1.02528 0.0401462)
(39.0494 1.13808 -0.69538)
(129.071 214.74 -7.94987)
(10.9926 44.3081 -10.8048)
(112.791 66.8873 -7.88136)
(9.91848 18.8667 3.16162)
(97.2004 9.84601 -0.157946)
(33.1927 1.74393 -0.852157)
(72.6562 -8.31589 0.240744)
(38.2326 -8.39118 -1.73411)
(57.5155 -9.12158 -1.20491)
(42.2935 -3.70199 -0.59593)
(53.4381 -0.666642 0.846453)
(46.8504 1.03782 0.430641)
(52.8543 1.52018 0.661561)
(49.7926 1.57494 0.277228)
(52.1324 1.1757 0.367804)
(50.4564 1.09638 0.213356)
(51.375 0.901499 0.391344)
(50.8779 0.99008 0.293989)
(50.4517 0.871999 0.0977177)
(45.8719 0.781336 -0.476293)
(140.807 -114.421 -151.235)
(-92.3262 -2.69767 -17.6351)
(138.209 32.7925 -14.4514)
(52.5479 16.4095 -10.0311)
(138.633 13.8724 -1.53303)
(105.651 11.3282 -2.16891)
(131.46 0.581593 -0.43028)
(103.356 -4.77395 -4.98513)
(99.3018 -11.4196 -6.31912)
(77.7411 -6.96248 -4.13806)
(80.1281 -4.73296 1.26635)
(72.6415 -2.26105 2.26192)
(76.0318 -1.03299 2.59063)
(73.5044 0.0078415 1.71206)
(75.8657 0.388527 1.30568)
(75.1762 0.825928 0.458405)
(76.3665 1.02677 0.226908)
(76.1963 1.20238 0.0481103)
(75.7982 1.39763 0.0284463)
(71.449 1.48604 0.129351)
(82.9733 -196.084 50.3118)
(-65.0398 -91.2363 -6.2406)
(98.2436 -64.1424 3.2243)
(54.5394 -31.6041 18.1734)
(113.355 -23.167 14.3166)
(92.0862 -17.7214 12.4435)
(118.788 -9.37079 10.3375)
(107.648 -6.43556 7.93058)
(118.46 0.30722 6.1521)
(109.693 2.22561 3.93592)
(111.984 5.6875 2.75809)
(105.034 5.68607 1.4034)
(104.581 6.16135 0.822397)
(99.521 5.34724 0.0869012)
(98.3634 4.92066 0.0883127)
(93.2167 4.01713 0.115051)
(91.3232 3.51501 1.20803)
(87.9114 2.5221 1.36227)
(86.7912 2.58391 0.508019)
(80.7836 2.60882 -0.312938)
(23.8741 -45.3853 -22.0051)
(-78.7499 -14.8675 -0.352075)
(72.3849 16.6593 6.51525)
(-19.6213 16.0462 8.07769)
(69.1539 14.8703 8.98588)
(9.10411 5.44288 -0.202212)
(58.1486 7.97289 -0.516969)
(28.0325 2.0654 -5.21408)
(55.1797 5.49915 -5.47191)
(41.3483 2.94665 -6.49298)
(54.9378 5.20219 -5.29078)
(48.3059 3.68013 -4.95683)
(54.1358 4.34637 -3.56292)
(50.2873 3.29582 -3.05432)
(52.1347 3.38661 -2.05328)
(49.4322 2.6735 -1.60938)
(49.9662 2.76558 -0.985139)
(48.6928 2.4259 -0.94241)
(48.4745 2.89351 -1.63353)
(44.5398 2.28544 -2.55487)
(178.748 33.5091 -70.3965)
(-46.2288 -48.7599 -11.2913)
(55.749 -20.3614 -15.9515)
(-59.0829 -17.3992 -2.43257)
(50.1258 -11.4681 1.04982)
(-13.9752 -5.39865 -3.67984)
(44.2086 -4.57392 0.375795)
(11.8433 -0.876378 -3.02171)
(40.3665 -0.180712 -1.44783)
(23.7721 2.40185 -2.93284)
(37.4962 2.89197 -1.902)
(28.7743 3.91462 -2.41222)
(35.1204 3.68572 -1.48086)
(30.5827 3.79084 -1.63838)
(33.1685 3.39123 -1.0109)
(30.6319 3.08615 -0.977314)
(31.885 2.8671 -0.536362)
(31.0431 2.20706 -0.615636)
(31.2111 1.92565 -1.08018)
(28.6983 1.24048 -1.95977)
(162.693 60.7225 -131.027)
(-4.15932 12.5413 -5.93716)
(94.9489 8.00364 6.56266)
(-29.6496 -7.30882 4.86483)
(57.908 3.57644 9.89481)
(-20.384 0.492308 1.84129)
(40.1683 1.20392 1.98344)
(-4.85781 1.54141 -0.581273)
(29.0947 1.42633 -0.569298)
(7.21484 1.79249 -1.11562)
(24.8829 1.58337 -0.62202)
(15.2474 1.74061 -0.786704)
(23.7321 1.54611 -0.29556)
(19.5318 1.73713 -0.500979)
(23.1862 1.74654 -0.182303)
(21.4382 1.7292 -0.259895)
(23.3083 1.86874 -0.10319)
(23.099 1.31427 -0.234075)
(23.5411 1.1832 -0.640338)
(21.8923 0.994884 -1.89484)
(49.7394 -6.17439 -46.2786)
(-154.078 21.0367 10.4224)
(55.6874 12.9902 3.56947)
(-94.3648 -0.846008 13.8002)
(49.5561 0.782831 8.77447)
(-44.3638 3.94891 2.82972)
(34.2753 -13.2533 4.52557)
(-11.4997 4.73545 0.218288)
(25.0996 -9.55569 1.11244)
(3.6359 3.83634 -0.289557)
(22.0846 -3.55649 0.311452)
(12.4578 3.40611 -0.157894)
(21.604 0.0254306 0.255841)
(17.5839 3.06957 -0.082372)
(21.5768 1.29091 0.0965476)
(19.7457 2.17592 -0.110821)
(21.6666 1.43933 -0.0121815)
(21.2496 1.06447 -0.123101)
(21.7536 0.365888 -0.515452)
(19.9362 0.702739 -1.74147)
(-3.5701 150.978 -4.41121)
(-186.634 -58.73 41.2809)
(60.1377 -17.4482 11.7199)
(-80.7253 -24.4517 14.7564)
(53.2719 -8.63571 10.2664)
(-44.6907 3.17294 2.08626)
(35.7747 -19.204 2.97916)
(-12.2978 2.26795 -0.586922)
(17.3198 -9.45546 0.67765)
(-0.0681841 1.57859 -0.428016)
(13.8859 -4.49677 0.436017)
(8.91361 1.06343 -0.211621)
(16.2113 -1.61591 0.059515)
(15.062 1.33201 -0.285473)
(18.4274 0.654543 -0.0569727)
(18.72 1.35184 -0.140696)
(20.4198 1.02065 -0.0246478)
(20.6765 0.661259 -0.0291689)
(21.0025 0.366187 -0.416904)
(19.0362 0.80394 -1.69819)
(246.25 180.789 -223.459)
(-269.167 -21.9861 6.22299)
(88.0368 -7.57025 -10.083)
(-91.32 -15.4791 14.2907)
(64.1283 -10.9847 13.5297)
(-38.4273 8.00918 2.42435)
(23.5259 -43.0767 1.65523)
(-22.8423 17.6048 -0.805699)
(9.29883 -21.8292 -0.488171)
(-8.15346 5.70201 0.357993)
(10.1546 -11.5577 0.228756)
(4.88841 1.09835 0.628913)
(14.7445 -5.20235 0.290558)
(14.1741 1.03898 0.17433)
(18.1616 -1.74035 -0.124005)
(17.9068 0.43806 0.0683802)
(19.8617 0.0818576 0.118667)
(19.3764 0.438083 0.0139864)
(19.704 0.18985 -0.371013)
(17.7108 0.655607 -1.7068)
(68.8508 -106.856 -242.003)
(-147.841 -25.7061 -5.58979)
(74.5545 -65.3454 -19.3324)
(-65.6185 -32.8826 3.17165)
(55.3133 -26.3834 7.20892)
(-21.5141 31.3654 1.06978)
(20.5089 -15.4838 0.373716)
(-11.9208 11.861 0.399985)
(7.58107 -14.6637 -0.30323)
(-2.19192 -2.61287 -0.750823)
(11.5035 -11.1015 0.166636)
(8.93673 -4.56657 0.438844)
(17.3473 -5.77068 0.286921)
(17.31 -1.12702 -0.181273)
(18.5409 -2.29233 0.296311)
(20.5772 0.0270962 0.179)
(20.0307 0.569357 0.17376)
(19.6719 0.784599 0.0895486)
(19.2294 0.414697 -0.297279)
(17.0503 0.809463 -1.71292)
(60.7056 -69.7934 -127.94)
(-90.5922 -50.3139 -45.3219)
(74.4879 -47.6621 -20.4148)
(-60.2856 -27.9275 -1.27061)
(45.0039 -28.7571 4.55102)
(-12.3432 12.7375 2.83446)
(20.3121 -0.195154 1.80376)
(10.4466 -3.79837 0.943889)
(22.208 -8.74348 -0.356035)
(17.5631 -9.61357 -1.01616)
(21.1761 -10.113 -0.785088)
(19.0534 -9.09631 -0.455112)
(22.3089 -8.00458 0.327499)
(24.2603 -5.27673 0.246063)
(26.8844 -0.668216 0.10268)
(23.1017 -0.938817 0.468136)
(23.3165 1.16284 0.341102)
(21.4247 0.984936 0.212118)
(20.9464 0.853664 -0.168599)
(17.9638 0.770179 -1.72512)
(451.684 -234.414 -49.152)
(84.9277 -45.6393 7.35179)
(105.062 -37.8228 -19.1788)
(-27.9409 -16.7385 -0.255554)
(38.0749 -18.8218 3.24434)
(-4.97816 0.336104 0.378225)
(28.3804 -1.77502 1.06486)
(33.2146 -7.08378 1.32794)
(35.1001 -9.26332 0.598039)
(34.0279 -9.53031 -0.54161)
(32.6741 -9.19339 -1.76912)
(31.2192 -10.6051 -2.3187)
(30.5015 -12.0741 -0.380046)
(32.4496 -8.90391 1.06745)
(32.8613 -1.95666 0.481564)
(27.9655 1.82894 0.39614)
(26.7689 1.89194 0.29129)
(24.282 2.53689 0.217352)
(23.2096 1.7805 -0.129944)
(19.643 1.52624 -1.77261)
(148.918 49.6432 66.8954)
(45.921 37.5504 27.582)
(92.8113 -9.9736 5.21974)
(-3.51366 -5.04383 0.856467)
(56.2641 -16.0714 0.990106)
(6.69551 -14.7373 -0.107559)
(26.63 -13.5499 2.00442)
(39.198 -11.5961 3.46924)
(45.5165 -10.2435 4.55617)
(46.9213 -8.49621 3.41468)
(48.3272 -8.01872 -2.19789)
(44.9756 -9.823 -2.66156)
(39.2748 -12.3815 0.3361)
(36.6164 -8.14771 1.85925)
(34.2685 -1.35728 -0.364251)
(28.0083 1.60636 -0.118635)
(27.508 3.89413 0.189683)
(25.9298 3.80466 0.203553)
(24.9768 3.43606 -0.335436)
(20.7427 2.01057 -2.1639)
(100.148 37.958 1.81634)
(-11.3901 13.3709 16.0683)
(55.784 16.7127 7.08163)
(-15.4741 6.94357 2.31099)
(43.7035 -3.24209 2.16967)
(18.3289 -19.8039 -2.48759)
(46.3916 -26.5188 -1.7754)
(47.6281 -18.3708 -1.37952)
(47.5689 -8.26693 2.13407)
(47.2966 -3.62239 2.92741)
(46.4194 -2.85071 0.654444)
(41.079 -5.5715 1.046)
(34.3183 -5.72049 2.47668)
(30.2296 -3.26658 1.35163)
(27.4438 -1.599 -0.638594)
(23.4561 2.95373 -0.247939)
(26.2357 3.22345 -0.0519748)
(26.3583 4.43949 0.0531389)
(27.037 4.47156 -0.698743)
(23.3216 2.95158 -2.37516)
(84.5266 -77.8933 93.2593)
(-90.5069 -41.3155 -11.1264)
(60.9557 10.2081 8.66521)
(-21.5819 -9.1169 10.5214)
(68.8087 -7.52942 5.29064)
(5.12679 -42.0772 2.12229)
(39.9989 -12.7924 1.46251)
(15.7544 -15.5685 -0.939026)
(28.2585 -7.2663 -1.87397)
(22.0097 -4.65912 -1.0912)
(28.4176 -0.337137 -0.21195)
(21.8737 -0.723136 1.04738)
(23.513 -0.258209 0.804841)
(19.8168 -1.55531 0.0341666)
(16.6458 0.076436 -0.595998)
(20.1266 -0.554235 -0.334872)
(22.2855 0.911747 -0.278619)
(25.9542 2.459 -0.0296098)
(27.5669 3.6734 -0.794118)
(25.8299 2.77524 -2.0762)
(72.9154 -177.263 155.756)