/*--------------------------------*- C++ -*----------------------------------*\
  =========                 |
  \\      /  F ield         | OpenFOAM: The Open Source CFD Toolbox
   \\    /   O peration     | Website:  https://openfoam.org
    \\  /    A nd           | Version:  10
     \\/     M anipulation  |
\*---------------------------------------------------------------------------*/
FoamFile
{
    format      ascii;
    class       volScalarField;
    location    "2.6";
    object      k;
}
// * * * * * * * * * * * * * * * * * * * * * * * * * * * * * * * * * * * * * //

dimensions      [0 2 -2 0 0 0 0];

internalField   nonuniform List<scalar> 
12920
(
60.6474
757.062
753.516
561.722
526.622
473.778
387
344.285
308.509
284.384
253.853
219.249
179.772
153.725
144.777
137.39
131.017
117.143
108.16
85.4729
1768.27
2740.32
2303.83
1038.07
626.951
494.023
401.196
365.918
313.565
267.938
228.483
209.411
204.67
205.577
206.323
203.566
189.802
166.947
144.617
112.883
487.713
1280.91
1239.06
1061.03
783.564
545.431
367.6
282.874
232.134
210.745
198.694
194.339
190.638
186.949
184.401
180.023
170.134
146.398
127.838
109.362
4058.15
2540.67
1516.68
946.224
644.329
464.323
345.819
274.374
233.703
213.138
198.466
188.35
177.224
168.356
159.242
144.968
132.291
115.641
105.9
93.8963
6287.82
4142.73
1666.55
959.333
640.54
475.706
404.044
343.653
304.428
274.223
250.328
232.603
218.206
208.679
193.405
166.11
141.065
113.22
99.1892
76.9169
10026.3
5197.81
2108.12
1045.84
703.146
539.716
496.72
405.417
348.891
301.745
272.059
248.609
235.214
224.46
204.99
173.698
144.298
113.253
93.8741
56.9342
4247.25
4841.33
2802.67
1272.04
797.024
693.847
607.66
489.609
407.538
341.401
309.243
275.827
252.107
240.966
225.044
186.062
147.032
111.137
75.94
36.3577
1994.93
3729.44
2653.78
1128.28
682.262
629.765
431.251
299.836
281.919
251.403
228.95
193.078
165.908
150.52
257.398
207.311
152.68
102.342
58.6656
31.835
566.598
2696.04
2310.83
1263.25
713.26
397.445
319.26
179.246
186.419
183.407
165.99
143.413
102.527
92.7841
173.313
224.109
157.992
98.5824
56.2207
41.2729
236.053
1487.09
1207.84
694.659
561.756
315.442
213.167
161.499
155.582
163.225
165.595
148.366
115.451
80.8744
133.695
209.216
158.812
101.975
68.7391
69.7152
1896.97
2118.79
1592.51
823.868
620.818
320.919
175.514
137.928
145.748
150.089
149.051
114.202
102.388
76.0912
101.106
173.419
156.688
121.724
108.923
110.372
3886.24
3280.6
1990.52
919.854
634.697
309.662
185.709
116.799
126.342
119.269
99.932
57.5789
53.4356
71.269
128.328
167.22
152.23
139.3
131.019
120.327
8950.89
5517.68
2771.29
1326.34
771.549
572.126
315.241
209.474
200.548
160.907
112.147
78.732
75.4086
85.893
148.758
143.986
139.259
133.695
126.298
111.443
14092.2
4119
2141.33
1340.76
829.03
584.143
426.638
349.051
282.897
217.239
164.619
129.171
110.512
98.8888
94.3451
94.7958
98.5939
100.389
98.7041
88.5385
3732.79
3538.83
2411.35
1813.95
1162.4
754.114
458.316
336.678
260.539
207.69
160.606
129.137
108.342
94.727
86.1663
79.6808
77.0599
76.5821
75.5693
70.0621
2292.52
3173.19
2249.52
1858.93
1355.56
1035.01
610.19
367.236
237.7
183.169
149.653
130.275
114.17
103.243
93.1774
84.3771
79.1165
73.645
71.3491
66.3797
7000.18
3304.06
1710.94
1449.42
1278.62
1096.7
768.254
455.084
253.837
180.33
153.481
140.347
127.337
115.897
105.604
93.7188
85.3149
73.294
67.4343
57.7555
4193.57
1135.86
722.103
694.228
707.001
684.993
558.639
381.307
260.079
206.07
175.891
160.949
146.335
134.194
124.769
115.271
110.64
100.099
91.9217
72.7113
5368.42
2316.3
875.429
583.46
493.235
461.967
412.066
352.546
285.713
235.382
191.741
167.166
152.453
141.262
131.097
115.755
104.409
91.9446
85.9082
71.2854
1988.96
1109.85
610.471
572.777
514.946
401.024
317.436
271.955
232.868
211.583
197.631
179.189
157.68
138.32
125.669
111.917
95.324
72.7807
57.0845
43.3772
2149.47
1403.72
1061.91
1028.94
1070.93
1020.86
859.098
745.984
661.284
569.968
473.842
401.056
361.557
342.612
327.411
306.853
275.562
243.699
209.674
161.329
7040.36
5081.95
3067.89
1935.34
1457.67
1208.9
980.778
899.372
779.271
713.485
626.628
590.245
580.267
589.166
601.328
597.262
565.116
510.568
453.661
377.833
3927.36
5035.14
3294.39
2437.41
1802.04
1296.88
931.75
746.924
617.209
572.875
548.198
552.672
556.021
558.892
553.509
530.688
492.173
435.057
393.409
346.179
13747.7
6861.62
3607.76
2266.15
1594.28
1154.6
888.586
724.02
631.823
584.414
544.136
523.327
493.999
476.899
459.476
430.675
394.932
345.282
315.014
280.845
17646.6
5231.7
2510.75
1984.64
1470.16
1222.4
1030.15
884.096
780.604
715.28
657.291
622.277
583.793
557.129
525.499
465.533
394.385
318.444
276.443
223.502
16300.6
9019.09
3762.23
2085.87
1516.26
1355.1
1250.26
1020.78
874.265
764.509
696.03
646.696
609.8
570.446
521.942
454.214
381.559
298.944
230.632
137.293
17108.3
14160.2
5924.8
3094.22
1892.53
1810.85
1563.34
1218.09
971.032
816.832
730.209
673.508
627.27
588.906
529.195
451.339
363.073
254.715
150.161
70.7265
9578.99
8441.79
4493.19
2456.33
1707.12
1616.92
1353.58
1120.35
965.151
845.557
753.969
661.962
603.43
559.164
539.672
449.702
338.158
208.837
118.253
76.2701
10298.3
7089.02
4094.6
2771.36
1508.63
1381.94
1288.78
1102.68
947.535
851.568
755.683
633.641
530.18
518.981
498.318
446.584
326.225
196.985
129.914
122.593
1131.39
5109.76
2887.56
1788.6
1514.17
1303.68
1278.51
1069.84
877.183
806.257
728.641
588.604
442.21
398.702
429.018
426.257
334.312
233.056
210.116
231.75
5825
5295.22
3552.9
1906.03
1601.65
1252.6
1057.86
925.177
827.291
770.532
653.928
524.649
473.537
358.337
329.245
384.387
363.603
328.893
328.164
340.794
3795.82
6703.4
4496.68
2122.79
1660.89
1266.69
1110.09
895.341
798.431
670.383
524.393
383.517
345.628
346.283
334.924
370.333
372.098
375.785
378.6
373.106
13047.9
10201.5
5856.95
2928.59
1967.5
1457.89
1114.12
883.678
733.943
564.84
399.616
320.103
309.912
319.234
344.223
352.972
358.149
359.755
352.751
326.947
17243
8107.25
4699.3
2984.87
1953.92
1478.81
1100.57
888.591
712.28
541.029
419.252
340.017
299.072
270.773
261.815
264.632
274.646
275.757
268.841
247.496
8772.83
6870.37
4967.08
3665.41
2405.73
1701.48
1064.4
837.996
651.218
530.794
413.922
343.008
292.667
259.677
239.913
224.612
217.236
216.867
215.38
205.712
9753.26
7558.73
5208.41
3813.79
2582.1
2025.16
1167.48
792.92
563.536
475.187
393.001
346.17
303.961
276.5
250.572
231.965
220.092
208.541
203.85
192.777
7863.7
3681.08
3780.47
3213.21
2507.29
2218.72
1338.96
791.022
534.635
463.12
399.915
361.132
324.129
295.721
269.536
243.584
226.642
200.987
187.15
162.191
5679.22
2562.95
1908.37
1646.21
1419.76
1359.84
1065.34
859.544
640.869
545.418
463.111
419.743
376.733
344.483
316.691
290.523
278.466
256.838
241.592
201.627
9477.84
4328.99
2101.48
1540.17
1294.09
1191.82
996.187
884.183
716.929
622.566
524.49
476.857
428.282
390.424
349.564
302.425
264.75
232.502
217.863
186.286
845.54
819.188
760.148
882.599
987.884
954.114
810.066
685.894
577.496
512.116
456.32
397.951
338.847
295.373
263.017
221.836
177.29
133.126
106.349
82.3095
4082.64
1417.49
972.555
1007.51
1185.33
1163.79
993.212
811.319
677.228
553.859
458.663
405.546
379.894
359.086
332.21
297.931
264.164
225.251
201.321
175.179
18678.4
8132.43
4054.39
2596.12
1865.9
1528.25
1230.59
1118.97
981.52
934.518
878.512
869.474
855.36
844.723
820.416
778.513
725.875
663.621
613.11
547.824
38379.2
13974.3
5217.88
3148.02
2282.95
1635.58
1280.65
1078.51
954.107
908.387
867.416
851.796
818.016
785.335
744.367
694.755
646.202
588.526
553.945
504.89
29976.2
11921.3
5184.11
3005.31
2156.68
1531.84
1250.94
1033.84
935.257
868.64
816.794
778.124
729.474
690.567
647.979
598.983
548.563
492.254
460.214
416.065
20638.9
7988.41
4378.17
2877.56
2236.89
1700.84
1433.32
1194.34
1060.72
963.659
887.975
829.678
768.671
716.893
657.201
584.587
511.616
434.687
389.793
330.424
12146.9
9567.78
4507.86
2756.28
2284.96
1840.63
1634.68
1303.51
1125.54
982.01
898.491
826.18
763.443
695.502
624.883
545.066
465.027
375.144
309.027
215.483
25421.6
10723.1
5486.04
3475.95
2654
2368.1
1896.05
1464.12
1199.81
1021.95
921.895
846.673
774.313
700.128
610.528
517.32
418.008
304.607
202.3
121.577
6902.25
9151.49
5305.88
3157.49
2525.94
2190.41
1871.89
1501.83
1250.23
1076.97
948.643
847.798
772.117
701.448
603.654
488.517
369.539
250.919
170.689
132.538
7390.29
7684.93
4532.32
3155.47
2380.61
2120.31
1944.47
1539.47
1268.82
1096.26
953.042
806.725
724.359
679.448
601.917
477.103
353.701
252.936
207.439
208.669
8212.25
6990.26
3933.29
2604.18
2226.8
1964.4
1924.58
1511.07
1220.65
1070.51
882.468
641.752
535.855
566.751
554.073
484.229
390.923
343.541
345.334
374.892
5913
6380.68
4368.21
2644.94
2250.51
1851.5
1650.59
1370.38
1178.12
1034.93
620.271
530.899
515.498
449.718
467.086
491.501
477.001
476.515
488.922
513.444
26051.6
9562.14
5271.92
2909.81
2280.12
1857.19
1710.19
1340.35
1109.01
891.345
681.032
552.349
496.324
463.11
447.841
497.214
518.307
537.74
549.045
555.035
13419.6
12669.5
6993.16
3779.09
2646.02
1950.64
1640.18
1245.48
975.615
728.425
552.662
473.081
449.747
446.683
462.796
481.914
501.68
514.696
514.676
505.995
11922.2
7814.16
5513.02
3573.81
2563.99
1860.59
1462.95
1129.65
885.998
673.882
544.809
458.371
415.832
387.605
383.859
389.096
406.105
415.221
415.368
409.416
4848.25
7177.89
5922.38
4009.79
2714.76
1882.72
1366.11
1058.21
825.415
657.486
530.739
449.948
396.638
360.681
341.197
331.09
330.699
334.766
337.729
335.856
7693.92
9929.96
6784.19
4300.75
2814.81
2041.1
1318.68
990.411
759.847
625.731
522.388
456.021
403.744
365.743
336.482
315.553
303.147
292.103
287.091
274.939
7073
5777.78
4598.12
3614.43
2706.99
2140.99
1371.89
1021.32
764.138
638.954
540.368
479.904
427.298
386.214
350.513
317.348
295.47
267.083
250.722
222.053
5250.35
4807.96
3543.39
2807.28
2191.89
1967.75
1474.89
1168.37
872.889
727.547
614.108
550.51
492.128
448.326
409.856
375.472
354.74
323.89
305.394
266.2
9790.37
6555.89
3218.97
2318.16
1943.49
1735.4
1434.53
1237.31
989.815
842.935
694.661
614.632
540.007
484.174
425.014
367.077
329.818
298.729
283.169
249.047
1712.03
1236.11
909.399
882.399
1055.54
1089.26
1017.77
847.423
699.89
595.738
512.841
440.72
380.068
331.665
289.315
237.152
188.898
144.773
123.357
99.1615
4956.16
1408.69
1399.37
1466.09
1425.11
1222.71
936.598
725.559
577.539
463.704
400.379
359.113
332.216
300.287
274.366
246.89
229.085
209.782
200.715
181.308
10787.1
8032.98
4801.29
2981.75
2154.85
1692.31
1406.79
1273.77
1167.52
1132.89
1096.99
1083.18
1053.01
1008.04
960.063
903.371
857.719
802.518
759.546
704.368
24915.2
10862.7
6095.35
3634.87
2695.08
1898.23
1589.69
1356.06
1254.89
1187.04
1136.95
1084.13
1022.26
953.504
892.718
828.01
778.663
725.429
694.206
648.266
24571.6
12757.4
6157.02
3613.94
2626.09
1840.56
1565.61
1298.45
1211.59
1112.8
1058.21
989.732
924.388
854.147
791.398
725.693
670.851
617.751
585.778
541.707
27195.3
10426
5710.89
3510.44
2817.61
2037.69
1767.99
1448.3
1314.99
1180.3
1099.96
1010.26
931.467
847.259
763.289
675.086
599.739
529.248
486.501
433.167
12582.1
10385
5286.91
3384.67
2878.11
2194.7
1946.81
1531.34
1345.9
1164.71
1077.08
975.89
891.041
796.041
701.41
605.385
516.955
433.14
372.924
300.799
18177.8
9842.73
6031.84
3844.4
3323.82
2709.75
2178.06
1659.5
1400.24
1187.47
1088.74
983.608
885.158
773.929
655.349
542.697
435.115
335.299
256.046
205.653
16263.7
12175.7
6242.66
3912.48
3219.22
2644.87
2186.76
1732.37
1433.1
1228.46
1086.07
976.244
878.405
773.621
620.224
485.717
373.749
286.382
236.116
215.461
9718.45
7808.29
5467.99
3752.9
3082.28
2629.45
2363.87
1788.54
1463.42
1244.5
1071.12
926.068
839.509
757.559
633.136
481.233
383.384
325.302
306.786
312.273
11492.4
8374.88
4979.16
3444.23
2791.63
2446.9
2325.54
1777.49
1441.35
1221.3
960.755
712.338
668.182
671.779
615.048
536.907
493.271
487.124
502.097
526.263
6970.57
7598.52
5068.03
3349.3
2763.86
2274.06
2029.65
1665.46
1397.07
1161.17
758.715
599.96
547.595
551.15
577.118
609.582
615.697
639.076
669.653
690.222
17268.3
10571.1
5992.57
3626.58
2763.91
2287.06
2082.25
1602.96
1271.6
987.428
765.626
653.57
596.981
559.243
569.015
642.177
675.064
705.258
724.661
734.4
12158.7
12298.7
8014.97
4480.6
3214.36
2368.54
1961.5
1443.77
1107.36
824.487
671.113
593.681
568.583
559.417
588.99
614.018
645.136
664.332
670.685
669.631
13385.4
8130.87
6221.06
4106.2
3051.17
2157.23
1723.21
1297.32
1008.86
778.482
653.689
564.866
526.56
501.236
502.573
512.186
534.958
549.762
558.422
562.731
6511.52
8496.68
6748.51
4291.95
2984.22
2051.38
1627.89
1220.7
964.069
760.459
637.639
546.201
494.672
457.286
443.447
439.122
442.544
453.754
463.145
470.353
18180.5
14899
7374.17
4398.82
2963.12
2036.96
1496.31
1128.64
912.284
742.648
639.882
553.001
498.336
450.038
422.547
401.363
391.243
382.781
378.615
370.572
15160.4
8595.78
6085.25
3993.64
2921.44
2084.28
1519.54
1153.16
928.389
767.449
665.408
581.124
521.779
465.573
425.64
388.771
365.359
339.124
321.828
300.988
8820.54
6392.5
4718.18
3410.6
2819.45
2225.26
1725.04
1316.35
1032.41
857.439
742.505
658.237
595.238
539.473
498.603
459.538
435.303
403.701
384.05
354.726
4678.41
6998.85
4280.12
2819.39
2443.87
2040.28
1724.09
1426.84
1152.85
955.055
790.311
688.882
606.839
540.235
480.817
432.709
407.162
383.701
370.176
342.734
1902.5
1542.22
1098.75
1050.24
1119.28
1103.66
983.788
795.366
654.61
546.31
468.296
399.579
346.553
296.035
250.759
202.631
164.88
132.007
118.379
99.5336
3761.85
2788.89
2650.51
2049.1
1464.38
1028.08
733.344
540.171
418.96
355.798
320.208
292.414
269.997
246.471
230.669
213.137
200.612
182.881
172.992
151.523
5565.83
7251.39
7086.8
4038.81
3171.19
2104.91
1987.74
1657.85
1674.56
1559.15
1568.96
1481.9
1442.1
1331.45
1276.88
1181.55
1134.17
1062.85
1020.44
975.275
23704.9
11418.8
8137.27
4427.39
3762.66
2384.45
2326.63
1889.22
1887.57
1699.56
1667.34
1515.77
1441.51
1292.16
1222.1
1120.04
1072.36
1009.43
978.256
931.526
61411.3
18640.5
8469.22
4533.92
3750.53
2402.39
2293.77
1803.21
1791.65
1581.45
1548.45
1396.07
1325.11
1179.69
1103.18
999.043
942.749
882.784
847.154
801.636
20543.3
13764.7
7429.72
4415.94
3948.15
2557
2505.5
1965.3
1899.17
1645.88
1585.32
1406.49
1313.75
1147.92
1032.61
903.658
824.05
750.182
703.061
656.595
39558.2
11446.8
6930.28
4361.54
4089.32
2846.62
2706.91
2042.12
1876.5
1577.5
1505.44
1332.11
1224.16
1064.16
925.556
786.502
682.554
600.739
540.583
504.569
22202.7
13304.5
7834.68
4598.96
4576.23
3304.28
2916.26
2148.88
1914.3
1592.46
1514.34
1332.66
1202.84
1011.78
829.542
667.653
549.611
471.107
433.218
420.198
40510.6
21157.9
10119.6
5155.39
4660.63
3504.16
2655.12
2046.53
1736.31
1470.89
1330.3
1186.34
1066.86
909.737
781.999
599.309
500.984
450.065
427.642
420.322
12886
9065.07
7100.05
4675.92
4205.37
3294.26
2861.98
2074.28
1715.6
1447.79
1256.81
1109.9
1007.71
889.174
741.671
649.501
573.128
545.535
538.096
533.952
11677.6
9881.75
6703.68
4451.54
3805.96
3013.25
2736.58
2084.25
1699.73
1361.93
1069.7
872.321
863.588
838.961
764.904
795.629
778.95
794.481
812.155
813.968
20036.7
11593.1
6726.43
4290.47
3740.11
2801
2429.65
1990.93
1627.2
1246.82
927.789
734.394
718.721
762.289
787.598
921.926
935.549
982.334
1012.66
1024.26
35839.3
13837.3
7621.16
4511.69
3661.14
2842.7
2506.28
1889.42
1462.54
1097.71
886.436
793.175
781.794
764.396
803.175
977.587
997.739
1041.46
1061.64
1066.32
19554.5
14819.4
10111.3
5513.89
4467.48
3149.91
2375.33
1706.44
1323.15
1005.48
877.267
794.167
776.851
762.307
897.925
910.085
944.427
964.795
974.108
975.812
7125.03
8813.34
7823.67
4780.02
4062.03
2664.44
2302.61
1698.49
1346.81
1064.72
940.249
829.963
798.007
765.8
773.8
783.831
807.169
824.76
840.162
856.857
19902
9874.48
8339.35
4978.51
3905.25
2541.47
2246.69
1586.38
1326.89
1029.53
916.113
786.809
739.289
691.175
684.05
680.012
688.049
706.171
721.582
742.195
17685
11578.9
8450.92
4687.82
3703.25
2373.35
2007.98
1449.18
1284.97
1014
932.628
787.686
739.083
662.763
642.672
614.272
609.112
598.748
595.817
595.219
16675.4
9649.49
8145.25
4659.01
3797.88
2420.53
2045.32
1453.29
1316.08
1044.33
964.906
810.628
753.497
657.149
619.394
569.926
550.775
525.111
511.739
503.673
15405.8
8439.05
7049.94
4086.03
3930.75
2666.61
2287.2
1604.75
1415.61
1122.56
1045.52
893.382
843.112
750.771
717.327
662.82
642.263
609.09
593.338
576.826
1980.16
6862.99
6462.25
3721.39
3504.32
2503.16
2304.04
1710.86
1497.81
1128.56
1000.08
824.194
754.06
672.359
640.822
612.654
607.764
597.04
587.467
580.279
1520.33
1530.49
1237.17
1185.79
1090.56
930.482
779.522
615.106
490.492
383.524
314.407
252.539
209.601
171.919
148.761
127.443
115.368
103.281
98.2336
87.4517
938.494
1057.38
715.57
1191.83
1014.94
1157.23
776.107
698.628
630.488
524.354
942.247
735.704
666.84
502.306
699.607
929.528
776.586
1138.28
732.935
1015.82
838.85
528.438
727.708
622.54
646.527
559.969
790.703
686.998
185.782
226.474
173.526
942.494
986.933
954.202
980.403
187.809
165.14
154.709
940.488
854.598
919.898
789.851
186.315
154.78
159.469
829.823
776.361
765.499
723.161
172.491
160.727
161.479
761.017
701.608
711.444
674.812
150.305
160.717
152.601
680.285
600.546
657.791
584.816
113.737
144.573
120.681
572.086
482.298
551.993
444.459
92.713
111.811
87.0008
465.241
455.731
409.365
364.726
82.4757
81.2982
64.4215
457.153
454.614
368.9
388.738
168.082
197.789
156.973
1023.53
971.217
929.715
868.209
155.472
157.314
158.025
910.542
781.597
834.105
754.729
162.23
158.57
164.63
757.475
719.336
737.636
709.291
166.047
164.608
161.593
709.74
675.331
699.332
642.964
155.084
158.245
138.825
657.108
577.215
614.159
520.743
123.161
131.08
117.118
544.292
444.928
494.897
444.273
90.0088
113.043
98.5719
411.779
346.973
430.77
359.262
60.6796
83.7038
42.557
345.723
368.66
325.063
283.313
134.046
183.166
125.805
829.051
798.259
846.818
772.095
145.866
122.61
120.097
777.295
723.401
745.591
692.486
148.518
120.735
120.197
708.425
683.22
674.066
617.185
150.52
119.035
109.05
673.545
623.294
594.803
522.709
125.078
104.828
67.5733
595.554
497.617
488.932
375.856
102.263
62.5405
67.3061
472.368
438.984
360.72
338.887
91.2558
65.6607
61.4377
430.554
357.844
326.17
305.375
44.5571
65.2994
62.9733
321.759
273.809
302.427
284.664
118.434
257.366
135.588
849.724
756.189
766.172
718.215
123.9
124.889
123.723
738.14
701.94
687.811
642.622
123.583
125.366
121.242
681.919
609.608
620.545
545.52
104.834
114.276
91.5471
581.27
497.606
510.361
398.589
63.5649
80.929
54.7462
460.373
342.213
356.068
271.117
52.1333
50.3116
49.7735
322.14
293.584
257.748
251.524
66.8275
51.3822
59.1945
292.988
302.667
257.304
276.293
66.0276
61.3484
58.9141
304.337
295.001
282.889
298.172
1171.68
1253.21
1156.17
1787.21
1554.55
1778.9
1545.84
984.286
1081.18
919.239
1453.34
1262.68
1439.39
1210.16
872.158
886.841
825.328
1205.1
1080.31
1159.77
1050.95
781.421
808.777
757.273
1048.1
950.541
1020.87
923.387
665.14
734.608
642.635
915.403
805.04
883.199
740.207
546.286
604.24
483.587
771.615
699.967
689.307
573.812
520.066
449.186
422.92
685.948
660.625
559.868
566.743
500.558
430.165
438.073
650.569
612.199
569.16
559.503
1144.29
1159.48
1024.71
1778.31
1526.05
1619.36
1388.07
908.892
979.18
875.377
1422.04
1198.29
1317.88
1159.85
820.697
852.655
808.044
1149.67
1046.04
1121.96
1026.66
753.998
793.825
706.689
1017.5
905.339
1001.8
762.243
627.413
668.341
562.909
857.018
692.357
690.828
562.159
475.699
535.234
479.986
637.713
518.534
532.451
489.571
395.839
465.928
388.72
505.894
524.003
480.452
442.718
417.809
359.866
323.407
532.155
541.022
437.076
448.201
957.624
1086.28
933.015
1519.29
1333.3
1549.73
1309.69
847.32
898.848
822.55
1276.31
1141.21
1255.13
1113.16
785.392
796.278
717.939
1105.44
1009.49
1066.08
930.554
690.754
689.834
598.785
981.054
756.907
886.227
746.005
549.33
559.148
446.692
692.334
577.962
697.95
591.48
485.448
429.625
392.806
563.113
533.18
568.714
506.656
390.24
378.286
352.044
516.208
446.408
489.708
449.928
310.824
345.808
313.835
429.114
425.288
436.719
402.295
923.579
1085.32
898.771
1578.42
1305.82
1536.7
1274.23
828.018
845.422
767.956
1250.87
1102.55
1182.92
1019.4
703.715
731.321
634.841
1049.5
899.574
957.131
805.23
567.685
592.337
463.643
851.859
702.789
748.846
586.159
405.004
416.931
330.848
652.114
541.905
541.455
459.901
348.826
316.019
305.586
519.398
474.361
445.363
426.354
347.166
308.566
322.217
465.905
447.225
425.936
426.537
323.531
326.548
332.708
438.805
410.52
426.567
427.109
1647.68
1932.85
1642.41
2258.31
1858.16
2268.84
1867.21
1332.14
1529
1284.75
1735.92
1494.09
1739.08
1464.94
1132.05
1229.94
1108.01
1421.35
1257.04
1399.94
1242.94
991.303
1073.63
961.025
1212.18
1088.07
1195.6
1043.34
839.935
915.257
759.03
1044.64
929.632
984.665
811.839
739.621
707.117
605.888
898.093
834.209
765.993
702.188
692.661
597.326
602.985
814.616
762.375
696.538
686.083
633.234
602.882
583.568
741.262
675.743
678.212
637.457
1621.16
1748.45
1483.6
2231.52
1843.41
2031.15
1715.82
1273.38
1407.83
1235.94
1720.68
1456.57
1628.83
1423.13
1103.39
1193.31
1081.86
1393.48
1238.81
1366.81
1216.74
1068.66
1035.05
1068.62
1116.95
1027.56
1076.54
1114.78
729.302
822.577
807.948
903.658
732.723
837.024
814.246
539.535
493.119
474.644
685.41
633.643
481.169
492.607
560.796
473.408
461.213
635.253
648.816
503.894
533.406
566.063
461.882
478.464
647.902
625.509
543.063
561.332
1433.2
1674.56
1408.39
1948.07
1677.88
1962.46
1646.09
1219.18
1347.53
1184.92
1601.45
1408.01
1567.06
1347.26
1063.91
1131.49
978.814
1351.36
1193.47
1276.8
1078.36
980.789
957.586
1005.15
1066.91
950.252
890.829
1045.34
730.128
569.611
762.467
521.307
717.158
479.181
776.107
529.462
598.253
533.177
560.651
535.375
660.818
595.952
460.765
516.025
473.51
529.477
519.794
579.308
537.154
454.407
459.587
425.95
521.699
542.174
525.599
511.705
1403.21
1686.1
1365.09
1997.53
1632.74
1977.67
1567.53
1168.52
1265.34
1079.07
1548.14
1314.83
1448.68
1208.64
943.472
1010.27
843.834
1239.18
1033.46
1128.48
924.273
731.523
783.478
617.251
969.719
793.49
856.728
693.909
574.755
573.418
495.232
746.817
652.226
657.249
586.112
505.931
480.322
459.613
630.534
583.737
571.673
548.361
472.791
457.893
455.369
572.31
542.484
544.827
536.142
433.222
454.255
451.097
532.615
516.013
533.49
531.065
1915.21
2365.31
1926.79
2681.33
2110.7
2674.86
2129.33
1538.13
1795.27
1514.64
1968.11
1693.47
1986.92
1685.01
1292.49
1446.95
1278.38
1618.08
1424.37
1607.66
1391.13
1115.79
1226.58
1063.97
1365.18
1223.86
1322.44
1132.79
957.616
1003.11
832.377
1179.09
1068.42
1070.87
918.79
861.127
789.876
732.529
1035.13
962.532
885.489
844.048
781.35
726.16
709.448
937.056
859.198
836.597
803.373
684.219
699.145
649.792
827.695
725.829
785.723
712.323
1902.42
2106.48
1779.73
2592.57
2101.73
2354.21
1991.57
1507.42
1690.18
1474.66
1969.16
1680.07
1893.76
1643.3
1273.49
1413.62
1244.46
1601.39
1376.52
1562.02
1320.32
1034.9
1187.45
862.837
1305.45
1096.31
1240.46
979.829
758.448
762.969
568.708
1024.42
849.944
897.358
711.794
667.21
538.455
522.618
815.135
786.106
674.44
644.436
674.788
531.728
563.441
787.421
778.239
653.354
690.629
639.814
573.053
585.717
766.983
709.25
696.43
692.569
1745.6
2041.97
1711.01
2292.29
1966.78
2317.17
1924.75
1459.01
1625.93
1388.41
1873.9
1623.35
1818.4
1524.03
1219.64
1312.9
1100.56
1539.61
1290.9
1431.55
1167.81
839.531
1034.21
853.887
1208.66
958.816
1089.79
906.464
627.079
806.776
704.538
888.008
731.127
863.331
767.768
552.747
678.369
615.716
693.61
646.14
744.186
703.233
546.595
600.005
561.498
648.998
672.844
696.778
678.963
568.021
551.804
540.785
678.563
684.565
674.725
674.989
1694.34
2080.38
1620.33
2361.8
1898.53
2391.7
1799.15
1351.55
1496.03
1242.2
1783.68
1476.67
1657.16
1364.29
1054.08
1159.13
945.698
1383.29
1124.16
1274.22
1031.66
810.258
876.819
719.35
1047.99
875.275
961.739
824.712
674.816
684.635
615.746
836.745
756.974
797.054
731.799
608.26
601.247
578.226
738.655
711.334
718.35
698.217
568.231
574.265
564.944
705.319
687.401
695.788
685.433
544.443
561.838
558.062
681.659
678.737
682.596
682.224
2223.36
2831.52
2248.93
3970.19
3158.03
4005.73
3390.91
1789.26
2101.54
1789.12
3023.48
2796.96
3225.31
2911.69
1511.47
1707.44
1464.34
2781.77
2517.37
2835.72
2442.45
1300.62
1386.96
1184.74
2472.62
2345.96
2333.7
2098.26
1144.3
1122.68
976.155
2348.71
2210.58
2044.1
1923.36
1033.84
945.85
917.038
2201.7
2138.89
1931.27
2105.19
922.855
911.594
874.543
2149.89
2059.33
2120.41
2101.22
768.123
854.719
765.886
2059.18
1862.78
2095.75
2002.28
2219.49
2484.91
2111.24
3747.12
3354.46
3450.94
3250.93
1784.65
2009.84
1743.82
3215.17
2924.36
3152.75
2867.46
1442.7
1651.97
1370.25
2805.82
2378.73
2705.02
2238.2
1140.53
1280
1019.71
2259.94
1994.99
2100.76
1789.3
903.497
940.058
759.6
1927
1782.49
1702.11
1505.71
856.93
724.254
708.464
1789.79
2004.33
1512.32
1771.4
852.375
727.97
773.928
2080.77
2089.73
1926.72
2051.65
765.974
777.926
760.689
2084.67
1978.68
2053.66
1961.72
2088.36
2460.19
2043.41
3376.23
3224.21
3469.96
3126.57
1721.49
1928.28
1612.05
3126.1
2832.06
2991.76
2670.34
1338.5
1511.49
1218.6
2666.87
2191.97
2535.64
2084.61
996.909
1133.68
946.165
2052.78
1753.58
1965.4
1762.79
770.07
903.712
809.556
1678.92
1506.9
1724.84
1647.59
705.292
788.332
766.927
1511.3
1764.57
1665.55
1910.54
757.16
768.764
760.984
1918.24
2040.92
1998.8
2015.66
755.929
757.894
751.345
2044.33
1973.65
2019.01
1950.01
2013.24
2555.77
1899.28
3483.92
3044.35
3484.77
2714.65
1560.79
1750.06
1444.74
2901.08
2579.59
2567.08
2338.46
1179.27
1351.46
1097.73
2494.57
2077.35
2290.14
2005.4
923.52
1026.88
895.336
1969.55
1803.28
1962.68
1904.48
809.092
869.079
804.333
1777.94
1726.64
1921.99
1849.36
782.715
791.733
773.422
1751.58
1980.48
1870.75
1869.45
768.971
771.822
761.401
2009.43
2005.76
1914.07
1876.93
755.563
758.802
750.538
2013.49
1997.44
1912.94
1800.85
992.515
990.365
884.005
966.832
961.815
1025.7
900.979
1051.34
1067.27
991.522
1091.94
1016.54
1110.73
973.243
896.471
773.196
852.545
564.62
903.983
721.735
752.002
1104.43
1157.26
1141.99
1187.88
1112.15
1154.46
1133.22
1023.34
992.15
1082.46
957.236
1056.38
926.166
1052.33
1083.16
1120.11
1176.63
1077.03
1146.18
991.911
1111.48
921.952
583.773
846.38
928.799
749.674
765.211
984.205
649.764
759.772
596.66
705.405
660.417
769.259
579.888
507.554
678.906
556.901
466.573
596.717
606.742
388.053
443.218
510.064
527.973
424.611
541.645
437.736
372.2
741.469
923.185
868.71
861.578
851.851
832.231
769.975
658.553
717.463
797.879
620.94
781.433
589.498
687.005
525.447
476.085
730.493
592.748
628.115
400.135
636.995
458.434
400.057
522.484
548.894
444.258
375.925
568.776
900.492
820.782
814.647
582.8
878.882
700.182
830.822
950.787
965.8
879.005
964.593
917.994
1004.58
909.443
895.1
816.509
827.84
801.304
867.681
840.012
854.807
1007.85
1098.8
1024.91
1103.06
912.09
1077.91
1029.76
924.056
587.541
861.536
873.284
707.333
850.372
947.753
976.897
992.93
1061.62
953.248
1036.4
933.79
997.085
916.495
821.682
874.275
894.159
858.612
876.535
933.432
696.938
535.042
661.093
474.219
684.315
476.076
671.56
745.547
767.19
684.176
752.275
724.049
789.169
709.432
710.503
660.124
649.859
647.559
689.361
680.747
675.573
743.925
521.645
584.405
811.754
476.836
791.603
762.24
708.604
477.434
557.405
692.078
472.981
680.258
724.512
762.582
772.934
822.324
749.531
806.883
730.885
777.595
727.03
668.476
711.242
715.941
697.437
697.094
741.349
303.393
382.831
297.992
774.36
827.811
700.662
785.854
304.673
280.994
281.386
789.605
712.6
782.077
770.008
258.325
280.684
283.651
711.874
685.193
734.963
714.648
240.277
280.825
272.983
657.922
623.746
684.698
656.311
210.082
255.917
242.134
598.927
558.89
609.484
566.339
178.208
216.387
195.066
523.441
497.774
509.913
471.24
155.69
179.98
175.174
469.911
454.766
442.513
437.086
123.451
171.448
144.441
433.236
459.812
424.37
441.945
374.815
357.878
321.242
679.287
705.798
662.013
720.785
421.507
243.376
269.31
404.285
433.496
390.922
215.633
488.753
179.168
172.063
475.261
478.091
492.23
171.202
474.856
186.298
174.224
484.704
489.236
478.094
175.491
452.556
179.671
174.038
489.57
481.74
462.537
171.712
407.899
159.653
160.731
446.549
429.708
419.192
157.786
341.736
133.871
142.125
383.697
359.094
362.142
134.766
252.433
96.0934
106.555
294.198
283.275
269.519
98.9032
252.643
93.6071
92.0719
284.669
287.158
245.355
93.2394
136.736
156.689
131.239
390.274
410.275
362.146
384.47
298.706
298.815
286.815
713.959
864.744
694.358
867.688
461.512
184.646
204.244
384.161
453.739
381.906
178.79
461.929
158.258
160.926
479.848
462.389
477.47
159.125
432.35
157.443
156.721
432.219
431.263
432.745
158.857
436.671
164.98
167.838
430.805
430.429
436.932
169.166
413.614
164.106
167.319
421.5
413.401
423.362
164.686
348.258
141.005
149.168
366.702
347.374
365.599
142.845
277.79
109.114
116.215
284.929
265.484
289.006
112.608
189.642
74.9843
83.6042
206.223
202.488
206.235
72.4633
119.233
110.848
99.4555
320.208
357.954
272.287
317.324
277.561
332.046
291.111
688.932
746.854
728.125
811.279
327.417
142.088
174.118
305.804
346.358
298.202
136.185
365.134
143.118
122.639
402.312
407.021
364.978
124.665
352.956
145.88
125.015
398.557
397.114
353.802
125.105
364.821
150.989
130.888
400.348
400.204
363.197
133.141
330.923
145.602
131.161
384.315
369.823
348.524
126.794
223.415
106.631
84.8375
290.486
276.647
227.786
80.1545
241.773
101.762
85.783
268.715
264.435
242.142
86.0307
156.749
64.2888
65.949
189.794
160.373
174.853
60.413
88.7081
113.898
83.3058
239.782
282.397
242.41
259.393
293.632
379.47
336.51
740.17
828.824
654.414
629.337
301.821
144.98
193.033
316.227
324.628
307.475
146.709
345.795
117.56
113.033
340.823
350.24
323.11
114.73
361.554
126.553
126.238
366.214
363.83
365.545
126.21
302.654
114.279
115.478
328.039
314.414
317.951
109.936
213.975
89.8464
91.2606
268.092
238.723
246.162
79.4645
128.468
54.184
47.7653
165.528
158.294
133.794
45.2072
155.852
56.9771
49.9063
154.744
160.902
143.322
56.0466
191.944
74.8977
72.1141
185.198
189.609
186.333
75.6137
93.2795
125.367
102.933
260.726
269.739
270.401
282.486
234.291
332.97
236.645
574.131
610.762
580.031
599.62
207.896
232.521
237.309
579.37
552.828
567.405
485.799
185.987
219.411
189.775
515.569
483.525
453.569
413.511
135.287
158.642
141.598
414.834
339.127
336.641
276.946
91.0277
118.742
97.5186
276.775
234.516
242.933
210.034
75.3905
85.5199
79.3413
206.494