/*--------------------------------*- C++ -*----------------------------------*\
  =========                 |
  \\      /  F ield         | OpenFOAM: The Open Source CFD Toolbox
   \\    /   O peration     | Website:  https://openfoam.org
    \\  /    A nd           | Version:  10
     \\/     M anipulation  |
\*---------------------------------------------------------------------------*/
FoamFile
{
    format      ascii;
    class       volScalarField;
    location    "2.6";
    object      k_0;
}
// * * * * * * * * * * * * * * * * * * * * * * * * * * * * * * * * * * * * * //

dimensions      [0 2 -2 0 0 0 0];

internalField   nonuniform List<scalar> 
12920
(
52.8721
759.008
740.906
559.992
529.225
474.741
387.208
344.81
309.022
284.746
253.822
218.822
179.277
153.629
144.907
137.479
130.98
116.977
107.943
85.1548
1865.66
2851.41
2308.45
1016.61
622.614
493.094
400.758
365.696
312.931
267.246
228.16
209.481
204.992
205.966
206.634
203.677
189.328
166.337
143.85
112.418
486.165
1287.33
1244.98
1062.84
782.481
543.336
366.036
282.181
231.888
210.831
198.893
194.578
190.824
187.099
184.526
180.028
169.843
145.89
127.434
109.166
4102.47
2504.97
1512.16
942.204
641.86
462.85
344.772
273.883
233.477
213.136
198.496
188.383
177.229
168.341
159.123
144.776
132.059
115.416
105.716
93.7918
6733.99
4077.07
1637.52
953.701
638.271
474.869
403.831
343.599
304.379
274.257
250.362
232.676
218.304
208.722
193.18
165.688
140.643
112.867
98.8853
76.699
10798.4
5086.03
2061.87
1032.83
700.555
539.669
496.832
405.122
348.699
301.686
272.071
248.715
235.404
224.55
204.754
173.264
143.855
112.855
93.3983
56.5777
4446.97
4899.91
2729.08
1246.96
793.852
694.709
607.648
489.224
407.245
341.401
309.241
275.803
252.232
241.155
224.952
185.49
146.508
110.581
75.2728
35.9826
2241.8
3843.16
2620.77
1103.04
678.356
629.939
430.005
299.825
281.419
251.414
228.77
192.728
165.737
150.433
257.173
206.708
151.947
101.577
58.0461
31.602
509.218
2780.17
2327.9
1248.32
707.232
395.968
319.015
178.598
186.203
183.13
165.56
142.788
101.737
92.8484
172.88
223.58
157.141
97.7901
55.7431
41.1781
259.284
1515.43
1204.03
691.976
561.095
314.911
213.162
160.909
155.637
163.503
165.735
148.001
114.945
80.1553
134.043
209.197
158.027
101.306
68.5314
69.8033
1849.79
2128.54
1591.53
822.305
620.52
319.754
174.14
138.237
145.832
150.405
149.099
113.728
102.535
74.8257
101.133
173.64
156.472
121.482
108.979
110.479
3992.26
3270.57
1984.19
916.087
634.038
309.145
184.431
116.851
126.362
118.91
99.4123
57.2664
53.5545
71.5547
128.1
167.192
152.197
139.283
130.961
120.28
9070.54
5475.53
2742.19
1311.82
766.013
569.881
313.144
209.64
200.663
160.48
111.588
78.5854
75.4992
86.1222
148.988
144.081
139.338
133.716
126.174
111.327
14229.3
3958.83
2134.14
1338.6
825.966
582.293
426.017
348.885
282.533
216.717
164.169
128.901
110.403
98.8705
94.4114
94.8981
98.7137
100.428
98.662
88.4055
3971.12
3558.12
2411.02
1813.7
1157.07
748.955
455.727
335.682
260.072
207.271
160.198
128.869
108.183
94.6428
86.1222
79.6735
77.0949
76.6168
75.5768
70.0016
2521.68
3190.27
2228.86
1861.8
1356.19
1031.93
606.038
364.594
236.519
182.732
149.429
130.153
114.083
103.176
93.1114
84.3272
79.0831
73.6239
71.3249
66.35
6936.57
3257.4
1702.76
1453.68
1283.98
1096.47
764.689
450.474
251.421
179.729
153.353
140.306
127.282
115.841
105.521
93.6165
85.1831
73.1661
67.3244
57.6811
3951.53
1083.72
720.205
697.762
711.23
687.441
556.176
379.053
258.852
205.667
175.764
160.905
146.275
134.142
124.729
115.266
110.617
99.9829
91.7475
72.5216
5354.68
2281.2
862.276
580.934
493.594
462.801
412.308
352.305
285.353
234.957
191.379
167.01
152.378
141.18
130.928
115.515
104.205
91.8039
85.7763
71.1347
2032.75
1080.24
609.106
575.513
515.406
400.302
317.133
271.832
232.865
211.871
197.914
179.235
157.578
138.248
125.62
111.742
94.9502
72.3564
56.7651
43.2427
2080.93
1376.94
1049.97
1034.22
1077.16
1023.03
857.742
745.904
661.08
569.022
472.636
400.411
361.572
342.815
327.549
306.627
275.091
243.092
208.634
160.721
6631.4
5064.15
3055.31
1924.43
1454.33
1206.36
979.6
898.701
778.394
712.407
625.869
590.43
581.168
590.535
602.299
597.568
564.038
509.204
451.946
376.689
4005.45
4947.69
3280.94
2438
1799
1292.84
928.622
745.224
616.59
573.089
548.953
553.681
556.933
559.581
553.828
530.29
491.351
434.081
392.509
345.667
13156.4
6697.8
3596.08
2255.96
1588.83
1150.65
886.241
722.724
631.4
584.429
544.274
523.523
494.132
477.036
459.401
430.26
394.25
344.598
314.505
280.585
17697.2
5041.45
2495.55
1986.19
1469.74
1221.18
1029.51
883.617
780.499
715.426
657.511
622.559
584.018
557.271
525.183
464.598
393.231
317.488
275.678
223.013
16879.7
8876.19
3684.18
2070.27
1517.08
1356.87
1250.41
1019.41
873.614
764.345
696.18
647.01
610.087
570.47
521.467
453.347
380.468
297.761
229.241
136.379
18596.5
14333.5
5814.08
3055.33
1884.77
1812.62
1562.05
1215.57
969.399
816.449
730.163
673.735
627.542
588.906
528.635
450.376
361.671
252.942
148.541
70.0086
9821.27
8530.91
4448.32
2431.5
1704.84
1617.04
1352.28
1119.81
964.503
845.886
753.522
661.876
603.507
559.368
539.106
448.503
336.292
206.99
117.135
75.9052
10518.2
7126.93
4088.18
2754.65
1502.32
1386.39
1292.17
1101.48
947.283
851.905
755.046
632.282
530.364
519.873
498.246
445.506
324.319
195.413
129.34
122.62
1156.88
5151.14
2867.82
1780.59
1516.2
1307.3
1279.62
1066.58
876.774
806.779
728.531
587.278
440.393
399.659
429.637
425.951
332.662
232.231
210.203
232.282
5820.45
5329.33
3546.82
1904.23
1602.25
1253.46
1056.42
924.839
827.87
771.06
653.189
524.627
473.365
356.608
329.704
384.785
363.324
328.978
328.488
341.255
3578
6720.12
4487.88
2113.2
1662.18
1268.29
1108.22
895.883
798.203
669.423
522.253
382.881
345.945
346.684
334.898
370.729
372.441
376.107
378.827
373.146
12988.6
10157.4
5820.08
2904.11
1961.26
1453.23
1111.85
882.778
733.363
563.04
398.326
319.933
310.335
319.845
344.709
353.416
358.473
359.947
352.616
326.623
17685.5
8180.42
4691.68
2981.78
1949.03
1476.07
1099.05
888.007
711.043
539.621
418.249
339.478
298.866
270.758
261.977
264.893
274.855
275.799
268.643
247.3
8594.86
6905.7
4976.04
3662.41
2397.5
1693.42
1059.53
836.155
650.026
529.679
412.926
342.413
292.304
259.499
239.843
224.617
217.331
216.997
215.46
205.652
9316.1
7484.7
5195.79
3813.94
2579.71
2020.31
1159.69
788.645
561.974
474.471
392.457
345.856
303.732
276.345
250.439
231.901
220.066
208.547
203.846
192.724
8047.63
3667.13
3769.02
3213.96
2509.39
2216.09
1324.02
783.682
532.872
462.749
399.514
360.912
323.936
295.56
269.354
243.409
226.421
200.734
186.897
161.997
5624.46
2576.59
1892.72
1650.66
1422.67
1361.15
1062.28
857.435
639.444
544.716
462.656
419.487
376.468
344.261
316.495
290.434
278.415
256.682
241.304
201.221
9102.59
4261.67
2086.61
1537.19
1294.18
1192.21
996.028
883.905
716.262
621.91
523.897
476.451
427.828
389.881
348.832
301.569
264.091
232.118
217.538
186.003
851.784
814.619
761.35
891.772
994.248
957.038
809.114
685.222
576.984
511.992
456.095
397.38
338.243
294.997
262.524
220.996
176.316
132.336
105.825
82.1004
3919.42
1381.91
956.558
1012.44
1194.55
1168.32
990.504
809.915
675.884
552.43
457.771
405.441
380.091
359.082
331.907
297.439
263.473
224.594
200.836
175.007
18135.2
8003.85
4003.19
2581.59
1859.3
1523.96
1228.71
1117.95
981.004
934.492
879.059
870.355
856.31
845.384
820.443
777.877
724.82
662.451
611.965
547.071
39066
13580.1
5171.35
3139.03
2278.45
1631.29
1278.44
1077.46
954.119
908.958
868.216
852.509
818.358
785.408
744.106
694.195
645.469
587.856
553.389
504.555
31733.5
11712.9
5148.11
2988.14
2149.93
1526.91
1248.99
1032.64
935.196
868.839
817.092
778.294
729.494
690.475
647.653
598.425
547.874
491.676
459.77
415.814
21551.8
7795.5
4362.57
2872.1
2234.75
1697.85
1432.22
1193.42
1060.59
963.77
888.158
829.814
768.673
716.738
656.647
583.709
510.623
433.812
389.069
329.946
12363.9
9548.91
4451.3
2746.77
2285.77
1839.25
1633.7
1301.52
1124.83
981.786
898.625
826.3
763.393
695.159
624.188
544.162
463.923
373.944
307.756
214.563
24966.8
10464.6
5424.82
3456.96
2653.94
2369.4
1893.52
1461.58
1198.32
1021.57
921.871
846.78
774.212
699.624
609.642
516.229
416.513
302.845
200.694
120.793
7016.19
9252.63
5208.75
3134.54
2524.6
2188.04
1869.2
1500.87
1248.84
1077.17
948.031
847.898
771.979
701.261
602.474
487.027
367.737
249.305
169.671
132.184
7475.99
7742.26
4477.69
3146.58
2381.17
2126.88
1947.04
1537.77
1267.8
1096.12
952.016
805.949
724.794
679.548
601.288
475.542
352.023
251.803
207.138
208.79
8682.65
7035.16
3913.42
2599.61
2228.18
1968.64
1924.04
1507.16
1219.66
1070.13
880.823
639.431
536.432
567.719
554.092
483.295
390.03
343.507
345.74
375.628
6168.34
6405.42
4361.13
2642.98
2251.08
1853.23
1648.51
1369.47
1178.02
1033.23
618.504
532.075
514.719
449.433
467.801
491.779
477.273
476.983
489.74
514.111
26474.2
9524.84
5260.92
2903.88
2280.2
1859.24
1708.86
1340.03
1107.88
889.629
679.137
551.771
496.484
463.117
448.181
497.936
519.04
538.394
549.571
555.459
14359.6
12811.5
6923.67
3757.86
2639.27
1945.8
1638.62
1243.8
974.143
726.288
551.666
472.999
450.167
447.241
463.415
482.642
502.313
515.092
514.909
506.049
12072.8
7797.67
5510.41
3569.54
2560.03
1857.51
1461.56
1128.24
884.309
672.381
543.925
457.934
415.723
387.715
384.128
389.485
406.524
415.422
415.483
409.432
4842.24
7191.55
5926.02
3999.91
2706.14
1875.79
1362.77
1056.2
823.775
656.147
529.799
449.421
396.361
360.579
341.236
331.234
330.897
335.003
337.882
335.905
7758.72
9936.43
6732.17
4291.11
2807.96
2034.75
1313.65
987.892
758.307
624.744
521.722
455.625
403.467
365.561
336.363
315.505
303.141
292.105
287.066
274.861
7020.37
5781.71
4580.67
3618.45
2703.29
2132.99
1364.29
1017.23
762.233
637.842
539.71
479.525
426.985
385.96
350.244
317.096
295.201
266.782
250.395
221.781
5128.95
4850.18
3541.32
2815.25
2193.46
1967.58
1471.73
1165.34
870.672
726.381
613.397
550.058
491.711
447.973
409.537
375.257
354.523
323.586
304.999
265.827
10274.9
6535.01
3197.27
2315.94
1945.58
1735.89
1433.91
1236.23
988.262
841.497
693.347
613.661
539.078
483.176
423.883
366.094
329.223
298.344
282.787
248.701
1528.35
1192.6
901.606
884.5
1066.46
1095.04
1018.65
846.248
698.832
594.986
512.15
439.99
379.439
331.118
288.536
236.113
187.897
144.079
122.922
98.9558
4636.46
1377.15
1402.51
1474.13
1430.92
1220.57
933.612
723.382
575.871
462.64
399.922
358.93
332.011
299.964
274.014
246.58
228.856
209.642
200.601
181.234
9891.56
8038.04
4751.75
2962.68
2144.19
1685.92
1404.01
1272.22
1167.11
1132.95
1097.51
1083.55
1053.01
1007.57
959.29
902.421
856.773
801.578
758.698
703.761
24356.4
10726.1
6059.57
3624.24
2687.08
1893.37
1587.47
1354.86
1254.79
1187.09
1137.04
1083.82
1021.62
952.656
891.788
827.078
777.838
724.791
693.686
647.915
25758.4
12296.8
6101.2
3596.01
2615.75
1834.76
1562.99
1296.83
1211.27
1112.42
1058.02
989.215
923.733
853.353
790.512
724.784
670.044
617.146
585.287
541.391
26712.9
10323.3
5682.5
3502.17
2811.93
2033.41
1765.8
1446.39
1314.21
1179.67
1099.52
1009.63
930.729
846.303
762.116
673.872
598.653
528.392
485.82
432.699
12796.2
10287.7
5240.29
3376.6
2873.95
2190.65
1943.81
1528.08
1344.43
1163.74
1076.58
975.21
890.214
794.967
700.124
604.065
515.652
431.985
371.855
300.051
18542.2
9769.63
6000.5
3837.09
3323.81
2707.64
2173.36
1655.81
1398.06
1186.33
1088.1
982.854
884.135
772.55
653.784
541.125
433.482
333.799
254.88
205.111
16208.1
12128.5
6166.25
3894.24
3213.12
2638.77
2181.08
1730.98
1431.39
1228.5
1085.66
976.356
877.995
772.938
618.284
483.863
372.149
285.244
235.482
215.229
9562.8
7832.46
5454.35
3751.63
3081.61
2632.8
2363.98
1786.92
1462.5
1244.3
1070.23
925.909
839.539
757.061
631.776
479.593
382.176
324.758
306.741
312.4
11406.8
8350.79
4956.22
3443.75
2788.27
2450.13
2323.53
1774.47
1440.66
1220.51
958.348
711.09
669.141
672.224
614.466
536.145
493.162
487.437
502.842
526.748
6612.88
7579
5050.52
3347.4
2760.69
2275.31
2027.51
1664.94
1396.56
1159.52
756.737
599.354
547.656
551.752
577.581
609.885
616.221
639.942
670.492
690.813
16871.1
10663.1
5974.6
3626.23
2759.8
2288.65
2080.29
1602.14
1269.87
985.296
764.401
653.318
597.151
559.419
569.648
642.962
675.858
705.996
725.247
734.805
12224.9
12406.5
7936.3
4457.87
3203.03
2360.22
1958.53
1441.42
1105.31
822.615
670.521
593.757
569.052
560.01
589.568
614.681
645.756
664.716
670.905
669.745
13008.1
8123.07
6208.15
4103.75
3043.33
2153.03
1720.27
1294.01
1006.39
776.616
652.682
564.312
526.381
501.284
502.787
512.556
535.34
550.007
558.595
562.811
6665.01
8462.46
6745.45
4276.24
2971.73
2044.22
1624.17
1217.31
961.718
758.657
636.545
545.486
494.292
457.11
443.468
439.224
442.747
454.004
463.33
470.436
18939.4
15083.3
7299.47
4380.09
2951.22
2029.59
1492.02
1125.51
910.394
741.207
638.975
552.312
497.877
449.691
422.344
401.238
391.179
382.722
378.522
370.455
15386.6
8620.44
6064.7
3988.38
2910.63
2074.6
1514.02
1149.44
926.292
765.871
664.432
580.369
521.188
465.042
425.186
388.369
364.984
338.745
321.453
300.694
8890.93
6411.42
4700.49
3412.4
2817.02
2219.97
1720.62
1312.12
1029.77
855.768
741.427
657.385
594.545
538.883
498.116
459.139
434.92
403.287
383.616
354.371
4796.5
7049.48
4217.85
2810.48
2443.95
2037.01
1721.66
1423.91
1150.08
952.535
788.294
687.336
605.495
538.9
479.692
431.965
406.751
383.382
369.804
342.419
1800.72
1488.81
1092.13
1053.56
1126.24
1108.28
982.97
793.936
653.426
545.466
467.623
398.916
345.91
295.297
249.906
201.766
164.158
131.556
118.095
99.385
3869.33
2805.3
2664.61
2040.63
1458.93
1023.7
730.417
538.414
418.111
355.568
320.203
292.437
269.997
246.476
230.694
213.159
200.606
182.854
172.917
151.454
5632.32
7321.63
7051.35
3978.92
3132.09
2088.27
1972.63
1648.7
1665.6
1551.2
1560.76
1473.37
1433.3
1322.92
1268.6
1174.1
1127.15
1056.47
1014.49
970.315
23669.5
11407.3
8092.97
4427.63
3736.05
2376.99
2314.41
1880.6
1878.47
1690.88
1658.45
1506.93
1432.61
1284.3
1214.67
1113.56
1066.4
1004.09
973.097
927.157
62610.5
17862.5
8316.71
4514.65
3714.09
2391.66
2278.97
1794.12
1782.66
1573.54
1540.6
1388.42
1317.38
1172.75
1096.61
993.29
937.53
878.124
842.696
797.874
21491.4
13670.6
7338.42
4413.99
3917.01
2546.63
2492.06
1955.08
1889.41
1637.85
1577.07
1398.72
1305.88
1140.79
1025.97
898.048
819.113
745.883
699.019
653.238
36494.7
11506.4
6871.92
4361.73
4062.29
2832.92
2689.62
2029.38
1865.63
1570.3
1498.09
1325.21
1217.1
1057.52
919.348
781.178
677.955
596.826
537.08
501.794
23028.3
13370.7
7754.66
4609.27
4557.29
3290.96
2900.3
2138.57
1904.56
1585.44
1507.17
1325.69
1195.55
1004.86
823.277
662.566
545.485
467.924
430.56
417.992
41484.7
21358.8
9965.69
5126.72
4625.35
3485.35
2639.91
2040.4
1729.6
1466.93
1326.25
1182.87
1062.83
905.499
775.51
594.665
497.673
447.504
425.405
418.428
12964.3
9058.05
7057.76
4688.82
4191
3283.09
2851.75
2068.21
1711.24
1444.47
1253.89
1107.75
1005.32
886.296
736.551
645.236
570.22
543.201
535.855
531.949
12319.7
9964.28
6641.99
4472.23
3786.8
3010.15
2725.81
2076.39
1694.63
1358.67
1067.29
871.751
863.005
837.2
760.885
791.996
776.143
792.055
809.356
811.159
20366.8
11516.5
6660.15
4300.82
3727.72
2794.18
2421.23
1985.2
1621.99
1243.37
926.073
733.902
718.909
761.501
784.859
918.394
932.464
979.27
1009.02
1020.49
35533.3
13974.4
7602.15
4530.44
3651.05
2843.31
2496.76
1883.32
1456.96
1094.29
885.31
792.862
780.928
763.415
800.888
973.925
994.381
1037.66
1057.32
1061.96
20068.8
14971.3
10051.4
5509.6
4440.12
3144.95
2363.23
1699.97
1316.91
1001.72
874.61
792.389
775.257
760.785
894.493
906.84
940.924
960.866
969.82
971.526
7183.76
8737.7
7792.78
4785.48
4043.81
2670.95
2292.93
1694.12
1339.6
1060.41
935.949
826.821
794.928
763.089
771.078
781.05
804.161
821.511
836.644
853.158
18384.8
9897.75
8323.69
4990.63
3882.7
2544.2
2234.66
1579.5
1319.26
1024.56
911.581
783.4
736.169
688.528
681.553
677.554
685.597
703.537
718.693
739.071
18210.2
11600
8396.96
4691.77
3683.59
2376.26
1998.54
1445.44
1278.69
1009.98
928.184
784.299
735.681
659.909
639.88
611.669
606.464
596.11
593.071
592.476
17171.4
9708.64
8146.08
4674.95
3776.66
2418.78
2033.73
1447.77
1308.84
1039.37
959.833
806.767
749.704
653.942
616.362
567.165
548.049
522.461
509.082
501.121
15278.7
8496.77
7040.64
4102.72
3922.59
2661.87
2274.91
1597.14
1407.07
1116.87
1039.72
888.878
838.599
746.912
713.544
659.314
638.737
605.689
589.914
573.583
1997.55
6957.69
6446.33
3715.02
3493.65
2493.78
2291.95
1700.28
1486.52
1120.06
992.343
818.159
748.755
668.071
637.065
609.388
604.548
593.759
584.032
576.881
1597.45
1521.43
1239.54
1189.35
1092.68
930.529
778.96
614.089
489.489
382.641
313.683
251.893
209.071
171.513
148.476
127.233
115.229
103.197
98.1571
87.3902
937.075
1056.75
711.398
1191.07
1012.8
1155.98
771.127
696.177
628.138
524.899
939.772
733.37
663.607
501.4
696.154
927.955
774.717
1136.96
728.946
1013.73
837.098
529.622
726.021
621.918
644.055
561.327
789.284
686.332
184.75
225.666
172.969
949.39
988.752
959.016
978.4
187.747
164.436
154.678
939.635
854.952
916.737
789.157
186.282
154.837
159.786
830.095
776.881
765.316
723.657
172.228
160.981
161.603
761.53
701.379
711.963
675.063
149.888
160.806
152.235
679.78
599.473
657.822
583.82
112.764
144.083
120.059
570.721
481.504
550.692
442.333
92.6982
111.005
86.3609
465.181
456.764
407.404
365.334
82.7733
80.9395
64.8569
458.16
454.599
370.184
389.33
167.458
197.585
156.78
1026.05
968.604
929.127
867.271
155.431
157.256
158.093
907.747
780.825
833.184
754.867
162.534
158.804
164.898
757.312
719.99
738.166
710.233
166.237
164.854
161.681
710.43
675.704
700.196
642.942
154.814
158.243
138.444
657.253
576.4
613.88
520.373
122.553
130.877
116.952
543.252
443.224
494.869
444.394
89.0322
112.883
97.4157
409.806
346.875
430.73
356.838
61.0402
82.2868
42.6181
346.22
369.302
322.984
283.484
134.105
181.679
125.582
828.417
798.116
845.98
772.461
145.937
122.37
120.015
777.266
723.791
745.805
692.636
148.916
120.614
120.06
709.064
684.123
674.025
616.785
150.701
118.868
108.803
674.327
623.21
594.255
521.584
124.401
104.385
66.8827
595.061
496.993
487.123
375.099
102.487
62.3816
67.2885
472.259
439.495
360.717
338.659
90.025
65.3347
61.431
430.728
355.277
325.752
305.564
44.7149
65.6707
63.1038
319.668
273.621
302.646
284.271
118.379
256.163
135.534
848.204
757.032
765.637
717.628
124.102
125.137
124.333
738.896
702.222
687.427
642.977
123.354
125.963
121.403
681.875
608.917
620.603
544.975
104.553
114.286
91.1393
580.441
496.332
509.549
396.91
62.9524
80.3967
54.3708
458.38
341.238
354.245
270.339
52.1295
50.1309
49.9541
321.528
293.742
257.44
252.017
67.1575
51.5517
59.423
293.334
303.308
258.044
277.062
66.2017
61.5861
59.4262
304.814
294.777
283.623
298.561
1171.73
1255.41
1153.04
1790.45
1553.37
1778.85
1541.45
984.101
1077.76
918.259
1451.69
1261.75
1435.34
1208.66
872.445
886.4
825.636
1204.24
1080.24
1158.8
1050.69
780.997
809.129
757.322
1048.08
949.797
1020.63
922.658
663.925
734.41
641.357
914.468
803.927
882.178
738.198
545.778
602.665
481.459
770.683
700.108
687.226
573.144
521.033
447.556
423.982
686.455
661.096
560.237
567.95
500.543
431.509
438.681
650.89
611.876
570.048
559.678
1141.12
1159
1023.31
1778.09
1521.83
1619.27
1385.98
907.856
977.952
875.396
1418.11
1196.81
1316.17
1159.48
821.183
853.057
808.814
1148.76
1045.92
1121.91
1026.44
754.124
794.479
706.224
1017.34
904.347
1001.24
759.522
626.319
667.762
562.609
855.817
690.226
689.016
561.975
473.878
535.157
480.066
635.492
517.606
532.111
489.439
396.322
465.709
386.689
506.026
525.408
479.924
442.268
418.468
358.335
323.918
533.274
541.368
437.079
449.052
957.097
1084.66
933.246
1517.64
1332.11
1548.87
1309.49
847.638
899.049
822.557
1275.45
1141.15
1254.98
1112.59
786.067
796.114
717.366
1105.53
1009.19
1065.36
929.37
690.266
689.116
597.384
980.283
754.698
884.88
744.186
548.945
557.226
446.082
690.97
578.341
696.175
590.893
485.726
429.483
392.434
563.689
532.854
568.165
506.17
388.04
377.891
352.137
515.377
445.338
489.382
449.743
310.876
345.859
313.497
428.453
425.785
436.452
402.206
924.117
1084.3
898.269
1577.61
1305.52
1536.48
1273.16
828.051
844.902
768.237
1250.75
1101.82
1181.52
1018.65
702.882
731.193
634.267
1048.6
898.19
956.054
803.973
566.114
591.38
461.922
850.348
700.738
747.25
584.299
404.083
415.154
330.207
650.101
541.145
539.848
459.515
348.913
315.768
306.065
518.794
474.363
445.24
426.812
347.663
309.255
322.971
466.092
447.392
426.484
427.134
323.334
327.26
333.134
438.855
410.49
427.17
427.463
1646.28
1932.25
1637.96
2259.57
1856.59
2267.66
1863.13
1331.06
1524.96
1283.21
1734.33
1493.06
1735.66
1463.74
1131.87
1228.9
1107.59
1420.38
1256.86
1399.09
1242.32
990.461
1073.2
960.025
1211.95
1087.28
1194.88
1041.85
838.92
913.949
756.902
1043.63
929.082
982.854
810.017
739.818
705.072
605.777
897.798
834.353
764.668
702.7
692.923
598.012
603.929
814.717
762.116
697.27
686.524
632.837
603.637
583.619
740.88
674.921
678.446
637.148
1616.86
1747.83
1481.5
2230.64
1839.49
2030.37
1714.17
1271.88
1406.1
1235.47
1717.43
1455.43
1627.56
1422.69
1103.08
1193.12
1081.37
1392.67
1238.19
1366.38
1216.36
1066.82
1034.29
1068.17
1116.38
1026.09
1075.54
1114.15
726.305
820.601
805.682
901.577
730.494
834.625
811.185
539.36
492.812
474.696
683.76
634.344
480.956
493.277
562.059
473.236
461.285
636.215
649.571
504.592
534.197
566.331
462.162
479.335
648.485
625.316
543.893
561.928
1431.97
1673.39
1408.08
1946.27
1677.01
1961.55
1645.74
1218.98
1347.26
1184.14
1600.83
1407.65
1566.68
1346.07
1063.21
1130.55
977.406
1350.89
1192.87
1275.4
1076.38
978.794
954.654
1004.48
1064.94
948.386
886.231
1044.37
729.322
568.862
761.205
520.339
716.306
479.121
774.842
529.174
597.614
532.722
561.51
535.224
660.2
595.68
460.093
515.733
473.28
529.338
520.007
579.131
536.991
455.075
459.301
426.018
522.089
542.752
525.504
512.101
1402.73
1686.29
1363.95
1996.38
1632
1977.55
1566
1167.54
1263.81
1078.08
1547.48
1313.34
1446.74
1207.1
941.875
1008.97
842.433
1237.54
1031.4
1126.74
922.482
729.455
781.728
615.495
967.584
791.67
854.783
692.534
574.034
571.934
494.94
745.371
651.71
656.207
586.019
505.932
480.248
460.067
630.158
583.792
571.782
548.834
472.883
458.427
455.924
572.434
542.544
545.347
536.629
433.293
454.825
451.481
532.691
516.433
534.029
531.567
1913.52
2363.18
1922.8
2675.56
2106.46
2667.44
2122.66
1537.14
1792.08
1513.63
1964.58
1691.29
1981.71
1682.51
1292.34
1446.24
1277.8
1616.03
1423.1
1605.45
1389.4
1115.1
1225.87
1062.51
1363.98
1222.79
1320.85
1131.29
957.258
1001.37
830.877
1177.93
1067.85
1069.36
918.158
861.24
788.914
733.112
1034.63
962.077
885.291
844.478
781.016
726.855
709.793
936.356
858.171
836.869
803.031
683.254
699.281
649.394
826.423
724.215
785.174
711.225
1898.63
2105.47
1778.25
2585.9
2095.5
2348.6
1987.96
1506.47
1689.09
1474.27
1964.25
1677.51
1890.65
1640.91
1272.87
1413.2
1243.91
1599.1
1374.79
1559.67
1318.31
1032.83
1186.52
858.845
1303.89
1094.51
1238.43
977.547
756.475
760.026
567.514
1022.61
849.16
895.429
710.97
667.998
537.773
523.154
814.94
786.912
674.069
645.201
675.495
532.553
564.313
788.13
778.204
654.459
691.313
639.519
573.92
586.291
766.765
708.402
696.985
692.675
1744.86
2040.52
1710.6
2286.7
1963.8
2312.07
1921.64
1458.64
1625.46
1387.13
1871.21
1620.89
1815.39
1520.83
1218.71
1311.41
1098.57
1537.13
1288.74
1428.41
1165.2
836.653
1032.11
852.302
1206.4
957.034
1087.52
905.45
627.004
805.535
703.973
886.58
730.524
862.673
767.669
552.669
677.863
615.551
693.165
646.641
744.192
703.504
546.995
599.914
561.454
649.635
673.412
696.969
679.075
568.603
551.867
541.314
679.113
684.91
674.956
675.625
1693.47
2079.91
1618.49
2355.52
1894.98
2387.07
1795.29
1349.95
1493.87
1240.56
1780.41
1473.36
1653.38
1361.36
1052
1157.29
943.897
1380.11
1121.46
1271.22
1029.21
808.645
874.883
718.201
1045.62
874.255
959.501
823.764
674.436
683.777
615.777
836.116
757.013
796.324
731.721
608.385
601.434
578.746
738.824
711.638
718.403
698.562
568.363
574.819
565.473
705.538
687.565
696.167
685.829
544.984
562.403
558.663
681.903
679.431
683.022
682.977
2216.39
2819.82
2239.17
3954.13
3146.89
3984.39
3364.94
1784.89
2093.43
1783.89
3011.67
2783.05
3201.06
2889.89
1508.06
1702.47
1460.5
2766.87
2504.56
2813.95
2425.35
1297.84
1383.56
1182.2
2459.68
2332.23
2317.39
2082.58
1142.17
1120.31
974.88
2334
2197.39
2028.12
1907.96
1031.85
944.946
916.209
2187.72
2124.81
1915.89
2090.54
920.303
910.449
872.623
2134.98
2045.19
2105.19
2086.12
765.41
852.611
763.411
2044.6
1842.98
2080.53
1982.13
2210.24
2476.09
2104.68
3725.69
3330.56
3439.18
3229.7
1779.25
2003.78
1738.48
3191.31
2901.23
3130.36
2844.04
1438.93
1646.89
1366.39
2783.66
2362.47
2683.76
2223.65
1137.93
1276.63
1017.17
2244.8
1980.4
2087.49
1777.27
902.417
937.896
758.723
1912.32
1768.33
1690.29
1494.88
856.836
723.875
708.96
1775.63
1989.9
1500.93
1757.82
850.791
728.461
773.247
2066.54
2075.19
1914.9
2040.75
763.852
777.078
759.598
2070.39
1957.3
2042.64
1943.41
2082.39
2451.63
2037.26
3364.99
3204.99
3457.45
3108.26
1716.09
1922.31
1606.16
3104.69
2808.93
2972.55
2650.4
1334.58
1505.87
1214.6
2645.81
2177.56
2516.15
2069.45
994.792
1130.4
944.729
2039.7
1742.06
1951.33
1749.9
769.306
902.682
809.144
1667.53
1495.71
1711.76
1634.65
705.497
788.031
766.555
1499.3
1750.42
1652.26
1897.59
756.454
768.028
759.904
1906.42
2030.86
1988.58
2006.39
755.155
756.918
750.955
2034.13
1954.8
2009.89
1934.5
2006.79
2548.17
1893.54
3474.51
3029.62
3481.6
2713.65
1555
1744.51
1440.12
2885.12
2562.49
2562.36
2330.43
1175.21
1346.64
1094.19
2476.86
2062.35
2277.92
1996.06
921.995
1023.63
893.557
1955.26
1790.04
1952.49
1893.8
808.658
867.37
803.383
1764.26
1713.57
1910.29
1839.68
782.11
790.809
772.808
1738.03
1971.09
1860.99
1858.55
767.923
771.132
760.79
1998.8
1996.76
1903.02
1867.36
755.232
758.128
750.572
2004.55
1981.17
1903.2
1786.38
989.395
989.169
881.535
965.018
959.378
1024.17
897.716
1048.05
1066.99
989.744
1090.85
1014.05
1110.03
970.611
888.279
768.816
846.876
559.328
898.317
715.472
745.267
1102.52
1156.57
1140.8
1187.12
1111.01
1153.78
1131.36
1019.95
990.08
1080.72
953.695
1054.67
922.459
1049.19
1079.92
1118.81
1175.48
1073.5
1145.31
989.284
1108.4
913.788
578.392
841.252
922.597
743.173
758.372
978.918
646.887
757.468
594.489
702.798
658.143
766.653
577.324
504.364
676.063
555.972
463.615
594.981
602.505
386.776
442.068
509.758
528.973
426.279
540.897
437.857
371.894
737.889
920.807
866.004
857.936
849.2
828.596
766.316
655.24
714.906
795.205
618.434
778.708
586.809
683.684
521.505
472.661
726.208
590.659
623.137
398.068
633.614
456.781
401.412
520.949
547.829
443.862
375.282
566.356
898.155
816.191
812.868
580.408
876.558
695.259
829.022
949.113
964.505
877.222
962.798
916.577
1003.05
907.461
893.385
814.927
825.944
799.422
866.171
838.352
852.786
1005.81
1097.13
1019.1
1101.27
906.216
1076.32
1027.38
921.763
584.948
855.375
871.288
702.124
848.541
945.366
974.883
990.936
1059.7
951.096
1034.59
931.668
994.896
914.465
819.83
872.461
892.132
856.768
874.462
931.31
696.745
535.369
661.376
476.107
684.284
476.76
671.569
744.579
765.772
682.864
750.652
723.03
787.771
708.199
709.909
659.543
649.002
646.894
688.69
680.195
674.721
743.03
520.352
583.091
810.302
476.5
790.271
761.367
708.153
479.275
557.91
691.528
473.63
680.02
724.098
761.482
771.385
820.873
748.46
805.373
729.707
776.503
726.333
667.78
710.631
715.137
696.889
696.231
740.603
302.151
381.605
297.491
777.837
829.74
702.601
788.685
304.628
281.307
281.859
789.618
713.185
783.53
770.922
258.195
281.242
284.379
712.904
685.671
735.313
715.367
240.232
281.221
273.136
658.254
624.185
685.095
656.29
209.71
255.823
241.831
598.839
558.609
608.967
565.445
177.919
215.792
194.617
523.15
497.76
508.908
470.745
155.562
179.94
175.347
469.863
454.95
442.828
437.659
123.893
171.545
144.622
433.385
459.634
424.806
441.568
375.069
355.782
321.086
680.492
711.104
662.583
725.611
424.246
240.712
267.551
405.939
436.544
391.669
213.999
488.386
178.764
171.781
476.987
479.578
492.29
171.04
475.464
186.256
174.316
486.891
490.91
478.412
175.686
452.578
179.494
174.038
490.423
482.248
462.634
171.685
407.629
159.361
160.615
446.349
429.471
418.989
157.639
340.493
133.175
141.645
382.73
357.856
361.194
134.151
251.732
95.7231
105.769
293.467
283.441
268.099
98.3229
253.75
93.7755
92.156
285.589
287.905
246.183
93.471
136.948
156.736
131.602
390.358
409.829
362.535
384.28
298.97
298.351
287.131
720.041
869.619
700.398
871.439
464.558
184.383
204.215
386.847
457.272
384.32
178.529
460.822
157.889
160.523
478.379
461.226
476.158
158.806
433.002
157.776
156.805
432.558
431.854
433.158
159.244
437.489
165.256
168.187
431.521
431.136
437.806
169.425
413.749
164.139
167.409
421.89
413.562
423.752
164.66
347.781
140.497
148.937
366.137
346.595
365.352
142.443
277.3
108.388
115.824
283.837
263.89
288.533
112.344
189.076
74.6577
82.3926
205.741
202.661
204.474
71.8084
119.717
111.163
100.184
321.02
358.076
273.061
318.195
277.01
330.926
290.406
691.542
746.817
731.553
811.549
328.585
141.319
172.642
305.599
347.732
298.228
135.238
365.368
143.322
122.702
402.93
407.429
365.288
124.767
353.538
146.006
125.004
398.939
397.804
354.13
125.133
365.566
151.242
131.17
401.301
401.108
364.211
133.329
329.68
145.397
131.063
384.442
369.22
348.365
126.418
224.141
106.454
84.3272
290.131
276.957
227.67
80.1082
241.963
101.735
85.8588
269.232
264.457
242.68
85.9805
156.146
63.6115
65.189
187.025
159.009
172.834
60.1173
89.2337
113.696
83.291
240.035
283.096
242.417
259.441
293.345
379.212
336.163
743.891
829.853
654.909
629.285
301.738
143.98
191.749
316.004
325.554
306.674
145.445
347.106
117.639
113.214
341.747
351.027
324.467
114.967
361.669
126.489
126.331
366.57
363.857
365.966
126.241
301.994
113.872
115.127
327.408
313.753
317.329
109.577
212.043
88.8626
90.6322
266.804
236.453
244.697
78.6412
128.445
54.0287
47.4131
165.272
158.14
133.198
45.1066
156.764
57.1976
50.2409
155.111
161.478
144.225
56.4104
192.427
75.0946
72.3954
185.828
190.045
187.017
75.8239
93.1915
125.403
103.002
260.681
269.503
270.556
282.271
233.426
331.302
236.342
573.348
611.676
579.377
599.952
208.239
233.4
238.146
578.981
552.863
565.958
484.983
185.792
219.327
189.473
515.485
482.994
452.904
412.384
134.728
158.349
141.2
413.431
337.599
334.964
275.882
90.5696
118.309
97.1373
275.418
233.638
242.05
209.391
75.4137
85.3852
79.2405