/*--------------------------------*- C++ -*----------------------------------*\
  =========                 |
  \\      /  F ield         | OpenFOAM: The Open Source CFD Toolbox
   \\    /   O peration     | Website:  https://openfoam.org
    \\  /    A nd           | Version:  10
     \\/     M anipulation  |
\*---------------------------------------------------------------------------*/
FoamFile
{
    format      ascii;
    class       volScalarField;
    location    "2.6";
    object      nut;
}
// * * * * * * * * * * * * * * * * * * * * * * * * * * * * * * * * * * * * * //

dimensions      [0 2 -1 0 0 0 0];

internalField   nonuniform List<scalar> 
12920
(
0.0989387
4.90681
2.38329
3.56408
1.87207
1.94304
1.33212
1.23259
1.02205
0.964739
0.840792
0.752579
0.616935
0.53837
0.500969
0.470152
0.436632
0.389014
0.356383
0.299274
3.25507
8.58565
6.33423
6.08612
2.72481
3.16152
1.95626
2.10606
1.53559
1.38801
1.08744
1.02173
0.96488
0.984239
0.975727
0.974678
0.901253
0.802227
0.687553
0.558776
0.81536
7.7921
5.53831
7.30868
3.87674
4.26109
1.94459
1.84915
1.25739
1.23379
1.06484
1.07708
1.01866
1.02032
0.996363
0.992974
0.939928
0.832101
0.72798
0.648308
8.47022
11.3996
5.98696
6.92254
2.93116
3.51157
1.83491
1.95267
1.36686
1.41503
1.17848
1.15966
1.02551
0.983538
0.90255
0.835902
0.770589
0.705609
0.659278
0.611553
12.29
14.5699
5.88745
6.82737
2.79786
3.54737
2.1484
2.36515
1.7804
1.79523
1.50189
1.44979
1.28959
1.24573
1.11154
0.963009
0.822747
0.694445
0.620291
0.502174
18.1323
16.3672
6.85335
6.00323
2.89431
3.6463
2.56617
2.79292
2.16404
2.13729
1.78333
1.67622
1.49538
1.427
1.24395
1.05805
0.877633
0.701761
0.581239
0.375847
5.78136
15.5315
8.62182
6.52572
3.20889
3.97839
3.15099
3.17369
2.59388
2.42092
2.01286
1.82893
1.57847
1.52622
1.38317
1.14892
0.896876
0.687584
0.479956
0.263693
3.91862
13.5096
8.40415
6.18682
2.88403
3.9191
1.23891
1.18899
0.975943
0.877819
0.706091
0.586489
0.480959
0.432007
1.61656
1.30367
0.949567
0.657139
0.405734
0.249809
0.861669
11.4825
9.04354
7.75635
3.25836
1.16823
0.4085
0.282369
0.283608
0.259496
0.226852
0.196425
0.139583
0.126405
0.503725
1.44962
1.02465
0.672091
0.406252
0.326294
0.804752
8.57852
5.26057
5.93022
3.30998
1.58798
0.332125
0.225255
0.216194
0.229259
0.219646
0.183862
0.142549
0.105918
0.397435
1.38304
1.058
0.70392
0.485324
0.517842
3.85556
10.3132
8.4846
6.45187
3.91588
1.42271
0.296981
0.206541
0.201174
0.190519
0.184073
0.137
0.119229
0.0921082
0.306039
1.14574
1.0436
0.818792
0.7364
0.752197
10.4778
12.8821
8.23057
6.82488
4.40131
1.97752
0.320407
0.165874
0.174293
0.167824
0.139657
0.0922118
0.0951579
0.12554
0.432894
1.10917
0.996674
0.881704
0.814179
0.743535
21.1054
16.7451
10.2107
8.22362
3.72972
4.12211
0.959134
0.865594
0.685473
0.574441
0.384265
0.301163
0.292097
0.342653
1.15038
1.01897
0.920421
0.838904
0.764572
0.675574
26.5297
14.7012
9.61884
8.22946
4.53451
5.43617
2.9613
2.87612
2.0018
1.67806
1.23122
1.03459
0.88111
0.811952
0.758519
0.742539
0.718089
0.680973
0.638781
0.568274
8.56584
13.3228
10.4189
9.56502
5.43868
5.60624
2.68128
2.4486
1.75332
1.57713
1.20372
1.04859
0.875091
0.789205
0.714029
0.654579
0.616831
0.57794
0.540373
0.486608
5.66331
12.6162
8.87515
9.6748
6.75408
7.18819
3.38482
2.58886
1.58484
1.47897
1.14002
1.08036
0.903065
0.839799
0.73192
0.659535
0.602873
0.551845
0.517835
0.483878
10.1432
13.0004
6.43805
8.53696
5.55224
5.46383
3.24592
2.41934
1.4985
1.44344
1.16966
1.16626
1.00735
0.939134
0.828768
0.734754
0.64842
0.54708
0.4916
0.425248
12.2861
7.74841
3.0257
5.56443
3.13567
3.56624
2.60359
2.26598
1.55166
1.47136
1.19461
1.17367
1.02346
0.962507
0.870781
0.801521
0.740202
0.652877
0.579737
0.467115
15.857
10.8907
3.58705
4.74557
2.39357
3.08071
2.21297
2.25041
1.61413
1.4464
1.12054
1.03634
0.932616
0.901641
0.834612
0.750092
0.662833
0.574928
0.52447
0.43655
9.90669
7.04078
2.44485
3.86907
2.26514
2.10406
1.36864
1.1996
0.918506
0.830752
0.739378
0.673146
0.582558
0.514305
0.464592
0.414996
0.362178
0.297169
0.243155
0.198254
3.85887
10.6421
8.17949
12.727
9.88597
12.5264
8.82009
8.39911
6.64952
5.99111
4.84947
4.28035
3.85001
3.71875
3.48783
3.20116
2.75841
2.42008
2.0535
1.68413
21.6363
24.3811
22.133
25.0179
26.0445
24.5982
22.0849
21.0563
19.1324
17.7936
15.6254
14.6823
14.5768
15.229
16.1061
16.428
15.8302
15.0207
13.5554
11.6329
10.5395
29.5614
32.1814
33.5429
31.0517
26.3426
21.3227
18.1994
15.6129
14.8863
14.6951
15.3363
16.0264
16.6601
16.8666
16.6442
15.8728
14.8369
13.7628
12.8449
37.9058
39.5246
34.874
32.2342
28.3134
23.9217
20.8541
18.7728
17.2313
16.4568
15.5494
15.2512
14.542
14.3251
14.0479
13.7579
13.3815
12.8147
12.4167
12.0454
64.9042
29.7834
20.0573
22.3109
21.9894
23.0018
22.2071
21.2218
20.285
19.6144
18.684
18.1984
17.3217
16.8135
16.0154
14.5766
12.9413
11.707
11.0277
10.2586
65.2403
51.9108
31.2239
21.6448
20.2371
23.8565
25.5592
23.8459
22.5529
20.9695
19.8722
18.8948
18.1054
17.2789
16.1746
14.8372
13.1414
11.1358
9.02516
6.43893
51.9011
47.342
38.9366
30.9123
23.7798
26.9349
28.2089
26.0567
24.1773
21.9009
20.6034
19.3179
18.3505
17.6693
16.527
14.8029
12.376
9.00641
5.77668
3.91
34.7952
41.951
32.0598
27.8272
25.8938
29.2781
23.2781
23.794
22.9463
21.8715
20.1475
18.3389
16.6193
15.464
17.0996
14.9438
11.512
7.424
5.10446
4.85036
31.6992
40.6409
34.3408
25.5133
18.0093
18.2258
19.7728
21.2028
21.6083
20.9446
19.6469
17.1138
14.7589
14.4276
15.2334
15.3896
11.3945
7.34488
6.32707
7.40482
2.91505
38.2592
32.8435
26.1641
26.1897
22.9435
21.9339
21.1653
20.7274
20.5914
18.4553
13.8346
10.1766
10.2258
13.8231
15.1276
12.1474
9.29655
10.0898
11.5429
16.0005
47.0145
44.6809
29.0195
28.3156
22.4479
19.6507
19.3768
18.8003
18.4323
15.3649
12.2583
10.6517
8.17876
10.9772
13.9869
13.3796
12.8503
13.6786
14.2041
11.4567
44.4155
45.8123
31.6161
30.4001
22.832
18.6453
17.3671
17.3133
15.8757
12.9361
11.2031
11.8637
12.8759
12.8941
14.0073
13.7774
13.9061
14.0513
13.8855
39.188
62.3861
51.9737
37.7421
33.1128
28.5908
20.0342
18.4524
17.564
14.537
11.647
10.7022
12.0427
13.1313
14.495
13.9256
13.4862
12.9978
12.4372
11.6944
71.7154
52.4847
46.6239
38.5928
31.8378
27.8414
23.1388
20.633
18.5514
15.7523
13.5901
12.3305
11.9462
11.6281
11.4086
11.4813
11.4296
10.8171
10.2665
9.69039
26.9139
46.9171
46.4041
40.931
33.9448
28.4802
21.2599
19.1343
17.4998
16.6204
14.7357
13.5414
12.4281
11.6612
11.2169
10.6608
10.2304
9.98624
9.75583
9.48373
17.1376
48.7348
43.5992
41.4464
35.233
29.4575
19.4898
15.7964
14.7624
15.4219
14.6703
13.9741
13.0224
12.3808
11.539
11.0269
10.6666
10.3433
10.2252
10.0405
16.5359
23.8861
29.9767
35.1225
31.264
26.8368
16.2384
11.3483
12.5506
15.2642
15.4283
14.7019
13.8121
12.9775
12.1532
11.3609
10.8118
10.0508
9.65673
8.89648
19.3229
19.9428
19.7484
18.6178
17.3273
17.2578
15.1956
16.1252
16.2894
16.7436
15.8989
15.1757
14.3362
13.6298
12.939
12.2151
11.8398
11.0422
10.4883
9.24738
32.5706
37.13
26.9689
23.2611
21.2244
21.0816
19.3005
18.968
17.1034
16.096
14.9804
14.6135
13.9153
13.3103
12.639
11.829
11.1457
10.4907
10.122
9.13467
1.79059
5.70699
5.3389
10.8122
12.2357
15.3622
10.1595
9.26569
6.89273
6.34588
5.42233
4.86095
4.06
3.58126
3.1337
2.59387
2.07211
1.67013
1.39919
1.1412
12.9926
18.0753
5.89771
11.0575
10.8485
14.0056
10.2743
9.45952
7.2825
6.38826
5.20687
4.79482
4.41205
4.17017
3.71467
3.23118
2.77544
2.37898
2.16112
2.06441
62.3565
47.0473
43.8477
41.2758
36.6325
33.7312
29.5648
28.1828
26.2467
25.7112
24.876
24.7277
24.5681
24.4056
23.8552
22.8616
21.5661
19.3557
17.6755
16.7406
68.4897
61.1278
57.324
51.6336
46.2311
39.7223
34.4695
30.8001
28.3596
27.4618
27.0012
26.9107
26.4932
25.7663
24.799
23.6962
22.57
21.427
20.5745
19.5872
63.5495
65.8626
61.4557
52.6021
45.8337
39.1199
35.3298
32.0004
30.0602
28.624
27.3171
26.2407
24.8714
23.8303
22.851
21.9384
21.0804
20.087
19.5435
18.4352
50.6761
60.7959
48.474
45.2135
43.5125
40.4221
38.1877
35.111
33.1746
31.3119
29.6241
28.0716
26.3279
24.7974
23.1395
21.4073
19.7638
18.1667
17.1514
15.4375
55.3751
67.2923
49.0976
40.3522
41.3787
42.1119
41.9517
37.9287
35.3614
32.5006
30.536
28.5731
26.7274
24.7509
22.733
20.7367
18.5644
15.9965
13.7645
10.6645
40.1472
59.3684
51.9242
45.8235
43.4428
46.0961
44.5277
40.4399
36.7989
33.318
30.9701
28.8741
26.9362
24.9711
22.5355
19.8813
16.6356
12.8437
9.55588
6.99655
29.6972
55.521
48.2965
47.5967
48.2997
48.2895
42.9884
39.826
36.7399
33.427
30.6025
27.9485
25.7528
24.1331
22.2819
18.8344
14.7836
10.948
8.72793
7.83752
22.8421
51.1679
47.8919
42.7868
41.2602
40.282
34.7334
38.1617
35.3263
32.4832
29.4587
25.3591
23.1095
22.5128
21.7549
18.4232
14.509
11.6986
10.8575
11.5247
29.1381
59.9168
54.7975
46.7383
46.8205
43.3707
41.9924
37.7562
34.3628
31.3996
22.2709
14.2696
13.0946
17.6582
20.1036
18.7075
16.149
15.4888
16.3712
17.6592
17.6895
59.8513
64.3321
50.5629
48.4295
42.3659
38.6504
34.9868
31.9457
28.391
6.16519
7.88398
12.2409
13.2089
16.4461
18.7764
19.0867
19.6196
20.2454
21.0558
52.3902
66.4993
69.5235
55.3991
50.1298
41.7667
37.4894
33.0393
29.6612
25.852
21.2413
19.3256
19.0196
18.2805
17.1099
18.9099
19.7688
20.4673
20.8472
21.0257
68.5424
73.0783
68.9033
59.9671
53.4077
45.5366
38.2787
32.8897
29.3458
24.0562
20.8105
19.8239
20.0727
20.0161
20.0493
19.7797
19.7986
19.7912
19.6116
19.4442
32.9652
64.8977
62.9719
58.1892
51.3728
43.4645
37.826
33.133
28.9675
25.1009
22.281
20.5834
19.7321
18.9659
18.7221
18.607
18.389
18.0484
17.7817
17.6505
18.5669
56.0039
62.9397
58.2513
49.7592
41.7248
35.0767
31.2356
28.2404
25.6499
22.9623
21.0189
19.5372
18.3779
17.6742
17.1688
16.9742
16.711
16.5356
16.3084
24.0841
62.3458
59.0665
57.7781
48.6434
40.0782
31.3008
28.4372
26.6054
25.0422
23.0295
21.2616
19.7036
18.3992
17.3062
16.4825
15.9954
15.4933
15.2258
14.6313
30.5432
39.6261
47.3958
48.5597
43.177
36.6433
26.2558
25.2215
25.6547
25.2771
23.4711
21.6857
20.1242
18.6611
17.4354
16.2106
15.3644
14.2165
13.5656
12.1523
20.08
35.3368
35.4907
34.5972
32.7671
33.6245
30.7402
30.2074
27.7639
25.4248
23.0788
21.3541
19.9367
18.7156
17.679
16.6407
16.0177
14.9446
14.3284
12.8111
26.4448
48.0464
38.6739
35.1805
34.4404
34.7561
32.548
30.4485
26.8648
24.0311
21.2828
19.4376
17.8217
16.6196
15.4514
14.3611
13.8612
13.3302
13.0646
11.8318
4.01338
10.1684
5.62494
10.0825
12.7501
18.4799
13.4534
12.0117
8.64528
7.58487
6.2103
5.44075
4.56903
3.98919
3.35788
2.70566
2.26411
1.91796
1.70995
1.43553
9.6762
10.2002
9.34671
20.0162
13.8764
14.3402
9.67432
8.28417
6.49028
5.5951
4.86528
4.47407
4.05987
3.6241
3.23214
2.87067
2.66333
2.49573
2.46205
2.39745
27.1224
55.0066
50.4558
45.1967
38.0551
34.2844
30.2851
29.9414
29.0721
29.3765
28.9024
28.5604
27.7594
26.5486
25.3301
24.0239
22.7893
21.2359
20.2878
19.4982
49.1315
67.5749
68.2923
59.1993
52.029
44.3625
39.8788
36.7015
34.6671
33.5703
32.5236
31.3886
29.975
28.3012
26.9018
25.4692
24.4176
23.2867
22.5385
21.3191
45.4389
79.7033
72.8925
60.9023
54.0025
45.5055
41.8943
38.077
36.2519
34.2422
32.6982
30.8916
29.1038
27.3345
25.8788
24.4208
23.2561
21.9599
21.0809
19.5423
95.176
74.3238
69.2451
59.8095
55.4518
49.0162
45.6726
41.4266
38.8469
36.2048
34.0346
31.6816
29.4489
27.206
25.1553
23.0903
21.3213
19.3999
18.0773
16.0839
44.481
65.8189
64.9385
55.7842
55.2531
51.2955
49.4516
43.8551
40.6721
36.9711
34.5913
31.8398
29.2648
26.5188
23.9159
21.4402
18.9696
16.4207
14.4028
11.5921
81.0118
71.0615
66.9767
59.5157
57.5943
56.7405
52.1652
46.4522
41.5356
37.5187
34.6532
31.9275
29.077
26.0474
22.7623
19.6445
16.3823
13.2618
10.5029
8.36221
55.5431
66.637
63.6844
62.1194
60.8582
57.788
51.7529
45.7385
40.6869
36.5273
33.4525
30.7911
28.4527
25.9059
21.0843
17.7714
14.5735
11.8433
9.99264
9.10554
48.5974
55.2896
60.0339
58.2723
57.9625
55.471
44.3157
44.7189
39.3345
34.8166
31.159
27.6632
25.9564
24.3987
21.0266
17.1951
14.9129
13.2735
12.6039
12.9667
31.0385
56.5087
64.6834
60.2001
57.7692
53.9826
51.7505
44.1559
38.0136
33.1193
24.2136
17.873
18.5964
20.8424
19.8517
18.4649
18.1897
18.3609
18.8898
19.7098
26.8649
61.7025
72.4129
62.4422
58.281
52.3627
48.2553
41.6797
36.2447
30.4
12.7737
12.1555
14.3153
16.1034
18.0722
20.1388
21.1634
22.049
22.91
23.2078
67.6041
79.5355
79.3773
67.4649
58.9871
51.4214
47.0377
39.9437
34.165
28.7082
24.0545
21.5438
19.8649
18.2286
17.9293
20.659
22.1161
23.0929
23.6098
23.7326
52.4745
79.685
78.6257
70.9261
62.1787
53.6132
46.5982
39.0527
33.3191
27.7181
24.3134
22.3728
21.3542
20.5929
20.8648
21.6532
22.2859
22.5641
22.6287
22.5232
33.0651
70.1809
70.3229
68.1497
59.9861
51.0751
44.6782
38.5628
33.0683
28.8329
25.7371
23.5916
22.2647
21.3545
21.1583
20.9722
20.9727
20.9084
20.9124
20.6646
19.134
66.0799
70.6539
67.3857
57.7051
48.4955
42.395
37.0338
32.5457
28.6977
25.7618
23.302
21.667
20.2906
19.6396
19.2513
18.9926
18.827
18.7933
18.4082
46.6828
72.6748
69.5027
65.7979
55.1529
46.261
39.3192
34.8951
31.3594
28.1459
25.5478
23.1003
21.3203
19.6381
18.5498
17.6034
17.0691
16.4845
16.0964
15.3468
69.5268
54.4755
60.1978
58.0378
50.9254
44.1186
36.8122
33.8671
31.0684
28.133
25.4293
23.0852
21.2407
19.4061
18.0716
16.7159
15.7667
14.6115
13.7617
12.5264
38.9528
49.8831
50.275
48.0429
46.0477
44.3503
40.0073
35.8528
31.083
27.2276
24.2217
21.9575
20.3698
18.928
17.9375
16.8755
16.2293
15.1987
14.4938
13.2422
12.3368
47.3605
43.7695
42.1915
41.7479
40.7981
37.401
33.4629
28.5961
24.4775
20.9804
18.6532
16.9644
15.2264
13.7757
12.7365
12.6374
12.6681
12.8313
11.8004
2.79059
7.48303
6.03785
8.52667
13.4047
17
13.1051
10.7325
7.9844
6.60577
5.40963
4.53904
3.81092
3.18239
2.67893
2.30638
2.07424
1.83354
1.69924
1.48804
7.40343
18.4016
7.33702
10.3484
5.42893
5.03639
3.12464
2.92221
2.11555
2.1417
1.82309
1.81072
1.59627
1.50396
1.37389
1.29736
1.21585
1.13362
1.0648
0.971622
12.9886
50.115
30.0564
34.054
16.2102
17.8123
12.1445
14.3407
11.7864
13.443
11.8995
12.2531
11.0892
10.6467
9.96778
9.57769
9.22503
8.95281
8.62291
8.71158
87.7208
73.4553
51.7775
57.6436
25.6764
35.1954
17.2951
20.4634
14.8545
16.0204
13.5574
13.5383
12.1197
11.5569
10.8026
10.4082
10.0115
9.73678
9.38775
9.37004
112.525
87.4759
42.5968
57.7867
23.2061
31.3058
16.6987
20.2621
14.7462
16.3317
13.5427
13.5459
11.8831
11.1587
10.2422
9.7135
9.19723
8.86039
8.49515
8.40061
50.9568
86.5153
49.5864
62.3504
25.0822
38.3644
19.0181
22.4824
16.0689
16.84
14.0271
13.6071
11.8792
10.9487
9.77398
9.01161
8.26381
7.74327
7.2214
7.07602
50.8828
77.417
40.9035
58.2764
26.0152
35.4354
19.9435
22.5398
16.9334
17.2721
14.6323
13.8344
11.8862
10.6009
9.12909
8.06427
7.07653
6.4404
5.84195
5.8092
88.2447
79.4603
49.6631
63.3465
30.9656
47.5264
25.6295
24.6351
18.8355
17.7502
14.9655
13.8676
11.7019
10.1414
8.31956
7.04844
5.95839
5.41954
5.04222
5.19295
96.1127
82.101
52.1462
66.3126
28.6758
34.3414
47.0671
39.7076
34.1429
30.3368
27.5939
25.2736
22.9254
20.1652
8.16508
6.56436
5.81253
5.43496
5.18151
5.41992
52.2526
62.4918
52.8567
63.6582
37.5922
57.2469
47.581
36.4817
30.7044
26.2565
23.2936
21.0004
19.4394
17.4404
15.0964
7.31014
6.72837
6.47466
6.29781
6.65613
47.5899
56.1086
44.3814
62.2067
32.8541
52.7995
47.0759
35.9599
29.3896
24.4532
19.6641
16.1837
15.9311
15.6335
15.1481
8.90418
8.84416
8.96998
8.94301
9.35625
37.8948
61.0289
48.2137
62.8357
35.5892
50.2135
43.6432
34.564
28.4369
23.5879
18.06
14.297
13.2827
13.9623
15.3997
10.0642
10.207
10.5108
10.5887
10.9394
84.3753
75.3853
61.9849
68.0844
39.7974
50.1596
43.2876
33.4019
26.6659
20.9757
17.3084
15.4286
14.6943
14.1909
15.6752
10.3544
10.619
10.7348
10.7087
10.9297
72.4439
82.8454
61.4488
73.084
32.515
46.3401
42.6249
33.8567
27.5082
22.1315
19.3857
17.6984
16.9932
16.63
10.0125
9.98814
10.02
9.98745
9.81907
9.95545
13.8644
55.7705
60.7733
72.1475
35.9493
49.9708
24.9313
28.9246
15.8379
14.9475
11.3564
10.8146
9.67497
9.45032
9.00183
9.00936
8.95333
8.91664
8.77565
8.90916
34.1271
71.1175
58.9263
69.4407
32.8288
46.3593
21.3136
23.6457
14.3865
13.6028
10.7195
10.0975
8.98558
8.65286
8.34414
8.24842
8.06541
7.99121
7.86555
8.02575
59.8241
74.1968
54.376
67.6201
33.2751
44.9968
21.8027
26.6634
14.2941
14.3079
10.7015
10.2556
8.71373
8.27249
7.58128
7.33156
7.03019
6.89375
6.67392
6.78288
32.2086
64.5592
61.1937
61.9652
30.9851
43.5332
19.8598
23.0607
13.2787
13.2516
10.4753
10.1166
8.69172
8.0992
7.34787
6.90896
6.4858
6.1905
5.89032
5.94236
45.9963
54.6413
49.2594
55.9386
32.7091
45.9644
21.4379
21.7732
13.4987
13.2684
10.559
10.1822
8.87608
8.40733
7.70786
7.26978
6.83918
6.55371
6.25073
6.26362
3.98776
37.7672
32.9608
45.4536
25.1837
34.1387
18.6544
18.7915
12.1244
10.4514
8.07815
7.1909
6.27513
5.93463
5.61936
5.5731
5.4843
5.44124
5.24954
5.27333
2.96465
15.0326
4.5006
9.28052
5.5571
6.97036
4.30576
3.91727
2.64401
2.19991
1.67031
1.39071
1.12608
0.95773
0.837615
0.760991
0.696305
0.636654
0.596114
0.535657
24.9064
28.5923
8.68296
33.4876
26.1546
30.3988
9.4642
15.7006
7.42466
6.68778
23.4847
17.6254
8.20247
7.68357
7.10565
26.5341
23.0728
30.4664
7.70955
29.4517
25.5328
6.17306
21.8837
19.5868
6.73982
7.31932
24.4172
22.0199
0.287705
0.287581
0.227148
11.382
15.4412
13.1572
16.2044
0.291345
0.223515
0.213065
15.9199
16.7669
15.888
15.7399
0.268602
0.213114
0.222748
16.7874
16.7376
15.8165
16.1114
0.238624
0.224717
0.22163
16.6154
15.9868
16.0703
15.636
0.206892
0.217196
0.197524
15.736
14.5092
15.2506
13.2625
0.15628
0.184419
0.153751
13.9285
12.2009
12.2929
9.80047
0.127005
0.142984
0.115385
11.909
11.6958
9.14176
8.85806
0.113239
0.10884
0.0901972
11.5973
11.8255
9.03881
10.6288
0.233191
0.346187
0.233907
14.8841
16.2442
14.4521
15.4897
0.214299
0.228801
0.219158
15.955
15.9117
15.4498
15.3597
0.228939
0.218416
0.215131
15.9753
16.2021
15.3202
15.3128
0.224664
0.211101
0.200737
16.1517
15.5056
15.1567
13.8964
0.195099
0.194843
0.167821
15.0178
12.6989
13.1926
11.146
0.151324
0.156539
0.136099
11.7898
9.43501
10.598
9.36961
0.116224
0.13104
0.115685
8.74964
7.92977
8.96441
7.03486
0.0849444
0.100274
0.0597041
8.03652
10.028
6.41648
7.59995
0.2036
0.290048
0.181906
13.0978
14.5687
12.8881
13.2953
0.205649
0.172829
0.161353
14.5879
14.4988
13.2381
13.3043
0.191337
0.161953
0.162211
14.4361
14.5633
13.2482
12.9789
0.187161
0.161099
0.146523
14.4699
13.5029
12.6813
11.4902
0.151867
0.140947
0.0933003
12.9171
10.7887
10.7485
8.40135
0.119709
0.0906838
0.105008
10.2582
9.47326
8.55665
9.06808
0.107647
0.103735
0.101586
9.09609
6.98907
8.77692
8.95693
0.0632732
0.107858
0.102258
6.35988
7.51751
9.2487
9.79539
0.172348
0.395404
0.24507
12.0079
12.5312
9.57411
11.5863
0.170892
0.230298
0.218832
12.7399
13.3803
12.0609
12.5373
0.17322
0.215021
0.200146
13.3071
12.7863
12.4348
11.5759
0.146257
0.187011
0.14654
12.3652
10.9671
11.0018
8.96713
0.0962141
0.12993
0.0927772
10.1879
8.27734
8.2308
7.01337
0.0914833
0.0876225
0.0924924
8.4894
9.04642
7.04583
8.02877
0.11851
0.0966413
0.112921
9.2184
10.0656
8.50951
9.68335
0.109008
0.1163
0.107203
10.2551
10.4552
10.0167
11.0135
20.9862
20.5606
21.5618
30.3497
35.2828
36.6784
35.5213
21.7888
21.0927
20.6335
34.7426
33.4057
34.5005
32.449
21.2037
20.6383
20.6967
32.765
31.0928
31.9491
30.5402
20.0708
20.5673
19.6684
30.514
28.6683
29.9824
26.942
17.8921
19.0527
16.0717
27.8739
24.9385
25.3355
19.6558
15.1071
14.8051
11.6777
23.9254
21.8751
17.9392
14.9208
14.5107
10.9537
11.1587
21.5159
21.1889
14.9242
17.099
14.2016
11.5568
13.0567
21.0231
20.8256
17.825
19.4043
21.603
20.9468
20.5204
37.3608
35.351
35.4839
33.4448
20.7451
20.3051
19.8596
34.3944
32.3319
32.6848
30.7896
20.7278
19.7494
19.4909
31.8068
30.3593
30.2468
28.3647
19.3046
19.2095
16.6512
29.6401
24.6697
27.3601
13.8149
15.0284
15.5436
12.8732
22.4054
16.1881
11.9753
9.68226
10.9165
12.2244
10.8002
14.6422
11.9931
9.5478
10.2551
9.84927
10.3418
8.49602
12.1243
14.9604
10.603
11.5238
12.3936
8.08807
9.45933
16.0505
18.6679
12.0982
14.8572
19.5569
19.373
18.0352
34.4593
32.5039
33.6738
30.8559
18.9261
17.8542
17.5419
31.752
29.9121
30.189
28.2592
18.6405
17.3579
16.7321
29.3757
27.5808
27.571
25.467
16.3038
16.3188
14.6055
26.6294
13.3437
24.6185
21.4916
12.8332
13.6615
11.2087
11.8408
10.1579
20.3026
18.0102
11.1705
11.3057
11.3549
10.7738
12.1562
17.7032
16.9345
8.58975
11.0867
11.4756
12.2786
12.2205
16.7874
16.6447
9.28279
11.7175
11.4584
12.3616
14.1359
16.394
15.2398
17.3074
16.7294
16.653
33.0314
30.3478
26.0143
29.7042
17.5276
16.8331
17.0009
29.7643
27.9404
28.9886
27.2912
16.4133
16.6475
15.3451
27.1922
24.902
26.4656
23.7003
13.9178
14.5183
11.9798
23.9616
20.699
22.4686
19.0703
11.035
11.0816
9.90707
19.5544
17.8674
18.3041
17.277
11.6901
9.96787
11.1281
17.7643
17.7269
17.3762
18.0888
12.7232
11.5764
12.7356
17.7891
17.8309
18.359
18.7556
12.2769
12.9938
13.3601
17.5737
16.1936
18.7494
18.562
38.9898
41.6745
39.1204
39.9217
45.7242
50.9535
45.7385
36.16
37.9187
35.259
44.2725
40.6271
44.0085
39.6661
33.1799
34.552
32.5843
39.3506
36.0306
38.437
35.1365
30.3501
31.8583
28.0434
35.0998
32.4606
34.0549
29.3644
26.3686
26.1579
20.038
31.4521
28.5086
27.3399
21.8637
23.4749
18.3778
15.9781
27.6808
26.2806
20.6568
19.9032
22.728
16.3215
18.7319
25.9075
25.0357
20.3464
21.7993
22.0387
19.4201
20.5364
24.6294
23.3509
22.0268
21.6848
38.8774
39.592
36.8153
50.2564
45.3955
47.5127
43.2584
35.0866
35.8867
33.473
43.7448
39.4107
41.8376
37.9398
32.3341
32.7522
30.21
38.1654
34.8032
36.7499
33.0374
28.8338
30.1221
30.7063
32.6237
28.476
31.079
31.8053
12.1158
19.7801
15.7445
22.1747
13.4109
19.5967
14.3363
12.4968
7.1067
9.43911
16.5165
16.6543
8.20289
11.0911
16.5694
10.2277
12.291
17.4595
20.1247
12.1824
15.19
19.8374
13.1151
16.0506
20.7075
21.2077
16.1454
18.4085
35.8989
37.7638
34.3014
46.8978
42.4588
45.7377
41.0335
32.6536
33.4619
30.9772
41.0924
37.342
39.7023
35.788
29.4621
30.1143
27.5199
36.1734
32.4348
34.4954
30.7277
23.365
16.6026
27.9061
25.1338
24.7474
3.55242
29.248
16.1682
5.7362
18.0414
1.82318
17.0573
1.77579
16.9312
11.7235
19.1832
18.2668
9.23137
12.7561
21.45
20.0395
12.9182
18.084
17.5311
13.4744
15.0138
19.6166
18.1908
15.2085
17.1264
15.8321
15.5544
17.6001
17.7006
16.9904
33.8452
31.1422
33.1431
45.646
40.6427
36.7533
39.9783
30.574
32.1853
29.9623
39.2681
35.2892
38.4568
34.8539
26.9156
28.9697
25.7561
33.9677
30.0974
33.4779
29.2639
22.3461
24.4238
21.077
28.7855
25.0546
27.8267
24.7308
19.5282
20.3059
19.2567
24.0596
22.0978
23.9261
22.3996
19.0437
19.2467
19.6645
21.6611
20.6067
22.0827
21.5558
18.6544
19.7797
19.8399
20.2783
19.0807
21.3703
20.7206
16.7438
19.7505
19.3422
18.6199
17.5442
20.4778
19.9834
46.3215
52.5106
46.3176
49.527
41.7853
50.9584
41.7873
40.7163
44.4192
39.6379
39.7038
35.3012
39.4437
33.9798
35.7716
38.2934
34.7465
33.6941
30.0154
32.5054
28.9426
32.1547
33.6326
29.1669
29.0393
26.758
28.0136
24.6977
28.3978
27.2912
22.3935
25.8391
23.8406
23.4278
20.229
26.3521
21.3549
20.7382
23.2838
22.1771
19.5598
18.6685
24.8668
21.0474
21.9002
21.6551
20.2844
18.5616
18.1372
22.9223
21.9513
21.2394
19.6855
18.1284
17.8712
16.7208
45.9824
48.8791
43.9304
50.1142
41.5212
47.3902
39.8028
39.3758
42.3515
38.0375
39.2475
33.8117
37.9463
33.0778
34.4361
36.7449
32.8802
32.3221
29.0011
31.7035
28.3256
26.6449
30.8231
15.0853
27.9242
23.8688
26.9683
20.8165
18.8336
13.3093
10.9696
22.3589
18.8316
19.0974
15.7174
17.9784
10.9896
12.6407
18.0842
17.3412
15.0895
14.246
20.4826
13.4882
16.0093
17.3838
17.4629
14.3328
15.2057
20.8392
16.7973
18.558
17.34
16.5781
15.4409
15.9052
43.1884
47.0589
41.8416
46.6112
39.3287
45.922
38.4193
37.522
40.3648
36.0793
37.5553
32.7803
36.6471
31.6193
32.3319
34.6739
30.6602
31.4005
27.9117
29.9697
26.0799
14.327
29.3424
25.4601
26.5706
20.8733
24.8547
21.5602
11.443
24.3853
22.0053
19.3571
16.3055
20.6984
18.5947
13.826
21.4086
19.7996
15.6408
14.4045
17.911
16.1438
15.6027
19.3016
17.8666
14.3245
14.7804
15.7936
15.1331
17.8086
17.459
17.0486
14.982
15.6176
15.0305
15.2495
41.4644
42.1557
40.9115
46.0475
38.0846
45.9083
37.8528
35.593
39.2579
35.2936
36.2438
31.1165
35.7481
31.2224
30.0375
33.7892
29.3993
29.4546
25.1923
29.3692
24.9004
25.0172
27.9919
24.9256
24.0328
20.7799
23.543
20.7322
22.0315
24.0696
22.3686
19.9495
18.1177
19.9096
18.3411
20.2516
21.9877
21.2659
17.6034
16.3364
17.9614
17.3472
18.629
21.0133
20.2852
16.0699
15.4564
17.0663
16.6269
17.4854
20.057
19.7214
15.3191
15.3648
16.4856
16.6534
38.6065
47.7696
38.4046
15.2203
13.9884
14.3506
13.9069
32.2436
36.1409
30.9703
13.6627
12.5418
13.8165
13.5862
27.2534
29.558
25.7269
13.2265
12.998
13.6682
10.6179
24.1403
24.6646
21.5537
13.2246
12.7711
10.0381
9.28762
21.5378
20.4939
17.9567
13.3654
13.1414
9.2459
9.70118
19.9495
17.4567
16.9548
13.462
13.199
10.3982
14.7713
18.0498
16.8657
16.3091
13.819
13.7155
14.8898
15.1774
16.0523
15.9914
14.9199
14.2546
12.6288
15.3721
15.0643
38.1464
44.3578
36.6253
15.4136
14.0331
14.6328
13.9993
30.842
34.8617
30.2108
13.8758
13.6593
13.9451
12.8246
25.5692
28.7233
25.0546
12.8008
9.57909
11.2377
8.08875
20.9082
23.9693
19.3188
8.98206
8.11015
7.48311
6.43879
16.7767
17.8591
14.651
8.00058
8.28587
6.22441
6.08809
15.8485
13.9195
13.1707
8.95304
13.6311
6.66595
11.5275
15.8266
13.4037
14.1644
15.1019
15.3289
14.1639
15.7899
14.8992
14.3014
14.6857
15.4508
14.8699
15.7827
14.9224
36.2624
43.1562
35.5577
15.4822
14.1716
14.9488
14.1209
29.9504
33.7971
28.8182
14.0145
12.7849
13.9501
13.6688
24.675
27.181
22.8419
11.178
7.9887
12.5278
9.03646
19.3264
21.5942
18.565
7.37407
6.34606
8.37462
7.76215
15.1142
17.8132
16.0145
6.1405
5.99148
7.69868
7.9936
13.1905
15.4742
14.5446
6.57918
11.4873
8.70195
13.7449
13.8303
14.3931
14.038
14.1558
15.8702
15.483
15.7635
14.5195
13.979
14.3556
15.8506
14.8503
15.7998
15.0453
35.2485
43.424
35.1343
16.4247
14.3291
17.1328
15.1359
28.2991
32.9647
28.4552
14.0395
13.6557
14.3888
13.1019
22.2062
26.6476
22.3165
13.6858
10.1528
13.1727
13.2551
18.0141
21.0804
18.769
9.52242
9.09828
13.4329
13.3433
15.7973
18.0486
16.6939
9.094
9.51253
13.8019
13.9259
14.8369
16.3319
15.8661
10.2672
15.3445
14.2214
14.0045
14.2884
15.6006
15.282
15.4274
15.6595
14.4255
14.3396
14.4365
15.1468
15.5385
15.7273
15.0131
14.6281
12.9544
22.4312
27.8815
18.7965
24.988
23.615
28.3151
17.2902
21.6613
29.6266
19.0722
25.7414
24.9061
30.1867
4.97088
10.4298
11.1304
11.7992
1.87358
16.0983
6.97936
2.68836
29.2436
33.3188
31.7967
32.703
31.6284
32.4618
29.8616
22.6959
25.4287
29.1302
20.2143
28.7205
17.8347
24.4825
21.3556
25.8234
31.4629
19.059
30.7438
4.92936
25.608
10.6226
2.63684
12.6866
11.8752
7.4562
3.04912
16.6161
10.513
17.5532
10.4895
15.6418
11.6525
17.3691
9.49953
4.71091
9.06249
6.6041
1.50981
7.82402
5.62561
1.32333
4.22999
7.01107
6.33694
4.06888
7.14273
4.80956
2.34196
12.8296
22.6144
21.1078
17.3477
20.0952
14.964
15.2074
11.2846
16.3826
19.1194
12.4798
17.9587
10.3376
13.5765
5.24982
2.26163
10.7975
7.44493
6.20074
2.0806
9.49495
4.74076
4.15101
8.68201
7.3286
5.41087
2.34378
8.69235
19.6511
9.46268
19.2604
2.05063
21.2678
2.6052
17.9189
27.1357
27.3298
25.4613
28.002
25.988
28.786
26.8079
25.4156
23.0887
24.2811
24.2977
24.5033
23.8918
25.5456
23.973
25.4803
17.1561
30.4688
3.79564
30.1219
26.4861
19.962
2.67157
9.93069
20.3489
3.00738
18.1829
22.4783
27.957
28.9886
30.1868
28.1143
29.7595
27.7064
28.4253
26.1192
25.1324
25.0225
26.7882
24.5303
26.3961
26.6091
15.7051
5.40207
15.9317
3.36708
16.3362
2.25602
15.2941
21.5827
21.8307
20.8663
23.1282
20.7767
22.623
22.1367
20.7176
19.2582
20.1003
20.791
19.9188
20.0148
21.3678
16.3317
2.36549
6.19334
18.964
2.33391
17.1228
17.9422
15.9422
3.72334
6.02558
16.7968
2.72256
15.5662
17.2091
22.202
23.9881
23.7485
23.4611
23.2569
23.0151
22.6681
21.32
21.6075
21.0329
22.6769
20.5998
22.235
21.7606
1.16084
1.09719
1.09858
7.96769
11.3079
7.3659
10.5118
1.03389
1.08146
1.00767
12.1812
11.0799
12.2286
12.7238
0.947057
0.895971
0.896627
12.0206
12.9052
12.7723
12.866
0.781845
0.869218
0.811533
12.6649
12.0779
12.4587
12.1381
0.648309
0.726094
0.695482
11.89
11.6379
11.5245
11.1199
0.530648
0.625151
0.559547
11.1661
10.6392
10.3905
9.92248
0.451417
0.507406
0.49567
10.0139
9.63499
9.31773
9.17523
0.356521
0.48558
0.419051
9.15265
11.198
8.75952
10.2638
0.884052
1.13319
0.823227
6.3272
7.35421
6.35362
8.46084
3.16259
0.360467
0.333058
2.53341
3.12628
2.48809
0.272876
5.32566
0.291578
0.242388
4.72505
5.01389
5.10222
0.250195
5.53415
0.280347
0.245045
5.42452
5.63973
5.53469
0.246657
5.39933
0.254193
0.237002
6.02406
5.97776
5.45634
0.236849
5.17116
0.219808
0.217091
5.83361
5.75027
5.22881
0.214801
4.5493
0.184281
0.190123
5.47333
5.27394
4.74733
0.18161
3.83141
0.131398
0.142287
4.89478
4.7716
3.92801
0.134065
3.79182
0.128155
0.125069
4.60693
4.54644
3.73514
0.128036
0.406789
0.465027
0.404788
9.11284
10.9828
8.82712
10.7772
0.949979
1.69304
1.00463
8.2691
11.3252
8.58162
11.6642
4.02766
0.268552
0.344357
2.71856
3.80752
2.75398
0.275638
5.29796
0.217393
0.227999
5.08822
5.1421
5.20731
0.220422
5.37758
0.220663
0.218899
5.2749
5.34087
5.32994
0.222416
5.45576
0.229995
0.230695
5.41051
5.42932
5.46414
0.228601
5.11176
0.213869
0.213459
5.31869
5.20898
5.23446
0.206528
4.3815
0.173415
0.180215
4.61365
4.38013
4.58123
0.170669
3.62662
0.13632
0.138259
3.70796
3.5754
3.70121
0.135387
2.66443
0.0998758
0.105692
3.0732
3.05005
2.8375
0.0943497
0.364405
0.330228
0.306889
8.09575
10.4903
7.01285
10.0884
0.902599
1.52416
0.949236
7.73545
10.0768
8.34065
10.8286
2.94139
0.223987
0.287469
2.28788
3.16126
2.22052
0.21662
4.26779
0.209309
0.187151
4.66218
4.79242
4.19238
0.184406
4.33502
0.196142
0.170287
4.80091
4.84335
4.2702
0.166289
4.69494
0.190056
0.166734
4.98389
4.99413
4.64633
0.168265
4.28083
0.178886
0.163684
4.84529
4.69076
4.52039
0.158095
3.10293
0.126833
0.104594
3.8347
3.76893
2.99102
0.0985216
3.46635
0.118553
0.10373
3.67763
3.55823
3.55439
0.103721
2.05858
0.082345
0.0841883
2.29832
1.97265
2.19999
0.08235
0.274147
0.360949
0.264245
6.50635
9.33811
7.16732
9.09093
1.01841
1.81819
0.994595
8.88271
10.022
6.95385
6.96569
2.49981
0.225417
0.31723
2.27254
2.73947
2.19344
0.225014
4.06691
0.163983
0.174358
3.76022
4.0713
3.60121
0.176801
4.47153
0.175472
0.191326
4.47564
4.48149
4.48017
0.19193
4.01014
0.160907
0.173718
4.19762
4.09681
4.12784
0.164912
3.1022
0.126381
0.13664
3.62301
3.25543
3.46587
0.120783
2.4033
0.0903133
0.0800218
2.7646
2.91672
2.30812
0.0791008
3.14074