/*--------------------------------*- C++ -*----------------------------------*\
  =========                 |
  \\      /  F ield         | OpenFOAM: The Open Source CFD Toolbox
   \\    /   O peration     | Website:  https://openfoam.org
    \\  /    A nd           | Version:  10
     \\/     M anipulation  |
\*---------------------------------------------------------------------------*/
FoamFile
{
    format      ascii;
    class       volScalarField;
    location    "2.6";
    object      omega;
}
// * * * * * * * * * * * * * * * * * * * * * * * * * * * * * * * * * * * * * //

dimensions      [0 0 -1 0 0 0 0];

internalField   nonuniform List<scalar> 
12920
(
32.3794
122.681
121.21
105.377
102.441
97.025
87.625
82.6885
78.2799
75.1423
70.9448
65.8721
59.6235
55.194
53.6043
52.2124
50.9634
48.1621
46.2651
41.0923
192.341
237.786
213.952
141.982
111.113
98.8828
89.1449
85.156
78.7734
72.7966
67.2628
64.4508
63.7564
63.9077
64.0112
63.5516
61.2721
57.4315
53.4085
47.2143
98.1855
159.772
157.122
145.174
124.564
103.798
85.1956
74.803
67.8101
64.6581
62.8008
62.1159
61.5138
60.9104
60.4901
59.7483
58.0336
53.7858
50.2688
46.5264
285.219
222.872
173.163
136.687
112.817
95.8023
82.684
73.6951
68.042
65.0105
62.7381
61.1189
59.282
57.7764
56.1722
53.5802
51.1728
47.8398
45.7853
43.1259
365.42
284.335
180.197
137.519
112.501
97.0382
89.486
82.5433
77.6896
73.7453
70.4595
67.9253
65.794
64.3338
61.8923
57.3194
52.8098
47.3086
44.2814
38.9987
462.738
317.574
202.202
143.11
117.863
103.447
99.2568
89.629
83.1536
77.3451
73.4508
70.2274
68.3223
66.7286
63.7194
58.6151
53.4095
47.306
43.0353
33.4948
296.953
311.709
232.629
157.247
125.466
117.37
109.769
98.4939
89.8635
82.2788
78.3077
73.9528
70.7222
69.1518
66.7883
60.6479
53.8996
46.8269
38.6344
26.7117
210.84
276.058
227.966
147.894
115.98
111.765
184.681
154.213
149.404
141.215
134.705
123.64
114.656
109.234
71.4116
64.0227
54.891
44.8801
33.9267
25.033
100.486
234.796
214.851
157.333
118.423
177.221
318.142
238.042
243.057
241.043
229.189
212.844
179.661
171.634
117.1
66.5843
55.8213
44.0355
33.2469
28.5752
71.704
173.35
154.516
117.139
105.481
158.044
260.058
225.946
222.214
227.765
229.32
216.697
190.968
159.471
103.112
64.407
55.9785
44.8201
36.8638
37.2043
191.521
205.446
177.649
127.694
110.926
159.255
235.053
209.425
215.102
218.466
217.537
189.964
180.365
154.078
89.5635
58.6786
55.7024
49.0808
46.4866
46.8053
281.362
254.664
198.357
134.779
112.128
156.591
241.898
192.545
200.227
194.236
177.6
134.793
130.351
150.673
100.8
57.5789
54.9362
52.5539
50.9596
48.8373
424.104
329.51
233.187
161.284
123.246
106.304
157.6
128.95
126.159
112.822
94.0792
78.9508
77.385
82.65
54.3539
53.4515
52.5642
51.493
50.0197
46.9845
531.187
280.181
205.716
162.922
127.978
107.455
91.9113
83.1758
74.8497
65.5545
57.056
50.5573
46.7893
44.2781
43.2681
43.3795
44.243
44.6255
44.2314
41.8692
280.616
265.623
218.653
189.644
151.473
121.866
95.0623
81.5867
71.8128
64.1098
56.3616
50.5511
46.3165
43.3211
41.325
39.7477
39.0992
38.9778
38.7124
37.2571
223.615
251.518
210.231
192.142
163.989
143.048
109.624
85.0277
68.484
60.1954
54.4344
50.8023
47.5626
45.2318
42.9692
40.8921
39.6002
38.2089
37.6077
36.2724
370.875
254.151
183.752
169.782
159.564
147.453
123.14
94.5127
70.6084
59.6987
55.1443
52.7466
50.2388
47.9277
45.743
43.0856
41.0991
38.0899
36.5377
33.8199
279.923
146.593
119.504
117.628
118.757
116.754
105.017
86.6973
71.6443
63.8613
59.0366
56.4859
53.8567
51.5748
49.7324
47.8086
46.8345
44.5265
42.6533
37.9218
325.853
212.685
130.761
107.329
98.9328
95.7971
90.4204
83.5824
75.2224
68.2574
61.6031
57.5475
54.9689
52.9105
50.9533
47.8603
45.457
42.6664
41.242
37.5575
200.77
146.358
109.901
106.827
101.095
89.0942
79.3006
73.4186
67.9528
64.8174
62.6461
59.6166
55.8989
52.3581
49.9096
47.0721
43.3914
37.8786
33.5503
29.2827
81.254
66.0956
57.7171
57.2826
58.4597
56.9719
52.1668
48.6471
45.7976
42.4894
38.7239
35.6425
33.8698
32.9796
32.2369
31.1904
29.5429
27.7716
25.7281
22.5814
220.019
208.438
138.611
77.3582
55.9687
49.1459
44.4094
42.7128
40.7304
40.0978
40.1032
40.2011
39.8075
38.6871
37.3354
36.3564
35.6985
33.9911
32.5974
29.8713
179.79
158.374
102.369
72.6655
58.0338
49.2315
43.6975
41.041
39.532
38.4834
37.3047
36.0368
34.694
33.5468
32.8168
31.8843
31.0073
29.3226
28.585
26.9506
275.014
173.604
103.451
70.3028
56.3084
48.2659
42.6097
38.5674
36.6672
35.512
34.994
34.3138
33.9705
33.2911
32.7078
31.3038
29.5133
26.9442
25.3702
23.3155
271.886
175.658
125.179
88.9538
66.8575
53.1435
46.3885
41.6598
38.4818
36.4671
35.1793
34.1941
33.7031
33.1358
32.8122
31.9369
30.4748
27.2011
25.068
21.7867
249.855
173.742
120.492
96.3683
74.925
56.8021
48.9163
42.8071
38.7652
36.4581
35.0252
34.2262
33.6806
33.014
32.2693
30.6132
29.035
26.8454
25.5543
21.3223
329.632
299.105
152.166
100.097
79.5855
67.2308
55.42
46.7477
40.1629
37.2968
35.4412
34.8644
34.1827
33.3294
32.02
30.4899
29.337
28.2815
25.9943
18.0886
275.296
201.23
140.15
88.2708
65.9277
55.2263
58.1482
47.0853
42.0612
38.6602
37.4225
36.0961
36.309
36.1592
31.5606
30.0929
29.3745
28.1299
23.1666
15.7246
324.876
174.431
119.234
108.624
83.7696
75.8231
65.1794
52.0063
43.8504
40.6581
38.4632
37.0251
35.9227
35.9714
32.7123
29.0186
28.6302
26.8194
20.533
16.5558
132.313
133.556
87.9188
68.3609
57.8156
56.8214
58.2893
50.5467
42.3199
39.1549
39.4814
42.5459
43.4535
38.99
31.0363
28.1774
27.5212
25.0691
20.8247
20.0773
255.363
112.63
79.5173
65.6809
56.5643
55.8006
53.8333
47.7467
44.004
41.8033
42.5598
42.7996
44.4565
43.8131
29.9936
27.4819
27.176
25.5942
23.9911
23.9926
160.814
150.925
98.1543
67.1427
54.6343
55.4786
59.537
51.5539
46.1166
42.2271
40.5372
34.2332
29.1332
26.8939
25.9749
26.4386
27.0079
27.023
26.944
26.8701
190.303
163.522
112.691
77.5948
59.4182
50.9915
55.6109
47.8895
41.7869
38.8554
34.3107
29.9101
25.7344
24.3109
23.7476
25.347
26.5566
27.6781
28.3626
27.9577
240.437
154.469
100.792
77.3426
61.371
53.1154
47.5641
43.0665
38.3949
34.346
30.8498
27.5752
25.035
23.2861
22.9488
23.0489
24.0293
25.4926
26.1862
25.5403
187.27
146.437
107.04
89.551
70.8719
59.7425
50.0663
43.7955
37.2129
31.9363
28.0899
25.3304
23.5489
22.2684
21.3886
21.069
21.2344
21.7165
22.077
21.6911
231.216
155.099
119.461
92.0174
73.2865
68.7484
59.9018
50.1963
38.1738
30.8125
26.7889
24.7722
23.3415
22.3329
21.7153
21.0362
20.6338
20.1619
19.936
19.1998
209.597
154.11
111.387
91.4859
80.1973
82.6744
82.4564
69.7039
42.5984
30.3402
25.9209
24.5636
23.467
22.7872
22.1782
21.4405
20.9624
19.9971
19.3803
18.231
228.523
128.515
96.6345
88.4212
81.9376
78.7958
70.1084
53.3044
39.3426
32.5748
29.1284
27.6589
26.2785
25.2742
24.4756
23.7839
23.5195
23.2596
23.0344
21.8037
183.548
116.59
77.9225
66.2122
60.9718
56.534
51.6147
46.6144
41.9173
38.6784
35.0119
32.6314
30.7778
29.3324
27.6575
25.5664
23.7535
22.1628
21.5237
20.3933
51.9853
50.8385
49.1482
53.1915
56.1646
55.1036
50.6664
46.6263
42.7856
40.3039
38.0402
35.5074
32.7589
30.5931
28.8602
26.4794
23.6516
20.4906
18.3235
16.1394
111.513
66.2148
55.0898
56.6761
61.5628
60.883
56.0588
50.6915
46.3075
41.8653
38.1101
35.8657
34.7264
33.753
32.4507
30.7195
28.9123
26.6941
25.2428
23.5637
299.543
172.856
92.4651
62.8968
50.9355
45.3066
41.6235
39.7039
37.396
36.3468
35.3156
35.162
34.8159
34.6119
34.3914
34.0533
33.5631
32.3212
31.3778
29.5068
526.086
228.608
91.0243
60.9685
49.3812
41.1754
37.1531
35.0166
33.6432
33.0782
32.1251
31.6527
30.8764
30.4792
30.016
29.3193
28.6311
27.4666
26.9239
25.7766
315.808
181.003
84.3552
57.1329
47.0544
39.1575
35.4076
32.3071
31.1128
30.3466
29.9004
29.6534
29.3298
28.9785
28.3568
27.3029
26.0224
24.5061
23.5482
22.5691
219.556
131.397
90.3201
63.6439
51.408
42.0769
37.5336
34.016
31.9739
30.7761
29.9747
29.5558
29.196
28.91
28.4017
27.3078
25.8865
23.9277
22.7266
21.404
160.995
142.182
91.8141
68.3055
55.2207
43.708
38.9657
34.3674
31.8295
30.2152
29.424
28.9146
28.5641
28.1
27.4879
26.2851
25.0493
23.4516
22.4511
20.2056
374.318
180.62
105.655
75.8552
61.0917
51.3731
42.5813
36.2048
32.6045
30.6727
29.7672
29.3229
28.7462
28.0375
27.0918
26.0204
25.1273
23.7165
21.1702
17.3767
135.544
164.83
109.861
66.3384
52.2972
45.36
43.5442
37.7099
34.0291
32.2185
30.9989
30.3343
29.9819
29.0658
27.0917
25.9374
24.9966
22.919
19.2123
16.9107
176.35
150.19
94.6365
73.7486
57.6974
52.6367
47.2057
40.3407
35.9172
33.7486
32.3517
31.812
31.3446
30.1805
27.6681
25.8968
24.378
21.621
19.1055
18.1063
264.858
116.666
71.7786
55.7182
47.5603
45.2932
45.8317
40.0219
35.5224
34.093
39.6243
44.9732
40.9218
32.0956
27.561
25.8842
24.2072
22.18
21.094
21.2292
187.711
106.609
67.901
52.3098
46.4698
43.7025
42.7057
39.1685
36.8788
36.4526
100.609
67.339
42.1127
34.0466
28.401
26.1766
24.9912
24.2877
24.1498
24.3849
458.724
143.793
75.8293
52.5246
45.4843
44.4659
45.618
40.5683
37.3893
34.4787
32.0617
28.5812
26.0954
25.3335
26.1745
26.2939
26.2184
26.2731
26.3367
26.3979
171.549
173.369
101.492
63.0194
49.5437
42.8367
42.8483
37.8684
33.2455
30.2802
26.5568
23.8641
22.4059
22.3162
23.0829
24.3641
25.3392
26.0063
26.2434
26.0229
176.081
120.407
87.5473
61.417
49.9095
42.8071
38.6758
34.0944
30.5859
26.8469
24.4518
22.2689
21.0739
20.437
20.503
20.9113
22.0841
23.006
23.3593
23.1957
128.115
128.168
94.0961
68.8361
54.558
45.1224
38.9463
33.8783
29.2282
25.6331
23.1135
21.4069
20.3017
19.6258
19.3048
19.2844
19.4824
20.0327
20.4243
20.594
131.813
159.272
114.857
74.4356
57.8661
50.928
42.1291
34.828
28.5598
24.987
22.6835
21.4481
20.4908
19.8782
19.4429
19.1447
18.9521
18.8535
18.8555
18.7912
153.384
145.808
97.0153
74.4327
62.6952
58.4278
52.2511
40.4942
29.7855
25.278
23.0227
22.1299
21.2331
20.6962
20.1035
19.5766
19.2309
18.7868
18.4822
18.2725
153.974
136.061
99.8398
81.1418
66.8931
58.5212
47.979
38.6782
31.4397
28.6156
26.6092
25.78
24.6846
23.9547
23.1832
22.5635
22.1468
21.6727
21.3139
20.7789
176.618
136.449
83.2336
65.8935
56.4304
49.9309
44.0742
40.6362
36.8443
35.0769
32.6396
31.6207
30.3005
29.1328
27.5065
25.5605
23.7944
22.4099
21.6745
21.0489
69.6348
61.5125
53.484
52.9742
58.1686
58.9429
56.8498
51.8161
47.0871
43.4479
40.3101
37.3626
34.6966
32.4121
30.2563
27.37
24.4161
21.3804
19.7483
17.7189
121.286
66.1008
66.7065
68.3887
67.3788
62.2296
54.425
47.907
42.7443
38.3122
35.6207
33.7459
32.4557
30.8496
29.4851
27.9701
26.9462
25.7902
25.2279
23.9792
192.386
146.037
95.1583
65.9727
56.6245
49.361
46.4515
42.5421
40.1595
38.5644
37.955
37.9258
37.9334
37.9696
37.902
37.603
37.0674
36.2426
35.3611
34.5713
297.084
160.751
89.2538
61.4005
51.7995
42.7892
39.8631
36.9482
36.1982
35.3599
34.9575
34.539
34.1037
33.6913
33.1844
32.5103
31.8895
31.1521
30.8008
30.4078
232.004
160.061
84.4672
59.3399
48.6291
40.447
37.3705
34.1007
33.4213
32.498
32.3629
32.0389
31.7618
31.248
30.581
29.7161
28.8462
28.1309
27.7871
27.7197
260.017
140.278
82.4736
58.6936
50.8118
41.5718
38.7102
34.9606
33.8507
32.6007
32.3187
31.8878
31.63
31.1423
30.3431
29.2368
28.1286
27.281
26.9122
26.9316
159.612
136.442
81.4141
60.6744
52.0896
42.7854
39.368
34.9183
33.0915
31.5033
31.1374
30.65
30.4475
30.0179
29.3282
28.2359
27.2517
26.3778
25.8925
25.9486
224.385
138.51
90.0588
64.5947
57.7109
47.7569
41.7532
35.7249
33.7119
31.65
31.4181
30.8076
30.4419
29.7124
28.791
27.626
26.56
25.2831
24.3787
24.5932
259.347
182.716
98.0248
62.9831
52.897
45.7684
42.2538
37.8755
35.2227
33.6311
32.4659
31.7055
30.8725
29.8628
29.4164
27.3314
25.6458
24.1808
23.629
23.6626
199.979
141.225
91.0818
64.4028
53.177
47.4023
45.072
39.9951
37.2044
35.7446
34.376
33.4766
32.343
31.0491
30.1112
27.9866
25.7083
24.5075
24.3405
24.0827
273.866
148.205
76.9774
57.2131
48.3238
45.3275
44.9374
40.255
37.9166
36.8758
39.6783
39.8555
35.9307
32.2313
30.9822
29.0772
27.1182
26.5305
26.5804
26.7005
188.635
123.148
69.9879
53.6385
47.423
43.429
42.0606
39.9585
38.5455
38.1964
59.3965
49.3571
38.2525
34.2256
31.9341
30.269
29.0926
28.9844
29.2298
29.741
255.433
132.91
75.4947
53.7551
46.8561
44.4769
44.2678
40.1304
37.2195
34.3954
31.8288
30.3368
30.0521
30.6795
31.7366
31.0846
30.5237
30.5401
30.6932
30.9448
154.594
154.342
101.938
63.1728
51.6955
44.1783
42.0939
36.9697
33.2349
29.7455
27.6026
26.5358
26.6263
27.1656
28.2289
28.3569
28.9482
29.4419
29.6387
29.7307
207.256
115.856
88.4641
60.2527
50.8647
42.2365
38.5694
33.6416
30.5084
26.9998
25.3987
23.9435
23.65
23.4721
23.753
24.4222
25.5073
26.2938
26.7029
27.2316
135.771
128.582
95.5151
63.6924
51.715
42.3005
38.3981
32.9618
29.6221
26.499
24.7513
23.44
22.8306
22.5368
22.5793
22.81
23.3008
24.1012
24.6441
25.5513
219.412
205.01
106.099
66.8535
53.7256
44.032
38.0555
32.3438
29.0913
26.3857
25.0464
23.9391
23.3737
22.9166
22.7791
22.8003
22.9211
23.2206
23.5217
24.1465
218.052
157.792
101.087
68.811
57.3671
47.2428
41.2782
34.0497
29.8821
27.2794
26.167
25.173
24.565
23.9911
23.553
23.2575
23.1729
23.2093
23.3858
24.0282
169.902
128.15
93.8474
70.9907
61.2288
50.1747
43.1181
36.7155
33.2145
31.4915
30.6545
29.9777
29.2216
28.5014
27.7967
27.2311
26.8221
26.5615
26.4976
26.7876
147.039
147.778
97.7877
66.8236
58.5388
50.0092
46.0974
42.6395
40.3149
39.0177
37.6691
36.9311
35.7713
34.4634
32.6914
30.8483
29.3971
28.6946
28.5911
29.0442
75.5855
68.7283
58.8645
57.8156
59.7766
59.2981
55.8452
50.189
45.5317
41.6006
38.518
35.5759
33.1281
30.6087
28.1581
25.3011
22.8216
20.4301
19.3567
17.7573
110.798
94.3419
91.9458
80.4632
68.035
56.9903
48.1394
41.3308
36.4218
33.5874
31.8734
30.4601
29.2681
27.9642
27.0541
26.0056
25.2283
24.0862
23.4225
21.9208
139.044
144.695
145.027
91.2848
92.5054
68.7222
72.3697
59.6062
63.1093
57.523
60.684
58.4221
60.1659
58.6774
58.7562
57.0451
56.4199
55.1371
54.914
54.8732
270.231
155.452
115.144
76.8063
76.9902
58.0536
63.1196
53.5825
57.8536
53.1711
55.5755
52.9142
53.5746
51.529
51.0792
49.4039
49.0272
48.3323
48.5314
48.6689
482.812
213.093
113.439
78.4596
74.9509
58.055
60.3642
50.8438
53.7924
49.2168
51.4916
49.2432
50.2027
48.6036
48.3108
46.8493
46.4465
45.9443
46.0779
46.4875
192.742
159.102
98.0469
70.8246
73.064
54.2698
59.2846
49.9428
53.2563
49.0978
51.1839
49.1272
49.8605
48.1673
47.4253
45.7406
45.3541
44.9393
45.1697
45.6101
422.569
147.859
98.6276
74.8424
74.9628
58.1007
59.9457
50.0316
50.4484
46.8146
48.0537
46.766
47.45
46.4958
45.8629
44.4629
44.0245
43.6985
43.7982
44.0749
251.604
167.436
105.615
72.6001
77.4996
57.2456
58.7863
49.6445
50.3573
46.7343
48.4186
46.949
47.5908
46.284
44.7818
43.1731
42.5256
41.9384
42.0143
42.1812
421.49
257.705
140.061
77.7438
78.7841
62.5954
56.4114
51.5399
50.854
48.4852
48.2101
46.94
46.536
45.1141
46.6014
42.3065
41.0686
40.6803
40.3866
40.1028
211.804
145.06
104.453
73.4536
69.1097
57.5448
60.1496
56.8581
55.8748
55.1405
53.9553
52.8516
51.8383
50.9836
49.1291
44.3209
41.5413
41.2117
40.9672
40.3384
245.38
176.118
99.7773
71.5604
65.6744
57.0696
58.1312
57.9605
57.8344
55.6954
54.3985
53.9012
54.2077
53.6642
50.4951
45.7248
43.4021
43.4136
43.6694
43.568
321.797
189.961
94.1383
68.2807
65.1717
55.7818
55.6708
57.6013
57.2215
52.8586
51.3725
51.3671
54.1096
54.5964
51.1436
47.1775
45.379
45.757
46.318
46.8112
424.761
183.554
95.811
66.2661
62.548
56.6731
57.8983
56.5663
54.847
52.3324
51.2141
51.4094
53.2038
53.8651
51.2385
48.3212
46.5169
47.0418
47.5447
47.9952
232.313
178.88
125.63
75.4459
76.6657
61.6069
55.7262
50.4019
48.1002
45.4319
45.2533
44.8723
45.7153
45.8392
46.5027
44.7314
45.1778
46.0408
46.5626
47.1945
142.46
122.951
104.066
66.2534
69.4011
53.3199
53.5775
47.4569
45.4419
41.7342
41.4892
40.1173
40.6116
40.3463
40.8918
41.4906
42.6312
43.6137
44.4326
45.6563
316.272
138.847
112.706
71.6944
71.7412
54.8212
55.8765
45.9719
45.582
41.0344
40.9237
39.2252
39.4487
39.0568
39.437
39.7974
40.6287
41.8442
42.7168
44.067
212.115
156.057
114.397
69.3259
69.4765
52.745
53.2983
44.7986
46.0007
41.4823
42.1682
39.98
40.4532
39.5832
40.1281
40.1182
40.6655
41.1334
41.6425
42.2688
227.097
149.467
123.68
75.1875
76.2507
55.602
56.2452
45.1327
47.8124
42.6325
43.4476
40.8083
41.1683
40.0416
40.3978
40.2124
40.6828
40.9883
41.3397
41.7495
266.568
154.445
120.835
73.0449
79.9832
58.0146
60.6132
49.685
52.4189
47.0745
48.2932
45.3954
45.8042
44.3569
44.778
44.4559
44.936
44.9865
45.3115
45.6085
146.973
163.388
145.879
81.8723
87.0349
63.8305
69.554
58.3069
63.1707
57.1845
58.7169
54.6105
53.988
50.8576
50.3456
49.3721
49.8545
50.2495
50.892
51.773
71.1918
69.477
62.7113
61.4287
58.8793
54.3351
49.7134
44.1399
39.4083
34.8426
31.5472
28.2698
25.7551
23.3273
21.7042
20.0916
19.1204
18.0946
17.6472
16.6513
37.6808
36.9814
82.4108
35.5902
38.8054
38.0681
82.0045
44.4968
84.9182
78.4048
40.1217
41.7411
81.2975
65.374
98.4578
35.0314
33.6581
37.3617
95.0684
34.4911
32.8538
85.6039
33.2534
31.7837
95.9265
76.5056
32.383
31.199
242.107
267.577
234.261
82.8058
63.9157
72.5232
60.5023
244.063
228.409
221.529
59.0763
50.9695
57.899
50.1814
243.109
221.643
225.158
49.4313
46.3844
48.3989
44.8851
233.758
225.999
226.437
45.802
43.8867
44.2707
43.1575
218.072
225.878
219.774
43.2311
41.3907
43.1322
44.0954
189.147
213.808
195.17
41.0732
39.5298
44.9036
45.3508
171.495
187.667
165.529
39.0664
38.9655
44.7797
41.1744
162.054
160.249
143.448
39.4191
38.4436
40.8129
36.5739
230.498
250.376
223.029
68.7665
59.7885
64.3309
56.0509
222.067
223.367
223.961
57.0693
49.1209
53.9881
49.137
227.087
224.465
228.741
47.4153
44.3977
48.1479
46.32
229.667
228.719
226.53
43.9421
43.554
46.14
46.2685
221.63
224.108
209.6
43.7552
45.454
46.5532
46.7203
197.186
203.784
192.628
46.1663
47.1571
46.6973
47.4164
168.07
189.248
175.805
47.0624
43.7558
48.0534
51.0688
139.163
161.577
116.282
43.019
36.763
50.6606
37.2783
206.271
240.086
199.609
63.297
54.7927
65.7054
58.0729
215.178
197.039
195.135
53.2835
49.894
56.3217
52.0499
217.374
195.62
195.173
49.073
46.9138
50.8798
47.5528
218.703
194.203
185.804
46.5481
46.1599
46.9038
45.4916
198.685
181.992
145.674
46.1059
46.124
45.4883
44.7375
180.324
140.685
146.112
46.0477
46.3393
42.1566
37.3714
169.004
143.975
139.608
47.3339
51.2005
37.1622
34.0937
119.108
144.345
141.496
50.592
36.4228
32.6994
29.061
193.799
285.084
207.367
70.7635
60.3443
80.0254
61.9883
198.429
199.254
198.614
57.9392
52.4607
57.0282
51.2568
197.831
199.911
196.26
51.2449
47.6765
49.9038
47.1256
182.134
190.42
170.047
47.0085
45.3724
46.3891
44.45
141.327
159.711
131.34
45.1884
41.3433
43.2605
38.6572
128.605
126.115
125.893
37.9461
32.4531
36.5816
31.3278
145.97
127.89
137.307
31.7829
30.0693
30.2372
28.5328
144.927
139.784
137.311
29.6765
28.2158
28.2418
27.0734
55.831
60.9521
53.6212
50.4205
44.0598
48.4998
43.5187
45.174
51.2583
44.5508
41.8317
37.7982
41.7207
37.2944
41.1323
42.9706
39.8772
36.78
34.7448
36.3005
34.412
38.9333
39.3235
38.502
34.3481
33.1565
34.0488
34.2732
37.1751
38.5566
39.9854
32.8409
32.281
34.8601
37.6584
36.1609
40.8129
41.411
32.2508
31.9983
38.4246
38.4573
35.84
41.0078
37.9006
31.881
31.1779
37.514
33.1449
35.2467
37.2217
33.5515
30.9454
29.3964
31.9304
28.834
52.9688
55.3536
49.9359
47.5984
43.1684
45.6366
41.5034
43.8123
48.2234
44.0783
41.345
37.0621
40.321
37.6702
39.5939
43.1736
41.4576
36.1454
34.4553
37.0934
36.1951
39.058
41.3247
42.4407
34.3285
36.6984
36.6153
55.1754
41.7484
42.9979
43.7272
38.2506
42.7694
57.6875
58.0608
43.5761
43.7839
44.4422
43.5532
43.2361
55.7669
47.7394
40.1897
45.053
45.7532
41.7257
35.0259
45.3126
38.4176
33.7116
44.4934
34.1892
33.155
28.9813
36.1274
30.1673
48.9661
56.0719
51.7329
44.0894
41.0196
46.0219
42.4454
44.77
50.3439
46.8907
40.1961
38.1521
41.5758
39.3911
42.1337
45.8742
42.9078
37.6311
36.6011
38.6669
36.5395
42.3676
42.2723
40.9972
36.8411
56.7238
35.9984
34.7114
42.8055
40.9287
39.8524
58.4701
56.898
34.3774
32.8413
43.4581
38.0007
34.5935
52.2669
43.8606
32.125
29.9185
45.4308
34.1208
30.6775
42.0414
36.5295
29.1712
27.0312
33.4839
29.512
27.3891
34.7135
30.0856
26.6389
26.3977
53.3632
62.2575
53.9704
47.7854
43.0286
48.2045
42.8971
47.2409
50.2239
45.1714
42.026
39.4608
40.8064
37.3527
42.8748
43.9297
41.3709
38.5957
36.1246
36.1651
33.9755
40.7885
40.7992
38.7019
35.551
33.9528
33.3286
30.7367
36.7016
37.6238
33.3951
33.3487
30.3292
29.5812
26.6193
29.8393
31.7038
27.4608
29.2383
26.7594
25.6307
23.5701
27.286
26.6548
25.3005
26.1905
25.0815
23.2003
22.7419
26.3528
25.1311
24.9031
24.9694
25.3507
22.751
23.0099
42.2592
46.3797
41.9834
44.6648
40.6383
44.5277
40.8236
36.8401
40.3231
36.4375
39.2098
36.7758
39.5169
36.9318
34.1186
35.5969
34.0046
36.12
34.8882
36.4218
35.3746
32.6623
33.7001
34.2692
34.5352
33.5196
35.1079
35.5309
31.8536
34.9896
37.8794
33.2138
32.6088
36.0157
37.1319
31.5069
38.4767
37.9199
32.4446
31.7423
37.0819
35.2801
30.4761
36.5976
32.1902
31.4432
30.4515
34.2339
31.4727
28.7329
31.0443
28.4163
30.0966
28.9386
30.7904
29.3966
41.6993
44.1616
40.2986
44.4026
40.6078
42.7496
39.6645
36.2926
39.2299
36.9234
39.3346
36.9588
38.9322
37.5103
34.1246
36.4346
35.8114
36.5116
35.5947
37.1921
36.8293
37.0626
34.3617
34.8012
34.2374
36.085
34.639
35.05
60.1944
41.5862
51.3164
40.7519
54.6363
42.7125
56.7961
43.1737
69.3879
50.2848
41.4986
38.0468
58.6584
44.4145
33.8453
46.2868
37.5244
36.3843
32.2398
41.3624
35.1156
28.5352
35.2176
29.8098
31.2883
29.4944
33.6357
30.4931
39.9233
44.3431
41.0593
41.5386
39.5178
42.907
40.1158
37.3367
40.2706
38.2512
38.9719
37.7059
39.4703
37.6455
36.1113
37.5732
35.5675
37.3579
36.796
37.0138
35.0939
41.9769
57.6769
36.0189
42.4491
38.3981
250.766
35.7405
45.1583
99.3011
42.2622
207.862
42.044
194.822
45.8388
45.1624
31.1863
29.1884
60.7333
41.9701
30.8074
29.7389
35.6679
28.5348
27.0097
39.2949
34.6211
29.5315
29.5288
29.8786
26.835
26.9042
33.5404
30.8051
29.6939
30.1174
41.4595
45.3038
41.1877
43.7615
40.173
43.5187
39.2095
38.2195
39.3141
36.0142
39.4249
37.2587
37.6704
34.6772
35.0529
34.8734
32.7625
36.4812
34.3371
33.7083
31.5841
32.7361
32.0785
29.2856
33.6877
31.6704
30.788
28.0585
29.432
28.2389
25.7174
31.0402
29.5155
27.47
26.1661
26.5668
24.9561
23.3727
29.109
28.3275
25.8878
25.4391
25.3447
23.1497
22.9522
28.2227
28.431
25.4945
25.8748
25.8736
22.9997
23.3218
28.6046
29.4122
26.0522
26.5753
41.346
45.0445
41.5995
52.8967
50.513
52.4911
50.9564
37.7768
40.4166
38.2118
49.5699
47.9722
50.3735
49.5887
36.1318
37.7858
36.7916
48.0225
47.4547
49.4582
48.065
34.7005
36.4699
36.4787
47.0115
45.7382
47.2071
45.8662
33.7215
36.7557
37.1706
45.632
44.815
45.7093
45.4195
32.6777
36.9881
35.3228
44.4569
43.4022
45.2708
45.2123
31.4214
34.5012
32.3947
43.2718
42.3575
45.0714
44.2942
29.8495
31.8498
30.5937
42.046
40.0381
43.9658
42.6011
41.3729
43.0957
40.5125
51.7333
50.6182
49.6771
50.0359
38.2827
39.9084
38.7685
50.1729
49.6889
49.9063
49.6799
36.9812
38.4712
37.8483
49.5446
47.4645
49.2697
46.6123
38.8407
38.5248
57.1972
46.7499
45.9306
45.997
47.0698
40.2709
57.3262
51.8442
45.8171
45.134
46.9886
45.2871
37.1118
48.9966
41.3442
45.0744
45.3318
44.696
45.2362
32.9445
39.4217
35.1946
45.2961
44.5654
45.5845
45.4191
30.7023
34.1158
31.5615
44.232
42.7823
45.1029
43.5435
40.4182
43.3918
40.8926
49.1788
50.0088
50.4588
50.0985
38.8841
40.2809
38.482
49.897
49.5222
49.6193
48.1995
37.7225
37.8642
35.8955
49.0314
46.2494
47.7667
44.7781
58.5979
35.2461
33.5382
45.4888
45.9351
43.8464
42.0434
54.8002
33.0846
32.0168
45.8751
44.8392
41.71
41.2897
39.9788
31.6868
31.0974
44.3462
44.8566
41.5491
43.5606
35.0322
31.0858
31.4273
45.3068
45.5227
44.1178
44.8663
31.8959
31.6057
31.7203
45.292
43.8328
44.8903
44.263
40.8626
44.0959
39.6057
51.2906
49.8503
52.0974
47.5302
37.9723
38.1076
35.1962
49.2133
47.4563
46.3564
43.6958
35.0923
34.3047
32.1674
46.9635
44.6232
43.3864
41.4314
32.3881
31.324
28.8599
43.6069
42.1212
40.8503
39.7792
30.6297
28.444
27.5273
41.9432
41.781
40.0336
39.8994
30.0352
27.3447
27.1903
41.9609
43.5427
39.9942
40.2496
30.5025
27.3286
27.8501
43.8907
44.4735
40.7696
41.2243
31.1371
28.012
28.2973
44.4974
44.1749
41.4057
40.966
57.5903
59.2745
58.5589
107.108
104.225
111.308
117.56
55.4922
58.1485
57.769
106.418
111.669
117.452
119.581
55.4596
57.7658
56.9186
116.421
113.868
120.766
127.021
53.8777
56.2328
54.9668
115.903
117.605
129.33
133.258
53.13
54.7813
54.3615
120.834
118.739
134.246
133.205
51.8226
54.1827
54.0871
120.358
121.109
132.212
126.462
51.1283
54.0501
53.6231
123.609
123.309
126.358
127.156
47.8513
53.4488
51.333
125.474
122.352
127.984
129.659
58.1835
56.0197
57.6444
101.992
117.394
99.0915
117.404
57.8642
57.6518
57.7218
118.004
120.669
118.696
123.178
56.4234
57.5131
54.6907
122.341
131.081
126.341
139.948
54.5491
53.4017
52.7834
133.829
138.426
143.844
149.682
53.8542
52.6376
51.8464
139.286
138.102
150.363
148.746
54.0699
52.0317
53.7908
136.552
128.827
146.453
135.115
53.8572
54.3112
54.6388
127.135
127.303
131.512
128.405
51.4103
54.395
51.798
127.901
128.432
128.445
126.862
57.5903
57.0066
57.4674
97.6774
117.079
102.024
114.217
57.4779
57.0545
55.9386
118.34
122.805
114.767
118.117
54.245
55.6084
53.3494
126.017
139.631
120.258
129.969
51.5827
52.4995
50.9651
143.44
148.845
132.842
137.157
50.95
50.7327
50.5514
149.801
149.756
138.023
138.104
53.4697
50.9449
52.7294
147.333
135.709
137.071
129.927
54.7465
53.4121
54.209
131.998
128.596
128.171
127.476
52.0631
54.2166
52.338
128.575
127.278
127.686
125.962
57.1156
58.8562
54.0577
101.457
111.49
100.551
97.9803
55.1532
53.0888
50.7725
112.05
116.114
99.5171
107.31
53.1055
50.7162
49.1891
117.644
125.412
110.928
110.136
51.2666
48.7128
47.7029
127.955
131.955
112.005
115.705
51.2169
48.1522
48.1812
133.018
133.076
118.364
117.259
52.7545
48.4776
48.7469
132.563
127.019
119.068
119.718
53.8178
49.4738
49.8235
126.932
126.702
122.274
120.754
52.3371
50.0964
48.3018
127.216
127.942
122.892
117.65
44.247
35.5205
47.0302
38.6919
40.729
36.2245
52.1092
48.5354
36.0241
51.9879
42.4195
40.815
36.7953
195.789
85.9527
69.467
72.2548
216.854
56.1538
103.41
247.749
37.7667
34.733
35.9155
36.3233
35.1629
35.5638
37.9492
45.0891
39.0169
37.1594
47.3544
36.7814
51.9307
42.9831
50.7199
43.3756
37.3973
56.5102
37.2817
201.225
43.4037
86.7916
221.391
66.7143
78.2131
100.544
250.961
59.2321
61.8057
43.2838
56.8816
45.0974
56.6759
44.2888
61.0439
107.74
74.9138
84.3265
197.425
76.2673
107.854
178.47
104.78
72.7513
83.3167
104.356
75.8317
91.0136
121.184
57.7937
40.8229
41.1559
49.6653
42.3907
55.6156
50.6316
58.3587
43.7943
41.7314
49.7558
43.5128
57.0246
50.6026
100.089
200.135
67.6541
79.6177
101.297
181.821
67.0878
96.7007
96.3757
60.1801
74.8976
82.1046
123.931
65.4341
45.824
86.7388
42.2965
219.532
41.3245
234.676
46.3656
35.0382
35.3388
34.5231
34.4473
35.3238
34.8983
33.9245
35.2185
35.364
34.094
32.9786
35.4108
35.159
33.462
42.0408
43.1234
59.7404
36.2029
240.3
35.7848
38.8794
46.2907
219.652
86.7549
42.9156
235.199
46.7677
42.163
34.9428
34.2524
35.1684
33.9062
34.8258
33.7031
35.0773
35.089
32.6941
34.9396
33.3788
35.0021
33.207
35.0795
44.3765
99.0439
41.4955
140.84
41.8895
184.063
43.9096
34.5437
35.1427
32.7886
32.5264
34.849
34.8834
32.0478
34.2948
34.2775
32.3308
31.1462
34.6085
34.0122
31.6165
45.5512
207.169
94.3603
42.8049
193.758
46.2309
42.4832
44.4483
128.227
92.5065
41.203
173.726
43.701
42.1004
34.3474
32.2215
34.6263
31.9478
34.6944
31.7568
34.3035
34.1008
30.9372
33.8157
31.5713
33.8565
31.3512
34.0684
154.809
173.977
153.611
97.1875
73.2067
95.1224
74.7591
155.443
149.374
149.521
64.8215
64.3146
63.9547
60.5171
143.107
149.357
150.188
59.2211
53.0944
57.5433
55.5453
138.039
149.351
147.189
51.9486
51.6436
54.9573
54.0703
128.972
142.448
138.497
50.3724
48.0232
52.8859
50.9302
118.794
130.829
124.244
46.8777
46.7867
49.0749
47.4922
111.08
119.467
117.933
46.9257
47.1995
47.4915
47.6376
99.1309
116.647
107.103
47.3345
41.0619
48.4467
43.0588
172.481
167.988
159.586
107.36
95.9719
104.195
85.1907
133.279
276.353
291.353
159.582
138.662
157.117
260.568
91.7733
238.153
233.455
100.583
95.3533
96.4738
232.951
85.8047
243.092
235.171
89.3543
86.7482
86.3812
236.094
83.8171
238.638
234.984
81.2692
80.5887
84.7706
233.39
78.8796
224.857
225.74
76.5476
74.7284
80.1697
223.639
75.1183
205.554
211.99
70.1029
68.0883
76.2834
206.307
65.8852
174.271
183.187
60.1043
59.3668
68.6145
176.621
66.6283
172.489
170.993
61.7915
63.1611
65.6882
172.208
104.223
111.499
102.168
42.8268
37.3561
41.0265
35.6744
153.993
153.833
150.913
86.3405
76.3558
80.9122
74.3891
114.585
241.867
254.542
141.311
119.169
138.674
237.996
87.19
223.816
225.675
94.3057
89.9224
91.6922
224.465
80.3986
223.737
223.047
81.9388
80.7477
81.1914
224.776
80.0385
228.985
231.009
79.6236
79.2786
79.9634
231.863
80.9143
228.212
230.486
79.2488
79.3631
80.8799
228.582
79.4838
211.131
217.384
79.482
79.3066
79.8036
212.589
76.5974
185.441
191.697
76.8426
74.2529
78.0841
188.795
71.1756
153.905
161.681
67.1035
66.3884
72.6819
150.94
97.4459
93.9002
89.1425
39.5526
34.1225
38.8269
31.4544
148.229
162.013
151.771
89.0616
74.116
87.2984
74.9197
111.314
211.746
234.039
133.662
109.563
134.294
207.141
85.5558
213.242
197.307
86.2927
84.9301
87.0574
198.96
81.4197
215.232
199.149
83.017
81.9915
82.8539
199.253
77.7051
219.083
204.015
80.3285
80.1348
78.1687
205.694
77.3035
214.815
203.947
79.3172
78.8408
77.1004
200.297
72.0013
183.783
163.575
75.7518
73.4018
76.1566
159.427
69.7485
179.659
165.047
73.0674
74.3165
68.1248
165.164
76.1442
142.064
143.814
82.5797
81.2982
79.4789
138.107
84.1298
94.9636
81.2802
36.8535
30.2413
33.8216
28.5332
152.537
173.431
163.29
83.3271
82.7006
94.1082
90.3481
120.738
213.73
246.65
139.151
118.5
140.179
214.815
85.0266
193.193
189.525
90.6391
86.0266
89.7225
190.986
80.8568
200.328
200.203
81.8239
81.1851
81.5917
200.132
75.4723
190.077
191.119
78.149
76.746
77.0262
186.456
68.9752
167.912
169.574
73.997
73.3307
71.0246
157.958
53.4548
130.927
122.649
59.8741
54.2712
57.9667
119.629
49.6228
134.711
126.254
50.2853
50.5591
49.4415
133.781
51.7457
154.355
151.555
52.4365
52.539
51.3603
155.102
85.9753
99.7332
90.3877
32.7889
28.207
32.3146
27.8625
136.069
162.105
136.916
91.9168
75.5395
92.1319
71.99
128.519
136.062
137.438
62.9966
59.0719
67.0397
67.0381
121.395
131.896
122.591
55.9453
53.2931
64.0793
59.3007
103.375
112.071
105.828
51.5204
48.8837
54.7183
53.5183
84.7572
96.8713
87.7766
45.7806
43.9227
49.8568
47.0107
77.3412
82.2956