/*--------------------------------*- C++ -*----------------------------------*\
  =========                 |
  \\      /  F ield         | OpenFOAM: The Open Source CFD Toolbox
   \\    /   O peration     | Website:  https://openfoam.org
    \\  /    A nd           | Version:  10
     \\/     M anipulation  |
\*---------------------------------------------------------------------------*/
FoamFile
{
    format      ascii;
    class       volScalarField;
    location    "2.6";
    object      omega_0;
}
// * * * * * * * * * * * * * * * * * * * * * * * * * * * * * * * * * * * * * //

dimensions      [0 0 -1 0 0 0 0];

internalField   nonuniform List<scalar> 
12920
(
34.5782
123.741
120.235
105.327
102.697
97.1129
87.6446
82.752
78.3446
75.1894
70.9391
65.8073
59.5435
55.1799
53.6301
52.2298
50.9561
48.1293
46.2196
41.0165
195.797
242.431
213.411
140.513
110.742
98.7908
89.0904
85.1248
78.6892
72.7024
67.2167
64.463
63.8069
63.9675
64.0586
63.5671
61.1942
57.3273
53.2689
47.1189
99.8197
160.414
157.531
145.266
124.454
103.588
85.01
74.7122
67.7747
64.6713
62.8322
62.1536
61.5431
60.9341
60.5098
59.7483
57.9837
53.6951
50.1919
46.4861
287.323
221.709
173.004
136.408
112.607
95.6571
82.566
73.6359
68.0135
65.0135
62.7452
61.1261
59.2843
57.775
56.1524
53.546
51.1292
47.7946
45.7471
43.1025
377.544
281.911
178.857
137.191
112.33
96.9675
89.4744
82.5455
77.6888
73.7541
70.4674
67.9386
65.8107
64.3415
61.8576
57.2494
52.7337
47.2375
44.216
38.9449
473.123
314.506
200.403
142.374
117.699
103.464
99.2845
89.6072
83.1393
77.3434
73.4568
70.2455
68.3522
66.743
63.6845
58.5448
53.3307
47.2258
42.9296
33.3927
300.927
312.699
229.79
155.907
125.286
117.46
109.779
98.4648
89.842
82.2876
78.3144
73.9556
70.7439
69.1818
66.7763
60.5583
53.8076
46.7133
38.4691
26.5779
222.109
280.028
226.376
146.329
115.713
111.794
184.426
154.222
149.286
141.229
134.66
123.536
114.601
109.203
71.3842
63.9349
54.7643
44.7177
33.7534
24.9456
106.257
238.387
215.632
156.57
117.987
176.967
318.125
237.695
242.948
240.858
228.904
212.382
178.999
171.683
116.962
66.5095
55.6771
43.8652
33.1119
28.5454
76.5333
174.96
154.297
116.966
105.456
157.96
260.187
225.574
222.278
227.967
229.421
216.445
190.565
158.813
103.243
64.4034
55.8468
44.6802
36.813
37.2291
190.309
205.876
177.682
127.625
110.921
159.018
234.301
209.675
215.192
218.694
217.577
189.619
180.489
152.855
89.5725
58.7156
55.6663
49.0373
46.5006
46.8281
284.279
254.13
198.066
134.529
112.092
156.504
241.215
192.618
200.25
193.969
177.15
134.475
130.506
150.961
100.71
57.5761
54.932
52.5524
50.9496
48.8291
427.116
328.391
232.086
160.452
122.837
106.116
157.137
129.015
126.197
112.691
93.8642
78.8901
77.4352
82.7523
54.3955
53.47
52.5795
51.4978
49.9967
46.9616
536.116
274.055
205.41
162.793
127.758
107.3
91.8586
83.1667
74.8104
65.4846
56.9855
50.5103
46.7701
44.2765
43.2843
43.4031
44.2684
44.6336
44.222
41.8398
292.273
266.16
218.728
189.641
151.129
121.467
94.8135
81.4803
71.759
64.0531
56.297
50.5041
46.2867
43.3047
41.3167
39.7476
39.1089
38.987
38.7147
37.2424
235.427
252.249
209.306
192.317
164.038
142.84
109.267
84.7401
68.3273
60.1317
54.3988
50.7822
47.5475
45.2197
42.9564
40.8821
39.5936
38.2049
37.6025
36.2651
369.615
252.671
183.455
170.074
159.907
147.441
122.866
94.0524
70.2926
59.6104
55.1257
52.7422
50.231
47.919
45.7281
43.0648
41.0702
38.0595
36.5106
33.7998
269.787
143.848
119.408
117.96
119.133
116.969
104.792
86.4558
71.4877
63.8057
59.0182
56.4805
53.8483
51.568
49.7273
47.8097
46.8315
44.5028
42.6155
37.8756
325.952
210.835
129.771
107.113
98.9768
95.8916
90.4524
83.5608
75.1812
68.2017
61.5505
57.5249
54.9578
52.8966
50.9225
47.8133
45.4159
42.6365
41.2127
37.5203
200.772
144.454
109.83
107.086
101.139
89.0265
79.2722
73.4092
67.959
64.8667
62.6943
59.6277
55.8847
52.3482
49.9028
47.0376
43.3096
37.7726
33.4613
29.2407
81.7573
65.5511
57.4555
57.4463
58.6301
57.0228
52.1254
48.6453
45.7897
42.4535
38.6751
35.6152
33.872
32.9902
32.2441
31.1792
29.5184
27.7371
25.6652
22.54
214.846
210.579
136.347
76.3383
55.7152
49.0887
44.4085
42.7281
40.7601
40.1433
40.1643
40.2479
39.8224
38.6768
37.3298
36.364
35.6977
33.9627
32.5578
29.8418
181.557
157.425
102.157
72.5656
57.9743
49.1894
43.6909
41.0605
39.5579
38.5066
37.3155
36.0373
34.6912
33.5494
32.8238
31.8839
30.9972
29.31
28.5738
26.9414
278.156
172.313
102.732
69.9928
56.2052
48.2201
42.5858
38.5658
36.6831
35.5343
35.0176
34.3342
33.9895
33.3063
32.7143
31.2895
29.485
26.9157
25.3444
23.3017
271.451
174.212
124.884
88.458
66.5827
53.0246
46.3418
41.6426
38.4775
36.4761
35.1934
34.2117
33.724
33.1574
32.83
31.9386
30.4528
27.1586
25.0275
21.761
251.519
171.912
120.228
96.1437
74.6137
56.6016
48.8351
42.7633
38.7537
36.4674
35.0435
34.2488
33.7014
33.0302
32.2749
30.6037
29.0203
26.8281
25.5291
21.2745
356.491
302.943
149.627
99.6235
79.5218
67.1539
55.3063
46.6621
40.1203
37.2958
35.4555
34.8876
34.1992
33.3358
32.0185
30.4878
29.34
28.2738
25.9369
17.9868
274.532
201.328
139.424
87.5192
65.6214
55.0987
58.1228
47.0148
42.0103
38.6872
37.4272
36.1266
36.3495
36.1749
31.5467
30.0918
29.3794
28.1096
23.0366
15.6626
335.421
173.206
119.625
108.88
83.5194
75.6613
65.0467
51.897
43.8306
40.6795
38.4661
37.0415
35.937
36.01
32.6884
29.0259
28.6353
26.7753
20.4281
16.5295
131.067
133.764
87.3159
68.2386
57.711
56.7688
58.2407
50.4324
42.2671
39.1699
39.5452
42.6332
43.4591
38.8777
30.9826
28.1871
27.5125
25.0175
20.7902
20.0857
256.978
112.758
79.4653
65.7137
56.5551
55.8087
53.7871
47.7492
44.0154
41.831
42.5959
42.8481
44.6235
43.6048
29.94
27.4975
27.1807
25.5753
23.9982
24.0078
156.15
150.969
97.355
66.9586
54.5868
55.5335
59.5417
51.5238
46.1106
42.2331
40.5686
34.1307
29.1349
26.8878
26.0065
26.4718
27.0284
27.0406
26.9606
26.8863
186.938
162.89
112.039
77.1976
59.2028
50.956
55.6453
47.8091
41.7795
38.8521
34.2865
29.8537
25.7107
24.3174
23.7803
25.3828
26.5933
27.7129
28.3857
27.9648
248.019
155.008
100.726
77.2714
61.2771
53.0839
47.56
43.052
38.3729
34.3232
30.8257
27.5519
25.0177
23.2829
22.959
23.0668
24.0676
25.5206
26.197
25.5337
180.991
146.991
107.049
89.5401
70.7787
59.6489
50.0229
43.7452
37.1523
31.8908
28.0601
25.313
23.5409
22.2656
21.3918
21.0774
21.2493
21.7315
22.0847
21.6889
217.684
153.341
119.65
92.0488
73.3306
68.8226
59.9234
50.0565
38.0318
30.7371
26.7585
24.7621
23.3376
22.333
21.7182
21.0387
20.6366
20.1636
19.9369
19.1968
216.173
154.35
110.928
91.4637
80.375
82.9904
82.7065
69.238
42.1856
30.1951
25.8912
24.5601
23.4678
22.7905
22.1807
21.4421
20.96
19.9904
19.3717
18.2256
232.172
128.848
96.7881
88.7435
82.2029
78.9199
69.909
52.994
39.1396
32.5025
29.1096
27.6537
26.2744
25.2724
24.4761
23.7887
23.5284
23.2681
23.0384
21.7942
176.839
116.167
78.0023
66.3279
61.0981
56.579
51.6024
46.5817
41.8913
38.6559
34.9848
32.6145
30.7639
29.3129
27.6271
25.5283
23.7213
22.1448
21.5122
20.3878
51.6718
50.7307
49.1849
53.4728
56.3428
55.1843
50.6405
46.6071
42.7697
40.3016
38.0328
35.4839
32.732
30.5755
28.8345
26.4311
23.589
20.4323
18.2808
16.1204
111.296
65.2851
54.6841
56.8713
61.7931
60.9932
55.9768
50.6472
46.2612
41.8118
38.0744
35.8623
34.7367
33.7537
32.4367
30.6945
28.8752
26.6562
25.2136
23.5529
295.924
171.51
91.3201
62.5513
50.8263
45.2469
41.6125
39.6969
37.397
36.355
35.3345
35.1829
34.8325
34.6267
34.4056
34.061
33.5607
32.3018
31.3535
29.4878
532.232
223.76
90.2629
60.8089
49.3189
41.1285
37.1447
35.024
33.659
33.0935
32.1361
31.6615
30.8839
30.4886
30.0216
29.319
28.6247
27.4595
26.9167
25.7706
340.676
180.42
83.6532
56.9037
46.9783
39.1004
35.3883
32.3003
31.1248
30.3621
29.918
29.6701
29.3439
28.9878
28.3567
27.2927
26.0057
24.4912
23.5368
22.565
228.73
130.199
90.0631
63.3911
51.291
42.0063
37.5072
34.0032
31.9763
30.7868
29.9896
29.5731
29.2132
28.9245
28.4066
27.299
25.8674
23.9068
22.7105
21.3963
163.491
142.26
91.3748
68.1176
55.0674
43.6008
38.9235
34.3353
31.8244
30.2221
29.4387
28.9312
28.5791
28.1107
27.4885
26.2776
25.0368
23.4372
22.4315
20.1838
368.151
177.029
104.923
75.6303
61.0233
51.3119
42.5068
36.1605
32.5874
30.6788
29.7806
29.3385
28.7563
28.0414
27.0905
26.0193
25.1222
23.6923
21.1136
17.3409
136.225
166.608
108.422
65.8104
52.1423
45.2744
43.4864
37.6825
34.0098
32.2372
31.0033
30.3556
29.9937
29.0627
27.0824
25.9349
24.9861
22.8734
19.159
16.8921
177.925
150.164
94.3938
73.7225
57.5945
52.5695
47.1815
40.2971
35.9055
33.7605
32.3596
31.8324
31.3551
30.1771
27.6501
25.8883
24.355
21.5826
19.0779
18.1023
277.682
116.125
71.5597
55.648
47.5184
45.3003
45.8159
39.9504
35.5085
34.1209
39.7454
45.0222
40.7889
32.0011
27.534
25.8746
24.1902
22.1635
21.0972
21.2435
197.213
106.194
67.8325
52.3134
46.4755
43.7256
42.6786
39.1728
36.8935
36.6477
100.86
66.6239
42.016
33.9735
28.3708
26.1724
24.9933
24.2987
24.1672
24.406
471.142
142.11
75.5566
52.4437
45.4943
44.5127
45.6253
40.5671
37.3859
34.4796
32.0525
28.5603
26.0892
25.3484
26.2045
26.3127
26.2388
26.2944
26.3571
26.4161
182.478
175.484
100.248
62.7329
49.4524
42.8152
42.8631
37.8297
33.2367
30.2571
26.5342
23.844
22.409
22.3317
23.1102
24.3958
25.3685
26.0297
26.2598
26.031
176.076
120.283
87.5278
61.3403
49.8692
42.7922
38.6689
34.0765
30.5616
26.823
24.4336
22.2562
21.0699
20.4414
20.5132
20.9303
22.1103
23.0219
23.3659
23.1956
129.118
128.523
93.7925
68.7339
54.4871
45.0592
38.9103
33.8369
29.1884
25.6037
23.0951
21.3971
20.2983
19.627
19.3103
19.2917
19.4939
20.0451
20.432
20.597
136.176
160.169
114.203
74.2887
57.8609
50.9211
42.0706
34.7432
28.499
24.9558
22.6691
21.4429
20.4891
19.8791
19.4449
19.1475
18.9552
18.8566
18.8583
18.7917
156.482
146.477
96.7074
74.4331
62.7416
58.4642
52.1708
40.2751
29.6515
25.2305
23.0101
22.1272
21.2319
20.6963
20.1026
19.5762
19.2296
18.7839
18.4796
18.2718
152.534
137.111
100.168
81.3406
66.9462
58.4654
47.8294
38.5369
31.3665
28.5953
26.6041
25.7783
24.6807
23.9511
23.1794
22.5616
22.1454
21.6704
21.3096
20.7757
184.294
136.327
83.0233
65.8864
56.4347
49.9108
44.0501
40.6209
36.8381
35.0705
32.6317
31.6157
30.2897
29.1121
27.473
25.5211
23.7615
22.3879
21.6607
21.0431
65.3746
60.6803
53.2513
53.0475
58.4684
59.0993
56.8705
51.7863
47.0551
43.4237
40.2857
37.3342
34.6704
32.3873
30.2173
27.3123
24.354
21.3318
19.7155
17.7018
115.889
65.4823
66.8395
68.5754
67.512
62.1636
54.3347
47.8346
42.6829
38.2694
35.6015
33.738
32.4461
30.8336
29.4668
27.9533
26.9334
25.7822
25.2212
23.9746
178.762
145.905
94.3522
65.6852
56.4761
49.2683
46.3866
42.4796
40.1183
38.5467
37.9585
37.9349
37.943
37.9779
37.905
37.5954
37.0542
36.2249
35.3441
34.5614
292.663
159.332
88.7166
61.2679
51.6878
42.7325
39.8308
36.9342
36.1948
35.3583
34.957
34.5366
34.1004
33.6856
33.1751
32.4987
31.8774
31.1441
30.7968
30.4069
241.382
157.219
83.8179
59.1492
48.5007
40.3789
37.3271
34.0797
33.4147
32.4981
32.3656
32.0397
31.7595
31.2405
30.5687
29.7012
28.8329
28.1236
27.7856
27.719
256.288
140.097
82.1027
58.558
50.7108
41.5088
38.6716
34.9367
33.84
32.5979
32.3204
31.8904
31.631
31.1366
30.3294
29.219
28.1139
27.274
26.9133
26.9306
160.872
135.752
80.8993
60.537
51.9516
42.7015
39.3083
34.8769
33.072
31.496
31.1377
30.6517
30.449
30.0139
29.3159
28.2209
27.2384
26.3691
25.891
25.9405
229.442
137.943
89.7141
64.4875
57.6569
47.6941
41.678
35.6799
33.6854
31.6411
31.4166
30.8058
30.4389
29.7038
28.7769
27.6119
26.5428
25.2651
24.365
24.5844
258.683
182.085
97.0568
62.6627
52.7469
45.6928
42.1819
37.8349
35.1951
33.6212
32.4569
31.7019
30.8646
29.8501
29.3843
27.3057
25.6221
24.1647
23.6157
23.6493
197.764
141.797
90.9489
64.3702
53.116
47.3859
45.068
39.9575
37.1892
35.7382
34.3666
33.4728
32.3311
31.0346
30.0822
27.9497
25.6862
24.4934
24.3245
24.0627
272.91
146.657
76.4982
57.1557
48.2608
45.3496
44.9238
40.2143
37.9158
36.8925
39.7263
39.8459
35.8693
32.1987
30.9549
29.0491
27.1099
26.5209
26.5706
26.6965
183.258
122.399
69.7389
53.6203
47.3861
43.4373
42.0464
39.9668
38.554
38.3097
59.3907
49.1417
38.2025
34.2006
31.9004
30.2528
29.0994
28.9967
29.2468
29.7576
251.108
133.645
75.3512
53.7396
46.8333
44.5131
44.2596
40.126
37.2027
34.3753
31.8156
30.3319
30.0572
30.6999
31.7283
31.0836
30.5366
30.5559
30.7103
30.9583
156.003
155.523
100.909
62.9331
51.5718
44.1101
42.0735
36.9229
33.2054
29.7032
27.5816
26.5189
26.6247
27.1653
28.2258
28.3692
28.9667
29.4543
29.6473
29.7358
199.675
115.954
88.4414
60.2228
50.7911
42.1988
38.5343
33.5939
30.4671
26.9645
25.3754
23.9296
23.6407
23.4631
23.7498
24.427
25.5172
26.3003
26.7063
27.2279
135.044
128.39
95.3875
63.5218
51.5878
42.2269
38.3472
32.9066
29.5803
26.4642
24.7294
23.4249
22.8213
22.5299
22.5701
22.8028
23.2957
24.0959
24.6387
25.5397
231.113
208.012
104.632
66.6356
53.6231
43.953
37.9891
32.2796
29.0499
26.3558
25.0294
23.9266
23.3654
22.9115
22.7722
22.7935
22.912
23.2112
23.5125
24.1334
222.422
158.765
100.842
68.7301
57.2463
47.127
41.1734
33.9487
29.8254
27.2499
26.152
25.1597
24.5559
23.9827
23.5461
23.252
23.1666
23.2004
23.3774
24.0189
172.551
128.384
93.6704
71.0238
61.1626
50.0704
43.0126
36.6368
33.1809
31.4795
30.6516
29.9697
29.2116
28.489
27.7847
27.2217
26.8151
26.5564
26.4921
26.7798
145.421
148.185
96.3004
66.6015
58.4432
49.9322
46.059
42.6195
40.3061
39.0092
37.6582
36.9145
35.7426
34.4221
32.6412
30.8018
29.3657
28.6738
28.5762
29.0365
74.3377
67.7548
58.708
57.9121
59.9644
59.4201
55.8251
50.1487
45.4951
41.5722
38.4929
35.5488
33.0996
30.5726
28.1124
25.2494
22.774
20.3972
19.3349
17.745
111.058
94.6532
92.1789
80.2591
67.8964
56.8627
48.0416
41.2644
36.3866
33.5785
31.8747
30.4628
29.2695
27.9659
27.0568
26.0081
25.229
24.0855
23.4185
21.9174
139.629
145.756
143.803
90.166
91.2955
67.9791
71.537
59.023
62.4885
57.0377
60.172
57.9485
59.6692
58.1856
58.2563
56.5611
55.9542
54.7137
54.5074
54.532
274.563
155.446
114.359
76.9682
76.3176
57.8742
62.5925
53.2616
57.3927
52.7868
55.1347
52.5057
53.1473
51.1245
50.6815
49.0426
48.6825
48.0218
48.2271
48.4064
499.161
207.777
111.36
78.5451
73.9941
57.9136
59.7593
50.5455
53.3437
48.8991
51.1079
48.9047
49.8338
48.2505
47.9554
46.5219
46.1343
45.6604
45.8022
46.2514
199.122
158.984
96.8959
70.9579
72.2887
54.0658
58.782
49.6522
52.8498
48.7769
50.8127
48.7893
49.4976
47.8182
47.0782
45.4356
45.0628
44.6737
44.9071
45.3815
390.394
148.345
97.8028
75.0544
74.2239
57.8929
59.3684
49.7121
50.0635
46.5465
47.7489
46.4889
47.1452
46.1904
45.5512
44.1783
43.7511
43.446
43.5451
43.8613
260.205
168.018
104.749
72.7745
77.0025
57.0323
58.4691
49.3604
50.0726
46.4791
48.139
46.6739
47.2903
45.9752
44.4743
42.9015
42.2651
41.7084
41.7865
41.9849
429.344
259.526
138.393
77.4977
78.0682
62.1961
56.0257
51.3801
50.5892
48.2821
47.9597
46.706
46.2823
44.8554
46.2426
42.0371
40.8462
40.4798
40.1838
39.9361
214.542
145.088
103.855
73.6365
68.8271
57.3164
59.784
56.6551
55.6658
54.9377
53.7551
52.6515
51.6398
50.7815
48.6982
44.029
41.3336
41.0247
40.7683
40.1791
260.883
176.192
98.8195
71.8359
65.3639
57.072
57.8042
57.6419
57.5797
55.4838
54.2293
53.7041
53.9854
53.4312
50.0682
45.4449
43.1975
43.2253
43.4677
43.3934
330.538
188.432
93.2021
68.493
65.0227
55.6655
55.3884
57.2984
56.9604
52.6666
51.24
51.2393
53.9183
54.3553
50.7345
46.9004
45.1619
45.5457
46.0915
46.6062
421.107
185.439
95.7839
66.5401
62.4893
56.7654
57.5704
56.28
54.5957
52.1173
51.0328
51.2356
52.9902
53.6372
50.8331
48.0431
46.2883
46.8101
47.2946
47.7662
239.318
180.269
125.271
75.5188
76.3806
61.5839
55.3534
50.181
47.7964
45.2016
45.0089
44.6481
45.4872
45.6103
46.2366
44.5154
44.9582
45.8075
46.31
46.9616
140.579
122.17
103.896
66.3531
69.2494
53.4257
53.3969
47.4526
45.2453
41.6413
41.3144
39.9828
40.4489
40.1912
40.7201
41.3138
42.4369
43.4058
44.2063
45.4403
291.868
138.473
112.689
71.896
71.5309
54.895
55.6557
45.8538
45.3684
40.8841
40.7397
39.0763
39.2877
38.9066
39.2851
39.6455
40.4672
41.6667
42.5188
43.8752
218.966
156.441
113.851
69.4266
69.3057
52.8157
53.1549
44.7794
45.8363
41.3693
41.9931
39.8395
40.2846
39.4302
39.96
39.9512
40.4887
40.9532
41.4452
42.0898
230.01
150.251
124.003
75.4187
76.0696
55.5797
56.039
45.0223
47.6089
42.4575
43.2403
40.6413
40.9862
39.8793
40.2281
40.0469
40.508
40.81
41.1444
41.575
269.844
155.226
120.754
73.1931
79.9344
57.954
60.4504
49.5416
52.2041
46.8876
48.0712
45.1961
45.5844
44.1524
44.5639
44.2433
44.7082
44.7576
45.0675
45.3925
139.293
164.602
145.511
81.6808
86.8774
63.642
69.3251
58.0641
62.8833
56.8645
58.3648
54.2409
53.6074
50.497
50.0005
49.0604
49.5498
49.9506
50.5738
51.4776
73.795
69.4799
62.7788
61.5235
58.9386
54.3413
49.7
44.108
39.3721
34.8062
31.5141
28.2365
25.7251
23.302
21.6852
20.0766
19.1102
18.0883
17.6413
16.6465
37.8149
37.1344
82.8728
35.6141
38.899
38.2328
82.0771
44.5818
85.1105
78.1389
40.2004
41.7708
81.3315
65.1227
98.9628
35.034
33.668
37.5878
95.4074
34.4819
32.8483
84.999
33.2647
31.788
96.0743
75.8415
32.3798
31.197
241.375
267.245
233.899
82.495
63.737
72.2865
60.3774
243.925
227.952
221.528
58.9167
50.9062
57.7988
50.0863
243.045
221.708
225.384
49.3912
46.3862
48.3321
44.873
233.571
226.19
226.531
45.8182
43.866
44.2742
43.1867
217.766
225.948
219.52
43.2208
41.3851
43.1697
44.1855
188.35
213.464
194.682
41.078
39.5079
44.9901
45.3586
171.477
187.005
164.962
39.0626
39.0179
44.7076
41.1467
162.282
159.945
143.919
39.4888
38.4459
40.7846
36.4823
230.099
250.398
222.926
68.6742
59.6849
64.256
55.9828
222.055
223.357
224.035
56.9428
49.0241
53.9371
49.1208
227.302
224.657
228.933
47.3504
44.3997
48.145
46.353
229.805
228.9
226.608
43.9582
43.5985
46.1774
46.3195
221.452
224.122
209.345
43.8143
45.5458
46.6018
46.768
196.729
203.663
192.502
46.2617
47.2053
46.7552
47.5359
167.209
189.132
174.738
47.081
43.6945
48.2049
51.1337
139.552
160.248
116.468
42.9376
36.6353
50.6224
37.0272
206.35
239.308
199.474
63.1826
54.7673
65.616
58.0498
215.249
196.88
195.081
53.2854
49.9053
56.3113
52.0366
217.667
195.531
195.083
49.084
46.9305
50.8668
47.5381
218.843
194.086
185.617
46.5745
46.1934
46.9031
45.5304
198.195
181.621
145.011
46.1394
46.1694
45.5406
44.6971
180.524
140.546
146.09
46.0833
46.4643
41.9932
37.4567
167.836
143.614
139.631
47.5449
51.27
37.2521
34.037
119.313
144.756
141.622
50.5321
36.1882
32.6354
29.0556
193.81
284.617
207.339
70.6731
60.2816
79.8934
61.8784
198.592
199.488
199.094
57.8897
52.443
56.9268
51.2781
197.67
200.408
196.364
51.237
47.6639
49.9212
47.1552
181.914
190.479
169.706
47.0115
45.4066
46.4268
44.4588
140.715
159.246
130.927
45.2296
41.1596
43.2513
38.5874
128.614
125.943
126.123
37.7887
32.4553
36.4953
31.2713
146.318
128.123
137.561
31.7976
30.0652
30.2058
28.5319
145.09
140.077
137.866
29.6718
28.2213
28.2538
27.1012
55.7177
60.7676
53.5085
50.3738
44.0007
48.4035
43.4374
45.1334
51.1578
44.4727
41.7749
37.7762
41.6443
37.255
41.1447
42.914
39.8692
36.7647
34.7532
36.2751
34.4156
38.9302
39.3287
38.5336
34.3605
33.1617
34.0606
34.3214
37.1878
38.5943
40.0713
32.8494
32.3016
34.9171
37.739
36.162
40.8916
41.4203
32.2726
32.0127
38.4832
38.4402
35.8818
40.9597
37.8551
31.8956
31.1838
37.4336
33.0691
35.2208
37.1673
33.4742
30.9473
29.3761
31.8626
28.7972
52.8698
55.3606
49.8815
47.5689
43.0878
45.633
41.4696
43.7347
48.1816
44.0663
41.2638
37.0267
40.2967
37.6721
39.5955
43.1722
41.4853
36.1242
34.4667
37.1026
36.2288
39.1059
41.3628
42.5073
34.355
36.8059
36.6912
55.4759
41.837
43.049
43.7778
38.3504
42.8607
57.815
58.0121
43.6123
43.8403
44.5483
43.6183
43.2054
55.6105
47.6676
40.1062
45.1817
45.757
41.6103
34.9023
45.2305
38.2882
33.6066
44.3313
34.0037
33.0453
28.9313
35.9952
30.0846
48.9513
56.0559
51.7187
44.0527
41.0159
46.0131
42.4429
44.7795
50.3382
46.8853
40.1997
38.164
41.5787
39.3937
42.1505
45.8677
42.9
37.6455
36.6333
38.6675
36.5397
42.4173
42.2744
41.0328
36.9232
56.9471
36.0028
34.729
42.8531
40.9741
39.8145
58.538
56.7357
34.3968
32.8437
43.5988
37.9318
34.652
52.0539
43.8332
32.1244
29.9167
45.4322
34.1708
30.6236
41.9989
36.4283
29.1581
27.0146
33.3151
29.4585
27.3926
34.6136
30.0231
26.6338
26.4286
53.324
62.2545
53.8803
47.7877
43.0162
48.2546
42.8722
47.2302
50.1346
45.1732
42.0214
39.4591
40.7739
37.3509
42.8696
43.932
41.39
38.5934
36.124
36.1598
33.9906
40.8211
40.8271
38.6976
35.5552
33.9588
33.3374
30.7156
36.5826
37.603
33.3294
33.3453
30.2965
29.5481
26.5878
29.8372
31.6297
27.418
29.208
26.7503
25.5963
23.5612
27.2766
26.6305
25.301
26.1818
25.0844
23.1972
22.7543
26.3639
25.1421
24.9191
24.98
25.3821
22.767
23.0362
42.2144
46.3095
41.9108
44.6617
40.6062
44.4966
40.7704
36.8231
40.255
36.4077
39.1789
36.7651
39.471
36.9218
34.1279
35.5795
34.0102
36.1119
34.8948
36.4188
35.3797
32.6683
33.7141
34.3253
34.5397
33.5209
35.1179
35.5695
31.873
35.051
37.9532
33.2134
32.6167
36.0564
37.1548
31.5184
38.5245
37.8768
32.4518
31.7421
37.0947
35.2353
30.4767
36.5126
32.1206
31.439
30.4437
34.1809
31.4373
28.7146
30.985
28.3872
30.087
28.9296
30.7626
29.386
41.6251
44.1622
40.2701
44.3954
40.5533
42.7399
39.6522
36.2666
39.2105
36.9286
39.2896
36.9527
38.9277
37.5235
34.1402
36.4457
35.8488
36.512
35.609
37.2057
36.8773
37.2919
34.417
34.8527
34.2661
36.2391
34.706
35.114
60.4266
41.7071
51.5599
40.8822
54.8211
42.8369
57.1094
43.0865
68.9617
50.1199
41.5071
37.9746
58.4391
44.2906
33.7319
46.1398
37.4016
36.3021
32.1854
41.2604
35.0486
28.4956
35.1045
29.7395
31.2461
29.4806
33.5777
30.4619
39.9217
44.3452
41.0594
41.5214
39.5236
42.9146
40.1222
37.3494
40.275
38.2537
38.9813
37.7205
39.4772
37.6444
36.1478
37.5738
35.5669
37.3704
36.8439
37.0092
35.084
42.0405
58.8231
36.0605
42.6915
38.5018
250.198
35.7864
45.1277
99.4845
42.2584
207.734
42.0336
194.863
45.7885
45.0504
31.1856
29.1795
60.1867
41.8599
30.8016
29.735
35.5883
28.5206
27.0069
39.2174
34.5847
29.5318
29.5505
29.8273
26.844
26.9391
33.5081
30.7794
29.7207
30.1372
41.4514
45.3408
41.1677
43.7631
40.1726
43.5476
39.1895
38.2176
39.2845
36.0031
39.4264
37.2504
37.6431
34.6553
35.0505
34.8614
32.768
36.4704
34.3245
33.6869
31.5696
32.7341
32.0789
29.2568
33.6747
31.6567
30.7687
28.031
29.4103
28.2053
25.6925
31.0273
29.5086
27.4474
26.1583
26.5588
24.9313
23.3695
29.1023
28.3289
25.8834
25.4481
25.3545
23.1526
22.9661
28.2293
28.4534
25.5074
25.8927
25.9066
23.0194
23.3503
28.6307
29.4372
26.0732
26.6005
41.3094
45.017
41.5476
52.7014
50.4037
52.2917
50.7629
37.7607
40.3731
38.2018
49.4479
47.8749
50.2037
49.4654
36.1294
37.7812
36.79
47.9235
47.3571
49.34
47.924
34.6941
36.4717
36.5013
46.8992
45.6417
47.0694
45.7619
33.7197
36.7809
37.1808
45.5258
44.7037
45.604
45.3106
32.6699
36.9852
35.2841
44.3332
43.2932
45.1574
45.088
31.4098
34.4567
32.3653
43.1535
42.2441
44.9375
44.1578
29.8411
31.8267
30.5839
41.9202
39.9183
43.8291
42.4338
41.3213
43.0868
40.5021
51.5704
50.4321
49.542
49.8894
38.2776
39.9055
38.7806
50.0098
49.5681
49.7688
49.5659
36.9871
38.4813
37.884
49.429
47.3549
49.1411
46.5338
38.8978
38.6277
57.2976
46.6652
45.868
45.9487
47.0406
40.2812
57.3672
51.7371
45.7529
45.0358
46.9501
45.2243
37.0572
48.9099
41.2711
44.9687
45.2137
44.6361
45.1494
32.9027
39.3566
35.145
45.1701
44.4284
45.4853
45.2879
30.6912
34.0724
31.537
44.0963
42.6173
44.9717
43.3768
40.4232
43.3978
40.897
49.0419
49.8728
50.3224
49.9585
38.8959
40.2842
38.4761
49.764
49.407
49.4789
48.0719
37.7548
37.8544
35.8804
48.9006
46.1689
47.6435
44.6726
58.6872
35.2312
33.5298
45.4331
45.9035
43.7567
41.9767
54.5259
33.079
32.013
45.8384
44.7878
41.6445
41.2157
39.9133
31.6805
31.0979
44.2918
44.7826
41.4745
43.4815
35.0047
31.0894
31.447
45.219
45.4007
44.0257
44.7553
31.8747
31.6278
31.7324
45.165
43.6702
44.7794
44.1153
40.8586
44.1069
39.5734
51.1275
49.7067
51.907
47.3982
37.9576
38.0692
35.1671
49.0722
47.3255
46.2187
43.5594
35.0729
34.2757
32.1423
46.8389
44.4896
43.2585
41.289
32.3722
31.2935
28.8324
43.4773
42.0242
40.7075
39.6637
30.6238
28.4214
27.5192
41.8497
41.6956
39.9236
39.7894
30.0375
27.3386
27.1947
41.8756
43.4487
39.8871
40.1568
30.5203
27.3382
27.8619
43.788
44.3657
40.6782
41.1275
31.1541
28.0252
28.3189
44.3888
44.0362
41.3061
40.8659
57.4105
58.8902
58.2116
107.155
104.472
111.18
117.351
55.3067
57.8314
57.5086
106.658
111.754
117.278
119.514
55.2742
57.5125
56.6781
116.608
114.078
120.739
127.015
53.691
55.9949
54.764
116.172
117.809
129.286
133.121
52.9427
54.5772
54.1599
121.062
118.982
134.09
133.07
51.6421
53.9753
53.8726
120.608
121.378
132.127
126.669
50.9417
53.8278
53.3953
123.901
123.657
126.613
127.484
47.6311
53.2184
51.0463
125.838
122.42
128.336
129.877
57.8424
55.7449
57.3341
102.048
117.293
99.4685
117.5
57.6007
57.3482
57.4559
117.885
120.596
118.744
123.195
56.1957
57.2524
54.4279
122.306
131.026
126.338
139.886
54.3734
53.2107
52.6677
133.73
138.194
143.724
149.374
53.6619
52.5057
51.6969
139.037
137.856
150.02
148.362
53.8645
51.8936
53.6157
136.361
128.977
146.098
135.186
53.6249
54.1127
54.3981
127.403
127.657
131.744
128.806
51.1288
54.1541
51.5103
128.266
128.475
128.855
127.024
57.2843
56.7066
57.1678
98.3142
117.291
102.569
114.534
57.2112
56.7569
55.6713
118.459
122.864
115.023
118.422
53.9857
55.3567
53.1456
126.051
139.59
120.533
130.096
51.458
52.3114
50.8094
143.337
148.549
132.887
137.076
50.81
50.5782
50.3864
149.463
149.335
137.898
137.988
53.2989
50.7776
52.5497
146.937
135.775
136.986
130.202
54.5119
53.2094
53.982
132.228
129.01
128.522
127.93
51.777
53.9879
52.0589
128.995
127.394
128.143
126.185
56.8218
58.5011
53.8479
102.351
111.952
101.52
98.8887
54.8932
52.8732
50.5275
112.43
116.542
100.305
108.115
52.8853
50.485
48.9799
118.043
125.68
111.514
110.796
51.0848
48.5061
47.5079
128.151
132.068
112.602
116.325
51.0407
47.9592
47.9881
133.085
133.174
118.901
117.87
52.5554
48.2799
48.5578
132.677
127.396
119.636
120.303
53.5937
49.2801
49.6299
127.355
127.183
122.809
121.341
52.0636
49.8928
48.1045
127.691
128.257
123.454
118.089
44.8113
35.6532
47.3746
38.8413
41.1369
36.3832
52.5582
49.829
36.1338
52.3873
42.6329
41.2476
36.954
195.608
87.4029
70.0709
72.7889
215.947
57.0887
104.274
246.696
38.0102
34.7614
35.9698
36.38
35.2304
35.632
38.1293
45.6205
39.1496
37.2688
47.5679
36.9297
52.3137
43.3171
52.1272
43.5872
37.5143
57.0405
37.4469
201.032
43.9779
88.1486
220.464
66.9989
78.5391
101.2
249.894
59.9333
61.9016
43.3908
56.918
45.1615
56.7802
44.3893
61.0251
108.064
75.2038
84.4595
196.888
76.3649
108.352
178.244
104.895
72.525
83.3773
103.741
75.8342
90.4389
121.145
57.9527
40.9361
41.2222
49.7942
42.4922
55.8729
50.6941
58.4373
43.8374
41.774
49.7356
43.588
56.9765
50.6352
100.313
199.496
67.7644
79.5859
101.726
181.41
67.128
96.6566
95.8176
59.9953
74.7446
81.5826
123.838
65.3199
45.8054
87.7647
42.3048
219.164
41.3899
233.935
46.3157
35.0614
35.3528
34.5269
34.4467
35.3488
34.9121
33.9237
35.2363
35.3848
34.1006
32.9814
35.4379
35.172
33.4623
42.1065
43.33
60.7262
36.2358
239.6
35.8229
38.9878
46.2662
219.239
87.49
42.8921
234.418
46.707
42.2077
34.9589
34.2475
35.1702
33.8972
34.8347
33.6979
35.0877
35.0966
32.6918
34.9361
33.3707
35.0045
33.2023
35.0841
44.3599
99.028
41.4894
139.395
41.8953
184.242
43.83
34.5564
35.1558
32.7993
32.5307
34.8677
34.8882
32.0537
34.3124
34.2909
32.3389
31.1491
34.6281
34.0194
31.6219
45.4985
206.966
94.4398
42.7666
193.735
46.1504
42.4448
44.4095
126.978
92.3729
41.118
173.864
43.5879
42.0604
34.3512
32.221
34.6214
31.9474
34.6904
31.7587
34.3033
34.1112
30.9375
33.8122
31.5711
33.858
31.3532
34.0718
154.504
173.775
153.519
96.7296
72.7193
94.6245
74.4165
155.381
149.479
149.66
64.7314
64.2357
63.8703
60.4835
143.082
149.519
150.391
59.0274
53.0122
57.5348
55.5695
138.029
149.463
147.246
51.9714
51.6598
55.0033
54.0978
128.868
142.436
138.426
50.358
47.9938
52.8931
50.9071
118.705
130.666
124.12
46.8996
46.8322
49.0532
47.5078
111.039
119.467
117.998
46.9947
47.2492
47.5467
47.7047
99.3024
116.683
107.175
47.3782
41.1319
48.5094
43.146
172.536
167.611
159.584
107.142
95.7667
103.894
84.8952
132.426
274.782
290.492
159.355
137.334
156.982
259.691
91.6454
237.813
233.272
100.04
94.9464
96.2884
232.862
85.891
243.03
235.264
88.9924
86.5783
86.4357
236.235
83.8591
238.526
234.992
81.2034
80.5729
84.8393
233.38
78.8827
224.674
225.676
76.4345
74.675
80.1815
223.555
75.0954
205.033
211.644
69.9865
67.9609
76.2984
205.857
65.7757
173.969
182.546
60.0041
59.3817
68.4298
176.146
66.7759
172.661
171.084
62.026
63.3448
65.8827
172.423
104.304
111.512
102.316
42.8255
37.4514
41.0174
35.792
154.075
153.805
151.008
85.9589
76.3248
80.5045
74.4296
113.741
241.726
254.682
141.03
118.238
138.254
237.851
86.9996
223.59
225.414
94.2086
89.7178
91.4568
224.262
80.4323
223.991
223.119
81.8849
80.7564
81.1835
225.066
80.1356
229.182
231.247
79.692
79.3536
80.0543
232.044
81.0058
228.238
230.554
79.3399
79.4585
80.9824
228.574
79.5875
210.763
217.229
79.5799
79.3959
79.8917
212.299
76.5599
184.82
191.416
76.8058
73.9918
78.1113
188.569
70.9949
153.613
160.573
67.0581
66.3724
72.6282
150.322
97.6395
94.0294
89.4607
39.4659
34.2703
38.6459
31.6355
148.121
161.826
151.62
88.7697
73.9921
86.9405
74.8102
110.548
211.299
233.244
133.262
108.7
133.98
206.548
85.6341
213.408
197.389
86.3534
85.0095
87.1288
199.058
81.3534
215.357
199.169
83.0554
82.0272
82.8513
199.302
77.7087
219.282
204.243
80.4009
80.2103
78.1488
205.847
77.3797
214.664
203.884
79.3724
78.8905
77.1348
200.012
71.6945
183.672
163.153
75.6308
73.3601
75.9816
159.411
70.1294
179.622
165.11
73.2989
74.5699
68.3153
165.119
75.6867
141.387
143.052
82.705
81.0896
79.5776
137.822
84.3774
94.8784
81.2918
36.691
30.3994
33.8263
28.6488
152.481
173.398
163.218
83.1112
82.72
93.9687
90.3971
120.046
213.126
245.995
138.776
117.733
139.879
214.029
84.9686
193.277
189.701
90.4612
85.9107
89.5762
191.189
80.8959
200.295
200.289
81.8111
81.1714
81.653
200.173
75.4552
189.773
190.867
78.092
76.7009
77.0202
186.19
68.9476
167.027
169.019
74.0119
73.3415
70.9936
157.183
53.2586
130.767
122.25
59.4694
54.0509
57.6867
119.525
49.7019
134.963
126.667
50.3605
50.6671
49.499
134.199
51.7951
154.546
151.839
52.5026
52.5811
51.4408
155.307
85.9454
99.7412
90.4207
32.8294
28.3261
32.3625
27.9891
135.861
161.766
136.852
91.6245
75.3213
91.7986
71.8148
128.623
136.315
137.675
62.9086
59.0636
67.1459
67.1395
121.34
131.886
122.495
55.94
53.2982
64.0609
59.2721
103.177
111.988
105.694
51.5253
48.8702
54.7214
53.5098
84.5623
96.7187
87.6133
45.7606
43.8906
49.8111