/*--------------------------------*- C++ -*----------------------------------*\
  =========                 |
  \\      /  F ield         | OpenFOAM: The Open Source CFD Toolbox
   \\    /   O peration     | Website:  https://openfoam.org
    \\  /    A nd           | Version:  10
     \\/     M anipulation  |
\*---------------------------------------------------------------------------*/
FoamFile
{
    format      ascii;
    class       surfaceScalarField;
    location    "2.6";
    object      phi;
}
// * * * * * * * * * * * * * * * * * * * * * * * * * * * * * * * * * * * * * //

dimensions      [0 3 -1 0 0 0 0];

internalField   nonuniform List<scalar> 
38556
(
1522.08
-563.289
920.877
1394.81
-719.634
846.901
1166.31
-636.816
865.316
1239.62
-270.088
196.779
1433.82
-198.546
4.35387
1569.56
-151.033
15.2852
1676.22
-106.432
-0.227262
1766.17
-82.2169
-7.72741
1814.43
-36.7094
-11.5561
1845.97
-6.95273
-24.586
1837.67
32.4182
-24.1145
1821.93
40.3744
-24.6413
1801.65
26.7153
-6.43553
1794.84
2.3557
4.46174
1800.01
-40.6218
35.4479
1816.75
-71.8214
55.0798
1835.72
-74.6301
55.658
1856.33
-56.9363
36.3358
1842.78
-5.46097
19.0086
19.2807
4.69437
2187.7
-2170.65
109.526
2453.04
-1369.2
384.22
1749.17
-573.041
640.093
1379.14
-139.955
239.902
1217.35
-84.0264
47.2702
1178.24
-79.5566
-32.368
1211.25
-73.9679
-65.4773
1245.57
-34.3511
-82.1841
1301.23
-16.1973
-76.1657
1348.16
1.51481
-55.4036
1383.65
-2.27847
-0.793058
1401.53
-11.5845
34.0769
1409.62
-40.025
58.6521
1413.9
-60.6909
58.7696
1412.63
-70.3944
31.0444
1409.91
-71.1506
2.04384
1406.8
-57.8825
-13.6312
1410.56
-32.3272
-28.3715
1411.72
21.7675
-28.3927
40.082
-15.5367
1748.77
-1507.03
799.752
1281.18
-907.147
5.53262
957.818
-389.989
140.309
989.842
-118.757
-53.2223
1060.29
-94.0942
-60.3798
1076.24
-62.48
-33.0265
1112.75
-123.89
13.4116
1130.11
-80.1036
28.3905
1169.58
-110.839
55.1693
1195.53
-78.9899
54.5593
1223.64
-93.2105
62.8196
1242.01
-79.8626
49.9062
1253.67
-87.9235
36.2369
1258.38
-80.1544
14.7548
1256.26
-68.5085
0.241888
1248.91
-48.4101
-15.3951
1229.67
-7.08096
-31.563
1210.71
12.5656
-25.9338
1199.9
37.5732
-4.98991
43.8726
1.64154
679.455
-644.756
-462.956
1037.26
-1090.02
-174.93
1147.54
-648.608
148.341
1150.13
-149.601
28.2581
1150.82
-106.241
11.451
1100.44
-18.6641
6.56877
1086.6
-123.285
13.2353
1053.05
-57.6923
11.1353
1067.89
-149.286
23.6071
1074.83
-114.26
28.3335
1106.02
-159.91
35.5048
1132.63
-141.982
35.5087
1162.51
-155.005
37.201
1188.87
-134.912
28.3957
1205.46
-110.247
25.1541
1196.47
-55.5961
16.1751
1162.71
12.8654
13.8172
1120.68
44.1714
10.4225
1095.53
49.9389
12.7789
43.9662
8.23753
1903.34
-293.19
711.832
1603.62
-1162.84
372.542
1419.51
-848.393
383.889
1319.36
-307.34
257.888
1214.46
-168.937
167.604
1135.16
19.6469
40.9875
1117.49
-143.524
37.9023
1090.98
-43.0836
11.91
1092.07
-165.23
14.8518
1090.66
-120.037
7.18379
1105.5
-184.196
9.43982
1121.95
-163.978
5.54647
1144.31
-182.088
4.7246
1173.26
-156.747
-7.10629
1201.57
-131.292
-7.26995
1201.84
-46.3105
-9.55466
1167.01
36.4883
11.2083
1121.02
72.5568
17.6023
1095.25
61.1897
14.522
43.8891
8.94426
1833.16
-283.972
786.291
1534.82
-615.682
-248.82
1567.81
-740.755
-140.625
1527.06
-426.034
159.435
1339.05
-190.017
209.09
1218.02
75.0332
65.6481
1166.86
-115.872
23.5101
1074
50.9911
-1.21523
1042.49
-121.007
-12.7102
1016.75
-77.3833
-16.9144
1032.48
-186.705
-13.2183
1051.47
-172.858
-10.113
1080.23
-199.687
-11.1589
1112.13
-171.425
-17.2222
1141.88
-138.045
-22.999
1146.04
-30.2435
-20.2337
1133.12
51.8475
-2.43758
1120.39
75.012
10.2732
1094.6
60.2132
26.7744
42.9381
24.2665
1925.41
-546.604
392.156
1904.8
-484.52
-110.556
1705.01
-298.596
-242.366
1605.88
-190.533
-136.365
1482.87
-95.61
28.5961
1373.25
190.226
-5.56742
1233.17
20.5948
18.3529
-11.103
12.4493
-16.0882
1129.24
28.3782
-2.16354
56.1391
25.0179
47.5449
1048
11.662
-18.0176
-14.1667
-0.0221097
-19.2182
1037.81
-22.407
-8.41504
-7.34749
-21.8889
-7.13774
1051.96
-46.84
-16.5368
-47.1522
-46.1949
-44.1255
1077.56
-57.7988
-8.21484
-43.5374
-52.5338
-36.3725
1097.53
-63.945
-2.86185
-54.0103
-55.2911
-43.5487
1114.75
-59.1294
-15.8798
-38.8117
-47.5735
-27.2547
1130.43
-120.925
-32.8028
1137
-19.1554
-17.6593
1132.88
51.5608
4.40796
1109.09
73.7361
25.0654
1030.06
79.5165
59.7261
62.1337
44.1152
2131.57
-1151.32
2578.58
2266.99
-805.502
185.561
1870.92
-179.707
277.18
1586.89
-13.4335
106.928
1327.22
30.8139
133.247
284.605
75.3843
19.0226
282.447
278.303
276.485
130.202
56.6774
114.319
251.603
49.0027
4.59494
-216.278
223.863
27.5407
-6.74706
-239.52
235.636
20.4059
-4.86002
-237.06
250.476
-25.7053
-10.1175
-268.272
270.2
-42.994
-5.77412
-274.811
276.035
-56.58
-2.44342
-285.458
285.124
-65.6934
2.08234
-290.24
289.142
-62.2028
4.17159
1113.48
-35.4803
-26.2822
-288.246
-287.532
-275.474
-273.496
-14.5392
-24.749
-8.60387
1117.91
5.1573
-28.7424
1106.82
61.9474
0.697672
1043.26
99.193
38.1042
950.704
129.487
42.5869
98.6855
9.30633
1807.22
146.804
-793.589
1408.76
-308.403
-98.645
1552.89
-283.08
-40.7506
1606.97
-23.2745
-44.2402
299.955
148.666
248.575
279.591
333.928
327.067
283.935
72.5495
18.8552
-21.0701
-75.0759
69.9288
27.2616
-1.04431
-65.9082
-8.32648
64.5865
10.5653
-0.917144
-67.4696
-4.73426
68.687
4.58575
-1.06885
-73.866
5.1702
73.5541
-3.72136
-1.13694
-76.4498
9.42915
75.2537
-7.38755
-0.845545
-75.8059
12.7084
74.5745
-10.605
-0.872092
-75.2899
17.2403
73.9848
-15.6047
-0.330528
-74.7078
17.6595
73.8986
-17.4399
0.589555
-74.6123
285.347
-30.8206
2.88142
-73.6512
-72.8048
-71.8202
1082.73
34.4024
-26.679
-280.938
-273.833
-268.781
-261.74
1056.91
92.03
-4.26277
989.079
141.885
25.1343
924.01
175.842
18.7147
142.72
-16.5953
1505.32
-489.389
1262.06
1264.2
-164.494
97.2084
1001.29
-218.915
198.75
898.286
51.5884
28.1366
200.579
196.434
57.0452
187.903
205.348
199.643
-65.6311
209.855
51.3627
4.99201
-23.5736
-61.6423
64.9872
19.0869
1.14175
-13.9959
-73.1757
74.5465
12.2216
0.403448
-2.90245
-75.9218
75.1578
3.55226
0.114202
1.46995
-74.1433
74.359
-1.02345
-0.66215
6.23466
-77.4449
78.7926
-6.57307
-1.00925
10.4497
-83.0082
83.893
-10.8412
-0.493275
10.6332
-84.3411
83.6732
-9.66639
-0.298867
16.3965
-79.4377
78.0745
-15.1052
0.0719423
-73.198
22.7525
280.716
-14.8622
1.25776
-73.4921
-71.4579
-71.7157
1057.85
73.2441
-26.3739
-273.583
-272.302
-262.733
-261.696
1031.65
132.719
-14.4905
987.64
182.425
3.46858
957.072
207.127
-0.717125
176.862
-22.9078
-135.638
-1321.73
-84.316
378.875
-715.633
36.6264
734.789
-423.293
-151.536
777.875
-31.9784
40.4812
219.348
79.3264
31.3181
215.736
216.543
212.038
-39.526
238.618
22.4843
-2.22854
-8.55243
-62.2901
64.5632
5.95792
0.321463
-6.77455
-69.9399
71.2242
5.22037
0.269933
-3.94251
-75.269
77.077
1.82706
0.307451
2.40816
-82.1177
82.9385
-3.2519
0.0229745
7.63267
-84.4594
84.8302
-7.5865
-0.416948
11.8968
-86.0147
86.6955
-12.8538
0.276262
9.55212
-89.0917
89.5995
-10.3567
0.29676
9.60114
-88.0038
84.7102
-8.41246
2.10492
-72.2565
2.03336
276.079
5.95436
-0.990189
-70.4608
-71.0679
-69.291
1047.82
103.374
-22.8344
-271.03
-265.901
-260.932
-257.253
1031.87
163.125
-14.453
1011.94
210.125
-7.76893
1009.72
224.016
-14.6774
187.316
-19.2954
659.853
-214.742
-1020.9
825.448
-439.215
-442.013
710.098
-412.769
104.826
661.052
-47.9585
65.0266
141.14
0.28905
57.3471
196.877
149.1
195.625
-10.6507
174.976
-22.086
-1.09905
0.252295
-59.9667
65.4758
-7.22427
1.46287
2.66243
-73.9445
75.5376
-5.37237
1.11684
4.2204
-77.19
76.7629
-4.54299
0.749652
6.31727
-75.3714
74.9569
-6.73372
0.830889
9.57879
-75.4952
75.004
-9.98317
0.895607
13.6635
-67.0367
63.4791
-10.6417
0.535757
8.8827
-58.9035
58.2704
-7.68991
-0.559718
3.92721
-59.2135
60.0225
-4.17877
-0.557385
-63.0619
-8.36693
254.029
9.50664
-6.94947
-61.4219
-62.6373
-61.0981
1042.02
87.8069
-26.4449
-258.141
-247.717
-250.134
-244.014
1062.77
161.399
-19.0242
1083.98
201.742
-12.8292
1108.8
209.127
-9.93364
165.721
2.03525
1603.41
-651.978
-1410.39
1616.42
-90.8917
-361.342
1334.67
-35.9616
-95.0521
1220.83
20.0111
45.8688
1209.79
-50.3321
61.6624
275.49
-246.435
17.2626
54.1192
120.402
56.3472
119.026
276.66
266.292
270.625
17.0222
262.73
-34.839
0.299315
6.97916
16.4863
6.81185
4.65769
-229.477
221.496
-11.2411
1.41331
4.06509
4.83777
4.24838
7.51207
-241.508
253.481
-39.4022
-0.583956
6.34199
7.74446
6.41509
7.7105
-247.018
248.131
-33.9483
1.10512
8.29569
7.57314
8.15122
8.53234
-252.307
250.429
-33.2528
2.13424
7.93666
8.54688
7.98086
6.31592
-236.28
226.365
-21.7657
6.00118
6.44102
6.37712
6.54493
5.37005
-223.482
220.373
-19.0362
1.77573
5.13008
5.20265
4.6666
2.66128
-215.593
217.259
-9.71889
-0.394205
2.11558
2.33275
1.33703
938.125
5.21009
-14.2617
-12.1158
-11.4907
-15.524
-16.4194
-220.27
-219.148
-217.538
-216.567
1007.46
34.9619
-16.4888
1065.86
105.278
-2.28203
1112.33
149.367
5.90583
1142.8
159.379
19.2778
122.724
26.555
1037.18
-1025.96
-2753.88
856.224
-26.2165
116.277
1008.18
-43.49
-144.429
1024.72
0.536071
2.93892
1008.38
-66.299
32.3024
922.54
-151.706
-8.88752
963.502
-9.07926
22.5786
8.6955
-33.6585
3.34402
-32.8431
978.288
-217.332
17.8479
17.5056
71.5999
22.8038
72.7885
993.168
-128.936
10.1003
35.0509
20.7187
31.125
17.0615
971.744
-170.246
15.5188
34.4896
55.4501
32.5008
53.7114
945.812
-80.7719
17.3153
26.218
20.9836
23.4658
18.7213
914.619
-93.7237
20.4774
18.9267
34.6378
17.7414
33.1329
891.057
-41.1952
19.6517
11.8892
13.5354
9.34404
10.3369
880.46
-51.3381
17.5052
7.72332
17.731
6.5979
12.3785
890.952
-23.3646
18.082
924.873
-8.86341
9.90466
987.888
30.8424
11.4207
1043.99
72.893
20.373
1078.94
88.1751
36.2535
64.2094
40.8362
1061.82
-729.102
-166.458
1452.27
5.22289
-421.88
1376.48
131.972
-99.6744
1421.28
77.7339
-122.005
1295.2
109.821
-50.0317
1169.46
36.6354
-62.6028
1134.01
11.6449
14.7282
1063.45
-143.982
-2.79724
1029.24
-110.233
15.5067
977.496
-119.478
0.978629
935.497
-40.1805
1.408
898.354
-57.9551
1.37386
879.149
-25.8764
3.88587
864.35
-41.7428
5.204
862.521
-27.3399
5.80424
872.913
-32.1762
12.9212
901.069
-15.7998
18.4861
947.108
3.66878
23.1855
992.371
13.6589
29.2526
8.87653
28.8889
1362.99
1580.21
86.1376
1411.99
845.177
-888.956
1252.42
708.199
-416.651
1261.49
327.303
-258.645
1260.1
279.85
-168.634
1270.18
190.669
-164.111
1221.9
118.267
-58.3445
1116.59
-30.3134
-8.36072
1011.79
-59.1304
53.7024
944.112
-72.5846
20.7803
914.573
-18.3372
7.69606
896.839
-39.2994
-0.92214
897.311
-25.3753
-0.972987
899.561
-41.4571
-2.5351
911.929
-39.5416
-0.166845
922.751
-44.5217
1.52342
939.358
-36.0437
3.63754
960.08
-23.5624
6.50903
975.76
-6.9724
4.95113
4.29076
-4.65754
1475.64
1111.58
-3745.3
1078.79
823.192
418.837
1289.17
324.236
173.579
1433.56
175.524
7.38801
1595.44
200.172
-82.2079
1707.69
175.278
-96.8557
1623.77
142.803
59.3888
1366.55
81.6504
145.249
1068.04
68.316
171.068
918.269
29.9901
47.1948
894.775
21.3772
-16.2207
880.264
-0.178312
-24.6094
888.327
-6.43004
-27.0089
895.405
-24.6238
-23.9104
907.768
-31.29
-20.6154
922.057
-44.5477
-14.2624
942.427
-45.7245
-10.6893
958.769
-37.4467
-2.45789
969.2
-16.3879
-1.01565
8.69506
-10.492
481.264
320.36
-2043.94
426.281
236.71
641.465
1121.85
-355.703
-15.6271
1346.07
-180.373
131.674
1506.28
-45.0988
85.0626
1547.46
55.3306
78.7687
1410.76
118.184
161.316
1246.1
128.032
118.279
1100.66
133.981
79.7692
1030.18
83.7358
16.7345
1004.43
53.1102
-5.97817
993.367
32.4818
-21.5982
995.17
18.697
-26.9295
997.276
7.14635
-33.8766
1008.51
-11.5396
-30.9799
1031.09
-37.3418
-29.794
1065.82
-49.4479
-30.9986
1100.65
-48.1874
-24.0912
1115.51
-24.9923
-6.26042
10.9633
-2.91745
829.109
750.875
-1855.43
985.965
461.566
-381.712
1075.67
-223.107
-222.302
1167.26
-155.808
-116.153
1226.79
-65.6394
-38.9883
1221
45.1466
15.9727
1190.81
107.733
40.6434
1168.14
118.643
32.0576
1160.47
100.402
41.2483
1143.79
78.2349
22.1772
1120.54
60.794
15.5707
1092.57
59.3309
1.11787
1066.33
55.9979
-11.0554
1043.07
56.2302
-25.8257
1028.64
46.2875
-43.3949
1029.04
25.3995
-63.1426
1056.81
-10.6391
-66.5807
1090.22
-25.8748
-55.7233
1118.37
-17.5379
-35.6021
11.9127
-17.4324
1520.07
1267.36
1374.52
607.121
1132.08
19.3281
1161.86
-185.581
1250
-153.787
1325.59
-30.4427
1405.08
28.2429
1490.39
33.3358
1562.04
28.7525
1623.23
17.0467
1657.52
26.5011
1678.26
38.592
1682.03
52.2288
1682.98
55.2833
1679.91
49.3555
1660.67
44.6354
1588.6
61.4348
1499.72
63.0067
1419.88
62.2945
52.6977
397.303
-1235.31
516.937
585.12
-531.979
1191.06
1149.75
-581.453
882.143
1280.91
-212.149
277.763
1438.99
-139.706
-14.0248
1538.92
-102.012
17.3725
1608.86
-58.6862
-11.4848
1664.09
-40.1791
-22.7773
1677.99
0.289015
-25.7384
1677.69
13.5501
-37.8408
1652.2
20.4279
-19.0517
1633.5
7.90024
-13.838
1621.8
-7.28015
12.5401
1633.4
-34.4715
27.3321
1669.06
-41.3145
41.1045
1726.73
-43.9094
41.3159
1764.94
-19.7881
37.2411
1769.98
2.77396
28.5205
1722.32
34.6801
31.9897
37.0922
12.0501
613.102
-2024.45
-757.589
1070.26
-758.309
153.394
1094.74
-326.354
360.508
1101.8
-46.2392
66.9386
1097.66
-24.4124
-63.8882
1087.24
-28.7971
-95.1643
1117.08
-30.3783
-123.62
1136.51
-12.0835
-129.711
1171.95
-8.3062
-103.012
1196.73
0.744381
-67.3791
1223.25
-6.24133
-0.645231
1243.83
-10.528
31.9302
1262.63
-22.4596
55.0285
1272.93
-25.3116
39.3083
1275.26
-24.6041
12.0018
1276.99
-19.6106
-23.9804
1278.4
0.781603
-35.6064
1277.51
16.8796
-41.5969
1268.95
40.1584
-25.3109
40.6288
-8.9678
906.159
-1921.92
3533.36
735.955
-559.114
-23.4578
800.323
-206.152
-44.2606
839.745
-72.0007
-66.8833
912.695
-78.74
-79.0022
933.749
-47.4842
-35.3931
994.529
-85.2199
7.4732
1022.74
-33.3727
21.4675
1069.81
-52.3664
52.1563
1094.08
-19.5704
50.6055
1117.35
-27.8038
61.1192
1126.63
-13.1928
43.2908
1128.63
-17.2691
29.0467
1122.6
-9.24748
4.71553
1111.17
-0.880833
-12.0487
1096.74
5.87911
-26.4547
1079.54
18.1485
-31.729
1067.02
25.9115
-22.4467
1065.26
38.514
-1.5901
39.5657
2.82568
981.086
-915.527
-971.011
1031.18
-341.41
-442.726
1004.12
-203.313
172.558
994.232
-41.3747
7.52146
999.739
-88.0921
15.2963
961.54
-12.7213
10.0046
970.638
-98.4762
17.3945
949.06
-11.5051
10.8454
972.859
-77.2016
24.6437
981.511
-26.4061
26.5169
1012.56
-63.7301
40.3823
1032.87
-34.531
36.5366
1054.28
-41.0343
39.5564
1063.18
-15.0453
25.2923
1061.53
7.36035
18.5675
1045.44
26.3716
11.7722
1020.65
44.6339
12.1229
998.301
49.2993
9.37924
990.822
45.9693
12.8034
39.4929
8.73255
629.124
-147.657
-1337.07
962.265
-432.618
130.609
1110.93
-263.851
295.761
1061.07
-14.3165
280.689
1043.67
-69.797
166.709
977.145
49.5173
45.275
985.588
-112.18
43.163
965.827
7.15896
13.0072
978.453
-94.4477
19.4715
982.393
-31.7172
8.55472
1001.99
-88.3481
14.4607
1017.25
-50.6406
6.39918
1035.21
-61.5442
7.267
1046.18
-23.8639
-9.25483
1046.63
10.9416
-11.299
1030.03
45.5704
-12.1583
1007.7
69.5491
8.62354
988.877
70.9712
14.758
985.147
49.1771
15.0439
36.216
10.3888
942.146
-723.176
1342.54
1013.2
-666.183
-86.3054
1167.8
-483.801
-75.2781
1190.49
-112.682
235.11
1114.46
-20.6433
235.968
1029.49
118.458
81.6753
1008.35
-93.6581
26.1269
931.435
83.0774
-0.218661
915.065
-78.6261
-12.1621
898.658
-17.661
-14.5628
919.737
-115.089
-7.55666
939.772
-76.6273
-4.16186
966.93
-94.9231
-4.93734
990.386
-49.4785
-15.0642
1001.96
-1.7298
-21.903
993.277
53.0651
-19.0431
987.059
76.9667
-3.63729
986.087
73.6537
8.56259
983.238
48.722
30.079
37.9768
26.9456
2678.49
-379.2
713.959
1971.65
-558.216
488.316
1440.6
-304.884
109.762
1272.05
-97.7838
17.2922
1167.22
4.46143
108.323
1049.63
220.221
10.2587
979.085
6.16313
26.8424
-18.3309
1.36701
-20.8047
919.101
26.4968
-1.87129
46.4237
25.9644
43.8844
893.034
-4.30855
-19.2101
-19.5651
-7.75575
-19.7377
903.832
-16.1434
-4.5
-2.19749
-13.6978
-0.335705
925.822
-38.8799
-12.6841
-35.374
-35.7805
-30.8963
950.811
-39.641
-0.144866
-21.941
-33.4979
-14.6062
970.923
-39.364
0.166526
-26.9026
-32.3941
-19.4035
986.073
-28.935
-15.6641
-9.7832
-21.3123
-4.81301
989.981
-5.32739
-33.1134
986.982
53.394
-14.9896
987.392
78.6024
2.36213
978.028
78.9919
29.0918
941.815
75.7824
68.8784
64.4505
47.5172
1089.1
-807.325
1192.57
1416.41
-604.54
-95.4298
1327.53
-75.0378
136.218
1231.14
27.4066
78.13
1153.27
98.7787
116.794
251.018
67.9379
35.4787
250.442
242.59
241.915
114.969
72.9108
115.252
-9.27024
226.097
33.4142
6.93957
12.342
-200.209
207.668
19.5838
-12.8883
8.45979
-221.208
217.816
1.78843
-11.1643
14.2675
-217.5
225.448
-25.0121
-13.347
9.92075
-238.1
237.053
-38.272
-9.48161
5.43205
-240.758
242.418
-43.419
-3.31317
-0.269812
-251.343
250.272
-41.1025
3.08011
-1.32669
-254.175
253.552
-30.1671
3.18163
976.77
-6.77557
-26.3487
-253.82
-251.809
-242.768
-240.203
5.41729
-1.6911
9.61828
972.14
59.5964
-30.3147
958.737
93.8513
-1.14864
922.805
110.871
42.157
871.397
123.578
46.1985
96.0011
5.41905
1037.63
128.232
-2550.14
653.541
-281.116
-37.977
1073.1
-73.6929
-461.652
1030.17
87.9938
-61.8949
253.886
181.868
231.389
245.36
236.578
228.436
-52.249
266.044
54.6136
53.4156
-2.90866
-17.9337
-69.565
64.5856
22.986
2.83585
1.0024
-59.7806
-4.949
58.9974
5.77727
-1.04748
2.12731
-61.8622
0.148047
61.981
0.0587785
-2.4529
3.01395
-63.8457
7.11602
63.1686
-6.15965
-3.29322
2.46143
-65.6197
9.61075
64.7209
-8.51244
-2.661
2.01041
-65.2998
11.6143
64.3739
-10.8242
-1.87461
0.414674
-65.5854
11.9102
64.7393
-11.5786
0.0998172
-0.728777
-65.6799
8.63637
64.8575
-8.30997
1.22484
-65.0189
1.20316
250.624
-2.56682
-0.697487
-64.1752
-63.4578
-62.6867
938.472
77.3034
-24.797
-247.593
-242.371
-236.513
-231.584
910.319
122.608
-4.86704
874.18
148.622
23.5235
846.62
157.484
12.3691
119.142
-25.6868
803.777
304.341
714.28
673.516
88.3419
-141.988
792.593
-7.84143
13.8203
722.766
171.29
14.6678
190.533
189.071
19.6558
188.149
187.578
186.692
4.73702
-47.1748
200.731
42.2451
-10.0053
0.779916
-18.4182
-58.1559
61.7766
15.3828
-1.36528
-1.19391
-8.18663
-67.3921
67.9648
7.45333
1.35454
-0.0516477
0.120317
-68.258
68.0515
0.151069
-0.0132933
1.9704
5.05224
-67.9507
68.0773
-4.93872
-2.21054
2.47786
8.45663
-69.4392
70.0185
-8.76117
-2.7526
1.25963
10.5799
-71.8602
72.0655
-10.6762
-1.36867
1.20168
11.5072
-71.3941
70.449
-10.7481
-1.0157
-1.1807
8.52688
-67.4228
66.6401
-8.09167
1.52815
-64.3661
-2.46382
-3.10426
249.39
7.31626
3.20549
-64.3627
-62.8373
-62.7778
918.061
106.116
-22.4771
-243.744
-242.509
-232.929
-231.588
893.742
146.414
-13.9772
877.246
165.889
2.69671
872.494
167.169
-5.6497
123.559
-25.9586
-167.389
1333.6
-480.429
197.977
55.92
-296.318
484.749
-155.78
-290.369
586.553
89.0908
20.8766
187.901
77.4983
-4.42792
185.696
180.56
179.715
-3.83975
-36.3015
206.639
17.7521
3.65089
-2.26702
-5.93314
-56.9739
60.0519
2.94403
2.17818
-2.01156
-2.95589
-65.0716
66.226
1.32514
2.48785
-1.34794
0.891377
-69.1828
69.9555
-1.89654
1.58039
-0.365542
6.01572
-71.1334
71.0946
-6.25608
0.644734
0.854562
10.0424
-71.287
71.5289
-9.97166
-1.16718
0.0345736
11.5749
-73.3507
73.962
-11.608
-0.612727
-0.443216
8.31069
-74.0662
73.2312
-7.52183
0.489316
-3.7958
4.13615
-68.8551
67.5209
-2.19589
3.18972
-64.8189
0.867683
-13.8319
248.453
19.9681
-1.0077
-63.8392
-63.306
-62.4849
923.069
119.387
-14.9001
-242.629
-240.078
-231.657
-229.91
913.297
153.063
-11.3297
912.877
165.548
-7.00836
930.345
155.71
-20.6869
105.467
-18.4056
1343.39
1409.82
-488.665
690.434
125.963
140.905
488.196
-199.175
350.46
492.806
60.4408
89.066
135.624
-13.749
34.1714
171.798
134.178
165.629
-3.34059
2.08962
166.933
-36.3814
6.32381
-4.85889
5.34368
-54.7828
59.6282
-9.9956
4.66535
-4.01648
2.75255
-63.8695
64.1988
-3.28612
4.22074
-2.09997
3.23519
-64.5824
64.5079
-3.34678
2.28604
-1.85427
5.7926
-64.2788
64.0446
-5.6311
1.92695
-1.92055
8.93947
-63.1785
62.3585
-8.17952
1.98063
-0.742317
9.47535
-59.3773
58.245
-8.03831
0.437578
1.80307
5.07921
-56.5795
56.3737
-4.55635
-2.12018
2.15484
-0.212594
-57.273
57.7476
0.0856471
-2.5024
-59.5547
9.30092
-21.5335
235.831
19.9766
-9.77613
-58.1722
-58.6955
-57.3765
941.132
87.7318
-19.9516
-235.544
-230.28
-226.837
-223.309
960.02
133.871
-18.7201
981.878
141.401
-10.5408
1008.91
127.944
-9.20418
83.3097
3.41097
1565.41
525.815
-2444.11
1407.98
253.786
-331.739
1051.61
141.288
-79.1396
1000.79
101.424
55.7068
1023.44
-20.1941
45.4506
228.199
-215.497
24.9219
58.5667
108.914
59.1853
104.556
232.956
216.466
222.438
12.3696
-8.33606
215.485
-16.0815
7.23285
3.19554
11.634
2.69986
3.13323
-3.83503
-190.222
194.075
-14.3886
3.86093
2.46835
2.78784
2.12017
5.33327
-1.50625
-212.272
218.438
-23.2389
1.43
3.57733
5.01019
3.22838
5.43735
-3.48852
-208.861
209.939
-23.3084
4.41825
5.53237
5.16116
5.1697
6.20441
-5.13358
-214.124
212.001
-20.9442
5.98923
5.27682
5.87413
4.85613
4.67733
-8.59633
-202.916
201.141
-14.4797
7.89684
4.1744
4.36026
3.74244
3.18415
-2.39482
-203.161
204.21
-9.63566
1.59132
1.93884
2.83588
1.43211
0.824793
2.51333
-202.535
206.203
-1.7482
-4.12784
-0.621517
0.397135
-0.905694
873.712
22.4527
-13.1824
-18.426
-18.9963
-19.7219
-18.8555
-208.902
-206.641
-204.133
-201.568
921.653
37.2247
-13.9226
966.441
83.8015
2.99903
1004.3
97.9156
11.5349
1031.43
94.3755
25.7161
66.2901
28.3126
57.9823
-111.142
-2117
466.535
-22.6403
-15.8499
740.351
36.7416
-313.698
774.79
72.4719
-2.54802
820.512
-29.6005
-4.01361
734.757
-130.28
-8.34875
796.32
36.5462
23.4742
-9.91806
-37.0465
-14.6722
-37.3685
804.972
-183.991
24.7949
22.0452
63.1496
23.6582
59.5392
824.241
-64.0683
19.7679
17.9439
3.99611
12.1778
1.01376
809.923
-126.539
20.5818
24.9258
45.2186
22.9339
42.7164
801.136
-35.5591
22.0318
13.3691
9.56024
9.43922
7.26031
788.828
-66.9476
23.3542
12.2863
27.6
10.7739
25.7189
787.039
-17.1799
19.3506
6.29325
4.97746
4.44851
3.55056
796.535
-31.4146
19.55
3.49044
7.7767
1.61252
6.99358
820.401
-2.57686
19.2458
854.937
2.31436
10.2793
904.405
30.4363
15.3179
946.703
49.4745
26.5163
980.075
54.2202
43.0368
41.7076
45.3834
401.184
-960.499
-435.629
888.504
-234.761
-697.081
1010.53
85.5127
-270.467
1068.5
32.1112
-139.622
982.212
57.9474
-51.2872
892.761
-42.5802
-60.852
917.041
-6.01523
33.0098
866.579
-141.982
5.65613
861.479
-65.1041
21.6425
825.025
-91.1964
2.08944
806.96
-18.9374
2.85138
786.163
-46.2575
1.48103
782.03
-13.8985
4.73757
778.418
-28.4758
5.877
785.693
-11.2435
7.1957
805.01
-16.7359
12.6542
836.993
-1.83963
18.7796
876.901
7.48174
25.2708
915.663
12.4704
32.2406
14.0534
31.4955
1669.76
-212.014
-3896.09
1139.03
318.149
-911.135
1007.74
376.434
-576.273
992.216
104.673
-315.688
965.51
88.2092
-172.19
926.488
-6.88626
-160.784
897.358
-13.8963
-21.3332
849.997
-112.875
9.89358
836.229
-53.5137
55.8799
810.044
-62.8708
18.6394
804.348
-13.7117
8.16651
795.768
-37.1927
-1.40661
800.888
-20.3445
0.353205
806.129
-34.5792
-1.67324
819.802
-28.3772
3.29403
832.009
-30.4905
3.07128
849.972
-21.5173
5.35271
869.9
-12.1374
6.19972
884.867
-1.17991
3.63459
5.36079
-5.29626
-177.862
406.646
-1529.89
89.8076
201.646
267.671
1010.15
36.7624
-407.092
1110.87
4.99414
6.34547
1198.99
20.3833
-102.497
1200.01
-19.3874
-85.375
1136.86
13.5292
95.1141
1004.54
12.0435
152.645
918.053
36.5445
167.498
850.849
9.76474
41.7633
827.594
6.4279
-13.1043
810.828
-16.348
-28.6885
813.453
-20.5791
-29.3992
814.08
-31.5099
-27.6069
821.632
-33.3194
-23.2253
832.252
-37.7339
-17.6384
851.075
-38.5095
-12.5207
868.709
-27.8235
-4.40509
881.382
-10.1781
-4.69072
3.04017
-14.8324
-281.438
410.06
-1771.48
325.403
-190.084
426.354
942.373
-393.066
-202.769
1127.06
-148.318
100.303
1201.23
-56.7969
88.0722
1181.52
12.3227
66.7653
1104.56
74.6298
177.179
1027.1
87.3502
120.424
971.086
89.0998
83.2318
936.461
49.924
11.2002
922.49
26.3021
-11.8809
913.694
6.28952
-35.4397
915.046
-9.22066
-39.6404
916.524
-22.8661
-43.9982
925.608
-33.4158
-39.9673
940.156
-46.053
-36.0229
958.889
-56.0112
-32.2298
976.35
-48.5698
-20.8061
987.958
-22.6481
-5.3988
0.90488
-5.72317
606.414
-72.4962
-3538.01
824.892
-190.154
-600.121
1001.18
-403.294
-388.362
1070.75
-163.481
-170.56
1103.15
-45.9953
-82.1903
1094.7
50.6072
-13.8573
1092.7
93.951
23.3172
1090.94
99.2294
21.9398
1102.32
81.4624
37.5088
1100.14
63.4189
10.8635
1093.35
47.3956
1.26602
1080.31
43.2233
-22.7771
1066.52
36.8789
-43.3677
1052.65
33.2107
-68.0306
1044.07
23.2638
-91.4942
1041.53
4.21433
-110.867
1048.22
-36.1697
-93.1203
1054.51
-47.8786
-62.6988
1061.69
-33.3886
-32.0432
-6.93035
-16.0143
1724.22
2224.22
1577.75
563.43
1374.63
-180.843
1333.08
-307.51
1302.36
-169.059
1353.62
-31.102
1432.6
43.2189
1525.36
39.8042
1590.18
45.3953
1632.46
38.1848
1646.05
60.3073
1655.46
72.3996
1656.51
88.0618
1659.52
85.4871
1655.35
76.7822
1624.41
79.7976
1543.24
106.435
1459.16
99.2037
1392.65
95.413
77.6078
-93.106
-1548.91
1418.17
696.734
-471.863
873.086
1422.39
-349.051
505.535
1613.71
-43.9362
130.388
1617.71
-1.7511
-16.2759
1624.78
-2.4868
12.7862
1599.28
21.3999
-7.38875
1581.59
22.5171
-27.6023
1534.57
39.8926
-18.6039
1496.34
33.1601
-32.7769
1461.33
23.3247
-7.36238
1447.49
5.0967
-5.095
1451.76
-6.46122
14.7282
1475.33
-14.9167
18.6802
1504.72
-9.94192
21.66
1525.68
1.88044
18.472
1520.94
20.8791
21.0978
1492.99
29.7017
26.7762
1438.59
42.4327
43.9525
29.8596
17.8509
528.582
-2595.3
239.189
880.847
-406.376
-264.358
1096.18
-79.0034
-124.877
1103.44
35.386
-19.6429
1075.59
34.5768
-72.3585
1046.44
16.2578
-84.7639
1052.78
10.2686
-118.823
1049.67
14.5358
-118.624
1061.78
10.5567
-85.7814
1065.58
11.1808
-49.206
1082.04
1.57998
4.64025
1097.21
1.19775
20.6557
1115.43
-3.20952
33.5615
1125.45
1.36386
13.0021
1128.17
4.73506
-5.39514
1125.29
9.25451
-28.4675
1119.67
20.7927
-29.9041
1108.73
27.2531
-28.2029
1095.58
38.8234
-8.55181
33.0626
-2.61076
1349.02
-2889.85
229.709
646.414
-359.282
632.057
759.271
-75.8718
-160.249
758.557
-16.1184
-14.6656
819.015
-37.3676
-67.5153
834.246
-14.441
-19.9251
894.149
-46.0449
3.88331
915.451
2.76969
11.9323
956.749
-15.6533
37.0678
973.555
12.7595
32.2205
992.954
2.09686
41.2036
998.27
14.4004
24.7718
998.349
10.1163
15.6416
990.064
17.1334
-2.7688
976.71
18.8399
-12.8
960.448
21.244
-22.1819
945.901
25.3558
-21.7453
937.191
27.1061
-13.5899
939.142
34.0229
1.25988
31.7653
2.42249
787.017
-815.544
-1270.31
667.771
-87.0036
-595.758
916.117
-128.92
-22.7388
862.736
8.74721
36.0368
891.497
-53.6331
2.80088
856.598
15.8778
14.5842
873.804
-58.1929
12.3372
855.624
24.0289
7.76625
878.518
-30.9034
16.9997
883.457
17.1545
17.1831
908.208
-10.8615
28.5898
920.14
15.8909
23.1138
933.597
10.8706
25.3452
933.492
27.9388
14.5917
926.108
35.2302
9.56127
910.375
44.6379
4.11107
895.034
46.1018
6.71869
884.306
41.9452
5.26778
886.208
36.3538
8.57059
30.9232
5.71752
839.238
343.547
192.998
817.561
-10.2544
75.5375
904.768
-58.2923
137.927
859.792
78.7605
255.651
897.053
-24.6826
100.498
846.484
72.03
39.6919
874.453
-75.3513
32.3522
859.38
44.061
8.04805
879.044
-47.3244
16.2291
883.375
15.9205
5.4575
902.887
-27.4893
11.5759
912.432
9.93515
2.80982
923.447
2.83373
4.28879
921.129
30.1863
-9.18445
910.517
45.7128
-11.1696
892.753
61.29
-11.0457
879.491
63.8195
4.16736
873.504
55.2811
7.4091
880.789
34.3353
9.77757
28.0441
6.40295
1030.49
170.781
2354.83
1039.84
-260.045
154.138
938.505
-161.102
128.864
975.607
31.2941
245.475
950.791
60.3033
175.799
894.232
140.323
69.9412
894.982
-72.1696
22.1945
830.172
105.922
2.72974
822.371
-44.6033
-7.08171
809.242
23.9826
-9.49638
830.62
-56.8064
0.382933
846.012
-9.46695
-0.151884
868.401
-25.0724
0.579697
879.136
16.3245
-11.9374
879.881
39.9989
-16.9341
870.53
66.2186
-14.6208
866.189
68.9369
-4.41317
868.265
57.006
4.76178
875.126
37.3091
20.2443
35.362
16.9955
766.598
347.339
-356.692
1069.14
-343.743
269.471
999.911
-89.5599
107.451
950.614
33.0708
64.8121
948.245
86.867
84.1286
848.599
235.314
14.9148
830.431
-1.19053
21.0698
-20.7064
-4.60338
-21.7292
793.05
27.9084
-1.62081
43.7401
28.4162
42.9881
792.631
-8.03258
-11.8791
-17.6884
-9.25289
-16.5413
806.052
-7.36377
4.03468
5.27214
-4.65024
8.76819
829.573
-27.456
-3.96656
-21.6306
-23.4471
-16.5113
850.561
-21.5714
9.68033
-5.25154
-15.0156
1.55843
868.239
-20.2448
5.83513
-8.66051
-14.429
-5.08407
874.959
-7.90764
-12.1559
6.60537
-3.07591
10.4741
870.218
36.4096
-24.7826
861.7
70.6663
-10.9195
857.305
76.4887
-0.794435
851.18
71.5635
20.6593
842.608
68.6071
46.1518
62.1898
29.4286
1887.65
-194.335
2238.3
1471.16
-138.184
115.496
1177.11
131.942
208.765
1066.01
136.067
86.2373
1028.15
162.698
78.8171
221.634
79.7086
36.3388
221.354
214.459
213.838
115.826
81.3359
114.45
-7.38499
200.544
24.0465
3.23869
12.8069
-179.44
187.433
17.6174
-10.5089
12.9368
-199.916
196.485
-4.58689
-12.9512
12.1521
-195.475
202.127
-17.8861
-8.28195
9.73131
-212.141
210.403
-28.3813
-7.06783
2.83454
-213.209
215.51
-27.0598
0.352519
-2.70775
-222.734
221.74
-20.8543
4.31194
-1.56729
-224.296
224.032
-8.96568
2.88909
854.738
4.80064
-19.3276
-223.878
-221.132
-213.646
-209.937
14.9132
6.54442
16.9858
838.177
80.2064
-23.2938
818.517
97.0267
-2.02718
799.47
104.916
27.8513
779.088
107.021
28.1675
81.1384
-0.895189
1171.04
-946.871
-1041.1
947.13
-97.2477
144.993
747.258
129.857
-259.695
675.511
168.434
-22.5139
195.216
199.526
125.988
188.445
183.332
177.093
-58.5911
212.669
70.6158
50.2302
-3.48237
-15.3777
-57.5472
54.0179
19.9706
2.41884
1.00184
-52.1221
-2.94103
51.8403
3.27005
-1.04897
2.77258
-55.0908
1.60695
54.8544
-1.38242
-2.76066
3.54764
-55.7893
6.23846
55.1267
-5.81388
-3.30962
2.94296
-57.334
7.74885
56.4732
-7.17282
-2.65815
1.54108
-56.8926
8.13363
56.1037
-7.77871
-1.10709
-0.66034
-57.53
6.34452
56.8528
-6.06476
1.05779
-1.23873
-57.5067
2.40013
56.9346
-1.94934
1.35999
-56.9566
1.38996
219.639
7.71352
-0.302311
-56.1749
-55.6481
-54.8602
807.07
93.4285
-11.6622
-216.416
-211.871
-205.156
-199.985
783.713
119.362
-3.84563
771.747
127.573
12.8341
762.499
125.142
3.49582
86.313
-22.3286
295.138
-46.5774
1130.9
278.47
120.92
-343.488
625.073
136.188
-339.114
580.999
200.434
26.7403
169.339
175.318
-43.2892
170.212
163.43
165.17
7.16496
-54.0815
181.084
40.9889
-5.81692
0.503809
-16.8449
-52.3725
55.6293
13.4637
-0.379424
-1.51712
-5.03949
-59.9566
60.3422
4.69229
1.4787
0.235403
1.5675
-60.7523
60.6987
-1.44134
-0.308009
2.43897
5.64506
-60.7787
60.8179
-5.58296
-2.54029
-61.3717
3.18158
7.66927
61.5439
-7.95796
-3.06508
-61.7741
1.34379
8.13564
-8.07033