/*--------------------------------*- C++ -*----------------------------------*\
  =========                 |
  \\      /  F ield         | OpenFOAM: The Open Source CFD Toolbox
   \\    /   O peration     | Website:  https://openfoam.org
    \\  /    A nd           | Version:  10
     \\/     M anipulation  |
\*---------------------------------------------------------------------------*/
FoamFile
{
    format      ascii;
    class       volScalarField;
    location    "2.6";
    object      turbidity;
}
// * * * * * * * * * * * * * * * * * * * * * * * * * * * * * * * * * * * * * //

dimensions      [0 0 0 0 0 0 0];

internalField   nonuniform List<scalar> 
12920
(
-0.00841541
-0.0414962
-0.0781055
-0.106336
-0.123862
-0.142053
-0.156838
-0.16774
-0.176084
-0.180824
-0.185063
-0.191798
-0.206298
-0.226627
-0.250008
-0.272168
-0.290942
-0.306473
-0.320088
-0.336966
-0.0319215
-0.0595499
-0.0859005
-0.11965
-0.148466
-0.168941
-0.17963
-0.18551
-0.195586
-0.21245
-0.233667
-0.255539
-0.279794
-0.302621
-0.321343
-0.33588
-0.34902
-0.364355
-0.386292
-0.415505
-0.0142957
-0.0442617
-0.0738761
-0.0986617
-0.129398
-0.170772
-0.21327
-0.245063
-0.267879
-0.285445
-0.30178
-0.317285
-0.332179
-0.346459
-0.358421
-0.368948
-0.385966
-0.418598
-0.45941
-0.500148
-0.0398297
-0.0662257
-0.0870413
-0.11306
-0.145113
-0.184398
-0.222417
-0.255351
-0.277065
-0.29412
-0.305926
-0.318142
-0.33133
-0.349176
-0.37415
-0.407289
-0.446408
-0.489831
-0.537179
-0.585166
-0.0424574
-0.0570598
-0.0803222
-0.113671
-0.147806
-0.183639
-0.208503
-0.231624
-0.245449
-0.25884
-0.267195
-0.277341
-0.288497
-0.304375
-0.331647
-0.370739
-0.41779
-0.472684
-0.533653
-0.594757
-0.0398413
-0.0439698
-0.0654785
-0.0977508
-0.129129
-0.162456
-0.180038
-0.201615
-0.209465
-0.218893
-0.220523
-0.22645
-0.233555
-0.2493
-0.28183
-0.334886
-0.395874
-0.457465
-0.522329
-0.595765
-0.033741
-0.0417236
-0.056149
-0.0838672
-0.110213
-0.128036
-0.14125
-0.157529
-0.161762
-0.165763
-0.159592
-0.161711
-0.165985
-0.178939
-0.213416
-0.279302
-0.354229
-0.429418
-0.513696
-0.609422
-0.0281414
-0.0542504
-0.0675467
-0.0961991
-0.128056
-0.144968
-0.13586
-0.122301
-0.113542
-0.0968763
-0.0895876
-0.0859086
-0.0850701
-0.0868761
-0.121879
-0.186169
-0.271262
-0.364714
-0.461607
-0.534492
-0.0183782
-0.0537503
-0.071518
-0.0823122
-0.103531
-0.116963
-0.127937
-0.112305
-0.098172
-0.0858945
-0.0766487
-0.0706918
-0.0683321
-0.0706764
-0.0813584
-0.136354
-0.218066
-0.313935
-0.404027
-0.444648
-0.0157504
-0.0540969
-0.0896943
-0.125669
-0.150381
-0.133362
-0.121458
-0.106933
-0.094688
-0.0820229
-0.0758467
-0.0736501
-0.0713349
-0.0734844
-0.0862703
-0.128984
-0.195465
-0.277343
-0.349629
-0.384425
-0.0393819
-0.0723729
-0.0899311
-0.130279
-0.156302
-0.144465
-0.128178
-0.109022
-0.0987332
-0.09475
-0.0924226
-0.0943963
-0.0936838
-0.0888098
-0.0969817
-0.129945
-0.182188
-0.245247
-0.300308
-0.336943
-0.0375632
-0.0672972
-0.0846966
-0.130632
-0.164752
-0.153782
-0.151601
-0.141205
-0.134294
-0.130251
-0.13356
-0.142776
-0.143639
-0.1365
-0.119782
-0.134918
-0.174478
-0.220469
-0.264514
-0.299592
-0.0471539
-0.0661903
-0.0736213
-0.112928
-0.154317
-0.180188
-0.179863
-0.17454
-0.18434
-0.195255
-0.21303
-0.229242
-0.247703
-0.228459
-0.212756
-0.208794
-0.21865
-0.239384
-0.265971
-0.293814
-0.0379533
-0.0521589
-0.0663774
-0.0979801
-0.132002
-0.161207
-0.195159
-0.222792
-0.253955
-0.290948
-0.334092
-0.381633
-0.422238
-0.448533
-0.444236
-0.413851
-0.376717
-0.36023
-0.365822
-0.392551
-0.011077
-0.0273441
-0.0419782
-0.0630962
-0.0938005
-0.128147
-0.17027
-0.209067
-0.251354
-0.295366
-0.344919
-0.397959
-0.448991
-0.490951
-0.52219
-0.540515
-0.538758
-0.531223
-0.537239
-0.562902
-0.0108323
-0.0246301
-0.0395309
-0.0529673
-0.0705197
-0.0920266
-0.131949
-0.185699
-0.248899
-0.30673
-0.354232
-0.39337
-0.430428
-0.463516
-0.49665
-0.527423
-0.55592
-0.579289
-0.595745
-0.597
-0.0267565
-0.0400916
-0.0540266
-0.0644557
-0.0736281
-0.0869007
-0.108985
-0.15676
-0.240876
-0.313022
-0.344753
-0.360972
-0.378125
-0.400185
-0.429233
-0.462895
-0.499696
-0.534951
-0.557377
-0.55658
-0.04283
-0.060338
-0.0712348
-0.0815797
-0.0902709
-0.104762
-0.132631
-0.184913
-0.247174
-0.292211
-0.312786
-0.318571
-0.323364
-0.33005
-0.341064
-0.355298
-0.376908
-0.410182
-0.454829
-0.497103
-0.0273774
-0.0503068
-0.063377
-0.0880929
-0.112857
-0.138814
-0.168085
-0.203005
-0.238029
-0.269068
-0.295844
-0.313219
-0.318296
-0.316688
-0.316918
-0.325083
-0.346183
-0.378129
-0.421936
-0.474981
-0.0388659
-0.0540222
-0.0586608
-0.080904
-0.110412
-0.140857
-0.162398
-0.177409
-0.188168
-0.198419
-0.210523
-0.226194
-0.24391
-0.262805
-0.282359
-0.304286
-0.332152
-0.368878
-0.412836
-0.459773
-0.0194371
-0.0367203
-0.0343427
-0.0252475
-0.0239634
-0.0302
-0.0365949
-0.0406658
-0.0417276
-0.039559
-0.0361174
-0.0339193
-0.0363729
-0.0466298
-0.0631393
-0.0801605
-0.0935555
-0.101229
-0.107097
-0.109317
-0.0102611
-0.0384541
-0.0418996
-0.0352613
-0.0279653
-0.0281331
-0.031584
-0.0352895
-0.0411454
-0.0492246
-0.0629673
-0.0759102
-0.0826513
-0.0816925
-0.077861
-0.0799011
-0.0901841
-0.103946
-0.119433
-0.13381
-0.00849288
-0.0228305
-0.02483
-0.0182505
-0.0218009
-0.0329
-0.051922
-0.0693873
-0.0845071
-0.0923714
-0.0953576
-0.090696
-0.0832582
-0.0754381
-0.0735057
-0.0797184
-0.0922561
-0.108123
-0.124109
-0.132737
-0.0135014
-0.0205211
-0.0242749
-0.0235192
-0.0302683
-0.0419657
-0.0548649
-0.0674336
-0.0763824
-0.0866137
-0.0950416
-0.104314
-0.114655
-0.124766
-0.135081
-0.142879
-0.149868
-0.157031
-0.162988
-0.162997
-0.0204879
-0.0369548
-0.0493298
-0.0481259
-0.0501688
-0.0447411
-0.0413088
-0.0402042
-0.0391672
-0.0411344
-0.0447048
-0.0503378
-0.0592844
-0.0713656
-0.0890732
-0.112335
-0.140777
-0.164566
-0.182637
-0.196015
-0.0156679
-0.0218408
-0.0331676
-0.0428418
-0.0465011
-0.0356277
-0.0239703
-0.0196366
-0.0177383
-0.0204584
-0.0250247
-0.0317377
-0.0405213
-0.0529624
-0.0705269
-0.0944619
-0.126617
-0.168854
-0.224274
-0.272657
-0.024865
-0.0241535
-0.0228102
-0.0235705
-0.0302763
-0.0236569
-0.0152771
-0.0110053
-0.01155
-0.0152495
-0.0204606
-0.0269587
-0.0345272
-0.0450481
-0.0624681
-0.0904685
-0.133538
-0.19312
-0.25988
-0.296159
-0.0259487
-0.0268253
-0.0337651
-0.0297817
-0.0263456
-0.0142583
-0.0125346
-0.00804894
-0.00904276
-0.0112237
-0.0162289
-0.0246754
-0.0348334
-0.04207
-0.058638
-0.086144
-0.128901
-0.180824
-0.210157
-0.195985
-0.035727
-0.0300361
-0.035862
-0.0426449
-0.0540806
-0.0512606
-0.0282078
-0.00930866
-0.00775624
-0.00886445
-0.014422
-0.0265405
-0.043015
-0.0534598
-0.0505237
-0.0793814
-0.117076
-0.154155
-0.160618
-0.136062
-0.0143274
-0.0278892
-0.0347082
-0.0337419
-0.0292024
-0.0227998
-0.0197732
-0.0207874
-0.0133582
-0.0131256
-0.0206429
-0.032986
-0.0517279
-0.0658739
-0.0527177
-0.0676542
-0.0956809
-0.119288
-0.121547
-0.107959
-0.0469624
-0.0171028
-0.0136215
-0.0274566
-0.0264924
-0.0254689
-0.033483
-0.0395167
-0.0384732
-0.0370626
-0.0491944
-0.0698108
-0.0796849
-0.0853148
-0.0590918
-0.055753
-0.0730114
-0.0878493
-0.0917707
-0.0884473
-0.00887504
-0.0190999
-0.0158842
-0.0274071
-0.0233662
-0.0290024
-0.0504208
-0.0669791
-0.0634762
-0.0675844
-0.090963
-0.109175
-0.0918368
-0.066534
-0.0489132
-0.0465683
-0.0557848
-0.0654653
-0.0718392
-0.0766217
-0.00963506
-0.0177681
-0.0147631
-0.0258977
-0.0255459
-0.0284847
-0.0409983
-0.0428504
-0.0423439
-0.0660884
-0.0979403
-0.111555
-0.0893043
-0.0667278
-0.0558662
-0.0562004
-0.0614214
-0.0710951
-0.0841692
-0.0948338
-0.00668987
-0.00900826
-0.00847494
-0.0138038
-0.0212011
-0.0255845
-0.0347171
-0.0418692
-0.0518914
-0.0686763
-0.0880613
-0.0984821
-0.101588
-0.100734
-0.101719
-0.0996532
-0.101322
-0.110844
-0.127282
-0.144503
-0.00181557
-0.00360079
-0.00494321
-0.00741615
-0.0140187
-0.0263633
-0.0442486
-0.0509371
-0.0534602
-0.0553915
-0.0641894
-0.0698303
-0.0777514
-0.0850271
-0.0945819
-0.109688
-0.128924
-0.146286
-0.168095
-0.188491
-0.00151934
-0.00348693
-0.00491803
-0.00715673
-0.0141606
-0.0288071
-0.0526233
-0.0682674
-0.0713972
-0.0574342
-0.0494236
-0.0437232
-0.0425736
-0.0435693
-0.0489235
-0.0546547
-0.0610995
-0.067576
-0.0715853
-0.0697941
-0.00583162
-0.0177335
-0.00974151
-0.0116242
-0.0197705
-0.0351583
-0.0639466
-0.0866359
-0.0803688
-0.0467644
-0.0293967
-0.0259262
-0.0269338
-0.029632
-0.0330617
-0.036466
-0.0392229
-0.0413908
-0.0422851
-0.0433925
-0.0124065
-0.0190284
-0.018093
-0.0258254
-0.0342226
-0.043626
-0.05987
-0.0624086
-0.0539713
-0.0386212
-0.0313075
-0.0290913
-0.0295423
-0.0317742
-0.0354865
-0.0403463
-0.046007
-0.0525358
-0.0614363
-0.0691742
-0.00371776
-0.0124445
-0.0120162
-0.0154371
-0.0240738
-0.0323462
-0.0409946
-0.0434377
-0.0474806
-0.0484887
-0.0476381
-0.0429939
-0.0417824
-0.0441255
-0.0491971
-0.0567056
-0.0649806
-0.0692526
-0.0712688
-0.0758528
-0.008981
-0.0155247
-0.0103985
-0.0104462
-0.0150367
-0.0228483
-0.0303272
-0.0318398
-0.0308626
-0.0307839
-0.0368915
-0.0492567
-0.0663429
-0.0847872
-0.104355
-0.12715
-0.153053
-0.176967
-0.197902
-0.214021
-0.0120789
-0.0229699
-0.0143903
-0.0115496
-0.0134784
-0.0180362
-0.0222469
-0.0244378
-0.0244702
-0.0230104
-0.0219058
-0.0226613
-0.0259452
-0.0313846
-0.0381476
-0.0453203
-0.05209
-0.0575839
-0.062068
-0.0621293
-0.0213192
-0.0228855
-0.0172795
-0.0138701
-0.0141539
-0.0158781
-0.0182291
-0.0206285
-0.023751
-0.0277668
-0.0338629
-0.0404691
-0.0466165
-0.0520192
-0.0573796
-0.0621338
-0.0658651
-0.0680849
-0.0692403
-0.0676746
-0.0392873
-0.0223329
-0.0113729
-0.00985131
-0.0113395
-0.0148556
-0.0205783
-0.0260207
-0.0315826
-0.0344348
-0.0361795
-0.0363182
-0.0374843
-0.0398792
-0.043657
-0.0475423
-0.0510023
-0.0531136
-0.0541211
-0.0523524
-0.0209893
-0.0128221
-0.0104901
-0.0102825
-0.0129861
-0.0172694
-0.0218887
-0.0272269
-0.0321333
-0.0374602
-0.0428213
-0.0480092
-0.053437
-0.0574514
-0.0608065
-0.0634312
-0.0660731
-0.0678914
-0.0686979
-0.0678777
-0.0141096
-0.0187915
-0.0231824
-0.01818
-0.0166873
-0.0150366
-0.0151368
-0.017116
-0.0191812
-0.0223174
-0.0259915
-0.0307549
-0.0366317
-0.0436528
-0.0523401
-0.0624584
-0.0741754
-0.0849379
-0.0946972
-0.102301
-0.00719333
-0.0149614
-0.0190117
-0.0192892
-0.0166823
-0.0123239
-0.0104342
-0.0122712
-0.0146723
-0.0182007
-0.0221393
-0.0271186
-0.0332286
-0.0409719
-0.0511663
-0.0650214
-0.0842957
-0.10948
-0.139461
-0.162211
-0.0115923
-0.0154645
-0.0173586
-0.0158032
-0.0141453
-0.00951389
-0.00770411
-0.00950498
-0.0124835
-0.0160933
-0.0200703
-0.025107
-0.0318548
-0.0413395
-0.0545852
-0.0732637
-0.0990401
-0.129997
-0.156726
-0.16116
-0.00627382
-0.0152711
-0.0198047
-0.0140334
-0.00956702
-0.00692545
-0.00636799
-0.00834586
-0.0105605
-0.0133607
-0.0173032
-0.0218509
-0.0267131
-0.0341645
-0.0568267
-0.0764743
-0.0987593
-0.11617
-0.115862
-0.0996111
-0.0108943
-0.019029
-0.0234263
-0.0236494
-0.0230719
-0.0168849
-0.00839188
-0.00608724
-0.00712345
-0.0106804
-0.0162757
-0.0227092
-0.0283858
-0.0311597
-0.0455083
-0.0749124
-0.0898171
-0.0943842
-0.0833959
-0.0663034
-0.0264804
-0.0146523
-0.0140384
-0.0131471
-0.010401
-0.00929291
-0.00780426
-0.00744689
-0.00956741
-0.0152494
-0.0230155
-0.0307283
-0.0348544
-0.033862
-0.0391759
-0.0627489
-0.0727373
-0.0733675
-0.0655724
-0.0562062
-0.0226891
-0.0109197
-0.00967441
-0.0104779
-0.00968054
-0.0102671
-0.0119741
-0.0140908
-0.0172474
-0.0251813
-0.035633
-0.0433095
-0.0446349
-0.0387987
-0.0334444
-0.0471124
-0.0544282
-0.0561142
-0.053601
-0.0506079
-0.0454982
-0.0140803
-0.00915978
-0.0107963
-0.0110848
-0.0137963
-0.0170038
-0.0197771
-0.0249176
-0.036007
-0.049766
-0.0467754
-0.0360992
-0.0308805
-0.02878
-0.0374486
-0.0434395
-0.047497
-0.0495859
-0.0507193
-0.00827349
-0.0120957
-0.00952552
-0.01144
-0.0125378
-0.0151047
-0.0175479
-0.0223469
-0.0285344
-0.0391181
-0.044089
-0.0394991
-0.0331206
-0.0332177
-0.0375232
-0.0420665
-0.0467629
-0.0511101
-0.0548032
-0.0560887
-0.00229746
-0.00480923
-0.00605447
-0.00986799
-0.0131629
-0.0161908
-0.0190955
-0.023021
-0.0284813
-0.0329494
-0.0362831
-0.036663
-0.036742
-0.0385725
-0.04283
-0.0471559
-0.0524466
-0.0594562
-0.0682881
-0.0768608
-0.000356442
-0.0023695
-0.00520648
-0.00902782
-0.0141123
-0.019128
-0.02329
-0.0245225
-0.0257843
-0.0264775
-0.0283311
-0.0296413
-0.0328045
-0.0369943
-0.0428864
-0.0501608
-0.0595111
-0.0695148
-0.0811823
-0.0915153
-0.000714986
-0.00206235
-0.00387798
-0.0077949
-0.0154897
-0.0232155
-0.0302734
-0.0299075
-0.0271297
-0.0235475
-0.0229512
-0.0237247
-0.0258184
-0.0286341
-0.0323389
-0.0361554
-0.0403945
-0.0445785
-0.048777
-0.0523424
-0.00235987
-0.00543288
-0.00613132
-0.00983067
-0.0187866
-0.0284097
-0.0424057
-0.0411205
-0.0295453
-0.0212624
-0.0203723
-0.0220077
-0.0241423
-0.0263913
-0.0286118
-0.0308956
-0.0333114
-0.0360289
-0.0392873
-0.0430522
-0.0030994
-0.00961883
-0.0127384
-0.0148715
-0.0179256
-0.0191411
-0.0244581
-0.0226449
-0.0209267
-0.0209073
-0.0228658
-0.0255068
-0.0283525
-0.0311255
-0.0337116
-0.0359603
-0.037729
-0.0395128
-0.0426078
-0.0478647
-0.00242263
-0.00493029
-0.00651531
-0.00825434
-0.0100379
-0.0109693
-0.0135875
-0.0158731
-0.0194291
-0.0228846
-0.0270057
-0.0316259
-0.0367214
-0.0420981
-0.0480175
-0.0536941
-0.0575569
-0.058636
-0.0597831
-0.0635978
-0.00155716
-0.00167476
-0.00222225
-0.00427634
-0.00650292
-0.0082345
-0.00997449
-0.0108479
-0.0121882
-0.0149069
-0.0203471
-0.028877
-0.0402693
-0.05341
-0.0680433
-0.0843924
-0.100567
-0.111885
-0.119259
-0.123475
-0.0127018
-0.0123252
-0.00881804
-0.00896784
-0.0108448
-0.013332
-0.0151279
-0.0157505
-0.0160928
-0.0175134
-0.0205254
-0.0245889
-0.0288694
-0.032834
-0.0361569
-0.0385751
-0.0399637
-0.0401376
-0.0395641
-0.0369785
-0.00701088
-0.00995111
-0.00982516
-0.0101853
-0.0115239
-0.0133436
-0.0154395
-0.0181328
-0.0217737
-0.0262174
-0.0307579
-0.0345047
-0.0371924
-0.0382542
-0.0382285
-0.0372761
-0.0358728
-0.0341296
-0.0328363
-0.0309479
-0.0201852
-0.0123363
-0.00767773
-0.0073989
-0.0086104
-0.0105901
-0.0131897
-0.0157514
-0.0184438
-0.0204485
-0.0222434
-0.0235938
-0.0248119
-0.0257693
-0.0264797
-0.0268483
-0.0271166
-0.027284
-0.0275717
-0.0273796
-0.00479946
-0.00804129
-0.00646087
-0.00677838
-0.00822988
-0.0105402
-0.0129052
-0.0154993
-0.0180975
-0.0208206
-0.0237814
-0.0263902
-0.0290276
-0.0308666
-0.0325266
-0.0338776
-0.0352046
-0.0361147
-0.0367126
-0.0371888
-0.0126084
-0.00957629
-0.00823814
-0.00804893
-0.0081285
-0.00906226
-0.0105248
-0.0123136
-0.0143369
-0.016698
-0.0196669
-0.0231033
-0.0272355
-0.0317582
-0.0370254
-0.0425765
-0.0483838
-0.0534286
-0.0578468
-0.0615371
-0.00299904
-0.00842957
-0.00832596
-0.00864984
-0.0081819
-0.00878354
-0.0101338
-0.0122906
-0.0149442
-0.0177602
-0.0214304
-0.0254347
-0.0304713
-0.0361855
-0.043448
-0.0523234
-0.062975
-0.0742122
-0.084989
-0.0910801
-0.00881193
-0.013442
-0.00982149
-0.00785855
-0.00662366
-0.00668123
-0.0087588
-0.0116755
-0.0149282
-0.018417
-0.0226265
-0.027761
-0.0339602
-0.0409371
-0.049364
-0.0592331
-0.0694603
-0.0778129
-0.0812071
-0.0761658
-0.00943939
-0.0162528
-0.013654
-0.00893375
-0.0068487
-0.00679379
-0.00775914
-0.0111279
-0.0132344
-0.0154799
-0.0183857
-0.0230201
-0.0301848
-0.0390057
-0.0494529
-0.055565
-0.0596261
-0.0593094
-0.0528458
-0.0446684
-0.00685881
-0.0117697
-0.0152846
-0.0127689
-0.0101433
-0.00835541
-0.00711251
-0.00810818
-0.0105392
-0.0138135
-0.0166071
-0.0186905
-0.0232858
-0.0339422
-0.0485162
-0.0492498
-0.0478334
-0.0429951
-0.035303
-0.0286465
-0.0167336
-0.0102197
-0.0117687
-0.0102684
-0.0087932
-0.00801182
-0.00751375
-0.00853213
-0.0115477
-0.015112
-0.0184253
-0.0201964
-0.0216196
-0.02877
-0.0445728
-0.044184
-0.0426109
-0.0394491
-0.0359273
-0.0336497
-0.0101812
-0.00833834
-0.00882507
-0.00843756
-0.00856402
-0.00909491
-0.0104925
-0.0126573
-0.0155698
-0.0190124
-0.0230792
-0.0245309
-0.0229561
-0.025282
-0.0365887
-0.0376286
-0.0378789
-0.0375867
-0.0374807
-0.0381612
-0.0124497
-0.00835858
-0.0076843
-0.00845812
-0.00981627
-0.0115406
-0.0129578
-0.0156429
-0.0201594
-0.0231232
-0.0229961
-0.0212294
-0.0210977
-0.0225244
-0.0273764
-0.0320072
-0.0346016
-0.0367203
-0.0385785
-0.0400751
-0.00212919
-0.00453414
-0.0059376
-0.00815055
-0.00993511
-0.0120128
-0.0137275
-0.0172815
-0.0191
-0.0210268
-0.0209523
-0.0205755
-0.0217235
-0.0243736
-0.028899
-0.0323765
-0.0357879
-0.038969
-0.0417954
-0.0437908
-0.00185429
-0.00275123
-0.00452384
-0.0079447
-0.0105201
-0.0125473
-0.014756
-0.0167899
-0.0188699
-0.0207809
-0.0223291
-0.0243368
-0.0264665
-0.0296787
-0.033393
-0.0376414
-0.0423992
-0.0482348
-0.0547786
-0.0610472
-0.000493356
-0.00203494
-0.00511194
-0.00835288
-0.0112948
-0.0134985
-0.0154527
-0.016732
-0.018322
-0.0201808
-0.0226465
-0.0256109
-0.029207
-0.033231
-0.0378
-0.0427167
-0.0482418
-0.0540532
-0.0600424
-0.0648244
-0.00218865
-0.0030095
-0.00482216
-0.00807522
-0.0124344
-0.0149433
-0.0170586
-0.0176243
-0.0185853
-0.0201762
-0.0224787
-0.0251492
-0.0280376
-0.0309792
-0.0339669
-0.0367492
-0.0393805
-0.0415675
-0.0434972
-0.0448247
-0.0034421
-0.00462272
-0.00564459
-0.00825234
-0.0135321
-0.0165002
-0.0212254
-0.0201357
-0.0191246
-0.0205031
-0.0230686
-0.0257915
-0.0284655
-0.0311747
-0.0339226
-0.0367325
-0.0395028
-0.0421835
-0.0448789
-0.0473985
-0.00274899
-0.00737946
-0.00798719
-0.00754052
-0.00855264
-0.00974912
-0.0129563
-0.0150431
-0.0177379
-0.020941
-0.0243192
-0.0275656
-0.0305552
-0.0333892
-0.0362931
-0.0396502
-0.0438299
-0.0490936
-0.055276
-0.0614029
-0.00112508
-0.00287445
-0.00409944
-0.00503075
-0.00613224
-0.0078176
-0.0106275
-0.0140597
-0.0181949
-0.0226004
-0.0272013
-0.0318302
-0.0366712
-0.0413053
-0.0454754
-0.0483387
-0.0501664
-0.0526303
-0.0572434
-0.0635973
-0.000802732
-0.000972851
-0.00170704
-0.00301977
-0.0043725
-0.00559033
-0.0069132
-0.0085887
-0.0112462
-0.0154267
-0.0213564
-0.0290167
-0.0379865
-0.0476073
-0.0573408
-0.0658523
-0.070895
-0.0715379
-0.0716548
-0.0722111
-0.0167435
-0.0165264
-0.0138108
-0.00927422
-0.00752273
-0.00785553
-0.00949776
-0.0124399
-0.0159119
-0.0186968
-0.0204475
-0.0212162
-0.0216631
-0.021747
-0.0218361
-0.0218677
-0.0219263
-0.0217665
-0.021478
-0.0205224
-0.00465522
-0.010251
-0.00849922
-0.00804073
-0.00936177
-0.0116889
-0.0141087
-0.0166072
-0.0184669
-0.0195347
-0.0202701
-0.0202921
-0.0200231
-0.0193738
-0.0186985
-0.0178583
-0.0168551
-0.0157059
-0.0146299
-0.0134507
-0.0127
-0.00806601
-0.00653682
-0.00716541
-0.00888289
-0.010809
-0.0126058
-0.0140481
-0.0153322
-0.0163027
-0.0171303
-0.0176177
-0.0178461
-0.0177366
-0.0172859
-0.0165042
-0.0154791
-0.0143184
-0.013196
-0.0122871
-0.0213618
-0.00873352
-0.00637123
-0.00693129
-0.00856555
-0.0104926
-0.0123841
-0.0141755
-0.0159729
-0.0174934
-0.018933
-0.0198195
-0.0204086
-0.0203764
-0.0200409
-0.0193798
-0.0185823
-0.0176627
-0.0168017
-0.0163343
-0.00398105
-0.00593296
-0.00549199
-0.00643448
-0.00785261
-0.00965369
-0.0119129
-0.0139259
-0.0163304
-0.0183644
-0.0204424
-0.0219717
-0.023312
-0.0241943
-0.0249923
-0.0255086
-0.0259371
-0.0261063
-0.0263522
-0.026777
-0.00804417
-0.00668547
-0.00596801
-0.00684951
-0.00858529
-0.0109881
-0.0138484
-0.0161668
-0.0190396
-0.0209924
-0.0228684
-0.0239789
-0.0247989
-0.0253973
-0.0260629
-0.0268459
-0.0276772
-0.0282181
-0.0289225
-0.0288933
-0.0142954
-0.012101
-0.00664007
-0.00591308
-0.00732877
-0.010195
-0.0139741
-0.0171246
-0.0202876
-0.0225039
-0.0240729
-0.0247295
-0.0244043
-0.0238474
-0.0230778
-0.0224317
-0.021707
-0.0207255
-0.019475
-0.0173216
-0.029766
-0.025708
-0.0127954
-0.00808106
-0.00843233
-0.0105408
-0.0125125
-0.0166934
-0.0188694
-0.0216331
-0.0239277
-0.0254696
-0.0251607
-0.0231681
-0.0161745
-0.014936
-0.0137241
-0.012379
-0.010554
-0.00930725
-0.00296335
-0.00991426
-0.0122391
-0.0101943
-0.00935556
-0.00962175
-0.0109271
-0.0133498
-0.0155293
-0.0176616
-0.0210862
-0.0249797
-0.0264942
-0.0237379
-0.0166217
-0.0102662
-0.00872469
-0.00708515
-0.00546415
-0.0044659
-0.00640785
-0.00645483
-0.0118169
-0.0106291
-0.0100299
-0.0101766
-0.0109148
-0.0127175
-0.0147595
-0.0164909
-0.0189191
-0.0233387
-0.0272021
-0.0269568
-0.0209665
-0.0156834
-0.013645
-0.011104
-0.00846815
-0.00662514
-0.0071435
-0.00730743
-0.00907578
-0.00861223
-0.00964671
-0.0105258
-0.0116934
-0.0129455
-0.0143377
-0.01569
-0.0174169
-0.0206561
-0.0256978
-0.0296023
-0.0295191
-0.023032
-0.0216424
-0.0193537
-0.0165598
-0.0144395
-0.01745
-0.00810689
-0.00758191
-0.00850882
-0.0105494
-0.0120508
-0.0130983
-0.0142749
-0.0153327
-0.0160308
-0.0170385
-0.0189798
-0.0217318
-0.0245893
-0.0273964
-0.0235445
-0.0225941
-0.020503
-0.0177876
-0.0155501
-0.00494209
-0.00462263
-0.00562536
-0.008061
-0.0104365
-0.0129059
-0.0140627
-0.0174067
-0.0189501
-0.0203586
-0.0214194
-0.0221583
-0.0230851
-0.0243462
-0.0261214
-0.0269692
-0.0270815
-0.0267458
-0.0259027
-0.0251257
-0.000770709
-0.00209455
-0.00422589
-0.00820257
-0.0113113
-0.0141943
-0.0165085
-0.0195636
-0.0219793
-0.0246581
-0.0267648
-0.0291678
-0.0312055
-0.0335133
-0.0357024
-0.0379869
-0.03992
-0.041707
-0.0429374
-0.0437919
-0.00107984
-0.00282463
-0.00605591
-0.00942284
-0.0125221
-0.0155613
-0.0178711
-0.0206877
-0.0232108
-0.0259088
-0.0281029
-0.0300792
-0.0317345
-0.0329471
-0.033991
-0.0344076
-0.0347141
-0.0343471
-0.0337859
-0.0330643
-0.000891995
-0.00292374
-0.00633397
-0.00964413
-0.0130605
-0.0162531
-0.0191561
-0.0221127
-0.0246569
-0.0272106
-0.0288722
-0.0301638
-0.030442
-0.0302114
-0.0291512
-0.0275793
-0.0255309
-0.0233105
-0.0212777
-0.0199576
-0.00148927
-0.00290761
-0.00507771
-0.00849258
-0.0124296
-0.0157722
-0.0193302
-0.0225352
-0.0261725
-0.0297159
-0.0327909
-0.0354948
-0.037555
-0.0392039
-0.0399792
-0.0401569
-0.0392877
-0.0377054
-0.0354999
-0.0334246
-0.00294189
-0.00283764
-0.00409691
-0.00597973
-0.00875689
-0.0119864
-0.0155688
-0.0192045
-0.0232038
-0.02726
-0.0315725
-0.0359781
-0.0405059
-0.0449953
-0.0492526
-0.0530173
-0.0559512
-0.0576529
-0.0579217
-0.0571148
-0.000125273
-0.00120506
-0.00302485
-0.00484052
-0.00688928
-0.0095375
-0.012908
-0.0161908
-0.0195876
-0.0228369
-0.0262346
-0.0296344
-0.0333242
-0.0373194
-0.0418138
-0.0468648
-0.052517
-0.0585881
-0.0645682
-0.0695764
-0.000881929
-0.0020274
-0.00281369
-0.00372025
-0.00461778
-0.00588154
-0.00815205
-0.0117235
-0.0161697
-0.0211238
-0.0259789
-0.0302167
-0.0338568
-0.0366454
-0.0392773
-0.0412058
-0.0428359
-0.0449706
-0.0490299
-0.0543535
-0.0209867
-0.022227
-0.0298383
-0.0156596
-0.0188226
-0.0206425
-0.0242494
-0.0289572
-0.0325858
-0.0390954
-0.0198259
-0.0222402
-0.0253504
-0.026924
-0.0329731
-0.0340603
-0.044963
-0.0228404
-0.0268958
-0.0282179
-0.029632
-0.0419339
-0.0481308
-0.0505182
-0.0280347
-0.0291256
-0.0294679
-0.027392
-0.116536
-0.121003
-0.111913
-0.123609
-0.10558
-0.115495
-0.104593
-0.101851
-0.107744
-0.0962948
-0.0952671
-0.0676359
-0.0994377
-0.0854096
-0.088681
-0.093052
-0.0841295
-0.0611493
-0.0467742
-0.0798165
-0.0567972
-0.0786894
-0.0815003
-0.0756049
-0.0434966
-0.0366684
-0.0497672
-0.037612
-0.0718413
-0.0743168
-0.0719261
-0.0360114
-0.0398661
-0.0366733
-0.0410153
-0.068537
-0.0713637
-0.0698844
-0.0433481
-0.0576689
-0.0443459
-0.0569944
-0.0697375
-0.0697243
-0.0714243
-0.062629
-0.0733191
-0.061878
-0.0753278
-0.0727817
-0.0726288
-0.0761281
-0.0751224
-0.0745303
-0.0780917
-0.0782531
-0.110326
-0.123017
-0.113082
-0.113531
-0.103148
-0.115076
-0.104537
-0.0979108
-0.110286
-0.101198
-0.0996077
-0.0870199
-0.100943
-0.0885166
-0.0847332
-0.0981518
-0.0916451
-0.0800495
-0.0545744
-0.0837107
-0.0706668
-0.0768108
-0.0903289
-0.0877571
-0.0480829
-0.038794
-0.0685766
-0.0680097
-0.0741153
-0.0871614
-0.0865235
-0.0386681
-0.0441575
-0.0698107
-0.0780284
-0.0718165
-0.0867684
-0.0858368
-0.0473844
-0.0589513
-0.0804557
-0.084195
-0.0723251
-0.0845709
-0.0817611
-0.0634609
-0.0767855
-0.0851196
-0.0890578
-0.0773315
-0.0819075
-0.0839521
-0.0797015
-0.0800659
-0.0900487
-0.0876657
-0.11272
-0.136692
-0.131299
-0.121551
-0.107261
-0.131299
-0.130061
-0.100577
-0.130802
-0.128105
-0.103898
-0.0966026
-0.129893
-0.127523
-0.0955257
-0.126738
-0.122434
-0.0946753
-0.087901
-0.126222
-0.122779
-0.092832
-0.121256
-0.120314
-0.0861639
-0.0843044
-0.122314
-0.124553
-0.0932971
-0.121102
-0.12775
-0.0857247
-0.0943812
-0.126511
-0.133469
-0.0950208
-0.130294
-0.130864
-0.0966963
-0.0975714
-0.134118
-0.125745
-0.089462
-0.12859
-0.121814
-0.0970357
-0.0960622
-0.122036
-0.107113
-0.0885499
-0.120162
-0.113771
-0.0956395
-0.0910992
-0.10145
-0.0878752
-0.14275
-0.171668
-0.16521
-0.147747
-0.141336
-0.16962
-0.16177
-0.136065
-0.163331
-0.164445
-0.139881
-0.134562
-0.15879
-0.154801
-0.1306
-0.165576
-0.170091
-0.132771
-0.129675
-0.154744
-0.157538
-0.132232
-0.172624
-0.182868
-0.129789
-0.133857
-0.161125
-0.17464
-0.140211
-0.185411
-0.194118
-0.136194
-0.143779
-0.178547
-0.187933
-0.144749
-0.197869
-0.211726
-0.144471
-0.134615
-0.189818
-0.188458
-0.139204
-0.213522
-0.207376
-0.128572
-0.104323
-0.180903
-0.142992
-0.124502
-0.19903
-0.171988
-0.0962628
-0.0809935
-0.126828
-0.0941716
-0.0119246
-0.0287541
-0.0187197
-0.0151922
-0.00719431
-0.0171729
-0.00843512
-0.00773274
-0.0199483
-0.017654
-0.0066014
-0.00668826
-0.00774022
-0.00813994
-0.00827803
-0.0150825
-0.0115229
-0.00699758
-0.0090521
-0.0087206
-0.0118565
-0.012489
-0.0119963
-0.016363
-0.0101485
-0.0144346
-0.0133802
-0.0190419
-0.0228302
-0.0185156
-0.0269732
-0.0161571
-0.0218569
-0.0212344
-0.0283243
-0.0389868
-0.0306427
-0.0443977
-0.0238249
-0.0290094
-0.0307111
-0.0361743
-0.0518619
-0.049422
-0.0603863
-0.030489
-0.0336348
-0.0371454
-0.0377104
-0.0536243
-0.0618409
-0.0584737
-0.034281
-0.0374352
-0.037392
-0.0366901
-0.0203225
-0.0243992
-0.0245152
-0.0125871
-0.00883655
-0.0136577
-0.0128237
-0.0153928
-0.0233519
-0.0213289
-0.00860466
-0.00919894
-0.0129461
-0.0145524
-0.0121955
-0.0213867
-0.0238234
-0.00980828
-0.0132687
-0.0155559
-0.0203892
-0.0182943
-0.0254799
-0.0337014
-0.014951
-0.0211804
-0.0227095
-0.0316117
-0.0294143
-0.0377668
-0.0517499
-0.0235768
-0.0311114
-0.0348918
-0.0431161
-0.0464942
-0.0557985
-0.0658266
-0.0335991
-0.039358
-0.0452133
-0.0500096
-0.0642729
-0.0695579
-0.079692
-0.0402857
-0.039956
-0.050858
-0.0489296
-0.0613341
-0.0807188
-0.0722937
-0.0391633
-0.0368744
-0.0467202
-0.0390342
-0.0388089
-0.0399393
-0.0580943
-0.0178772
-0.0164123
-0.0220603
-0.0230951
-0.0392992
-0.0607262
-0.0658434
-0.0166302
-0.0183428
-0.0236323
-0.0263358
-0.0362906
-0.0668926
-0.0678904
-0.0193211
-0.0243387
-0.0277956
-0.0349776
-0.0445059
-0.0689945
-0.0796477
-0.0268851
-0.036442
-0.0385064
-0.0515115
-0.0657237
-0.0868121
-0.104415
-0.0398263
-0.0479897
-0.0558107
-0.0618692
-0.0772163
-0.104803
-0.0980521
-0.049947
-0.0536016
-0.0608196
-0.0534041
-0.08553
-0.0952276
-0.081134
-0.0539558
-0.0506094
-0.0504364
-0.0419227
-0.075087
-0.0756878
-0.0638369
-0.0480431
-0.0395435
-0.039834
-0.0356553
-0.0675602
-0.0440719
-0.0539671
-0.0253689
-0.024734
-0.0279191
-0.0271749
-0.0634621
-0.0503683
-0.0408171
-0.0248534
-0.0273053
-0.0278582
-0.0329772
-0.065166
-0.0411922
-0.0498012
-0.0290425
-0.0376208
-0.0358308
-0.0466474
-0.0825149
-0.0573824
-0.0848375
-0.0416271
-0.0556179
-0.0521286
-0.0665357
-0.109324
-0.0957454
-0.115697
-0.0598449
-0.0634901
-0.0700306
-0.071143
-0.0977637
-0.116776
-0.0980579
-0.0611098
-0.049589
-0.0680592
-0.0551143
-0.0718937
-0.0887806
-0.0679349
-0.0459145
-0.0379119
-0.0502131
-0.0405562
-0.0573796
-0.0629204
-0.0542346
-0.0364061
-0.0338273
-0.038451
-0.0355756
-0.00615884
-0.00887883
-0.00672734
-0.00703364
-0.00646549
-0.00747313
-0.00669364
-0.00671048
-0.00670409
-0.00782616
-0.00677405
-0.00851895
-0.0070303
-0.0092402
-0.00952852
-0.00858749
-0.0121807
-0.00927167
-0.0121751
-0.0102667
-0.0136393
-0.0147649
-0.0137451
-0.0189909
-0.0132301
-0.0162896
-0.0147491
-0.0179104
-0.0210763
-0.0208587
-0.0264526
-0.0172244
-0.0196384
-0.0189152
-0.0214595
-0.0271574
-0.0281856
-0.0319375
-0.020308
-0.0222682
-0.0221083
-0.0232014
-0.0305964
-0.0326773
-0.0331413
-0.0232234
-0.0287206
-0.0234934
-0.0260644
-0.0364446
-0.0329096
-0.0343949
-0.0316556
-0.0432151
-0.0281075
-0.0390683
-0.00730715
-0.00968367
-0.0108018
-0.00730031
-0.00736606
-0.00912916
-0.0106517
-0.00872763
-0.0112115
-0.0132565
-0.00779446
-0.0101132
-0.0113327
-0.0142207
-0.0135357
-0.0143401
-0.0193586
-0.0111664
-0.0145568
-0.0154311
-0.0191254
-0.0191906
-0.0170863
-0.0169574
-0.0158122
-0.018992
-0.0174207
-0.017511
-0.0255168
-0.0250504
-0.0255548
-0.0220596
-0.0277475
-0.0235399
-0.0239656
-0.0343094
-0.0403309
-0.0422924
-0.0228273
-0.0237277
-0.0269012
-0.025969
-0.0344518
-0.0424369
-0.0399195
-0.0238592
-0.0255732
-0.0255613
-0.0249007
-0.0338402
-0.0381517
-0.0335444
-0.0272603
-0.0371548
-0.0254966
-0.0322417
-0.0135348
-0.0148805
-0.0180682
-0.0110344
-0.0127364
-0.0132418
-0.0157255
-0.0162135
-0.0188856
-0.0223054
-0.013456
-0.0163644
-0.0167725
-0.0209942
-0.0223325
-0.02393
-0.0308892
-0.0176188
-0.0213965
-0.0226466
-0.0271443
-0.0301968
-0.027603
-0.0281826
-0.0249707
-0.0312097
-0.0272889
-0.0274895
-0.039501
-0.0380345
-0.0411973
-0.0347262
-0.0440961
-0.0366198
-0.0376736
-0.0449006
-0.0490513
-0.0424421
-0.0286946
-0.0269314
-0.0266345
-0.0248444
-0.0408475
-0.0401729
-0.034441
-0.0262596
-0.0247679
-0.0243981
-0.0235918
-0.0333543
-0.0331033
-0.0304982
-0.025055
-0.0303474
-0.0237135
-0.0264097
-0.0192243
-0.017098
-0.0201663
-0.0146968
-0.0164764
-0.0156947
-0.0190448
-0.0231064
-0.0213735
-0.0254058
-0.0175398
-0.0220956
-0.0208252
-0.0249357
-0.0326087
-0.0273609
-0.0346398
-0.0237858
-0.0280593
-0.026234
-0.0293993
-0.0469945
-0.0381364
-0.0456937
-0.0289956
-0.0297154
-0.030275
-0.0307504
-0.0492882
-0.0471525
-0.0444278
-0.0292173
-0.026168
-0.0300046
-0.0267595
-0.0383085
-0.0415872
-0.033653
-0.025289
-0.0236724
-0.0257015
-0.0243296
-0.0317048
-0.0322741
-0.0310061
-0.0234221
-0.0231676
-0.0241893
-0.0247733
-0.0293415
-0.0310218
-0.0311941
-0.0233515
-0.0253955
-0.0251838
-0.0273338
-0.00771309
-0.007194
-0.00755789
-0.0076379
-0.0094256
-0.0074955
-0.00889034
-0.0098705
-0.00801961
-0.010187