/*--------------------------------*- C++ -*----------------------------------*\
  =========                 |
  \\      /  F ield         | OpenFOAM: The Open Source CFD Toolbox
   \\    /   O peration     | Website:  https://openfoam.org
    \\  /    A nd           | Version:  10
     \\/     M anipulation  |
\*---------------------------------------------------------------------------*/
FoamFile
{
    format      ascii;
    class       volScalarField;
    location    "2.6";
    object      turbidity_0;
}
// * * * * * * * * * * * * * * * * * * * * * * * * * * * * * * * * * * * * * //

dimensions      [0 0 0 0 0 0 0];

internalField   nonuniform List<scalar> 
12920
(
-0.00816705
-0.0419781
-0.0786138
-0.106451
-0.123722
-0.142011
-0.156766
-0.167602
-0.175901
-0.180564
-0.184795
-0.191629
-0.206352
-0.226861
-0.250287
-0.272371
-0.291034
-0.306476
-0.320086
-0.337088
-0.03259
-0.0607484
-0.0868625
-0.120398
-0.148791
-0.169038
-0.179542
-0.185374
-0.195562
-0.212572
-0.233772
-0.255687
-0.279973
-0.302714
-0.321318
-0.335743
-0.348922
-0.364401
-0.386561
-0.415945
-0.0141114
-0.0444876
-0.0740573
-0.0987128
-0.129628
-0.171238
-0.213669
-0.245257
-0.267877
-0.285353
-0.301667
-0.317164
-0.332049
-0.346312
-0.358201
-0.368768
-0.386067
-0.419055
-0.459955
-0.500685
-0.0402418
-0.0664013
-0.0870388
-0.113154
-0.145344
-0.184797
-0.222776
-0.255582
-0.277106
-0.294057
-0.305798
-0.318023
-0.331257
-0.349207
-0.374331
-0.407622
-0.446835
-0.49035
-0.53779
-0.585781
-0.0444307
-0.0573619
-0.0807768
-0.114174
-0.148238
-0.183992
-0.208631
-0.231654
-0.245361
-0.258721
-0.267043
-0.277226
-0.288442
-0.304439
-0.331947
-0.37125
-0.418402
-0.473436
-0.5345
-0.595587
-0.0410325
-0.0437476
-0.0658371
-0.0983355
-0.129625
-0.162812
-0.180035
-0.201612
-0.209287
-0.21873
-0.22033
-0.22633
-0.233511
-0.249444
-0.28233
-0.335713
-0.396751
-0.458321
-0.52325
-0.596854
-0.0344214
-0.0414218
-0.0562627
-0.084383
-0.110496
-0.128005
-0.141114
-0.157385
-0.161455
-0.165473
-0.15933
-0.161603
-0.165958
-0.179094
-0.213996
-0.280375
-0.355365
-0.430556
-0.51503
-0.610876
-0.0300233
-0.0547848
-0.0676191
-0.0967619
-0.128538
-0.144967
-0.135378
-0.122023
-0.113108
-0.0966515
-0.0894758
-0.0858634
-0.0850753
-0.0869339
-0.122393
-0.18714
-0.272552
-0.366156
-0.463011
-0.535253
-0.0187293
-0.0545368
-0.0714035
-0.0821394
-0.103689
-0.117219
-0.127767
-0.111947
-0.0978634
-0.0856765
-0.0764973
-0.0706201
-0.0683414
-0.070784
-0.0814093
-0.137077
-0.219254
-0.315328
-0.405124
-0.444806
-0.0159015
-0.0547163
-0.0900469
-0.125856
-0.150427
-0.132989
-0.121204
-0.106644
-0.0944199
-0.081802
-0.0757614
-0.0735865
-0.0712824
-0.0736077
-0.0863316
-0.129464
-0.19634
-0.278401
-0.350341
-0.384533
-0.0382249
-0.0719475
-0.0898064
-0.130344
-0.156212
-0.144053
-0.127767
-0.108725
-0.0985977
-0.0946681
-0.0923361
-0.0943722
-0.0934144
-0.0886813
-0.0969684
-0.130253
-0.182764
-0.245934
-0.300759
-0.337099
-0.0380943
-0.0675984
-0.0845711
-0.130787
-0.164696
-0.153447
-0.151266
-0.141043
-0.134116
-0.130157
-0.133541
-0.142825
-0.143389
-0.13624
-0.1195
-0.135112
-0.174812
-0.220868
-0.264832
-0.299717
-0.0476773
-0.066654
-0.0734772
-0.113476
-0.154834
-0.180397
-0.179777
-0.174431
-0.1843
-0.195312
-0.213031
-0.229371
-0.24765
-0.227846
-0.212154
-0.208411
-0.218501
-0.239399
-0.266061
-0.293923
-0.0382105
-0.0519824
-0.0663425
-0.0981238
-0.13225
-0.161418
-0.195302
-0.222874
-0.25406
-0.291155
-0.334397
-0.381984
-0.422443
-0.448455
-0.443654
-0.412951
-0.375891
-0.359783
-0.365765
-0.392868
-0.0109923
-0.0273961
-0.0419938
-0.063317
-0.0942518
-0.128651
-0.170743
-0.209508
-0.25174
-0.295725
-0.34536
-0.398436
-0.449398
-0.491196
-0.522232
-0.540333
-0.538331
-0.530851
-0.537164
-0.563128
-0.0112061
-0.0248557
-0.0397195
-0.0530232
-0.0706045
-0.0922556
-0.13254
-0.18653
-0.249796
-0.307365
-0.354613
-0.393604
-0.430614
-0.463672
-0.49679
-0.52753
-0.555976
-0.579245
-0.595578
-0.596588
-0.0267835
-0.0402385
-0.0540189
-0.0642949
-0.0734998
-0.0869068
-0.109187
-0.157804
-0.242639
-0.31402
-0.34492
-0.360919
-0.378116
-0.400279
-0.429458
-0.463209
-0.500067
-0.535216
-0.55734
-0.556176
-0.0418235
-0.0602996
-0.0710177
-0.0813396
-0.090045
-0.10476
-0.133059
-0.185919
-0.248207
-0.292669
-0.31273
-0.318316
-0.32312
-0.329881
-0.340974
-0.355292
-0.377083
-0.410584
-0.455361
-0.497548
-0.02741
-0.0504616
-0.0633935
-0.0883189
-0.113005
-0.138981
-0.168376
-0.203371
-0.23831
-0.269239
-0.295929
-0.313098
-0.317968
-0.316302
-0.316663
-0.325094
-0.34649
-0.378642
-0.422629
-0.475784
-0.0398105
-0.053982
-0.0583053
-0.081185
-0.110888
-0.14118
-0.162449
-0.177266
-0.187886
-0.198128
-0.210312
-0.226109
-0.243918
-0.262875
-0.28248
-0.304507
-0.33257
-0.369533
-0.413638
-0.460583
-0.0195697
-0.0367978
-0.0334257
-0.0246851
-0.0239268
-0.0303578
-0.0368028
-0.0408075
-0.0417701
-0.0394972
-0.0360071
-0.0338509
-0.036449
-0.0469223
-0.0635309
-0.0805125
-0.0937948
-0.101348
-0.107221
-0.10937
-0.00990227
-0.038945
-0.0414629
-0.0347152
-0.0277186
-0.0281616
-0.0316853
-0.0354054
-0.0413101
-0.0494457
-0.0633028
-0.076101
-0.0825822
-0.0814147
-0.0776219
-0.0799577
-0.0904639
-0.104325
-0.119859
-0.1342
-0.00887693
-0.0230813
-0.0247361
-0.0181465
-0.0218697
-0.0331136
-0.0522342
-0.0696408
-0.0846226
-0.0923342
-0.0951663
-0.0903668
-0.0829081
-0.0751795
-0.0734712
-0.0798737
-0.0925549
-0.108487
-0.124451
-0.132904
-0.013489
-0.020653
-0.0240843
-0.0234543
-0.0303561
-0.0421803
-0.0550843
-0.0676337
-0.0765032
-0.0867089
-0.0951164
-0.104381
-0.11475
-0.124864
-0.13518
-0.142964
-0.14995
-0.157133
-0.16304
-0.162954
-0.0201008
-0.037073
-0.0493914
-0.0477847
-0.0498963
-0.0445217
-0.0411513
-0.0401339
-0.0391231
-0.0411515
-0.0447654
-0.0504419
-0.0594655
-0.0716256
-0.089439
-0.112811
-0.141284
-0.164935
-0.182905
-0.196232
-0.0154743
-0.0219285
-0.0335084
-0.0429194
-0.0462443
-0.0352078
-0.0236777
-0.0195352
-0.0177139
-0.0205092
-0.0251158
-0.0318662
-0.0406954
-0.0532104
-0.0708738
-0.0949286
-0.12723
-0.169622
-0.225232
-0.273492
-0.0263353
-0.0240564
-0.0226914
-0.0235785
-0.0303859
-0.0234733
-0.015058
-0.0109094
-0.0115618
-0.0153165
-0.0205596
-0.02708
-0.0346697
-0.045256
-0.0628119
-0.0910157
-0.134367
-0.194196
-0.260893
-0.296567
-0.0251929
-0.0267581
-0.0337797
-0.0295334
-0.0259903
-0.0138987
-0.0123008
-0.00800798
-0.00905701
-0.0112766
-0.0163386
-0.0248465
-0.0350145
-0.0421734
-0.0589331
-0.0866746
-0.12971
-0.181639
-0.210391
-0.195548
-0.0368504
-0.0299501
-0.0360486
-0.0428103
-0.0541082
-0.0510143
-0.0276161
-0.00912615
-0.00776057
-0.00890361
-0.0145679
-0.0268306
-0.0433134
-0.0535451
-0.0505685
-0.0798613
-0.117751
-0.154674
-0.160509
-0.135573
-0.0145197
-0.0280325
-0.0345858
-0.0336468
-0.0289205
-0.0224227
-0.0195674
-0.0207083
-0.0131837
-0.0131936
-0.0208076
-0.0332504
-0.0521548
-0.065936
-0.0525485
-0.0679754
-0.0961391
-0.119584
-0.121466
-0.107686
-0.0475935
-0.0170197
-0.0136216
-0.0274602
-0.0263965
-0.0253908
-0.0336164
-0.0394723
-0.038263
-0.0369945
-0.0494461
-0.0699543
-0.0798142
-0.0852332
-0.0587789
-0.0558916
-0.0732613
-0.0880134
-0.0917554
-0.0883521
-0.00813543
-0.0193822
-0.0157067
-0.0273673
-0.0231767
-0.0290309
-0.0506918
-0.0665814
-0.0633399
-0.067678
-0.0915075
-0.109077
-0.0914826
-0.0661936
-0.0488627
-0.0466326
-0.0559066
-0.0655765
-0.0719035
-0.0766838
-0.00966012
-0.0180596
-0.0146819
-0.0260438
-0.0253919
-0.0285084
-0.0412722
-0.0427181
-0.0424042
-0.0665343
-0.0984027
-0.111477
-0.0888346
-0.0664507
-0.0558043
-0.0562282
-0.0615317
-0.0712751
-0.0843887
-0.0949758
-0.00685205
-0.00890834
-0.00847321
-0.0138641
-0.0212524
-0.0256535
-0.0347794
-0.041885
-0.0520113
-0.0689153
-0.0883032
-0.0985711
-0.101525
-0.100614
-0.101632
-0.0995906
-0.101356
-0.11099
-0.127496
-0.1447
-0.00176672
-0.00363516
-0.00496427
-0.00745493
-0.0141593
-0.0266081
-0.0445286
-0.0510042
-0.0534176
-0.0554175
-0.0643286
-0.069933
-0.0778541
-0.0851184
-0.0946892
-0.10983
-0.129092
-0.146423
-0.168297
-0.188681
-0.00145541
-0.00357626
-0.0049604
-0.00719605
-0.0142924
-0.0291009
-0.0530604
-0.0684956
-0.0712411
-0.0571158
-0.0492598
-0.0436478
-0.0425628
-0.0435951
-0.0490161
-0.0547427
-0.0611784
-0.0676127
-0.0715751
-0.069729
-0.00612732
-0.0176168
-0.00964063
-0.0116584
-0.0199602
-0.0355313
-0.0645752
-0.0869348
-0.0796912
-0.0459176
-0.0291152
-0.0258729
-0.0269507
-0.0296753
-0.0331166
-0.0365194
-0.0392637
-0.0414209
-0.0422964
-0.0434083
-0.0127592
-0.0185641
-0.0181637
-0.0258616
-0.0343314
-0.0437509
-0.0600104
-0.0621674
-0.0534825
-0.0382556
-0.031178
-0.0290546
-0.029549
-0.0318091
-0.0355454
-0.0404224
-0.0460952
-0.0526477
-0.0616045
-0.0693283
-0.0036561
-0.0126415
-0.0120639
-0.0155477
-0.0242904
-0.0324924
-0.0410476
-0.0433525
-0.0473993
-0.0484208
-0.0475482
-0.0428956
-0.0417619
-0.0441778
-0.0493042
-0.0568662
-0.0650982
-0.0692496
-0.0712342
-0.0759363
-0.00878712
-0.0153255
-0.0102668
-0.0104881
-0.015188
-0.0230493
-0.0304284
-0.0317588
-0.0307148
-0.0307026
-0.0369884
-0.0495294
-0.066735
-0.0852208
-0.104846
-0.127741
-0.153661
-0.177449
-0.198233
-0.214203
-0.0116402
-0.0226015
-0.01389
-0.0113969
-0.0135469
-0.0181831
-0.0223856
-0.0245117
-0.0244732
-0.0229687
-0.0218732
-0.0226838
-0.0260356
-0.0315279
-0.0383219
-0.0455058
-0.0522636
-0.057724
-0.0621707
-0.0621178
-0.0208929
-0.0229535
-0.0170141
-0.0137664
-0.0141656
-0.0159199
-0.0182831
-0.0206829
-0.0238192
-0.0278567
-0.0339981
-0.0405897
-0.0467109
-0.0521159
-0.0574971
-0.0622551
-0.0659718
-0.068159
-0.0692772
-0.0676453
-0.0403135
-0.021911
-0.0112417
-0.00982412
-0.0113625
-0.0149148
-0.0206706
-0.0261024
-0.0316319
-0.0344329
-0.0361423
-0.0362748
-0.0374819
-0.0399239
-0.043734
-0.0476234
-0.0510714
-0.053151
-0.0541274
-0.0523046
-0.0226176
-0.0127367
-0.0103893
-0.0102787
-0.0130255
-0.0173408
-0.0219619
-0.0273097
-0.0322004
-0.0375273
-0.0428762
-0.0480662
-0.0534921
-0.0574982
-0.0608473
-0.063467
-0.0661082
-0.0679149
-0.068698
-0.0678576
-0.0150874
-0.0188201
-0.0231029
-0.0179373
-0.0165546
-0.0149799
-0.0151216
-0.017137
-0.0192116
-0.0223615
-0.0260512
-0.0308303
-0.0367295
-0.0437746
-0.0524949
-0.0626433
-0.0743775
-0.085115
-0.0948577
-0.102436
-0.00726231
-0.0151018
-0.0190941
-0.0191909
-0.0164958
-0.0122017
-0.0103982
-0.0122981
-0.0147128
-0.0182557
-0.0222038
-0.0271989
-0.0333302
-0.0411035
-0.051344
-0.0652683
-0.0846412
-0.109927
-0.139952
-0.162576
-0.0114434
-0.0154406
-0.0173795
-0.0157682
-0.0140763
-0.00941815
-0.00767128
-0.00952789
-0.0125297
-0.0161485
-0.0201356
-0.0251913
-0.031971
-0.0415031
-0.0548182
-0.0735975
-0.0994962
-0.130504
-0.15704
-0.161102
-0.00622468
-0.0156
-0.0198947
-0.0138738
-0.00942858
-0.00685607
-0.00634638
-0.00838194
-0.010589
-0.0134132
-0.0173715
-0.021928
-0.0267999
-0.034321
-0.0570921
-0.0768182
-0.0991259
-0.116371
-0.11571
-0.0992776
-0.0111363
-0.0192229
-0.0235554
-0.0236806
-0.0229591
-0.0166252
-0.00826137
-0.00608017
-0.00715028
-0.0107528
-0.0163727
-0.0228131
-0.028464
-0.0311945
-0.0458155
-0.0752162
-0.0900371
-0.0943776
-0.0831393
-0.0660113
-0.0276464
-0.0145987
-0.0140199
-0.0130906
-0.0103197
-0.00920641
-0.00775698
-0.00746026
-0.00962948
-0.0153656
-0.0231493
-0.0308405
-0.0348696
-0.0338039
-0.0393751
-0.0629695
-0.0728554
-0.0733193
-0.0654113
-0.0560532
-0.0240035
-0.0108453
-0.00966045
-0.0104644
-0.00967142
-0.0102694
-0.0120009
-0.014127
-0.017314
-0.0253345
-0.0358108
-0.0433937
-0.0446028
-0.0386289
-0.0335
-0.0472398
-0.0544981
-0.056097
-0.0535368
-0.0505528
-0.0458232
-0.0138074
-0.0091127
-0.0107759
-0.0110817
-0.0138204
-0.0170355
-0.0197893
-0.0250295
-0.0362228
-0.0499291
-0.0466359
-0.0359814
-0.0308328
-0.0287998
-0.0375287
-0.0435132
-0.0475457
-0.0496152
-0.050738
-0.00898723
-0.0122233
-0.00946241
-0.0114587
-0.0125457
-0.0151386
-0.0176004
-0.0224088
-0.0286406
-0.039263
-0.0441164
-0.039375
-0.0330552
-0.0332456
-0.037587
-0.042145
-0.0468445
-0.051185
-0.054859
-0.056094
-0.00240223
-0.00478423
-0.00606753
-0.00990945
-0.0132047
-0.0162235
-0.0191243
-0.0230588
-0.0285458
-0.0330096
-0.0363081
-0.0366481
-0.0367197
-0.0385755
-0.0428706
-0.0472104
-0.0525184
-0.0595496
-0.0683963
-0.076961
-0.000356762
-0.00241135
-0.00525758
-0.00908935
-0.0141978
-0.0192004
-0.0233395
-0.0245252
-0.0257906
-0.0264909
-0.0283555
-0.0296626
-0.0328441
-0.0370496
-0.042961
-0.050251
-0.0596211
-0.0696296
-0.0813161
-0.0916312
-0.000706439
-0.00211925
-0.00392471
-0.00786299
-0.0156165
-0.0233339
-0.0303581
-0.0298684
-0.0270404
-0.0234871
-0.0229395
-0.0237367
-0.0258482
-0.0286751
-0.0323922
-0.0362121
-0.0404567
-0.0446376
-0.0488335
-0.0523872
-0.00242831
-0.0053884
-0.00614606
-0.00988082
-0.0189511
-0.0286064
-0.0425999
-0.0409606
-0.0291992
-0.0211152
-0.0203593
-0.0220287
-0.0241693
-0.0264187
-0.0286388
-0.0309237
-0.0333429
-0.0360678
-0.0393361
-0.0431089
-0.00315468
-0.00959521
-0.012826
-0.0149014
-0.0179609
-0.0191312
-0.0244268
-0.0225189
-0.0208414
-0.0209045
-0.0228979
-0.0255469
-0.0283926
-0.031161
-0.0337392
-0.035976
-0.0377319
-0.0395232
-0.0426519
-0.0479515
-0.00258432
-0.00499401
-0.00659559
-0.0083108
-0.0100822
-0.0109884
-0.0136128
-0.0158973
-0.019476
-0.0229496
-0.0270891
-0.0317196
-0.0368246
-0.042208
-0.0481349
-0.0537903
-0.0575766
-0.0585898
-0.059755
-0.063648
-0.00128927
-0.00155328
-0.00225771
-0.00436515
-0.00657627
-0.00828014
-0.009998
-0.0108479
-0.0122024
-0.0149707
-0.0204927
-0.0291138
-0.0405836
-0.0537729
-0.0684518
-0.0848348
-0.100937
-0.11207
-0.119304
-0.123443
-0.0119437
-0.0121068
-0.00871867
-0.00896606
-0.0109078
-0.0134088
-0.0151832
-0.0157696
-0.016102
-0.0175496
-0.0205996
-0.0246867
-0.0289719
-0.0329289
-0.0362355
-0.0386303
-0.0399913
-0.0401319
-0.0395303
-0.0369089
-0.00643722
-0.00998344
-0.00983126
-0.0101972
-0.0115558
-0.0133823
-0.0154827
-0.0181895
-0.0218515
-0.0263087
-0.0308445
-0.0345725
-0.0372364
-0.0382713
-0.0382301
-0.0372632
-0.0358498
-0.0340994
-0.0328105
-0.0309132
-0.0205472
-0.0121583
-0.00761953
-0.00739066
-0.0086219
-0.010616
-0.013226
-0.0157878
-0.0184758
-0.0204705
-0.0222604
-0.0236079
-0.0248263
-0.0257823
-0.0264891
-0.0268529
-0.0271191
-0.027285
-0.0275724
-0.0273741
-0.00535156
-0.00812621
-0.00643038
-0.00678123
-0.00825254
-0.0105747
-0.0129401
-0.015537
-0.0181322
-0.0208567
-0.0238169
-0.0264229
-0.0290588
-0.0308909
-0.0325503
-0.0338998
-0.0352243
-0.0361287
-0.0367206
-0.037197
-0.012558
-0.00957215
-0.00819132
-0.00799862
-0.00811314
-0.00907016
-0.010543
-0.0123363
-0.0143649
-0.0167298
-0.0197095
-0.0231539
-0.0272983
-0.0318309
-0.0371127
-0.0426713
-0.0484783
-0.0535089
-0.0579153
-0.0615974
-0.0029328
-0.00847992
-0.00830681
-0.00860749
-0.00814595
-0.00878811
-0.0101556
-0.0123242
-0.0149824
-0.0178014
-0.021482
-0.0254942
-0.0305467
-0.0362762
-0.0435659
-0.0524698
-0.0631477
-0.0743872
-0.0851351
-0.0911569
-0.00894668
-0.0134597
-0.00976681
-0.00781983
-0.00659068
-0.00667454
-0.00878719
-0.0117147
-0.014972
-0.0184657
-0.0226869
-0.0278372
-0.0340525
-0.0410471
-0.0495015
-0.0593899
-0.0696168
-0.0779115
-0.0811815
-0.0760359
-0.00942049
-0.0163745
-0.0135936
-0.00884274
-0.0068085
-0.00679362
-0.00778923
-0.0111712
-0.0132588
-0.0155138
-0.0184288
-0.0231033
-0.0303015
-0.039146
-0.0495514
-0.0556575
-0.0596716
-0.0592507
-0.0526923
-0.0445306
-0.00658375
-0.0117718
-0.0153381
-0.0127582
-0.0100977
-0.00829534
-0.00709957
-0.00812687
-0.0105782
-0.013862
-0.016643
-0.0187236
-0.0233884
-0.0341363
-0.0486498
-0.0492682
-0.0477975
-0.0428914
-0.0351718
-0.0285478
-0.0164154
-0.0101463
-0.0117756
-0.0102425
-0.008772
-0.00799113
-0.00751333
-0.00856728
-0.0116035
-0.0151658
-0.0184729
-0.0202128
-0.0216551
-0.0289339
-0.0447093
-0.04419
-0.0425812
-0.0393993
-0.0358832
-0.0336292
-0.0097067
-0.00832992
-0.0088154
-0.00842711
-0.0085634
-0.0091072
-0.010522
-0.0126956
-0.0156198
-0.0190645
-0.0231257
-0.0245215
-0.0229356
-0.0253649
-0.0366892
-0.0376397
-0.0378736
-0.0375797
-0.0374842
-0.0381764
-0.0122547
-0.00828858
-0.00767958
-0.00845607
-0.00982604
-0.01156
-0.0129766
-0.015688
-0.0202186
-0.023149
-0.0229757
-0.0212188
-0.0211055
-0.0225555
-0.0274256
-0.0320454
-0.0346337
-0.0367497
-0.0386071
-0.0400979
-0.00214379
-0.00458643
-0.00596926
-0.00818132
-0.00996157
-0.0120406
-0.0137674
-0.0173134
-0.0191239
-0.0210421
-0.0209411
-0.0205745
-0.0217424
-0.0244179
-0.0289408
-0.0324244
-0.0358355
-0.0390135
-0.0418334
-0.0438172
-0.0018406
-0.00274955
-0.00453388
-0.00797707
-0.0105466
-0.0125677
-0.0147767
-0.0168099
-0.0188907
-0.0208003
-0.0223438
-0.0243561
-0.0264907
-0.0297158
-0.0334389
-0.037697
-0.0424647
-0.0483156
-0.0548692
-0.0611343
-0.000495107
-0.00204224
-0.00515845
-0.00839626
-0.0113342
-0.0135237
-0.0154718
-0.0167459
-0.0183387
-0.0202041
-0.0226766
-0.0256474
-0.0292509
-0.0332804
-0.0378561
-0.0427778
-0.048311
-0.054126
-0.0601166
-0.0648814
-0.00235637
-0.00302975
-0.00486043
-0.00811936
-0.0124866
-0.014968
-0.0170792
-0.0176236
-0.0185899
-0.0201949
-0.0225068
-0.025182
-0.0280733
-0.031016
-0.0340046
-0.036785
-0.0394143
-0.0415955
-0.0435205
-0.0448388
-0.00356616
-0.00462715
-0.00565628
-0.00828517
-0.0136086
-0.0165498
-0.0212535
-0.0200803
-0.0190901
-0.0205218
-0.0231012
-0.025824
-0.0284973
-0.0312068
-0.0339556
-0.0367665
-0.0395363
-0.0422162
-0.0449126
-0.0474316
-0.00286777
-0.00741834
-0.00802806
-0.00753737
-0.00855832
-0.00976126
-0.0129721
-0.0150614
-0.0177726
-0.0209868
-0.0243659
-0.0276063
-0.0305894
-0.033418
-0.036321
-0.039686
-0.0438825
-0.0491684
-0.0553676
-0.0614952
-0.00113866
-0.00294126
-0.00414685
-0.00505403
-0.0061538
-0.0078455
-0.010671
-0.0141158
-0.018265
-0.0226786
-0.0272857
-0.0319186
-0.036763
-0.0413885
-0.0455332
-0.0483527
-0.0501559
-0.0526455
-0.0573094
-0.0637024
-0.000746333
-0.000963037
-0.00173864
-0.00306535
-0.00440823
-0.00561778
-0.00693939
-0.00862612
-0.011312
-0.0155383
-0.0215204
-0.0292294
-0.0382333
-0.0478667
-0.0575918
-0.0660377
-0.0709438
-0.0714688
-0.0715669
-0.0721488
-0.0172904
-0.0165871
-0.0137112
-0.00912793
-0.00747488
-0.00786447
-0.00953589
-0.0125019
-0.0159789
-0.0187472
-0.0204776
-0.0212291
-0.0216697
-0.0217473
-0.0218354
-0.0218661
-0.0219241
-0.0217596
-0.0214658
-0.0205049
-0.00489249
-0.0103705
-0.00843864
-0.00803058
-0.0093884
-0.0117316
-0.0141545
-0.0166496
-0.0184961
-0.0195501
-0.0202788
-0.0202896
-0.0200141
-0.0193631
-0.0186885
-0.0178457
-0.0168402
-0.0156892
-0.0146139
-0.0134345
-0.0129103
-0.00801726
-0.00651548
-0.00717055
-0.00890149
-0.0108303
-0.0126257
-0.0140644
-0.015346
-0.0163131
-0.0171386
-0.0176224
-0.0178479
-0.0177346
-0.0172798
-0.0164939
-0.0154661
-0.014304
-0.0131817
-0.0122758
-0.0219553
-0.00845844
-0.00633985
-0.00693947
-0.00858751
-0.0105178
-0.0124083
-0.0141985
-0.0159951
-0.0175127
-0.0189502
-0.0198306
-0.0204151
-0.0203761
-0.0200371
-0.0193725
-0.0185729
-0.0176519
-0.0167909
-0.0163286
-0.00430769
-0.00596073
-0.00548446
-0.00644013
-0.00786929
-0.00967465
-0.0119394
-0.0139506
-0.0163601
-0.0183907
-0.020469
-0.0219926
-0.0233303
-0.024208
-0.0250049
-0.025518
-0.0259448
-0.0261095
-0.0263545
-0.0267823
-0.00759864
-0.00667703
-0.00595706
-0.00685418
-0.00860917
-0.0110238
-0.0138863
-0.0162009
-0.0190746
-0.0210187
-0.0228913
-0.0239937
-0.0248093
-0.0254054
-0.0260715
-0.0268559
-0.0276876
-0.0282245
-0.0289232
-0.028888
-0.0145787
-0.012075
-0.00657609
-0.00590093
-0.00734135
-0.0102255
-0.0140151
-0.0171629
-0.0203231
-0.0225316
-0.0240915
-0.0247374
-0.0243998
-0.0238395
-0.0230667
-0.0224212
-0.0216959
-0.0207049
-0.0194371
-0.017284
-0.03013
-0.0256502
-0.012578
-0.00801646
-0.00844179
-0.0105739
-0.0125646
-0.0167375
-0.0188949
-0.0216677
-0.0239549
-0.0254845
-0.0251487
-0.0231333
-0.0161494
-0.0149159
-0.013706
-0.0123505
-0.010521
-0.00929041
-0.00298202
-0.00990641
-0.0122597
-0.0101881
-0.00935248
-0.00962479
-0.0109414
-0.0133752
-0.0155494
-0.0176932
-0.0211331
-0.0250258
-0.0264952
-0.0236838
-0.0165524
-0.0102486
-0.00870419
-0.0070603
-0.00544331
-0.00445309
-0.00674336
-0.0064521
-0.0118966
-0.0106194
-0.0100268
-0.0101854
-0.0109323
-0.0127526
-0.0147845
-0.0165148
-0.0189586
-0.0233979
-0.0272386
-0.0269302
-0.0209224
-0.0156791
-0.0136276
-0.0110789
-0.00844167
-0.00660573
-0.00748435
-0.00731187
-0.00908782
-0.00860104
-0.00965371
-0.0105448
-0.0117117
-0.0129679
-0.0143565
-0.0157096
-0.017444
-0.0207067
-0.0257568
-0.0296411
-0.0295233
-0.0230367
-0.0216334
-0.0193337
-0.0165327
-0.0144169
-0.0170991
-0.00811307
-0.0075753
-0.00851211
-0.0105625
-0.0120711
-0.0131105
-0.0142917
-0.0153445
-0.0160397
-0.0170535
-0.0190056
-0.0217617
-0.0246163
-0.0274119
-0.0235499
-0.022584
-0.0204791
-0.0177565
-0.0155228
-0.00497626
-0.00458611
-0.00563438
-0.00808603
-0.0104648
-0.0129348
-0.0140873
-0.017444
-0.0189602
-0.0203808
-0.0214236
-0.0221724
-0.0230924
-0.0243659
-0.0261307
-0.0269797
-0.0270839
-0.0267416
-0.0258908
-0.0251135
-0.000730355
-0.00209717
-0.00424231
-0.00822966
-0.0113377
-0.0142176
-0.0165292
-0.0195904
-0.0220034
-0.0246848
-0.0267884
-0.0291936
-0.0312298
-0.03354
-0.0357289
-0.0380132
-0.0399449
-0.0417282
-0.0429505
-0.0437978
-0.00102468
-0.00284209
-0.00607996
-0.00945379
-0.0125535
-0.0155903
-0.0178968
-0.0207175
-0.0232386
-0.0259369
-0.0281264
-0.0300996
-0.0317516
-0.0329595
-0.0340011
-0.034411
-0.0347142
-0.0343387
-0.0337729
-0.0330477
-0.000926558
-0.00294025
-0.0063662
-0.00967097
-0.0130879
-0.0162786
-0.0191812
-0.0221394
-0.0246839
-0.0272363
-0.0288898
-0.0301771
-0.0304444
-0.0302087
-0.0291387
-0.0275614
-0.0255069
-0.0232844
-0.0212534
-0.0199411
-0.00158307
-0.00291618
-0.00509291
-0.00851683
-0.0124644
-0.0158043
-0.0193617
-0.0225693
-0.0262167
-0.0297553
-0.0328258
-0.0355242
-0.0375788
-0.0392213
-0.0399878
-0.0401561
-0.0392741
-0.0376834
-0.035471
-0.0333983
-0.00298826
-0.00284014
-0.00411053
-0.00599394
-0.00878111
-0.0120175
-0.0156044
-0.0192449
-0.0232484
-0.0273059
-0.0316209
-0.0360299
-0.0405597
-0.0450491
-0.0493039
-0.053063
-0.0559865
-0.0576722
-0.0579224
-0.0571017
-0.000118493
-0.00125666
-0.00307207
-0.00486675
-0.00691747
-0.00957146
-0.0129484
-0.0162308
-0.0196296
-0.0228806
-0.0262811
-0.029681
-0.033374
-0.0373743
-0.0418766
-0.0469376
-0.0526008
-0.0586781
-0.0646574
-0.0696518
-0.000933978
-0.00203617
-0.00283022
-0.00373534
-0.00463262
-0.0059036
-0.00819304
-0.0117895
-0.0162547
-0.02122
-0.0260746
-0.0302976
-0.0339201
-0.0366855
-0.0393024
-0.0412051
-0.0428209
-0.044976
-0.0490765
-0.0544352
-0.0211183
-0.0223831
-0.0300222
-0.0157289
-0.0188875
-0.0207195
-0.0243254
-0.0290813
-0.0327638
-0.0392118
-0.0198882
-0.0222839
-0.0254155
-0.0269314
-0.03316
-0.0342673
-0.0451917
-0.0229113
-0.0269714
-0.0282815
-0.0296385
-0.0420467
-0.048324
-0.0504851
-0.0280931
-0.0291101
-0.0294552
-0.027351
-0.116129
-0.120982
-0.11153
-0.123467
-0.104892
-0.115479
-0.104102
-0.101516
-0.107346
-0.095987
-0.0945834
-0.0670461
-0.0989605
-0.084988
-0.088452
-0.0927746
-0.0838948
-0.0607773
-0.0465611
-0.0793255
-0.0561893
-0.0785253
-0.081287
-0.0754789
-0.0433162
-0.0366021
-0.0492527
-0.0374573
-0.071754
-0.0742163
-0.0718698
-0.0360173
-0.040115
-0.0366301
-0.0412366
-0.0685216
-0.0713089
-0.0698483
-0.0436896
-0.0581224
-0.0446328
-0.0574028
-0.0698327
-0.0697143
-0.0715242
-0.0630644
-0.0735319
-0.0623141
-0.0756403
-0.0728397
-0.0727612
-0.0762302
-0.0752585
-0.0744216
-0.078301
-0.0781259
-0.110005
-0.122754
-0.112872
-0.11334
-0.102806
-0.114809
-0.104251
-0.0976683
-0.110074
-0.100936
-0.0993066
-0.0865595
-0.100645
-0.0881216
-0.0844742
-0.0979023
-0.0915048
-0.079437
-0.0539686
-0.0832837
-0.070303
-0.0767029
-0.0902135
-0.0876717
-0.0476083
-0.0386868
-0.0682789
-0.0679103
-0.0740578
-0.0870781
-0.0864685
-0.0386556
-0.0443465
-0.0697903
-0.0780676
-0.0717411
-0.0867103
-0.0856425
-0.04762
-0.0592948
-0.0804551
-0.0841206
-0.072403
-0.0843519
-0.0816604
-0.0638442
-0.0771023
-0.0850774
-0.0891133
-0.0774481
-0.0818782
-0.0840284
-0.0799201
-0.0799363
-0.0900879
-0.0874829
-0.112381
-0.136452
-0.131237
-0.121141
-0.106947
-0.131089
-0.130006
-0.10039
-0.130746
-0.127975
-0.103634
-0.0964166
-0.129833
-0.127387
-0.0954494
-0.126592
-0.122266
-0.0944763
-0.0875788
-0.126074
-0.122647
-0.0927426
-0.1211
-0.120227
-0.0858763
-0.084148
-0.122214
-0.124564
-0.0932762
-0.12106
-0.127828
-0.0856731
-0.0944146
-0.126565
-0.13348
-0.094799
-0.13034
-0.130582
-0.0966641
-0.0973867
-0.134023
-0.125455
-0.0892705
-0.128256
-0.121576
-0.0968664
-0.0959781
-0.12176
-0.10674
-0.0885721
-0.119984
-0.113576
-0.0955631
-0.0908897
-0.101072
-0.087636
-0.142563
-0.171494
-0.165007
-0.147437
-0.141165
-0.169432
-0.161526
-0.13588
-0.163168
-0.164329
-0.139719
-0.134373
-0.158558
-0.154572
-0.130471
-0.165532
-0.17002
-0.132594
-0.129576
-0.154633
-0.157513
-0.132183
-0.172656
-0.182772
-0.129735
-0.133893
-0.161238
-0.174663
-0.140266
-0.18538
-0.194044
-0.136266
-0.143785
-0.178634
-0.187863
-0.144506
-0.197972
-0.211656
-0.144375
-0.134221
-0.189794
-0.187965
-0.138951
-0.213479
-0.206786
-0.128146
-0.103772
-0.180283
-0.141937
-0.124175
-0.198414
-0.171087
-0.0957639
-0.0807933
-0.125862
-0.0935898
-0.0115776
-0.0281336
-0.0185922
-0.0148218
-0.00710735
-0.0167121
-0.00831621
-0.0077264
-0.0199683
-0.0174295
-0.006563
-0.00669762
-0.00769158
-0.00817007
-0.00829757
-0.0148448
-0.0115008
-0.00701904
-0.00910986
-0.00876427
-0.0119476
-0.0126024
-0.0120309
-0.0164974
-0.0102201
-0.014538
-0.0134855
-0.0191811
-0.0230802
-0.0186727
-0.0272189
-0.0162718
-0.0219829
-0.0213822
-0.0284863
-0.0392987
-0.0309318
-0.0448045
-0.023951
-0.0291078
-0.0308679
-0.0362486
-0.0519972
-0.049826
-0.0605474
-0.0305812
-0.0336841
-0.037185
-0.0376792
-0.0535739
-0.0618929
-0.0582832
-0.0343199
-0.0375619
-0.0373495
-0.0367067
-0.0203035
-0.0245089
-0.0243419
-0.0123533
-0.00879395
-0.0136
-0.0128287
-0.0151481
-0.0231951
-0.0212729
-0.00859429
-0.00922976
-0.012963
-0.014608
-0.0122227
-0.0213549
-0.0238563
-0.00985482
-0.0133707
-0.0156264
-0.0205224
-0.0184399
-0.025539
-0.0338793
-0.0150687
-0.0213341
-0.0228699
-0.0318254
-0.029644
-0.0379916
-0.051971
-0.0237388
-0.031284
-0.0351068
-0.043275
-0.0468994
-0.0559755
-0.0660183
-0.0337674
-0.0394395
-0.0453541
-0.0500915
-0.0644773
-0.0697962
-0.0798444
-0.0403212
-0.039888
-0.0508976
-0.0487763
-0.0610829
-0.0807317
-0.0718989
-0.0390803
-0.0368436
-0.0465155
-0.0388642
-0.0387611
-0.040178
-0.0579929
-0.0178128
-0.0164146
-0.022043
-0.0231055
-0.0391245
-0.0605952
-0.0657448
-0.0166499
-0.0183916
-0.0236538
-0.0264066
-0.0361644
-0.066801
-0.0678014
-0.0193859
-0.0244805
-0.027892
-0.0351818
-0.0446734
-0.0689741
-0.0799678
-0.0270587
-0.0366687
-0.0387494
-0.0518045
-0.0659514
-0.0872601
-0.104513
-0.0400512
-0.0481486
-0.0560791
-0.0618704
-0.0773067
-0.10471
-0.0979126
-0.0500736
-0.0536574
-0.0607508
-0.0532589
-0.0855641
-0.0950807
-0.0807744
-0.0539661
-0.0504308
-0.0502736
-0.0417625
-0.0746681
-0.0753169
-0.0636098
-0.0478178
-0.0393516
-0.0396982
-0.0355853
-0.0672158
-0.0444429
-0.0536703
-0.0253467
-0.0247051
-0.0279122
-0.0271616
-0.0632277
-0.0499876
-0.0406715
-0.0248453
-0.0273844
-0.02789
-0.0330747
-0.0651633
-0.0411618
-0.0500465
-0.029158
-0.0378524
-0.0359949
-0.0468855
-0.0829421
-0.057815
-0.0854283
-0.0418944
-0.0559118
-0.0524421
-0.0667691
-0.109412
-0.0963735
-0.115892
-0.0600993
-0.0634158
-0.0702209
-0.0710247
-0.0974552
-0.116701
-0.097473
-0.0609555
-0.0493704
-0.0678437
-0.0547974
-0.0714962
-0.0881801
-0.0675496
-0.0457113
-0.0377938
-0.0499342
-0.0404122
-0.0572391
-0.0626104
-0.0540998
-0.0363178
-0.0337924
-0.0383477
-0.0355545
-0.00613737
-0.00873697
-0.00670279
-0.0069652
-0.00646954
-0.00739178
-0.006702
-0.00672414
-0.00670364
-0.0078681
-0.00678813
-0.0085536
-0.00705543
-0.00930063
-0.00959036
-0.00864276
-0.0122759
-0.0093152
-0.0122354
-0.0103335
-0.0137098
-0.0148556
-0.0138491
-0.0191094
-0.0132927
-0.0163493
-0.0148175
-0.0179748
-0.0211784
-0.0209793
-0.0265683
-0.017283
-0.0196828
-0.0189779
-0.0215068
-0.0272448
-0.0282917
-0.0319868
-0.0203482
-0.0223124
-0.0221479
-0.0232145
-0.0306261
-0.0327088
-0.0331193
-0.023284
-0.0288735
-0.0235078
-0.0261502
-0.0366444
-0.0328806
-0.0345005
-0.0318482
-0.0434895
-0.028239
-0.039352
-0.00730975
-0.00970544
-0.0108276
-0.00727323
-0.00738817
-0.00915274
-0.0106961
-0.00877392
-0.0112429
-0.0133163
-0.00782773
-0.0101768
-0.0113834
-0.0142956
-0.0136419
-0.0144148
-0.019494
-0.0112361
-0.0146281
-0.0155105
-0.0192024
-0.0193031
-0.0172094
-0.0170876
-0.0159175
-0.0191302
-0.0175254
-0.0176273
-0.0256198
-0.0251836
-0.0257033
-0.0221575
-0.0278918
-0.0236347
-0.0240709
-0.0343495
-0.0404165
-0.0423078
-0.0228639
-0.0237348
-0.0268957
-0.0259468
-0.0344027
-0.0424263
-0.039791
-0.0238632
-0.0256355
-0.0255339
-0.0248989
-0.0338968
-0.037997
-0.0334799
-0.0273677
-0.0374118
-0.025531
-0.0324392
-0.013567
-0.0149287
-0.0180919
-0.0110653
-0.0127852
-0.013282
-0.0157831
-0.0162657
-0.0189166
-0.022386
-0.0135088
-0.0164403
-0.0168403
-0.021096
-0.0224701
-0.0240319
-0.0310679
-0.0177018
-0.0214738
-0.0227528
-0.0272243
-0.0303663
-0.0277785
-0.028355
-0.0251209
-0.0314039
-0.0274683
-0.0276559
-0.0396111
-0.0381942
-0.0414079
-0.0348686
-0.0442748
-0.0367376
-0.0378145
-0.044904
-0.0489762
-0.0423239
-0.0286668
-0.0268945
-0.0265991
-0.024823
-0.0406981
-0.0400497
-0.0343398
-0.026218
-0.0247495
-0.0243781
-0.0235859
-0.0332605
-0.0330175
-0.0304576
-0.0250705
-0.0304979
-0.0237206
-0.0264896
-0.0192233
-0.0171545
-0.0201887
-0.014712
-0.0165263
-0.0157262
-0.0191058
-0.0231917
-0.0214236
-0.0254838
-0.0176056
-0.0221988
-0.0209107
-0.0249942
-0.0327981
-0.027473
-0.0347973
-0.0238897
-0.0281298
-0.0263048
-0.0294471
-0.0472075
-0.0383281
-0.0458056
-0.0290485
-0.0297033
-0.0303186
-0.0307294
-0.0491887
-0.047216
-0.0442937
-0.0291843
-0.0261137
-0.0299591
-0.0266932
-0.0381722
-0.0413978
-0.0335339
-0.0252463
-0.0236598
-0.0256453
-0.0243153
-0.0316432
-0.0321962
-0.0310039
-0.0234139
-0.0231718
-0.0241886
-0.0247991
-0.0293185
-0.0310312
-0.0312028
-0.0233635
-0.0254517
-0.0252164
-0.0273924
-0.00772556
-0.00718094
-0.00757956
-0.00764541
-0.009457
-0.00749895
-0.00892998
-0.00990113