/*--------------------------------*- C++ -*----------------------------------*\
  =========                 |
  \\      /  F ield         | OpenFOAM: The Open Source CFD Toolbox
   \\    /   O peration     | Website:  https://openfoam.org
    \\  /    A nd           | Version:  10
     \\/     M anipulation  |
\*---------------------------------------------------------------------------*/
FoamFile
{
    format      ascii;
    class       volVectorField;
    location    "2.6";
    object      U;
}
// * * * * * * * * * * * * * * * * * * * * * * * * * * * * * * * * * * * * * //

dimensions      [0 1 -1 0 0 0 0];

internalField   nonuniform List<vector> 
12920
(
(347.012 190.917 165.084)
(126.924 52.1623 66.2046)
(180.272 -49.7124 42.3459)
(83.7549 -34.8379 8.77848)
(159.134 -27.5912 1.57034)
(141.84 -20.0297 0.683333)
(171.08 -15.5141 0.284146)
(167.437 -13.9595 -0.0335884)
(181.578 -9.3723 -0.154238)
(179.177 -4.56654 -0.57949)
(183.961 5.44714 -1.06075)
(178.373 9.9527 -1.39058)
(178.365 10.8463 -0.996537)
(174.675 8.81242 -0.884149)
(175.796 2.43835 0.527826)
(175.731 -3.80875 1.79732)
(178.465 -5.31565 2.33809)
(179.355 -4.84838 1.76815)
(181.948 -2.02096 0.986015)
(173.189 0.643463 0.28592)
(272.995 -222.558 -7.84466)
(234.819 -157.387 2.13977)
(258.068 -63.9439 18.9747)
(123.365 -13.5123 11.4219)
(151.884 -5.64093 4.03674)
(102.011 -5.87284 0.309762)
(131.516 -2.566 -1.22608)
(112.354 -0.350136 -2.03428)
(131.571 2.72482 -2.20166)
(125.675 2.95088 -1.71961)
(136.827 1.80547 0.0200391)
(134.093 -1.1029 1.28931)
(138.159 -4.87419 2.14001)
(136.066 -8.50272 2.29296)
(137.691 -9.95554 1.34089)
(135.958 -10.1027 0.563983)
(136.659 -9.26235 -0.0135128)
(135.14 -6.32753 -0.52015)
(136.859 0.975775 -0.984918)
(131.887 3.34656 -0.667517)
(264.705 -138.976 -74.0069)
(104.914 -63.3958 16.663)
(147.176 -24.7031 12.4204)
(57.7286 -7.78018 0.243345)
(131.934 -8.94146 -1.59785)
(86.8822 -9.06867 -1.06544)
(122.458 -11.4793 0.493915)
(100.368 -6.83268 1.0123)
(118.863 -6.3474 1.89386)
(110.841 -2.94768 1.88253)
(120.5 -2.63377 2.06365)
(117.443 -1.6022 1.71068)
(122.034 -2.35012 1.26274)
(120.278 -2.56404 0.630573)
(121.904 -3.18469 0.216918)
(120.068 -3.37337 -0.363494)
(119.979 -1.79705 -0.954857)
(116.173 0.287142 -0.949045)
(115.505 3.68889 -0.229119)
(110.665 4.83591 0.00991061)
(80.3754 -136.507 -19.0936)
(34.6155 -89.5158 -2.33547)
(156.726 -43.6372 -1.58017)
(76.9997 -12.3908 1.15384)
(143.71 -6.7766 -0.140172)
(89.5737 -2.0133 0.120564)
(122.389 -9.9471 0.508671)
(92.5722 -7.76875 0.432371)
(110.056 -12.9602 0.770843)
(97.7739 -11.3187 0.967935)
(108.298 -13.7771 1.06303)
(105.07 -12.5478 1.12566)
(111.837 -13.2486 1.19267)
(111.569 -11.6972 0.974237)
(116.183 -9.05417 0.962564)
(115.076 -5.23793 0.752341)
(114.129 0.166891 0.596981)
(108.126 2.63848 0.397017)
(105.144 4.35011 0.444402)
(99.9004 4.21139 0.262969)
(237.197 -24.5972 47.5794)
(141.537 -118.615 10.5285)
(179.785 -71.0849 11.0282)
(101.43 -17.9791 8.31675)
(150.311 -15.8491 5.65721)
(92.9798 -3.2431 1.49838)
(122.548 -14.8293 1.15007)
(97.0078 -5.46796 0.400002)
(111.141 -14.5511 0.354036)
(100.235 -9.78425 0.167635)
(107.856 -15.4202 0.213717)
(104.369 -13.4395 0.0803708)
(109.686 -15.4647 0.0657751)
(109.374 -13.3847 -0.250179)
(114.746 -11.4761 -0.286075)
(115.286 -4.99099 -0.261832)
(114.77 2.44397 0.394971)
(107.949 6.9079 0.665614)
(105.091 6.15176 0.463534)
(99.8105 4.87989 0.234516)
(193.11 -1.55419 45.3642)
(100.712 -74.1766 -13.8296)
(196.684 -75.3606 -9.30046)
(122.39 -32.9906 2.08221)
(160.859 -14.1223 5.85017)
(102.473 7.92726 2.36116)
(128.1 -10.6917 0.819662)
(97.6619 -3.78693 0.169458)
(105.979 -14.0382 -0.36285)
(93.3649 -11.5424 -0.559058)
(99.2567 -16.986 -0.498879)
(96.8814 -15.8662 -0.439714)
(102.281 -17.7211 -0.423274)
(102.96 -15.5691 -0.636855)
(108.344 -12.8634 -0.912775)
(109.242 -3.55987 -0.750659)
(109.183 5.59057 -0.151308)
(106.427 8.47921 0.340992)
(106.378 6.71111 0.786926)
(98.3769 4.20278 0.714814)
(154.07 -22.9042 -5.32893)
(145.891 -16.7517 -17.8304)
(201.575 -43.2542 -19.9022)
(132.589 -38.7207 -9.92007)
(164.513 -21.2537 -2.00995)
(125.249 5.34402 -0.845579)
(131.707 -13.237 0.409728)
(106.485 12.5286 -0.182999)
(105.175 -8.86752 -0.620202)
(94.418 -4.01779 -0.448146)
(100.362 -17.1345 -0.562391)
(99.0187 -15.6432 -0.30633)
(104.27 -19.4561 -0.0426726)
(103.837 -16.335 -0.313149)
(107.252 -12.9573 -1.14764)
(107.596 -2.68984 -0.791373)
(108.627 5.66907 0.0568629)
(106.575 7.44383 0.729323)
(103.659 5.98032 1.70771)
(87.9115 4.74335 1.35548)
(242.522 -94.3186 118.394)
(156.75 -85.3933 29.1193)
(227.194 -21.2525 11.9841)
(137.828 -1.12324 4.22053)
(157.015 -0.467727 4.42884)
(98.9052 36.9637 0.102886)
(107.674 18.5363 -0.0704169)
(78.4446 10.1435 -0.561039)
(90.2979 10.8825 -0.566383)
(90.2699 -10.4062 -1.04164)
(102.846 -15.2593 -0.42668)
(103.55 -22.1556 0.114019)
(108.422 -24.0625 0.721185)
(109.842 -23.1451 1.14427)
(105.665 -9.80534 -0.543845)
(105.374 -1.96985 -0.874736)
(106.725 5.41823 -0.0364324)
(102.945 8.28309 1.09061)
(93.7749 10.6803 1.24948)
(81.6867 8.12224 0.335046)
(303.439 -132.667 21.922)
(58.7035 -72.4035 2.75796)
(169.073 -20.9 7.5639)
(135.083 -9.73001 0.0466259)
(155.663 -1.77052 8.3405)
(93.7772 30.6986 -0.325521)
(110.036 44.8141 -0.123237)
(97.5986 12.4661 -0.609459)
(102.264 7.29202 -0.659891)
(111.536 -7.24888 -0.578416)
(115.34 -11.741 -0.320769)
(114.287 -16.7024 -0.352392)
(113.515 -24.1295 0.0176511)
(113.118 -26.4418 0.560515)
(109.615 -13.4779 0.847453)
(102.39 1.68926 -0.716153)
(102.513 7.97724 -0.194554)
(96.623 12.5509 0.752334)
(89.0456 15.9823 0.783649)
(80.9145 11.9897 -0.399108)
(274.711 70.9885 86.6907)
(56.8652 -5.94453 15.2953)
(148.927 -37.8614 9.03957)
(43.1001 -3.48948 1.88475)
(108.408 25.7259 2.66617)
(56.6568 22.7646 1.85888)
(91.6276 36.8499 0.531835)
(109.401 22.911 0.194499)
(112.883 2.86239 0.0345558)
(111.145 -3.70028 -0.233719)
(117.912 -9.75047 -0.447912)
(126.872 -15.614 -0.248269)
(127.904 -14.7965 -0.0810777)
(119.173 -23.8928 -0.042766)
(107.592 -7.86253 0.0360966)
(100.144 5.42294 -0.79192)
(99.3672 11.6255 -0.541736)
(94.372 16.9617 0.150073)
(90.6768 19.9616 0.126164)
(85.8822 16.9846 -0.698839)
(46.1508 -126.409 7.88148)
(-75.3533 -32.413 16.2689)
(130.358 -14.3072 -0.742608)
(19.4871 1.79483 2.45348)
(105.133 6.01651 1.61964)
(70.427 6.81004 -1.02065)
(89.1619 5.82531 -0.0739795)
(103.653 6.37868 -0.00583116)
(113.108 2.97398 0.0373678)
(124.393 -5.96715 -0.00780408)
(128.043 -11.6536 -0.224614)
(130.979 -17.9319 0.0933671)
(136.109 -14.4114 0.142823)
(132.449 -13.4774 0.761791)
(104.958 0.387321 -0.0751858)
(99.3445 10.3767 -0.735301)
(97.8068 16.3239 -0.550564)
(95.6157 20.6867 -0.246776)
(94.0135 22.2394 -0.404102)
(93.1625 18.846 -0.687725)
(122.928 -129.829 -142.979)
(-20.9453 -103.81 -35.3914)
(140.908 -66.4583 -4.14949)
(7.49801 -15.0558 1.56857)
(94.6061 0.133834 2.25854)
(30.8928 -1.98934 -0.68644)
(88.6124 -9.15687 0.379432)
(110.494 -8.72046 0.214539)
(114.839 -8.74073 0.177337)
(112.021 -10.5653 0.288294)
(112.712 -15.3436 0.321871)
(96.3448 -18.2292 0.205354)
(86.1841 -11.664 -0.191907)
(87.6296 -7.18512 -0.174945)
(92.6347 2.86356 -0.990167)
(97.6547 11.5586 -0.861386)
(98.1639 17.8766 -0.640413)
(100.987 22.5082 -0.47582)
(102.821 23.4155 -0.359753)
(104.082 19.0844 -0.0244207)
(216.758 27.2707 -58.6411)
(87.874 -3.85947 -27.2708)
(176.05 -14.75 -10.8864)
(82.6589 -3.28645 0.308298)
(136.89 -6.11048 2.14517)
(89.8877 -30.9215 0.499725)
(103.233 -14.7805 -0.870805)
(77.0965 -8.72386 -0.259741)
(92.9937 -12.1795 -0.481533)
(89.9464 -12.8635 -0.210338)
(93.6437 -12.1145 -0.0766498)
(83.5393 -8.89114 0.565433)
(81.5655 -7.53854 0.115417)
(78.637 -4.27893 -0.0652132)
(82.5355 2.90001 -0.505728)
(90.9214 7.99339 -0.601725)
(97.0759 16.0617 -0.194295)
(102.506 19.2332 0.0759085)
(106.523 19.2909 0.487687)
(107.13 14.5599 0.839231)
(218.249 -136.978 -124.949)
(-17.6321 -10.8666 0.763416)
(147.741 2.80675 -3.38793)
(57.0358 3.70504 -0.6864)
(121.111 -6.63916 1.48835)
(66.2569 -17.1641 -0.29203)
(96.3311 5.57714 0.520013)
(81.0432 -22.9207 0.378376)
(95.5113 -10.262 0.159091)
(87.0926 -17.7666 0.320262)
(90.1464 -7.96296 0.426153)
(83.6535 -10.0039 0.587755)
(83.3548 -4.11353 0.585957)
(80.0121 -5.37213 0.537563)
(80.8147 -2.75178 0.580099)
(82.4234 -0.319212 0.284809)
(88.2961 6.73234 0.294077)
(95.1319 11.9187 0.551974)
(99.8894 13.4881 1.06534)
(100.84 10.4624 1.27921)
(155.496 -151.248 75.6795)
(86.6667 -5.0828 -1.90157)
(156.824 -15.2943 -1.90795)
(113.105 -9.28208 -4.08508)
(145.429 -6.97447 -2.14517)
(97.7877 -11.0645 -2.33024)
(115.441 -9.47156 -0.148683)
(94.597 -16.5073 -0.290675)
(99.9503 -12.4449 0.3675)
(89.0683 -13.2645 -0.0498569)
(89.3156 -6.90132 -0.014332)
(81.9728 -7.20244 0.02484)
(81.8059 -4.17351 0.104907)
(78.8002 -4.28752 0.17326)
(78.7987 -2.42472 0.117181)
(78.9368 -2.1508 0.380446)
(80.4293 0.214899 0.603449)
(85.1001 3.70162 0.739458)
(90.1579 4.93374 0.933809)
(92.9928 2.79356 0.933507)
(211.753 57.2232 208.617)
(85.7807 26.2307 -13.6036)
(152.109 52.1525 -10.2141)
(92.2717 27.63 -8.24097)
(132.416 28.2842 -6.87194)
(105.235 15.8927 -7.33444)
(125.369 8.48356 -3.93981)
(102.086 -10.8114 -0.832659)
(102.049 -8.71747 1.75048)
(84.0266 -8.75425 0.795186)
(87.2337 -1.25986 0.250974)
(79.9467 -3.30202 -0.0371887)
(83.1905 -1.2922 -0.0414104)
(80.8877 -3.19567 -0.0964466)
(83.4151 -2.79394 -0.0457539)
(83.7922 -3.69963 0.0292007)
(85.7365 -3.22852 0.0807818)
(87.0881 -2.8355 0.166854)
(90.0103 -1.56237 0.160701)
(89.6196 -0.670937 -0.186207)
(280.571 265.948 -104.633)
(7.18467 141.011 0.670417)
(156.655 83.9831 16.465)
(102.322 38.5153 0.878248)
(155.027 31.7405 -3.362)
(149.085 25.6022 -4.54074)
(169.039 17.3479 0.0235465)
(138.277 5.23399 3.99154)
(115.059 -1.40623 5.70399)
(81.1614 -4.16477 1.38005)
(84.9991 -3.14422 -0.596221)
(77.8108 -4.12367 -0.765636)
(81.7628 -3.85077 -0.831024)
(80.2296 -4.33123 -0.744626)
(82.9257 -4.37285 -0.675075)
(83.2465 -4.39714 -0.460831)
(85.8735 -3.43619 -0.363304)
(87.4491 -1.44042 -0.0607046)
(89.4295 0.27856 0.0145501)
(88.5366 1.81116 -0.339155)
(169.898 -50.9411 -93.3578)
(-80.3097 32.7018 26.8492)
(144.835 -9.20693 4.47021)
(84.4684 3.94863 4.98918)
(149.149 11.9272 2.89791)
(137.445 11.6464 2.91535)
(148.117 13.0677 5.39673)
(117.314 12.4746 4.43872)
(111.243 16.0657 2.62195)
(91.9874 9.42437 0.454936)
(95.3755 6.68268 -0.232834)
(88.9576 3.39648 -0.644317)
(92.5331 2.02482 -0.825978)
(90.3861 -0.07202 -0.98625)
(92.7904 -1.15039 -0.937647)
(93.2942 -3.65097 -0.982327)
(97.2833 -5.0304 -1.11396)
(100.49 -5.58992 -0.98608)
(104.556 -3.3671 -0.297493)
(102.523 0.124264 -0.115375)
(140.038 106.573 -80.4881)
(7.83483 16.6944 -21.3184)
(138.747 -58.5141 -6.181)
(70.2419 -40.2985 -2.04541)
(130.894 -18.8645 0.257604)
(99.6809 0.40721 1.58731)
(120.178 13.6284 1.91444)
(100.77 15.3344 1.29003)
(112.321 12.5504 1.35109)
(102.824 8.39612 0.900555)
(107.27 4.87111 0.763795)
(100.148 3.66749 0.37496)
(100.934 1.89787 0.0178359)
(96.0136 1.20607 -0.525127)
(95.9729 -0.863671 -1.11407)
(93.8763 -3.3785 -1.64695)
(96.3051 -4.53444 -1.87954)
(99.5972 -3.81659 -1.78071)
(103.278 -1.42192 -1.3698)
(104.224 2.21792 -0.721621)
(183.227 101.945 95.2699)
(79.019 92.4742 46.0895)
(134.997 19.2902 13.4975)
(74.5784 8.75704 -0.685882)
(126.886 5.73335 -2.63438)
(107.848 8.34466 0.0817768)
(132.901 8.23907 1.23977)
(130.521 8.76763 1.13209)
(146.464 7.91906 0.616222)
(148.386 7.55555 -0.00901883)
(156.878 7.61514 0.0690516)
(157.331 8.51285 0.469555)
(160.375 9.5984 0.985126)
(159.629 10.3337 1.23375)
(160.357 10.3998 1.14922)
(159.858 8.76678 1.13944)
(156.566 2.69015 1.68652)
(145.496 -1.09633 1.74605)
(139.064 -1.93349 1.64259)
(128.462 0.314827 1.39391)
(235.519 -21.0665 -57.5595)
(-38.7419 -23.1554 26.2966)
(171.861 -71.2843 33.6983)
(88.9304 -35.2571 8.47457)
(161.699 -23.5254 -1.40881)
(140.505 -15.6756 0.340227)
(166.169 -9.99543 -0.503263)
(158.795 -6.80344 -0.81481)
(169.744 -0.616824 -0.953569)
(163.594 3.55542 -1.42919)
(165.676 6.31559 -0.943701)
(159.332 5.22652 -0.763215)
(159.686 3.26468 0.42034)
(157.385 -1.18626 1.29092)
(160.62 -3.21711 2.22536)
(164.66 -5.03225 2.54262)
(171.545 -2.57706 2.10974)
(172.155 -0.922345 1.13795)
(171.889 2.74015 0.511046)
(159.086 3.55039 0.0558838)
(141.153 -154.721 -51.9691)
(57.3369 -60.7647 19.5549)
(162.718 -34.4863 30.4102)
(81.7808 -2.24679 7.10189)
(137.21 0.9647 -0.626828)
(92.0943 -1.34725 -3.1362)
(122.931 0.212127 -4.29531)
(101.808 -0.27468 -4.71546)
(120.083 0.607935 -4.04551)
(111.062 -0.473772 -2.82624)
(121.014 -1.67249 -0.0955656)
(117.623 -3.57818 1.49547)
(122.888 -4.82958 2.54463)
(121.67 -5.08458 2.1896)
(123.818 -4.48939 0.970233)
(122.229 -3.38261 -0.505135)
(123.718 -1.17351 -1.18453)
(122.323 1.4827 -1.74399)
(122.934 4.38385 -1.31011)
(117.193 3.99787 -0.603021)
(190.317 -141.557 163.67)
(7.32853 -48.4568 -14.9989)
(130.224 -13.5096 -0.677431)
(41.3959 -0.287386 -4.77626)
(118.132 -3.65255 -3.5144)
(70.1981 -3.93135 -1.66888)
(110.295 -6.52762 0.535182)
(88.412 -2.40705 1.00932)
(109.142 -2.58713 2.43931)
(100.431 0.303214 2.30602)
(110.384 0.0418844 2.72027)
(106.156 1.064 2.06364)
(110.106 0.349107 1.41624)
(107.085 0.302692 0.39009)
(107.785 -0.0865548 -0.24803)
(105.018 -0.28535 -0.93053)
(104.478 1.07625 -1.40833)
(101.417 2.2684 -1.05859)
(101.404 4.00134 -0.139338)
(97.8131 4.29921 0.0377961)
(147.072 -218.947 -19.641)
(48.8405 -48.9369 -13.9868)
(143.183 -22.8709 11.7007)
(60.9872 -10.4101 0.511459)
(128.611 -8.97251 0.923129)
(73.564 -4.14297 0.382371)
(110.401 -9.03955 0.821925)
(80.9696 -4.11534 0.546907)
(100.56 -7.44852 1.20522)
(88.0302 -4.45364 1.29045)
(99.1842 -5.91733 1.73386)
(95.3139 -4.0654 1.60775)
(101.519 -4.15684 1.68629)
(100.138 -2.49636 1.2062)
(102.396 -0.371879 1.00034)
(100.064 1.31943 0.650085)
(98.7985 3.08606 0.577247)
(94.934 3.56275 0.425998)
(93.799 4.20214 0.578225)
(90.3074 3.86801 0.358997)
(81.641 0.157995 -9.44649)
(29.3804 -17.5116 16.4514)
(152.093 -15.2807 17.6681)
(65.9397 1.323 11.1908)
(134.348 -10.1558 7.47183)
(74.0929 -0.0251983 1.79573)
(109.584 -11.323 1.83545)
(83.2486 0.042103 0.536223)
(99.6406 -8.39831 0.776925)
(88.7927 -2.17191 0.355426)
(97.5084 -6.75731 0.55622)
(93.8347 -3.31077 0.333801)
(99.2099 -4.16796 0.365476)
(97.8821 -1.24796 -0.332051)
(100.703 1.3578 -0.34031)
(98.2979 4.39338 -0.420951)
(97.1971 6.69072 0.432985)
(93.5968 7.03003 0.73688)
(92.9514 5.49222 0.699512)
(89.948 4.32321 0.445192)
(133.023 -2.9482 28.5959)
(15.7552 -53.6901 -0.98558)
(157.434 -31.1041 -4.60223)
(78.5966 -0.0625798 9.23102)
(137.742 -2.09714 10.3734)
(80.4419 10.9116 3.5716)
(111.93 -8.93108 1.33067)
(82.0416 1.08473 0.321518)
(92.7404 -8.91543 -0.426334)
(80.8534 -4.77337 -0.676732)
(87.9148 -9.25756 -0.478174)
(85.5626 -6.6781 -0.189587)
(91.1681 -7.29902 -0.288234)
(91.2506 -3.96584 -0.685233)
(95.5787 0.354929 -0.965292)
(93.9511 5.69204 -0.809802)
(93.7656 8.30074 -0.0860411)
(92.6202 8.01582 0.456076)
(93.2838 4.94009 1.3646)
(89.1622 3.2226 1.20736)
(289.214 -100.338 9.46035)
(178.654 -50.0773 5.26314)
(188.581 -42.6935 0.229321)
(91.9522 -21.4507 -0.859847)
(138.241 -3.52256 4.1882)
(87.7273 15.0234 0.305754)
(104.704 -11.149 1.2398)
(81.9111 16.2782 0.00901002)
(87.9343 -7.34775 -0.792401)
(80.2696 -0.350553 -0.178083)
(87.7253 -12.0803 -0.611121)
(86.2726 -7.93749 -0.174418)
(91.5625 -10.2983 -0.083223)
(91.1386 -5.77091 -0.805576)
(94.0602 -1.76633 -1.49068)
(92.6103 5.77606 -0.668518)
(93.5466 8.18602 0.266207)
(92.5573 7.61758 1.26901)
(91.4323 5.4275 3.08976)
(82.4744 4.73321 2.15453)
(153.524 3.90511 32.4542)
(39.1735 -65.3255 -18.894)
(171.116 -24.032 5.61142)
(86.7525 -4.56207 3.36286)
(136.309 0.678456 5.85533)
(84.6606 35.1249 1.4519)
(94.8408 8.63562 1.2567)
(72.8383 7.25963 -2.0332)
(82.8588 0.608649 -1.55334)
(81.2856 -9.48395 -2.12737)
(89.9109 -13.7496 -1.46789)
(90.123 -16.2557 -0.57543)
(94.7371 -14.968 0.415927)
(95.2016 -11.6759 0.561076)
(92.1689 -0.786892 -1.54747)
(91.4964 5.48227 -1.31352)
(91.3665 8.58635 0.083786)
(88.6462 9.1703 1.95507)
(83.9494 10.4798 2.18939)
(75.6387 8.57029 0.332492)
(262.992 -153.822 -65.1957)
(-58.8263 -57.5198 -12.5658)
(144.815 -0.330183 -12.5999)
(63.9082 2.25645 -3.20995)
(111.476 10.7038 11.388)
(88.6041 25.8095 8.9055)
(102.718 37.3088 2.47882)
(88.7072 6.52582 -0.317982)
(93.4981 -1.09007 -1.39905)
(95.9001 -10.653 -2.04942)
(98.9069 -13.4 -1.61185)
(98.2457 -16.7597 -1.221)
(98.8236 -17.4544 -0.0579088)
(98.928 -12.6234 0.638445)
(95.2472 -4.03911 -0.113579)
(88.9817 7.07404 -1.39557)
(87.0616 11.4586 -0.166937)
(82.7239 14.0091 1.2473)
(79.9467 14.9811 0.718828)
(74.6101 11.0047 -1.01101)
(202.94 98.6799 33.0483)
(-37.1577 -11.183 -3.01232)
(131.456 -25.3721 9.76773)
(19.5717 6.96596 1.32049)
(97.6453 20.5132 2.2143)
(56.9383 16.5937 -1.57065)
(87.9866 27.5081 -0.601949)
(101.176 12.3249 0.77917)
(102.197 -1.88234 -0.0383541)
(102.434 -8.76971 -1.45004)
(105.693 -13.1613 -1.79793)
(109.175 -15.9283 -0.886059)
(107.405 -16.864 -0.727133)
(100.921 -12.614 0.873096)
(93.9816 0.907749 0.24065)
(87.0762 9.66211 -1.41632)
(84.466 14.3652 -0.667581)
(81.709 16.8455 0.108779)
(81.2864 17.2685 -0.208347)
(78.5133 13.2481 -1.19634)
(-3.80126 16.9534 0.662472)
(-74.5041 19.2975 -8.36741)
(99.9165 7.48073 -10.6578)
(-1.56615 15.1687 1.05499)
(90.6493 9.60466 0.462185)
(59.5924 5.88375 0.449566)
(84.8185 2.13155 1.64049)
(97.2244 0.113033 1.31396)
(104.004 -4.41624 0.832787)
(107.85 -10.4161 0.298331)
(109.203 -15.6568 -0.616286)
(111.815 -17.4101 -0.0701511)
(111.464 -11.8723 0.332362)
(102.296 -5.18656 2.34386)
(93.6544 7.144 -0.302686)
(87.0222 13.0518 -1.16664)
(85.2028 16.3425 -0.647745)
(84.62 17.4527 -0.395688)
(85.3194 16.9043 -0.819698)
(86.1179 11.9111 -0.910958)
(263.876 171.945 46.7686)
(-18.9036 -26.5515 -4.96006)
(115.77 -43.127 13.5081)
(-11.5326 -6.3778 3.39448)
(83.5977 -3.74472 1.80287)
(33.9099 -8.44843 0.555764)
(81.9197 -14.0972 3.1518)
(94.7616 -7.03031 2.65108)
(96.2664 -6.90098 1.36936)
(95.7558 -9.52034 1.1805)
(93.7378 -13.3622 1.22823)
(87.3461 -13.3677 0.40491)
(83.6541 -7.73082 -1.23559)
(85.2338 -0.722105 -1.50926)
(87.085 8.66092 -1.78792)
(87.7249 12.1868 -1.30029)
(87.966 15.7929 -0.93367)
(90.7143 16.7671 -0.586026)
(92.6738 15.0644 -0.471204)
(94.2435 9.64618 0.0825282)
(225.328 91.4469 -96.3548)
(76.0535 34.4999 -7.4276)
(146.548 1.05879 0.29509)
(56.8372 5.72077 3.04352)
(119.181 -4.31067 2.34031)
(70.9725 -28.483 0.935401)
(85.3883 -9.03849 1.13629)
(65.6269 -6.39263 0.174235)
(80.2298 -7.56867 0.0465707)
(74.8208 -8.66269 0.338144)
(78.526 -8.11538 0.79235)
(72.4919 -6.20512 1.33129)
(74.544 -4.31236 0.253697)
(74.0966 -1.08102 -0.669526)
(77.5741 4.259 -0.804936)
(83.1232 7.33322 -0.755867)
(87.7852 12.5626 -0.0239365)
(91.9801 12.8484 0.379903)
(95.4773 11.3941 1.05332)
(95.9253 7.50534 1.21848)
(91.3829 3.841 -74.2342)
(-67.4275 9.65632 11.7713)
(123.659 16.6441 -13.0469)
(25.6565 10.4465 0.0383017)
(104.983 -3.67066 0.676131)
(45.2091 -13.7253 -0.418155)
(80.7798 10.8191 1.02551)
(63.5284 -19.4201 0.888486)
(78.9121 -4.6116 0.551296)
(70.1933 -13.5838 0.80256)
(75.0053 -3.83698 0.871063)
(70.0206 -7.40509 0.942671)
(72.0024 -2.04544 0.855787)
(70.7107 -3.87855 0.809987)
(73.4385 -0.611201 0.792902)
(75.8241 0.930054 0.466996)
(80.9587 5.81965 0.624734)
(85.8533 7.93493 1.08989)
(89.7768 8.34032 1.84754)
(91.2533 6.21549 1.9238)
(97.2406 -52.763 -23.9653)
(-1.2902 -20.8684 -26.8557)
(127.325 -11.4931 -9.08184)
(70.9742 -3.13308 -5.61523)
(117.548 -3.77484 -1.85747)
(63.6817 -10.5048 -2.41452)
(94.7809 -5.80339 1.1802)
(72.3805 -13.715 0.118423)
(83.1512 -7.21918 0.816916)
(72.6457 -9.27638 0.0698951)
(75.6509 -3.83528 0.0914809)
(70.0654 -5.09392 0.0831838)
(71.4759 -2.47597 0.198981)
(69.8304 -2.77544 0.257872)
(70.6968 -1.074 0.297798)
(71.7432 -1.18784 0.562134)
(74.1729 0.982728 0.880171)
(78.6198 2.88765 1.18673)
(82.6454 3.2308 1.43435)
(85.2534 2.52877 1.32201)
(286.035 -75.1134 -119.185)
(44.8991 -0.297289 -45.3136)
(134.393 38.9976 -25.7978)
(61.4634 11.2041 -13.9973)
(110.598 13.8572 -7.87624)
(68.5092 1.7484 -6.74599)
(94.4334 1.79172 -1.06272)
(68.8839 -12.9833 0.359335)
(82.2487 -5.78104 2.65536)
(69.0013 -7.55072 0.915229)
(75.823 -1.13925 0.304027)
(69.4869 -3.55313 -0.0836868)
(73.5736 -1.1737 -0.0341491)
(71.4259 -2.73993 -0.0784206)
(74.2971 -1.82685 0.0573714)
(74.6483 -2.36022 0.101929)
(76.8092 -1.60059 0.195339)
(78.2491 -1.27981 0.296666)
(80.9413 -0.171484 0.231283)
(80.6168 0.673524 -0.282901)
(66.7679 51.1747 -120.989)
(-136.672 57.8024 30.822)
(138.943 31.9181 -4.04957)
(63.6669 5.42658 0.231809)
(128.609 2.22668 -3.59399)
(96.6623 -4.31173 -3.35659)
(120.462 -5.08291 4.17198)
(89.7894 -6.54655 6.95086)
(92.1438 -3.62117 7.65192)
(74.6732 -3.7625 2.28439)
(78.3518 -2.48092 -0.584123)
(71.1748 -3.52164 -1.12429)
(74.7155 -3.20959 -1.18455)
(72.4329 -3.63885 -1.06397)
(74.6817 -3.44193 -0.885409)
(74.5167 -3.23098 -0.637445)
(76.8649 -2.46412 -0.456754)
(78.3384 -1.09936 -0.111191)
(80.6233 -0.116031 -0.0964921)
(79.8916 0.730631 -0.60319)
(26.0629 -14.7634 -68.2208)
(-87.6388 -22.3135 26.8458)
(129.014 -23.4101 -7.95447)
(63.5213 -2.82337 5.14686)
(127.529 1.17041 4.24311)
(97.9073 0.167562 3.63464)
(114.982 6.19395 7.69329)
(89.5373 7.7784 5.14285)
(95.857 10.4613 3.60692)
(81.7902 4.91014 0.532898)
(87.1719 2.93826 -0.482512)
(81.0455 0.0790303 -1.26656)
(84.7199 -0.670115 -1.41839)
(82.389 -1.9013 -1.61412)
(84.7488 -2.45359 -1.46509)
(84.8725 -3.52324 -1.38333)
(87.6695 -4.62537 -1.3678)
(88.868 -4.08697 -0.931917)
(91.461 -1.80715 -0.191355)
(90.2661 0.051901 -0.219292)
(124.777 89.191 -85.9219)
(-13.2181 -9.75294 -15.1017)
(131.977 -50.6273 -12.5191)
(61.9019 -26.372 -7.22599)
(120.533 -10.2039 -3.47769)
(85.4735 2.29074 -0.321247)
(109.649 10.7491 1.43293)
(91.8832 11.396 1.3655)
(105.957 8.8876 1.95576)
(97.7429 5.63559 0.91029)
(103.76 2.41635 0.506907)
(98.3358 0.738376 -0.339365)
(100.364 -1.1899 -0.961999)
(96.7476 -2.14142 -1.68082)
(97.3982 -3.64043 -2.44457)
(95.6956 -5.29374 -3.49953)
(97.1843 -6.24791 -3.46546)
(97.245 -5.38975 -2.66517)
(98.6787 -2.5236 -1.49625)
(97.6186 0.273172 -0.73745)
(217.704 -42.4557 -6.00606)
(96.679 -12.9582 -2.73436)
(157.258 -26.0919 -14.4745)
(101.706 -6.97214 -15.034)
(133.609 1.24008 -9.79512)
(111.613 7.67709 -2.56809)
(134.888 8.35528 1.09597)
(134.126 8.82756 1.59756)
(149.873 7.81565 1.74294)
(150.642 7.30056 1.42165)
(156.738 7.29181 2.07341)
(155.631 8.1259 2.59578)
(157.861 8.84693 3.15156)
(157.13 9.12284 3.14724)
(158.174 8.58853 2.8041)
(157.136 6.18731 2.48893)
(151.977 -0.651173 3.23977)
(141 -3.92189 3.32461)
(135.439 -3.99713 3.33613)
(126.66 -1.49131 2.79576)
(82.4914 -138.623 109.076)
(-26.9196 -60.7974 78.8441)
(183.97 -53.6872 42.1797)
(134.174 -17.2238 13.1694)
(183.245 -7.78475 0.134159)
(154.722 -3.26165 0.523424)
(169.394 1.82467 -0.599081)
(153.574 3.97338 -1.13478)
(158.483 7.96216 -1.08932)
(146.03 8.12923 -1.62157)
(146.802 7.03404 -0.63655)
(139.834 3.54555 -0.401282)
(141.768 1.20403 0.509297)
(141.137 -0.854798 0.809495)
(145.122 -1.15737 1.01078)
(147.189 -0.145919 0.717707)
(148.735 2.0986 0.857952)
(146.042 2.9867 1.133)
(142.528 4.30326 2.13864)
(131.539 2.75163 0.95113)
(170.51 -128.128 -0.491166)
(24.3706 -21.6389 -6.4883)
(161.875 -8.59037 1.09094)
(82.6059 9.42393 -0.295763)
(136.023 9.63856 -3.66887)
(88.5742 3.79294 -4.31149)
(118.059 4.15535 -5.74251)
(93.613 1.69093 -5.87251)
(110.678 1.38791 -4.49783)
(98.2356 -0.528367 -2.72014)
(107.44 -1.77179 -0.0774819)
(102.745 -2.63479 0.993539)
(108.237 -2.688 1.76759)
(106.703 -1.93431 0.871536)
(109.133 -0.780826 -0.119673)
(107.402 0.380767 -1.39201)
(108.126 2.3322 -1.57159)
(106.063 3.17162 -1.54997)
(105.355 4.3802 -0.62517)
(99.9411 3.32356 -0.161502)
(323.118 -250.698 116.659)
(-30.6179 -26.5128 22.1635)
(130.341 6.49684 -4.86979)
(34.0523 7.81211 -2.11184)
(109.502 2.18553 -3.50325)
(59.3598 0.71575 -1.53267)
(100.908 -2.01659 -0.0362255)
(77.311 1.48943 0.344085)
(98.5622 0.490333 1.65116)
(88.1284 2.59195 1.56159)
(98.3302 1.69383 2.04427)
(93.1365 2.4676 1.35216)
(97.2591 1.6365 0.860201)
(93.7615 1.81765 -0.0586865)
(94.4478 1.45745 -0.609469)
(91.3139 1.49184 -1.07675)
(90.7629 2.26336 -1.14369)
(88.2757 2.72984 -0.717748)
(88.4486 3.72633 0.0309353)
(85.4588 3.45806 0.0523924)
(181.635 -292.827 -81.9259)
(-21.3092 -39.6785 -28.174)
(140.899 -15.8308 2.1543)
(45.0134 -6.66253 0.277283)
(118.048 -6.09072 0.258443)
(61.891 -2.05632 0.466747)
(100.726 -6.045 0.562366)
(71.0263 -0.640131 0.429527)
(91.4763 -3.55749 0.916455)
(78.0384 -0.188363 0.937579)
(89.2654 -1.52506 1.46291)
(84.1781 0.442507 1.20857)
(89.9007 0.246269 1.33519)
(87.5108 1.75775 0.810735)
(88.9553 2.63586 0.561222)
(86.2436 3.31824 0.305692)
(85.4555 3.56876 0.407781)
(83.0317 3.33335 0.322182)
(82.8168 3.55549 0.456133)
(80.3641 3.13857 0.261841)
(149.155 114.644 -36.4726)
(14.0693 27.2289 -2.40389)
(135.493 -7.79578 7.21067)
(40.4764 7.21897 11.0239)
(119.807 -6.30992 5.74089)
(58.6173 3.56028 1.94961)
(98.6616 -7.82708 1.7303)
(71.5271 4.11238 0.432059)
(89.8732 -4.42765 0.787515)
(78.4331 2.51011 0.256248)
(87.9047 -1.94592 0.558789)
(83.4477 2.07905 0.204214)
(88.486 1.07052 0.228771)
(86.1556 4.00453 -0.44369)
(87.3395 4.99195 -0.525109)
(84.3134 6.4702 -0.543047)
(83.563 6.48657 0.240835)
(81.5055 5.73807 0.437031)
(81.9404 4.18675 0.525891)
(80.1068 3.32899 0.313088)
(149.564 -4.39495 88.8181)
(22.6031 -17.0539 4.55718)
(135.574 -2.97287 -2.84221)
(53.5546 12.5617 8.85384)
(120.351 3.01757 8.3493)
(64.763 12.9381 3.35938)
(100.335 -6.6975 1.2055)
(70.8742 4.78112 0.322174)
(83.2816 -5.28189 -0.33918)
(71.5203 0.0752653 -0.479992)
(79.1722 -4.22702 -0.0572006)
(76.3546 -0.932017 0.0980282)
(81.5352 -1.32358 0.0672483)
(81.026 2.12093 -0.554218)
(83.4916 5.01968 -0.837134)
(81.5417 6.97898 -0.75441)
(81.525 7.30518 -0.238867)
(80.592 6.11223 0.236425)
(81.6471 3.22729 1.08596)
(79.1192 2.58342 0.907863)
(98.5888 35.1884 -9.91203)
(36.4995 -31.5545 22.4263)
(141.503 -21.0985 7.44508)
(47.7485 -5.11802 1.64223)
(118.193 7.72053 4.3169)
(63.5621 18.6952 0.515816)
(88.7785 -10.2066 1.07828)
(67.497 18.3499 -0.0866455)
(77.431 -5.64452 -0.699003)
(70.344 3.23135 0.0929149)
(78.1519 -7.72328 -0.1978)
(76.3837 -2.39855 0.318751)
(81.3887 -4.67609 0.245071)
(80.551 0.20312 -0.553557)
(82.3811 3.26304 -1.22141)
(80.2909 7.31819 -0.556839)
(80.7693 7.52749 -0.07104)
(79.2481 6.12668 1.08761)
(79.2906 4.81439 2.46259)
(74.7405 4.83814 1.58343)
(299.317 -4.66177 27.7131)
(68.3759 -37.562 2.64156)
(161.143 -9.52938 7.12224)
(66.6403 2.94292 3.22803)
(123.383 6.15968 4.21077)
(72.6429 35.4087 1.74345)
(83.5234 3.66686 1.08152)
(65.1299 7.21443 -1.89014)
(74.3652 -2.50789 -2.06491)
(72.298 -7.04815 -1.55075)
(79.3329 -10.3332 -1.24016)
(79.2466 -10.1341 -0.0645325)
(83.3738 -8.11339 0.653391)
(83.5107 -4.9274 0.478675)
(80.501 3.46216 -0.793816)
(78.808 7.78984 -1.07166)
(77.1624 8.81541 -0.159325)
(74.7037 9.15616 1.47192)
(73.1452 9.62546 1.5192)
(68.0156 7.99728 -0.057618)
(215.132 -44.0981 -168.838)
(30.2165 -7.88423 1.34495)
(119.22 26.3121 -18.6686)
(18.8139 16.4014 -1.95207)
(87.9921 20.8156 7.46757)
(65.4322 34.0071 8.87264)
(84.3645 31.7452 2.20298)
(77.6919 2.4504 -0.574568)
(82.9583 -3.66565 -1.7176)
(83.4211 -10.1131 -2.17319)
(86.0668 -11.484 -1.70336)
(85.2194 -12.324 -0.762387)
(86.396 -9.55848 0.626017)
(86.2431 -4.12533 0.86333)
(83.2601 0.121845 -0.161196)
(76.5206 9.27095 -0.61029)
(73.2224 11.8596 -0.206414)
(71.1886 12.7932 0.637253)
(70.9756 12.4936 0.254061)
(66.8516 8.59788 -1.13177)
(118.988 -130.139 135.941)
(-75.0255 -25.6066 2.05998)
(116.49 -11.9834 -5.52975)
(2.6705 9.96232 2.46275)
(86.56 16.0412 -0.449434)
(50.5101 17.0018 -1.10455)
(79.6147 24.3348 -0.308017)
(90.029 6.66636 0.879705)
(91.0361 -4.21192 -0.275487)
(90.9248 -9.56902 -1.8372)
(92.1426 -11.9053 -2.05371)
(92.2696 -12.5187 -0.628759)
(89.4105 -10.1139 0.58737)
(86.5641 -2.9339 1.17367)
(81.9962 5.32709 0.372694)
(75.1197 10.7981 -0.576429)
(72.6062 13.2798 -0.490554)
(71.636 13.7982 0.0700571)
(72.525 13.2482 -0.279946)
(70.6387 9.07552 -0.986082)
(73.0213 152.488 39.3919)
(-22.6374 35.8272 -5.6827)
(92.135 23.1777 -9.66931)
(-4.87415 20.2641 0.74683)
(79.6004 10.8709 -1.05108)
(49.4484 5.08902 1.57772)
(75.2313 1.54166 2.20929)
(87.697 -1.11419 2.00886)
(92.2227 -5.18213 1.06213)
(92.9071 -10.0194 -0.0836275)
(95.8634 -13.498 -2.80932)
(96.5068 -13.5204 -0.726637)
(91.312 -5.84732 0.150476)
(87.0947 2.21074 0.939397)
(81.0914 9.51785 -0.074471)
(75.6768 12.5487 -0.20714)
(74.6624 13.5483 -0.31589)
(75.203 13.047 -0.244761)
(76.9796 11.386 -0.87206)
(77.613 6.61082 -0.668667)
(192.123 42.1466 -30.7816)
(-122.462 -20.4518 17.0949)
(106.283 -26.7592 11.3185)
(-21.5881 -1.35837 4.9769)
(73.4896 -4.89834 0.0717229)
(29.2921 -9.96627 2.08352)
(72.9125 -12.6439 2.94207)
(80.8788 -3.66172 2.50167)
(82.7409 -4.91217 1.43143)
(82.0721 -7.89919 1.02766)
(79.9883 -10.2168 0.895263)
(77.7283 -8.0539 -0.524597)
(77.0085 -3.06352 -1.79383)
(78.4232 3.4121 -1.93192)
(78.3092 10.1732 -1.29068)
(77.5916 10.1009 -0.450108)
(77.8815 11.7548 -0.61124)
(80.2261 10.9552 -0.304055)
(82.4941 8.06557 -0.295451)
(82.9789 4.50251 0.0219583)
(235.658 -94.7737 -60.4463)
(76.2333 33.6517 -16.2924)
(132.479 1.68 -3.56188)
(46.5406 10.6992 1.94614)
(106.215 -2.4702 1.11573)
(56.6559 -24.6193 1.1066)
(70.626 -3.00256 1.16824)
(55.4168 -3.94371 0.439015)
(69.363 -3.49637 0.160772)
(63.3491 -5.69157 0.66067)
(68.1704 -4.78418 0.842399)
(64.5191 -3.85082 0.760334)
(68.3281 -1.64113 -0.325591)
(68.5447 0.759896 -0.757999)
(70.8629 4.17783 -0.400748)
(74.3331 5.02156 -0.441658)
(77.8145 8.41168 0.224618)
(80.8666 7.34273 0.529424)
(83.472 5.72809 1.02046)
(83.4288 3.61021 0.932765)
(64.5339 23.4976 -55.5821)
(-28.4976 31.7307 0.99031)
(105.854 22.7756 -10.4193)
(13.5328 13.4249 -0.177201)
(91.6509 -1.14525 -1.2592)
(30.6057 -9.82557 -0.191876)
(68.8855 15.0901 0.585964)
(50.5597 -16.3914 0.864202)
(67.049 -0.294399 0.544832)
(58.4955 -10.7737 0.653618)
(64.6651 -1.15239 0.691349)