/*--------------------------------*- C++ -*----------------------------------*\
  =========                 |
  \\      /  F ield         | OpenFOAM: The Open Source CFD Toolbox
   \\    /   O peration     | Website:  https://openfoam.org
    \\  /    A nd           | Version:  10
     \\/     M anipulation  |
\*---------------------------------------------------------------------------*/
FoamFile
{
    format      ascii;
    class       volScalarField;
    location    "9.2";
    object      k_0;
}
// * * * * * * * * * * * * * * * * * * * * * * * * * * * * * * * * * * * * * //

dimensions      [0 2 -2 0 0 0 0];

internalField   nonuniform List<scalar> 
12920
(
370.347
512.602
705.884
735.537
697.75
573.224
441.483
380.036
337.564
304.475
273.778
239.394
197.495
159.376
136.905
128.182
125.882
123.837
118.173
100.476
194.595
1079.87
1469.86
1217.69
694.108
557.759
466.885
434.334
372.106
329.922
279.673
251.473
229.823
223.386
221.918
223.068
222.822
219.196
207.488
169.806
1813.64
1898.77
1905.43
1499.3
910.732
670.34
522.514
476.279
406.698
371.414
326.897
299.509
266.249
235.642
208.237
186.022
172.817
161.683
158.038
149.43
5585.5
1622.77
1612.16
1249.1
740.519
522.695
394.058
344.873
294.487
273.363
245.037
225.455
202.343
183
165.774
152.538
143.802
138.49
136.785
135.266
5125.9
2532.84
1933.38
1121.95
735.753
533.154
398.755
331.938
279.101
253.96
226.666
208.429
189.29
175.665
163.62
152.443
143.941
137.966
135.98
133.756
3334.9
2456.88
1575.72
961.06
696.273
549.203
436.596
351.53
289.017
258.57
233.128
217.2
201.04
186.062
169.975
152.913
139.634
131.96
130.332
128.806
4094.71
1723.73
1202.1
794.295
694.778
598.767
478.433
367.959
312.885
261.299
231.181
206.738
185.974
165.962
145.161
129.044
119.21
114.709
114.093
114.105
4561.73
1859.63
1087.42
872.494
727.873
613.199
335.822
229.622
212.455
179.654
159.156
136.812
122.832
108.203
150.146
117.895
100.653
94.0922
93.0948
93.5268
1665.68
1863.77
1555.37
1107.29
870.581
448.698
272.291
173.536
173.627
123.787
103.638
103.36
92.8799
79.638
114.49
134.802
103.903
85.0278
76.126
73.2681
315.858
918.254
1154.75
1100.05
874.312
486.458
243.848
168.286
178.864
160.385
113.124
83.4107
80.8419
76.1651
115.105
140.357
107.048
80.3435
64.9702
59.2625
1617.12
2472.84
1967.78
1101.13
753.043
433.032
271.398
225.501
297.354
301.56
176.256
87.9058
62.4269
55.8797
88.6691
123.135
96.6779
78.0098
68.2112
60.7119
3662.58
4585.6
2782
1498.85
948.094
456.95
221.553
146.254
190.504
165.174
121.583
86.3437
66.8908
60.3108
97.3051
140.503
109.221
92.8978
90.0013
84.4234
1326.57
3117.37
2745.42
1829.25
1169.99
845.85
501.081
222.94
193.241
204.668
170.968
113.455
86.1964
78.3765
133.113
130.464
126.988
123.846
121.036
108.642
453.318
943.445
867.255
989.151
957.776
782.622
521.166
391.306
335.528
286.435
237.461
200.311
162.766
133.251
112.666
107.492
108.68
108.821
107.001
93.7304
854.339
1102.45
1270.22
1208.56
976.829
737.101
514.298
413.042
343.088
313.883
282.973
266.288
230.81
179.135
135.536
108.436
97.4144
93.1635
90.8977
85.8189
2551.13
1903.32
1919.27
1491.25
1013.81
794.864
583.424
468.99
381.823
344.187
297.872
261.306
215.818
172.174
136.314
111.994
99.8716
95.4462
94.6456
95.6434
6216.19
2213.93
1931.54
1259.05
833.285
603.137
478.823
421.204
366.122
322.515
269.749
219.289
175.31
143.761
124.095
111.862
103.899
100.092
99.6003
100.923
2014.25
1747.25
1628.19
941.408
667.782
514.448
411.894
361.495
313.732
271.923
227.808
190.339
157.743
134.373
119.745
111.22
105.899
101.408
99.2896
98.4237
888.142
1713.69
1541.67
902.702
597.391
414.47
337.519
307.975
273.492
241.893
203.982
170.439
142.391
123.815
114.075
110.12
109.238
107.754
106.742
104.256
139.178
494.449
697.245
714.711
655.101
478.517
301.246
209.97
172.465
152.128
135.223
120.773
109.074
97.5069
88.0499
77.5455
70.7046
63.2889
60.4134
54.4368
1244.49
1763.68
1641.93
1320.24
988.261
841.38
777.71
752.822
705.415
652.266
577.206
483.656
381.112
303.373
264.699
255.31
253.55
248.483
233.561
185.109
1610.34
3157.09
3390.03
2719.17
1624.83
1356.96
1132.65
1070.32
923.861
847.594
738.614
690.692
645.816
638.047
634.783
633.555
623.741
602.653
573.163
525.753
430.065
3496.88
4275.41
3691.54
2239.09
1680.64
1308.45
1188.51
1012.1
940.719
832.52
774.379
699.126
643.049
588.847
542.589
512.753
490.837
483.736
477.934
4181.2
3801.76
4589.86
3091.67
1792.91
1334.22
1045.74
944.034
810.542
754.727
670.541
621.174
562.204
519.19
479.764
450.657
431.131
421.326
418.943
419.142
6730.34
6661.76
4889.55
2729.14
1784.26
1332.22
1037.56
892.679
755.058
699.687
620.319
584.116
535.098
506.512
476.096
450.825
429.667
416.391
412.157
406.206
5204.02
5284.8
3552.57
2173.11
1546.42
1329.34
1085.43
911.248
763.02
691.063
625.62
588.927
550.905
520.075
484.069
447.401
416.319
398.446
394.522
387.033
6644.04
3587.23
3558.31
2070.93
1822.07
1530.05
1207.51
924.833
768.064
657.909
586.599
538.94
492.597
452.07
406.06
372.961
352.444
343.294
342.169
339.928
3885.21
2737.2
2598.99
2165.35
1870.7
1558.61
1214.66
1009.25
779.961
667.628
571.378
499.07
436.294
381.704
350.323
302.202
277.272
272.006
272.429
274.728
8495.07
5151.63
4024.47
2723.07
2105.52
1622.08
1278.03
1127.1
883.047
656.192
548.365
491.899
433.383
372.539
330.605
295.543
245.034
218.365
211.045
211.345
4214.56
4188.78
3041.63
2709.76
2025.56
1677.6
1326.64
1103.43
946.412
768.72
569.244
426.583
379.198
346.533
321.578
295.202
233.67
189.533
173.067
171.784
6498.67
6608.63
3901.1
2342.29
1560.97
1428.87
1349.3
1354.33
1326.68
1164.62
764.515
409.746
288.833
244.709
244.137
257.499
220.436
198.188
184.006
176.085
5904.26
10673.1
5985.53
3085.47
1498.26
1043.13
895.566
1093.18
1159.77
993.793
692.244
434.977
328.495
290.236
292.112
299.042
267.139
261.338
260.032
241.92
4911.45
8458.93
7226.98
4565.34
2598.73
1810.2
1265.51
1008.39
919.906
805.055
561.598
401.405
321.88
298.909
332.283
334.063
337.103
343.151
342.549
312.523
6298.28
4493.25
2914.01
2723.75
2371.5
1835.28
1359.01
1070.34
872.829
723.169
581.868
497.437
416.437
354.616
315.966
307.943
310.751
312.55
305.32
264.323
3132.26
3028.35
3312.65
3007.35
2249.54
1762.85
1314.82
1101.96
905.729
807.808
708.457
645.074
559.257
456.966
359.562
304.451
284.474
273.571
267.107
255.826
3693.97
5420.25
5303.39
3875.02
2490.05
1980.88
1394.47
1197.37
976.297
867.763
733.796
647.84
544.339
459.357
377.031
322.227
296.717
288.362
287.392
290.359
11460.6
6274.61
5162.29
3256.69
2136.11
1601.69
1220.27
1105.23
935.691
821.433
670.964
564.905
465.345
404.022
362.055
338.394
319.807
310.94
310.366
315.006
5408.17
4242.69
3557
2157.15
1718.55
1329.69
1080.83
963.053
800.42
702.95
576.639
501.149
427.232
386.521
356.514
340.945
328.285
318.079
313.556
312.178
812.473
3322.47
2924.77
1935.59
1432.63
1072.28
888.935
803.381
688.036
618.528
519.303
456.696
395.557
364.473
343.86
337.995
335.032
330.575
326.742
317.138
78.7907
156.826
714.302
1029.94
968.322
729.865
496.088
395.582
339.993
316.667
294.66
275.658
253.301
228.698
207.388
186.736
174.298
158.69
151.848
136.703
690.457
2310.96
2098.08
1416.69
1149.77
1066.52
994.471
907.493
804.784
690.811
572.669
463.497
380.908
328.519
299.002
273.983
252.998
224.424
208.717
182.003
9329.26
5816.04
4608.32
2837.49
1958.87
1691.7
1394.01
1305.73
1117.69
1047.01
928.558
889.953
842.687
832.464
815.432
803.38
775.891
742.905
703.978
670.628
5290.02
8760.37
6457.26
4144.62
2708.12
2071.43
1648.73
1473.94
1263.51
1163.92
1033.36
959.973
876.358
823.266
773.381
736.414
708.785
689.342
679.951
673.09
11751.9
7392.23
6704.9
3755.07
2384.53
1746.5
1434.36
1268.04
1102.28
1009.03
899.55
831.224
760.695
712.485
671.409
644.497
627.431
620.244
618.814
618.582
11136.9
8897.41
6770.04
3655.97
2408.1
1729.59
1407.51
1205
1044.49
951.548
852.796
793.771
733.581
694.359
658.826
631.904
613.222
601.927
596.818
589.899
8171.65
6663.45
4904.27
2902.99
2251.19
1738.81
1450.99
1201.48
1020.76
918.409
831.786
777.113
724.418
683.255
644.066
610.739
587.979
573.579
567.492
555.865
8759.94
7191.56
5306.86
2956.26
2527.94
1987.69
1549.4
1190.16
995.737
858.684
768.301
708.391
648.622
602.537
558.455
529.721
512.42
503.164
499.975
494.741
3312.93
5235.29
4213.04
3095.57
2568.94
2058.82
1717.98
1357.6
1036.51
877.551
750.876
659.891
584.336
519.083
467.068
430.841
414.25
410.358
410.416
412.373
4638.45
5321.91
4967.56
3571.15
2732.82
2210.34
1862.95
1523.38
1130.96
877.477
742.193
646.275
563.583
491.911
433.104
383.011
345.044
328.64
325.824
329.383
8123.86
6424.84
4539.35
3457.16
2715.96
2291.64
1963.35
1582.49
1276.22
990.338
730.282
567.375
501.965
457.281
418.259
368.854
313.26
282.794
274.694
277.82
16954.8
8647.94
5163.41
3130.4
2505.51
2228.17
2074.15
1915.52
1693.33
1360.88
736.112
408.018
330.59
318.384
343.606
349.741
321.722
301.657
287.635
281.969
36322.2
19655.1
7224.05
3691.26
2388
1939.73
1847.05
1884.42
1667.99
1304.62
864.054
568.444
450.835
407.651
409.513
422.885
412.61
406.146
391.248
348.354
6398.22
13554.3
11001.3
5830.81
3380.87
2543.71
2009.88
1723.33
1356.62
1037.88
712.261
535.672
457
438.014
473.691
482.773
491.696
492.017
479.737
417.442
9699.77
7680.3
5454.29
3873.59
3091.04
2371.08
1873.84
1482.85
1163.44
929.349
738.63
630.738
540.252
482.474
451.879
447.385
448.753
444.445
426.081
379.433
8048.68
5396.69
5060.33
4009.87
2931.91
2216.39
1757.97
1473.4
1201.83
1031.61
877.54
770.721
662.171
568.731
495.949
450.028
427.815
413.693
403.813
391.528
13191.1
8675.27
7245.06
4909.95
3292.08
2469.32
1831.16
1541.82
1257.27
1078.26
903.877
790.717
681.927
604.903
539.036
496.216
469.602
456.989
451.738
452.285
14653.7
9106.14
6620.97
4043.56
2819.33
2139.12
1716.2
1477.91
1223.09
1042.92
865.337
754.845
658.961
602.916
559.542
533.761
513.164
503.037
499.002
498.594
5642.58
5632.63
4289.98
2700.76
2282.67
1746.2
1513.9
1312.98
1107.71
967.52
818.623
733.757
653.065
608.509
570.677
548.437
529.033
515.502
508.733
501.464
5600.24
4838.95
3522.69
2294.55
1778.3
1410
1248.81
1116.17
965.724
869.429
751.833
690.384
626.427
593.238
561.916
543.365
525.703
509.716
498.006
480.314
283.039
314.121
822.228
1101.5
963.647
722.431
571.841
493.653
443.094
403.626
367.613
332.788
300.334
269.857
246.086
222.551
207.745
187.707
178.088
156.687
1246.09
2304.43
1905.8
1515.33
1339.88
1188.49
1048.02
884.203
727.307
574.585
466.479
390.03
341.49
303.722
274.421
247.473
228.307
209.214
200.339
181.675
14228.3
8289.33
5923.98
3150.54
2260
1849.91
1564.76
1458.73
1283.24
1219.87
1117.06
1079.97
1033
1012.03
983.478
956.827
921.16
888.58
853.439
832.778
19604.9
11607.6
8466.07
4689.77
3207.7
2347.14
1959.17
1703.79
1502.54
1353.95
1223.04
1129.37
1052.35
999.295
957.322
926.115
904.635
889.513
880.952
873.53
21265.1
10598.4
8775.61
4499.76
2951.18
2069.81
1785.58
1534
1365.29
1219.77
1104.69
1015.85
948.574
898.943
864.392
842.191
830.686
825.442
823.409
820.225
13743.3
10131.4
8328.52
4444.46
2974.43
2042.77
1744.28
1470.13
1308.13
1165.51
1061.77
981.064
921.459
875.944
843.437
819.116
804.982
795.32
789.627
781.492
16124.9
9273.47
5827.45
3491.41
2841.75
2033.4
1771.68
1452.94
1262.36
1120.05
1024.47
951.017
894.401
847.91
812.121
784.232
767.808
755.444
747.957
735.692
13769.7
11780.3
7226.3
3763.01
3210.72
2297.54
1848.7
1417.84
1208.99
1038.77
942.488
867.598
805.144
757.884
719.915
696.649
683.666
675.327
671.455
665.902
7657.38
8266.91
6192.43
3869.83
3262.63
2437.06
2017.64
1557.03
1215.66
1025.86
887.524
787.522
710.74
645.62
604.219
578.799
570.654
569.576
570.22
573.15
8884.09
7150.97
6530.92
4287.63
3345.62
2630.25
2215.58
1704.47
1265.86
1018.92
867.856
754.204
664.212
594.577
537.347
498.689
475.468
469.683
470.551
479.65
28218.7
10140.4
6112.86
4058.59
3382.54
2749.36
2359.52
1851.17
1439.02
1099.29
838.98
677.367
600.125
560.208
520.126
470.492
428.811
414.232
413.273
422.838
17293.5
9584.25
6639.11
3912.69
3389.38
2907.4
2587.43
2243.73
1840.31
1373.01
773.327
530.873
453.335
457.734
480.185
483.322
454.353
435.012
424.72
424.426
16810.6
13742.5
8574.78
4243.2
3341.86
2792.21
2609.38
2354.27
1882.58
1363.49
910.136
660.215
568.726
544.667
559.094
599.701
583.761
555.324
519.015
479.643
21137.3
19697.7
14251.7
7026.65
4286.15
3185.78
2623.51
2115.35
1564.82
1128.53
809.869
656.585
602.262
595.387
654.991
664.182
663.443
646.996
604.124
535.394
19499.4
11388.9
7450.63
4660.8
3804.17
2757.59
2318.67
1771.01
1382.52
1081.08
876.987
757.87
677.365
630.104
609.642
606.137
602.201
585.121
557.984
521.599
17189.4
7941.29
7006.95
4757.33
3546.38
2555.56
2162.78
1767.74
1450.63
1201.73
1020.21
889.049
781.208
700.082
646.45
610.33
591.19
576.978
566.062
555.797
28403.4
14148.4
9926.03
5767.64
3948.03
2747.01
2205.18
1792.29
1498.37
1242.62
1062.53
931.363
834.036
763.793
712.389
679.881
658.871
649.236
643.359
641.588
20526
10693.5
8048.22
4609.76
3483.86
2493.97
2128.79
1740.1
1470.23
1223.51
1053.64
934.735
852.28
798.206
760.975
737.624
720.801
713.213
707.98
702.349
9717.93
6865.59
5090.06
3182.51
2830.05
2055.44
1903.18
1574.57
1376.45
1180.13
1040.58
944.21
872.845
823.85
787.404
762.53
743.182
730.642
722.347
712.02
6239.15
5510.59
4216.1
2587.15
2139.82
1676.29
1582.6
1377.5
1228.7
1091.59
980.662
914.068
854.66
814.328
776.64
747.806
722.133
700.906
682.233
662.787
2001.27
2721.42
2370.67
1274.96
901.003
706.633
629.366
549.148
495.678
435.033
388.638
343.98
308.606
276.038
250.002
225.175
207.203
186.489
177.221
157.52
3280.97
2048.61
1811.62
1547.62
1344.21
1107.36
869.375
650.079
500.593
402.289
339.768
295.925
266.316
243.57
225.943
210.1
196.01
184.955
175.567
165.973
21933.6
9750.51
6876.73
3482.51
3008.92
2120.93
2089.83
1744.03
1709.49
1508.98
1477.99
1362.24
1347.68
1287.72
1267.68
1211.4
1178.07
1136.58
1107.84
1095.82
16506.5
12010.8
10464.2
5082.5
4251.09
2704.53
2619.52
2062.34
1976.49
1654.43
1584.02
1406.53
1372.57
1289.87
1273.04
1232.41
1223.6
1203.07
1196.07
1185.15
22604.2
13988.3
10501.4
5450.92
3712.1
2502.61
2374.14
1905.44
1824.3
1535.67
1467.22
1310.13
1275.74
1203.72
1189.21
1160.83
1158.06
1147.08
1143.37
1134.57
15993.1
12752.1
10320.9
4985.46
3867.43
2431.94
2350.92
1840.37
1767.27
1485.71
1424.79
1279.92
1247.5
1176.71
1160.48
1129.12
1123.68
1109.14
1103.19
1091.93
26672.8
11816.5
7089.18
4444.1
3665.29
2461.6
2338.37
1817.59
1683.18
1437.44
1366.71
1247.51
1203.3
1140.56
1113.06
1083.23
1073.69
1058.29
1050.12
1036.67
30546.3
15647.3
9233.95
4777.3
4301.99
2673
2445.67
1770.98
1596.12
1336.49
1270.31
1149.36
1103.7
1040.68
1011.07
985.346
977.741
967.907
964.638
959.191
34325.1
12713.2
8504.15
4669.06
4361.24
2927.72
2408.67
1809.68
1526.43
1277.75
1166.47
1043.42
976.721
906.254
890.918
856.09
850.055
850.102
852.166
856.821
12582.2
8949.38
8419.95
5054.11
4211.04
3093.67
2673.11
1940.82
1526.75
1265.54
1109.2
987.044
908.6
842.161
811.916
765.106
735.16
735.307
741.363
758.088
19910
14575.5
8456.7
4781.66
4340.95
3196.16
2856.35
2225.24
1704.56
1280.52
1016.38
854.331
847.29
832.516
791.977
719.973
677.329
673.317
679.262
700.126
30886.5
11141.1
8267.51
4596.04
4544.02
3616.81
3226.96
2705.61
2082.65
1422.29
975.251
740.698
727.903
782.039
779.344
753.457
702.46
684.31
682.898
693.335
17102.6
12536.8
9166.17
4700.37
4432.12
3565.17
3444.35
2876.14
2149.6
1458.21
1029.03
854.422
864.288
868.464
886.705
914.916
846.477
789.661
751.742
730.584
11213.2
19334
16796.3
7363.17
5639.2
3813.62
3309.76
2472.75
1864.04
1312.36
1063.6
928.53
915.601
914.461
995.24
975.2
942.123
880.702
822.768
774.307
30115.6
12938.7
8748.21
5326.5
4775.81
3079.76
2905.48
2082.78
1744.61
1322.78
1159.1
1002.33
950.745
902.902
893.712
879.901
864.55
829.957
807.749
784.439
11443.2
9694.71
8978.68
5295.03
4446.41
2873.21
2792.25
2125.35
1868.66
1463.23
1303.13
1121.58
1033.34
951.439
916.437
884.105
872.121
856.506
848.625
841.61
29133
13804
11824.8
5969.01
4732.52
2938.42
2766.87
2070
1910.98
1490.5
1376.2
1181.7
1122.3
1033.52
1007.52
975.621
969.148
960.924
957.948
953.689
18688.2
11928.6
9247.29
4941.97
4381.7
2787.63
2757.14
2052.76
1918.99
1492.88
1404.41
1212.1
1173.8
1092.65
1079.19
1049.11
1045.74
1036.75
1032.54
1023.34
8126.26
8545.8
6402.43
3873.81
3553.32
2362.76
2466.91
1867.7
1826.02
1465.14
1415.73
1242.37
1217.6
1132.73
1118.08
1078.51
1072.23
1056.06
1049.89
1039.06
6987.76
7351.3
5891.65
3066.51
2965
2023.04
2205.87
1709.92
1708.5
1396.09
1366
1214.97
1195.69
1110.17
1088.53
1033.69
1016.22
985.627
968.998
956.305
780.057
3206.72
2968.64
1362.58
864.053
691.898
632.311
535.616
471.712
394.747
345.331
299.598
266.662
235.394
210.403
188.251
172.194
159.318
150.22
140.938
792.597
1297.29
839.068
1077.67
873.911
1320.47
804.521
594.851
703.691
439.046
812.578
679.636
658.794
466.949
876.643
1360.26
1007.97
1373.32
797.591
1398.71
1029.23
463.031
893.844
630.653
656.269
477.513
922.607
689.256
169.4
239.948
157.374
983.318
982.595
1045.31
948.558
177.464
160.116
169.11
966.266
838.039
912.6
816.847
138.899
166.885
140.127
785.299
624.658
780.254
650.373
103.303
131.846
105.493
577.663
495.74
606.108
494.539
103.231
97.6133
87.5199
480.684
446.836
464.598
402.299
95.5291
86.555
86.5173
436.781
401.374
389.037
364.058
81.9464
86.1149
81.2762
385.421
343.932
355.957
330.22
56.8366
78.7737
61.4295
329.182
299.159
319.653
297.443
162.18
253.184
190.129
1053.26
958.122
1088.32
1095.55
180.278
207.325
262.213
931.398
854.241
1101.38
1114.17
164.717
271.344
286.325
823.935
720.993
1109.97
1052.79
127.871
284.671
212.885
681.382
549.288
1011.79
778.007
86.793
173.24
99.7862
502.046
396.01
669.363
410.725
81.265
86.9797
66.3273
374.36
342.175
358.418
274.424
77.9582
62.9614
59.7073
335.277
315.371
259.975
234.906
60.4292
59.3528
46.0439
307.061
292.048
229.837
220.731
209.537
244.484
164.842
1048.21
1137.46
730.931
910.269
286.278
168.659
224.341
1155.52
1185.16
977.49
1085.65
305.896
237.848
238.827
1182.44
1115.88
1086.82
1010.62
218.34
225.952
178.441
1068.65
817.322
963.097
761.701
100.893
151.619
99.9623
700.622
425.485
665.587
441.366
66.2058
87.4465
70.1409
369.484
276.46
388.992
306.216
56.9271
69.5491
63.5628
259.489
226.606
291.378
258.721
45.091
60.6003
47.881
219.211
209.481
249.599
236.771
147.026
340.485
169.267
583.458
766.277
670.783
631.634
181.485
135.257
99.2809
844.542
972.811
638.641
731.962
183.398
99.4603
114.115
973.343
896.731
736.523
722.267
131.932
123.891
126.565
852.966
675.051
705.068
590.317
97.2502
122.129
87.9002
606.14
430.234
537.633
396.057
68.4076
78.7528
59.4137
382.933
302.181
356.659
281.613
62.5846
57.0572
51.18
287.616
260.446
265.657
245.345
47.2162
51.5979
41.0772
253.522
242.328
242.6
248.743
1165.07
1312.14
1136.82
1744.33
1536.57
1809.49
1546.75
948.189
1083.22
944.839
1452.36
1170.57
1458.31
1224.72
703.647
897.24
744.015
1085.08
880.028
1150.99
943.254
567.079
693.189
568.46
832.813
731.491
880.158
728.322
503.68
535.189
461.135
702.859
632.604
686.857
590.122
450.524
444.752
412.089
614.33
557.235
567.963
517.713
387.378
402.043
371.735
536.398
482.477
502.933
462.115
332.326
360.459
329.541
466.027
422.499
449.22
413.862
1147.85
1374.24
1306.78
1835.13
1567.35
1919.43
1776.94
986.564
1296.01
1264.69
1488.86
1280.42
1729.77
1589.49
816.579
1247.87
1152.65
1213.61
1014.44
1536.99
1334.66
619.851
1100.55
839.405
948.83
760.125
1262.34
883.721
451.182
725.662
451.575
700.059
565.381
752.868
467.867
387.704
395.443
304.418
537.889
488.262
415.39
335.808
355.395
288.72
261.797
476.126
443.643
325.276
316.429
323.511
257.022
246.197
433.542
407.725
317.85
324.977
1352.3
1047.04
1157.26
1914.59
1839.03
1705.12
1776.54
1342.25
1210.84
1269.88
1804.62
1679.83
1780.1
1691.84
1222.32
1260.59
1146.09
1627.75
1415.17
1636.34
1413.26
885.928
1089.6
847.385
1335.76
938.709
1321.29
986.866
470.096
744.753
498.387
801.496
496.141
873.284
606.61
307.752
441.885
348.77
436.921
341.794
548.126
443.025
252.338
331.053
293.914
325.396
300.274
421.182
376.986
232.149
284.317
265.021
298.257
305.193
366.866
349.222
1026.28
987.698
897.716
1600.33
1708.08
1615.53
1571.32
1170.01
901.479
948.576
1720.35
1633.7
1559.78
1446.62
1047.51
938.73
866.791
1573.19
1350.18
1374.9
1167.58
773.785
832.183
670.148
1257.86
941.601
1086.7
823.321
486.658
607.119
448.861
838.653
597.103
741.153
558.733
345.384
407.04
326.587
542.067
443.464
514.134
431.2
297.542
309.857
287.433
423.626
387.724
414.275
391.869
272.833
284.97
285.57
379.917
362.617
389.548
391.389
1619.41
1936.14
1643.91
2130.36
1790.9
2230.66
1860.8
1220.61
1547.27
1290.5
1666.52
1327.42
1742.37
1429.84
923.722
1210.44
990.342
1234.91
1030.91
1336.5
1094.2
773.318
925.226
768.233
985.99
874.428
1027.03
865.294
665.975
724.946
623.674
838.538
751.092
819.199
710.198
585.089
600.132
545.245
727.426
659.629
683.107
618.52
508.279
529.249
486.233
637.53
582.843
600.935
557.9
445.605
473.038
434.944
566.095
519.828
544.864
505.292
1669.07
2069.44
1892.62
2264.9
1901.23
2422.28
2162.55
1350.31
1835.64
1664.34
1792.48
1498.05
2076.66
1815.12
1059.36
1601.03
1370.3
1406.09
1152.06
1721.38
1411.14
1032.34
925.127
1080.97
1024.95
1005.19
958.1
1110.25
659.602
675.981
724.559
758.175
646.263
703.921
735.753
515.151
388.616
336.282
650.711
589.091
440.903
418.545
467.599
332.297
335.762
574.167
540.224
417.689
427.495
428.911
340.116
348.811
530.419
500.152
433.003
439.867
1961.5
1921.53
1941.44
2459.75
2249.76
2441.53
2335.6
1757.01
1929.72
1790.96
2170.05
1910.91
2267.71
1990.77
1452.13
1721.82
1463.05
1814.04
1485.08
1882.05
1525.26
1288.09
1203.2
1393.91
1368.53
1281.1
1068.33
1414.2
758.568
621.504
875.999
574.563
760.448
485.002
869.301
340.818
573.448
468.57
455.686
419.1
639.138
543.515
317.813
446.344
402.011
411.643
410.022
523.461
488.86
328.649
392.262
373.491
414.137
425.406
482.445
470.733
1890.77
1859.53
1763.47
2423.99
2322.71
2414.04
2211.01
1742.8
1735.92
1560.45
2254.69
1960.72
2124.26
1781.86
1408.13
1473.12
1229.78
1845.67
1488.22
1659.68
1333.75
969.141
1137.92
854.395
1361.47
1004.79
1220.23
911.13
622.392
769.589
586.292
903.381
684.392
828.199
659.316
470.655
542.579
461.824
637.25
551.72
621.013
555.182
415.232
445.64
424.342
535.056
508.36
542.801
530.05
388.847
422.521
422.306
503.284
489.02
529.423
532.861
1837.94
2321.51
1921.87
2528.01
2014.98
2661.97
2171.41
1357.94
1795.86
1466.3
1856.17
1507.33
2019.79
1637.33
1063.9
1369.62
1122.05
1424.11
1221.02
1530.67
1253.37
904.257
1054.55
892.6
1168.91
1043.6
1178.5
1004.72
778.464
846.508
736.364
1008.59
913.942
957.84
843.758
685.724
708.438
643.42
887.426
820.903
816.278
771.627
610.976
626.571
586.224
803.072
752.885
763.931
735.596
547.276
573.511
532.1
736.591
685.572
723.134
674.816
1967.67
2536.8
2242.24
2701.41
2235.74
2930.98
2560.02
1536.15
2145.93
1852.48
2093.41
1711.97
2431.97
2031.76
1174.84
1748.18
1414.28
1596.69
1284.82
1887.21
1457.36
898.655
1314.26
884.242
1199.99
997.711
1331.74
997.388
707.288
755.219
550.567
941.834
810.224
903.837
712.401
614.303
516.008
463.648
779.404
736.816
670.41
615.213
569.532
459.446
468.373
735.527
723.481
621.34
655.822
527.191
473.618
475.557
714.269
671.921
658.427
641.351
2335.57
2613.17
2448.73
3034.89
2676.65
3182.88
2858.93
1948.9
2362.06
2038.17
2547.8
2132.6
2714.66
2239.69
1484.03
1915.82
1527.71
1979.02
1514.15
2071.22
1567.07
900.849
1395.58
1028.65
1375.76
1010.44
1414.96
1052.75
567.203
926.59
707.279
914.314
721.075
965.354
788.889
463.16
660.402
571.608
676.28
612.459
753.419
708.882
453.163
554.167
527.306
616.601
648.198
710.914
715.195
463.07
522.55
509.516
650.972
636.4
713.148
691.497
2443.45
2596.12
2332.65
3203.1
2863.07
3155.93
2708.26
2010.69
2224.07
1832.12
2710.1
2211.08
2533.2
2016.24
1495.21
1700.52
1352.11
2041.37
1547.84
1862.99
1441.47
1007.66
1234.05
924.692
1397.56
1045.57
1310.34
1016.04
703.921
844.932
685.448
962.055
799.425
951.917
824.075
582.707
650.2
591.737
769.091
736.83
797.917
764.557
548.465
581.525
572.855
738.158
739.462
761.83
764.05
529.029
572.944
575.068
737.71
715.217
765.165
764.937
2107.06
2819.59
2303.33
3129.71
2461.23
3293.99
2758.12
1604.61
2144.46
1749.09
2269.94
2026.02
2586.65
2199.68
1321.42
1640.14
1347.81
1966.19
1780.4
2097.18
1790.78
1141.42
1268.58
1087.31
1695.28
1635.89
1708.22
1549.35
1013.44
1040.02
924.382
1608.91
1533.07
1510.98
1421.86
923.608
899.246
877.472
1496.69
1476.81
1416.64
1478.37
857.544
876.543
851.7
1463.58
1421.76
1487.14
1460.67
782.65
838.91
780.344
1403.03
1329.03
1449.69
1376.51
2374.8
3101.62
2717.92
3306.62
2842.68
3560.3
3211.01
1826.01
2582.24
2149.55
2681.69
2274
3062.43
2578.51
1371.04
1989.92
1517.84
2147.17
1792.67
2393.64
1877.25
1071.94
1383.17
1056.25
1700.88
1515
1739.89
1463.64
883.343
969.334
779.044
1468.66
1360.74
1395.59
1223.31
836.841
737.27
708.289
1353.2
1440.47
1205.3
1316.71
842.611
732.277
786.516
1470.83
1461.21
1388.9
1437.58
777.944
787.085
752.277
1450.48
1374.77
1430.76
1352.09
2844.47
3417.11
3044.91
3731.28
3357.12
4001.03
3573.56
2252.97
2884.53
2363.57
3200.66
2682.82
3383.71
2790.1
1570.62
2179.7
1629.39
2483.2
1915.61
2581.59
1972.28
1064.97
1468.13
1104.71
1762.81
1462.08
1811.77
1506.04
784.467
1022.09
857.445
1393.98
1226.25
1448.14
1332.01
705.698
827.202
815.356
1207.22
1315.45
1328.78
1432.92
781.257
832.332
846.831
1387.43
1435.72
1472.61
1475.87
749.376
844.024
807.83
1428.82
1354.4
1469.14
1400.62
3047.89
3373.75
2855.39
4033.22
3561.66
3895.66
3225.22
2331.56
2662.18
2121.31
3355.88
2745.65
3017.52
2487.45
1616.11
1965.07
1520.55
2549.46
1965.79
2349.3
1872.47
1107.05
1386.77
1103.8
1813.61
1528.92
1757.38
1566.47
878.852
1046.66
927.364
1478.15
1379.73
1545.89
1445.44
853.455
904.852
880.695
1381.36
1473.3
1437.11
1438.22
870.603
882.035
885.662
1492.79
1487.39
1454.43
1446.04
834.304
887.693
878.564
1483.92
1433.72
1453.11
1413.86
934.014
859.024
815.923
821.23
914.795
890.4
828.786
1099.2
1184.81
1160.39
1315.31
1089.8
1211.09
1069.74
944.218
824.403
996.549
644.878
966.097
772.34
820.399
1053.09
1053.63
1009.74
1148.29
986.058
1132.2
1068.2
953.364
848.061
941.889
875.102
918.071
848.586
974.843
1113.47
1321.21
1234.58
1175.8
1227.49
1067.23
1131.55
951.334
606.906
839.202
993.287
772.753
800.849
992.864
600.821
631.052
539.325
623.206
584.161
659.219
560.074
537.331
700.755
583.601
523.054
595.128
638.397
420.968
459.877
456.399
492.978
359.741
512.741
426.964
365.283
684.296
785.511
759.997
787.489
731.957
756.837
718.368
628.562
651.454
716.015
623.812
687.551
588.63
664.811
546.298
474.479
713.633
563.4
638.682
384.726
624.768
475.734
352.979
525.899
506.306
452.461
349.046
561.655
1140.82
1030.9
1006.47
695.235
1145.9
853.19
997.567
1290.69
1392.92
1248.66
1384.33
1279.39
1411.41
1265.52
1162.28
1027.51
1128.46
1020.69
1155.15
1033.84
1141.76
1283.84
1368.34
1196.7
1414.09
1063.91
1419.37
1278.24
1131.87
657.483
988.904
995.668
828.641
990.393
1131.78
1292.42
1396.12
1415.89
1271.59
1417.96
1272.29
1287.78
1162.54
1027.16
1034.65
1146.67
1035.46
1147.13
1158.77
668.439
526.034
583.061
387.284
661.613
438.549
593.774
806.275
904.521
791.716
907.756
793.965
912.988
807.643
716.884
624.97
703.074
651.656
700.389
644.254
721.616
762.042
537.005
565.1
876.842
458.063
866.806
776.47
679.792
380.571
503.373
635.748
418.294
611.743
697.3
816.373
916.862
922.032
830.16
918.232
820.096
825.418
731.527
670.966
679.39
752.195
662.175
737.734
744.993
229.149
326.315
289.544
661.58
736.974
660.704
758.596
226.139
270.43
254.339
711.146
604.601
754.853
710.372
190.458
246.356
235.758
569.54
535.972
641.761
584.699
172.065
207.202
190.878
506.695
471.818
517.336
483.651
148.392
177.318
170.837
429.513
405.015
446.785
421.583
131.028
158.583
148.124
375.565
350.182
394.492
370.43
113.811
136.042
124.766
318.977
304.582
340.451
320.998
86.3186
116.035
91.1599
270.645
276.798
284.863
291.15
392.193
459.641
385.98
906.661
861.217
930.417
957.364
410.546
219.907
260.657
412.04
428.282
404.379
212.352
474.475
177.354
157.115
514.308
524.765
457.404
160.183
447.329
168.651
165.612
480.893
462.719
464.555
162.46
300.425
112.055
118.276
354.584
327.471
322.852
110.121
260.638
103.409
97.534
294.012
291.184
265.708
96.7286
255.825
102.191
99.0416
278.399
273.743
258.864
98.5334
232.927
89.7016
93.7904
240.075
232.611
240.112
91.4614
199.981
75.9952
81.7539
197.458
191.87
205.949
78.2219
86.9148
119.374
90.9473
243.409
244.349
251.294
258.238
404.362
484.169
405.391
952.786
974.678
936.262
958.346
436.222
185.268
245.445
419.008
423.662
425.393
189.493
539.03
176.296
180.645
489.486
500.268
518.894
192.753
543.006
174.634
205.668
486.042
471.006
548.078
205.754
491.447
153.219
203.96
420.736
398.68
515.205
197.624
302.404
100.674
140.348
295.508
263.774
352.306
120.427
202.845
81.9756
83.5197
219.144
214.533
214.523
78.8823
186.36
80.2318
74.6068
205.947
203.191
188.737
74.13
174.293
74.3503
71.4033
190.436
187.361
176.881
69.8423
90.6231
99.3728
79.9153
244.885
256.656
213.186
228.898
384.22
431.385
343.38
747.39
801.465
658.961
614.869
438.25
218.369
267.513
425.895
465.045
408.325
217.024
667.231
249.674
216.91
630.541
679.574
609.332
242.728
763.31
304.758
294.691
757.233
765.032
757.903
300.584
689.438
289.536
292.321
739.261
702.27
726.947
277.678
352.734
142.34
173.304
440.16
356.059
434.938
140.696
198.029
78.5381
87.6444
221.222
197.154
222.024
78.0374
155.871
59.9897
64.6165
155.515
148.845
163.366
61.9086
132.962
55.0585
55.3624
135.456
133.122
136.14
54.1887
72.4788
92.9053
75.2822
186.367
201.035
197.087
208.935
327.753
557.259
425.852
615.285
511.171
683.87
623.665
280.352
186.979
227.351
292.957
285.068
300.294
189.962
322.49
150.573
134.579
334.677
398.364
284.717
134.904
401.844
191.838
145.895
524.934
526.891
404.848
144.821
360.726
152.051
125.154
451.324
423.292
363.634
124.193
305.444
113.6
119.148
330.368
304.067
322.895
115.13
200.874
77.3985
86.0357
224.826
202.066
223.733
76.9926
158.806
66.142
62.0511
172.771
168.59
163.662
60.4865
144.862
58.2005
56.6498
152.878
148.401
147.931
55.6237
79.5391
94.6755
84.3478
217.382
228.164
223.302
243.793
325.433
502.825
315.832
686.348
564.137
736.479
675.693
193.593
226.481
206.157
519.208
535.482
631.622
597.919
201.32
199.279
191.903
566.211
587.936
585.359
573.424
198.137
189.953
177.885
572.253
516.351
549.978
483.501
139.98
153.94
126.977
426.892
359.274
410.534
353.857
97.5087
109.741
99.0607
297.394
259.275
302