/*--------------------------------*- C++ -*----------------------------------*\
  =========                 |
  \\      /  F ield         | OpenFOAM: The Open Source CFD Toolbox
   \\    /   O peration     | Website:  https://openfoam.org
    \\  /    A nd           | Version:  10
     \\/     M anipulation  |
\*---------------------------------------------------------------------------*/
FoamFile
{
    format      ascii;
    class       volScalarField;
    location    "9.2";
    object      omega_0;
}
// * * * * * * * * * * * * * * * * * * * * * * * * * * * * * * * * * * * * * //

dimensions      [0 0 -1 0 0 0 0];

internalField   nonuniform List<scalar> 
12920
(
84.7392
101.059
118.793
121.151
117.962
106.582
93.561
86.887
81.9055
77.7819
73.7339
68.895
62.522
56.1639
52.1001
50.449
50.0054
49.5761
48.4025
44.6076
58.8165
147.617
171.429
155.16
117.226
105.212
96.3175
92.8725
85.9168
80.8612
74.437
70.5998
67.5209
66.5952
66.3813
66.5458
66.4973
65.9222
64.0852
57.9354
180.054
195.375
195.573
172.154
134.156
115.251
101.828
97.2308
89.8323
85.834
80.5233
77.071
72.6546
68.3359
64.2349
60.7126
58.5202
56.6086
55.9683
54.423
331.786
178.221
178.825
157.632
121.218
101.812
88.4082
82.7085
76.4388
73.646
69.726
66.8685
63.3397
60.2283
57.3233
54.9891
53.3976
52.4073
52.0876
51.7983
324.209
224.126
195.388
148.945
120.734
102.787
88.8983
81.1203
74.4062
70.9814
67.0601
64.3
61.2729
59.0245
56.9621
54.9794
53.4273
52.312
51.9373
51.5122
258.946
221.432
176.761
138.247
117.674
104.458
93.0734
83.4909
75.7166
71.6286
68.0215
65.6544
63.1598
60.7507
58.0541
55.0554
52.6153
51.1602
50.8495
50.5522
292.828
183.831
154.29
125.497
117.509
109.053
97.411
85.4235
78.7765
71.9963
67.7244
64.0456
60.7351
57.3621
53.6399
50.576
48.6205
47.7028
47.5786
47.5814
300.91
190.666
146.72
131.626
120.201
110.319
163.26
134.888
129.856
119.394
112.395
104.183
98.7282
92.6425
54.5367
48.3261
44.6688
43.2018
42.9786
43.0789
189.965
191.596
175.651
148.228
131.47
188.678
294.299
234.889
234.739
197.86
181.547
181.263
171.713
158.96
95.2319
51.6724
45.3652
41.0478
38.8521
38.1238
76.653
135.117
151.959
148.014
131.765
196.609
277.976
231.38
238.175
225.309
188.827
162.716
160.293
155.502
95.5585
52.7435
46.0355
39.8784
35.8748
34.2795
186.263
222.401
197.426
147.462
122.114
185.513
293.71
268.387
307.783
309.484
235.193
166.627
140.675
133.22
83.908
49.4057
43.7538
39.3101
36.7668
34.6941
276.843
302.65
233.937
171.81
136.816
190.067
265.473
216.151
246.06
228.168
196.231
165.176
145.729
138.284
87.901
52.7853
46.5174
42.9226
42.2586
40.9273
165.199
249.38
232.412
189.616
151.984
129.276
198.655
132.657
123.953
127.563
116.278
94.7411
82.6369
78.8615
51.4086
50.8979
50.212
49.5816
49.0125
46.4091
99.8154
136.635
130.949
140.473
138.158
124.625
101.578
88.0641
81.5895
75.376
68.6236
63.0167
56.7861
51.3725
47.2566
46.1836
46.4437
46.4678
46.0692
43.0893
129.639
148.409
159.295
155.126
139.297
120.886
100.92
90.4845
82.5071
78.9415
74.9626
72.7005
67.6279
59.5391
51.7891
46.3432
43.9462
42.9845
42.4572
41.2537
221.416
194.42
195.3
171.891
141.766
125.537
107.548
96.4359
87.0439
82.65
76.8804
71.9777
65.3818
58.3785
51.943
47.0971
44.495
43.5099
43.3324
43.5651
347.143
209.969
195.612
157.988
128.472
109.299
97.452
91.4186
85.2335
79.9733
73.1113
65.8931
58.9103
53.3537
49.5831
47.0842
45.3851
44.5551
44.45
44.7476
209.179
186.815
179.954
136.585
115.091
101.012
90.4024
84.6876
78.8902
73.4283
67.1955
61.4077
55.8973
51.5942
48.7149
46.9554
45.8207
44.8401
44.3734
44.1807
135.386
185.821
175.433
133.505
108.654
90.5859
81.851
78.1959
73.673
69.2605
63.5775
58.0986
53.1023
49.5293
47.5587
46.7383
46.5532
46.2333
46.0139
45.4737
55.0092
99.9737
118.292
119.47
114.166
97.249
77.1152
64.469
58.4915
54.9435
51.7988
48.9533
46.5198
43.9794
41.7862
39.2111
37.4432
35.4288
34.6162
32.8598
64.1794
75.1817
72.2847
64.6266
55.9777
51.726
49.7879
48.9723
47.382
45.5351
42.7985
39.1349
34.7149
30.9872
28.982
28.486
28.3876
28.0931
27.2075
24.1936
180.08
130.659
109.944
79.8269
65.0742
58.9613
52.9353
49.1851
44.9743
42.8898
40.4287
39.1613
37.8399
37.1695
36.5239
35.9512
35.5083
34.7615
34.1972
33.2658
93.1321
143.873
134.427
97.2422
69.4722
57.7147
49.7347
46.8075
43.1941
41.9071
40.0341
38.8687
37.1063
35.0632
32.7902
30.7288
29.4942
28.9688
29.0186
29.5484
275.441
128.14
106.027
78.6624
61.9221
51.4999
44.7521
41.2748
38.1774
36.7727
34.9184
33.4298
31.4986
29.6956
28.1304
26.9346
26.1764
25.8482
25.8343
26.2229
195.703
144.168
99.2894
73.9841
61.0497
50.3569
43.8846
40.1976
37.7523
36.2228
34.7673
33.209
31.6843
30.1356
28.9187
27.7871
27.0778
26.5261
26.0628
25.8821
170.328
117.847
89.0434
78.9726
69.5047
54.382
45.5743
40.2377
36.8771
35.268
33.8841
32.8857
31.9458
30.9817
30.085
29.1551
28.1796
26.9211
25.8687
25.2027
268.858
124.315
89.8884
73.1847
61.105
53.5588
45.2851
39.4092
35.9565
33.9944
32.1868
31.1536
29.9545
28.9868
28.0444
26.9558
25.7374
24.5692
23.78
23.5367
225.222
152.873
100.272
76.8598
63.6955
53.4295
55.8169
46.4521
39.7657
37.0487
35.0429
32.8553
31.136
29.6687
26.7583
25.75
23.7306
22.1038
21.278
21.1695
368.996
182.92
101.974
75.6537
63.5854
65.2846
64.2873
53.9949
45.2049
38.5493
33.7395
32.1338
31.2271
29.6885
27.4944
25.8074
24.1877
21.5611
19.8121
19.1988
185.634
148.404
112.357
83.0751
67.7525
65.9979
61.705
50.005
41.7502
39.5699
40.3731
32.5749
29.8369
29.207
27.686
25.9196
24.9251
21.9791
19.3567
18.0928
202.035
145.127
102.407
86.6929
78.8443
74.0961
66.3202
55.871
50.2293
50.2446
52.8618
36.1725
30.428
29.0519
26.9353
25.3746
24.7651
22.2936
20.1015
18.5582
258.776
191.104
129.191
108.934
97.535
90.4555
78.4102
65.4247
56.1488
54.8965
47.5976
33.1707
26.3923
25.4638
24.5932
24.5847
24.4632
23.769
23.3444
21.9785
185.953
180.961
138.383
106.979
96.0407
78.1873
75.7528
62.0383
51.0169
44.5692
35.4902
29.2639
25.3093
24.2454
23.5951
24.4167
25.0763
25.8083
26.4658
26.0369
292.099
147.89
101.821
82.8082
71.9952
59.5241
50.3486
45.708
40.6618
36.3017
31.959
29.8061
27.5645
25.6778
23.9425
23.3192
23.4924
24.3852
25.3197
24.7158
206.428
131.65
100.29
84.5506
71.2104
59.3952
49.7434
44.1323
39.8185
37.6568
35.6049
34.7029
33.5971
32.0686
29.004
24.7796
22.2442
21.4584
21.3431
20.9888
192.502
140.748
118.4
94.395
80.5133
72.743
60.0879
50.0032
42.5634
39.7206
37.4195
35.8721
34.0942
32.0476
29.6271
26.4518
23.8678
22.3607
21.6975
21.6854
227.296
132.878
102.824
84.2797
74.463
65.9451
56.7458
49.3081
43.6732
40.3713
37.7084
35.2477
32.8357
30.2345
27.9824
26.0703
24.8008
24.0544
23.4434
23.3853
210.413
105.298
81.9339
63.9458
57.9644
52.3061
48.8034
45.7541
43.0504
40.4701
37.7847
34.9366
32.178
29.6743
27.7185
26.2049
25.113
24.3618
23.8657
23.713
104.233
109.469
86.7256
63.6741
53.7898
49.0356
45.6809
42.5848
40.2677
37.5282
34.9739
32.6976
30.8697
29.479
28.3443
27.3027
26.3607
25.3346
24.692
24.0578
15.9851
22.5893
48.426
57.3995
55.4949
48.0571
39.6401
35.4266
32.8595
31.7166
30.5952
29.5873
28.3559
26.9381
25.6505
24.3405
23.5172
22.4397
21.9514
20.8272
49.5536
86.9619
81.4901
66.8626
60.4669
58.2913
56.273
53.7226
50.5607
46.8119
42.5942
38.3057
34.7332
32.2732
30.7989
29.4803
28.3217
26.6711
25.7204
24.0232
228.456
130.647
95.0836
65.6582
55.3564
50.4946
46.4116
44.5497
41.2205
39.8868
37.4972
36.4584
35.0941
34.6229
34.0396
33.6279
33.1435
32.4434
31.8833
31.0995
169.358
162.919
112.887
78.046
58.1689
48.5277
42.5905
40.3363
37.5067
36.5903
34.8093
33.8223
32.207
30.8569
29.5128
28.5433
28.0141
27.818
27.8941
28.1536
277.743
129.021
101.438
65.6839
50.3443
41.6339
37.5286
35.2007
33.0942
31.9181
30.2956
29.0916
27.6476
26.5664
25.6534
25.0819
24.7993
24.7789
24.8814
25.2286
221.349
166.075
107.498
65.5654
50.0533
40.5057
36.5314
33.9606
32.2277
31.0481
29.7117
28.5913
27.4319
26.4822
25.695
25.1007
24.7158
24.4735
24.3452
24.3611
188.529
125.88
85.3797
62.9375
53.0634
42.1424
37.2285
33.6327
31.3317
30.1184
28.9913
28.2331
27.4446
26.7382
26.0877
25.4233
24.8121
24.2358
23.8315
23.5902
206.781
127.827
86.6773
61.3539
52.7986
44.4923
37.9868
32.9823
30.756
28.8742
27.748
26.9202
26.1104
25.4306
24.7182
23.9723
23.2534
22.7069
22.3933
22.348
131.242
136.814
92.3073
66.0015
54.3315
44.9817
42.7959
37.8698
32.9311
30.8868
28.8606
27.3939
26.0654
25.1564
24.4694
23.2304
22.0556
21.2685
20.8995
20.8712
144.776
133.6
104.588
68.2112
54.9182
50.2915
46.6988
42.0027
35.7853
31.696
29.3192
27.8028
26.5898
25.5327
24.8736
24.1525
22.3646
20.9267
20.0906
19.8556
202.832
134.626
89.3566
67.4842
55.8125
51.098
47.7118
40.9069
36.1506
33.7072
34.145
30.8904
27.9092
26.5895
26.0313
25.3855
23.2092
21.3041
20.1162
19.5907
286.373
134.674
90.2263
67.3515
59.8777
56.2652
52.1072
46.9482
43.6256
41.4747
84.3038
59.7191
39.5484
32.8969
28.5999
26.7795
24.7121
22.595
21.1524
20.1523
536.434
279.39
121.027
83.3355
69.9781
63.7088
58.0956
51.9903
46.7613
43.4583
34.7115
26.8524
24.3959
24.3378
24.9599
26.0395
25.7018
25.1942
24.2054
22.0686
176.174
204.109
170.7
101.695
74.6804
59.6852
54.4111
48.7048
41.0225
35.1711
28.4485
24.834
23.1553
23.039
24.1485
24.7188
25.4048
25.7604
25.7526
24.6356
223.552
137.419
98.0263
72.9828
61.38
49.8494
43.7286
38.4541
33.9004
30.4365
27.4477
25.8051
24.1442
22.9255
22.2527
22.2727
22.8198
23.4017
23.5273
22.8293
228.404
128.123
95.4527
72.766
57.6424
47.0175
40.845
37.0361
33.7148
32.0519
30.3222
29.2916
27.7774
26.0798
24.0413
22.2312
21.4044
21.1775
21.1844
21.1368
342.473
181.848
124.787
88.4757
68.3876
55.616
44.8051
39.1712
35.0042
33.3002
31.4031
30.105
28.445
26.8646
25.1689
23.6696
22.6176
22.1002
21.9795
22.114
222.687
141.553
99.9571
74.8453
62.7835
52.5394
44.3582
39.6416
35.8343
33.798
31.5705
29.961
28.1459
26.7041
25.4037
24.534
23.944
23.6631
23.5514
23.6273
162.654
106.643
76.7945
55.9555
51.3002
44.155
41.1073
38.208
35.6567
33.964
31.8087
30.3164
28.5774
27.3496
26.1872
25.4249
24.8407
24.4927
24.3195
24.3197
190.529
129.837
85.4661
59.6832
48.3758
42.0664
39.3357
37.0928
34.8308
33.4125
31.5431
30.6281
29.4799
28.8007
28.0049
27.3704
26.7948
26.3174
26.0427
25.7234
28.4135
31.6602
52.1449
59.384
55.2713
47.8603
42.6019
39.5934
37.5152
35.8025
34.1646
32.5012
30.8719
29.2615
27.942
26.5721
25.6724
24.4015
23.7678
22.2928
61.8196
85.5383
77.696
69.4222
65.326
61.498
57.717
52.9732
48.0131
42.6587
38.4404
35.16
32.9056
31.0344
29.4979
28.012
26.9074
25.7605
25.2086
24.0056
247.225
153.303
117.936
70.4756
61.0891
53.3992
51.84
48.7661
45.8595
43.8736
41.7025
40.8792
39.8505
39.5698
39.1361
38.7983
38.2557
37.6346
36.9282
36.364
318.749
178.131
127.456
76.2597
60.037
48.6767
46.0097
42.4316
40.834
39.2432
37.8843
36.7194
35.555
34.6383
33.9346
33.461
33.3177
33.2467
33.3456
33.4329
305.049
148.678
116.104
67.5316
52.6061
41.7727
40.3106
36.8655
35.9693
34.1502
33.1662
31.9989
31.1994
30.5368
30.1703
29.9935
30.0167
30.1503
30.4271
30.6731
188.034
145.497
117.177
67.357
51.8868
40.6574
39.0322
35.5114
34.7918
33.0822
32.3006
31.2407
30.6055
29.9963
29.6406
29.3891
29.3282
29.3322
29.4156
29.5885
233.565
134.805
85.2862
58.478
51.6425
40.9496
39.2955
35.0548
33.6045
32.0572
31.3978
30.68
30.2371
29.7567
29.3964
29.0508
28.8517
28.721
28.6855
28.7102
213.122
169.385
103.72
61.1596
55.3886
43.9263
40.1369
34.4807
33.2358
30.8986
30.5737
29.7132
29.4287
28.9338
28.4774
28.0234
27.7721
27.6597
27.6713
27.7985
164.275
145.513
97.0367
63.5356
56.0185
45.3858
42.2063
38.0032
34.4405
32.6147
30.9724
30.1225
29.4256
28.9983
30.0157
28.1495
27.3742
27.089
27.0498
27.1275
165.449
134.657
105.193
67.7844
56.2356
48.4521
45.1698
41.0376
36.5697
34.4376
32.8233
31.8595
30.9922
30.505
31.4883
30.347
28.0761
27.2893
27.1349
27.2218
362.69
161.391
91.3224
64.7041
56.7211
49.9997
46.4723
41.8486
38.8891
35.9814
35.6327
33.9857
33.0376
32.8575
33.5617
31.6649
28.8197
27.8699
27.6975
27.7917
259.211
139.813
96.7266
65.2075
59.3305
53.4912
49.9875
47.1932
44.7405
40.7644
62.0946
50.9094
39.8255
37.0958
35.976
33.059
30.1052
28.6085
28.0913
28.0786
297.919
184.653
122.501
72.0396
63.2397
56.2151
53.4301
49.8098
45.4653
40.555
34.0379
31.1981
32.1075
33.3389
34.907
34.0305
32.1801
30.7234
29.2485
28.3268
327.521
264.294
190.083
103.385
72.0684
56.7517
51.6721
46.2348
39.8615
35.2227
31.2955
30.2646
30.3191
31.0797
32.5367
31.7706
31.6765
31.3786
30.6189
29.1154
266.895
158.263
104.205
70.4204
61.9491
48.836
45.5416
38.7685
35.7004
32.1804
30.3594
28.7577
27.9418
27.3874
27.4047
27.7131
28.3256
28.3772
28.2726
28.0635
283.674
131.199
100.399
69.6889
56.8975
45.3669
42.4826
38.1172
35.8925
33.9073
32.4375
31.164
29.765
28.4498
27.5016
27.0956
27.2026
27.426
27.7484
28.0585
428.516
238.081
144.632
87.2117
65.5871
49.6946
43.7933
38.8805
36.8913
34.8348
33.4776
32.1402
30.9117
29.8118
28.8923
28.4089
28.4396
28.6027
28.9425
29.3233
299.214
155.947
111.464
72.4129
61.0801
48.2899
44.281
39.411
37.5421
35.3157
33.9047
32.5877
31.5122
30.7314
30.1992
29.9848
30.0107
30.1279
30.3631
30.6316
233.493
121.278
83.7774
57.0921
53.114
43.3251
42.5309
38.6764
37.5906
35.716
34.612
33.6366
32.7905
32.2125
31.7482
31.5171
31.4943
31.5427
31.6642
31.855
175.494
129.539
91.0471
60.2551
50.8017
42.6591
41.874
39.244
38.2587
37.0309
36.2279
35.8042
35.3354
35.0339
34.8011
34.6311
34.5657
34.5112
34.4207
34.4182
80.8656
93.5949
86.8412
63.44
53.4526
47.3715
44.7231
41.7677
39.6764
37.1634
35.122
33.0389
31.2919
29.5927
28.161
26.7257
25.6359
24.3204
23.708
22.3504
99.2979
80.8283
75.9163
70.1911
65.3835
59.2927
52.4871
45.3714
39.8212
35.7082
32.822
30.6346
29.063
27.7947
26.7704
25.8145
24.934
24.2209
23.5969
22.9448
319.601
167.943
129.015
78.998
86.6478
68.3269
76.134
64.502
67.9662
61.1811
62.905
59.4271
60.4113
58.7487
59.0026
57.6516
57.1347
55.7452
55.171
54.7683
278.15
157.892
140.702
79.3434
83.5877
60.833
67.5322
55.6357
59.2899
52.7696
54.4772
51.0121
51.7986
50.1369
50.5269
49.7219
49.9338
49.5342
49.7364
49.8357
265.154
162.341
126.888
78.1197
70.5365
52.4208
58.7854
48.8081
52.9126
47.2629
49.2002
46.3011
47.2738
46.0273
46.575
46.1266
46.5295
46.4741
46.7528
47.0006
193.815
159.215
130.446
71.6172
70.7398
50.4142
57.0963
46.7049
50.9444
45.671
47.7416
45.1503
46.138
44.9868
45.4947
45.0867
45.4641
45.4049
45.6259
45.8737
271.712
151.404
98.3102
68.8768
67.3932
50.7169
56.4971
46.1839
48.2109
44.4783
45.8233
44.3447
45.0191
44.3979
44.5928
44.363
44.6348
44.6421
44.7523
44.9061
305.114
191.103
124.72
70.9572
75.1169
52.644
56.6469
45.7224
46.8711
42.8961
44.9828
43.5416
44.6378
43.9631
43.9695
43.5609
43.7201
43.7081
43.8309
44.1167
376.03
171.863
119.894
70.5758
75.2059
56.9257
55.6281
48.9229
49.8672
46.7329
48.3569
47.3059
48.1231
47.4338
46.9942
43.9184
43.2527
43.1024
43.1162
43.3576
193.22
135.738
122.317
75.7949
70.4021
58.4428
62.0965
56.4708
56.2192
55.0703
55.2525
55.0106
55.2938
55.0131
54.5877
46.468
43.5302
43.0092
42.9438
43.1782
216.996
189.345
116.295
71.6966
71.1037
58.3245
62.2931
63.0601
61.1302
58.384
57.5789
57.9498
59.9041
59.7584
56.6156
46.9835
43.8657
43.2723
43.2276
43.4288
368.574
150.401
113.409
71.9114
75.6185
64.1524
64.8834
67.6189
64.4914
56.8363
55.6542
56.6814
61.499
61.648
57.305
47.6597
44.6577
43.7767
43.5145
43.6097
216
155.833
120.224
72.5811
74.3359
63.5369
69.1859
68.7263
64.0288
58.7665
57.5463
58.1169
60.43
60.4679
57.7475
49.7581
46.8197
45.6317
44.8802
44.2858
283.791
254.88
199.624
99.0072
89.6626
66.9136
65.4185
56.3428
55.4542
51.2024
51.9989
50.9452
52.2095
52.3167
49.6874
47.6796
47.5362
46.7923
46.1332
45.2426
355.546
158.987
111.175
73.3833
74.9561
54.0891
58.1412
47.102
49.1504
43.8689
44.7702
42.3573
43.0257
42.5544
43.1545
43.615
44.3985
44.4475
44.6251
44.6682
171.761
136.727
114.868
71.5297
70.8335
51.6049
57.0271
47.6172
49.8088
45.3348
45.8308
43.4297
43.3337
42.402
42.658
42.6728
43.1312
43.4053
43.8235
44.2787
377.225
189.011
143.85
80.3742
75.5303
52.2368
56.3977
47.224
51.0181
46.06
47.6418
44.7517
45.2968
43.891
44.3317
44.0736
44.5838
44.8208
45.3523
46.0029
262.768
154.733
119.984
72.7639
74.5282
53.3453
59.3574
48.3676
52.7585
46.8914
48.882
45.7732
46.6944
45.4271
46.149
45.9184
46.4925
46.7083
47.1586
47.654
168.213
145.64
103.11
67.9001
66.9558
49.6773
57.079
46.9483
52.8884
47.4464
50.4615
47.5184
48.9683
47.5845
48.4141
48.001
48.5684
48.6288
48.9561
49.3532
172.113
142.607
123.542
73.2227
73.5902
52.4512
62.2433
50.8895
58.4187
52.1582
55.9808
52.6311
54.49
52.968
53.9131
53.3086
53.7228
53.4711
53.5111
53.5255
50.1998
101.719
97.3462
65.5243
52.3469
46.8838
44.826
41.2411
38.693
35.3921
33.0993
30.8303
29.0839
27.3233
25.8301
24.4316
23.3664
22.4767
21.8248
21.1427
34.1191
40.8702
77.8167
34.606
34.7989
40.2206
85.7958
31.9533
75.3339
59.5647
34.9142
33.6154
84.3294
65.8808
87.0768
43.9958
39.2243
40.3731
106.17
41.0226
35.8558
66.9808
36.4136
29.0366
103.568
75.6264
34.0508
30.2353
232.043
275.884
223.669
79.446
64.1093
72.058
60.4324
237.262
225.634
231.635
60.3769
52.8395
56.3648
48.4183
209.543
230.041
210.572
50.9585
45.6012
47.0002
43.4538
181.235
204.219
182.58
43.342
38.1566
42.5543
41.9948
181.204
175.769
166.717
37.2479
35.7431
41.3902
36.0997
174.165
165.869
165.833
35.7535
35.5024
34.8317
33.3193
161.292
165.419
160.621
35.2355
33.8436
33.1808
32.7835
134.292
158.112
139.615
33.4561
31.5455
32.6002
30.7973
227.181
283.463
246.244
73.1117
60.1155
75.6189
62.7298
239.173
257.268
289.017
55.9414
47.9086
59.0411
53.2883
228.449
293.972
301.731
46.5285
44.1191
52.6497
52.6367
200.764
300.74
258.666
44.1158
45.9016
53.2247
57.4729
165.891
233.257
177.435
45.7935
38.5311
57.526
44.7394
160.73
165.766
144.975
36.2121
33.2595
40.1048
33.9495
157.342
141.333
137.751
32.9626
32.5396
33.2508
31.7149
138.457
137.337
120.911
32.4467
30.9989
31.4107
29.4467
258.608
279.103
229.521
77.9895
65.356
86.8685
74.911
302.117
232.354
267.574
61.8013
56.2802
70.8784
62.6676
311.848
275.208
275.201
55.6756
55.6611
61.439
60.5971
261.887
267.392
237.154
56.1708
60.0097
60.9205
62.1758
178.418
218.466
177.69
59.9058
44.9924
60.7639
43.0955
144.806
166.176
149.231
40.0935
33.6287
38.9997
31.4041
134.442
148.603
141.928
32.8969
31.3653
30.0871
28.8521
119.677
138.584
123.299
31.0207
29.1689
28.7719
27.2753
216.551
328.17
230.639
93.7967
77.4983
100.089
81.6751
240.669
206.522
177.701
72.5454
63.0026
74.9822
65.5601
240.623
177.939
190.942
61.604
60.9513
63.3358
56.3029
204.328
198.758
200.53
61.0136
58.636
54.2803
47.6755
175.381
196.851
166.726
54.6874
41.1808
45.3422
38.3261
147.335
157.799
137.282
38.063
30.7357
36.1059
30.5546
140.875
134.434
127.518
29.3531
28.1446
29.2884
27.7555
122.431
127.974
114.33
28.123
27.0645
27.6875
26.7569
56.926
61.1326
53.6541
49.1088
45.3642
49.3468
44.0929
47.037
50.3907
43.4502
43.6299
38.4173
42.074
37.3794
40.3374
42.0626
38.7977
36.9139
33.1943
36.2057
33.4868
34.6269
38.0761
37.2989
32.2751
30.1689
32.8457
31.5962
32.3025
36.5861
32.3049
29.5612
28.2286
31.0542
28.862
31.6383
31.3022
29.956
27.9854
27.1737
28.2648
27.0432
30.0634
29.778
29.3228
26.7979
25.8997
26.7658
26.1311
28.8479
29.1683
28.4548
25.6581
24.9489
25.9545
25.3362
53.3045
64.0641
56.197
49.5533
43.9022
52.087
47.4274
43.0509
53.3311
48.133
41.9785
37.5607
45.913
42.6818
39.5987
47.4152
47.1722
36.557
34.6071
42.0465
41.1534
40.605
47.5977
51.0215
34.2608
34.4031
41.3076
54.1398
34.3188
50.9355
39.9668
34.2625
31.4014
53.5503
45.9406
30.1472
36.3568
31.5092
30.3507
28.1197
43.5563
37.2585
29.3135
30.9285
29.7017
27.6366
26.6539
35.7949
32.1758
28.6617
29.4215
28.2488
26.4331
25.6526
31.0966
28.3495
58.606
72.8126
66.7992
54.2664
49.5034
58.4412
54.6541
50.9441
63.6935
56.8587
48.059
44.9568
52.9557
48.7825
49.8843
55.6914
54.6116
44.2969
43.255
47.8546
46.1902
53.1339
54.7905
54.6934
43.006
55.8332
45.7987
41.7893
39.9933
52.5056
37.2399
55.0522
46.6165
38.7037
29.7873
31.0144
33.9163
28.0388
43.8088
36.6258
27.99
25.2121
29.314
27.0756
26.1967
35.2129
32.1888
24.8707
24.6994
27.9873
26.1428
25.5203
31.3316
28.7864
24.728
24.5422
69.2053
79.9552
69.9374
61.5611
55.9125
61.9357
54.8744
57.4586
65.9203
59.6371
53.9901
49.2263
53.3508
49.2306
55.0057
57.5717
51.363
48.1601
46.1519
47.4399
42.5975
51.4691
49.3216
42.3088
45.408
39.6444
40.7542
34.1365
35.8597
39.88
33.4634
36.591
28.9392
32.0411
27.2796
27.4208
31.5134
26.9941
27.2966
24.4542
26.0465
23.5922
25.4864
25.9963
24.9134
24.0354
23.7538
23.1238
22.7456
25.2631
24.8556
24.8173
23.7664
23.8854
22.7606
23.0022
43.5625
47.5343
42.6564
44.5698
41.6886
45.5841
41.616
37.176
40.8841
36.7051
40.3663
36.5139
40.3895
37.4158
32.4581
35.6109
33.0255
35.486
33.3391
36.5721
34.3722
29.9046
32.3615
31.1304
32.8765
31.6088
33.6743
32.4871
28.0586
30.7032
28.9346
31.1209
30.1897
32.2202
31.1778
26.9566
28.3866
27.1603
29.9379
29.1893
30.8006
30.0627
25.7614
26.87
26.2217
28.9005
28.3988
29.9206
29.6336
24.8186
26.0386
25.4184
28.191
27.57
29.4979
29.0052
42.567
50.203
46.1904
45.8841
41.8164
48.2101
45.4176
37.0715
44.9253
42.1733
40.7209
38.1284
44.6542
42.8136
34.169
41.5688
40.5155
37.4095
35.3198
42.2379
40.0391
36.8505
33.4933
35.7747
33.5657
36.4021
33.3465
35.6045
45.8537
33.8064
42.3163
34.4773
42.1269
34.2869
46.06
28.4451
55.9905
42.6551
32.8091
31.0694
59.2195
43.0643
26.8358
39.7995
33.8352
30.776
30.2491
40.3039
35.6329
25.738
32.3101
28.8876
30.076
29.3859
34.5671
32.31
48.1597
55.6672
52.608
49.6041
47.0295
52.1229
49.9782
44.264
51.1579
47.4892
46.2918
44.404
49.0001
46.1656
42.4449
46.5981
44.6551
43.775
41.4134
45.2773
42.3463
49.9632
70.7271
43.3373
47.655
46.4736
274.994
42.4292
47.0547
78.1071
46.0827
217.957
42.9951
195.548
50.1798
42.495
27.6045
25.5127
64.5128
43.5242
29.6348
29.3164
34.2005
25.3017
25.3132
40.5954
36.2243
29.5493
30.3982
29.4624
25.3753
25.2174
35.2735
32.9433
30.5725
30.8287
53.6114
57.8857
52.5973
53.3429
50.4787
53.2715
49.5165
47.8015
51.3267
47.2046
49.3704
46.0608
48.359
43.9077
44.4391
45.4606
40.8754
45.0131
41.8239
42.3662
38.4898
37.4486
39.0797
32.8175
40.3765
34.8761
36.9189
32.0704
28.1973
30.8939
26.7166
33.0895
29.5882
30.7739
28.5753
24.6791
25.6788
23.7193
29.023
28.7074
28.0805
27.5219
24.2912
23.361
23.1687
28.8647
29.5495
27.5028
27.9875
24.4862
23.217
23.4608
29.7068
30.1735
28.1052
28.5959
42.342
46.2085
42.5272
55.1185
51.3104
56.2447
54.7981
37.4521
41.434
38.7755
50.0637
48.3669
53.9606
52.0499
34.8402
38.0276
35.9667
48.5678
47.9158
51.6466
49.66
33.2444
35.2639
34.0079
47.474
46.6563
48.8471
47.4344
32.0813
33.7484
32.8973
46.744
46.5027
47.3256
47.2757
31.2114
32.6334
32.3689
46.3243
46.0192
47.522
48.7484
30.672
32.3722
32.3548
46.0563
45.9041
49.0472
49.1088
29.7549
32.2667
31.6267
45.7217
44.5542
49.011
48.0702
42.8047
48.6974
46.3232
55.5966
55.3213
56.9357
58.3259
39.5431
45.6708
43.9747
54.721
52.9418
58.1045
56.2971
36.759
43.3708
40.723
52.3927
49.3415
55.022
49.974
35.619
40.1854
58.1632
48.2
46.7631
48.291
48.3211
34.567
58.2462
51.9708
46.708
46.6206
48.4336
47.3122
33.076
48.8843
40.9974
46.8687
48.8171
47.1996
49.8418
32.9651
39.5746
37.1504
49.3648
49.6535
50.7884
51.5084
32.0321
36.4934
34.6215
49.5313
48.4497
51.2656
49.6351
47.828
52.3976
50.4693
58.4453
59.66
61.733
61.9825
45.4109
49.5579
46.7837
59.3623
57.296
61.0366
57.6696
41.9156
45.8553
42.5894
55.8394
50.5295
56.4508
51.0443
61.8786
41.1535
36.2379
48.6517
48.0591
49.3966
46.0137
54.9825
34.7398
31.8967
48.1221
47.2172
45.7027
45.8643
41.2798
31.5335
32.0254
47.0964
49.9459
46.4463
49.2957
37.6652
32.5466
33.8225
50.9603
51.8031
50.1061
50.9214
35.1762
34.027
33.9699
51.5812
49.917
50.8886
50.0556
50.8631
53.2578
49.7382
62.4866
62.0277
61.286
57.7285
46.5407
48.5089
43.9415
60.7913
56.9494
56.0823
52.0486
42.0544
42.4953
38.8853
55.7661
51.1293
51.4643
48.7136
35.4961
37.4197
33.16
49.5413
46.9467
47.6327
45.997
31.4983
32.1405
30.7388
46.6951
47.0356
46.101
46.2909
31.7092
30.4614
30.4004
47.5753
49.3823
46.2123
46.5238
33.1574
30.5491
31.3077
49.9146
50.4746
46.861
47.4982
33.4344
31.4494
31.6046
50.4809
49.9125
47.572
47.1714
57.6175
63.353
62.9667
80.8953
77.143
83.4198
86.79
55.7983
62.2229
60.5724
75.9058
79.777
86.4143
86.8981
55.4882
60.2711
59.0936
81.4657
82.121
87.5729
91.3541
54.8275
58.7222
58.0472
81.4174
85.7954
92.9938
97.8361
55.0893
58.0704
57.8262
86.9174
87.7911
99.0787
100.168
54.986
57.8828
59.0466
87.4722
89.4756
99.8119
96.6738
55.0759
59.3924
59.2825
89.8743
89.9157
96.0548
95.0773
53.1948
59.1964
57.6645
89.7851
87.1639
95.0905
93.3643
63.5172
63.0763
66.3537
81.104
87.3881
80.2899
89.1314
61.5798
66.3685
64.9504
87.4819
87.971
89.8571
90.7836
59.2144
63.7893
58.612
88.7167
94.0836
92.0371
100.622
57.492
56.6876
55.8281
96.1736
101.664
104.007
111.132
57.7366
56.2377
56.3254
102.979
104.344
112.512
113.422
59.2857
56.8873
60.1566
103.806
99.0602
112.307
104.563
59.915
61.3138
61.7443
97.5331
95.7209
101.535
96.9902
58.0293
61.3922
58.8898
95.592
93.5318
96.4933
93.2897
67.6927
68.4797
69.9436
82.4395
90.4025
86.8458
92.176
65.8468
69.1664
65.9806
90.9512
91.458
91.9192
90.6172
58.9064
64.7982
59.8799
92.5896
100.865
90.8083
95.1166
55.3581
58.4685
56.5462
104.172
110.974
97.2055
102.239
56.0397
56.6516
57.4303
112.442
113.932
103.555
105.033
60.2824
57.9199
60.0366
112.827
104.765
104.427
99.1649
61.9965
60.8461
61.0852
101.666
96.9643
97.4458
95.1044
59.1405
60.9384
59.1943
96.4528
93.4167
94.8627
92.3384
69.8744
67.3363
63.7718
87.7178
91.649
83.3197
80.4845
65.0894
62.136
59.04
90.9385
89.3357
79.7079
80.8752
59.9605
58.9508
56.5147
89.328
92.0339
82.5339
81.7049
57.4287
55.6588
54.6119
93.7872
98.3679
82.1073
85.5898
57.8529
55.0079
55.2248
99.6563
100.659
87.397
87.1624
59.9359
55.2525
55.6657
100.236
96.3435
87.2843
87.8842
60.5214
56.2064
56.5203
95.569
94.086
88.6945
87.9424
59.1586
56.6523
55.4463
94.0198
92.3365
88.2136
85.3627
40.5156
33.6601
41.3225
34.3145
38.484
33.6223
44.6637
53.9066
38.5344
60.2791
45.8488
43.3933
38.9579
205.345
80.7807
59.811
77.7126
232.587
53.8287
92.6721
259.853
36.9799
33.8434
34.2277
36.1293
33.5788
35.7042
36.7092
40.5861
34.5176
34.3447
41.7708
33.8409
44.5826
38.8064
54.6673
46.3417
38.5097
62.1413
38.9981
208.775
43.7813
80.2061
226.514
62.0482
82.5852
90.8443
257.764
54.7978
45.1004
32.9888
39.4727
32.6508
41.3566
33.6832
42.318
88.4456
60.4788
71.3734
209.303
59.5246
91.8892
185.73
82.598
53.5065
65.1784
92.2753
57.8766
68.8835
119.855
45.5786
34.695
34.7831
42.7914
34.5535
45.8187
42.6708
44.8604
33.1345
34.3591
40.3583
34.0661
42.2298
42.0788
85.0925
200.211
63.0635
81.1572
89.075
178.511
62.1378
79.7631
93.3278
55.31
74.7563
67.3217
119.419
60.3217
52.9918
87.7399
47.7694
239.933
48.234
259.811
52.4878
42.1776
43.8152
43.0482
42.5624
43.4857
42.497
41.3342
41.4002
41.2606
41.5005
37.3834
42.774
39.8453
39.6011
48.8579
47.9591
72.983
41.0962
260.117
41.6249
43.9476
52.3583
232.551
99.6297
46.582
255.358
52.0493
46.4096
41.032
41.5371
41.1383
39.4672
41.5659
40.1031
40.1929
40.1855
36.2527
37.9214
37.7047
38.7297
38.3104
39.235
43.4075
78.1031
37.636
120.332
40.0408
176.097
41.3444
35.1518
38.7922
33.5448
34.9003
35.8447
37.6214
32.5071
32.8703
31.0327
30.9994
28.878
33.092
31.2704
30.4355
47.5926
210.078
97.3859
45.8227
189.654
50.1768
44.2181
44.414
115.878
92.3579
41.2188
162.966
42.697
42.5746
34.8262
34.1169
36.3708
32.4513
36.8303
32.1505
34.7994
32.999
29.2649
32.4793
31.1454
31.7754
30.4848
33.4055
134.811
160.899
151.656
93.1758
69.5312
89.3856
73.9082
133.878
146.476
142.052
59.9023
56.9567
64.4716
59.517
122.936
139.819
136.725
53.3751
48.4526
55.9655
53.4237
116.864
128.167
123.091
48.356
47.9918
51.3203
49.4761
108.531
118.644
116.457
46.9104
44.6267
47.3029
45.8483
101.993
112.172
108.4
43.4798
42.8201
44.8334
43.3057
95.0373
103.871
99.465
42.086
40.3273
42.0226
40.5171
82.7298
95.9134
85.0029
39.8298
35.1556
39.6408
34.4347
176.401
191.001
174.984
108.08
92.2948
104.937
85.555
137.345
264.42
287.915
156.234
134.778
157.198
259.725
91.6725
237.29
223.493
95.0279
90.6678
97.457
225.676
85.1563
231.322
229.278
86.9537
84.4761
85.8998
226.962
73.8307
188.432
193.456
73.5752
68.8201
79.5125
186.794
63.5204
181.35
175.991
62.3576
61.0404
64.8521
175.347
62.4957
180.157
177.431
61.8309
61.88
62.2861
176.943
61.5055
168.7
172.551
62.4267
61.5872
62.0445
170.361
57.5679
155.216
161.04
60.0883
58.9092
58.6738
157.484
82.9971
97.289
84.9094
36.1961
33.0648
35.3635
32.3343
179.077
196.173
179.432
108.312
87.2678
110.073
89.5445
129.6
242.265
278.848
156.558
132.709
154.645
244.973
89.6558
236.672
239.788
92.3563
88.0216
93.0376
247.604
85.0297
235.234
255.516
82.8843
81.4652
85.8842
255.565
85.2734
220.025
254.279
78.1718
78.1916
84.4643
250.017
86.9399
178.28
210.239
79.1532
78.21
88.0364
194.712
62.0393
161.408
162.641
63.3228
60.2657
67.0759
158.185
55.9752
159.667
154.001
57.6591
57.4842
56.4551
153.495
54.922
153.621
150.584
56.8023
56.2946
55.2308
148.9
84.7909
88.8144
79.6694
35.2998
31.6509
33.3651
28.8041
174.911
184.996
165.24
109.736
91.4654
113.215
98.5109
138.651
263.453
291.784
156.343
135.328
158.528
262.754
101.885
282.324
263.32
101.448
99.3266
104.725
278.46
103.129
311.485
306.377
100.727
101.381
102.584
309.223
104.993
302.875
304.59
103.428
104.115
104.698
296.382
104.765
211.558
233.222
104.942
101.544
108.172
210.312
65.6869
157.575
166.358
70.5261
64.4417
71.8177
157.077
54.6575
137.959
143.094
56.8732
55.1283
56.4654
140.072
50.1004
132.244
132.552
51.1155
49.8663
51.5451
131.173
75.8789
85.8778
77.321
31.4227
26.8476
30.8662
26.3737
161.136
209.691
183.392
125.045
108.401
127.475
114.122
147.756
244.155
268.727
152.485
140.863
156.243
245.839
101.759
219.446
207.141
108.784
101.973
109.951
207.5
95.6912
246.712
215.173
96.4443
96.8227
95.0783
214.214
91.2744
219.225
199.196
100.582
100.135
94.3759
198.555
79.1572
189.744
194.524
93.0384
86.806
83.1913
191.11
63.1148
156.456
164.889
68.7921
64.2897
67.8698
156.018
49.3947
144.898
140.285
51.8982
50.4739
50.9043
138.514
48.3915
135.882
134.072
49.162
49.0639
48.1473
132.874
79.4971
86.7312
81.8737
31.1475
26.6027
31.4446
26.8022
159.943
199.156
157.665
118.871
102.788
116.39
95.78
124
133.769
127.908
83.3983
71.6337
74.8135
64.524
126.582
125.828
123.528
65.1584
62.0547
60.0334
57.0808
125.408
122.84
118.756
59.255
54.0301
53.3845
49.2228
105.197
110.411
100.268
48.7825
44.5555
45.513
41.0216
87.8689
93.233
88.6053
40.2595