/*--------------------------------*- C++ -*----------------------------------*\
  =========                 |
  \\      /  F ield         | OpenFOAM: The Open Source CFD Toolbox
   \\    /   O peration     | Website:  https://openfoam.org
    \\  /    A nd           | Version:  10
     \\/     M anipulation  |
\*---------------------------------------------------------------------------*/
FoamFile
{
    format      ascii;
    class       surfaceScalarField;
    location    "9.2";
    object      phi_0;
}
// * * * * * * * * * * * * * * * * * * * * * * * * * * * * * * * * * * * * * //

dimensions      [0 3 -1 0 0 0 0];

internalField   nonuniform List<scalar> 
38556
(
1110.4
-824.03
-269.303
1693.02
-506.494
-76.1326
1828.05
-399.775
264.75
1963.93
-494.431
358.55
1789.33
-237.186
411.786
1680.85
-166.774
275.249
1544.66
-57.918
194.111
1508.2
-80.3699
116.831
1498.11
-69.3386
79.4304
1524.01
-75.276
49.3766
1544.15
-61.2467
41.1071
1556.63
-47.152
34.6698
1528.88
-21.7732
49.5192
1480.13
-12.3648
61.1227
1443.58
-27.2563
63.8051
1455.77
-54.3778
42.1892
1511.17
-64.7833
9.38183
1600.46
-69.2085
-20.0831
1640.36
-25.2535
-14.6487
14.4099
-2.65542
1425.71
-1253.07
-809.176
940.519
-201.584
180.286
622.171
-233.743
152.316
611.918
-353.811
-130.368
660.134
-311.164
25.7624
782.575
-266.63
-22.5843
881.019
-184.05
27.6871
962.112
-143.947
-17.5156
1009.27
-97.605
-18.8957
1040.57
-69.9557
-36.6166
1053
-44.6549
-29.0218
1061.43
-26.9708
-28.609
1066.46
-14.7433
-12.0595
1072.62
-7.80786
-10.7168
1072.68
-12.3989
-14.9242
1070.83
-17.8864
-34.6354
1074.31
-21.2875
-46.978
1095.85
-23.9807
-66.7689
1130.96
6.6112
-66.9685
43.8006
-42.6101
1803.91
-2846.81
-318.436
1820.01
93.4266
-311.117
1336.28
102.624
147.369
1206.17
-220.336
-3.36615
1021.27
-167.285
41.0189
994.134
-197.264
-42.2319
961.382
-121.648
-29.6498
971.153
-90.3193
-63.3991
970.678
-50.1523
-46.9779
978.06
-20.8413
-56.4957
973.181
0.348441
-40.1244
964.525
23.1666
-41.482
944.6
30.4351
-25.253
921.969
36.3144
-21.4918
889.668
29.1432
-9.24095
865.809
19.0382
-13.0659
858.202
8.75835
-22.4383
862.431
-3.50249
-24.7076
884.746
7.58468
-23.2884
31.0949
-1.47087
571.011
-2687.9
-2655.16
-38.252
-162.123
864.813
502.713
-237.509
-200.832
509.71
-254.986
27.652
570.128
-242.825
15.1223
597.097
-211.743
-12.4903
663.757
-199.972
11.6647
695.212
-106.279
-15.4954
733.199
-84.8652
-3.27399
748.131
-23.519
-12.2546
758.379
-8.32627
-1.57298
759.725
30.2643
-8.44456
757.072
34.0612
-0.972284
752.566
42.3269
-1.50682
745.718
35.7294
0.261865
739.437
27.7798
-2.46033
738.057
10.7275
-0.589952
741.304
-4.93823
-1.81093
752.25
-1.3462
-2.01508
15.7499
9.43592
149.734
-1625.77
-1930.92
590.142
-229.239
-373.292
935.956
-138.905
-444.418
883.273
-166.139
-36.1639
771.473
-142.993
11.9677
698.91
-129.737
-9.44288
703.977
-215.994
10.9558
707.138
-100.228
-9.21189
731.538
-117.943
8.6779
749.949
-38.9606
-2.96843
765.33
-34.1046
10.3964
770.976
22.6855
1.93285
768.77
31.0353
5.23258
765.758
44.7603
0.578362
760.527
36.6896
4.2703
755.353
31.7593
1.19504
750.085
12.1758
3.81964
746.381
-5.11044
3.87546
744.166
-3.83384
4.70341
10.0139
10.9462
-520.769
1015.77
-1983.42
252.587
-147.607
-854.988
662.15
-39.0509
-509.417
707.76
-196.049
-15.7008
628.358
-148.447
84.8567
565.613
-77.1507
10.1586
625.882
-300.125
23.8605
601.852
-61.6933
-14.5047
642.163
-160.577
2.32224
669.905
-55.7862
-10.9166
710.589
-69.8712
-4.91756
741.918
-1.56591
-7.07767
767.574
8.61461
-3.23508
777.182
39.6042
-4.4522
781.103
33.7839
-1.01471
777.171
32.1982
3.49253
761.558
16.1713
11.6172
743.947
2.69714
9.80378
728.774
4.72057
6.61884
14.2502
9.01689
660.586
565.913
527.912
603.754
-560.65
469.874
820.987
-225.79
-30.494
696.524
-242.414
170.828
757.342
-225.653
16.3885
613.133
70.3721
-3.31463
556.828
-21.8398
-24.8877
-86.7072
-25.9537
-84.4308
490.166
-6.13119
-36.7132
26.504
-2.45323
23.7621
519.335
-9.55812
-40.1048
-63.7003
-15.6359
-60.7459
563.302
-25.4421
-17.8223
-20.6619
-20.6741
-15.1526
617.899
-18.955
-17.1052
-38.8892
-15.1667
-34.3522
658.955
-11.3175
-9.98224
-10.0817
-6.16599
-5.07483
694.034
0.687955
-10.9437
-10.053
2.24133
-8.39665
708.857
6.58501
-2.82418
6.19797
8.07396
6.7481
713.381
27.1069
2.15369
710.345
28.7448
6.48923
697.924
16.5865
12.0058
686.212
7.83788
6.57107
680.528
5.61187
4.79316
11.6409
9.40983
890.441
-1349.74
-539.188
561.189
-759.52
528.122
735.548
-355.912
-44.2369
691.746
-264.616
66.0039
720.534
-273.311
18.8696
159.19
16.8732
-3.16644
166.447
152.234
160.385
60.3042
18.4843
60.155
133.088
-0.303814
4.56647
-84.5979
98.5693
-14.4561
-5.64648
-119.926
123.65
-10.5923
-2.68952
-115.542
131.894
-40.1672
-1.62646
-147.688
158.957
-29.4709
-0.75377
-158.083
168.913
-22.7117
0.564334
-173.227
178.123
-3.10353
-1.10405
-175.896
180.21
3.53541
-1.26431
695.122
11.8034
1.06018
-178
-183.952
-167.435
-171.376
4.67557
10.8687
4.33957
679.36
30.9562
13.551
654.636
27.4263
13.8841
639.706
15.7052
7.06233
634.836
7.82382
2.6578
10.3131
7.23379
642.471
1170.75
306.311
568.425
-96.3251
-589.148
792.947
-318.787
-261.647
770.723
-173.929
-68.4643
172.391
-188.779
-17.3361
171.134
180.433
179.569
199.643
-6.75567
-3.62397
-6.39345
-54.4455
52.6427
8.87732
-0.681087
-45.5747
2.99459
47.7366
-3.78494
-1.37158
-49.9206
2.53642
50.8549
-2.94485
-0.525845
-45.4485
7.99218
45.352
-7.99602
0.100384
-43.1517
7.81784
44.7352
-9.4365
0.0351408
-44.8963
5.05487
46.6439
-6.42063
-0.381839
-46.4047
0.359652
47.6661
-1.44555
-0.175432
-46.7026
-1.55697
47.4973
1.08493
-0.322717
-47.2581
190.089
9.62485
-0.222041
-47.8967
-46.0672
-46.4668
708.841
44.2696
8.68446
-184.43
-190.793
-174.732
-180.883
673.138
46.2828
16.8459
643.227
35.8212
9.79538
627.162
17.6013
6.28755
11.6451
9.79012
1253.71
1139.64
-52.8075
1311.31
19.3267
-173.251
933.838
-223.825
282.514
898.446
-87.6785
-50.8581
174.245
-109.416
73.781
185.534
188.437
197.086
-1.01557
183.427
5.59706
-13.7637
-4.46974
-48.2977
48.6407
3.86268
0.264133
1.2078
-47.6598
46.9249
0.404029
-0.876854
0.132868
-45.3173
45.1678
1.01746
-1.00085
5.26875
-45.6611
46.5211
-4.71841
-1.41032
12.1755
-48.5619
48.8472
-13.0067
0.545935
7.98602
-47.929
47.9354
-8.32656
0.334222
2.13641
-48.8887
49.5376
-2.57704
-0.208294
-1.75938
-50.7271
51.1436
1.41589
-0.0729667
-51.7751
-8.00897
204.365
8.65707
-0.551107
-52.0501
-50.0651
-50.5718
757.464
63.9219
2.7081
-200.343
-199.864
-188.975
-190.642
711.385
75.8259
16.5362
670.233
64.4079
12.5651
646.226
33.4443
8.16393
17.3062
9.7393
795.171
250.042
3244.32
855.289
46.7073
-87.4981
1011.97
-228.273
-152.237
1140.77
-166.601
-49.8748
235.536
-212.768
223.782
250.573
263.313
270.918
-8.72581
234.89
0.288406
9.08392
-5.28591
-58.4706
59.0087
6.4493
-1.70152
-6.91045
-59.4078
59.6773
8.9503
-2.30935
-5.6959
-61.9706
63.8909
7.07989
-3.30426
1.18435
-70.4463
72.4651
0.179945
-3.38311
11.3012
-69.0231
64.3816
-8.51379
1.85411
7.11609
-52.962
51.3259
-6.43144
0.951416
4.17894
-49.9432
50.2234
-5.0962
0.637105
-0.291045
-50.449
50.3988
0.230517
0.110726
-50.1123
-9.55977
199.38
10.1351
-2.47075
-49.1025
-49.6424
-48.6272
755.793
71.9349
0.843527
-196.01
-192.172
-189.888
-186.58
718.208
100.455
12.9564
682.156
96.3228
4.13728
657.019
66.3173
-7.73621
31.3955
1.74365
288.067
36.0092
875.031
917.171
309.302
-891.698
1150.5
-174.183
-287.416
1312.22
-224.826
-103.499
221.506
-278.488
341.671
256.417
271.553
286.793
19.8271
211.008
-58.1629
48.8337
0.444026
-57.5031
60.3695
-6.16091
2.85048
-8.66666
-71.552
72.9997
7.59157
-0.372618
-7.90476
-75.1077
75.8522
7.46828
-0.308004
-1.08934
-75.2138
73.4144
1.08495
1.80381
-0.529931
-60.402
56.8443
2.4845
1.60312
3.15735
-49.8059
47.9267
-2.15487
0.876751
4.89967
-42.359
42.0441
-4.19558
-0.389248
0.111792
-43.6454
44.6654
-0.854205
-0.277639
-45.7225
-9.31462
185.558
4.06882
-0.667737
-44.8392
-45.0542
-44.0284
746.263
43.5604
-0.230906
-187.818
-175.896
-181.837
-172.107
742.059
98.9371
5.72178
733.768
112.993
-8.37978
716.19
99.8994
-16.0045
61.8346
-9.90726
709.228
542.497
-433.105
1122.63
305.756
-409.86
1452.78
106.779
-611.107
1671.99
-132.722
-311.315
1522.57
-115.342
-13.7261
343.986
-254.107
47.4531
92.1716
102.247
92.7986
95.5735
333.937
338.581
329.931
21.0718
310.184
-52.9879
11.4445
16.8166
20.8687
16.5885
2.05782
-258.801
234.114
0.860554
19.8528
-1.89127
4.16658
-0.359643
-5.6597
-236.075
228.051
22.9049
6.89839
-5.75209
-5.08466
-5.2822
-5.55829
-207.918
190.318
33.1204
6.62856
-5.80295
-5.29688
-5.49131
-3.86081
-185.641
178.182
21.8958
1.89506
-4.55654
-3.67071
-4.24397
-0.582652
-167.542
155.494
12.5874
2.12167
-1.11516
-0.152748
-0.810821
3.76506
-153.176
149.651
-5.40706
-1.00862
1.35443
3.5616
1.25935
3.85504
-146.528
147.346
-9.24994
-1.13722
1.27032
3.4339
1.01023
642.737
-30.2832
-13.8626
5.00117
-5.03593
1.42774
-9.70738
-151.212
-147.129
-147.803
-144.134
710.467
-17.4109
-6.7587
768.328
46.7864
-5.70975
816.39
77.1546
-12.2233
828.711
90.1674
-2.58909
74.7379
1.22966
1255.46
216.65
5095.55
1029.23
260.441
271.544
681.304
141.81
312.896
663.329
-87.5933
-27.1544
678.352
-119.377
-10.9888
638.604
-159.493
-54.8656
642.98
91.535
-29.6351
10.5306
-47.572
18.3768
-47.612
643.815
48.302
5.3624
-16.2521
-7.95984
-19.4229
-10.8639
643.699
157.899
13.5742
-27.747
-57.8064
-28.6567
-57.1474
635.615
113.225
5.59729
-31.0809
-26.5367
-29.2979
-23.8233
634.38
127.517
-12.2576
-22.53
-35.7012
-21.9699
-33.8234
631.495
63.4115
-23.1521
-12.3091
-8.00588
-10.2368
-6.8228
626.041
42.3042
-23.4155
2.9685
-8.8666
1.95429
-9.49085
621.692
-15.4073
-14.2469
12.8576
6.52245
11.667
2.95635
624.876
-31.7005
-1.76701
652.182
-43.4463
-1.27048
707.459
-2.55192
-5.93825
763.732
28.5831
-7.70154
778.783
67.308
7.8083
66.3123
17.3479
228.411
-1180.11
1593.76
607.442
-228.13
109.539
831.354
-29.6562
-52.4455
899.196
-153.567
-1.86866
856.444
-96.7575
20.1324
796.766
-85.0128
-14.8018
781.408
72.1279
34.7659
752.749
80.3748
-3.41378
746.919
159.517
4.21223
752.34
131.539
-23.7357
772.384
140.088
-32.6152
795.996
87.1735
-47.3742
812.92
61.6428
-36.2625
785.643
23.4739
-11.6039
713.896
18.6775
21.3685
652.38
-2.78146
20.8512
632.478
16.2536
1.09687
637.202
27.112
-3.25292
647.375
57.9486
-0.813897
60.7122
4.95888
-238.036
-1869.82
1320.3
194.282
-368.454
-291.993
786.983
-332.044
-290.314
937.936
-264.563
-39.9569
1031.67
-144.113
-46.3765
1047.48
-69.2983
-31.5292
933.833
114.912
70.8659
865.628
129.113
19.4659
808.622
194.145
22.3784
809.243
153.66
-22.7413
818.39
148.319
-17.3783
832.13
98.0237
-24.5892
832.081
70.5008
-8.8095
813.953
39.9299
1.67201
763.537
41.0662
28.0277
704.154
28.8188
27.7822
665.85
33.3185
21.2395
651.176
34.3979
7.38786
656.219
47.7713
5.13402
48.8848
7.73011
-470.993
-1823.54
-2194.71
-158.085
-329.886
-351.476
597.027
-639.583
-447.573
754.85
-303.968
-118.418
872.45
-186.413
-75.2996
930.685
-89.77
-37.7639
908.262
106.634
30.7003
884.787
138.852
13.7368
857.226
204.206
17.5002
850.523
165.214
-4.85207
845.352
150.975
2.5158
838.838
103.966
0.571413
820.598
74.7313
14.0093
794.724
46.0383
19.7654
770.848
38.6901
26.2527
752.052
27.5309
20.0837
739.732
26.3701
19.2679
734.028
24.3957
15.7062
737.801
28.532
15.4664
29.7301
15.9386
-360.911
-803.588
860.776
-34.3885
-499.124
-157.285
390.888
-605.312
-459.547
437.86
-275.33
-75.6093
582.417
-222.102
-108.869
639.425
-76.1851
-70.5925
718.517
37.8872
-10.3457
769.837
95.8392
-8.30677
802.156
141.557
30.3301
824.076
125.766
17.5286
831.118
112.201
31.7309
831.497
79.3303
24.2566
821.165
58.4038
26.6598
809.467
36.991
20.745
799.185
26.5579
22.4139
792.684
16.6383
17.3936
790.573
11.833
16.6486
792.766
8.95498
13.2472
798.555
6.85529
15.8883
7.64519
19.2051
-456.036
-445.866
1451.27
-105.873
-452.837
-396.45
509.624
-417.408
-803.402
636.679
-104.473
-297.912
680.115
-111.456
-154.083
691.286
-54.7492
-32.6069
738.698
-46.9169
37.3918
785.121
27.3979
22.0184
821.955
75.9994
28.7237
847.14
87.73
12.8513
859.858
81.1003
18.383
867.348
59.5726
12.2671
869.479
38.2623
18.0107
871.144
17.9101
17.4167
870.588
6.50082
20.6127
869.502
1.29011
16.4343
866.538
1.17952
13.6177
863.525
5.25808
6.71009
855.804
10.3136
4.26287
13.0452
1.33932
990.335
2265.84
591.919
-54.4213
1054.43
-879.917
1346.48
-396.522
1307.23
-72.213
1216.95
35.5378
1027.96
142.067
964.818
90.5426
949.558
91.2596
982.923
54.3648
1019.94
44.0831
1060.98
18.5304
1087.74
11.5022
1103.56
2.09743
1105.69
4.36183
1101.43
5.5519
1091.82
10.791
1084.04
13.0349
1078.49
15.8683
15.3074
1733.96
341.05
-1232.03
1629.78
44.1104
-16.0714
1554.89
-215.248
554.896
1685.71
-319.013
546.736
1572.8
-103.44
628.142
1534.64
-77.3613
390.766
1458.67
-3.79649
273.884
1455.75
-21.968
141.715
1452.86
-5.12601
87.4447
1468.37
-7.77614
41.6454
1465.25
5.53387
38.6922
1454
10.8444
35.0729
1417.27
22.2751
63.975
1387.05
21.056
70.2891
1370.4
12.7742
67.6784
1371.91
2.35419
38.3252
1381.2
0.911432
-0.818781
1388.8
4.23933
-31.9153
1358.29
27.8912
-12.0321
39.1415
-3.62669
709.394
835.634
-2559.75
428.773
396.833
108.184
482.057
-168.748
52.532
454.978
-235.794
-186.507
574.264
-167.599
-29.3655
687.47
-134.099
-79.0523
790.422
-60.6196
-18.4409
859.055
-36.373
-71.7441
900.048
-1.58748
-63.4266
923.812
11.9413
-80.0982
933.385
23.8242
-56.885
937.483
26.7589
-48.6221
937.271
29.4194
-18.991
936.787
27.5118
-16.6894
933.335
21.7795
-20.4771
930.68
13.6026
-43.2295
930.074
10.5696
-56.0297
934.284
8.19626
-74.936
933.509
30.4085
-68.7108
40.8253
-33.7841
2559.43
-42.5429
-292.421
2040.75
423.398
180.994
1289.86
137.274
592.243
1057.99
-99.116
91.8204
875.829
-38.1822
93.768
837.599
-78.9545
-59.147
807.4
-23.1969
-36.8732
802.962
-9.14708
-86.1862
795.282
12.3606
-53.2465
789.191
29.3954
-67.8582
779.51
33.8641
-40.4834
767.983
40.3718
-43.5685
754.993
40.654
-23.4978
744.392
39.5214
-22.9003
737.097
31.1986
-11.3645
733.008
20.7729
-16.1481
731.857
12.5684
-23.2853
735.579
6.39217
-26.6257
745.718
18.673
-21.6918
31.314
4.40701
-603.212
-887.134
586.688
-40.8516
-29.2662
755.118
346.821
-135.063
-316.168
333.4
-122.246
64.2026
433.348
-117.867
-5.13991
460.285
-101.89
-16.4913
550.457
-105.309
3.60396
572.964
-25.6505
-21.4985
614.668
-25.5313
-7.08597
621.982
27.8914
-18.0654
631.651
25.9931
-3.37021
630.691
45.1403
-12.2536
631.306
39.8883
-0.82118
629.987
42.5254
-3.19199
630.112
31.2685
0.0663038
629.809
22.1826
-3.56695
632.508
10.9728
-1.69301
637.248
3.99045
-4.14932
646.717
9.81043
-2.62164
22.5922
14.933
523.629
-1628.93
-171.602
748.421
-214.222
-413.128
695.328
-42.3434
-484.045
658.377
-86.2074
-35.2511
617.106
-55.5304
-9.09872
559.985
-47.5813
-6.63031
593.064
-139.767
12.3347
583.691
-15.9131
-9.57554
607.464
-50.4211
9.79422
610.713
26.2979
-4.62411
621.555
13.9075
11.64
620.832
48.5325
-0.73658
620.529
40.1507
5.2733
618.799
45.9696
-1.13574
618.094
31.7994
4.4444
616.828
23.4688
1.17524
617.721
8.95163
4.94712
619.075
2.74254
3.76944
622.881
6.47315
4.23543
17.8296
16.9339
371.821
-63.1687
-256.276
302.058
-267.534
-731.912
392.448
36.5813
-678.731
415.56
-127.328
2.30806
451.649
-73.427
66.6636
402.819
-6.66326
18.0707
507.318
-237.952
17.5472
476.423
18.1374
-17.6603
527.278
-99.7117
0.757677
542.382
14.0502
-13.773
576.92
-20.4635
-5.08406
590.891
37.2383
-9.75421
605.029
26.4815
-3.70443
610.515
40.5892
-4.55809
613.483
27.7641
0.053108
612.888
23.5163
4.03978
611.822
10.0483
11.5869
609.074
6.62849
8.66513
606.214
9.24887
6.70309
17.6249
15.6961
68.7161
727.137
121.975
359.701
-326.312
237.667
597.41
-0.594376
-231.028
583.882
-119.739
176.767
635.419
-114.164
5.58894
478.296
145.389
1.75551
439.431
-21.8512
-25.8913
-76.7362
-24.8078
-74.6883
383.265
6.83484
-34.524
27.771
9.72281
27.786
419.62
-14.7946
-40.5603
-53.4621
-16.525
-50.8301
457.186
-12.296
-13.4649
-5.65386
-8.50901
-1.41354
506.948
-9.15068
-18.1373
-27.5184
-7.42464
-25.0998
536.914
-0.639861
-9.14116
1.87753
0.755701
4.4372
564.287
3.72031
-8.25806
-5.93012
4.08187
-5.44865
573.134
8.89386
-2.56425
6.55733
9.09905
6.9319
578.394
21.2151
3.44225
579
22.5304
6.86943
577.308
11.3144
12.4317
575.418
8.60051
6.48936
576.619
8.13146
4.70899
13.8293
16.3087
-176.193
-459.547
-1966.56
188.612
-494.448
331.454
577.492
-43.7673
-389.944
571.836
-104.489
56.4098
606.316
-135.888
6.11445
126.284
40.6676
8.15236
135.111
117.685
125.931
71.993
47.3251
75.3899
-7.30294
108.844
-1.80897
4.69997
9.80453
-73.5125
87.4734
-7.72594
-9.2046
4.99442
-102.196
104.278
-16.5417
-5.32923
3.90631
-97.1296
112.181
-27.8555
-3.39807
2.06141
-124.815
132.357
-17.9036
-0.851314
0.612294
-132.049
140.58
-10.3019
0.518828
2.57597
-145.233
147.658
1.26617
-2.54667
2.25617
-145.735
148.763
5.51456
-1.90442
572.432
10.4039
3.76108
-147.223
-152.562
-138.515
-143.316
3.64952
9.93766
3.70793
568.188
25.5936
14.731
558.684
19.9911
14.7113
553.628
13.4715
7.24783
553.651
7.71112
3.05481
9.55725
14.9474
1736.46
-865.877
-3575.68
456.756
-252.479
448.584
695.994
-152.647
-392.005
567.883
-53.4545
8.61161
144.901
-107.136
-41.4563
146.401
134.524
137.424
4.1114
170.35
17.8606
-6.75372
-0.598667
-6.40086
-46.3547
44.2727
8.73156
0.349967
1.70262
-37.0297
2.52485
38.0821
-3.73154
-1.54833
1.27678
-38.7643
3.92946
39.1969
-4.19004
-1.44875
0.349922
-35.5375
7.04007
36.5506
-8.03666
-0.366418
0.372517
-36.7784
5.76718
38.4452
-7.50706
-0.299428
1.06547
-38.2881
2.88166
39.6765
-4.37345
-0.962092
0.813478
-39.635
-0.147968
40.575
-0.720156
-0.8854
0.846939
-39.8317
-1.43298
40.4792
0.772617
-0.834092
-40.1043
0.706216
160.447
9.17461
-0.246354
-40.7807
-39.0622
-39.7303
591.623
42.1312
15.2492
-154.622
-162.348
-145.577
-152.179
573.004
34.5533
20.9025
559.565
25.118
11.5884
553.918
11.968
7.67697
8.12635
17.381
371.928
-1010.31
-1185.92
586.135
-122.98
-516.957
605.372
-140.564
251.194
584.053
9.31196
-92.3056
145.188
-90.5537
61.6082
155.672
133.76
145.023
17.7527
-11.7702
161.318
0.0162426
-22.1284
1.11045
-6.3555
-45.0706
47.3127
4.53072
-1.52768
1.29433
0.237905
-47.6397
46.6757
0.81043
-1.37869
2.83845
1.41094
-44.0103
43.512
-0.547887
-3.2032
2.89884
6.27633
-42.2362
41.9728
-5.98918
-2.92262
-1.25516
9.45638
-41.7858
42.1524
-9.88869
1.32085
-0.619394
5.88022
-43.0792
43.4342
-6.23463
0.618799
0.322659
1.44611
-44.0531
44.3548
-1.77857
-0.291898
0.285237
-0.832263
-44.4783
44.5495
0.788839
-0.313041
-44.1539
0.743471
-8.74678
173.947
9.92378
-0.384874
-44.7748
-42.9855
-43.5683
632.605
66.1771
10.2685
-169.9
-173.016
-159.325
-161.972
601.184
62.0238
20.4871
580.705
44.9595
13.2025
570.755
21.2255
8.85686
10.2568
16.7881
311.289
-217.412
1390
555.109
102.753
-557.051
642.861
-141.442
-239.111
732.636
-52.0349
-78.3026
204.989
-141.203
200.466
213.674
190.012
197.927
-18.0395
7.5512
220.376
-17.5697
12.6708
-0.0875844
1.20901
-55.242
56.033
-2.42582
0.513363
3.77495
-2.26036
-55.9369
55.8621
2.21637
-3.65613
7.18699
-0.563015
-56.3439
56.7363
0.504118
-7.52049
5.55667
5.7179
-56.9983
56.2377
-5.48676
-5.02723
-4.38629
9.67977
-51.8514
50.1542
-8.17109
4.57477
-2.39745
6.13788
-46.6322
46.1772
-5.64172
2.35623
-0.741738
2.21226
-46.1716
46.348
-2.17629
0.529329
0.41796
-1.14145
-46.5441
46.5186
1.45166
-0.702662
-46.0102
3.92905
-11.5089
180.618
12.6211
-5.01215
-45.2559
-44.9883
-44.3927
654.726
79.8104
10.1166
-175.505
-172.88
-165.077
-164.17
623.606
87.0742
19.0262
599.562
71.2851
1.85505
583.019
36.8411
-6.80798
14.3284
9.67866
1370.81
314.763
2740.82
940.875
277.37
-636.376
792.511
-94.6476
-185.847
818.078
-79.6965
-101.404
197.685
-120.793
370.944
205.526
178.084
187.099
-80.5164
30.9598
221.213
-50.9381
76.9671
-14.5093
6.32444
-60.7768
63.762
-10.0838
15.2834
-4.34852
-0.299369
-67.3635
66.8952
-0.0925198
5.20874
-0.661285
-0.278807
-64.2221
63.6282
0.614991
0.919007
-3.58083
3.15922
-59.5066
57.4358
-1.42042
3.91276
-4.70878
1.84406
-49.0222
47.0155
-0.291153
5.16257
-2.00884
3.17303
-41.9155
41.0705
-2.31576
1.9966
1.03469
1.97699
-39.325
39.4245
-1.9115
-1.19968
0.787231
-1.19915
-39.9383
40.6945
0.530108
-0.874401
-41.8336
2.30446
-11.9721
168.592
9.01349
-3.91515
-40.873
-41.1429
-40.1732
658.743
63.1736
0.942691
-169.081
-159.841
-161.087
-153.271
659.706
85.9948
5.8384
653.492
79.9746
-10.8548
632.161
55.9365
-13.7692
27.8236
-0.206471
1238.5
290.348
2377.5
1042.17
198.36
-134.522
1147.75
122.836
-934.174
1215.81
35.1272
-494.198
1112.63
60.6482
-91.9863
263.681
-129.124
11.8687
65.5827
74.8371
59.6269
68.4219
256.143
247.81
241.236
15.2237
-32.2968
246.124
-26.9062
25.9845
11.2057
14.39
9.95621
1.33272
-32.1974
-211.474
194.236
17.7346
31.5648
-0.953105
0.727368
-0.971078
-3.86424
-12.2709
-196.416
186.42
24.2743
14.2277
-4.44877
-3.67926
-4.24296
-4.35229
-12.2092
-168.093
154.196
27.8845
14.9899
-4.24739
-4.16512
-4.00336
-2.5469
-3.85844
-153.4
145.924
16.7765
4.96356
-2.80922
-2.41438
-2.6349
0.411228
-1.93336
-138.742
131.613
7.79323
1.1103
-0.328764
0.384963
-0.307991
2.39326
2.42132
-133.726
132.128
-3.14205
-3.3225
0.636684
2.12688
0.484036
1.73355
2.40482
-132.467
135.081
-5.03558
-3.34716
0.145587
1.44081
0.0439732
583.348
-10.3377
-12.8664
-3.6543
-14.2439
-5.10381
-14.9832
-139.712
-133.493
-134.877
-127.939
636.979
9.48121
-6.69765
674.819
48.8086
-6.36393
699.535
53.0379
-10.0021
694.443
57.2132
1.22615
41.5617
7.10825
613.291
45.1365
1894.21
397.451
210.907
474.837
586.42
121.026
125.735
522.436
59.1729
12.7841
582.559
27.7198
-38.1829
499.328
-42.4272
-58.3317
509.076
163.557
-30.6572
-15.8561
-63.213
-23.6167
-69.5976
503.943
75.6227
9.94495
-24.6348
-12.6204
-25.741
-12.0755
517.831
156.488
11.7162
-29.2359
-55.3316
-29.6636
-54.2874
516.595
81.6748
10.4774
-26.4172
-18.2068
-24.8602
-15.8343
520.708
90.1341
-12.956
-18.194
-29.5126
-17.4442
-28.3981
515.096
26.2278
-28.6779
-5.75898
-2.63427
-4.61786
-2.07859
511.377
12.2443
-23.855
3.93265
-7.47195
3.30349
-7.84994
514.352
-31.8492
-11.0062
11.4357
2.18742
10.4381
1.57292
532.26
-29.7051
-0.307508
571.77
-28.334
-2.96575
612.014
7.15776
-4.53175
640.758
20.5565
-3.96312
646.599
45.4809
13.6995
41.3914
25.9749
242.484
-876.992
-258.299
609.355
74.6725
-121.096
686.952
156.222
-165.238
695.392
81.8517
-32.9876
654.06
79.8284
9.35591
598.027
32.2785
-33.4747
625.602
128.848
41.9005
603.986
90.5893
3.23527
608.151
149.562
6.97343
606.912
86.5446
-27.3668
614.382
84.4965
-34.447
612.109
29.8041
-48.678
605.443
16.6848
-34.0371
587.626
-17.436
-8.20018
566.908
-9.25105
21.6332
552.436
-13.026
20.0144
551.717
3.7842
5.18996
559.129
11.9618
-2.07002
569.209
33.127
1.45945
31.9685
13.4769
-77.9831
-540.817
2878.93
314.106
-61.8149
-547.595
646.593
-44.4909
-422.089
738.781
9.72861
-60.0218
744.623
103.551
-75.9414
713.133
81.6385
-49.3997
656.267
175.405
81.1755
637.393
116.835
12.094
627.406
153.216
28.7121
635.522
82.0255
-26.3382
642.617
73.2056
-13.1824
645.082
27.5324
-24.7831
639.136
19.902
-6.08017
627.632
-4.71494
0.455231
613.144
8.12118
25.1431
596.784
4.75912
26.3573
585.931
12.0422
23.8349
582.787
13.0707
9.42251
591.535
21.3035
8.20971
19.8462
15.4185
-440.041
-208.225
-2071.9
22.1254
-192.485
-682.972
500.684
-483.05
-487.572
634.072
-105.559
-136.519
696.825
20.9949
-55.496
710.958
61.2019
-31.4605
696.608
173.133
47.3228
688.023
126.077
13.08
685.51
152.044
21.1844
683.289
88.1827
-8.78884
682.521
74.938
1.55182
674.788
33.8411
1.99583
665.44
25.5052
17.7536
653.407
10.833
16.2512
647.889
13.0019
26.8894
643.997
8.63576
20.0997
643.659
9.73143
21.9164
646.968
9.38553
16.0822
654.797
11.0604
17.8806
10.7457
22.1899
-895.917
59.143
457.704
-213.532
-480.689
-551.466
171.857
-691.574
-636.412
292.934
-205.274
-96.9715
444.694
-104.196
-135.438
485.658
6.6855
-57.0398
568.286
76.9881
3.17124
609.482
82.5955
-6.02105
654.152
98.9079
38.7959
677.861
67.9429
14.0604
693.092
57.786
33.6513
697.048
32.6415
21.5007
695.712
24.8231
28.6779
691.949
14.1573
21.1832
690.802
11.8549
24.7082
690.685
7.91581
18.2304
692.75
6.57127
17.7438
697.276
5.41669
12.6908
704.649
3.43096
16.1438
3.75104
23.6268
1418.02
161.319
-407.414
893.411
-225.987
-126.539
516.3
-709.13
-408.735
518.181
-279.698
-225.369
532.557
-155.829
-116.827
562.941
-41.4638
-14.8414
632.921
-16.6815
61.0812
678.372
21.4721
37.6911
718.348
39.1221
48.5339
741.206
39.2834
18.6522
756.142
35.5269
25.7066
763.477
26.4195
11.1534
767.093
19.6686
19.5497
768.599
14.8715
15.1963
769.204
12.2217
19.6406
769.417
10.9073
13.2304
768.954
10.0023
10.6499
768.946
10.5314
1.60313
765.949
8.93107
1.75971
7.46944
2.61196
2513.49
3396.99
2090.29
142.792
1333.55
-832.313
1065.3
-407.963
932.921
-95.6651
910.41
16.5852
865.709
170.086
880.225
97.4992
898.394
112.212
933.995
58.0474
961.118
52.4864
983.896
22.1723
995.451
19.616
1003.25
9.16617
1006.37
13.4637
1010.09
12.7446
1013.59
17.2938
1019.84
17.3158
1025.6
19.0395
19.8305
3773.71
-433.482
1650.6
2616.44
-63.9072
1205.11
1588.35
23.1126
1559.88
1466.4
-29.0156
697.699
1363.54
86.3604
644.641
1385.55
30.8712
337.883
1359.31
73.0842
227.047
1363.39
42.0708
95.5628
1335.42
58.4845
56.9261
1310.27
49.5899
17.2087
1262.32
56.2487
30.3959
1220.86
49.9687
26.5594
1182.05
46.6128
56.1741
1162.94
37.4815
51.9194
1154.84
31.9662
43.8104
1145.21
25.6613
22.2926
1122.73
27.5304
-5.87312
1088.53
26.6875
-24.4014
1029.36
45.9335
1.20412
41.6453
1.35081
-127.763
155.488
-605.742
-5.89778
41.0346
-118.623
321.72
-112.997
-138.976
351.496
-108.51
-136.789
531.23
-43.4967
-79.2421
626.149
-31.0568
-112.043
726.736
28.0389
-73.9832
776.202
34.628
-113.767
805.453
49.7895
-83.9822
812.163
48.3139
-85.5323
809.863
49.9886
-48.3252
802.85
46.9452
-38.5856
797.585
45.491
-12.604
794.062
39.9968
-15.6814
789.788
33.3443
-17.5818
784.004
24.3781
-36.162
776.494
22.3119
-43.301
765.895
17.9142
-55.5645
751.094
35.164
-43.14
34.7143
-10.403
732.501
-621.98
1116.76
765.781
-27.5124
216.26
829.613
46.7676
368.645
783.371
-23.8297
53.3831
727.777
33.397
72.4679
701.316
0.738339
-64.4806
686.33
30.3697
-24.218
671.644
35.0582
-71.9309
661.475
44.719
-38.0067
646.304
48.9981
-53.3713
636.212
46.0455
-26.4486
623.254
48.4281
-32.0935
615.772
43.35
-13.8749
609.979
39.6597
-16.7695
609.187
30.161
-7.38939
608.492
20.9304
-12.0059
608.18
14.5676
-15.2293
608.313
10.0295
-18.8732
613.62
22.0585
-13.8935
27.0464
11.8534
-767.726
-1508.41
1388.04
-118.34
-411.798
490.017
196.08
-257.124
-326.697
232.879
-79.8007
83.3749
348.071
-55.4141
-31.5212
361.791
-32.9863
3.51326
453.018
-48.6409
-8.61221
464.184
22.0203
-19.6264
506.714
5.14388
-10.0409
506.497
49.5839
-18.4339
518.162
36.1628
-5.15317
515.014
49.4166
-10.0945
519.376
38.5604
-0.392936
519.473
39.0863
-2.71555
523.167
26.478
0.0546615
524.577
18.9674
-3.01325
528.199
10.7966
-1.54441
531.193
6.95352
-4.06688
539.526
13.7716
-2.66768
21.6203
17.4566
1294.39
-2301.4
-2451.3
1136
-536.307
-130.23
678.228
-81.4521
-201.941
586.481
-49.6828
26.3775
509.329
9.98897
2.65073
455.555
7.61434
6.54262
494.774
-88.1587
12.6339
472.874
37.3484
-3.00313
496.427
-16.9411
8.32522
489.124
58.1838
-5.92013
499.885
31.2257
5.81599
496.699
55.0443
-3.1789
499.828
37.6132
3.09173
499.068
41.0078
-2.29767
502.183
25.5384
2.26925
503.172
18.8843
0.269393
506.798
8.2965
3.8207
509.352
6.33056
1.83878
515.575
10.114
1.66951
18.1819
18.2212
1196.26
-2185.06
-731.904
713.675
-422.177
-363.457
306.426
45.1482
-398.083
300.698
-75.0869
33.44
344.244
-3.57299
36.68
298.093
41.1117
30.7241
417.242
-191.639
1.87843
377.27
76.6468
-16.9871
428.34
-66.4824
-0.770654
430.91
52.1497
-10.3085
462.321
-2.75668
-2.51316
469.244
48.0012
-9.63392
482.789
25.6695
-5.30609
485.818
37.5989
-4.17776
490.152
22.1704
-0.913033
491.877
18.9056
2.29412
495.509
8.67651
7.57445
497.049
8.1874
5.26858
499.825
10.9517
3.08954
16.6975
17.2951
765.469
-129.326
1692.28
396.683
-135.14
319.415
443.137
-10.6627
-221.671
444.532
-69.2143
169.5
517.212
-53.5103
-17.1534
363.57
171.579
24.9302
354.392
-22.8919
-22.7228
-69.1992
-25.7189
-67.8201
302.468
19.0271
-15.4203
32.8062
23.6288
34.0055
343.8
-14.6189
-29.4096
-45.7929
-15.0418
-43.5118
370.228
-2.23298
-4.85017
6.9896
1.60665
10.7436
411.345
-4.77349
-11.8165
-21.7455
-3.36209
-20.3124
431.105
3.51186
-5.32872
7.37792
5.01153
8.52683
455.573
4.35697
-5.41732
-5.20902
4.33459
-5.12183
461.352
9.23954
-2.70663
6.52757
9.27033
6.9253
467.899
16.841
2.22441
470.834
18.428
4.41199
473.708
9.82324
8.41085
475.347
9.04969
3.98824
480.572
8.71049
1.72507
12.8213
17.7044
540.015
590.282
6.02916
658.339
-35.6529
113.643
500.625
49.6852
-292.577
476.533
-40.3389
51.6257
503.604
-70.5698
-3.89641
97.0487
56.8727
16.2607
105.123
88.9549
96.4257
80.8314
59.6994
82.1191
-5.18715
83.7392
-6.32994
1.93472
10.48
-55.1956
70.1759
0.0604286
-6.49371
6.33233
-83.9097
85.8829
-17.2589
-5.66557
3.80816
-78.9863
92.528
-17.4871
-2.09566
0.513181
-104.461
110.069
-10.9722
0.077057
-1.23729
-109.059
115.418
-4.06354
2.45293
1.82504
-120.865
121.573
2.58005
-0.756499
1.01173
-120.222
121.924
6.08062
0.445883
465.502
9.39972
6.341
-121.021
-126.152
-111.538
-116.039
2.58435
8.95838
2.56625
467.219
20.3501
11.0919
464.741
16.4833
10.5286
464.645
11.2894
5.1045
468.417
7.18774
0.805714
8.30826
17.2011
547.878
-412.644
-2361.45
694.87
-139.344
405.283
490.164
27.5692
-165.183
437.208
-8.50677
29.7354
110.109
-67.3726
-34.8873
114.601
98.5964
104.136
4.10735
130.585
33.7077
-1.41863
-1.37007
-5.33818
-36.0834
33.8298
8.06699
0.894877
1.26477
-27.758
2.09083
28.8498
-3.3511
-1.0963
1.71786
-30.6246
3.94585
31.0843
-4.52452
-1.59888
0.457646
-28.6734
5.41326
29.9424
-6.86838
-0.27152
0.364267
-31.265
3.84845
32.717
-5.44466
-0.220009
0.829718
-32.4649
1.49104
33.6267
-2.81357
-0.669011
0.947628
-33.7167
-0.539829
34.4352
-0.258997
-0.867358
0.709513
-33.6863
-1.50595
34.1622
0.906957
-0.586408
-33.6569
-0.220163
133.003
9.17265
1.10255
-34.3257
-32.5129
-33.1626
483.485
34.848
18.235
-127.246
-134.003
-117.112
-122.609
476.124
25.7308
19.0164
471.299
17.9624
9.74057
472.348
8.59087
5.22484
5.83611
19.3169
470.348
537.293
-885.413
447.571
-40.6065
-592.918
501.575
32.7095
192.051
407.138
46.7305
-53.1063
109.195
-74.4177
39.0919
120.935
97.4215
109.149
16.9235
-23.981
126.303
3.81602
-13.8671
0.561478
-6.92037
-37.3611
39.6889
4.49071
-0.459598
1.49364
0.688397
-40.612
40.0542
-0.164702
-1.45951
3.64177
2.79586
-38.1366
37.6705
-2.37439
-3.59712
2.40042
6.49464