/*--------------------------------*- C++ -*----------------------------------*\
  =========                 |
  \\      /  F ield         | OpenFOAM: The Open Source CFD Toolbox
   \\    /   O peration     | Website:  https://openfoam.org
    \\  /    A nd           | Version:  10
     \\/     M anipulation  |
\*---------------------------------------------------------------------------*/
FoamFile
{
    format      ascii;
    class       volScalarField;
    location    "9.2";
    object      turbidity;
}
// * * * * * * * * * * * * * * * * * * * * * * * * * * * * * * * * * * * * * //

dimensions      [0 0 0 0 0 0 0];

internalField   nonuniform List<scalar> 
12920
(
-0.0266029
-0.0397796
-0.0567486
-0.0781768
-0.098596
-0.119778
-0.138999
-0.156097
-0.170309
-0.182875
-0.194624
-0.206754
-0.220535
-0.237643
-0.257424
-0.276698
-0.292139
-0.302806
-0.3136
-0.324635
-0.0159614
-0.037179
-0.0717364
-0.107335
-0.138069
-0.155805
-0.16926
-0.17789
-0.188202
-0.200125
-0.217572
-0.2369
-0.257682
-0.274411
-0.287341
-0.296689
-0.305902
-0.314723
-0.326646
-0.345961
-0.0389049
-0.0532853
-0.0728565
-0.0984832
-0.126745
-0.148499
-0.165001
-0.173022
-0.182819
-0.192513
-0.207823
-0.226536
-0.253068
-0.285121
-0.321984
-0.358156
-0.390482
-0.420257
-0.443312
-0.463294
-0.0603196
-0.0586996
-0.0694025
-0.101667
-0.139663
-0.175838
-0.206142
-0.226213
-0.246188
-0.263177
-0.285187
-0.309504
-0.341097
-0.377547
-0.41956
-0.462707
-0.503478
-0.536839
-0.560085
-0.576889
-0.0280427
-0.0486518
-0.0597145
-0.0924953
-0.131004
-0.171704
-0.205616
-0.233683
-0.255987
-0.27625
-0.296567
-0.31918
-0.345692
-0.376521
-0.410844
-0.447252
-0.484352
-0.521135
-0.556168
-0.586678
-0.0235403
-0.0393535
-0.0571726
-0.0884536
-0.118837
-0.157483
-0.18818
-0.217479
-0.239145
-0.2609
-0.281177
-0.30224
-0.326077
-0.353637
-0.385136
-0.420092
-0.458715
-0.500889
-0.54317
-0.581108
-0.0622215
-0.0748057
-0.0840556
-0.110323
-0.132135
-0.154126
-0.168948
-0.193313
-0.198358
-0.224037
-0.243427
-0.280463
-0.317498
-0.357119
-0.395599
-0.433672
-0.472459
-0.511653
-0.549787
-0.584261
-0.0885385
-0.0739753
-0.0795664
-0.0971372
-0.120323
-0.151901
-0.152507
-0.149046
-0.143077
-0.130056
-0.127282
-0.129876
-0.153214
-0.184318
-0.220089
-0.268265
-0.310518
-0.352039
-0.394553
-0.439969
-0.022236
-0.0488538
-0.0590162
-0.0764418
-0.0988008
-0.102905
-0.119595
-0.11357
-0.113407
-0.114321
-0.111648
-0.105399
-0.0994581
-0.106181
-0.125528
-0.165078
-0.207167
-0.248474
-0.291684
-0.337209
-0.0134507
-0.0323255
-0.0611891
-0.0807105
-0.100413
-0.0974322
-0.0984536
-0.10381
-0.108765
-0.103278
-0.0983778
-0.107413
-0.10716
-0.100474
-0.10377
-0.133684
-0.171487
-0.212577
-0.255755
-0.298581
-0.0209501
-0.0462112
-0.0719553
-0.0956804
-0.114985
-0.113635
-0.106263
-0.096111
-0.088527
-0.080773
-0.0825895
-0.106208
-0.122188
-0.111573
-0.102006
-0.118634
-0.153956
-0.193611
-0.233905
-0.276769
-0.0296381
-0.0462891
-0.0618731
-0.0795671
-0.101194
-0.109518
-0.115973
-0.105191
-0.0934527
-0.0900387
-0.0998535
-0.13045
-0.148422
-0.135429
-0.115985
-0.129872
-0.152893
-0.180006
-0.209818
-0.245507
-0.0169971
-0.0336401
-0.0404504
-0.0554107
-0.0779034
-0.111319
-0.121641
-0.137879
-0.140875
-0.143847
-0.159223
-0.184875
-0.216513
-0.23736
-0.265766
-0.253556
-0.238081
-0.23549
-0.247008
-0.269991
-0.0116393
-0.0382233
-0.0581329
-0.0834319
-0.109379
-0.135899
-0.168646
-0.203006
-0.221398
-0.246098
-0.270124
-0.30731
-0.352122
-0.396227
-0.428873
-0.433755
-0.409971
-0.390977
-0.385707
-0.398179
-0.0378409
-0.0560397
-0.0700508
-0.0880572
-0.108585
-0.132181
-0.166862
-0.197085
-0.221112
-0.23418
-0.246557
-0.260145
-0.287431
-0.330254
-0.38305
-0.437305
-0.474066
-0.487006
-0.488264
-0.495423
-0.0383744
-0.0589439
-0.0647315
-0.0830749
-0.0986229
-0.117457
-0.142188
-0.171127
-0.199023
-0.216748
-0.236747
-0.262046
-0.298419
-0.344086
-0.39661
-0.452949
-0.502034
-0.534117
-0.546982
-0.551306
-0.0614065
-0.0497112
-0.062623
-0.0865759
-0.10868
-0.13271
-0.155759
-0.181127
-0.206278
-0.230988
-0.259007
-0.293587
-0.334585
-0.381708
-0.431091
-0.479364
-0.521862
-0.555647
-0.57938
-0.595393
-0.0394691
-0.0517684
-0.0573802
-0.0943257
-0.118921
-0.144929
-0.171164
-0.196091
-0.221096
-0.249327
-0.281412
-0.318907
-0.360212
-0.404128
-0.448321
-0.490987
-0.530304
-0.565006
-0.594433
-0.618926
-0.0424312
-0.0393412
-0.0481907
-0.086821
-0.12585
-0.164969
-0.194129
-0.218493
-0.242859
-0.270714
-0.301175
-0.333342
-0.365485
-0.396443
-0.425546
-0.451999
-0.474995
-0.49356
-0.506359
-0.51276
-0.0188468
-0.0430789
-0.0466562
-0.0646886
-0.0882684
-0.118187
-0.156383
-0.198206
-0.232462
-0.258401
-0.278654
-0.295546
-0.311459
-0.329133
-0.350903
-0.37725
-0.406692
-0.436955
-0.465516
-0.490819
-0.00467083
-0.0122326
-0.0255442
-0.0411029
-0.0536716
-0.0575215
-0.0564657
-0.0528403
-0.0512554
-0.0519039
-0.0564209
-0.064489
-0.0763286
-0.0871536
-0.0922826
-0.0892055
-0.0817274
-0.0779403
-0.0808082
-0.0853287
-0.00714
-0.00755008
-0.0145355
-0.0205227
-0.0301653
-0.0299967
-0.0282665
-0.0251706
-0.0264103
-0.0299646
-0.035062
-0.0400578
-0.044739
-0.0484217
-0.0522474
-0.0568325
-0.0626788
-0.0691202
-0.0765888
-0.0846828
-0.00539851
-0.00645167
-0.0123336
-0.0151875
-0.017947
-0.0171804
-0.0162956
-0.0156793
-0.0166744
-0.0190669
-0.0232121
-0.0288673
-0.0364801
-0.0457143
-0.056485
-0.0679506
-0.0792859
-0.0903717
-0.100515
-0.111309
-0.00786021
-0.0222256
-0.0143122
-0.0193706
-0.0312275
-0.0318081
-0.0328733
-0.0299895
-0.0297918
-0.0304463
-0.0336643
-0.0378902
-0.0435523
-0.0494147
-0.0559113
-0.0628345
-0.070144
-0.0773131
-0.0845557
-0.0930607
-0.00319031
-0.00759837
-0.0081904
-0.0120718
-0.0198044
-0.0212086
-0.0257259
-0.0296185
-0.0367354
-0.0421569
-0.0510218
-0.0567715
-0.0642821
-0.0692107
-0.0747956
-0.0786441
-0.0823784
-0.0825786
-0.0786909
-0.0752037
-0.00323157
-0.00726977
-0.0128993
-0.0212852
-0.0334233
-0.0253854
-0.0226931
-0.0221234
-0.0248233
-0.0290487
-0.0347208
-0.0425246
-0.0523444
-0.0642599
-0.0788417
-0.093706
-0.103343
-0.099345
-0.0839678
-0.0686717
-0.0168465
-0.0242573
-0.0129058
-0.0182491
-0.0124112
-0.0112565
-0.0134285
-0.016744
-0.0214452
-0.0274397
-0.0350045
-0.0451137
-0.0579162
-0.0727222
-0.0881231
-0.0966638
-0.0941369
-0.0803292
-0.0626511
-0.0499657
-0.00836401
-0.0275949
-0.0150455
-0.0122747
-0.0110753
-0.0114446
-0.0168274
-0.0191139
-0.022032
-0.0271018
-0.0304818
-0.0377133
-0.0503403
-0.0676566
-0.0813205
-0.084172
-0.0749159
-0.0574863
-0.0410649
-0.0317446
-0.00688986
-0.00655056
-0.00573314
-0.00607159
-0.00771685
-0.00962828
-0.0131434
-0.0150453
-0.0202781
-0.0439262
-0.0438767
-0.0356877
-0.0391126
-0.0540371
-0.0766247
-0.0711314
-0.0640149
-0.0506441
-0.0365977
-0.0283165
-0.00672378
-0.0121472
-0.0214098
-0.0159281
-0.0182081
-0.0148404
-0.0144353
-0.0148359
-0.019247
-0.0335531
-0.0633612
-0.06224
-0.0428719
-0.0442575
-0.0535957
-0.0509579
-0.0525423
-0.0484897
-0.0407333
-0.0346822
-0.0072741
-0.0124221
-0.0225198
-0.0350257
-0.0482656
-0.0438939
-0.0306675
-0.0176873
-0.0147955
-0.0193786
-0.0565074
-0.0876277
-0.0870939
-0.0644804
-0.0378772
-0.0372777
-0.0437883
-0.0459674
-0.0462833
-0.0466261
-0.00605379
-0.0127034
-0.027127
-0.0437828
-0.0656884
-0.0774066
-0.0841383
-0.0714865
-0.0514045
-0.0657796
-0.087632
-0.0887993
-0.0747416
-0.0707171
-0.0458103
-0.0378037
-0.0407939
-0.0444038
-0.048735
-0.0534591
-0.00584622
-0.00912428
-0.011763
-0.0200904
-0.0372537
-0.0523317
-0.0653224
-0.0791305
-0.0686405
-0.0554844
-0.0494345
-0.0558747
-0.0624098
-0.0645163
-0.0576862
-0.0523356
-0.0500744
-0.0511416
-0.0560593
-0.0650516
-0.020529
-0.0139855
-0.0243743
-0.0198791
-0.025582
-0.0323395
-0.0421462
-0.0456596
-0.0423955
-0.0397642
-0.0440216
-0.0541835
-0.0662875
-0.0765091
-0.0799206
-0.0763968
-0.0731014
-0.0762801
-0.0873254
-0.098075
-0.0200407
-0.016059
-0.0125942
-0.0136943
-0.0188987
-0.0229187
-0.031354
-0.0304352
-0.0308871
-0.0322288
-0.0388023
-0.0510217
-0.0701566
-0.0945972
-0.114086
-0.108822
-0.0892774
-0.0761416
-0.0703052
-0.0679704
-0.0158352
-0.0107736
-0.0103175
-0.0147964
-0.0219149
-0.027843
-0.0354585
-0.0319323
-0.0302258
-0.0339692
-0.045188
-0.062914
-0.0857748
-0.110572
-0.133256
-0.138708
-0.124814
-0.101686
-0.0801766
-0.0663436
-0.00918745
-0.00823913
-0.0107398
-0.0161731
-0.0261011
-0.0364221
-0.0447553
-0.0456807
-0.0484551
-0.0586926
-0.0774365
-0.100875
-0.125459
-0.144492
-0.156783
-0.160234
-0.158637
-0.151313
-0.137164
-0.122589
-0.0125308
-0.00796786
-0.00977567
-0.0151232
-0.0240133
-0.0328076
-0.0436928
-0.0542137
-0.0690799
-0.0854656
-0.105469
-0.124062
-0.141695
-0.154087
-0.162472
-0.165295
-0.16589
-0.16518
-0.16437
-0.164688
-0.0054711
-0.00698059
-0.00861664
-0.0147661
-0.0242941
-0.0349409
-0.045465
-0.0529329
-0.0654744
-0.0784618
-0.0961295
-0.112525
-0.127491
-0.135034
-0.13407
-0.12239
-0.103542
-0.0814755
-0.0626769
-0.0510104
-0.00583433
-0.00342683
-0.00496524
-0.00894716
-0.0208981
-0.0363129
-0.0589313
-0.0717135
-0.0803185
-0.0799211
-0.0763773
-0.0687807
-0.0628934
-0.0593544
-0.0603794
-0.0633609
-0.0679053
-0.0721372
-0.0751436
-0.0768874
-0.00129187
-0.00678142
-0.019811
-0.0316649
-0.0354463
-0.0315158
-0.0266978
-0.023118
-0.0224915
-0.0241412
-0.0282275
-0.0336276
-0.0396721
-0.0437586
-0.0449603
-0.0440219
-0.0432391
-0.0438474
-0.0453974
-0.0440849
-0.00768292
-0.00871676
-0.00899576
-0.00952516
-0.0106605
-0.0109442
-0.0125087
-0.0144047
-0.0171272
-0.0200131
-0.0232787
-0.0262459
-0.0290438
-0.0311627
-0.0330103
-0.0344646
-0.0359459
-0.0371484
-0.0382955
-0.0385987
-0.00894732
-0.0108963
-0.0107291
-0.00997692
-0.00865705
-0.0076516
-0.00821878
-0.00969269
-0.0119148
-0.0143999
-0.0173704
-0.0205052
-0.0240889
-0.0277042
-0.031403
-0.0347665
-0.0376119
-0.0399113
-0.0414966
-0.0427461
-0.0141514
-0.0123963
-0.00987552
-0.00972081
-0.0104218
-0.0102967
-0.0109925
-0.0117176
-0.0133628
-0.0150831
-0.0171427
-0.0189755
-0.0206608
-0.0219853
-0.0231527
-0.0241776
-0.0252529
-0.0263325
-0.0276141
-0.0289738
-0.00348066
-0.00482222
-0.00569581
-0.00639911
-0.00729569
-0.00865133
-0.0111929
-0.0135167
-0.0168098
-0.0192933
-0.0224653
-0.0243163
-0.0260669
-0.0264843
-0.0265427
-0.0257801
-0.0246948
-0.0231717
-0.0217335
-0.0210596
-0.0031204
-0.00305576
-0.00648569
-0.00934842
-0.0112986
-0.00992887
-0.0112115
-0.0136151
-0.0172431
-0.020337
-0.0240639
-0.0272896
-0.0305679
-0.0328736
-0.0343372
-0.033947
-0.0313481
-0.0264823
-0.0213644
-0.0180386
-0.00464687
-0.00576668
-0.00528754
-0.00634867
-0.00610884
-0.00724413
-0.00995846
-0.0140296
-0.018766
-0.0234254
-0.0278423
-0.0314418
-0.0341711
-0.0353928
-0.0347248
-0.0313395
-0.0259924
-0.0203013
-0.0160705
-0.0139419
-0.00393034
-0.0109592
-0.0063588
-0.0052308
-0.00559862
-0.00699128
-0.00825976
-0.0129099
-0.0164392
-0.020705
-0.0260987
-0.031657
-0.0365496
-0.0403894
-0.0327134
-0.0278377
-0.0214721
-0.0160162
-0.0129939
-0.0121812
-0.00128813
-0.00241346
-0.00288768
-0.00375128
-0.00483491
-0.00581201
-0.00706523
-0.00835238
-0.0113248
-0.0152401
-0.0173086
-0.0226007
-0.0311636
-0.0389173
-0.0405294
-0.0253458
-0.0199865
-0.0157048
-0.0136606
-0.0136366
-0.00398778
-0.00516789
-0.00823305
-0.00763361
-0.00868072
-0.00787239
-0.00764
-0.00845764
-0.0108248
-0.01628
-0.021352
-0.0196646
-0.0202606
-0.0252542
-0.0285269
-0.0234874
-0.0218986
-0.0198041
-0.0184921
-0.01832
-0.00395963
-0.00752047
-0.0126195
-0.016863
-0.0204344
-0.0174221
-0.0136794
-0.0100705
-0.0104358
-0.0148207
-0.0234414
-0.0252342
-0.022366
-0.0190214
-0.0200517
-0.0254827
-0.0286045
-0.0302186
-0.030793
-0.0303834
-0.0078729
-0.0109854
-0.0200248
-0.029574
-0.0403436
-0.0432626
-0.0416268
-0.0282954
-0.0192347
-0.0218811
-0.0270829
-0.0302455
-0.0296701
-0.0259706
-0.0243082
-0.0312084
-0.0354794
-0.0391318
-0.0412965
-0.0412748
-0.00475212
-0.00577731
-0.0078593
-0.0135505
-0.022741
-0.0268545
-0.0309093
-0.0308853
-0.0245214
-0.0233085
-0.0279378
-0.033468
-0.0370001
-0.0385471
-0.0399295
-0.0416483
-0.0441933
-0.0470685
-0.0496253
-0.0505346
-0.00839573
-0.00752425
-0.00950333
-0.0130172
-0.0177127
-0.0199911
-0.0211683
-0.0212629
-0.0220815
-0.0254389
-0.0298437
-0.0343283
-0.0377931
-0.0401723
-0.0413238
-0.0421463
-0.0438398
-0.0459482
-0.0480049
-0.0474503
-0.00984657
-0.00686955
-0.00713614
-0.0100074
-0.013605
-0.0156486
-0.0177348
-0.0184024
-0.0208625
-0.0248653
-0.0301095
-0.0361551
-0.0419639
-0.0462455
-0.0465921
-0.0415051
-0.036011
-0.0331112
-0.0321739
-0.0315755
-0.0216316
-0.00929108
-0.00769857
-0.00966561
-0.0131412
-0.0155148
-0.0179439
-0.0195602
-0.0232414
-0.0293738
-0.0365786
-0.0439443
-0.0500915
-0.0536213
-0.0547033
-0.0504723
-0.0429649
-0.0360461
-0.0317772
-0.0302917
-0.0042609
-0.00629821
-0.00955654
-0.0143941
-0.019304
-0.022906
-0.0246355
-0.0270673
-0.0316743
-0.0391324
-0.0479214
-0.0557469
-0.0621747
-0.0646386
-0.064421
-0.0613878
-0.0578383
-0.0538121
-0.0498146
-0.0476597
-0.00404694
-0.00531562
-0.00844527
-0.0134805
-0.0181042
-0.0215184
-0.0257393
-0.0308831
-0.0384008
-0.0462005
-0.0551868
-0.0615998
-0.066365
-0.066932
-0.0656581
-0.0627382
-0.0606417
-0.0598331
-0.0605455
-0.0630333
-0.00287264
-0.00442678
-0.00657003
-0.0109455
-0.01614
-0.0211928
-0.0265657
-0.031696
-0.0385951
-0.0449099
-0.0516151
-0.0552808
-0.0564762
-0.0530437
-0.0467165
-0.0383016
-0.0307523
-0.0255286
-0.0233719
-0.0238245
-0.00179186
-0.0015374
-0.00326624
-0.00599189
-0.0113643
-0.017403
-0.027299
-0.0306162
-0.0330727
-0.03193
-0.0308243
-0.0290974
-0.0281495
-0.0273867
-0.0270201
-0.0265636
-0.0261608
-0.0256581
-0.0249834
-0.0242799
-0.00185286
-0.0109275
-0.021746
-0.0227011
-0.0204153
-0.0160272
-0.0134062
-0.0124989
-0.0135239
-0.0157066
-0.0188925
-0.0219724
-0.0246444
-0.0259805
-0.0260711
-0.025184
-0.0238757
-0.0222578
-0.0205542
-0.0176022
-0.00923405
-0.0125864
-0.00984718
-0.00858439
-0.0086161
-0.00910524
-0.0102512
-0.0115958
-0.013319
-0.0149112
-0.0164073
-0.0172943
-0.0178248
-0.0178018
-0.0174826
-0.0168376
-0.0161016
-0.0152591
-0.0146163
-0.0142316
-0.0169789
-0.0169626
-0.0127675
-0.00794241
-0.00630101
-0.00657057
-0.00777618
-0.00906575
-0.0104593
-0.0116506
-0.0127903
-0.0136665
-0.0144373
-0.0149641
-0.0153416
-0.0155373
-0.0156375
-0.0157825
-0.016046
-0.0167801
-0.0131668
-0.0112913
-0.0100054
-0.00749797
-0.00663655
-0.00691109
-0.00783581
-0.00867303
-0.00963639
-0.0103706
-0.0109602
-0.0112957
-0.0114563
-0.0115046
-0.0115587
-0.0116932
-0.0119963
-0.0124651
-0.013139
-0.0139781
-0.00241215
-0.00332848
-0.00499783
-0.00559529
-0.0063122
-0.00748288
-0.00934043
-0.0104052
-0.0117536
-0.0123043
-0.0128064
-0.0126051
-0.0122834
-0.0116231
-0.0110727
-0.0106106
-0.0103825
-0.0103636
-0.0106112
-0.0110869
-0.00233519
-0.00307858
-0.00475529
-0.00588785
-0.00705498
-0.00864696
-0.0108042
-0.0123192
-0.0139939
-0.0146206
-0.0150454
-0.0147421
-0.0141638
-0.0132037
-0.0122028
-0.0111318
-0.0101302
-0.00932962
-0.00901361
-0.00920889
-0.00246629
-0.00266478
-0.00369289
-0.00469367
-0.00573841
-0.00781436
-0.0102147
-0.0127064
-0.0141808
-0.0151139
-0.0150144
-0.0145608
-0.0135519
-0.0123991
-0.0111138
-0.00980799
-0.00880422
-0.0083348
-0.00844951
-0.00900164
-0.00275225
-0.00406412
-0.00357895
-0.00406206
-0.00509537
-0.00721738
-0.00865895
-0.012382
-0.0138378
-0.0152595
-0.0158152
-0.0157059
-0.0148325
-0.0136603
-0.00957857
-0.00877754
-0.00826581
-0.00825436
-0.00870123
-0.00940577
-0.00105434
-0.00208139
-0.00236282
-0.00328685
-0.00442866
-0.00592371
-0.00728085
-0.00880251
-0.0102268
-0.0116885
-0.0134083
-0.0146984
-0.0148285
-0.0138599
-0.0106006
-0.0088376
-0.00889924
-0.00920935
-0.00971529
-0.0103112
-0.00398851
-0.0032974
-0.00471126
-0.00558889
-0.00652676
-0.0064747
-0.00685587
-0.00793255
-0.00979403
-0.0119907
-0.0130091
-0.0127889
-0.0125774
-0.0120963
-0.0102916
-0.0114358
-0.0121807
-0.0128442
-0.0135277
-0.0141969
-0.00179748
-0.00503076
-0.00757627
-0.0090205
-0.00987071
-0.00923611
-0.00893503
-0.00884252
-0.0103063
-0.0133094
-0.0169389
-0.0170567
-0.0139474
-0.0120897
-0.0133439
-0.0183244
-0.0194794
-0.0196534
-0.0194626
-0.0192719
-0.00154058
-0.00624551
-0.0107113
-0.0154796
-0.0186396
-0.0184848
-0.016575
-0.0125257
-0.0122243
-0.0151185
-0.0199614
-0.0223702
-0.0216754
-0.0197869
-0.0216156
-0.0299069
-0.0309792
-0.0296294
-0.0268335
-0.0239269
-0.00418994
-0.00387683
-0.0054803
-0.00837402
-0.0117946
-0.013181
-0.0143977
-0.0144422
-0.015215
-0.018244
-0.02101
-0.0236692
-0.0267934
-0.030595
-0.033861
-0.036311
-0.0369001
-0.0355281
-0.0327942
-0.028996
-0.00614558
-0.0052298
-0.00643919
-0.00894193
-0.0111868
-0.0123333
-0.0129978
-0.0146858
-0.0163558
-0.0181186
-0.0194443
-0.0204861
-0.0214973
-0.0223432
-0.0234483
-0.0239815
-0.0243908
-0.0241288
-0.0233668
-0.0215407
-0.00425035
-0.00406711
-0.00592061
-0.00860027
-0.010488
-0.0117287
-0.0130659
-0.0148717
-0.0168594
-0.0188282
-0.0201699
-0.0210844
-0.0214672
-0.021364
-0.0205225
-0.0189703
-0.0177874
-0.0171838
-0.0170099
-0.0169539
-0.0228653
-0.0135993
-0.00913804
-0.00923782
-0.010595
-0.0121635
-0.0140492
-0.0164404
-0.0188853
-0.0213609
-0.0230609
-0.0239847
-0.0242555
-0.0238922
-0.0233191
-0.022059
-0.0207519
-0.0199233
-0.019606
-0.0198322
-0.00280746
-0.0060664
-0.00882282
-0.0123002
-0.0141938
-0.0157372
-0.016914
-0.018793
-0.021295
-0.0237635
-0.0259895
-0.0270606
-0.0278431
-0.0275897
-0.0273278
-0.0269098
-0.0268046
-0.0267429
-0.0266886
-0.0268551
-0.00202742
-0.00365414
-0.00743889
-0.0116155
-0.0137203
-0.0155099
-0.0175105
-0.0198156
-0.0229093
-0.0250746
-0.0273711
-0.0277827
-0.0280994
-0.0274549
-0.0274922
-0.0279611
-0.0292993
-0.0310334
-0.0328014
-0.0345205
-0.00107839
-0.00282024
-0.00586904
-0.0107719
-0.0143779
-0.0176074
-0.0202132
-0.0222798
-0.0241126
-0.0241074
-0.0237152
-0.021695
-0.019836
-0.0175457
-0.0160206
-0.0152714
-0.0156985
-0.0170748
-0.0190991
-0.0216745
-0.00285101
-0.00447529
-0.00460961
-0.00622852
-0.00991471
-0.0128017
-0.0165639
-0.0174861
-0.0185036
-0.0182118
-0.0179953
-0.0173717
-0.0168542
-0.0162064
-0.01562
-0.0149551
-0.0143329
-0.0137486
-0.0132826
-0.0131252
-0.00352775
-0.00825583
-0.0116089
-0.0103318
-0.00933771
-0.00827879
-0.00845668
-0.0094351
-0.0110553
-0.0124604
-0.0135904
-0.0137752
-0.0133877
-0.0122067
-0.0108316
-0.00965234
-0.00909831
-0.00919835
-0.00988485
-0.0107573
-0.0123195
-0.0068946
-0.00603574
-0.00649
-0.00715897
-0.00800453
-0.00900888
-0.00983759
-0.0103505
-0.010268
-0.009985
-0.00952437
-0.00917617
-0.00901178
-0.00911949
-0.00948856
-0.0100573
-0.0107659
-0.0115168
-0.0122408
-0.00676086
-0.00924026
-0.00786416
-0.00619556
-0.00630038
-0.00697976
-0.00774334
-0.00815426
-0.00835418
-0.00839322
-0.00847311
-0.00866692
-0.00902017
-0.00949618
-0.0100498
-0.0106199
-0.0111546
-0.011651
-0.0120823
-0.0124745
-0.00749589
-0.010005
-0.00966919
-0.00696225
-0.00630863
-0.00664274
-0.00708816
-0.00734581
-0.00750552
-0.00763612
-0.00785005
-0.00817607
-0.00861664
-0.00912331
-0.00965513
-0.0101625
-0.0106219
-0.0110162
-0.0113616
-0.0116425
-0.00306986
-0.00673072
-0.00674788
-0.00599013
-0.00633807
-0.00695454
-0.00744134
-0.0075649
-0.00757148
-0.00748243
-0.00750423
-0.00765599
-0.00796931
-0.00839921
-0.00889848
-0.00941811
-0.00991812
-0.010375
-0.0107828
-0.0110942
-0.00493825
-0.00411684
-0.00453199
-0.00546002
-0.00661421
-0.00748317
-0.0076343
-0.00764585
-0.0074853
-0.00729344
-0.00721459
-0.00730671
-0.00757069
-0.00798362
-0.00849788
-0.00906955
-0.0096645
-0.0102609
-0.0108268
-0.0112623
-0.00283242
-0.00314888
-0.00347943
-0.00459003
-0.00585308
-0.00688853
-0.00693977
-0.00709692
-0.00683309
-0.0068997
-0.00686637
-0.00707258
-0.00738584
-0.00784355
-0.00840343
-0.00903988
-0.00973754
-0.0104638
-0.0111748
-0.0117364
-0.00428067
-0.0026614
-0.00294597
-0.00408499
-0.00525211
-0.00644823
-0.00668576
-0.00710335
-0.00681316
-0.00687718
-0.0065753
-0.00660199
-0.00673499
-0.0071254
-0.00841966
-0.00902293
-0.00966844
-0.0103213
-0.0109411
-0.011422
-0.00109081
-0.00159293
-0.00225673
-0.00346984
-0.00468609
-0.00586922
-0.00646634
-0.00685866
-0.00707426
-0.00670911
-0.00610111
-0.00590606
-0.00613269
-0.00656925
-0.00761197
-0.00919766
-0.00969036
-0.0101647
-0.0105942
-0.0109232
-0.00227554
-0.00400143
-0.00450121
-0.00512192
-0.00586868
-0.00610286
-0.0065484
-0.00759177
-0.00900837
-0.0092084
-0.0078635
-0.00656468
-0.00663667
-0.00743289
-0.00914873
-0.0108246
-0.011216
-0.0114617
-0.0116017
-0.0117068
-0.00528532
-0.00486958
-0.00575623
-0.00674787
-0.00751909
-0.00776488
-0.00825057
-0.00924423
-0.0111489
-0.0130133
-0.0130427
-0.0105577
-0.00938368
-0.0101254
-0.0117877
-0.0126519
-0.0127786
-0.0128122
-0.0128444
-0.0129344
-0.00486883
-0.00645209
-0.00732727
-0.00917387
-0.00980568
-0.0100113
-0.0100241
-0.0103582
-0.0118163
-0.0138622
-0.0149751
-0.0147022
-0.014545
-0.0154233
-0.0164118
-0.0143648
-0.0132462
-0.0124732
-0.0120589
-0.0119422
-0.000671112
-0.000841269
-0.00312847
-0.006849
-0.00887983
-0.00967999
-0.00999562
-0.0109328
-0.0118459
-0.0128905
-0.0138306
-0.015735
-0.0178782
-0.0198538
-0.0156129
-0.0148721
-0.013834
-0.0128125
-0.0120751
-0.011504
-0.00457632
-0.00385451
-0.00600701
-0.00814924
-0.00910147
-0.00967569
-0.0101313
-0.0106888
-0.0109147
-0.0110534
-0.0111893
-0.0112013
-0.0112792
-0.0112238
-0.0112316
-0.0109611
-0.010776
-0.0106674
-0.0105634
-0.0104519
-0.00106131
-0.00406431
-0.00627535
-0.00811305
-0.00904713
-0.00991717
-0.0104632
-0.0110215
-0.0112381
-0.0113918
-0.0113165
-0.0112229
-0.0110236
-0.0107521
-0.010406
-0.0100377
-0.00980319
-0.0097241
-0.00979615
-0.0100037
-0.0140819
-0.00756232
-0.00818377
-0.00918054
-0.00981196
-0.0106165
-0.0113308
-0.0119098
-0.0122083
-0.0124165
-0.0123949
-0.0123508
-0.0121663
-0.0119415
-0.0116662
-0.011303
-0.0109208
-0.0106532
-0.0105576
-0.0107172
-0.00211991
-0.00541173
-0.00828559
-0.0101176
-0.0106064
-0.0111898
-0.011815
-0.0123775
-0.01302
-0.0134344
-0.0138194
-0.0140276
-0.0141467
-0.014072
-0.0138727
-0.0135363
-0.0131168
-0.0126756
-0.0123242
-0.0122928
-0.00125074
-0.0029742
-0.00658495
-0.00930782
-0.0100191
-0.0105951
-0.0113035
-0.011927
-0.0128593
-0.0133848
-0.0143036
-0.0149488
-0.0157674
-0.0163436
-0.0168202
-0.0170572
-0.017083
-0.0169094
-0.0166632
-0.0165669
-0.00140442
-0.00426703
-0.00682084
-0.0100599
-0.0112353
-0.0122187
-0.0121134
-0.0115201
-0.0110233
-0.0104465
-0.0107842
-0.011567
-0.01306
-0.0148695
-0.0169358
-0.019075
-0.0212036
-0.0232612
-0.0251874
-0.0267991
-0.00143718
-0.00301612
-0.00447602
-0.0069447
-0.00965698
-0.0112257
-0.0123106
-0.0121777
-0.0119919
-0.0111792
-0.0104651
-0.0095956
-0.00906316
-0.00880877
-0.00915526
-0.0101379
-0.0119119
-0.0144628
-0.0176944
-0.021312
-0.0207532
-0.014873
-0.0215779
-0.0124898
-0.0138001
-0.0135231
-0.0161654
-0.0202902
-0.0235855
-0.0254254
-0.0140007
-0.0143808
-0.016794
-0.0171081
-0.0215601
-0.0188327
-0.0249023
-0.0136597
-0.0169142
-0.0147488
-0.0186226
-0.0253793
-0.0264945
-0.0290413
-0.0177936
-0.0186718
-0.0199608
-0.0229388
-0.115526
-0.103034
-0.103308
-0.114676
-0.101261
-0.0922439
-0.0899116
-0.112738
-0.104187
-0.108588
-0.0952553
-0.0891601
-0.0870942
-0.0813536
-0.114317
-0.109919
-0.109957
-0.0904819
-0.103442
-0.0827269
-0.0905334
-0.112599
-0.108343
-0.104237
-0.106439
-0.106533
-0.0928527
-0.102027
-0.107417
-0.104505
-0.108123
-0.103608
-0.0899617
-0.105341
-0.109811
-0.10012
-0.108802
-0.106587
-0.0852218
-0.0781961
-0.108127
-0.0965956
-0.102745
-0.10486
-0.0998365
-0.0783593
-0.0863931
-0.0931865
-0.0889133
-0.116827
-0.0986448
-0.0966311
-0.0919118
-0.110481
-0.0894318
-0.0951666
-0.102063
-0.0971825
-0.0976866
-0.0875202
-0.0854288
-0.0885843
-0.0728027
-0.108141
-0.0979113
-0.0958391
-0.0817403
-0.070561
-0.0647324
-0.0412525
-0.105746
-0.0940814
-0.0871581
-0.0692624
-0.0709872
-0.0359231
-0.0311528
-0.0979358
-0.0852686
-0.0832287
-0.0739635
-0.0910593
-0.0347066
-0.0628938
-0.105249
-0.0845306
-0.0981641
-0.0971029
-0.110335
-0.074444
-0.106361
-0.10838
-0.104141
-0.115246
-0.111594
-0.105189
-0.114445
-0.124673
-0.102068
-0.11564
-0.109749
-0.101588
-0.0945451
-0.123645
-0.111621
-0.0967976
-0.106769
-0.097897
-0.0938994
-0.0957098
-0.106235
-0.0918288
-0.0978817
-0.109339
-0.0991676
-0.100409
-0.0739558
-0.108267
-0.0984024
-0.090765
-0.0959759
-0.0887678
-0.0639639
-0.0398023
-0.0936288
-0.0766637
-0.0820902
-0.0869881
-0.0832353
-0.0348752
-0.0316826
-0.0727894
-0.0740829
-0.0806786
-0.0827243
-0.0840321
-0.0356972
-0.0634351
-0.0771161
-0.0898502
-0.0989376
-0.0866812
-0.109694
-0.074756
-0.1086
-0.0970983
-0.127602
-0.121077
-0.11996
-0.140517
-0.117884
-0.13114
-0.136534
-0.144111
-0.115534
-0.142559
-0.135534
-0.130683
-0.11894
-0.140511
-0.126945
-0.0993637
-0.130272
-0.111116
-0.112595
-0.0926949
-0.121489
-0.10022
-0.108888
-0.121466
-0.125948
-0.114689
-0.112275
-0.119696
-0.126482
-0.0957469
-0.123643
-0.114685
-0.109155
-0.0990883
-0.125269
-0.11773
-0.0898601
-0.113253
-0.111096
-0.0967955
-0.0946476
-0.115968
-0.11248
-0.095185
-0.11173
-0.119581
-0.0954472
-0.104733
-0.113012
-0.123069
-0.122463
-0.124713
-0.143056
-0.111507
-0.137188
-0.129266
-0.14964
-0.146753
-0.151793
-0.177415
-0.144068
-0.147066
-0.156515
-0.168596
-0.140874
-0.185832
-0.198018
-0.142749
-0.129172
-0.170584
-0.170423
-0.11585
-0.200179
-0.195407
-0.12433
-0.105111
-0.169117
-0.15479
-0.0154469
-0.0117929
-0.0136111
-0.0104656
-0.0114942
-0.009751
-0.011119
-0.0170768
-0.0137933
-0.0170257
-0.0120245
-0.0146492
-0.0115357
-0.0136957
-0.0389216
-0.0198738
-0.0342606
-0.0158054
-0.0198353
-0.0149364
-0.0196576
-0.0461595
-0.0404082
-0.0594025
-0.0208593
-0.0223952
-0.0212967
-0.0247988
-0.0371033
-0.0630025
-0.056937
-0.022738
-0.0251195
-0.0251405
-0.0243656
-0.0369866
-0.0514371
-0.039484
-0.0267565
-0.033806
-0.0241883
-0.0258111
-0.0492008
-0.038217
-0.0419246
-0.0367404
-0.045591
-0.027103
-0.0323475
-0.070264
-0.0449774
-0.0573602
-0.0490113
-0.0578505
-0.034418
-0.041014
-0.0147848
-0.0170908
-0.0153223
-0.0124684
-0.0122788
-0.0154985
-0.0129611
-0.0172925
-0.014864
-0.0143832
-0.0122514
-0.0132001
-0.0121838
-0.0111669
-0.0286375
-0.0145533
-0.0169391
-0.0140706
-0.0182976
-0.0113471
-0.0140947
-0.0561946
-0.0195138
-0.0434409
-0.0201649
-0.0253696
-0.0160157
-0.0246139
-0.0668285
-0.0555816
-0.0815711
-0.026331
-0.0257887
-0.027777
-0.0317773
-0.0461233
-0.085086
-0.0832905
-0.0251288
-0.0246866
-0.0312091
-0.0280534
-0.0421412
-0.0790464
-0.0614192
-0.0252817
-0.0289103
-0.0267162
-0.0235138
-0.0542773
-0.0562951
-0.0472451
-0.0305591
-0.036172
-0.0230421
-0.0239477
-0.0197133
-0.0604783
-0.0542432
-0.0264881
-0.0163069
-0.0395849
-0.0309252
-0.0149614
-0.0468055
-0.0298454
-0.0143085
-0.0117749
-0.0279061
-0.021784
-0.0167197
-0.0280695
-0.0347589
-0.0117583
-0.0141908
-0.0208162
-0.021341
-0.0443542
-0.0415669
-0.06836
-0.0160365
-0.0246849
-0.0227103
-0.0297304
-0.0833104
-0.0771615
-0.0918166
-0.0277724
-0.0318852
-0.0317775
-0.0347655
-0.0897226
-0.0917413
-0.0812557
-0.0317117
-0.0293473
-0.0352555
-0.034394
-0.0708739
-0.0783153
-0.0724311
-0.0280701
-0.0240705
-0.0333216
-0.0288759
-0.0488574
-0.0695676
-0.0561346
-0.0230489
-0.022084
-0.0272846
-0.0234875
-0.0779493
-0.0785867
-0.087598
-0.0614142
-0.0469904
-0.0612917
-0.0529093
-0.05326
-0.0878452
-0.0849542
-0.0416748
-0.0298934
-0.0489376
-0.0386924
-0.060182
-0.0831969
-0.0781506
-0.0277303
-0.0262743
-0.0357748
-0.0291474
-0.0830562
-0.0761601
-0.0711922
-0.0273329
-0.0318153
-0.0280688
-0.0296666
-0.0911929
-0.0695234
-0.0680657
-0.0327681
-0.0355244
-0.0319006
-0.0410024
-0.0768028
-0.067125
-0.066286
-0.0365755
-0.0370848
-0.04415
-0.0493914
-0.0722844
-0.0672928
-0.0706813
-0.0362917
-0.0321593
-0.0501109
-0.0492662
-0.0603067
-0.0707787
-0.0679442
-0.0305221
-0.0261257
-0.0482944
-0.0432916
-0.00791557
-0.00642626
-0.00732255
-0.00713281
-0.00839716
-0.00654485
-0.00759162
-0.010424
-0.00772873
-0.00970823
-0.00896954
-0.0105047
-0.00802241
-0.0094501
-0.0144264
-0.0107386
-0.0149176
-0.0108834
-0.0123729
-0.00996676
-0.011592
-0.0167472
-0.0164717
-0.0195926
-0.0131542
-0.0158729
-0.0121074
-0.0133185
-0.0207271
-0.0197411
-0.0187643
-0.0168766
-0.0195618
-0.0136382
-0.0148407
-0.0289426
-0.0186644
-0.0207066
-0.0205231
-0.0224091
-0.0153736
-0.0168607
-0.0369947
-0.0220462
-0.0269033
-0.022864
-0.023265
-0.0172326
-0.0178599
-0.0434209
-0.0286766
-0.0340448
-0.0234109
-0.0226487
-0.0179495
-0.017914
-0.0081509
-0.00918257
-0.00902092
-0.00759693
-0.00819031
-0.00883938
-0.00889431
-0.0100045
-0.00911252
-0.00985038
-0.00847455
-0.00962646
-0.00899818
-0.00983231
-0.0145891
-0.0102768
-0.0128909
-0.0101296
-0.011892
-0.0102991
-0.0123461
-0.0156198
-0.0180157
-0.0157008
-0.0142334
-0.017689
-0.0153641
-0.0142515
-0.0189706
-0.0213677
-0.0226271
-0.0173595
-0.023113
-0.0173032
-0.0187833
-0.0195627
-0.0249515
-0.0223568
-0.0146035
-0.0155618
-0.0167625
-0.0152614
-0.0237956
-0.0213339
-0.0191596
-0.0158791
-0.0165647
-0.0147991
-0.0140728
-0.0299611
-0.0189744
-0.0203609
-0.0167165
-0.0169514
-0.0140971
-0.0148934
-0.010432
-0.0249258
-0.0210323
-0.0117061
-0.00981228
-0.016514
-0.0135472
-0.0101294
-0.0187427
-0.0146409
-0.00962785
-0.0100185
-0.0128426
-0.0120442
-0.0128815
-0.0144634
-0.0170666
-0.0104161
-0.0124344
-0.0121632
-0.0137539
-0.0163116
-0.016908
-0.0151489
-0.0141309
-0.0174571
-0.0157754
-0.0144092
-0.022846
-0.0246439
-0.0249966
-0.0202884
-0.026639
-0.0211594
-0.0217795
-0.0233149
-0.0292698
-0.0281776
-0.0184392
-0.0165803
-0.0233191
-0.0223706
-0.0196146
-0.0273731
-0.0242208
-0.0158663
-0.0144113
-0.0216628
-0.0194547
-0.0190669
-0.0231643
-0.021027
-0.0142636
-0.0148609
-0.0188884
-0.0182803
-0.0323866
-0.0388112
-0.03614
-0.0255439
-0.0173642
-0.0268048
-0.0197613
-0.0201317
-0.034002
-0.0280981
-0.0155949
-0.0132398
-0.0181446
-0.0157766
-0.020575
-0.0262701
-0.0229866
-0.0131624
-0.014533
-0.0155242
-0.0166319
-0.0260117
-0.0227974
-0.0253797
-0.015507
-0.0194993
-0.0179317
-0.023468
-0.0297259
-0.0270451
-0.0320341
-0.0210195
-0.0247011
-0.0255108
-0.0300483
-0.0301644
-0.0333186
-0.0360144
-0.0252865
-0.0247936
-0.0310189
-0.0322084
-0.0270079
-0.036594
-0.036968
-0.0242341
-0.0222047
-0.0324608