/*--------------------------------*- C++ -*----------------------------------*\
  =========                 |
  \\      /  F ield         | OpenFOAM: The Open Source CFD Toolbox
   \\    /   O peration     | Website:  https://openfoam.org
    \\  /    A nd           | Version:  10
     \\/     M anipulation  |
\*---------------------------------------------------------------------------*/
FoamFile
{
    format      ascii;
    class       volVectorField;
    location    "9.2";
    object      U;
}
// * * * * * * * * * * * * * * * * * * * * * * * * * * * * * * * * * * * * * //

dimensions      [0 1 -1 0 0 0 0];

internalField   nonuniform List<vector> 
12920
(
(85.1703 -1.91661 49.4652)
(77.4879 -46.2748 -11.7025)
(196.459 -45.4599 9.96007)
(157.427 -61.8173 10.6299)
(185.898 -24.748 10.1476)
(153.103 -8.4828 6.61074)
(151.798 4.73552 4.41943)
(135.916 0.0346233 2.98138)
(139.284 -2.31581 2.19836)
(137.902 -4.77122 1.50328)
(142.431 -4.4596 1.26609)
(143.778 -2.91267 1.0255)
(144.143 0.847263 1.32481)
(139.52 2.02724 1.75315)
(133.996 -1.03403 1.72949)
(132.582 -6.62632 1.33304)
(136.102 -8.63409 0.111652)
(144.139 -10.1107 -0.64647)
(152.225 -6.00522 -0.27188)
(152.285 -2.85967 0.255626)
(216.893 -179.892 -20.5343)
(43.3398 -69.489 -8.39796)
(104.819 -46.6363 -3.26097)
(-0.067206 -40.951 -5.82063)
(75.0371 -29.9295 0.444435)
(41.9677 -27.8709 0.144213)
(81.6054 -18.8086 1.36722)
(74.5932 -17.3679 0.0832601)
(91.0898 -12.5484 -0.115746)
(89.1559 -11.0494 -0.631279)
(95.1655 -8.36277 -0.49661)
(93.6021 -6.99393 -0.56108)
(96.0687 -5.51974 -0.271157)
(95.5441 -4.71623 -0.286416)
(96.9397 -4.44392 -0.479089)
(96.0073 -4.27192 -1.11514)
(96.4717 -4.31133 -1.52732)
(97.4164 -3.85639 -2.24865)
(99.0825 0.725262 -2.37669)
(103.738 5.5149 -1.67521)
(208.671 -117.385 4.88915)
(138.644 14.8755 -25.1664)
(171.343 0.747032 -13.9671)
(84.6054 -32.0962 -5.96757)
(114.667 -28.9632 -1.42811)
(74.6634 -26.2941 -1.7823)
(94.018 -17.0814 -1.18994)
(78.8685 -11.8858 -1.96519)
(89.6249 -7.09774 -1.59557)
(83.7215 -3.2996 -1.78064)
(88.4638 -1.00879 -1.3558)
(84.9238 1.13574 -1.39484)
(85.7299 2.09275 -0.95701)
(82.0392 2.78677 -0.800781)
(80.726 1.68404 -0.28709)
(76.2153 0.49747 -0.383037)
(75.7452 -0.142081 -0.758653)
(75.7 -1.07059 -0.836228)
(74.9467 0.441563 -0.85765)
(79.1542 3.19191 -0.222513)
(217.403 -423.31 -143.209)
(-143.14 -8.18485 23.2145)
(104.234 5.67382 -8.99922)
(-16.7777 -19.334 0.176566)
(77.6925 -14.2941 1.16752)
(22.0177 -18.1954 -0.177048)
(67.1098 -11.4591 0.639559)
(46.9976 -9.13327 -0.375216)
(66.706 -4.86898 -0.0675527)
(59.8191 -2.78738 -0.336452)
(67.1031 -0.460288 -0.109726)
(63.9297 1.42982 -0.228896)
(66.461 2.93039 -0.0574664)
(64.3484 3.80865 -0.0295273)
(65.1752 3.69675 -0.000101909)
(63.4835 2.92582 -0.0654346)
(63.715 1.33618 0.00471909)
(64.1935 0.110858 -0.040612)
(62.8645 0.902179 -0.111613)
(65.0749 2.87721 0.270509)
(70.243 -186.921 -99.778)
(-52.4009 -50.9937 -5.73906)
(132.237 -56.4185 -14.0642)
(40.4774 -34.283 -1.5269)
(102.184 -33.3439 0.778106)
(39.1933 -24.7027 -0.479433)
(73.982 -27.8029 0.314833)
(49.4958 -12.5033 -0.275559)
(67.7695 -12.605 0.224366)
(59.5291 -2.94028 -0.00883748)
(68.0414 -2.38342 0.222267)
(64.7701 2.41986 0.17468)
(67.9364 2.43217 0.203099)
(65.5086 4.01129 0.067216)
(66.6305 2.86193 0.139718)
(65.0411 2.21898 0.0463227)
(65.3173 0.0897253 0.0912199)
(65.0344 -1.30037 0.130475)
(63.0989 -1.29942 0.124977)
(63.2275 0.257524 0.329387)
(-53.2139 -62.3322 -80.4667)
(-79.73 6.59533 -24.3288)
(99.8228 14.7517 -10.9686)
(20.6405 -7.2129 -0.0368798)
(90.4905 -4.46563 3.71581)
(21.2979 -7.2744 0.215278)
(66.1437 -20.1443 0.979573)
(40.9306 -11.5458 -0.446063)
(56.6876 -13.4228 -0.0273041)
(52.1236 -7.45904 -0.432884)
(60.3058 -5.99046 -0.240628)
(61.1226 -0.629697 -0.241527)
(66.2183 1.41703 -0.144733)
(66.6478 3.86067 -0.181397)
(68.0261 3.76798 -0.118298)
(67.6159 3.55901 0.0532013)
(67.1852 1.52193 0.39138)
(65.4721 -0.0121738 0.39079)
(62.3314 0.369164 0.195894)
(60.9621 1.71974 0.25698)
(171.004 243.731 18.513)
(-49.6594 -46.7207 22.7998)
(142.602 -28.03 0.133618)
(10.5871 -33.6155 5.49452)
(104.336 -25.545 0.470515)
(33.2916 -10.1173 -0.00306598)
(64.7236 -42.1174 -0.911247)
(30.9772 -2.32567 -1.19864)
(46.5833 -20.3646 -1.23007)
(39.81 -4.40301 -0.564466)
(51.9959 -9.26416 -0.668982)
(52.224 -1.06927 -0.476856)
(59.0296 -1.28827 -0.460741)
(59.5248 2.82625 -0.10605)
(61.8081 1.79344 0.0274897)
(60.9694 2.25918 0.172576)
(60.7517 0.757402 0.40832)
(59.6231 0.0250887 0.233667)
(57.0136 0.185331 0.113765)
(56.8462 1.11148 0.279167)
(263.029 -159.625 -78.3704)
(-73.7967 -91.4251 -1.13093)
(125.303 -33.0378 3.7046)
(14.9218 -26.3757 1.89089)
(96.9556 -29.0109 0.549163)
(34.4844 18.3881 0.063005)
(61.067 2.92754 0.174048)
(24.6523 -6.28564 -0.322669)
(41.7218 1.14444 -0.16881)
(37.9314 -16.2149 0.0753331)
(52.0918 -9.11117 0.207566)
(54.5241 -8.90663 0.343533)
(60.4751 -0.606575 0.0269212)
(60.8781 1.41629 -0.0220367)
(59.2543 1.66192 0.142457)
(59.5267 2.41131 0.508101)
(56.6366 1.58728 0.483792)
(55.232 0.813381 0.223027)
(52.5313 0.517169 0.00585596)
(52.4649 1.19392 0.190288)
(166.21 -93.5477 238.811)
(-62.6718 -62.5665 -28.1567)
(132.937 -41.1559 1.3821)
(30.6457 -30.1863 -2.20722)
(95.6793 -28.1418 0.166453)
(49.9863 -3.75139 -0.747888)
(77.4517 12.2987 -0.194933)
(63.9744 -7.77279 -0.693083)
(70.1378 -3.81461 -0.293343)
(61.9704 -13.9879 0.141262)
(59.5849 -13.5305 0.196396)
(62.7632 -9.42616 -0.00699209)
(64.6608 -1.55803 0.0349298)
(64.8282 2.0924 -0.10408)
(65.5655 4.41691 0.0577597)
(61.6141 2.84417 0.398353)
(59.765 3.38482 0.599496)
(56.1671 1.93371 0.34583)
(52.2876 0.732243 0.145791)
(51.3165 0.896423 0.28352)
(190.68 219.408 34.8278)
(82.3419 13.5912 4.96704)
(148.084 -35.0706 9.69735)
(51.1947 -16.739 -0.668521)
(99.7536 -16.9778 2.51179)
(47.4314 0.256679 -1.76741)
(65.5373 1.93253 0.728021)
(65.6079 -2.12091 -0.45866)
(62.2088 -0.253702 -0.405311)
(63.7274 -8.78894 -0.616429)
(67.9704 -20.598 0.182264)
(66.4348 -13.6836 0.150632)
(68.4767 -4.21705 -0.0974159)
(71.0146 1.58206 -0.0440461)
(72.1212 2.57995 -0.0599137)
(67.0715 5.06726 0.143633)
(64.1487 5.54789 0.545289)
(59.2104 4.97955 0.452996)
(54.5579 2.66754 0.242253)
(52.9026 1.46541 0.292664)
(133.843 14.49 40.4321)
(30.0319 -21.3109 -1.52182)
(150.465 -10.2273 -8.0975)
(71.3851 -5.69522 -2.35272)
(125.059 -7.45982 7.80522)
(73.8433 0.267953 0.00525925)
(81.9282 3.8555 -0.220251)
(84.7313 8.849 -1.2947)
(89.5825 7.41039 -1.50703)
(103.434 -1.20545 -1.60814)
(96.9262 -16.3939 0.676814)
(73.1617 -11.2917 0.332077)
(69.9481 -7.83872 0.288613)
(70.2709 -0.247987 0.0507863)
(69.6181 3.69906 -0.388022)
(66.5338 7.31536 0.025645)
(64.3605 9.33698 0.384502)
(60.3369 7.82901 0.225151)
(55.6728 3.95808 -0.315258)
(54.0434 2.01706 -0.0449743)
(84.0235 32.8783 -42.1703)
(17.2147 29.0281 -47.1126)
(146.545 -41.5118 -19.8491)
(94.2212 -33.6716 -5.80282)
(136.017 -40.7343 9.75158)
(61.201 -15.6694 4.12385)
(82.8719 -9.08357 1.14277)
(104.911 8.63894 -0.237055)
(109.839 10.7119 -0.241929)
(108.784 0.542127 0.705183)
(83.4302 2.62279 0.553378)
(68.3408 -4.40141 0.323185)
(57.3168 -7.40845 -0.161435)
(60.3445 -0.808421 -0.148812)
(63.4246 1.97348 -0.10989)
(63.6954 7.00204 0.122362)
(65.1676 10.6018 0.32748)
(64.0659 11.4262 -0.212962)
(61.8551 9.38394 -0.608902)
(59.5837 4.364 -0.477533)
(141.667 28.477 -79.8028)
(19.6688 25.6164 -15.7043)
(149.398 1.39958 -13.6138)
(134.632 -14.7867 -7.57456)
(167.921 -15.7991 0.415519)
(124.72 -36.404 2.1349)
(127.127 -28.603 -0.260538)
(84.0768 -10.7169 1.34881)
(84.5229 6.33733 0.591461)
(67.6366 8.27935 0.530898)
(63.3442 6.18868 0.101952)
(53.7525 1.07518 0.29003)
(51.1527 -3.30484 -0.0349063)
(48.0415 -4.24787 -0.0787558)
(50.4403 -1.40907 -0.373468)
(57.7821 1.60934 -0.226296)
(64.2297 9.17453 -0.136151)
(69.7622 11.1658 -0.455773)
(72.1886 10.654 -0.25622)
(71.532 8.11675 -0.123445)
(247.602 118.387 247.106)
(41.1876 44.091 -5.75508)
(119.549 16.7538 16.4658)
(15.1647 -6.69969 -1.0875)
(91.8224 -5.45397 -0.0386121)
(36.5805 -14.6111 -1.86441)
(66.9369 17.5426 -0.715532)
(47.4783 1.62085 0.0506448)
(59.6591 18.7166 0.429187)
(50.7236 9.41771 0.142395)
(55.9729 12.9715 -0.417194)
(51.8075 4.20255 -0.882876)
(54.122 3.08802 -0.917785)
(51.8339 -3.1794 -0.636536)
(52.5068 -4.44369 -0.0539137)
(52.8136 -4.84322 0.0321915)
(57.3422 0.0553559 -0.251173)
(64.7146 4.25573 -0.366136)
(66.8943 7.47664 0.0832274)
(67.0508 6.88128 0.434868)
(57.9928 -93.9836 85.7376)
(-40.6744 -3.93722 5.63575)
(110.007 -0.591199 0.0825673)
(48.0271 -12.2706 0.507959)
(102.255 -16.9054 1.07948)
(57.5567 -16.2 -0.0706598)
(78.3235 -3.60876 0.945213)
(61.0052 2.97112 -0.0487506)
(67.8676 13.2021 0.0398375)
(62.1729 12.7865 -0.741172)
(67.3874 12.6675 -1.14289)
(66.985 7.97462 -1.72425)
(71.4038 4.42209 -1.56217)
(70.4953 -0.0995499 -0.550599)
(66.016 -1.64476 0.741362)
(56.7788 -3.70944 0.767272)
(53.7511 -0.594371 -0.0545354)
(53.7187 1.55978 -0.172497)
(53.2522 6.02565 -0.158171)
(54.8045 6.30901 0.0924041)
(60.6849 -121.167 18.7272)
(-80.7678 -35.6748 -6.38211)
(113.972 -3.34943 -7.2805)
(41.4046 -12.6652 -0.868218)
(113.934 -0.527224 -0.94138)
(84.1812 1.33701 -0.559806)
(98.172 13.5462 1.88372)
(72.7439 10.3566 0.744709)
(76.3629 18.1144 0.56917)
(66.8896 13.3827 -0.800191)
(72.9883 14.7448 -0.801883)
(70.8633 9.2246 -0.967978)
(74.1586 7.50051 -0.45927)
(71.912 3.92312 -0.118488)
(69.8834 4.73651 0.895233)
(62.5275 3.12773 0.9274)
(58.0319 3.69792 0.669836)
(55.8427 3.9057 0.195614)
(53.7622 5.6442 0.0790423)
(56.0417 5.8724 0.175571)
(74.5383 -299.013 -57.6738)
(-149.93 -41.0461 -11.7794)
(93.2999 -68.2696 -14.6732)
(21.6304 -40.8469 -4.08604)
(95.1441 -27.0229 -3.1379)
(67.5118 -14.6024 -1.66042)
(91.0061 9.05913 0.55247)
(72.7687 14.8219 0.416002)
(80.512 21.4219 0.49498)
(71.5448 17.6617 -0.126572)
(76.5921 15.6778 0.0277192)
(72.3498 10.8333 0.00514595)
(74.0666 6.99496 0.462608)
(69.6444 4.06696 0.677143)
(68.481 3.61259 0.905297)
(65.3 2.75832 0.679737)
(64.4831 3.03452 0.613074)
(63.773 3.06139 0.517692)
(61.8382 3.95486 0.469166)
(64.1474 3.9695 0.464668)
(82.2042 -61.9378 46.6973)
(-134.674 -19.966 4.2371)
(83.2517 -50.0896 -14.224)
(-17.5481 -14.0203 -2.95736)
(74.1411 -7.69125 -3.45093)
(29.3129 -0.693618 -2.57068)
(71.2815 12.471 -0.753729)
(55.4844 13.7511 -0.365213)
(74.3043 19.0748 0.796824)
(67.2829 15.4813 0.624066)
(75.0814 14.2143 1.0183)
(71.1688 9.86671 0.89769)
(73.5994 7.7995 0.920947)
(70.2495 5.18779 0.77006)
(70.5983 4.15736 0.786469)
(68.7355 2.79473 0.614188)
(69.007 2.3016 0.566586)
(69.1983 1.9 0.457639)
(67.8653 1.82076 0.519787)
(70.231 2.02792 0.584692)
(18.4302 -29.0785 20.8977)
(-124.461 -66.0427 -25.8437)
(74.5513 -71.9841 -35.606)
(13.1414 -38.602 -12.1408)
(78.0048 -37.2814 -5.46153)
(40.6997 -14.5397 -1.20446)
(70.9377 -5.13769 0.77427)
(57.546 5.57198 0.348177)
(75.3199 9.72103 0.524117)
(69.4106 9.93838 0.238277)
(77.4692 8.64061 0.436841)
(74.2647 6.33688 0.398512)
(77.5672 4.19145 0.591448)
(75.7905 2.46339 0.66799)
(77.2062 1.35146 0.771927)
(76.2113 0.670273 0.696514)
(76.6666 0.169906 0.578158)
(76.4746 0.0207683 0.342621)
(74.4897 -0.41884 0.16257)
(75.088 -0.513821 0.0551694)
(205.719 -21.7028 139.172)
(-3.68525 -15.3743 53.7335)
(91.9077 -2.21754 -8.43719)
(99.8982 22.2807 -4.98169)
(133.877 17.31 0.487091)
(109.494 5.80015 1.9332)
(106.552 -3.74343 4.4026)
(80.5993 0.550294 2.81488)
(87.8345 5.52579 2.58071)
(82.3028 7.67159 1.6299)
(91.3171 7.5156 1.27427)
(91.9744 5.5413 0.464716)
(98.0283 3.44541 0.194169)
(98.3851 1.12753 -0.127377)
(100.52 -0.0676144 -0.0602594)
(99.4544 -0.500006 -0.0050873)
(99.3463 -0.0757377 0.21403)
(98.3178 1.01407 0.334789)
(96.2176 2.51642 0.439931)
(97.7834 3.25112 0.419571)
(227.992 55.8673 -94.7051)
(91.3823 10.0588 -18.3876)
(174.295 -16.387 5.39069)
(127.679 -37.9445 16.0767)
(161.063 -10.2883 22.1274)
(135.215 -3.67008 15.3249)
(140.705 3.12912 11.1546)
(129.739 -0.373773 6.37987)
(135.034 -0.947093 4.17347)
(133.233 -1.46498 2.40715)
(136.268 -0.277772 2.00063)
(134.487 0.72998 1.71026)
(133.231 2.63141 2.59639)
(128.208 2.5781 3.11658)
(126.73 1.19902 3.38775)
(125.321 -0.592229 2.03161)
(126.904 -0.865183 0.667547)
(127.85 -0.433815 -0.984761)
(126.95 1.35659 -0.981979)
(121.495 2.67719 -0.342906)
(129.575 12.9783 -59.1296)
(-47.9782 -0.249776 19.7281)
(88.4278 -37.5058 11.2879)
(-20.8867 -30.3451 -4.83131)
(66.8851 -16.5362 0.405771)
(31.7847 -14.6051 -2.20524)
(73.7437 -5.90655 0.69143)
(64.4375 -5.28983 -1.55237)
(81.0715 -1.02006 -1.45351)
(77.6425 -0.835024 -2.37843)
(83.7019 0.752115 -1.89266)
(81.4519 0.832096 -1.78494)
(83.7792 1.51096 -0.729204)
(82.343 1.42099 -0.562724)
(83.3497 1.23555 -0.705256)
(82.0998 0.831112 -1.63384)
(82.7371 0.938953 -2.21064)
(82.7408 1.18167 -3.13722)
(82.1078 4.07334 -3.08735)
(81.5909 4.98159 -1.71725)
(297.455 99.3795 -67.4888)
(180.937 66.9844 2.10673)
(177.516 4.87475 23.6585)
(68.6167 -19.685 4.90874)
(102.1 -15.2139 4.3552)
(57.9244 -13.5515 -1.88416)
(80.2358 -6.32446 -1.45992)
(62.0392 -3.00865 -3.2625)
(73.6306 -0.125634 -2.14649)
(65.1245 2.01251 -2.66673)
(70.012 2.77641 -1.69066)
(65.1941 3.76879 -1.83034)
(66.8008 3.86981 -1.04871)
(63.6333 3.71783 -0.939779)
(64.2499 2.80554 -0.453901)
(62.6894 1.61944 -0.650412)
(63.2053 0.966052 -1.00919)
(63.4207 0.296235 -1.1789)
(62.5027 1.88798 -1.08492)
(64.1231 3.16972 0.196363)
(-16.4323 -82.0117 -58.1028)
(-115.298 8.42947 42.1371)
(80.3671 8.05529 -9.64082)
(-37.5239 -8.09972 2.39662)
(63.7987 -2.40778 0.823927)
(6.12378 -7.76784 -0.671362)
(56.8836 -2.70494 0.300074)
(34.5796 -2.43306 -1.0096)
(55.8712 0.0315702 -0.343505)
(47.3546 0.917817 -0.751974)
(55.14 2.01464 -0.224667)
(51.1211 2.98554 -0.475124)
(54.162 3.42606 -0.07098)
(52.0834 3.54093 -0.107641)
(53.5646 2.99104 -0.0108964)
(52.5392 2.15155 -0.140424)
(53.2741 1.23399 -0.0623502)
(54.002 0.64605 -0.167076)
(52.9553 1.69746 -0.227859)
(54.1674 2.95745 0.721075)
(104.862 -167.809 0.999294)
(-6.80736 -36.9847 -23.1667)
(112.783 -39.8973 -22.3564)
(12.7619 -21.3056 -1.80928)
(86.6495 -21.4014 0.100915)
(22.9565 -14.519 -0.32926)
(63.9835 -18.5479 0.658225)
(37.16 -4.05995 -0.382293)
(56.7931 -6.30431 0.446197)
(45.9825 2.03824 -0.128326)
(54.7598 0.687459 0.39373)
(50.037 4.66457 0.0515843)
(53.5203 3.41429 0.249605)
(50.9414 4.33814 -0.0310231)
(52.5962 2.61831 0.185664)
(51.2964 1.78001 0.0520449)
(52.0611 0.279256 0.185149)
(52.454 -0.343278 0.137816)
(51.0872 0.134781 0.163214)
(51.3877 1.54721 0.804261)
(97.0738 -83.5593 -26.38)
(-36.2693 -9.1604 -38.66)
(81.7831 18.8936 -32.07)
(-19.3508 -3.29667 -1.44069)
(74.4315 0.904681 2.64512)
(0.934862 -0.641707 0.408896)
(55.7693 -13.7937 1.1336)
(28.0699 -3.14555 -0.579387)
(46.2308 -6.18386 0.266118)
(40.1179 -0.260898 -0.601441)
(48.0788 -0.229734 -0.316967)
(47.4094 2.82674 -0.32523)
(50.7389 2.83481 -0.176767)
(50.4526 3.80327 -0.197361)
(51.7613 2.92029 -0.0301684)
(51.1964 2.16801 0.186102)
(51.6034 0.669349 0.52031)
(51.823 0.403733 0.391413)
(49.9311 0.937091 0.272396)
(49.282 1.98686 0.705716)
(61.6561 81.9726 20.15)
(-75.1494 -53.4186 9.79341)
(112.414 -17.978 -3.11494)
(-0.817582 -25.0363 7.55478)
(93.1556 -16.6823 0.870504)
(19.9821 -3.75346 0.135908)
(52.9153 -36.2408 -1.0061)
(19.6739 3.83466 -1.35406)
(37.2725 -15.6681 -1.76699)
(30.0375 0.684936 -0.787915)
(41.9332 -5.43119 -0.671341)
(41.0544 1.95569 -0.500617)
(46.9389 0.15378 -0.515565)
(46.4994 3.11778 -0.125486)
(48.6415 1.20801 0.140427)
(47.8997 1.50527 0.306996)
(48.3194 0.326429 0.558639)
(48.5379 0.242819 0.243129)
(46.8018 0.693468 0.176351)
(46.7135 1.51662 0.71319)
(105.491 69.3658 -26.9511)
(-140.945 -45.7859 33.2102)
(104.986 2.19744 -7.87124)
(2.04995 -10.5866 3.33237)
(85.7041 -15.4351 0.619934)
(22.2643 24.8427 0.228262)
(48.8141 -0.122178 1.1038)
(21.1045 -1.07482 -1.80484)
(34.0418 -4.072 -0.800948)
(31.1202 -10.5241 -0.823208)
(42.4823 -5.37462 -0.295816)
(44.2389 -3.7833 -0.0548711)
(49.0605 1.04987 -0.454673)
(48.8072 2.237 -0.276038)
(47.1151 1.01439 -0.0817813)
(48.0234 1.36722 0.596199)
(46.584 0.914176 0.607764)
(46.676 0.716257 0.280248)
(44.6684 0.649089 0.0820463)
(44.4814 1.22994 0.613987)
(455.226 -102.783 -160.871)
(-78.6641 -52.4913 -1.08242)
(133.012 -14.9497 -19.3585)
(10.0309 -14.9897 -2.23395)
(78.6205 -14.7557 -1.48657)
(41.1517 7.15355 -1.14433)
(64.0539 12.0058 0.848287)
(49.3299 -6.39327 -1.09605)
(52.2114 -6.7234 -0.911532)
(47.2473 -13.0867 -0.256683)
(49.8008 -11.0161 -0.214923)
(52.057 -6.28792 -0.606455)
(53.6915 -0.518256 -0.644839)
(53.869 1.724 -0.598481)
(54.0163 4.0295 -0.155949)
(49.7162 2.30748 0.354037)
(48.9636 2.26973 0.801353)
(47.5394 1.2997 0.432894)
(44.9601 0.545123 0.289704)
(44.3734 0.712557 0.738586)
(107.96 -146.017 -66.4006)
(-16.5244 -31.8876 -20.5738)
(119.588 -30.7348 12.8733)
(11.9143 -8.2148 -3.65606)
(78.1588 -14.1338 3.69861)
(40.8652 -0.597492 -3.45427)
(62.7401 4.55067 -0.63986)
(65.1555 -0.910992 -0.905728)
(59.7214 -2.47406 -2.07457)
(57.4814 -10.6742 -1.98113)
(57.4257 -16.3147 0.723676)
(59.4002 -10.4302 0.412865)
(60.7154 -3.22073 -0.212572)
(61.0928 0.605736 -0.21795)
(59.9788 3.12454 -0.248754)
(54.8204 5.15722 0.0778391)
(52.1057 4.23094 0.794328)
(49.8034 3.40978 0.532071)
(46.8283 1.68659 0.356033)
(45.8691 0.929475 0.718276)
(87.1329 -56.9707 184.931)
(-12.007 -3.38872 -3.98463)
(120.066 -1.25821 -2.55982)
(22.1236 0.430197 -2.22075)
(95.8037 -6.62326 9.88038)
(69.9613 -6.91706 2.19866)
(77.9395 -5.46237 0.891009)
(78.946 1.19857 -2.44339)
(79.8902 -0.37088 -4.89666)
(81.0322 -9.65511 -3.89194)
(72.8473 -15.5006 2.80897)
(64.5656 -10.15 1.65511)
(64.0402 -4.04677 0.425261)
(64.267 0.993767 -0.353624)
(62.1492 4.88437 -0.935432)
(56.7122 7.70532 0.00149617)
(54.4672 7.90419 0.665336)
(51.8012 5.50238 0.109305)
(48.3402 2.46963 -0.412516)
(46.9022 1.14307 0.314897)
(250.27 17.7075 127.643)
(41.3568 18.9432 -34.9387)
(129.625 -34.2582 -4.87581)
(38.4847 -17.4469 -4.37189)
(96.606 -27.0311 16.7409)
(65.9258 -18.3489 12.9785)
(88.9368 -15.2544 9.82478)
(97.0693 -1.92006 3.1088)
(91.8979 -0.435319 0.212993)
(83.6495 -4.26792 2.18853)
(67.0543 -1.54201 3.07122)
(56.6698 -4.59624 1.33913)
(53.149 -3.39894 -0.717243)
(54.4132 0.746023 -0.601093)
(57.0125 3.47173 -0.691763)
(55.0677 8.23842 -0.218504)
(56.7127 9.38088 0.134176)
(56.4304 8.74441 -0.490848)
(54.0002 4.97731 -0.714258)
(50.8795 1.7506 -0.163427)
(273.136 33.5255 27.0395)
(28.9874 26.8342 -13.4349)
(135.672 9.41497 -34.7799)
(89.6853 -1.30948 -17.4364)
(124.865 0.331023 -1.33205)
(86.2233 -22.9925 1.39693)
(98.2831 -17.4479 4.8531)
(68.1651 -4.14245 5.50446)
(68.4774 5.37997 2.23099)
(52.6177 6.20893 2.23492)
(50.8746 3.40205 0.740205)
(43.5826 -0.371951 0.2252)
(44.0448 -2.30538 -0.511445)
(42.954 -2.12372 -0.50896)
(45.0681 1.34881 -0.828625)
(51.676 4.28568 -0.45922)
(56.1515 7.85503 -0.342412)
(59.5686 7.27856 -0.554174)
(59.7089 6.30042 -0.0724842)
(57.4584 3.95058 0.352269)
(240.59 72.0365 87.1242)
(-67.1846 18.9334 20.3209)
(119.56 12.2926 10.5557)
(-3.42098 3.80234 -1.21593)
(84.4049 5.32344 -1.55888)
(23.9666 -3.46517 -2.68592)
(54.2467 25.2681 -1.25422)
(33.3338 2.80683 0.112973)
(47.2501 17.7257 0.46551)
(38.7849 5.57436 0.193759)
(45.0804 9.38954 -0.614768)
(40.7606 0.636803 -1.22173)
(42.9376 1.03102 -1.08824)
(41.023 -3.87087 -0.556513)
(42.7976 -3.23527 -0.102917)
(44.7388 -2.81335 -0.150257)
(49.8251 1.80066 -0.263203)
(53.733 3.34692 -0.306494)
(54.0833 5.20644 0.475462)
(53.7669 4.39382 1.19092)
(66.1424 -72.0912 -6.63854)
(-29.1597 7.89967 -7.19509)
(103.51 0.271789 -5.47866)
(27.4112 -0.837507 -1.41734)
(84.1725 -6.05348 0.429576)
(34.4669 -6.44868 -1.07107)
(63.0501 7.49761 1.73917)
(45.2864 7.54779 0.0504075)
(54.6763 13.9897 0.24896)
(48.1722 9.67768 -1.14315)
(53.0644 8.42603 -1.48529)
(50.4978 2.61115 -2.0677)
(52.0293 0.580029 -1.49169)
(49.4811 -2.53766 -0.340929)
(48.4538 -2.41138 1.03053)
(45.7133 -2.80314 0.944945)
(45.4725 -0.814886 0.130245)
(46.359 0.841623 -0.125702)
(45.7527 3.96945 -0.0439074)
(46.9283 3.81145 0.550416)
(56.5752 -72.5477 87.1406)
(-49.1133 -1.92877 -17.088)
(102.104 27.6932 -12.1002)
(25.2399 13.7198 -1.80614)
(92.5491 17.33 -2.75402)
(47.6276 9.12805 -2.14787)
(69.4565 17.7947 3.35229)
(46.2975 9.21547 0.601535)
(58.1913 15.4262 1.15951)
(49.3087 7.37111 -1.05977)
(56.5915 7.98068 -0.609622)
(52.7956 1.6971 -0.999405)
(55.6499 1.43228 -0.243081)
(52.5223 -0.978421 0.144138)
(52.8261 0.508209 1.1359)
(50.207 0.19799 1.16162)
(49.4023 1.30225 1.00567)
(48.941 1.48234 0.358109)
(47.5134 2.71839 0.274936)
(49.5263 2.6469 0.680933)
(22.746 -49.9526 -116.573)
(-95.7998 -10.9113 -18.8752)
(79.4224 -37.4238 -20.0108)
(12.8326 -11.5465 -5.93926)
(82.1697 0.449606 -2.88841)
(44.8938 3.5187 -1.65469)
(70.7403 17.7979 1.7282)
(50.9653 13.7887 0.566243)
(63.6617 16.0231 0.887844)
(54.4262 9.3305 -0.275581)
(60.8536 7.28742 0.145317)
(56.0152 2.71428 0.112586)
(58.2423 1.62972 0.713237)
(54.9437 0.0327909 0.798414)
(55.5548 0.649885 1.15575)
(54.1538 0.547784 0.881284)
(54.5157 0.993923 0.927204)
(54.9321 1.17733 0.70769)
(53.7906 1.60598 0.71164)
(55.7417 1.3846 1.05136)
(-31.7232 33.52 73.7121)
(-135.195 -21.9713 -9.12416)
(52.6748 -52.2823 -23.5997)
(-33.1525 -4.29604 -4.38285)
(62.7397 4.138 -5.05538)
(12.7306 7.83274 -3.24082)
(58.4375 17.2061 -0.254499)
(38.3559 12.2724 -0.468017)
(60.2614 14.2008 1.55659)
(52.0611 8.48207 0.740652)
(61.6106 7.4786 1.51877)
(57.4044 3.79838 1.07337)
(60.9483 3.15798 1.27374)
(58.209 1.49546 0.938542)
(59.5972 1.48227 1.07021)
(58.4403 0.79269 0.80781)
(59.26 0.79076 0.785186)
(59.7363 0.715265 0.579384)
(58.7382 0.667864 0.695074)
(60.7507 0.813293 1.06954)
(247.825 4.5412 136.353)
(24.2512 -59.8026 0.123916)
(84.3125 -85.4964 -27.8174)
(5.10657 -34.0683 -12.8945)
(63.5635 -25.3069 -6.85477)
(25.2945 -5.63703 -1.62155)
(61.1565 -0.925773 2.00448)
(46.3395 4.5891 1.30711)
(65.6292 6.14264 1.77813)
(58.5892 5.43904 0.790662)
(67.4437 4.47445 1.07216)
(63.7976 3.0034 0.599016)
(67.5726 2.00268 0.886465)
(65.5851 1.27171 0.761622)
(67.2243 0.866032 0.924291)
(66.2201 0.599471 0.68933)
(66.9354 0.372547 0.587089)
(66.9589 0.337145 0.220352)
(65.4671 -0.0860242 0.15811)
(66.2317 -0.191681 0.175519)
(266.84 60.7328 29.1734)
(212.01 31.4069 -58.0125)
(174.414 -44.8111 -62.885)
(81.7316 -17.1753 -28.7593)
(98.571 -3.98877 -7.03251)
(69.8653 -0.846027 0.445705)
(85.3488 -1.79959 6.83099)
(69.1405 -0.0259582 4.43394)
(82.3305 1.90144 4.77097)
(77.6144 2.59605 2.76932)
(86.3466 2.60358 2.3239)
(85.3768 2.24989 1.05351)
(89.482 1.86304 0.763156)
(88.7695 1.6555 0.300088)
(90.3696 1.55416 0.387531)
(89.9178 1.56809 0.407395)
(90.7713 1.61545 0.632588)
(91.3546 1.78243 0.698717)
(90.4497 1.91811 0.808429)
(92.9855 1.79799 0.800437)
(496.371 -23.4457 -37.5356)
(254.348 -3.99099 -7.2793)
(205.506 17.4392 44.5146)
(109.819 3.58012 27.8915)
(138.896 16.316 28.5062)
(116.424 7.91002 16.1259)
(129.638 8.69937 10.9446)
(120.871 4.60826 5.07138)
(125.507 5.06793 2.93378)
(119.524 4.83612 1.03718)
(118.653 5.75833 1.14049)
(111.903 5.55338 1.08278)
(109.632 4.85052 2.52057)
(105.065 3.66314 2.52287)
(105.4 2.98499 2.05154)
(103.907 2.39004 1.06619)
(103.386 2.63395 -0.705265)
(100.231 2.7 -1.63306)
(95.219 4.62137 -0.0481169)
(87.6862 4.0744 0.188653)
(40.9375 -22.0572 -143.493)
(-100.208 -4.50363 -23.4095)
(68.2203 -20.1244 -9.50933)
(-35.2034 -15.28 -8.93822)
(63.9543 -3.36077 -3.84569)
(25.2023 -3.83689 -4.53224)
(69.2537 3.60943 -2.35064)
(56.3542 2.49245 -4.32093)
(73.0856 5.55876 -3.60199)
(67.0012 4.27314 -3.99789)
(72.4427 4.92192 -2.61245)
(68.4057 4.01508 -2.06952)
(70.3721 4.2053 -0.773723)
(68.2414 3.61976 -0.754121)
(69.3736 3.28947 -0.893969)
(67.8152 2.64182 -1.78887)
(68.1387 2.79866 -2.2305)
(67.0952 2.5188 -2.8761)
(64.8976 4.48921 -2.46603)
(62.6912 4.15319 -1.07451)
(128.749 7.45326 -34.3598)
(2.66909 0.234304 6.9291)
(119.012 -1.93018 23.3796)
(30.0696 -10.5544 2.65558)
(88.1202 -5.25466 3.51722)
(42.112 -4.57654 -2.67376)
(69.6053 0.232072 -1.34391)
(48.5517 2.17196 -3.41786)
(61.6189 3.51618 -2.03209)
(50.801 4.71445 -2.66648)
(56.4708 4.54728 -1.48331)
(50.6592 4.95024 -1.65071)
(53.127 4.47481 -0.827835)
(50.1119 4.05212 -0.883326)
(51.6043 3.07697 -0.450215)
(50.408 2.01938 -0.635738)
(51.2335 1.48325 -0.837452)
(51.2411 0.91649 -1.01216)
(50.1738 2.41614 -0.800093)
(50.4132 2.75907 0.377931)
(-45.3573 -123.564 89.5624)
(-116.737 -16.2609 26.2651)
(60.9426 -3.38236 -13.5738)
(-49.2017 -2.89277 2.65164)
(52.8472 3.19923 -0.480459)
(-5.2143 -1.43189 -0.334361)
(48.3888 2.14704 -0.358795)
(23.7057 1.37242 -0.921456)
(46.3767 2.54733 -0.399414)
(36.0509 2.8301 -0.815426)
(44.5344 3.07954 -0.234814)
(39.7292 3.53956 -0.5095)
(43.4169 3.394 -0.0322894)
(41.2387 3.22449 -0.153129)
(43.2099 2.50421 -0.0153175)
(42.3074 1.77615 -0.136771)
(43.2615 1.12616 -0.0698276)
(43.8529 0.803601 -0.222498)
(42.943 1.86011 -0.25072)
(43.2485 2.56019 0.735811)
(176.92 -226.68 -34.9244)
(65.1174 -78.8449 -9.18602)
(114.669 -49.7679 -12.6224)
(8.69228 -18.3713 -0.349138)
(76.0824 -14.7368 -0.50158)
(11.4335 -7.97241 0.335287)
(55.4596 -12.7354 0.578369)
(26.2304 0.816518 -0.045132)
(47.1285 -3.24795 0.387011)
(34.2129 4.32304 -0.142839)
(43.5744 1.53599 0.390572)
(37.9001 5.17898 -0.144043)
(41.9969 3.10071 0.180662)
(39.2945 3.91432 -0.094214)
(41.3809 2.01195 0.145552)
(40.3003 1.38771 0.0239794)
(41.2887 0.304821 0.197287)
(41.8652 0.0765532 0.0769567)
(40.8711 0.730434 0.0309179)
(40.8077 1.74107 0.803958)
(157.701 -209.843 -4.0439)
(43.4142 -38.0092 -21.5198)
(74.301 18.0228 -22.7041)
(-31.2902 1.18206 0.286554)
(62.1128 6.77437 1.40521)
(-12.0011 3.89867 1.02659)
(47.5212 -8.8556 0.280122)
(17.9725 2.21043 -0.596239)
(37.5384 -2.59811 -0.0242995)
(29.5962 2.95983 -0.496569)
(37.8142 1.45088 -0.296568)
(36.0228 3.75817 -0.404115)
(39.2598 2.57451 -0.287833)
(38.5708 3.17733 -0.208653)
(39.9165 1.94706 -0.0552659)
(39.473 1.3694 0.14189)
(40.1693 0.506243 0.394302)
(40.9102 0.569269 0.243668)
(39.6415 1.14275 0.103338)
(39.0807 1.86455 0.758533)
(182.501 -217.865 -32.2827)
(-33.1619 -55.9523 3.64999)
(98.1616 -16.1111 -12.7624)
(-17.0302 -19.6491 7.30439)
(82.7893 -9.90808 -0.333105)
(6.60339 0.146931 0.279115)
(43.9058 -32.2268 -0.933732)
(10.507 7.94912 -0.90493)
(29.804 -12.8418 -1.53672)
(21.906 3.55627 -0.414704)
(33.5045 -3.859 -0.688936)
(31.3474 3.17654 -0.341287)
(36.965 0.260657 -0.339279)
(35.9915 3.00849 -0.147325)
(38.1366 0.730892 0.136442)
(37.4641 1.1428 0.246848)
(38.2581 0.224378 0.446359)
(38.8938 0.385195 0.167591)
(37.7006 0.845704 0.0288442)
(37.4735 1.45073 0.768395)
(161.338 148.902 -115.642)
(-29.6713 2.48748 -8.13682)
(96.8493 -0.0128503 -20.9585)
(-5.18467 -5.65709 1.59177)
(76.1891 -9.47041 -0.441491)
(10.2486 28.4806 0.229592)
(38.1571 -2.72398 0.554995)
(13.3014 4.07962 -1.66962)
(26.5703 -5.45662 -0.961797)
(23.72 -5.7521 -0.732235)
(34.4676 -3.46491 -0.387204)
(35.1397 -1.17191 -0.0124949)
(39.5541 1.44529 -0.361113)
(38.7795 2.48226 -0.0919854)
(36.8939 0.55336 0.357221)
(38.1253 0.92957 0.609496)
(37.3056 0.688936 0.562731)
(38.0986 0.662991 0.235944)
(36.6553 0.656982 -0.0155942)
(36.3378 1.1048 0.715992)
(107.236 2.85658 -145.951)
(-25.4268 -17.2277 37.7701)
(94.0687 3.78632 -11.5091)
(-1.44044 -8.62209 2.09094)
(64.6661 -8.47519 -1.54051)
(26.6892 15.2195 -0.701435)
(46.5399 10.9043 1.08293)
(34.4325 -5.42581 -0.967562)
(39.4413 -7.15809 -1.09228)
(36.593 -10.6504 -0.314348)
(41.0772 -7.89989 -0.174114)
(42.6984 -3.95386 -0.570629)
(44.2532 0.205021 -0.64453)
(44.122 1.88048 -0.429744)
(43.5088 3.72925 0.114081)
(38.9892 1.66471 0.810302)
(39.1584 1.55751 0.905048)
(38.8301 0.908666 0.410014)
(37.1689 0.401736 0.201838)
(36.6847 0.57941 0.82379)
(153.4 -159.181 -49.2206)
(-39.1024 -37.9276 -25.3174)
(115.977 -13.0392 10.5576)
(-8.77597 -5.4539 -4.208)
(65.5786 -12.1583 2.38882)
(26.1955 1.5094 -2.90716)
(50.4425 5.39902 -0.159799)
(54.0466 -1.82998 -1.10619)
(50.4154 -5.02215 -2.37717)
(47.5331 -11.4754 -1.69337)
(48.373 -12.6491 0.788977)
(50.8367 -7.12793 0.511931)
(51.577 -1.77771 -0.120528)
(50.9215 1.07304 -0.209278)
(48.4522 3.82938 -0.00757942)
(42.7009 4.28408 0.708987)
(41.0668 3.01948 0.885447)
(40.4597 2.29123 0.458233)
(38.5871 1.00812 0.258778)
(37.9437 0.575431 0.814308)
(122.312 194.104 39.7626)
(-61.323 3.58907 -21.7495)
(110.739 4.69009 -12.1342)
(-3.9231 2.23357 -3.63157)
(77.3049 -5.87614 6.51427)
(49.0269 -7.40936 1.82276)
(61.2389 -7.27276 2.22093)
(65.6885 -2.79865 -1.74913)
(65.4042 -4.82299 -4.65603)
(61.7844 -12.3425 -0.00863953)
(58.8636 -13.2212 0.782044)
(57.5771 -7.37662 0.758847)
(56.2575 -1.40111 -0.125764)
(54.496 2.28583 -0.751696)
(50.7127 5.34434 -0.836784)
(44.1221 6.4745 0.739078)
(43.1046 5.60301 0.871001)
(41.8706 3.31568 0.047312)
(39.5396 1.2269 -0.322683)
(38.5427 0.456757 0.569089)
(513.438 -44.2191 6.60849)
(30.4906 -37.622 -11.1541)
(135.832 -47.281 -6.14583)
(-3.05671 -7.83178 -4.07602)
(71.6035 -18.3678 13.0837)
(38.2477 -12.0486 10.8713)
(69.1588 -13.4491 9.97979)
(76.3164 -3.73596 3.25869)
(71.195 -3.37526 0.540297)
(62.1727 -4.30824 2.52867)
(52.9387 -2.63533 3.21653)
(47.9043 -2.77927 0.852457)
(46.7445 -0.634141 -1.06682)
(47.7586 2.33126 -0.893953)
(48.631 4.44945 -0.851267)
(44.6462 7.33334 0.17715)
(46.1209 6.94783 0.327611)
(45.8765 5.31874 -0.431403)
(43.4495 1.69458 -0.473095)
(40.9306 0.354613 0.145573)
(197.021 -40.7354 159.052)
(114.028 67.7686 3.14545)
(152.149 23.2876 -38.6194)
(78.0645 12.6764 -20.8159)
(103.164 9.90472 -4.53677)
(61.2647 -16.5862 -0.379668)
(74.5936 -8.6249 4.2914)
(49.2432 -0.218262 4.20058)
(52.0702 4.60378 2.12048)
(39.9903 4.17672 2.28429)
(41.0052 2.28232 0.750004)
(35.6868 -0.463235 -0.0629506)
(37.4727 -1.24467 -0.650604)
(36.8033 -0.707256 -0.692688)
(38.0878 2.76594 -0.41886)
(43.4781 4.06611 -0.222266)
(46.3969 5.47558 -0.183178)
(48.252 4.26048 -0.312256)
(47.4141 3.39187 -0.0192039)
(44.65 1.52825 0.458739)
(85.6608 -51.5086 103.171)
(-53.2817 32.4108 24.5584)
(97.3004 26.2606 1.60632)
(-14.7264 12.3273 0.858786)
(73.7279 10.7036 -1.74089)
(9.87542 -0.038927 -2.03433)
(42.4318 27.0966 -1.33988)