/*--------------------------------*- C++ -*----------------------------------*\
  =========                 |
  \\      /  F ield         | OpenFOAM: The Open Source CFD Toolbox
   \\    /   O peration     | Website:  https://openfoam.org
    \\  /    A nd           | Version:  10
     \\/     M anipulation  |
\*---------------------------------------------------------------------------*/
FoamFile
{
    format      ascii;
    class       volVectorField;
    location    "9.2";
    object      U_0;
}
// * * * * * * * * * * * * * * * * * * * * * * * * * * * * * * * * * * * * * //

dimensions      [0 1 -1 0 0 0 0];

internalField   nonuniform List<vector> 
12920
(
(95.6811 18.1351 46.4458)
(97.8663 -49.1057 -12.2585)
(214.105 -48.1277 9.874)
(173.79 -63.7057 10.7843)
(200.192 -25.4306 10.1393)
(167.644 -8.25995 6.58698)
(166.418 4.2698 4.47273)
(150.804 -0.279575 2.99184)
(154.339 -2.6361 2.2022)
(153.125 -4.95269 1.4953)
(157.708 -4.54822 1.25414)
(159.054 -2.91472 1.03404)
(159.371 0.885032 1.34578)
(154.665 2.00521 1.75537)
(149.191 -1.1326 1.71988)
(147.881 -6.70701 1.31347)
(151.512 -8.67966 0.087713)
(159.402 -10.0653 -0.645118)
(167.625 -5.87775 -0.224547)
(171.069 -2.79206 0.279208)
(225.008 -188.112 -8.72873)
(47.1422 -72.7756 -8.01441)
(120.385 -48.5405 -4.1275)
(15.5593 -43.0069 -6.07879)
(89.0681 -31.2927 0.772101)
(57.8088 -28.5682 0.225981)
(96.7268 -19.3812 1.47137)
(90.0873 -17.6855 0.135359)
(106.346 -12.8601 -0.0904052)
(104.498 -11.2166 -0.625614)
(110.465 -8.47404 -0.50456)
(108.892 -7.05008 -0.568474)
(111.379 -5.54322 -0.270169)
(110.85 -4.7254 -0.288513)
(112.235 -4.45787 -0.486173)
(111.284 -4.27695 -1.12994)
(111.789 -4.32826 -1.54738)
(112.54 -3.80707 -2.25121)
(114.446 0.901519 -2.32701)
(122.504 5.62218 -1.63153)
(219.449 -111.346 21.4626)
(158.1 13.2051 -26.8004)
(189.341 -4.80492 -13.8903)
(99.9965 -36.8097 -6.00539)
(129.663 -31.7939 -1.29973)
(90.2111 -28.1614 -1.71666)
(109.307 -18.4258 -1.06375)
(94.2362 -12.7273 -1.89187)
(104.903 -7.74976 -1.53694)
(99.1181 -3.66725 -1.79063)
(103.782 -1.23354 -1.37509)
(100.206 1.03637 -1.40145)
(101.034 2.04782 -0.947642)
(97.3316 2.77145 -0.800334)
(95.9932 1.6712 -0.283441)
(91.4651 0.498616 -0.38175)
(91.0578 -0.141376 -0.755897)
(90.8289 -1.0197 -0.82247)
(90.1934 0.536181 -0.787742)
(97.8383 3.27184 -0.142546)
(219.754 -435.923 -137.97)
(-138.638 -13.5647 22.0051)
(119.688 1.49048 -9.5024)
(1.5664 -23.2897 0.0063095)
(93.9914 -16.9498 0.913478)
(39.2501 -20.0053 -0.187624)
(83.1317 -12.8818 0.705941)
(63.1674 -10.0785 -0.433705)
(82.3994 -5.61953 -0.00685276)
(75.5703 -3.20631 -0.310085)
(82.6633 -0.755929 -0.0584513)
(79.3999 1.34066 -0.225743)
(81.8677 2.91083 -0.0508331)
(79.6954 3.8226 -0.0290496)
(80.4807 3.71333 0.00476957)
(78.7531 2.94826 -0.0675676)
(79.0366 1.36549 0.00198024)
(79.3261 0.171415 -0.0262476)
(78.089 0.976847 -0.0161467)
(83.6824 2.92024 0.358124)
(87.535 -208.639 -92.9732)
(-27.8462 -59.1605 -3.1946)
(154.819 -57.8585 -15.0405)
(57.8665 -37.5749 -1.78535)
(119.402 -35.4556 0.873213)
(55.745 -26.8068 -0.611811)
(90.0954 -29.3032 0.370591)
(65.4998 -13.6816 -0.397482)
(83.5613 -13.4007 0.238141)
(75.3705 -3.42411 -0.051658)
(83.6831 -2.66302 0.292542)
(80.3312 2.29669 0.168445)
(83.3624 2.40803 0.218304)
(80.8669 3.99299 0.0737996)
(81.9427 2.86502 0.151017)
(80.3315 2.21283 0.0468929)
(80.6579 0.0858871 0.0925904)
(80.1749 -1.27005 0.146404)
(78.3004 -1.2593 0.212333)
(81.7782 0.266993 0.423948)
(-41.3447 -64.9574 -56.8633)
(-59.9212 5.43192 -21.3943)
(120.253 12.2883 -11.1242)
(38.2795 -10.3232 0.202877)
(108.276 -6.60481 3.78771)
(38.992 -9.66218 0.20261)
(82.9959 -21.9706 1.11514)
(57.7371 -12.9669 -0.540907)
(73.0857 -14.1933 0.036472)
(68.4241 -7.95343 -0.427932)
(76.2885 -6.28163 -0.208787)
(76.9375 -0.834523 -0.257418)
(81.7916 1.32938 -0.149579)
(82.0812 3.8076 -0.169307)
(83.3857 3.72356 -0.0924771)
(82.9112 3.52528 0.0621745)
(82.5309 1.45163 0.396003)
(80.6136 -0.0526553 0.3869)
(77.5286 0.366622 0.291372)
(79.5099 1.70669 0.364641)
(191.025 233.632 23.987)
(-27.7645 -49.6142 25.3654)
(163.914 -31.5313 -0.785389)
(27.8016 -36.0631 5.73082)
(122.345 -27.0725 0.575792)
(50.0828 -11.5472 -0.40133)
(81.7605 -43.5859 -0.951204)
(48.0717 -3.24598 -1.28043)
(63.2598 -20.9452 -1.21838)
(56.1094 -4.85282 -0.530305)
(67.9303 -9.66124 -0.624056)
(68.0245 -1.41327 -0.432869)
(74.6476 -1.55292 -0.405428)
(74.9668 2.647 -0.106385)
(77.1569 1.75671 0.0580223)
(76.2559 2.17994 0.185873)
(76.0728 0.692258 0.406272)
(74.7931 -0.0298641 0.250464)
(72.2279 0.155166 0.214003)
(75.4205 1.08897 0.392072)
(280.118 -143.947 -111.37)
(-43.7988 -86.0935 -3.66767)
(145.564 -34.4943 1.85333)
(33.9183 -27.0009 1.5932)
(115.687 -30.605 0.554159)
(52.2333 16.5594 -0.153131)
(77.6442 -2.0088 0.15441)
(43.0175 -10.5645 -0.246947)
(58.1091 -2.61444 -0.102519)
(54.6179 -19.7478 0.123977)
(67.9958 -12.3135 0.178054)
(70.5318 -12.0212 0.340515)
(76.1898 -3.751 0.0453769)
(76.4457 -1.49043 -0.0178407)
(74.7671 1.72827 0.144364)
(74.7952 2.45127 0.510174)
(71.9797 1.53477 0.457641)
(70.3877 0.792988 0.224481)
(67.7418 0.494699 0.1138)
(71.0691 1.17132 0.308588)
(164.502 -52.2059 216.451)
(-49.8945 -53.8011 -30.3439)
(148.36 -39.2734 1.56566)
(48.4225 -28.6674 -2.10759)
(112.993 -28.3862 0.288445)
(65.9484 -7.80638 -0.852086)
(95.0455 8.23357 -0.28139)
(81.9696 -11.8665 -0.679303)
(87.0317 -7.43678 -0.272227)
(78.5182 -17.5775 0.152118)
(75.7333 -16.7686 0.201794)
(78.5852 -12.453 -0.023455)
(80.5131 -4.55325 0.047357)
(80.6929 -0.753771 -0.0876155)
(80.7175 1.78411 0.140196)
(76.9582 2.91373 0.397966)
(75.0276 3.31699 0.591617)
(71.3327 1.86859 0.357607)
(67.4815 0.68139 0.236586)
(69.9283 0.870673 0.388806)
(190.435 235.868 39.4726)
(81.322 14.4029 2.51446)
(160.251 -34.111 9.25725)
(67.8988 -14.6181 -0.581128)
(116.037 -17.093 2.46619)
(64.4445 -0.364387 -1.758)
(83.2368 0.928372 0.696415)
(83.2498 -3.41628 -0.448592)
(79.6874 -1.36952 -0.339924)
(80.4971 -9.49787 -0.595827)
(84.1468 -21.0735 0.234655)
(82.2531 -14.0189 0.145494)
(84.3931 -4.43973 -0.0983172)
(87.0035 1.34211 -0.058966)
(87.8435 2.47882 0.0398998)
(82.2596 4.95737 0.144538)
(79.3918 5.44641 0.537876)
(74.3617 4.8575 0.464406)
(69.7872 2.56115 0.328503)
(71.5739 1.417 0.389302)
(125.915 -7.35751 13.5947)
(28.3124 -26.7513 -6.27513)
(164.761 -10.1715 -8.80348)
(87.2431 -5.35761 -2.51664)
(139.393 -7.80131 7.96267)
(89.5948 0.157989 -0.159776)
(99.5933 3.263 -0.301862)
(102.465 8.31915 -1.35712)
(107.408 6.66669 -1.47434)
(120.851 -2.19989 -1.55599)
(112.805 -17.1378 0.738565)
(89.0495 -11.7637 0.336234)
(85.976 -8.09526 0.289546)
(86.3451 -0.406009 0.0483642)
(85.3486 3.53584 -0.314164)
(81.749 7.11199 0.0401232)
(79.6361 9.177 0.379441)
(75.4993 7.6785 0.234868)
(70.9382 3.83503 -0.242324)
(72.7964 1.97475 0.0513936)
(94.0294 -18.0841 -36.7861)
(33.37 15.53 -48.9413)
(164.851 -47.1843 -20.0442)
(111.021 -37.6073 -5.86297)
(151.891 -42.0031 10.0874)
(77.5459 -15.2682 4.06987)
(100.192 -9.45953 1.06299)
(122.556 8.38591 -0.184874)
(127.429 10.0945 -0.204405)
(125.658 -0.790013 0.804646)
(99.6302 1.55564 0.644951)
(84.3999 -5.15197 0.335396)
(73.5399 -7.86116 -0.150623)
(76.6102 -0.980572 -0.110346)
(79.0742 2.11148 -0.000651256)
(79.1545 6.66375 0.141533)
(80.5413 10.4337 0.322362)
(79.321 11.2828 -0.203164)
(77.1936 9.25234 -0.539603)
(78.3983 4.31538 -0.429056)
(169.243 10.0223 -61.6574)
(58.4414 22.6082 -12.3689)
(173.958 0.84281 -12.5496)
(155.413 -16.0066 -7.42678)
(186.028 -15.6853 0.506602)
(142.118 -35.8216 2.08977)
(143.599 -27.8127 -0.287886)
(101.47 -9.85632 1.27764)
(101.384 6.77803 0.552405)
(84.2216 8.5419 0.471511)
(79.7105 6.14231 0.0891339)
(70.1275 0.823743 0.284651)
(67.3733 -3.637 -0.0274397)
(64.1222 -4.72001 -0.0573999)
(66.3392 -2.08931 -0.315539)
(73.3468 1.24284 -0.220082)
(79.8123 8.99274 -0.139296)
(85.1114 11.0161 -0.448429)
(87.6429 10.5511 -0.161362)
(90.4337 8.10825 -0.0420636)
(256.172 127.982 255.278)
(74.6292 48.1846 -6.54932)
(139.226 19.8423 17.3724)
(32.0479 -4.6302 -0.914925)
(108.532 -4.04199 0.21977)
(53.6679 -13.478 -1.99793)
(83.7581 18.3574 -0.442146)
(64.688 2.2571 0.0574738)
(76.3854 18.9575 0.453175)
(67.2201 9.43847 0.114286)
(72.2357 12.8722 -0.435347)
(67.9241 3.94898 -0.870115)
(70.1875 2.70532 -0.876231)
(67.8605 -3.62604 -0.617105)
(68.3885 -4.95385 -0.0246004)
(68.508 -5.17965 0.0584486)
(73.0285 -0.154866 -0.262839)
(80.1509 4.12197 -0.358852)
(82.4234 7.40187 0.167397)
(85.9554 6.87204 0.501059)
(81.0279 -68.1243 96.7103)
(-8.64251 -0.344276 8.08838)
(131.03 2.51944 -0.334542)
(65.7854 -10.2134 0.367003)
(118.889 -15.5851 1.13684)
(74.3521 -15.0185 -0.180852)
(94.9259 -2.52443 0.984871)
(77.6315 3.74049 -0.0501327)
(84.3336 13.4211 0.0463802)
(78.4981 12.8118 -0.773041)
(83.577 12.4853 -1.17372)
(83.1225 7.73279 -1.77539)
(87.4408 4.13735 -1.59136)
(86.4354 -0.378718 -0.520029)
(81.8328 -1.9832 0.780709)
(72.4583 -4.02112 0.76325)
(69.4324 -0.82697 -0.0277027)
(69.1853 1.41454 -0.156001)
(68.8066 5.94617 -0.0554968)
(73.7926 6.28783 0.178839)
(68.8096 -108.333 24.0829)
(-66.795 -34.5767 -5.07999)
(131.838 -3.01345 -7.82826)
(57.0005 -12.2586 -0.946409)
(130.092 -0.135712 -0.812531)
(101.024 1.90096 -0.592992)
(114.503 13.9887 1.87211)
(88.9439 10.647 0.665154)
(92.3733 18.2125 0.564236)
(83.0755 13.3674 -0.814241)
(89.0767 14.6484 -0.805977)
(86.9542 9.07888 -0.987526)
(90.1831 7.29837 -0.484223)
(87.861 3.71655 -0.171928)
(85.6728 4.51127 0.881584)
(78.2185 2.88468 0.947294)
(73.7695 3.50238 0.654066)
(71.3732 3.75254 0.207197)
(69.4067 5.55678 0.159641)
(75.0977 5.88019 0.248565)
(79.4726 -326.131 -61.9093)
(-126.881 -47.8068 -11.8438)
(112.894 -72.1834 -13.5129)
(39.8406 -42.6619 -4.1052)
(111.981 -27.0908 -2.95409)
(84.6925 -14.6006 -1.59274)
(107.436 9.31953 0.603269)
(89.0746 14.8494 0.422994)
(96.6786 21.4996 0.513773)
(87.6841 17.6455 -0.118975)
(92.6491 15.6283 0.0419506)
(88.3343 10.716 0.0154785)
(89.9712 6.87852 0.464134)
(85.5034 3.9002 0.659148)
(84.2779 3.44676 0.898965)
(81.0445 2.61331 0.680453)
(80.2471 2.89526 0.615462)
(79.3427 2.92903 0.529246)
(77.5647 3.86071 0.532049)
(83.2614 3.97347 0.504278)
(103.456 -75.6091 49.0074)
(-100.807 -25.451 4.01987)
(105.888 -52.1222 -15.0424)
(1.46194 -15.5445 -3.047)
(91.3097 -7.91022 -3.33326)
(46.1501 -1.23518 -2.53489)
(87.6997 12.4231 -0.650771)
(71.8018 13.6384 -0.360683)
(90.4708 19.0342 0.837272)
(83.4334 15.4111 0.643481)
(91.0989 14.1212 1.0404)
(87.1436 9.75963 0.896685)
(89.5086 7.70231 0.918234)
(86.1185 5.07999 0.760805)
(86.4111 4.04807 0.787353)
(84.5057 2.69221 0.613008)
(84.7867 2.21963 0.565933)
(84.7834 1.81004 0.467771)
(83.6385 1.72888 0.569633)
(89.3965 2.00533 0.611524)
(37.9244 -8.668 -3.90233)
(-98.6956 -64.0343 -24.3934)
(97.8697 -71.0437 -37.0911)
(32.9974 -39.2101 -12.4094)
(95.5936 -37.5644 -5.38841)
(57.8533 -14.9932 -1.10502)
(87.7517 -5.15208 0.79792)
(73.9847 5.53223 0.355742)
(91.6546 9.7609 0.543588)
(85.5845 9.90237 0.248045)
(93.5222 8.6195 0.448826)
(90.2352 6.28327 0.405048)
(93.4756 4.14601 0.600426)
(91.6367 2.40158 0.675691)
(93.0067 1.28561 0.783527)
(91.9716 0.620113 0.704368)
(92.4205 0.135789 0.576923)
(92.0144 -0.0350357 0.342486)
(90.261 -0.488078 0.186914)
(94.2976 -0.516461 0.0719577)
(200.485 -17.2627 161.858)
(9.59048 -10.1872 56.9543)
(110.869 1.16509 -9.25006)
(118.383 23.2038 -5.01395)
(151.332 17.6224 0.561108)
(126.211 5.52626 1.93189)
(123.061 -3.85768 4.42549)
(96.804 0.646319 2.83166)
(104.01 5.58329 2.59807)
(98.4476 7.68373 1.63571)
(107.402 7.47618 1.26493)
(108.023 5.48776 0.464236)
(113.99 3.37508 0.187262)
(114.287 1.06501 -0.121917)
(116.335 -0.110597 -0.044352)
(115.213 -0.528275 0.00243771)
(115.072 -0.0773212 0.211919)
(113.833 1.01197 0.333804)
(112.039 2.50742 0.460404)
(117.002 3.28615 0.439082)
(238.118 69.7283 -93.9043)
(105.613 6.72748 -10.5256)
(190.431 -19.5142 7.69583)
(143.561 -39.5342 17.2192)
(174.846 -11.0614 22.5945)
(149.787 -3.91961 15.5193)
(155.324 2.62031 11.208)
(144.675 -0.682262 6.36728)
(150.077 -1.22832 4.13802)
(148.395 -1.62148 2.37309)
(151.446 -0.367896 1.96455)
(149.657 0.709871 1.70581)
(148.412 2.63306 2.63121)
(143.397 2.55531 3.11277)
(141.962 1.16771 3.37584)
(140.569 -0.605064 2.01857)
(142.197 -0.86428 0.612566)
(142.907 -0.408739 -0.988431)
(142.155 1.44894 -0.873474)
(140.189 2.7323 -0.259275)
(132.621 12.2275 -38.485)
(-47.4662 -5.2132 23.6165)
(103.427 -39.5957 11.8012)
(-4.7783 -32.5162 -5.2964)
(80.9726 -17.8704 1.51808)
(47.5323 -15.3101 -1.947)
(88.8153 -6.45433 1.04124)
(79.8462 -5.57748 -1.44686)
(96.2563 -1.30928 -1.41678)
(92.92 -1.00451 -2.39062)
(98.959 0.633556 -1.89906)
(96.7105 0.7674 -1.78959)
(99.0575 1.48296 -0.715423)
(97.6096 1.41338 -0.564073)
(98.6088 1.23007 -0.711518)
(97.3446 0.835996 -1.66039)
(98.0236 0.93947 -2.25129)
(97.839 1.2418 -3.13301)
(97.3678 4.21748 -2.94218)
(100.258 5.07734 -1.61344)
(318.517 96.1679 -43.2748)
(196.664 60.4372 3.17629)
(195.39 -0.992036 24.9019)
(83.9637 -24.1146 4.66476)
(117.173 -18.1818 4.41802)
(73.4248 -15.4328 -1.8039)
(95.4905 -7.69184 -1.23877)
(77.3216 -3.90462 -3.18614)
(88.8225 -0.773801 -2.03225)
(80.4312 1.64491 -2.68122)
(85.2852 2.56696 -1.71127)
(80.4482 3.6665 -1.84584)
(82.0804 3.82395 -1.02995)
(78.9052 3.70411 -0.943963)
(79.5067 2.80383 -0.446112)
(77.93 1.62746 -0.649652)
(78.5035 0.972225 -1.01194)
(78.56 0.355748 -1.15065)
(77.7574 2.00257 -0.88839)
(82.7064 3.24922 0.413727)
(-21.3887 -104.037 -70.2216)
(-112.697 2.01695 38.2077)
(96.8173 3.63065 -10.4623)
(-19.1708 -12.0784 2.14206)
(80.0341 -5.0403 0.144592)
(23.4735 -9.63865 -0.717273)
(72.8283 -4.16741 0.519364)
(50.7133 -3.46733 -1.0314)
(71.5614 -0.750641 -0.119038)
(63.0706 0.478888 -0.704385)
(70.6624 1.74685 -0.0915857)
(66.5506 2.88842 -0.466632)
(69.5507 3.40117 -0.0358936)
(67.4188 3.55224 -0.104383)
(68.8604 3.00782 0.0114083)
(67.7951 2.17692 -0.139737)
(68.5878 1.26993 -0.0651638)
(69.165 0.711884 -0.13518)
(68.201 1.78265 0.027687)
(72.6787 3.00262 0.975489)
(109.678 -176.12 18.7229)
(11.0834 -41.5513 -20.0333)
(134.128 -40.8049 -23.904)
(30.5386 -24.4117 -2.08465)
(103.939 -23.3685 0.027434)
(39.5529 -16.6064 -0.648794)
(80.085 -20.0128 0.696921)
(53.1323 -5.25864 -0.719777)
(72.5901 -7.11105 0.493328)
(61.8196 1.53222 -0.241285)
(70.39 0.38882 0.502983)
(65.5539 4.52698 0.0537352)
(68.9331 3.3812 0.297753)
(66.2845 4.32123 -0.0133403)
(67.8923 2.62947 0.220346)
(66.5697 1.78056 0.0604968)
(67.3949 0.288254 0.188664)
(67.6206 -0.314935 0.166419)
(66.3066 0.180324 0.407556)
(69.852 1.56583 1.07752)
(90.7006 -89.4468 -19.8567)
(-26.8036 -9.69364 -35.3396)
(100.973 16.7869 -33.0964)
(-1.74771 -6.10819 -1.14929)
(91.9396 -1.20836 2.88699)
(18.6868 -3.09307 0.454574)
(72.5247 -15.6254 1.34273)
(44.8194 -4.53074 -0.840808)
(62.6251 -6.93896 0.345707)
(56.3712 -0.717857 -0.623457)
(64.0047 -0.548783 -0.175629)
(63.141 2.63834 -0.340895)
(66.2828 2.74821 -0.129045)
(65.8618 3.74398 -0.16436)
(67.0988 2.87889 0.0367337)
(66.4663 2.13248 0.21319)
(66.9421 0.612134 0.529659)
(67.004 0.370074 0.405568)
(65.1474 0.941002 0.514553)
(67.7306 1.98113 1.00879)
(74.233 42.5954 51.2084)
(-51.1673 -57.6999 17.1421)
(132.2 -22.1279 -3.05612)
(17.2143 -27.6712 8.27535)
(110.886 -18.2483 1.13467)
(36.7345 -5.28921 -0.422613)
(70.0492 -37.7847 -1.02176)
(36.767 2.96745 -1.37045)
(53.9604 -16.2522 -1.76466)
(46.3225 0.286044 -0.754164)
(57.8362 -5.82973 -0.597501)
(56.8283 1.65 -0.400564)
(62.5045 -0.096998 -0.383526)
(61.907 2.93905 -0.122866)
(63.9803 1.15908 0.205079)
(63.1632 1.41995 0.341346)
(63.6402 0.257669 0.558646)
(63.7493 0.192754 0.281052)
(62.0363 0.671706 0.437469)
(65.1906 1.49738 1.03138)
(112.295 46.8052 -31.466)
(-97.9502 -41.8149 32.3563)
(125.829 1.03157 -8.88459)
(21.9929 -11.2495 3.14327)
(104.422 -17.0651 0.931363)
(39.9695 23.0889 -0.298627)
(65.3768 -4.99459 0.947475)
(39.3983 -5.28658 -1.59859)
(50.3204 -7.74121 -0.726592)
(47.8552 -14.0544 -0.661578)
(58.2322 -8.59792 -0.252704)
(60.2204 -6.95903 -0.0245873)
(64.661 -2.13622 -0.401667)
(64.2805 -0.658383 -0.306947)
(62.582 1.0898 -0.100308)
(63.2697 1.39939 0.597613)
(61.9362 0.864851 0.557044)
(61.8839 0.697495 0.293312)
(59.908 0.623784 0.352583)
(62.9848 1.20346 0.947605)
(455.92 -63.3413 -198.071)
(-71.4658 -41.7745 -8.94499)
(149.449 -12.2681 -21.4964)
(27.6635 -13.3016 -2.77355)
(95.7017 -15.0128 -1.41623)
(56.8588 3.12735 -1.59742)
(81.3706 7.79428 0.394096)
(66.902 -10.4825 -0.852823)
(68.5803 -10.3676 -0.79914)
(63.4526 -16.5996 -0.165478)
(65.499 -14.1403 -0.184166)
(67.5251 -9.27182 -0.665674)
(69.2733 -3.48686 -0.572355)
(69.4553 -1.09583 -0.526764)
(69.0295 1.46057 -0.00808306)
(65.0332 2.36963 0.314153)
(64.2292 2.20635 0.767148)
(62.7562 1.24214 0.450075)
(60.1907 0.486984 0.517926)
(62.9033 0.67781 1.04435)
(108.789 -129.319 -81.2804)
(-18.7549 -29.1736 -24.9178)
(132.766 -29.2831 13.2693)
(29.0168 -6.24179 -3.17274)
(94.3151 -14.3401 3.78213)
(57.6545 -1.30059 -3.3691)
(79.9898 3.88107 -0.856469)
(82.4036 -2.02509 -0.698367)
(76.6651 -3.49954 -1.80099)
(73.8275 -11.2589 -1.80965)
(73.3271 -16.7299 0.955101)
(74.9724 -10.7969 0.414888)
(76.3423 -3.49865 -0.229845)
(76.8255 0.310533 -0.182352)
(75.5931 3.02811 -0.015819)
(69.9784 5.03854 0.0547493)
(67.3555 4.12169 0.767391)
(65.009 3.28891 0.551676)
(62.0954 1.57707 0.580169)
(64.4653 0.879956 1.00963)
(88.9688 -82.2696 171.036)
(-4.25918 -7.9139 -10.7341)
(135.445 -1.19521 -3.98368)
(38.3219 0.484806 -2.60879)
(110.135 -7.0706 10.1334)
(85.4791 -7.07733 1.97492)
(95.1149 -6.16358 0.232193)
(96.1796 0.526088 -2.26256)
(97.0042 -1.17577 -4.67164)
(97.5376 -10.5602 -3.4142)
(88.6556 -16.1785 3.03747)
(80.2769 -10.601 1.62822)
(79.8536 -4.30661 0.391274)
(80.207 0.856291 -0.378917)
(77.7983 4.71152 -0.75969)
(71.8967 7.50063 0.0135226)
(69.7463 7.73461 0.643745)
(67.0163 5.35447 0.122591)
(63.6423 2.34605 -0.186961)
(65.5837 1.08554 0.618504)
(261.266 8.17495 163.379)
(52.4474 9.31541 -34.2169)
(147.601 -39.0699 -3.54289)
(55.1122 -21.1653 -4.11378)
(112.399 -28.2214 17.3208)
(82.2216 -18.1383 12.7769)
(106.114 -15.4483 9.28016)
(114.359 -2.2579 3.09433)
(108.98 -1.22147 0.501874)
(100.146 -5.36118 2.48581)
(83.0129 -2.57883 3.33208)
(72.4896 -5.29983 1.40742)
(69.0805 -3.80204 -0.652385)
(70.4333 0.553307 -0.53195)
(72.5494 3.62186 -0.468411)
(70.4909 7.88499 -0.189135)
(72.0801 9.20268 0.122674)
(71.7122 8.59094 -0.469031)
(69.3473 4.84122 -0.523897)
(69.6327 1.70846 0.0770587)
(275.269 12.675 49.4976)
(56.6987 24.5656 -12.2284)
(158.174 9.34467 -33.8809)
(109.024 -2.08121 -17.4347)
(142.56 0.69555 -1.3478)
(103.703 -22.3069 1.15373)
(114.978 -16.6565 4.61752)
(85.5799 -3.31944 5.36909)
(85.3195 5.82206 2.19053)
(69.1925 6.33913 2.10488)
(67.1778 3.2366 0.766064)
(59.9273 -0.644471 0.196212)
(60.2384 -2.66691 -0.476463)
(59.0339 -2.61261 -0.460745)
(60.9289 0.651931 -0.715564)
(67.1902 3.90238 -0.434936)
(71.7105 7.64577 -0.344679)
(74.9271 7.10995 -0.536825)
(75.162 6.20192 0.16112)
(76.2714 3.94428 0.589602)
(247.469 61.3002 136.349)
(-45.2245 22.6716 25.114)
(138.909 15.198 10.6991)
(13.0325 6.00606 -0.677646)
(100.943 6.85034 -1.1055)
(41.0138 -2.26236 -2.9546)
(71.066 26.1483 -0.874899)
(50.4015 3.3825 0.183816)
(63.9397 17.9264 0.564046)
(55.2534 5.56973 0.156493)
(61.3361 9.28239 -0.657774)
(56.8745 0.376714 -1.16429)
(58.9773 0.639765 -0.992641)
(57.0258 -4.3048 -0.507003)
(58.6783 -3.74832 -0.034282)
(60.4245 -3.14263 -0.0729444)
(65.473 1.58048 -0.26533)
(69.1723 3.20015 -0.2852)
(69.6049 5.13279 0.691444)
(72.6004 4.38296 1.38887)
(77.8572 -61.3269 18.8638)
(-1.90635 11.4356 -1.33614)
(123.464 2.71494 -3.52704)
(45.1883 1.15962 -1.02679)
(100.714 -4.73377 0.81372)
(51.3158 -5.20602 -1.22542)
(79.6876 8.44596 1.86593)
(61.9098 8.25219 -0.0394112)
(71.1156 14.1629 0.270462)
(64.4562 9.68815 -1.24044)
(69.2079 8.23182 -1.55766)
(66.5682 2.35415 -2.16649)
(68.035 0.287867 -1.53765)
(65.4183 -2.84168 -0.306295)
(64.2891 -2.7562 1.0949)
(61.4119 -3.12141 0.958594)
(61.1582 -1.05536 0.17522)
(61.8492 0.68655 -0.0879773)
(61.3297 3.88284 0.207032)
(65.8348 3.7882 0.79811)
(61.1948 -67.4984 103.435)
(-36.666 -2.08173 -13.6536)
(119.58 28.5958 -14.0182)
(40.961 14.1928 -2.10292)
(108.501 17.7393 -2.46161)
(64.2718 9.68536 -2.31623)
(85.7073 18.1829 3.3663)
(62.5647 9.46738 0.38726)
(74.2434 15.4867 1.17826)
(65.4762 7.3336 -1.08467)
(72.6399 7.87449 -0.613064)
(68.828 1.56292 -1.04991)
(71.6287 1.2419 -0.291546)
(68.4545 -1.19631 0.0617596)
(68.6508 0.26813 1.11924)
(65.936 -0.0384658 1.19571)
(65.152 1.09295 0.997582)
(64.5131 1.31793 0.388656)
(63.1738 2.60959 0.488176)
(68.5125 2.62895 0.886269)
(30.9823 -73.5468 -104.012)
(-79.0462 -18.0965 -16.9248)
(99.4412 -41.0568 -18.1186)
(30.6845 -13.1308 -5.75258)
(98.9176 0.495359 -2.35615)
(61.9007 3.50829 -1.53181)
(87.1185 18.0069 1.83402)
(67.2836 13.7513 0.564921)
(79.8404 16.0484 0.939092)
(70.563 9.28727 -0.253866)
(76.8979 7.23227 0.213839)
(71.9663 2.62256 0.0698534)
(74.1283 1.53012 0.694195)
(70.7979 -0.105484 0.76993)
(71.3599 0.498278 1.16475)
(69.8897 0.393578 0.899269)
(70.2774 0.859031 0.929902)
(70.5246 1.03815 0.730516)
(69.5148 1.49474 0.890859)
(74.7993 1.36429 1.17359)
(-11.5147 13.501 69.5554)
(-102.866 -27.1127 -6.79762)
(75.0824 -55.5266 -24.0056)
(-13.6312 -5.91545 -4.46748)
(79.8884 3.88407 -4.69048)
(29.5066 7.31664 -3.12555)
(74.7599 17.1458 0.0242717)
(54.6138 12.1276 -0.465833)
(76.4085 14.1307 1.65996)
(68.1966 8.39713 0.770162)
(77.6129 7.38482 1.56482)
(73.3697 3.698 1.04139)
(76.8558 3.07452 1.25048)
(74.074 1.41181 0.909073)
(75.4076 1.38335 1.05973)
(74.1957 0.697433 0.802491)
(75.0328 0.71014 0.775918)
(75.338 0.62196 0.596522)
(74.5155 0.56004 0.843972)
(79.8721 0.780002 1.16844)
(278.556 26.1724 119.337)
(57.5994 -57.7425 5.64313)
(106.145 -84.9229 -29.5211)
(24.9413 -34.5022 -13.2191)
(81.1971 -25.5205 -6.82015)
(42.4913 -6.15241 -1.46915)
(77.9526 -1.03407 2.11405)
(62.7689 4.50883 1.35492)
(81.9495 6.14779 1.84674)
(74.7468 5.39495 0.819869)
(83.4857 4.45348 1.10207)
(79.7596 2.96567 0.608447)
(83.4754 1.97419 0.90037)
(81.4268 1.22999 0.762865)
(83.0206 0.815497 0.940809)
(81.9727 0.557577 0.693577)
(82.6893 0.340237 0.574583)
(82.5129 0.278912 0.214626)
(81.2383 -0.16647 0.253443)
(85.4175 -0.19637 0.242024)
(275.17 85.3628 53.5597)
(221.6 34.2406 -54.4832)
(188.5 -42.9921 -63.6992)
(98.2261 -16.1488 -28.2123)
(115.693 -3.44921 -6.65927)
(86.6455 -0.82596 0.532832)
(102.064 -1.84198 6.95078)
(85.4978 0.0329491 4.49051)
(98.551 1.89977 4.83188)
(93.7586 2.57659 2.7976)
(102.388 2.56675 2.33059)
(101.358 2.20753 1.05602)
(105.396 1.82678 0.760683)
(104.615 1.61912 0.309858)
(106.176 1.5227 0.413168)
(105.684 1.54752 0.416536)
(106.527 1.60408 0.621899)
(106.906 1.75518 0.700308)
(106.269 1.89636 0.868152)
(112.202 1.8191 0.85063)
(514.835 -17.0248 -37.8814)
(260.966 -6.36222 3.51945)
(216.387 14.9128 46.2207)
(123.617 2.16527 28.5972)
(152.149 15.4039 28.7301)
(130.977 7.36906 16.1966)
(144.346 8.15715 10.9368)
(135.833 4.319 5.02274)
(140.512 4.83419 2.87599)
(134.609 4.70426 0.989417)
(133.75 5.6721 1.11962)
(126.997 5.49597 1.07225)
(124.789 4.81516 2.53764)
(120.289 3.64823 2.51586)
(120.626 2.9736 2.04724)
(119.13 2.38272 1.04557)
(118.626 2.6384 -0.761323)
(115.24 2.73918 -1.62129)
(110.416 4.69513 0.138447)
(106.337 4.10987 0.431076)
(38.4066 -28.9778 -149.708)
(-101.579 -11.7882 -20.2086)
(81.915 -22.4169 -9.62149)
(-19.0728 -17.5479 -9.31093)
(78.1106 -4.78814 -2.96148)
(40.6865 -4.57359 -4.16265)
(84.2032 3.08642 -1.95888)
(71.6112 2.20362 -4.26689)
(88.1863 5.29966 -3.57009)
(82.2235 4.1044 -4.02296)
(87.6593 4.80938 -2.60267)
(83.6267 3.9502 -2.0687)
(85.6249 4.17807 -0.754036)
(83.4895 3.61598 -0.757574)
(84.6143 3.28818 -0.897587)
(83.0319 2.64586 -1.81711)
(83.3919 2.80735 -2.27683)
(82.192 2.58118 -2.86902)
(80.1378 4.63483 -2.24612)
(81.2651 4.26602 -0.714736)
(130.353 -12.7875 -19.4588)
(12.6626 -7.82772 5.73093)
(137.42 -7.53605 25.0185)
(45.2912 -14.5948 1.97154)
(103.263 -8.69023 3.35004)
(57.6395 -6.52476 -2.70321)
(84.8205 -1.18223 -1.15422)
(63.779 1.26904 -3.4594)
(76.7724 2.9229 -1.93514)
(66.0507 4.35904 -2.68198)
(71.7154 4.36682 -1.46509)
(65.8969 4.84784 -1.66257)
(68.395 4.4361 -0.801399)
(65.3734 4.04119 -0.885587)
(66.8527 3.08489 -0.438507)
(65.6339 2.03659 -0.640938)
(66.5215 1.50077 -0.855908)
(66.4166 0.980904 -0.991068)
(65.4645 2.55441 -0.520375)
(68.864 2.8706 0.81698)
(-44.7734 -124.408 61.4249)
(-108.217 -21.9549 20.6244)
(78.7176 -8.37264 -15.1046)
(-31.156 -6.85221 2.46471)
(69.1088 0.528012 -1.37506)
(12.3486 -3.38382 -0.520959)
(64.3055 0.631315 -0.225143)
(39.8168 0.252159 -0.859195)
(62.0197 1.75458 -0.190815)
(51.7081 2.3652 -0.786621)
(60.0259 2.82647 -0.0931794)
(55.1206 3.44668 -0.501799)
(58.7898 3.3754 0.015778)
(56.559 3.23877 -0.145451)
(58.495 2.52847 0.0130279)
(57.5464 1.8076 -0.127144)
(58.5669 1.16914 -0.0667032)
(59.0668 0.870922 -0.189602)
(58.2388 1.95755 0.0580044)
(61.6089 2.6171 1.23702)
(186.159 -219.538 -46.977)
(85.027 -81.3086 -8.91848)
(135.765 -50.8051 -13.4888)
(26.6341 -21.3344 -0.0897963)
(93.2552 -16.4144 -1.04267)
(28.1073 -10.0039 0.10348)
(71.5148 -14.2252 0.312166)
(42.2068 -0.46878 -0.400202)
(62.9504 -4.11904 0.352165)
(50.0276 3.79179 -0.225552)
(59.2081 1.24415 0.472919)
(53.3959 5.03461 -0.133155)
(57.3931 3.07422 0.233897)
(54.6206 3.90287 -0.0732667)
(56.6611 2.03343 0.192036)
(55.5538 1.39695 0.0492038)
(56.6093 0.322742 0.204659)
(57.0811 0.107569 0.102231)
(56.1494 0.7727 0.327521)
(59.1229 1.76791 1.33679)
(163.865 -209.724 -7.66102)
(55.2117 -35.3294 -20.7885)
(93.205 16.605 -23.1703)
(-13.5215 -1.37033 0.798511)
(79.5563 4.82578 1.56125)
(5.70517 1.49142 1.08728)
(64.1455 -10.6505 0.132348)
(34.679 0.951083 -0.803248)
(53.9506 -3.36541 -0.122543)
(45.857 2.52868 -0.590519)
(53.718 1.12467 -0.199734)
(51.7062 3.58275 -0.400161)
(54.7903 2.49956 -0.184784)
(53.9583 3.10942 -0.16471)
(55.2374 1.90714 0.0160438)
(54.7158 1.34301 0.177257)
(55.4942 0.454388 0.408525)
(56.1368 0.540791 0.276982)
(54.9236 1.14898 0.38859)
(57.3823 1.86653 1.3299)
(176.492 -232.61 -2.3899)
(-23.5055 -59.2405 11.9299)
(116.26 -19.7267 -12.7993)
(0.746664 -22.308 8.04437)
(100.219 -11.4135 -0.286551)
(23.3281 -1.54886 0.381741)
(61.0958 -33.7081 -0.879553)
(27.5721 7.13164 -0.778339)
(46.4349 -13.4272 -1.58124)
(38.1851 3.20927 -0.547111)
(49.4024 -4.27668 -0.768518)
(47.1163 2.91527 -0.295274)
(52.4853 0.00658257 -0.229122)
(51.366 2.82754 -0.128225)
(53.4694 0.657094 0.189033)
(52.7072 1.05007 0.28921)
(53.5709 0.147283 0.45349)
(54.1586 0.333736 0.20929)
(53.0047 0.830873 0.327774)
(55.7939 1.43762 1.3695)
(178.546 128.403 -108.396)
(5.24842 -1.26394 -6.21438)
(117.802 -2.52893 -21.7796)
(14.6616 -6.79584 1.83787)
(94.7564 -11.1893 -0.0520494)
(27.9019 26.8093 0.0713288)
(54.9024 -7.55541 0.843821)
(31.2815 -0.0681673 -1.47152)
(42.8452 -9.0216 -0.993238)
(40.5214 -9.27188 -0.771352)
(50.0653 -6.75034 -0.215343)
(51.1518 -4.45854 0.226785)
(55.0463 -1.80609 -0.231826)
(54.1726 -0.409867 -0.0706711)
(52.3261 0.614029 0.287737)
(53.367 0.935929 0.610854)
(52.6609 0.631719 0.527323)
(53.3792 0.639196 0.256933)
(51.9751 0.623269 0.286172)
(54.6818 1.07537 1.3375)
(138.286 38.5055 -174.889)
(9.44677 -8.65156 29.6839)
(114.213 6.43348 -14.5254)
(17.4632 -6.80184 1.77925)
(81.9155 -8.80807 -1.66905)
(42.239 11.2892 -0.627915)
(63.5447 6.50779 0.889437)
(51.5802 -9.49559 -0.617234)
(55.3952 -10.8313 -1.03381)
(52.6051 -14.1063 -0.26423)
(56.4543 -10.9462 -0.242083)
(57.9921 -6.88936 -0.541309)
(59.6185 -2.69286 -0.616832)
(59.5176 -0.928869 -0.44381)
(58.4271 1.21056 0.0575151)
(54.2858 1.71181 0.695266)
(54.4377 1.49801 0.844711)
(54.1132 0.852762 0.40518)
(52.4725 0.334013 0.457661)
(55.0762 0.536456 1.42227)
(148.156 -131.805 -38.1597)
(-37.3026 -31.8655 -29.064)
(130.705 -10.8885 11.5881)
(8.11921 -3.33627 -3.1828)
(81.6147 -12.3168 2.36708)
(42.7078 0.800217 -2.57335)
(67.2363 4.80479 -0.280171)
(70.899 -2.83621 -0.80542)
(66.8681 -5.89757 -2.24702)
(63.6491 -11.8982 -1.53469)
(64.0434 -12.9982 0.917962)
(66.2605 -7.57137 0.459763)
(67.0668 -2.15468 -0.130379)
(66.5678 0.732605 -0.198379)
(63.9959 3.7442 0.0420072)
(57.8431 4.17059 0.627929)
(56.3374 2.91301 0.841687)
(55.7357 2.1727 0.469252)
(53.9248 0.906507 0.515504)
(56.401 0.529883 1.39964)
(124.304 199.022 12.4879)
(-57.0478 1.85173 -26.8598)
(126.5 5.22797 -14.432)
(12.6625 2.30605 -3.79336)
(91.6084 -6.27623 6.77447)
(64.2847 -7.65247 1.72111)
(78.1139 -7.98962 2.0052)
(82.556 -3.60517 -1.51604)
(82.0856 -5.64311 -4.34058)
(77.2582 -12.2127 -2.89849)
(75.3135 -13.9976 1.06978)
(73.5648 -7.83597 0.704705)
(72.0548 -1.63416 -0.285103)
(70.485 2.17519 -0.769933)
(66.3092 5.17048 -0.736547)
(59.2786 6.27258 0.707406)
(58.3928 5.43168 0.838844)
(57.1604 3.17366 0.0396668)
(54.9222 1.09942 -0.0229776)
(57.0782 0.401051 1.18349)
(531.136 -78.3844 6.8042)
(22.2559 -47.7944 -10.5203)
(152.204 -51.1443 -5.61776)
(12.7697 -11.341 -3.15388)
(87.1204 -19.6563 13.4703)
(54.3062 -11.9402 10.7243)
(86.0141 -13.8265 9.4962)
(93.1498 -4.28165 3.5595)
(87.7984 -4.21606 0.918693)
(78.306 -5.36463 2.78099)
(68.6652 -3.63019 3.32279)
(63.5485 -3.45357 0.856752)
(62.5006 -1.01638 -1.05031)
(63.6467 2.15706 -0.887704)
(64.0818 4.59447 -0.785039)
(60.0265 6.97796 0.17959)
(61.4842 6.76702 0.317619)
(61.2027 5.1523 -0.423399)
(58.8643 1.56128 -0.219649)
(59.5547 0.297361 0.714509)
(205.648 -44.8931 181.438)
(139.263 68.7957 2.64431)
(174.079 22.084 -38.2926)
(96.6877 12.0092 -20.8757)
(120.686 10.2926 -4.65048)
(78.8336 -15.8408 -0.663099)
(91.5036 -7.75534 3.9109)
(66.602 0.429949 4.25536)
(68.8001 4.94527 2.15517)
(56.5605 4.157 2.26387)
(57.2241 2.01883 0.807038)
(52.0189 -0.771818 -0.0344182)
(53.6258 -1.64774 -0.625721)
(52.9126 -1.22512 -0.64675)
(53.912 2.06735 -0.368915)
(58.9493 3.68101 -0.134297)
(61.9303 5.25655 -0.176268)
(63.6374 4.08875 -0.302502)
(62.8978 3.29556 0.269212)
(63.3335 1.49698 0.946332)
(79.9646 -29.3925 139.846)
(-41.6938 38.5862 28.5549)
(114.485 30.096 0.357526)
(2.09286 14.8918 1.83868)
(89.9774 12.4528 -1.63512)
(26.8753 1.22242 -2.27169)
(59.2692 28.0026 -1.24681)