/*--------------------------------*- C++ -*----------------------------------*\
  =========                 |
  \\      /  F ield         | OpenFOAM: The Open Source CFD Toolbox
   \\    /   O peration     | Website:  https://openfoam.org
    \\  /    A nd           | Version:  10
     \\/     M anipulation  |
\*---------------------------------------------------------------------------*/
FoamFile
{
    format      ascii;
    class       volScalarField;
    location    "3.4";
    object      k_0;
}
// * * * * * * * * * * * * * * * * * * * * * * * * * * * * * * * * * * * * * //

dimensions      [0 2 -2 0 0 0 0];

internalField   nonuniform List<scalar> 
12920
(
336.963
1349.84
1314.64
1225.53
953.473
713.461
450.707
273.481
180.012
141.202
123.495
104.055
90.2234
81.8405
78.4954
75.0567
73.6321
70.5196
68.7916
65.7228
951.787
1739.35
1261.56
1219.18
889.598
610.389
414.469
368.582
328.412
285.402
217.685
170.636
145.7
132.889
126.152
123.143
123.163
123.78
125.545
129.128
605.208
1902.81
1660.29
1304.18
970.294
670.775
466.161
362.465
276.127
223.621
192.779
175.881
160.116
144.963
133.707
125.362
120.195
115.214
111.481
107.002
505.514
1376.17
1182.15
1093.15
892.768
675.135
512.948
406.765
339.263
290.653
251.929
219.419
191.335
169.293
149.522
131.927
121.481
112.658
108.648
102.398
4822.43
2677.18
1835.38
1670.69
1352.07
1168.65
926.575
838.073
674.719
513.202
355.534
254.287
203.018
177.982
158.02
138.637
125.203
113.103
108.123
100.833
11445.1
2804.14
2392.19
1914.89
1554.12
1211.26
823.987
640.297
441.8
321.324
243.179
205.503
182.446
165.462
148.689
131.485
120.692
109.944
105.732
97.3422
4846.62
3745.13
2718.55
1603.49
1205.89
1071.01
774.305
614.358
440.947
320.531
244.633
209.664
186.572
163.176
142.925
126.536
117.144
108.433
104.825
97.067
5207.38
2908.33
1910.4
1157.37
812.9
762.915
506.297
322.174
286.355
180.696
132.141
107.293
108.204
105.095
155
130.439
118.819
110.117
106.812
99.0643
6851.59
4403.45
1896.08
1192.02
827.503
439.027
296.545
128.597
92.8957
52.8465
62.1572
72.3861
78.4582
80.8351
118.73
135.918
118.587
105.456
99.9205
96.3998
6845.58
5866.06
3367.34
1333.9
762.25
399.618
204.257
137.435
130.298
97.0661
79.2999
77.572
67.0823
48.3762
78.8728
113.296
99.5512
87.9282
85.3233
89.0961
4676.56
4501.45
3847.81
2277.67
1073.93
459.661
194.876
122.053
110.437
111.68
113.518
99.8048
72.8558
52.4857
71.7775
99.8159
89.7568
79.5562
77.7276
82.2934
7192.53
4924.59
2350.9
1411.68
861.989
394.178
161.728
82.4911
125.238
143.388
129.014
101.861
76.5422
39.1976
70.4838
95.8382
79.246
69.4248
67.9315
72.2311
1090.17
1452.24
1304.62
1236.28
1084.31
1010.27
710.138
428.051
328.57
292.048
250.356
173.203
94.6237
65.0038
96.3322
83.4302
72.7913
65.6105
62.9604
64.7928
2214.99
1428.93
969.178
837.114
818.036
876.166
889.677
844.721
688.26
521.177
387.365
269.522
180.134
128.872
102.635
87.5399
77.1676
68.4311
62.5079
60.4806
388.157
1185.19
1480.06
1357.17
1013.63
902.319
808.907
674.165
547.562
455.309
373.796
279.097
197.171
143.935
113.991
96.1429
82.9126
72.2635
66.1332
58.2439
838.436
2152.15
2075.49
1631.46
1156.24
963.234
738.54
589.457
444.4
327.475
246.324
192.512
154.49
131.454
115.442
101.494
88.8594
76.0778
70.3121
60.8412
1337.54
1969.42
2001.37
1627.64
1158.93
954.957
758.395
627.274
452.167
301.991
208.981
165.951
146.254
133.458
124.891
114.586
102.673
87.456
79.8061
68.5954
65.6231
748.035
1264.18
1222.86
1014.14
904.118
739.781
606.79
440.686
302.777
217.093
177.188
159.474
148.843
141.756
132.593
124.076
109.477
99.2232
85.0839
121.089
436.321
899.765
908.885
781.522
706.83
601.649
481.376
359.362
263.904
204.45
181.701
175.558
170.785
164.802
152.641
137.78
120.867
108.629
94.7453
59.3748
188.421
502.159
548.896
469.43
362.703
306.209
264.125
220.79
184.768
161.99
147.444
137.042
127.249
117.978
104.963
93.4164
79.1124
70.0181
58.0684
3086.76
3383.48
3155.52
2658.4
1969.23
1318.61
818.736
520.667
367.811
292.127
226.178
189.564
173.801
169.005
168.036
168.087
168.608
169.103
170.447
168.528
1867.66
6295.78
3826.14
3084.65
1598.86
1340.55
945.548
911.951
763.432
609.475
444.086
392.857
367.58
360.771
358.2
358.701
361.465
367.089
375.459
387.552
1582.3
5226.31
5079.85
3629.18
1858.5
1488.35
988.131
827.578
571.733
515.536
468.983
459.89
427.875
403.884
384.311
371.112
360.276
349.844
341.42
332.676
5164.4
6364.75
3598.42
2728.02
1899.89
1567.31
1080.3
953.011
773.929
723.408
614.988
565.873
504.296
463.03
418.459
382.14
357.827
336.115
325.454
309.456
4954.57
6031.72
4642.23
3741.71
2904.78
2568.22
1953.52
1787.91
1430.79
1127.38
762.466
600.147
529.891
490.768
443.765
398.048
362.002
330.129
317.379
297.295
13965.9
6483.12
5977.13
4295.34
3237.12
2534.98
1734.57
1402.57
1013.72
793.995
627.355
544.809
489.038
451.234
410.406
368.55
340.431
314.511
302.351
280.242
11217.6
10249.6
5906.55
3513.32
2762.29
2373.69
1716.35
1399.49
1026.07
779.426
607.193
537.321
474.611
422.59
376.313
340.332
316.649
298.911
291.574
275.869
7434.45
7459.54
4418.56
2535.78
1954.15
1831.06
1451.2
1140.36
911.968
625.709
519.544
488.147
466.967
399.094
351.405
310.877
290.638
284.916
285.936
282.193
12853
7940.3
4031.11
2819.3
1744.54
1490.07
1229.28
879.591
640.652
465.389
449.659
446.442
431.071
398.411
329.375
287.693
265.301
263.381
268.169
281.21
20575.2
8024.52
3895.03
2397.08
1597.14
1334.62
1072.78
856.855
681.452
521.17
429.159
367.409
307.628
253.588
250.781
238.012
230.421
231.787
241.003
274.118
14753.9
11089.4
5342.2
3388.12
1744.58
1364.13
920.516
749.885
661.322
619.674
583.989
491.948
340.272
250.784
203.817
228.015
214.626
209.83
215.201
239.938
6658.15
6243.22
4259.72
3136.95
1719.13
1183.67
741.269
704.849
858.534
834.636
707.848
559.653
348.456
238.798
221.502
214.807
195.35
190.731
193.437
212.77
3194.36
4861.77
3604.26
3280.26
2572.98
2466.87
1964.13
1487.22
1305.46
1085.79
828.491
538.799
308.603
240.926
236.758
210.009
193.144
184.965
184.978
194.429
8367.23
4723.5
2640.85
2265.46
2252.6
2538.22
2420.51
2071.14
1680.57
1303.53
922.137
588.894
402.132
311.231
267.277
235.591
212.149
192.882
183.023
180.958
4288.25
5740.57
5024.2
3429.12
2588.11
2426.05
2109.52
1777.64
1430.33
1192.33
927.281
662.024
454.755
352.704
296.716
257.424
225.81
201.328
186.368
169.467
3803.89
6547.23
5555.58
3958.84
2823.51
2408.84
1835.32
1507.44
1083.06
809.959
614.962
485.842
397.112
346.581
308.879
275.515
244.778
215.078
198.583
174.757
1575.42
3547.72
4373.06
3775.43
2745.67
2284.95
1760.96
1468.88
975.651
663.956
498.163
432.169
391.947
362.735
341.249
320.109
291.949
253.012
229.673
197.991
108.656
1636.32
2985.11
2879.43
2398.18
2076.52
1631.68
1354.08
908.447
658.692
528.182
473.548
442.968
418.935
399.971
376.606
354.021
320.089
294.927
253.121
568.524
1652.82
2427.21
2326.41
1853.07
1576.51
1273.71
1004.31
719.997
578.305
512.929
494.163
483.015
471.927
455.725
421.97
382.073
340.92
317.872
289.824
1092.69
1391.9
1307
1236.97
1072.66
769.583
578.298
463.08
367.697
330.073
312.521
304.382
296.915
288.379
272.436
239.114
215.939
189.719
173.134
144.368
664.677
2808.76
2790.12
2426.85
1755.53
1064.35
674.568
460.375
357.935
301.911
263.402
241.37
229.002
221.149
217.725
212.702
210.97
207.226
205.112
196.449
3952.52
7051.4
4226.54
2915.51
1590.35
1242.76
948.279
891.221
751.85
679.963
592.262
567.96
543.131
537.806
537.131
541.129
550.813
561.869
573.021
581.864
2592.48
6030.52
5339.74
3913.4
2205.29
1753.13
1183.7
1028.61
817.469
770.031
694.914
664.622
618.138
595.465
572.563
560.444
549.804
540.56
533.802
525.369
6229.87
9605.47
4864.48
3402.01
2376.6
1837.13
1392.29
1196.28
1014.97
924.092
811.046
748.779
675.487
627.518
583.15
551.454
527.404
504.798
491.691
471.786
4145.54
8701.85
6552.86
4706.53
3537.96
2860.68
2114.09
1799.57
1383.21
1145.23
910.731
806.13
714.842
653.661
595.65
549.859
514.319
482.842
466.778
439.051
13309.6
11004.8
7248.38
5066.42
3813.01
2805.46
1967.29
1545.74
1167.02
963.812
814.783
728.528
655.723
601.092
551.733
509.223
479.632
450.881
435.819
405.044
29172.5
14419
7355.11
4346.54
3484.5
2713.84
1945.9
1536.89
1169.12
963.203
812.165
728.168
637.094
570.885
515.18
476.605
452.132
431.88
420.344
392.298
29262.5
10190.2
5385.68
3273.44
2750.78
2301.29
1918.84
1482.02
1138.56
900.057
781.793
712.924
624.712
528.907
465.656
429.384
416.065
414.198
411.892
394.529
11296.5
8362.7
5278.3
3350.75
2282.69
2060.25
1812.45
1317.98
979.785
786.643
713.443
659.228
595.079
517.745
434.697
389.867
381.832
386.128
398.216
398.567
26708
10757.1
5526.95
3120.14
2149.21
1774.05
1546.44
1174.08
913.872
728.029
588.522
474.306
408.821
381.033
352.804
345.614
346.943
355.914
380.424
397.708
27688.9
10449.6
5909.6
3809.03
2254.02
1827.67
1355.14
1090.1
942.335
848.83
580.971
480.391
392.852
299.622
297.58
332.083
324.645
326.378
338.222
362.153
8471.98
6918.75
5253.95
3533.7
2275.42
1738.34
1420.83
1293.38
1239.52
1062.51
860.241
637.009
433.646
348.034
315.49
300.669
288.288
288.887
297.014
327.048
5675.16
6963.03
5554.36
4433.34
3512.52
3207.3
2531.62
1932.63
1563.21
1227.62
894.59
590.564
421.318
351.36
325.954
296.303
282.202
278.628
281.355
301.435
7616.38
6605.56
4530.63
4304.27
3932.22
3707.38
2932.57
2288.7
1747.07
1314.77
935.171
665.179
510.586
422.843
364.538
324.388
296.86
279.658
273.51
276.988
14434.4
12209.8
7384.94
4976.06
3953.09
3429.3
2619.11
2108.15
1622.38
1261.52
931.177
686.034
535.133
450.469
387.651
341.709
306.959
282.283
266.596
255.595
12195.2
10570.9
6786.25
4898.71
3694.15
3036.63
2264.81
1747.77
1252.38
946.209
732.001
600.789
510.313
453.637
408.422
368.173
332.963
301.76
280.784
256.669
3126.55
5062.22
5677.91
4717.75
3494.48
2756.43
2048.56
1563.7
1075.36
824.858
673.604
597.577
541.218
501.985
469.41
434.928
398.429
356.23
327.93
288.117
1413.18
4243.4
4527.25
3657.03
2993.55
2399.16
1833.44
1436.9
1043.07
856.194
735.192
675.976
632.356
599.514
570.368
534.593
500.465
455.394
421.758
369.21
4341.83
4729.09
3906.96
2851.42
2258.94
1815.33
1449.29
1168.13
936.101
829.779
763.358
726.83
695.551
673.535
643.844
592.689
544.245
496.962
475.608
439.487
3554.94
3743.51
2314.6
1575.9
1319.03
961.768
721.962
586.518
508.493
473.31
445.303
421.76
394.474
361.084
326.481
291.004
267.867
235.452
213.633
177.818
3934.98
2781.05
2249.75
1851.63
1295.47
752.866
519.219
382.273
324.814
286.747
263.897
249.262
239.39
231.351
226.255
218.617
214.878
207.559
203.8
194.147
7674.26
10444.5
4443.79
2337.42
1514.73
1115.11
990.641
871.851
833.202
776.094
750.657
738.418
734.095
738.93
745.601
760.541
776.307
790.247
800.722
805.044
8896.37
8732.2
6104.33
3636.34
2388.61
1711.62
1364.49
1140.79
1029.55
945.677
895.157
854.583
821.76
802.446
786.515
778.375
770.625
763.562
757.933
748.238
12781.9
14315.7
6108.54
3788.89
2706.63
1905.81
1626.47
1309.16
1197.61
1058.04
979.604
904.143
847.473
802.521
768.606
741.413
720.9
698.56
685.281
662.542
12471.2
13050.2
8541
5283.41
3978.49
2815.53
2158.55
1710.83
1406.44
1196.21
1060.4
962.419
885.53
819.322
768.034
724.227
692.415
660.55
642.806
609.612
18113.7
15075.3
8586.81
5551.01
4124.93
2786.36
2095.48
1592.94
1305.31
1098.17
982.641
883.045
815.748
754.02
709.164
668.806
642.666
612.421
594.584
556.196
18580.5
13521.3
9172.26
5116.09
4058.32
2816.95
2083.18
1595.82
1305.24
1102.08
983.715
879.709
793.785
725.117
674.743
639.029
617.792
593.697
576.532
533.063
25446.6
8992.53
6318.49
3963.17
3353.21
2540.22
2118.11
1646.79
1282.04
1094.42
954.992
854.706
743.245
653.287
612.077
585.729
581.464
577.726
567.684
527.099
10608.3
9368.46
6459.34
3729.73
2705.83
2404.36
2124.21
1524.61
1174.99
999.916
894.993
805.41
710.327
626.343
564.328
548.512
548.971
557.904
559.05
537.431
13567.8
11313
6734.84
3496.58
2517.49
2021.29
1806
1346.17
1062.68
871.984
720.995
595.078
533.657
521.984
507.793
522.557
524.175
535.902
547.161
537.242
12530.8
10364.9
6775.09
3864.45
2615.17
2047.61
1611.41
1315.88
1109.3
934.756
644.254
491.703
430.097
420.521
464.055
486.616
479.58
482.538
497.906
507.225
9469.21
8262.39
6317.18
3800.11
2837.37
2176.76
1918.33
1634.56
1376.58
1096.29
849.832
637.621
514.595
464.649
443.545
425.788
419.984
424.446
440.879
475.774
11903.4
9527.06
7696.76
5192.63
4365.53
3637.01
2802.35
2049.07
1573.22
1178.04
861.129
635.293
523.72
463.119
438.981
411.425
404.27
404.845
413.994
447.085
14546.7
7279.6
6397.71
5512.47
5054.33
4127.77
3026.22
2262.4
1687.91
1250.5
931.538
729.122
612.584
533.135
474.229
433.794
408.747
396.928
396.462
408.978
15432.3
12635.1
8286.29
6075.64
5082.91
3911.21
2891.2
2168.74
1637.48
1234.4
942.229
746.037
630.798
553.398
492.726
445.664
411.926
389.97
377.649
375.141
16261.7
11639.7
7886.93
5409.64
4428.38
3271.78
2478.79
1770.61
1330.83
1032.47
852.276
722.485
639.93
575.295
525.822
479.659
442.339
410.639
387.506
369.509
11302.9
7818.18
7446.75
5646.04
4209.74
2961.75
2188.62
1555.08
1173.37
964.318
845.666
761.144
703.076
650.893
608.91
562.827
520.603
475.867
443.496
404.272
13562.9
7113.79
5778
3977.4
3453.75
2445.57
1946.94
1474.73
1205.08
1054.72
961.405
895.74
847.248
801.533
762.033
712.296
668.419
613.403
571.687
515.259
12189.2
7502.41
4892.44
3186.46
2570.84
1892.39
1589.23
1321.97
1176.56
1111.48
1053.09
998.216
938.383
898.718
860.585
803.951
752.461
700.087
676.541
627.881
3408.66
3323.04
2159.39
1562.87
1278.64
945.436
749.943
641.717
577.258
538.108
505.125
469.416
431.288
385.987
346.673
307.06
275.982
236.07
215.324
181.898
14893.8
4039.27
1929.92
1204.67
798.603
515.672
391.072
320.527
289.645
268.764
255.797
244.316
235.247
224.6
214.615
202.57
194.192
186.157
182.869
175.64
50484.6
21374.3
5917.23
2763.1
1840.75
1307.27
1271.7
1019.23
1079.8
941.806
1012.91
958.355
1012.11
997.789
1030.81
1034.7
1059.39
1065.57
1079.19
1079.72
15440.5
12506.3
7030.26
3864.06
3054.66
1893.77
1779.09
1356.37
1344.08
1155.1
1175.54
1083.95
1101.94
1058.89
1069.93
1052.14
1056.03
1045.03
1042.57
1029.12
48981.9
23376.6
7672.82
5089.49
3273.06
2316.93
1991.13
1535.27
1471.45
1232.75
1221.26
1095.51
1088.37
1022.56
1016.37
982.484
975.538
950.381
941.241
915.102
39990.6
20805
11343.1
6334.93
4771.1
2941.37
2437.87
1783.55
1615.94
1329.09
1293.98
1146.98
1122.99
1030.7
1008.14
953.697
937.921
902.115
888.673
851.399
47378.7
22271.2
10067.8
7003.06
4545.16
3140.65
2355.15
1749.95
1541.95
1269
1207.54
1066.52
1034.27
954.758
929.324
885.745
872.153
839.309
822.739
778.26
16731.7
14616.2
10702.4
6313.11
4845.5
3100.95
2482.09
1784.93
1579.07
1272.78
1224.49
1060.46
1024.47
937.975
914.913
870.87
859.658
826.379
806.634
747.697
22073.3
11525.9
7321.43
5525.53
4066.79
3054
2338.87
1820.76
1499.76
1291.19
1161.35
1032.25
945.135
871.642
863.344
836.646
830.393
812.626
791.916
722.29
13689.8
12307.4
8037.77
4914.66
3408.68
2709.19
2412.52
1714.5
1403.12
1233.69
1110.65
1010
930.239
872.391
838.318
809.527
810.949
803.263
791.77
728.754
20817.3
12392.6
7625.79
4646.28
3127.09
2317.35
2031.46
1565.55
1286.49
1047.25
883.731
779.741
806.306
836.923
828.242
800.886
794.67
784.836
777.414
729.949
28190.5
12185.2
7958.04
4472.36
3443.43
2307.66
1900.71
1573.59
1295.95
1004.97
785.691
653.74
688.709
782.228
805.974
752.002
735.277
729.292
735.004
722.91
15870.3
10240.9
7803.37
4735.41
3592.8
2585
2331.39
1891.79
1490.21
1132.84
886.69
758.751
764.295
768.734
741.539
670.189
662.309
662.954
683.038
708.545
13840.7
12135.4
10480.4
5763.2
5768.2
4115.49
3090.31
2148.15
1636.84
1198.34
957.376
805.332
750.833
699.926
670.904
635.963
630.038
633.567
653.385
692.935
17066.3
9207.6
8830.41
6091.68
6277.62
4195.6
3164.7
2273.52
1734.84
1285.99
1059.41
881.653
813.801
730.038
679.235
637.987
623.581
616.479
623.521
650.271
14728.5
12136.9
10440.8
6955.87
6448.21
4221.5
3353.65
2226.57
1780.41
1299.15
1094.67
897.22
821.364
735.088
684.424
636.471
611.142
595.515
595.053
602.952
29092.9
11932.5
9398.8
5631.55
5367.01
3313.2
2802.29
1762.92
1544.23
1180.62
1089.43
915.044
868.39
773.57
732.158
672.408
643.311
612.163
598.428
592.728
8252.32
9735.22
10073.6
6515.89
5393.22
3153.29
2600.47
1633.17
1476.77
1180.31
1139.86
994.666
956.142
863.168
821.338
753.961
718.005
674.748
652.057
623.726
22759.2
8597.45
7416.43
4475.7
4301.72
2492.03
2329.02
1585.71
1565.74
1333.26
1323.81
1191.78
1158.03
1064.66
1022.56
942.939
900.331
839.107
806.011
759.688
11770.3
7029.54
6697.3
3682.35
3421.64
2129.26
2073.63
1627.88
1675.74
1537.26
1531.44
1392.81
1304.56
1188.96
1146.81
1078.55
1050.58
1006.68
988.468
933.558
3525.06
2369.55
1821.18
1348.2
1055.88
844.736
720.465
644.505
591.617
542.228
494.536
438.447
378.137
311.715
261.866
224.171
205.984
184.064
174.567
152.633
624.402
797.957
591.268
838.986
727.365
881.004
623.37
497.138
538.651
437.656
688.307
586.838
544.079
404.152
634.832
1013.47
884.94
916.919
620.087
1058.08
894.562
496.763
839.122
689.518
549.763
457.707
840.143
680.46
147.343
210.622
131.926
931.457
766.896
884.789
776.555
98.4555
122.916
101.206
709.975
566.977
726.199
590.171
59.4933
100.056
105.077
519.166
379.378
560.902
486.834
58.9335
101.282
80.0801
363.433
365.566
458.941
386.079
70.6596
77.9441
76.1691
372.101
381.211
371.279
338.587
77.4281
75.6354
69.5978
381.288
376.721
328.63
294.665
80.6287
66.7701
53.7342
374.303
359.808
284.27
249.715
64.427
49.9164
41.8986
353.613
319.26
246.161
251.611
138.338
194.01
140.157
871.471
773.274
788.252
705.147
132.841
139.554
128.642
733.896
626.217
677.671
591.506
111.761
119.953
98.9615
593.989
486.792
561.876
491.914
80.1882
99.5708
111.235
449.641
384.688
486.41
481.626
78.3968
111.423
103.786
370.782
336.93
475.211
431.776
70.4425
99.0471
81.0112
325.706
286.515
411.535
320.152
54.6192
70.0293
54.9958
274.112
228.545
287.727
237.213
36.045
54.4581
36.2455
214.881
223.483
218.434
165.55
124.86
168.797
87.0673
717.099
655.552
559.285
526.028
114.554
87.8788
128.608
633.691
581.705
556.732
676.151
108.316
138.727
144.652
564.41
538.22
693.2
697.154
115.069
143.185
129.667
536.21
529.091
685.729
618.499
104.225
122.381
102.031
519.33
467.519
590.523
510.791
84.9554
97.9471
87.8692
446.185
342.591
485.982
372.576
52.6677
78.0937
43.4365
301.341
240.426
316.612
219.17
37.7115
41.3352
36.9089
224.848
174.04
209.619
195.069
82.4748
407.548
228.261
500.871
494.33
919.315
832.884
113.963
204.692
168.475
535.391
688.878
800.933
875.508
143.378
170.479
168.807
716.528
735.274
894.705
877.158
134.319
167.406
156.023
725.712
650.97
839.998
731.708
108.151
154.206
133.251
620.694
526.002
682.839
552.609
86.1657
124.883
83.4798
495.286
370.519
486.898
318.418
42.4943
70.1266
42.4654
314.611
210.456
267.407
193.108
34.3006
41.1232
31.2025
200.178
190.632
185.198
180.873
951.428
1114.13
926.902
1692.67
1337.38
1533.03
1235.27
699.279
862.805
701.814
1237.22
987.031
1147.31
936.378
485.23
663.929
563.354
914.733
746.785
879.957
735.351
448.717
530.858
450.897
721.054
667.117
696.33
604.166
448.016
432.529
388.946
658.116
622.965
578.463
511.647
435.189
376.282
337.664
615.236
576.298
493.607
445.682
407.391
326.692
295.596
562.968
510.563
433.136
403.947
349.304
291.966
286.182
493.538
433.329
398.186
375.136
908.878
976.261
823.039
1453.89
1189.77
1303.99
1078.9
721.714
785.375
682.96
1114.29
924.551
1025.87
889.937
558.049
649.24
574.56
868.631
721.108
849.48
758.487
447.797
565.964
543.002
684.696
587.557
745.835
615.547
381.949
528.534
470.602
554.71
471.219
572.314
473.036
321.418
447.047
351.069
449.613
396.713
443.664
368.997
262.953
321.389
260.653
383.479
355.622
347.865
282.697
256.304
238.176
185.336
351.87
348.149
265.911
244.54
780.38
767.484
686.182
1266.66
1062.54
1199.83
1107.05
681.305
709.258
804.863
1019.25
915.072
1109.71
1112.89
624.503
815.868
804.468
885.359
813.575
1097.5
1013.73
599.553
786.995
708.658
803.084
683.954
978.928
863.449
517.927
677.803
584.621
642.786
541.286
821.674
683.983
377.981
552.108
409.256
511.619
419.208
631.628
466.153
271.401
352.426
260.683
391.724
311.94
423.94
346.469
191.958
247.733
220.227
289.432
252.303
329.118
295.809
671.752
1335.9
1096.3
1255.05
1160.86
1953.03
1638.8
838.822
1057.3
1095.32
1168.1
1188.13
1583.36
1481.3
854.804
1094.33
1026.8
1172.5
1073.01
1425.76
1246.25
742.73
975.946
843.239
1030.42
893.057
1174.72
979.54
598.125
783.249
628.136
845.28
691.556
902.052
701.066
406.678
555.368
369.654
634.788
459.849
621.506
440.504
251.104
315.942
237.545
415.761
340.189
397.887
329.918
217.143
226.951
209.095
324.76
294.664
316.058
288.304
1425.34
1634.21
1305.32
2055.32
1604.43
1860.09
1457.51
1054.71
1212.64
990.89
1483.89
1207.78
1355.98
1116.76
812.477
931.052
780.227
1132.89
976.663
1053.13
898.315
725.943
740.91
646.717
951.737
875.07
859.05
760.167
669.207
619.312
546.911
854.517
787.509
729.744
646.433
611.296
527.499
477.006
771.035
701.793
624.162
568.845
535.987
464.072
434.228
680.115
612.336
556.2
527.571
454.357
427.528
397.695
593.475
534.485
519.762
486.847
1254.7
1385.33
1144.79
1751.51
1398.83
1565.62
1306.03
972.648
1088.89
943.881
1308.69
1088.24
1242.2
1076.87
764.534
901.798
804.239
1026.85
876.807
1028.89
908.191
730.203
694.862
727.024
767.742
693.398
733.62
766.408
517.943
554.032
552.174
621.398
504.8
584.835
569.674
421.311
404.46
354.274
561.873
507.353
378.843
361.71
384.599
338.598
286.451
496.981
481.135
358.492
356.166
371.417
275.633
264.603
478.123
465.154
360.849
376.636
1136.61
1331.58
1223.93
1552.01
1319.44
1651.98
1506.48
975.749
1219.12
1188.36
1265.46
1119.23
1472.82
1341.58
859.537
1162.23
1053.92
1074.08
954.938
1286.4
1113.82
905.753
791.553
903.091
874.579
880.009
732.922
936.217
721.624
542.203
764.745
495.454
722.277
458.167
767.556
416.17
634.502
478.338
446.187
419.268
630.618
515.516
318.272
441.017
367.721
405.759
374.933
490.052
438.311
271.468
350.736
316.237
373.189
378.394
427.039
403.459
1295.15
2106.53
1767.45
1812.43
1607.22
2448.87
2027.14
1269.78
1699.53
1550.06
1569.05
1420.03
1914.23
1642.45
1111.28
1479.21
1274.9
1356.6
1160.14
1543.01
1287.03
911.921
1197.47
987.489
1096.8
915.875
1195.55
966.485
695.676
907.765
700.944
856.71
685.885
887.657
692.72
472.142
623.819
457.146
633.402
514.366
631.736
511.017
363.368
419.306
355.125
488.968
438.092
483.891
431.033
315.577
341.014
309.038
426.51
400.24
417.79
383.463
1648.73
1917.97
1497.58
2325.56
1779.67
2091.59
1638.48
1249.34
1394.5
1153.72
1650.28
1392.85
1534.42
1298.91
1024.53
1090.34
935.854
1327.11
1190.25
1237.83
1074.03
918.024
896.225
795.113
1160.29
1064.79
1028.52
914.79
823.384
764.185
679.219
1039.26
961.316
883.25
800.633
732.348
656.709
602.959
939.264
869.292
782.275
757.916
644.189
591.825
567.422
851.187
800.828
759.017
756.81
567.71
560.39
525.852
785.569
737.95
752.364
723.577
1437.95
1619.66
1352.43
1962.3
1579.03
1793.42
1516.06
1123.9
1286.87
1115.74
1487.25
1268.96
1447.23
1258.8
911.27
1065.22
932.652
1207.4
1035.41
1195.42
1010.89
759.424
900.167
693.106
987.468
865.414
955.344
794.069
620.234
621.044
472.815
829.331
736.305
741.629
616.794
542.234
443.611
400.273
716.181
697.658
589.604
564.775
523.894
396.405
405.035
705.322
726.249
577.635
643.583
505.89
413.411
427.547
727.214
713.109
657.624
671.803
1372.58
1749.18
1581.64
1804.2
1552.32
2026.37
1799.19
1158.65
1537.57
1374.74
1487.27
1296.45
1724.55
1477.23
974.176
1311.3
1120.81
1230.31
1035.4
1392.54
1147.97
709.786
1060.68
889.104
974.085
801.004
1074.57
887.503
519.869
833.887
678.99
749.773
633.307
835.731
712.435
442.018
633.379
533.887
604.948
576.496
684.967
653.914
417.556
513.182
474.163
586.439
645
657.571
668.202
428.051
465.894
442.798
657.462
669.927
667.625
652.177
1685.65
2554.66
2078.58
2220.93
1900.4
2805.39
2206.55
1448.61
1952.74
1650.37
1812.65
1533.48
2044.05
1683.72
1163.18
1545.77
1277.87
1441.53
1183.08
1567.75
1272.77
909.224
1184.02
955.123
1105.53
909.603
1176.61
963.965
685.285
879.342
696.39
855.762
729.296
903.207
767.719
535.332
642.023
535.972
701.569
666.96
732.387
668.702
474.074
512.103
464.579
665.84
662.565
656.449
627.013
438.123
452.081
415.026
658.886
637.75
615.776
578.59
1846.72
2162.19
1714.29
2937.52
2319.46
2621.57
2214.78
1465.34
1610.69
1379.01
2158.44
1920.47
2100.88
1870.47
1269.12
1318.22
1145.13
1862.13
1729.64
1805.12
1585.49
1137.28
1095.65
976.171
1651.76
1570.6
1517.9
1380.2
1034.26
944.551
865.259
1528.45
1462.44
1342.84
1270.91
946.675
850.167
847.782
1411.37
1382.59
1266.7
1337.14
887.553
855.892
860.37
1359.66
1337.02
1349.55
1352.02
824.304
856.361
822.609
1309.36
1267.01
1344.66
1299.56
1656.33
1879.71
1601.77
2450.24
2158.1
2365.83
2113.29
1349.97
1531.7
1335.78
2060.89
1845.13
2031.44
1808.81
1100.32
1265.42
1054.45
1765.86
1524.04
1710.44
1428.01
919.142
992.04
831.26
1453.35
1303.83
1345.86
1168.58
795.849
783.055
667.061
1263.46
1183.7
1122.89
1017.03
786.963
644.815
651.082
1181.53
1281.14
1015.47
1150.64
836.193
684.014
769.976
1317.45
1340.25
1225.74
1310.73
814.643
782.808
784.297
1336.83
1298.51
1314.46
1282.11
1641.91
2143.45
1892.58
2405.87
2159.11
2650.94
2396.6
1370.16
1808.49
1536.83
2073.6
1832.57
2287.94
1968.14
1073.04
1445.43
1178.81
1729.14
1431.25
1855.93
1521.63
833.147
1099.87
909.366
1344.08
1159.23
1428.61
1227.02
676.682
860.555
752.923
1115.65
1017.08
1185.25
1107.98
657.836
733.992
737.977
1015.9
1151.97
1113.42
1228.51
770.458
755.949
780.892
1227.58
1310.72
1271.59
1297.22
782.127
780.939
757.753
1314.03
1281.63
1296.7
1251.06
1990.33
2920.08
2265.01
2806.81
2482.53
3376.61
2666.77
1587.11
2096.43
1722.45
2358.7
2004.81
2483.76
2097.26
1214.5
1604.69
1299.78
1896.29
1560.31
1962.16
1618.27
936.479
1204.06
1001.58
1468.74
1271.01
1531.08
1357.63
778.009
948.511
828.833
1230.87
1156.61
1323.07
1219.28
756.325
799.796
751.793
1162.01
1251.12
1215.22
1194.91
771.371
743.914
720.784
1273.16
1279.48
1204.1
1174.21
740.137
709.491
667.513
1277.19
1231.54
1173.52
1107.36
683.624
661.044
602.327
659.457
652.901
698.19
625.675
731.333
746.336
746.171
832.561
705.22
786.67
720.5
640.376
581.324
662.551
458.976
648.352
542.138
563.899
765.845
804.55
803.594
834.51
769.887
802.214
798.391
717.516
693.924
767.058
694.158
733.628
657.356
751.412
766.671
857.653
848.073
826.552
820.397
743.94
805.494
670.846
460.982
645.141
728.691
564.255
578.375
734.285
474.604
524.343
434.138
523.994
466.542
553.199
437.12
399.092
522.694
489.377
396.267
469.186
464.841
339.527
356.559
400.9
456.499
348.659
430.619
347.88
324.486
547.432
654.827
650.837
638.275
617.367
599.689
587.595
503.546
554.266
617.585
505.996
584.603
464.387
543.848
415.028
385.23
568.78
484.265
481.485
326.372
506.208
363.2
319.764
420.201
442.317
348.158
307.448
456.83
859.949
704.964
805.157
543.449
844.902
617.189
813.113
949.933
960.268
972.225
1036.88
928.215
987.251
990.81
909.18
854.131
929.249
895.432
892.466
865.938
943.589
917.451
892.713
829.355
969.543
741.63
957.115
922.793
863.74
531.893
717.58
811.286
614.44
810.704
867.273
961.662
1050.96
1014.89
1003.18
1004.67
1000.28
966.456
916.085
897.565
865.874
948.757
868.295
949.147
916.916
676.448
512.454
633.095
437.332
678.721
459.025
628.496
772.681
813.117
791.693
845.931
769.192
820.347
795.15
723.545
674.374
741.645
688.402
722.602
673.49
742.248
712.042
478.085
498.922
758.351
438.073
760.537
708.175
667.546
414.02
473.551
620.658
437.471
622.871
662.737
768.672
845.1
814.146
786.23
818.833
792.167
762.821
718.715
684.351
665.073
732.453
669.186
738.057
713.048
342.33
423.035
311.615
821.958
797.588
752.548
706.558
314.997
248.193
226.799
758.504
704.633
622.461
583.453
225.033
205.573
159.229
633.147
508.604
506.995
386.688
155.398
121.164
108.584
424.103
360.577
311.125
292.277
112.48
108.738
110.812
332.755
318.652
292.166
296.493
107.307
115.642
122.122
323.646
329.285
310.984
330.414
108.006
126.16
127.818
332.517
327.962
340.422
340.061
79.5414
126.168
107.607
297.674
292.431
326.007
301.044
393.216
418.373
344.197
856.085
822.684
833.625
819.299
367.995
218.115
254.9
392.716
382.545
382.223
200.41
288.259
115.262
121.051
300.102
280.025
306.632
109.592
178.99
85.6478
82.8895
213.07
185.716
211.726
72.8677
195.519
52.8893
63.6062
128.577
131.419
170.846
70.7358
202.561
65.6979
77.5124
175.442
186.562
202.362
77.0904
212.66
74.4604
79.1225
210.67
216.007
210.96
79.9964
209.024
79.2704
81.9733
224.134
224.679
212.652
80.9501
196.032
80.6585
78.4274
224.895
221.295
197.438
77.5701
86.7855
106.417
82.2892
248.595
249.094
229.238
232.126
342.629
390.919
327.244
825.409
820.463
799.877
755.118
383.773
162.243
199.986
364.528
375.148
364.444
161.301
408.905
136.684
150.468
391.504
386.241
411.652
150.734
345.256
126.291
140.525
349.56
335.241
368.455
132.12
234.227
87.4868
92.0438
254.842
233.013
246.391
86.442
230.504
79.0552
88.1405
211.585
209.315
231.204
88.7659
209.11
76.1757
84.6981
199.54
193.882
216.594
82.4111
163.996
64.1294
69.1244
169.618
161.472
173.173
65.247
102.737
44.1851
53.7741
114.559
105.853
121.49
45.4246
73.9154
65.1865
51.864
182.97
203.631
146.136
157.459
314.605
456.059
297.761
780.577
658.045
785.815
602.478
289.182
152.206
189.587
310.131
308.828
291.693
146.437
314.767
119.815
112.681
331.294
331.212
306.103
112.127
350.906
107.064
121.148
313.746
304.608
344.302
125.136
340.976
115.182
127.312
310.303
313.838
348.979
124.589
294.401
111.948
111.545
306.534
301.465
305.426
107.438
256.292
96.3777
97.6134
265.741
255.145
264.217
95.3863
141.536
61.1367
75.7809
171.888
142.266
178.522
61.8784
127.948
52.2387
50.1412
133.25
130.808
128.122
50.8603
49.1965
75.9562
55.0368
148.426
155.458
161.863
169.161
283.096
497.032
454.022
678.869
515.258
773.982
742.427
215.219
118.564
173.619
216.664
191.321
243.785
129.988
233.387
87.1588
83.0722
216.378
260.396
209.053
84.6457
384.762
134.107
120.011
369.215
389.024
357.533
131.062
405.708
142.424
143.134
405.107
401.158
408.968
142.588
339.745
122.743
131.342
353.249
333.279
359.661
125.381
254.078
97.105
104.524
273.448
260.61
274.896
97.6479
136.014
63.5605
70.5804
188.414
146.73
172.287
58.964
93.3274
38.9844
37.6151
97.5165
99.5418
92.2673
37.1485
57.8824
64.7216
56.6984
159.633
168.38
149.361
153.945
549.618
724.817
583.204
1064.78
1018
1112.09
1115.72
361.158
468.148
431.34
921.14
916.944
1075.8
1037.16
310.058
385.445
370.407
912.256
887.557
977.363
923.336
275.809
338.502
325.591
813.91
723.664
811.137
710.192
214.885
286.653
241.263
626.531
527.801
581.82
485.131