/*--------------------------------*- C++ -*----------------------------------*\
  =========                 |
  \\      /  F ield         | OpenFOAM: The Open Source CFD Toolbox
   \\    /   O peration     | Website:  https://openfoam.org
    \\  /    A nd           | Version:  10
     \\/     M anipulation  |
\*---------------------------------------------------------------------------*/
FoamFile
{
    format      ascii;
    class       volScalarField;
    location    "3.4";
    object      nut;
}
// * * * * * * * * * * * * * * * * * * * * * * * * * * * * * * * * * * * * * //

dimensions      [0 2 -1 0 0 0 0];

internalField   nonuniform List<scalar> 
12920
(
0.467934
5.25197
2.79349
3.73123
2.4661
2.29228
1.39062
1.06286
0.704706
0.649503
0.542042
0.479299
0.397094
0.36155
0.334121
0.315405
0.299501
0.278889
0.262619
0.229185
1.24889
4.37688
2.81086
5.02944
3.22073
3.42456
1.72527
1.86791
1.41161
1.34854
0.985854
0.846367
0.715351
0.67457
0.629336
0.617896
0.608748
0.608241
0.599428
0.569512
0.714886
3.35622
3.01321
3.18468
2.63548
2.73789
1.74135
1.62422
1.17579
1.08203
0.910439
0.889281
0.789759
0.734344
0.668588
0.635388
0.607197
0.585347
0.554979
0.494931
0.944518
7.05499
4.0608
7.40434
3.50218
4.52653
2.23912
2.23236
1.56574
1.50627
1.2247
1.13137
0.957939
0.867375
0.756632
0.678473
0.624714
0.588253
0.558442
0.492448
7.05643
11.8168
6.01492
8.73282
4.71437
5.47699
3.56478
3.65194
2.68403
2.17815
1.49968
1.20385
0.986292
0.903519
0.798729
0.713958
0.647825
0.596816
0.562484
0.491325
18.2691
11.7489
10.9529
9.75409
6.77849
7.80424
3.95199
3.83998
2.29802
1.83924
1.31982
1.16486
0.998348
0.914615
0.810445
0.722015
0.659737
0.603025
0.566853
0.48373
5.97416
13.8408
9.92999
8.98444
4.87229
7.07433
3.69937
3.47529
2.24461
1.76015
1.26783
1.11951
0.971017
0.870968
0.764129
0.692202
0.638593
0.592059
0.555211
0.47385
13.2668
12.1313
8.15861
7.61568
3.73573
6.19561
1.37847
0.988761
0.740669
0.490735
0.327162
0.25653
0.251967
0.25258
0.823989
0.707626
0.645653
0.592519
0.549649
0.471159
12.289
15.2423
6.67662
7.78483
3.68493
1.41409
0.349496
0.171333
0.116984
0.0654717
0.0727864
0.0839989
0.0890666
0.0899474
0.282618
0.71008
0.612726
0.539512
0.492291
0.445405
10.2325
16.966
9.30331
8.37804
3.7851
1.99758
0.3109
0.18704
0.171061
0.122579
0.104831
0.100171
0.0821971
0.0575219
0.188316
0.563641
0.492583
0.437872
0.416962
0.414259
10.0404
14.9158
11.3341
10.7924
4.01677
1.11178
0.252141
0.160727
0.148792
0.138457
0.123534
0.104955
0.0799741
0.0608922
0.179197
0.513662
0.46355
0.422632
0.411091
0.41309
8.29588
15.6727
9.45262
8.45957
4.28708
1.54237
0.235901
0.108237
0.139397
0.145308
0.129997
0.104495
0.0832264
0.0494373
0.191283
0.540426
0.447602
0.396657
0.381969
0.377742
1.98812
8.48768
4.5799
5.38851
3.41612
3.43961
1.06702
0.71162
0.578805
0.562203
0.502743
0.371303
0.226288
0.172464
0.543335
0.479231
0.419849
0.381127
0.359207
0.342036
4.04624
5.48195
2.55467
2.82339
2.49354
3.22924
3.24486
3.24556
2.61513
2.06552
1.57431
1.19177
0.852618
0.667371
0.552708
0.490564
0.436477
0.393653
0.354259
0.31916
0.445931
2.20162
2.81167
3.47007
2.73262
2.94035
2.6392
2.37344
1.97205
1.79603
1.5498
1.26702
0.936615
0.738318
0.612517
0.539113
0.471813
0.417076
0.375444
0.308086
2.61607
8.91722
6.2255
7.35774
4.35803
4.23372
2.90425
2.53822
1.89065
1.56191
1.20516
1.02046
0.816611
0.714739
0.624293
0.559074
0.488543
0.425316
0.387127
0.313913
2.0663
7.31944
5.71164
6.34645
4.05498
3.83374
2.84428
2.57724
1.84784
1.38904
1.01397
0.888089
0.777306
0.721139
0.664492
0.610117
0.540409
0.464283
0.419526
0.343101
0.0975851
2.42661
3.77102
6.95456
4.01457
4.45066
2.99901
2.69856
1.83276
1.38793
1.00903
0.892659
0.793074
0.749604
0.697785
0.651866
0.602306
0.534621
0.479161
0.39496
0.125845
0.932841
2.31174
3.64445
2.92628
3.25259
2.47277
2.17116
1.52414
1.2052
0.917277
0.853315
0.812559
0.805132
0.766058
0.717243
0.643754
0.561689
0.493845
0.40531
0.100351
0.53594
1.32928
2.21323
1.60116
1.48293
1.11959
1.05816
0.819863
0.705106
0.588008
0.535553
0.482184
0.444698
0.399732
0.350658
0.308303
0.266486
0.237822
0.190671
6.48221
15.8882
17.1837
23.5083
14.8269
13.2834
7.42407
6.07867
4.2381
3.98893
2.8585
2.47399
2.13703
2.09163
2.01132
2.00232
1.95484
1.93428
1.88228
1.71622
7.12489
33.4458
25.4235
27.3171
21.7538
21.8926
17.9909
17.6892
15.1001
12.4053
10.0099
10.7589
11.7931
12.9582
13.7301
14.2023
14.4377
14.6497
14.8964
15.0411
3.42204
30.3035
32.6377
24.8825
19.1188
20.2717
16.1035
14.5781
11.0828
11.2012
11.6837
12.901
13.1238
13.3012
13.5072
13.8528
14.0965
14.1324
14.083
13.7991
9.81084
46.0856
31.2885
28.812
24.5607
23.2808
17.5407
16.9385
14.9083
15.6379
14.5137
14.9448
14.6342
14.6125
14.1078
13.7847
13.7186
13.6285
13.75
13.4425
10.5941
37.0824
41.8291
36.7525
33.4404
33.7962
29.6291
27.8005
22.9553
18.4992
13.7224
13.5075
14.5474
15.3621
15.05
14.4398
13.9227
13.478
13.5774
13.1918
20.8183
34.243
53.6345
43.2117
38.4901
35.2812
29.5974
26.3267
21.6484
18.8401
16.5149
15.8189
15.5316
15.5243
15.1545
14.4805
14.1127
13.6583
13.4602
12.7561
22.9472
66.939
59.0969
42.0043
37.7723
35.2846
29.0174
25.8084
20.6902
16.9806
14.4913
14.1122
13.9993
14.1733
14.2821
14.1081
13.7382
13.3202
13.0991
12.4552
13.398
55.9356
47.6249
29.8858
27.6892
29.2853
21.7448
19.6502
17.0862
12.805
11.5786
11.6585
12.1617
11.4875
13.2786
13.1376
12.8011
12.6375
12.578
12.2657
33.5842
50.318
36.3889
32.5667
24.8923
21.2822
17.363
14.7621
11.8759
9.37546
10.4894
11.6442
11.8404
11.5443
10.9024
12.1189
11.5153
11.4985
11.6307
11.9232
63.3145
26.7001
25.6599
24.4137
22.2489
21.1146
17.79
17.065
15.1644
12.6898
12.4908
11.1956
9.52497
8.09012
9.427
9.89827
9.80786
10.106
10.5357
11.7618
30.9764
46.7892
32.2893
27.3553
19.5743
17.4682
14.0449
14.624
15.2818
14.8111
13.0776
10.9555
8.29817
7.94413
8.24648
10.01
9.41895
9.54988
10.3978
11.552
15.8224
39.5791
38.6655
36.4418
22.5442
16.3877
10.6444
12.4452
17.2995
16.6924
13.9309
11.2458
7.76121
8.31805
10.1889
10.5101
9.74403
10.0232
10.3915
11.257
8.61401
26.3454
29.9351
32.2572
28.4595
29.2651
22.6092
18.0441
19.6129
18.5723
15.3065
10.4378
7.62678
8.49065
10.9172
10.3013
9.98628
9.95408
10.2677
10.7621
20.9747
24.0547
18.4435
20.3818
24.695
31.6571
34.1179
31.4283
27.1677
22.7021
17.308
12.473
10.5189
10.2965
10.7871
10.7886
10.5432
10.1067
10.0852
10.2453
24.204
31.955
35.5477
30.1857
29.0989
32.2119
31.2591
27.4825
23.0737
21.7294
19.3859
15.6752
12.2422
11.5759
11.8475
11.7445
11.1795
10.5734
10.2463
9.80976
14.2534
44.5132
45.4179
41.6055
36.3535
34.7691
29.0891
25.5264
20.1867
18.4012
17.0434
15.6901
14.161
13.5697
12.995
12.3387
11.533
10.7953
10.4081
9.84095
4.80922
27.4914
40.5939
44.0402
38.4238
34.7424
29.2694
25.2439
17.8631
14.5183
14.2787
15.0414
14.9684
14.4464
13.8961
13.2136
12.2564
11.0415
10.6272
10.3894
0.475756
7.51448
27.0072
34.7853
35.3915
32.7417
27.6774
23.5401
16.5949
14.108
14.6373
15.8062
15.9734
15.629
15.1462
14.4933
13.8187
12.9015
12.2869
11.6251
1.06688
7.12458
22.4126
29.3416
29.977
28.1697
23.9532
19.5017
14.666
13.6491
14.4939
15.5161
15.7287
15.6704
15.4518
14.8788
14.0974
13.2626
12.7753
12.1891
2.97296
8.59839
8.78382
13.126
10.3702
9.14996
6.10578
5.36983
3.89707
3.59635
3.213
3.15891
3.004
2.93577
2.70235
2.33285
2.08322
1.8831
1.75297
1.4035
3.11608
15.0707
18.5326
22.5759
14.127
11.8045
6.95404
6.54137
4.66746
4.62491
3.56154
3.35397
2.94914
2.85992
2.70232
2.63113
2.54169
2.46114
2.34895
2.07922
8.95891
49.7023
42.9059
39.5073
30.3204
27.4523
23.3067
22.7342
20.3053
19.6349
18.9796
19.9426
20.3853
20.8166
20.9713
21.0938
21.3024
21.4378
21.6484
21.6726
6.96224
42.951
44.3249
42.2421
33.5635
31.4286
25.932
24.1503
21.5091
22.2859
22.3652
22.9199
22.6212
22.6939
22.6132
22.6906
22.66
22.4681
22.2768
21.878
24.7054
64.1168
52.5347
48.3516
40.9035
36.1221
30.3302
28.5293
26.5055
26.416
25.0963
24.8105
23.913
23.4225
22.8382
22.4801
22.2311
21.8072
21.6112
20.9233
13.4036
58.3056
63.7871
58.0875
52.9237
49.6192
42.3571
37.9831
31.2171
27.4689
24.7107
24.7141
24.56
24.1773
23.356
22.5861
21.98
21.293
21.0362
20.0961
28.974
70.8915
72.5096
63.9584
58.0086
51.6414
43.2066
37.7692
32.176
29.0854
26.8111
25.6925
24.6783
23.9359
23.0881
22.1953
21.5594
20.7573
20.3027
19.1153
62.877
67.9778
78.0025
64.7944
58.1727
51.7382
42.2813
37.0868
30.5483
27.0929
24.6707
24.0118
23.0856
22.5905
21.8528
21.1954
20.6166
19.983
19.5466
18.4489
68.4819
66.563
69.6995
53.4381
49.6767
46.5108
39.2416
32.9493
27.922
23.4422
21.7682
21.1262
20.706
19.5711
19.007
18.5327
18.3423
18.4516
18.4081
17.9158
41.5491
60.0285
59.2749
51.7814
43.3581
33.5023
32.0487
29.2258
23.5369
20.615
20.2888
19.7806
18.985
18.2059
17.0207
15.4355
15.5269
16.1404
16.8387
17.3117
64.4684
63.2709
57.0132
45.821
40.1483
37.2132
33.496
29.3891
24.9828
22.1109
17.9049
13.8303
12.9791
13.4557
13.4945
12.9816
13.6589
14.6253
15.8732
17.1259
70.2559
67.0931
52.0441
47.2573
36.8124
32.7933
28.3715
27.2944
25.674
14.1291
6.12709
8.27705
10.7688
9.96074
11.8331
13.7822
14.0128
14.8016
15.6256
17.0818
17.2131
58.5616
60.7541
52.6769
39.4419
32.7336
27.0738
27.8994
28.6828
25.4033
21.291
17.4326
14.7661
15.0633
14.851
14.044
14.0771
14.6484
15.1766
16.6497
14.5523
49.676
52.3813
52.6191
48.2051
47.8777
39.9849
34.6715
32.4456
27.9961
22.4003
17.1896
15.5739
15.7172
15.6206
14.9351
14.7889
14.9367
15.1297
16.0327
22.9429
41.3086
36.6481
43.1253
49.2409
52.3244
49.3104
43.3704
36.8985
30.6551
24.5121
20.2544
18.6195
18.0381
17.354
16.5295
15.7485
15.2076
15.0868
15.2295
54.764
64.3227
52.4595
47.4893
49.4754
51.4662
45.7093
40.2526
34.6924
31.3385
26.5781
22.517
19.9723
19.1264
18.3416
17.365
16.2977
15.4158
14.8798
14.4241
31.0168
61.7928
60.6025
57.8058
53.7075
50.6068
42.9291
37.4503
31.6994
28.6748
25.7792
23.4691
21.5039
20.3181
19.1451
18.006
16.8724
15.8441
15.1639
14.2717
12.1084
39.4978
58.0002
63.9399
56.174
49.9534
41.6279
34.8305
27.8669
25.5516
24.5859
23.8199
22.5896
21.4256
20.3317
19.2066
18.0521
16.8369
16.1651
15.0821
3.3886
16.7276
50.7644
55.253
52.0288
46.246
38.5566
32.3505
26.545
25.2666
24.846
24.3967
23.5187
22.6163
21.7262
20.7091
19.7608
18.6532
17.9434
16.7302
13.5342
23.138
40.1666
42.1852
41.7592
38.1525
32.8916
28.322
24.6125
23.7182
23.0706
22.3114
21.4585
20.919
20.3508
19.3911
18.5682
17.7724
17.6179
16.813
9.23954
28.2481
16.1606
16.96
13.0253
12.1329
8.00246
7.21753
5.5803
5.29708
4.64129
4.40464
3.98617
3.65423
3.22655
2.86668
2.64863
2.42335
2.24425
1.78493
16.9013
20.4661
15.5035
18.2778
11.644
10.0771
6.10995
6.44527
4.52861
4.68682
3.73237
3.63993
3.22449
3.11844
2.89933
2.77422
2.62872
2.48817
2.36266
2.08932
22.1681
58.3324
52.8167
38.7439
29.7079
26.7744
24.8418
24.3721
23.7429
23.4871
23.0885
22.8846
22.3967
22.187
21.8622
21.9588
22.0736
22.2681
22.4186
22.5118
28.5144
55.4355
60.6381
53.3081
42.3779
38.1127
32.768
30.8537
28.847
28.4555
27.5008
26.993
26.1383
25.7147
25.1987
24.8894
24.5277
24.1809
23.8927
23.5122
42.5312
71.5683
65.94
60.4244
49.9705
43.4335
38.5589
35.3398
33.2281
31.6831
29.8369
28.6108
27.2876
26.4005
25.589
24.9276
24.3015
23.5533
23.0665
22.2929
44.8199
72.1601
76.6296
73.0605
64.2692
56.4338
47.2461
41.8426
36.2563
33.1698
30.7272
29.3616
28.0334
26.7534
25.6586
24.6563
23.808
22.8178
22.2112
21.0826
42.4594
89.2359
83.3504
77.2043
67.5694
58.1419
48.2095
42.4116
37.2054
33.8834
31.2004
29.2276
27.5298
26.0999
24.9356
23.8714
23.0013
21.9358
21.2472
19.8948
55.8317
76.9945
82.6575
77.5749
67.741
58.369
47.4896
41.8806
35.4358
32.3307
29.4274
27.7893
25.8547
24.5267
23.2689
22.4408
21.7652
20.9988
20.4178
19.0466
74.9741
78.3235
81.8841
67.1619
60.567
54.0316
46.7698
37.123
33.6041
29.6734
27.2603
25.4282
23.642
21.45
18.6899
19.0083
19.3477
19.6716
19.5574
18.7216
46.0418
73.9753
75.2818
63.4745
53.6652
43.0078
37.6993
36.0277
29.96
26.5774
24.6051
22.6406
20.9238
19.1335
16.4026
15.6188
16.7286
17.866
18.3739
18.5997
33.929
75.5979
74.958
58.7593
50.2699
45.5098
41.5001
34.0543
28.4634
25.0529
20.4948
16.7592
15.1196
14.7522
13.5342
14.2598
15.508
16.8202
17.7568
18.5346
33.8545
74.6721
72.4906
59.7241
48.5772
43.0394
37.594
32.8162
28.7476
25.3462
11.3869
10.075
11.1721
11.2966
12.477
14.1479
15.2229
16.1309
17.0317
18.1922
20.923
65.7106
69.7746
62.2975
51.9221
44.5635
39.6787
35.9725
32.1894
27.4168
23.1363
19.2661
16.282
14.3915
13.2607
13.5465
14.4383
15.1624
15.898
17.5175
39.5464
59.7532
64.999
65.9335
61.8884
58.5084
50.3711
42.5279
36.6837
30.2348
24.6044
20.2822
17.8417
16.0634
14.9353
15.0052
15.163
15.2257
15.4596
16.5725
44.157
56.745
59.0182
63.1814
64.9381
62.327
54.2777
47.0629
39.3585
33.0071
27.268
23.7115
21.5357
19.946
18.2974
17.0292
15.9869
15.398
15.2289
15.4177
42.6974
73.8024
66.5412
65.2962
65.3301
61.3487
52.5314
45.4439
38.8426
33.6891
28.5559
24.8957
22.5604
20.8858
19.2222
17.7061
16.3452
15.3526
14.7097
14.3872
41.4594
75.4425
73.1008
69.5065
64.7498
57.7149
49.1435
41.9154
35.7862
31.53
28.0161
25.2357
23.0961
21.3859
19.8458
18.4406
17.0742
15.8497
14.9034
14.0717
30.407
50.197
67.5437
75.685
65.6604
56.2373
46.3546
38.614
32.6522
29.8408
27.6146
25.6978
24.0161
22.509
21.2628
20.0316
18.8304
17.4263
16.3505
14.8617
42.0431
53.4671
66.9061
63.6607
59.0932
50.0032
42.2236
35.8985
31.4753
29.3812
27.4989
25.9097
24.6168
23.4854
22.5715
21.5678
20.6568
19.44
18.4975
16.8276
36.8576
50.4306
50.9269
48.7183
45.5409
39.756
34.848
30.8484
27.8118
26.2297
24.5204
22.9492
21.5619
20.7996
20.3497
18.7483
17.7027
16.858
17.0449
16.3849
16.0975
20.3165
16.1645
14.7429
12.879
11.8771
8.46891
8.03502
6.43074
6.12069
5.31374
4.93085
4.32872
3.82426
3.31499
2.92325
2.71254
2.47121
2.30166
1.86838
43.9164
37.887
5.17975
6.88701
2.65289
3.01489
1.69248
2.05081
1.48567
1.64449
1.35791
1.36049
1.20282
1.1598
1.06444
1.00819
0.954723
0.920945
0.891749
0.807432
66.8524
73.5244
23.7653
34.2669
8.66664
15.6958
7.28973
9.85333
7.05309
7.95662
7.07303
7.38151
7.0989
7.29209
7.23894
7.3886
7.45554
7.53582
7.41048
6.84391
25.1529
36.9526
25.3038
29.3298
13.5328
15.6948
9.98996
11.5677
8.9596
9.64172
8.45087
8.63849
8.11085
8.17961
7.96534
7.99772
7.90897
7.87726
7.5991
6.92243
81.9929
78.5874
45.5194
61.3134
18.7389
35.021
13.1057
17.0411
10.7492
11.4444
9.37389
9.25928
8.38642
8.19287
7.83514
7.7025
7.51621
7.36254
7.03976
6.33173
83.364
80.0543
51.2079
61.9162
24.4739
28.891
15.2056
16.4559
11.7975
11.94
10.0097
9.51768
8.57016
8.17172
7.74466
7.4904
7.26466
7.03933
6.69156
5.93197
87.457
88.5628
77.1392
82.591
31.1309
56.6503
17.4807
21.2225
13.0449
12.7215
10.2445
9.4557
8.48172
7.93717
7.49617
7.16006
6.93678
6.67747
6.30149
5.4978
75.926
82.0386
68.5958
81.4
29.2103
49.7591
18.5644
20.0818
13.4673
12.6822
10.2701
9.26653
8.22068
7.62663
7.20682
6.94967
6.75081
6.52332
6.12
5.24969
70.8299
65.1116
72.6953
67.5205
29.1753
52.3845
45.4462
38.868
32.3154
28.6431
25.0741
22.4583
20.0538
18.4494
6.91705
6.61546
6.5231
6.36374
5.98351
5.08029
58.6027
84.6161
54.2675
65.7457
22.883
50.7948
42.7315
32.8004
26.6375
23.2259
20.6311
18.5902
16.9922
15.794
15.1113
6.48453
6.31714
6.24748
5.90759
5.09676
67.1891
87.464
62.1557
60.8271
24.8493
44.7278
38.8064
28.7294
23.2223
19.4991
16.3941
13.8328
13.5734
13.9615
14.2239
6.36215
6.16476
6.0824
5.81694
5.15407
83.328
80.9588
56.2609
63.5197
22.3175
43.3613
36.2713
28.329
23.3697
19.4744
15.428
12.2285
11.3641
12.7213
13.8504
6.03821
5.77251
5.73866
5.59746
5.173
73.255
73.3
61.6874
64.2913
28.0508
47.124
41.0746
33.1115
26.8753
21.2397
16.7697
13.8621
13.2297
13.1336
13.2459
5.51998
5.33045
5.36099
5.33014
5.11848
44.5567
72.4784
60.3865
63.067
30.2026
29.8025
46.8275
41.097
32.7708
25.8691
20.4817
17.0527
15.3524
14.2252
5.47931
5.17931
5.11327
5.1573
5.13815
4.99672
65.8518
66.8775
45.5937
67.8011
35.8469
38.4051
23.0766
18.382
13.0786
10.3974
8.32217
7.12738
6.34535
5.79105
5.36342
5.1289
5.00804
5.00456
4.89838
4.68476
33.2826
55.271
40.9939
40.0069
30.9723
27.955
19.4492
15.707
12.1161
9.87248
8.16279
7.10856
6.3794
5.81873
5.40301
5.12923
4.94021
4.8565
4.69542
4.36427
81.057
80.1844
45.5183
56.0608
32.4726
31.2935
19.1378
15.4976
11.3475
9.83941
8.27405
7.36789
6.67079
6.10534
5.6835
5.34459
5.0981
4.91341
4.65351
4.2498
18.1003
48.6047
38.8059
41.8472
28.3841
23.5559
15.7544
12.8224
10.0706
9.24164
8.20336
7.66665
7.12332
6.66145
6.25986
5.88751
5.59244
5.31671
4.96879
4.40209
69.7282
68.2259
34.513
55.2925
24.1609
24.4474
14.7011
13.7472
10.6093
10.3208
9.14896
8.74447
8.17896
7.76295
7.35831
6.9375
6.60745
6.24026
5.83791
5.12581
60.8205
56.5102
30.7044
28.8025
17.6024
15.9065
11.7121
11.2875
9.76478
9.73252
8.90991
8.47615
7.75519
7.30351
7.0856
6.89722
6.78395
6.59608
6.31723
5.52569
6.25091
18.2246
6.2121
8.57338
4.26208
4.71795
3.12336
3.10803
2.44897
2.25726
1.90278
1.68393
1.42675
1.20839
1.04211
0.931962
0.876787
0.802675
0.751198
0.613028
19.3663
16.6888
8.22201
25.152
21.5495
24.8089
8.10147
14.4592
7.33954
6.15723
19.9783
16.6557
7.06482
6.10615
6.70204
24.8924
21.9267
22.7686
6.33675
27.1378
24.1054
6.94522
20.9888
18.3568
5.63898
6.20762
23.1185
20.3153
0.197524
0.281481
0.166715
10.649
10.7472
11.881
12.382
0.124262
0.15745
0.133237
10.5543
9.30235
12.4242
11.5516
0.0750034
0.131353
0.13235
8.65726
6.67124
11.1769
10.1941
0.0706146
0.126429
0.104243
6.65203
7.63603
9.83068
9.61072
0.0835167
0.102584
0.100409
7.95018
8.9642
9.73661
9.70793
0.0900636
0.0993325
0.0890844
9.1654
9.57144
9.59236
8.78131
0.0907219
0.0841922
0.0654207
9.58333
9.51428
8.46013
7.38112
0.0728714
0.0597627
0.0482556
9.40222
8.8339
7.29157
8.21759
0.188289
0.293787
0.191373
12.365
13.0126
10.5729
11.6445
0.176585
0.189037
0.167071
13.1065
12.4887
11.8913
11.6362
0.140001
0.155671
0.128856
12.047
10.2731
11.3864
10.9326
0.105673
0.128371
0.132591
9.75759
9.86844
11.127
11.0214
0.10223
0.129102
0.114096
9.87901
9.4521
10.6474
9.23579
0.087657
0.107618
0.0888298
9.20179
8.1633
8.79549
7.07498
0.0651617
0.0776134
0.0619619
7.80232
6.49687
6.4866
6.28889
0.0421757
0.0620146
0.0436106
6.14579
7.32174
6.04903
5.40905
0.162515
0.234063
0.118142
9.25882
10.6593
7.36299
8.4257
0.153363
0.118946
0.163459
11.0616
11.8999
9.593
13.3754
0.13922
0.167704
0.154211
11.9009
11.8534
13.9115
13.8566
0.128705
0.149435
0.132082
11.7827
11.2066
13.4206
11.5922
0.109576
0.124642
0.10405
10.8229
9.58508
10.9859
9.46052
0.0914149
0.100246
0.0930226
9.16133
7.31743
9.05153
7.24979
0.0601564
0.0846012
0.0530614
6.54909
6.39679
6.27993
5.81335
0.0457248
0.0515404
0.0477508
6.43312
5.87801
6.37158
7.72655
0.110823
0.440293
0.231123
6.23367
7.49403
8.89125
9.11883
0.132859
0.204458
0.15512
8.67483
12.7978
9.28718
11.5603
0.146899
0.15715
0.156127
13.5133
13.7666
12.3338
12.8961
0.134987
0.158503
0.148953
13.4532
11.772
12.736
11.579
0.11024
0.151017
0.132718
11.2056
9.52819
10.9879
9.1369
0.0918152
0.12908
0.0909697
9.04322
7.09208
8.17089
5.69497
0.0520404
0.0805115
0.0527078
6.15304
5.52563
5.1015
4.91766
0.0451196
0.0527571
0.0413547
6.04627
7.5692
5.30747
6.75969
15.2232
17.6146
16.7177
29.3215
27.5913
30.5724
27.9189
12.7734
16.5488
15.0459
26.246
22.2438
27.0115
23.698
9.44248
14.4625
13.0321
20.958
18.2712
22.6741
20.4865
10.2641
12.6493
12.4437
18.0922
18.1546
20.0549
19.0658
11.4837
12.4597
12.1081
18.2146
18.2399
18.5569
16.8741
11.8705
11.9013
10.9058
18.1559
17.6965
16.4006
15.2137
11.6974
10.556
9.59036
17.5546
17.1345
14.9382
14.4603
10.565
9.52438
9.99326
16.926
16.2612
14.4711
14.6701
17.1995
15.4121
15.2796
30.175
27.7475
26.3201
25.1865
15.7955
15.4134
14.9832
26.9061
23.9419
24.9035
23.4735
13.1156
14.6627
14.0548
22.9443
20.5725
22.8708
21.426
12.6292
14.1518
13.3789
20.1998
18.3836
21.0415
12.5702
11.5665
12.6752
10.8535
17.2751
14.2524
11.2215
9.39435
9.92453
10.3334
8.57436
13.6147
12.515
9.19003
9.22637
8.29966
8.0664
7.64202
12.3618
12.2942
9.2156
8.70036
9.0318
7.29622
6.52557
12.4641
13.57
8.54615
8.96095
14.2544
11.8949
12.2206
24.7533
24.5132
23.2176
23.8555
15.3395
13.3922
17.0848
24.5681
24.0364
24.6203
26.2359
14.9784
17.5371
17.1532
23.6318
22.0653
26.1177
24.2499
13.676
16.5507
14.374
21.647
12.9405
23.3368
20.4879
11.4699
13.6735
11.8108
11.8869
10.7331
19.5774
17.0882
8.96461
11.2868
8.89084
10.9043
11.0958
16.2414
13.6879
8.04587
7.93764
8.06107
11.0111
10.1941
13.3072
13.6934
6.94344
8.60573
9.41753
9.89836
9.59738
13.8109
13.8712
11.228
15.7773
13.8158
22.7176
23.5115
27.3355
27.0057
16.6652
13.9322
15.9868
24.3772
26.4938
26.9206
27.5594
17.2081
16.7886
17.0163
26.4879
24.6935
27.5257
25.9213
14.6211
16.7225
15.1146
23.7866
20.835
25.0511
21.8639
11.8627
14.2719
11.7673
19.8842
17.0858
20.5345
16.896
8.70341
10.569
7.64713
16.1552
13.5098
15.603
12.9902
7.74783
7.06099
7.16387
13.1203
13.6778
12.7534
13.3261
9.37145
7.65175
8.72652
13.9136
14.1009
13.6297
14.0867
30.7784
34.1549
30.7822
35.1529
37.1157
41.4336
36.0729
24.8736
29.6468
25.9254
35.2021
30.4817
34.3678
29.9196
20.8515
24.8379
22.5107
29.1607
26.4075
28.7272
26.0091
20.3464
22.0557
20.6364
25.9521
24.7053
25.4007
23.2177
19.9437
19.9446
17.8574
24.3255
23.0174
22.3032
19.8521
19.1583
17.3307
16.168
22.6548
21.5144
19.2491
17.8441
18.4364
15.9281
15.5598
21.1772
20.0213
17.5329
16.9096
17.4064
15.5761
15.5002
19.6461
18.3819
16.7594
15.9064
30.4393
29.717
27.9639
40.3282
35.3652
36.8359
33.3696
26.038
27.5123
25.6562
33.7859
29.6347
32.3034
29.2597
22.5541
24.9726
23.1327
28.4586
25.7921
28.3233
25.8986
21.1887
21.5686
22.1233
23.6225
20.7562
22.8512
23.431
10.5148
16.4434
13.5069
18.3298
11.7123
16.7688
12.1944
13.0227
6.77686
8.07576
16.0398
15.0773
6.21321
8.1061
13.2318
8.35624
8.40664
14.9481
14.9466
8.59511
9.67845
14.3669
8.49185
9.44283
15.0049
14.9338
10.1091
11.2037
27.4513
27.2732
27.298
36.0158
33.2431
36.3826
34.5715
26.2198
27.8146
28.5027
32.3796
29.7332
34.1154
32.2081
23.7306
28.1505
25.8685
28.8409
26.358
31.2975
28.1832
19.3582
10.5061
23.7314
13.8268
21.6267
2.85627
24.9812
15.9489
5.94529
17.4305
1.49228
16.5981
1.54285
16.6398
10.5367
17.462
15.1643
7.31203
10.2253
19.4446
17.312
10.1365
14.8625
14.8797
10.5804
10.7553
16.7791
15.3625
10.0809
14.8321
14.6226
10.9518
11.5257
14.9612
14.1788
27.2793
32.3744
31.0536
37.5064
35.413
36.4236
39.9083
28.9893
30.9331
30.6665
34.9902
33.1324
38.9459
36.2246
26.4012
30.3577
28.0419
32.1783
28.8269
35.0576
31.1687
22.283
26.9875
23.4209
27.6866
24.4468
29.694
25.769
18.3809
22.0292
18.3308
23.4128
20.4725
24.4314
20.9426
15.0571
17.0916
14.807
19.5584
17.4209
19.9392
17.9399
15.0079
14.6182
14.9395
16.9221
15.6522
17.5266
16.5147
14.8573
15.0735
15.0467
15.2655
14.3588
16.1344
15.1448
37.9863
42.6548
36.5738
42.0997
36.3578
41.9462
33.6144
31.2996
34.719
30.1059
34.3795
29.6006
31.5274
26.6857
27.103
28.8745
26.0285
28.1056
25.0318
25.4044
22.539
25.0806
25.3677
23.1737
24.4463
22.5165
21.8408
19.6972
23.0566
22.2843
19.8844
21.876
20.0884
18.952
16.8322
21.3261
19.2515
17.6386
19.6496
18.2359
16.2328
15.1349
19.5579
17.2645
16.4637
17.7957
16.6344
14.9994
14.7606
17.8243
16.2474
15.347
16.3279
15.4097
14.6515
14.0707
35.7884
38.1896
33.9218
40.6511
32.6863
37.8165
31.2155
29.682
32.6569
29.2555
30.6811
26.0039
29.5848
25.6041
25.7191
28.249
25.8055
24.7636
22.1702
24.5534
22.1016
21.8842
24.8663
13.1909
21.4788
19.115
21.3337
17.5157
17.4055
11.5661
9.18516
18.2409
15.8476
16.203
13.4278
15.3819
9.01313
9.53828
15.1271
13.8819
12.7602
11.1312
14.797
9.74924
10.4628
13.809
13.9523
11.0778
11.9373
14.4904
10.8
11.556
13.9541
13.7119
12.2105
12.6334
33.9109
38.4488
35.6807
37.8895
31.5692
40.0188
34.6261
29.7238
34.9076
32.2921
30.0358
26.1669
33.1919
29.0633
26.2014
31.2318
27.932
25.0915
22.4633
27.6544
23.985
12.7729
26.8791
23.8619
21.6206
17.8707
22.8797
19.7003
9.88241
22.8746
20.0724
16.6345
13.9961
18.6966
16.0093
11.1364
19.2059
16.824
13.2919
11.5181
15.1496
13.45
11.1503
16.1468
14.4948
11.3695
12.0256
13.2488
13.0927
11.7616
14.1355
13.54
12.2659
12.6539
13.063
12.8305
36.7345
41.4563
41.4979
42.114
36.0919
41.8733
41.9471
33.3142
40.3495
36.8667
34.5976
30.1982
40.0185
35.0052
28.5744
35.4652
31.1327
28.6661
24.5394
32.8811
27.68
24.1779
29.5812
25.6981
23.3169
19.8778
26.0163
22.0904
20.1835
24.3292
20.8804
18.8005
15.9795
20.6565
17.4838
16.9362
19.8854
17.7747
15.1756
13.7543
16.6258
14.9784
14.7552
17.1932
15.7249
13.5377
13.1982
14.5677
13.6723
13.6626
15.3183
14.3487
13.1057
12.7219
13.4244
12.6951
34.6726
39.9939
31.5536
8.41188
7.48304
7.81256
6.61106
28.0835
29.5643
25.0424
6.93593
5.80661
6.46035
5.86381
23.7961
23.8523
20.8374
5.65169
5.4968
5.73437
4.66184
21.2645
20.0369
17.8291
5.15744
4.92011
4.4043
3.96817
19.0015
17.1458
15.4117
4.82574
4.78516
3.88147
3.83171
17.3639
15.0392
14.5747
4.63722
4.60937
3.94451
4.98099
16.0563
14.5938
14.5526
4.57449
4.57808
4.96851
4.90741
15.0559
14.4742
14.0014
4.49426
4.25866
4.87692
4.70039
30.6215
36.0396
29.3586
8.40191
6.49949
7.98407
6.37024
24.4027
27.8097
24.0043
6.34971
5.8001
6.25688
5.48529
20.2632
22.8563
20.0577
5.45677
4.34978
4.9895
3.90927
17.1768
19.228
16.1715
4.098
3.63162
3.65403
3.12051
14.3452
15.1121
12.6466
3.53176
3.42435
2.99671
2.76258
13.4183
11.9088
10.945
3.53361
4.67154
2.83811
4.03406
13.9457
11.227
12.4475
5.01768
4.94262
4.71434
4.99755
13.7414
12.7037
13.0311
4.90214
4.70002
4.95646
4.72793
29.8099
39.1107
33.2059
7.67789
6.41729
8.2462
6.97831
24.5375
31.709
27.3752
6.29708
5.50098
6.76528
5.90201
20.3902
25.9193
21.9118
5.00571
3.91271
5.46799
4.25387
16.4183
20.7218
17.4421
3.65123
3.09686
3.97026
3.43325
13.0219
16.4787
14.0866
2.96845
2.73623
3.33433
3.21563
11.1365
13.4733
12.8285
2.81688
4.01885
3.34627
4.53505
12.4834
12.919
13.1501
4.70391
4.99578
4.95686
4.87174
13.0363
13.1547
12.9625
4.9489
4.6971
4.84756
4.63667
34.7289
45.9795
40.7746
9.31647
7.25504
10.8514
7.67768
28.4448
38.7333
33.2199
6.95159
5.94949
7.30136
5.83789
22.5396
31.0451
25.8251
5.71194
4.46309
5.66089
4.80225
17.7654
24.2042
20.3355
4.18429
3.69422
4.69255
4.28106
14.3973
19.0628
16.3579
3.61628
3.54371
4.3577
4.19678
13.252
15.7191
14.4666
3.69471
4.8826
4.27485
4.2415
13.184
14.1402
13.4605
4.88662
4.81445
4.34404
4.2535
12.8075
13.2371
12.6218
4.79096
4.56734
4.29451
3.98388
17.3659
20.6468
15.7246
19.9963
18.3973
21.599
14.3181
13.7257
21.9492
14.1254
17.8289
18.0669
22.7295
4.30686
7.66213
10.2317
10.0111
1.40925
12.9614
5.73654
1.90622
21.9349
24.6595
24.3087
24.9241
23.7763
24.3719
23.1722
18.0138
20.7509
23.0841
17.3488
22.4425
14.9645
20.2416
13.8635
19.8973
24.4824
12.6817
23.5242
4.29664
19.5016
8.00498
1.81473
10.9288
10.2016
6.07113
2.47001
13.8795
9.51494
15.3217
9.72795
14.7929
10.5654
15.629
8.90479
4.11381
8.63545
6.73578
1.19174
7.50546
4.7907
1.06512
3.89378
6.70378
5.64417
3.62073
6.92993
4.41429
1.79995
11.3487
19.0827
18.5643
15.2345
17.5598
12.9402
13.5997
10.3856
15.6163
17.5146
11.7466
16.459
9.77187
12.5474
4.54439
1.51086
9.3349
6.38704
5.1962
1.36428
8.24992
4.23693
3.38859
7.33744
6.11811
4.67794
1.70077
7.61412
18.7189
8.1044
18.3337
1.65016
19.6062
2.05608
17.4797
24.4366
24.3315
23.8952
26.0862
23.3538
25.538
25.0641
23.2156
21.2566
22.8973
23.0592
22.2584
22.1475
24.0626
21.7656
16.7593
12.6932
26.0726
3.44604
25.7714
23.4172
19.0728
1.95739
7.84417
19.2745
2.46222
17.7248
20.8572
25.1834
26.8568
26.6461
26.1128
26.3538
25.8316
25.5486
23.9355
23.8133
23.1606
25.1146
22.7945
24.8286
24.3189
15.5522
5.76881
15.4269
3.56372
15.9044
1.998
15.021
20.2662
20.3042
20.0808
22.0914
19.4139
21.1551
21.1552
19.4577
17.8611
19.219
19.3592
18.6284
18.6525
20.2573
16.0615
1.75509
5.2642
18.1127
1.82333
16.779
17.174
15.7311
3.56934
5.20506
15.97
2.44541
15.2018
16.4538
20.8692
22.8316
22.1362
22.1606
21.7837
21.8813
21.1859
20.0409
20.0461
19.4879
21.227
19.2167
20.9592
20.3199
1.12524
1.14478
0.966405
7.6418
9.2052
7.19907
8.04749
0.819225
0.741071
0.634128
9.76787
9.22061
8.16927
8.26924
0.616321
0.526315
0.419048
8.71395
7.61875
7.43903
5.93663
0.396065
0.319399
0.269918
6.86567
6.01724
5.09503
4.99974
0.277129
0.25351
0.253448
5.91377
6.01448
5.16779
5.42403
0.25352
0.263417
0.272945
6.37623
6.67753
5.87347
6.46265
0.258554
0.280628
0.286597
6.93398
7.06118
6.86825
7.12272
0.197405
0.288799
0.254164
6.53637
7.59852
6.87537
6.9233
0.861374
1.51608
0.886383
8.00553
8.36906
8.20663
9.40048
2.61782
0.281745
0.293934
2.43056
2.58995
2.38186
0.235852
3.03458
0.151987
0.151793
2.78274
2.74228
3.02431
0.135984
2.08584
0.10756
0.100842
2.21464
1.95644
2.41957
0.088979
2.60756
0.0654088
0.0781796
1.64043
1.76717
2.2776
0.0857748
2.84937
0.0779285
0.0942701
2.44581
2.61526
2.75472
0.0947129
3.54791
0.087895
0.099908
3.22755
3.39808
3.42622
0.100949
3.62125
0.0903248
0.100598
3.84417
3.87347
3.67129
0.0974096
3.35404
0.0910214
0.0896181
3.88095
3.77059
3.40469
0.0879034
0.215808
0.253826
0.203107
6.19132
7.35242
6.38409
7.74715
0.975091
1.55337
0.918946
8.73068
9.86015
7.87008
8.66273
3.26447
0.225946
0.306088
2.52936
3.09894
2.55912
0.229031
4.80965
0.184896
0.209685
4.43363
4.61012
4.67386
0.205044
4.36567
0.163
0.181107
4.50661
4.35521
4.5887
0.16734
3.3872
0.112568
0.118516
3.37536
3.17107
3.31867
0.112521
3.73356
0.104339
0.114536
3.43944
3.50399
3.74414
0.114166
3.33216
0.0972549
0.104083
3.44307
3.36976
3.44799
0.0997707
2.72277
0.077368
0.0804974
2.97097
2.80025
2.8482
0.0750371
1.71146
0.0525268
0.062438
1.91306
1.8143
2.0062
0.0533418
0.178465
0.157713
0.124031
5.59396
7.61265
4.49031
6.43532
0.71067
1.11641
0.703435
7.12325
7.34805
7.36809
6.87877
2.38159
0.192131
0.244774
2.17721
2.52711
2.02842
0.189372
3.92263
0.158038
0.149718
3.79132
4.01332
3.56686
0.150442
4.72554
0.143467
0.163456
4.20585
4.11373
4.63515
0.164048
4.48217
0.137818
0.147435
4.27676
4.30996
4.62713
0.139199
3.75691
0.119434
0.115908
4.14064
4.05358
3.89902
0.110693
3.34746
0.101422
0.100666
3.54854
3.4123
3.41561
0.098875
1.89051
0.0681539
0.0824858
2.34224
1.96916
2.3615
0.0693266
2.56618
0.0614082
0.0597502
2.40689
2.50128
2.35973
0.0616251
0.121273
0.195717
0.142791
4.84116
6.23473
5.71726
6.91242
0.756786
1.49976
0.961606
6.47967
5.54566
6.8559
6.71925
1.69754
0.165615
0.241293
1.56353
1.53472
1.74961
0.168391
2.61117
0.110783
0.103176
2.45194
3.14722
2.16531
0.10097
4.73728
0.143649
0.125677
4.75095
4.9866
4.42292
0.134287
4.71849
0.14333
0.14241
4.99939
4.89573
4.81437
0.141422
3.92601
0.123932
0.131241
4.22035