/*--------------------------------*- C++ -*----------------------------------*\
  =========                 |
  \\      /  F ield         | OpenFOAM: The Open Source CFD Toolbox
   \\    /   O peration     | Website:  https://openfoam.org
    \\  /    A nd           | Version:  10
     \\/     M anipulation  |
\*---------------------------------------------------------------------------*/
FoamFile
{
    format      ascii;
    class       volScalarField;
    location    "3.4";
    object      omega_0;
}
// * * * * * * * * * * * * * * * * * * * * * * * * * * * * * * * * * * * * * //

dimensions      [0 0 -1 0 0 0 0];

internalField   nonuniform List<scalar> 
12920
(
85.6871
164.351
162.174
156.263
137.327
118.6
94.0769
73.2578
59.5715
52.8789
49.4717
45.3924
42.2787
40.2839
39.461
38.588
38.2183
37.3975
36.9349
36.1046
137.002
183.364
157.014
156.044
132.336
109.676
90.5098
85.53
80.7823
75.2148
65.6099
58.1033
53.7179
51.3203
50.0132
49.4247
49.4321
49.5589
49.9156
50.6176
114.572
194.17
179.435
160.284
138.412
115.016
95.9811
84.6669
73.8981
66.541
61.8207
59.052
56.3267
53.5888
51.471
49.8447
48.8098
47.7882
47.005
46.0559
99.6579
163.527
152.757
147.454
133.172
115.709
100.885
89.823
82.052
75.9219
70.6542
65.9274
61.5614
57.9004
54.4045
51.1076
49.054
47.248
46.4018
45.0524
316.996
228.273
191.412
182.883
164.291
152.539
135.729
129.047
115.605
100.683
83.731
70.8605
63.3866
59.3744
55.9374
52.3905
49.7932
47.3362
46.2886
44.708
468.825
237.569
218.048
195.667
175.986
155.134
127.753
112.521
93.4056
79.661
69.362
63.8095
60.1367
57.2669
54.2755
51.0352
48.9003
46.6773
45.7763
43.9268
319.903
271.577
232.648
178.44
154.752
145.752
123.858
110.283
93.3709
79.5975
69.5851
64.4648
60.8038
56.8483
53.204
50.0685
48.1837
46.3627
45.5849
43.8652
326.429
240.471
195.232
151.836
127.154
123.071
199.855
159.729
150.483
119.433
102.239
92.2941
92.715
91.2695
55.3567
50.8329
48.5346
46.7295
46.0202
44.3134
371.898
292.627
192.122
153.549
128.159
186.433
305.513
201.771
171.55
129.353
140.759
151.743
157.839
160.153
96.7358
51.8857
48.4735
45.7175
44.5127
43.7242
374.155
343.342
257.205
161.075
122.673
178.124
253.844
208.871
203.229
174.859
158.56
156.747
145.59
123.268
79.3065
47.3971
44.4091
41.745
41.1424
42.0544
300.058
300.711
277.956
211.788
144.793
189.513
247.605
196.859
186.955
188.407
189.697
177.669
150.889
129.033
75.1822
44.4897
42.1739
39.7128
39.2724
40.424
377.804
313.465
215.984
167.14
130.591
176.429
225.34
162.142
199.81
213.064
201.774
179.23
154.896
111.357
74.7726
43.5648
39.6087
37.0911
36.7093
37.8702
150.689
170.349
161.527
157.113
147.047
141.773
236.996
183.594
161.186
152.013
140.601
116.644
86.1359
71.6281
43.6893
40.645
37.9652
36.0538
35.3313
35.8558
216.143
166.968
138.032
128.768
127.613
132.237
133.114
129.501
116.551
101.426
87.4023
72.8505
59.5555
50.4281
45.0474
41.6231
39.0842
36.8085
35.1894
34.6275
95.0373
154.914
171.527
163.554
141.331
133.772
126.628
115.483
104.071
94.9258
85.9662
74.2081
62.3533
53.3047
47.4723
43.614
40.5063
37.8231
36.1841
33.9656
131.301
207.918
203.134
179.483
151.225
138.065
120.859
107.942
93.6935
80.4107
69.7587
61.6915
55.2791
51.0127
47.8094
44.8219
41.9318
38.8032
37.3077
34.7108
167.91
200.069
200.293
179.237
151.353
137.499
122.528
111.37
94.4524
77.1294
64.211
57.2993
53.8274
51.4308
49.7518
47.6387
45.0739
41.597
39.7407
36.8538
38.469
125.199
159.778
156.258
141.93
133.993
121.12
109.581
93.2868
77.2724
65.47
59.2191
56.2145
54.3182
53.0059
51.2538
49.5629
46.5415
44.3023
41.0399
48.6259
95.5837
134.905
134.709
124.472
118.466
109.208
97.5791
84.2383
72.1727
63.5813
60.0204
59.0179
58.2011
57.1491
54.9724
52.2081
48.8945
46.3498
43.3061
32.2564
62.5987
100.817
104.725
96.384
84.7543
77.9268
72.3633
66.1341
60.508
56.6801
54.0878
52.146
50.2406
48.3554
45.5905
42.9955
39.5578
37.2106
33.9045
101.583
104.184
100.366
91.9599
78.9028
64.4384
50.7168
40.4898
34.0935
30.4044
26.7485
24.5091
23.4867
23.1687
23.1044
23.1065
23.1416
23.175
23.2646
23.1305
146.495
187.93
152.684
112.59
73.5433
61.2864
52.5971
51.5563
50.7451
49.3939
44.4238
36.4429
31.0925
27.7861
26.0558
25.2395
25.0237
25.0459
25.1934
25.7619
97.1275
147.063
153.495
138.799
97.0313
73.3026
61.5403
56.9916
51.7479
45.9829
40.0437
35.5789
32.5945
30.356
28.4377
26.7761
25.55
24.7534
24.2471
24.1101
319.85
138.533
115.801
94.2824
77.0787
67.3096
61.696
56.2838
51.8918
46.2355
42.3613
37.8295
34.4441
31.6954
29.68
27.7337
26.0834
24.6586
23.6683
23.0218
272.2
138.708
110.437
101.45
86.5268
75.8321
65.9191
64.3452
62.5669
61.3355
55.7413
44.3569
36.3325
31.9183
29.5002
27.5911
26.0156
24.4953
23.3734
22.5363
485.742
143.521
111.729
99.2393
84.0799
71.7935
58.6799
53.3682
46.9476
42.2384
38.0181
34.4286
31.4725
29.056
27.0895
25.4654
24.1313
23.0327
22.4703
21.9745
354.771
153.446
99.9351
83.6659
73.1495
67.2852
59.2297
54.314
49.7492
46.0325
41.9409
38.0493
33.878
29.7858
26.3309
24.1242
23.0547
22.446
22.2667
22.1551
211.614
133.393
92.5534
84.6673
70.5296
62.4521
66.8651
58.0868
53.5838
48.9534
44.871
41.7879
38.3627
34.7762
26.4349
23.657
22.7031
22.5417
22.7347
23.0124
211.307
160.073
110.838
86.2623
69.9126
69.2016
71.1074
59.7275
54.2407
49.6295
42.768
38.3079
36.4239
34.5385
30.2597
23.7458
23.0417
22.9011
23.0468
23.5794
327.014
230.939
150.772
97.5287
71.1728
63.087
60.3544
50.224
45.0517
41.1057
34.3618
32.8278
32.3321
31.2851
26.5085
24.0501
23.4883
22.9248
22.8495
23.2772
349.255
236.216
165.816
124.436
88.9858
78.0529
65.5659
51.1776
43.3232
41.8896
44.7746
45.0554
41.1664
31.6246
24.7156
22.7836
22.7966
21.9376
20.6659
20.7404
152.561
158.278
109.243
86.1623
76.5796
72.6404
70.0756
56.0887
49.5485
50.1581
51.0349
49.9747
45.2211
28.498
21.7317
20.4598
20.0486
19.0131
18.6016
18.8786
152.852
145.331
119.326
101.101
90.2394
84.4036
87.5333
82.5814
66.5569
58.6226
54.4372
52.1079
40.4551
28.2565
21.6812
20.3964
19.3445
18.5747
18.0093
18.0487
267.929
199.316
145.326
110.955
90.6125
79.6485
70.8313
66.0412
62.0348
57.695
53.6279
47.5108
38.3011
30.1935
24.7513
21.8345
20.1302
19.0906
18.1434
17.6547
121.165
149.531
142.084
114.236
89.016
75.2268
67.5654
64.9383
62.1741
54.9058
47.9825
42.46
37.2677
30.4616
25.027
21.9264
20.215
19.054
18.1973
17.2785
183.597
144.112
122.518
95.358
77.8313
69.3852
63.298
59.2693
53.8359
44.0654
36.0999
31.0112
28.0765
25.5539
23.7852
22.3523
21.2496
19.9413
19.0913
17.7644
125.789
125.396
106.175
85.7176
71.6202
65.8974
60.3595
58.4595
55.0197
45.8572
34.8322
28.6899
26.1865
25.1207
24.5742
24.2532
23.8653
22.9514
21.6203
19.0584
63.8737
127.85
107.095
81.9061
67.6777
63.4521
59.0948
57.7894
55.1132
46.742
35.9928
29.9057
27.7255
26.8138
26.4239
26.0083
25.6506
24.8431
24.0378
21.7829
97.6043
117.796
106.364
78.5602
61.7812
56.0089
53.3456
51.7884
49.3455
42.3368
35.2991
31.8048
30.6932
30.1124
29.5041
28.3896
27.1394
25.7345
24.9058
23.7923
58.606
66.5919
64.5303
62.7467
58.3167
49.3217
42.7706
38.2833
34.1339
32.3792
31.5209
31.1088
30.7206
30.263
29.3885
27.5163
26.1531
24.5138
23.412
21.3866
47.6792
95.2041
94.2644
87.688
74.3875
57.8247
46.0646
38.1227
33.6613
30.9331
28.8997
27.6745
26.9619
26.4991
26.2939
25.988
25.8812
25.649
25.5156
24.9667
147.629
140.896
99.5098
73.7183
52.5883
45.3008
40.6905
39.204
37.0746
34.6495
31.1839
28.4454
26.6199
25.8202
25.6029
25.6426
25.8479
26.201
26.4627
26.8442
128.633
136.612
121.121
92.7432
65.7278
54.1969
45.7709
42.6583
38.0149
34.5154
31.0407
28.9817
27.3195
26.2332
25.314
24.6942
24.2613
24.0596
23.9646
24.0155
214.106
150.398
92.4725
70.1544
58.0487
50.889
45.9403
41.9338
38.2814
34.9719
32.3098
30.1756
28.2518
26.7976
25.5397
24.5332
23.7255
23.1504
22.7559
22.5527
172.821
148.432
102.576
80.9143
66.7564
57.6179
49.9653
47.4582
44.4393
41.7785
36.8628
32.5885
29.0921
27.0394
25.5134
24.3549
23.4067
22.6806
22.1949
21.8534
314.005
135.09
100.066
79.1284
65.7155
54.3128
45.5993
40.9877
36.327
33.1672
30.3972
28.3553
26.5711
25.1153
23.904
22.9507
22.2542
21.7284
21.4753
21.1982
459.929
211.005
94.1527
67.1055
59.9326
52.4873
46.0914
41.5081
38.3411
35.5891
32.9241
30.3153
27.592
25.2674
23.5776
22.4912
21.9357
21.6181
21.5125
21.2748
421.798
148.527
77.1813
61.1679
55.3786
49.4797
48.9715
45.0491
40.8958
38.4116
35.9215
33.7186
30.1641
27.0249
24.5016
23.1709
22.6806
22.4444
22.3753
22.0301
174.31
140.105
88.8625
64.6396
52.6364
51.3992
50.6355
45.1887
41.7471
38.1534
35.1484
33.3354
31.3483
28.4468
25.5473
25.2719
24.5875
23.9105
23.636
23.0194
351.914
170.781
96.6656
67.9666
53.4341
47.6525
46.2115
39.9929
36.6424
32.9466
32.9328
34.2527
31.417
28.2295
26.1276
26.6165
25.3883
24.3134
23.9344
23.2114
392.349
155.57
101.036
80.7166
61.247
55.7511
47.7658
39.9279
36.7514
36.2025
95.0177
57.8567
36.5864
30.1861
25.1239
24.0852
23.1548
22.0325
21.616
21.1856
175.452
118.14
86.351
67.1896
57.8723
53.2536
52.599
46.2526
43.2466
41.9447
40.5375
36.6694
29.3593
23.0804
21.2449
21.4163
20.472
19.7117
19.5524
19.6199
166.108
139.702
105.633
84.0885
72.8948
67.0949
63.606
55.8288
48.2811
44.0044
40.1337
34.4783
27.0326
22.3402
20.879
19.8466
19.08
18.6484
18.5872
18.7821
170.732
162.333
124.114
98.5842
79.5097
70.7042
59.5759
52.8908
47.4905
43.062
38.3195
32.9303
27.4396
23.4443
21.0151
19.6367
18.8597
18.3919
18.1258
18.179
210.282
189.949
141.766
105.155
79.7966
66.6355
57.4666
52.5251
46.8705
40.3425
35.1529
30.5562
26.8262
23.5591
21.146
19.6944
18.8503
18.3217
17.9226
17.7201
193.89
169.9
112.139
84.9246
68.8598
60.0868
52.8933
46.7799
39.5861
33.0384
28.4337
25.6342
23.7545
22.3436
21.3515
20.4673
19.754
19.0608
18.5291
17.9909
159.908
125.422
96.9596
73.8957
62.3777
55.3168
49.3866
45.0722
38.7203
32.3108
27.3979
25.0965
23.9753
23.4465
23.1069
22.6673
22.0972
21.1794
20.3026
19.1146
136.346
132.394
87.5647
66.073
57.5344
51.9541
47.6861
44.5685
39.3886
33.8888
29.5801
27.7127
26.9003
26.5237
26.2716
25.8367
25.3506
24.4375
23.5282
22.0857
140.015
137.074
96.5001
67.3933
54.0113
47.6239
44.1703
41.3572
38.0898
34.9875
33.0939
32.5935
32.4285
32.2101
31.6605
30.598
29.338
27.9774
27.0079
26.1518
106.924
109.721
84.7636
70.5788
64.677
55.1557
47.7999
43.1162
40.1776
38.7803
37.6156
36.6001
35.3832
33.837
32.1663
30.3682
29.1344
27.3085
26.0046
23.7335
114.221
93.6218
84.4033
76.5675
63.8442
48.6449
40.4728
34.7736
32.0834
30.1556
28.9389
28.1296
27.5688
27.1028
26.8014
26.3437
26.1161
25.6652
25.4306
24.8176
207.746
177.987
85.3662
60.4999
51.0503
41.6344
39.8236
35.7415
35.0691
33.0196
32.4961
32.2555
32.7808
33.3033
34.1032
34.6288
35.1634
35.4823
35.7137
35.7623
193.421
156.491
101.116
68.3372
56.4417
44.9891
41.6757
36.989
35.6785
33.2194
32.5426
31.6569
31.4404
31.2063
31.2144
31.2764
31.4243
31.5835
31.7304
31.8326
305.727
200.25
92.6301
62.6631
54.138
43.8999
42.1879
37.0348
36.0393
33.389
32.8361
31.6072
31.0663
30.4054
30.0438
29.7498
29.675
29.6699
29.7223
29.7333
278.678
179.67
111.478
72.2374
61.8899
49.9357
45.7623
40.9461
38.8445
36.0864
34.5152
32.7798
31.5981
30.6374
29.9452
29.3845
29.0973
28.9637
28.9582
28.9331
322.173
169.034
102.984
71.9053
61.0284
47.9522
43.5205
37.5916
35.1115
32.4226
31.5034
30.2219
29.6421
28.901
28.4506
28.0279
27.954
27.9342
28.0039
27.9781
270.225
175.167
110.887
65.9541
59.9501
48.3136
43.932
38.1463
36.8681
34.0995
33.4369
31.6615
30.7138
29.5774
29.01
28.4868
28.3962
28.2871
28.2563
28.0131
335.786
114.627
77.1669
58.9688
55.3781
47.0386
45.3274
41.793
38.2092
36.8846
35.0392
33.6096
31.4598
30.4805
32.7548
30.811
30.0486
29.3669
29.0335
28.1792
157.854
126.553
85.7671
58.787
50.4515
47.6329
47.0128
42.3742
39.2602
37.6138
36.3743
35.5821
33.9584
32.7612
34.4335
35.103
32.7988
31.2095
30.4149
28.9071
199.381
149.046
89.8936
59.5282
50.0912
44.4214
43.5907
39.5772
37.372
34.8264
35.2166
35.4854
35.2589
35.3588
37.5342
36.6199
33.7792
31.8346
30.7944
28.9855
202.26
139.088
93.6163
64.7611
53.9191
47.6271
42.8948
40.1352
38.635
36.9413
56.75
48.8697
38.5944
37.2237
37.1612
34.3721
31.4881
29.9011
29.2074
27.8716
151.937
125.688
90.5521
61.0953
54.7565
48.9364
48.429
45.4652
42.8379
40.0693
36.8112
33.1688
31.6538
32.3144
33.4445
31.4228
29.0764
27.9805
27.7003
27.1405
191.531
159.255
118.302
78.6922
70.6167
62.3083
55.8483
48.3014
43.0141
39.0883
35.1151
31.3897
29.3954
28.8703
29.4109
27.4266
26.6632
26.5893
26.7658
26.9554
220.543
129.57
108.625
87.1091
77.7702
66.2965
55.8839
48.2045
43.0231
38.0178
34.2688
30.8086
28.4808
26.7632
25.9545
25.5041
25.5903
25.7877
26.0368
26.5166
192.288
171.852
125.028
93.1547
77.8227
63.7036
55.2315
47.8758
42.2789
36.7494
33.0913
30.027
27.9967
26.5284
25.6687
25.205
25.2322
25.4246
25.6866
26.079
203.246
153.691
107.968
77.9694
68.4787
56.808
50.5659
42.3495
37.2698
32.8059
30.4729
28.6713
27.7422
26.9323
26.5284
26.0455
25.9433
25.9411
26.03
26.2748
279.278
153.536
109.416
74.6733
64.3116
52.8434
47.3888
40.4143
36.0248
32.3583
30.6593
29.6522
29.3062
28.9456
28.6655
28.1271
27.6837
27.3483
27.1675
27.2346
316.198
131.85
85.9809
62.4443
58.5082
49.0171
46.2291
41.1829
38.3458
35.9334
34.9991
34.6066
34.4482
34.1562
33.7884
33.055
32.3927
31.5942
30.9558
30.6619
207.308
148.559
95.8317
65.3967
56.4584
47.6941
45.6826
42.9304
42.3551
42.4163
43.0039
43.5602
43.5737
43.2386
42.3168
40.839
39.1848
37.8827
37.325
37.0021
104.878
102.782
82.2805
70.3449
63.6525
54.6968
48.7508
45.1292
42.8234
41.3519
40.0584
38.6043
36.9879
34.9789
33.1452
31.1905
29.5631
27.3394
26.1105
24.0055
215.122
110.23
77.8476
61.5559
50.1416
40.3271
35.1759
31.8711
30.3161
29.2067
28.4973
27.8505
27.3274
26.6989
26.0953
25.3504
24.8208
24.3031
24.0878
23.6054
574.253
296.658
114.847
81.164
70.5677
53.0952
55.753
43.8371
49.69
43.8008
49.2131
47.3415
50.7071
50.1365
51.872
51.8626
52.7483
52.9317
53.4535
53.6169
235.164
177.421
111.732
72.3167
73.5433
51.9146
54.9995
43.6787
47.4241
42.4992
46.3004
44.3541
46.7846
45.9113
47.1823
46.8998
47.5208
47.5558
47.9455
48.0401
596.365
296.818
107.777
83.0209
67.137
53.9681
53.0753
43.4501
46.3923
41.3646
44.5863
42.4582
44.582
43.6493
44.7366
44.47
45.095
45.1283
45.5151
45.4559
478.386
259.048
136.975
78.305
73.7733
53.333
54.6722
44.7104
46.4188
42.0927
44.7346
43.2369
45.0653
44.044
44.7227
44.1956
44.603
44.5513
44.9293
44.8846
539.675
250.044
115.344
84.6989
67.5615
55.5452
51.7576
42.8769
43.2997
39.8586
41.7943
40.658
42.1694
41.7136
42.3694
42.3691
42.977
43.1922
43.7731
43.8282
221.652
177.878
124.194
77.4735
71.5388
53.5776
53.4122
43.7821
45.1722
41.1278
44.028
42.3664
44.2567
43.5041
43.9746
43.4848
43.899
43.8927
44.406
44.4007
252.632
139.932
88.5756
81.753
66.9437
57.3203
51.556
46.9016
46.4951
45.1126
46.4015
46.037
47.2259
47.3027
48.57
45.7166
45.0829
44.7131
44.9159
44.4219
177.055
144.994
97.538
74.7462
63.1725
53.4342
56.6052
52.3397
52.7491
53.151
53.8881
54.3773
54.8011
55.2864
55.4808
49.3775
47.2899
46.0023
46.019
44.755
216.19
141.368
94.2211
76.3947
62.3825
51.8017
52.4981
54.6026
55.5018
53.7891
53.9856
56.4055
59.3693
59.9566
58.2246
50.8591
48.1115
46.3358
45.8464
43.7728
336.633
150.267
102.261
70.436
68.8647
53.2283
52.5087
55.6801
55.5955
51.716
51.0456
53.6096
60.5725
61.4723
58.1707
49.4542
46.3774
44.6497
44.1159
42.3887
208.466
139.646
103.86
73.6632
66.5122
54.911
56.9559
57.2908
55.6433
53.5185
53.0568
54.851
57.8066
58.5667
55.9853
46.6312
43.7015
42.3071
42.0799
41.4249
186.789
166.786
138.016
78.8266
89.2989
69.1588
61.7055
52.476
50.1827
46.5275
46.9478
47.3537
49.0042
49.2856
45.7694
42.4175
41.2846
41.1232
41.2475
41.3152
228.017
132.122
119.099
82.3786
88.5727
65.3963
60.7415
52.0805
49.5227
44.4249
43.7352
41.871
42.6724
42.0403
41.6877
40.845
40.7944
40.643
40.8358
41.1488
199.252
153.73
135.272
90.5543
92.3931
67.9924
66.2177
53.3982
50.9453
44.4017
43.707
41.1668
41.4737
40.9164
40.9204
40.4361
40.4029
40.4099
40.664
40.9634
286.343
141.53
114.499
74.1521
78.528
57.1972
58.6778
46.5503
47.6036
42.6567
43.8102
41.714
42.6986
41.8515
42.1544
41.569
41.6708
41.474
41.6804
41.754
175.156
142.688
130.442
80.7481
81.0872
58.2269
60.2933
46.865
48.6624
43.5116
45.4582
43.2547
44.2606
43.2804
43.6087
43.0509
43.2425
43.1353
43.4123
43.2283
326.915
125.379
100.28
67.2444
73.4235
52.31
58.7648
47.7988
52.731
48.8678
51.7251
49.6236
50.5546
49.2794
49.3346
48.4431
48.4278
47.9393
47.9645
47.5891
193.003
124.29
119.718
72.7704
80.9472
57.9123
66.6582
56.7748
64.4204
61.6422
65.4225
63.3585
63.3869
60.902
59.9091
58.0678
57.878
57.5797
57.9178
57.8999
107.095
86.3524
75.9813
65.3546
57.84
51.7566
47.825
45.2484
43.353
41.4944
39.6126
37.2792
34.6014
31.4061
28.7905
26.6484
25.5493
24.1523
23.5207
21.9906
32.2947
35.1931
72.213
33.3786
33.7978
35.5944
77.3608
34.3633
73.5538
65.1473
34.4932
35.2144
77.3339
66.235
95.1567
40.8276
40.4828
36.1565
98.4701
39.0672
37.1887
71.1448
40.1002
37.6773
97.8606
73.6046
36.4179
33.5713
215.755
257.575
204.164
87.3886
71.5026
74.3087
62.735
176.443
197.074
178.88
67.4122
61.227
58.4862
51.2362
136.674
178.079
182.552
60.3142
57.0513
50.3005
47.8542
136.988
178.969
159.247
54.5955
47.6879
46.7597
40.1057
149.894
157.208
155.446
46.6512
42.4081
38.0799
34.8567
156.76
154.868
148.383
41.5349
39.3483
34.2558
33.5982
159.904
145.299
130.114
39.0717
37.8224
33.6536
33.8315
142.837
125.638
116.276
37.6424
36.3093
33.6738
30.498
209.503
247.465
211.191
70.2891
59.3876
74.1666
60.4152
205.232
210.666
201.838
55.9752
50.232
56.9056
50.9182
187.768
194.783
177.141
49.4248
47.5492
49.4463
44.9795
159.422
177.816
187.975
46.1567
38.9483
43.6723
43.7468
157.61
188.047
181.11
37.515
35.6498
44.7253
46.9066
149.192
176.948
159.395
35.4105
35.1456
46.9651
45.5653
130.915
148.109
132.069
35.1923
35.3135
44.5319
37.7188
107.517
131.4
106.594
34.9769
30.3525
36.2535
30.6728
199.144
230.042
166.294
77.0917
61.309
76.1894
61.9473
190.496
167.342
202.575
57.1436
48.8862
57.3997
50.3541
185.423
210.043
213.969
47.4761
45.4396
49.7628
50.4397
190.982
212.757
202.114
45.5466
47.3102
51.2948
53.6312
181.54
196.239
179.379
48.0914
48.923
54.0215
54.2078
163.272
175.932
166.382
48.8617
47.2363
53.8527
51.9076
129.205
156.36
116.896
46.3238
37.4559
50.9994
37.3348
108.949
114.462
108.543
34.9514
29.7223
32.5885
25.2244
161.882
358.57
266.832
80.5466
65.3567
103.875
91.8689
190.848
253.565
231.055
60.9116
53.5385
86.2363
75.3029
213.132
232.849
231.137
52.8944
53.5017
72.3213
68.0769
205.91
230.414
222.214
54.105
55.5531
66.1174
63.424
184.533
221.162
204.95
55.6466
55.4678
62.4039
60.9045
164.725
198.452
161.603
54.9904
52.7618
60.0707
56.4031
115.489
148.186
115.54
51.7117
37.7555
52.7524
39.014
104.645
114.038
99.5014
32.7796
25.1344
34.642
26.6748
62.6675
63.3634
55.4716
53.7429
48.5728
50.1876
44.2848
55.0172
52.1791
46.7744
47.2377
44.5262
42.5271
39.603
51.5389
46.0217
43.2987
43.7918
40.9089
38.8898
35.9284
43.6166
42.0119
36.2005
39.8454
36.7121
34.738
31.7009
38.952
34.6891
32.1104
36.1011
34.1485
31.1865
30.3158
36.6734
31.6148
30.9834
33.8914
32.5748
30.0859
29.2773
34.8427
30.9729
30.7962
32.0757
29.8021
28.9751
27.8955
33.117
30.5887
28.5391
29.1685
26.6792
27.4684
25.5538
52.8412
63.3497
53.7846
48.2135
42.9115
49.5194
42.83
45.7864
50.9112
45.6526
41.4548
38.6902
41.1992
37.9677
42.6536
44.364
40.8839
37.9328
35.0884
37.2026
35.4309
35.4492
39.9864
40.6736
33.9147
32.0057
35.4849
49.1758
33.0272
41.8138
43.4948
32.1664
33.0554
51.1632
50.4216
32.4168
43.4183
41.1442
33.001
31.6397
48.3305
40.0431
31.7219
39.9423
34.1727
30.962
28.8462
37.8167
32.5958
28.2246
32.7787
28.3945
28.1388
25.6168
31.178
27.2335
54.6253
64.9034
55.8245
51.119
43.3039
51.7193
46.281
44.4319
52.5353
46.9772
41.4595
38.1055
44.9418
42.3961
41.7414
46.4896
47.0338
37.5132
36.9198
42.0496
41.9133
43.9508
47.726
49.5289
37.1505
52.9749
42.0776
42.2905
45.3026
49.7904
49.6872
54.1388
50.4197
42.1115
40.1556
42.439
49.0723
46.4291
46.9733
37.8666
39.033
34.1348
33.7048
44.7027
32.1
35.6647
30.7311
31.8605
25.2516
27.6789
28.599
23.3553
29.354
26.2786
23.8004
21.3388
59.4511
85.3217
79.8117
55.3994
49.24
67.5931
60.828
50.1368
75.912
68.2416
47.7555
44.8026
58.8267
53.7158
49.783
65.0262
60.4286
44.2834
43.5635
51.8182
48.1927
51.0182
58.4865
55.9961
43.4489
43.0175
47.0293
44.988
50.645
55.1092
53.7441
42.6639
40.6262
44.1332
41.7147
47.1348
52.9435
48.6555
39.4489
34.122
40.0492
33.9669
32.1661
44.9226
32.9658
31.6909
24.803
31.1965
24.6867
23.114
29.4805
23.8647
23.2926
20.9002
23.1348
20.4616
46.4068
47.9107
42.4473
47.0255
43.3032
44.9728
40.4554
42.536
40.9556
38.2968
42.2172
39.6948
39.5066
37.3713
38.9933
37.5516
34.6866
38.9026
36.9898
36.6983
34.5553
35.6624
33.6071
31.3565
36.6636
35.4198
33.8312
32.7617
33.5594
31.0706
30.6198
35.1267
34.2217
32.7386
32.5596
31.9162
30.4225
29.4784
34.0417
32.6273
32.4163
31.8626
29.0787
29.1081
27.8674
32.1208
30.6019
31.7027
31.1806
26.1179
27.4054
25.6336
30.2262
29.1116
30.9998
30.6143
41.257
46.6388
40.9409
43.4803
39.6013
42.5203
39.1677
37.4184
39.5903
36.8392
38.7797
36.7641
38.4856
36.8461
33.9269
36.1637
34.8047
36.1209
34.0159
36.3687
35.0992
34.6588
32.2413
32.8932
32.5245
33.4876
32.1335
32.7445
49.3174
33.7365
41.0283
33.9564
43.2048
34.9079
46.8448
32.2693
59.653
43.8733
34.99
33.5962
60.8557
44.5872
28.9806
40.5889
34.1525
33.1896
32.1361
41.7121
36.7638
25.8194
32.4795
27.9381
31.8196
31.1608
35.6333
33.5675
41.3805
48.8942
44.7488
43.0952
39.7122
45.4352
43.5754
37.2512
43.7421
41.6945
39.1068
37.6838
43.1731
41.6953
36.278
41.3229
40.8441
37.2861
36.2732
41.1581
39.5972
43.098
64.1185
38.1432
40.9924
40.8775
227.12
37.5592
45.3493
91.1714
43.9846
202.482
43.6185
190.235
46.2413
39.5582
36.4577
31.5868
60.8924
41.0614
32.5039
29.8176
31.5485
29.6697
24.6926
38.4577
34.9091
29.2393
28.565
26.8877
23.6376
21.6305
34.0887
32.789
28.57
28.4526
47.3851
62.2732
57.0243
48.4077
45.3882
56.0636
50.8938
43.7952
54.9553
50.552
44.8415
42.9054
49.2123
45.4152
42.1971
48.7682
45.5789
42.2211
40.3309
44.1056
41.4059
41.0582
44.5029
42.3314
39.7018
37.5493
40.38
37.6253
37.9766
41.3853
38.4131
36.6756
33.5827
36.4486
33.173
31.4001
36.6612
30.9012
32.459
29.5601
31.7638
28.5125
24.1746
28.6736
23.7287
28.9195
28.0152
27.6282
26.1208
21.2376
22.5925
20.5325
27.9605
27.872
25.914
25.3352
43.473
45.0502
40.9999
52.4803
49.0219
50.0408
48.827
39.9756
40.2167
38.3629
48.0549
47.1172
48.7425
48.7366
37.8036
37.7959
35.9718
47.2619
47.5654
48.7814
47.6849
36.6052
35.3417
34.3326
47.4654
47.319
47.1215
46.4788
35.7205
34.3124
34.1621
47.5269
47.8798
46.6422
47.592
34.3527
34.1118
34.1776
47.8204
47.7108
48.2093
50.0693
32.9638
34.268
34.4587
47.8629
48.1845
50.5874
51.2737
31.9074
34.4923
34.2917
48.1434
47.9232
51.3598
51.4361
40.2293
42.4485
39.9086
48.4184
48.3918
47.5289
48.662
37.9044
39.4453
38.1823
48.5496
48.8659
49.0082
49.2551
35.4527
37.7516
36.1874
48.8206
46.7375
48.7576
45.7994
34.745
36.2502
52.8017
46.0075
45.3153
44.842
45.4477
35.6261
53.8959
51.5053
45.5055
46.4955
45.8674
46.0002
35.2217
49.2302
41.9716
47.372
50.2372
46.2748
50.7715
35.3713
40.67
38.6689
51.039
52.032
52.1185
53.86
34.9429
38.2301
36.9612
52.1033
52.0244
53.8155
53.1538
40.5117
45.547
44.352
47.7277
49.2702
50.7494
52.0676
39.0267
44.0713
42.626
49.6097
49.6409
52.0649
50.9488
37.2345
42.0494
40.1991
49.113
46.1641
50.4784
47.9693
55.796
39.5329
37.3316
45.1243
44.9441
47.0685
45.1563
52.6391
36.5261
33.8994
45.1833
45.3421
44.8071
44.6075
39.7698
33.048
31.7927
45.6035
50.1246
45.3366
48.6734
37.4776
31.8366
32.7551
51.5962
53.6
49.6625
51.0444
36.3638
32.9895
32.7086
53.5703
52.9182
51.1144
50.8249
45.9163
54.903
50.1965
52.9431
52.7686
57.8667
52.7735
43.5444
48.4745
44.8574
52.5018
50.914
51.2309
48.2668
40.7916
43.6906
41.1604
50.4243
48.3375
47.8587
46.1487
37.685
40.1395
37.2786
47.5337
45.8833
45.3836
43.8005
34.0295
36.2526
33.442
45.6422
45.7669
43.8911
44.0457
31.6631
32.3627
30.2019
46.3398
48.5407
44.1704
44.7252
32.1666
29.8303
29.5825
49.2192
50.2178
45.1277
45.9104
32.0785
29.5457
28.9566
50.2899
50.138
45.9161
45.6062
53.345
54.23
54.4469
76.6271
74.1351
72.366
76.9203
52.2814
54.5862
55.1612
71.7423
72.8824
76.8404
78.2622
53.3784
55.3566
55.0338
73.7682
75.1849
78.7254
82.17
53.5501
54.7575
54.829
73.574
76.4736
82.9942
85.9288
54.4892
55.1598
56.1877
76.7837
78.0729
86.3917
86.9075
54.5862
56.5576
58.1622
77.3249
79.3201
86.4538
85.0207
55.3397
58.6439
59.1424
79.3988
80.2299
84.6375
84.337
54.7935
59.1969
58.7815
79.9213
79.1547
84.3192
83.3476
54.208
52.2632
54.6887
69.8236
77.0001
73.8089
78.2228
55.4223
55.205
55.7848
77.2886
78.9909
78.4657
80.2015
54.3843
55.4945
52.6736
79.7191
84.5575
81.7106
89.5967
53.5984
51.6894
51.5256
85.8617
89.0953
92.1864
96.2959
55.5375
51.9245
52.8458
89.561
89.9498
97.0168
96.9864
58.616
54.2731
59.4664
89.3821
86.8374
95.8217
91.1961
59.9626
60.8659
61.8177
85.9413
84.9268
89.3615
86.2688
59.3093
61.5975
60.1805
84.8226
83.6903
85.8684
83.7896
55.2138
54.9508
57.1438
73.919
78.7721
73.8912
78.8115
55.986
57.1849
56.315
78.8793
80.1719
78.772
78.6621
52.7413
55.9473
53.9667
81.6168
89.3597
79.0663
83.0471
50.8736
53.239
52.2982
91.8342
95.5334
84.5552
86.7136
52.091
52.3854
53.5958
96.4377
97.22
87.4594
88.6742
59.0823
54.6039
57.5563
96.0473
91.3238
88.568
86.5485
61.6908
58.5342
59.4032
89.4567
86.2576
85.8215
84.7189
59.994
59.3871
58.4667
85.8419
83.8251
84.6687
83.1475
57.4688
61.4736
55.7474
74.519
78.4946
78.898
73.0109
55.9842
54.3109
52.0666
78.3156
77.9031
72.0264
72.3972
54.0707
51.9203
50.5479
77.8856
80.1255
72.2866
70.4465
52.8927
49.956
49.4663
81.277
83.2822
70.8067
72.462
54.1835
49.9673
50.8255
84.0594
85.3325
73.6248
74.5946
57.1144
51.0128
52.0695
85.4864
84.5406
75.5413
77.5217
58.5378
52.6949
53.6242
84.4164
83.9704
78.5032
78.8828
57.8191
53.6697
52.9265
84.0433
82.9913
79.3006
77.6274
39.5446
32.0497
38.4329
33.0315
35.5995
32.3699
43.8391
54.7399
34.0748
50.0221
39.3515
39.4876
34.7532
168.097
84.5203
57.0722
66.8311
195.944
50.3522
95.0064
214.822
35.122
32.6506
33.0841
33.5097
32.4089
32.9495
34.5525
39.984
33.4872
33.2661
40.1052
32.7346
44.0409
37.2231
56.736
40.141
34.7101
53.684
35.0234
173.934
41.781
84.6559
197.071
59.2522
72.1731
93.3269
218.421
53.2339
49.8351
34.2319
44.6176
35.3933
44.2026
35.3907
48.9736
97.2152
60.7423
72.7879
182.078
62.6458
97.3423
166.862
91.1323
59.7604
71.4049
95.8872
62.1805
78.3444
113.077
48.2592
34.3609
35.0788
41.9717
35.1805
46.4299
43.2337
48.4172
35.4639
35.259
43.0134
35.5111
47.4127
43.3309
91.4279
180.193
61.0822
76.0922
92.8486
164.296
61.4567
85.3436
93.8698
57.2
72.5166
74.0257
112.078
59.9696
46.0899
88.0292
44.0247
212.068
43.229
220.665
46.6363
38.9778
39.5677
40.8074
39.8477
39.8563
38.7456
39.6338
39.2682
40.2986
40.7069
38.9376
40.2119
39.2057
39.3189
42.3911
41.3689
67.1795
37.2553
216.449
37.2149
39.5875
45.4326
209.022
92.629
42.2087
219.516
45.86
41.7148
38.2791
39.2192
38.1571
38.4941
38.2022
38.8116
37.9058
38.3697
37.7821
37.4701
37.8543
38.1881
38.3178
37.7892
43.6218
88.8666
41.1187
120.992
42.7841
180.352
41.8811
38.2259
40.1641
39.5417
38.3956
39.7311
38.8795
37.6866
37.2814
37.862
38.702
35.6596
38.8962
36.2027
36.7399
44.4294
198.169
94.9128
41.9753
185.466
45.4368
41.3356
42.5632
114.657
91.0685
38.9474
166.672
41.0263
40.3784
36.9222
37.103
36.8621
35.5555
37.6807
36.2896
36.0871
35.9493
34.225
34.2075
34.5831
34.9109
35.3005
35.1705
164.645
183.042
157.08
107.229
86.6095
104.171
87.9542
157.794
140.223
134.047
77.5691
76.4041
76.2848
70.8073
133.25
127.498
111.98
72.8751
67.0784
68.5477
65.6176
110.733
97.8092
92.8341
61.9731
60.0739
61.2406
58.4099
94.3646
92.9767
93.8896
56.2493
52.8575
56.4237
54.5135
92.2983
95.9316
98.5525
50.5957
49.175
52.7159
50.9457
92.5805
100.116
100.735
47.8817
46.4035
49.4573
47.7063
79.3499
100.024
92.3246
45.6546
38.5769
47.5284
43.699
176.38
181.959
165.107
106.323
98.3287
100.83
87.1538
140.447
262.33
283.327
161.14
147.636
160.081
251.512
95.3794
190.926
195.628
108.2
102.593
101.582
186.129
86.8051
164.255
161.669
97.1155
96.0977
88.4529
151.458
74.3991
129.659
142.327
78.1896
73.9713
74.5148
150.482
70.7744
144.64
156.862
71.3244
70.9117
73.2238
156.498
59.8114
153.793
158.595
65.0262
63.3084
61.3413
159.448
57.7575
158.584
161.376
58.3187
57.9568
57.8675
160.287
58.4943
159.894
157.789
58.0097
58.8491
57.984
156.887
82.7522
91.9471
80.678
40.3091
33.9602
35.9584
30.0365
164.895
175.957
161.186
93.8968
83.1209
100.879
86.8839
116.708
226.581
251.06
142.922
120.345
141.089
226.028
84.9442
208.214
218.681
88.0972
83.6995
87.9048
218.827
79.4125
200.002
210.956
77.6827
77.1576
80.4698
204.307
68.9863
166.244
170.462
75.9616
73.5391
74.3341
165.432
61.7887
158.307
167.194
61.4074
59.6933
61.7305
167.689
62.904
155.26
163.646
57.9915
57.6114
62.9399
161.418
60.3443
142.321
147.664
57.2833
58.0237
60.9447
143.599
60.54
118.113
129.772
60.3679
58.1069
61.5712
119.362
76.7331
71.834
64.3801
32.4872
26.812
32.3719
24.4051
157.439
188.676
152.916
109.634
89.5534
107.024
88.242
120.454
219.204
244.101
141.865
121.572
143.067
214.935
79.8728
194.937
189.124
87.0227
82.3234
85.3148
188.633
74.2892
184.179
196.13
74.7438
74.1796
74.227
199.243
76.3719
191.23
200.721
72.5063
72.8271
75.6129
198.425
78.5212
188.363
187.741
74.1191
74.44
78.5411
184.272
76.7086
174.59
175.769
75.0597
75.0136
77.3866
173.749
75.8676
138.37
153.816
74.5987
72.741
77.1145
138.954
49.5877
128.677
126.226
54.9808
52.2844
53.6312
127.072
62.4442
77.5035
65.9975
30.6873
24.996
28.3725
24.5914
149.409
198.32
189.205
104.867
93.4681
113.411
111.133
127.236
193.192
233.382
138.798
123.957
139.925
202.012
87.7881
167.072
162.526
86.6578
81.1376
95.2632
164.286
81.0434
206.543
195.751
77.3992
77.8978
80.3544
204.255
86.2254
212.244
212.889
81.1946
82.1904
85.1248
212.429
86.9656
196.751
203.675
84.142
83.8598
87.1771
198.976
83.0305
175.118
181.553
81.2382
80.0576
84.0682
175.476
75.2004
140.815
148.775
77.8658
77.0824
77.0811
135.791
50.2337
111.216
109.047
56.7502
49.0871
56.6369
108.546
67.7818
71.7239
67.0744
27.7103
24.1658
29.2764
25.6595
208.071
239.765
214.681
133.699
123.454
131.486
118.31
168.818
192.289
184.533
110.856
96.8666
103.895
94.0909
156.589
174.622
171.151
86.7791
81.3782
85.7922
81.3073
147.69
163.743
160.44
76.3218
72.8407
77.9886
77.2576
130.093
150.391
137.746
69.1205
67.5083
74.0024
72.182