/*--------------------------------*- C++ -*----------------------------------*\
  =========                 |
  \\      /  F ield         | OpenFOAM: The Open Source CFD Toolbox
   \\    /   O peration     | Website:  https://openfoam.org
    \\  /    A nd           | Version:  10
     \\/     M anipulation  |
\*---------------------------------------------------------------------------*/
FoamFile
{
    format      ascii;
    class       volScalarField;
    location    "3.4";
    object      p;
}
// * * * * * * * * * * * * * * * * * * * * * * * * * * * * * * * * * * * * * //

dimensions      [0 2 -2 0 0 0 0];

internalField   nonuniform List<scalar> 
12920
(
1.28987e+06
1.23965e+06
1.18523e+06
1.18693e+06
1.11682e+06
1.10082e+06
1.02901e+06
983029
904864
837591
755001
679663
597838
519674
438206
358375
277481
198612
123322
53280.3
1.32619e+06
1.24081e+06
1.16194e+06
1.18252e+06
1.12259e+06
1.10691e+06
1.0336e+06
987318
906760
840205
757732
682404
600250
521564
439727
359504
278039
198385
122256
51535.1
1.13828e+06
1.18255e+06
1.18537e+06
1.21023e+06
1.15352e+06
1.13016e+06
1.0524e+06
999423
918257
849228
765807
688797
605403
525593
442931
361781
279457
198717
121334
50089.7
997426
1.18696e+06
1.19589e+06
1.23692e+06
1.17487e+06
1.15321e+06
1.06887e+06
1.01332e+06
926906
856472
772375
694631
610930
530014
446684
364581
281496
199631
121291
49342.9
1.48253e+06
1.36282e+06
1.31326e+06
1.30896e+06
1.23112e+06
1.18999e+06
1.09762e+06
1.03287e+06
945423
870627
784220
704290
618916
536290
451520
368314
284160
201163
121872
49254.3
1.60185e+06
1.50817e+06
1.38007e+06
1.38424e+06
1.27689e+06
1.22395e+06
1.11963e+06
1.04902e+06
957983
879424
792648
710443
624933
541237
456318
372037
287115
203067
123027
49554.6
2.09814e+06
1.79199e+06
1.56706e+06
1.47271e+06
1.33323e+06
1.26121e+06
1.15217e+06
1.07102e+06
975149
893290
804316
720481
633430
548454
462117
376979
290696
205612
124709
50457.9
2.23516e+06
1.89541e+06
1.62191e+06
1.52321e+06
1.36326e+06
1.28611e+06
1.19304e+06
1.09994e+06
1.00971e+06
922619
834687
750071
663144
576697
468618
382138
294922
208460
126806
51710.2
1.92444e+06
1.86024e+06
1.68103e+06
1.55011e+06
1.3941e+06
1.32412e+06
1.22286e+06
1.1281e+06
1.03617e+06
948452
858427
770176
682611
595710
498297
387740
299212
211860
129134
52949.8
2.10278e+06
1.85987e+06
1.62967e+06
1.53581e+06
1.39043e+06
1.32738e+06
1.23526e+06
1.14346e+06
1.05135e+06
960051
869199
779438
690860
602958
503855
392971
303511
214902
131079
53441.3
1.67733e+06
1.77352e+06
1.55796e+06
1.50707e+06
1.3854e+06
1.33073e+06
1.24571e+06
1.15224e+06
1.05964e+06
967976
877729
787979
698552
609171
508521
397083
307029
217311
132259
53135.2
1.67692e+06
1.69977e+06
1.54007e+06
1.49658e+06
1.3801e+06
1.32773e+06
1.24844e+06
1.15832e+06
1.06716e+06
976556
886127
795739
705524
615168
512303
400253
309768
219160
132948
52869.2
1.59499e+06
1.56959e+06
1.50844e+06
1.49265e+06
1.39017e+06
1.31975e+06
1.24323e+06
1.15522e+06
1.0643e+06
974033
882798
791994
700766
609491
496552
404705
312532
220999
133859
52992
1.60066e+06
1.62182e+06
1.54565e+06
1.51141e+06
1.40353e+06
1.33097e+06
1.23308e+06
1.14665e+06
1.0512e+06
961225
868507
778204
686353
594889
501052
408065
314961
222829
134945
53466
1.79661e+06
1.75149e+06
1.61384e+06
1.53745e+06
1.43024e+06
1.34719e+06
1.24634e+06
1.15572e+06
1.06049e+06
968235
874700
782629
689880
597525
503812
410443
317100
224698
136430
54240.5
2.41669e+06
1.94709e+06
1.65939e+06
1.55874e+06
1.43333e+06
1.34755e+06
1.24245e+06
1.15427e+06
1.05687e+06
968523
874744
783423
688798
596696
503572
411239
318448
226442
138096
55549.7
2.18371e+06
1.91478e+06
1.67743e+06
1.56417e+06
1.43849e+06
1.3448e+06
1.24057e+06
1.15034e+06
1.05402e+06
964693
872001
781057
687845
596320
503681
411832
319606
228135
140094
57226.7
1.91904e+06
1.79962e+06
1.63561e+06
1.54461e+06
1.42063e+06
1.33404e+06
1.23109e+06
1.14517e+06
1.04879e+06
961723
868839
779057
686480
595895
503787
412440
320763
230091
142375
59185.3
1.88439e+06
1.7258e+06
1.58899e+06
1.51613e+06
1.40859e+06
1.32132e+06
1.2251e+06
1.14104e+06
1.04768e+06
960909
868351
778725
686636
596236
504348
413213
321801
231631
144528
61768.6
1.74466e+06
1.60115e+06
1.51836e+06
1.48131e+06
1.39087e+06
1.31446e+06
1.22239e+06
1.1402e+06
1.04663e+06
960315
867583
778344
686401
596170
504470
413571
322591
233020
146472
63857.4
1.33941e+06
1.26288e+06
1.18534e+06
1.18576e+06
1.11665e+06
1.10059e+06
1.02934e+06
982961
904738
837348
754980
679568
597743
519595
438188
358370
277477
198584
123206
53120.4
1.24031e+06
1.21298e+06
1.16524e+06
1.18075e+06
1.12242e+06
1.10655e+06
1.03397e+06
987395
906729
839841
757585
682167
600031
521421
439643
359442
277989
198234
121869
50797.4
1.07444e+06
1.1727e+06
1.18708e+06
1.20713e+06
1.15208e+06
1.12938e+06
1.05301e+06
999462
918638
849568
765913
688778
605422
525563
442897
361731
279360
198518
120849
49095.7
966842
1.17721e+06
1.20347e+06
1.23884e+06
1.17515e+06
1.15348e+06
1.0695e+06
1.01341e+06
927241
856811
772553
694612
610884
529975
446677
364552
281378
199379
120715
48242.5
1.37577e+06
1.35817e+06
1.30879e+06
1.30834e+06
1.23131e+06
1.19005e+06
1.09809e+06
1.03309e+06
945501
870465
784252
704318
618805
536242
451529
368283
284049
200903
121273
48112.7
1.40139e+06
1.48861e+06
1.36875e+06
1.38796e+06
1.27678e+06
1.22485e+06
1.12003e+06
1.04952e+06
957800
879183
792710
710417
624831
541109
456189
371949
286984
202778
122363
48389
2.03451e+06
1.76795e+06
1.55161e+06
1.47217e+06
1.33252e+06
1.26159e+06
1.15399e+06
1.07156e+06
976725
893643
804559
720427
633303
548208
462055
376902
290590
205391
124097
49332.9
2.20502e+06
1.88663e+06
1.61505e+06
1.52676e+06
1.36338e+06
1.28664e+06
1.1925e+06
1.10108e+06
1.00981e+06
922579
835344
749891
663154
576757
468735
382107
294895
208359
126472
50642.5
2.1649e+06
1.88313e+06
1.68093e+06
1.55003e+06
1.39397e+06
1.32456e+06
1.22248e+06
1.12891e+06
1.0372e+06
948487
858582
770451
682940
596103
498585
387832
299256
211797
128821
51920.9
2.12565e+06
1.85392e+06
1.62637e+06
1.53337e+06
1.38894e+06
1.32897e+06
1.23678e+06
1.14402e+06
1.05164e+06
960206
869457
779677
690987
603046
503982
393083
303568
214795
130735
52550.5
1.58617e+06
1.77398e+06
1.55161e+06
1.50591e+06
1.38412e+06
1.33032e+06
1.24561e+06
1.15237e+06
1.05991e+06
968457
878127
788007
698493
609139
508712
397234
307013
217187
131832
52418.8
1.49341e+06
1.65183e+06
1.53435e+06
1.49255e+06
1.37966e+06
1.32777e+06
1.24802e+06
1.15849e+06
1.06742e+06
976780
886279
795771
705424
614980
512467
400343
309760
219059
132489
52058.8
1.36558e+06
1.55031e+06
1.50494e+06
1.49228e+06
1.39006e+06
1.31995e+06
1.24331e+06
1.15547e+06
1.06438e+06
974011
882696
791804
700460
609394
496660
404737
312494
220843
133350
52051
1.60589e+06
1.63368e+06
1.54175e+06
1.51136e+06
1.40367e+06
1.33139e+06
1.23324e+06
1.14635e+06
1.05119e+06
961255
868611
778293
686466
594817
500985
408005
314877
222638
134465
52520.3
1.74768e+06
1.74688e+06
1.60516e+06
1.53595e+06
1.43221e+06
1.34843e+06
1.24657e+06
1.15599e+06
1.06056e+06
968233
874699
782609
689772
597358
503697
410328
316951
224419
135919
53298.3
2.17349e+06
1.9298e+06
1.65594e+06
1.55687e+06
1.43324e+06
1.34732e+06
1.24213e+06
1.15434e+06
1.0571e+06
968560
874482
783188
688846
596753
503628
411185
318311
226174
137637
54631.4
2.07608e+06
1.91209e+06
1.67364e+06
1.56325e+06
1.43754e+06
1.34454e+06
1.24067e+06
1.15059e+06
1.0545e+06
965067
872163
781108
687990
596383
503745
411888
319561
227949
139708
56356.8
1.87563e+06
1.8079e+06
1.63978e+06
1.54551e+06
1.42131e+06
1.33404e+06
1.23123e+06
1.14534e+06
1.04889e+06
961731
868698
779015
686515
595900
503804
412494
320715
229901
141984
58482.3
1.78365e+06
1.71251e+06
1.58677e+06
1.51308e+06
1.40723e+06
1.32124e+06
1.22518e+06
1.14093e+06
1.04751e+06
960736
868145
778598
686564
596185
504363
413203
321745
231561
144416
61339.9
1.60736e+06
1.57017e+06
1.51269e+06
1.48037e+06
1.39061e+06
1.3146e+06
1.22234e+06
1.14015e+06
1.04653e+06
960235
867499
778254
686415
596201
504513
413610
322604
232935
146242
63615.1
1.25771e+06
1.26609e+06
1.18212e+06
1.1835e+06
1.11704e+06
1.10093e+06
1.02988e+06
982896
904668
837263
754878
679411
597639
519497
438166
358398
277502
198533
122886
52602.7
1.22722e+06
1.21542e+06
1.16886e+06
1.17703e+06
1.12196e+06
1.10667e+06
1.0344e+06
987694
906873
839946
757515
681923
599780
521181
439579
359404
277925
197994
121128
49203.5
1.035e+06
1.15248e+06
1.18719e+06
1.20476e+06
1.1515e+06
1.12905e+06
1.05358e+06
999697
919201
849924
766201
688886
605556
525568
442893
361673
279212
198121
119882
47223.1
946659
1.14466e+06
1.20444e+06
1.2391e+06
1.17616e+06
1.15446e+06
1.07008e+06
1.01369e+06
927736
857373
772863
694590
610964
529998
446745
364525
281206
198995
119770
46317.3
1.23796e+06
1.34679e+06
1.30511e+06
1.3066e+06
1.23181e+06
1.19036e+06
1.09901e+06
1.03367e+06
946268
870738
784716
704518
618914
536361
451630
368276
283917
200538
120331
46202.4
1.3491e+06
1.48971e+06
1.36462e+06
1.38883e+06
1.27718e+06
1.22688e+06
1.12119e+06
1.0505e+06
959231
879804
793180
710588
624877
541217
456277
371975
286899
202455
121402
46471
2.01665e+06
1.777e+06
1.5424e+06
1.47527e+06
1.33167e+06
1.26233e+06
1.15471e+06
1.07236e+06
978383
894663
805117
720506
633209
548012
462118
376959
290579
205085
123151
47474.2
2.30547e+06
1.91071e+06
1.61525e+06
1.52842e+06
1.36397e+06
1.28794e+06
1.1926e+06
1.10226e+06
1.0114e+06
923673
835937
749760
663180
576835
468882
382149
294898
208153
125463
48748.7
2.08976e+06
1.88785e+06
1.67257e+06
1.5513e+06
1.39397e+06
1.32601e+06
1.22257e+06
1.13108e+06
1.03922e+06
948736
859175
770961
683459
596552
499079
388010
299304
211543
127778
50053.2
2.0931e+06
1.85684e+06
1.62224e+06
1.53109e+06
1.38739e+06
1.33137e+06
1.2401e+06
1.14499e+06
1.05224e+06
960843
870066
779974
691167
603223
504403
393420
303587
214387
129734
50699.4
1.5967e+06
1.76053e+06
1.54972e+06
1.50327e+06
1.3838e+06
1.33016e+06
1.24572e+06
1.15299e+06
1.06074e+06
967868
879026
787833
698358
609143
509142
397477
306983
216888
130952
50679.7
1.47787e+06
1.63878e+06
1.5312e+06
1.49112e+06
1.37994e+06
1.32828e+06
1.24808e+06
1.15874e+06
1.06796e+06
977362
886547
795753
705129
614801
512824
400500
309734
218772
131619
50288.6
1.34517e+06
1.55721e+06
1.50206e+06
1.49061e+06
1.3899e+06
1.32008e+06
1.24367e+06
1.1558e+06
1.06452e+06
973969
882624
791432
700038
609248
496796
404784
312428
220505
132414
50367.6
1.67936e+06
1.6555e+06
1.54799e+06
1.51256e+06
1.40374e+06
1.33162e+06
1.23352e+06
1.14623e+06
1.05149e+06
961542
869013
778540
686490
594692
500859
407912
314751
222252
133513
50880.7
1.7756e+06
1.75221e+06
1.60729e+06
1.53804e+06
1.43259e+06
1.34872e+06
1.24697e+06
1.15597e+06
1.06064e+06
968199
874739
782663
689632
597085
503445
410116
316716
223946
134947
51697.7
2.12114e+06
1.90048e+06
1.65731e+06
1.55725e+06
1.43392e+06
1.34746e+06
1.24207e+06
1.15467e+06
1.05733e+06
968512
874211
782806
688804
596798
503692
411146
318118
225703
136704
53074.7
2.19532e+06
1.92263e+06
1.67481e+06
1.56304e+06
1.43764e+06
1.34469e+06
1.24113e+06
1.15173e+06
1.05526e+06
966028
872498
781472
688246
596519
503846
411968
319465
227533
138850
54837.9
1.84503e+06
1.81453e+06
1.63374e+06
1.54604e+06
1.42072e+06
1.33407e+06
1.23164e+06
1.14573e+06
1.04916e+06
961828
868626
779086
686615
595971
503906
412566
320655
229478
141179
57122
1.66574e+06
1.6826e+06
1.57711e+06
1.50862e+06
1.40544e+06
1.32126e+06
1.22544e+06
1.1409e+06
1.0474e+06
960531
867901
778512
686575
596261
504481
413296
321755
231394
144023
60279.4
1.41179e+06
1.55089e+06
1.51111e+06
1.47977e+06
1.39043e+06
1.31485e+06
1.22221e+06
1.14004e+06
1.04633e+06
960111
867438
778185
686445
596267
504637
413739
322607
232767
145911
63143.5
1.29929e+06
1.27786e+06
1.18087e+06
1.18212e+06
1.11712e+06
1.10032e+06
1.03003e+06
982611
904629
837377
754914
679359
597641
519459
438186
358438
277541
198446
122216
51029.4
1.16693e+06
1.20686e+06
1.17016e+06
1.17531e+06
1.12169e+06
1.10695e+06
1.0349e+06
987881
907722
840704
757577
682091
599822
521155
439572
359385
277869
197776
120033
46461.5
939836
1.12814e+06
1.18497e+06
1.20072e+06
1.15055e+06
1.12865e+06
1.05385e+06
999878
919513
850164
766833
689442
606067
525780
443010
361678
279109
197734
118791
44378.1
910717
1.12739e+06
1.20247e+06
1.23597e+06
1.17542e+06
1.15539e+06
1.0708e+06
1.01416e+06
928073
858053
773444
694945
611388
530257
446916
364577
281125
198688
118863
43662
1.30755e+06
1.34844e+06
1.29672e+06
1.30382e+06
1.231e+06
1.19091e+06
1.09954e+06
1.03404e+06
946969
871439
785448
705085
619289
536717
451874
368437
283886
200287
119489
43633
1.4877e+06
1.47988e+06
1.36083e+06
1.38622e+06
1.27708e+06
1.22902e+06
1.12251e+06
1.05132e+06
960064
880925
793975
711318
625628
541777
456743
372272
287058
202281
120607
43926.8
1.9721e+06
1.76677e+06
1.52576e+06
1.47593e+06
1.33058e+06
1.26295e+06
1.15517e+06
1.07298e+06
979104
895420
805774
721254
633579
548391
462448
377258
290684
204920
122319
44920.4
2.19975e+06
1.92183e+06
1.6088e+06
1.52207e+06
1.36264e+06
1.28944e+06
1.19341e+06
1.10354e+06
1.01244e+06
924377
836766
749965
663280
576849
469203
382560
294936
207903
124423
46087.6
2.13995e+06
1.90189e+06
1.66348e+06
1.55378e+06
1.3934e+06
1.3271e+06
1.22279e+06
1.1326e+06
1.04098e+06
949797
860189
771602
683910
596844
499555
388442
299345
211127
126605
47324.1
1.95547e+06
1.83896e+06
1.61433e+06
1.53074e+06
1.3859e+06
1.33391e+06
1.24204e+06
1.14598e+06
1.05309e+06
961520
870782
780464
691395
603426
505082
393800
303572
213994
128526
47933.7
1.56814e+06
1.74578e+06
1.55177e+06
1.49891e+06
1.38351e+06
1.33043e+06
1.24617e+06
1.15384e+06
1.06156e+06
971830
879567
788032
698351
609168
509691
397787
306938
216507
129835
48013.3
1.56663e+06
1.62775e+06
1.53392e+06
1.48993e+06
1.37987e+06
1.32913e+06
1.24852e+06
1.15935e+06
1.06856e+06
977758
886712
795681
704894
614735
513249
400711
309685
218340
130592
47796.6
1.3912e+06
1.55702e+06
1.50312e+06
1.48861e+06
1.39008e+06
1.32015e+06
1.2437e+06
1.1559e+06
1.06476e+06
973886
882442
791125
699785
609181
496914
404826
312348
220141
131499
48059.1
1.75318e+06
1.66466e+06
1.54796e+06
1.51223e+06
1.40437e+06
1.33153e+06
1.23333e+06
1.14606e+06
1.0519e+06
961704
869209
778588
686424
594609
500738
407818
314619
221884
132636
48668.4
1.85463e+06
1.7559e+06
1.60659e+06
1.53906e+06
1.43334e+06
1.34865e+06
1.24713e+06
1.15566e+06
1.06059e+06
968092
874664
782461
689417
596809
503184
409930
316511
223499
134053
49520
1.95779e+06
1.87992e+06
1.65598e+06
1.55678e+06
1.43442e+06
1.34713e+06
1.242e+06
1.1546e+06
1.05731e+06
968122
873937
782512
688723
596816
503679
411112
317933
225214
135752
50898.9
2.2033e+06
1.93278e+06
1.67598e+06
1.56264e+06
1.43801e+06
1.34482e+06
1.24225e+06
1.15255e+06
1.05594e+06
966680
872717
781718
688387
596591
503911
411996
319341
227045
137858
52650.2
1.8492e+06
1.82934e+06
1.62929e+06
1.54551e+06
1.42048e+06
1.33386e+06
1.232e+06
1.14598e+06
1.04937e+06
962092
868630
779149
686633
596007
503990
412618
320570
228931
140081
54973
1.69739e+06
1.68284e+06
1.57458e+06
1.50625e+06
1.40487e+06
1.32136e+06
1.22556e+06
1.14092e+06
1.04725e+06
960380
867850
778556
686705
596441
504672
413393
321804
231193
142962
58444.5
1.33881e+06
1.52554e+06
1.50401e+06
1.4767e+06
1.38978e+06
1.31537e+06
1.22234e+06
1.14014e+06
1.04629e+06
960051
867456
778174
686534
596442
504858
413827
322598
232571
145504
62497.9
1.51413e+06
1.31158e+06
1.18618e+06
1.18099e+06
1.11738e+06
1.10012e+06
1.03013e+06
982486
904641
837563
755123
679462
597736
519519
438233
358500
277587
198260
121730
48891.7
1.32288e+06
1.22433e+06
1.1744e+06
1.17517e+06
1.12193e+06
1.10712e+06
1.03523e+06
988312
908896
841490
758552
682953
600380
521372
439593
359406
277841
197692
119497
43317.4
858025
1.11747e+06
1.18352e+06
1.19888e+06
1.15016e+06
1.12872e+06
1.05399e+06
1.00022e+06
919812
850361
767462
689976
606526
526242
443180
361831
279100
197553
118256
41307.7
822656
1.1257e+06
1.20136e+06
1.23242e+06
1.17471e+06
1.15581e+06
1.07106e+06
1.01459e+06
929593
859211
774166
696028
611761
530626
447002
364671
281088
198584
118487
40918.7
1.32858e+06
1.34965e+06
1.29738e+06
1.30272e+06
1.23084e+06
1.19131e+06
1.09985e+06
1.03433e+06
947709
872464
786139
705340
619567
537027
452142
368649
283914
200236
119159
40997
1.46002e+06
1.48955e+06
1.36114e+06
1.38536e+06
1.27602e+06
1.23029e+06
1.12242e+06
1.05188e+06
960981
882350
795700
712215
626504
542089
457072
372387
287232
202319
120320
41318.4
1.89304e+06
1.74791e+06
1.51826e+06
1.47712e+06
1.3295e+06
1.26401e+06
1.15574e+06
1.07329e+06
980033
896687
806607
722011
633957
549008
462860
377517
290881
205008
122006
42278.9
2.2403e+06
1.9335e+06
1.60596e+06
1.52032e+06
1.35988e+06
1.29094e+06
1.19433e+06
1.1033e+06
1.01285e+06
925257
837376
749966
663444
576695
469512
383084
295131
207890
124035
43288.9
2.19593e+06
1.9088e+06
1.658e+06
1.55597e+06
1.39242e+06
1.32756e+06
1.22312e+06
1.13288e+06
1.04177e+06
950874
861143
772031
684084
596776
499785
388544
299372
211029
126080
44420.5
1.96521e+06
1.84457e+06
1.60826e+06
1.5309e+06
1.38461e+06
1.33504e+06
1.24195e+06
1.14658e+06
1.05381e+06
962116
871435
781147
691732
603673
505687
393981
303546
213789
127823
45063.3
1.62993e+06
1.74332e+06
1.5544e+06
1.4997e+06
1.38367e+06
1.3307e+06
1.24672e+06
1.15451e+06
1.06206e+06
970615
879731
788804
698452
609274
510241
397902
306885
216210
129160
45376.4
1.47199e+06
1.61728e+06
1.53295e+06
1.49116e+06
1.3804e+06
1.33039e+06
1.24907e+06
1.15987e+06
1.06882e+06
977764
886730
795652
704792
614727
513596
400769
309611
218073
130100
45394.3
1.26343e+06
1.55348e+06
1.50344e+06
1.48746e+06
1.39083e+06
1.32026e+06
1.24335e+06
1.15581e+06
1.06453e+06
973758
882221
790952
699668
609099
496851
404833
312257
219992
131203
45811.7
1.86318e+06
1.68544e+06
1.55219e+06
1.51288e+06
1.40548e+06
1.33123e+06
1.23319e+06
1.14592e+06
1.05208e+06
961848
869320
778767
686333
594613
500649
407746
314509
221743
132390
46497
1.85e+06
1.75816e+06
1.60663e+06
1.53978e+06
1.43417e+06
1.34864e+06
1.2474e+06
1.15544e+06
1.06038e+06
967853
874440
782245
689259
596614
502998
409811
316384
223366
133805
47358.2
2.03459e+06
1.88644e+06
1.65418e+06
1.55768e+06
1.43551e+06
1.34685e+06
1.24234e+06
1.154e+06
1.05741e+06
967755
873773
782344
688740
596826
503614
411079
317815
225027
135392
48648.9
2.22936e+06
1.92934e+06
1.67714e+06
1.56238e+06
1.43855e+06
1.34486e+06
1.24274e+06
1.15286e+06
1.05606e+06
966798
872808
781780
688445
596632
503945
411997
319229
226792
137326
50288
2.04895e+06
1.84129e+06
1.62894e+06
1.54435e+06
1.42057e+06
1.33394e+06
1.23231e+06
1.146e+06
1.04954e+06
962155
868664
779105
686643
596018
504033
412634
320457
228615
139309
52388.5
1.6514e+06
1.67744e+06
1.57445e+06
1.50419e+06
1.40459e+06
1.32149e+06
1.22568e+06
1.14121e+06
1.04742e+06
960522
867968
778709
686871
596645
504919
413451
321719
230728
142094
55988
1.34487e+06
1.51647e+06
1.50848e+06
1.47697e+06
1.38953e+06
1.31581e+06
1.22254e+06
1.14035e+06
1.04638e+06
960129
867520
778330
686646
596709
505128
414019
322563
232391
145215
61798.4
892763
965369
898901
961384
893342
966060
899558
802431
876431
812072
870591
802736
876998
811979
901411
975585
907487
968390
902017
976031
907774
812590
884682
816592
879602
812995
884910
816668
1.15265e+06
1.23363e+06
1.16336e+06
1.22284e+06
1.15273e+06
1.23402e+06
1.16391e+06
1.05825e+06
1.14053e+06
1.07152e+06
1.12851e+06
1.05948e+06
1.14092e+06
1.07193e+06
970959
1.04866e+06
980314
1.03675e+06
971504
1.04891e+06
980424
881155
957561
889596
948520
881181
957639
889659
792259
866916
799571
858516
792355
867001
799787
704512
777287
710977
770347
704615
777425
711102
617232
688916
623175
682819
617463
689027
623290
530660
601291
535326
595965
530884
601398
535477
1.16615e+06
1.2432e+06
1.17315e+06
1.23621e+06
1.16668e+06
1.24345e+06
1.17338e+06
1.07431e+06
1.15024e+06
1.08075e+06
1.14382e+06
1.07458e+06
1.15038e+06
1.08085e+06
982766
1.05778e+06
988980
1.05152e+06
982891
1.0579e+06
989185
891894
966098
898027
960132
892009
966295
898385
801726
875465
808158
869349
801915
875788
808333
712927
785807
718811
779566
713025
785889
718842
624867
696631
629842
690945
624938
696625
629833
536677
607622
540544
603014
536745
607617
540551
1.17518e+06
1.24892e+06
1.17931e+06
1.24582e+06
1.17524e+06
1.24863e+06
1.17953e+06
1.08269e+06
1.15664e+06
1.08805e+06
1.15226e+06
1.08282e+06
1.15683e+06
1.08815e+06
990773
1.06515e+06
997055
1.05979e+06
991125
1.06533e+06
997259
900254
974392
906745
968311
900572
974591
906866
810359
884179
816397
877972
810460
884272
816482
720805
793850
726359
788004
720818
793918
726353
631529
703889
636389
698521
631482
703849
636250
541868
613702
545406
609146
541869
613607
545499
1.18094e+06
1.25026e+06
1.18661e+06
1.24819e+06
1.18101e+06
1.25023e+06
1.18679e+06
1.08999e+06
1.1643e+06
1.0963e+06
1.15849e+06
1.09013e+06
1.16442e+06
1.0964e+06
999255
1.07352e+06
1.0056e+06
1.06732e+06
999400
1.07356e+06
1.00568e+06
908753
983023
914780
976686
908884
983046
914853
818365
892023
824090
886217
818426
892027
824108
728102
801253
733320
795763
728083
801223
733251
637917
710348
642385
705471
637766
710266
642190
546773
619491
551088
615040
546816
619313
551037
1.15288e+06
1.23415e+06
1.16417e+06
1.22277e+06
1.15398e+06
1.2355e+06
1.165e+06
1.05998e+06
1.14115e+06
1.0721e+06
1.13057e+06
1.06217e+06
1.14193e+06
1.07264e+06
971359
1.04901e+06
980490
1.03877e+06
971421
1.04945e+06
980844
881184
957696
889722
948607
881483
958009
890088
792433
867074
799917
858964
792750
867443
800273
704715
777539
711174
770792
705111
777878
711408
617615
689090
623352
683308
618055
689306
623573
531137
601456
535643
596437
531638
601672
535897
1.16694e+06
1.24347e+06
1.1735e+06
1.23946e+06
1.16778e+06
1.24411e+06
1.17404e+06
1.07471e+06
1.15046e+06
1.08097e+06
1.14472e+06
1.07517e+06
1.15103e+06
1.08155e+06
982977
1.05802e+06
989364
1.05206e+06
983419
1.05858e+06
990500
892100
966389
898592
960634
892558
968569
898999
802047
875924
808424
869895
802376
876269
807557
713074
785909
718850
779934
713220
785658
718808
624975
696608
629827
691122
625103
696547
629818
536843
607618
540616
603175
537026
607637
540757
1.17531e+06
1.24834e+06
1.17955e+06
1.24581e+06
1.17567e+06
1.24816e+06
1.17969e+06
1.08292e+06
1.15685e+06
1.08825e+06
1.1528e+06
1.08343e+06
1.15705e+06
1.08868e+06
991356
1.06545e+06
997398
1.0605e+06
992654
1.06592e+06
997968
900773
974729
906960
970917
901418
975345
907348
810526
884333
816520
878732
809065
884593
816582
720805
793937
726335
787648
720727
793953
726215
631458
703809
636183
698385
631408
703630
636013
541947
613565
545623
609139
542099
613478
545803
1.18098e+06
1.25014e+06
1.18685e+06
1.2481e+06
1.18106e+06
1.25045e+06
1.18712e+06
1.09022e+06
1.16442e+06
1.09644e+06
1.15863e+06
1.09057e+06
1.16457e+06
1.0966e+06
999500
1.07359e+06
1.00573e+06
1.06781e+06
999914
1.07372e+06
1.00595e+06
908972
983049
914857
977194
909281
983156
915024
818449
891988
824071
886483
818496
892046
824047
728058
801156
733134
795767
727904
801056
732811
637687
710153
642061
705208
637473
709819
641734
546912
619207
551056
614834
547057
618983
551101
1.15417e+06
1.23597e+06
1.16527e+06
1.22296e+06
1.15482e+06
1.23776e+06
1.166e+06
1.06303e+06
1.14221e+06
1.07285e+06
1.13232e+06
1.0651e+06
1.14302e+06
1.07361e+06
971554
1.04965e+06
981011
1.04058e+06
972244
1.05035e+06
981582
881688
958167
890263
949440
882596
958717
890835
792921
867607
800375
859896
793561
868138
800760
705307
777960
711490
771425
705836
778282
711760
618217
689381
623651
683795
618633
689616
623889
531942
601749
536094
596785
532355
601979
536413
1.16805e+06
1.24432e+06
1.17427e+06
1.24181e+06
1.1688e+06
1.24534e+06
1.17506e+06
1.07536e+06
1.15129e+06
1.08176e+06
1.14575e+06
1.07601e+06
1.15201e+06
1.08239e+06
983618
1.0588e+06
990783
1.05287e+06
984169
1.05942e+06
991461
940952
938163
963347
961044
940685
938385
963592
849523
847449
872211
870250
849475
847590
872306
713269
785817
718787
780220
713450
785920
718797
625150
696531
629817
691325
625299
696531
629822
537198
607646
540901
603375
537470
607674
541085
1.17584e+06
1.24794e+06
1.17978e+06
1.24611e+06
1.17647e+06
1.24803e+06
1.18024e+06
1.08365e+06
1.15718e+06
1.08885e+06
1.15362e+06
1.0843e+06
1.15775e+06
1.08942e+06
992890
1.0661e+06
998191
1.06138e+06
993535
1.06665e+06
998671
950160
945671
972536
964995
949926
941631
972838
858088
856946
880813
879971
857923
858522
881014
720701
793950
726164
788063
720694
793964
726048
631400
703568
635975
698337
631392
703436
635906
542242
613463
545946
609161
542410
613446
546096
1.18114e+06
1.25037e+06
1.18719e+06
1.24846e+06
1.18151e+06
1.25075e+06
1.18744e+06
1.09072e+06
1.16463e+06
1.09667e+06
1.15918e+06
1.0912e+06
1.16481e+06
1.09693e+06
1.00008e+06
1.07377e+06
1.00602e+06
1.06842e+06
1.00045e+06
1.074e+06
1.00621e+06
909379
983167
914998
977709
909566
983214
915010
818502
892006
823962
886687
818503
891939
823727
727838
800954
732650
795696
727665
800623
732295
637419
709662
641639
704938
637310
709293
641482
547179
618919
551193
614745
547344
618773
551331
1.15499e+06
1.23802e+06
1.16621e+06
1.22302e+06
1.15544e+06
1.2385e+06
1.16663e+06
1.0656e+06
1.14326e+06
1.07388e+06
1.13295e+06
1.06652e+06
1.14374e+06
1.07454e+06
972510
1.05061e+06
981787
1.04168e+06
973442
1.05125e+06
982388
883020
958915
891026
950654
884069
959528
891649
793850
868321
800955
860944
794463
868961
801545
706077
778489
711868
771977
706599
779038
712269
618810
689701
623966
684077
619130
690014
624176
532611
602053
536670
596833
532774
602264
536910
1.16902e+06
1.24553e+06
1.17533e+06
1.24228e+06
1.16949e+06
1.24625e+06
1.17595e+06
1.07625e+06
1.15226e+06
1.08258e+06
1.14647e+06
1.07684e+06
1.15286e+06
1.08309e+06
984323
1.05959e+06
991560
1.05367e+06
984779
1.06005e+06
991320
893500
969623
900089
961978
893989
968483
900458
802991
877202
808055
871333
803581
877616
809664
713542
785921
718842
781050
713917
786866
719104
625353
696556
629831
691673
625522
696704
629904
537742
607687
541354
603592
538010
607785
541598
1.1767e+06
1.24801e+06
1.18042e+06
1.24672e+06
1.17725e+06
1.24854e+06
1.18092e+06
1.0845e+06
1.15796e+06
1.0896e+06
1.15441e+06
1.08498e+06
1.1585e+06
1.09e+06
993645
1.06681e+06
998746
1.06198e+06
993349
1.06714e+06
998859
902325
976065
907816
970529
902521
976117
907892
809892
884962
816710
879694
811507
885070
816813
720725
793983
726029
788711
720885
794056
726008
631395
703411
635892
698430
631427
703349
635832
542626
613445
546302
609233
542838
613446
546454
1.18167e+06
1.25061e+06
1.18746e+06
1.24908e+06
1.18209e+06
1.25113e+06
1.18747e+06
1.09136e+06
1.16483e+06
1.09697e+06
1.15979e+06
1.09168e+06
1.16479e+06
1.09707e+06
1.00053e+06
1.07398e+06
1.00618e+06
1.0688e+06
1.00059e+06
1.07382e+06
1.00596e+06
909592
983145
914939
977785
909611
982893
914742
818502
891812
823610
886738
818500
891470
823370
727625
800466
732204
795659
727569
800211
732100
637286
709174
641455
704813
637228
708956
641454
547499
618712
551501
614721
547634
618575
551686
1.15553e+06
1.23822e+06
1.1667e+06
1.22431e+06
1.15511e+06
1.23815e+06
1.16671e+06
1.06636e+06
1.14383e+06
1.07467e+06
1.13212e+06
1.065e+06
1.1438e+06
1.07472e+06
973796
1.0514e+06
982553
1.04117e+06
974071
1.05153e+06
982791
884390
959702
891846
950874
884470
959938
892060
794692
869119
801651
861203
794672
869254
801770
706646
779138
712345
771837
706534
779264
712426
619092
690077
624240
683894
618907
690139
624340
532961
602335
537164
596547
532789
602443
536996
1.16957e+06
1.24625e+06
1.17607e+06
1.24133e+06
1.16947e+06
1.24656e+06
1.17615e+06
1.07697e+06
1.15298e+06
1.08319e+06
1.1465e+06
1.0771e+06
1.15305e+06
1.08334e+06
984911
1.06015e+06
991374
1.05398e+06
985101
1.0603e+06
991513
894124
968579
900517
962309
894263
968753
900548
803674
877688
809661
871523
803773
877744
809642
713995
786944
719162
781258
714099
786995
719258
625590
696743
629935
691804
625686
696805
629983
538301
607845
541908
603789
538198
607937
541851
1.17736e+06
1.24853e+06
1.18101e+06
1.24709e+06
1.17746e+06
1.24897e+06
1.18113e+06
1.08507e+06
1.15861e+06
1.09007e+06
1.1546e+06
1.08519e+06
1.15869e+06
1.09012e+06
993386
1.06719e+06
998862
1.06219e+06
993509
1.06723e+06
998832
902551
976115
907908
970766
902580
976083
907966
811541
885090
816831
879778
811581
885130
816851
720925
794071
725994
788893
721001
794075
725984
631445
703335
635833
698492
631489
703305
635864
543112
613463
546711
609360
543086
613521
546607
1.18218e+06
1.25084e+06
1.1873e+06
1.2496e+06
1.18225e+06
1.25136e+06
1.18711e+06
1.09172e+06
1.16465e+06
1.09696e+06
1.15996e+06
1.09173e+06
1.16455e+06
1.09684e+06
1.00057e+06
1.07364e+06
1.00579e+06
1.06881e+06
1.0005e+06
1.07349e+06
1.00565e+06
909601
982720
914628
977690
909528
982488
914536
818495
891292
823298
886698
818481
891162
823378
727555
800097
732073
795628
727514
800086
732265
637220
708896
641450
704738
637242
709018
641735
547839
618538
551933
614773
547752
618728
552232
918047
915459
894997
892980
917828
915691
895168
944292
966183
943360
963717
943779
966407
942144
920740
897300
921151
898376
920363
897588
919713
941199
961227
938727
963923
938579
963789
941326
918284
893174
916052
895642
915892
895376
918515
944675
963551
966857
943866
966610
942509
944485
921051
898767
898036
921742
897839
920120
921167
826814
824886
804380
802488
826793
824969
804424
851814
874466
854557
876062
851629
874683
854919
828501
806126
833116
813896
828566
806259
833760
849654
870422
847912
872793
847736
872495
849969
826892
802581
825270
804645
825085
804493
827182
851886
876428
875073
854977
874842
855085
852099
828486
814294
806314
833435
806317
833728
828895
926818
923511
903602
902040
926553
923190
903819
951533
973887
952999
975799
951336
974135
953187
928705
905666
930242
907606
928499
905840
930396
950454
964729
945915
973064
942021
973008
950430
927006
902213
924048
904079
923254
903984
927073
951752
975958
974383
953397
974326
953340
951788
928866
907704
906045
930590
905974
930515
928935
834812
835004
812207
816524
834673
839945
812259
860127
882860
861929
884766
860023
882993
861983
837339
814691
839185
816605
837233
814747
839214
858191
880036
857426
881227
858583
881142
858288
834848
817351
835604
812465
839737
812385
835007
860216
884843
883177
862108
883102
862042
860294
837402
816631
814847
839310
814807
839254