/*--------------------------------*- C++ -*----------------------------------*\
  =========                 |
  \\      /  F ield         | OpenFOAM: The Open Source CFD Toolbox
   \\    /   O peration     | Website:  https://openfoam.org
    \\  /    A nd           | Version:  10
     \\/     M anipulation  |
\*---------------------------------------------------------------------------*/
FoamFile
{
    format      ascii;
    class       volVectorField;
    location    "3.4";
    object      U;
}
// * * * * * * * * * * * * * * * * * * * * * * * * * * * * * * * * * * * * * //

dimensions      [0 1 -1 0 0 0 0];

internalField   nonuniform List<vector> 
12920
(
(151.152 46.9594 251.081)
(139.142 -16.6125 -17.3815)
(251.872 -22.8554 0.0152356)
(181.444 -5.86272 -0.387856)
(225.54 10.7305 -3.82828)
(187.5 14.4826 -6.14587)
(194.557 26.981 -4.09616)
(157.413 22.408 -3.67306)
(153.546 13.4723 0.0417385)
(128.429 0.913501 0.0669637)
(133.162 -5.90201 1.17949)
(126.598 -9.23068 1.95036)
(131.852 -10.4569 2.4355)
(131.156 -10.0446 2.33238)
(135.537 -9.7812 2.17505)
(137.502 -8.37211 1.69564)
(141.829 -8.48694 1.34994)
(146.635 -6.97578 0.758781)
(152.101 -6.50983 0.290083)
(167.208 -5.85079 0.379744)
(220.624 -42.8194 -187.187)
(250.23 -29.4581 -59.2354)
(312.059 -50.3691 7.13917)
(175.35 -17.0122 11.221)
(184.895 -3.11627 5.70703)
(130.724 12.8672 -0.665582)
(160.662 18.9952 1.3597)
(138.494 16.9152 -0.695987)
(157.787 12.2267 -0.099748)
(147.216 8.34319 -0.673508)
(149.759 -2.63858 1.86587)
(134.442 -8.2686 2.01354)
(132.814 -11.7202 1.45455)
(127.143 -11.8354 0.803073)
(128.362 -11.4834 0.452402)
(127.223 -10.0466 0.268796)
(128.861 -9.12781 -0.0606181)
(129.479 -6.73431 -0.0987452)
(133.165 -5.32371 -0.221372)
(144.379 -3.34969 -0.232625)
(268.34 104.229 -111.333)
(342.827 52.1121 -53.816)
(384.59 81.9333 -17.7499)
(293.912 68.9005 3.81322)
(241.08 59.9661 14.0209)
(163.156 36.919 4.20552)
(175.751 30.5825 2.56287)
(150.8 22.6188 1.59181)
(156.319 12.2645 2.90131)
(139.159 6.41433 2.74663)
(140.33 -1.33199 2.42977)
(130.931 -4.99398 1.4155)
(132.785 -9.30934 1.03362)
(129.127 -10.0713 0.700223)
(130.097 -10.6398 0.627803)
(128.053 -9.56643 0.519287)
(127.965 -9.10058 0.443617)
(126.804 -7.80887 0.379075)
(128.946 -7.64822 0.460013)
(138.404 -6.52321 0.582924)
(76.2346 103.729 135.148)
(-26.0099 24.018 -5.73021)
(168.873 74.9126 -0.0715088)
(63.2747 46.8055 3.54147)
(157.694 47.3481 2.90723)
(100.809 29.2456 1.04447)
(149.281 20.7149 2.49521)
(125.315 16.4809 1.47611)
(145.192 7.93799 2.15635)
(131.928 2.84911 1.1223)
(137.976 -8.15706 1.44937)
(129.488 -12.8603 0.905852)
(131.512 -15.8423 0.872042)
(128.508 -15.0224 0.407462)
(129.593 -13.9195 0.402471)
(127.323 -11.6067 0.376646)
(126.748 -10.1699 0.53)
(124.041 -8.12867 0.416606)
(125.427 -7.88307 0.362223)
(133.446 -6.94598 0.373993)
(233.438 -116.375 81.7939)
(147.336 9.5414 46.7185)
(199.168 58.3845 15.4477)
(127.961 41.0669 4.12571)
(185.136 29.1583 1.24426)
(146.539 21.2322 -1.99323)
(175.521 6.48577 -2.20561)
(161.803 9.35291 -3.13869)
(176.161 1.18666 -2.04911)
(169.203 3.58376 -1.11868)
(166.872 -3.96909 2.37576)
(144.666 -4.99766 3.07084)
(137.142 -12.2179 1.59633)
(129.953 -11.349 0.357805)
(129.941 -11.7549 0.0282708)
(127.552 -9.61946 -0.0268458)
(126.349 -8.68651 0.285703)
(122.997 -7.06462 0.399482)
(124.116 -7.6409 0.325901)
(131.786 -7.39947 0.286462)
(163.282 -343.007 -205.663)
(-161.325 -9.62138 35.8917)
(143.713 31.9146 -9.44181)
(34.6672 15.5671 -0.36397)
(146.695 22.8794 -4.20804)
(81.1025 27.231 -3.58626)
(136.831 20.9158 -2.67269)
(114.236 20.1823 -2.95613)
(129.7 11.4998 -1.44223)
(118.909 8.55947 -0.826015)
(123.08 0.920286 0.284774)
(116.582 -4.66358 0.518589)
(119.7 -11.6181 0.180511)
(118.235 -12.4202 0.105665)
(119.567 -12.1154 -0.00451818)
(118.491 -9.17165 -0.0849974)
(118.567 -7.39573 -0.0645502)
(117.83 -6.40206 0.0611667)
(120.089 -7.1022 0.107595)
(129.168 -7.111 0.179423)
(-119.622 -155.757 39.5857)
(-95.1845 -10.4058 -33.965)
(169.252 -16.2618 -16.6034)
(61.6423 13.5078 0.892945)
(160.237 22.0863 0.40208)
(103.685 32.2368 -2.52848)
(140.946 -0.321782 -1.26383)
(122.379 25.4258 -1.25274)
(135.259 5.49652 -0.424025)
(125.52 10.0736 0.375494)
(129.819 -3.54228 1.48882)
(125.232 -5.38987 1.50343)
(126.641 -13.7614 0.864225)
(123.046 -11.4802 0.6822)
(121.675 -11.884 0.330472)
(118.221 -8.59824 -0.0333869)
(118.086 -7.96179 -0.121556)
(117.75 -7.0537 -0.136784)
(121.092 -8.1865 -0.0204992)
(131.647 -8.43416 0.109454)
(-85.2017 -63.4393 -127.27)
(-109.493 -21.7319 -37.1721)
(143.608 -48.9858 -8.14047)
(16.6907 -12.9571 5.30529)
(138.836 -10.1876 2.55504)
(67.931 41.4479 0.800267)
(115.462 17.6681 -1.18367)
(103.302 8.1151 -1.10551)
(123.52 11.3343 -1.18508)
(117.678 -0.142389 -0.217301)
(128.117 -6.71685 0.107931)
(131.923 -18.3573 0.409361)
(135.711 -21.4973 0.571968)
(131.717 -21.955 1.03486)
(122.807 -8.70404 1.06215)
(118.509 -6.08412 0.139117)
(117.585 -6.24965 -0.410372)
(118.547 -6.97162 -0.495062)
(124.492 -9.80835 -0.553864)
(135.711 -9.5189 -0.0848587)
(235.637 33.4079 -101.874)
(178.166 -23.4187 -40.3241)
(180.357 -68.483 -0.746669)
(92.1197 -37.3723 3.97532)
(144.807 -35.6624 5.45544)
(93.0582 -0.183398 -0.567405)
(131.968 9.33591 -0.00764853)
(116.333 -3.11931 0.197526)
(123.176 1.29644 0.137321)
(125.202 -13.3146 0.241375)
(130.042 -27.152 0.703511)
(130.33 -31.4511 0.568912)
(134.934 -27.2345 0.0838594)
(140.558 -20.5657 0.18786)
(134.5 -14.6559 1.02818)
(122.888 -3.82382 0.0848535)
(123.543 -5.77623 -0.591449)
(125.087 -9.34763 -0.627143)
(130.459 -11.7039 -0.532835)
(139.911 -10.3595 -0.018699)
(240.258 296.482 -83.525)
(251.11 182.038 -46.1045)
(249.079 25.7936 25.9169)
(100.653 -3.8439 16.0033)
(133.012 -20.3785 10.9744)
(62.5042 2.39064 -0.753028)
(101.793 8.28215 -0.209562)
(114.424 1.49908 -0.344228)
(119.633 -2.42186 -0.325795)
(125.185 -14.4543 0.355067)
(115.954 -20.6472 0.0923825)
(118.495 -24.4794 -0.2027)
(125.849 -27.1042 -0.0459279)
(131.544 -23.5957 0.709479)
(130.837 -6.94202 0.161175)
(128.538 -1.50308 0.0111293)
(129.728 -5.19167 0.0252485)
(129.297 -8.92811 -0.00681168)
(131.695 -10.948 -0.171789)
(138.986 -9.62192 -0.133758)
(113.078 -116.487 13.2452)
(87.0284 -47.4596 8.97283)
(238.742 -47.2427 8.2085)
(173.097 -23.3916 3.02239)
(187.459 -18.2384 11.3526)
(117.151 -9.05237 -0.651256)
(116.294 -4.55153 -0.0549357)
(117.558 -1.90924 -0.598624)
(115.318 -5.84527 -0.00523846)
(123.526 -15.8246 -0.0173093)
(142.421 -27.4411 -0.172251)
(147.905 -32.1695 0.262598)
(143.655 -30.3942 0.558848)
(133.08 -26.5651 0.00235494)
(126.174 -7.92982 0.166595)
(124.061 -5.32651 0.653812)
(123.878 -7.22431 1.00327)
(120.131 -9.1447 0.858005)
(120.124 -9.09219 0.214666)
(126.83 -6.63237 -0.263937)
(258.014 -304.596 -276.193)
(95.6437 -77.5967 -46.2817)
(157.783 -51.1019 -2.95466)
(81.4791 -9.97028 -3.16757)
(132.077 -8.2907 1.96538)
(76.0623 5.09238 1.4048)
(104.833 -0.864425 2.22232)
(114.872 0.966776 0.363907)
(137.735 -15.1953 -0.465308)
(153.31 -29.8113 -0.226169)
(154.05 -35.9552 0.163906)
(151.573 -35.382 0.178883)
(145.59 -28.6103 0.456477)
(123.83 -18.8642 0.657428)
(114.682 -9.85487 0.341607)
(112.631 -7.4681 0.53735)
(112.716 -7.48596 0.309309)
(111.541 -7.57784 0.17807)
(113.12 -6.98944 0.0127734)
(121.667 -4.60099 -0.165695)
(217.822 13.9965 -95.2864)
(110.092 19.9011 8.19334)
(185.859 -24.4841 14.7249)
(157.058 -11.9782 4.40283)
(207.744 -20.8866 2.81)
(198.579 -27.0972 -0.864452)
(208.889 -26.2635 -2.0355)
(194.691 -24.2939 -0.988868)
(185.644 -20.2225 -0.478071)
(168.668 -23.4879 0.510641)
(159.207 -31.6257 0.320968)
(149.673 -30.2281 0.652991)
(134.451 -18.9378 1.13612)
(119.525 -10.722 0.816207)
(113.772 -8.72057 0.407803)
(111.553 -8.7508 0.178486)
(111.113 -8.6671 0.0840997)
(110.211 -8.49578 0.146302)
(111.97 -7.36814 0.154395)
(120.734 -4.51133 0.114552)
(185.244 -150.186 104.689)
(172.779 -107.596 25.6947)
(214.132 -123.642 8.43401)
(174.876 -81.2322 3.77566)
(205.384 -55.9598 4.58738)
(177.821 -38.3455 1.327)
(184.785 -8.35024 -0.65824)
(178.797 -9.35655 -2.0798)
(182.906 -7.32611 -1.81539)
(175.825 -18.7088 -0.691168)
(170.029 -19.522 0.904737)
(154.822 -21.1074 2.0205)
(143.285 -7.00884 2.35344)
(127.934 -7.09284 1.80892)
(121.824 -5.48891 0.662353)
(116.017 -6.9141 0.308959)
(114.514 -7.00005 0.152301)
(112.202 -7.39638 0.174516)
(113.446 -6.7164 0.251555)
(121.142 -4.45414 0.262513)
(418.329 -4.15707 22.9569)
(386.198 -69.7807 11.5448)
(333.018 -90.3343 10.5169)
(241.564 -73.6931 1.81509)
(240.026 -38.6262 -0.144787)
(201.157 -20.8539 -0.297673)
(204.108 -0.51709 0.0192835)
(193.652 0.256385 -0.0541706)
(190.571 -0.846527 0.894524)
(175.614 -9.15458 0.893465)
(166.458 -10.9423 -0.123523)
(152.456 -11.7206 -0.559741)
(143.989 -3.08746 1.30241)
(130.522 -1.51388 1.2367)
(122.702 -1.55282 0.352249)
(116.367 -4.09255 -0.151902)
(113.914 -6.05963 -0.0971693)
(111.87 -6.69173 0.00055176)
(113.36 -6.18446 0.146959)
(120.987 -4.38519 0.227063)
(151.174 80.4369 21.5051)
(120.215 -55.2648 -7.65555)
(202.091 -48.3021 -8.09179)
(137.673 -37.6864 -6.94258)
(170.368 -18.4184 -4.92421)
(151.598 -10.3774 -3.56577)
(169.387 2.20763 -1.3498)
(159.216 0.361978 -0.803986)
(159.83 4.48675 0.685467)
(143.182 -1.48421 0.665016)
(137.379 1.15745 0.617783)
(124.839 0.768364 -0.416924)
(124.238 5.6357 -0.278946)
(120.196 5.36791 -0.1471)
(120.42 5.12857 -0.228031)
(118.107 1.70849 -0.368682)
(118.188 -2.34798 -0.126657)
(115.699 -5.03912 0.0312271)
(117.027 -5.43225 0.180536)
(124.288 -4.23811 0.2225)
(169.869 -132.104 -30.8081)
(142.249 -83.6465 -28.4504)
(211.215 -57.2208 -9.5743)
(165.577 -38.932 -4.09076)
(186.295 -16.9858 -2.20977)
(167 -9.40797 -2.22864)
(177.979 4.88473 -1.87437)
(167.052 7.55735 -1.68865)
(166.967 11.4234 0.609341)
(149.127 7.24734 1.308)
(136.981 4.56065 2.22203)
(121.244 1.99678 0.831983)
(121.377 3.12803 -0.0509374)
(119.235 2.63999 -0.193025)
(121.081 2.01453 -0.394596)
(121.806 -0.590244 -0.31054)
(123.753 -3.25302 -0.0900359)
(122.595 -4.02896 0.191842)
(123.089 -4.59835 0.462175)
(128.198 -3.77331 0.24911)
(252.853 -51.6472 50.8236)
(155.767 -50.802 -1.8518)
(204.012 -8.10594 2.06561)
(116.446 -5.40194 1.61332)
(163.751 1.28352 -0.518166)
(137.83 2.29267 -2.0065)
(163.737 11.4614 -1.80263)
(154.584 12.9174 -1.59622)
(162.646 18.6671 0.488549)
(148.105 18.0661 1.22753)
(142.183 17.1931 1.96329)
(127.999 10.8965 0.629862)
(128.722 9.11175 -0.16805)
(126.862 6.74708 -0.312571)
(130.172 5.14071 -0.350948)
(131.107 0.669107 -0.349993)
(133.278 -2.52462 -0.252692)
(132.736 -3.77723 -0.111223)
(134.311 -2.96609 0.00539959)
(138.579 -1.40972 0.00686047)
(373.605 -64.5312 -106.588)
(224.205 -88.5099 -3.63366)
(230.405 -73.9739 -5.08582)
(158.181 -42.3256 -4.70975)
(171.068 -27.3286 -2.48166)
(143.886 -8.65409 -2.5096)
(159.121 2.74413 -1.69026)
(147.572 10.8247 -0.988289)
(154.36 16.5962 0.813189)
(142.229 17.9805 1.45734)
(142.314 16.6714 1.55867)
(133.736 12.2682 0.454207)
(135.023 7.47009 -0.146369)
(131.659 3.79356 -0.516493)
(133.876 1.03939 -0.807328)
(132.209 -1.24561 -1.15176)
(132.84 -2.99646 -1.4275)
(133.887 -2.73652 -1.32837)
(137.713 -0.035694 -0.880453)
(147.12 1.29902 -0.342552)
(355.291 -25.5992 -49.0182)
(219.298 9.67026 11.8068)
(219.433 38.3916 18.0944)
(141.115 30.0988 5.51091)
(169.15 28.1068 1.77715)
(142.929 18.8116 2.02566)
(159.445 18.9935 3.43184)
(145.549 18.0948 4.02166)
(156.142 19.8087 4.81931)
(151.358 19.7519 4.79151)
(158.29 19.4366 4.37277)
(158.187 17.2326 3.46848)
(162.893 15.5248 2.5681)
(164.407 14.0155 1.45323)
(169.822 13.5567 0.998731)
(172.767 11.2882 0.782204)
(175.712 5.97152 0.578023)
(172.505 0.953315 0.592226)
(171.399 -0.73156 0.564765)
(177.338 -0.0395682 0.521527)
(372.228 -268.103 82.5552)
(210.931 -81.8862 12.7911)
(266.652 -35.0093 13.9416)
(192.884 -13.617 9.27465)
(225.091 2.1836 6.64202)
(175.804 2.76835 -0.581849)
(180.119 14.5349 2.57869)
(139.719 10.4037 0.158033)
(140.272 8.22766 3.50478)
(120.56 0.582721 2.52942)
(126.619 -4.80789 4.0601)
(121.493 -7.06518 4.51232)
(128.543 -7.65975 5.00412)
(128.975 -6.68082 4.34792)
(135.086 -5.94622 3.94122)
(137.381 -5.15418 2.82016)
(142.713 -4.47264 2.14809)
(146.592 -3.86558 1.30714)
(151.559 -3.88679 0.616173)
(165.428 -2.89688 0.772395)
(355.192 157.979 -26.9316)
(150.746 66.723 -16.0606)
(213.013 -10.1319 -1.7446)
(103.927 0.920834 1.5101)
(161.66 -0.222392 4.42372)
(91.354 5.88629 -4.09138)
(136.764 7.97906 0.533731)
(105.329 5.0712 -2.04657)
(129.809 0.486007 0.852306)
(114.499 -3.49222 0.263317)
(123.497 -7.19863 3.06762)
(115.597 -8.0185 2.29644)
(119.733 -8.32763 1.71381)
(116.893 -7.59393 0.676074)
(119.767 -6.96684 0.130236)
(119.512 -5.82185 -0.283012)
(121.61 -5.34161 -0.554222)
(122.483 -4.01807 -0.58166)
(126.009 -3.64121 -0.654631)
(136.322 -2.46894 -0.268354)
(371.014 103.285 45.286)
(270.794 115.546 -23.3546)
(257.744 106.76 -9.21883)
(175.556 67.9328 13.9311)
(192.765 54.1298 21.4087)
(135.131 32.3473 6.3809)
(153.726 23.1422 5.19671)
(123.266 15.9556 2.22826)
(134.145 6.72875 4.86205)
(116.966 3.35878 3.74107)
(122.544 -1.97921 3.67793)
(114.689 -2.89441 2.08321)
(118.671 -5.40779 1.67276)
(115.641 -5.06015 1.03003)
(117.694 -5.52847 0.873061)
(116.451 -4.79925 0.60808)
(117.33 -4.97699 0.49422)
(117.127 -4.25869 0.4674)
(119.867 -4.43483 0.717807)
(129.526 -3.54432 1.06629)
(72.4984 175.351 -74.9028)
(-108.173 50.0467 -12.136)
(136.84 81.5861 -5.54752)
(30.1628 43.4398 8.55186)
(143.532 45.4548 4.30494)
(74.2235 29.9098 2.80786)
(130.913 20.7158 4.13135)
(98.4073 16.6568 2.24719)
(122.991 6.79885 3.68777)
(107.509 2.71251 1.67339)
(116.981 -6.09601 2.39689)
(110.637 -8.30952 1.39958)
(115.377 -10.0186 1.44084)
(112.956 -8.43529 0.731116)
(114.999 -7.68872 0.7038)
(113.533 -6.0588 0.558399)
(114.171 -5.73741 0.663486)
(113.39 -4.7621 0.606417)
(115.661 -4.69644 0.715569)
(124.301 -3.67411 0.876895)
(111.092 62.2357 177.315)
(29.5494 60.5904 -3.32385)
(171.75 69.5572 -3.36217)
(94.6 45.7617 2.60229)
(164.943 33.3773 2.50756)
(113.618 27.4027 -1.50164)
(145.916 10.6672 -0.834471)
(121.057 15.6553 -3.02896)
(135.072 3.78188 -0.494712)
(122.233 5.21242 0.222336)
(126.483 -3.6015 4.38486)
(117.799 -3.68084 3.93021)
(118.721 -7.38859 2.61685)
(114.614 -5.86877 0.912268)
(115.276 -6.26066 0.351162)
(113.142 -4.72884 0.122247)
(113.125 -4.81486 0.441073)
(111.983 -4.19288 0.599883)
(114.131 -4.62992 0.724525)
(122.576 -4.01881 0.809714)
(-184.877 268.027 -32.0942)
(-184.451 44.5561 4.94803)
(100.765 40.6399 -21.8107)
(9.19823 24.3843 -3.40952)
(131.165 27.7187 -8.6714)
(55.655 29.0615 -3.83589)
(117.812 15.9952 -2.1108)
(87.7927 17.2465 -2.74646)
(107.339 5.00175 -0.119409)
(96.4654 3.43226 0.119519)
(104.563 -3.8074 1.53576)
(101.846 -4.8238 1.20421)
(106.21 -8.22775 0.587519)
(105.44 -7.53634 0.310591)
(107.465 -7.19353 0.133451)
(107.19 -5.24002 0.028813)
(108.135 -4.92512 0.135704)
(108.116 -4.31027 0.316121)
(110.942 -4.81342 0.474648)
(120.195 -4.17361 0.692225)
(-23.8317 -149.649 176.042)
(-84.1709 -22.746 -76.3661)
(133.189 -15.4146 -22.9611)
(22.8067 7.2027 -1.89838)
(143.601 13.0974 -3.60419)
(74.668 22.4181 -4.08517)
(117.049 -14.0772 -1.47743)
(91.992 19.6806 -1.30307)
(108.164 -5.38331 0.268912)
(99.8247 3.10608 1.42151)
(109.002 -9.93214 2.72361)
(106.99 -7.05554 2.40193)
(110.856 -11.424 1.41356)
(109.049 -7.65804 1.02186)
(110.036 -8.37919 0.459329)
(108.418 -6.32907 0.00813647)
(109.152 -6.51434 -0.00950229)
(109.07 -5.71764 0.06817)
(112.455 -6.35695 0.399764)
(122.015 -5.46749 0.701667)
(180.526 -39.4397 129.851)
(-82.2862 3.45229 -58.0121)
(107.438 -30.6934 -4.46317)
(-21.109 -11.553 8.22566)
(127.316 -11.3211 0.344339)
(46.5993 38.736 2.20476)
(99.0448 5.30113 0.504186)
(86.5072 5.0221 -0.746461)
(104.077 -0.781331 0.390605)
(101.734 -11.8935 2.41582)
(114.266 -16.1525 2.46138)
(115.978 -19.6003 2.23723)
(118.684 -19.0411 1.66628)
(115.102 -17.6679 1.98856)
(111.364 -6.40508 0.877461)
(110.638 -5.61975 -0.0948055)
(110.631 -6.22932 -0.544071)
(111.551 -6.79609 -0.506514)
(115.515 -7.78082 -0.230306)
(124.424 -6.24581 0.520392)
(277.016 44.6344 -52.9853)
(90.7386 29.0755 -30.4929)
(140.681 -40.1649 8.78095)
(39.8045 -32.6584 7.2657)
(126.252 -34.6601 5.6331)
(82.3771 -4.86405 2.42861)
(115.951 1.24304 1.09574)
(104.772 -9.26881 2.65822)
(111.389 -8.4381 4.14325)
(113.306 -18.6908 4.22788)
(118.752 -23.6636 4.28095)
(121.651 -23.56 2.19847)
(123.893 -19.5329 0.674576)
(123.449 -16.2506 0.69803)
(119.478 -11.8183 1.66834)
(115.286 -5.78356 -0.451394)
(116.61 -8.10548 -0.917489)
(116.723 -9.44182 -0.590648)
(120.01 -9.65773 -0.255045)
(127.691 -7.00941 0.491396)
(174.082 126.881 75.633)
(-37.3255 29.1326 36.1353)
(159.136 4.88631 34.5905)
(29.6683 -5.56281 15.669)
(117.375 -23.6723 12.1083)
(51.7097 -4.77247 -0.000171422)
(92.0135 2.45496 0.00285147)
(104.997 -3.35705 -0.0033974)
(108.509 -7.55795 0.454763)
(111.025 -16.2789 1.8484)
(110.611 -19.5729 0.954605)
(112.973 -20.966 0.0313818)
(117.727 -19.7283 0.829338)
(122.946 -13.0108 1.59527)
(122.88 -4.27421 0.918975)
(120.952 -4.96473 -0.202996)
(120.878 -8.70676 -0.00297626)
(119.332 -9.70868 0.0210792)
(121.166 -9.36935 -0.0938602)
(126.931 -5.89193 -0.0417511)
(155.372 -188.867 54.0616)
(-121.719 1.62781 19.2708)
(164.079 -19.5736 16.6816)
(82.8856 2.6752 6.04768)
(145.503 -9.37899 16.2749)
(117.599 -12.5808 6.53555)
(113.327 -13.8305 2.91302)
(109.026 -10.7544 0.411009)
(110.385 -15.0621 0.175095)
(117.706 -20.9657 0.57366)
(124.537 -26.6625 -0.347514)
(126.185 -26.4354 1.39592)
(123.601 -24.6364 2.80077)
(123.195 -14.7544 0.783119)
(120.399 -5.68212 0.859594)
(116.403 -6.92365 0.970159)
(115.779 -7.69534 1.28182)
(112.968 -8.25145 0.92938)
(114.019 -6.93872 0.202669)
(119.772 -3.19899 -0.307991)
(185.284 -156.981 -157.776)
(-39.086 -19.7259 21.6092)
(111.618 -64.2079 8.1865)
(29.4704 -15.2211 -0.264945)
(113.683 -19.1285 7.17257)
(64.089 -2.92799 -0.477029)
(107.999 -8.69076 2.90993)
(120.984 -13.6838 1.73984)
(128.216 -23.6152 -2.12717)
(130.746 -27.8577 -0.680375)
(130.367 -27.6577 0.878862)
(126.928 -25.3782 1.71617)
(118.988 -20.1008 3.33816)
(113.658 -13.3426 1.86541)
(110.44 -8.18892 1.1563)
(107.278 -6.4882 0.883023)
(106.933 -6.18119 0.485999)
(105.382 -5.81397 0.229702)
(107.13 -4.62131 -0.0167355)
(115.11 -1.84845 1.83482e-05)
(50.5483 46.7905 178.156)
(-13.8766 -31.615 21.986)
(153.031 -53.5795 7.78669)
(121.621 -27.3952 4.13305)
(179.543 -33.7218 6.29541)
(158.41 -36.4486 0.835546)
(167.772 -30.2353 0.130869)
(150.535 -21.3264 3.28449)
(144.866 -21.9085 0.743591)
(134.324 -22.9654 0.296758)
(131.031 -23.3268 0.307404)
(121.874 -18.8881 3.15162)
(115.253 -12.5521 4.56384)
(109.107 -9.01274 2.44674)
(105.996 -7.57908 0.618646)
(104.242 -7.44104 0.31509)
(103.727 -6.91173 0.196994)
(102.98 -6.43852 0.297032)
(105.049 -5.00031 0.282694)
(113.948 -2.23876 0.480413)
(138.531 -12.8866 -35.3758)
(104.318 -69.1354 3.48289)
(200.087 -104.767 23.337)
(155.66 -65.7783 12.893)
(184.837 -49.3628 10.2365)
(149.462 -35.5116 0.992827)
(154.134 -11.5208 -0.390855)
(142.606 -18.7335 -1.62291)
(143.586 -15.3868 -0.952984)
(134.903 -21.5976 0.161179)
(133.454 -15.5781 1.97236)
(124.254 -13.238 3.92657)
(119.633 -3.99444 3.68627)
(112.712 -5.43567 2.77714)
(109.464 -4.63493 1.27021)
(105.595 -5.57194 0.638388)
(104.884 -5.38054 0.349344)
(103.365 -5.36907 0.403739)
(105.265 -4.46196 0.489424)
(113.831 -2.38496 0.743336)
(267.601 32.7127 29.4851)
(238.84 -104.411 17.4981)
(281.845 -104.351 20.9724)
(226.098 -62.2816 9.18763)
(218.983 -19.8808 2.90601)
(176.922 -12.2832 -0.584457)
(176.031 0.138621 -0.110735)
(158.962 -5.27405 -0.053557)
(153.875 -5.31424 1.62506)
(138.335 -11.6871 1.11108)
(132.861 -7.14634 0.646092)
(120.424 -4.69752 0.341006)
(117.531 -0.323378 2.14376)
(112.409 -0.802382 1.70788)
(109.21 -1.68505 0.770843)
(105.304 -3.87229 -0.00943959)
(104.177 -5.00463 0.0250332)
(102.996 -5.204 0.201219)
(105.087 -4.52405 0.432593)
(113.625 -2.79367 0.769629)
(204.326 1.46968 -23.6988)
(103.635 -65.6544 10.2934)
(192.602 -49.2676 -6.12955)
(125.897 -29.313 -6.70733)
(156.648 -6.85081 -2.57022)
(129.126 -2.7225 -3.44275)
(145.598 6.62532 -0.517018)
(128.744 0.447748 -0.825934)
(131.851 3.0744 1.34502)
(117.34 -2.81085 0.81561)
(117.001 -0.209772 1.21714)
(109.804 -0.615501 -0.0168016)
(110.685 2.72337 0.0835147)
(108.17 1.87558 -0.017762)
(109.312 1.26771 -0.133405)
(107.451 -1.40639 -0.34246)
(107.704 -3.50005 -0.00993495)
(106.284 -4.70533 0.236528)
(108.301 -4.53472 0.472549)
(116.307 -3.09158 0.734689)
(193.474 -185.721 67.8911)
(99.2714 -119.278 14.9708)
(188.535 -70.8913 -4.4414)
(140.052 -42.8697 -5.3482)
(167.012 -15.6809 -3.37891)
(141.66 -8.70743 -3.12583)
(152.916 4.98294 -1.91709)
(134.399 3.98689 -1.67284)
(136.225 6.49973 1.69353)
(120.899 2.01906 1.78572)
(119.47 1.66396 2.63056)
(111.77 0.295196 0.851662)
(112.611 0.837735 -0.141545)
(110.549 -0.124144 -0.379935)
(112.202 -1.05777 -0.619214)
(111.277 -2.74908 -0.429056)
(112.088 -4.03489 -0.100285)
(111.17 -4.34176 0.352182)
(113.078 -4.0224 0.793925)
(120.112 -2.88583 0.670721)
(432.136 -142.778 14.8452)
(192.44 -84.3306 39.2127)
(196.888 -17.8298 33.6214)
(99.0356 -7.41692 7.64694)
(150.241 4.43755 0.766611)
(114.055 4.79632 -2.42328)
(140.873 13.5427 -1.5058)
(122.901 11.085 -1.29875)
(133.922 14.5745 2.07111)
(121.583 11.1719 1.88831)
(124.435 10.1799 2.24653)
(118.79 6.41297 0.573963)
(120.85 4.5918 -0.494714)
(119.391 2.48592 -0.872711)
(121.842 1.1674 -0.905143)
(121.368 -1.18909 -0.777938)
(122.485 -3.26677 -0.426868)
(121.582 -4.01135 -0.0346716)
(122.979 -2.99605 0.330261)
(128.973 -1.79492 0.341738)
(576.014 -70.9448 -61.4931)
(248.772 -66.2131 53.7182)
(223.305 -54.5433 15.7925)
(135.373 -30.6908 4.42773)
(155.024 -22.0996 0.651853)
(123.827 -8.51635 -2.54844)
(142.026 0.549932 -1.14274)
(126.504 5.66688 -0.437556)
(137.101 9.55287 1.83239)
(128.762 9.85258 1.69189)
(134.118 8.31631 1.21053)
(130.263 5.44318 -0.591008)
(132.72 2.77431 -1.46234)
(131.231 0.479239 -2.23143)
(132.919 -1.05835 -2.7649)
(131.871 -2.33305 -2.90142)
(132.681 -3.46124 -2.6095)
(132.845 -3.4129 -1.81523)
(134.903 -1.54481 -0.948826)
(142.694 -0.418584 -0.169145)
(229.315 115.209 -29.423)
(127.839 29.8969 6.62588)
(201.293 11.9449 1.96115)
(140.328 5.35497 -0.48871)
(165.735 12.8105 1.8364)
(134.403 10.0948 3.23942)
(151.844 13.5387 6.28243)
(138.118 13.4518 7.16321)
(151.251 15.3677 8.80088)
(149.047 15.2033 8.39624)
(158.94 14.6949 7.93655)
(160.676 12.4855 5.86331)
(167.559 10.9619 4.35424)
(169.321 9.95882 2.6071)
(174.676 9.61019 1.55096)
(177.022 6.9613 0.694483)
(178.671 1.52898 0.78424)
(174.819 -2.7613 1.02596)
(173.208 -3.07994 1.33305)
(178.287 -1.28441 1.4152)
(243.035 21.3183 -20.0208)
(125.954 5.3312 36.2223)
(236.804 -4.633 28.6383)
(161.572 9.2909 10.088)
(203.155 17.0633 10.8542)
(143.154 12.9777 0.996635)
(156.575 19.3863 6.06869)
(117.632 11.3825 2.4361)
(127.776 8.13257 6.3132)
(110.968 1.96124 4.90321)
(120.945 -1.31669 6.36381)
(117.484 -2.35096 6.0726)
(126.446 -2.36899 6.17224)
(127.757 -1.74751 4.79629)
(134.943 -1.1452 4.10872)
(136.967 -0.970957 2.74371)
(141.76 -0.82143 1.7339)
(144.552 -0.81412 1.05262)
(149.081 -0.8161 0.18961)
(160.921 -0.0208287 0.71145)
(290.865 -14.1476 -138.287)
(104.287 26.7822 -49.7276)
(184.843 -15.0683 -20.5585)
(61.8895 4.76329 -4.09309)
(150.144 2.25874 0.0393657)
(67.6299 5.60368 -6.78923)
(125.174 4.53546 -2.30067)
(84.8012 1.96097 -3.47486)
(114.042 -2.3706 -0.0289612)
(95.5546 -3.9534 -0.713239)
(108.894 -5.624 1.91697)
(102.719 -5.01175 1.28332)
(109.868 -4.83208 0.715715)
(107.913 -4.18891 -0.190263)
(111.646 -3.71092 -0.544855)
(111.48 -3.0784 -0.870482)
(113.553 -2.92118 -0.950812)
(114.167 -2.19255 -1.0048)
(117.402 -2.25988 -0.882198)
(126.873 -1.42752 -0.0579686)
(260.738 112.091 133.242)
(211.847 111.143 -14.7095)
(200.018 104.177 -18.5713)
(110.332 60.8182 5.88726)
(164.342 48.7238 16.013)
(101.578 29.7455 3.17762)
(134.135 19.6123 4.59533)
(97.562 14.2796 1.17228)
(115.514 5.41624 4.1071)
(97.8751 4.53162 3.06461)
(108.238 -0.0646407 3.26261)
(101.173 0.226091 1.78519)
(107.138 -1.99951 1.52518)
(104.372 -1.5668 0.810244)
(107.246 -2.37316 0.67436)
(106.26 -2.01656 0.391163)
(107.587 -2.54537 0.32954)
(107.561 -2.14992 0.378988)
(110.469 -2.50403 0.794331)
(119.486 -1.80629 1.4062)
(-94.1001 77.2553 -57.3284)
(-93.2513 45.5317 -21.7798)
(100.12 79.2654 -18.8728)
(9.00386 43.4058 5.08972)
(127.854 43.7192 -0.35828)
(49.6198 30.1094 2.61557)
(115.432 18.9891 2.77491)
(75.9182 16.2082 1.73249)
(106.229 5.43778 2.97927)
(89.112 3.52474 1.40441)
(102.204 -3.7846 2.32497)
(96.2885 -4.21466 1.47392)
(102.912 -5.75453 1.40851)
(100.833 -4.27731 0.762741)
(103.626 -4.15722 0.708197)
(102.663 -3.12302 0.498081)
(103.927 -3.33482 0.537194)
(103.72 -2.66507 0.556132)
(106.472 -2.81074 0.865323)
(114.86 -1.88049 1.28738)
(172.742 159.703 206.416)
(38.0658 61.8633 13.0746)
(160.483 75.0276 -4.95461)
(71.7797 50.6752 3.58229)
(147.971 37.7998 1.63131)
(85.8415 31.3054 -1.50812)
(126.047 11.5516 -0.80798)
(93.4232 18.3198 -2.88875)
(111.1 3.00128 -0.207373)
(95.4941 6.38633 0.232912)
(104.579 -2.76307 3.73153)
(99.4659 -0.819674 3.27855)
(104.675 -4.175 2.26671)
(102.055 -2.27383 0.79452)
(103.911 -3.26408 0.460367)
(102.27 -2.20079 0.182229)
(102.984 -2.80213 0.422569)
(102.473 -2.36892 0.559514)
(105.189 -2.8382 0.895381)
(113.524 -2.09961 1.22875)
(-105.097 247.985 2.06245)
(-133.666 49.006 -23.0181)
(87.3968 49.5395 -25.5287)
(-7.36181 32.7959 -2.65511)
(114.696 33.7868 -9.71574)
(33.104 32.2341 -3.07225)
(103.951 13.1897 -2.66337)
(68.6062 17.1832 -2.48435)
(92.8426 2.49557 0.219828)
(81.4294 3.58378 0.179649)
(92.2906 -3.65252 1.62352)
(90.0728 -2.64744 1.28879)
(95.746 -5.47377 0.860183)
(95.346 -4.16333 0.460196)
(97.7964 -4.4098 0.266312)
(97.9123 -3.10219 0.230758)
(99.2987 -3.3254 0.312962)
(99.5962 -2.81651 0.443755)
(102.76 -3.24595 0.726092)
(111.581 -2.3201 1.1663)
(267.872 -93.6912 128.561)
(-11.8333 -40.1741 -29.082)
(132.825 -11.6938 -23.0114)
(9.39404 5.22537 -2.97148)
(131.978 11.2322 -7.31123)
(53.4146 19.6203 -3.03919)
(101.365 -20.4363 -1.90714)
(71.5751 19.3995 -1.58399)
(91.6268 -10.6854 0.178802)
(82.7736 2.29242 1.48161)
(94.419 -10.739 2.42587)
(93.0316 -4.94403 2.5393)
(98.8632 -8.75883 1.66352)
(98.2634 -4.70215 1.25367)
(100.408 -6.02753 0.512733)
(99.5636 -4.49183 0.134094)
(100.795 -5.06653 0.150317)
(100.793 -4.29309 0.303007)
(104.226 -4.67947 0.746386)
(113.048 -3.306 1.20887)
(306.194 78.2565 90.9839)
(-68.1864 14.6325 -2.55255)
(95.6577 -27.4727 -3.33435)
(-36.4496 -8.74026 8.34782)
(114.418 -8.57302 -3.50656)
(28.853 38.6797 2.91451)
(83.3669 -4.65637 0.0557536)
(71.1017 5.22789 -1.32437)
(87.7174 -9.97509 0.375466)
(86.7557 -15.1494 2.80062)
(99.4045 -17.6845 2.63652)
(100.324 -17.4352 2.65819)
(104.483 -16.2645 1.91547)
(102.713 -14.6313 1.88986)
(101.902 -5.12535 1.03281)
(102.049 -4.73812 0.00900982)
(102.556 -5.35662 -0.237466)
(103.068 -5.36688 -0.0883194)
(106.294 -5.58721 0.354159)
(114.282 -3.62711 1.12882)
(147.078 -57.5281 -8.13969)
(5.90212 -35.5453 -16.0734)
(123.045 -55.5339 3.21453)
(12.3727 -32.2763 7.60919)
(114.133 -32.377 1.32668)
(63.992 -0.382079 3.42173)
(94.9556 -5.58326 1.29752)
(87.2637 -14.1394 2.41162)
(94.7238 -15.1894 3.39154)
(98.0609 -20.9853 4.04097)
(104.686 -20.834 3.86752)
(107.786 -18.9527 2.13405)
(109.63 -15.8491 1.13465)
(109.59 -13.5603 1.20369)
(108.88 -11.4597 1.20779)
(105.89 -6.49266 -0.131717)
(106.905 -7.79558 -0.328146)
(106.567 -7.77829 -0.0300517)
(109.611 -7.16038 0.452101)
(116.349 -3.92185 0.992992)
(218.191 36.1209 -84.37)
(-58.3673 6.02944 -22.6847)
(138.539 2.4882 -5.73583)
(-1.58772 -8.83983 15.7467)
(102.81 -25.7402 6.97995)
(35.9823 -5.2898 0.556655)
(80.2912 -0.0274697 1.25359)
(93.1404 -7.74934 0.435613)
(97.0692 -12.278 1.48145)
(99.8351 -16.3769 1.99059)
(101.991 -16.3262 1.06913)
(104.95 -15.7846 0.600009)
(109.478 -13.2434 1.19191)
(113.609 -8.45854 1.18368)
(113.432 -4.65827 0.888761)
(110.184 -6.65857 0.395382)
(109.717 -8.80391 0.328176)
(108.36 -8.33266 0.321808)
(110.335 -6.77909 0.348145)
(115.123 -2.58964 0.382487)
(128.931 -288.491 -121.371)
(-164.131 22.033 -8.81893)
(140.417 -7.22177 -22.2736)
(31.232 5.87563 2.84844)
(122.279 -13.8428 11.7381)
(88.4159 -17.4468 5.28514)
(94.179 -18.6602 4.18902)
(96.9196 -16.2659 0.888306)
(100.981 -18.1217 0.286033)
(103.376 -17.8923 -2.3543)
(110.126 -22.6 -2.73463)
(110.965 -20.392 1.16314)
(112.035 -16.3779 1.99369)
(114.594 -8.89284 0.548235)
(112.348 -5.58502 1.10612)
(106.897 -7.43936 1.39448)
(106.323 -7.19575 1.22341)
(104.072 -6.84335 0.799024)
(105.683 -4.56668 0.232991)
(110.727 -1.09319 0.11777)
(92.3765 -150.056 -92.0747)
(-96.2169 -15.3854 -5.72731)
(101.792 -65.5654 -7.01099)
(-0.977824 -14.5221 1.68847)
(102.273 -27.7758 4.35701)
(45.6613 -12.6627 -0.168927)
(93.5996 -21.0093 3.65928)
(107.859 -21.6924 1.88165)
(110.423 -23.7616 -1.37474)
(109.991 -22.8609 -0.464129)
(109.073 -21.1127 0.967086)
(106.369 -18.2779 2.24843)
(104.655 -14.0635 2.84249)
(106.301 -9.74519 1.17473)
(104.57 -7.22583 1.22637)
(100.331 -5.6682 1.16158)
(99.997 -5.06896 0.550346)
(98.4617 -4.40638 0.212191)
(100.416 -2.82661 0.0478219)
(107.596 -0.403875 0.445926)
(51.5282 -145.135 50.2265)
(-24.4912 -52.4831 -6.44564)
(137.649 -57.4541 -6.79733)
(92.3923 -25.9843 4.26093)
(155.562 -34.0169 6.03006)
(126.831 -37.9001 0.887592)
(136.838 -29.549 2.11166)
(117.506 -21.1374 3.08145)
(116.484 -20.797 0.395779)
(108.308 -19.6666 0.277728)
(107.529 -17.2502 0.884465)
(100.907 -12.7442 3.7899)
(101.809 -9.34047 4.14609)
(100.79 -7.65922 2.12253)
(98.5725 -6.61011 0.755086)
(97.1689 -6.3743 0.36906)
(96.8139 -5.60094 0.212666)
(96.2439 -4.9923 0.263987)
(98.5768 -3.35364 0.31208)
(106.972 -1.07671 0.862271)
(116.429 -23.5563 -139.973)
(45.8054 -102.932 18.5973)
(155.08 -100.28 30.1343)
(100.848 -52.2633 13.4409)
(152.528 -42.6918 10.2704)
(115.08 -31.6497 0.614882)
(125.929 -12.0277 0.662545)
(113.767 -23.1124 -0.923468)
(116.834 -15.9725 -0.268072)
(108.513 -19.8906 0.139912)
(108.46 -10.6223 1.63906)
(102.696 -8.7475 3.38505)
(103.092 -3.35485 3.02449)
(100.38 -4.78263 2.30131)