/*--------------------------------*- C++ -*----------------------------------*\
  =========                 |
  \\      /  F ield         | OpenFOAM: The Open Source CFD Toolbox
   \\    /   O peration     | Website:  https://openfoam.org
    \\  /    A nd           | Version:  10
     \\/     M anipulation  |
\*---------------------------------------------------------------------------*/
FoamFile
{
    format      ascii;
    class       volVectorField;
    location    "3.4";
    object      U_0;
}
// * * * * * * * * * * * * * * * * * * * * * * * * * * * * * * * * * * * * * //

dimensions      [0 1 -1 0 0 0 0];

internalField   nonuniform List<vector> 
12920
(
(118.899 54.6156 255.677)
(110.693 -19.1573 -18.8041)
(236.033 -25.7865 0.416173)
(160.687 -6.29851 -0.738318)
(208.46 11.1641 -4.03729)
(169.018 14.5883 -6.27275)
(175.885 27.2737 -3.97166)
(137.935 22.1586 -3.6203)
(133.777 13.1447 0.0253846)
(108.814 0.704412 -0.0214851)
(113.878 -5.99841 1.16572)
(107.668 -9.20555 1.9267)
(113.299 -10.3757 2.41391)
(112.83 -9.95253 2.31119)
(117.397 -9.69424 2.16531)
(119.526 -8.31438 1.68936)
(124.106 -8.46663 1.34107)
(129.393 -7.00051 0.740246)
(135.132 -6.59246 0.255115)
(145.269 -5.97783 0.343944)
(204.856 -72.1253 -195.449)
(228.084 -38.8738 -60.352)
(295.461 -53.044 9.8416)
(154.781 -16.0437 11.1541)
(167.639 -1.70685 5.48661)
(112.144 13.9557 -0.823048)
(142.377 19.6769 1.47723)
(119.586 17.1217 -0.708626)
(138.789 12.3731 -0.13298)
(128.013 8.53215 -0.781814)
(130.552 -2.50966 1.85761)
(115.382 -8.06616 1.94685)
(114.078 -11.4409 1.38378)
(108.705 -11.5907 0.753157)
(110.114 -11.2776 0.42221)
(109.138 -9.89 0.253261)
(110.997 -9.04268 -0.0758383)
(112.058 -6.77177 -0.130198)
(116.043 -5.48229 -0.309533)
(122.6 -3.57425 -0.378179)
(260.301 60.7001 -106.301)
(337.475 41.5172 -52.7677)
(375.486 81.3037 -16.1836)
(273.224 68.6103 4.60115)
(221.341 60.2625 13.7815)
(144.356 37.6002 3.91415)
(156.842 31.1221 2.61354)
(131.552 22.8375 1.58014)
(136.992 12.3218 2.97804)
(119.704 6.49348 2.77786)
(121.024 -1.05603 2.40586)
(111.953 -4.67313 1.3675)
(114.093 -8.99347 1.00266)
(110.643 -9.76037 0.67478)
(111.775 -10.3679 0.610952)
(109.844 -9.35245 0.502159)
(109.943 -8.97932 0.416671)
(109.221 -7.81137 0.330801)
(111.718 -7.78374 0.345647)
(116.824 -6.70111 0.365911)
(81.9907 127.142 131.737)
(-24.4745 31.1328 -6.57749)
(159.445 79.0153 2.35758)
(46.17 48.3488 3.93175)
(141.61 48.7844 2.74772)
(82.2582 30.0343 1.02264)
(130.723 21.3504 2.57332)
(106.013 16.8785 1.44752)
(126.01 8.28281 2.17128)
(112.743 3.15613 1.13425)
(118.936 -7.92089 1.44326)
(110.6 -12.5079 0.856893)
(112.849 -15.4123 0.832113)
(110.004 -14.6063 0.375113)
(111.225 -13.5638 0.392573)
(109.026 -11.3019 0.367087)
(108.593 -9.97319 0.496435)
(106.318 -8.06035 0.348121)
(108.086 -7.92484 0.213535)
(111.961 -7.0376 0.126183)
(211.819 -91.2008 88.6069)
(117.161 30.3145 44.5637)
(183.957 66.4899 14.0021)
(109.468 45.359 3.72596)
(168.165 31.394 1.21037)
(127.423 22.3704 -2.07745)
(156.43 6.9318 -2.16253)
(142.677 9.71526 -3.1294)
(157.14 1.5013 -2.04112)
(150.032 3.96192 -1.14044)
(147.594 -3.67934 2.42782)
(125.331 -4.69865 3.0506)
(118.19 -11.8117 1.51573)
(111.307 -10.938 0.308775)
(111.459 -11.3797 0.00881379)
(109.162 -9.28152 -0.0392142)
(108.08 -8.4508 0.255419)
(105.166 -6.93778 0.328541)
(106.7 -7.62004 0.167134)
(110.33 -7.42836 0.0276415)
(154.901 -321.077 -232.707)
(-188.613 10.3094 32.6077)
(123.141 41.8157 -11.1385)
(15.3846 20.7819 0.457908)
(127.743 25.3107 -4.14047)
(60.9114 28.6764 -3.40884)
(117.26 22.0103 -2.691)
(94.6911 20.6951 -2.86931)
(110.383 11.7426 -1.51183)
(99.7129 8.73875 -0.892147)
(104.068 1.17721 0.256871)
(97.7671 -4.36747 0.47355)
(100.999 -11.2283 0.119395)
(99.6512 -11.9788 0.0498522)
(101.073 -11.6882 -0.0499893)
(100.052 -8.74361 -0.116725)
(100.247 -7.09745 -0.108691)
(99.9412 -6.21271 -0.0211594)
(102.629 -6.9999 -0.0578646)
(107.667 -7.06578 -0.0800392)
(-164.166 -133.226 -0.699323)
(-139.71 4.00756 -36.6991)
(139.261 -7.22634 -19.1177)
(35.2095 18.2831 1.00466)
(139.213 23.8905 0.288674)
(83.1089 33.6438 -2.43743)
(120.875 0.769969 -0.973134)
(102.336 25.9029 -1.15095)
(115.745 5.99156 -0.203953)
(106.289 10.3769 0.44237)
(110.881 -3.10667 1.52239)
(106.433 -4.84594 1.46336)
(107.895 -13.2014 0.819567)
(104.288 -10.8418 0.628794)
(103.004 -11.3658 0.297759)
(99.6424 -8.09903 -0.0697856)
(99.6518 -7.58988 -0.162944)
(99.7833 -6.79918 -0.204045)
(103.601 -8.01778 -0.170388)
(110.026 -8.30858 -0.139286)
(-110.271 -91.1512 -129.556)
(-153.989 -28.3983 -37.8756)
(113.148 -46.4531 -9.32758)
(-10.0586 -10.628 6.07174)
(116.662 -8.66746 2.65226)
(47.1009 41.9945 0.903854)
(95.6226 21.2222 -1.21669)
(83.1135 11.3392 -1.02923)
(104.391 14.4311 -1.14854)
(98.145 3.15303 -0.31983)
(109.769 -3.53137 0.161836)
(113.278 -15.2355 0.371834)
(117.058 -18.3346 0.555729)
(113.037 -18.7253 1.03158)
(103.805 -8.07396 1.02566)
(99.8443 -5.5998 0.100279)
(99.0749 -5.83331 -0.43506)
(100.54 -6.66282 -0.529526)
(106.984 -9.58848 -0.638379)
(113.885 -9.35076 -0.319339)
(233.891 22.5116 -51.9241)
(162.901 -33.6227 -32.9683)
(156.452 -73.2293 -0.111053)
(64.0626 -38.1599 3.90864)
(121.323 -34.8378 5.34966)
(71.5965 2.57797 -0.566832)
(111.857 11.4897 0.0851148)
(95.8179 0.548848 0.237953)
(104.061 4.59961 0.157867)
(106.076 -10.0764 0.24797)
(111.191 -24.095 0.702156)
(111.675 -28.5065 0.570885)
(116.61 -24.3586 0.106403)
(122.044 -17.7474 0.206994)
(115.592 -11.2095 1.02705)
(103.95 -3.37808 0.0534225)
(104.998 -5.36027 -0.59581)
(107.001 -9.01886 -0.648613)
(112.793 -11.4493 -0.611001)
(117.85 -10.2367 -0.245852)
(227.445 308.947 -88.273)
(221.334 168.918 -44.4989)
(224.231 10.894 27.1084)
(75.9462 -9.60501 15.5374)
(111.109 -22.1909 10.4356)
(41.2816 2.53829 -0.666654)
(82.4156 7.89733 -0.126177)
(94.9804 1.91024 -0.320155)
(100.324 -1.79289 -0.323916)
(105.828 -13.7282 0.360906)
(96.6912 -19.9807 0.086409)
(99.5073 -23.6579 -0.199341)
(107.066 -26.2659 -0.0321533)
(112.678 -22.5222 0.718373)
(112.035 -6.00741 0.115083)
(109.743 -0.931525 0.001858)
(111.119 -4.8154 0.0310211)
(111.047 -8.64348 -0.0365544)
(113.81 -10.7641 -0.261137)
(116.775 -9.62124 -0.331734)
(113.314 -139.093 12.0029)
(79.327 -57.0321 9.79873)
(223.046 -52.6117 6.98605)
(155.323 -25.8106 2.83389)
(168.286 -19.2259 11.2456)
(97.6425 -9.09463 -0.793042)
(96.4794 -3.48259 -0.0286874)
(98.2498 -1.1001 -0.575381)
(95.8635 -5.18946 -0.00626948)
(104.585 -15.1782 0.0227554)
(123.545 -26.4937 -0.169799)
(128.931 -31.1877 0.230368)
(124.489 -29.5493 0.566425)
(113.983 -25.4153 -0.0216503)
(107.23 -7.12546 0.150169)
(105.226 -4.82127 0.663346)
(105.121 -6.83908 1.00205)
(101.684 -8.89926 0.823096)
(102.012 -8.98728 0.0930603)
(104.602 -6.66585 -0.433707)
(252.202 -284.639 -301.818)
(80.0063 -79.9558 -48.6713)
(139.131 -51.6437 -3.28748)
(63.246 -9.30393 -4.01325)
(113.608 -7.57614 1.88269)
(57.0627 5.24535 1.33646)
(86.2397 -1.06713 2.19256)
(95.9133 1.82607 0.406137)
(119.036 -14.4922 -0.430556)
(134.27 -28.9198 -0.208073)
(134.906 -35.0297 0.168975)
(132.491 -34.3306 0.176984)
(126.412 -27.4902 0.465539)
(104.254 -17.8486 0.612846)
(95.5983 -9.1048 0.313482)
(93.5782 -6.80986 0.536887)
(93.865 -7.08329 0.300741)
(92.9655 -7.32511 0.149199)
(94.8918 -6.87483 -0.101321)
(99.4108 -4.60293 -0.353128)
(201.504 41.8432 -131.107)
(91.7725 20.5516 5.71435)
(173.94 -21.2905 14.1889)
(141.427 -9.13702 4.13822)
(190.498 -18.6461 2.70651)
(180.398 -25.0448 -0.8055)
(190.028 -24.7684 -1.96345)
(175.167 -22.7659 -0.930402)
(166.193 -19.0792 -0.47467)
(149.147 -22.7744 0.504264)
(139.864 -30.8942 0.297867)
(130.322 -29.2618 0.6394)
(114.984 -17.8582 1.09492)
(100.113 -9.84208 0.77607)
(94.3362 -7.94539 0.392541)
(92.3665 -8.14746 0.177511)
(91.9918 -8.27356 0.0720293)
(91.4747 -8.22633 0.10579)
(93.6116 -7.19811 0.0255394)
(98.4057 -4.4458 -0.103626)
(176.628 -121.476 103.199)
(151.278 -90.9598 24.9155)
(195.726 -115.416 6.69929)
(155.327 -76.3572 3.58353)
(186.379 -52.1057 4.63274)
(158.648 -35.4935 1.32119)
(165.549 -6.52121 -0.673436)
(159.496 -8.18673 -2.22416)
(163.677 -6.40152 -1.81301)
(156.429 -18.196 -0.623238)
(150.636 -18.8559 0.950449)
(135.358 -20.3173 2.03965)
(123.765 -6.27116 2.35421)
(108.37 -6.56107 1.76599)
(102.296 -4.93396 0.629492)
(96.6236 -6.49113 0.290805)
(95.2488 -6.66074 0.130593)
(93.3491 -7.12701 0.12567)
(94.9673 -6.51204 0.126594)
(98.6991 -4.34435 0.0424615)
(400.181 38.1822 22.92)
(359.257 -50.5028 8.57538)
(305.045 -83.6137 8.43739)
(219.38 -70.3765 1.3104)
(219.337 -36.0729 0.252755)
(180.861 -19.4524 0.0080798)
(184.129 -0.0903061 0.0833614)
(173.866 0.346316 0.0539164)
(170.921 -0.88046 0.944701)
(155.81 -9.07528 0.883117)
(146.843 -10.6945 -0.137302)
(132.933 -11.3755 -0.542846)
(124.44 -2.87714 1.29557)
(110.935 -1.40504 1.19997)
(103.143 -1.41261 0.321525)
(96.9193 -3.91525 -0.174701)
(94.6034 -5.83291 -0.126453)
(92.964 -6.43111 -0.0652901)
(94.7978 -5.93775 0.0196651)
(98.3726 -4.21624 0.00956274)
(112.763 96.8391 -27.7047)
(56.0087 -51.2916 -12.3573)
(166.817 -45.8257 -8.60807)
(112.564 -37.0897 -7.27433)
(149.406 -18.614 -4.93659)
(131.247 -11.4523 -3.58463)
(149.827 1.17934 -1.33834)
(139.706 -0.808845 -0.698929)
(140.662 3.56989 0.830636)
(123.838 -2.24945 0.705489)
(117.972 0.704941 0.565751)
(105.39 0.477616 -0.467531)
(104.855 5.44106 -0.261829)
(100.908 5.20562 -0.134556)
(101.194 5.07016 -0.218389)
(98.8557 1.69051 -0.378526)
(98.9776 -2.23484 -0.150382)
(96.8147 -4.81219 -0.029055)
(98.4238 -5.16617 0.0664039)
(101.456 -4.00277 0.0117065)
(147.408 -175.418 -38.4445)
(101.854 -96.9025 -29.4165)
(181.162 -60.8064 -9.92929)
(140.732 -41.4459 -4.15239)
(164.898 -18.7055 -2.38259)
(146.269 -11.3166 -2.27795)
(158.407 3.65586 -1.81107)
(147.657 6.46328 -1.57448)
(147.899 10.4922 0.727819)
(129.692 6.26262 1.41992)
(117.64 3.77848 2.24234)
(102.002 1.42916 0.824353)
(102.252 2.83858 -0.0554691)
(100.092 2.47752 -0.187472)
(101.979 1.93652 -0.380874)
(102.715 -0.587741 -0.297742)
(104.7 -3.11538 -0.0984695)
(103.797 -3.77323 0.1563)
(104.457 -4.29435 0.375348)
(105.097 -3.48885 0.046366)
(233.66 -72.1403 45.4431)
(122.561 -67.3118 -1.43369)
(179.565 -16.0741 2.74034)
(92.7147 -10.8848 1.73874)
(143.909 -2.12062 -0.461258)
(118.037 -0.474159 -2.03929)
(145.202 9.91932 -1.76736)
(135.712 11.8762 -1.55898)
(144.024 18.0268 0.550263)
(129.069 17.5346 1.25084)
(123.115 16.6778 1.92045)
(108.938 10.4878 0.587505)
(109.758 8.86807 -0.183385)
(107.889 6.63917 -0.315669)
(111.218 5.07048 -0.341661)
(112.125 0.662842 -0.329798)
(114.334 -2.41945 -0.258586)
(114.038 -3.53043 -0.148829)
(115.735 -2.61443 -0.078256)
(115.135 -1.05528 -0.152254)
(355.164 -90.1365 -125.272)
(187.185 -111.192 -1.59375)
(209.694 -85.4862 -5.85215)
(138.445 -47.8454 -5.39379)
(152.246 -30.0525 -2.73286)
(124.773 -10.2934 -2.50321)
(141.245 2.01149 -1.66344)
(129.107 10.4063 -1.00183)
(135.989 16.3959 0.817701)
(123.42 17.767 1.43634)
(123.507 16.4239 1.5164)
(114.774 11.9855 0.409817)
(116.09 7.29749 -0.168438)
(112.71 3.71934 -0.525805)
(114.903 1.00414 -0.803013)
(113.213 -1.2253 -1.15112)
(113.95 -2.88711 -1.43787)
(115.303 -2.5049 -1.33852)
(119.254 0.312557 -0.898455)
(123.376 1.65418 -0.421055)
(348.358 -36.3689 -67.7752)
(199.563 -1.93027 8.49953)
(208.224 32.5542 17.1504)
(126.034 26.7457 5.05528)
(153.145 26.43 1.64211)
(125.1 17.9382 2.05207)
(142.089 18.7158 3.45681)
(127.156 17.9509 4.03149)
(137.907 19.714 4.82229)
(132.794 19.6568 4.77838)
(139.744 19.3238 4.35147)
(139.521 17.1108 3.43277)
(144.195 15.4308 2.54518)
(145.634 13.9795 1.44804)
(151.044 13.5298 1.0025)
(153.956 11.2121 0.790217)
(156.881 5.88224 0.580687)
(153.872 0.957137 0.57661)
(152.843 -0.622184 0.521069)
(153.368 0.13132 0.46827)
(368.099 -295.527 53.9956)
(175.062 -78.1491 12.9826)
(248.896 -36.0571 13.1246)
(172.26 -14.0987 8.39699)
(207.894 2.53298 6.53698)
(157.142 2.6979 -0.725323)
(161.373 14.753 2.8473)
(120.292 10.283 0.0961908)
(120.694 8.03891 3.45159)
(100.961 0.418229 2.35177)
(107.375 -4.86795 3.98826)
(102.603 -7.01626 4.42592)
(110.019 -7.55914 4.94097)
(110.67 -6.5863 4.29776)
(116.976 -5.85885 3.91687)
(119.422 -5.09705 2.81163)
(124.987 -4.45485 2.13791)
(129.322 -3.91376 1.27114)
(134.559 -3.99321 0.49927)
(143.5 -3.05924 0.603231)
(339.769 145.697 -40.9128)
(121.875 55.2602 -18.8432)
(198.315 -14.0288 1.10993)
(84.8552 0.903825 0.725242)
(145.303 0.639597 4.20011)
(72.6873 6.61508 -4.22791)
(118.597 8.53916 0.672504)
(86.2544 5.24273 -2.01608)
(110.698 0.655939 0.769413)
(95.197 -3.2531 0.0950097)
(104.4 -6.90941 2.97905)
(96.7182 -7.68522 2.13189)
(101.163 -8.0118 1.56478)
(98.5164 -7.3305 0.545372)
(101.553 -6.75362 0.0722118)
(101.446 -5.67844 -0.312982)
(103.759 -5.28551 -0.585261)
(105.041 -4.08995 -0.666126)
(108.844 -3.85411 -0.914966)
(114.635 -2.77767 -0.771485)
(349.96 93.3473 10.8988)
(263.584 108.461 -29.1829)
(246.618 106.026 -7.49729)
(157.654 67.8326 13.8491)
(175.576 54.513 21.3292)
(116.268 32.8448 5.86097)
(134.924 23.6156 5.35371)
(103.953 16.1955 2.22362)
(114.882 6.85617 5.01708)
(97.5353 3.61846 3.77215)
(103.336 -1.6729 3.66029)
(95.7249 -2.51642 2.00348)
(100.015 -5.04119 1.62573)
(97.1782 -4.7191 0.978737)
(99.3939 -5.24642 0.838198)
(98.2794 -4.59331 0.569618)
(99.3402 -4.87594 0.428469)
(99.5279 -4.281 0.323449)
(102.583 -4.59987 0.356306)
(108.085 -3.76547 0.40585)
(48.2814 166.085 -66.4158)
(-109.081 56.6646 -18.8482)
(127.68 84.2843 -2.41841)
(13.2925 45.118 9.206)
(127.469 47.107 4.43664)
(55.5984 30.8998 2.97133)
(112.279 21.4078 4.21596)
(78.9754 17.1164 2.22294)
(103.786 7.13998 3.69774)
(88.2906 3.02089 1.71345)
(97.9495 -5.7893 2.36798)
(91.7976 -7.88902 1.28456)
(96.7561 -9.56173 1.37006)
(94.4718 -8.00286 0.671275)
(96.6451 -7.3324 0.686284)
(95.272 -5.77676 0.524562)
(96.0731 -5.56351 0.579093)
(95.6606 -4.70825 0.432482)
(98.2734 -4.75378 0.307649)
(102.979 -3.77807 0.161612)
(83.3642 115.899 162.339)
(7.90843 77.1398 -9.76754)
(157.891 75.4895 -4.93738)
(76.7114 50.2377 2.1779)
(148.137 35.7403 2.74769)
(94.4137 28.7137 -1.52015)
(126.757 11.1216 -0.630245)
(101.681 16.1268 -2.94192)
(115.841 4.04778 -0.404295)
(102.906 5.52167 0.142602)
(107.329 -3.29786 4.42756)
(98.8297 -3.28201 3.88962)
(99.9622 -6.9765 2.51923)
(95.9984 -5.4413 0.838029)
(96.8064 -5.89228 0.321727)
(94.7801 -4.41642 0.0832411)
(94.9104 -4.59996 0.362747)
(94.1422 -4.07621 0.419267)
(96.6698 -4.60667 0.300082)
(101.288 -4.04413 0.0838547)
(-194.163 287.121 -81.6177)
(-200.691 63.9131 1.89709)
(81.7775 49.8901 -24.2483)
(-9.23035 29.6106 -2.3909)
(111.858 29.9898 -8.24484)
(35.3545 30.4894 -3.2863)
(98.1056 17.108 -2.02006)
(68.1415 17.7769 -2.49741)
(87.9398 5.29403 -0.103961)
(77.3166 3.65556 0.0423355)
(85.6176 -3.4908 1.48843)
(83.0719 -4.43407 1.11003)
(87.5686 -7.7895 0.478588)
(86.8743 -7.07432 0.225406)
(88.9838 -6.76319 0.0723511)
(88.7787 -4.85186 -0.0258485)
(89.8292 -4.64326 0.041331)
(90.1861 -4.12118 0.121001)
(93.4156 -4.69864 0.0383493)
(98.8682 -4.11465 -0.0341998)
(-36.4232 -109.412 166.678)
(-125.629 -6.77917 -80.6194)
(104.332 -6.48006 -26.9018)
(-2.33425 11.6163 -1.15585)
(122.619 14.7356 -3.63492)
(54.1673 23.6545 -3.78045)
(96.9477 -13.0518 -1.06676)
(71.834 20.1756 -1.06769)
(88.6099 -4.86039 0.676343)
(80.5324 3.51756 1.59211)
(90.0783 -9.41665 2.79195)
(88.197 -6.4244 2.32074)
(92.154 -10.7734 1.32851)
(90.3682 -6.96266 0.90968)
(91.4484 -7.86276 0.406878)
(89.8984 -5.85116 -0.0465689)
(90.7617 -6.14917 -0.0847266)
(91.0778 -5.43926 -0.0999443)
(94.8813 -6.13969 -0.00848872)
(100.549 -5.31928 0.00185973)
(154.031 -37.9416 167.089)
(-126.039 1.54703 -54.6428)
(77.6484 -26.9684 -5.63059)
(-47.0915 -9.46848 9.56988)
(104.74 -9.89855 1.06019)
(25.6756 39.2086 2.55641)
(79.1401 8.63676 0.413554)
(66.4208 8.34693 -0.385258)
(85.0216 2.13452 0.482691)
(82.2957 -8.49847 2.44278)
(95.7725 -12.9584 2.53758)
(97.2893 -16.3116 2.09684)
(100.047 -15.7889 1.60161)
(96.4851 -14.3607 1.9565)
(92.4463 -5.78181 0.823745)
(92.0458 -5.14207 -0.155403)
(92.1512 -5.80822 -0.594402)
(93.504 -6.45787 -0.60406)
(97.8622 -7.49653 -0.569612)
(102.72 -6.05691 -0.168081)
(238.896 34.3151 -24.9352)
(53.9825 22.7497 -22.002)
(115.832 -44.6821 8.23575)
(11.8675 -34.387 7.13808)
(103.144 -34.2992 5.52869)
(60.58 -1.87543 2.46693)
(95.9038 3.14839 1.2572)
(84.7166 -5.70958 3.1175)
(92.5563 -5.1076 4.65193)
(94.1955 -15.4623 4.18952)
(100.124 -20.6348 4.28538)
(103.151 -20.7039 2.21474)
(105.533 -16.8029 0.737714)
(105.011 -13.4872 0.777046)
(100.622 -8.41712 1.66009)
(96.3902 -5.35667 -0.47964)
(98.0664 -7.66116 -0.923123)
(98.5763 -9.07009 -0.680654)
(102.251 -9.378 -0.591313)
(105.751 -6.85548 -0.186094)
(154.475 85.246 76.1414)
(-75.5447 18.3632 37.8103)
(135.321 -7.75555 34.3697)
(6.00299 -10.8218 14.6135)
(96.3501 -25.6437 11.2852)
(30.207 -4.70389 0.0373957)
(72.7473 2.3612 0.699535)
(85.8461 -2.93279 0.197268)
(89.4457 -6.9269 0.622653)
(92.0119 -15.5443 1.903)
(91.6881 -18.7818 0.977818)
(94.209 -20.1127 0.0981431)
(99.1355 -18.8185 0.891478)
(104.323 -12.1509 1.60212)
(104.12 -3.51235 0.883022)
(102.146 -4.44367 -0.184631)
(102.224 -8.28714 -0.00095731)
(101.043 -9.38541 -0.106592)
(103.241 -9.16849 -0.436807)
(104.83 -5.82918 -0.693751)
(135.011 -206.927 46.0197)
(-124.823 -9.37072 16.4353)
(144.308 -24.5566 15.906)
(65.3377 0.0319975 5.38086)
(127.354 -10.6026 16.0175)
(98.2427 -12.8734 6.02597)
(93.6083 -12.9808 2.69465)
(89.8945 -10.0588 0.440358)
(91.4029 -14.361 0.358589)
(98.9112 -20.1322 0.812153)
(105.699 -25.7153 -0.220304)
(107.349 -25.4098 1.33327)
(104.821 -23.6514 2.74421)
(104.33 -13.7059 0.706358)
(101.548 -5.01039 0.855552)
(97.525 -6.43944 1.0048)
(96.9986 -7.28773 1.26225)
(94.5003 -7.98872 0.816981)
(95.8923 -6.80612 -0.151055)
(97.6093 -3.2168 -0.907373)
(193.088 -157.782 -206.288)
(-43.0177 -28.2325 12.2955)
(96.3083 -65.484 7.19767)
(11.4673 -14.7705 -1.54592)
(95.568 -18.3894 7.08737)
(45.0115 -2.64206 -0.701232)
(89.8045 -8.74179 2.82968)
(102.264 -12.8682 1.72963)
(109.456 -22.7318 -1.98943)
(111.938 -26.839 -0.540274)
(111.517 -26.6605 0.923798)
(107.993 -24.3534 1.72464)
(99.9475 -19.1036 3.27232)
(94.6163 -12.425 1.67264)
(91.5013 -7.50479 1.12538)
(88.1952 -5.83398 0.891986)
(88.0439 -5.77539 0.463363)
(86.7636 -5.55762 0.125751)
(88.8463 -4.50123 -0.354274)
(92.9643 -1.8671 -0.620552)
(53.6179 64.8759 132.862)
(-15.9481 -27.7343 18.5583)
(142.741 -51.0594 5.87068)
(106.184 -24.4677 3.67442)
(162.223 -31.5107 6.23475)
(140.01 -34.3109 0.978034)
(148.828 -28.6211 0.451141)
(131.314 -19.953 3.4403)
(125.604 -20.867 0.719298)
(115.085 -22.106 0.264279)
(111.843 -22.3939 0.279199)
(102.585 -17.926 3.09987)
(96.0084 -11.5968 4.36037)
(89.9159 -8.16553 2.29907)
(86.6062 -6.80923 0.605661)
(85.0649 -6.83899 0.315639)
(84.5998 -6.51775 0.163835)
(84.2046 -6.175 0.168471)
(86.6292 -4.83256 -0.0885775)
(91.7611 -2.1888 -0.152636)
(126.287 23.7801 -25.0352)
(87.4687 -52.4396 9.18197)
(182.732 -96.338 23.5203)
(136.573 -61.0727 12.7381)
(165.867 -45.7262 10.2025)
(130.199 -32.9848 0.957031)
(134.767 -9.87919 -0.423877)
(123.112 -17.7745 -1.81463)
(124.222 -14.5029 -0.924532)
(115.568 -20.9306 0.229371)
(114.182 -14.7304 2.07984)
(104.944 -12.4191 3.9512)
(100.309 -3.3176 3.66366)
(93.2586 -4.9139 2.6861)
(90 -4.08848 1.20262)
(86.2345 -5.14847 0.59636)
(85.6267 -5.04116 0.293693)
(84.4796 -5.10416 0.253715)
(86.7352 -4.2535 0.116084)
(91.5323 -2.27814 0.118445)
(266.963 70.6231 16.002)
(219.112 -90.6301 15.3273)
(260.133 -97.7626 19.7966)
(204.671 -57.4963 8.78932)
(198.533 -17.3362 3.30319)
(156.469 -11.2713 -0.255939)
(155.982 0.420719 0.0576651)
(139.064 -5.27099 0.0489532)
(134.137 -5.2949 1.69051)
(118.626 -11.4478 1.09557)
(113.325 -6.79281 0.647441)
(100.957 -4.35823 0.351149)
(98.1202 -0.179473 2.08789)
(92.9644 -0.704493 1.61413)
(89.7336 -1.53501 0.691116)
(85.8948 -3.67922 -0.0747655)
(84.8736 -4.7676 -0.0569231)
(84.0611 -4.94359 0.0215839)
(86.4788 -4.27064 0.057499)
(91.1585 -2.62259 0.157314)
(181.64 20.2121 -76.9929)
(56.6518 -58.7479 1.28924)
(159.292 -45.9472 -6.58546)
(101.082 -28.3644 -7.00515)
(135.758 -7.17275 -2.45854)
(108.601 -3.97496 -3.49039)
(125.978 5.52671 -0.495676)
(109.139 -0.796007 -0.602995)
(112.67 2.13284 1.6039)
(98.1001 -3.54551 0.849419)
(97.7568 -0.633106 1.11881)
(90.4167 -0.928324 -0.163651)
(91.3667 2.52603 0.0947582)
(88.9118 1.71171 0.00452775)
(90.0949 1.21217 -0.111243)
(88.2008 -1.37903 -0.356655)
(88.4918 -3.34599 -0.072432)
(87.3798 -4.45417 0.0654379)
(89.6576 -4.24164 0.122533)
(93.6083 -2.84696 0.142136)
(180.335 -210.538 69.5404)
(63.2033 -130.606 15.1547)
(158.373 -74.0716 -5.69161)
(115.428 -45.1573 -5.71688)
(145.824 -17.2956 -3.6225)
(120.974 -10.6423 -3.1643)
(133.386 3.7252 -1.73715)
(114.88 2.72392 -1.27802)
(117.177 5.51569 1.98918)
(101.662 1.03653 2.11912)
(100.368 0.921183 2.74359)
(92.5902 -0.263983 0.926883)
(93.5111 0.523994 -0.0993848)
(91.4193 -0.304933 -0.34701)
(93.1152 -1.12731 -0.580985)
(92.1609 -2.72674 -0.393532)
(93.0076 -3.87953 -0.131023)
(92.3501 -4.06908 0.224153)
(94.4272 -3.68451 0.495254)
(97.116 -2.58079 0.0998898)
(418.61 -178.745 12.2051)
(152.551 -99.4427 41.764)
(170.981 -25.871 33.0313)
(74.9769 -12.9487 7.35333)
(130.373 1.16223 0.554045)
(94.0127 2.09291 -2.51209)
(122.263 11.9955 -1.40951)
(103.82 9.93311 -1.20924)
(115.266 13.8185 2.16232)
(102.693 10.5386 1.86858)
(105.619 9.65916 2.17264)
(99.8523 6.00494 0.510503)
(101.95 4.33477 -0.511569)
(100.441 2.36419 -0.865083)
(102.883 1.12857 -0.866171)
(102.371 -1.16976 -0.730201)
(103.512 -3.14369 -0.441273)
(102.85 -3.75044 -0.15801)
(104.344 -2.62038 0.0650562)
(105.647 -1.40246 -0.14458)
(527.331 -95.9329 -51.417)
(216.593 -89.8124 45.5756)
(202.498 -66.6443 12.3816)
(116.055 -36.7898 2.63351)
(136.594 -25.1263 -0.17018)
(104.774 -10.3148 -2.62107)
(124.154 -0.294778 -1.10726)
(107.948 5.1325 -0.503075)
(118.792 9.26722 1.78451)
(110.079 9.59656 1.59592)
(115.463 8.06898 1.10078)
(111.438 5.22602 -0.674236)
(113.903 2.62672 -1.50397)
(112.339 0.417356 -2.23554)
(113.991 -1.05896 -2.73246)
(112.922 -2.29481 -2.87144)
(113.802 -3.34814 -2.60405)
(114.213 -3.18458 -1.85765)
(116.368 -1.1957 -1.05094)
(119.001 -0.0229336 -0.477738)
(223.904 97.2679 -61.8885)
(118.872 14.4394 -0.747673)
(194.111 4.52315 0.594198)
(126.155 2.18891 -0.750464)
(149.713 11.4529 1.84206)
(116.455 9.34273 3.36962)
(134.468 13.2901 6.30668)
(119.736 13.3088 7.15198)
(133.066 15.2574 8.78427)
(130.545 15.0923 8.35207)
(140.452 14.551 7.87275)
(142.044 12.3765 5.79876)
(148.877 10.8867 4.32652)
(150.552 9.93037 2.60605)
(155.868 9.57611 1.56827)
(158.173 6.87379 0.728933)
(159.802 1.45065 0.797639)
(156.16 -2.7294 0.985922)
(154.635 -2.95489 1.22726)
(154.337 -1.07383 1.25978)
(235.043 24.2469 -26.846)
(103.552 1.33384 38.3828)
(219.51 -6.1364 27.2913)
(141.115 8.81942 8.7452)
(186.086 17.177 10.9154)
(124.328 12.8228 0.771708)
(137.902 19.4025 6.33881)
(98.2759 11.2269 2.31943)
(108.343 7.93605 6.24212)
(91.448 1.8483 4.77198)
(101.774 -1.32674 6.2815)
(98.6486 -2.28048 5.96626)
(107.984 -2.26926 6.10292)
(109.489 -1.67046 4.74217)
(116.842 -1.07341 4.08118)
(119.004 -0.931599 2.73685)
(124.008 -0.824246 1.72925)
(127.229 -0.884126 1.0062)
(132.013 -0.959623 -0.0275309)
(139.052 -0.274779 0.239677)
(250.885 -20.4473 -163.302)
(78.7055 16.8762 -50.1063)
(170.114 -17.4419 -18.1592)
(42.4673 4.72749 -4.7028)
(134.234 2.97319 -0.293431)
(48.9427 6.18189 -6.78249)
(107.072 4.99686 -2.20414)
(65.6041 2.14529 -3.41324)
(94.8667 -2.14075 -0.0188074)
(76.2262 -3.63225 -0.7093)
(89.8427 -5.26086 1.8058)
(83.8921 -4.63274 1.13674)
(91.3568 -4.49602 0.582973)
(89.5859 -3.92266 -0.30062)
(93.4798 -3.5049 -0.58615)
(93.4323 -2.95222 -0.894881)
(95.6936 -2.89294 -0.987172)
(96.666 -2.30574 -1.10641)
(100.113 -2.54989 -1.29125)
(105.395 -1.8657 -1.07014)
(256.79 91.5124 103.513)
(206.713 101.683 -24.4339)
(189.978 103.662 -17.9743)
(92.6565 61.0465 5.42631)
(148.171 49.4624 16.0126)
(82.8709 30.4398 2.87796)
(115.522 20.1016 4.75504)
(78.1987 14.5638 1.21862)
(96.3229 5.61592 4.22468)
(78.4649 4.89281 3.06436)
(89.0877 0.295086 3.32766)
(82.2352 0.642475 1.79304)
(88.5131 -1.60212 1.54917)
(85.9251 -1.20249 0.790732)
(88.9663 -2.08649 0.655973)
(88.0947 -1.81837 0.360359)
(89.5769 -2.46194 0.257999)
(89.8814 -2.1973 0.182639)
(93.0472 -2.7064 0.254088)
(98.318 -2.0721 0.242085)
(-92.7491 79.9332 -68.2348)
(-92.3907 51.7361 -31.19)
(93.4659 81.608 -18.2194)
(-7.23292 45.3432 4.94556)
(111.678 45.5079 0.0776428)
(30.9239 31.2498 2.94589)
(96.6734 19.715 2.94118)
(56.4441 16.7245 1.79803)
(87.041 5.79434 2.97524)
(69.8935 3.85474 1.48724)
(83.1717 -3.42794 2.32473)
(77.47 -3.75155 1.405)
(84.331 -5.28864 1.39828)
(82.3708 -3.83843 0.737907)
(85.2862 -3.8026 0.704622)
(84.4006 -2.8503 0.466053)
(85.807 -3.17183 0.449378)
(85.9181 -2.62182 0.349621)
(88.9475 -2.87725 0.325657)
(93.828 -1.99359 0.122455)
(178.487 182.657 183.998)
(30.3864 78.7601 6.68221)
(148.681 80.6716 -6.71136)
(54.2177 55.405 2.90507)
(131.308 40.3258 1.79798)
(66.5285 32.7719 -1.3698)
(106.878 12.0637 -0.570525)
(73.8909 18.8956 -2.76939)
(91.7567 3.29049 -0.0582205)
(76.0981 6.70833 0.25186)
(85.5072 -2.42695 3.84205)
(80.5726 -0.3743 3.30894)
(85.9807 -3.75033 2.24468)
(83.4746 -1.83833 0.785271)
(85.4548 -2.90356 0.466868)
(83.9037 -1.89549 0.16495)
(84.7502 -2.59296 0.343378)
(84.5613 -2.25638 0.355443)
(87.5969 -2.81592 0.358152)
(92.5296 -2.1216 0.0832871)
(-121.548 274.666 -5.75937)
(-145.656 70.4107 -25.6964)
(68.86 58.6759 -27.5133)
(-25.5766 38.6322 -2.77124)
(95.149 36.1379 -9.22774)
(12.6794 33.7741 -2.24897)
(84.0767 14.3052 -2.21519)
(48.9236 17.7641 -2.1841)
(73.3756 2.84831 0.400634)
(62.2553 3.90773 0.340896)
(73.3536 -3.2975 1.67858)
(71.3029 -2.23076 1.30554)
(77.1265 -5.02026 0.88779)
(76.8026 -3.70699 0.471453)
(79.3231 -3.9902 0.288897)
(79.4998 -2.72486 0.222725)
(80.9819 -3.04587 0.251446)
(81.5893 -2.62411 0.248347)
(85.0905 -3.12313 0.192739)
(90.5469 -2.25036 0.0305729)
(263.232 -40.5633 115.912)
(-57.4601 -21.8503 -32.2789)
(104.718 -2.45892 -27.6448)
(-15.2526 9.62963 -1.82947)
(110.801 12.915 -7.18345)
(32.9028 20.7694 -2.69093)
(81.2063 -19.4544 -1.64649)
(51.3986 19.9091 -1.29)
(72.0462 -10.1352 0.4889)
(63.4137 2.7967 1.69314)
(75.4518 -10.1573 2.54402)
(74.2273 -4.26019 2.56858)
(80.1843 -8.06979 1.64362)
(79.621 -3.98435 1.20959)
(81.8613 -5.51901 0.510754)
(81.0577 -4.02351 0.132628)
(82.3874 -4.69501 0.10129)
(82.7199 -3.99582 0.124378)
(86.5087 -4.44904 0.225976)
(91.8626 -3.14707 0.0979526)
(288.454 86.7485 101.288)
(-130.692 11.6419 5.01939)
(63.8592 -23.7628 -5.27054)
(-62.1387 -6.94622 8.38368)
(91.5737 -7.22297 -2.76974)
(7.73271 39.0927 3.46417)
(63.3129 -1.37249 0.251281)
(51.0728 8.67115 -0.740016)
(68.6999 -6.97559 0.751311)
(67.3775 -11.7306 3.03047)
(80.8268 -14.4511 2.75247)
(81.5965 -14.0526 2.5787)
(85.9249 -12.9757 1.84411)
(84.176 -11.2849 1.83121)
(83.0226 -4.47175 1.0266)
(83.4791 -4.25637 0.00371076)
(84.0503 -4.9165 -0.281168)
(84.9116 -5.0035 -0.236464)
(88.4738 -5.29098 -0.185149)
(92.8612 -3.43179 0.00335254)
(134.243 -82.3168 -14.6282)
(-24.5239 -45.5574 -9.02863)
(97.9083 -59.788 0.198495)
(-14.6141 -34.4337 7.93219)
(91.1088 -32.4576 1.37877)
(42.4202 2.37501 3.78762)
(74.8127 -3.9826 1.29383)
(67.777 -10.8681 2.99311)
(75.8114 -12.1305 3.91226)
(79.0935 -17.831 4.18274)
(86.2181 -17.8402 3.99102)
(89.3685 -16.0579 2.20198)
(91.3364 -13.079 1.21006)
(91.2429 -10.7668 1.27218)
(90.1159 -8.08953 1.2521)
(86.9646 -6.02757 -0.092272)
(88.3408 -7.32348 -0.348699)
(88.3212 -7.40715 -0.207556)
(91.7005 -6.86053 -0.106729)
(94.6828 -3.75854 -0.141052)
(211.253 -4.41597 -116.437)
(-94.0712 -6.16315 -24.3527)
(115.279 -9.01584 -6.86554)
(-24.5502 -14.2849 15.1659)
(82.0089 -27.7693 6.22655)
(15.0388 -5.4158 1.01333)
(61.1801 0.0620863 2.03352)
(74.1622 -7.36567 0.764777)
(78.1769 -11.6109 1.74017)
(81.0112 -15.5423 2.14405)
(83.1958 -15.4598 1.18528)
(86.2498 -14.9617 0.632079)
(90.9683 -12.3976 1.245)
(95.0815 -7.70902 1.20424)
(94.7574 -3.97631 0.962983)
(91.3441 -6.13208 0.465994)
(91.0368 -8.35158 0.304976)
(89.9878 -7.9953 0.119297)
(92.2648 -6.53163 -0.210401)
(93.2723 -2.51376 -0.769021)
(134.09 -324.469 -129.375)
(-169.338 9.86854 -15.8078)
(121.25 -12.1671 -22.0199)
(13.6387 2.99977 1.84669)
(104.469 -15.0155 11.5124)
(69.3168 -18.0216 4.89829)
(74.944 -18.2091 4.04431)
(78.182 -15.6974 1.04408)
(82.2619 -17.3734 0.574693)
(84.6979 -17.8122 -2.58266)
(91.1915 -21.4695 -2.26829)
(92.0554 -19.3097 1.46688)
(93.3659 -15.3624 1.92195)
(95.848 -8.00334 0.510705)
(93.556 -4.97121 1.18487)
(87.9847 -6.9539 1.45527)
(87.5104 -6.7797 1.1865)
(85.5311 -6.55839 0.628101)
(87.4245 -4.39921 -0.29121)
(88.8077 -1.11186 -0.993789)
(101.125 -159.735 -101.37)
(-99.0203 -23.5369 -12.0545)
(87.2045 -67.0314 -6.8915)
(-19.0808 -14.1382 1.14649)
(84.2103 -27.1142 4.35038)
(26.5502 -12.3221 -0.298758)
(75.4522 -20.7004 3.66085)
(89.4811 -20.8907 1.92311)
(91.8657 -22.8311 -1.22224)
(91.3365 -21.9026 -0.260068)
(90.3088 -20.1255 1.03632)
(87.5562 -17.2939 2.23457)
(85.9105 -13.1398 2.68621)
(87.5266 -8.91597 1.03328)
(85.7152 -6.58295 1.28959)
(81.2201 -5.02438 1.19183)
(81.0724 -4.66165 0.512093)
(79.7637 -4.15223 0.0373693)
(81.9909 -2.70631 -0.44508)
(85.7041 -0.421191 -0.626724)
(54.6012 -128.089 36.0063)
(-23.3369 -45.1586 -7.44207)
(127.331 -53.9048 -8.18778)
(77.2995 -22.8 3.67335)
(138.471 -31.8264 5.99323)
(108.453 -35.7867 1.02165)
(117.974 -27.9405 2.37606)
(98.4116 -19.8514 3.18033)
(97.4159 -19.7025 0.403671)
(89.1173 -18.7604 0.244369)
(88.4007 -16.2333 0.880803)
(81.7278 -11.8252 3.6525)
(82.8053 -8.41484 3.92248)
(81.7208 -6.8423 1.98476)
(79.2287 -5.8667 0.763975)
(77.9941 -5.78324 0.371068)
(77.6619 -5.21224 0.166367)
(77.3879 -4.73841 0.0858991)
(80.0305 -3.1959 -0.176618)
(85.0446 -1.02187 -0.151591)
(109.214 -0.263231 -110.72)
(22.5571 -86.4069 25.5077)
(135.641 -91.095 31.0558)
(81.3453 -47.5557 13.1381)
(133.776 -39.2075 10.2914)
(95.809 -29.375 0.594377)
(106.556 -10.4711 0.525756)
(94.2405 -22.2579 -1.09213)
(97.4855 -15.0467 -0.204996)
(89.1766 -19.1477 0.192329)
(89.1846 -9.72096 1.7458)
(83.4896 -7.97384 3.3783)