/*--------------------------------*- C++ -*----------------------------------*\
  =========                 |
  \\      /  F ield         | OpenFOAM: The Open Source CFD Toolbox
   \\    /   O peration     | Website:  https://openfoam.org
    \\  /    A nd           | Version:  10
     \\/     M anipulation  |
\*---------------------------------------------------------------------------*/
FoamFile
{
    format      ascii;
    class       volScalarField;
    location    "0.8";
    object      k_0;
}
// * * * * * * * * * * * * * * * * * * * * * * * * * * * * * * * * * * * * * //

dimensions      [0 2 -2 0 0 0 0];

internalField   nonuniform List<scalar> 
12920
(
14.7185
53.4811
58.74
63.3142
112.049
109.172
75.8536
37.218
16.6364
6.47112
2.00551
0.485105
0.103611
0.0221845
0.00621868
0.00268314
0.00157978
0.00121807
0.00112246
0.00110086
287.502
301.948
226.201
117.946
57.6157
36.9327
23.3338
11.652
4.93525
1.62853
0.418682
0.0838161
0.0162073
0.0043771
0.00211768
0.00147431
0.00121299
0.00112482
0.0011027
0.00109778
4683.43
1490.06
376.204
142.725
40.8062
11.0638
4.2913
1.6809
0.566987
0.162712
0.0429336
0.0125387
0.00426197
0.00194243
0.00132435
0.00116048
0.00111332
0.00110097
0.00109824
0.00109728
56.2703
385.393
420.001
254.244
105.996
23.7333
4.008
0.587691
0.0972842
0.0240926
0.00806273
0.00324466
0.00168413
0.00124276
0.00113174
0.00110557
0.00109928
0.00109785
0.00109756
0.0010972
9.58778
330.633
549.295
331.426
79.1103
11.9212
1.27472
0.129047
0.0186769
0.00574353
0.00262397
0.00157233
0.00122361
0.00112702
0.0011038
0.00109878
0.00109775
0.00109755
0.00109745
0.00109716
159.39
300.442
206.824
67.5432
15.0702
2.17398
0.32057
0.0861731
0.0255355
0.00745554
0.00257692
0.00142415
0.0011718
0.00111595
0.00110232
0.00109871
0.0010977
0.00109741
0.00109733
0.00109711
246.774
75.195
42.5795
60.0035
19.8971
2.6843
0.754479
0.193102
0.020868
0.0041102
0.00189649
0.00158991
0.00142642
0.00126887
0.00116486
0.00111703
0.00109791
0.00109195
0.00109098
0.00109251
707.731
553.342
167.342
102.514
92.4068
27.1073
6.31256
0.146915
0.00660448
0.00239947
0.00220924
0.00191925
0.00167384
0.00138725
0.00147376
0.00118397
0.00106925
0.00103113
0.00102375
0.00103692
4971.8
2691.86
696.843
115.84
35.7429
12.6476
6.43628
0.196799
0.00722595
0.00331578
0.0018907
0.0019768
0.00173463
0.00157744
0.00135055
0.000936819
0.00092444
0.000923764
0.000930742
0.000985122
5904.92
3003.14
1005.45
489.481
246.571
84.9651
6.97966
0.0234963
0.00439883
0.101385
0.0353935
0.00461138
0.00163584
0.00163489
0.00137881
0.000867262
0.000861877
0.000868639
0.000891046
0.000971645
2355.72
1206.78
679.564
273.532
101.982
52.6714
19.6186
3.70391
0.67072
4.63089
0.802289
0.0280899
0.00232828
0.00162943
0.00136706
0.000860473
0.000859674
0.000868395
0.000892068
0.000972677
2104.5
1022.51
787.008
609.736
416.181
177.691
55.0258
26.8769
19.1097
3.43768
0.112727
0.00609132
0.00178701
0.00165643
0.00142226
0.00104172
0.000981856
0.000962026
0.000961486
0.00099182
971.647
1043.8
786.705
454.309
207.121
105.768
65.8308
16.6907
2.60022
0.90414
0.037871
0.00337177
0.00152646
0.00134964
0.00149327
0.00121701
0.00108704
0.00104194
0.00103336
0.00104534
1585.02
1155.01
740.483
463.37
317.267
270.691
203.503
135.518
61.1259
17.8201
3.38937
0.461244
0.0537936
0.00749528
0.00210472
0.00130555
0.00114407
0.00110621
0.00109759
0.0010964
1810.09
1119.18
745.311
660.367
536.37
372.812
254.518
154.424
73.5495
23.0536
5.01672
0.839413
0.128906
0.022293
0.00517311
0.00198395
0.00129133
0.0011377
0.00110528
0.00109861
516.989
736.327
615.439
499.048
391.668
308.085
201.44
107.231
54.6148
20.2806
5.78771
1.26609
0.237173
0.0432096
0.00894239
0.00265818
0.00141123
0.00115784
0.00110832
0.001099
5911.48
4362.96
1267.95
453.719
228.461
82.3458
28.72
9.43001
8.66385
5.90074
2.02623
0.46964
0.0918725
0.017176
0.00392837
0.00158637
0.00117964
0.0011106
0.00109944
0.00109758
1233.3
1084.03
437.449
209.169
163.789
100.254
46.5265
16.4582
6.40953
2.05439
0.506281
0.0988126
0.0175219
0.00359277
0.00147039
0.00115241
0.00110575
0.00109864
0.00109747
0.00109725
764.833
310.869
276.88
158.146
79.6054
53.6189
24.064
6.74724
1.49783
0.271376
0.0457824
0.00751048
0.00199665
0.00121319
0.00111012
0.00109725
0.00109649
0.00109692
0.0010971
0.00109712
61.8508
279.98
107.931
31.3968
19.2386
14.5332
7.44339
2.61178
0.689363
0.135029
0.022542
0.0041004
0.00148119
0.00114272
0.00110203
0.00109758
0.0010972
0.00109716
0.00109705
0.00109695
18.4495
95.1441
301.377
407.403
529.128
504.487
372.455
199.196
96.3242
40.122
13.8141
3.62572
0.74466
0.12456
0.0198349
0.00417525
0.00167254
0.00117888
0.00106773
0.00104178
1097.91
1923.53
847.581
322.945
158.691
48.8807
17.524
6.48966
3.38879
2.04085
0.946166
0.272394
0.0616258
0.013886
0.00470886
0.0023947
0.00140807
0.000920875
0.000726368
0.000635379
16710.2
8165.05
2395.35
673.218
179.293
32.3248
6.06897
1.53329
0.711944
0.394279
0.227962
0.0979052
0.0297824
0.00808587
0.00255514
0.00123291
0.000828257
0.000675027
0.000617834
0.000592401
612.104
2272.85
2193.42
1389.01
934.882
353.05
59.6873
5.96288
0.55707
0.117962
0.0491119
0.0198264
0.00654003
0.00212437
0.00101872
0.000745046
0.000656124
0.000613561
0.000595964
0.000586386
941.164
1853.07
1835.31
1236.05
446.848
101.738
12.401
1.2402
0.140233
0.0346933
0.0129561
0.00496367
0.00197231
0.00100885
0.000740337
0.000652742
0.000620762
0.000601161
0.000592299
0.00058564
1464.79
938.487
445.016
250.295
106.874
20.5623
3.38487
0.718256
0.163159
0.04122
0.0116163
0.00379661
0.00163431
0.00098244
0.000752567
0.000663404
0.000625229
0.000602818
0.000592787
0.000586033
1929.63
1100.81
280.662
297.895
128.241
19.4823
4.79963
2.01116
0.236003
0.0334454
0.00752795
0.00320461
0.00191172
0.00120392
0.000884614
0.000724925
0.00065403
0.000614746
0.000596905
0.000587095
2984.63
2748.91
1351.27
618.652
299.426
86.3444
19.4451
1.15727
0.144611
0.124511
0.0443671
0.0205264
0.0075334
0.0031891
0.00138891
0.000961768
0.00076274
0.000663668
0.000620473
0.000596393
9568.27
4990.57
1158.94
304.293
64.5892
40.5765
16.9452
0.436489
0.152041
0.400883
0.0218887
0.00560474
0.0038613
0.00129838
0.000800247
0.00069523
0.000664181
0.000633991
0.000617845
0.000600253
7198.28
7312.27
2025.42
663.555
288.384
92.273
11.9877
0.224743
0.363981
0.0175652
0.0496766
0.046721
0.00502753
0.00109853
0.000691252
0.0006498
0.000633156
0.000611456
0.000597351
0.000588215
9084.58
5383.62
2086.1
788.116
303.494
144.523
46.269
5.97097
1.01418
0.89739
1.67793
0.0644819
0.00678002
0.00151504
0.000666792
0.000612816
0.000608199
0.000600764
0.000593544
0.000587557
4149.77
2907.6
2529.61
1642.1
695.579
334.983
130.642
55.7736
22.5851
14.0709
0.946054
0.0251598
0.00814402
0.00170501
0.00074948
0.000717605
0.000674076
0.000639282
0.000620445
0.000600857
2097.4
2317.14
2229.78
1372.14
530.044
228.903
139.027
47.3501
21.0255
5.34415
0.166325
0.00887157
0.00307163
0.00185344
0.0011534
0.000842737
0.00069914
0.000632078
0.000605117
0.00059117
4585.87
2591.62
1885.54
1187.38
579.545
409.256
240.749
129.986
45.7592
10.0486
1.45005
0.1785
0.0265451
0.00736015
0.00289663
0.00134155
0.000820077
0.000656382
0.000606319
0.000589136
3122.98
2346.03
1286.19
1139.79
728.572
647.441
439.671
217.177
73.8869
17.7294
3.20008
0.527972
0.112704
0.0365785
0.011874
0.00361531
0.00132725
0.000758252
0.000623595
0.000590653
2595.07
2573.37
2127.62
1361.03
837.559
447.977
247.828
104.865
41.3319
12.0577
3.02669
0.773987
0.21261
0.0573451
0.0156106
0.00454999
0.00153904
0.000810034
0.000635943
0.000593165
10185.7
6426.95
2893.25
1044.76
322.543
54.9094
30.4019
11.1963
5.74342
2.35388
0.848649
0.20267
0.045471
0.0106691
0.00338529
0.00134507
0.000790004
0.000638421
0.000596622
0.000584997
1468.07
1698.34
1177.86
482.491
136.646
41.6669
17.0134
6.8327
2.90565
1.02435
0.272843
0.0580884
0.011397
0.00266429
0.00108193
0.000730026
0.000632477
0.000598492
0.000586718
0.000582796
6014.71
604.098
323.646
184.557
58.2066
34.6173
9.56249
1.92407
0.432129
0.0778744
0.0162457
0.00375541
0.00143576
0.000869781
0.00070251
0.000639307
0.000610323
0.000597658
0.000591871
0.00058933
2902.54
1462.31
329.542
60.6888
17.374
9.63888
4.71398
1.79057
0.528738
0.114495
0.0203446
0.00383214
0.00138532
0.00105188
0.00100857
0.00100748
0.00101245
0.00102283
0.00102785
0.00103278
181.969
347.812
1054.04
1219.16
1242.64
1077.53
751.398
481.94
287.341
145.96
58.8101
17.2169
3.70319
0.567494
0.0662691
0.00759635
0.00171986
0.00111835
0.00104751
0.00103743
3001.2
1845.95
1100.56
990.842
781.03
264.052
71.3053
23.132
9.73707
3.19217
2.48837
1.20517
0.306837
0.0574826
0.00936018
0.00214147
0.0010638
0.000784736
0.000683112
0.00062472
8545.29
6313.19
2667.03
1028.14
410.645
119.332
28.0693
7.56634
4.34157
2.85044
1.86624
0.821052
0.237238
0.0541588
0.0102708
0.00214942
0.000869553
0.000651133
0.000604984
0.000588305
7532.67
7532.96
5727.44
3046.14
1333.15
394.671
69.2076
8.32165
1.1666
0.503031
0.29426
0.13407
0.0436109
0.0110729
0.00266323
0.000966963
0.000669289
0.000609036
0.00059305
0.000585175
6584.83
6649.48
4929.73
1821.1
515.294
99.8896
11.4036
1.47424
0.291967
0.105282
0.0437472
0.0171244
0.00561265
0.00186864
0.000897689
0.000672842
0.000620541
0.000599404
0.000591122
0.000584896
5842.62
3418.01
1448.12
882.628
292.312
40.9692
12.4537
4.22729
1.0453
0.21895
0.0448098
0.0100935
0.00278987
0.00118687
0.000784905
0.000665942
0.000623768
0.000601426
0.000591896
0.000585417
2592.87
2019.79
531.152
500.889
289.554
46.4241
25.2333
17.9822
2.81663
0.298604
0.0311937
0.00544212
0.00217196
0.00123941
0.000888128
0.000724076
0.000653229
0.000613902
0.000596249
0.000586469
10329.7
3537.1
1190.62
617.096
220.974
68.5803
20.6211
8.52844
1.44157
0.13054
0.05291
0.0174456
0.00682464
0.00312695
0.00140979
0.000966467
0.000761824
0.000662388
0.00061967
0.000595819
17844.2
4194.77
855.271
272.644
33.1337
30.9107
19.9284
1.92613
1.30928
0.410353
0.00955369
0.0049553
0.0044023
0.00122185
0.00080404
0.00123076
0.0010234
0.000699206
0.000626947
0.000601083
8527.89
9732.58
5798.61
1325.84
293.52
34.3394
3.70667
0.963888
1.12615
1.26009
0.0786262
0.00809349
0.00191453
0.00102254
0.000994789
0.00184429
0.00152464
0.000895311
0.000690706
0.000612613
11902.5
9859.41
4551.81
1626.55
639.595
286.576
60.8859
8.91246
26.6491
34.0879
2.16003
0.0288847
0.00667314
0.00197181
0.000872324
0.00171702
0.00140207
0.000800437
0.000648414
0.000601425
5597.05
4377.13
3805.25
3013.61
1500.18
683.1
250.113
103.589
50.8694
26.0472
0.436262
0.0248812
0.00760378
0.00196958
0.000762355
0.00146644
0.00118487
0.00072914
0.000630516
0.000601149
5692.97
4620.56
4099.38
2739.52
1229.32
453.098
227.087
88.3706
32.1786
4.02756
0.0846538
0.00753276
0.00282793
0.00168117
0.00104427
0.000795777
0.000680888
0.000624546
0.000602165
0.000590005
1241.24
3603.3
3183.44
1578.18
658.101
315.343
152.373
56.929
13.0886
2.18133
0.297046
0.0474305
0.0112858
0.00385043
0.00164378
0.000927219
0.000694547
0.000617351
0.000593058
0.000584868
2687.14
2370.97
1486.1
918.517
546.146
276.023
175.896
72.7993
19.9688
3.4067
0.505025
0.0980754
0.0297109
0.0120184
0.00475174
0.00184097
0.000913196
0.000662507
0.000600727
0.000585375
3563.02
3376.52
2944.2
1316.59
389.466
98.0479
54.236
16.6903
4.58669
0.925307
0.235028
0.0996472
0.0555117
0.025757
0.00930449
0.00296586
0.00114958
0.000706727
0.000608007
0.00058613
13702.9
5501.14
2142.51
564.403
80.2208
10.9878
7.45037
1.76404
0.486396
0.116851
0.0621295
0.0261108
0.010241
0.00383072
0.00166091
0.000893685
0.000668821
0.00060391
0.000586555
0.000582076
7223.43
2620.38
731.603
109.412
15.0391
2.27322
1.28381
0.490219
0.299826
0.121889
0.0393006
0.0105661
0.00308553
0.00126179
0.000795764
0.000655944
0.000609061
0.000590257
0.000583514
0.000581435
8851.27
490.678
160.89
53.2348
14.5595
4.06898
2.32245
0.336725
0.0744736
0.0176521
0.00683527
0.003202
0.00163331
0.000972411
0.000726662
0.000643188
0.000610179
0.000596962
0.000591264
0.000588707
1021.75
519.039
213.189
94.7436
47.0901
21.093
8.0203
2.30102
0.515247
0.0869216
0.013062
0.0026272
0.00124466
0.0010432
0.00100934
0.00100796
0.00101212
0.00102262
0.0010278
0.00103275
524.526
1128.34
2221.18
2249.77
2078.59
1442.69
965.872
658.776
444.07
260.632
125.232
45.9011
12.2636
2.16914
0.25714
0.0245628
0.00300992
0.00120015
0.0010496
0.00103693
2494.42
2623.14
2967.07
2733.71
1685.03
662.679
265.545
109.076
55.0783
20.1897
7.33071
3.37536
1.21611
0.426014
0.135447
0.020742
0.00396785
0.00151763
0.00111028
0.000975265
7995.11
5204.92
3671.83
1908.7
1053.18
452.433
170.61
54.3742
32.9114
22.9858
15.2506
6.87484
2.18131
0.608821
0.150832
0.0273051
0.00472502
0.00149791
0.00102962
0.000928486
11612.9
8432.64
5808.31
3618.15
1769.96
601.795
170.684
35.5283
7.77829
2.40151
1.56837
0.98577
0.398492
0.12857
0.0357461
0.00708713
0.00185211
0.00100647
0.00087673
0.00085882
7396.07
8477.93
5156.77
1708.74
594.398
144.948
32.8408
7.8136
2.25507
0.746467
0.31491
0.146759
0.055197
0.0206642
0.00674877
0.00180835
0.00100265
0.000880106
0.000863174
0.000864631
9211.04
8056.48
3244.37
1342.19
628.823
175.339
98.1591
35.992
8.57532
1.4726
0.251783
0.049455
0.0115711
0.00341097
0.00139964
0.000920827
0.000827039
0.000807054
0.000810179
0.000829458
4088.32
5673.66
2327.33
1105.86
648.258
258.076
194.44
109.408
24.1675
3.32364
0.480905
0.0709217
0.0125152
0.00254018
0.00143132
0.00107838
0.000956107
0.000886212
0.000858229
0.000856022
19258.4
9215.24
3328.6
1190.87
378.506
142.227
59.3898
24.3297
17.0395
0.390812
0.147237
0.0229325
0.00742374
0.00291786
0.261293
0.129664
0.0385668
0.0107872
0.00334598
0.00133575
17348.5
7265.7
1920.48
265.317
99.2801
54.2434
34.4057
9.48647
5.9104
0.567736
0.0166292
0.0097703
0.004961
0.00129844
0.00275305
1.96666
1.26929
0.35874
0.0765612
0.0122124
34998.4
10415.3
2927.44
961.743
348.525
116.206
16.1022
1.79825
0.904237
0.303485
0.0130442
0.00961469
0.00319371
0.00101584
0.00122538
2.4938
1.62606
0.459528
0.0974639
0.0152613
11336.4
7481.31
5176.8
2585.39
1213.01
608.858
153.414
33.0278
3.42411
0.449965
0.0627091
0.016592
0.00350854
0.00138892
0.00155871
2.68981
1.79314
0.516517
0.110462
0.0172024
21129
8376.25
7029.02
5481.37
3327.33
1644.45
679.058
194.234
67.8359
12.4804
0.299096
0.062818
0.0143067
0.00188652
0.00165712
2.38206
1.56043
0.454318
0.0992189
0.0158162
4139.66
6867.28
6417.33
4237.06
2429.25
909.357
370.856
94.256
19.7791
1.20655
0.111185
0.0142425
0.00371905
0.00171425
0.148907
0.0747896
0.0249426
0.00751883
0.00267775
0.00126146
2265.34
4698.18
4180.78
1956.75
1083.51
400.208
115.051
23.512
4.50184
0.868123
0.184208
0.0535017
0.0161682
0.00474596
0.00200144
0.00131319
0.00112787
0.00101074
0.000960752
0.000925052
8359.94
3779.72
2197.36
587.916
517.23
165.578
50.7962
12.839
2.99862
0.66772
0.247068
0.158341
0.0446812
0.00963176
0.00311163
0.00165653
0.00124206
0.00104898
0.000984048
0.000936453
14099.1
6873.5
3581.06
767.192
256.642
62.0221
27.7804
9.10663
2.68467
0.939417
0.319382
0.0769556
0.0217903
0.00818974
0.00371236
0.00199471
0.00139288
0.00111488
0.00102271
0.000959091
15632.5
5563.11
2098.15
320.844
66.4658
14.241
11.1781
4.07098
1.77507
0.449162
0.0767046
0.0167628
0.00564646
0.00264896
0.00169981
0.0012766
0.0011279
0.00102658
0.000990341
0.000951086
11405
1878.76
520.071
45.8028
6.81814
0.69393
1.84538
0.838068
0.265055
0.0764212
0.0306573
0.0131357
0.00582359
0.00275684
0.00165635
0.00122808
0.00108818
0.00101091
0.000982818
0.000954338
5523.28
392.604
66.6279
12.9021
9.95794
2.46225
1.65112
0.373374
0.168181
0.109704
0.101902
0.0694982
0.0393294
0.0196935
0.00767148
0.00318727
0.00148589
0.00108547
0.000996733
0.000969902
1078.63
294.001
140.599
77.6711
47.5615
21.8522
7.77924
1.83776
0.308051
0.0414784
0.00825849
0.00411672
0.00281162
0.00180799
0.00129775
0.00109937
0.00104231
0.001031
0.00103012
0.00103244
411.951
2370.04
3128.95
3044.43
2708.46
1906.29
1286.32
807.421
501.626
286.654
142.456
58.5562
18.8744
4.18495
0.60932
0.0668749
0.00731287
0.00170163
0.00122523
0.0012007
4928.5
7719.74
8989.51
6636.1
4810.03
2831.74
1946.9
847.165
360.878
132.473
66.588
24.2873
8.22592
6.24233
4.42693
3.52151
3.21611
2.85849
2.68826
2.4526
13910.1
7340.81
6989.8
3639.05
3666.15
2720.47
1993.77
962.264
540.953
272.205
154.356
63.8119
23.7382
8.84969
4.56827
3.17277
2.89396
2.62705
2.52734
2.36205
12601.1
7881.73
8092.86
5508
4302.78
2379.46
1663.25
703.721
262.081
74.7884
25.8595
13.7508
7.06628
3.57061
2.59092
2.17686
2.14115
2.10487
2.09306
2.08216
10811.2
9720.58
7320.13
2675.86
2111.27
944.491
666.236
255.776
106.093
33.9597
12.4794
5.14485
3.2005
2.25507
2.09801
2.01181
2.03069
2.04026
2.06154
2.08027
9866.27
9713.52
6271.88
2674.86
2450.43
1356.04
1004.62
326.942
82.0835
18.1821
5.47887
2.48184
1.70254
1.51289
1.50118
1.53212
1.6185
1.70175
1.77055
1.88794
20613.9
13361.8
6723.28
2267.15
2217.33
1533.56
1325.83
495.093
105.017
18.9457
6.54737
3.50111
3.29549
2.49824
2.2815
2.0633
2.02914
1.96336
1.93962
1.93865
19613.3
16706.5
9811.6
3025.16
2158.84
1220.71
889.461
157.575
67.2465
15.1397
2.85277
4.11587
4.22071
2.25308
83.9676
41.4359
21.0123
10.4346
5.42633
2.89421
20740.4
12219.4
6535.23
1420.79
491.607
219.511
229.201
102.393
43.5506
91.3316
15.6455
17.7034
16.0029
12.3149
89.9595
234.25
132.575
62.4268
25.3816
8.09094
22675.8
8791.17
4583.97
959.312
969.7
307.566
89.65
61.482
101.777
126.046
132.81
54.6337
47.1951
33.0054
116.274
252.388
146.852
69.582
28.4425
8.99415
13059.3
8336.76
7549.18
2976.96
1789.13
317.329
57.5942
16.4613
114.59
303.888
210.747
118.022
72.6504
50.4398
134.024
260.234
153.638
73.6303
30.1975
9.47607
19160.2
10072.3
11319.2
8056.24
5871.69
2553.19
859.29
119.324
176.061
155.762
70.2045
73.7884
56.5302
38.7884
128.477
248.221
144.866
69.9046
29.0266
9.24069
6014.64
9640.41
9251.97
5176.03
4297.23
1119.09
416.652
60.5363
57.8847
44.4272
4.93982
4.22175
6.94984
9.05193
60.2215
31.3933
16.7538
8.63279
4.80441
2.79491
11668.6
7274.14
6443.26
2781.73
3150.31
1187.67
475.873
125.168
66.3547
24.6017
10.9807
4.51285
3.26852
2.57995
2.62147
2.60465
2.56116
2.38479
2.28535
2.16772
14448.8
7206.57
3564.69
2247.79
2072.01
524.209
360.313
99.9898
53.1242
20.9931
10.2059
4.92742
3.46261
3.01236
2.9951
2.90152
2.75249
2.44646
2.33956
2.19068
18869.5
8896.2
5247.42
1354.86
953.005
174.155
151.376
57.2609
40.8375
17.3801
10.4534
5.40005
4.35163
3.57719
3.50617
3.29272
3.07872
2.66242
2.49466
2.28698
12503.7
8994.44
3679.93
575.763
215.985
29.2725
34.0807
12.4908
11.6677
6.22078
5.40466
3.57459
3.49815
3.1909
3.10021
2.81474
2.68814
2.45498
2.3814
2.24061
13706.7
5290.08
1010.37
39.3406
1.63857
0.384038
12.2676
5.97354
7.59889
5.54308
5.40558
3.97484
3.59576
2.86137
2.78379
2.58511
2.53621
2.40801
2.36403
2.26225
7973.45
1778.75
64.8248
6.66593
6.09204
1.85821
0.636574
0.409052
3.25639
2.3516
2.96249
2.46506
2.54402
2.3225
2.35781
2.30057
2.32011
2.29612
2.28869
2.24831
3365.3
132.84
46.7445
26.0659
17.3113
7.03619
2.14217
0.361332
0.0543271
0.0120225
0.0103773
0.0124781
0.0239163
0.0311887
0.036454
0.0310629
0.0234743
0.0125962
0.0078851
0.00335837
0.174287
15.2174
4.21599
0.476033
0.0412566
0.619141
0.117565
0.0132971
1.66802
0.0749773
0.0200282
0.00569957
0.0556632
0.0103585
5.65453
31.8951
5.05337
1.2962
0.282436
16.0135
0.752624
0.0754074
1.33642
0.0584992
0.116722
0.0181258
0.257555
0.0903351
0.666267
1.36848
0.0496813
11.4919
0.911604
2.3306
0.0718409
0.0181027
0.0130219
0.00317343
0.212066
0.0320765
0.0404343
0.0971577
0.00629157
0.00605
0.0109091
0.0300337
0.340569
0.231172
0.100935
0.00224849
0.0213441
0.0170726
0.31708
0.0200351
0.0330225
0.0174006
0.00186649
0.0156391
0.00418193
0.00977668
0.00485953
0.0291076
0.0427084
0.00191315
0.00245043
0.00166688
0.0041188
0.00363019
0.0365448
0.00566466
0.0016079
0.00168956
0.00169486
0.00346428
0.00176837
0.00405336
0.00169805
0.00149229
0.00161737
0.00154926
0.00140713
0.00101592
0.001286
0.000738626
0.114303
23.2753
3.94802
16.4653
0.223599
52.4992
8.34129
0.00261444
1.72631
0.0916482
0.0545922
0.0976903
3.22021
0.156337
0.0721862
0.0683962
4.36807
0.231795
0.04828
0.0810949
0.315149
0.0422182
3.79707
0.86929
0.0362815
0.0262073
0.294245
0.321064
0.00925785
0.485529
0.0480102
0.0363385
0.0404353
0.334212
0.0802973
0.00166903
0.0230117
0.00280915
0.0392791
0.0106215
0.0398006
0.0112312
0.00165734
0.00203504
0.00164227
0.00623396
0.00196138
0.00834519
0.0026629
0.00154069
0.00161846
0.00153509
0.00145085
0.000778577
0.00179123
0.000776549
5.78836
20.0796
14.3948
46.0943
11.7918
42.7848
33.2705
0.625136
14.1035
12.6548
6.18707
0.815406
30.0611
23.9843
6.45824
13.1745
4.73113
0.460838
0.883876
15.5206
16.3075
1.67904
4.08583
0.895693
0.929573
0.800956
16.1856
6.72212
0.0583219
0.296531
0.0235018
0.807657
0.123014
2.56242
0.0877875
0.00342547
0.0143252
0.00325912
0.0524241
0.0102075
0.0390959
0.0114664
0.00169124
0.00235093
0.00176439
0.00770857
0.00294764
0.00777862
0.00273593
0.00153089
0.00167777
0.00154087
0.00201294
0.000806528
0.00200399
0.000861814
30.0252
77.761
40.6718
98.0159
50.0037
140.895
92.6637
19.2014
31.229
17.5863
41.6115
23.2814
74.2543
43.7499
4.48386
9.02437
6.47973
16.976
20.4063
39.1111
29.2243
0.322807
5.72228
0.187324
20.248
3.12351
22.8048
1.21886
0.0107998
0.046588
0.002285
1.00411
0.0408112
0.315293
0.0100538
0.0020197
0.00169345
0.00139154
0.0270617
0.0110969
0.00622143
0.00294995
0.00169294
0.00139317
0.00139849
0.00770152
0.00266438
0.00254682
0.00182652
0.0015413
0.00139839
0.00126093
0.00194734
0.000854612
0.00172714
0.00146936
1.03159
1.33057
0.287872
21.1223
1.37231
3.30854
0.627611
0.148362
0.264678
0.193209
1.23626
0.568796
0.609206
0.783212
0.431036
0.396229
0.0816636
0.574637
0.801491
1.24212
0.592366
0.0420691
0.0253359
0.0148904
0.406276
0.0196193
0.418885
0.0691964
0.00721943
0.0264096
0.0439114
0.00962323
0.00408502
0.0378227
0.013225
0.00427458
0.0352559
0.00504275
0.0042131
0.00678346
0.00829253
0.00247561
0.00162708
0.00307663
0.00119037
0.00501048
0.00145193
0.00181693
0.000988773
0.000998092
0.000981826
0.000704252
0.00120935
0.00099636
0.000880123
0.000702224
0.230034
41.2011
6.41778
3.94208
0.75365
21.395
3.78558
0.189219
2.59299
0.211957
0.63307
0.695122
2.45852
2.62148
0.0335744
0.135539
0.173154
0.961466
0.874462
4.35744
6.8869
0.0387218
0.203433
0.776228
0.810775
0.190737
8.77133
5.17048
0.0505638
0.773884
0.113217
0.0969745
0.0231874
2.32744
0.102442
0.00938174
0.0477978
0.0108587
0.0138695
0.00291537
0.0386477
0.00721472
0.00138706
0.00740201
0.00199416
0.00205009
0.00108391
0.00487294
0.00176427
0.000736876
0.00137137
0.000717579
0.000967765
0.000734205
0.00138544
0.000932632
10.6917
68.3602
46.15
42.4482
8.93493
99.3442
74.54
1.28005
42.5698
35.7589
6.28431
11.9534
63.8183
51.5777
0.973871
24.715
11.2664
16.8332
20.0031
47.9765
20.9169
1.67799
10.5035
6.54183
21.8049
7.98286
20.026
8.54066
0.171806
2.41173
0.0815327
3.58152
0.135465
2.53211
0.0702202
0.00965941
0.0346978
0.0110959
0.0450514
0.00811193
0.0356605
0.00977305
0.00219126
0.00780965
0.00244499
0.00593826
0.00211586
0.00706846
0.00267659
0.000740126
0.00172013
0.00080596
0.00153485
0.000913728
0.00187243
0.000816655
67.4366
218.863
146.421
170.543
110.092
287.841
182.479
33.3171
124.937
65.544
94.3294
58.786
156.282
92.4317
13.942
51.1103
29.0219
47.3082
18.5345
72.7958
46.4755
2.97163
24.6935
1.3334
19.2465
2.90835
42.3423
0.962804
0.039037
0.330119
0.00847581
0.714343
0.0344091
0.194103
0.0070149
0.0117343
0.00494458
0.00244193
0.0227152
0.00985201
0.00479247
0.00269291
0.00241249
0.00212246
0.00154743
0.00765647
0.00289318
0.00229179
0.00152935
0.000800198
0.00141758
0.00118419
0.00199605
0.000826018
0.00137156
0.00109522
2.27227
4.1179
1.20828
20.2395
8.48665
9.06829
2.657
1.39655
0.87469
1.04379
5.9282
3.36819
1.33777
1.17826
0.918261
1.35393
0.711961
3.6453
1.3465
0.981244
0.671351
0.0203145
0.574851
0.0756055
0.499186
0.0235724
0.361027
0.03673
0.00412086
0.0374646
0.00923243
0.0171151
0.0114129
0.0183813
0.00593408
0.00714797
0.00622335
0.0022996
0.0100302
0.00427804
0.00499006
0.00244287
0.00144598
0.00174784
0.000996889
0.00305517
0.00141667
0.0018522
0.00101615
0.00100527
0.000894356
0.000714567
0.00122543
0.001042
0.000906523
0.000731716
1.35001
19.5684
4.46509
6.83477
2.2423
29.7008
7.84781
0.974905
2.99708
3.61782
1.27497
0.735491
5.69908
11.8924
1.30597
7.54603
15.7043
0.836202
1.0357
10.8854
1.01765
1.39304
0.814708
2.8894
1.54077
1.91917
0.758751
3.13527
0.0520317
0.0388351
0.213553
0.0555475
0.0916684
0.0268888
0.117708
0.00248218
0.0294684
0.00752266
0.0044063
0.00217132
0.00721821
0.00440134
0.00112921
0.00558483
0.0024248
0.0017456
0.00113004
0.00376145
0.00216888
0.000745557
0.00205581
0.00131402
0.00104593
0.000770807
0.00194629
0.00145279
11.9631
141.813
82.832
109.292
32.6982
215.144
146.581
19.0534
66.3306
44.5917
29.5508
16.9934
108.327
42.1666
38.5907
44.1116
34.1726
7.15236
1.43023
43.626
28.6431
22.6681
25.1036
47.0356
19.7634
32.1642
9.66451
35.3271
0.58122
0.709136
3.39885
0.904341
1.12129
0.27039
1.94677
0.00899428
0.0374465
0.0117003
0.0112893
0.00522635
0.0742414
0.0255828
0.0026277
0.00776413
0.00263713
0.00421717
0.00214721
0.0148122
0.002856
0.00122229
0.00186499
0.000818271
0.00171241
0.00124862
0.00183674
0.000792826
130.708
382.215
217.554
467.6
247.982
676.159
329.798
64.0198
180.508
104.548
185.122
76.1715
256.085
140.061
26.0695
79.9974
57.7717
63.3802
29.1769
112.767
74.7171
1.7605
45.1482
0.650455
16.2788
0.683513
23.7796
0.402443
0.0340216
0.130801
0.00696976
0.294728
0.0681521
0.167615
0.014372
0.0104534
0.00490527
0.00278351
0.0505491
0.0190312
0.00804686
0.00324676
0.00279259
0.00236915
0.0015655
0.0119034
0.00275289
0.00263853
0.00163611
0.000830389
0.00140693
0.00111391
0.00183459
0.000804091
0.00145605
0.00113637
15.5276
10.5253
3.66001
57.0347
50.2424
26.1612
22.6896
5.00598
2.08675
2.22057
39.7184
12.5611
20.0573
51.7929
1.82817
1.27836
0.488027
18.8677
36.3428
28.2343
4.66159
0.0244538
0.241558
0.0236245
15.3441
0.717444
4.70622
4.11776
0.0105478
0.0129821
0.0108907
0.330333
0.176354
3.97749
1.27986
0.00698621
0.0139759
0.00923002
0.183516
0.169843
0.805015
0.515013
0.00164095
0.00516592
0.00124986
0.145872
0.0894525
0.491202
0.343191
0.00140944
0.000980997
0.000698354
0.0849578
0.249433
0.29563
0.189712
3.40507
60.764
12.774
38.1868
17.7721
49.1807
8.71901
0.914533
7.95421
9.96144
19.5147
20.6454
5.40403
3.02654
0.70144
6.34619
0.5108
6.57202
5.70223
3.58697
18.4607
0.023981
0.289056
0.0561298
5.75543
7.74976
38.3161
40.071
0.00903856
0.0363409
0.0126486
7.73462
2.36852
28.3788
6.01607
0.00509783
0.00833086
0.00352472
1.48828
1.04257
4.23141
2.71718
0.00118673
0.00293318
0.00162565
1.00839
0.632463
2.4121
1.44698
0.000739673
0.00139655
0.000972457
0.510575
0.415319
1.2209
0.341867
46.6638
278.323
150.023
84.5387
12.909
253.969
75.2109
7.39915
99.8469
32.6046
7.99784
3.60132
62.1563
73.1856
0.657336
32.1605
15.4688
4.92195
58.3203
61.9251
23.4735
0.0837054
8.27091
0.376012
70.6337
51.3797
19.5282
14.2068
0.0286197
0.175362
0.116337
43.2433
18.3856
10.0672
10.5239
0.00455572
0.0985626
0.0344698
12.169
3.09952
9.78285
3.26378
0.00173958
0.0194698
0.00319111
2.29091
1.26502
2.33505
0.925504
0.000917745
0.00194635
0.000765652
1.08037
0.333127
0.727235
0.533241
277.771
869.177
384.172
911.894
206.001
1281.9
433.456
77.6331
290.484
156.552
118.629
44.6446
271.987
72.86
24.6202
135.545
54.7131
31.9764
14.9364
55.6011
8.207
0.532835
15.7018
0.616256
12.0918
5.44628
3.48083
1.52678
0.0901636
0.324022
0.022169
4.75207
7.3866
1.1647
0.182953
0.0232053
0.0100347
0.00328576
6.23487
1.66846
0.161193
0.20969
0.00292725
0.00267939
0.00167148
1.40996
0.763695
0.223721
0.206757
0.000795972
0.0015647
0.00151522
0.660965
0.267334
0.21517
0.245624
162.917
84.6686
40.5487
2453.84
1423.09
850.536
1025.2
31.1959
38.0272
136.592
831.742
472.205
976.213
1038.92
119.136
114.71
112.02
656.946
858.576
1204.97
1390.94
23.2237
111.755
97.3959
856.208
785.463
1349.54
1153.53
15.6795
93.854
49.5883
900.238
1077.44
1107.12
1109.48
17.4236
39.8468
32.5838
1094.09
1112.7
1128.35
1159.6
12.4255
31.6732
26.4068
1131.99
1143.02
1162.93
1178.37
5.34402
24.6165
3.48309
1156.15
1173.85
1186.49
1280.39
41.8297
59.6624
19.7414
879.212
1658.19
857.274
1850.58
124.279
22.6881
50.9436
1606
1455.04
1947.05
2140.3
129.893
90.1183
235.546
1549.71
1534.87
2080.55
1490.82
135.678
258.859
204.518
1447.7
1156.29
1304.03
1060.18
66.4113
168.527
93.4437
1102.76
1133.55
1041.7
1073.43
48.1701
87.0967
80.5035
1176.08
1222.48
1132.94
1298.15
36.6482
76.259
58.3365
1219.56
1213.35
1295.57
1273.16
12.9227
53.4775
8.71775
1217.15
1296.23
1274.58
1332.25
15.6282
190.118
91.9687
741.883
1803.72
629.985
1415.79
57.6624
106.744
211.77
1938.2
2129.82
1487.59
1543.92
305.271
232.162
214.311
2029.93
1404.09
1550.24
1467.33
235.021
200.647
164.805
1247.69
1101.31
1418.45
1334.97
136.36
134.706
123.379
1095.5
1106.07
1312.29
1276.17
80.8782
122.474
84.7841
1150.68
1291.45
1293.49
1286.72
54.6972
72.4235
45.475
1286.07
1266.77
1262.7
1211.13
8.48644
40.4174
17.1007
1268.63
1340.03
1209.97
1272.18
168.265
1389.08
400.628
1474.65
1499.24
2383.77
1379.87
155.116
207.612
37.4308
1485.07
1524.85
1339.57
1542.22
165.924
38.3322
32.2926
1564.96
1560.07
1626.92
1547.15
93.3355
31.5833
7.94496
1491.28
1309.27
1303.93
1047.66
74.2009
3.54384
2.44767
1268.78
1190.85
1007.27
919.751
60.1441
3.46102
7.54622
1194.15
1220.67
906.521
994.675
41.5086
9.14559
11.5485
1215.63
1198.83
1018.82
1094.15
5.40128
13.7252
3.85286
1200.75
1286.93
1101.35
1131.44
0.608804
0.387227
0.471015
0.131244
0.978485
0.322741
0.271956
2.86365
6.88375
14.5551
10.5379
5.41071
6.51089
5.20797
1.37237
1.47855
9.54169
1.55444
3.03101
0.684637
3.34525
0.497366
0.815063
0.211779
0.515359
0.386729
1.10958
0.234185
0.227481
0.0723511
0.0924355
0.0513443
0.168857
0.105239
0.108779
0.724645
2.40859
0.540787
0.394014
1.45733
1.15727
0.287007
0.368711
0.24109
0.0765795
0.232048
0.177578
0.562796
0.152405
0.0252767
0.0220622
0.021185
0.00939669
0.041904
0.01518
0.0134528
0.120655
0.66043
0.583351
0.599178
0.251347
0.302674
0.214847
0.0522949
0.0393035
0.204269
0.0333616
0.0951761
0.0243602
0.0845171
0.0247261
0.0331079
0.0114185
0.0249171
0.0173553
0.0496265
0.013268
0.0135934
0.00691969
0.00767165
0.00566851
0.0104213
0.00815807
0.00813405
0.0373365