/*--------------------------------*- C++ -*----------------------------------*\
  =========                 |
  \\      /  F ield         | OpenFOAM: The Open Source CFD Toolbox
   \\    /   O peration     | Website:  https://openfoam.org
    \\  /    A nd           | Version:  10
     \\/     M anipulation  |
\*---------------------------------------------------------------------------*/
FoamFile
{
    format      ascii;
    class       volScalarField;
    location    "0.8";
    object      omega;
}
// * * * * * * * * * * * * * * * * * * * * * * * * * * * * * * * * * * * * * //

dimensions      [0 0 -1 0 0 0 0];

internalField   nonuniform List<scalar> 
12920
(
17.0839
32.5654
34.1289
35.4329
47.1367
46.5277
38.7832
27.1664
18.1629
11.3278
6.30621
3.10151
1.43337
0.663255
0.35116
0.230663
0.176992
0.155414
0.14919
0.147748
75.505
77.3787
66.9734
48.3611
33.8007
27.0621
21.5104
15.2004
9.8926
5.68269
2.88136
1.2892
0.566906
0.294611
0.204921
0.170982
0.15509
0.149347
0.147871
0.147541
304.746
171.893
86.3709
53.1992
28.4458
14.8118
9.22465
5.77334
3.35306
1.79624
0.922686
0.498634
0.29071
0.196258
0.162053
0.151696
0.148582
0.147755
0.147572
0.147508
33.4037
87.4193
91.26
71.0037
45.8459
21.6937
8.91496
3.41374
1.38892
0.69119
0.39985
0.253653
0.182744
0.156981
0.149806
0.148064
0.147642
0.147546
0.147526
0.147502
13.7884
80.9709
104.366
81.0679
39.607
15.375
5.02762
1.59967
0.608567
0.337478
0.228105
0.176574
0.155767
0.149493
0.147945
0.147608
0.147539
0.147526
0.147519
0.147499
56.2193
77.1856
64.0407
36.5971
17.2868
6.56574
2.52126
1.3072
0.711587
0.384499
0.226051
0.168048
0.152434
0.148757
0.147846
0.147604
0.147536
0.147517
0.147511
0.147496
69.9528
38.6145
29.0573
34.494
19.8633
7.29577
3.86793
1.95681
0.643274
0.285487
0.193924
0.177559
0.168182
0.158622
0.151982
0.148829
0.14755
0.147149
0.147084
0.147186
118.465
104.75
57.6047
45.0866
42.8063
23.1845
22.3763
3.41364
0.723777
0.436258
0.418608
0.390168
0.36437
0.331714
0.17095
0.153224
0.145612
0.142992
0.142479
0.143393
313.988
231.037
117.55
47.9275
26.6226
31.673
45.189
7.90182
1.51413
1.02567
0.774509
0.791949
0.741856
0.707444
0.327296
0.136296
0.135393
0.135343
0.135853
0.139766
342.186
244.03
141.201
98.5198
69.924
82.0929
47.0579
2.73033
1.18137
5.67167
3.35117
1.20958
0.720419
0.720211
0.330703
0.131139
0.130731
0.131243
0.132925
0.138806
216.131
154.693
116.084
73.6477
44.9694
64.6358
78.895
34.2804
14.5877
38.3341
15.9574
2.98547
0.859476
0.719008
0.329291
0.130624
0.130564
0.131224
0.133001
0.13888
204.282
142.393
124.924
109.958
90.844
118.718
132.129
92.3432
77.865
33.0257
5.9805
1.39019
0.752973
0.72494
0.335872
0.143725
0.139534
0.138118
0.138079
0.14024
138.806
143.868
124.9
94.9142
64.0867
45.7964
72.2604
36.385
14.3612
8.46844
1.73316
0.517148
0.34796
0.327186
0.172078
0.155347
0.146818
0.14374
0.143147
0.143974
177.285
151.338
121.175
95.856
79.3174
73.2643
63.5245
51.8386
34.8151
18.798
8.19813
3.02427
1.03281
0.385522
0.204293
0.160899
0.15062
0.148106
0.147528
0.147448
189.455
148.973
121.569
114.432
103.131
85.9806
71.042
55.3366
38.1896
21.3809
9.97391
4.07984
1.59879
0.664875
0.320281
0.198345
0.16002
0.1502
0.148044
0.147597
101.25
120.835
110.471
99.4779
88.1282
78.1612
63.2016
46.1123
32.9087
20.0538
10.7129
5.01057
2.16864
0.925648
0.421097
0.229587
0.167284
0.151523
0.148248
0.147623
342.376
294.135
158.565
94.8525
67.3072
40.4088
23.8642
13.6745
13.1072
10.8171
6.33869
3.05167
1.34973
0.583602
0.279101
0.177361
0.152943
0.1484
0.147653
0.147528
156.383
146.614
93.1364
64.4027
56.9899
44.5869
30.3743
18.0653
11.2738
6.3826
3.16848
1.39979
0.58945
0.266913
0.170754
0.151167
0.148076
0.147599
0.14752
0.147506
123.151
78.5135
74.0971
55.9995
39.7308
32.6073
21.8444
11.5669
5.44987
2.31975
0.952806
0.385913
0.198979
0.155103
0.148368
0.147505
0.147455
0.147484
0.147496
0.147497
35.021
74.5108
46.2626
24.9516
19.5318
16.976
12.149
7.19654
3.69726
1.63632
0.668578
0.285147
0.171381
0.150531
0.147826
0.147528
0.147502
0.1475
0.147492
0.147485
7.65082
17.3743
30.9222
35.9524
40.9728
40.0074
34.3758
25.1394
17.4817
11.2825
6.62028
3.39166
1.53707
0.628644
0.250859
0.115095
0.0728456
0.0611577
0.0582031
0.0574915
96.3714
158.991
127.965
62.2964
44.2502
39.7751
31.6382
24.1939
14.7373
9.39833
6.97798
6.56535
6.47338
5.62266
3.9354
3.22475
3.23454
3.84281
4.75355
5.44805
530.033
339.23
171.345
89.4267
52.4462
36.5228
30.9437
24.5757
22.1355
19.3787
15.7203
11.4737
8.16396
6.25951
5.31306
5.0864
5.20583
5.62581
5.88434
5.99459
116.192
148.077
146.445
116.83
103.466
75.0451
31.4701
20.1102
18.1223
15.1257
11.3753
8.67611
7.13528
6.368
6.06946
5.9947
6.01424
6.04488
6.05268
6.04631
141.444
127.72
125.985
115.492
75.2956
38.7364
21.4279
17.9919
16.9261
13.9481
10.5928
8.2096
7.04786
6.45604
6.24199
6.14134
6.11887
6.08414
6.06913
6.04966
172.42
125.815
84.0291
75.0606
59.0791
29.0178
26.9539
24.3671
18.9188
13.0067
10.1628
8.28159
7.32298
6.80514
6.4639
6.27052
6.17455
6.10457
6.07553
6.05239
212.493
119.195
85.1902
78.4593
58.813
28.7801
33.2225
29.4111
23.6734
14.4529
11.0514
9.62989
8.71437
7.5765
6.91253
6.48889
6.28496
6.15085
6.09092
6.05487
126.8
146.815
103.174
83.5266
60.5392
32.6968
37.5218
32.2035
26.991
27.7285
19.7635
14.9135
12.7371
10.4633
8.19874
7.19022
6.63287
6.31406
6.17418
6.09022
192.71
168.154
106.236
54.7921
36.7099
30.6767
67.5925
28.5985
23.1435
28.6999
6.50011
3.44699
5.6816
7.29879
6.79236
6.38745
6.26133
6.16317
6.13518
6.09327
126.12
159.141
111.64
82.2765
52.9278
71.397
48.2196
30.2574
32.4331
4.80758
6.19524
17.5614
6.45099
7.06057
6.40591
6.21052
6.12653
6.07266
6.05338
6.04551
237.867
180.91
112.133
72.2469
49.8902
45.5493
38.3564
24.1175
13.224
13.0094
18.2415
17.8895
11.7837
7.66582
6.27818
6.08458
6.04594
6.03231
6.03687
6.04211
214.7
167.969
127.742
101.212
74.8824
65.5169
53.7962
45.5027
34.693
45.5038
22.7419
19.0642
15.4558
8.64886
6.56331
6.44805
6.28856
6.18342
6.14708
6.09657
124.896
123.734
115.843
89.0538
65.5183
52.4706
48.2653
39.1318
36.3751
32.0116
15.9561
12.0091
9.65385
8.39823
7.13333
6.59727
6.31766
6.15696
6.09945
6.0651
216.576
132.199
102.028
94.0386
79.9834
77.2337
70.2518
55.5815
35.6042
22.3387
17.0161
13.0309
9.78264
7.33076
6.15187
5.79293
5.76772
5.8447
5.94857
6.00775
162.483
164.612
117.486
127.333
107.057
103.164
91.9346
72.604
41.2175
23.9316
19.0918
16.9885
12.7725
7.7733
5.20849
4.80592
5.22498
5.74094
5.93695
6.01045
186.983
174.419
129.625
112.247
95.9892
85.7085
74.5613
58.1271
38.1562
28.6232
24.9126
19.8507
11.2916
4.73159
2.94698
3.33776
4.80106
5.57146
5.86982
5.98865
299.1
265.888
188.982
121.21
67.5702
47.2271
37.845
30.9675
26.889
20.1686
12.2766
5.61704
2.43296
1.94684
3.03393
4.63461
5.46674
5.81647
5.95758
6.0139
161.187
173.595
123.949
111.609
64.3096
58.4877
40.3029
31.2751
19.1679
12.0252
6.81513
5.04069
4.61971
4.80551
5.34747
5.74008
5.90902
5.98029
6.00971
6.02604
353.143
124.58
91.9381
97.8674
51.4439
55.1687
27.5075
15.7876
9.7628
7.92034
7.4438
6.93662
6.65375
6.33658
6.17654
6.04563
5.98514
5.93997
5.92827
5.92927
95.9631
68.1139
32.3349
13.8762
7.42446
5.53005
3.86731
2.38348
1.2952
0.602709
0.254062
0.110265
0.0662965
0.0577695
0.0565676
0.056537
0.0566764
0.0569661
0.0571057
0.0572425
24.0278
33.2191
57.8287
62.1935
62.7897
58.4697
48.8259
39.1032
30.1936
21.5195
13.6597
7.39082
3.42771
1.34183
0.458534
0.155245
0.0738689
0.0595668
0.0576495
0.0573712
169.634
143.188
108.41
94.8104
75.9003
63.3553
56.409
45.7682
31.0473
15.653
7.64074
4.30191
2.98608
2.68539
2.67997
2.86624
3.63033
4.46938
5.00625
5.52206
210.995
218.438
140.203
88.7229
60.2996
47.1081
39.5577
38.5325
37.1462
33.1993
25.2337
16.2272
9.92376
6.89654
5.80413
5.64808
5.75296
5.93648
6.01168
6.03197
216.832
199.485
184.396
141.103
106.987
63.0631
33.6171
26.387
23.7044
19.27
14.5303
10.507
7.97888
6.78918
6.37311
6.21931
6.16355
6.10629
6.07643
6.05127
130.474
174.644
167.747
116.72
72.505
39.3581
26.5269
23.7762
20.9511
15.9789
11.7774
8.85915
7.41693
6.68508
6.39316
6.23607
6.1663
6.10547
6.07719
6.05188
150.93
138.92
98.4783
91.4957
65.3894
31.3418
34.4328
32.8215
25.7008
16.4926
11.8443
9.07242
7.69309
6.95853
6.54055
6.31353
6.19727
6.11694
6.08092
6.05406
138.463
126.262
81.7125
74.2503
64.0464
37.5035
42.0002
42.1701
29.2188
15.8598
11.8119
10.0065
8.87782
7.65704
6.95712
6.51774
6.30018
6.16087
6.09571
6.05723
312.606
174.292
103.161
81.6679
51.8657
38.0319
40.9598
51.2787
31.7236
25.7869
21.0758
16.1372
13.2818
10.6386
8.17283
7.20344
6.64515
6.32386
6.17701
6.09057
266.322
143.832
77.476
68.7286
37.7691
34.5608
49.4103
42.6265
30.5278
17.6911
2.66662
2.94814
9.07212
7.61212
6.83173
6.46767
6.33674
6.2127
6.15688
6.09951
155.436
168.448
141.744
85.724
51.0799
40.8493
40.285
49.8095
45.5688
14.8292
14.092
11.9023
8.79133
7.34047
6.25518
5.53394
5.62642
5.75012
5.88037
5.98889
227.853
231.821
135.809
80.0835
60.0526
54.3095
39.6222
30.1187
42.0029
58.1692
23.8753
13.0084
13.6605
7.58821
5.5963
5.98872
6.01491
6.0237
6.0379
6.04429
183.272
150.24
118.113
95.8721
75.9473
63.8691
53.4264
49.5385
46.8466
39.6463
24.5545
17.9173
13.4507
9.02335
6.61329
6.53037
6.37474
6.24233
6.17416
6.10451
179.464
122.866
109.509
91.076
69.9789
55.2856
47.4919
44.5129
42.3867
29.5214
16.4915
12.4483
9.97905
8.60134
7.29708
6.70033
6.37887
6.19382
6.11483
6.06952
103.691
126.191
99.2484
84.2789
72.2847
64.8836
54.2144
39.8949
27.9513
21.2243
16.3844
12.4814
9.82263
8.01986
7.02899
6.49633
6.24998
6.12137
6.06959
6.04805
141.56
108.244
84.5353
101.149
87.5816
73.8745
62.7368
44.6303
28.9197
20.8639
15.7933
12.9777
11.0252
9.06425
7.58529
6.71828
6.32302
6.13797
6.06988
6.04557
168.951
132.577
115.461
103.703
73.3673
52.8146
43.2221
33.2378
26.1451
22.0859
17.1786
12.6179
9.6784
8.3963
7.57662
6.82305
6.39449
6.16397
6.07599
6.04591
273.598
201.98
120.594
80.2776
42.2215
30.0338
30.6254
25.9896
18.3674
12.8099
8.99533
6.73744
5.97299
6.0535
6.28181
6.28182
6.18415
6.08456
6.04917
6.03815
294.165
178.071
87.2686
49.8227
39.2638
33.401
27.051
22.5105
16.7509
12.6499
9.47071
7.92666
7.022
6.60604
6.36005
6.20859
6.11695
6.06266
6.04147
6.03497
281.956
98.3063
70.3927
58.8685
36.5451
30.5046
20.7368
12.7044
11.3586
9.6892
8.8816
7.67348
7.0446
6.52683
6.26838
6.08215
5.99823
5.94327
5.92846
5.92897
56.936
40.5803
26.0075
17.3377
12.2231
8.18059
5.04441
2.70194
1.27857
0.525145
0.203573
0.0912982
0.0628406
0.0575307
0.0565894
0.0565505
0.0566671
0.0569602
0.0571044
0.0572418
40.7943
59.8323
83.9474
84.486
81.2082
67.6554
55.3573
45.7177
37.5354
28.7561
19.933
12.0678
6.2377
2.62337
0.903235
0.279161
0.0977221
0.0617067
0.0577069
0.0573575
120.809
130.508
126.029
111.307
91.5482
74.7545
70.2206
68.7276
65.6421
46.2162
18.7883
8.18573
6.28384
7.03038
6.57108
4.41913
4.26193
4.69367
5.25746
5.739
171.83
139.671
118.712
89.4269
79.2971
65.1461
58.1721
53.2506
53.2906
53.194
51.5547
40.7412
25.7883
16.4645
9.99783
6.93662
6.26281
6.20399
6.222
6.22804
215.555
172.808
145.062
119.612
98.9279
67.4805
52.6784
46.6697
41.707
32.6357
26.4662
21.1731
15.3585
10.7752
7.96705
6.69614
6.38507
6.28019
6.24329
6.221
117.944
165.319
144.306
92.0803
68.8998
52.5796
44.8477
37.6289
30.5845
22.9052
17.3636
12.8441
9.63215
7.79283
6.86719
6.45167
6.33361
6.26915
6.24364
6.22371
157.251
166.972
116.02
81.3909
68.9537
58.1272
58.3255
53.7759
37.6079
21.5997
14.1111
10.2071
8.24105
7.23836
6.70133
6.44126
6.32705
6.25402
6.22419
6.20991
136.198
162.61
108.137
78.3508
73.1755
63.7193
64.0559
65.6149
48.0685
21.3964
12.8475
10.117
8.90913
7.67619
7.04395
6.63518
6.44001
6.30924
6.2499
6.2206
362.679
209.798
130.85
83.4909
63.5205
53.6341
47.8338
55.9541
48.2994
28.4893
19.1111
15.8735
12.9658
10.6436
10.0817
9.29662
7.94235
7.04668
6.58094
6.31925
247.256
164.913
102.6
60.2328
54.5904
54.912
50.8993
51.3541
39.9877
27.3829
8.3641
13.2774
11.9361
7.74137
6.86217
12.5252
12.0429
9.94239
7.85617
6.69211
446.434
195.548
109.085
83.2219
57.7335
58.2403
45.6591
40.2408
41.9025
15.2056
14.0115
14.3424
9.50845
7.23225
6.5603
13.0411
12.5184
10.2497
7.98195
6.71767
199.232
162.593
114.713
86.5517
72.2638
67.2056
57.3435
46.1705
31.4556
31.186
23.696
13.6654
9.80301
7.36548
6.36778
13.236
12.7445
10.4738
8.09774
6.75488
409.802
194.088
139.992
109.358
93.4053
79.7019
65.9736
51.7974
47.7443
32.577
26.817
20.4511
15.4635
8.57131
6.68774
13.1685
12.6291
10.4207
8.13055
6.79026
100.034
129.368
122.843
98.5428
86.6952
65.781
49.6862
45.7711
37.9108
30.4496
18.2451
13.1387
10.4938
8.98404
9.02816
8.54296
7.55812
6.86073
6.50236
6.30417
120.626
118.202
103.919
80.8796
76.332
64.3736
44.5845
33.5242
27.961
21.183
15.0038
11.1653
8.87338
7.50141
6.91854
6.5926
6.42743
6.31373
6.26386
6.23711
208.166
108.512
87.601
62.0432
71.9996
55.4303
40.0321
30.8271
23.9942
19.9623
16.5021
13.9555
10.2783
8.39833
7.44551
6.83741
6.51312
6.33803
6.27102
6.23833
253.425
151.526
111.711
70.8418
64.4703
47.9783
42.2539
35.226
26.6318
20.8066
14.7779
11.1015
9.69769
8.73903
7.83811
7.04934
6.59904
6.37082
6.28656
6.24674
266.158
147.399
99.2773
63.2658
55.357
39.1371
46.2669
39.3733
28.4834
16.65
10.5417
8.5268
7.69317
7.19501
6.83504
6.55015
6.38793
6.29339
6.25712
6.23723
370.885
110.123
63.8234
36.1626
25.1214
12.8233
23.4695
19.8308
17.215
14.6572
11.9081
9.61346
8.06266
7.15308
6.69245
6.45221
6.34284
6.27654
6.25075
6.23676
193.456
64.6155
36.1084
23.2972
16.6354
10.7026
11.7189
11.8628
12.7145
13.5194
14.0311
12.9219
10.1741
8.1918
7.06896
6.49872
6.26584
6.16336
6.13659
6.13307
58.4995
30.5415
21.1206
15.698
12.2841
8.3265
4.96803
2.41468
0.988614
0.362766
0.16187
0.114286
0.0944483
0.0757379
0.064167
0.0590591
0.0575061
0.0571933
0.0571689
0.0572332
36.1525
86.7148
99.6356
98.2808
92.6993
77.7697
63.8837
50.6134
39.8938
30.1575
21.2597
13.6302
7.73842
3.64385
1.3904
0.460625
0.152321
0.0734765
0.0623483
0.061721
129.343
172.064
183.218
149.402
145.26
131.515
133.334
124.765
119.649
108.262
89.7141
43.5761
31.687
47.4236
67.6625
72.478
77.2703
79.791
81.8971
82.3235
225.144
145.295
142.136
104.863
125.607
118.568
127.378
124.935
127.554
123.509
122.787
107.483
94.3946
87.3249
86.4913
84.5617
84.5737
84.2409
84.1503
83.3507
210.374
144.497
154.165
126.57
127.445
112.769
114.205
105.011
101.818
88.9593
82.8386
79.2711
79.6916
78.9446
79.6982
79.718
80.6538
80.9091
81.2365
81.1145
178.113
167.205
159.19
102.332
104.93
85.7752
93.9084
85.05
86.1226
79.6117
79.026
76.479
77.4849
77.317
78.3747
78.7323
79.7211
79.9985
80.4578
80.4311
211.945
184.469
150.274
102.415
112.996
95.6609
106.962
97.6697
81.6588
70.2512
67.8231
68.0167
69.6056
71.7773
73.5826
74.6266
75.8996
76.8625
77.7162
78.4861
283.729
228.274
166.512
97.8402
110.281
97.3384
108.608
98.3811
67.9547
50.9544
49.0201
50.1325
57.8892
61.3817
67.8831
70.0264
73.4661
75.1819
76.7496
77.7557
258.325
258.266
192.32
106.403
118.758
113.744
111.635
85.4744
72.5553
40.2341
34.8735
32.3824
32.9698
31.2421
78.2613
74.3468
74.4759
75.1854
76.0082
76.8033
260.837
193.851
157.051
96.6696
102.471
86.0114
87.7349
82.337
70.7206
75.2255
49.3191
49.7113
47.9711
44.4075
71.0314
78.8908
74.2793
73.6958
73.9579
74.6472
255.908
173.978
139.107
80.7539
98.7328
78.596
75.5197
68.8087
83.297
86.9908
90.3494
70.6195
66.9632
61.7372
76.3712
77.9915
73.6759
73.554
73.9918
74.8882
229.027
148.63
137.31
87.781
96.3656
61.9746
48.0375
50.5157
87.1729
105.591
93.6378
87.3165
77.8626
70.3042
79.5459
78.1202
73.71
73.4443
73.8233
74.5312
287.793
168.765
163.929
125.525
127.707
108.145
87.8647
80.6985
96.3959
90.5144
78.7369
73.8582
72.0491
65.2523
78.8154
78.4368
74.1853
73.6745
74.0055
74.6702
165.978
158.528
145.553
105.447
118.907
79.6377
69.6132
53.8034
63.1157
65.2614
40.0512
36.262
37.8772
41.682
80.7967
76.3016
75.5136
75.6201
75.8815
76.063
207.606
134.371
134.118
97.7081
122.803
90.1152
94.8443
76.2389
79.0402
72.7216
73.7478
70.8607
72.0741
71.7827
73.3505
74.4594
76.3966
76.9355
77.4375
77.3327
266.087
147.519
110.44
116.312
123.796
80.3331
99.4144
79.2632
81.8232
79.0265
80.9171
77.1199
74.2002
72.1113
73.1736
74.7071
76.8814
77.1145
77.3624
77.1067
257.951
158.727
132.907
99.4289
117.84
80.3521
98.3648
80.1898
86.2017
81.0853
82.838
77.9469
75.8508
72.9292
73.9772
75.6929
78.2336
78.5422
78.6992
78.1247
221.675
170.817
127.822
91.8546
85.8996
45.8867
75.9003
57.9614
70.909
63.3832
68.5522
65.8644
68.9056
70.2162
74.0533
75.6731
77.4764
77.5472
77.6691
77.3324
389.739
174.134
89.2791
25.5436
7.92986
3.95654
34.7947
36.1797
62.4969
63.2758
71.0616
70.6886
74.1544
74.3806
76.3741
76.9342
78.0279
78.014
78.1131
77.8064
287.174
154.486
29.6837
14.6392
11.5605
5.38127
4.05767
5.38094
38.0211
43.0611
60.2806
62.6517
70.3937
71.4526
74.7083
75.3455
76.7558
76.9019
77.2479
77.1481
103.33
20.5296
12.1781
9.09393
7.41107
4.72481
2.60701
1.0707
0.415168
0.195305
0.18145
0.198971
0.275463
0.314568
0.340085
0.313933
0.272905
0.199911
0.158168
0.103224
11.9982
42.8739
30.1643
15.4787
15.4758
25.6997
28.0035
13.3969
27.0873
19.3601
15.1423
12.611
23.4862
15.4624
30.4751
47.3251
33.8648
27.8357
23.2799
37.2419
24.5245
13.1677
26.6698
19.9645
20.0475
15.2487
24.1184
22.7129
14.5392
20.837
3.9702
49.0685
24.6495
33.4838
10.401
2.39656
2.0326
1.00341
11.3972
4.59605
9.00803
18.8465
1.41285
1.38546
1.86043
5.82312
31.3911
27.5109
13.1971
0.844619
2.6023
2.32741
29.0069
6.23483
6.8554
5.06812
0.769534
2.22756
1.15188
5.08599
3.78328
6.93962
14.8012
0.779094
0.881737
0.727223
3.25299
3.11687
13.1419
3.52048
0.714242
0.732153
0.733301
3.76515
6.4994
3.33688
5.28893
0.688085
0.716342
0.701096
6.82923
7.55956
5.83443
6.28325
6.02205
85.9336
35.392
48.2296
11.7924
42.4728
29.9768
0.910762
23.4032
5.39235
8.03545
20.5135
24.6565
10.1081
4.78572
4.65836
37.2291
27.963
8.43248
8.38535
14.4501
3.66003
34.7119
16.6103
6.93527
4.91265
14.6468
10.7693
1.71388
12.4138
3.9032
5.54869
15.3978
10.895
16.3947
0.727693
2.70216
0.944072
15.7499
5.39337
16.7555
12.4758
0.725138
0.80353
0.721835
4.04374
4.68793
8.35784
4.8889
0.699154
0.716583
0.697883
5.54274
6.31536
4.97751
6.00286
42.8542
79.8166
67.58
33.5198
25.5822
36.2528
34.7513
14.0833
66.8928
63.3642
23.4369
12.8713
33.6242
31.707
45.2683
64.6521
38.7439
10.5732
18.8894
30.0132
63.4996
23.0848
36.0051
16.8583
19.7308
15.5957
62.7596
38.3636
4.30199
9.69995
2.73071
16.1401
17.9139
27.9257
19.8442
1.0425
2.13192
1.01687
17.8129
14.2046
19.5569
16.8814
0.732518
0.863646
0.748192
10.3396
5.56519
14.5199
8.30132
0.696928
0.729594
0.699196
5.47325
6.01407
7.24512
6.30737
97.6019
157.071
113.596
57.2123
46.2205
60.9964
52.4978
78.0516
99.5393
74.6969
44.2782
34.9789
51.3988
53.6029
37.7176
53.5086
45.3413
35.1257
72.2798
64.4882
57.0581
10.1203
42.6089
7.70926
71.1504
29.1724
52.3121
24.5478
1.85109
3.84461
0.851449
22.9281
18.0976
19.9105
7.87735
0.800495
0.732996
0.664451
17.9956
16.5511
6.10092
5.35605
0.732886
0.66484
0.666108
14.2151
8.40263
5.71285
6.74439
0.699292
0.666085
0.6325
7.40212
6.32108
6.76767
6.66726
41.2748
36.7853
36.8558
58.261
44.6195
52.213
44.2072
20.9378
33.8731
26.8764
35.4924
25.4296
39.8067
35.3471
32.4274
33.0976
9.82256
27.3558
31.1893
42.3038
20.0612
8.25438
5.33665
4.28546
18.7187
3.28517
12.6763
6.77999
3.91191
6.65518
15.3671
2.78011
2.45054
8.00446
10.1483
4.21963
12.6216
5.49822
2.57674
8.34018
9.59729
8.53276
7.22072
5.75288
6.91869
8.69073
7.77344
8.20265
7.23812
7.32409
6.91645
6.4784
7.53816
7.28317
7.00644
6.48369
22.6286
46.0551
29.6894
45.7806
46.3262
35.8504
29.8108
27.3956
22.102
12.5938
45.0738
37.4487
28.7649
32.7259
6.91555
10.6992
9.21095
41.9532
21.8851
32.2366
28.454
4.36564
9.18112
10.6539
14.4342
10.3521
32.2701
28.1762
17.8748
12.8133
17.0912
13.7573
14.8446
24.948
19.9435
6.99487
17.1007
12.9264
12.86
9.31514
17.7779
13.3385
7.03911
10.1697
7.5879
8.71573
7.46068
12.1541
8.70917
6.57568
7.26015
6.42965
7.23962
6.58926
8.0189
6.9341
28.034
41.0913
39.6138
36.2399
29.4892
44.2571
46.6204
14.9922
39.5073
39.4541
28.3844
33.765
46.7005
48.0557
13.7771
34.5896
35.14
35.269
38.9434
47.7466
38.0274
14.0389
35.1445
35.3055
46.4196
33.7911
37.9599
38.4569
18.6918
27.324
18.9396
29.2754
18.1533
29.7567
19.7917
13.621
17.7568
16.2018
16.3258
13.886
18.5583
13.3687
8.37044
14.7966
9.76581
13.1364
9.15129
12.722
10.0757
6.48079
8.60527
6.69194
8.16781
6.76781
8.87239
6.7268
46.8672
58.7236
56.1797
50.4731
47.8805
53.5299
49.8759
37.2508
56.0564
50.3469
47.4907
46.6918
48.9448
45.3079
44.9534
50.2418
45.7386
45.1137
34.2403
41.7379
47.545
28.5187
45.6446
24.8221
36.7543
31.4218
51.368
21.5485
19.1539
19.3231
11.5127
25.5088
18.935
17.5835
12.7551
17.5068
10.509
9.1178
17.9171
14.2591
11.8849
10.2432
9.77579
8.83084
8.1474
13.6988
10.3534
9.71258
8.60327
6.68379
7.98662
7.40785
9.06944
6.74229
8.29409
7.76284
50.0508
48.451
47.3065
43.0046
52.8061
50.6431
41.9252
30.0483
43.265
38.1475
52.9882
37.712
38.7022
45.7488
31.0594
43.463
19.0055
36.3436
37.5399
46.4475
16.5467
3.25055
12.4623
7.29648
22.3361
6.62502
12.2986
10.5948
2.46456
8.09735
10.1499
7.0917
11.5206
11.0011
11.7539
9.00297
9.78482
8.86611
11.9136
11.4647
11.7319
9.70924
7.8641
8.39574
7.31945
10.1098
7.89192
8.73165
7.23656
7.33158
7.05393
6.53553
7.62494
7.34112
6.99218
6.51331
49.3899
35.9482
30.5974
45.1428
40.0507
42.9979
35.8394
44.1096
29.3753
32.0628
39.7687
42.5855
34.8816
37.7081
21.601
32.8166
40.0397
41.4972
17.6407
36.6705
25.1911
19.8554
11.292
18.7761
15.0918
16.8587
13.2997
20.3573
17.0616
14.3716
20.9693
15.0374
20.8884
14.7721
17.9804
9.31624
17.2862
13.8803
11.8402
9.32557
12.8961
8.88723
7.60268
12.4889
8.65953
8.62155
7.2797
7.82939
6.3919
6.72706
7.75029
6.96342
7.05996
6.67759
6.09587
5.92151
31.2675
48.8277
48.3337
52.1761
46.0397
55.0888
55.5857
35.0753
47.6384
49.5705
42.1425
44.1895
52.2407
41.1964
58.621
50.7317
49.5945
35.7741
25.7866
42.8826
44.0183
46.4705
53.1818
65.1253
48.2317
55.8197
26.187
55.0711
25.3521
18.4936
31.0715
8.66558
25.8839
4.62818
30.4714
14.1908
19.2376
13.9589
12.7714
8.30835
22.0123
17.3815
8.67182
12.8164
9.91061
7.33369
5.74883
14.9051
9.57703
6.29845
8.82554
6.75486
5.58001
5.20301
8.47276
6.66709
50.4234
55.0806
50.9943
59.9284
55.811
62.0486
55.5227
48.0466
49.776
46.3933
53.8218
47.4971
53.7724
51.8095
37.9656
43.0527
51.485
46.9418
40.8091
50.4267
56.7209
28.6232
52.3966
20.7547
35.0742
26.6711
47.1509
27.1104
18.9088
17.4251
12.8243
26.3894
20.7666
22.0515
14.2262
14.3701
11.9821
10.3686
20.5203
17.0408
13.3279
10.9847
10.1683
9.81053
8.60998
14.8159
9.70198
10.2152
8.7534
6.75253
8.29163
7.71511
8.61559
6.67874
8.40135
7.77169
51.6714
53.0556
42.9107
51.1462
62.3268
51.3726
60.0394
40.4003
38.4965
47.3777
61.6439
48.8926
54.0186
65.6585
41.7597
47.2324
16.2102
51.0689
56.8881
61.8965
34.0909
7.93668
12.1945
10.9023
51.4153
28.1235
31.3679
28.6218
12.672
10.9201
14.792
25.9037
23.2462
30.7644
26.2451
13.2622
15.8737
12.7991
21.8305
15.8595
24.5359
16.869
8.15099
10.2497
7.34945
13.4909
9.76307
14.9162
11.8294
7.32506
7.03165
6.48384
9.38178
8.87982
11.1972
8.6091
42.4497
50.4963
39.2804
49.8054
55.4173
46.2924
41.6649
43.7179
37.5461
39.0239
52.715
53.64
40.3656
38.0111
17.0206
34.822
27.5471
43.3015
34.1115
38.3873
50.7393
14.6319
28.7999
25.5239
32.3157
36.7782
58.7485
58.1222
14.1829
22.0588
15.6293
37.6864
28.4179
51.9876
32.3446
11.0181
13.6874
10.5481
26.1464
19.0017
29.1995
25.0343
7.47286
9.72919
7.8602
17.6898
14.3474
23.8221
19.2061
6.59632
7.50134
6.70626
13.2879
10.1673
17.8301
10.9768
49.5823
56.4398
52.5544
46.1376
40.0194
62.7732
71.5669
38.541
48.7712
40.6542
39.4766
39.517
73.2346
82.1887
29.2097
40.3291
34.968
41.3849
65.8692
82.5518
65.0785
28.3404
32.1714
24.588
68.5165
61.384
56.6484
42.4363
15.5393
24.4629
23.456
58.4339
44.5625
39.9287
39.0757
10.639
22.8232
18.5266
38.7627
26.2962
38.4061
30.2301
7.7637
15.7209
9.63747
23.6354
18.2134
26.6679
17.3787
6.45972
8.45733
6.6112
16.9511
10.8472
15.4942
11.3448
54.6644
66.9263
57.4408
81.0395
64.5337
85.2648
62.6913
47.6349
56.1722
55.4762
65.8013
73.3012
57.1723
49.3575
38.367
55.2429
55.6695
67.1731
53.4154
48.6835
43.0592
26.56
41.8747
33.0304
50.0779
35.6831
38.2321
36.0183
20.6378
28.576
13.9421
34.2855
32.2441
34.7048
18.2934
18.2784
12.767
10.9157
29.5675
25.3216
15.8208
12.9106
9.6646
10.2456
8.91056
23.4727
16.5096
12.2387
10.853
6.66722
8.55127
7.80051
15.0958
10.1669
10.8725
9.66945
86.4346
79.4487
67.0601
215.647
203.87
174.454
178.831
63.0225
62.9736
84.3477
189.844
183.928
160.406
136.443
79.3897
82.4803
86.249
171.169
120.614
140.274
142.812
55.4406
85.4799
81.2246
121.175
130.5
142.098
139.836
47.8311
81.5354
72.7439
139.847
146.632
139.32
141.47
49.4544
66.2016
59.4973
147.736
152.005
142.6
145.623
44.3127
59.1685
57.1051
154.632
158.154
146.631
150.414
33.2187
55.999
42.0816
159.67
169.908
151.512
158.304
66.173
50.5234
55.3734
186.426
197.242
161.404
194.697
84.5426
59.3838
68.3496
180.787
150.303
189.617
172.878
88.7182
80.4281
104.542
150.448
148.875
166.289
153.007
90.1837
105
97.5165
148.161
141.287
149.814
146.558
77.0311
94.3487
83.1765
139.823
141.609
146.72
147.595
66.9687
81.5207
79.3979
142.636
145.337
146.667
144.353
63.7085
78.5349
73.5634
146.164
149.6
144.944
146.887
45.0296
71.6806
55.2431
150.782
158.105
147.821
153.325
47.6311
70.9044
79.7332
157.939
192.833
143.704
180.624
70.7284
82.273
95.1147
189.016
171.619
175.63
149.713
107.29
96.3498
95.3187
163.963
147.037
143.593
141.16
95.5706
92.903
92.1736
144.256
146.494
143.331
146.949
89.4307
90.8012
88.1313
148.427
150.132
146.985
145.552
80.0549
88.4043
81.4922
148.377
144.751
145.051
145.979
72.1603
78.1223
68.5018
145.165
146.979
146.223
146.608
54.8481
66.034
50.7635
147.843
153.835
147.077
151.63
77.0952
95.1682
69.5507
154.681
196.935
157.467
186.46
93.265
59.5244
51.952
186.863
149.939
182.655
165.128
93.9679
54.6758
60.5563
145.082
148.569
166.117
186.971
84.6659
61.0412
45.2962
151.415
150.682
189.112
195.647
73.8178
39.0709
28.6804
148.097
141.412
192.19
172.858
72.7046
29.1377
35.0768
141.125
144.916
164.179
157.183
66.6756
37.5843
41.9262
145.609
146.42
156.292
156.476
52.0576
44.6289
36.1713
146.782
152.099
155.885
164.94
19.0592
10.7694
18.7182
14.9068
16.638
13.4477
18.4238
25.4688
29.4846
42.3833
42.2244
28.2313
31.5851
14.3417
20.4332
24.4897
36.1044
11.432
25.0841
17.239
16.5986
20.5624
15.2868
15.2096
19.5383
14.8214
20.5924
20.6616
20.1878
15.8379
15.4432
20.4643
15.4397
19.3166
20.9515
22.6053
28.3989
23.6844
27.8756
25.861
6.8824
25.2047
19.1486
4.52
24.4201
28.897
15.464
6.83662
25.509
15.8022
14.2272
17.538
12.7734
19.9554
13.9936
13.8189
13.955
25.0018
23.3502
7.09743
24.6717
14.6856
4.2063
12.0561
19.1603
20.1899
5.3992
22.3829
10.6461
1.82687
14.9837
15.4354
14.0682
18.1144
14.3814
17.0855
15.3585
13.7074
12.4774
13.204
12.202
13.3568
12.2952
13.6182
10.8927
2.84234
19.9323
20.0848
12.0418
1.83622
16.1148
9.10191
3.05159
11.2388
16.6447
8.00136
0.933048
13.1308
39.525
38.8717
36.599
14.7571
43.823
21.1969
34.8843
47.1642
57.201
44.696
47.7185
48.982
57.9259
43.283
40.0886
36.1626
41.527
29.2264
42.3262
32.5384
36.6207
33.5281
29.6664
29.0099
29.3515
14.3519
36.2331
30.524
31.1506
8.33769
27.2139
29.6423
12.3773
29.7143
30.5887
38.2207
44.8625
34.4224
31.7479
45.7112
37.1346
31.9541
32.4919
25.6906
26.1136
26.819
27.4033
29.9881
29.2806
21.8078
13.0089
18.5314
3.14859
21.998
2.46935
17.5582
22.8228
28.7647
22.6797
24.7886
23.5788
26.3497
22.5288
20.7818
19.5929
20.7068
20.667
20.9419
19.3532
21.2881
22.547
4.87377
18.903
25.6039
2.76467
26.8625
21.0556
19.5689
3.23511
16.14
16.501
1.55178
16.3176
18.4047
22.555
23.9932
23.8212
23.9803
24.2811
23.2153
22.629
20.9045
21.6602
19.5227
23.6342
19.2161
22.4305
21.3403
9.97683
24.2369
12.4886
26.3657
25.4104
22.4168
24.7376
2.07405
4.83663
1.92234
10.7502
6.19764
12.5374
5.48417
0.29137
0.814007
0.680227
6.02395
11.3066
7.46597
13.5085
0.457937
0.520597
0.429715
10.7493
7.52398
9.90247
6.60578
0.39705
0.44705
0.482352
5.69746
5.82444
6.54936
7.14057
0.380028
0.488337
0.484599
7.19083
8.94276
7.95854
8.27611
0.345751
0.478045
0.457352
9.25765
9.13003
8.41347
8.55785
0.313262
0.397456
0.348995
8.06251
7.71837
8.43813
9.45162
26.398
17.3517
13.4229
22.4919
19.6026
31.5336
24.376
25.2871
35.7212
40.7545
26.325
25.2577
25.3564
30.0527
5.16063
4.80169
4.8044
8.21388
5.69392
8.14675
2.74642
5.3596
1.23327
1.20155
1.72705
2.36431
2.04085
1.37276
5.95553
0.91664
1.25121
13.8196
7.48092
9.7623
1.16449
4.18297
0.735454
1.0869
4.36368
4.44015
4.29412
0.910363
4.65692
0.794661
0.738691
5.38023
5.36782
4.59386
0.74101
4.44697
0.721284
0.7413
5.00601
5.11453
4.46196
0.730382
5.83638
0.70279
0.697459
6.17764
6.50639
5.16039
0.692753
0.333209
0.315223
0.316275
6.5528
6.65356
6.2101
7.22878
46.036
91.8252
61.7219
71.5271
60.8398
60.4826
47.3402
26.1228
25.4011
60.6127
30.3719
19.9045
37.9767
41.5575
5.48239
1.36143
6.06992
6.42156
4.13109
9.05139
2.78853
6.28335
1.25351
1.00529
8.45909
10.4674
5.88772
1.42765
31.9317
5.19343
11.9229
13.449
16.2589
25.6748
9.89133
22.8588
2.96415
5.25761
17.7828
16.2159
26.9277
4.20915
8.94032
0.906241
1.65286
9.02753
6.8682
11.8154
1.15055
4.02118
0.722542
0.725084
4.16712
4.02458
4.40428
0.718162
4.46322
0.707392
0.715455
4.49521
5.54202
3.92439
0.708032
0.326013
0.330812
0.325906
6.20797
7.20465
6.00795
7.01285
49.5783
56.6434
44.2537
40.1465
34.9902
39.8446
35.2666
37.9694
64.708
77.3737
47.7399
42.5754
43.8577
66.9017
24.2664
25.7973
47.7196
23.6437
18.6619
26.9994
40.8582
28.4678
27.3766
34.763
11.1375
15.2562
21.9994
48.6812
104.762
33.3865
38.3509
88.7405
98.0851
100.759
36.817
35.1915
10.3724
15.8521
52.3299
34.6329
53.3452
9.98497
15.4426
2.05588
3.04077
18.2675
14.76
19.4024
2.12259
5.60246
0.778041
0.875817
6.68071
5.33544
6.97262
0.7947
4.48394
0.707718
0.722932
4.26434
4.31275
4.45715
0.708323
0.325349
0.330546
0.326259
6.00815
7.00372
6.09448
7.11992
85.9985
129.782
98.3154
82.0077
63.1162
86.4327
71.292
75.5574
115.55
142.113
70.2649
65.935
82.9126
127.036
70.9057
85.9831
108.061
61.177
57.9595
70.1007
101.899
73.2761
73.504
91.0824
59.5383
68.1405
71.4197
76.1316
59.4729
25.7069
33.7567
77.8236
67.7301
77.5975
24.5238
17.8604
3.75048
4.54109
23.7919
20.4579
22.7574
2.63027
3.62199
1.09351
0.930442
7.84168
5.97028
5.09985
0.800092
3.16916
0.739352
0.697061
4.8185
4.62141
3.04829
0.695096
4.51961