/*--------------------------------*- C++ -*----------------------------------*\
  =========                 |
  \\      /  F ield         | OpenFOAM: The Open Source CFD Toolbox
   \\    /   O peration     | Website:  https://openfoam.org
    \\  /    A nd           | Version:  10
     \\/     M anipulation  |
\*---------------------------------------------------------------------------*/
FoamFile
{
    format      ascii;
    class       volScalarField;
    location    "0.8";
    object      p;
}
// * * * * * * * * * * * * * * * * * * * * * * * * * * * * * * * * * * * * * //

dimensions      [0 2 -2 0 0 0 0];

internalField   nonuniform List<scalar> 
12920
(
113599
256135
276775
300439
284519
291937
276016
267586
251433
237841
220171
203386
183712
164098
142139
120587
97881.2
74703.6
54356.3
34472.7
30397.8
234486
264783
292402
285861
291333
277076
268468
252666
238246
220456
203417
183916
164234
142471
120710
97741.7
74546.1
54184
34340.7
186414
383377
317234
336619
306400
306560
285855
275944
257503
242953
223899
206244
185498
165168
143080
121050
97757.6
74550.1
54085.6
34220.5
407628
431079
322948
331168
309429
310608
293836
282026
263496
247166
227658
208652
187621
166560
144278
121914
98327.2
74859
54185.1
34128.6
382038
440389
341660
354178
330142
327936
305296
292843
271500
254660
233276
213636
191195
169433
146312
123355
99333.6
75478.9
54426.7
34074.6
428080
475289
365277
366080
328396
337224
313869
302143
280949
260556
239727
217904
195480
172525
149183
125461
100863
76415
54902.1
34072.1
284867
443319
352421
381868
350202
356006
331661
319152
292256
269633
246256
224562
200629
177642
152671
128193
102714
77645.6
55488.1
34098.6
471860
467150
381398
406046
372134
371975
351374
331331
307430
281365
257509
236038
212106
187878
157312
131391
105132
79210.7
56336.3
34159.2
207233
464914
400621
430295
397671
391987
367996
347373
320734
296458
272549
248365
223386
197065
167227
134849
107962
81068.2
57360
34285.5
383348
495800
410608
445098
420131
413987
388909
362943
335473
310535
285550
259446
232561
205031
173673
139493
111353
83379.7
58579.3
34523.2
767170
616303
477341
490952
447219
436319
407854
381135
353821
327012
299660
271430
242135
213141
180071
144390
115008
85834.7
59941.8
34840
540824
621385
515358
529029
483838
467990
434476
403543
373579
343610
313374
282513
251794
220987
187646
149262
118505
88303.2
61277
35154
500599
654053
593577
583827
522097
500227
460834
427458
392466
358949
324949
291977
258682
226097
185607
153808
122015
90793.3
62634.6
35441.5
623234
751984
646349
634482
561659
532527
480100
446185
403293
369566
329685
295531
258438
224954
190630
157863
124799
92486.8
63497.7
35620.1
780167
822447
706035
679682
593448
565316
501827
465872
418956
382139
340656
304047
265913
230536
195335
161513
127288
94279.5
64466.2
35825.9
971529
907928
778945
726840
637784
600656
530103
489896
433307
395648
349840
312243
271970
235764
199239
164637
129641
95895.4
65286.8
36001.9
1.1374e+06
1.00814e+06
823249
769077
669040
627830
546794
508235
444446
405735
357577
319025
277399
240449
202818
167336
131578
97247.3
65995.7
36094.4
1.00518e+06
1.03998e+06
848135
798051
697331
650525
567374
524022
457788
415660
364789
325027
281759
243919
205167
169143
132858
98149.1
66509.7
36196.8
1.00564e+06
990341
863277
815033
718518
664647
578790
535352
463206
422566
368844
328942
284450
246268
206928
170619
133891
98839.1
66854.8
36250.1
927696
976119
856705
833785
727685
673848
587185
539378
470546
426079
372229
331005
286104
247450
207848
171328
134397
99134.2
66982.4
36222.7
147943
268338
281509
303287
284632
291388
275749
267208
251121
237755
220089
203370
183855
164150
142220
120470
97827.3
74614.2
54314.3
34448.2
68023.3
249243
271978
294091
286186
291403
276865
268031
251944
237554
219948
203120
183815
164214
142484
120645
97662.4
74485.8
54155.9
34327.9
154954
393997
324163
337283
306747
306631
285731
275766
257297
242808
223844
206199
185509
165149
143062
121027
97729.4
74534.8
54074.8
34218.3
384137
421361
321535
330831
308974
310787
294600
282145
263343
247128
227574
208607
187634
166548
144278
121904
98321.1
74859.3
54183.5
34131.9
434343
449727
345148
354248
330222
328088
305312
292855
271525
254676
233289
213648
191197
169436
146306
123352
99331.9
75479.5
54427.1
34079.5
420253
459875
372568
365460
328281
337288
314133
302268
281145
260606
239696
217883
195460
172518
149184
125459
100862
76415.6
54903.3
34078.8
97525.1
449810
359490
380565
352438
355385
331784
318867
292191
269789
246220
224556
200619
177634
152665
128191
102713
77644.6
55489.3
34104.8
407958
458054
376329
405457
374219
371503
352195
330568
307106
281725
257570
235986
212140
187888
157298
131376
105126
79205.2
56337.1
34166.6
372889
448043
404943
431720
398513
391433
368307
347017
320373
296642
272547
248423
223441
197069
167233
134829
107943
81056
57357.9
34292.1
268695
456658
408449
445794
420559
413859
387685
362680
334963
310576
285592
259427
232535
204991
173682
139465
111330
83364.7
58578.8
34532
662240
592864
478128
490473
447202
436298
407613
381195
353826
327065
299760
271365
242081
213145
180051
144359
114988
85820.2
59938.9
34843.6
533632
615105
513671
529120
482973
467509
434293
403036
373289
343544
313375
282503
251806
220992
187627
149261
118481
88286.1
61273
35159.4
610651
665707
595183
583633
521366
499289
460297
427359
392274
359025
324918
291980
258685
226098
185664
153809
121982
90781.3
62631.6
35444.3
701858
764292
646699
633135
560319
533309
479689
446460
402913
369545
329397
295368
258422
225067
190719
157846
124837
92466.2
63486
35618.5
768633
818292
700660
676453
592325
566015
500583
465861
418462
381898
340433
304047
265944
230556
195319
161503
127183
94292.8
64471.6
35828
949871
903048
784400
728759
637830
600723
528714
489762
432995
395564
349677
312233
271882
235670
199121
164525
129594
95849.7
65271.4
36001.2
1.03313e+06
987577
826865
769239
671479
628062
546652
509321
444262
405944
357406
318926
277227
240324
202695
167235
131534
97223.7
65989.7
36104.3
962881
1.03545e+06
849151
799033
698585
650676
566595
524459
457117
415615
364585
324933
281640
243830
205114
169117
132843
98147.5
66509
36204.7
1.05644e+06
990797
867603
813923
720329
663656
579102
535281
462267
422475
368621
328863
284401
246236
206905
170609
133888
98840.6
66856.3
36261
1.03591e+06
1.0086e+06
865871
839090
728218
673740
586990
539293
470461
426045
372195
330985
286094
247442
207843
171325
134396
99135.6
66984
36233.9
310744
310220
289428
304658
285227
291396
275689
266923
250816
237272
219782
203451
184153
164318
142515
120521
97686.4
74500
54251.4
34401.6
180879
276754
274282
295240
286294
291515
277276
268273
252496
238030
219788
202915
183805
164206
142546
120659
97597.2
74473.3
54117.9
34303.7
374882
363994
326315
338012
305902
306182
285435
275574
257132
242605
223828
206230
185573
165187
143079
121021
97704.4
74519.5
54061.3
34211.3
387794
404124
321339
331470
309285
310407
293660
281869
263254
247106
227577
208608
187639
166538
144280
121900
98318.6
74859.1
54180.5
34131.9
385654
421184
341054
352405
330848
328230
305150
292843
271533
254708
233317
213674
191190
169442
146306
123353
99330.5
75480.1
54426.6
34081.3
325127
443264
366522
365745
333100
336376
313815
302403
281379
260697
239698
217870
195436
172501
149183
125455
100860
76415.2
54903.8
34081.3
268145
444660
361570
380882
356058
354701
331275
318995
292671
270110
246283
224565
200606
177616
152657
128184
102710
77642
55489.9
34108.3
378744
462199
374225
408394
374764
371356
351364
330883
307586
282250
257743
235997
212134
187871
157277
131360
105118
79195.7
56336.9
34173.3
431886
446766
406997
434109
398179
391563
367836
347066
320400
296591
272579
248575
223399
197012
167224
134779
107917
81030.2
57351.6
34297.2
191516
431375
415415
447863
419946
413211
387148
362164
334664
311231
285809
259430
232463
204906
173679
139414
111290
83333.2
58572.2
34539.1
414004
544016
477934
489410
447495
436498
407506
381140
354313
325578
299942
271425
242013
213116
180018
144319
114954
85790.3
59930.4
34845.5
540330
611762
513474
529184
482565
466794
433606
402393
372765
343789
313553
282560
251782
220991
187618
149228
118434
88250.7
61264.6
35162.5
605483
671955
595398
583674
521107
499033
459849
427084
392022
358852
324943
291974
258676
226123
185741
153833
121966
90768.4
62625.2
35442.8
721932
764661
649773
630493
558686
533618
478709
446526
402230
369088
329006
295331
258481
225225
190770
157750
124845
92478.9
63488.3
35613.1
829078
826951
699884
673437
592159
567321
499515
466745
418099
381737
340361
304205
266045
230618
195290
161414
127124
94245
64454.8
35823.8
780076
876782
781395
728123
638076
601681
527778
490443
433357
395725
349622
312296
271869
235565
198850
164391
129509
95777.7
65242.6
35995.5
1.07957e+06
978811
833225
769231
676045
628607
547341
510418
444237
406367
357311
318795
276954
240081
202448
167094
131457
97183.9
65978.9
36111.9
1.1158e+06
1.02998e+06
854238
794659
702004
650932
567716
525345
456786
415586
364278
324730
281461
243702
205019
169082
132828
98140
66506.3
36209.1
1.18712e+06
1.02288e+06
873401
813322
720801
662000
580202
535283
461863
422257
368400
328787
284346
246202
206885
170594
133883
98838.2
66856.2
36264.7
1.03846e+06
979029
853038
840278
727316
672971
586766
539195
470387
426017
372101
330947
286069
247429
207834
171320
134394
99136.2
66984.7
36237.3
503190
356797
301563
307009
286029
291530
275723
266775
250634
237051
219466
203341
184317
164751
142784
120661
97629.7
74473.5
54194.9
34357.5
197595
292799
281045
297609
286929
291528
276838
267979
252315
238049
219796
202613
183728
164237
142572
120674
97549.4
74449.8
54097.5
34284
463814
376628
326893
339991
306115
306332
285157
275130
256946
242330
223724
206280
185675
165286
143100
121034
97696.2
74506.4
54053.1
34204.2
385222
393318
321161
333581
308805
309873
292938
281343
263072
246983
227620
208553
187676
166534
144270
121891
98317.9
74860.2
54177.5
34130.2
328599
406881
345979
354432
331377
328178
305228
292944
271565
254808
233421
213733
191215
169454
146301
123351
99330.2
75480.2
54425.5
34081.1
414982
440795
371023
367006
334498
336446
313983
302213
281644
260859
239745
217872
195426
172493
149181
125452
100859
76414.7
54903.9
34082.2
337883
455243
379240
383627
357619
354581
330992
318367
293497
270676
246460
224635
200601
177598
152645
128179
102707
77639.1
55489.9
34110.1
294471
478198
379173
406947
374806
370871
350062
332135
309365
282548
257719
236079
212111
187844
157254
131337
105106
79183.2
56335.6
34179.2
437438
449618
414290
433651
396716
392925
367590
347258
321211
297057
272711
248624
223269
196950
167216
134676
107875
80990.6
57340.4
34301.5
110603
410158
402437
446486
416970
412122
386608
362010
335257
311622
285850
259265
232357
204750
173692
139315
111216
83278.7
58559.2
34546.2
396756
516974
471688
487972
447916
436495
407277
381073
354567
327119
299880
271013
242051
213047
180043
144227
114884
85734.9
59916
34850.5
377437
604586
509406
528965
481049
466002
433002
402323
372792
343864
313491
282554
251753
220953
187655
149092
118356
88194.4
61253.8
35169.1
657728
681188
601775
583759
519663
498454
459369
426800
391401
358592
324970
292007
258634
226150
185718
153849
121946
90757.5
62615.4
35439.7
655140
764034
641971
627644
556919
533871
477962
446616
401743
368888
328731
295180
258495
225316
190833
157707
124824
92506.1
63493.7
35607.6
743187
825381
695499
669485
593681
567668
499377
467112
417893
381588
340157
304250
266108
230686
195174
161343
127094
94181.7
64424.5
35813.9
757326
872985
783581
727030
639503
602966
527248
490780
433349
395814
349614
312329
271747
235392
198651
164254
129439
95698.5
65205.7
35987.6
1.0367e+06
972053
838585
766790
678940
629470
548006
511344
444444
406651
357222
318740
276782
239899
202299
167011
131405
97150.3
65966.6
36115.8
915690
1.03292e+06
857973
792320
702747
650905
568247
526141
456275
415574
364141
324671
281345
243603
204957
169050
132815
98132.2
66501.8
36211.3
1.18442e+06
1.04028e+06
880869
813670
720858
661570
580338
535633
461303
422085
368253
328723
284300
246172
206865
170578
133876
98834.5
66855.3
36265.6
883407
984728
855355
841877
727539
673090
586979
539769
470165
425925
371951
330897
286043
247418
207827
171315
134390
99136.6
66985.8
36238.7
493692
382730
303980
307778
286475
291607
275785
266819
250647
236832
219235
203345
184212
164771
143028
120731
97611.1
74448.5
54174.5
34336
234967
306998
283327
298485
287108
291923
277113
268298
252248
238087
219836
202734
183617
164264
142655
120702
97540.8
74444
54089.5
34273.9
466253
378709
325324
339908
305909
306591
285043
275111
256940
242244
223646
206280
185701
165320
143147
121052
97691.7
74506.3
54048.9
34199.9
378328
375874
324698
335843
308390
309256
292196
281147
262889
246744
227887
208689
187686
166547
144262
121877
98317.5
74862.3
54175.7
34128.8
193052
383319
341346
353516
330555
328042
305046
292793
271600
254923
233596
213833
191220
169465
146307
123351
99329.7
75481.5
54424.9
34080.6
336184
428579
372655
367387
334909
335983
313964
302052
281848
261039
239819
217906
195429
172487
149180
125449
100858
76414.4
54903.7
34082.1
465291
449621
382825
384893
358121
354233
331059
318118
293836
271006
246577
224705
200614
177588
152635
128173
102707
77636.8
55489.6
34110.6
328984
465145
379971
405542
374461
370953
349483
332586
310535
282874
257805
236142
212063
187794
157190
131308
105103
79172.6
56333.2
34183.6
408000
451018
416722
433589
397320
392978
367069
347222
322104
297473
272724
248421
223072
196917
167237
134489
107828
80941.1
57322.2
34302.3
183443
412211
410635
447090
416062
412317
386940
361916
336141
311817
285772
259231
232254
204682
173800
139120
111129
83212.8
58536
34551.5
314995
504961
471014
487702
448833
435306
407215
380974
354807
327652
299793
271061
242028
212958
180204
144046
114799
85664.8
59891.5
34856.2
400358
586992
507831
529818
481102
466246
433208
402828
373108
343463
313452
282616
251719
220884
187847
148843
118262
88129.9
61237.1
35176.2
696838
686794
604686
585456
519312
498412
458834
426355
390818
358346
324909
292029
258637
226136
185649
153853
121939
90750
62599.5
35436.4
598398
757213
644434
625989
557019
534221
477011
446557
401422
368677
328555
295194
258514
225394
190864
157712
124817
92517.8
63503.6
35604
743194
829119
694509
667707
596303
566819
499389
467295
417680
381498
340119
304273
266148
230710
195053
161337
127067
94151
64402
35805
761037
869821
783595
727159
641084
603277
526908
491079
433449
395919
349619
312320
271631
235275
198575
164127
129425
95672.3
65179.7
35981.1
1.14609e+06
984923
841626
767137
681062
629640
548389
511526
444633
406805
357185
318682
276732
239834
202223
166953
131384
97132
65958.6
36116.5
981455
1.03564e+06
858787
790686
702233
650438
568623
526605
455891
415391
364077
324651
281287
243551
204921
169030
132808
98126.9
66499.3
36211.8
1.26686e+06
1.05292e+06
884067
813036
720551
662257
579912
536225
461559
422049
368230
328696
284280
246155
206856
170571
133871
98831.4
66854.8
36265.7
868345
964939
854603
841498
728716
673586
587085
540072
469769
425845
371870
330873
286031
247413
207823
171311
134388
99137
66987.8
36239.8
292341
322757
302782
311542
292445
322981
302806
266081
295811
276516
285897
266013
295980
276659
306987
339375
317983
326055
307070
339536
317678
280124
310301
287221
300030
280073
310143
287262
353361
382493
364578
368185
353181
382129
364627
327765
358744
338256
347186
327562
358594
338052
303137
331675
312581
320486
303160
331428
312566
278069
306767
288489
296596
278059
306774
288506
254141
282232
263057
272548
254104
282237
263043
229616
256647
236944
248394
229616
256620
236939
203539
230314
209852
223430
203555
230311
209851
176924
203062
182093
197077
176922
203042
182149
368990
401834
382626
388238
369045
401454
382675
342313
376237
355903
362828
342159
376363
355846
316165
348858
329280
335219
316507
348771
329263
291938
322731
302665
310574
291979
322751
302795
266058
295947
275381
285560
266029
295979
275336
239329
268378
246878
259420
239294
268339
246907
211928
239685
218260
232547
211911
239705
218215
183883
211137
188973
205003
183927
211118
189014
387656
426213
404670
407645
387640
426118
404564
360742
397651
375885
381201
360756
397492
375733
333764
368566
346654
353767
333768
368433
346358
306466
339305
317924
327080
306503
339189
317890
278588
310380
287283
299735
278557
310323
287227
249439
279621
256899
271366
249450
279584
256887
220391
249354
226600
242100
220382
249363
226612
190911
219075
195913
213151
190961
219081
195958
410763
454058
430076
434473
410578
453824
429881
381034
421885
397347
403192
380974
421716
397152
350824
388812
363419
373399
350438
388319
363715
321100
355352
331918
343488
321120
355707
331952
290160
323462
299506
313363
290146
323475
299499
259446
291234
266921
282486
259461
291200
266908
228590
258670
234539
251810
228597
258655
234533
197904
226585
202009
220991
197925
226573
202050
353221
381730
364643
368086
353277
381275
364412
327336
358347
337970
347024
327250
358160
337717
303135
331298
312669
320328
302912
330681
313084
278071
306884
288566
296585
278416
307207
288778
254128
282272
263058
272553
254298
282413
263155
229621
256622
236932
248571
229612
256628
236883
203546
230303
209835
223427
203497
230256
209748
176920
203025
182150
197029
176916
202951
182141
368944
401214
382635
387301
368531
400993
382409
342032
376350
355844
362250
341454
376118
356134
316635
348819
329345
334587
317153
349317
329604
292038
322815
302803
311097
292273
322564
302863
266028
295991
275326
285761
266056
295956
275815
239284
268332
246898
259433
239226
268299
246763
211901
239696
218205
232485
211837
239595
218174
183927
211108
189015
204934
183915
211074
188988
387615
426040
404481
407557
387546
425696
404106
360773
397404
375581
381159
361082
397071
375106
333751
368266
346451
354184
333724
367771
346349
306641
339224
317866
326233
306917
339373
318027
278539
310324
287203
299883
278585
310350
287210
249410
279587
256896
271186
249274
279649
256920
220377
249370
226617
242017
220358
249371
226625
190962
219085
195960
213125
190932
219081
195957
410418
453504
429693
433844
409881
453290
429322
380826
421510
397018
402566
380188
421165
396603
350552
388126
363838
372897
350653
387693
364208
321143
355830
331948
343740
321305
356234
331880
290145
323475
299482
313528
290142
323427
299363
259462
291193
266896
282563
259455
291138
266856
228601
258664
234525
251788
228606
258652
234498
197926
226577
202050
220996
197924
226568
202061
353125
381257
364263
367537
352897
381378
364261
327297
358154
337606
347285
327705
358265
337286
302844
330542
313216
320906
303231
330839
313658
278500
307307
288836
296915
278590
307639
288945
254321
282452
263144
272705
254370
282541
263070
229589
256616
236860
248631
229514
256554
236767
203475
230233
209708
223302
203407
230152
209593
176914
202920
182136
196963
176904
202815
182109
368407
400882
382345
386698
368225
400889
382136
341325
376074
356256
362013
341260
375898
356560
317273
349489
329651
335146
317679
350071
329936
308937
305088
315184
311327
308820
305188
315284
282231
279245
289047
285862
282279
279293
289083
239201
268445
246717
259328
239118
268404
246650
211803
239557
218165
232386
211690
239521
218141
183911
211059
188971
204791
183886
210997
188924
387490
425544
403981
407397
387388
425246
403795
361209
396957
375023
381119
361483
396830
375184
333714
367684
346263
354544
333962
367956
346513
323091
320538
330078
326675
323626
321883
329913
296442
292770
303513
300648
296528
293603
303454
249248
279663
256926
271426
249239
279682
256927
220349
249370
226619
242034
220330
249356
226582
190916
219075
195953
213069
190863
219042
195928
409674
453108
429164
433208
409226
452896
428930
380044
421027
396409
402176
379950
420738
395921
350711
387563
364259
372640
351124
387224
364173
321277
356315
331831
343973
321050
356015
331689
290130
323405
299330
313460
290190
323357
299248
259453
291125
266841
282542
259433
291119
266786
228611
258647
234492
251767
228579
258632
234467
197922
226567
202066
220964
197907
226559
202036
352906
381342
364285
367200
352810
381025
364305
327924
358307
337296
347265
328469
358367
337822
303502
331089
313803
321864
303878
331712
314103
278609
307751
288976
297399
278556
307962
289005
254382
282542
263032
272767
254372
282505
262943
229491
256524
236721
248482
229379
256381
236568
203389
230117
209561
223129
203339
229980
209489
176907
202772
182104
196922
176892
202682
182068
368262
400953
382070
386777
368248
401261
382008
341306
375846
356598
361970
341953
375803
356599
317809
350067
330085
335812
318098
350127
330344
292458
323268
303059
311806
292435
323600
303170
265952
296101
275569
285804
265885
296135
275225
239083
268081
246625
259230
239007
268104
246634
211667
239522
218131
232269
211640
239557
218098
183883
210974
188923
204677
183858
210923
188887
387318
424999
403697
407288
387124
425200
403709
361580
396831
375326
380966
361491
396865
375519
334125
368071
346608
354710
334366
368392
346669
306907
339546
317639
327603
306930
339475
317375
278362
310106
287255
299769
278341
310022
287257
249238
279676
256918
271067
249234
279700
256874
220316
249346
226567
242063
220277
249289
226501
190865
219029
195924
212974
190836
218973
195867
409252
452707
428890
433257
409684
452556
428923
379955
420625
395765
402777
380303
420524
395698
351166
387115
364061
373148
350968
387058
363700
321069
355809
331668
343534
320879
355517
331630
290224
323362
299230
313466
290376
323365
299212
259428
291136
266775
282579
259385
291148
266753
228568
258650
234459
251729
228503
258657
234417
197907
226561
202023
220906
197860
226534
201951
352756
381099
364293
367638
352886
381148
364118
328666
358384
338103
347244
329053
358271
338575
304032
331935
314161
322459
304492
332426
314290
278579
307999
288995
297654
278530
308076
288946
254372
282506
262918
272548
254354
282497
262885
229332
256373
236539
248183
229270
256383
236523
203332
229947
209478
222867
203386
229912
209473
176951
202679
182115
196908
176990
202705
182140
368204
401281
382011
387261
367946
401575
381873
342193
375801
356605
361875
342694
375728
356524
318150
350121
330349
336529
318140
350078
330371
292427
323603
303228
311814
292443
323680
303307
265888
296213
275154
285833
265866
296280
275117
238998
268077
246617
259201
239005
267989
246618
211642
239549
218078
232266
211626
239534
218047
183907
210907
188949
204703
183962
210862
189019
387115
425340
403776
407105
387001
425492
403897
361505
396960
375564
380889
361480
397108
375644
334427
368408
346630
354866
334541
368453
346586
306925
339385
317344
327766
306991
339290
317284
278301
310053
287298
299854
278279
309935
287369
249200
279715
256862
270993
249187
279749
256811
220256
249262
226478
241980
220179
249239
226415
190889
218949
195908
212884
190953
218885
195897
409804
452217
428976
433607
409948
452366
429158
380336
420491
395732
402931
380469
420276
395595
350858
387087
363716
373091
350710
386833
363684
320834
355520
331587
343329
320755
355457
331542
290379
323356
299217
313346
290384
323174
299252
259359
291154
266751
282641
259284
291019
266790
228474
258652
234398
251653
228420
258511
234410
197894
226517
201981
220824
197839
226364
201953
302397
298787
295760
292407
302311
298861
295844
311944
318882
316292
322992
312125
318754
315325
305866
299257
309522
302046
305825
299427
308638
309024
311433
305325
315448
305260
315385
309047
302464
292434
298936
295853
298905
295873
302462
312084
323090
319057
316641
318835
315586
312414
305897
302128
299386
309744
299434
308900
306002
275230
272747
268680
266078
275354
272774
268654
286287
292546
288667
295082
285888
292747
288068
279819
272681
282027
276090
279530
272749
281951
282176
285888
279260
289059
279316
289096
282215
275304
266069
272704
268708
272750
268671
275400
286258
295177
292635
288784
292807
288197
285907
279735
276198
272572
281985
272727
281926
279372
317032
314072
310531
307794
317241
315072
310383
328532
335153
332440
339424
328459
335234
332419
321451
314306
325339
317880
321490
314275
325249
323169
326861
321106
330578
322298
330018
323966
317056
307801
314252
310507
315119
310358
317346
328549
339487
335371
332384
335303
332383
328538
321431
317773
314308
325176
314276
325200
321483
289768
285670
282023
278569
289512
285937
282208
299137
307006
302561
310205
299310
306911
302514
291506
284186
294898
287229
291735
284035
294895
296350
300585
292939
303462
293568
303426
296326
289713
278640
285850
282024
285786
282247
289291
299140
310150
306833
302504
306837
302505
299249
291479
287242
284236
294876
284046
294886
291687
344065
359320
350816
351621
344073
359390
350768
321426
340374
326212
330779
321194
340341
326054
294882
314591
300750
307276
294748
314576
300699
269688
289485
274404
281499
269676
289481
274464
247606
264162
251864
257519
247618
264249
251982
224842
241914
228306
236015
224824
241986
228342
200416
217419
203306
212138
200414
217407
203299
175982
192286
177339
187881
175976
192272
177337
375510
399938
382553
391704
375582
399910
382810
367016
363774
373276
367972
363772
373293
367025
343940
340868
351208
347315
340866
351197
343963
318141
316357
324741
320662
316342
324725
318145
293428
290972
300453
296468
290903
300457
293459
269112
266238
276112
272558
266281
276096
269127
244423
242294
251598
248377
242278
251694
244406
218771
216956
226254
223404
216948
226246
218768
191956
190577
199435
197075
190571
199435
191959
154616
171503
155320
167230
154615
171490
155325
396611
420472
406943
414110
396654
420610
406712
385601
380856
390974
388484
380816
390619
385605
360429
356030
367354
362924
356029
367332
360428
332119
328269
339508
335468
328254
339457
332110
308208
304511
314477
310539
304513
314500
308242
282379
279108
288898
285559
279120
288937
282345
255564
252795
262291
259436
252796
262309
255571
227947
225712
234902
232559
225712
234903
227936
200072
198135
207040
205024
198129
207033
200078
159084
176930
161967
173676
159089
176917
161958
418371
449511
432143
436076
418281
449285
432122
406458
400516
413525
407832
400509
413523
406474
379586
374432
386461
381156
374447
386464
379585
351913
347012
358719
353806
346937
358738
351993
324033
320173
331096
327007
320193
331030
324080
296271
292797
303292
299691
292789
303304
296264
266844
264165
274475
271409
264133
274451
266857
237157
234865
244528
242136
234858
244511
237172
207779
205903
215153
213154
205923
215156
207777
165193
183596
167502
180063
165176
183586
167499
446943
479157
463984
467827
447331
479351
464101
432370
425652
439915
434448
425699
439738
432376
402078
396121
409907
403473
396035
409870
402134
370983
366384
378770
373563
366312
378760
371124
339932
336348
347619
343518
336307
347567
339855
308748
305608
316753
313381
305613
316756
308739
277640
274803
285637
282506
274803
285643
277638
246177
244015
254230
251805
244020
254224
246168
215045
213333
222996
220987
213339
222991
215054
170015
189306
173672
187633
170016
189299
173670
442701
471209
456439
460561
442749
470753
456394
408258
437391
419376
427467
408234
437276
419509
373187
400682
383940
392347
373387
400632
383976
340358
365543
348825
359020
340349
365466
348805
306885
329929
314237
324935
306885
329877
314217
273537
295824
279530
291973
273530
295838
279534
240424
261680
245477
258676
240422
261721
245474
207762
228601
211745
226085
207769
228610
211799
343653
359817
350960
351964
343366
359787
350852
320991
340089
325346
330653
320917
339982
325380
294869
314143
300531
307214
295115
314074
300548
269649
289708
274947
282051
269620
289774
275353
247622
264402
252034
257652
247687
264507
252065
224813
242049
228349
235953
224804
242128
228375
200405
217400
203290
212137
200396
217401
203266
175970
192273
177341
187881
175967
192267
177333
376327
399611
383360
391523
376126
399634
382923
366626
363785
373519
368196
366775
363690
373382
343552
340711
351142
347042
343641
340711
351267
317552
315855
324440
320340
317724
315708
324358
293707
290881
300515
296649
293563
291029
300709
269159
266327
276026
272582
269131
266402
276024
244437
242241
251736
248475
244436
242235
251752
218766
216954
226186
223452
218775
216950
226178
191930
190554
199413
197059
191938
190549
199396
154609
171486
155326
167228
154597
171478
155317
394952
420672
406377
413872
394074
420740
406080
385244
380488
390527
387760
385342
380319
390818
360056
355644
367195
362496
360167
355499
366955
332522
328285
339080
334769
332388
328389
339029
308325
304723
314668
310710
308235
304819
314787
282360
279146
288931
285638
282366
279159
288943
255505
252749
262304
259417
255531
252768
262264
227919
225700
234883
232520
227936
225687
234864
200008
198098
206997
204976
200018
198086
206985
159083
176910
161940
173676
159069
176898
161918
418256
449392
432099
436347
418088
449240
431876
406154
400286
413311
407602
406242
400231
413215
379593
374477
386441
381183
379590
374487
386431
351689
346968
358663
353916
351708
347093
358656
324034
320249
331008
327104
324034
320337
330949
296339
292696
303451
299813
296315
292644
303488
266737
264029
274300
271294
266734
263956
274219
237149
234812
244490
242055
237151
234798
244482
207775
205913
215159
213139
207777
205910
215155
165152
183586
167486
180034
165128
183580
167465
446835
478598
463600
467331
446650
478722
463624
431882
425487
439312
434230
431983
425332
439342
401255
395629
409254
402893
401425
395476
409076
370469
365906
378486
373196
370568
365796
378407
340133
336418
347784
343617
340051
336478
347895
308729
305587
316767
313409
308758
305586
316753
277605
274821
285616
282546
277621
274840
285602
246205
244033
254250
251802
246208
244036
254258
215034
213354
222977
220992
215036
213354
222973
170006
189306
173654
187619
169986
189310
173632
442508
470311
456312
460240
442475
470092
456427
408290
437095
419714
427282
408282
436890
419712
373519
400465
383894
392211
373594
400164
383823
340326
365310
348651
358960
340285
365167
348539
306850
329848
314144
324931
306745
329852
314071
273498
295839
279477
291973
273447
295891
279448
240393
261797
245427
258679
240351
261868
245400
207772
228634
211790
226104
207820
228660
211798
343477
359291
350515
350500
342405
358914
350118