/*--------------------------------*- C++ -*----------------------------------*\
  =========                 |
  \\      /  F ield         | OpenFOAM: The Open Source CFD Toolbox
   \\    /   O peration     | Website:  https://openfoam.org
    \\  /    A nd           | Version:  10
     \\/     M anipulation  |
\*---------------------------------------------------------------------------*/
FoamFile
{
    format      ascii;
    class       surfaceScalarField;
    location    "0.8";
    object      phi;
}
// * * * * * * * * * * * * * * * * * * * * * * * * * * * * * * * * * * * * * //

dimensions      [0 3 -1 0 0 0 0];

internalField   nonuniform List<scalar> 
38556
(
1048.1
861.141
165.776
970.439
-91.4134
169.074
909.557
-228.962
289.843
962.343
54.7793
-107.565
1204.68
133.56
-375.899
1276.52
285.162
-357
1300.38
375.491
-399.352
1269.01
413.777
-382.404
1204.93
439.634
-375.558
1158.46
439.745
-393.276
1142.94
399.328
-383.805
1190.51
292.31
-339.88
1289.32
193.119
-291.93
1344.66
133.2
-188.539
1297.5
107.291
-60.1352
1137.1
115.81
44.5982
939.705
99.0182
98.3731
824.349
57.6663
57.6899
769.363
32.3984
22.5874
14.3202
7.61999
1155.72
1544.32
-1140.89
1300.83
42.3919
-278.917
1255.12
-128.511
-54.7398
1201.82
14.2321
93.8506
1174.37
173.166
-12.1595
1143.14
350.806
-34.4131
1100.19
449.057
-30.6168
1050.58
458.761
4.63359
1002.06
428.708
59.4404
965.741
380.226
95.8388
938.122
315.381
111.567
944.857
226.27
59.3036
979.672
173.234
-14.9295
984.683
149.408
-21.2181
946.995
127.334
17.6464
878.1
129.834
54.8701
807.16
111.96
57.999
764.336
71.3074
29.183
743.034
43.446
10.2542
20.722
3.33074
1407.32
352.297
-2755.83
1271.14
89.3393
89.2335
1244.47
-11.1787
-90.6699
1053.16
203.652
1.8979
970.263
199.924
56.1344
894.892
344.023
82.1539
845.754
383.364
114.831
796.463
386.869
121.182
788.143
340.104
96.925
792.609
305.68
70.0788
814.118
271.173
22.6986
832.92
241.736
-34.2682
834.317
209.315
-37.4779
820.89
183.684
-20.8499
791.914
152.006
4.30408
766.843
136.066
18.8388
750.345
109.279
19.1787
736.224
75.4216
10.0061
726.99
48.2982
4.38206
24.6987
1.43193
1411.77
-428.519
2793.44
1332.88
-494.072
662.305
1325.38
-245.049
241.37
1190.61
220.117
118.3
976.271
394.349
19.9135
883.731
429.459
7.10405
822.872
375.055
69.1677
741.776
338.246
129.72
697.281
267.698
116.901
655.882
261.343
85.7369
639.803
229.764
57.4886
641.491
214.22
25.8276
653.902
189.993
6.91179
667.751
165.594
4.24181
676.635
141.023
2.09766
685.043
121.246
6.41228
694.971
94.6037
4.74755
697.957
70.8994
1.53667
699.03
46.417
0.807951
24.17
0.103306
1961.21
-727.402
459.512
1873.67
-234.954
-171.58
1342.68
215.131
70.8094
1037.7
506.145
18.9506
786.74
660.122
-14.8097
670.439
498.855
46.9042
660.455
213.839
171.201
647.128
201.369
150.204
664.336
150.022
100.468
654.619
213.506
57.5536
652.196
204.855
27.3317
652.989
201.904
11.5233
657.664
179.346
5.97073
663.286
158.164
1.80876
669.61
132.947
1.75246
675.814
113.226
1.81569
681.536
87.4393
1.44269
683.856
67.8284
0.750838
685.221
44.624
0.428231
23.3849
0.0735025
104.148
-1056.6
-2006.69
250.358
97.472
-478.635
145.738
574.234
-254.483
140.507
528.267
-16.8912
527.308
466.513
-193.193
471.562
455.461
99.1412
698.623
-75.522
62.299
691.994
144.904
63.0943
689.191
99.967
52.8577
633.074
217.224
52.3984
600.524
195.827
41.5791
590.469
185.013
26.9463
600.766
153.811
15.2382
615.783
136.471
6.67593
627.315
118.746
2.66891
638.565
100.413
1.56351
647.569
77.6438
0.791705
655.291
59.6803
0.425461
661.194
38.5208
0.200798
19.4321
0.000853639
-691.768
-347.893
-1802.62
-642.428
484.966
-436.834
-637.753
673.886
-104.327
10.6528
225.61
-345.748
648.386
264.273
-435.492
444.833
541.656
117.357
425.089
50.3
-103.258
-17.4777
41.555
-26.8969
217.738
68.4739
-73.0296
119.524
97.9151
139.372
264.193
45.5629
-14.068
-14.6098
49.6502
-13.023
320.601
36.4192
-41.55
63.4716
39.5898
62.8851
359.009
52.4632
6.78736
23.7321
51.3137
23.1225
436.673
25.3453
8.2175
25.4032
24.7547
23.6281
508.403
24.6251
6.33922
14.6081
23.2211
13.288
554.012
23.4861
2.6051
22.5254
22.6737
19.5709
587.822
82.7836
2.15238
607.831
78.7834
1.62166
625.956
58.5719
0.946667
637.05
47.8018
0.784729
645.473
29.7236
0.373708
14.9147
0.0910951
1408.12
1392.99
-676.068
1262.13
586.745
44.2116
226.379
769.882
939.753
226.169
194.362
31.4589
713.428
117.147
-340.134
154.354
111.026
23.2044
160.18
148.249
154.268
190.116
111.838
201.85
120.996
109.396
-25.7383
-69.2133
40.2546
85.2303
12.2023
-2.71356
-32.2817
82.4939
-1.93575
38.1889
0.752863
1.71599
-4.23856
-46.0453
68.2845
34.7287
-4.50468
-85.783
99.7604
13.1996
-1.83171
-114.823
123.477
16.1236
-0.151742
-129.887
134.292
17.9916
1.08964
594.521
18.814
4.2414
-139.444
-145.068
-144.052
-148.262
12.3603
18.4361
11.238
606.347
63.1205
3.83651
617.153
45.6893
2.0762
626.58
37.0439
1.3318
632.29
23.3509
0.661797
11.1009
0.163712
625.583
638.593
-4496.56
670.638
261.905
279.785
262.652
470.948
706.92
161.887
211.946
83.1812
114.348
63.186
23.2319
-18.766
113.485
-16.4508
117.2
86.6477
21.5267
-36.0642
-33.116
30.8216
41.2499
-2.89126
-26.5572
-28.3566
22.8905
30.4087
1.61459
-21.5615
-31.5156
17.689
32.6605
2.72754
-18.8834
4.18918
18.4889
-3.63631
-0.158324
-21.0409
-0.423183
23.3764
-5.33964
3.42724
-28.2969
-4.313
29.9681
3.23737
-0.595555
-32.994
-4.08985
33.6709
3.89001
-0.477124
-34.5887
-5.03935
35.032
4.7264
-0.13032
-36.4817
149.428
17.1776
0.908706
-36.3523
-38.036
-37.8298
602.637
47.3979
12.2671
-149.75
-146.847
-152.66
-149.924
602.606
38.0308
7.68939
605.365
29.1593
5.12552
607.854
18.4338
2.42817
6.92043
0.874754
1117.99
462.783
-1309.84
1327.56
472.786
-420.451
1505.53
391.572
-98.5979
1393.67
193.734
130.072
205.651
211.728
204.258
244.893
275.198
315.132
-62.6672
160.503
90.592
17.2233
-37.8545
-33.0062
31.1947
34.651
5.01498
-31.878
-23.6892
22.1943
33.813
-0.440027
-37.6498
-23.0062
23.7077
38.9184
-1.97005
12.3324
-35.8606
36.1078
-17.0127
4.43314
16.5054
-38.189
40.0726
-19.0077
0.618678
1.97086
-38.0458
37.229
-2.37214
1.21806
-2.22557
-36.9253
36.945
2.46281
-0.256923
-3.04131
-36.5993
36.4644
3.18831
-0.0121467
-36.4381
-13.2594
149.719
12.2197
1.76622
-36.9022
-38.1174
-38.9882
594.123
37.6477
14.042
-147.808
-148.099
-150.98
-151.527
594.965
28.9256
8.26355
598.179
20.5549
5.39041
601.933
11.8701
2.80923
2.45332
1.10872
811.965
984.662
-1398.64
533.484
939.914
-188.647
692.81
630.213
-397.967
546.167
474.01
-133.633
120.711
353.84
-96.5032
114.992
141.215
123.64
-97.0687
125.457
83.7466
8.57655
-32.438
-36.127
36.4873
29.6554
2.4222
-33.0526
-42.8437
46.3845
30.837
-1.32522
-24.4988
-56.5404
59.6023
21.6995
-0.262603
20.8896
-48.366
42.7877
-18.7889
3.47761
15.3492
-42.9158
45.445
-11.9064
-5.972
4.24655
-45.9163
43.1993
-3.83026
2.30066
-3.31277
-38.3326
38.008
3.91632
-0.278949
-3.76703
-37.4445
37.3284
3.9755
-0.0924088
-37.0522
-12.8937
149.086
12.5449
1.68816
-36.206
-38.8134
-38.3534
586.095
27.4553
13.1631
-147.363
-143.974
-150.507
-147.222
585.775
21.2612
7.98384
587.912
12.8938
5.52392
590.219
6.67968
2.88397
-1.30482
1.08715
1045.66
-503.087
-731.169
1399.39
270.597
315.587
1814.85
491.697
-276.945
1846.98
584.111
-142.235
283.634
503.179
331.076
325.68
363.558
393.694
-76.8462
227.073
75.4067
58.0007
-18.4684
-54.3026
54.4102
16.5345
1.82637
-22.0105
-59.2795
60.7156
15.4043
5.17021
-14.5237
-62.2158
60.2833
10.9196
5.53659
9.523
-30.8628
32.8698
-5.14947
-6.38045
-0.87422
-43.4532
43.5604
3.61787
-2.85086
-4.23559
-40.6535
39.513
5.61173
-0.235677
-6.77667
-36.2282
35.8408
7.37625
-0.212224
-5.2365
-35.2847
35.2604
5.43334
-0.172522
-34.9815
-11.7041
145.899
6.75812
1.03591
-34.3662
-36.5279
-36.1131
571.54
12.1206
11.735
-141.488
-139.155
-144.787
-142.511
574.48
10.8424
7.47933
578.89
3.62096
4.8622
582.659
0.603343
2.30724
-5.25175
0.864424
900.715
-423.79
1240.17
1101.93
-66.8417
136.221
1024.28
443.492
125.859
916.832
426.58
264.978
778.23
404.723
237.058
185.557
60.0998
148.567
-60.0897
-33.207
-77.1173
-50.6213
190.048
202.923
212.071
-10.7001
177.723
33.2603
19.5739
-12.8939
-9.79628
-11.6103
-5.0098
-139.818
109.545
24.8237
27.2741
-6.42924
-4.64214
-5.74418
-6.69651
-108.98
125.632
5.97415
1.48318
-5.63506
-5.95286
-5.82445
-8.12875
-126.564
139.165
39.5622
-15.0912
-10.3422
-8.41065
-10.1899
-8.02758
-144.693
148.312
29.6979
1.40756
-9.10831
-8.32326
-9.26435
-6.04363
-135.446
131.074
28.651
2.3885
-7.37527
-6.06123
-7.18796
-4.93321
-126.611
131.378
17.9356
-0.129613
-6.61773
-4.64436
-6.37741
-3.25826
-127.32
133.749
10.8832
-1.0303
-4.94444
-3.20305
-4.87669
551.463
25.9782
-5.42284
-4.18004
-13.7378
-4.3943
-13.8186
-133.355
-128.513
-137.664
-136.356
564.677
0.0494552
-1.14325
573.611
1.72965
0.179219
581.021
-5.05842
1.26968
584.778
-3.84098
0.687446
-7.169
0.18032
598.575
408.789
-2796.89
892.016
255.037
-615.32
1079.83
179.427
76.2534
1290.75
53.7615
161.897
1382
-1.4433
314.912
1491.25
-213.993
164.847
1443.2
-128.925
312.917
-19.1581
-48.1957
-21.9177
-46.6706
1366.31
-194.256
286.023
-11.8996
4.90073
-9.92475
2.04877
1104.25
41.9845
306.446
-0.791364
-36.0014
-6.12775
-43.4486
841.119
156.412
210.901
-24.6776
-18.3624
-34.6543
-26.4925
677.421
267.988
63.1584
-30.4492
-45.3171
-40.066
-51.6149
616.653
202.558
-20.0239
-29.6565
-26.8105
-35.0053
-30.2937
591.308
177.251
-52.4704
-19.4345
-28.0212
-22.4301
-29.5496
587.725
106.956
-56.5541
-9.14913
-12.773
-10.4058
-14.4915
594.288
46.049
-26.6336
595.475
0.884841
-2.02237
595.143
-1.53626
3.59746
593.105
-7.58986
4.56979
591.166
-4.53159
2.62919
-6.96717
0.923043
232.842
-274.866
-941.945
781.944
91.3325
-385.398
1212.82
-95.0154
-156.431
1457.78
-152.717
-38.4873
1395.86
-229.854
290.335
1492.07
-348.555
38.3514
1431.03
-278.152
210.265
1359.54
-284.379
161.611
1090.38
26.0252
285.122
836.701
252.362
157.727
749.026
356.496
-0.833096
733.122
304.271
-85.8085
731.618
258.906
-80.1505
708.625
169.687
-39.7381
660.249
88.6259
5.7994
619.598
23.7908
17.7449
598.141
9.88212
10.0391
587.365
-1.36922
4.5555
583.306
-2.04773
1.57518
-5.38936
0.682858
1030.72
188.657
633.057
1113.66
301.138
-292.742
1212.04
216.997
-410.396
1316.9
92.3772
-349.951
1176.35
81.4119
-170.715
1228.57
-17.224
-383.546
1169.85
50.8958
-270.333
1189.49
7.79927
-311.812
1059.96
209.04
-53.4912
956.131
319.941
36.2529
910.179
375.341
27.1064
893.556
317.709
3.1848
867.488
237.72
47.2537
823.19
149.328
64.6572
748.65
101.467
61.699
672.914
48.0727
51.4543
628.709
28.5137
25.5733
603.179
11.6054
12.5555
591.741
5.37077
4.01947
-1.08836
1.54071
1480.51
883.615
-1662.59
1111.59
625.927
44.1347
905.836
321.243
101.505
887.23
202.323
-91.339
617.938
313.865
36.8384
568.546
323.57
-291.402
518.27
374.995
-273.823
626.977
316.316
-417.223
706.105
350.946
-221.034
778.127
308.043
-60.1238
810.935
269.796
72.7364
824.858
195.527
108.259
790.678
137.095
134.804
728.198
86.7385
125.07
663.481
73.5005
92.6826
613.725
43.4573
54.3717
591.719
29.5565
20.9636
580.288
14.6524
8.3841
575.896
7.25142
2.51115
0.620374
0.794328
1282.48
563.349
-600.053
1161.55
44.5168
702.339
944.048
-0.218966
538.967
1047.28
162.602
-63.5092
936.927
323.716
100.499
934.407
407.942
-81.8519
763.033
435.306
111.064
737.597
329.048
12.7041
686.41
283.523
118.611
684.074
187.119
123.26
654.168
149.592
150.111
629.322
90.9372
129.436
598.665
76.0629
91.6892
578.567
51.5302
55.3069
573.276
47.4954
31.2962
572.909
30.1195
13.704
573.986
21.8417
6.63774
574.551
11.9486
2.13906
574.006
6.80155
0.994407
1.4141
0.18722
481.353
30.4437
-1971.15
454.173
-809.887
881.584
457.615
-386.683
383.022
508.317
-37.6848
149.586
432.935
207.629
191.469
470.566
328.027
42.2831
343.64
282.707
279.525
349.897
243.282
79.5089
348.909
124.608
159.903
377.692
84.904
73.4311
420.848
53.3196
53.1162
448.831
42.3124
20.6421
482.292
35.7516
6.85035
506.609
26.5134
0.699959
530.543
23.3117
0.24961
545.747
15.0027
-0.0872438
556.472
11.0263
0.0896751
562.316
6.1036
0.00183669
565.656
3.4854
-0.024146
0.784068
-0.0836807
804.574
2242.08
907.832
-913.145
693.005
-171.856
637.334
17.9867
526.375
318.587
555.341
299.062
495.611
342.437
492.543
246.35
442.381
174.769
432.915
94.37
437.48
48.7545
457.766
22.0268
484.138
9.37927
506.753
3.89812
528.2
1.86536
542.403
0.799414
552.98
0.449452
558.908
0.175392
562.319
0.0746215
-0.0708942
-28.2004
1671.52
-520.719
454.785
97.948
-411.859
1334.74
-416.071
-174.037
1478.74
-85.469
-166.103
1614
-49.741
-461.415
1715.67
-28.6259
-430.046
1755.68
-5.55047
-433.811
1753.2
-31.545
-348.381
1658.21
9.99788
-290.558
1507.36
60.14
-302.566
1327.44
148.45
-352.34
1193.32
171.232
-376.994
1156.54
150.161
-405.304
1170.73
92.5777
-295.309
1147.17
62.7882
-99.3676
1036.34
74.8456
80.585
900.037
81.2816
153.393
814.993
55.1708
87.563
771.17
31.5578
34.8526
14.2317
12.3695
1879.3
228.066
556.239
1723.69
-827.007
801.644
1148.91
-448.044
552.017
892.29
27.0887
237.911
864.095
60.4221
-94.1276
780.843
116.79
-96.5766
749.7
165.817
-170.841
704.34
160.582
-142.133
733.946
157.859
-118.028
740.189
152.84
-3.10331
741.136
150.218
108.852
752.795
151.104
67.7726
783.746
143.683
-39.4029
809.014
128.043
-81.9523
813.066
109.485
-33.1024
801.793
108.398
32.5916
783.112
101.572
56.3892
762.714
72.2517
32.5008
746.595
43.3748
14.5563
20.753
4.76622
2622.47
-2086.44
-7459.27
2107
-1090
867.693
1478.57
-545.005
634.723
1065.44
60.4183
381.692
854.362
34.8374
292.8
698.174
110.489
244.641
676.311
120.337
182.175
645.303
155.523
157.248
676.405
156.957
66.726
693.641
179.508
26.1743
727
188.698
-49.1417
753.14
199.889
-109.192
764.369
188.787
-93.811
767.435
169.857
-65.7304
760.36
143.223
-22.3587
752.43
126.513
8.65413
746.6
105.257
21.3243
739.496
75.6308
13.7303
732.269
48.5348
6.4491
24.9186
2.14588
1197.81
-1589.72
1107.81
1761.12
-1123.96
132.953
2249.72
-756.442
-35.7926
2444.43
-24.3524
8.35367
1874.72
297.24
327.223
1251.4
322.092
418.826
881.521
245.012
314.368
721.1
218.694
226.97
680.715
170.525
143.718
642.608
196.404
106.949
634.199
190.888
63.7077
642.267
195.803
21.8448
657.448
181.499
-0.98045
671.905
162.875
-3.23337
680.795
140.1
-3.67013
689.585
120.308
3.82779
699.859
94.5849
5.14543
703.426
71.3541
2.24697
704.726
46.799
1.24344
24.4082
0.225492
2021.99
-317.79
-2648.43
1867.91
-765.816
-375.642
1436.22
-233.604
-20.3414
1244.84
224.76
-38.7775
950.326
513.698
63.2457
737.609
392.386
189.327
671.737
152.071
330.014
646.121
155.822
238.692
660.979
101.521
154.613
652.205
176.52
86.2119
652.596
183.084
34.7453
655.898
193.043
10.9817
661.979
176.729
4.6598
668.45
158.107
0.10481
674.977
134.123
1.20263
681.189
114.024
1.88744
687.042
88.0104
2.16467
689.467
68.3876
1.29186
690.955
45.0266
0.713193
23.6143
0.185838
962.715
985.176
-1855.24
680.469
-327.371
-634.833
-15.1123
277.947
-70.4533
30.0355
323.806
-161.085
613.238
306.034
-568.731
549.16
367.636
187.969
655.821
-77.2218
184.93
619.744
196.165
58.8291
632.733
74.8743
66.515
600.487
197.573
63.5911
586.6
182.982
55.5687
586.852
181.374
38.3621
602.869
152.782
23.17
620.263
136.708
10.681
632.217
119.561
5.27769
643.606
101.26
2.93845
652.697
78.4053
1.30511
660.517
60.314
0.67983
666.544
38.8929
0.306954
19.611
0.0528984
545.443
43.837
-7126.78
556.664
-72.8718
-702.554
-13.3832
380.055
363.613
274.773
172.505
-482.604
556.883
179.714
-591.282
417.03
486.668
138.178
296.85
24.8221
-51.1662
-29.988
25.9429
-29.911
92.2844
127.629
-237.541
153.314
128.197
156.102
224.274
46.7053
-141.359
-17.3451
57.9717
-17.1567
300.351
29.6766
-79.6848
57.9396
21.7099
50.3044
354.514
48.7918
1.05359
20.9823
45.0071
19.7719
438.188
24.0227
10.6074
23.5135
24.0132
23.7604
512.72
23.3112
11.0509
13.2569
23.5076
13.4624
559.333
22.7902
7.17709
19.8279
22.8999
20.005
593.329
82.7326
4.98497
612.927
79.3693
3.91488
630.895
59.1755
2.2082
642.184
48.2531
1.55614
650.83
29.9136
0.707643
14.9927
0.242271
1499.68
16.4286
-1532.51
1487.25
242.224
-258.456
1098.97
461.54
1246.55
1033.8
239.352
29.7802
753.773
224.174
-104.563
116.656
148.182
60.8394
127.88
118.217
127.541
202.884
158.98
202.466
21.4704
36.5504
78.8069
4.65056
14.0767
23.5011
-8.63004
147.922
-49.2405
3.82664
12.028
-21.7971
83.8965
-31.2486
16.0273
25.8248
6.03451
6.42457
-24.6346
5.8521
-48.1386
71.3016
26.5848
-6.80812
1.49781
-88.9919
103.169
8.49422
-0.145906
-0.932637
-118.115
126.579
13.8527
1.9269
-1.3008
-132.618
137.96
17.0639
1.6848
598.386
18.4553
10.881
-142.922
-148.102
-142.84
-148.082
11.225
18.5729
11.3994
610.851
63.4039
7.33706
622.032
46.0606
4.00966
631.849
37.2302
2.53801
637.747
23.3546
1.32259
11.0739
0.460588
608.218
1218.23
-3527.4
602.804
322.285
205.137
582.68
454.393
734.191
423.917
345.542
135.754
58.8506
326.599
325.207
-47.8772
55.7864
-47.2427
-45.6471
60.1101
152.781
39.7884
12.4527
-21.8344
-6.45398
1.17737
19.3829
-4.72452
-7.18256
-1.55639
-38.7896
5.03751
39.5884
2.90267
-1.27876
-14.83
-34.4235
14.0777
39.5822
-3.12758
13.0467
-23.3026
-1.08131
22.911
2.08036
-13.6541
-9.39743
-30.8623
-1.38062
35.1977
-2.31291
8.75551
-1.05054
-41.47
-1.65909
41.9515
0.14787
2.08025
-0.218434
-39.6204
-3.11857
38.8916
3.17966
0.886209
-0.45645
-37.4156
-4.47741
37.528
4.16029
0.661237
-38.2765
-2.21084
153.131
16.807
3.44481
-38.0811
-38.2654
-38.0932
607.663
47.57
26.9906
-152.976
-150.239
-153.003
-150.335
607.687
38.2408
15.4854
610.574
29.2043
10.2645
613.245
18.3022
4.80896
6.77892
1.87113
996.293
988.304
-483.482
680.517
585.139
-367.528
819.444
583.816
-366.948
861.398
500.646
-66.9867
104.941
495.066
345.857
213.39
52.6582
180.343
-50.4787
-132.29
85.2267
133.123
69.3607
-30.9671
-28.1821
-20.8808
18.0156
36.2209
25.7936
-1.96431
-37.5384
-9.91996
11.5765
37.1413
0.70483
-1.16375
-41.8487
-18.7114
20.3416
37.8458
3.53647
-7.20257
2.82468
-36.8287
39.0911
-0.532413
2.6479
2.77354
9.48449
-40.5982
41.7769
-10.1905
-3.24629
-5.84916
3.93084
-42.7697
42.0695
-5.05936
7.67786
-1.81709
-1.44979
-41.0618
40.7812
1.2378
2.30968
-0.792282
-2.60289
-39.5516
39.1976
2.73671
1.01251
-38.4036
-3.6139
-12.9436
154.02
12.1184
5.36131
-39.0626
-38.4269
-39.049
600.274
37.3487
29.995
-151.478
-151.724
-151.515
-151.288
600.389
28.7906
17.5987
603.505
20.3976
11.081
607.311
11.684
5.6215
2.3144
2.25867
1084.02
912.378
-722.182
762.753
801.879
-84.1242
705.54
591.262
-348.199
613.391
568.1
-108.938
153.792
551.772
-114.502
137.647
148.108
135.137
22.268
-130.085
161.178
130.614
-30.183
-2.30261
-34.8108
-44.0661
45.2897
33.6155
2.2743
-5.26499
-36.1763
-48.6901
50.1152
32.4921
7.52412
-2.27088
-27.7176
-59.0244
63.2931
26.4003
-0.680474
6.30735
-11.7912
-62.9691
61.5591
13.8874
-6.99363
6.33062
9.15313
-56.6387
54.235
-7.48311
-5.59694
-0.995633
4.63295
-48.3856
47.4186
-3.19691
0.526615
-0.95805
-1.43181
-44.1008
42.8799
1.9699
1.64085
-0.534078
-3.24205
-40.2592
39.7659
3.59107
0.678347
-38.7322
-3.09946
-12.7566
152.847
12.3438
4.54891
-38.2182
-38.7049
-38.2281
592.111
26.6357
28.5639
-150.834
-147.647
-150.694
-147.623
591.206
20.6596
17.0197
593.437
12.5075
11.1829
595.787
6.4673
5.75011
-1.43658
2.27843
67.9468
-443.859
629.061
867.507
51.6592
266.246
1238.63
238.063
-294.865
1254.59
502.528
-92.6221
271.095
643.812
369.252
304.528
260.543
288.204
-82.7573
-128.592
260.871
130.833
90.7404
-14.1962
-27.4542
-58.6473
56.0019
29.2577
15.038
-13.8556
-25.9667
-56.9917
59.9519
24.3089
12.5533
-24.9891
-22.7229
-67.7772
69.6293
19.0026
26.8573
-0.213511
-13.4801
-70.3562
65.9134
9.64872
8.48769
5.90987
-0.551901
-49.9796
47.5643
3.06541
-6.00812
-0.303112
-3.51886
-43.9034
43.2796
4.45713
-0.0113949
2.97622
-5.21254
-40.9665
40.2234
6.21329
-3.23381
0.342259
-5.12669
-38.09
37.7323
5.40672
-0.264568
-36.7669
-1.77529
-11.6049
149.923
6.61057
2.9777
-36.2955
-36.774
-36.295
577.784
9.85824
26.7836
-145.084
-142.905
-145.119
-142.947
580.341
9.74204
15.8402
584.672
2.92067
10.1175
588.348
0.298644
4.80034
-5.44536
1.95433
860.493
642.254
-352.853
1041.95
331.826
-325.408
897.633
660.39
-152.147
820.383
627.596
217.161
736.296
648.045
316.912
189.943
302.381
304.376
-119.142
-102.142
-127.067
-113.463
182.084
191.01
176.88
-26.3044
-39.842
192.436
88.6762
58.9898
-26.7373
-28.2584
-29.0169
-15.4184
-54.7048
-180.946
181.493
47.4191
70.6217
-13.6473
-18.4408
-16.3762
-13.9393
-12.6144
-187.606
194.058
36.4788
29.0321
-14.2654
-15.5659
-15.5778
-14.2133
14.9641
-167.654
151.09
61.9581
-2.24356
-14.0628
-15.1845
-14.6539
-9.37324
0.540395
-143.959
145.155
38.5982
-1.51868
-10.1973
-9.19317
-10.0522
-6.3088
0.130463
-133.341
131.523
29.7373
-0.820016
-7.35467
-6.23969
-7.32733
-4.621
2.58383
-128.699
134.417
16.1022
-2.50702
-6.33366
-4.61608
-6.32642
-3.02122
2.77307
-130.602
137.699
8.0618
-2.47402
-4.72631
-3.00397
-4.7063
555.046
12.991
-0.882003
-3.3401
-13.2954
-3.03419
-13.1279
-136.438
-133.736
-136.303
-133.303
569.364
-8.18667
2.58328
578.783
-2.38687
2.88956
586.59
-6.50029
2.883
590.455
-4.31399
1.4359
-7.44422
0.546839
925.154
1547.94
-4724.9
480.639
671.92
-510.898
826.442
625.046
-234.205
941.927
435.907
238.1
1030.24
298.338
576.301
1110.32
46.2152
340.941
1069.5
143.961
553.971
-76.1734
-88.5341
-82.129
-97.3613
998.146
39.8625
453.912
-41.952
-18.7484
-52.2079
-23.4901
834.794
220.966
439.132
-31.4216
-62.3272
-34.8098
-61.7407
725.777
208.21
269.36
-47.5933
-35.144
-44.1907
-30.7244
651.852
229.9
85.0422
-41.2337
-51.226
-36.8468
-48.5518
624.135
137.234
-15.9824
-31.82
-26.8342
-29.4906
-25.413
604.965
84.8581
-36.3303
-16.5654
-25.1656
-15.4733
-24.6242
596.158
15.6959
-35.0255
-4.04053
-10.6383
-3.50894
-10.2295
596.818
-6.76572
-7.5365
595.743
-20.1123
10.978
596.729
-9.65039
9.87481
596.356
-8.91072
7.3541
595.899
-4.86782
3.63984
-7.25797
1.2926
-217.957
936.268
-224.247
-226.189
171.837
122.917
550.723
21.8543
-330.152
841.495
91.7004
14.9485
961.001
65.1652
404.001
1094.43
52.8518
-101.717
1056.32
178.621
213.713
973.68
143.096
141.021
866.423
333.349
279.997
812.362
282.712
137.285
789.478
255.962
-4.01113
787.449
150.327
-96.8723
772.015
91.8309
-71.6892
724.897
29.6825
-6.60639
667.187
16.0442
40.6989
626.371
-5.6534
44.102
604.618
0.940159
21.2013
593.897
-3.89449
10.261
589.717
-2.66908
3.5564
-5.61813
1.51481
1819.23
940.244
-153.605
1548.98
101.194
48.1505
1236.65
73.2469
-149.458
1150.24
189.507
-361.349
854.716
306.342
-116.37
770.671
200.053
-446.703
650.176
341.53
-312.746
650.869
213.196
-382.605
712.098
337.457
-118.829
829.656
257.627
-56.2195
905.702
232.486
-25.4639
932.967
144.196
-17.9488
914.557
102.393
55.101
856.997
57.3591
94.5408
760.323
57.1703
117.247
677.79
33.4142
94.9198
633.288
24.0472
46.9684
608.573
10.5093
22.8669
597.623
5.09634
7.20344
-1.14314
2.82716
602.155
53.8781
-3600.85
797.703
16.6836
-66.9035
483.055
385.986
103.415
191.634
554.996
-165.407
-59.1453
604.931
-10.9718
9.50905
325.73
-485.734
221.282
330.304
-474.37
327.562
168.325
-478.633
500.876
207.66
-264.55
634.991
144.761
-81.3728
716.844
133.654
89.7149
735.522
85.9707
147.806
715.228
78.893
178.598
678.122
57.9281
161.607
639.653
63.1836
125.138
609.926
43.0085
74.5043
593.84
30.0152
31.0813
585.136
15.0669
12.53
581.59
7.49577
3.6581
0.728453
1.19063
764.486
-643.932
266.749
359.22
-178.469
1302.76
262.723
477.104
544.345
128.234
729.981
-104.005
171.297
630.775
31.5912
215.151
418.717
-218.692
340.743
319.673
-3.89706
427.624
169.529
-75.3812
498.933
155.114
99.848
549.13
89.3476
128.476
565.786
94.0103
173.098
568.463
66.0674
146.663
562.91
71.4791
104.656
560.411
54.2072
61.527
566.316
50.7916
37.7827
573.22
32.5243
17.2843
578.229
23.0023
8.64188
580.119
12.5947
2.72104
580.271
7.05716
1.28082
1.52712
0.39928
-725.544
1211.25
-2411.12
-509.626
39.6645
447.533
-458.74
176.865
632.375
-261.519
187.223
495.122
-82.6547
193.344
450.036
-62.6742
193.186
247.834
46.234
117.899
372.39
115.086
101.963
78.2228
270.909
24.0604
135.134
333.696
32.5136
67.4775
405.826
28.3977
46.5996
443.743
32.458
16.334
483.327
32.7249
6.02143
510.506
25.9958
1.73181
535.705
23.6149
2.22755
551.608
15.3469
1.18668
562.574
11.2588
0.867784
568.439
6.26236
0.46897
571.802
3.53604
0.133551
0.822788
0.0161657
3044.21
-2229.44
1440.15
730.577
592.84
852.32
417.178
380.872
401.755
527.354
459.895
434.108
487.476
432.755
527.956
307.833
485.305
241.481
465.369
146.82
455.25
87.2717
468.848
40.8868
491.764
19.1879
513.326
8.33234
534.395
4.41076
548.621
1.92065
559.241
1.08795
565.252
0.426609
568.648
0.214651
0.0240285
551.711
1348.43
-202.459
758.909
142.079
-761.137
1387.27
-212.908
-589.486
1588.7
-83.6849
-283.851
1715.32
-126.3
-461.737
1845.66
-142.247
-418.136
1944.78
-118.026
-414.911
2016.34
-106.632
-313.304
2007.91
-52.2028
-229.929
1945.44
-37.6407
-202.455
1703.48
57.3977
-167.778
1363.44
170.184
-207.137
1112.25
193.653
-347.765
976.552
158.118
-317.728
904.438
106.764
-134.017
852.401
87.0982
45.5234
819.834
73.8532
112.107
787.623
51.2591
68.5148
762.432
29.9184
30.1253
13.9423
11.1649
1186.35
330.475
1377.27
1492.17
-472.592
1110.5
1510.35
-191.77
512.696
1366.11
62.3013
236.169
1092.02
3.38
50.2832
896.609
-60.3616
16.9472
763.066
-48.5061
-106.817
668.706
-0.655642
-153.749
687.691
42.2066
-231.423
723.344
81.9854
-158.382
763.059
114.45
12.0847
774.001
157.212
69.803
778.775
168.303
-18.8278
780.124
154.932
-80.1145
772.085
127.213
-45.5133
764.832
108.817
18.125
761.412
93.5474
40.1155
753.791
66.9295
24.4507
744.239
41.4872
12.5397
20.4502
4.18753
592.884
-625.678
-4134.76
1134.67
-1028.67
881.987
1163.3
-489.739
904.067
1065.22
127.487
414.587
943.335
46.0752
371.987
807.924
13.5034
306.187
767.862
-38.5541
212.285
746.535
8.3907
169.529
760.529
45.1288
49.8094
764.867
97.4548
6.36673
774.366
135.903
-80.0936
773.459
179.972
-131.044
767.944
183.765
-103.759
761.586
171.696
-76.1362
749.901
148.121
-31.5817
741.908
126.693
-1.22792
740.306
102.113
14.3611
736.252
73.4623
11.2512
731.058
47.642
5.4885
24.7678
1.87682
1296.5
-944.475
-805.896
1849.23
-1188.94
-259.516
2035.07
-816.385
105.013
1973.89
90.9388
106.081
1548.4
300.455
498.329
1147.63
254.825
578.274
856.058
140.14
427.25
694.082
113.75
283.587
654.824
81.4895
146.616
622.933
129.224
107.071
619.622
145.79
57.1314
631.495
171.693
18.2502
651.606
168.79
-6.11555
671.143
157.782
-8.85611
683.227
137.847
-5.47916
692.074
118.962
2.71168
701.211
93.2124
4.90819
703.67
70.7704
2.48043
704.694
46.5176
1.34388
24.3478
0.299723
1804.41
150.074
-2462.22
1750.25
-646.813
-863.612
1450.02
-305.319
-231.174
1186.11
258.311
57.7569
791.351
497.394
261.067
589.461
344.725
301.319
609.483
92.8048
357.327
599.607
93.6199
268.697
634.118
39.9566
161.636
632.198
121.306
96.0491
639.463
144.531
28.74
647.662
170.562
3.9133
657.142
163.7
0.270627
666.013
152.057
-3.04198
674.428
131.091
-0.456014
681.276
112.87
1.13125
686.842
87.7366
2.07417
689.317
68.3372
1.25013
690.872
44.9906
0.685374
23.6075
0.199364
990.367
771.266
-3441.26
970.191
-40.7733
-1220.7
744.371
365.726
-515.679
642.134
367.088
-167.624
406.382
416.484
-252.068
381.157
355.55
202.368
610.553
-47.3577
95.6961
574.537
193.914
-5.44985
596.999
61.1269
22.883
569.18
173.65
39.0654
563.595
164.687
40.9985
573.727
171.29
27.5016
597.303
146.628
16.6653
617.785
134.626
7.63044
630.848
119.067
4.23936
642.937
101.211
2.50783
652.421
78.3391
1.21857
660.419
60.3568
0.662189
666.505
38.913
0.299179
19.6125
0.0665026
502.811
871.658
-2966.45
385.464
357.893
-983.875
684.624
525.85
-95.6702
660.281
239.781
-330.955
485.296
297.247
-297.06
399.02
459.629
120.376
363.207
35.3544
-80.3993
-34.1913
44.8629
-28.338
159.26
107.445
-297.553
147.535
70.173
132.72
232.526
61.7911
-248.04
-17.6388
64.5558
-14.1662
288.972
18.9829
-102.215
48.3491
21.6808
50.7228
348.124
43.4987
-18.9132
18.0958
44.8804
19.0266
433.792
23.4776
2.28788
23.1535
23.8512
23.4599
510.384
23.2515
7.95043
13.1325
23.4394
13.3134
558.193
22.9104
7.70549
20.026
23.0532
20.299
592.91
83.8886
5.44555
612.606
80.4742
4.95631
630.662
59.882
2.60886
642.032
48.7459
1.79743
650.747
30.1012
0.80472
15.0473
0.287627
-749.992
218.015
-963.012
-144.327
371.969
-878.198
982.157
343.262
302.652
933.887
257.135
60.696
830.967
227.835
67.7689
159.357
138.239
61.2184
160.424
168.096
165.857
191.026
124.242
182.975
-31.0282
93.3115
87.2766
45.1516
87.4438
-17.968
6.00551
130.296
-98.3315
69.8347
-1.70973
-6.76732
107.644
-107.21
18.7637
12.9066
13.8592
-16.7398
-9.80684
-0.0306614
-49.9393
73.8501
14.1171
5.50137
-4.18575
-91.1005
104.236
8.07612
6.4514
-2.94309
-118.377
126.584
14.3551
3.63268
-2.10939
-132.536
137.841
17.2907
2.42499
597.867
18.8572
17.4797
-142.82
-148.253
-142.789
-148.281
11.7182
19.009
11.9808
610.17
65.3737
10.1347
621.604
47.4779
4.98006
631.666
38.1248
3.09728
637.667
23.7236
1.69907
11.2024
0.628222
-522.914
1017.75
-3210.94
-140.472
516.963
-322.298
402.295
356.488
178.198
161.475
455.199
178.509
85.1819
360.108
263.299
-41.077
89.3556
-42.3503
-23.632
97.7492
151.529
-2.22474
-19.176
-33.4544
-27.4994
23.1013
36.8064
20.222
12.349
-5.30656
-36.6184
6.54684
36.666
-13.6369
20.7826
-16.3517
-37.5384
17.9685
40.6645
-25.5257
15.797
-32.0322
9.20153
34.2035
-10.9208
-16.249
-3.59307
-39.3742
7.09366
41.0225
-7.84412
2.69519
-5.40816
-40.9226
-0.184238
39.93
0.0198354
6.56515
-2.83624
-37.473
-3.15718
37.4207
3.1854
2.86027
-1.00212
-37.1855
-4.53144
37.449
4.23516
1.03485
-38.3104
-4.63121
153.297
17.3069
5.91142
-38.1765
-38.3225
-38.218
606.693
50.2386
42.6463
-153.088
-150.483
-153.136
-150.507
606.452
39.9182
23.286
609.607
29.9981
15.236
612.609
18.5052
7.02573
6.80301
2.72198
3073.85
1045.21
-1221.39
2282.34
656.173
284.772
1147.88
601.711
522.291
756.288
590.296
189.505
20.2232
504.748
604.83
156.935
21.3893
154.128
-100.992
-147.331
5.99726
151.187
111.361
-5.08048
-35.1431
-14.2406
15.1632
36.2343
3.06664
-0.711139
-29.2832
-20.3546
21.1027
29.3665
-0.120237
-2.64716
-29.4118
-29.8397
41.1518
19.8772
0.869602
4.30691
9.93552
-50.5321
47.4681
-7.87247
-3.30599
-38.8626
-3.02844
6.12712
37.3273
-6.7221
5.15875
-37.8144
-7.71557
0.0894255
-0.0808884
7.00424
38.5172
-2.8588
-2.02171
-39.6995
39.7755
1.94319
2.86129
-1.4259
-2.76544
-39.251
39.0266
2.84569
1.57011
-38.3655
-7.00833
-13.8187
154.168
13.2776
8.30046
-38.9727
-38.4441
-39.1368
598.031
39.3649
47.2667
-151.476
-150.979
-151.445
-150.529
598.47
29.9402
27.1379
602.353
20.8384
16.3572
606.717
11.7152
8.04814