/*--------------------------------*- C++ -*----------------------------------*\
  =========                 |
  \\      /  F ield         | OpenFOAM: The Open Source CFD Toolbox
   \\    /   O peration     | Website:  https://openfoam.org
    \\  /    A nd           | Version:  10
     \\/     M anipulation  |
\*---------------------------------------------------------------------------*/
FoamFile
{
    format      ascii;
    class       surfaceScalarField;
    location    "0.8";
    object      phi_0;
}
// * * * * * * * * * * * * * * * * * * * * * * * * * * * * * * * * * * * * * //

dimensions      [0 3 -1 0 0 0 0];

internalField   nonuniform List<scalar> 
38556
(
1249.42
757.149
681.694
1066.99
-111.126
293.556
971.312
-232.143
327.819
1006.1
64.3333
-99.1245
1240.95
144.127
-378.975
1304.57
295.208
-358.827
1320.95
384.631
-401.009
1284.18
421.693
-384.928
1217.29
445.693
-378.802
1169.37
443.547
-395.627
1152.13
401.369
-384.13
1198.05
292.521
-338.437
1293.58
193.026
-288.564
1344.75
133.788
-184.951
1293.58
108.418
-57.2538
1130.47
116.723
46.391
933.613
98.9346
97.9205
819.818
57.3882
56.4073
765.759
32.1282
21.931
14.1247
7.35815
1466.46
1795.88
-1276.98
1412.98
118.714
-176.363
1327.77
-124.043
-22.8907
1252.65
31.9061
107.554
1213.84
192.392
-9.45928
1172.64
369.05
-32.6363
1122.62
463.795
-29.1523
1067.51
470.39
6.41243
1015.57
437.35
60.2882
976.306
386.927
95.8831
946.777
320.347
110.552
951.195
230.513
57.5909
982.745
177.031
-15.5556
984.831
152.441
-20.7383
944.788
130.114
18.3468
874.626
131.899
54.9852
803.618
112.841
57.1017
760.881
71.7197
28.4054
739.637
43.4987
9.87403
20.5357
3.19234
1471.98
441.312
-955.817
1315.42
97.5017
177.774
1280.35
-20.5129
-68.4622
1077.12
226.369
8.76106
995.002
215.564
58.9495
918.28
361.599
84.1722
866.866
399.805
115.404
814.973
401.292
120.992
804.04
352.515
95.7684
805.466
316.859
68.6419
823.685
280.97
21.1583
839.246
250.033
-35.0806
837.6
216.032
-37.3551
821.705
188.873
-20.536
790.984
156.301
4.53404
764.863
139.252
18.7685
747.537
111.312
18.8543
732.853
76.6391
9.7647
723.339
48.7684
4.24488
24.5728
1.38927
1322.16
-277.456
3599.06
1338.4
-473.258
554.517
1353.77
-246.181
210.293
1224.65
234.058
121.431
1012.28
411.986
15.9511
915.038
451.751
7.09183
847.426
393.605
73.8108
760.941
356.901
130.876
713.425
284.053
115.978
668.679
276.478
85.1267
649.867
243.028
56.7529
648.754
225.781
25.3645
658.39
199.56
6.83588
669.71
173.409
4.14346
676.596
147.273
2.14262
683.479
126
6.36834
692.149
97.9825
4.65922
694.241
73.0458
1.50165
694.817
47.4028
0.789083
24.1866
0.108679
1865.77
-1258.17
317.291
1942.54
-300.705
-249.324
1383.82
235.323
77.215
1074.92
535.224
7.73209
819.776
683.166
-16.033
697.623
524.973
48.9315
684.671
233.204
173.354
666.865
224.596
150.11
679.996
171.116
99.807
666.462
233.104
56.9073
660.57
222.029
26.8911
658.369
216.631
11.3507
660.354
191.702
5.87377
663.694
168.289
1.78003
668.162
141.082
1.7232
672.923
119.443
1.79616
677.547
91.9378
1.42032
679.101
70.7423
0.750197
680.015
46.0552
0.433551
23.5166
0.089805
294.913
-1087.69
-2549.81
311.532
198.088
-515.412
191.795
559.736
-204.675
195.702
555.296
-23.9792
571.836
497.243
-190.211
509.203
488.877
98.729
726.296
-46.5816
62.6924
711.892
176.221
62.7787
702.982
126.269
53.757
642.176
241.659
52.2523
606.594
216.481
41.1302
593.825
202.802
26.5988
601.904
168.613
15.0103
614.598
149.058
6.53622
624.458
128.584
2.63701
634.345
108.022
1.53511
642.312
83.1909
0.779351
649.264
63.3635
0.42729
654.675
40.4275
0.215734
19.705
0.0149918
-398.508
-283.072
-1484.57
-478.336
539.97
-262.053
-546.594
728.737
-100.744
79.9852
272.443
-343.726
690.752
311.373
-424.898
477.379
586.524
115.727
450.466
57.0288
-104.488
-6.52946
48.4724
-14.1525
242.372
73.7422
-75.8036
131.804
103.134
151.439
282.964
49.3424
-12.1428
-3.31754
53.4687
-1.67477
330.899
41.6934
-40.9817
74.5238
44.6159
73.8734
366.228
56.138
6.61184
32.0127
55.0427
31.3459
440.482
28.8188
8.16996
32.5591
28.2596
30.74
508.873
27.5411
6.2285
20.8097
26.2492
19.3932
551.121
25.8205
2.50408
28.2296
25.0916
25.1652
583.257
94.3063
2.14166
601.988
87.6709
1.62036
619.028
65.2095
0.941258
629.391
52.2209
0.779355
637.336
32.0933
0.388998
15.2989
0.114532
1524.33
1441.41
-974.522
1356.06
677.782
30.4621
300.081
836.234
948.482
285.305
258.483
28.735
754.388
179.029
-336.738
160.806
120.857
22.9667
170.095
154.572
164.199
207.084
121.714
218.619
125.957
117.924
-26.046
-77.4161
43.2281
95.5771
12.3531
-5.82462
-34.3497
90.9266
-1.40981
37.0496
-0.525506
9.2851
-4.11586
-49.4408
69.3545
40.901
-4.67672
-88.3756
99.7482
19.1728
-1.72674
-116.054
122.574
21.173
-0.151753
-130.221
132.929
22.0112
1.10195
587.29
21.396
4.28736
-139.953
-142.619
-144.487
-145.715
17.1371
21.0785
15.8906
598.095
73.0198
3.84571
608.093
53.155
2.05655
616.867
42.144
1.30292
622.151
26.1345
0.674356
11.6257
0.200212
751.992
720.32
-3339.57
821.723
344.717
263.333
336.821
559.866
761.271
202.51
291.967
100.828
121.468
132.71
27.8621
-11.6904
120.617
-9.42774
122.456
98.3771
21.4917
-38.8075
-33.9931
31.6427
44.1821
-3.02426
-27.9375
-30.2368
23.3772
33.096
1.70115
-22.6689
-33.0535
18.1294
34.8357
2.75736
-20.013
3.1827
18.78
-1.82656
-0.123092
-21.4806
-2.06841
23.5878
-3.44754
3.40873
-28.5608
-5.6375
29.8584
4.94498
-0.605084
-32.9664
-5.23321
33.3115
5.34646
-0.45831
-34.4062
-5.84494
34.5131
5.85944
-0.121364
-36.383
146.943
20.6802
0.954715
-35.7003
-37.9279
-37.171
592.065
58.9894
12.2673
-148.864
-143.307
-151.742
-146.388
591.13
46.5044
7.58613
593.354
34.8908
5.02923
595.552
21.5337
2.40232
7.58812
0.903497
1265.22
1040.01
-2334.44
1479
677.554
-546.615
1588.5
528.256
-77.8906
1434.7
300.626
145.137
207.657
297.917
205.312
254.365
277.396
324.763
-80.9496
166.565
105.738
16.3031
-41.7059
-33.2204
32.1796
37.7281
5.01857
-34.8946
-24.409
22.772
36.9384
-0.406717
-40.3439
-23.3055
24.0034
41.5506
-1.9046
10.152
-36.0148
36.1057
-14.6771
4.43412
14.3826
-38.059
39.8288
-16.8684
0.715979
-0.32525
-37.5682
36.7553
-0.0164069
1.15453
-3.82604
-36.3823
36.3608
4.09875
-0.251245
-4.22437
-35.9818
35.813
4.39803
-0.00486769
-35.926
-17.0546
146.613
16.059
1.80295
-35.9228
-37.5964
-37.9749
580.147
49.5559
14.0848
-145.148
-144.05
-148.194
-147.407
580.666
37.7929
8.19296
583.637
26.6237
5.29541
587.158
15.2269
2.7868
3.20571
1.15219
648.743
740.85
-2311.75
547.261
1058.75
-279.712
710.858
765.731
-401.072
561.637
588.515
-138.667
118.264
447.248
-97.5151
122.324
138.486
130.746
-119.164
127.376
101.584
8.46857
-36.8741
-35.4226
36.7039
33.2394
2.35339
-36.3391
-42.8434
46.2953
34.2193
-1.33212
-27.059
-56.0951
59.128
24.3172
-0.291057
18.373
-47.4759
42.0759
-16.2625
3.28946
13.022
-42.3785
44.781
-9.464
-5.96051
2.04895
-44.9141
42.1102
-1.59005
2.34495
-4.88614
-37.455
37.1289
5.46323
-0.250952
-5.01746
-36.5829
36.4455
5.23726
-0.0824268
-36.3466
-16.9152
145.086
16.6607
1.72974
-35.0179
-38.0822
-37.1144
569.021
39.7847
13.2185
-144.098
-138.993
-147.21
-142.167
568.6
30.2619
7.95213
570.663
19.1074
5.45322
572.767
10.2621
2.86041
-0.619286
1.07413
1202.29
-519.705
97.9341
1454.24
457.218
349.582
1845.68
667.204
-292.914
1853.8
716.31
-135.911
276.597
605.801
339.71
327.736
355.971
395.229
-100.511
225.36
94.1246
57.623
-23.4628
-52.9383
54.0481
20.4795
1.87344
-25.8202
-58.7471
60.0075
19.355
5.2048
-17.0747
-61.2784
58.866
13.7913
5.69589
6.79332
-29.9493
32.1706
-2.29351
-6.72111
-3.37377
-42.246
42.2861
6.03277
-2.69906
-6.23387
-39.4347
38.2905
7.61753
-0.239516
-8.35663
-35.0929
34.6944
8.95213
-0.196986
-6.50137
-34.179
34.1327
6.71326
-0.165591
-34.1071
-15.8259
141.174
11.042
1.05634
-32.9943
-35.6595
-34.6858
551.733
24.5529
11.9126
-136.885
-134.034
-140.139
-137.357
554.61
19.9819
7.40334
558.972
10.028
4.71746
562.721
4.2271
2.28529
-4.69686
0.889211
1109.35
-151.391
2290.53
1099.61
174.226
292.729
995.342
624.488
146.985
876.542
564.966
270.144
742.855
507.827
231.662
173.504
153.296
142.338
-85.3266
-55.8375
-101.342
-71.5038
187.057
190.927
209.743
-16.2422
170.511
48.8705
19.2013
-17.5318
-15.0665
-16.2382
-9.22301
-133.141
103.453
40.8559
27.4461
-10.6298
-8.82212
-9.93922
-10.2275
-102.094
119.711
19.1325
0.849489
-8.8137
-9.44833
-9.10957
-11.3693
-120.661
132.984
51.1672
-14.4603
-13.1048
-11.5886
-12.9676
-10.518
-138.406
141.962
38.9428
1.46137
-11.2492
-10.7853
-11.4072
-8.16875
-129.434
125.058
36.4508
2.37142
-9.1503
-8.15115
-8.97625
-6.68038
-120.79
125.639
24.2697
-0.15584
-8.06691
-6.3666
-7.84958
-4.66339
-121.753
128.351
16.09
-1.0227
-6.23422
-4.5936
-6.1742
528.783
39.807
-4.29452
-7.95764
-17.7564
-8.1647
-17.8262
-128.13
-122.157
-132.38
-129.923
542.082
11.4123
-0.158184
551.213
10.4013
0.448785
558.411
1.65134
1.17894
562.266
-0.238106
0.609883
-6.65714
0.173785
681.731
657.949
-1395.88
859.405
470.067
-473.514
1028.47
366.726
88.6938
1244.13
204.755
144.557
1336.27
106.451
309.228
1445.98
-129.377
172.963
1399.38
-57.5677
313.239
-39.09
-64.9264
-41.6248
-63.4267
1323.69
-137.347
290.391
-27.746
-10.5999
-25.2604
-13.7459
1058.99
96.7352
301.829
-12.3369
-47.8899
-18.3509
-55.29
801.007
197.115
208.232
-36.1055
-28.7009
-45.9972
-36.5586
642.338
298.542
59.9617
-39.4721
-52.5953
-48.9408
-58.8266
585.775
227.68
-21.3466
-37.4452
-33.1764
-42.692
-36.4569
562.328
196.795
-52.0945
-25.5671
-32.8276
-28.5731
-34.286
560.209
122.113
-54.0613
-13.919
-17.5883
-15.2477
-19.1774
566.93
57.9216
-24.8356
569.452
11.0104
-2.11944
569.74
5.76865
4.34402
568.234
-1.17701
4.33532
566.629
-1.09898
2.46541
-6.41218
0.885653
298.205
415.925
-1042.68
715.417
392.172
-339.317
1126.88
107.344
-152.077
1386.02
9.11376
-63.4972
1331.66
-137.843
298.655
1430.42
-272.603
44.4613
1377.42
-213.619
209.054
1305.22
-229.633
164.482
1038.16
79.966
283.832
790.442
290.114
154.717
708.717
383.842
-3.57493
696.408
325.949
-85.9598
697.009
275.631
-79.4372
675.777
182.497
-39.1523
629.105
98.6474
5.94619
590.088
32.0403
17.9866
570.083
16.9343
8.83927
560.338
3.72099
4.84687
556.666
0.899703
1.67405
-4.85957
0.693975
742.641
663.622
-226.832
991.091
534.999
-391.277
1095.26
379.039
-375.863
1227.89
213.749
-337.263
1095.43
169.385
-174.776
1155.48
58.3246
-390.969
1105.28
114.746
-278.165
1124.27
62.1858
-310.81
1004.18
248.518
-48.4646
904.641
351.862
37.7903
863.818
398.145
26.52
850.841
335.459
3.46644
827.59
251.51
47.3723
785.698
160.695
63.6938
713.627
110.672
60.0469
640.218
55.3707
50.0787
597.998
34.1059
25.0485
573.975
15.6778
12.066
563.38
7.6355
3.85946
-0.422152
1.51723
1137.52
1184.59
-2835.42
909.101
810.31
-46.8948
745.422
407.938
134.78
779.745
278.328
-98.9025
522.315
377.288
49.5271
495.206
373.85
-288.416
445.707
415.062
-250.817
559.515
351.418
-403.04
646.952
379.632
-218.551
723.698
330.894
-55.7771
761.324
286.888
73.6302
778.583
209.41
108.791
747.658
148.471
133.964
688.333
96.2117
123.809
626.848
80.9534
91.203
579.818
49.2203
53.1807
559.688
33.8373
20.3982
549.511
17.7105
8.14413
545.768
8.94726
2.43149
1.06698
0.860121
808.918
192.291
-1193.41
972.167
-16.8446
663.905
793.352
49.7113
537.042
935.596
208.224
-72.1392
834.031
364.944
113.909
851.157
438.12
-81.3962
683.452
463.593
119.174
662.032
351.232
21.6049
620.638
301.525
119.502
624.18
202.607
124.745
600.904
161.123
149.041
581.071
100.815
128.428
555.138
84.0672
90.3372
538.983
58.1321
54.2345
536.688
52.6366
30.6113
538.398
34.1675
13.3434
540.975
24.7928
6.46777
542.615
13.9884
2.08194
542.656
7.92158
0.984928
1.71154
0.201517
334.411
132.381
-521.128
261.804
-883.006
938.769
307.178
-400.026
404.363
378.756
-3.22643
139.872
316.771
227.541
199.389
377.359
346.39
31.1414
257.702
293.142
290.108
275.24
250.886
82.8082
281.424
132.733
162.608
318.505
91.6896
73.8365
368.164
59.8471
51.6174
401.496
47.576
19.9071
439.113
40.0616
6.3889
466.813
29.9542
0.477215
493.307
25.996
0.146883
510.511
17.1206
-0.156766
522.693
12.5479
0.0619757
529.547
7.13266
0.00266887
533.436
4.03907
-0.00645172
0.924985
-0.0636712
516.03
2204.91
755.07
-1122.05
554.112
-199.068
511.43
39.4559
410.868
328.103
458.995
298.263
410.523
341.613
415.996
245.413
373.915
174.814
371.613
93.9909
383.248
48.2129
409.121
21.703
439.987
9.19533
466.151
3.7898
490.344
1.80372
506.698
0.765794
518.816
0.429796
525.766
0.183329
529.707
0.0974874
-0.0512591
107.522
1570.97
418.734
546.995
42.1
-188.018
1397.81
-421.034
-101.958
1522.81
-76.7352
-147.391
1650.04
-42.5931
-463.615
1744.83
-23.2253
-430.387
1777.09
0.792926
-434.068
1767.53
-26.2515
-349.115
1665.86
15.6716
-292.802
1510.49
66.7246
-306.984
1330.04
153.307
-356.98
1196.54
173.467
-378.41
1159.47
150.974
-402.465
1171.61
92.8451
-289.935
1144.36
63.8239
-93.8246
1031.3
76.059
83.383
895.17
81.591
152.464
810.874
55.0055
85.6972
767.671
31.3248
33.8099
14.0452
11.9167
2210.45
672.57
1646.39
1814.27
-733.715
995.635
1199.54
-409.477
580.274
936.172
48.8781
245.313
903.621
75.6486
-95.1499
812.386
130.751
-95.3778
776.422
178.33
-170.725
726.536
171.135
-141.088
752.151
166.791
-116.446
754.158
160.875
-0.273947
752.068
157.107
108.841
761.078
156.67
65.3777
789.056
147.933
-40.4919
811.355
131.276
-81.4684
813.035
112.212
-31.7215
800.24
110.6
33.2392
780.553
102.752
55.6276
759.506
72.7067
31.7511
743.223
43.4425
14.0399
20.5754
4.50988
2590.57
-1944.62
-7046.52
2155.83
-1006.52
885.316
1497.8
-492.753
672.846
1079.86
85.0877
390.491
878.974
46.1194
289.361
723.447
124.967
245.484
700.586
136.081
180.514
667.065
170.123
155.525
694.856
170.294
64.4744
708.54
191.955
23.8779
738.217
199.584
-50.9952
760.946
208.722
-109.861
769.068
195.726
-93.2712
769.409
175.215
-64.8156
760.254
147.516
-21.6145
750.946
129.774
8.90364
744.035
107.42
21.0973
736.172
76.8805
13.4537
728.592
49.0149
6.2521
24.7973
2.05408
1094.05
-1457.66
-104.414
1795.29
-1090.76
-62.4809
2304.38
-741.795
-49.7573
2484.35
11.916
14.6327
1896.17
315.349
334.909
1264.12
343.814
420.294
901.468
262.276
310.265
740.641
237.263
224.563
697.278
187.261
142.374
655.901
212.081
106.378
644.567
204.578
63.0935
649.668
207.619
21.3667
662.045
191.195
-1.01016
673.887
170.759
-3.24304
680.746
146.362
-3.56338
687.978
125.078
3.83238
696.984
97.9852
5.08699
699.656
73.5025
2.2076
700.477
47.7838
1.1989
24.4258
0.212859
1899.79
-751.898
-3474.08
1917.99
-854.092
-504.193
1473.07
-215.56
-4.10119
1277.62
254.434
-39.3349
975.987
536.628
64.3193
760.854
417.648
190.231
694.943
170.418
331.124
665.807
178.916
237.593
676.556
122.337
153.982
664.117
196.16
85.2679
660.998
200.449
34.1382
661.301
207.881
10.7866
664.686
189.14
4.54371
668.853
168.252
0.120597
673.48
142.254
1.20404
678.228
120.238
1.88899
682.982
92.5065
2.14502
684.653
71.297
1.28462
685.716
46.4537
0.700515
23.746
0.191144
1138.63
978.361
-2354.19
727.061
-365.614
-592.319
54.6292
289.354
-37.1569
91.8703
350.57
-157.357
656.525
337.475
-555.713
585.424
400.542
186.936
682.947
-46.8518
182.439
640.151
227.901
56.5899
647.305
103.205
65.7344
610.352
222.201
63.1645
593.055
203.738
55.1378
590.295
199.21
38.0289
603.978
167.623
22.8445
619.025
149.304
10.4372
629.291
129.4
5.22428
639.311
108.863
2.88942
647.368
83.9475
1.28193
654.429
63.9904
0.672129
659.995
40.7946
0.309111
19.88
0.0650231
744.067
195.947
-5903.13
770.995
39.7667
-694.363
62.9216
434.892
461.792
343.27
224.805
-498.309
604.319
226.765
-575.235
451.382
532.584
136.622
323.854
32.7739
-55.2251
-17.6769
33.9084
-17.5926
113.716
132.819
-238.579
165.755
133.502
168.739
243.961
50.557
-140.693
-5.41503
61.7327
-5.36407
311.437
35.1798
-78.7033
68.8907
27.2317
61.144
361.989
52.6309
1.01898
29.2348
48.8904
28.0232
442.011
27.6247
10.5625
30.644
27.6407
30.8854
513.127
26.3282
10.932
19.3767
26.5079
19.5908
556.368
25.192
7.05367
25.4225
25.2931
25.6058
588.675
94.2732
4.96249
607.002
88.2603
3.89653
623.894
65.8044
2.19201
634.467
52.6627
1.53415
642.662
32.2803
0.708629
15.3763
0.261222
1714.86
520.749
-1787.97
1623.2
373.616
-211.734
1173.88
531.091
1301.61
1088.7
302.412
36.3033
792.97
283.136
-97.3759
122.299
158.445
61.0147
137.51
123.857
137.162
219.567
169.382
219.284
22.036
41.5691
87.2064
4.26165
13.983
20.2959
-9.90613
157.456
-49.0099
3.19808
9.46254
-24.2239
92.3604
-30.2401
16.5073
25.205
5.10756
13.7956
-25.4356
6.06649
-51.6435
72.2982
32.8271
-6.9174
1.40334
-91.5632
103.067
14.6458
0.0714682
-0.948648
-119.284
125.65
18.9936
1.91675
-1.30352
-132.892
136.559
21.1523
1.67633
591.121
21.1055
11.0189
-143.377
-145.599
-143.291
-145.573
15.8641
21.2278
16.0624
602.533
73.3272
7.36616
612.905
53.5174
3.97136
622.071
42.321
2.47935
627.575
26.1334
1.31733
11.5965
0.505002
706.341
1235.37
-3311.38
711.369
389.026
242.894
648.902
540.083
814.745
470.713
427.397
154.032
64.9504
398.385
336.367
-40.1702
61.7105
-39.5311
-45.7791
64.0171
164.597
40.5598
13.077
-23.9521
-6.46362
0.456142
21.9584
-5.07587
-7.54763
-2.41643
-40.6535
5.39717
42.3294
2.89101
-1.37167
-16.0681
-35.9413
14.6119
41.8451
-3.07589
12.8096
-24.2659
-2.68749
23.1412
4.50456
-13.502
-9.61233
-31.3066
-2.99803
35.2177
-0.24872
8.94793
-1.03788
-41.62
-3.19003
41.687
2.05881
2.10209
-0.252387
-39.4073
-4.38654
38.4703
4.67563
0.900238
-0.451047
-37.1819
-5.33518
36.9808
5.33878
0.64849
-38.158
-2.2881
150.619
20.3435
3.56171
-37.413
-38.1444
-37.4152
597.029
59.1898
26.9569
-152.054
-146.693
-152.063
-146.77
596.134
46.7145
15.2839
598.504
34.9294
10.0507
600.916
21.4001
4.72352
7.4496
1.89152
1221.92
1404.04
-464.926
801.191
792.76
-529.615
897.193
723.422
-357.231
910.022
610.605
-50.9004
108.563
583.473
347.658
224.611
56.6609
192.753
-50.0629
-150.864
92.9069
148.048
68.5354
-31.1832
-32.2398
-21.4562
19.5725
39.2769
26.0299
-2.05717
-40.4023
-10.9895
12.3391
40.2459
0.863952
-1.26574
-44.1261
-19.0146
20.7278
40.0128
3.66574
-7.06623
0.0159315
-36.9969
39.1954
2.02605
2.82576
2.46981
7.5076
-40.3198
41.444
-8.20325
-2.89839
-5.82388
2.0573
-42.2133
41.4868
-3.13322
7.62632
-1.75603
-3.00546
-40.4505
40.1396
2.83497
2.23748
-0.788039
-3.82679
-38.8822
38.5078
3.98725
1.00194
-37.8677
-3.70889
-16.7401
150.808
15.9443
5.52783
-38.0451
-37.886
-38.0328
586.153
49.2742
30.0258
-148.71
-147.612
-148.705
-147.151
586.001
37.6675
17.3916
588.903
26.479
10.8443
592.512
15.0419
5.53564
3.09493
2.29375
979.311
984.439
-1124.95
782.001
933.844
-223.486
730.965
726.848
-353.463
630.523
686.33
-113.95
151.276
647.02
-114.485
144.539
146.069
142.062
22.3112
-151.459
162.607
147.957
-30.1399
-2.11905
-39.1856
-43.2294
45.3068
37.1559
2.0713
-4.96381
-39.4151
-48.5803
49.9823
35.8162
7.16074
-2.11288
-30.3003
-58.8843
62.9651
29.113
-0.780634
6.50678
-14.3732
-62.2772
60.905
16.4363
-7.19768
6.31571
6.99481
-55.6933
53.2398
-5.27462
-5.58244
-1.00802
2.62884
-47.3298
46.3631
-1.12382
0.469716
-0.923358
-3.11507
-43.0994
41.8761
3.68039
1.58135
-0.540571
-4.52082
-39.3409
38.8471
4.86863
0.686524
-38.0163
-3.19946
-16.766
148.857
16.4337
4.72393
-37.0226
-37.9823
-37.0279
574.936
38.9741
28.7104
-147.545
-142.614
-147.382
-142.586
573.953
29.6896
16.9131
576.121
18.7675
10.9959
578.301
10.0566
5.66594
-0.770081
2.26647
192.314
-294.271
352.441
939.285
216.794
319.661
1259.88
418.039
-304.703
1261.25
636.883
-87.8321
265.126
750.931
377.292
307.949
254.838
291.845
-83.3741
-151.792
259.03
149.473
91.7892
-14.2049
-32.3406
-57.2101
55.5557
33.2253
14.9745
-14.0015
-29.5908
-56.5537
59.4315
28.03
12.6844
-25.5989
-25.6187
-66.8653
68.7097
22.0066
27.3666
0.576267
-15.6284
-69.0006
64.2981
11.8163
7.93834
5.59989
-3.12193
-48.4795
46.1449
5.58761
-5.7309
-0.230798
-5.50476
-42.646
42.0116
6.46786
-0.0979254
2.93192
-6.82164
-39.7415
38.9844
7.82614
-3.17935
0.312444
-6.39415
-36.923
36.5562
6.68286
-0.234302
-35.8823
-1.84964
-15.7137
145.15
10.8139
3.12892
-34.8793
-35.8837
-34.8839
557.885
22.4902
26.8596
-140.43
-137.738
-140.436
-137.744
560.348
19.0079
15.6219
564.698
9.3054
9.8302
568.38
3.9503
4.70951
-4.8967
1.96666
931.494
1047.71
18.3528
1014.98
586.77
-160.732
867.753
838.894
-126.643
785.015
764.712
225.054
702.362
751.5
313.745
177.353
387.927
301.4
-143.79
-123.002
-151.859
-134.182
178.713
178.486
173.654
-31.6383
-39.4871
184.242
103.677
58.7322
-31.289
-33.367
-33.5165
-19.3632
-54.8211
-173.413
173.661
62.9676
70.6503
-17.3374
-22.3184
-20.026
-17.3623
-11.8567
-179.443
185.741
49.8867
28.198
-17.4722
-18.9331
-18.7583
-17.2436
14.3732
-159.875
143.773
73.1362
-2.19852
-16.6168
-18.1919
-17.1566
-11.83
0.439863
-137.381
138.692
47.6888
-1.4957
-12.3023
-11.6525
-12.1592
-8.41368
0.14875
-127.335
125.551
37.465
-0.824557
-9.13574
-8.34799
-9.10851
-6.34115
2.58376
-122.862
128.689
22.3534
-2.48662
-7.80474
-6.33595
-7.79532
-4.40162
2.72848
-124.97
132.274
13.1208
-2.31874
-6.03484
-4.38342
-6.01499
532.267
27.9686
-0.0114493
-6.93465
-17.3998
-6.56389
-17.2387
-131.181
-127.332
-131.006
-126.863
546.598
4.50736
3.49422
556.254
6.78468
3.01612
563.934
0.00544449
2.79837
567.926
-0.749179
1.31778
-6.93551
0.517626
736.968
1538.29
-4331.16
417.523
830.137
-397.437
770.47
793.226
-218.585
894.796
564.203
220.74
983.452
400.484
571.588
1062.53
139.688
342.119
1024.91
212.35
552.277
-95.0786
-104.59
-100.791
-113.299
954.414
103.316
455.618
-57.8295
-33.869
-67.8605
-38.4923
792.924
267.612
434.712
-44.7694
-73.5708
-47.9213
-72.743
689.039
246.813
264.481
-58.7266
-44.6837
-55.3186
-40.4495
618.12
259.447
81.1136
-50.0032
-58.3101
-45.6944
-55.6712
593.546
161.656
-16.9291
-39.4243
-33.1274
-37.1328
-31.816
576.035
103.923
-34.6653
-22.5585
-30.1546
-21.4727
-29.6557
568.246
32.3915
-32.0317
-8.17664
-15.6566
-7.55156
-15.2471
569.265
8.14422
-6.03009
570.166
-9.10911
10.5958
571.319
-0.204088
10.1801
571.498
-3.27627
7.43772
571.362
-1.71092
3.5635
-6.69328
1.21646
-169.747
1367.01
745.915
-345.21
419.797
246.486
460.854
205.342
-370.258
779.171
221.011
-38.6212
896.805
170.414
411.09
1034.29
143.177
-96.5154
1001.21
244.37
210.116
920.176
200.05
148.783
817.98
376.073
277.567
768.929
316.461
134.119
749.738
281.638
-6.57427
749.908
171.128
-95.6013
736.348
108.678
-70.6318
691.467
44.6103
-6.4909
635.932
28.3249
41.301
596.525
4.87545
43.4088
576.709
7.80148
20.6496
566.776
1.60997
9.89416
563.028
0.296986
3.41409
-5.08684
1.48995
1707.94
1184.3
-232.599
1380.19
363.918
-7.64789
1109.46
254.302
-154.096
1059.16
299.693
-365.641
773.188
385.913
-104.304
699.392
261.812
-435.808
584.687
398.061
-317.151
589.568
261.235
-376.876
659.707
372.939
-115.469
781.229
286.807
-54.0781
860.321
254.241
-25.1736
890.192
162.068
-17.346
873.962
116.918
55.3628
818.85
69.6831
93.7328
725.014
67.1003
115.108
645.093
41.1368
93.7381
602.507
29.762
45.6739
579.369
14.666
22.1482
569.242
7.38075
6.90245
-0.53424
2.79398
355.711
244.265
-2760.83
580.606
205.483
-113.355
319.754
472.871
177.063
55.0102
626.007
-160.473
-176.178
665.677
0.951618
-96.7926
374.788
-480.777
144.655
366.16
-460.364
263.951
202.032
-463.133
443.802
234.982
-260.445
582.055
167.203
-74.4258
667.535
151.049
91.3416
689.622
100.644
148.128
672.848
91.0932
176.563
639.05
67.9471
159.343
603.606
70.9265
122.82
576.243
48.8718
72.8091
561.866
34.3288
30.2089
554.376
18.1363
12.163
551.472
9.19506
3.52182
1.19614
1.25302
327.805
-629.206
1023.92
157.476
-200.732
1240.45
61.9194
509.631
595.839
-27.2624
769.565
-126.515
62.7877
669.186
20.3497
129.993
446.724
-220.537
260.582
346.354
8.39009
356.497
191.286
-63.5638
434.616
174.617
101.747
491.066
105.843
129.656
513.773
106.408
170.974
521.4
76.641
144.804
520.161
79.823
102.846
521.267
60.9519
60.1243
529.964
55.9781
36.8619
538.785
36.5724
16.8218
545.187
25.9571
8.4374
548.137
14.635
2.63403
548.895
8.17674
1.24509
1.82378
0.424016
-990.6
1169.59
-2436.41
-704.716
-15.2754
467.427
-617.153
163.365
663.065
-413.261
212.735
492.81
-214.393
211.249
458.458
-189.368
211.706
241.135
-55.1339
127.54
374.689
34.3797
109.388
75.1927
202.797
30.8969
137.912
275.772
39.5276
67.1766
353.56
35.3033
44.934
396.658
37.8872
15.5628
440.218
37.1294
5.52252
470.704
29.4774
1.46617
498.421
26.3166
2.09058
516.297
17.469
1.07111
528.712
12.7863
0.81716
535.61
7.2931
0.447094
539.557
4.0905
0.132435
0.963394
0.0338974
2791.82
-3444.93
1234.44
420.058
436.639
762.1
273.885
414.944
285.276
527.961
363.949
431.296
403.079
430.022
452.079
305.801
416.318
241.472
403.544
146.292
400.775
86.2854
420.027
40.3378
447.515
18.8368
472.638
8.14372
496.462
4.29635
512.836
1.86147
524.999
1.0529
532.047
0.428069
536.013
0.22216
0.0430863
558.88
1216.92
201.983
796.655
96.6305
-522.423
1439.57
-222.398
-522.48
1633
-78.1361
-262.676
1753.05
-121.216
-462.457
1878.82
-137.647
-418.506
1972.08
-112.076
-415.258
2036.51
-100.606
-312.939
2020.9
-46.9482
-230.239
1951.1
-32.755
-204.427
1701.22
63.7418
-170.848
1358.96
174.757
-210.908
1110.69
194.847
-349.041
975.865
158.535
-313.642
903.086
107.208
-128.253
850.346
87.826
48.2966
817.072
74.1876
111.551
784.303
51.214
67.2523
759.123
29.7509
29.2391
13.7666
10.688
1362.49
654.811
1674.81
1576.36
-388.331
1266.73
1572.16
-164.491
526.563
1412.16
84.4827
242.7
1125.59
20.4174
49.7822
924.206
-48.4396
16.8007
787.772
-36.5821
-109.786
690.136
12.3603
-156.418
706.703
51.9398
-231.902
738.38
90.8304
-155.536
774.06
122.337
14.5663
781.722
163.559
68.914
783.818
172.607
-20.3477
782.554
158.025
-79.6946
772.438
129.596
-43.9935
763.893
110.809
18.8016
759.349
94.7494
39.6101
750.845
67.5066
23.9623
740.866
41.6274
12.1422
20.2973
3.95437
553.416
-760.592
-3676.81
1140.2
-979.947
890.147
1189.86
-453.934
912.63
1088.4
159.645
416.787
969.287
57.9713
370.92
833.085
28.0024
305.244
791.819
-23.8503
209.047
767.678
25.759
166.268
778.238
58.6162
47.2377
778.859
110.18
3.90763
784.702
147.242
-81.7427
780.666
189.194
-131.46
772.327
190.764
-103.089
763.541
177.078
-75.083
749.895
152.34
-30.7119
740.543
129.901
-0.836923
737.822
104.294
14.2735
732.989
74.7562
11.0378
727.391
48.1566
5.32029
24.6596
1.78387
1340.22
-1023.59
-917.522
1892.37
-1187.24
-407.334
2079.61
-811.435
120.505
2004.74
126.958
122.194
1572.02
318.963
506.635
1166.86
273.569
579.887
876.806
156.407
420.059
714.403
131.977
280.749
671.635
98.1921
145.566
636.365
145.146
106.682
630.066
159.751
56.8838
639.01
183.748
17.8684
656.298
178.602
-6.13576
673.149
165.729
-8.7447
683.157
144.12
-5.35214
690.422
123.728
2.74016
698.301
96.6299
4.872
699.893
72.9325
2.4398
700.442
47.5117
1.29479
24.3705
0.278299
1773.9
-72.9581
-4197.08
1815.18
-712.484
-1020.23
1496.49
-295.112
-201.738
1219.97
293.189
70.9541
819.189
521.607
262.456
615.638
368.451
298.9
634.591
113.484
355.094
620.599
116.614
266.948
650.108
62.8946
159.771
644.51
140.987
95.024
648.124
162.048
28.2272
653.22
185.591
3.84644
659.939
176.173
0.253553
666.469
162.285
-2.9653
672.945
139.256
-0.407314
678.31
119.096
1.1559
682.781
92.2402
2.06348
684.51
71.2483
1.24049
685.635
46.4191
0.667687
23.7404
0.195603
1210.73
786.01
-2691.09
1011.74
49.239
-1155.05
794.15
357.185
-471.868
692.991
394.678
-157.687
453.399
448.105
-242.62
420.524
387.949
200.313
639.205
-16.5632
93.806
595.432
225.804
-8.8279
612.497
88.6587
22.9049
579.558
198.398
38.6929
570.508
185.516
40.7196
577.599
189.242
27.2882
598.664
161.505
16.4472
616.611
147.284
7.49121
627.961
128.921
4.2091
638.66
108.817
2.46963
647.1
83.882
1.19927
654.337
64.0313
0.652182
659.955
40.8144
0.296166
19.8825
0.0728322
640.667
955.055
-2960.89
529.948
427.11
-961.515
777.832
580.794
-9.70067
716.066
288.536
-330.403
533.111
342.469
-286.644
434.176
504.638
118.869
389.472
42.3939
-85.0597
-21.1319
51.6596
-14.9459
182.609
113.047
-300.478
160.134
75.9753
145.411
252.754
65.686
-246.453
-5.38812
68.0987
-4.12406
300.555
24.6768
-100.601
59.2427
27.0586
61.5165
355.787
47.5216
-18.6511
26.3552
48.8466
27.2299
437.739
27.124
2.42005
30.2897
27.4244
30.5944
510.842
26.2781
7.91575
19.2486
26.4487
19.4425
555.266
25.3053
7.62836
25.6304
25.4384
25.9116
588.266
95.4596
5.42448
606.685
89.3679
4.92597
623.667
66.5052
2.58708
634.32
53.1452
1.76791
642.579
32.4658
0.797994
15.4341
0.298822
-641.409
337.57
-1333.97
-80.0536
452.113
-798.093
1044.08
421.968
336.3
987.732
318.978
62.2101
870.515
287.733
74.5774
164.997
148.549
60.8697
169.67
173.908
175.128
208.079
134.741
200.226
-30.8234
97.7151
95.77
44.7297
87.521
-24.2034
6.09549
140.603
-96.9694
68.5656
-4.27489
-8.81318
116.041
-105.832
19.3593
11.3564
14.5187
-10.6786
-9.87913
0.197194
-53.7549
74.7277
20.9108
5.44083
-4.19826
-93.6257
104.144
14.3541
6.44973
-2.90677
-119.536
125.657
19.4707
3.59306
-2.09005
-132.816
136.448
21.3579
2.40602
590.53
21.4976
17.6096
-143.282
-145.684
-143.243
-145.7
16.3961
21.6638
16.6916
601.847
75.3104
10.1065
612.478
54.9257
4.92014
621.886
43.198
3.01841
627.497
26.492
1.67987
11.7237
0.669165
-509.248
956.699
-2888.18
-112.388
557.37
-259.223
454.305
431.057
238.963
193.656
537.567
196.092
90.4967
427.98
274.34
-34.4653
94.8985
-35.4941
-25.2864
102.026
163.174
-0.868236
-19.4778
-35.9011
-28.2376
23.6973
39.3319
20.5872
12.8201
-6.63573
-38.5713
7.01049
39.4561
-14.0796
20.6132
-17.6116
-38.9803
18.5149
42.7719
-25.3082
15.6264
-33.017
8.16601
34.2548
-9.04877
-15.9813
-3.72724
-39.8045
5.85846
40.8686
-6.05001
2.85472
-5.43814
-40.9133
-1.75923
39.5257
2.01343
6.57154
-2.75846
-37.317
-4.41008
37.0364
4.68088
2.76821
-0.981922
-36.9665
-5.383
36.914
5.4007
1.01671
-38.1998
-4.79562
150.755
20.8116
6.13895
-37.4887
-38.2064
-37.5174
596.035
61.8686
42.472
-152.152
-146.903
-152.171
-146.883
594.907
48.3787
22.9592
597.552
35.7088
14.8945
600.298
21.6014
6.86871
7.47734
2.71534
3450.25
1337.19
-1122.44
2415.95
833.528
228.533
1212.85
733.221
543.706
802.731
697.692
199.088
22.0428
591.731
604.003
169.602
23.8527
167.137
-101.322
-164.885
10.0439
165.787
112.419
-5.23557
-39.0492
-14.4881
16.5205
39.217
3.0354
-0.905409
-32.2433
-21.3388
21.9039
32.4796
0.103947
-2.6278
-31.1755
-30.6211
41.8948
21.7877
0.741845
3.94125
7.60131
-50.2951
47.1161
-5.47182
-2.89179
-38.4798
-3.36475
4.02495
36.9617
-4.55998
5.41789
-37.3879
-7.61377
-1.88853
1.94633
6.88166
38.0622
-2.77364
-3.57467
-39.1405
39.1761
3.52891
2.78377
-1.39943
-3.97383
-38.6049
38.3503
4.08955
1.53839
-37.8376
-7.26922
-17.613
150.937
17.1079
8.67793
-37.9708
-37.9098
-38.1224
583.899
51.3167
47.1766
-148.703
-146.842
-148.61
-146.343
584.098
38.8215
26.7495