/*--------------------------------*- C++ -*----------------------------------*\
  =========                 |
  \\      /  F ield         | OpenFOAM: The Open Source CFD Toolbox
   \\    /   O peration     | Website:  https://openfoam.org
    \\  /    A nd           | Version:  10
     \\/     M anipulation  |
\*---------------------------------------------------------------------------*/
FoamFile
{
    format      ascii;
    class       volScalarField;
    location    "0.8";
    object      turbidity;
}
// * * * * * * * * * * * * * * * * * * * * * * * * * * * * * * * * * * * * * //

dimensions      [0 0 0 0 0 0 0];

internalField   nonuniform List<scalar> 
12920
(
-0.0153147
-0.0555005
-0.0808336
-0.0803501
-0.0666277
-0.0620014
-0.0593762
-0.0590228
-0.0608003
-0.0660258
-0.0766065
-0.0940258
-0.119709
-0.158223
-0.210889
-0.265869
-0.316926
-0.356501
-0.379655
-0.390606
-0.0224718
-0.0524152
-0.0783465
-0.0974487
-0.102701
-0.100666
-0.099795
-0.105177
-0.117225
-0.138597
-0.169637
-0.209374
-0.247567
-0.285529
-0.319762
-0.347047
-0.369388
-0.384448
-0.392263
-0.395648
-0.0605852
-0.0600013
-0.0777732
-0.110793
-0.131573
-0.137378
-0.1426
-0.155787
-0.175608
-0.199368
-0.224206
-0.24938
-0.284103
-0.32296
-0.355263
-0.375289
-0.387013
-0.393171
-0.395941
-0.397027
-0.0182031
-0.0625628
-0.0863526
-0.106024
-0.135995
-0.165403
-0.185531
-0.20457
-0.229676
-0.257591
-0.28832
-0.318577
-0.346594
-0.368346
-0.382531
-0.390451
-0.394534
-0.396417
-0.397186
-0.397456
-0.0193101
-0.0586798
-0.103504
-0.144096
-0.1801
-0.210966
-0.232755
-0.251655
-0.277571
-0.302887
-0.329741
-0.353252
-0.37159
-0.383769
-0.390826
-0.394481
-0.396235
-0.397017
-0.397346
-0.397468
-0.0507262
-0.105057
-0.164277
-0.187671
-0.182944
-0.223948
-0.207615
-0.230974
-0.267424
-0.304589
-0.336809
-0.360291
-0.375543
-0.384607
-0.389792
-0.392777
-0.394524
-0.3956
-0.396292
-0.396742
-0.0583331
-0.154338
-0.161921
-0.136371
-0.138873
-0.200731
-0.160213
-0.201151
-0.224083
-0.283914
-0.311309
-0.324437
-0.331596
-0.339874
-0.348738
-0.357163
-0.364857
-0.37212
-0.378703
-0.384353
-0.0185139
-0.0550926
-0.10294
-0.158838
-0.149322
-0.187909
-0.183017
-0.202132
-0.155453
-0.154194
-0.224852
-0.152152
-0.13126
-0.127358
-0.113739
-0.155056
-0.196063
-0.236813
-0.274089
-0.306799
-0.0406005
-0.0668881
-0.100743
-0.165989
-0.187515
-0.186659
-0.185222
-0.187187
-0.194386
-0.12733
-0.0640657
-0.0355741
-0.0120275
0.00134246
-0.00396353
-0.0482786
-0.100058
-0.156556
-0.211271
-0.259734
-0.0172219
-0.0289218
-0.0527901
-0.0820207
-0.111486
-0.129727
-0.167545
-0.170495
-0.169928
-0.114673
-0.0765779
-0.0464344
-0.0145061
0.007489
0.00426929
-0.0414858
-0.0934984
-0.150408
-0.205864
-0.255245
-0.021762
-0.0442746
-0.0730655
-0.113536
-0.139575
-0.136077
-0.140174
-0.15215
-0.144772
-0.103768
-0.0774097
-0.0536926
-0.0271053
-0.000515852
0.00181517
-0.0419939
-0.0934806
-0.150142
-0.205591
-0.255099
-0.0502597
-0.0444954
-0.0485699
-0.0654853
-0.0928411
-0.10914
-0.125477
-0.126323
-0.119148
-0.0885967
-0.0650436
-0.0485001
-0.0267864
-0.00251946
-0.00322129
-0.0622457
-0.111116
-0.164379
-0.216411
-0.262997
-0.0332014
-0.0697203
-0.0790468
-0.096148
-0.124081
-0.143371
-0.143346
-0.143967
-0.121042
-0.0958578
-0.0901112
-0.0931924
-0.0952127
-0.0975321
-0.158011
-0.197023
-0.230661
-0.262859
-0.292665
-0.319541
-0.0198578
-0.0549498
-0.0758958
-0.0861046
-0.0941136
-0.09692
-0.10606
-0.121081
-0.14328
-0.165332
-0.179194
-0.194639
-0.221342
-0.26398
-0.312271
-0.350299
-0.371854
-0.383286
-0.389283
-0.392606
-0.0164401
-0.0294021
-0.0440188
-0.0579825
-0.069409
-0.0775792
-0.0871586
-0.103136
-0.130739
-0.161095
-0.179706
-0.192269
-0.221312
-0.267144
-0.314774
-0.351073
-0.374425
-0.387171
-0.39328
-0.395914
-0.0129928
-0.0253465
-0.0378674
-0.0482133
-0.0572749
-0.0601964
-0.0697208
-0.0864465
-0.119949
-0.157138
-0.18769
-0.214847
-0.245438
-0.281334
-0.317987
-0.350184
-0.373384
-0.386802
-0.393311
-0.396049
-0.0220133
-0.0355795
-0.0499751
-0.0632164
-0.0774576
-0.07727
-0.086776
-0.106208
-0.142239
-0.18197
-0.214566
-0.246124
-0.280535
-0.317609
-0.350507
-0.374203
-0.387509
-0.393712
-0.396229
-0.397142
-0.014377
-0.0300114
-0.0513009
-0.0669368
-0.0816464
-0.0937131
-0.11083
-0.138768
-0.174339
-0.216763
-0.259788
-0.302944
-0.339227
-0.365876
-0.381852
-0.390574
-0.394699
-0.396487
-0.397198
-0.397452
-0.0225763
-0.03483
-0.0588274
-0.0841366
-0.103504
-0.124475
-0.152508
-0.202259
-0.250473
-0.293994
-0.324632
-0.346909
-0.363106
-0.375283
-0.384454
-0.390463
-0.39404
-0.395958
-0.396877
-0.397281
-0.0109919
-0.026846
-0.0532309
-0.0879661
-0.115159
-0.141455
-0.172253
-0.216904
-0.268798
-0.318464
-0.353654
-0.374196
-0.385135
-0.39103
-0.394217
-0.395948
-0.396839
-0.39727
-0.397455
-0.397517
-0.0101974
-0.0299681
-0.0304691
-0.0249149
-0.0206338
-0.0181261
-0.0165242
-0.0151767
-0.0136422
-0.0118452
-0.0100856
-0.00926333
-0.0114209
-0.0199405
-0.0408766
-0.0748151
-0.0950629
-0.081182
-0.0520705
-0.0275537
-0.00571577
-0.0164089
-0.021749
-0.0344841
-0.0260675
-0.0172488
-0.01354
-0.0160179
-0.0251185
-0.0319008
-0.0314338
-0.0236733
-0.0218432
-0.0328922
-0.056625
-0.0737654
-0.0689746
-0.0477678
-0.0263907
-0.0125359
-0.0293408
-0.0316989
-0.0240577
-0.0322781
-0.0407531
-0.0398424
-0.0362618
-0.033431
-0.0268242
-0.0194473
-0.0115239
-0.00917036
-0.0121873
-0.0194641
-0.030802
-0.0372662
-0.0324852
-0.0216055
-0.0118119
-0.00561493
-0.0218473
-0.0358094
-0.0352729
-0.0291209
-0.0255624
-0.0381999
-0.0543407
-0.0546603
-0.0434506
-0.0332952
-0.0242054
-0.0167408
-0.0130679
-0.0137517
-0.0150397
-0.0147668
-0.01094
-0.00641707
-0.00327149
-0.00149799
-0.0153508
-0.0269945
-0.0377873
-0.0397945
-0.0381688
-0.0554858
-0.0718308
-0.0684596
-0.0530602
-0.0368638
-0.0236174
-0.0153648
-0.011054
-0.00853959
-0.00713377
-0.00562277
-0.00375158
-0.00218772
-0.00115154
-0.000569087
-0.0320991
-0.0381553
-0.0541679
-0.0329848
-0.0237521
-0.0460461
-0.0322555
-0.0375429
-0.049349
-0.0517738
-0.0448411
-0.0330302
-0.0213751
-0.0125
-0.00711529
-0.00407608
-0.00226606
-0.00124859
-0.000670842
-0.000363895
-0.0225663
-0.0340741
-0.0607445
-0.0343061
-0.0285308
-0.0479526
-0.0267728
-0.0218247
-0.0268519
-0.0252616
-0.0223895
-0.0162063
-0.0100702
-0.0053695
-0.00310672
-0.00194074
-0.00117933
-0.000759131
-0.000460448
-0.000285293
-0.00536711
-0.0116474
-0.0550136
-0.0606014
-0.057532
-0.0569867
-0.047608
-0.0222852
-0.0372005
-0.0366321
-0.0190088
-0.016204
-0.00905665
-0.00448523
-0.00152425
-0.00104752
-0.00073859
-0.000535473
-0.000338423
-0.000191101
-0.00544977
-0.0272049
-0.0715336
-0.0743435
-0.0641017
-0.0799045
-0.0437877
-0.0591078
-0.0314737
-0.0658202
-0.0924726
-0.0815433
-0.0463708
-0.0127735
-0.00141508
-0.00067209
-0.000978515
-0.00108934
-0.000840803
-0.000498812
-0.00215619
-0.0132415
-0.0423437
-0.0563911
-0.0646476
-0.0765142
-0.10563
-0.0799415
-0.0654209
-0.120338
-0.0850414
-0.0554475
-0.0306201
-0.0102823
-0.00125121
-0.000617305
-0.000989994
-0.00111106
-0.000922706
-0.00060121
-0.00826675
-0.0171252
-0.0321515
-0.0481962
-0.0509279
-0.055093
-0.0694561
-0.103846
-0.115591
-0.104092
-0.0732406
-0.032687
-0.0164062
-0.00735827
-0.000869712
-0.000566043
-0.000964596
-0.00113374
-0.000948814
-0.000618635
-0.012702
-0.016719
-0.01731
-0.0278168
-0.0471557
-0.0591016
-0.0698555
-0.0786585
-0.0933079
-0.0987849
-0.0490287
-0.0125482
-0.00291723
-0.00120315
-0.000592844
-0.0016205
-0.00158253
-0.00138009
-0.000949363
-0.000537086
-0.0139575
-0.0320971
-0.0310325
-0.0422265
-0.0563623
-0.069817
-0.0823795
-0.106266
-0.091714
-0.0509562
-0.0177874
-0.0112526
-0.0109502
-0.0104142
-0.0119609
-0.00891551
-0.00589554
-0.00361325
-0.00195029
-0.000952058
-0.00755861
-0.0276235
-0.0301433
-0.03688
-0.0489864
-0.054348
-0.068713
-0.0791736
-0.0794205
-0.0628571
-0.038374
-0.0278501
-0.02834
-0.0322488
-0.0330919
-0.0296256
-0.0237189
-0.0164481
-0.00986865
-0.00530323
-0.00367578
-0.0173688
-0.0240898
-0.0269231
-0.0331962
-0.0340627
-0.046505
-0.0604617
-0.070313
-0.058282
-0.0401898
-0.0369901
-0.0447647
-0.059186
-0.0697059
-0.0662583
-0.0483107
-0.0293271
-0.0153423
-0.00724947
-0.00322811
-0.0052827
-0.00734706
-0.00970705
-0.0114671
-0.0160635
-0.0257409
-0.0350659
-0.0462747
-0.0489088
-0.0512328
-0.0619591
-0.0853508
-0.109149
-0.118545
-0.106102
-0.0753129
-0.0447697
-0.0227873
-0.0104925
-0.00720321
-0.0176831
-0.0177514
-0.0135558
-0.0163387
-0.0204036
-0.0293038
-0.041606
-0.0597262
-0.0822433
-0.110375
-0.138572
-0.157726
-0.158167
-0.134274
-0.0950736
-0.0557044
-0.0285083
-0.0129674
-0.00546901
-0.00598372
-0.0210106
-0.0239437
-0.0171033
-0.0293428
-0.037526
-0.059154
-0.0794181
-0.104251
-0.12526
-0.138231
-0.135005
-0.116678
-0.0876568
-0.0595711
-0.0351905
-0.0189303
-0.00929794
-0.00433184
-0.00193727
-0.0224073
-0.0317959
-0.0361804
-0.0352002
-0.062476
-0.0730463
-0.108747
-0.102186
-0.101891
-0.0753758
-0.0543003
-0.0336523
-0.0218316
-0.0132192
-0.00783281
-0.00407572
-0.0019714
-0.000901391
-0.000418874
-0.000233459
-0.0277374
-0.0200255
-0.0247155
-0.0441562
-0.074713
-0.0974476
-0.123358
-0.142594
-0.148977
-0.12333
-0.0813504
-0.0441572
-0.0212665
-0.00963306
-0.00443663
-0.00212411
-0.00109039
-0.000591471
-0.000323811
-0.00021334
-0.00790351
-0.0127433
-0.0147259
-0.0158118
-0.0163835
-0.0161957
-0.0156453
-0.0149159
-0.014224
-0.0132085
-0.0117295
-0.0100832
-0.0098976
-0.0139022
-0.0243539
-0.0363167
-0.0373069
-0.0258117
-0.0136529
-0.00606516
-0.00707615
-0.0117835
-0.0141552
-0.018341
-0.0195516
-0.0163571
-0.0117935
-0.00778528
-0.00563037
-0.00576954
-0.00697651
-0.00679046
-0.00758033
-0.00983376
-0.0131648
-0.0157823
-0.0134444
-0.00805694
-0.00380235
-0.00152738
-0.00651832
-0.0198965
-0.0166969
-0.0223107
-0.0267376
-0.0261768
-0.0202468
-0.0142099
-0.0091209
-0.00620692
-0.00465819
-0.00383823
-0.00370561
-0.00408207
-0.00456073
-0.00461358
-0.00357916
-0.00201577
-0.000904769
-0.000347129
-0.017237
-0.0262328
-0.0254528
-0.0195941
-0.0204216
-0.0285722
-0.0279087
-0.0190928
-0.0101336
-0.00567466
-0.00320738
-0.0019671
-0.0015309
-0.00142302
-0.00131171
-0.00108333
-0.000700633
-0.000351203
-0.000146064
-5.25195e-05
-0.00963416
-0.0259531
-0.034156
-0.0316932
-0.0270369
-0.028528
-0.0268682
-0.0198276
-0.0117809
-0.00621042
-0.00302069
-0.00154466
-0.000895209
-0.00057593
-0.000390774
-0.000249107
-0.000134405
-6.09998e-05
-2.37074e-05
-8.12685e-06
-0.0102175
-0.0269707
-0.0370954
-0.0306107
-0.0226479
-0.0204153
-0.0125001
-0.0081593
-0.00940884
-0.00900772
-0.00670257
-0.00394282
-0.00196781
-0.000883324
-0.000382161
-0.000160183
-6.36879e-05
-2.39933e-05
-8.50357e-06
-2.85443e-06
-0.0087025
-0.0321668
-0.0508981
-0.0348826
-0.0252713
-0.0217151
-0.0143624
-0.00816442
-0.00715029
-0.00486832
-0.00286843
-0.00159898
-0.000791509
-0.000359643
-0.000157026
-6.72458e-05
-2.75458e-05
-1.10457e-05
-4.26163e-06
-1.5997e-06
-0.0126636
-0.0246608
-0.0579486
-0.0511903
-0.0430307
-0.0341561
-0.02937
-0.00820035
-0.00860408
-0.0274791
-0.00861118
-0.00614153
-0.00229426
-0.000664462
-0.000219443
-6.72195e-05
-2.06617e-05
-6.54381e-06
-2.06854e-06
-6.36171e-07
-0.0117993
-0.0277859
-0.0615764
-0.0468353
-0.043727
-0.0371145
-0.031378
-0.00809951
-0.0073287
-0.0518391
-0.0755813
-0.0598893
-0.0227211
-0.00410602
-0.000290245
-2.75828e-05
-1.59356e-05
-1.02201e-05
-4.78008e-06
-1.71307e-06
-0.00202089
-0.00410534
-0.0156734
-0.0274107
-0.0383503
-0.041495
-0.0316417
-0.0263694
-0.0440734
-0.0676428
-0.0573481
-0.0318698
-0.0107382
-0.00226315
-0.000183834
-2.07011e-05
-1.6002e-05
-1.1037e-05
-5.63874e-06
-2.19974e-06
-0.00696132
-0.011127
-0.0157932
-0.0229301
-0.0268948
-0.0308933
-0.0379215
-0.0443577
-0.0469054
-0.0526413
-0.0365113
-0.0126071
-0.00398951
-0.000820804
-5.79566e-05
-1.52431e-05
-1.50646e-05
-1.14878e-05
-6.09181e-06
-2.42528e-06
-0.00467315
-0.00647681
-0.00787229
-0.0140236
-0.0252059
-0.0311497
-0.0355107
-0.0404337
-0.0547823
-0.0691424
-0.0206501
-0.00346721
-0.000884308
-0.000271787
-6.92236e-05
-0.000163314
-9.19737e-05
-4.47999e-05
-1.84343e-05
-6.69564e-06
-0.00656586
-0.0106463
-0.0139917
-0.0234963
-0.0343792
-0.0481283
-0.0552498
-0.0705543
-0.0561652
-0.0237769
-0.00819537
-0.005053
-0.00383752
-0.00284877
-0.0031051
-0.00190618
-0.00100318
-0.000473214
-0.000199644
-7.72677e-05
-0.000674971
-0.00854501
-0.0173818
-0.0288942
-0.0406625
-0.0490923
-0.0590433
-0.0582387
-0.0460385
-0.0302683
-0.0202717
-0.017849
-0.0171674
-0.0159139
-0.012573
-0.0086566
-0.00505531
-0.00258633
-0.00116978
-0.00047967
-0.00170458
-0.0155143
-0.0187766
-0.0285685
-0.0364772
-0.0398474
-0.047834
-0.0459504
-0.0396018
-0.0302449
-0.0275012
-0.0309208
-0.0354166
-0.0375831
-0.0337355
-0.0247244
-0.0145295
-0.00728364
-0.00321208
-0.00128071
-0.00146691
-0.00469641
-0.0082558
-0.0146352
-0.0202749
-0.0227127
-0.029278
-0.0282545
-0.0293528
-0.0339509
-0.0421727
-0.0526434
-0.0617829
-0.06584
-0.0601206
-0.0440867
-0.0254764
-0.0122951
-0.00513109
-0.00192191
-0.00601171
-0.00905221
-0.00966945
-0.0123487
-0.0167644
-0.0173138
-0.0212281
-0.0281067
-0.0435083
-0.0627278
-0.0815461
-0.0921352
-0.0915182
-0.0759771
-0.0517856
-0.0287718
-0.0133253
-0.00539823
-0.00196917
-0.000662393
-0.0153154
-0.0157649
-0.0132407
-0.0156675
-0.0261494
-0.0292359
-0.0400071
-0.0444598
-0.0569068
-0.0609713
-0.0590654
-0.0475197
-0.033703
-0.0204601
-0.0113605
-0.00540607
-0.00229675
-0.000876584
-0.000311451
-0.000104
-0.0239698
-0.0232327
-0.0269983
-0.035266
-0.0595061
-0.0574244
-0.0771848
-0.0496153
-0.0347949
-0.0185806
-0.0114123
-0.00671617
-0.00432062
-0.0024248
-0.0012649
-0.000566797
-0.000230404
-8.51043e-05
-2.94227e-05
-9.59921e-06
-0.0108493
-0.0159682
-0.0222827
-0.0308025
-0.0468503
-0.0641727
-0.0855171
-0.0993026
-0.0933998
-0.0633888
-0.0326655
-0.0137055
-0.00509711
-0.00176317
-0.000585529
-0.000188986
-6.00348e-05
-1.88398e-05
-5.8757e-06
-1.83204e-06
-0.00353199
-0.00844404
-0.0128571
-0.0151509
-0.0163917
-0.0167217
-0.0161361
-0.0151241
-0.0142964
-0.0135099
-0.0124425
-0.0107563
-0.00888931
-0.00807371
-0.00973921
-0.0122692
-0.0110163
-0.00678237
-0.0032731
-0.0013475
-0.00259999
-0.00622985
-0.00946951
-0.014513
-0.0187742
-0.0198506
-0.0174112
-0.0130984
-0.00886499
-0.0057171
-0.00452005
-0.0044326
-0.00432843
-0.00418741
-0.00410949
-0.00384717
-0.00281257
-0.00153056
-0.000675644
-0.000256757
-0.00285081
-0.0112615
-0.0134925
-0.0186565
-0.0219403
-0.0219725
-0.0184658
-0.0143085
-0.0111389
-0.00865239
-0.00633162
-0.00432053
-0.00288791
-0.00199237
-0.00141255
-0.000981161
-0.000601876
-0.000296654
-0.000121918
-4.35673e-05
-0.00796974
-0.00908626
-0.00949633
-0.0116144
-0.0167313
-0.021036
-0.0175811
-0.0110618
-0.00609354
-0.0035386
-0.00229019
-0.00156736
-0.00101529
-0.00062779
-0.000376639
-0.000217026
-0.000111311
-4.86248e-05
-1.83486e-05
-6.11809e-06
-0.00418326
-0.0146306
-0.0218236
-0.0233096
-0.021301
-0.0175518
-0.0122124
-0.0077965
-0.00430937
-0.00242994
-0.00137203
-0.000795983
-0.000446867
-0.000241312
-0.000124959
-6.1973e-05
-2.84613e-05
-1.20433e-05
-4.7308e-06
-1.76355e-06
-0.00772117
-0.021244
-0.0266261
-0.0244279
-0.0205106
-0.0151826
-0.0109382
-0.00748121
-0.00437511
-0.00251093
-0.00137347
-0.000687495
-0.000319998
-0.000143328
-6.28288e-05
-2.68389e-05
-1.10188e-05
-4.34434e-06
-1.63678e-06
-5.90235e-07
-0.00404303
-0.0168457
-0.0324061
-0.0281272
-0.0227568
-0.0177813
-0.0145033
-0.00997522
-0.00484913
-0.00181517
-0.000675863
-0.000285706
-0.000125626
-5.53262e-05
-2.38285e-05
-1.00766e-05
-4.11677e-06
-1.64185e-06
-6.35048e-07
-2.38436e-07
-0.0154164
-0.0197758
-0.0406865
-0.0326356
-0.0274977
-0.0230288
-0.0211347
-0.0126113
-0.00447678
-0.00999157
-0.00231759
-0.00157076
-0.000571535
-0.000157354
-5.58091e-05
-1.57815e-05
-4.36006e-06
-1.19461e-06
-3.26551e-07
-8.91103e-08
-0.00940367
-0.0200272
-0.0365219
-0.0240661
-0.0244304
-0.022736
-0.0223401
-0.0124419
-0.00435369
-0.0315319
-0.0385674
-0.0195125
-0.00528569
-0.000904315
-7.17756e-05
-4.81951e-06
-1.20581e-06
-3.20942e-07
-8.10219e-08
-1.87385e-08
-0.00780214
-0.0158824
-0.0241767
-0.022384
-0.0279967
-0.0290118
-0.0224605
-0.0114353
-0.0297756
-0.0426745
-0.0325474
-0.012208
-0.00281246
-0.000446105
-3.30856e-05
-2.39789e-06
-7.03845e-07
-2.22253e-07
-6.39848e-08
-1.59166e-08
-0.002973
-0.0116852
-0.0151208
-0.0172817
-0.0187213
-0.0227598
-0.0292718
-0.032605
-0.0373712
-0.0300397
-0.0139689
-0.00377548
-0.000727817
-0.000124688
-1.42192e-05
-2.31443e-06
-8.92487e-07
-3.42855e-07
-1.15218e-07
-3.44628e-08
-0.00608092
-0.00548987
-0.00726918
-0.0113205
-0.0169267
-0.0202375
-0.0253546
-0.0329448
-0.0508297
-0.0504496
-0.0122728
-0.00169321
-0.00045007
-0.000120644
-2.13944e-05
-3.56069e-05
-1.69802e-05
-6.97613e-06
-2.53789e-06
-8.58314e-07
-0.00114433
-0.00705602
-0.013478
-0.0204743
-0.0264181
-0.0369834
-0.0423969
-0.0492357
-0.0292469
-0.0112463
-0.00473407
-0.00280452
-0.00169826
-0.000989791
-0.0008935
-0.000494
-0.00023429
-0.000100721
-3.91748e-05
-1.41128e-05
-0.000455892
-0.00593518
-0.0148546
-0.0267062
-0.0349293
-0.0403729
-0.0443847
-0.0362253
-0.0239098
-0.0147096
-0.0101711
-0.00844739
-0.00712028
-0.00577383
-0.00406847
-0.00248796
-0.00128896
-0.000592742
-0.000244948
-9.29444e-05
-0.00429761
-0.0100633
-0.0175755
-0.0291568
-0.0354739
-0.0335134
-0.0349442
-0.0273143
-0.0204755
-0.016241
-0.0155273
-0.0167567
-0.0169879
-0.0158824
-0.0124014
-0.00793216
-0.00416757
-0.00191188
-0.000785085
-0.000294894
-0.00323877
-0.00638508
-0.0102701
-0.0187522
-0.024621
-0.0209241
-0.0211914
-0.0171708
-0.0164349
-0.0192878
-0.0241989
-0.0292129
-0.0324644
-0.0309626
-0.0246333
-0.015632
-0.0079975
-0.00349886
-0.00134874
-0.000471638
-0.00777084
-0.00759028
-0.0100224
-0.0151705
-0.0187682
-0.0160558
-0.0142592
-0.0137981
-0.0194576
-0.0279808
-0.0384592
-0.0417189
-0.0372489
-0.0265594
-0.0155852
-0.00756488
-0.00315744
-0.00117707
-0.00040165
-0.000127526
-0.0215011
-0.012019
-0.014678
-0.0204721
-0.0284431
-0.0239584
-0.0217076
-0.0165402
-0.0167358
-0.0159656
-0.014911
-0.0110757
-0.00770053
-0.00453374
-0.00242412
-0.00110053
-0.000444171
-0.000161375
-5.43594e-05
-1.71266e-05
-0.0174846
-0.0201354
-0.0271342
-0.0366678
-0.052997
-0.0428843
-0.046385
-0.0301152
-0.0166792
-0.00733894
-0.00351166
-0.00185392
-0.00110651
-0.00059255
-0.000293144
-0.000125911
-4.89677e-05
-1.73015e-05
-5.69232e-06
-1.75452e-06
-0.0108858
-0.0169957
-0.0224801
-0.0282483
-0.0371009
-0.0497692
-0.0658363
-0.072425
-0.0595381
-0.0341879
-0.0153495
-0.00580737
-0.0019824
-0.000636289
-0.000196465
-5.93317e-05
-1.77253e-05
-5.27873e-06
-1.57471e-06
-4.70079e-07
-0.00366631
-0.0107399
-0.0158693
-0.0176373
-0.0172745
-0.0163704
-0.0153961
-0.0144007
-0.0135004
-0.0127305
-0.011994
-0.0108195
-0.00898492
-0.00644452
-0.00399403
-0.0026107
-0.00176555
-0.000949668
-0.000420536
-0.000161544
-0.00237371
-0.00762508
-0.0121288
-0.0160406
-0.0180245
-0.0179346
-0.0164869
-0.0142798
-0.0114551
-0.00819181
-0.00535819
-0.00396049
-0.00317802
-0.00224795
-0.00134611
-0.000772964
-0.000423908
-0.000198026
-7.95179e-05
-2.81779e-05
-0.007628
-0.010958
-0.0147756
-0.0176502
-0.0185162
-0.0179176
-0.0162028
-0.0142021
-0.0121819
-0.0100617
-0.00786565
-0.00529092
-0.00308434
-0.00160777
-0.000756893
-0.000332267
-0.000138377
-5.30515e-05
-1.85046e-05
-5.89039e-06
-0.00489102
-0.00690358
-0.00820776
-0.0108386
-0.0142933
-0.0155845
-0.0142045
-0.0121026
-0.0100304
-0.00756185
-0.00483875
-0.00283055
-0.00148664
-0.000700843
-0.000297619
-0.000116351
-4.22784e-05
-1.42988e-05
-4.49166e-06
-1.31617e-06
-0.00595709
-0.0132415
-0.015305
-0.0155709
-0.0152672
-0.013583
-0.011733
-0.00962487
-0.00730892
-0.00491537
-0.0029662
-0.00159467
-0.000760646
-0.000328184
-0.000129209
-4.72327e-05
-1.61635e-05
-5.24654e-06
-1.62481e-06
-4.85632e-07
-0.00348859
-0.0131588
-0.0179797
-0.0184069
-0.0181783
-0.0169543
-0.0155652
-0.0122666
-0.00738079
-0.00362582
-0.00157984
-0.000674502
-0.000276292
-0.00010794
-3.96233e-05
-1.3733e-05
-4.49557e-06
-1.41086e-06
-4.25857e-07
-1.24638e-07
-0.012197
-0.0168426
-0.0221105
-0.0227942
-0.0223204
-0.0208412
-0.0185295
-0.0139712
-0.00700547
-0.00236034
-0.00066922
-0.000200996
-6.59072e-05
-2.3029e-05
-8.04405e-06
-2.76208e-06
-9.14372e-07
-2.98241e-07
-9.58134e-08
-3.06229e-08
-0.0105594
-0.0158512
-0.0204563
-0.0218777
-0.020698
-0.0191008
-0.0178351
-0.0122176
-0.00543051
-0.00173432
-0.000494416
-0.000274222
-0.00010169
-2.79884e-05
-7.87757e-06
-2.18529e-06
-5.89796e-07
-1.56884e-07
-4.12434e-08
-1.07358e-08
-0.0103026
-0.0130389
-0.0180878
-0.0164486
-0.0158895
-0.0153577
-0.0159656
-0.0108862
-0.00391831
-0.00712616
-0.0115971
-0.0057852
-0.00167144
-0.000278882
-1.67696e-05
-7.56398e-07
-1.59915e-07
-3.429e-08
-7.20063e-09
-1.47547e-09
-0.00571258
-0.0140322
-0.0164887
-0.0163987
-0.0214821
-0.0212226
-0.0146892
-0.0063604
-0.0172253
-0.0272273
-0.0199498
-0.00815034
-0.00192646
-0.000279275
-1.37154e-05
-5.30978e-07
-1.10684e-07
-2.36971e-08
-5.00717e-09
-1.03329e-09
-0.00256773
-0.00948871
-0.0130062
-0.0155442
-0.0171031
-0.0209875
-0.0225016
-0.0200201
-0.0250574
-0.0175199
-0.00655515
-0.00196055
-0.000457992
-7.6217e-05
-6.23093e-06
-5.43094e-07
-1.53976e-07
-4.5025e-08
-1.29458e-08
-3.70621e-09
-0.0023193
-0.00635128
-0.00897492
-0.0123281
-0.0154257
-0.016196
-0.0171098
-0.0136743
-0.0112422
-0.0118436
-0.00397417
-0.000719658
-0.000220312
-6.03525e-05
-6.91619e-06
-6.66334e-06
-2.87545e-06
-1.11012e-06
-3.8678e-07
-1.26304e-07
-0.000595085
-0.00723728
-0.0140735
-0.0184137
-0.0200608
-0.0252442
-0.0294649
-0.0269826
-0.0157803
-0.0071941
-0.00266176
-0.00116764
-0.000558058
-0.000267403
-0.000185927
-9.53906e-05
-4.22303e-05
-1.71797e-05
-6.37168e-06
-2.20102e-06
-0.00365076
-0.0120154
-0.0154213
-0.0204513
-0.0224778
-0.0230625
-0.0231209
-0.0157466
-0.009445
-0.00572072
-0.00378173
-0.00273298
-0.00197489
-0.00140374
-0.000888924
-0.000497593
-0.000240265
-0.000104309
-4.11e-05
-1.49682e-05
-0.00509152
-0.00883638
-0.0120274
-0.0172396
-0.0185206
-0.0154806
-0.016857
-0.0118304
-0.00845035
-0.00646691
-0.00546592
-0.0050875
-0.0045168
-0.00382746
-0.00270488
-0.00158302
-0.000775189
-0.000336539
-0.00013218
-4.78537e-05
-0.00382697
-0.00684333
-0.00843173
-0.0122879
-0.013739
-0.0111935
-0.0108885
-0.00843664
-0.00723755
-0.00722202
-0.00800152
-0.00890026
-0.0093899
-0.00825989
-0.0059241
-0.0034014
-0.00160803
-0.000661049
-0.000242407
-8.12303e-05
-0.00260978
-0.00800482
-0.0114485
-0.0161197
-0.0203835
-0.0200188
-0.012878
-0.00892678
-0.00708827
-0.00714394
-0.00863984
-0.00906143
-0.00765531
-0.00501547
-0.00272072
-0.00123578
-0.000492301
-0.000177095
-5.87537e-05
-1.82036e-05
-0.0137615
-0.01365
-0.0215625
-0.0325912
-0.0412255
-0.0369039
-0.0277759
-0.0165944
-0.00848729
-0.00466064
-0.00319587
-0.00215871
-0.00146977
-0.000845223
-0.000434614
-0.000190882
-7.49849e-05
-2.66709e-05
-8.80034e-06
-2.71556e-06
-0.0186444
-0.0233684
-0.0296147
-0.0374479
-0.0458572
-0.0466188
-0.0442402
-0.0294789
-0.0158368
-0.00695785
-0.00274134
-0.00108344
-0.000462165
-0.000201994
-8.75959e-05
-3.56198e-05
-1.36513e-05
-4.91746e-06
-1.68378e-06
-5.49814e-07
-0.034889
-0.0205079
-0.0243101
-0.0290973
-0.0373248
-0.048308
-0.056912
-0.0511064
-0.0346409
-0.0177007
-0.00756535
-0.00288852
-0.00104084
-0.000371204
-0.000134428
-5.002e-05
-1.89096e-05
-7.1421e-06
-2.64443e-06
-9.47593e-07
-0.062417
-0.0530917
-0.0445142
-0.0472368
-0.0424369
-0.0372785
-0.0248461
-0.038545
-0.0380504
-0.0215649
-0.0378418
-0.0208254
-0.0196668
-0.00804577
-0.0438213
-0.0602136
-0.0426059
-0.0382692
-0.0255941
-0.0537606
-0.0262761
-0.0167997
-0.029961
-0.00870548
-0.0197693
-0.00756806
-0.0172562
-0.00465886
-0.179293
-0.184442
-0.173339
-0.144284
-0.137044
-0.150122
-0.140725
-0.204446
-0.173998
-0.185772
-0.167368
-0.187533
-0.14735
-0.109426
-0.146137
-0.177939
-0.132015
-0.160822
-0.073187
-0.0921449
-0.113721
-0.0772852
-0.117989
-0.0851804
-0.0785809
-0.098163
-0.117794
-0.100729
-0.0412677
-0.0769288
-0.0501962
-0.0960574
-0.0889748
-0.0918689
-0.0686765
-0.0180869
-0.0405191
-0.0163246
-0.086305
-0.0677337
-0.0627105
-0.0465574
-0.000761947
-0.00983021
0.00579528
-0.0581435
-0.0305844
-0.0408924
-0.0240099
0.00258742
0.00987052
0.0185654
-0.0237187
-0.0118099
-0.0190897
-0.0083334
-0.170979
-0.142807
-0.157764
-0.148428
-0.148458
-0.131716
-0.146301
-0.176932
-0.159463
-0.158068
-0.150219
-0.113007
-0.149633
-0.147094
-0.128222
-0.153413
-0.119202
-0.102497
-0.125255
-0.145674
-0.135495
-0.0835832
-0.107149
-0.0836057
-0.123233
-0.100126
-0.12723
-0.0997203
-0.0551961
-0.0777317
-0.0598266
-0.091111
-0.0671401
-0.0899741
-0.0580391
-0.0215461
-0.0537993
-0.0322795
-0.0609494
-0.0455502
-0.0497534
-0.0368634
0.00292725
-0.0249044
-0.00471167
-0.040496
-0.0251022
-0.0343896
-0.0251795
0.017303
0.000981966
0.0137614
-0.0203494
-0.00932202
-0.021423
-0.0110774
-0.150297
-0.132586
-0.128911
-0.124146
-0.135001
-0.114677
-0.100333
-0.150023
-0.128547
-0.124935
-0.138566
-0.142869
-0.0971927
-0.0972989
-0.113973
-0.121289
-0.0991128
-0.14232
-0.130809
-0.102641
-0.111182
-0.0833207
-0.0922793
-0.0751937
-0.122881
-0.0996423
-0.110845
-0.0871092
-0.059261
-0.0690775
-0.0534209
-0.0895176
-0.052256
-0.0717399
-0.0312338
-0.0341303
-0.0490272
-0.0344286
-0.0429246
-0.0298225
-0.0226107
-0.0107001
-0.00655422
-0.0284415
-0.00880086
-0.0284529
-0.0232538
-0.0101989
-0.0122086
0.0131386
-0.00256375
0.0118137
-0.0203929
-0.0111696
-0.0123449
-0.00928638
-0.127074
-0.124964
-0.13461
-0.117111
-0.114343
-0.11964
-0.130274
-0.122057
-0.135571
-0.127647
-0.112355
-0.1097
-0.131804
-0.130714
-0.0957393
-0.119174
-0.0912406
-0.111379
-0.112274
-0.128756
-0.114934
-0.0700937
-0.0835112
-0.0671978
-0.108811
-0.0718945
-0.102818
-0.0509204
-0.0526709
-0.0651332
-0.0603346
-0.0573252
-0.0289348
-0.0404713
-0.0367419
-0.032877
-0.0572447
-0.0456405
-0.0231582
-0.013258
-0.0379049
-0.0364369
-0.00820456
-0.0421534
-0.0373201
-0.0123056
-0.012494
-0.0350828
-0.0325334
0.0105172
-0.0373814
-0.0405051
-0.0123908
-0.0097417
-0.0326009
-0.0349985
-0.0567498
-0.0689265
-0.0709244
-0.0388185
-0.0176522
-0.0270522
-0.021747
-0.0302534
-0.0551387
-0.0357162
-0.0136339
-0.0137223
-0.0183319
-0.0218427
-0.0514844
-0.0429034
-0.106636
-0.0138829
-0.042268
-0.032787
-0.0711379
-0.0914267
-0.113407
-0.0985535
-0.056418
-0.0809462
-0.078296
-0.0799271
-0.086088
-0.0893114
-0.0657939
-0.0827916
-0.0755297
-0.0747768
-0.0526135
-0.0571809
-0.0593364
-0.038785
-0.0692784
-0.0399174
-0.0444715
-0.0223621
-0.0187593
-0.0316296
-0.0139514
-0.0296022
-0.00925343
-0.0165931
-0.00559974
-0.00367078
-0.00993915
-0.00313826
-0.00582698
-0.00139239
-0.00367912
-0.000925924
-0.10015
-0.0889212
-0.119052
-0.0456531
-0.0329878
-0.0606293
-0.0615734
-0.0539171
-0.123566
-0.123373
-0.03105
-0.0362777
-0.0636861
-0.0655817
-0.119649
-0.125728
-0.124247
-0.0486851
-0.0746212
-0.0637095
-0.0644813
-0.0953184
-0.116348
-0.0860897
-0.0790394
-0.071282
-0.063394
-0.053653
-0.0615789
-0.0758866
-0.0471814
-0.0647031
-0.044662
-0.0473976
-0.0287451
-0.0369868
-0.0402335
-0.0267495
-0.0377182
-0.0187613
-0.0238528
-0.0117781
-0.0141857
-0.0230766
-0.0121835
-0.0139114
-0.00479304
-0.00863947
-0.00274593
-0.00340338
-0.00907746
-0.00316534
-0.00319468
-0.000851698
-0.00175615
-0.000415493
-0.0972383
-0.0531306
-0.0550389
-0.0538719
-0.0560593
-0.0430963
-0.0402675
-0.114647
-0.0549578
-0.0618311
-0.0570614
-0.0548482
-0.0407316
-0.0449761
-0.109989
-0.0724255
-0.0930786
-0.054305
-0.0574603
-0.047532
-0.0580581
-0.0827007
-0.0927922
-0.074926
-0.0579083
-0.0527882
-0.0621502
-0.0498557
-0.0407008
-0.0609094
-0.0237345
-0.0459038
-0.022322
-0.0368398
-0.0112765
-0.018983
-0.016184
-0.00494193
-0.0174257
-0.00824156
-0.00742424
-0.00221792
-0.00952393
-0.00351175
-0.00174236
-0.00617476
-0.00213904
-0.00153728
-0.000583154
-0.00274714
-0.00143502
-0.000856153
-0.00140156
-0.000339356
-0.000428001
-0.000160224
-0.0767163
-0.0749057
-0.0891191
-0.0486326
-0.0446945
-0.0532839
-0.054643
-0.0866536
-0.093972
-0.110933
-0.045047
-0.0530234
-0.056612
-0.0691418
-0.101599
-0.114066
-0.105872
-0.0583288
-0.0720105
-0.0742886
-0.0764443
-0.0643319
-0.0945514
-0.0395307
-0.0737457
-0.0394865
-0.065396
-0.0189919
-0.0184419
-0.0263479
-0.0111703
-0.0259705
-0.00721439
-0.0116097
-0.00485504
-0.00399268
-0.00971126
-0.00747049
-0.00483728
-0.00163443
-0.00441559
-0.00387758
-0.0014624
-0.00692701
-0.00570879
-0.00120234
-0.000540103
-0.00373337
-0.00345263
-0.000804009
-0.00543682
-0.00484341
-0.000418128
-0.000194742
-0.00342224
-0.00337529
-0.0138964
-0.0250895
-0.0179596
-0.0287012
-0.0172065
-0.0240605
-0.01224
-0.00552733
-0.016341
-0.0202174
-0.0115278
-0.00537945
-0.0105433
-0.0185731
-0.0385153
-0.0307409
-0.0625357
-0.00489587
-0.0271532
-0.0272512
-0.0469082
-0.0741304
-0.068678
-0.0720699
-0.0372305
-0.0487813
-0.0502276
-0.0505628
-0.0668399
-0.0679352
-0.0463765
-0.0471481
-0.0330614
-0.0464289
-0.025673
-0.0314198
-0.0383277
-0.0178436
-0.02682
-0.0109822
-0.0191947
-0.00670911
-0.00664471
-0.012897
-0.00403231
-0.00750802
-0.00205512
-0.00446648
-0.00114101
-0.000895832
-0.00258134
-0.000597988
-0.0012672
-0.000302359
-0.000692597
-0.000144239
-0.0242924
-0.0451217
-0.0471111
-0.025926
-0.0140048
-0.0336623
-0.0295139
-0.034248
-0.0491158
-0.051191
-0.0134434
-0.026229
-0.0296388
-0.0366854
-0.063879
-0.0506898
-0.0539841
-0.0328454
-0.0455499
-0.0393501
-0.0402655
-0.0537186
-0.068651
-0.0640915
-0.0591155
-0.0626717
-0.0597723
-0.0550426
-0.0368418
-0.051527
-0.0478824
-0.0505253
-0.0426401
-0.0449558
-0.041867
-0.0147805
-0.0174131
-0.00790275
-0.0157901
-0.00575198
-0.0057101
-0.00181613
-0.00346768
-0.00559929
-0.00162752
-0.00387852
-0.0010318
-0.00119449
-0.000323628
-0.000558383
-0.00102047
-0.000232013
-0.000634628
-0.000136897
-0.000207431
-5.36946e-05
-0.0431309
-0.0310059
-0.0361996
-0.0315017
-0.0317858
-0.0311309
-0.0358039
-0.045708
-0.0386619
-0.0460629
-0.032804
-0.0396263
-0.0372921
-0.0459046
-0.0521368
-0.0479905
-0.0567321
-0.041372
-0.0410062
-0.0505696
-0.0570001
-0.0527779
-0.0521942
-0.0545973
-0.0508813
-0.0553763
-0.0491608
-0.0539762