/*--------------------------------*- C++ -*----------------------------------*\
  =========                 |
  \\      /  F ield         | OpenFOAM: The Open Source CFD Toolbox
   \\    /   O peration     | Website:  https://openfoam.org
    \\  /    A nd           | Version:  10
     \\/     M anipulation  |
\*---------------------------------------------------------------------------*/
FoamFile
{
    format      ascii;
    class       volScalarField;
    location    "6.9";
    object      k_0;
}
// * * * * * * * * * * * * * * * * * * * * * * * * * * * * * * * * * * * * * //

dimensions      [0 2 -2 0 0 0 0];

internalField   nonuniform List<scalar> 
12920
(
691.4
913.974
1067.55
1161.58
1057.09
879.812
717.478
629.016
531.182
353.38
199.722
123.014
93.7705
82.8752
78.0698
75.4143
74.4154
73.8694
74.0832
74.8996
31.8249
934.425
2060.2
1994.58
1405.13
1005.36
735.283
579.177
454.613
342.901
266.053
207.764
165.703
139.84
132.72
133.473
138.384
140.733
143.702
146.839
1017.05
1873.78
1767.24
1160.76
751.509
547.529
430.326
381.266
345.069
312.464
273.35
230.081
185.488
148.833
128.719
115.751
107.592
98.6947
94.6602
89.794
437.284
1901.21
1754.61
1158.02
790.105
656.455
540.845
459.06
376.429
314.338
251.183
196.152
153.137
123.07
103.236
89.0326
79.7347
72.5704
70.1378
66.1269
653.553
698.028
1200.42
1234.15
912.016
752.795
622.755
516.464
399.029
316.191
243.246
192.031
154.232
129.753
112.656
96.6573
82.7603
72.3041
66.976
62.7054
1266.1
3009.32
1974.19
1298.65
885.042
769.65
631.659
519.243
404.702
321.497
260.106
218.136
190.672
174.168
166.364
155.727
132.269
102.836
81.4751
68.5914
902.936
1976.99
1727
1155.87
895.688
817.468
765.642
600.802
430.299
330.024
267.022
226.816
195.902
174.333
161.249
151.738
139.146
120.64
98.9753
78.8811
2935.99
3723.81
1002.56
927.861
942.919
954.083
624.39
416.142
306.75
222.59
177.832
147.802
129.868
115.171
177.789
165.217
146.746
120.13
96.024
78.2111
7924.73
2271.45
1203.67
892.321
857.782
623.984
516.354
271.308
219.525
149.861
99.1199
83.9922
84.0332
83.5205
147.821
207.8
173.654
130.242
98.0976
78.8038
3783.78
2009.03
1347.85
842.429
664.74
381.4
279.015
198.766
175.039
129.109
111.905
100.567
112.316
115.75
174.645
186.795
170.401
136.808
104.45
84.2002
2456.47
2059.71
2003.06
1237.06
666.836
325.299
137.668
82.9989
75.5229
86.0093
101.652
106.708
108.935
105.389
140.647
132.116
134.115
129.16
112.124
91.718
3027.81
2405.72
1894.11
1212.04
724.53
284.843
139.136
80.7776
90.5918
88.5079
79.0846
51.7788
48.3875
59.2701
79.8892
141.017
131.792
118.942
106.703
90.0072
2346.73
3517.39
2296.14
1343.38
919.28
768.302
452.931
319.217
251.969
187.876
131.645
112.701
102.995
93.6044
153.062
133.257
120.177
106.327
99.6353
88.3327
11249.7
4811.84
2615.84
1261.72
795.723
556.234
496.339
362.114
293.039
214.633
172.569
140.498
125.583
116.084
110.167
102.624
97.0996
91.7874
89.8535
84.8875
9620.83
3158.62
1863.81
977.254
663.126
459.118
397.727
303.584
246.013
195.137
158.15
131.448
112.292
99.5292
90.8046
85.0024
81.1775
78.69
77.8978
75.8851
7586.35
4229.88
1499.2
716.209
568.202
374.9
319.464
247.935
210.094
177.117
148.988
130.538
113.115
102.397
92.73
87.1347
82.5299
80.0468
78.7413
77.7839
6444.44
3382.64
1557.71
1045.04
669.628
409.029
304.912
224.516
179.226
150.18
131.573
120.688
110.816
105.208
99.2301
96.2306
92.9364
90.9977
89.709
89.7526
318.879
1800.04
1565.07
1172.47
761.977
529.156
356.349
263.143
195.726
162.387
137.285
126.545
117.206
114.403
112.144
112.133
112.144
112.768
113.228
113.834
162.232
1262.99
1237.54
1076.9
723.01
548.527
398.117
305.324
226.818
185.833
157.558
146.891
136.843
131.468
125.889
123.15
122.083
122.271
123.429
128.083
506.829
959.464
894.753
802.616
635.701
527.255
425.104
342.713
270.617
213.936
168.77
138.019
116.91
103.585
92.8424
82.4695
71.4215
62.189
57.8554
57.6106
2482.41
3275.64
3491.72
3064.79
2026.41
1397.44
971.977
692.247
493.88
342.58
246.424
195.683
170.523
160.123
156.283
156.031
156.815
158.288
163.117
168.248
348.136
3051.37
5434.2
5111.08
3321.6
2401.88
1705.34
1292.48
916.561
735.631
637.347
523.958
440.602
392.117
381.347
381.153
385.455
388.606
393.469
396.14
774.717
3569.58
4475.43
3180.08
1837.27
1423.56
1079.34
985.43
856.944
811.935
729.854
635.38
514.079
418.672
368.854
332.982
308.91
288.839
278.506
269.865
4233.31
3910.1
3876.32
3091.01
1934.5
1635.25
1317.69
1161.09
953.246
831.279
678.828
544.692
428.008
348.073
293.73
254.219
228.606
211.608
205.233
197.418
3942.34
4938.53
3252.04
3124.89
2099.09
1905.03
1525.13
1293.35
999.149
814.157
641.468
521.322
426.348
363.247
316.825
276.191
240.089
212.333
196.883
186.792
17646.2
10042.7
4442.52
3624.13
2360.83
2158.02
1616.5
1350.43
1038.01
851.011
697.058
594.811
523.05
477.391
447.94
418.303
359.165
280.119
223.148
200.063
1935.11
6325.62
5483.05
4374.15
2454.87
2242.41
2107.93
1585.88
1102.84
870.106
720.932
622.084
539.882
484.331
447.819
425.031
386.722
332.9
271.359
228.555
14770.4
17641.2
3720.31
2710.97
2445.18
2517.92
2028.05
1482.67
1077.95
792.336
636.724
538.831
470.856
419.416
431.579
413.245
375.377
314.055
257.152
226.206
10615.3
7587.67
3528.31
2339.99
2333.24
2080.26
1785.55
1447.12
1093.74
776.47
585.435
504.669
461.917
426.299
421.594
435.26
388.538
302.428
245.543
222.904
8078.02
6007.22
3269.21
2020.13
1715.79
1580.21
1529.69
1208.08
975.578
754.844
635.063
572.149
542.007
492.473
420.043
408.648
388.292
313.728
255.365
233.771
5994.11
6828.37
4860.7
2605.33
1555.51
1186.69
878.172
717.591
620.543
585.457
540.782
482.886
443.894
400.427
304.301
327.144
330.909
308.816
276.891
256.493
5648.74
7265.94
4602.12
2825.77
1634.66
1121.43
922.606
717.801
637.878
552.017
465.558
382.876
365.464
342.495
302.332
310.977
299.67
285.158
272.428
257.95
8399.67
8932.94
4488.59
3208.09
2254.49
1977.23
1600.05
1255.69
902.864
675.534
488.372
416.609
360.603
334.19
331.9
303.42
287.017
275.738
271.103
259.664
15267
8274.96
5100.29
2801.94
1893.9
1494.27
1309.1
934.529
731.564
539.476
433.127
363.674
325.147
303.624
287.777
274.291
263.283
257.27
256.816
251.636
24405.2
8172.26
4545.69
2482.82
1678.02
1212.8
1041.64
804.794
636.341
511.79
411.784
350.269
302.378
274.339
253.063
241.809
233.003
229.132
229.059
228.04
9088.3
6314.04
3264.32
1752.02
1530.51
948.206
861.486
650.726
550.569
462.697
390.841
348.551
306.081
284.466
261.797
251.669
240.644
236.852
235.983
236.964
8434.43
6686.79
3890.67
2603.66
1345.38
1019.66
786.582
587.208
481.896
406.011
358.668
331.497
308.136
296.993
285.267
281.024
275.727
274.218
274.272
275.881
878.286
5062.43
3889.5
2693.24
1739.33
1245.34
880.631
679.163
517.684
442.078
380.256
355.612
333.57
327.533
322.535
322.939
324.181
329.036
333.141
338.785
305.918
3525.59
3080.32
2539.3
1674.66
1345.21
941.928
800.883
598.457
537.999
454.42
430.797
395.713
384.261
366.983
360.306
353.684
353.784
358.575
374.153
77.8042
1485.34
1910.47
1628.95
1157.51
935.087
755.183
645.432
534.816
443.762
358.48
300.829
258.335
234.036
212.041
187.46
155.532
127.227
113.511
114.1
3319.54
4679.45
4685.7
3576.07
2095.79
1284.09
848.471
613.549
469.335
380.933
318.867
272.628
243.953
226.991
216.565
207.173
202.14
196.097
193.961
188.22
746.765
5498.18
7113.74
6403.76
4010.29
2735.34
1935.65
1633.15
1301.68
1113.2
935.868
788.964
691.58
627.387
597.017
581.714
572.278
567.98
564.642
549.069
1486.2
5969.01
6102.34
4516.91
2777.73
2143.88
1680.04
1522.75
1310.76
1190.03
1020.6
870.573
724.415
614.043
542.836
489.252
454.124
426.166
410.732
397.704
8351.94
6864.32
6065.12
4295.68
2823.79
2283.3
1836.12
1596.03
1320.31
1136.83
926.787
755.634
609.487
502.183
426.86
374.063
340.302
318.368
307.867
299.253
15300.3
9524.87
5454.85
4292.01
3004.46
2614.2
2037.7
1672.15
1306.37
1071.83
864.358
715.311
595.956
509.007
442.626
387.532
344.485
314.141
296.555
285.561
12581.8
8131.2
5366.05
4454.4
3270.61
2864.23
2153
1750.66
1363.3
1123.24
936.916
802.377
703.654
628.091
569.984
509.909
442.068
377.982
336.273
310.078
11953.6
8456.62
5283.63
4846.05
3864.36
3613.3
2685.52
1921.76
1421.22
1146.53
964.06
835.985
736.035
662.414
606.842
558.209
500.368
441.187
387.137
347.877
69523.1
34799.7
7016.12
3952.32
3602.48
3348.64
2733.96
1920.18
1442.65
1098.06
907.302
775.734
680.802
608.638
583.773
538.458
478.574
416.933
371.709
345.159
10698.8
10935
5068.41
3155.72
3105.36
2884.92
2575.6
1941.37
1445.44
1079.31
861.987
742.157
659.564
595.128
560.321
539.238
461.385
390.598
351.754
334.933
10170.9
8195.66
4227.29
2700.88
2271.72
2230.62
2155.86
1645.08
1316.56
1069.99
905.561
796.967
709.615
618.092
543.534
522.373
460.803
393.677
358.653
342.835
10720.5
10388.6
6102.44
3294.33
2177.23
1677.4
1401.16
1154.24
1005.27
922.497
603.698
469.665
481.106
452.287
413.107
443.334
430.795
397.884
376.922
360.956
11750.8
9462.94
5488.75
3483.49
2333.45
1773.58
1585.8
1175.89
978.856
830.985
710.45
620.453
564.924
492.535
425.796
408.922
396.285
388.216
381.406
369.776
19042.5
9892.93
6102.38
4325.62
3166
2674.68
2267.33
1671.7
1165.85
882.671
669.037
581.732
503.765
466.969
436.601
408.927
396.574
389.627
386.13
374.341
15495
12356.9
7675.32
3923.74
2812.73
2078.45
1772.68
1229.86
943.669
700.013
576.692
496.332
452.293
426.71
406.698
391.479
381.254
376.037
373.867
365.006
14777.6
12439.7
6265.46
3379.68
2386.64
1638.63
1435.74
1071.12
850.108
674.055
555.606
478.608
425.881
394.283
371.62
359.317
350.902
347.607
347
345.77
19075.8
7325.63
4440.91
2445.3
2040.1
1286.41
1190.03
872.574
750.027
619.291
535.39
478.471
430.734
405.99
382.788
373.617
363.5
362.014
362.287
365.643
6271.42
6818.2
4898.03
2827.59
1897.92
1310.44
1063.96
789.59
670.132
570.357
512.474
476.827
448.509
436.742
424.682
422.484
418.603
419.977
421.773
426.857
2246.25
5762.77
4628.45
2931.84
2107.35
1504.3
1151.52
903.696
716.565
620.849
545.337
517.811
491.826
487.794
483.293
486.401
490.55
501.18
508.93
518.626
6503.87
5322.34
3726.61
2790.75
1935.02
1677.63
1260.13
1133.55
853.828
758.544
626.29
596.062
545.449
535.026
513.387
509.323
506.119
512.856
529.131
556.677
463.237
1875.75
2366.76
2076.74
1436.23
1100.1
895.357
753.208
624.789
522.755
436.927
376.513
331.354
296.364
263.755
229.219
195.691
169.616
155.378
151.823
2618.18
4245.19
4352.75
2988.7
1787.42
1148.52
823.844
621.663
498.616
418.633
362.758
320.344
293.435
270.603
257.886
242.347
232.251
216.388
207.875
186.104
1807.77
7250.13
8702.16
6935.91
4314.19
2902.56
2221.92
1878.01
1596.43
1386.18
1205.98
1067.81
972.471
899.536
857.556
822.268
797.596
774.123
754.267
707.729
3858.43
9254.23
8150.31
5097.58
3485.69
2566.01
2146.15
1869.66
1656.4
1458.65
1264.31
1081.06
938.507
822.69
739.838
670.659
626.609
589.071
568.271
550.302
12366.9
9815.43
7837.97
4789.34
3483.75
2634.06
2231.4
1864.77
1606.28
1356.37
1133
934.223
779.017
658.103
576.395
514.165
477.653
452.074
439.266
431.348
30430.4
13114.1
7345.69
4596.81
3766.12
2933.43
2377.21
1871.49
1532.56
1257.06
1056.66
883.82
757.92
654.397
579.482
515.787
473.209
442.95
425.231
417.23
24668.2
9098.1
6491.37
4654.09
4002.52
3079.37
2476.67
1928.93
1586.65
1316.82
1140.95
982.72
871.56
769.565
691.261
612.858
550.199
499.794
467.649
447.445
21810.1
9473.78
6080.58
5002.99
4698.73
3896.89
2814.87
2056.8
1613.09
1329.21
1154.75
1012.77
910.972
820.62
746.77
677.276
615.282
561.12
520.251
494.13
24313.3
10763.6
6050.81
4557.02
4485.15
3682.72
2964.33
2094.4
1629.55
1285.93
1099.42
957.896
857.216
774.915
720.014
650.819
590.102
540.751
509.475
494.105
15369.5
11615.8
6128.94
3920.33
3703.56
3344.37
2913.56
2122.04
1620.28
1271.42
1059.4
922.931
822.318
747.307
694.681
628.03
554.809
509.85
488.1
481.406
25863.5
11465.4
5149.35
3377.12
2641.65
2590.69
2445.47
1853.9
1524.42
1287.8
1100.35
950.954
828.608
736.999
683.58
620.086
553.047
511.639
493.312
485.106
38231.7
20238.8
7273.72
3871.56
2659.34
2015.62
1736.18
1454.2
1298.54
1184.19
902.737
703.092
623.576
575.913
578.934
571.543
541.55
521.655
510.724
499.982
20227.4
11339.4
6649.21
4013.25
2898.46
2242.76
2006.47
1481.64
1233.75
1066.37
932.635
820.181
713.713
616.879
553.02
537.381
530.081
525.971
521.831
509.603
20703
11883.2
7607.9
4762.26
3887.86
3003.12
2567.16
1834.44
1314.13
1013.73
812.598
721.486
639.594
597.565
561.618
539.98
536.697
530.867
526.52
511.082
20499.2
16466.7
9934.43
4731.23
3562.53
2399.38
2082.86
1378.81
1097.1
804.217
705.751
610.595
581.251
550.795
537.055
522.929
517.552
512.036
509.136
499.644
13167
14672.3
8435.21
4121.59
2999.15
1921.29
1754.45
1242.64
1027.32
789.422
685.571
592.43
550.451
516.213
499.822
488.228
483.987
483.236
484.76
487.317
27306.2
9488.96
5349.37
3097.15
2436.11
1574.42
1461.29
1031.31
932.736
742.27
676.047
596.483
560.608
530.861
516.309
508.591
504.952
506.938
510.474
519.233
9521.51
8301.72
5448.63
3189.26
2304.46
1530.69
1304.2
934.851
844.067
706.441
664.945
613.522
595.036
579.474
575.326
575.198
577.637
583.257
588.944
599.364
8398.23
6825.01
5024.87
3221.7
2385.15
1667.58
1385.64
1036.57
889.979
761.471
710.332
671.84
659.121
653.185
656.845
664.075
676.524
692.924
704.959
719.058
31383.3
4839.65
3511.21
2640.78
2115.11
1833.08
1520.73
1320.83
1037.5
911.237
777.097
748.314
702.286
698.485
686.783
689.782
698.355
722.339
744.208
776.304
1514.94
2307.99
2178.33
1889.74
1362.34
1066.21
883.058
739.027
613.791
513.647
435.271
377.637
333.4
293.639
256.89
222.74
198.756
184.218
178.703
176.666
376.797
2936.36
3454.99
2229.63
1414.76
966.235
733.302
559.818
459.944
391.822
349.237
316.102
294.207
271.798
250.318
222.249
196.417
169.411
152.597
131.375
2778.93
7743.49
10159.7
6685.39
4992.55
2898.78
2637.98
1961.95
1893.66
1600.29
1532.05
1362.07
1313.53
1209.01
1155.51
1077.07
1039.62
981.042
947.634
877.698
18888.7
12769.6
10564.9
5226.13
4509.93
2763.95
2682.6
2050.24
1977.11
1608.12
1496.72
1243.58
1151.69
1010.99
940.972
853.519
811.685
760.211
740.349
714.188
32720.5
12794.4
9585.75
4965.36
4373.43
2791.44
2678.85
1990.75
1872.48
1468.2
1312.21
1050.91
941.828
804.679
739.034
669.121
642.557
612.529
605.21
593.833
27489.3
14696.2
8839.53
5257.42
4893.71
3118.7
2834.45
1974.62
1775.17
1371.34
1239.05
1008.75
915.384
785.476
723.11
654.645
627.516
598.83
591.737
588.304
10336.4
11494.2
7739.74
5432.71
4881.41
3215.12
2840.66
1995.75
1790.82
1443.2
1322.8
1123.25
1023.27
891.16
806.853
718.65
673.997
636.694
624.605
616.97
27230.9
13512.2
8351.68
5500.96
5784.71
3891.12
3043.36
2170.48
1792.23
1465.42
1320.19
1150.6
1063.14
946.909
864.198
783.28
734.595
690.52
674.397
669.066
23655.1
12195.9
6925.78
5946.6
5582.07
4083.85
3081.64
2244.31
1769.9
1436.68
1263.83
1117.39
1024.01
932.749
841.195
755.649
706.996
675.532
668.327
667.387
18870.1
13762.9
7668.47
5129
4403.67
3725.01
3129.41
2218.55
1754.09
1421.57
1224.47
1080.75
984.333
908.373
833.409
720.724
674.368
649.227
650.386
651.845
42433.2
13375.1
6233.61
4811.07
3051.29
2945.13
2601.65
2005.85
1704.49
1458.87
1242.66
1063.75
952.973
892.563
827.766
723.465
675.558
650.366
649.611
642.88
39790.4
17272.2
8801.46
4876.89
3287.42
2348.05
1974.43
1702.38
1557.91
1393.96
1169.85
929.306
795.182
772.831
755.75
699.081
678.939
659.894
659.977
650.496
23474.7
13235.2
8695.23
4963.11
3588.45
2666.86
2263.44
1712.1
1463.58
1279.79
1124.93
972.371
855.532
774.366
712.786
683.078
681.386
668.342
668.8
655.543
44751.1
15591.8
9647.32
5177.79
4965.92
3385.74
2736.81
1902.32
1452.44
1108.3
967.473
847.609
795.137
739.267
708.833
687.46
685.996
673.228
669.741
653.713
19373.9
18491.7
12922.6
5512.76
4609.87
2775.53
2526.24
1607.45
1317.28
918.9
867.103
720.068
727.648
672.535
680.295
654.77
660.623
648.15
650.597
644.487
19600.5
16609.3
10839.5
5027.62
3919.68
2342.2
2231.92
1416.87
1260.09
898.923
839.792
700.7
687.857
637.026
636.466
619.804
626.351
626.021
633.956
642.331
28835
12712.5
6663.4
4500.6
3062.48
2135.07
1858.45
1243.6
1184.23
873.757
852.339
709.689
710.319
652.759
663.716
644.679
658.138
658.248
669.372
681.905
27032.5
11275.4
6746.19
4214.54
2976.5
1932.05
1682.4
1108.7
1082.8
841.095
848.639
742.576
756.158
714.797
731.953
721.678
739.069
743.92
757.369
770.525
19300.8
8592.24
5704.73
3973.3
2903.84
1949.09
1724.19
1149.61
1124.56
874.376
909.114
802.28
839.267
797.604
832.258
825.223
858.015
869.837
890.832
905.828
33158.6
6667.15
3879.67
2942.29
2845.26
1962.25
1981.47
1364.97
1288.09
975.191
969.441
864.859
882.223
847.844
873.615
873.615
911.865
937.647
969.334
999.674
6242.96
6327.14
2686.57
1465.45
1119.25
926.192
765.47
623.064
511.487
418.408
349.773
291.073
248.792
216.803
197.474
185.084
179.985
177.871
177.601
176.225
941.556
966.189
711.138
1239.91
1099.78
1145.26
847.424
819.761
653.06
575.578
1057.77
948.46
770.447
695.382
666.728
828.98
740.269
1119.66
847.783
1022.06
923.505
495.181
707.542
624.265
762.622
621.226
886.553
789.073
279.571
299.117
206.898
1380.78
1281.02
1310.6
1151.03
229.928
202.782
189.585
1221.22
1026.29
1097.34
943.196
165.329
179.038
140.584
945.041
734.004
882.836
703.884
106.456
129.466
109.229
662.816
522.529
654.573
555.842
84.1946
105.552
92.1766
488.268
434.369
532.107
479.665
83.3299
92.2782
102.06
422.811
401.204
472.984
463.812
84.0508
105.642
110.152
393.825
375.325
460.407
441.268
66.6063
110.138
94.7893
369.188
360.157
431.823
401.067
199.732
157.773
118.878
1253.62
1084.33
824.671
730.259
185.647
114.674
99.9059
1037.72
901.663
697.852
605.371
139.157
95.7922
89.6674
847.97
688.799
578.58
528.67
113.313
90.2782
102.37
646.685
563.307
521.203
512.139
100.972
105.738
108.691
544.98
500.3
504.175
477.613
108.831
109.076
112.798
493.633
483.949
471.051
456.943
116.087
114.07
114.048
479.875
456.586
451.545
425.113
97.7549
112.815
88.9765
444.84
406.075
413.139
360.417
88.8513
126.476
79.1756
690.779
607.163
622.75
560.499
75.6085
75.621
76.3059
577.286
515.627
537.308
499.626
82.1613
78.1116
80.6434
502.025
486.052
489.734
457.253
98.7793
80.4375
73.9148
486.015
481.369
446.233
403.221
106.05
69.3031
56.6584
473.809
446.733
384.387
330.747
108.949
54.6819
56.1471
438.35
416.422
318.527
304.169
107.218
58.6603
72.7554
409.131
383.442
304.155
302.561
87.7012
75.0465
61.6425
372.34
340.19
299.267
273.751
83.3482
325.708
134.793
682.398
596.536
1020.86
864.883
88.0881
138.328
150.919
573.021
541.652
828.556
742.841
89.6328
145.378
121.363
530.486
482.316
696.988
578.05
83.3973
113.997
96.3582
466.719
415.319
546.349
447.196
57.416
86.5912
70.184
392.664
325.643
415.138
351.338
47.4424
70.052
72.8357
310.513
298.789
347.37
328.072
56.9859
71.8085
52.8262
299.085
293.304
316.596
279.285
50.6606
47.8832
34.8455
288.221
258.081
273.028
266.67
1540.25
1611.04
1352.93
2417.52
2007.23
2150.94
1764.93
1190.72
1282.32
1087.65
1855.76
1499.26
1660.01
1385.8
853.78
1016.96
817.641
1379.56
1099.65
1297.58
1071.2
623.622
763.64
650.871
1016.78
845.903
1011.37
873.615
520.139
622.762
562.577
802.282
713.22
837.238
755.809
472.718
552.473
531.017
690.03
633.338
736.086
682.162
435.334
523.55
493.671
615.679
570.767
664.143
608.031
403.513
481.265
437.722
556.841
523.508
589.161
537.891
1270.3
1021.62
881.175
2025.29
1657.53
1453.27
1231.17
1037.46
840.464
730.545
1563.84
1324.46
1173.92
1032.83
800.817
699.496
637.733
1248.87
1054.78
994.52
905.529
658.261
626.563
594.445
1003.46
880.755
888.502
730.401
582.053
578.26
535.482
847.344
769.72
686.118
600.988
550.298
525.644
504.369
750.11
694.94
590.529
577.185
507.379
496.757
462.498
675.611
612.999
569.713
521.469
439.208
447.532
378.152
591.383
534.44
500.474
429.705
753.494
822.035
706.845
1286.05
1109.06
1273.78
1077.17
639.161
674.112
614.013
1060.71
949.13
1021.16
904.845
589.59
597.65
549.37
920.166
852.35
872.511
785.685
556.738
534.308
481.988
838.987
677.412
761.104
680.358
495.509
460.58
401.054
628.807
527.6
650.092
572.055
452.925
387.202
366.445
505.247
480.85
554.033
516.204
412.936
363.522
350.373
477.179
452.159
505.06
466.08
354.401
344.832
300.771
439.474
396.59
451.755
395.397
753.485
1372.75
1068.88
1442.67
1143.51
1946.15
1520.45
657.263
1009.18
869.864
1077.83
943.614
1406.76
1147.21
571.979
812.301
668.621
904.146
796.539
1061.34
870.126
490.286
633.188
519.518
767.347
682.704
824.723
686.662
397.388
483.554
413.201
653.179
581.009
645.34
567.569
367.522
407.4
379.204
566.016
533.821
557.648
507.627
349.988
365.53
327.234
522.398
478.784
489.405
445.001
294.881
321.246
305.688
462.015
402.458
437.146
410.044
2102.43
2280.63
1855.47
2854.18
2267.27
2533.11
2032.32
1567.43
1743.47
1454.78
2094.62
1705.84
1909.21
1606.8
1161.17
1364.49
1136.87
1586.55
1307.61
1518.43
1300.33
906.837
1076.73
934.277
1230.17
1060.79
1241.03
1090.22
767.431
895.98
807.837
1014.84
909.99
1047.58
941.353
679.066
785.18
722.076
880.41
804.471
911.136
827.058
610.141
701.271
639.053
781.878
724.582
801.16
731.666
556.388
619.058
565.254
707.683
662.212
711.773
662.492
1744.98
1561.32
1322.03
2391.22
1923.38
1806.85
1539.71
1393.58
1261.64
1115.86
1815.04
1554.19
1476.32
1330.34
1121.97
1076.58
982.351
1479.6
1292.83
1291.36
1193.29
1073.06
1023.49
1048.78
1131.16
1010.76
1083.77
1112.82
915.082
873.567
895.813
960.017
863.957
925.544
949.955
731.943
580.974
590.325
916.685
827.329
697.275
670.791
640.61
585.281
534.708
799.379
724.211
654.701
597.159
560.048
513.448
449.017
703.066
655.368
581.507
555.218
1205.3
1408.53
1179.72
1667.07
1443.21
1725.36
1435.28
1036.35
1118.01
987.613
1388.56
1264.27
1362.27
1205.04
929.445
951.432
855.628
1231.11
1147.3
1162.16
1051.88
876.834
853.569
870.434
980.702
822.371
818.387
939.83
577.843
559.498
634.002
467.278
587.414
425.029
631.275
478.09
604.994
560.598
601.548
585.979
762.831
687.534
464.243
546.304
498.262
578.098
543.822
662.72
590.8
415.447
480.75
419.496
533.88
524.624
568.807
513.798
1248.84
2125.77
1625.49
1920.99
1504.01
2436.68
1846.36
1023.19
1503.47
1215.2
1416.55
1227.7
1703.63
1371.47
862.142
1124.18
923.041
1175.1
1044.25
1271.42
1057.84
741.085
876.265
733.185
1009.77
911.028
1008.01
857.776
636.384
690.829
612.357
878.619
795.503
816.385
738.852
580.13
601.256
544.838
773.245
702.723
724.02
651.008
511.982
525.22
478.105
677.765
604.799
629.36
577.897
428.384
469.5
435.712
581.922
521.084
567.237
524.762
2295.53
2589.08
2068.38
3068.06
2352.58
2730.84
2158.44
1736.99
1944.28
1644.74
2184.28
1821.6
2034.43
1750.38
1346.96
1558.77
1345.93
1712.24
1449.87
1671.77
1468.17
1104.94
1286.86
1134.2
1379.31
1223.48
1407.56
1247.2
953.313
1090.52
979.723
1180.39
1071.28
1200.54
1078.1
845.234
947.646
859.793
1040.01
963.469
1042.43
956.099
764.518
833.684
766.001
942.389
885.673
933.934
879.07
698.051
747.083
697.306
867.967
812.661
863.097
814.095
1962.43
1866.19
1597.9
2558.83
2063.69
2010
1755.75
1596.9
1535.35
1393.18
1958.3
1718.04
1698.52
1571.18
1341.19
1354.99
1254.12
1651.65
1470.77
1533.97
1414.91
1143.97
1214.1
1004.9
1413.78
1255.94
1365.87
1204.85
985.138
934.766
801.287
1207.84
1076.52
1143.94
974.989
856.783
775.236
707.768
1037.26
942.406
925.815
811.913
756.422
686.418
630.943
919.676
867.051
790.877
760.969
690.492
618.703
598.638
852.76
810.129
756.642
746.555
1508.74
1813.81
1505.57
1913.91
1686.66
2026.19
1691.69
1331.63
1430.6
1269.54
1635.22
1522.45
1614.13
1452.15
1211.01
1226.03
1113.91
1489.3
1381.74
1409.55
1290.53
980.802
1082.93
982.513
1340.6
1183.12
1253.43
1140.93
734.164
944.889
842.349
1118.97
940.704
1100.7
976.649
639.604
812.732
726.637
890.136
773.912
936.561
832.502
584.044
699.518
625.672
753.792
727.224
806.828
744.71
569.364
604.348
550.37
723.894
720.934
727.085
684.064
1571.8
2524.7
1894.07
2208.82
1746.15
2690.35
1991.86
1287.08
1748.49
1410.63
1651.46
1453.08
1839.44
1511.05
1101.68
1310.64
1097.5
1401.74
1266.54
1419.41
1206.2
965.38
1047.02
896.216
1226.45
1115.12
1148.98
1005.85
845.473
856.032
779.851
1079.77
974.769
973.314
896.841
740.34
763.547
686.772
939.745
845.834
872.179
796.227
639.287
665.242
614.677
820.552
755.042
778.689
735.277
556.104
603.672
557.132
735.387
683.65
721.259
676.921
2384.69
2786.11
2202.06
3432.92
2592.99
3033.03
2467.97
1863.28
2077.99
1798.22
2435.49
2095.05
2336.87
2064.01
1491.07
1720.81
1514.81
1985.53
1708.62
1986.75
1772.45
1267.55
1452.12
1286.1
1641.57
1495.24
1703.67
1522.51
1112.24
1237.68
1109.93
1449.53
1323.05
1467.77
1319.17
1004.82
1073.35
990.262
1290.46
1216.91
1278.11
1199.4
926.619
969.937
918.439
1195.5
1129.12
1180.84
1127.35
848.41
902.657
848.885
1107.68
1035.11
1109.47
1043.02
2110.35
2058.83
1816.78
2828.09
2386.97
2325.37
2133.79
1770.24
1761.48
1638.07
2278.34
2049.89
2075.47
1958.09
1518.79
1599.71
1470.34
1983.64
1786.47
1917.78
1763.02
1293.09
1417.63
1252.47
1718.17
1529.83
1698.07
1510.51
1104.49
1191.15
1012.57
1471.77
1307.57
1441.55
1220.84
972.69
959.192
844.6
1261.18
1175.37
1156.29
1045.55
906.226
827.726
807.04
1161.51
1115.94
1040.51
1027.59
845.142
803.586
788.675
1100.34
1034.22
1021.95
988.812
1752.89
2093.67
1758.31
2295.09
2087.28
2421.76
2102.81
1592.49
1680.13
1518.77
2029.48
1921.38
2012.05
1846.7
1440
1476.24
1350.54
1884.58
1740.84
1800.02
1652.41
1233.48
1309.68
1189.47
1681.35
1498.43
1599.79
1454.65
984.193
1147.01
1012.9
1427.08
1199.45
1402.33
1228.04
811.802
969.283
865.162
1132.77
1018.91
1172.89
1070.18
775.773
841.974
784.609
1013.5
998.695
1051.7
990.085
763.599
767.767
724.059
992.822
960.02
972.07
921.556
1808.32
2745.27
2027.88
2613.94
2144.79
3023.78
2288.84
1514.23
1871.77
1549.59
2032.88
1832.1
2105.24
1836.99
1323.43
1461.91
1245.92
1778.87
1613.21
1736.32
1479.62
1162.26
1184.04
1045.17
1558.21
1421.63
1391.08
1281.7
1010.76
1014.63
934.604
1375.99
1223.83
1249.23
1140.34
879.108
906.013
833.614
1175.37
1086.53
1094.27
1039.84
793.537
817.241
775.322
1063.27
995.372
1022.47
969.931
722.183
759.421
714.733
974.333
914.722
945.779
906.039
1030.59
980.832
931.932
998.308
970.479
1039.74
989.028
1040.67
1008.43
902.974
1019.26
977.189
1075.47
896.623
985.629
882.797
799.424
619.786
928.073
934.109
720.207
1130.96
1187.74
1190.7
1227.89
1139.53
1172.65
1183.84
1087.59
1051.26
1144.54
1093.65
1094.47
1043.66
1139.4
1101.22
1073.4
1200.2
1073.62
1139.74
936.802
1159.06
1048.96
653.148
1052.67
960.971
993.73
758.109
1108.59
882.652
844.956
810.574
865.87
835.062
894.19
854.463
854.554
842.633
603.731
564.391
810.162
889.502
521.058
816.795
758.187
578.04
538.729
778.855
792.137
521.643
964.388
1010.96
1018.82
1050.07
974.128
1002.11
1009.87
928.886
908.706
982.603
936.118
940.155
896.31
972.148
906.875
593.402
1001.9
723.405
945.634
551.119
958.374
865.755
566.02
880.953
710.137
832.914
548.168
919.272
779.351
748.74
690.168
540.876
752.288
647.357
699.402
876.097
841.279
801.507
894.872
809.641
910.786
866.029
832.33
729.935
771.873
800.659
770.461
786.804
834.478
958.723
1043.37
1071.18
1079.92
898.078
1011.9
1042.58
860.157
587.107
956.139
893.592
708
772.734
971.201
946.759
959.331
1045.6
992.217
979.506
929.953
1015.2
902.381
862.343
925.148
959.406
854.433
897.558
972.966
534.629
513.218
512.3
404.818
544.721
382.926
498.463
698.85
688.695
676.276
766.002
649.952
741.159
733.057
662.016
585.498
648.386
677.934
616.172
628.937
703.612
640.535
507.441
702.126
821.483
462.331
698.392
760.712
591.932
447.895
642.787
662.282
417.682
553.793
705.2
761.293
826.305
876.402
851.092
806.26
791.992
829.977
721.2
733.523
749.953
818.527
685.825
760.979
787.407
511.788
626.539
482.853
1133.55
1129.1
1099.96
1110.28
378.587
407.496
358.642
973.57
812.739
1059.54
935.038
259.919
304.023
258.219
678.586
596.107
800.795
690.02
199.021
215.437
182.777
502.693
437.422
568.682
479.825
159.187
159.893
144.815
394.26
363.409
421.37
387.563
139.2
135.251
129.259
336.25
314.757
362.358
346.273
120.495
123.467
118.857
293.173
278.334
328.492
316.516
95.4741
116.278
101.881
259.179
264.498
302.107
325.282
639.442
525.168
488.211
1168.9
1205.18
1101.72
1179.79
601.7
383.715
425.391
628.769
603.9
619.173
313.406
585.903
253.729
219.855
569.701
549.009
596.398
213.249
465.822
199.455
191.785
449.361
414.825
506.311
175.99
313.568
132.839
130.26
307.106
277.86
346.653
116.878
230.737
90.302
90.5761
208.778
198.325
244.633
84.5858
224.01
82.9224
80.9385
185.724
185.539
222.124
81.7512
231.416
83.9396
86.1607
186.568
187.529
230.542
86.9839
233.394
83.3588
89.1582
191.254
192.225
233.557
89.8428
120.124
170.816
128.907
318.621
331.17
343.097
356.877
387.634
316.899
294.908
964.522
1113.69
817.346
869.964
527.129
222.201
232.054
535.582
564.204
490.252
198.804
525.512
197.293
188.727
565.517
557.406
532.96
187.491
424.956
162.793
165.531
488.286
453.151
457.955
154.088
326.698
121.241
123.983
358.643
337.394
341.667
117.945
303.077
109.238
111.743
308.798
300.036
307.714
110.811
293.68
101.241
106.838
279.779
281.521
291.924
107.399
305.065
114.771
116.176
296.189
297.582
304.777
117.891
289.604
114.563
117.255
291.136
286.335
295.167
115.758
129.059
167.393
111.157
338.369
350.337
304.892
294.347
246.687
305.029
227.809
723.507
634.271
650.813
571.813
243.223
109.313
133.888
265.086
272.606
245.633
102.154
212.294
78.9169
72.1913
247.302
238.909
214.859
69.7538
221.602
76.1114
71.3966
228.289
228.919
216.933
74.1027
240.555
90.6889
83.1095
245.995
255.069
236.106
86.1773
249.993
104.003
92.891
272.258
275.188
247.263
95.3255
250.134
107.405
99.1329
275.731
275.774
250.59
99.9328
244.937
108.706
101.297
271.394
269.036
247.627
101.121
228.782
103.91
98.1
255.582
251.192
232.911
95.9855
96.8195
112.909
64.5435
249.845
237.125
211.493
204.975
248.979
378.812
408.939
638.62
667.719
758.586
788.934
266.052
106.017
159.156
247.613
248.6
268.066
119.051
278.71
81.2033
87.9234
244.783
247.532
266.49
89.9504
307.376
90.9389
107.655
266.83
265.224
310.101
107.805
270.437
86.9253
101.974
248.262
240.862
279.555
99.2215
208.74
71.7674
85.7048
208.594
186.925
228.878
77.9391
154.672
48.1113
57.6486
135.294
128.329
158.045
55.6747
154.546
50.5731
54.9851
132.76
139.088
155.965
54.3423
130.413
59.9699
50.8455
148.347
147.787
137.85
48.573
56.8751
85.313
78.5492
204.352
213.349
228.826
254.769
352.327
450.475
347.594
838.414
893.141
831.613
950.963
288.328
314.549
282.423
868.085
788.799
924.992
755.608
223.045
247.527
208.921
677.842
608.837
671.409
594.156
156.937
174.804
149.664
507.782
420.706
494.942
379.273
120.709
126.786
107.722
356.201
327.939
337.589
306.513
108.116
101.317
96.8932
303.135
284.68