/*--------------------------------*- C++ -*----------------------------------*\
  =========                 |
  \\      /  F ield         | OpenFOAM: The Open Source CFD Toolbox
   \\    /   O peration     | Website:  https://openfoam.org
    \\  /    A nd           | Version:  10
     \\/     M anipulation  |
\*---------------------------------------------------------------------------*/
FoamFile
{
    format      ascii;
    class       volScalarField;
    location    "6.9";
    object      omega;
}
// * * * * * * * * * * * * * * * * * * * * * * * * * * * * * * * * * * * * * //

dimensions      [0 0 -1 0 0 0 0];

internalField   nonuniform List<scalar> 
12920
(
117.09
134.624
145.495
151.768
144.781
132.084
119.278
111.683
102.631
83.7098
62.9316
49.3892
43.121
40.5385
39.3457
38.6707
38.4138
38.2726
38.3279
38.5385
25.1211
136.122
202.12
198.876
166.922
141.194
120.749
107.167
94.946
82.4593
72.634
64.186
57.3219
52.6588
51.3008
51.4461
52.3839
52.8266
53.3809
53.9606
142.012
192.759
187.199
151.714
122.074
104.198
92.375
86.95
82.7196
78.7147
73.6233
67.5454
60.6476
54.3257
50.5215
47.9092
46.1898
44.2387
43.3251
42.1968
93.1188
194.165
186.529
151.535
125.169
114.093
103.56
95.4092
86.3967
78.9503
70.5749
62.3666
55.1057
49.4006
45.245
42.0175
39.763
37.9346
37.2934
36.2113
113.84
117.65
154.285
156.437
134.48
122.178
111.126
101.199
88.9524
79.1827
69.451
61.708
55.3022
50.7241
47.2641
43.7797
40.5104
37.8649
36.4431
35.2621
158.449
244.281
197.856
160.473
132.476
123.538
111.917
101.471
89.5826
79.8443
71.8175
65.7687
61.4892
58.7678
57.4362
55.5696
51.2136
45.1572
40.1946
36.8799
133.809
197.997
185.055
151.395
133.27
127.318
123.216
109.149
92.3721
80.8962
72.766
67.0645
62.3267
58.7956
56.5463
54.8533
52.5279
48.9104
44.3016
39.5496
241.286
271.737
140.997
135.643
136.739
137.546
222.543
181.68
155.983
132.874
118.765
108.274
101.493
95.5779
59.3755
57.2379
53.9434
48.8069
43.636
39.3813
396.413
212.23
154.493
133.02
130.42
222.47
404.752
293.391
263.911
218.052
177.336
163.243
163.283
162.784
108.281
64.1917
58.6811
50.8197
44.1047
39.5302
273.917
199.594
163.484
129.247
114.81
173.931
297.529
251.123
235.658
202.396
188.434
178.627
188.771
191.635
117.696
60.8609
58.1289
52.0848
45.5104
40.8613
220.705
202.096
199.298
156.621
114.991
160.63
208.993
162.275
154.795
165.206
179.62
184.008
185.908
182.858
105.621
51.1839
51.5696
50.608
47.1526
42.6464
245.03
218.413
193.802
155.029
119.863
150.31
210.104
160.089
169.535
167.575
158.405
128.172
123.903
137.13
79.603
52.88
51.1211
48.5649
45.9984
42.2468
215.718
264.099
213.38
163.213
135.014
123.43
189.54
159.121
141.371
122.073
102.185
94.5473
90.3845
86.1655
55.092
51.4044
48.8164
45.9173
44.449
41.852
472.308
308.895
227.751
158.175
125.614
105.023
99.2076
84.738
76.2287
65.2385
58.4974
52.7825
49.9023
47.978
46.7392
45.1107
43.8798
42.6626
42.2107
41.0277
436.779
250.267
192.246
139.206
114.671
95.4152
88.8072
77.5881
69.8449
62.2049
56.0003
51.0543
47.1877
44.4253
42.4335
41.0555
40.1211
39.5017
39.3023
38.7913
387.857
289.614
172.419
119.172
106.147
86.221
79.5915
70.1172
64.545
59.2633
54.354
50.8773
47.3604
45.0609
42.8811
41.5672
40.454
39.8407
39.5145
39.2736
357.477
258.99
175.752
143.954
115.232
90.0602
77.7576
66.7236
59.6151
54.5709
51.0786
48.9201
46.8766
45.6752
44.3585
43.683
42.9288
42.4787
42.1768
42.187
79.5186
188.928
176.166
152.478
122.921
102.435
84.0608
72.2356
62.2988
56.7455
52.1755
50.0932
48.2093
47.6293
47.1568
47.1544
47.1567
47.2877
47.3841
47.5107
56.7185
158.255
156.651
146.131
119.737
104.293
88.8507
77.8101
67.0648
60.704
55.8953
53.9701
52.0915
51.0582
49.9632
49.4165
49.202
49.24
49.4725
50.3965
100.25
137.934
133.201
126.156
112.275
102.251
91.8127
82.4367
73.2543
65.1324
57.8501
52.3149
48.1483
45.3214
42.907
40.4392
37.6331
35.1166
33.871
33.7992
88.7466
101.944
105.253
98.6089
80.1824
66.5859
55.532
46.8647
39.5846
32.9683
27.9613
24.9168
23.2599
22.5394
22.2675
22.2496
22.3054
22.4099
22.7491
23.1042
112.722
133.192
140.477
128.299
91.6236
78.4504
78.1957
80.5759
77.0702
60.0695
46.5248
38.6818
33.7218
29.5958
27.0318
26.3589
26.359
26.5459
26.8267
27.5262
122.178
142.891
135.789
103.096
74.7382
62.6544
56.7351
54.3743
52.5005
47.8995
43.1024
39.5288
35.7345
30.462
26.0793
23.6878
22.4896
21.7706
21.3932
21.4159
287.059
183.689
128.665
92.4034
75.7835
63.6798
55.657
49.655
45.4509
41.3836
37.5321
33.3447
28.987
24.8094
21.9455
20.2877
19.3334
18.6835
18.3843
18.0237
183.7
245.715
173.557
119.448
89.1726
73.6231
61.3577
51.153
43.3453
38.0448
33.6404
30.0644
27.277
24.8228
23.1991
22.0165
20.976
19.8598
19.1197
18.1151
411.379
259.596
156.161
107.968
88.3317
77.2944
65.8078
54.2088
45.4187
38.993
34.6523
31.6983
29.8406
28.929
28.7201
28.7872
28.795
28.6562
27.0111
21.4876
142.477
202.13
196.048
192.817
147.663
107.237
77.158
59.2564
48.0675
40.8864
36.2499
33.4257
31.8455
30.8003
30.4748
30.5575
30.7616
30.7266
30.0159
25.2427
562.031
289.265
128.855
107.971
91.101
78.9518
75.9269
62.0963
52.8517
44.9322
39.5974
35.4686
32.8994
31.209
28.2038
28.8609
28.8946
28.6084
27.354
22.927
244.591
134.322
80.5217
68.5738
66.5075
71.3721
75.1889
64.8978
56.4477
47.7024
40.5118
34.8517
31.3585
29.5331
28.0516
28.5067
28.814
28.1506
25.6252
21.5869
233.062
108.274
73.2638
59.586
55.543
60.3846
63.9984
55.9343
51.8077
46.9856
41.0733
36.4593
33.202
31.8697
30.4033
29.1725
28.7586
27.7805
25.4739
22.0706
215.184
152.7
101.478
69.8222
56.8611
54.5537
53.0165
48.1381
43.8474
39.661
38.7059
38.4334
37.3836
36.6895
34.4877
29.3485
27.8817
26.8298
25.8161
23.6055
173.881
163.615
103.549
82.5992
67.3866
58.7738
57.6003
45.8348
39.6189
36.3215
35.2852
34.8932
34.1999
34.5345
33.6617
26.1373
25.6871
25.379
25.0526
23.8659
221.961
195.007
127.764
98.3138
80.7095
67.2284
67.218
55.9935
45.3739
39.8258
32.7461
28.6491
26.5345
26.655
23.9986
23.7631
23.6246
23.5482
23.5979
23.37
227.095
151.947
108.566
82.3833
72.6119
58.3017
51.2972
43.9104
36.7236
31.9006
27.837
25.4551
23.8958
23.0994
22.7873
22.442
22.4806
22.6441
22.8931
22.7416
333.043
156.186
101.799
71.6728
60.0162
48.7132
43.6585
37.6056
33.3131
29.7945
27.0798
24.7875
23.2044
22.0514
21.4258
20.8813
20.7695
20.7553
20.782
20.5373
177.584
184.042
107.187
64.0268
51.1246
43.7061
38.7896
33.6393
30.3233
27.9107
25.8063
24.2399
22.8328
21.745
21.0163
20.4237
20.147
19.9101
19.7341
19.6309
300.477
232.974
140.867
104.591
68.2193
43.768
36.0811
30.9228
28.0111
25.81
24.2343
23.1239
22.2011
21.6015
21.0986
20.7638
20.5092
20.3667
20.2621
20.3204
104.911
130.752
96.0594
76.8157
60.2108
48.0763
41.1936
35.6013
30.7994
27.7733
25.4236
24.23
23.2814
22.8507
22.5508
22.4599
22.3916
22.4274
22.4545
22.5662
86.8144
129.511
98.8722
80.1129
72.0689
64.1256
55.4818
48.3516
40.044
34.9909
30.7351
29.2613
27.7742
27.1326
26.2956
25.77
25.234
24.9672
24.922
25.0596
15.7115
68.6482
77.8548
71.8902
60.6008
54.468
48.9487
45.2523
41.1925
37.5224
33.7247
30.8941
28.6291
27.2494
25.9374
24.3876
22.2139
20.0911
18.9773
19.0265
102.625
121.846
121.928
106.517
81.5436
63.8284
51.8841
44.1205
38.5884
34.7648
31.8068
29.4104
27.8207
26.8361
26.2126
25.6379
25.3245
24.9432
24.8069
24.437
65.6625
124.077
136.228
125.635
87.9612
66.8408
59.4513
56.9464
51.5256
44.1474
38.1409
33.9491
31.2348
29.3002
28.523
28.3467
28.3965
28.5789
28.9838
29.1792
154.566
142.041
127.955
94.5137
65.5083
53.6361
47.5895
45.7311
42.8897
40.4069
37.0255
33.8548
30.5194
27.2348
24.9606
23.5013
22.6892
22.1141
21.8404
21.8574
262.763
156.832
116.334
82.9852
62.6728
52.5227
45.6325
42.1855
38.7538
36.2027
32.6974
29.1015
25.5458
22.7193
21.0237
19.8601
19.1981
18.7646
18.5661
18.4549
395.395
181.889
127.234
86.545
67.7916
57.4406
47.7388
41.5392
36.1147
32.6553
29.3185
26.7044
24.5427
22.8275
21.6535
20.6457
19.8314
19.1075
18.5885
18.2105
213.735
161.245
111.834
86.1599
70.7549
60.5186
49.9659
42.6768
36.6978
32.8977
30.005
28.0035
26.7532
25.9906
25.665
25.3518
24.8169
23.5645
21.6848
19.5607
321.99
176.365
137.685
130.759
105.231
81.6152
58.1741
45.5122
37.9414
33.5124
30.6866
28.9158
27.8892
27.3034
27.119
27.0484
26.8008
26.0336
24.2741
21.4814
853.335
501.615
148.316
88.2455
75.5082
65.6498
59.0372
46.8938
40.1852
34.7088
31.2015
28.793
27.3456
26.457
26.4756
26.3572
25.8863
24.5323
22.8188
20.9073
197.166
169.06
79.7193
57.6951
57.0047
57.9209
56.646
48.687
41.9326
36.2717
31.9005
28.8865
27.0614
26.0452
26.0143
26.9365
25.897
23.8875
22.1297
20.6921
232.16
127.621
67.8974
50.0388
46.4335
48.739
50.9021
44.5974
41.1837
37.7943
34.3635
31.787
30.1479
28.9999
28.6423
28.1492
26.1959
24.18
22.6898
21.3681
244.519
172.976
102.139
58.5294
46.1443
42.1018
41.4456
38.374
36.0545
33.7515
73.3262
65.2421
48.4888
40.3556
34.563
28.8981
26.4531
24.8395
23.9422
22.4752
184.478
141.735
86.8256
64.5846
52.2407
45.7427
45.5881
37.4416
33.5773
31.308
30.7515
31.5974
32.5685
32.4041
29.39
26.7991
25.4204
24.2944
23.6897
22.4478
286.492
143.249
101.876
81.0029
66.861
56.6387
53.5902
44.2371
35.9357
32.1875
28.1333
26.6759
25.3306
24.9258
23.8632
23.1864
22.9157
22.5949
22.4464
21.912
227.717
161.551
107.546
71.1584
59.8965
47.0591
42.3987
34.6233
30.4889
26.2375
24.0968
22.4184
21.7506
21.2967
21.1437
21.0174
21.0451
21.1216
21.1937
21.0034
162.737
161.322
99.2084
62.3503
50.0734
39.0543
36.2694
31.0089
27.9639
24.9844
22.9936
21.3602
20.3601
19.7089
19.4315
19.281
19.3034
19.3763
19.4578
19.4422
313.019
140.16
79.8535
50.1378
43.3923
34.2686
32.6377
27.8632
25.9672
23.7501
22.2975
21.1009
20.1957
19.6087
19.2404
19.0631
19.0035
19.0433
19.1029
19.2549
237.628
131.057
94.0458
61.4769
46.3896
34.7577
31.0883
26.5512
24.645
22.7834
21.6842
20.893
20.3077
20.0167
19.7903
19.7498
19.7571
19.8424
19.9309
20.1566
147.576
108.86
78.0233
57.1876
50.0789
41.3578
36.1745
31.0027
27.3029
25.1805
23.553
22.9171
22.314
22.1964
22.0697
22.1398
22.1925
22.3455
22.4184
22.6037
243.244
116.641
83.236
67.9412
60.9019
55.6494
48.3759
43.1908
36.0428
32.8982
29.8332
29.16
27.9927
27.6156
26.8721
26.4626
26.0334
25.9245
25.9272
26.1013
38.3369
77.1441
86.6548
81.1721
67.5037
59.0788
53.2983
48.8847
44.5228
40.7253
37.2323
34.5625
32.4236
30.6639
28.9278
26.9675
24.9173
23.1979
22.2029
21.9474
91.1412
116.055
117.516
97.3771
75.306
60.3649
51.1255
44.4113
39.7739
36.4445
33.9253
31.8804
30.512
29.3009
28.6042
27.729
27.1453
26.2019
25.6813
24.2993
100.26
139.575
143.01
115.573
81.2124
62.295
55.4746
51.7155
48.2234
45.0173
42.169
40.4774
39.5452
39.1419
39.0828
38.8705
38.7927
38.6768
38.647
38.1767
127.467
147.017
128.913
84.9983
64.7339
51.8183
48.4467
45.9415
44.3927
42.5388
40.1878
37.7695
35.3391
33.4009
32.2673
31.0472
30.3958
29.6065
29.29
28.9909
226.429
144.097
115.712
75.7913
61.0175
49.5299
46.0966
42.7056
40.8406
38.4641
35.5697
32.5767
30.202
28.2849
27.2967
26.2994
25.9504
25.6163
25.5458
25.5302
402.585
182.655
105.729
70.6704
63.0161
51.4548
46.053
40.6042
37.5754
34.8264
32.6771
30.6835
29.2085
27.9074
26.969
25.9541
25.5273
25.2047
25.1459
25.2903
388.376
139.296
94.7325
70.9714
64.5089
52.2687
46.6886
40.8134
37.5163
34.8723
33.2928
31.9075
31.1153
30.2747
29.6826
28.6419
27.5814
26.4545
25.8384
25.7242
325.82
159.917
105.433
86.9672
79.9902
63.4859
50.2778
41.7305
37.4753
34.5875
33.1891
32.1286
31.6844
31.2525
30.8872
30.2949
29.4828
28.2699
27.2663
26.8726
303.34
190.367
97.6445
73.5823
70.3439
58.4336
51.7982
42.5189
38.0398
34.3908
32.5556
31.3474
30.7354
30.3744
31.9922
30.5184
29.0689
27.7409
27.0975
26.9977
196.972
155.943
86.6373
58.0449
56.4627
54.8906
52.1408
44.1682
39.1541
35.7295
33.4275
32.3259
31.6201
31.1965
32.2638
32.253
29.5499
27.8615
27.2922
27.2501
323.449
154.083
70.6402
52.2015
45.8394
46.7779
47.6001
42.4545
40.2135
38.3884
36.93
35.9616
35.4668
34.8167
35.1743
33.7945
30.6615
28.7632
28.1459
27.7758
421.692
260.16
99.2619
56.9338
46.2589
40.5867
39.6248
37.9758
37.5232
37.6844
62.0253
55.9857
45.5158
40.8915
38.1776
34.365
31.4163
29.7641
28.9783
28.2665
222.672
145.53
86.421
59.7136
50.2222
44.0149
43.5763
37.6831
35.9705
35.2445
35.4699
36.5992
36.9515
36.1085
35.6638
33.2755
30.8561
29.3745
28.6246
27.915
248.331
141.028
101.393
71.5755
63.6621
52.2136
49.442
41.3036
35.7659
33.9695
32.0104
32.0672
31.211
31.1278
30.7826
29.0816
28.3859
27.7609
27.5194
27.1291
210.185
182.306
121.915
69.5429
59.3257
43.9467
42.2021
33.5769
31.729
27.0151
26.9136
25.3148
25.8184
25.4696
25.6752
25.6241
25.7629
25.856
26.0043
26.0655
158.123
169.534
107.059
61.6354
51.2538
38.0098
37.718
31.56
29.741
26.1594
25.3077
23.8308
23.6596
23.3277
23.4671
23.6246
23.9742
24.3016
24.6431
25.0445
339.601
146.72
73.9924
51.8388
44.839
35.1017
34.813
28.9576
28.4463
25.5394
25.1148
23.7778
23.6695
23.3231
23.4799
23.636
23.9703
24.3746
24.7149
25.1681
218.349
129.313
79.0284
54.1392
45.3279
35.339
33.8114
28.2891
27.7029
25.3601
25.16
24.2885
24.3178
24.2013
24.3959
24.6193
25.0057
25.419
25.7731
26.2256
241.598
114.847
75.4481
56.1659
51.082
40.8345
38.4273
32.0794
30.7707
28.3248
28.1103
27.4826
27.5569
27.5363
27.7303
27.9634
28.2595
28.6065
28.8264
29.1654
555.139
115.014
76.9934
64.3981
60.9664
53.9473
49.2276
43.8374
39.1929
37.3125
35.6451
35.4535
34.8153
34.6506
34.1439
34.0583
33.9025
34.0118
34.1467
34.4445
69.3288
85.5721
83.1338
77.4313
65.7444
58.1618
52.931
48.4223
44.1292
40.369
37.1617
34.6141
32.5236
30.5226
28.5489
26.5837
25.1117
24.1758
23.8112
23.6751
34.5756
96.5207
104.698
84.107
66.9972
55.3677
48.2344
42.1443
38.2004
35.2582
33.2871
31.6686
30.5521
29.3656
28.1813
26.5543
24.9634
23.1839
22.0033
20.4161
234.138
180.495
160.141
101.335
92.9556
63.675
65.3952
55.4453
59.2108
56.1562
58.0363
56.0734
56.6179
55.6002
55.2773
53.8567
53.3372
52.0619
51.7277
49.8009
276.026
169.487
144.8
77.9813
79.4872
55.1501
59.819
50.5997
54.1332
49.8036
50.6782
47.4677
47.0959
45.3078
44.6736
42.9448
42.4086
41.1911
40.961
40.0828
387.291
158.749
122.3
70.4496
71.5736
50.817
55.1881
46.6066
49.4996
45.0294
45.2973
42.1533
41.6778
39.5942
38.948
37.4019
37.215
36.5903
36.6701
36.2021
297.023
183.453
113.36
71.48
75.8838
52.2036
54.8882
44.6032
46.01
41.5251
42.1218
39.7319
39.8416
38.3163
37.908
36.6016
36.496
35.9812
36.1518
36.1469
209.019
155.21
99.4772
72.0633
70.553
51.1476
52.6118
43.6686
44.3145
41.2246
41.8519
40.5431
40.6988
39.6676
39.0444
37.4873
37.0231
36.3558
36.5894
36.5731
345.097
190.949
119.317
77.3062
84.7281
58.5729
54.0493
45.0077
43.4278
40.6885
41.0201
40.1871
40.6965
40.1748
39.749
38.746
38.3504
37.5378
37.6257
37.8359
256.588
173.543
96.638
81.6636
80.0812
62.5206
52.3275
45.2027
42.3641
40.0209
40.0811
39.8136
40.3863
40.3729
41.2706
38.9124
37.8917
37.3078
37.5567
37.7818
211.494
167.918
105.133
71.4366
64.5251
58.363
54.6185
46.4187
44.148
42.7914
42.8604
43.0527
43.3358
43.3853
43.6523
40.1673
38.3189
37.5106
37.8399
37.9614
416.695
163.156
82.869
76.2305
52.1229
53.4323
50.608
47.5949
47.7255
48.0418
48.3324
48.392
47.9192
47.0937
45.7361
41.3026
39.1931
38.302
38.4967
38.1472
435.882
207.177
110.238
68.9359
56.4628
46.5826
44.5315
45.8377
47.893
49.4451
52.5796
52.0617
50.3128
48.5958
46.1874
41.2016
39.6077
38.7199
38.8618
38.3997
308.437
177.592
106.233
68.9711
58.9597
50.8686
48.3299
45.5242
46.737
47.8967
48.9874
49.2586
48.2757
47.3028
45.357
40.3527
39.0525
38.2127
38.4431
38.0474
433.882
179.337
118.39
70.8073
75.4548
56.6396
51.7948
43.762
42.7821
40.7902
41.9046
41.1598
41.7991
41.2849
39.2202
37.5167
37.452
37.2152
37.5191
37.2613
217.355
188.015
145.865
74.5681
72.2276
48.9583
51.323
38.9952
39.2038
32.3987
34.7507
31.7031
34.2462
33.1391
34.5625
34.2501
35.2153
35.273
35.915
35.9593
256.847
188.362
125.432
71.0496
66.0684
45.5888
49.8424
36.2263
37.5638
31.4859
32.8685
30.48
31.8364
31.1862
32.2041
32.3165
33.2514
33.6067
34.3275
34.7659
296.421
170.758
89.6403
78.3065
58.1737
48.8669
47.027
35.5202
38.2159
31.2889
33.7239
30.3186
32.2793
30.9352
32.4438
32.1365
33.2228
33.4662
34.2081
34.6569
359.005
151.084
89.9483
71.5801
59.9168
45.825
46.9447
34.9413
38.2493
31.6188
34.2724
31.1983
33.0057
31.8626
33.1617
33.0256
34.0506
34.4294
35.171
35.7281
280.55
136.35
84.5698
70.1072
62.5654
47.6109
49.8734
37.8465
42.0217
34.8745
38.2879
34.7397
36.9212
35.3822
36.8222
36.4109
37.4451
37.6392
38.2988
38.8525
398.503
148.333
94.7378
72.9067
79.5312
55.6675
63.4197
47.9995
53.0785
45.2491
48.4846
44.6079
46.3909
44.5166
45.5336
44.8256
45.5232
45.5421
46.058
46.7004
140.738
141.683
92.3239
68.1868
59.5908
54.2083
49.281
44.4613
40.284
36.4347
33.3126
30.389
28.0953
26.2269
25.0306
24.2326
23.8965
23.7557
23.7377
23.6456
35.1598
36.4217
87.2085
37.4146
35.9463
37.7645
105.239
32.3467
89.3917
69.8478
35.55
34.5316
104.706
73.3726
72.651
31.3482
31.8613
36.0981
88.8031
33.6918
35.0305
67.8521
32.3515
34.0467
88.7574
74.3737
35.789
37.6838
297.825
308.06
256.209
94.4785
79.1132
78.6815
67.814
270.092
253.647
245.254
74.8693
68.3691
65.0806
59.9025
229.028
238.335
211.196
65.4818
58.2903
58.4837
53.8446
183.781
202.673
186.163
55.3102
49.0683
52.0551
46.8355
163.44
183.002
171.013
46.8155
41.7309
45.3363
41.0465
162.598
171.107
179.946
40.0361
36.7448
39.422
36.0364
163.3
183.077
186.944
35.83
34.0939
35.4197
34.2738
145.369
186.932
173.418
33.5658
31.278
34.0422
32.4542
251.733
223.734
194.208
73.678
64.5941
63.595
57.5311
242.694
190.743
178.038
62.3777
58.6277
55.9275
52.9693
210.123
174.334
168.677
57.6583
53.8497
52.1311
48.6213
189.615
169.256
180.253
52.1428
46.9842
47.3739
43.7052
178.989
183.194
185.716
45.5659
42.103
43.049
41.7825
185.82
186.039
189.177
40.7393
37.4566
41.4255
40.4083
191.914
190.24
190.222
36.8958
35.8064
40.2021
39.7968
176.11
189.19
168.017
35.5782
33.3918
39.6284
37.9002
167.899
200.318
158.493
61.3102
54.9965
61.6451
52.6914
154.882
154.895
155.595
53.5245
49.5524
50.0525
44.4982
161.462
157.425
159.958
48.2616
44.633
43.2237
40.2847
177.063
159.755
153.144
43.7414
42.1851
39.7082
39.4601
183.446
148.29
134.078
42.0201
41.4819
39.674
39.8624
185.921
131.717
133.469
41.2168
40.3222
39.7571
38.6162
184.438
136.423
151.932
40.1339
39.7334
37.996
37.1212
166.809
154.305
139.848
39.603
37.8576
37.1363
37.4232
162.616
321.462
206.8
65.6049
53.8507
83.2208
62.1334
167.176
209.493
218.821
50.7441
44.9223
57.0776
51.5587
168.636
214.766
196.227
43.7722
41.0839
50.1019
45.5061
162.667
190.179
174.848
40.4938
39.7743
44.2519
40.7354
134.97
165.75
149.223
39.6595
39.2854
39.1796
34.6101
122.687
149.082
152.015
38.9633
37.5412
33.536
31.0312
134.462
150.94
129.461
37.1127
36.8334
30.6436
31.1975
126.78
123.256
105.145
36.9427
38.4206
32.0363
31.2422
68.0613
66.7271
60.1399
59.5929
53.227
54.1287
48.9357
58.971
58.0267
53.641
51.1281
46.0077
47.4938
44.0733
50.1152
52.3764
48.3218
44.0658
39.3611
42.9983
39.8453
42.3467
46.7617
42.1205
37.7707
34.0569
38.754
35.4576
36.2032
40.7212
36.697
32.8477
30.0997
34.4225
31.7034
32.0968
35.3602
32.4694
29.2862
27.6036
30.9586
29.2798
29.9195
31.8946
30.7596
27.1336
26.1948
28.8789
27.9169
28.506
30.5145
29.8067
25.9663
25.4568
27.6544
26.9666
57.7103
56.2272
51.6167
53.0672
47.5255
46.1672
42.452
52.6887
50.3687
47.8434
46.2673
43.5655
41.6324
39.7011
48.4456
47.0398
43.8752
42.7371
40.0562
39.0619
36.9025
42.4102
42.7474
40.0549
39.0385
35.9547
36.685
50.7055
37.6272
39.6363
38.7644
35.0067
32.5816
52.0969
50.0637
33.7355
38.4847
37.4563
31.9037
30.3478
47.6251
41.2803
32.1084
37.1463
36.5396
29.9759
29.048
39.6516
36.8306
30.724
36.3152
35.398
28.7851
27.714
36.0465
33.7666
49.2614
53.2737
47.3186
43.0837
40.4486
43.6227
39.2488
44.9759
45.1441
40.4323
39.7299
37.7355
37.8277
34.7792
40.5895
39.2615
36.4859
37.0276
35.0559
33.9672
32.0022
38.6789
35.8963
35.4019
34.4724
47.4523
31.5571
31.5275
38.6133
35.4619
35.7263
48.9893
50.3785
31.8437
33.0993
37.6235
35.7206
35.2442
49.739
45.2136
33.4657
34.3531
36.8633
34.9676
34.6117
43.4987
39.8477
34.5189
34.3424
35.5339
34.6369
35.6859
38.6798
34.9097
34.0498
32.5234
48.4535
67.9769
55.5718
47.1849
40.2823
55.2682
46.0546
40.7523
51.5981
46.0561
38.5243
35.0437
43.4786
38.4807
36.9212
44.3562
40.2534
34.1621
32.0546
36.9089
33.5324
35.4533
39.2071
36.0116
31.5854
30.8347
32.9191
30.5837
35.0402
34.7519
31.3185
30.776
31.094
29.7379
28.0654
34.2989
30.5895
28.701
31.2988
31.9906
27.8964
27.0293
34.3493
28.4726
29.1902
32.2106
32.5214
26.8441
26.8704
36.3244
29.8088
29.2659
32.4959
31.8276
26.9175
25.7261
50.7504
52.0324
47.049
52.9536
46.5847
49.1274
44.2596
43.7179
45.6948
42.4291
44.6778
40.4771
43.1509
40.5085
37.6735
41.4007
38.4914
39.1415
36.0961
39.731
37.6846
32.9609
37.5113
34.5999
35.1494
32.9187
37.0351
35.2197
29.5838
33.6997
31.4156
32.3025
31.0615
34.7095
33.5394
27.4755
30.8115
29.4208
30.7317
29.9412
33.2595
32.6086
26.2484
29.0723
28.1753
29.7402
29.2609
32.427
31.8133
25.5274
27.9149
27.1984
29.135
28.6699
31.5931
30.9877
45.7747
44.2288
40.8866
47.9596
43.2845
41.6031
39.1351
41.9898
40.1432
38.3885
42.3676
40.303
38.6764
37.7246
38.6996
37.8212
36.1237
39.6944
37.9946
37.4515
36.8627
36.7333
36.8995
37.6375
37.1146
37.0301
36.3469
36.9867
35.8436
33.6358
35.7595
34.2639
35.2491
33.6715
36.2216
30.4758
59.6444
44.922
34.2326
33.543
61.7792
46.0167
29.2696
42.2704
38.0704
33.3754
32.769
43.6445
39.6341
27.9139
37.0029
34.1774
32.5312
31.6346
38.6173
36.1134
39.0214
42.0365
38.013
39.5113
37.7176
40.4401
37.1766
36.6483
36.7569
34.1152
37.3553
36.573
36.3902
34.9548
34.5488
33.4126
31.7151
36.3398
35.9273
34.6136
33.7903
55.8973
54.4594
33.4851
40.3631
40.392
240.977
34.3267
81.0181
73.2303
54.6431
196.979
55.8288
183.495
80.9457
51.8501
34.5266
35.4967
68.0172
50.7561
38.0483
38.2714
42.0917
35.5594
34.9203
47.5994
41.9518
38.0922
36.7253
35.634
34.4247
32.4135
40.579
37.2245
36.1804
34.7777
39.0009
52.9603
44.5022
43.5046
37.9905
50.2888
42.2114
34.3663
42.1576
37.3684
36.9621
35.0862
40.4305
36.5027
31.7166
35.8275
32.7987
34.6343
33.6567
35.3785
33.5415
30.74
32.2678
30.1843
33.466
33.3919
33.3006
31.9181
31.3123
29.4518
28.1798
33.5672
34.4926
31.5273
31.2851
32.3972
28.1046
27.3635
34.7914
35.2296
31.363
30.7238
32.5995
27.1598
26.9597
35.214
34.5804
30.5095
30.0609
31.3943
26.9323
25.6894
34.2243
33.4907
29.9831
29.2132
45.9938
48.819
44.1256
53.0513
46.4994
50.5016
46.3126
40.3093
43.1207
40.8059
45.0617
42.5944
45.6774
44.6781
36.5283
40.1542
38.4726
42.0495
40.6409
44.5122
44.0735
33.8866
37.9393
36.4839
40.2622
39.7334
43.9117
43.604
32.5647
36.0959
35.2528
39.7937
39.8939
43.5797
43.6176
31.7553
35.0669
34.6896
39.8893
39.9526
43.671
43.8573
31.2999
34.5772
34.1035
40.0612
40.1582
43.8274
43.5132
30.6297
33.9118
33.1894
40.129
39.8907
43.3617
42.8845
43.2589
41.48
39.4583
48.9621
45.8534
43.6142
43.4187
40.7055
39.1341
38.5843
45.4615
45.0042
43.6122
44.5582
38.8565
38.4387
38.067
44.9859
44.7827
44.7872
45.3296
37.2279
38.513
64.1821
44.6901
44.5043
45.4612
48.8337
36.1822
65.2953
57.4619
44.4958
44.4408
49.6425
49.5583
35.5513
53.1588
44.647
44.4371
44.6571
48.9135
47.5512
35.0253
43.1525
40.3853
44.6408
44.2525
47.2816
46.3168
33.8362
39.6239
37.4687
44.0606
43.3591
45.9285
44.7471
38.1988
40.6916
37.7939
42.4702
42.6991
43.9946
42.6504
37.6238
37.1859
36.223
42.9991
44.1842
42.6161
43.3071
37.3202
36.0317
35.5408
44.463
45.1269
43.6698
44.1951
60.473
35.4927
36.6041
45.3637
49.0823
44.3366
45.1633
58.7351
37.2946
38.8981
49.946
49.9409
45.5685
46.2472
47.4076
39.1637
39.3247
49.3625
48.0203
46.3084
46.266
41.8401
39.1983
38.1431
47.7097
46.6139
46.1639
45.5123
38.308
37.7378
36.5716
46.2025
44.9426
45.2463
44.4679
38.5261
49.7102
42.196
46.3683
43.0304
51.17
44.2806
36.2731
40.5165
37.0095
42.755
42.9882
42.946
41.1885
35.3626
36.0776
34.7715
43.2783
43.8403
41.1495
41.3146
35.2676
34.611
33.4614
43.9402
44.4372
41.217
40.9899
36.3487
33.2015
33.3188
44.7077
45.3304
41.296
42.01
36.9676
33.4151
32.7739
45.4229
45.351
41.9146
41.3579
36.3869
32.5801
32.2585
45.2492
44.7231
41.3942
41.4569
35.4186
32.2088
31.4275
44.5106
43.9602
41.357
40.9502
47.7099
52.278
48.1831
65.7954
56.7785
63.0741
60.2429
44.5692
47.6615
47.1272
55.9754
56.2027
59.5555
59.7853
43.0499
47.1213
47.0969
55.9925
54.7813
60.0171
62.7285
42.6851
47.0781
47.1807
54.8148
55.876
63.5642
65.2576
43.0431
47.2562
47.4222
56.0599
55.7995
65.4057
64.5356
43.1936
47.4166
47.2172
55.7876
56.2557
63.6477
60.7678
43.417
47.1049
46.6717
56.3359
56.1913
60.2845
59.2536
42.941
46.5072
45.7568
56.1234
55.3206
59.0145
58.213
47.8689
45.4061
45.9121
61.442
60.4289
56.6505
60.1679
47.5898
46.2689
47.6846
60.017
60.6513
60.3452
62.7778
47.9756
48.0446
49.1453
61.3574
65.4844
64.6357
70.8294
48.2562
49.3886
51.5756
66.6007
68.7396
72.1555
76.1542
48.4069
52.1784
52.2168
69.0072
68.0151
76.8837
75.9095
48.0804
51.7503
50.4935
66.8175
62.3199
73.8743
65.8126
47.3117
50.0489
48.8389
61.3652
59.7832
63.8102
60.6521
46.1489
48.4417
47.0482
59.4435
57.9089
60.0837
58.4218
45.3976
46.239
45.4202
58.0574
60.5133
59.2943
61.0839
47.4857
45.5325
46.7282
60.601
63.0929
60.8882
62.5409
49.1137
47.2408
48.2246
65.0156
71.5479
63.5389
68.5697
51.9544
48.4954
49.5088
73.058
76.9885
69.9474
72.4008
52.5355
49.8641
50.282
77.5282
76.1601
72.5472
70.8762
50.7747
50.2255
49.3802
74.0115
65.927
69.2001
63.8502
49.0145
49.1097
48.1996
63.919
60.6565
62.5473
60.1904
47.1394
47.8932
46.8008
60.0368
57.8762
59.6798
58.2679
45.6426
52.7291
45.9197
63.2535
61.0506
63.6358
57.7504
46.2769
44.6294
43.6025
60.5592
61.9941
55.6987
59.4075
47.6975
43.869
44.2476
62.5162
65.873
58.8102
57.537
48.6974
44.0452
44.0997
66.8399
68.8264
56.4169
58.7168
49.376
44.5165
45.0128
68.972
67.4129
58.7952
57.6606
48.4982
44.7594
44.2666
66.0771
62.3189
56.5839
57.0768
47.558
44.3299
44.3612
61.5334
59.6798
56.9401
56.17
46.4013
44.1809
43.6012
59.2244
57.676
55.6606
55.5987
36.6936
36.0104
36.2488
34.9124
36.6439
35.607
36.5428
41.3038
37.0476
54.7003
40.9102
38.2538
36.8469
188.179
46.6617
42.1774
75.5929
228.273
40.9156
48.1158
243.548
36.8534
36.9908
36.8651
37.4249
36.3378
36.9189
37.3151
37.0143
35.1781
36.3847
37.6217
35.7361
37.0154
37.5054
42.1418
42.1541
37.4637
65.0196
37.0208
195.815
39.65
48.2119
235.263
46.3126
95.879
49.9627
250.918
44.2393
35.4462
32.963
34.1683
32.6237
34.738
33.1296
34.8739
47.675
42.3102
89.4285
217.828
42.1264
48.0175
207.147
46.7514
40.0702
84.0766
99.6291
41.6079
43.4956
143.523
36.6171
34.6646
35.1872
37.5753
34.1955
36.8757
37.4301
36.3111
33.3562
34.8572
36.7462
33.7682
35.7599
37.186
49.7512
224.245
46.8624
102.189
50.0403
213.938
46.8003
48.7889
102.707
43.9716
91.1383
45.0519
149.781
46.1168
73.4518
68.0354
52.5173
211.924
48.329
226.447
79.4053
34.5321
32.0191
31.3288
31.6361
32.9433
32.402
31.7509
37.9203
36.6039
31.4965
32.735
34.939
40.2826
32.163
58.243
41.8938
62.3142
35.8135
239.218
35.1911
45.2667
76.7579
220.057
82.8022
61.9151
236.181
82.349
56.4975
35.6703
32.4151
34.3822
33.8602
33.2007
32.6039
36.0315
39.3895
33.8216
41.2361
34.3492
41.9384
33.1425
38.9444
78.5327
74.3719
57.1216
116.073
57.0278
164.958
76.85
43.4492
37.9866
32.9427
33.3974
39.2064
42.0206
34.1295
44.3133
41.0909
33.4891
35.3911
40.1845
45.3111
34.7538
83.1671
204.583
87.4211
64.2217
190.856
83.5007
65.0596
80.3395
114.553
85.4296
63.4577
163.143
77.4343
64.8033
45.2411
34.5748
43.0074
36.5499
43.7883
35.3644
44.3687
45.9946
36.6218
45.6586
37.1565
46.7318
36.0053
45.1417
201.479
222.925
195.701
119.64
99.7739
120.26
98.7119
173.288
179.782
168.662
87.2575
83.1227
87.3112
80.1276
143.584
155.288
143.113
75.3161
69.6993
72.9822
67.3946
125.642
130.721
120.406
63.7893
61.622
62.0763
57.054
112.367
112.616
107.175
57.5903
54.6297
52.7253
49.1812
105.077
103.575
101.255
51.342
49.8492
45.7504
43.1435
97.7618
98.9601
97.0953
47.7352
45.8853
41.4032
39.931
87.0219
96.036
89.8941
44.6463
39.0982
39.1831
32.7416
225.209
204.096
196.784
110.458
109.812
102
90.9119
165.179
348.915
367.375
204.036
179.484
198.57
315.333
113.397
283.727
264.109
136.092
133.019
117.765
260.111
102.262
251.558
246.674
123.882
121.023
104.952
236.298
86.7011
205.295
203.292
105.22
102.309
89.8601
192.567
74.2101
169.264
169.521
89.9218
87.2578
76.7223
163.819
65.1291
162.2
160.248
78.7503
77.0452
66.879
161.051
61.5878
163.192
165.337
72.0245
70.8656
62.1571
166.125
59.7508
162.626
168.188
66.5363
65.7298
59.9747
168.833
97.6115
116.399
101.117
37.7226
33.0258
37.6026
32.0338
175.346
158.542
152.943
84.2508
81.8689
76.8901
76.9198
118.805
265.515
271.338
149.771
124.777
143.263
251.147
95.0581
250.191
244.699
100.071
97.6897
96.6273
243.897
89.833
227.266
229.169
92.3378
90.5994
91.2429
221.107
79.2127
196.134
198.342
82.6824
79.6258
82.2731
193.456
72.4595
186.174
188.306
73.7625
72.8989
73.4731
187.517
69.2318
179.224
184.115
70.2663
67.6115
70.8099
184.595
67.9226
190.823
191.988
65.5506
65.4176
68.0209
193.4
66.7223
190.65
192.877
64.9504
64.7198
67.2566
191.642
101.176
115.227
93.8976
39.249
33.4883
41.3382
33.8754
139.881
155.545
134.422
80.803
72.0026
81.3366
72.1705
99.3281
186.23
206.104
119.391
99.6253
119.988
180.029
74.1832
158.234
151.341
81.0939
78.1114
77.623
148.765
67.0987
155.398
150.507
72.4172
71.0873
68.0987
153.333
67.4707
169.648
162.394
70.2942
70.3013
66.968
165.369
70.1653
181.681
171.698
70.8697
70.7261
70.0197
173.93
68.9634
184.603
177.354
69.6787
68.8993
69.6085
178.065
66.5242
185.713
179.273
68.467
68.4047
66.7226
179.117
65.4334
181.57
176.421
67.8598
67.4643
65.7726
174.509
87.6328
94.6344
71.5504
42.339
37.5681
43.1906
37.3986
140.529
173.339
180.1
84.3534
78.1323
93.9075
91.3737
111.144
183.402
224.713
123.735
103.312
129.789
194.349
75.6718
160.51
167.02
77.0612
73.7461
79.0467
168.934
73.1108
169.86
184.813
70.5823
70.5796
72.7747
184.942
71.4856
166.071
179.871
69.5666
69.4728
72.1162
177.427
67.0484
150.899
164.9
69.3311
69.2606
68.7139
157.252
59.6928
123.549
135.242
65.6441
64.2013
61.6519
132.906
53.0452
126.67
132.08
58.4814
57.0717
53.3113
131.306
56.0815
137.937
127.011
56.8551
57.2807
55.7428
124.14
67.1656
82.2608
78.9326
42.0448
36.0004
36.1037
28.4549
167.17
189.026
166.043
107.477
88.2133
107.897
86.945
151.227
157.954
149.67
74.1841
67.5402
77.0687
70.7193
133.009
140.119
128.729
61.1332
58.5805
64.1507
57.8432
111.57
117.75
108.954
54.4227
48.9644
52.8262
48.5544
97.8488
100.282
92.4351
43.9914
40.3981
43.4158
37.6569
92.6041
89.645