/*--------------------------------*- C++ -*----------------------------------*\
  =========                 |
  \\      /  F ield         | OpenFOAM: The Open Source CFD Toolbox
   \\    /   O peration     | Website:  https://openfoam.org
    \\  /    A nd           | Version:  10
     \\/     M anipulation  |
\*---------------------------------------------------------------------------*/
FoamFile
{
    format      ascii;
    class       volScalarField;
    location    "6.9";
    object      p;
}
// * * * * * * * * * * * * * * * * * * * * * * * * * * * * * * * * * * * * * //

dimensions      [0 2 -2 0 0 0 0];

internalField   nonuniform List<scalar> 
12920
(
-1.07033e+06
-797771
-751055
-552499
-470663
-365095
-302486
-235263
-190975
-146908
-116058
-93541.8
-77279.8
-64153.8
-55497.1
-48653
-44272.2
-41399.9
-40148
-31120.1
-1.68866e+06
-918235
-760977
-548758
-459197
-351117
-290334
-225649
-182410
-139555
-111258
-88715.9
-73413.6
-61029.1
-53009.8
-46785.8
-42902.6
-40352.6
-39432.9
-30255.1
-1.06853e+06
-777221
-679895
-497584
-420847
-313049
-260686
-199022
-162959
-124679
-99790.9
-79087.7
-66011.9
-55225.3
-48239.1
-43108.1
-39957.6
-38142.7
-37876.5
-29031.2
-914639
-631863
-586768
-417933
-365655
-265425
-226176
-170559
-139568
-106763
-85457.5
-66905.4
-55579.8
-46588
-41286.2
-37507.5
-35565.7
-34761.2
-35862.6
-28047
-869216
-573402
-526996
-356417
-288881
-200723
-169623
-125516
-104215
-78545.9
-62821.3
-49334.9
-41249.8
-34755.3
-31510.5
-29678.3
-29529.6
-30582.3
-33358.2
-27231.5
-567950
-341028
-338867
-213198
-202339
-133749
-117741
-85293.3
-69755.4
-50951.6
-40969
-30942.7
-25470
-21502.8
-20345
-20616.4
-22644.4
-25764
-30207.7
-26701
-119501
-151198
-194845
-102585
-109735
-59231
-51085.6
-31805.2
-27632.8
-17516.7
-15022.7
-9428.93
-8169.63
-6664.68
-7316.24
-10092.8
-14439.8
-19955.8
-26809.1
-25891.1
-30099.1
21440.4
770.463
37509.8
-2323.36
19562.6
-7255.34
970.585
4704.49
8207.28
8947.04
10153.4
9233.47
8067.16
6577.33
1263.38
-5679.44
-13898.5
-23198
-24649.7
103949
109058
129996
144115
89029.3
88271.2
56865.6
50649.9
45096
41598.8
37750.9
34250.3
30074.1
25552.8
21226.2
15103.7
4104.96
-7506.15
-19422.5
-23451.2
254960
235776
255845
230427
172043
167160
124602
104204
90156.4
79227.7
70054.7
61584.9
53727.5
45972.2
39847.4
27292.5
13083.4
-1116.46
-15632.3
-22346.2
441203
370376
321438
298600
235027
226979
191360
160291
135342
114710
100244
87824.7
76405.2
65391
55121.9
38563.4
21890
5164.36
-11883.7
-21207.9
609404
478605
400383
358247
286177
269673
235349
205657
180839
157371
135304
114043
97110
82857.7
67922.8
48789.5
30146.5
11228.9
-8234.22
-20007.4
938949
695616
481411
437841
338990
311618
265613
239738
211224
187064
162295
139411
118444
98900.9
78236
58203.1
37549.9
16858.6
-4781.93
-18757.6
808500
650855
499480
466186
369481
343647
294564
272684
235176
213140
181812
160931
133812
111032
87492.5
66248.2
43889.1
21825.6
-1712.33
-17576.1
552451
583624
492544
470942
394251
367415
317703
291761
253137
227232
196251
170971
144033
120199
95762.7
72946.4
49400.1
25892.8
905.421
-16487.4
744336
602786
513510
480378
412347
385351
331979
309840
264419
241464
205906
182047
152569
129073
102336
78593.7
53653.1
29127.6
2814.1
-15789.6
276504
558758
483419
477169
415813
392328
343492
319918
279222
252200
217191
191274
160817
135235
107650
82611
56738.5
31178.1
4021.51
-15664.9
790036
634447
533504
492684
427613
407219
351718
330475
284763
259386
222900
197262
165074
138964
110407
84860
58174.6
32084.7
4322.1
-16041.4
221538
483260
462144
476595
424961
410805
355257
333433
288921
263320
226317
199345
167532
140959
112285
86168.5
58920.2
32197.8
4047.76
-16894.3
457879
490256
473091
476759
425891
412730
357766
335462
290982
265134
228114
200888
168910
141929
113077
86687
59137.1
32119.8
3825.34
-17880.2
-1.14798e+06
-817721
-747901
-548230
-470217
-364191
-302668
-235094
-190678
-146917
-116279
-93305.1
-77183.8
-64089.1
-55438.9
-48648.5
-44293.7
-41430.3
-40154.6
-31088.1
-1.55108e+06
-901642
-756301
-547331
-459669
-351088
-290886
-225340
-182266
-138974
-111168
-88589.1
-73253.3
-61058.9
-53012.3
-46807.7
-42947.6
-40400.9
-39469
-30052.1
-1.05905e+06
-768707
-675284
-497265
-421855
-313121
-261453
-199229
-162874
-124087
-99530.9
-78936.6
-65870.2
-54984.1
-48192.2
-43081.5
-39967.6
-38183.2
-37887.8
-28632.1
-895981
-631793
-588328
-414554
-365149
-264276
-226162
-170308
-139898
-106334
-84988.6
-66682.3
-55443.3
-46478.2
-41252
-37500.9
-35560.4
-34740.5
-35811.4
-27556.1
-823479
-579166
-530189
-352911
-287974
-199935
-169668
-125485
-103968
-78034.9
-62771.4
-49120.5
-41111.3
-34685.6
-31508.8
-29681.2
-29502.9
-30455.5
-33207.3
-26647.3
-636053
-340918
-345540
-211619
-201446
-131542
-117158
-84932.1
-69716.8
-51249.7
-40864.1
-30751.3
-25309.7
-21447.8
-20333.6
-20626.5
-22624.5
-25689.8
-30128.3
-26100.6
-173926
-155516
-193500
-100801
-110661
-57497.1
-51836
-30947.8
-27354.8
-17727.1
-14901.5
-9521.03
-8273.11
-6773.42
-7282.42
-10067.2
-14443.6
-19900.6
-26727
-25272.2
-10576
24084.7
-779.068
35685.9
-2819.69
19284.2
-7484
1065.98
4303.21
7925.71
8786.58
10071.9
9156.23
8082.35
6830.71
1584.87
-5672.61
-13852.7
-23092.3
-24070.5
130640
123373
123915
142159
90236.4
88863
55827.7
49991.9
44729.9
41559.4
37736.3
34266.7
29887.1
25173.3
21486.9
15113.3
4066.85
-7439.5
-19313.4
-22917.6
211010
237768
249603
230954
173510
168288
124737
104250
90079.6
79314.3
70172.3
61743.8
53771.6
46013.4
39764
27273.4
13104.3
-1035.69
-15540.5
-21841.3
443794
381808
324315
297002
236181
227123
191788
161426
136492
115717
100514
87924.7
76565.3
65716.8
55746.8
38563.2
21918.9
5253.66
-11800.5
-20728.9
529143
473523
397162
355305
286973
268661
234491
205285
180381
157003
135058
113378
97432.1
83119.5
68061.8
48899.8
30195.4
11330
-8140.4
-19501.2
1.08325e+06
706071
490262
438582
338639
311527
265641
240708
211720
187936
162912
139920
118476
98956.5
78380.9
58271.4
37606.4
16958.6
-4665.83
-18285.5
826999
641174
492196
464226
367885
343403
294363
272204
235429
213087
182212
161040
133823
111038
87573.4
66297.2
43956.5
21927.8
-1599.13
-17077.4
479073
589032
489984
471417
393329
367566
317951
291750
253186
227133
196035
171110
144066
120335
95806.9
73000
49472.5
25998.6
1028.76
-15978.9
735294
605442
512011
481269
413126
384942
332647
309804
264619
241548
205979
182310
152586
129240
102401
78698.4
53756.4
29244.9
2962.41
-15254.6
566391
570383
490254
478837
416403
392362
344530
320394
279501
252301
217667
191215
161039
135447
107892
82873
56938.1
31349.3
4220.99
-15103.4
834327
634463
531630
492551
428565
407422
351431
330105
284689
259588
222828
197005
165223
139096
110459
84907
58225.5
32165.8
4453.83
-15618.3
247376
507042
460029
477668
425395
410437
355143
333340
288995
263033
225997
199283
167536
141001
112314
86175.8
58919.1
32211.4
4096.52
-16656.9
525187
495677
472390
475231
425652
412497
357820
335544
291000
265156
228130
200880
168878
141905
113057
86667.8
59106.9
32128.5
3868.92
-17783.7
-1.16921e+06
-837426
-740677
-540784
-469469
-362089
-301887
-233635
-189377
-145706
-116145
-93001.5
-77105.7
-63989.6
-55367.3
-48653
-44331.5
-41450.7
-40191.1
-30934
-1.34998e+06
-860346
-744843
-543967
-459364
-350187
-291010
-224473
-181577
-137988
-110731
-88216.7
-73034
-60905.8
-52998.4
-46784.8
-42953.7
-40451.3
-39499.1
-29515.7
-993972
-732909
-672381
-494654
-422627
-312887
-262273
-199185
-162167
-123172
-98999.8
-78545.5
-65581.2
-54813.9
-48117.2
-43045.8
-39982.3
-38151.3
-37908
-27803.8
-976553
-643305
-593211
-414093
-363549
-262815
-225828
-169896
-140364
-105658
-84393.5
-66286.2
-55171.4
-46297.3
-41201.5
-37499.2
-35558.4
-34748.4
-35701.5
-26553.4
-937260
-607200
-546737
-347337
-286775
-198955
-169515
-124996
-103304
-77485.2
-62371.3
-48703.6
-40831.8
-34577.7
-31493.1
-29688.7
-29457.6
-30255.7
-32987.9
-25542.5
-620483
-364899
-357368
-210057
-200002
-129139
-115723
-83485.9
-69115.6
-51191.9
-40659.9
-30330.3
-24988.1
-21318.5
-20318.5
-20636.7
-22571.2
-25502.3
-29985.5
-24964.5
-122230
-156603
-192939
-94610.1
-109668
-55844.6
-52069.4
-30820.8
-27513.4
-17852.1
-14559.7
-9504.5
-8119.28
-6743.46
-7187.63
-10016.3
-14384
-19782
-26546.9
-24159.5
-244151
42954.5
5050.36
35724.1
-720.171
19616.7
-7625.64
1195.99
3478.69
7544.66
8490.42
9847.81
8993.37
8095.63
7196.03
1823.53
-5573.77
-13690.2
-22906.2
-22997.4
86210.4
150102
115692
141535
92485.3
90020.7
54741.5
48416
43739.2
40959.1
37372.2
33697
29153.3
24451.2
22091.1
15174.5
4140.1
-7262.91
-19117
-21885.2
341003
258956
248244
231130
173852
170380
125674
105451
90353.1
79585.9
70520.8
61971
53805.2
45895.6
39654.7
27146.4
13201.5
-851.543
-15343.2
-20857.3
537659
370617
324204
295170
236560
226133
192273
161579
137906
117594
101477
87757
76888.2
66188
56034.8
38520.8
21989.8
5484.45
-11536.6
-19796.8
519813
476376
398405
353874
288207
267266
233733
204517
179588
156418
134425
113977
97910.2
83395.8
68232.8
49024.9
30323.6
11543.7
-7804.74
-18547.4
942496
668749
484305
437557
338185
311684
265906
241626
212019
189150
163509
140291
118490
99048.6
78540.7
58400.9
37724.7
17197.8
-4360.85
-17333.7
567090
619872
487027
460113
367379
342721
294614
271682
235713
212745
182245
160943
133714
111343
87745.9
66356.3
44076.5
22121.9
-1347.83
-16096.6
534923
584336
487306
471284
392099
367301
318415
291335
253324
227006
195829
171069
144038
120556
95837.5
73052.5
49605.2
26193.6
1291.26
-14971.3
582681
598183
501592
482312
411892
384259
333280
309637
265024
241578
206427
182431
152835
129423
102392
78784.4
53916.3
29464.3
3289.21
-14215.9
429994
559691
482929
479043
415976
392595
345247
320701
279621
252345
217930
191164
161333
135550
108276
83267.2
57224.6
31664.1
4610.69
-14057.6
825672
631554
530063
492369
429092
406247
350994
329761
284588
259641
222743
196847
165129
139119
110605
85062
58341.6
32298.8
4643.48
-14752.6
272695
525580
457939
479452
425898
410251
355157
333345
288921
262982
225943
199129
167407
140851
112187
86086.1
58920.5
32295.3
4228.54
-16135.5
502436
502258
471858
474793
425631
412353
357846
335537
291000
265151
227960
200882
168827
141877
113027
86669.7
59121.3
32169.7
3954.85
-17510.8
-1.06813e+06
-869424
-730202
-533560
-468161
-359909
-301919
-232595
-188742
-144607
-115767
-92604.4
-76845.8
-63854
-55319
-48637.5
-44394.4
-41521.8
-40312
-30589.5
-1.31222e+06
-822302
-747933
-542726
-460286
-349643
-291648
-224054
-180973
-136343
-109882
-87664.1
-72805.5
-60695.5
-52887.2
-46761.2
-42981.5
-40436.5
-39606.7
-28539.8
-691610
-693660
-672135
-492121
-422473
-312663
-262522
-198790
-161417
-122048
-98148.2
-77995
-65181.4
-54556
-47994.7
-43000.7
-40025
-38176.6
-38001.2
-26381.9
-844611
-632632
-599014
-415596
-361367
-261046
-224803
-169136
-139641
-104990
-83669
-65773.7
-54830.8
-46100.6
-41169.8
-37547
-35577.1
-34673.6
-35609.5
-24759.1
-936386
-608232
-548661
-350175
-283183
-198075
-168663
-124282
-102387
-76877.4
-61682.7
-48180
-40462.3
-34501.8
-31483
-29711
-29421.3
-30094.1
-32786.3
-23763.6
-907890
-382450
-369443
-216457
-198474
-127412
-113055
-83094.6
-68577.5
-51043.4
-40261.8
-29718.2
-24486.7
-21160.7
-20304.7
-20681.7
-22541.9
-25272.9
-29880
-23220.6
-111619
-150773
-202564
-94202.4
-108129
-55372.1
-51217.6
-31314
-27708.6
-17878.7
-13792.3
-9152.82
-7740.28
-6499.77
-7085.45
-9980.48
-14325.2
-19591.1
-26344.2
-22461.1
-14556
18201.6
-12812.7
33489.7
2330.58
19392.1
-6709.52
1505.48
2732.17
7218.19
8154.86
9413.17
8599.29
8091.85
7619.74
2008.53
-5467.07
-13454.8
-22705.2
-21360.8
328669
177182
113960
140524
94178.6
90931.3
54300.3
48136.9
42879.7
40052.4
36575.7
32927.9
28487.8
24118.8
22722.2
15296.6
4274.68
-7035.29
-18899.1
-20244
357144
275466
245725
229941
173395
172110
127918
107447
92072.1
80383.9
70863
62123.5
53911.9
45875.7
39506
27185.9
13343.1
-609.895
-15089.3
-19193.5
572325
396191
332286
294740
236433
225581
191942
161185
138073
119201
102447
88171.8
76577.3
65762.8
55839.9
38643
22145.4
5792.83
-11227.2
-18160.7
650975
477305
403291
352017
288577
265178
232756
203589
178682
155827
134203
114643
98534.7
83661.6
68134.9
49266
30524.4
11918.6
-7534.29
-16964.6
909421
653515
493166
435799
337858
311763
265818
241942
211666
189995
163498
140730
118650
99166.6
78653.8
58563.2
37912.1
17491.5
-4072.65
-15740
625376
605656
482162
456809
367146
342305
295398
270966
235772
211702
181785
160095
133400
111893
87985.1
66330.6
44240.9
22362.7
-1039.06
-14479.4
567342
580909
485857
471711
392440
366768
318854
290479
253537
226537
195808
170695
144140
120450
95831.3
73164.3
49796.6
26471.9
1677.22
-13319.5
589981
578500
498993
483309
410011
384136
333242
309040
265652
241278
206913
182190
153199
129167
102708
79123.9
54086.7
29752.9
3732.07
-12539
545622
548589
494770
481104
416248
392824
344891
320357
279486
252083
217867
190892
161269
135404
108474
83429.4
57655.3
32114.2
5178.8
-12351.7
896281
631188
531781
490984
428305
404785
350574
329354
284475
259475
222651
196638
165057
139083
110647
85117.6
58422.7
32430
4868.64
-13198.1
370493
572159
466517
481767
426036
409765
355109
333296
288840
262984
225837
199021
167254
140719
112110
86073.7
58971.1
32416.5
4395.92
-15140.8
395331
499777
470543
473296
425387
412125
357720
335608
290993
265123
227868
200841
168773
141862
112980
86643.6
59141.6
32231.7
4019.58
-17058.2
-1.12916e+06
-877705
-724461
-533528
-466629
-357379
-301520
-231457
-187426
-143415
-115307
-92376.6
-76687.5
-63761.8
-55330.9
-48642.2
-44454.3
-41598.1
-40499.7
-29989.8
-1.04163e+06
-787682
-746034
-540127
-460040
-349032
-291508
-223479
-180197
-133766
-108727
-87080.7
-72476.9
-60450
-52767
-46733.7
-43028
-40460.9
-39949.6
-27082.7
-683382
-671822
-675787
-492291
-420715
-312634
-262145
-198453
-160737
-120863
-96967.1
-77302.5
-64668.7
-54261.2
-47852.1
-42977.1
-40128.2
-38157.2
-38247.8
-24397.8
-771851
-618101
-604582
-417425
-360165
-262284
-223940
-168889
-138625
-104622
-82822
-65229.2
-54456.7
-45881.3
-41172.5
-37676.8
-35597.4
-34508.4
-35720.8
-22412.8
-814851
-602570
-547866
-353454
-284054
-198628
-167888
-123821
-101975
-76309
-60606.6
-47551.1
-39981.8
-34511.1
-31456.7
-29741.4
-29379.5
-29898.4
-32816
-21413.5
-937249
-403011
-374883
-220193
-198045
-128679
-112080
-83316.1
-68409
-50754.4
-38984.3
-28786.6
-23756
-20977.7
-20267
-20736.7
-22540.8
-25206.9
-29988.8
-20996.9
-321634
-158700
-213844
-98375.1
-105688
-55779.3
-49613.4
-32687.1
-27824.3
-17798
-13473
-8662.94
-7250.52
-6134.9
-6945.86
-9950.01
-14274.6
-19371.6
-26212.2
-20332
57281.3
39673.2
-16797.3
33048.1
2334.75
19051.4
-3751.2
2297.87
4060.68
8485.97
9260.39
10200.1
9272.24
8327.64
8231.45
2137.39
-5371.36
-13173.4
-22636.7
-19288.3
405012
192033
112012
140201
93510.5
91892.9
55129
49913.1
44058
40817
37302.3
33639
29199.6
24711.6
23007.1
15481.7
4465.15
-6798.3
-18842.5
-18203.7
427200
294626
243587
228787
173074
170787
131004
108209
92861.8
81072.2
71170.6
62194.2
53836.7
45899.8
39326.2
27238.3
13544.7
-371.616
-15015.5
-17167.8
445902
388851
324076
292743
234982
225631
191229
160532
137882
119195
102705
88390.7
76116
65378.6
55136.3
38658.1
22253
6045.82
-11151
-16220
599379
469743
401642
351190
287874
264678
231515
202669
177841
155340
133927
114537
97995.9
83285.2
67532.2
49536.6
30750.9
12226.1
-7445.52
-15040.2
880469
649351
492806
432953
337712
311898
266594
241345
210892
189528
162809
141230
118236
98991.6
78406.6
58726.3
38060.7
17764.7
-3944.17
-13819.1
656152
603290
479305
455481
367319
342498
296162
270383
235274
210816
181229
159061
133277
112041
88363.9
66566.5
44401.4
22580.4
-854.848
-12585.1
633619
579234
483670
473432
392701
366580
317912
289483
253845
225963
195965
170172
144159
120225
96120.7
73256.5
50004.8
26749.9
1928.13
-11415.7
597959
573087
499078
483702
408258
384731
332671
308440
265826
240722
206933
181704
153252
128835
102879
79102
54464
30047.5
3934.47
-10625.4
483924
529694
494103
481326
415395
392801
343889
319679
278961
251532
217716
190497
161086
135087
108390
83424.5
57844.5
32409.3
5512.19
-10407.3
794421
619009
530938
490111
427550
403596
350004
328998
284373
259155
222724
196430
165023
139028
110688
85152
58537.1
32607.9
5116.29
-11303.6
642914
566315
471967
482195
425961
409300
354902
333293
288816
263060
225766
198980
167156
140653
112049
86048
58996.9
32505.8
4445.92
-13806.7
419903
501119
474944
474164
425414
412066
357603
335715
290987
265175
227830
200869
168733
141863
112938
86632.6
59142.3
32278.4
4017.21
-16518.6
72757.4
108181
96370.8
80157.7
73074.2
109368
97313.4
64075.8
92899.9
85003
70787.9
64218.5
93765.7
85020.1
105111
147701
131615
118408
106169
147232
131443
90246.9
126094
111530
102280
90322.7
126140
112058
52781.8
107524
94719.1
56331.2
52346.7
107477
94606.1
46217.3
91293.5
81941.1
50222.9
45980.3
91218.3
81903.1
42817.7
79226.9
72301.4
44906.3
42935.8
79231.3
72256.6
38793
70053.3
64066.8
41612.9
38890.8
70071.5
64153.5
35601.3
62157.3
56667
37774.3
35838.7
62242.9
56725.8
31432.9
54805.1
49595.8
34304.2
31558.3
54887.1
49602.9
27501
47889.9
42668.2
29991.9
27479.4
47846.8
42591.2
22789.7
40828.2
35349.6
25323.4
22596.6
40749.5
35284
108290
177450
151937
124690
108254
177736
152936
93303.9
145236
126968
104195
93250.7
146230
128212
81810.6
122029
109581
90097.2
81796.3
122975
109716
72250.4
105839
96010.1
79271.5
72355.1
105993
96081.7
63672.7
92930.8
84264.8
70123.9
63743.5
92988.5
84357.5
55672.2
81467.3
73516
61680.1
55715
81529.8
73600.8
47918.9
70915.8
63256.3
53751.5
47942.5
71013.8
63415.9
40507.9
60736.9
53230.5
46001.8
40645.5
60918.6
53559.7
167495
225245
202878
191683
168063
224832
202543
141118
196239
177518
161198
141857
195904
177171
119251
171505
154428
136102
120123
171141
154061
103614
148917
132683
115332
103794
148600
132533
90845.6
127293
110814
100396
90934.1
126917
110689
79200.2
105987
95432.8
87883.4
79289.1
106156
95650.6
68096.5
92100.7
81939
76500.8
68262.7
92240.4
82117.3
57487.3
78566
68404.4
65594.4
57818.4
78799.3
68563.6
212395
257663
237940
234794
212109
257307
238164
187105
231091
212107
205417
186826
231361
212367
163080
204397
186101
180540
162782
204546
186347
140914
179565
162755
157120
140776
179828
163179
119197
155734
138915
135147
118634
155818
139615
100521
132346
118588
113440
100978
132772
118926
86486.5
112218
100227
97330
86626.3
112158
100230
72405.1
95162.2
83013.5
83037.2
72496.4
95185
83073.3
52076.7
107410
94613.9
55274.1
50785.5
107799
94850.5
45840.3
91225.9
81886.4
48907.8
45332.6
91452.4
81868
42958
79216.4
72249.4
44071.8
42737.2
79153.5
72292.4
38915.4
70099.8
64200.3
41209.7
39004.9
70238.2
64372
35932.9
62294.8
56757.1
37538.1
35785.8
62461.5
56870.6
31584.6
54923.3
49602.3
33929.9
31373.1
55015.1
49550.8
27343.3
47830.7
42542
29402.3
26771.8
47740.3
42304.7
22613.4
40693.3
35301.5
24634.9
22603
40496.4
35201.6
108324
177845
153463
125439
109056
178528
154591
93244.9
146797
128813
104936
93369.1
148227
130560
81806
123592
109901
90151.3
81899.3
125324
111527
72403.1
106127
96136.5
79479.6
72646.1
107666
96283.4
63787.9
93022.5
84442
70409.7
64015.7
92940.1
84623.2
55742.8
81596.5
73663.9
61920
55811.5
81767.4
73887
47951.7
71082.7
63518.3
53810.1
47900
71320.6
63838.1
40653.6
61032.6
53756
45934.7
40498.2
61366.9
53796.1
168176
224547
202364
192270
168259
223764
201605
142295
195744
177004
161615
143300
195159
176449
120616
170953
153884
137685
122066
170315
153246
103929
148444
132355
117542
104769
147895
131772
91012.1
126656
110748
101225
90849.5
126143
111281
79345.8
106324
95761.2
87960.5
79541
107059
96160.5
68370.4
92321.1
82216.4
76805.7
68748
92648.4
82525.2
58088.4
78897.4
68721.2
66127.6
58356.9
79184
68972.2
211923
257180
238253
233977
211205
257278
238522
186687
231543
212503
204733
186191
232110
212881
162629
204557
186432
179805
162091
204562
186716
140719
179928
163380
156578
140466
180315
164004
118501
155892
139932
134563
118628
156260
140731
101140
132964
118925
113728
101624
133387
118886
86720.7
112243
100240
97778.7
86974.6
112648
100268
72613.5
95200.8
83226.1
83324.3
72753.5
95195.6
83354.3
50229
107827
95063.7
54760.7
49397.9
108671
95979.6
45145.3
91683.7
81904.1
47938.7
44876
92685.2
82794
42429.7
79189.3
72336.7
42965.4
41434.2
79959.5
72744.3
38970.6
70305
64432.2
40153
38428.2
70642.9
64621.3
35561.5
62509.9
56886.7
36710.8
34797
62651.8
56940.6
31165.2
55033.2
49513.4
33009
30505.1
55088.2
49569.7
26549.5
47699
42297
28528.5
26049.3
47750.9
42336.2
22732
40474.9
35233.3
24111.8
22808.9
40475.6
35113
109633
178685
154738
127146
111332
179262
154797
93636.1
148441
131073
107107
95104.4
148623
131806
81991.9
125870
112245
91640.7
82719
126821
113556
86532.5
77303.4
88759.6
79735.8
86284.9
77447.2
88982.8
76290.6
68324.2
78511.8
70619.7
76012.8
68422.8
78750
55818.4
81650.1
73945
62077.5
55874.2
81772.3
73809.3
47878.5
71369.7
63840.7
53857
47875.6
71168.8
63534.2
40529.6
61301.3
53855.6
45851.1
40411.6
61008.3
53638.6
168210
223415
201295
192191
167898
222618
200305
143411
194909
176252
161310
143412
194068
175619
122519
170093
153015
138092
123486
169434
152437
124071
113412
128201
117215
123530
114133
128641
104930
97967.9
109011
102926
104595
99576.8
109414
79606.2
107319
96316.4
87841
79520.9
107892
96818.9
68838.9
92783
82646.7
76723.9
68557.9
93262.9
83012.7
58489.6
79295.3
69135.9
65902.3
58274.1
79617.5
69223.5
210937
257073
238576
233140
210098
257245
238691
186005
232284
212964
203826
185406
232641
213067
161893
204488
186788
178907
161326
204223
186942
140366
180433
164174
155965
140061
180762
164577
118751
156393
140848
134239
119096
156649
141019
101786
133436
118960
114596
102322
133735
119364
87061.6
112745
100282
98394.5
87323.4
112902
100249
72868.7
95196
83542.8
83610.6
72913.9
95049.4
83513.7
49191.2
108867
96254.7
55159
49212.6
110774
96893
44722.3
92991.5
83206.9
49474.4
45346.4
93606
83948.6
41197.8
80313.4
72931
43769.4
40811.5
80979
73394.4
38234.7
70796.3
64718.6
40597
38324.4
71229.9
65048.6
34629
62719.3
56996
37064.3
34505.3
62965.2
57154.3
30409.8
55140.2
49635.1
33402.7
30561.9
55286.8
49811.2
26003.4
47817.7
42374
28955.7
26116.1
47973.4
42535.9
22936.8
40498
35179.6
24485.8
22552.2
40648
35155.5
111699
179278
154747
130508
112418
179760
154485
95558.8
148599
131878
108100
96246.8
148424
131901
82989.2
126940
113655
92757.6
83611.6
127054
113859
73193.2
109715
97620.2
80949.7
73540.6
109724
98366.1
64279
94043.6
85102.6
71107.3
64390
94785.7
85192.6
55917.1
82029.7
73706.5
62208.2
55938
82072.2
73455.2
47916.8
71040.4
63397.9
53881.3
47923.5
70763
63142.7
40483.7
60888.1
53688.9
45923.8
40308.5
60665.1
53258.8
167750
222263
199969
191387
167142
221505
199005
143361
193775
175398
160719
143151
192931
174750
123615
169223
152288
137940
123658
168625
151885
106385
147109
131455
119143
106577
146755
131411
91237.6
126180
112141
102636
91812.7
126143
112140
79413.6
107948
96872.6
88422.2
79085.1
107955
96446.2
68403.9
93356.5
83058.5
76196.1
68051.5
92784.2
82509.9
58328.2
79659
69333.8
65437.4
57775
79138.5
69030.1
209814
256950
238673
231872
209004
257171
238474
185198
232691
213049
202886
184565
232503
212667
161159
204076
186916
178036
160720
203622
186543
139987
180840
164609
155444
139714
180865
164262
119161
156643
141013
133993
119180
156340
140653
102477
133889
119577
114628
102245
134205
119823
87387.1
112934
100247
98221.8
87156.8
113226
100302
72999.1
94968.7
83657.6
83477.1
72786.4
95012.3
83415.9
49145.6
111183
97041.6
55732
49687
112479
97390.2
45425.3
93747.9
84067.1
50588
45549.7
94039.9
84253
40599.3
81092
73486.3
44554.3
40476.3
81248.2
73622.8
38328.5
71316.2
65101.6
41117.7
38279.5
71430.6
65165
34374.5
63018.4
57167.9
37687.9
34309.1
63065.4
57171.3
30614.8
55289.8
49801.2
34018.7
30728.5
55281.4
49748.2
26141.5
47951.4
42535.6
29643.5
26333.7
47884.4
42496.7
22574.7
40673.8
35339.4
25298.1
22438.9
40663.9
35265.3
112545
179885
154367
132097
112895
179382
154228
96337.4
148348
131877
108481
96491.8
148211
131863
83738.3
127049
113911
93009.4
83922.2
127050
113984
73612.1
109832
98494.3
81243.9
73705.2
109998
98729
64382.4
94898.2
85154.5
71246.4
64355
95084.6
85055.2
55901.6
82022.1
73378.3
62157.9
55831.9
81885
73204.4
47884.9
70691.7
63087.9
53757.9
47805.3
70594.9
63020.5
40407
60615.3
53345.4
45848
40105.9
60550.1
53133.5
166905
221253
198718
191282
166477
221658
198191
143074
192677
174554
160176
142958
192221
174150
123649
168448
151776
137796
123628
168094
151595
106663
146661
131380
119272
106810
146507
131322
91817.7
126134
112098
102809
91748.4
126121
112099
79003.9
107895
96237.7
88286
78779.4
107803
95919.8
67990.6
92536.6
82281.8
75990
67921.8
92184.4
82054
57771.2
78929.5
69039.6
65309.2
57338.7
78710.2
68905.2
208776
257155
238341
231148
208352
258014
237627
184358
232304
212400
202249
183913
232295
211753
160604
203496
186349
177435
160403
203504
185631
139622
180861
164026
155175
139480
181025
163122
119094
156186
140390
133822
118975
156141
139353
102068
134253
119669
114369
101778
134509
118852
86950.4
113335
100328
97605
86668
113511
99747.6
72740
95195.2
83492.1
83041.5
72352.1
95528.8
82940.2
83871.3
74987.8
81126.7
72858.3
83655.3
75107.2
81354.5
96218.1
98393.6
103546
108611
95537.9
99026
103553
92527.9
89006.4
99390
95267.8
92151.3
89191
98203.2
86780.8
79946.3
77766.3
89638.2
77590.3
89317.9
86999.2
84033.4
72938.9
75373.6
81613.7
75217.8
81475.9
84235.2
96667.7
109047
99641.5
104914
99457.7
103958
96580.8
92891.1
95573.5
89716.4
100736
89473.9
98468.2
93067.8
73718.2
66148.8
71284.1
64127.2
73518.9
66196.9
71460.8
82858.7
85905
90007.5
91847.5
82916.7
85968.1
89122.1
79715.8
77623.5
87165.3
85674.1
79934.6
77714.6
85650.3
76392.8
70686.4
68567.9
78937
68471
78859.1
76413.9
73841.8
64173.1
66315.5
71522.6
66243.5
71533.1
73850.9
83029.3
92128
86481.3
90720.3
86216.8
89316.6
83371.8
79886.9
85758.2
77914.7
87722.6
77815.6
85779.8
80342.2
118921
109097
113618
106627
118482
110496
114024
132295
137854
142549
147523
132508
137641
142425
127219
122259
137113
131514
127283
122292
136973
124366
117559
114554
128836
114439
128894
124186
119170
106950
110218
114398
110755
114291
119163
132324
147369
137666
142190
137580
142308
132582
127284
131461
122597
136798
122402
136865
127496
100393
94532.3
97192.2
91726
100528
96920.5
97057.8
112950
117368
120995
126094
112738
117477
121079
108722
104378
116113
111760
108390
104739
116264
105178
103132
98819.6
109831
99770.6
109682
105425
100513
91860.7
95397
97484.8
96996.2
97202.2
100977
113129
126112
117798
121219
117616
121156
113288
108906
111939
105033
116470
104958
116384
108994
-2513.25
26078.6
28960.9
-7341.81
-2555.43
25634.9
28707.4
2001.7
27407.9
28130.6
919.981
1834.51
27196
27857.6
8049.48
26926
27229.5
4515.61
7675.72
26570.7
26954.3
8215.43
25784.5
25269.3
8097.42
8114.23
25542
25097
11060.1
23790.4
23849.6
8901.02
10932.6
23588.3
23682.6
9878.54
22006.7
21384.7
10130.1
9886.43
21816.2
21227.8
9539.74
19211.8
18295.1
9222.6
9593.8
18999.8
18159.7
7375.34
15583.1
14285.3
8084.4
7433.81
15494.9
14239.1
68876
120866
101799
88342.6
68619.2
120745
101575
71283.2
56349.7
74175.5
56694.4
56304.6
73977.2
71358.2
62903.6
50000.4
64530.3
50543.8
49897
64468.9
62936.6
55596.1
44335
56756.1
45064.6
44346.1
56737.6
55580.4
50151.7
40762.5
51230.6
41614.2
40795
51214.3
50142.6
45185.4
37279.8
45995.4
37761.5
37321.6
45992.5
45165.7
40141.6
33575.1
41095
34272.2
33628
41093.4
40125.9
35089.1
29646.7
35976.3
30069.1
29682.2
35947.1
35099.8
29495.7
25156.5
30494.4
25514.5
25091
30435
29533.4
19933.4
29858.3
27112.3
21320.5
19872.5
29792.7
27050.3
139016
200533
175706
167546
139094
200745
175901
131977
118134
140992
124592
118094
140942
132041
112374
100247
116796
104186
100233
116748
112411
97470.1
87245.1
100881
90138.7
87228.7
100863
97482.3
85590.5
76809.8
88287.6
79227.8
76820.6
88299.8
85553.7
75419.3
67917.4
77868.1
70064.9
67924.7
77871.1
75415.3
66103.8
59585.7
68318.3
61600.9
59610.9
68331.3
66077.5
57409.4
51800.3
59537.9
53728
51800.3
59548.3
57400.2
48948.9
44062.2
51003.1
45968.9
44069.9
51013.8
48925.7
34384.1
47470.7
41292
39791.1
34435.2
47690.8
41104.4
203912
247293
224787
227175
203999
247297
224465
194088
182328
202527
191410
182434
202494
194095
167816
153407
174527
160486
153580
174477
167797
142973
129540
148967
135497
129772
149048
142850
121675
110602
126556
114822
110682
126616
121625
104083
97058.9
107561
100268
97075.1
107589
104077
90850.5
84884.4
93976.8
87834.5
84896.9
93985.3
90835.8
78775.3
73615.8
81750
76418.3
73631.9
81760.2
78761.7
67040.1
62707.6
69876.1
65422.1
62738.2
69911.3
67010.3
48249.7
61397.1
53816.8
55373
48424.8
61498.8
53811.4
247330
289710
265059
269420
247011
289609
264795
234975
227280
243325
235211
227208
243229
235066
208226
199253
214296
205607
199199
214256
208257
183324
174826
189523
180779
174755
189478
183382
159908
151936
165423
157311
151883
165370
159921
137157
129899
142639
135258
129853
142664
137149
115779
109327
120684
113861
109116
120677
115807
98634.8
93700.7
102063
97161.6
93722.2
102176
98606.4
83444.6
79445.9
87067.8
82890.5
79468.7
87087.2
83423.7
60675.2
73948
65760
67969.1
60676.8
74002.9
65776.9
254334
276185
269291
265712
254492
276126
269362
227789
253627
239533
240047
227974
254109
239670
199888
222107
212912
211397
199977
222320
213262
176504
198401
186591
187384
176935
198886
186764
151770
171622
162972
162551
152071
171754
163113
131182
149532
139617
139673
131279
149654
139692
109608
125668
117042
118487
109601
125565
116997
91467.2
105121
96986
98923.7
91495.5
105039
96971.1
-2154.73
24787.7
28213.4
-7023.4
-2208.08
24562.4
27637
1659.44
26857.5
27435
1135.5
1424.28
26347.1
26860.5
7115.55
26034.3
26554.2
3952.01
6396.67
25309.4
26144.4
7974.34
25185.6
24854.8
7757.49
7891.77
24790.2
24582.2
10676.3
23280.9
23443.1
8693.24
10351.8
23023.9
23287.9
9903.46
21554.5
20969.1
10019.2
9953.03
21348.4
20714.2
9690.35
18737
18004.6
9128.8
9627.28
18465.1
17856.4
7710.66
15356.1
14346.2
8113.32
7767.01
15232.1
14245
68346.8
120345
101441
89531.5
68288.5
120834
101537
70630
55580.1
73258.9
55716.1
70783.6
55266.9
73236.1
62355.1
49236.3
63989.5
49686.8
62534.2
48927.2
63766.6
55437.5
44196.3
56547.7
44565.2
55533.6
44130.4
56419.7
50198.9
40968.8
51126.2
41502.4
50200.4
41012.6
51069.8
45292.4
37575.5
45965.6
37708.6
45278.9
37628.3
45940.7
40159.7
33822.7