/*--------------------------------*- C++ -*----------------------------------*\
  =========                 |
  \\      /  F ield         | OpenFOAM: The Open Source CFD Toolbox
   \\    /   O peration     | Website:  https://openfoam.org
    \\  /    A nd           | Version:  10
     \\/     M anipulation  |
\*---------------------------------------------------------------------------*/
FoamFile
{
    format      ascii;
    class       surfaceScalarField;
    location    "6.9";
    object      phi_0;
}
// * * * * * * * * * * * * * * * * * * * * * * * * * * * * * * * * * * * * * //

dimensions      [0 3 -1 0 0 0 0];

internalField   nonuniform List<scalar> 
38556
(
143.606
454.17
-125.599
553.241
43.353
-452.988
835.746
-30.8491
-251.656
1245.3
-7.66396
-401.892
1512.24
22.9727
-289.91
1875.92
4.64897
-368.33
2186.61
7.55543
-318.25
2359.24
31.3632
-203.985
2132.25
106.985
120
1676.39
132.457
323.406
1296.85
71.2774
308.258
1132.04
0.524069
164.292
1069.98
-47.1265
109.179
1044.41
-69.4234
94.9977
1036.17
-74.8801
83.1187
1033.85
-68.725
71.044
1042.21
-63.6976
55.3352
1055.39
-60.0349
46.8599
1084.59
-61.9859
32.7849
-56.3841
32.3569
1046.67
367.857
1963.09
861.975
-183.528
411.571
980.752
34.3769
-184.003
1261.64
-47.8429
-240.707
1426.44
28.7364
-170.564
1655.71
-94.2095
-130.415
1760.02
-72.9395
-23.8166
1778.01
-56.9013
70.28
1555.53
63.6832
265.778
1312.76
122.506
252.725
1151.7
96.1762
136.155
1045.71
44.4066
62.1126
964.486
-11.9653
46.0609
885.998
-23.6855
32.7501
836.008
-27.123
2.23301
808.579
-20.7862
-20.5091
803.296
-17.1565
-41.2583
806.787
-18.5463
-44.9799
818.968
-20.7265
-53.44
-9.03016
-55.5836
1237.67
-607.901
2513.93
706.6
-329.782
677.322
692.451
56.9418
-8.41579
777.832
-208.049
74.8252
815.287
-162.204
153.485
875.022
-226.377
72.4329
903.126
-179.589
78.5457
933.242
-129.447
42.4302
960.946
-47.0299
83.0085
1001.28
14.8765
67.2967
1027.68
29.277
40.495
1018.5
34.8547
18.739
939.952
38.1728
28.4057
839.117
46.8758
30.273
763.005
38.4153
10.5738
721.265
28.1274
-7.173
704.96
14.9851
-15.837
698.866
2.6014
-15.0537
701.968
-6.62067
-17.2085
-2.38046
-9.49044
1710.82
-2401.84
725.741
1320.03
-996.985
1058
876.143
-115.013
615.841
740.851
-157.395
84.6381
657.59
-253.462
174.519
686.815
-285.482
29.8797
710.258
-257.917
54.8849
742.159
-172.4
11.0511
783.22
-112.794
24.7036
818.717
-34.0444
13.4237
821.196
15.3623
11.4359
790.133
59.6791
6.23851
724.851
83.1732
20.2812
668.401
92.2163
11.1094
634.312
76.1472
-3.64283
611.801
58.1135
-7.47428
603.126
31.3155
-7.65571
600.848
8.81776
-3.93825
604.001
-6.12956
-3.64426
2.81735
-2.6153
2809.9
-1938.15
-3410.58
3065.71
-794.667
-458.128
1819.71
96.1852
1034.81
1237.53
-41.7998
466.579
1019.71
-323.004
287.358
971.809
-322.547
84.9698
896.637
-270.524
87.7788
842.045
-137.138
19.3305
793.448
-77.4594
13.2627
761.565
10.7331
-12.8947
738.277
44.0525
-5.4016
718.605
86.6761
-7.32521
702.004
96.367
3.40678
690.694
104.323
-0.796604
679.561
92.3631
-5.08235
665.892
79.0021
-7.21997
647.301
52.9381
-3.03142
625.587
33.9564
-3.42435
615.251
2.54146
1.66543
4.35298
4.63659
2148.45
-906.912
3561.49
1499.31
-102.214
-43.3182
1034.82
186.834
373.844
1072.21
-19.3145
-59.88
938.742
-286.171
96.637
921.381
-308.395
3.20987
883.263
-332.165
99.7592
831.875
-111.793
26.0423
799.019
-77.3021
32.699
774.262
34.2724
1.21805
770.372
46.166
1.77659
772.832
86.675
-2.45908
783.979
91.54
-6.31993
800.663
99.1946
-11.5555
822.675
90.9672
-20.6167
844.75
76.7538
-19.8256
846.599
59.6475
-8.55843
812.381
54.8447
13.3295
730.231
41.6288
43.0619
35.2531
24.8433
1474.29
-1231.92
713.748
2622.14
-655.304
-594.764
3177.2
-299.385
-68.8351
3375.52
-246.357
28.7218
2524.81
4.46586
560.071
1744.91
47.1811
424.321
1299.7
9.52363
159.949
-28.8992
4.26566
-31.7867
1045.27
24.4496
47.194
24.1779
24.4021
22.4111
897.444
26.4324
33.1279
-5.04689
22.9333
-6.92342
826.609
24.0114
19.1409
18.7435
24.5934
18.6183
799.505
26.0085
7.34752
8.18926
24.7757
6.94824
793.449
26.2343
6.94444
17.339
25.6843
16.5295
800.237
26.7441
8.09866
12.5696
25.6325
11.7068
814.381
24.5263
8.40075
14.0164
24.024
14.0831
844.447
49.837
11.0643
877.599
33.6439
9.95791
893.619
29.1626
14.4651
889.351
36.1127
23.0001
836.611
59.3413
35.0271
59.4304
23.9294
-1239.49
-1607.04
3523.22
220.296
-553.468
-1561.62
1092.1
-619.899
-551.293
1088.46
-463.536
220.824
1043.62
-163.65
212.956
237.476
11.6297
21.6521
220.004
234.24
210.479
63.5004
24.8208
66.9957
224.399
26.8573
-4.25706
-201.026
216.367
15.2464
-6.13862
-214.207
213.668
27.9015
-0.93072
-194.082
199.941
17.6038
0.547859
-192.259
195.45
21.4957
1.32199
-184.215
191.217
18.8135
0.419046
-184.957
191.463
19.5805
0.658051
-184.805
193.623
14.712
0.996076
788.913
5.87644
6.15154
-189.559
-190.269
-184.207
-181.79
-7.08918
6.32884
-4.51865
820.558
-2.99649
4.99583
830.6
15.6625
3.45774
817.682
40.6923
8.33827
771.002
82.7358
23.2855
77.9633
17.8652
112.656
-824.547
-1902.76
139.809
-531.342
-49.2803
549.333
-736.63
-292.793
482.074
-480.158
83.8809
171.843
-308.673
-21.5579
153.944
172.505
150.362
216.618
-23.4783
-9.66681
-9.27044
-58.5062
57.7826
8.70353
1.29048
-54.9396
-4.60337
57.4158
3.15451
-1.02731
-57.607
-9.75018
58.7389
9.15461
-0.536381
-53.6577
-8.40065
54.0327
7.82874
0.196908
-49.6834
-7.89035
50.271
6.85348
0.449295
-45.733
-6.99936
46.6309
5.91665
0.184841
-44.058
-6.58928
45.5896
5.42781
-0.370078
-44.695
-4.74558
46.6149
3.51143
-0.68574
-46.6855
201.031
-1.45476
-5.11773
-48.3329
-46.1164
-47.4474
823.366
-17.8307
-14.0584
-198.997
-208.578
-189.501
-197.398
820.27
18.5707
0.188124
786.285
67.1237
7.55333
738.308
111.117
19.5958
95.1416
7.13326
-199.078
1037.88
1959.45
185.948
-586.508
-329.86
178.711
-503.373
-226.02
147.461
-456.623
7.71501
68.2172
-330.555
-29.5307
26.7148
72.56
31.381
30.5256
99.1548
-44.6133
-16.85
-5.82206
-40.4595
43.3986
4.70634
-1.82337
-4.92199
-49.5168
51.2608
4.28722
-1.10925
-9.6745
-55.6454
56.8399
8.59284
-0.112919
-8.71438
-58.4956
58.5338
8.26825
0.407926
-8.02462
-58.1979
57.9628
8.04485
0.214855
-8.95574
-55.4732
54.0126
10.0199
0.396328
-7.79015
-51.7409
51.6833
8.85326
-1.00556
-5.71631
-52.4474
52.8583
6.80168
-1.4963
-53.9015
-3.86477
217.791
13.4174
-10.7517
-55.9097
-52.2946
-54.4861
859.752
11.294
-24.181
-217.78
-226.579
-205.269
-215.068
834.866
54.6291
-11.1725
791.67
104.565
5.75547
751.583
137.641
13.5621
117.79
-3.77012
-612.007
66.6443
928.693
245.924
-640.721
-803.718
693.801
-424.044
-527.207
608.058
-301.084
-69.7952
139.175
-287.531
27.6395
134.142
131.544
132.534
63.3707
143.642
-54.447
-13.3902
7.29014
-34.6565
35.4462
-8.31492
0.235114
0.826413
-38.4609
39.4999
-3.03081
1.16542
-1.71873
-43.2684
44.6566
-1.07676
1.40734
-3.40602
-48.8306
50.2944
0.605349
1.33678
-6.14891
-54.5801
55.7591
4.08846
0.881512
-9.27245
-58.7985
59.7656
8.06136
0.243956
-9.93431
-62.188
62.7446
9.58755
-0.209772
-9.66197
-63.4485
63.4921
10.0333
-0.414931
-62.1941
-21.8568
242.538
25.6581
1.16485
-63.177
-60.4156
-61.7177
863.871
71.7418
-19.9427
-231.131
-231.844
-220.693
-220.708
835.632
101.989
-19.1203
811.942
131.529
-3.27478
795.617
154.466
-0.500011
135.526
-8.16099
313.744
-716.737
1766.66
529.646
-647.251
-209.371
959.246
-402.504
-451.141
784.271
-178.653
52.5442
119.165
-180.915
108.408
154.98
132.945
162.156
51.944
126.014
-51.8353
-6.95739
13.8977
-40.4336
41.2413
-15.3107
0.605341
8.22048
-41.8291
41.7689
-8.77178
0.611528
7.46214
-43.8025
44.8514
-9.14141
0.630432
5.67578
-48.1026
49.1476
-7.63922
0.918454
5.92807
-51.5855
51.9773
-7.65147
1.33161
1.01352
-54.002
54.7626
-3.88491
2.11083
-6.31191
-60.966
62.6732
3.27602
1.32868
-10.1192
-64.6762
64.6708
9.59671
0.527953
-62.5996
-25.5016
231
29.9108
10.4025
-61.7544
-61.3404
-60.1175
792.009
107.016
-22.9554
-214.102
-197.314
-204.24
-188.672
790.866
130.376
-27.2439
793.872
146.573
-18.0505
791.841
162.637
-6.13876
138.176
1.52118
1493.73
14.7166
850.328
1315.01
-301.98
-166.561
1213.25
-323.415
22.6778
1306.32
-221.597
-50.1236
1193.82
-117.706
49.2894
281.573
-272.45
-27.1398
73.1154
122.051
75.8091
117.649
279.2
271.522
272.489
19.1419
262.808
-34.4978
-7.12
11.1953
18.5076
11.5377
9.58125
-231.23
214.353
-15.133
-5.09103
9.22287
9.43213
8.86427
11.392
-222.408
213.52
-28.7303
-2.00851
9.05524
10.7903
8.38888
9.35006
-191.102
172.48
-18.4014
2.89068
8.2156
8.8746
7.69265
8.38915
-175.186
167.657
-20.5378
0.745955
5.99889
7.7137
5.21947
4.775
-155.534
148.207
-4.01403
-2.69144
2.83943
4.04978
2.36808
1.01876
-158.926
164.825
5.19686
-7.51731
-1.86659
0.0920234
-2.82282
-5.39528
-168.248
169.913
25.1838
-0.695126
-7.8069
-5.31059
-7.64039
677.176
102.15
-9.5626
-27.4862
-35.1498
-25.1669
-33.6993
-173.124
-156.815
-165.475
-152.847
699.651
96.3367
-11.7965
719.985
124.174
-14.1317
743.051
133.83
-10.3232
760.176
148.521
-3.0098
123.674
9.21273
237.469
594.332
-1670.68
705.08
-259.114
-510.476
1052.06
-228.931
-441.462
1088.12
-197.749
-59.9148
882.858
29.8861
57.6739
749.075
-171.661
32.9933
637.101
188.688
23.9059
4.03293
-55.995
3.92192
-52.5802
587.426
-148.36
40.5825
18.3711
53.3696
27.0381
58.674
552.256
43.9382
-0.381792
17.5918
-21.8399
18.2141
-22.3526
528.342
-97.9861
7.90574
19.5936
36.8692
21.1942
36.3369
520.304
13.2837
-4.09058
16.6986
-14.2643
13.0561
-16.6453
525.25
-41.6456
-0.858752
8.49536
11.6928
7.30756
10.062
548.139
38.3162
-2.19077
-2.38108
-25.6644
-5.34336
-25.6256
578.27
24.0203
3.80187
-13.7651
-15.8943
-12.997
-15.2959
608.039
68.9544
3.42671
635.817
69.3689
-0.810067
662.563
94.6834
2.74373
691.788
98.7739
5.83151
719.264
113.293
7.75281
99.0751
13.5032
-111.446
818.793
-1002.84
560.333
17.7132
-948.606
824.543
-213.276
-279.865
749.162
-139.935
17.5668
667.854
68.1417
43.0529
606.007
-127.66
17.8467
659.795
117.171
17.7292
605.335
-103.94
10.0398
607.521
37.6088
4.14386
576.346
-66.0953
-0.71554
564.861
22.6545
2.11353
547.429
-23.3487
-0.864519
546.597
35.4836
3.6641
545.636
20.8086
4.17347
554.962
54.1119
5.51621
570.586
49.6893
4.05531
589.257
69.492
6.5205
613.075
67.7043
7.25173
636.226
82.2371
7.90383
76.9513
10.4323
1544.91
2305.8
-2205.19
1127.94
572.915
-138.239
639.227
-40.7997
316.241
439.836
-34.6735
94.1294
544.565
-24.9483
-11.6389
436.426
-68.6998
49.1786
534.697
4.45535
14.4447
504.543
-82.1049
8.31801
544.887
0.285551
-3.02063
532.696
-46.2571
-7.64773
542.999
14.829
-2.47715
536.243
-10.1162
-6.47611
540.561
30.9373
0.22825
542.799
20.316
-1.74545
552.725
42.3217
1.86404
561.279
39.9392
1.19624
574.787
52.1871
3.79641
589.22
49.6201
3.6512
606.347
61.0592
4.0512
61.052
5.30347
1506.27
-747.16
-1850.94
1800.72
84.7459
193.722
1564.7
19.359
175.852
1223.98
156.744
149.307
722.953
189.494
286.584
567.574
91.4015
-4.72241
541.516
19.0174
11.4968
503.059
-20.7933
-22.8549
530.939
-21.064
-6.53093
513.671
-23.5073
-5.48158
528.114
-0.54247
0.928381
520.161
1.10783
-3.2704
529.517
21.8534
-0.271805
530.832
21.3579
-2.35721
542.307
31.7161
-0.869491
553.47
30.1842
-1.40797
571.056
35.8195
-1.21846
590.024
31.9202
-1.26799
611.066
41.9196
-1.90266
46.9958
1.34939
725.364
106.473
155.7
974.426
111.029
-275.345
947.093
185.842
-139.15
832.318
373.268
-101.749
631.867
377.585
12.36
582.884
264.458
-124.074
574.416
105.283
-77.7979
560.096
52.2498
-58.7228
576.533
-24.1688
-13.3316
571.841
-5.74451
-13.0716
579.754
-7.7662
-0.688897
575.806
15.4574
-10.4016
580.727
21.4371
-4.50493
582.153
29.4127
-9.48073
590.286
30.1613
-6.57827
598.163
31.0202
-8.71324
613.316
29.5951
-8.92849
630.671
25.6563
-11.091
654.658
29.8187
-11.886
37.0509
-6.93881
-146.636
26.7573
974.024
364.638
-113.817
-286.428
561.361
-21.162
10.2807
675.745
285.757
-26.8733
765.247
252.639
35.444
796.887
267.806
-34.9866
809.657
112.124
-19.6116
782.405
96.2752
-16.7727
734.063
18.7362
5.43668
691.292
37.5514
-0.525138
663.112
20.4245
-0.0108135
648.893
42.6364
-12.9594
646.635
42.5849
-18.8904
648.74
53.7259
-26.4177
656.672
52.2985
-30.0697
667.844
52.4995
-32.6508
689.843
42.7279
-35.1315
716.504
34.1722
-35.1779
746.261
33.9703
-33.908
42.2579
-25.4153
257.757
-277.616
671.185
-527.245
1042.82
-392.796
1195.59
132.985
1244.8
203.432
1314.31
198.296
1278
148.43
1284.82
89.4598
1230.05
73.5014
1206.13
61.4722
1153.62
72.9376
1122.93
73.3261
1091.32
74.1883
1079.33
65.7225
1072.2
59.4254
1074.5
50.2012
1072.81
44.414
1065.99
40.9966
1056.1
43.8639
44.2878
112.939
139.223
-1908.55
414.295
37.2331
-791.577
690.536
-315.979
-211.918
940.496
-277.288
-374.564
1052.17
-211.57
-190.01
1166.2
-184.145
-298.215
1215.16
-147.432
-219.781
1282.09
-115.395
-155.52
1278.12
-29.5606
153.534
1214.12
38.0347
349.366
1130.57
36.4117
355.401
1071.23
3.43685
220.189
1053.22
-26.9952
154.186
1053.84
-38.3422
132.719
1062.42
-39.3017
113.844
1076.91
-34.7382
91.2879
1098.68
-29.6335
63.2013
1119.8
-25.7764
51.5144
1152.49
-29.9745
30.0684
-24.2044
32.0121
899.357
-714.531
457.315
1337.81
-338.034
348.387
1236.89
-104.272
-294.789
1206.03
-239.21
-247.928
1082.27
-128.549
-129.826
1101.7
-171.161
-162.828
1097.86
-118.716
-48.6915
1111.17
-87.8364
29.4129
1065.57
29.0263
252.791
1021.09
92.4035
242.836
956.942
84.7796
151.933
894.687
57.3059
70.4988
850.926
16.0613
46.7651
816.603
0.461165
28.2699
793.241
-7.1666
-6.53953
776.642
-6.47489
-32.1743
772.249
-7.27721
-59.2216
773.856
-10.2146
-62.1483
777.043
-12.5427
-74.0589
-6.78261
-73.4015
1899.15
-829.665
3829.75
1445.85
-122.827
915.412
819.767
155.157
358.237
701.574
-193.122
146.93
673.668
-118.796
171.638
718.013
-192.244
49.1694
740.577
-136.681
73.9475
759.345
-81.8185
17.6435
788.735
-0.555459
83.2005
820.131
60.4159
67.889
828.568
67.2083
49.6286
811.605
70.1315
22.8761
764.11
54.9126
37.0493
710.923
53.0957
30.8253
669.145
37.568
7.61824
642.481
25.2689
-12.253
630.483
10.7801
-21.8968
624.896
-0.652939
-19.0285
624.355
-6.90784
-22.302
-3.00866
-12.9039
819.696
-1182.19
-569.042
393.651
-238.422
1599.64
494.302
105.988
564.359
431.446
-107.981
62.3532
494.701
-167.618
160.086
536.321
-205.84
1.85526
575.621
-176.964
55.8682
605.182
-102.806
2.47735
646.751
-48.8776
31.457
673.269
33.7246
13.5966
675.168
58.0649
18.6804
655.571
84.3088
11.6578
621.431
85.076
24.2579
589.905
85.1872
10.544
564.609
63.6067
-4.38469
546.323
46.2526
-10.1721
538.264
22.196
-11.0125
534.935
4.67568
-5.93814
535.806
-5.99552
-5.42816
0.751596
-3.21855
1672.93
-1950.57
-917.271
1240.85
-466.541
202.071
844.411
116.384
1420.85
753.353
-15.3524
465.009
724.219
-212.877
361.752
717.598
-192.513
78.2639
694.868
-175.222
108.768
658.355
-61.7536
14.7911
634.309
-33.3031
21.7342
615.552
50.1444
-10.5574
605.979
62.3641
-0.127313
597.112
91.465
-5.6142
591.765
89.3205
4.50892
587.391
91.0204
-2.25581
579.006
72.926
-6.016
566.969
59.7392
-8.66991
554.511
35.3318
-3.70947
541.259
17.2326
-2.72904
536.684
-3.6905
3.93586
2.4122
6.67927
1303.24
-2965.62
476.055
862.838
-479.414
409.956
673.634
76.0078
603.424
700.159
-54.8279
-46.9293
619.361
-219.456
184.014
620.232
-178.621
-11.553
638.012
-214.717
121.474
604.933
-20.9224
18.2897
603.987
-36.6393
36.9817
600.86
52.2021
2.28781
612.968
46.4259
5.6066
624.023
79.5312
-1.57956
637.7
74.6062
-5.28269
650.631
78.997
-12.4632
659.802
64.5818
-21.4441
664.785
55.4208
-20.49
654.736
43.238
-6.41542
629.118
37.9551
18.2248
593.963
30.1437
44.3828
24.3917
26.0022
1361.02
-1710.81
653.98
1412.9
-608.621
-517.43
1643.26
-341.331
118.145
1848.85
-290.545
58.8422
1565.26
-10.8733
635.079
1258.58
122.748
429.636
954.228
19.0613
257.343
-20.3344
15.5413
-22.0311
766.995
34.2782
81.2454
31.1477
35.0269
31.807
680.311
25.1845
44.4265
-3.88672
22.8998
-5.45153
644.118
24.5684
23.7364
17.9987
23.8971
17.3362
635.085
22.0201
12.8156
4.4718
20.4881
3.01123
640.595
23.3234
8.95616
13.8124
22.1572
12.7159
654.431
21.9771
10.9616
8.18815
20.6618
7.07959
670.686
21.0162
9.00275
10.5366
20.2154
10.3722
692.772
42.8138
10.7466
708.713
39.4591
9.97857
711.089
41.4401
13.8867
697.7
49.4867
24.8579
660.132
59.1645
43.5742
46.913
29.0622
-553.131
-1398.5
1954.07
275.166
-456.922
-2541.61
660.685
-587.991
-690.153
742.447
-415.713
264.231
808.75
-92.091
227.87
187.825
43.1355
32.9322
163.986
173.428
148.759
76.419
48.2259
78.4395
6.60422
182.232
24.5702
-6.52035
10.2679
-157.265
168.119
20.6842
-7.52764
1.24729
-163.83
164.948
22.9624
-0.143382
-1.43938
-149.683
158.294
14.9483
2.44834
-2.60976
-153.296
159.437
15.9109
2.57713
-1.44749
-151.118
160.319
14.0562
1.51325
-1.91399
-156.044
164.617
13.7281
1.5907
-2.78589
-159.382
169.135
11.0853
2.96357
672.589
8.73738
5.57801
-164.726
-166.91
-155.76
-158.691
-1.93407
9.57599
0.506017
680.97
30.9539
5.11921
671.924
49.3358
4.60861
652.226
65.1973
12.3253
628.539
76.0352
30.1013
58.7697
19.9876
-218.965
-1320.1
363.582
46.0933
-583.95
-187.311
312.348
-658.365
-488.674
311.493
-419.905
88.9276
147.436
-242.658
-83.7828
125.713
136.525
114.611
13.5701
180.462
15.8929
-19.3527
-0.508744
-9.84378
-47.9985
47.3074
11.232
-0.188425
1.90654
-42.7621
-4.79242
44.3044
3.08643
-1.74287
0.591656
-43.3496
-7.74043
44.6446
6.37602
-0.522223
-1.29351
-41.076
-6.0968
42.1207
4.98898
1.3566
-1.30556
-39.8485
-5.98924
41.1226
4.73575
1.28493
-0.394537
-38.7546
-5.16836
40.1955
3.92905
0.192967
0.938696
-39.0788
-4.71215
40.8235
3.22717
-1.19836
1.53991
-40.2078
-3.45174
42.0348
1.79551
-1.71065
-41.5162
6.49367
176.163
-1.65847
-5.09467
-42.9506
-40.6522
-42.047
684.901
19.6461
-6.25021
-170.851
-179.09
-162.192
-169.268
663.979
65.8891
4.55609
636.615
86.8013
13.313
619.571
92.4574
20.2176
65.2756
8.5965
-409.65
-543.486
623.023
53.6076
-700.421
-676.646
-55.2299
-531.721
-243.826
10.4326
-442.872
-34.9804
53.2066
-315.61
-63.51
8.33155
48.407
7.41862
21.3969
4.87508
83.9055
-35.2335
-21.7374
2.56999
-8.68162
-35.2145
38.6238
5.56327
-2.86095
1.50397
-3.67828
-42.0462
42.7594
2.76264
-1.30146
-0.246504
-5.57295
-45.3292
46.1619
4.4696
0.517145
-1.80807
-5.23182
-47.7674
47.8892
4.80518
2.1129
-1.29777
-5.78626
-47.6815
47.4195
5.93064
1.41538
0.187258
-5.48863
-46.8195
46.7037
5.97342
-0.556217
2.88523
-4.03743
-46.7014
46.738
4.41238
-3.29674
3.79546
-2.01913
-46.9394
46.9551
2.34883
-4.14085
-46.6692
12.8206
3.62694
186.79
-3.7059
-11.6319
-48.4967
-45.5218
-47.2118
709.425
38.7398
-17.7327
-184.972
-194.169
-174.616
-181.21
677.004
91.4581
-4.32072
650.869
107.825
10.867
636.894
109.057
10.9368
73.757
-4.06398
77.5039
-1088.04
328.93
427.21
-583.919
-1269.93
412.424
-425.015
-619.127
349.24
-324.668
-124.815
105.593
-309.901
-39.2211
107.589
97.6376
99.5725
18.6483
62.8901
105.887
-60.69
-21.1428
-1.24228
8.5413
-30.219
31.6095
-9.93152
1.24203
-2.89772
3.21019
-35.303
36.6402
-4.92545
3.27577
-4.4097
0.513037
-40.728
41.9917
-2.26218
4.89518
-4.19567
-1.83211
-45.438
46.5155
0.109849
4.84035
-3.29718
-4.37599
-49.5465
50.5744
2.92425
3.72102
-0.888644
-5.70285
-53.6158
54.5157
4.90235
0.789197
0.77389
-5.3766
-56.1818
56.4235
5.34813
-0.987099
1.45988
-4.05868
-56.3144
56.0115
4.61437
-1.71276
-53.8917
-1.7406
1.57919
208.635
4.82375
1.46842
-55.1042
-52.3456
-53.4241
716.068
80.3866
-14.5743
-198.503
-197.824
-183.364
-183.392
688.948
111.5
-12.0418
675.033
117.708
0.757485
666.683
117.023
-0.115062
79.7644
-7.09882
1318.99
-469.22
1405.03
924.336
-159.062
-239.574
677.706
-217.395
-412.132
566.73
-170.333
9.18547
110.905
-223.166
96.4407
140.475
106.731
133.85
8.13122
63.1397
118.78
-67.1652
-11.9814
-2.50109
15.7413
-38.7876
39.8218
-16.82
2.54563
-2.61004
9.01201
-39.4091
39.1873
-9.1415
2.96141
-2.1923
6.74594
-40.525
41.2125
-7.7117
2.47056
-2.60066
4.45171
-43.359
44.0582
-5.44862
2.89833
-3.53958
2.35442
-46.6598
47.4711
-3.55694
3.93084
-4.29163
-1.12099
-50.3697
51.3684
0.171747
4.24213
-1.62187
-4.66301
-54.6266
55.1225
4.38404
1.40502
-1.37363
-5.28816
-55.273
54.9213
5.4666
1.54687
-51.7396
-13.1421
-13.2325
192.041
22.9949
10.744
-49.9496
-49.5881
-48.1284
674.913
95.6869
-23.0656
-184.724
-171.325
-172.138
-161.916
667.479
113.16
-21.4687
666.451
111.836
-11.1507
665.209
111.495
0.631362
78.7752
5.65885
1438.09
1848.85
851.33
1124.35
-25.6425
13.7607
1019.84
-253.48
163.273
1084.01
-220.151
-64.4787
1003.45
-156.918
63.6047
229.981
-322.048
-21.8769
87.8956
125.123
91.0517
126.589
229.031
215.98
214.583
17.2787
0.988419
207.223
-35.7091
1.31689
10.9911
17.0515
10.84
9.6904
1.35981
-173.264
160.72
-28.8321
2.61649
8.97683
9.74754
8.98497
9.15599
-0.515569
-171.959
163.004
-24.2589
2.66332
6.68504
8.86476
6.36029
7
-3.97525
-144.321
135.932
-16.0327
3.95402
5.59859
6.63446
5.20946
4.8539
0.191846
-146.607
144.567
-9.88029
-1.97701
2.49821
4.34683
2.00703
1.30451
6.25278
-138.074
136.166
2.8011
-8.33893
-0.297227
0.882943
-0.69705
-2.07723
10.3718
-146.95
148.505
12.572
-10.7982
-4.57997
-2.31525
-4.72784
-4.56694
1.68395
-147.794
148.642
22.0059
-2.46148
-6.65387
-4.40665
-6.44888
592.313
82.9764
-8.38648
-21.6379
-30.6869
-20.4833
-29.0373
-152.186
-141.782
-144.993
-135.659
609.585
74.9035
-8.28535
622.468
95.1763
-9.03129
635.947
90.3966
-2.36299
645.277
95.1008
4.05463
72.6237
13.0603
-263.647
1006.55
252.204
220.238
-533
-487.004
752.553
-368.115
-859.143
787.798
-240.855
-74.4554
706.509
-32.1044
14.1492
587.031
-200.065
30.4883
506.882
176.291
12.1708
7.41215
-47.3893
2.75527
-47.1847
460.283
-172.535
48.331
37.5172
64.368
44.1021
65.3984
436.466
52.995
-6.07391
14.8704
-23.9269
10.8964
-25.3255
421.948
-105.212
8.58423
23.2263
36.1643
24.367
35.2932
429.527
21.9498
-10.3582
8.83027
-18.5543
6.01625
-19.5534
442.295
-44.7031
-1.89043
7.15625
9.43987
7.2213
9.14991
471.165
34.6313
-3.17209
-6.47154
-24.8938
-7.16989
-23.9847
500.676
8.14198
9.03547
-10.5863
-13.3033
-8.93913
-10.058
527.377
53.8802
5.82142
548.764
49.3949
3.31127
569.873
69.3247
7.48682
590.805
65.3256
9.97036
607.255
75.0467
11.3568
63.8552
16.4087
54.0893
-97.7277
-2909.79
405.071
-630.904
-1201.68
613.441
-387.365
-468.983
575.954
-187.043
1.24138
545.313
23.2066
18.3828
487.58
-147.616
23.1304
552.198
113.162
16.2408
490.144
-113.278
12.8363
496.724
44.5588
6.00004
464.966
-73.6636
-0.505854
464.385
20.3107
4.33431
452.809
-33.3936
-0.598252
461.17
23.9764
5.95813
465.048
2.24418
6.19261
478.328
37.51
8.60645
495.142
29.9733
6.66306
513.207
48.6786
9.10178
532.191
44.4839
9.10853
548.991
56.7845
9.36631
52.1891
13.3689
1576.74
263.557
582.696
799.531
-302.717
310.783
488.672
-247.218
486.953
316.156
-68.8352
148.438
416.925
-63.4607
-25.7408
333.436
-90.4011
75.4523
453.381
0.156845
7.5045
417.158
-86.6036
17.8674
457.511
-0.62835
1.81315
439.641
-56.6707
-6.77039
453.243
1.22735
3.00366
445.92
-27.2323
-5.31368
456.227
8.75546
5.14171
460.584
-3.89578
0.0378266
474.419
19.6783
5.86069
485.182
17.0385
3.36796
500.79
30.7463
6.11981
515.359
29.3202
4.24588
531.113
40.704
4.37783
40.9611
7.3576
1005.98
-1474.45
-1101.5
1022.92
-76.4966
-49.4392
839.598
-103.143
215.095
649.961
110.688
159.421
529.043
62.6985
281.343
440.234
-7.19345
0.878788
477.27
-40.2949
14.912
437.466
-49.3734
-20.2803
470.216
-38.3985
-1.5106
450.977
-35.6613
-7.25269
466.129
-15.6005
2.6042
457.126
-16.5574
-4.94161
467.029
-2.50313
1.0839
467.939
-3.79411
-3.3694
480.225
5.08172
1.44116
491.056
4.91915
-0.119642
508.066
11.6964
0.821232
525.196
11.7213
-0.798681
543.471
22.8321
-2.30546
28.01
3.44703
274.621
-127.466
741.773
406.416
115.533
-599.17
479.25
34.5823
-349.709
467.687
184.947
-164.444
518.728
102.836
-78.8192
485.897
41.6553
-140.091
508.895
-56.5486
-84.5426
497.365
-42.9024
-53.664
517.864
-59.9333
-12.2957
513.406
-29.7214
-14.5534
523.511
-26.5821
0.188022
520.971
-11.1403
-13.2783
527.665
-8.25031
-5.45236
530.253
-2.9005
-12.9617
539.386
-2.27867
-8.35113
547.946
-1.43616
-10.9182
562.292
-3.24921
-8.32898
576.992
-3.28674
-10.7823
596.857
2.95739
-11.8759
13.4414
-5.71039
588.811
-591.537
4621.44
431.533
-138.089
124.472
440.371
-190.074
226.099
566.799
77.2152
-45.5691
750.139
-9.64828
-35.412
787.775
62.0587
-93.0264
801.812
-33.9639
-56.2331
772.964
5.54778
-36.375
733.427
-24.0466
9.08705
699.854
8.50711
-5.18027
679.165
-4.55034
-1.35375
668.26
13.1382
-26.333
666.008
6.76244
-31.6507
667.588
13.2762
-44.1742
672.79
8.05271
-45.6032
680.284
7.69061
-49.2717
692.329
-4.23207
-46.1946
704.827
-6.71315
-44.2489
719.186
-3.64046
-41.6686
7.98362
-31.1112
1875.04
-240.586
1641.92
-432.213
1293.52
-234.473
1324.49
179.235
1282.03
236.235
1324.46
217.931
1259.91
179.015
1252.93
101.989
1199.57
102.809
1188.08
81.4768
1160.22
96.2427
1157.53
89.1595
1150.48
88.0003
1154.23
75.2405
1153.7
68.0111
1153.14
58.4537
1138.31
55.01
1115.7
56.8984
1092.63
63.2884
59.631
-160.882
-1419.07
-2622.65
124.987
-627.154
-450.292
553.894
-613.338
-27.4863
727.524
-392.901
-155.293
767.393
-235.804
5.92549
802.209
-158.007
-175.024
799.968
-108.36
-109.18
810.337
-72.8745
-93.0158
853.48
-27.9685
138.36
922.828
24.2568
255.761
978.33
31.4531
268.447
1002.11
19.4817
176.925
1018.92
-3.52324
140.899
1043.73
-9.35868
117.272
1070.52
-9.00512
96.0593
1101
-5.41327
66.2186
1132.58
3.73614
27.8855
1162.79
3.25317
18.0506
1192.61
1.50518
-1.25903
10.9114
7.70906
1667.88
-1125.19
2874.08
1870.42
-659.33
178.02
1355.55
-218.758
-174.493
1118.71
-288.209
-115.785
862.047
-114.384
5.41828
783.845
-144.424
-98.2076
724.317
-84.8438
-12.6798
714.723
-48.7282
14.8605
730.275
33.7871
175.483
764.611
78.0245
154.732
769.265
74.6905
104.042
756.297
59.5554
43.3922
741.248
31.4925
26.7989
730.669
21.6354
7.85504
722.333
12.0797
-19.2885
715.156
8.89108
-39.3019
712.806
4.99964
-58.1354
713.622
-1.42984
-58.2809
713.545
-3.63511
-68.8417
-0.0466729
-60.3633
1438.04
187.479
1291.86
1189.75
64.2946
440.078
698.782
216.926
413.52
573.931
-155.733
139.306
525.714
-49.3712
154.842
546.942
-133.622
17.1386
564.209
-81.841
53.6781
574.766
-42.4558
0.814109
606.688
25.5047
59.5613
636.159
72.6639
43.7787
647.986
73.9808
38.511
638.824
74.4633
17.1298
620.19
58.1798
28.9959
599.28
54.092
19.2788
578.079
36.5325
4.36617
560.865
24.663
-10.8112
551.377
11.0208
-18.4293
545.854
0.429319
-15.3646
542.624
-4.5974
-18.1104
-1.35354
-8.81227
-31.5216
547.861
-278.853
164.532
280.673
1187.21
333.351
219.274
393.192
279.728
-103.304
63.5468
345.84
-84.4188
129.021
370.699
-141.692
-14.9336
425.066
-127.097
46.7565
450.486
-57.6486
-7.74953
499.183
-22.0379
30.3024
524.984
51.9008
8.55926
536.303
63.3306
18.0109
529.819
82.4004
10.2054
518.469
75.2798
18.5073
503.916
73.3299
5.85965
487.154
51.784
-2.8745
473.514
36.5396
-8.40843
467.382
15.1885
-9.04822
464.733
1.13377
-3.99358
464.452
-5.32132
-4.42361
0.182389
-1.0334
-1106.88
-323.935
-1707.73
-764.492
36.8766
103.478
181.628
59.9973
634.008
303.479
-100.122
339.976
483.961
-161.297
258.149
494.205
-124.262
50.5898
515.906
-126.343
86.3134
494.559
-25.3018
3.7913
493.165
-20.051
21.1413
485.581
57.4512
-8.5238
488.93
57.1447
2.70957
487.795
82.0918
-4.17088
490.453
73.6551
3.47489
490.245
74.7536
-3.47094
485.104
55.4162
-4.50725
476.244
43.801
-7.07118
468.856
21.6206
-2.75408
461.569
6.28739
-0.595312
461.118
-4.51376
3.57941
1.40512
6.96211
-456.868
-313.232
631.637
-166.232
-343.428
499.625
226.669
-96.8099
367.33
274.644
-189.761
-5.26572
350.909
-204.085
150.536
360.385
-131.645
-13.6453
437.143
-173.774
92.1469
419.409
11.2988
-0.576621
447.271
-42.3187
31.3867
459.061
47.8436
0.105862
484.613
30.6904
6.50842
501.296
65.4487
-1.61878
517.934
55.046
-3.31152
528.626
61.8088
-10.2106
530.515
48.0922
-16.0096
525.644
42.5585
-14.3765
511.222
31.6713
-2.04326
495.528
26.0781
14.1278
486.465
20.0275
28.9045
16.191
17.9348
34.7914
89.9328
-341.653
-30.1847
-471.382
-324.5
600.428
-441.673
-167.605
784.739
-333.621
18.3907
810.042
-29.635
435.326
729.889
125.544
252.599
645.286
11.6058
204.338
-24.0329
4.31461
-28.0534
547.502
35.1366
63.0231
30.2519
33.8279
28.0896
507.451
16.7771
37.1311
-10.2628
11.931
-13.4178
493.671
21.3715
16.824
14.6894
19.575
12.9002
500.362
16.1713
11.5112
-0.925828
13.4649
-3.40695
512.828
19.3591
6.44559
9.9356
17.665
8.53376
529.796
17.38
9.12023
4.06897
15.7464
2.72354
543.098
18.0846
6.46791
7.87578
17.2119
7.86977
556.172
38.3026
7.46195
560.696
41.0749
6.93816
553.428
42.4422
10.3842
540.138
45.3255
18.9002
525.432
45.3665
32.9407
32.6177
22.0059
3827.5
-1835.63
-7185.82
1454.45
-380.106
-259.84
559.844
-517.797
280.577
493.781
-364.539
361.213
549.877
-64.5407
206.679
123.454
52.5545
30.225
101.383
107.13
85.4545
78.7486
52.742
76.6622
-1.0308
125.804
12.4551
-2.16931
3.7868
-104.056
118.17
18.6968
-1.46142
-0.421877
-116.719
121.518
12.8993
-0.499434
-3.09888
-110.107
121.646
10.0326
2.89852
-2.82542
-118.952
126.961
9.23801
1.74948
-1.69156
-120.228
130.982
9.05578
1.24133
-1.75826
-127.715
137.093
8.79109
0.968442
-3.3116
-132.119
141.966
8.69959
2.85043
550.691
10.7825
3.09114
-136.967
-141.323
-126.791
-131.099
1.30644
11.3348
2.85501
547.52
45.0813
4.28361
532.795
56.3924
5.38374
519.345
59.0476
12.0526
514.67
58.2096
21.9336
39.4972
15.3553
320.981
-1280.08
325.62
318.093
-576.646
12.1175
171.488
-576.785
-283.08
206.419
-397.621
87.0777
108.28
-221.424
-88.9758
90.3522
93.7279
76.1357
19.1035
130.098
30.3733
-18.7409
-1.34006
-6.47136
-35.0107
34.0852
8.26928
0.467717
0.891771
-29.6059
-3.11571
31.3805
1.18298
-0.733569
-0.0464967
-32.0384
-4.82562
33.6101
3.25275
0.0476477
-1.5677
-31.4156
-3.81546
32.9581
2.41542
1.42516
-1.18158
-32.3302
-3.92428
33.9595
2.52994
0.946568
0.22776
-32.6025
-3.3918
34.272
1.91865
-0.42404
1.44301
-33.7477
-3.16389
35.5158
1.46013
-1.50735
1.61803
-34.8568
-2.72452
36.5918
0.875562
-1.50402
-35.5631
3.53814
150.032
1.84462
-2.05177
-36.9028
-34.4174
-35.6974
551.928
46.6432
0.751769
-142.491
-149.389
-131.302
-137.31
532.041
73.2088
7.62687
518.886
73.1966
12.3192
517.797
66.7779
12.7378
40.2521
7.89612
391.864
-321.904
2929.75
73.6934
-720.04
-215.081
-78.812
-549.617
-118.489
-67.5019
-439.49
-4.42115
28.2499
-316.656
-63.1811
-9.39099
20.4166
-11.8746
12.9591
-7.05647
60.9753
-30.86
-7.76804
1.57113
-6.62854
-28.2834
30.8204
3.9587
-1.43829
0.420655
-0.699976
-33.0091
33.5433
-0.189637
-0.065298
-1.26463
-1.786
-35.7958
36.5858
0.82435
1.43624
-2.53952
-2.39317
-38.5251
38.9112
2.17568
2.37093
-39.6564
-1.07737
-2.97774
39.7905
3.07933
0.841699
-40.2654
1.67156
-2.36755
2.54386
-1.87048
40.288
3.90069
-1.14091
-40.396
40.3759