/*--------------------------------*- C++ -*----------------------------------*\
  =========                 |
  \\      /  F ield         | OpenFOAM: The Open Source CFD Toolbox
   \\    /   O peration     | Website:  https://openfoam.org
    \\  /    A nd           | Version:  10
     \\/     M anipulation  |
\*---------------------------------------------------------------------------*/
FoamFile
{
    format      ascii;
    class       volScalarField;
    location    "6.9";
    object      turbidity;
}
// * * * * * * * * * * * * * * * * * * * * * * * * * * * * * * * * * * * * * //

dimensions      [0 0 0 0 0 0 0];

internalField   nonuniform List<scalar> 
12920
(
-0.0161051
-0.0285776
-0.0345358
-0.0384432
-0.0437689
-0.048689
-0.0563792
-0.0684055
-0.0878923
-0.125567
-0.186925
-0.252742
-0.306596
-0.347867
-0.378706
-0.400443
-0.414918
-0.424305
-0.429416
-0.43224
-0.00852661
-0.0310569
-0.0421903
-0.0517417
-0.0624683
-0.0756563
-0.0899944
-0.105343
-0.126549
-0.162811
-0.210613
-0.260043
-0.308004
-0.350669
-0.377341
-0.381222
-0.37236
-0.36413
-0.353511
-0.34069
-0.0211419
-0.0571959
-0.0698944
-0.0944266
-0.118065
-0.141028
-0.158542
-0.173942
-0.189681
-0.212238
-0.239807
-0.271466
-0.310904
-0.361171
-0.413857
-0.45747
-0.493859
-0.528246
-0.558485
-0.588015
-0.0107841
-0.0346653
-0.064516
-0.0945224
-0.118358
-0.13992
-0.161556
-0.184995
-0.210943
-0.242167
-0.282426
-0.333174
-0.393118
-0.456614
-0.514743
-0.568124
-0.618953
-0.666232
-0.705742
-0.740481
-0.00752047
-0.0168114
-0.0353739
-0.0656657
-0.0919097
-0.116229
-0.141249
-0.168508
-0.200874
-0.236356
-0.281621
-0.331419
-0.384113
-0.433951
-0.481152
-0.531595
-0.587592
-0.645113
-0.704466
-0.760457
-0.00950671
-0.0321883
-0.0513355
-0.0665769
-0.0822124
-0.104789
-0.132894
-0.165836
-0.200516
-0.235771
-0.271491
-0.306032
-0.337156
-0.364286
-0.387675
-0.414498
-0.447019
-0.486749
-0.542345
-0.623488
-0.0198276
-0.0228355
-0.0295051
-0.0354755
-0.0447201
-0.0678931
-0.104361
-0.147297
-0.190286
-0.231022
-0.267794
-0.300139
-0.327352
-0.349881
-0.369029
-0.387601
-0.408922
-0.437872
-0.480358
-0.542616
-0.0523092
-0.0274487
-0.0515786
-0.066453
-0.0777844
-0.0915707
-0.096093
-0.115707
-0.144739
-0.173369
-0.204278
-0.228952
-0.247431
-0.252089
-0.206193
-0.222445
-0.253317
-0.303757
-0.374723
-0.455305
-0.0487015
-0.0418382
-0.0723614
-0.0947062
-0.107946
-0.0989016
-0.0927085
-0.0959984
-0.111485
-0.129547
-0.149258
-0.163545
-0.166738
-0.151644
-0.109942
-0.114182
-0.158545
-0.219044
-0.296175
-0.371013
-0.0566542
-0.0518068
-0.068287
-0.10686
-0.132055
-0.107779
-0.0962084
-0.0900387
-0.0933819
-0.10006
-0.107954
-0.115598
-0.115527
-0.104379
-0.0870652
-0.104858
-0.140269
-0.188093
-0.247376
-0.301074
-0.0598657
-0.0661366
-0.0619684
-0.104314
-0.148537
-0.141634
-0.129111
-0.114568
-0.112387
-0.111154
-0.107584
-0.103196
-0.0988233
-0.0929851
-0.0870704
-0.11139
-0.139335
-0.176112
-0.219889
-0.261586
-0.0746156
-0.0638254
-0.0708646
-0.10427
-0.139712
-0.140502
-0.143135
-0.14618
-0.149197
-0.150155
-0.150768
-0.142984
-0.123407
-0.103417
-0.101539
-0.124161
-0.146415
-0.176094
-0.213459
-0.253645
-0.017404
-0.0492159
-0.0714328
-0.0905523
-0.110511
-0.135932
-0.137658
-0.146662
-0.16402
-0.176609
-0.187989
-0.185522
-0.172249
-0.155235
-0.161245
-0.175649
-0.192007
-0.214982
-0.245134
-0.281096
-0.0337848
-0.0557935
-0.0819877
-0.113751
-0.139697
-0.181224
-0.204631
-0.251499
-0.275785
-0.316261
-0.332996
-0.357258
-0.351461
-0.34767
-0.335335
-0.330764
-0.326933
-0.332007
-0.347006
-0.3756
-0.0486817
-0.057429
-0.0879512
-0.132437
-0.170467
-0.21727
-0.246102
-0.286743
-0.31729
-0.354448
-0.386427
-0.422742
-0.446902
-0.468094
-0.47487
-0.480138
-0.480163
-0.486348
-0.499506
-0.526517
-0.0551559
-0.0780642
-0.097369
-0.15931
-0.198539
-0.241141
-0.274753
-0.309392
-0.337759
-0.369031
-0.403883
-0.438919
-0.475723
-0.509784
-0.538655
-0.564613
-0.584888
-0.6061
-0.627107
-0.652848
-0.0637659
-0.0520229
-0.0521955
-0.0842628
-0.141344
-0.21535
-0.27241
-0.322722
-0.371776
-0.414067
-0.450051
-0.482681
-0.514121
-0.544485
-0.575032
-0.603203
-0.629657
-0.65498
-0.676916
-0.697698
-0.0205417
-0.0499181
-0.0713081
-0.101232
-0.141294
-0.174356
-0.220432
-0.273055
-0.332263
-0.378331
-0.423546
-0.454755
-0.485327
-0.508286
-0.53249
-0.552605
-0.573561
-0.592292
-0.610561
-0.629178
-0.0229976
-0.0664646
-0.0965058
-0.119668
-0.146644
-0.172714
-0.20575
-0.245344
-0.289738
-0.334737
-0.370375
-0.392097
-0.409573
-0.425684
-0.442871
-0.459269
-0.474801
-0.489486
-0.503617
-0.51935
-0.0693721
-0.0789329
-0.105508
-0.12647
-0.143094
-0.161755
-0.180189
-0.201632
-0.221716
-0.246435
-0.27228
-0.301447
-0.329737
-0.356706
-0.380663
-0.402368
-0.422922
-0.444938
-0.469616
-0.495878
-0.00554004
-0.00542743
-0.00681333
-0.00830409
-0.0113517
-0.0173024
-0.0279648
-0.0449447
-0.0698835
-0.0995785
-0.12567
-0.143704
-0.157882
-0.169644
-0.176943
-0.179086
-0.176006
-0.169517
-0.157827
-0.146085
-0.00722104
-0.0104677
-0.0116647
-0.0138081
-0.0173561
-0.0250612
-0.0388566
-0.0563813
-0.0746428
-0.0837849
-0.0838879
-0.084366
-0.0848393
-0.0763835
-0.0581524
-0.0446384
-0.0370861
-0.0344124
-0.034626
-0.0365928
-0.00987392
-0.0167872
-0.0178366
-0.0293561
-0.0372909
-0.0418349
-0.0495573
-0.0547947
-0.061785
-0.0630238
-0.0636649
-0.0686335
-0.0785184
-0.079273
-0.067302
-0.0595611
-0.0594736
-0.064553
-0.0722678
-0.0821033
-0.0136041
-0.0243658
-0.0282368
-0.027641
-0.0331603
-0.0282611
-0.0286001
-0.0288046
-0.0356759
-0.0405283
-0.0493322
-0.0585276
-0.0667254
-0.0661136
-0.0646478
-0.068525
-0.0754313
-0.0833596
-0.0906803
-0.0982727
-0.00364468
-0.0113488
-0.0274717
-0.0318477
-0.0355055
-0.0302177
-0.0275709
-0.0218382
-0.0229434
-0.0277261
-0.0353685
-0.0437868
-0.0539753
-0.0638212
-0.0780557
-0.0956673
-0.112806
-0.124132
-0.129695
-0.127436
-0.0113447
-0.014566
-0.0209208
-0.0171558
-0.0234273
-0.0274585
-0.0343593
-0.0298135
-0.0279856
-0.0251924
-0.0267683
-0.0310319
-0.0380704
-0.0486792
-0.0644626
-0.0881499
-0.122874
-0.166664
-0.196802
-0.183782
-0.00461323
-0.00507675
-0.0101544
-0.0152545
-0.0231107
-0.024861
-0.02265
-0.0264007
-0.0318735
-0.0323465
-0.0330436
-0.0365889
-0.045634
-0.0575442
-0.0742577
-0.0954065
-0.123219
-0.155336
-0.184873
-0.189397
-0.0305383
-0.00834522
-0.0157317
-0.0157705
-0.0135213
-0.0112215
-0.0130185
-0.0195407
-0.0273285
-0.0358237
-0.0404763
-0.0401056
-0.0420947
-0.0495883
-0.0522992
-0.0679087
-0.0897027
-0.115387
-0.137577
-0.137373
-0.0137971
-0.00732498
-0.0123315
-0.0126393
-0.0104931
-0.010255
-0.0107806
-0.014117
-0.0231034
-0.0442274
-0.0568896
-0.0456834
-0.0326821
-0.0295472
-0.0313652
-0.046561
-0.0674301
-0.0898686
-0.104011
-0.0985305
-0.0165408
-0.00989036
-0.0122863
-0.0177088
-0.0250728
-0.0198084
-0.0169889
-0.0187313
-0.030285
-0.0562246
-0.0678949
-0.0531749
-0.0320615
-0.0264448
-0.0333409
-0.0423901
-0.0541982
-0.0697265
-0.0780845
-0.0732149
-0.0249816
-0.0154627
-0.0152486
-0.0244939
-0.0462344
-0.0473532
-0.0616998
-0.0778858
-0.0881365
-0.0837693
-0.0696623
-0.0495777
-0.0351823
-0.0352467
-0.058466
-0.0507434
-0.0495939
-0.0553555
-0.0598204
-0.0590793
-0.016955
-0.0150564
-0.0177805
-0.0263008
-0.0508113
-0.0600354
-0.077495
-0.0980228
-0.100578
-0.108567
-0.123275
-0.129912
-0.118387
-0.106249
-0.09242
-0.0470312
-0.0442474
-0.0482941
-0.0532941
-0.0562504
-0.0160513
-0.0185996
-0.023219
-0.0221119
-0.0250354
-0.0252831
-0.0256694
-0.0292583
-0.0337927
-0.0499373
-0.0643481
-0.0759248
-0.0833209
-0.0832477
-0.0546628
-0.0508334
-0.0515547
-0.0549411
-0.0594555
-0.0650274
-0.0100231
-0.0152455
-0.021106
-0.0280523
-0.0382058
-0.0380207
-0.0357567
-0.0437155
-0.0402843
-0.0495165
-0.0585538
-0.0685077
-0.0742976
-0.0779862
-0.0780144
-0.0771748
-0.0786503
-0.082236
-0.0869685
-0.0936206
-0.0100664
-0.0128794
-0.0149577
-0.0243477
-0.0332458
-0.0338365
-0.0334171
-0.0317909
-0.0348165
-0.0385722
-0.0499675
-0.0582192
-0.0704467
-0.0796528
-0.0871609
-0.0914762
-0.0968651
-0.102087
-0.106782
-0.112057
-0.00630124
-0.0237345
-0.0309784
-0.0408395
-0.0260262
-0.0413032
-0.0323564
-0.031176
-0.0303403
-0.0324958
-0.0384713
-0.043033
-0.0514045
-0.0571585
-0.0664687
-0.0726121
-0.0812676
-0.0858923
-0.0887573
-0.0898373
-0.0128983
-0.0178465
-0.028685
-0.0435013
-0.057074
-0.0337519
-0.0320787
-0.0361744
-0.0396186
-0.0420859
-0.0433849
-0.0435649
-0.0452148
-0.0467493
-0.0497143
-0.0519196
-0.0546087
-0.0563179
-0.057512
-0.0585215
-0.0102579
-0.0171757
-0.0196786
-0.026721
-0.0300806
-0.0319148
-0.0388919
-0.0403416
-0.0427903
-0.0417956
-0.0414541
-0.0401347
-0.0393083
-0.0382538
-0.0377252
-0.037227
-0.0372301
-0.0372713
-0.0376428
-0.0380863
-0.00916174
-0.0167648
-0.0305357
-0.0346303
-0.0503044
-0.0571009
-0.0697049
-0.0715249
-0.0693575
-0.054947
-0.0423363
-0.035684
-0.0341755
-0.0346295
-0.035785
-0.0367678
-0.0378559
-0.0378331
-0.0368638
-0.0368729
-0.00634028
-0.0219299
-0.0397926
-0.0619642
-0.0803086
-0.0906346
-0.0947577
-0.0899137
-0.0857062
-0.0853426
-0.0935317
-0.10488
-0.117707
-0.128401
-0.138976
-0.149757
-0.163432
-0.180101
-0.197298
-0.208856
-0.00350637
-0.00690254
-0.00872811
-0.00936115
-0.0114582
-0.0159687
-0.0255145
-0.039313
-0.0573818
-0.0728817
-0.0825534
-0.0884088
-0.0939389
-0.0983972
-0.0998516
-0.0976693
-0.0922327
-0.0853921
-0.0760736
-0.066982
-0.00193885
-0.00579123
-0.00941684
-0.0119702
-0.0126875
-0.0148909
-0.0220024
-0.0304034
-0.0390111
-0.0399178
-0.0375514
-0.0348177
-0.0311694
-0.0264184
-0.0224766
-0.0206614
-0.020576
-0.0211792
-0.0224812
-0.0248735
-0.00627135
-0.00862342
-0.0130277
-0.0159499
-0.0149086
-0.0147145
-0.0187035
-0.022114
-0.0267708
-0.0289056
-0.0305822
-0.0316217
-0.0325373
-0.0310488
-0.0288824
-0.0287521
-0.0302218
-0.0324916
-0.0347779
-0.0371433
-0.00621429
-0.0133242
-0.0131742
-0.0110245
-0.0114143
-0.0107465
-0.0128368
-0.015575
-0.0194773
-0.0224339
-0.0254219
-0.0274895
-0.0290311
-0.0294931
-0.0302862
-0.0315453
-0.0327389
-0.0335937
-0.0339605
-0.0344018
-0.00855919
-0.0138741
-0.0195689
-0.0134213
-0.0139822
-0.0113045
-0.0113224
-0.0123791
-0.0150337
-0.0181715
-0.0218471
-0.0257843
-0.0304024
-0.0348852
-0.0394797
-0.043033
-0.0448458
-0.0443406
-0.0424049
-0.0395868
-0.00233162
-0.00935965
-0.00975993
-0.00603234
-0.00938971
-0.0094892
-0.0115867
-0.0112658
-0.0125724
-0.0147959
-0.0183346
-0.0233049
-0.0300957
-0.0387213
-0.0494509
-0.0619064
-0.075041
-0.0839393
-0.0816274
-0.0662013
-0.00172764
-0.0038454
-0.00768427
-0.00869429
-0.0111582
-0.00980079
-0.0101808
-0.0113971
-0.0130291
-0.01466
-0.017713
-0.0226407
-0.0297956
-0.038763
-0.0495704
-0.0614996
-0.0733394
-0.0825653
-0.0863759
-0.0776931
-0.012025
-0.00896084
-0.00644447
-0.00513311
-0.00537946
-0.00636194
-0.0078039
-0.0103677
-0.0126128
-0.0149375
-0.0167508
-0.0197678
-0.0247771
-0.032064
-0.042823
-0.0525157
-0.0608187
-0.0659587
-0.0663525
-0.0598299
-0.00290305
-0.00497646
-0.00556143
-0.00617612
-0.00659273
-0.00675936
-0.00727701
-0.00945464
-0.0129217
-0.0169233
-0.0172671
-0.0160556
-0.017346
-0.020653
-0.0283468
-0.0418291
-0.0504195
-0.0540907
-0.0522005
-0.0462305
-0.00420266
-0.0080031
-0.00935324
-0.0119778
-0.014278
-0.0114569
-0.0107534
-0.0125616
-0.017754
-0.0218461
-0.0194073
-0.0147764
-0.0151038
-0.0179105
-0.0215137
-0.0314368
-0.0386469
-0.0419275
-0.0401506
-0.0358448
-0.0086033
-0.0117908
-0.0130642
-0.017302
-0.0235767
-0.0249819
-0.031968
-0.0372784
-0.0370289
-0.0313884
-0.0259732
-0.0249479
-0.0312286
-0.0411323
-0.041067
-0.0278996
-0.0306398
-0.0325033
-0.0322109
-0.0309126
-0.00831592
-0.012385
-0.0144948
-0.0195926
-0.0306989
-0.0331598
-0.0373486
-0.0421042
-0.0417447
-0.0476134
-0.0587814
-0.0687534
-0.0729544
-0.0739296
-0.0429896
-0.0236222
-0.025626
-0.0277401
-0.0292912
-0.030213
-0.0135128
-0.0121897
-0.0125493
-0.0128367
-0.0155441
-0.0167268
-0.01813
-0.0194101
-0.0209412
-0.0266855
-0.0332675
-0.039038
-0.0401844
-0.0356453
-0.026071
-0.0268052
-0.0285072
-0.0306067
-0.032912
-0.0347869
-0.00455305
-0.00804824
-0.0107453
-0.0137431
-0.0170217
-0.0175856
-0.0173405
-0.0184591
-0.0197952
-0.0233763
-0.0268377
-0.0299349
-0.0318119
-0.0337673
-0.0347502
-0.0361581
-0.0380981
-0.0404939
-0.0428238
-0.0447354
-0.0037249
-0.0076013
-0.00969088
-0.0133431
-0.0156501
-0.0151598
-0.0151892
-0.015009
-0.0174804
-0.0194666
-0.0233496
-0.0259316
-0.029511
-0.0324635
-0.0355427
-0.0378893
-0.0403312
-0.0422125
-0.0432879
-0.0433897
-0.00627412
-0.0130457
-0.0145517
-0.0170133
-0.0132763
-0.0153128
-0.0136872
-0.0144046
-0.015815
-0.0171336
-0.0195788
-0.021106
-0.0236912
-0.0253479
-0.0278471
-0.0293357
-0.031166
-0.0316562
-0.0316653
-0.0309099
-0.00383176
-0.00693757
-0.0157693
-0.0206617
-0.0203953
-0.014837
-0.0148345
-0.0160249
-0.0170967
-0.0178372
-0.0185411
-0.0187693
-0.019348
-0.0196262
-0.0202494
-0.0205866
-0.0210907
-0.0212716
-0.0214024
-0.0213577
-0.007115
-0.00932935
-0.0124807
-0.0160876
-0.0201819
-0.0203844
-0.0206912
-0.0182033
-0.017467
-0.0169234
-0.0169877
-0.0169344
-0.017
-0.016952
-0.0169922
-0.0169377
-0.0169236
-0.0167932
-0.0167058
-0.0168004
-0.0222968
-0.0212128
-0.0264348
-0.0311433
-0.0395173
-0.039711
-0.0392958
-0.0331891
-0.0276401
-0.0219465
-0.0201459
-0.0207214
-0.0229706
-0.0255547
-0.0285488
-0.0310552
-0.0330908
-0.033492
-0.0324892
-0.0304141
-0.00572738
-0.0142508
-0.0243272
-0.0391977
-0.0525355
-0.0572261
-0.0539541
-0.0442852
-0.0375799
-0.0345653
-0.0370078
-0.0415006
-0.0472213
-0.0527188
-0.0590443
-0.0670603
-0.0779121
-0.0908491
-0.102967
-0.110606
-0.00164722
-0.00481992
-0.00649221
-0.00728479
-0.00963866
-0.0130035
-0.0197039
-0.0275859
-0.0381086
-0.0447278
-0.0482437
-0.0499094
-0.0512789
-0.0510789
-0.0485213
-0.0436006
-0.036625
-0.0304123
-0.0250113
-0.0214202
-0.000941317
-0.00260655
-0.0053176
-0.00723863
-0.00823358
-0.00992311
-0.0135004
-0.0166299
-0.0199861
-0.0200311
-0.0192256
-0.0178772
-0.0166577
-0.0157366
-0.0155479
-0.0157732
-0.0161624
-0.0166696
-0.0174112
-0.0184816
-0.00112223
-0.00595342
-0.00883024
-0.00877769
-0.00898195
-0.0106436
-0.0133804
-0.0152982
-0.0172073
-0.0177807
-0.0180101
-0.0177337
-0.0177031
-0.0173716
-0.017212
-0.0174029
-0.0176936
-0.0179297
-0.018074
-0.018239
-0.00324153
-0.00896083
-0.00918881
-0.00746798
-0.0077183
-0.00904188
-0.0112133
-0.0130332
-0.0147484
-0.0156654
-0.0165092
-0.0168595
-0.0170523
-0.0168108
-0.0165276
-0.0162232
-0.0159027
-0.0156607
-0.0155811
-0.0158263
-0.00885081
-0.00765416
-0.00943321
-0.00674717
-0.00736033
-0.00775423
-0.00915341
-0.0108654
-0.0127328
-0.014384
-0.016111
-0.0174677
-0.0186692
-0.0191915
-0.0194131
-0.0191662
-0.0186028
-0.0178429
-0.0171659
-0.0167873
-0.00720567
-0.00468876
-0.00472678
-0.00442279
-0.00595916
-0.0066601
-0.00798187
-0.00932982
-0.0111665
-0.0133499
-0.0160379
-0.0189205
-0.0221868
-0.0252577
-0.0282577
-0.0307193
-0.0323956
-0.0316689
-0.0278634
-0.022629
-0.00300523
-0.00186508
-0.0032429
-0.00394338
-0.00561594
-0.00620001
-0.00746441
-0.00877841
-0.0105486
-0.0128791
-0.0159274
-0.0194708
-0.0234261
-0.0271553
-0.0306276
-0.0333873
-0.0352084
-0.0352124
-0.0333741
-0.0285111
-0.00193999
-0.00223437
-0.00283727
-0.00373616
-0.00484962
-0.0059274
-0.00685258
-0.00844404
-0.00982713
-0.0118975
-0.0142586
-0.0173584
-0.0209429
-0.0250156
-0.0272333
-0.0289595
-0.0296322
-0.0290072
-0.0270718
-0.0239145
-0.00222222
-0.00435944
-0.00477811
-0.00594414
-0.00645327
-0.00641452
-0.0066665
-0.00793441
-0.00943874
-0.0106963
-0.011697
-0.0130538
-0.0154585
-0.0191167
-0.0242207
-0.0253121
-0.025514
-0.0237994
-0.0208655
-0.0177593
-0.00804905
-0.00748936
-0.00788277
-0.00985084
-0.0104329
-0.00891715
-0.0086482
-0.00957886
-0.0106043
-0.0104313
-0.0100608
-0.0110221
-0.0122288
-0.0135165
-0.0183764
-0.0208625
-0.0209024
-0.0192442
-0.016707
-0.014509
-0.0134216
-0.0112607
-0.00988045
-0.013343
-0.014957
-0.0163665
-0.0193724
-0.0203163
-0.019821
-0.019495
-0.0221945
-0.0273773
-0.0264461
-0.020325
-0.0173201
-0.0175994
-0.0174863
-0.016546
-0.0154119
-0.0144496
-0.00779565
-0.00953935
-0.0117679
-0.0154535
-0.0182143
-0.0190089
-0.0198356
-0.0218954
-0.0245281
-0.0304924
-0.0380094
-0.0425516
-0.0383805
-0.0273175
-0.016553
-0.0153414
-0.0156329
-0.0156135
-0.0154287
-0.0148325
-0.00917007
-0.0093034
-0.00965744
-0.0110635
-0.0131288
-0.0129691
-0.013752
-0.0138129
-0.0148448
-0.0179265
-0.0197692
-0.0197842
-0.0179921
-0.0164452
-0.0157469
-0.0164068
-0.0168577
-0.0170994
-0.0169208
-0.01623
-0.00531888
-0.00878153
-0.0104059
-0.0118386
-0.0125718
-0.0117147
-0.011713
-0.0120751
-0.0130807
-0.0143284
-0.0151984
-0.0161719
-0.0167423
-0.0177729
-0.0184202
-0.0189799
-0.0192974
-0.0192333
-0.0187389
-0.0179694
-0.00249804
-0.00768542
-0.0100454
-0.0112294
-0.0109988
-0.0102684
-0.0105805
-0.0108587
-0.0121434
-0.0127931
-0.0140498
-0.0146537
-0.0156888
-0.0163167
-0.0170207
-0.0171102
-0.0171384
-0.0167318
-0.0161415
-0.0156529
-0.00811881
-0.00972752
-0.0106898
-0.0111281
-0.0096197
-0.0100866
-0.0100565
-0.0106566
-0.0113789
-0.0117747
-0.0125159
-0.0126988
-0.0132775
-0.0133132
-0.0136605
-0.0135318
-0.0136293
-0.0133696
-0.0132843
-0.0134757
-0.00172722
-0.00632854
-0.0101435
-0.0114164
-0.0108601
-0.0103227
-0.0105586
-0.0111739
-0.011543
-0.0117144
-0.0118055
-0.011711
-0.0117152
-0.0116495
-0.0116979
-0.011719
-0.0118468
-0.0120252
-0.012359
-0.0129357
-0.00827912
-0.00922592
-0.011449
-0.0128783
-0.0145074
-0.0130237
-0.0126025
-0.012186
-0.0126288
-0.0130462
-0.0135191
-0.0138168
-0.0141269
-0.0142512
-0.014319
-0.014184
-0.0139766
-0.0137052
-0.0135042
-0.0135634
-0.0438122
-0.0180502
-0.0218603
-0.0241887
-0.0251163
-0.0220513
-0.0190649
-0.0157822
-0.0144992
-0.014626
-0.0160232
-0.0179897
-0.0202904
-0.0225909
-0.0249528
-0.026712
-0.0277953
-0.0275727
-0.0262516
-0.0239426
-0.00431075
-0.00999699
-0.0199364
-0.030006
-0.0346218
-0.0306929
-0.0248302
-0.017902
-0.0148463
-0.0137968
-0.0150242
-0.0169637
-0.0198429
-0.0235002
-0.0288182
-0.0359509
-0.0445726
-0.0527817
-0.0582515
-0.0596178
-0.000404101
-0.00319811
-0.00609478
-0.00766586
-0.00939291
-0.0106103
-0.013375
-0.0154636
-0.0190681
-0.0199559
-0.0201663
-0.0193126
-0.018232
-0.0162731
-0.0138886
-0.0119852
-0.0114606
-0.012232
-0.0134291
-0.0144127
-0.000234045
-0.00120519
-0.00406951
-0.00730526
-0.00865756
-0.00923601
-0.00995696
-0.0102111
-0.0108458
-0.0105815
-0.0105929
-0.0105643
-0.0108229
-0.0111997
-0.0116772
-0.0122423
-0.0129037
-0.0135921
-0.014303
-0.0150594
-0.00155096
-0.00411705
-0.00657456
-0.00867839
-0.00968901
-0.0102581
-0.0109163
-0.0110928
-0.011512
-0.0114203
-0.0114654
-0.0113247
-0.0113696
-0.0113784
-0.0115956
-0.0120216
-0.012609
-0.013317
-0.0141006
-0.0148883
-0.00552074
-0.00612243
-0.00718053
-0.00804237
-0.00878365
-0.00947272
-0.0102568
-0.010706
-0.0111027
-0.0110597
-0.0110776
-0.0109436
-0.010988
-0.0111304
-0.0115158
-0.0120626
-0.0127097
-0.013405
-0.0141124
-0.0147691
-0.00400261
-0.00501737
-0.00605657
-0.00634857
-0.00725508
-0.00830766
-0.00932234
-0.0101123
-0.0106602
-0.0108443
-0.0110395
-0.0110672
-0.0112349
-0.0114097
-0.0117731
-0.0122174
-0.0127357
-0.0133194
-0.0139586
-0.0145941
-0.000688314
-0.00262171
-0.00450336
-0.00542236
-0.00636835
-0.00758869
-0.00859942
-0.00958189
-0.010405
-0.010964
-0.0115412
-0.0119086
-0.0123549
-0.0127313
-0.0131971
-0.0136448
-0.0140117
-0.0142155
-0.0143929
-0.0147175
-0.000917443
-0.00177907
-0.00347748
-0.00463548
-0.00564146
-0.00683558
-0.00799564
-0.00917703
-0.0101392
-0.0109933
-0.0117743
-0.012433
-0.0130341
-0.0134327
-0.0138926
-0.014245
-0.01453
-0.0146161
-0.0147118
-0.0147275
-0.00250928
-0.00240901
-0.00319659
-0.00450742
-0.00567455
-0.00675795
-0.00745206
-0.00881271
-0.00966429
-0.0106685
-0.0113505
-0.0120675
-0.0125712
-0.0130536
-0.0127777
-0.0129058
-0.013017
-0.0131356
-0.0133159
-0.0135864
-0.00317461
-0.0048514
-0.00484251
-0.00610725
-0.00679418
-0.00694481
-0.00715326
-0.00810853
-0.00907399
-0.00993214
-0.0107142
-0.0114632
-0.0120483
-0.0123434
-0.0121724
-0.0118293
-0.0117908
-0.0117847
-0.0119865
-0.0123456
-0.00955193
-0.00569828
-0.00710501
-0.00839023
-0.00877932
-0.00833636
-0.0081073
-0.00832329
-0.00867573
-0.00936426
-0.0102275
-0.011057
-0.0117588
-0.0120293
-0.010363
-0.010574
-0.0107501
-0.0109727
-0.0113905
-0.0119151
-0.00609081
-0.00696821
-0.00922979
-0.0107878
-0.0106257
-0.012002
-0.013109
-0.0136918
-0.0142557
-0.0150251
-0.0148836
-0.0132555
-0.0122183
-0.0116639
-0.00943668
-0.00997028
-0.0103933
-0.0108898
-0.0115446
-0.0122339
-0.00460533
-0.00605142
-0.0100006
-0.0117595
-0.0111594
-0.0119015
-0.0119047
-0.0133235
-0.0150665
-0.0170858
-0.0165875
-0.0137994
-0.0119847
-0.0107322
-0.00826306
-0.00980328
-0.0105726
-0.0114124
-0.0123246
-0.0132147
-0.0111591
-0.00801644
-0.00862941
-0.0102857
-0.0106843
-0.00964509
-0.00980234
-0.00987457
-0.0100223
-0.0102214
-0.00994222
-0.00954098
-0.00906615
-0.00859797
-0.00980782
-0.0105743
-0.0113853
-0.0123807
-0.0134398
-0.0145065
-0.00333899
-0.00902593
-0.0104965
-0.0100151
-0.00938343
-0.00865266
-0.00871984
-0.00853938
-0.00847047
-0.00855067
-0.00859822
-0.00893146
-0.00921795
-0.00981588
-0.0104296
-0.0111698
-0.0120424
-0.0130523
-0.0141784
-0.01533
-0.00345619
-0.00766981
-0.00958691
-0.009017
-0.00832402
-0.0081081
-0.00821514
-0.00812993
-0.00815848
-0.00812074
-0.00832659
-0.00856619
-0.00902894
-0.00958052
-0.0103035
-0.011126
-0.0121393
-0.0132974
-0.0145695
-0.0157881
-0.0107529
-0.00902859
-0.00898368
-0.00866013
-0.00807572
-0.00815743
-0.00802215
-0.00811971
-0.00802321
-0.00807967
-0.00822139
-0.00847173
-0.00891158
-0.00946152
-0.0102127
-0.0110966
-0.012174
-0.0133995
-0.0147492
-0.0160001
-0.00728742
-0.00793085
-0.00875201
-0.00886312
-0.00865574
-0.00863798
-0.00860383
-0.00864581
-0.00850337
-0.00852228
-0.00858282
-0.00882759
-0.00922237
-0.00978402
-0.0105065
-0.0113727
-0.0123911
-0.0135517
-0.0148348
-0.0160375
-0.00869873
-0.00958147
-0.00908557
-0.00897004
-0.00927501
-0.00953679
-0.0100815
-0.0102767
-0.0105106
-0.0103744
-0.010386
-0.010275
-0.0103324
-0.0104294
-0.010738
-0.0112062
-0.0118973
-0.0127797
-0.0138571
-0.0149617
-0.0270604
-0.0150084
-0.0139351
-0.0116475
-0.0108658
-0.0103156
-0.0106352
-0.0120082
-0.0134102
-0.0149761
-0.0162144
-0.0169926
-0.0173068
-0.0168413
-0.0160623
-0.0149709
-0.014031
-0.0133697
-0.0132176
-0.0136288
-0.0109754
-0.0164357
-0.0183351
-0.0161945
-0.0138955
-0.00973122
-0.00842861
-0.00778176
-0.00863597
-0.0102064
-0.0126711
-0.0158259
-0.0194202
-0.0228912
-0.0256504
-0.0270661
-0.0269216
-0.0249833
-0.0216313
-0.0181776
-0.0205816
-0.0266274
-0.0218742
-0.0123614
-0.0117402
-0.0164475
-0.0166977
-0.0155276
-0.0207025
-0.0192355
-0.0116142
-0.0117179
-0.0172531
-0.0207759
-0.0272282
-0.0518244
-0.057636
-0.020948
-0.0214279
-0.0357848
-0.0406584
-0.0244039
-0.0596157
-0.0640401
-0.0222658
-0.0268645
-0.0424197
-0.0472816
-0.0933022
-0.0922604
-0.0889539
-0.085004
-0.08061
-0.0776357
-0.0738536
-0.106603
-0.0893711
-0.0942585
-0.0833007
-0.0979113
-0.0739552
-0.0831088
-0.124207
-0.0965397
-0.103491
-0.105475
-0.122508
-0.0889015
-0.103411
-0.144189
-0.105735
-0.113031
-0.128309
-0.141794
-0.107121
-0.116636
-0.160452
-0.115563
-0.122495
-0.145474
-0.149366
-0.118986
-0.118873
-0.167814
-0.124173
-0.124973
-0.147903
-0.132868
-0.113628
-0.0838563
-0.157536
-0.123271
-0.113296
-0.124796
-0.10154
-0.0734953
-0.050666
-0.132131
-0.108995
-0.0962276
-0.0933337
-0.0758829
-0.0461678
-0.0410446
-0.0904478
-0.108991
-0.104135
-0.0805242
-0.0744368
-0.102076
-0.102268
-0.0920013
-0.103251
-0.102014
-0.0740241
-0.0826794
-0.102292
-0.103656
-0.0982925
-0.10196
-0.102528
-0.0874477
-0.0989098
-0.104308
-0.105811
-0.10588
-0.102834
-0.103319
-0.101987
-0.110218
-0.10599
-0.10503
-0.114021
-0.103312
-0.103092
-0.11239
-0.112772
-0.104166
-0.0985006
-0.116724
-0.102941
-0.101711
-0.108334
-0.0813853
-0.0947552
-0.0769976
-0.10779
-0.100896
-0.097005
-0.0717994
-0.0505958
-0.0707073
-0.056159
-0.0939318
-0.0952561
-0.0891359
-0.046549
-0.0426878
-0.053429
-0.0533568
-0.116354
-0.144432
-0.143768
-0.124443
-0.117269
-0.140267
-0.143194
-0.112593
-0.144069
-0.14508
-0.116215
-0.115303
-0.144203
-0.146698
-0.111598
-0.145234
-0.144492
-0.115298
-0.114289
-0.147244
-0.147924
-0.108684
-0.144209
-0.14295
-0.11341
-0.108797
-0.1479
-0.146339
-0.104246
-0.141475
-0.131648
-0.106668
-0.0980664
-0.144871
-0.136706
-0.100008
-0.12745
-0.114557
-0.0941172
-0.0786728
-0.133022
-0.119938
-0.0946209
-0.110384
-0.0991162
-0.0732786
-0.0607426
-0.115174
-0.102417
-0.0874619
-0.0959275
-0.0880496
-0.0586111
-0.0601986
-0.0993669
-0.0952035
-0.145253
-0.138961
-0.143571
-0.138512
-0.143384
-0.136016
-0.139425
-0.148636
-0.146372
-0.154637
-0.14507
-0.149216
-0.139022
-0.143092
-0.149928
-0.157393
-0.162334
-0.15023
-0.152386
-0.146864
-0.155006
-0.150932
-0.163918
-0.169434
-0.152927
-0.153785
-0.157031
-0.161499
-0.146097
-0.17025
-0.168588
-0.153504
-0.149516
-0.161857
-0.155866
-0.129039
-0.16659
-0.156865
-0.147008
-0.13575
-0.151076
-0.139667
-0.107798
-0.151236
-0.132545
-0.131141
-0.117887
-0.137968
-0.134688
-0.0931275
-0.126947
-0.115053
-0.11424
-0.106762
-0.132637
-0.121724
-0.012561
-0.0115796
-0.014031
-0.0104839
-0.0125976
-0.0112178
-0.0139011
-0.0197184
-0.0152102
-0.0214169
-0.0142159
-0.0187346
-0.0150751
-0.0198317
-0.0376432
-0.0254961
-0.0457372
-0.02058
-0.0249677
-0.0215764
-0.0261671
-0.0554509
-0.0526045
-0.0663473
-0.02635
-0.027866
-0.0272291
-0.0276995
-0.050527
-0.0679871
-0.0594304
-0.0275451
-0.0252192
-0.0268375
-0.0219639
-0.0347683
-0.0526304
-0.0351668
-0.0242202
-0.0223389
-0.0201676
-0.0167648
-0.0297583
-0.0314026
-0.0259404
-0.022172
-0.0228357
-0.0164015
-0.0170215
-0.0305628
-0.0256445
-0.0277443
-0.0235448
-0.0270571
-0.0175985
-0.0198436
-0.0177511
-0.0418187
-0.0539001
-0.0157738
-0.0169415
-0.0343544
-0.0378355
-0.0253715
-0.0579385
-0.0703964
-0.017872
-0.0219835
-0.0384162
-0.0390549
-0.0503558
-0.0735913
-0.0771233
-0.0234888
-0.0273737
-0.0387286
-0.0357603
-0.0669235
-0.0764368
-0.0679282
-0.0281532
-0.0278428
-0.0344609
-0.0291089
-0.0595507
-0.0642334
-0.0505754
-0.0268278
-0.0218603
-0.0274624
-0.0233757
-0.0359125
-0.0453983
-0.0333733
-0.0201364
-0.0171923
-0.0226518
-0.0231586
-0.0265731
-0.0310377
-0.0291444
-0.0170908
-0.0187357
-0.0243273
-0.0303727
-0.029556
-0.0302178
-0.0383772
-0.0196579
-0.0223511
-0.0329131
-0.0394941
-0.0735372
-0.0802086
-0.0958309
-0.0475849
-0.0473182
-0.0564257
-0.0573244
-0.0868416
-0.0988308
-0.105225
-0.0475562
-0.0468327
-0.0571072
-0.0566325
-0.0860364
-0.106956
-0.112375
-0.0458377
-0.0410938
-0.0568125
-0.0590052
-0.0738104
-0.114541
-0.121478
-0.0393041
-0.0339048
-0.0604164
-0.06653
-0.0548358
-0.122829
-0.12061
-0.0321806
-0.0282918
-0.0687033
-0.0729461
-0.0373955
-0.117923
-0.105661
-0.0277879
-0.0291572
-0.0733279
-0.0726204
-0.0338559
-0.100905
-0.0901182
-0.0305836
-0.0374485
-0.0724565
-0.0741581
-0.0450874
-0.0885847
-0.0897816
-0.040345
-0.0479874
-0.0751664
-0.0743114
-0.0956354
-0.046727
-0.0550799
-0.0547141
-0.056382
-0.0374648
-0.0398277
-0.0998204
-0.0523979
-0.0421806
-0.0553549
-0.0523252
-0.0384508
-0.0338416
-0.105938
-0.0435678
-0.0535061
-0.0520776
-0.0541173
-0.0338465
-0.0366542
-0.119305
-0.0578791
-0.0724656
-0.0557517
-0.0638695
-0.0384876
-0.0456931
-0.130142
-0.0786894
-0.0939431
-0.0673723
-0.076584
-0.0487105
-0.0578629
-0.122205
-0.0976153
-0.105479
-0.0784194
-0.0805506
-0.0606556
-0.0674624
-0.108411
-0.108297
-0.113721
-0.08092
-0.0825567
-0.0693419
-0.0706892
-0.102422
-0.113485
-0.103801
-0.0827566
-0.0770486
-0.0688436
-0.056112
-0.00860544
-0.00829929
-0.0101524
-0.00734661
-0.00889827
-0.00851229
-0.0104333
-0.0117789
-0.010911
-0.014294
-0.00971688
-0.0112133
-0.0109515
-0.0120854
-0.0160576
-0.0158602
-0.0199815
-0.011697
-0.0125083
-0.012292
-0.0123902
-0.0174679
-0.0207073
-0.0200728
-0.0127578
-0.0132318
-0.0122683
-0.011711
-0.0161226
-0.019024
-0.0153227
-0.0134731
-0.014134
-0.0115286
-0.0112281
-0.0167685
-0.0145399
-0.0139064
-0.014575
-0.0161621
-0.0112586
-0.0117382
-0.019517
-0.01411
-0.0153374
-0.0170215
-0.0201875
-0.0119998
-0.0131748
-0.0250838
-0.0158566
-0.0177278
-0.0218093
-0.0276169
-0.0137963
-0.01708
-0.0118426
-0.0229891
-0.0280262
-0.0106926
-0.01168
-0.0189497
-0.0193372
-0.0161756
-0.0290846
-0.0307739
-0.0119998
-0.0126526
-0.0191635
-0.0182215
-0.0213726
-0.0306175
-0.0282946
-0.0127434
-0.0125582
-0.017781
-0.0164478
-0.0173661
-0.0218605
-0.0231511
-0.0170608
-0.0227529
-0.0167996
-0.0178674
-0.014429
-0.0180165
-0.0196639
-0.01483
-0.0182433
-0.0141048
-0.0151088
-0.0146237
-0.0194333
-0.0226348
-0.0119299
-0.0128312
-0.0222833
-0.0255149
-0.0171978
-0.0244664
-0.0309857
-0.0131246
-0.0138711
-0.025763
-0.0239855
-0.019583
-0.0330802
-0.0365768
-0.0141749
-0.0161095
-0.0228458
-0.0194242
-0.0363334
-0.0388707
-0.0439881
-0.0248258
-0.0239763
-0.02852
-0.0285706
-0.0377319
-0.0444854
-0.0459867
-0.0237581
-0.0228057
-0.0287282
-0.0301957
-0.0335311
-0.046757
-0.050235
-0.0223766
-0.0212335
-0.031011
-0.0343803
-0.0345486
-0.0301262
-0.0404852
-0.0260262
-0.0396225
-0.0266577
-0.0347571
-0.0361051
-0.0249733
-0.0374775
-0.0272329
-0.036894
-0.0274768
-0.0354253
-0.029111
-0.064851
-0.0663457
-0.0287125
-0.0321074
-0.0484933
-0.0497169
-0.0387043
-0.06694
-0.0693747
-0.0321277
-0.0290692
-0.0489856
-0.0430013
-0.0449936
-0.069786
-0.0646256
-0.0273839
-0.0219855
-0.0397808
-0.0283269
-0.0424884
-0.0241411
-0.0268378
-0.0275804
-0.0271247
-0.0214972
-0.0212178
-0.0412496
-0.0255125
-0.0226553
-0.0268548
-0.0275629
-0.0205463
-0.0199754
-0.0456132
-0.0232556
-0.0274816
-0.0283487
-0.0321145
-0.0205288
-0.0236272
-0.0556689
-0.0295864
-0.0371227
-0.0338179
-0.039926
-0.0250738
-0.029626
-0.0669202
-0.0403362
-0.0499534
-0.0420974
-0.0477614
-0.0312242
-0.0348581
-0.0721167
-0.0526685
-0.0581552
-0.0490353
-0.049824
-0.035258
-0.0337801
-0.0745147
-0.0592781
-0.0578349
-0.0488468
-0.0420411
-0.0326135
-0.0271551
-0.0644069
-0.0552439
-0.0426021
-0.0385162
-0.0269649
-0.0249602
-0.0195222
-0.00741944
-0.00740327
-0.00841536
-0.00678508
-0.00755994
-0.00752113
-0.00812729
-0.00900239
-0.00877627
-0.00987651