/*--------------------------------*- C++ -*----------------------------------*\
  =========                 |
  \\      /  F ield         | OpenFOAM: The Open Source CFD Toolbox
   \\    /   O peration     | Website:  https://openfoam.org
    \\  /    A nd           | Version:  10
     \\/     M anipulation  |
\*---------------------------------------------------------------------------*/
FoamFile
{
    format      ascii;
    class       volVectorField;
    location    "6.9";
    object      U;
}
// * * * * * * * * * * * * * * * * * * * * * * * * * * * * * * * * * * * * * //

dimensions      [0 1 -1 0 0 0 0];

internalField   nonuniform List<vector> 
12920
(
(79.9976 -60.1479 6.91711)
(-40.5702 -5.15303 -4.3178)
(91.0326 3.42509 -5.22589)
(79.5944 9.34899 -14.6698)
(139.917 5.78661 -13.8277)
(157.516 6.90927 -20.2709)
(204.338 6.36019 -20.4952)
(231.639 10.8285 -13.7517)
(237.186 12.3771 -0.931551)
(196.018 9.47917 8.25557)
(148.003 -0.0761283 9.11466)
(121.348 -5.93103 4.6414)
(115.493 -8.49516 3.08726)
(110.376 -9.6507 2.64178)
(110.738 -9.99235 2.21345)
(109.755 -10.1924 1.88715)
(110.536 -10.5343 1.37449)
(111.759 -10.2711 1.36986)
(112.458 -11.1296 1.09291)
(119.577 -11.8173 1.08539)
(255.194 80.0583 108.746)
(-25.3786 -14.4406 -4.52414)
(102.036 -21.2514 -11.5328)
(87.1688 -15.7652 -9.40983)
(136.763 -4.3783 -6.65748)
(145.093 -9.29236 -4.33049)
(174.921 -7.51316 -0.675869)
(178.175 -7.61083 2.958)
(176.576 5.70752 9.12512)
(141.688 14.7909 9.00874)
(128.222 12.804 4.2877)
(111.817 5.63801 1.83811)
(108.153 -1.70788 1.49744)
(97.0441 -4.88211 1.22564)
(92.9506 -5.62112 0.285712)
(88.0512 -4.06319 -0.441268)
(87.7677 -2.6074 -1.09157)
(87.4162 -2.04789 -1.31)
(87.7067 -1.49768 -1.58005)
(91.6208 0.276838 -1.73982)
(213.303 34.1894 -23.6084)
(7.64834 -25.9897 -19.6313)
(100.692 23.4424 -12.6943)
(39.1191 -0.64143 -0.237745)
(94.3004 3.84222 4.91465)
(70.5039 -12.1907 3.52302)
(97.4893 -8.93272 3.43515)
(88.654 -5.33615 2.36986)
(100.253 3.23189 3.09079)
(99.7559 6.55131 2.25933)
(107.765 4.23983 1.16453)
(108.001 1.46898 0.443409)
(106.349 -1.17489 0.80139)
(94.5019 -0.733111 0.962513)
(86.8406 -0.991653 0.353167)
(80.0405 -0.985242 -0.196649)
(78.8976 -1.4797 -0.466431)
(77.2588 -2.1122 -0.433619)
(76.8219 -2.9542 -0.498676)
(79.5294 -2.3319 -0.316513)
(282.992 -221.591 84.9707)
(65.2285 -65.2624 38.4106)
(145.848 -23.2149 25.254)
(41.7027 -43.9186 5.68679)
(88.4523 -41.7852 7.13718)
(51.5446 -42.0413 2.1593)
(81.2127 -34.6648 2.23854)
(69.2489 -25.5867 0.711735)
(83.2574 -16.0854 0.769792)
(82.5374 -7.35304 0.304302)
(89.4922 -1.79296 0.117178)
(86.1774 2.30556 0.0513929)
(83.8929 6.27955 0.564157)
(74.8377 7.93652 0.366077)
(73.0817 6.86408 -0.103241)
(68.7983 5.22536 -0.198611)
(68.8932 3.51205 -0.185184)
(67.3976 2.32874 -0.0862112)
(67.709 1.48077 -0.0916175)
(69.3916 1.77025 -0.120334)
(294.999 -280.775 -91.5153)
(255.203 -188.652 -30.7945)
(264.419 -26.5904 22.7077)
(103.947 -4.71553 14.4232)
(124.474 -16.3209 8.46826)
(85.7553 -25.3103 3.13576)
(105.016 -24.6096 2.62697)
(84.7232 -13.9432 0.697111)
(89.6965 -9.24458 0.249601)
(80.3555 -1.2122 -0.55566)
(82.6354 1.6345 -0.303825)
(78.0613 5.77244 -0.332849)
(78.8699 6.81234 0.0540224)
(75.994 7.54572 -0.0194951)
(76.8117 6.02806 -0.159252)
(74.4037 4.55959 -0.221363)
(74.3749 1.46118 -0.094797)
(70.9663 -1.13152 -0.147986)
(69.4185 -2.71683 0.00757292)
(70.2138 -1.27216 0.0457267)
(345.555 -111.347 205.337)
(110.028 5.97132 3.96936)
(152.032 21.0945 7.31191)
(78.8352 -17.6008 -3.16392)
(124.043 -59.0062 1.16228)
(81.1174 -52.2469 0.244703)
(104.42 -42.0401 2.85543)
(85.0201 -20.4187 1.03459)
(89.6808 -10.189 0.959009)
(82.1429 -1.58046 0.0119517)
(84.6502 2.00483 -0.0706297)
(82.9961 6.32114 -0.158659)
(85.2801 8.08787 -0.27285)
(86.1847 9.63546 -0.425661)
(88.7419 9.39367 -0.718911)
(91.0979 8.83284 -0.719996)
(93.3333 7.31821 -0.389191)
(91.7708 6.72279 0.232343)
(85.9623 3.04718 1.37609)
(76.9633 2.01927 0.737302)
(97.5914 -92.7741 22.7609)
(162.579 -71.5592 -13.1406)
(322.793 -30.0713 -10.6644)
(334.409 -12.3835 -6.49568)
(326.649 -12.1948 13.5123)
(201.119 -23.8947 12.5875)
(158.351 -36.9061 2.43773)
(116.109 -7.35378 0.281116)
(105.128 -9.24057 0.681676)
(89.7861 2.71784 0.526013)
(89.3435 1.94405 0.113504)
(85.8688 5.88001 0.16787)
(87.7338 5.65434 0.202118)
(87.8838 6.29205 0.273858)
(90.5509 5.68343 0.367943)
(94.1575 3.96903 0.29627)
(97.3765 2.70788 0.459059)
(97.5707 2.91774 0.73661)
(95.937 4.47978 0.953909)
(88.4472 4.73392 0.66856)
(-134.321 -210.847 -23.9324)
(-116.045 -83.6109 -32.0376)
(179.947 -52.7541 -8.41222)
(71.8678 -54.5112 7.77342)
(148.267 -6.64759 6.83938)
(86.5025 17.2166 -0.0607539)
(109.498 8.7533 -0.570908)
(90.1568 3.64949 -0.541661)
(94.5236 7.51851 -0.131136)
(86.1091 1.80917 0.0130794)
(85.6451 4.32997 0.0294699)
(82.874 3.42462 -0.0986713)
(83.4325 4.56571 -0.117732)
(83.8377 3.69404 -0.0809205)
(85.5565 1.3409 0.31544)
(88.9901 0.683973 0.163176)
(91.7819 1.36387 0.0726721)
(91.3596 2.79728 0.162873)
(88.6225 6.25735 0.59099)
(83.2128 6.72747 0.487817)
(141.576 -237.13 -106.497)
(-78.7594 -81.8578 0.340443)
(149.384 -115.333 -3.15711)
(-5.66033 -66.4268 3.20403)
(112.54 -39.4399 0.629602)
(77.6942 -17.8714 -0.995537)
(106.733 5.15491 0.738739)
(98.7925 -1.38988 -0.27875)
(101.957 7.95815 -0.294183)
(94.578 6.49714 -0.134548)
(88.5486 5.91119 0.0953384)
(82.4597 4.85198 -0.0365702)
(80.3313 4.54631 -0.214784)
(81.7097 2.16852 -0.298892)
(86.7255 -2.30495 -0.48571)
(90.7885 -2.07103 -0.379653)
(91.8142 0.34417 -0.0441597)
(89.9841 3.67141 0.0931776)
(84.437 9.03998 0.636615)
(81.2266 8.36835 0.160031)
(33.7502 98.6878 37.3462)
(-13.9868 -37.0224 -4.95876)
(108.131 -52.9834 -7.11155)
(-42.5186 -45.8637 1.83563)
(95.7596 -32.5553 -0.460041)
(20.1056 -16.3444 -2.70404)
(79.0684 2.45383 -1.18927)
(91.0624 2.96693 -0.576947)
(99.9494 9.8301 -0.0799206)
(103.177 9.4124 0.0922404)
(102.226 9.22158 0.00453773)
(96.7587 12.1939 0.244085)
(91.8446 10.4714 -0.372048)
(93.4184 7.66862 -0.627364)
(96.0647 2.12911 -1.23932)
(95.6536 -1.60668 -0.579822)
(95.0072 1.79981 -0.436179)
(90.5576 7.83555 0.0358468)
(85.5755 11.9025 0.504926)
(83.2163 10.1942 -0.143733)
(-1.85409 37.3335 26.6861)
(-73.2314 -94.6399 -15.5035)
(158.015 -59.7281 -13.4722)
(24.3735 -55.5353 -2.17119)
(117.399 -41.382 2.68219)
(52.9691 -24.2172 -1.65706)
(65.6566 -12.3683 -0.0841578)
(74.5749 -3.88641 0.288086)
(81.7897 -1.46319 0.365294)
(89.9231 0.762349 0.418575)
(98.3029 5.32294 0.259817)
(104.49 10.9502 0.0476989)
(109.412 12.8775 -0.090934)
(110.918 13.4678 -0.191329)
(108.514 8.595 -0.0607231)
(97.3689 2.6704 -0.32027)
(94.9856 6.90103 -0.689242)
(91.3604 11.087 -0.22071)
(89.3772 14.3561 -0.0225757)
(88.6365 12.9221 -0.343817)
(127.267 -13.9212 88.2008)
(-32.0562 -42.8759 -6.64581)
(180.067 -21.339 -17.1885)
(56.1353 -4.25513 2.25029)
(124.878 -18.6759 3.39367)
(37.2455 -19.4445 -1.17951)
(77.3036 -24.768 0.204902)
(79.2931 -12.6173 0.157335)
(82.9832 -12.2515 0.229644)
(89.1374 -10.093 0.375829)
(94.0466 -11.2661 0.431563)
(97.5318 -4.69966 0.990117)
(108.985 6.25774 0.599877)
(113.382 13.642 0.193764)
(106.582 8.73675 1.05143)
(89.5827 8.86459 -0.486381)
(89.206 11.0246 -0.981761)
(88.8734 13.2864 -0.756344)
(88.8479 15.3184 -0.340878)
(88.905 13.7277 -0.104613)
(220.034 -57.6759 171.038)
(95.8343 -70.5759 -1.11955)
(188.352 -51.31 -1.78832)
(119.163 -24.8908 -1.5523)
(164.012 -14.4393 1.13464)
(115.701 -40.322 -1.49504)
(129.344 -18.3174 -1.95941)
(97.9224 -16.1636 -1.2668)
(101.654 -14.8546 -0.553523)
(81.1795 -14.7126 0.192133)
(81.6253 -10.5796 0.125453)
(69.9486 -5.31882 -0.239036)
(76.3236 0.91576 -0.871404)
(77.5868 7.52014 -0.00959789)
(77.6108 10.8269 -0.142544)
(79.1617 9.78399 -0.394569)
(81.616 12.7094 -0.570923)
(83.0637 14.2372 -0.517247)
(85.1066 16.097 -0.285654)
(86.8224 13.4828 0.149071)
(82.6944 71.637 -46.916)
(4.34117 4.78274 -22.541)
(175.783 -11.8416 -9.63576)
(92.0304 -16.8324 -1.96278)
(144.549 -6.6129 3.43985)
(73.4401 -19.852 1.51441)
(99.0728 22.0762 1.08531)
(61.2486 -22.4346 1.30814)
(79.687 5.70004 0.00866785)
(59.3002 -14.3413 0.252662)
(69.1323 1.83753 -0.14496)
(60.299 -6.09308 -0.0400045)
(67.1085 3.66747 -0.0350832)
(66.024 1.48367 0.0913561)
(71.5536 6.53275 0.103938)
(72.3528 6.9339 -0.115902)
(76.2569 9.94818 -0.0106841)
(77.6823 10.9371 0.108221)
(80.7878 12.5928 0.161453)
(83.4506 10.8541 0.343434)
(61.4569 39.4251 46.7573)
(-35.093 -37.2191 -28.9844)
(165.708 -27.6912 -6.92846)
(44.7452 -18.1588 1.01648)
(127.327 12.0324 2.30044)
(46.1156 -16.0471 0.692463)
(101.131 9.60186 0.602866)
(63.1515 -11.4928 0.296623)
(82.9883 -0.0781758 0.0119783)
(66.4151 -8.16657 -0.0972417)
(73.1215 -0.351105 -0.0120164)
(65.2757 -2.54429 -0.0893751)
(67.8144 2.16773 0.0846784)
(65.2186 2.1985 0.113999)
(66.7328 5.0252 0.135405)
(66.9974 4.93827 0.0941684)
(69.2711 7.23398 0.159877)
(70.6338 7.44959 0.199075)
(72.7462 9.21499 0.227323)
(75.2913 8.57571 0.255292)
(276.109 246.186 -77.3348)
(96.0612 80.1908 -22.8408)
(185.736 -0.0913351 7.92513)
(-13.5438 -0.853159 2.4005)
(131.308 2.5939 0.101376)
(16.6721 -8.18729 1.23052)
(98.3187 10.0695 0.501716)
(43.212 -10.1691 -0.00715724)
(82.594 5.44812 -0.276347)
(56.6006 -5.58429 -0.327661)
(73.944 3.7857 -0.211034)
(61.5395 -1.31802 -0.282612)
(69.1524 3.6773 -0.0918383)
(63.6749 1.48667 -0.129313)
(67.8413 4.12681 -0.0125286)
(66.1362 3.62852 -0.0102171)
(68.6469 5.25995 0.0799898)
(68.8401 5.06881 0.105293)
(70.1143 6.4854 0.118498)
(72.214 6.5004 0.113921)
(287.144 74.4644 -10.0915)
(120.495 25.5269 34.5827)
(228.031 -6.76325 12.6458)
(129.018 -2.30274 6.73364)
(140.29 -4.99796 10.2785)
(43.7327 -3.8001 0.0926109)
(97.7159 -7.47704 0.120577)
(45.8309 -6.26555 -0.93083)
(80.6795 -4.14475 -0.38371)
(55.9147 -3.27372 -0.246279)
(72.0145 -0.550579 -0.116815)
(60.6192 0.074328 -0.112047)
(67.7566 1.85477 -0.0523922)
(63.1093 2.29557 -0.0572482)
(66.6614 3.28652 -0.0581795)
(65.5485 3.37468 -0.0660068)
(68.1293 4.13817 -0.0914631)
(68.9618 4.01267 -0.0661815)
(70.5116 5.11154 -0.0742725)
(72.9162 5.44125 -0.0259156)
(114.583 -146.247 53.2995)
(83.3188 1.57692 6.0482)
(164.51 18.7104 2.04023)
(73.2938 34.9011 -1.35343)
(123.895 42.8512 2.17077)
(43.0396 21.9616 -3.7918)
(99.3257 13.8792 -2.52002)
(52.0956 4.68087 -1.90737)
(85.4262 1.65182 -0.55395)
(61.4194 0.0201887 -0.480685)
(77.7094 1.36408 -0.0837493)
(65.9362 1.00272 -0.222324)
(73.4824 2.18338 -0.105858)
(68.1089 1.68154 -0.254265)
(71.9263 2.23349 -0.187188)
(70.1549 1.91981 -0.255131)
(72.5831 2.21932 -0.289286)
(73.1556 1.76139 -0.352542)
(74.5912 2.78693 -0.377953)
(77.6318 3.80804 -0.269727)
(30.378 95.5704 28.4552)
(-46.123 3.06405 -30.7643)
(115.181 6.07667 -7.05937)
(33.8578 32.8816 -1.53112)
(126.126 28.9892 1.73702)
(66.1771 28.0324 -0.443089)
(116.678 6.59377 -0.0679338)
(81.0633 5.60033 -0.177284)
(100.268 -4.80863 0.160798)
(77.5716 0.022333 0.11908)
(85.7579 -1.83039 0.00988042)
(74.6909 2.22085 -0.322978)
(79.5587 1.8607 -0.589877)
(75.2058 3.62323 -0.799519)
(78.2676 3.2652 -0.968885)
(77.1348 3.75036 -1.03375)
(79.5934 3.24775 -1.17515)
(81.4408 2.96681 -1.20854)
(83.5147 2.81976 -1.14278)
(87.0817 3.54172 -0.853251)
(38.8772 -1.57951 1.08124)
(18.9864 -6.49283 -18.2226)
(146.782 -4.99022 -10.9493)
(104.046 24.8094 5.70779)
(160.092 21.4306 7.05287)
(129.451 24.6637 6.7591)
(155.642 15.4563 4.87418)
(135.631 13.1224 2.91788)
(145.223 8.81967 2.06552)
(131.677 7.36747 1.71116)
(133.748 5.9355 1.99476)
(124.553 6.05037 2.11159)
(124.061 6.30856 2.13746)
(119.36 6.80375 1.89245)
(119.764 6.91136 1.65481)
(118.335 6.53807 1.32336)
(119.245 5.16056 1.10798)
(118.078 3.77138 0.929364)
(116.625 3.88052 0.937307)
(115.784 4.92753 1.04549)
(90.7892 -39.4175 -53.1366)
(-58.0317 22.5171 -37.3792)
(89.0303 -11.7787 -14.7738)
(53.4168 -14.0499 -18.8613)
(108.135 -17.5315 -9.4606)
(100.299 -15.4393 -9.82765)
(123.79 -14.1098 -5.64889)
(121.288 -11.7149 -3.69577)
(134.898 -7.14999 9.49107)
(127.011 -3.01296 16.4946)
(122.988 -3.16154 15.4909)
(112.601 -5.08483 8.53929)
(111.923 -6.37753 5.67785)
(110.524 -6.32521 4.94176)
(112.388 -6.0078 4.41694)
(113.159 -5.65039 3.8029)
(115.541 -5.23817 3.07942)
(117.89 -4.336 2.38912)
(119.078 -5.39216 1.54897)
(126.409 -5.07657 1.4667)
(171.964 -6.79552 17.8077)
(39.0856 -42.0534 29.8306)
(144.588 -57.2332 -5.69051)
(97.2619 -45.3249 -10.4757)
(117.499 -27.7705 -7.09673)
(97.609 -25.3982 -6.7098)
(114.756 -18.6438 -1.58106)
(107.987 -14.5714 1.93017)
(114.905 -0.488789 11.4176)
(105.48 8.43622 11.0499)
(105.729 8.81829 6.59415)
(95.7454 5.07713 3.10244)
(94.239 0.166228 2.018)
(88.4514 -2.03285 1.35187)
(87.7583 -2.45777 -0.0573501)
(84.7513 -1.7795 -1.14606)
(84.7817 -1.07785 -2.17519)
(84.2925 -1.1216 -2.28105)
(84.3244 -0.834871 -2.69133)
(86.6406 -0.075192 -2.85966)
(254.881 -149.628 152.881)
(113.415 -35.0409 61.4751)
(129.126 26.8554 13.526)
(36.3331 -7.54126 5.71)
(83.3524 -0.826223 7.45634)
(54.272 -14.4007 2.30224)
(83.1775 -9.05589 3.07329)
(71.2456 -5.44471 0.881189)
(83.7288 3.00696 3.31802)
(82.489 6.93116 2.75051)
(89.5069 5.77347 1.8904)
(87.1341 4.42596 0.910832)
(86.5416 1.55814 1.48126)
(79.4621 1.40269 1.40507)
(76.4589 0.627037 0.426533)
(71.9163 0.204544 -0.420603)
(71.5066 -0.585457 -0.826291)
(70.0033 -1.2495 -0.76891)
(69.5177 -1.95358 -0.879496)
(71.4549 -1.54291 -0.676544)
(226.61 -79.5851 -61.5853)
(-52.2955 -21.0682 49.3152)
(115.866 -8.22727 25.7057)
(-0.79629 -34.4443 1.95092)
(73.8825 -29.1263 6.47898)
(34.6514 -30.2911 0.085568)
(69.1395 -23.7857 2.30001)
(55.2145 -15.6458 0.11334)
(70.4881 -7.57984 1.28269)
(68.5943 0.0188874 0.484297)
(75.1497 3.3975 0.533814)
(71.8378 5.93067 0.332977)
(71.7604 6.65984 0.998627)
(66.6078 6.98755 0.497738)
(65.896 5.12471 -0.181353)
(62.3168 3.52571 -0.387432)
(62.5478 1.8965 -0.4202)
(61.0438 0.946555 -0.225786)
(61.1222 0.404732 -0.201451)
(62.5101 0.776359 -0.324738)
(247.935 -137.728 -135.428)
(56.7074 -54.8515 -11.3403)
(137.802 -2.06244 61.2996)
(36.9581 -3.69489 21.5397)
(95.4846 -12.351 14.1959)
(56.153 -16.4192 3.09108)
(85.142 -16.1271 4.14679)
(64.8087 -7.38578 0.886251)
(73.6572 -4.49523 0.754419)
(65.0744 2.43982 -0.571604)
(69.2223 3.90669 -0.159558)
(65.4746 6.90556 -0.351607)
(67.5816 6.86597 0.129064)
(65.6242 7.15097 -0.0897864)
(66.8986 5.29959 -0.253011)
(64.585 3.93616 -0.354718)
(64.7772 1.34673 -0.159133)
(62.3455 -0.408719 -0.176622)
(61.4717 -1.60583 0.122709)
(62.6188 -0.592433 0.0604558)
(294.442 -348.251 79.9307)
(7.78149 -56.233 1.51821)
(122.393 1.80258 23.757)
(35.5419 -14.4427 -2.2938)
(95.3688 -40.8573 6.68052)
(45.868 -31.1032 -0.556151)
(80.5307 -27.7387 5.14102)
(60.537 -10.2801 0.72773)
(69.5939 -6.14695 1.47301)
(64.0189 1.08225 0.0584378)
(68.6816 2.95915 0.0947667)
(67.9832 6.16597 -0.170543)
(71.1041 6.75043 -0.312987)
(71.6 7.47317 -0.535732)
(73.8377 6.36367 -0.929324)
(73.9583 5.70316 -0.876189)
(75.0372 4.0583 -0.322598)
(72.231 2.88064 0.736015)
(69.2601 0.7997 2.00895)
(66.5358 1.03179 0.944929)
(171.607 -283.219 -7.45299)
(72.3712 -80.1211 -34.9663)
(192.121 -29.1336 4.92985)
(163.058 -20.7938 5.99004)
(195.498 -17.8041 28.4121)
(137.552 -15.2363 20.9817)
(120.84 -23.8199 10.4555)
(84.8503 -0.00336314 3.29898)
(81.0926 -5.08015 1.85506)
(70.8026 3.14509 1.10784)
(72.3728 1.11209 0.436505)
(70.3278 4.76094 0.400637)
(73.1478 3.83737 0.453831)
(73.6657 4.57673 0.416438)
(76.4118 3.6094 0.463003)
(78.3908 2.95518 0.426718)
(79.8489 2.79682 0.627803)
(79.0849 3.45683 1.04699)
(76.4969 4.46746 1.81021)
(72.8288 3.58704 0.972065)
(-25.8333 -158.637 277.722)
(-55.4277 -65.2696 -107.087)
(134.743 -62.9653 -40.4183)
(28.1442 -55.8787 8.36006)
(125.504 -3.36106 9.51311)
(62.2964 20.7115 1.83963)
(92.1868 6.67178 -1.42187)
(72.2312 5.43424 -1.76784)
(74.503 5.07639 -0.254648)
(69.1549 2.03268 0.246721)
(70.7099 2.81359 0.37362)
(70.2904 2.56988 0.174818)
(72.3873 2.91936 0.182571)
(73.9761 2.60867 0.395654)
(75.1686 2.0417 0.118435)
(76.3964 2.61643 0.171298)
(76.9637 3.49782 0.167859)
(74.9169 4.81941 0.441074)
(72.3228 6.28074 1.24295)
(71.1304 5.39452 0.672346)
(77.8988 -209.518 -11.6552)
(-72.4225 -72.7612 -9.13026)
(116.19 -96.5682 -18.5814)
(-26.5243 -53.4072 3.01855)
(101.631 -28.4203 -2.95282)
(67.0506 -2.96598 -3.17926)
(88.9719 7.59899 0.0819419)
(78.3833 -1.19107 -1.04943)
(79.0936 4.85645 -0.476873)
(75.0767 3.17023 0.82071)
(73.2891 3.41855 0.831308)
(71.6845 2.62016 0.143675)
(72.4612 2.18769 -0.629091)
(74.4229 0.637526 -0.912124)
(77.3582 -1.51096 -0.935928)
(77.9597 1.28855 -0.649865)
(77.2976 4.17149 0.039705)
(73.6819 6.44147 0.480246)
(71.1357 7.75371 0.914137)
(70.961 5.9219 0.190122)
(-19.4751 -72.4249 96.7425)
(-18.5485 -60.6688 -27.331)
(71.826 -55.2669 -11.2312)
(-49.2568 -43.4158 -0.668128)
(76.3724 -28.6151 -2.55452)
(19.0044 -9.2673 -4.49967)
(70.6441 4.57424 -2.15978)
(78.0673 1.07615 -1.00935)
(82.9798 4.15738 0.221605)
(86.107 4.65959 1.23013)
(85.5886 6.35934 0.894055)
(83.9192 6.68752 -0.214089)
(83.7359 4.79557 -1.96784)
(84.0982 2.15779 -2.53742)
(83.9134 -1.86014 -1.92704)
(81.6206 1.05854 -1.16433)
(79.2498 6.5362 -0.433396)
(75.0425 9.02799 0.395913)
(73.1696 9.53916 0.561836)
(72.7957 6.72081 -0.348657)
(80.7794 -51.6342 34.1462)
(-6.48248 -98.8748 -40.1407)
(135.465 -65.7065 -27.9143)
(-13.5683 -55.1087 -3.10336)
(106.665 -41.3688 -0.683013)
(36.2981 -26.4682 -3.7983)
(59.5418 -15.8871 0.845784)
(69.2054 -7.30539 1.84428)
(77.4243 -3.70471 2.62651)
(84.5371 -0.604045 2.57423)
(91.0206 3.65308 2.26431)
(96.4944 6.26987 0.676177)
(99.5642 6.55587 -0.560588)
(99.2994 5.25539 -1.08951)
(93.7082 0.00169434 0.075019)
(82.8452 4.34784 -1.09346)
(80.07 9.28632 -0.812631)
(77.2463 10.6542 -0.075305)
(76.4032 11.0717 -0.0557305)
(75.9966 7.64283 -0.509975)
(226.598 -170.833 71.4694)
(65.7096 -28.8317 -4.84105)
(149.342 -18.8923 -19.4671)
(28.6597 -11.0743 3.19389)
(110.427 -23.8959 4.88599)
(37.8801 -26.3161 -1.78335)
(74.5445 -28.5168 1.57047)
(74.5848 -14.4263 2.0001)
(76.8281 -11.0727 1.68712)
(80.8897 -7.58705 1.90034)
(86.2346 -4.69834 2.5237)
(91.7896 0.0510971 2.87937)
(97.8105 5.42599 0.9809)
(98.023 6.78841 0.906826)
(87.3343 5.66746 1.99598)
(78.1477 8.76868 -1.26709)
(77.3779 10.546 -1.20876)
(76.275 11.0587 -0.714512)
(76.1851 11.1802 -0.195936)
(76.3567 7.91566 0.0334786)
(224.044 135.705 -93.5361)
(94.0834 14.4661 -2.61782)
(176.595 -11.3474 5.23676)
(92.1814 -15.8195 -2.50683)
(147.488 -17.6848 2.53412)
(93.6955 -46.6166 -0.824416)
(108.917 -19.7923 -0.217517)
(75.4846 -16.8374 0.0657234)
(82.0355 -12.2469 0.247356)
(64.8036 -10.334 0.486355)
(71.4951 -4.87299 -0.351028)
(64.6942 -1.03977 -1.34249)
(71.1576 3.56869 -1.74887)
(69.0722 6.40996 -0.330181)
(69.4507 8.64429 -0.610831)
(70.5163 7.66124 -0.57104)
(72.4131 9.82939 -0.582773)
(72.9203 9.62874 -0.340874)
(74.0056 10.0669 0.0201946)
(75.0369 7.44527 0.392421)
(51.4524 179.073 10.5139)
(-71.607 -21.3681 -14.2858)
(156.082 -30.9008 -29.148)
(49.8397 -24.6833 -3.05677)
(127.614 -11.7863 1.20356)
(54.0551 -24.8842 1.28493)
(86.4837 19.4147 0.764001)
(47.8464 -26.9074 2.12065)
(68.1686 5.64535 -0.293218)
(47.7495 -15.7712 0.402989)
(59.8545 2.50772 -0.424507)
(51.5625 -6.37911 -0.0848405)
(59.5564 3.44114 -0.155133)
(58.335 0.273448 0.184671)
(63.9013 5.10885 0.135125)
(64.0297 4.96282 0.0102993)
(67.3508 7.15514 0.20954)
(68.2611 6.9646 0.336188)
(70.2237 7.97939 0.449478)
(71.716 6.68929 0.546254)
(121.488 -0.621936 -88.1884)
(-57.0168 -77.9087 -39.0174)
(147.043 -45.5233 -14.9384)
(20.9662 -22.0725 1.05508)
(116.81 7.93522 1.60001)
(31.5921 -18.2879 0.920909)
(92.299 9.79287 0.704699)
(50.4994 -12.6672 0.572578)
(72.9793 1.39004 0.120824)
(54.4276 -8.40242 -0.0851723)
(63.2419 0.292195 0.0828255)
(55.1904 -3.11864 -0.105443)
(59.2333 1.78463 0.203262)
(56.8911 1.0753 0.210166)
(59.1676 3.69555 0.309212)
(59.4686 3.17252 0.224794)
(61.9179 5.07194 0.336695)
(62.9693 4.83434 0.357647)
(64.4156 6.20865 0.394665)
(66.2518 5.70158 0.394215)
(322.976 79.2386 -8.73978)
(47.745 -24.5682 13.4678)
(166.138 -26.7165 22.3219)
(-25.283 -8.7307 6.04593)
(117.2 -0.304057 -0.786434)
(4.14342 -11.2479 2.58648)
(91.0006 8.92476 0.143872)
(33.8562 -11.5047 0.355587)
(75.0604 5.07927 -0.262015)
(46.824 -7.02507 -0.366385)
(65.5675 2.82898 -0.109354)
(52.0893 -3.02002 -0.350442)
(60.8906 2.27045 0.0502659)
(55.2108 -0.229619 -0.0638724)
(60.098 2.52742 0.16272)
(58.3982 1.87383 0.0830843)
(61.3414 3.42513 0.200313)
(61.5266 3.15237 0.154895)
(62.8279 4.4433 0.164957)
(64.5367 4.43892 0.122426)
(192.377 -100.655 -86.7102)
(48.7446 -38.7738 -15.0386)
(173.797 -29.9293 6.30378)
(37.3799 -2.1383 6.45858)
(118.842 -9.83652 13.8004)
(24.6747 -5.9324 -0.75065)
(91.5219 -7.0917 0.495554)
(38.7155 -6.06487 -1.05445)
(75.1008 -3.88336 -0.267129)
(49.4437 -4.04883 -0.375305)
(66.1622 -1.73104 -0.0821358)
(54.2353 -1.67656 -0.240001)
(61.7106 -0.112743 -0.0466656)
(56.7857 0.172672 -0.152976)
(60.5726 1.15331 -0.0493505)
(59.3417 1.31308 -0.0680878)
(62.0102 2.02476 -0.0617955)
(62.6191 2.09589 -0.102635)
(64.0224 3.15415 -0.166827)
(65.9365 3.51057 -0.10425)
(91.4678 -81.6121 -13.7322)
(1.31282 36.8344 -23.8497)
(127.476 23.0713 -13.4828)
(11.4138 25.4515 -6.42064)
(112.113 24.3413 -1.44294)
(30.6235 7.42602 -6.0392)
(93.1884 2.01619 -3.54488)
(45.0668 -2.04787 -2.46663)
(79.975 -2.07396 -0.55387)
(55.2726 -2.1058 -0.640288)
(72.2972 -0.40285 0.0192504)
(60.2738 -0.718594 -0.452753)
(68.2161 0.314663 -0.237281)
(62.838 -0.217996 -0.518187)
(66.8976 0.290509 -0.358572)
(65.0862 0.0382365 -0.466725)
(67.6923 0.212429 -0.421977)
(67.919 0.0658372 -0.525796)
(69.1969 0.997711 -0.535712)
(71.4662 1.9432 -0.407708)
(200.374 -8.23286 52.7314)
(-30.3778 -25.9569 5.24344)
(110.754 -20.2182 8.89678)
(15.1171 6.81504 -0.626791)
(122.845 -5.23493 0.858033)
(65.9423 0.344905 -2.61478)
(115.489 -12.5227 -1.76192)
(80.524 -5.11146 -1.29609)
(99.205 -9.6978 0.129517)
(78.2881 -3.07729 -0.184441)
(86.7114 -4.28136 -0.01097)
(76.7087 -0.677935 -0.720514)
(81.3161 -1.22163 -0.978259)
(77.2188 0.226149 -1.40998)
(79.9551 -0.202348 -1.53681)
(78.5983 0.139666 -1.68163)
(80.5934 -0.424527 -1.71791)
(80.9343 -0.386956 -1.68344)
(81.717 -0.329388 -1.60952)
(83.4221 0.695887 -1.29181)
(226.968 -49.1218 -55.9493)
(189.121 14.0603 -27.0495)
(177.379 -8.76857 -21.143)
(126.119 8.38335 3.68558)
(164.535 5.59521 8.49702)
(132.648 11.3411 8.94193)
(154.804 5.7961 7.0011)
(132.877 6.59135 4.20641)
(141.825 5.02992 3.83594)
(128.927 5.0581 3.18177)
(132.868 3.97827 3.77232)
(126.563 3.39196 3.69561)
(128.731 2.74213 3.73854)
(126.331 2.38305 3.33996)
(127.663 1.82979 3.07913)
(126.677 1.42313 2.66948)
(126.607 -0.222359 2.3983)
(123.844 -0.94231 2.33169)
(120.794 -0.400054 2.55532)
(118.907 0.921836 2.44606)
(74.1793 -264.68 -194.621)
(-87.1918 -40.5524 -25.0595)
(87.1101 -48.9127 -5.55655)
(32.0773 -27.7283 -13.4819)
(88.5207 -21.8447 -6.01597)
(65.3224 -12.075 -14.2631)
(87.9914 -9.88699 -11.4312)
(75.7779 -7.94788 -8.91345)
(87.602 -6.97877 2.31861)
(89.8003 -3.02817 11.1394)
(101.617 -1.98776 12.9889)
(103.482 -2.19191 8.95898)
(107.114 -2.67244 6.65623)
(108.402 -2.40189 5.66934)
(112.4 -1.88954 4.7208)
(114.66 -1.26671 3.5344)
(118.755 0.0854356 2.01465)
(121.375 0.224841 1.78571)
(124.055 -0.106572 0.915708)
(129.412 1.1995 1.04011)
(220.818 -99.6657 35.4151)
(127.774 -104.579 -2.16627)
(171.399 -77.2111 -12.9445)
(95.1438 -55.0169 -8.95037)
(103.384 -27.9061 -2.37524)
(68.6622 -23.427 -6.14599)
(81.8814 -14.7352 -1.86757)
(67.7009 -9.38217 0.149017)
(77.3001 -0.142058 8.38376)
(76.6676 5.81042 7.7587)
(83.7552 6.60857 5.39013)
(80.651 4.81328 2.46721)
(81.8138 1.7042 1.5131)
(79.2486 0.305903 0.673846)
(80.0723 -0.104189 -0.585419)
(78.4949 0.0542194 -1.52036)
(78.9443 0.385 -2.56595)
(78.4264 0.220781 -2.63876)
(78.2833 0.30009 -3.15539)
(80.0579 0.626074 -3.24297)
(211.375 -86.8673 85.0078)
(70.7324 -14.2358 9.46803)
(120.694 29.0468 15.5942)
(23.3107 -7.88978 5.66257)
(72.4568 2.03458 7.06307)
(36.659 -10.372 1.11014)
(67.8604 -4.52232 2.56647)
(52.3753 -2.29576 0.45425)
(66.6723 3.81766 2.9001)
(63.9735 6.88876 2.16863)
(72.0035 5.91389 1.7622)
(69.2483 4.98754 0.752817)
(70.5659 2.8373 1.35153)
(67.1291 2.55982 1.07107)
(66.7832 1.47413 0.262704)
(63.711 0.941376 -0.473067)
(63.6982 0.12892 -0.860447)
(62.2671 -0.599133 -0.771403)
(61.7241 -1.12803 -0.882216)
(63.0747 -0.800718 -0.808556)
(87.7255 51.6452 -33.4695)
(-79.6514 -0.720569 62.8661)
(98.0103 3.52886 19.4222)
(-16.4628 -27.9289 3.19098)
(62.3118 -18.8296 5.83032)
(16.9424 -22.778 -0.635918)
(55.9573 -17.1724 2.08705)
(39.2653 -10.3018 -0.185303)
(56.7198 -4.02991 1.37213)
(53.5524 2.27687 0.35874)
(61.3438 4.49863 0.640555)
(58.5236 6.19434 0.391777)
(60.5204 5.96132 0.824081)
(57.6984 5.93604 0.304236)
(57.9942 4.03433 -0.156243)
(55.0934 2.642 -0.388118)
(55.5568 1.20468 -0.425369)
(54.1993 0.434846 -0.222381)
(54.1991 0.08529 -0.224543)
(55.355 0.412141 -0.457307)
(34.9306 55.3068 -10.2382)
(-252.694 19.8309 14.2287)
(72.9038 8.21725 46.9919)
(-28.0317 -9.3471 14.4338)
(75.0293 -8.61986 12.622)
(29.9722 -12.0691 2.36963)
(68.3684 -11.9664 4.08214)
(46.7191 -4.32553 0.44687)
(59.7997 -2.9491 0.729207)
(51.4064 3.41266 -0.545558)
(57.5552 3.83314 -0.136498)
(54.2746 6.31549 -0.32081)
(57.4567 5.69 0.0635239)
(55.9715 5.89494 -0.157274)
(57.5812 4.09871 -0.240842)
(55.5521 2.94631 -0.33685)
(56.0677 0.764776 -0.147345)
(54.3473 -0.448642 -0.102181)
(53.8801 -1.15029 0.176806)
(55.3234 -0.353456 -0.0352406)
(58.7149 -144.981 40.6089)
(-130.216 -38.9545 32.8034)
(86.5128 -16.2209 25.8756)
(-18.8242 -23.8045 -1.61516)
(72.925 -34.4274 7.62077)
(15.1927 -21.3954 -1.37371)
(61.8035 -21.4603 4.24753)
(40.0053 -6.64562 -0.00377905)
(54.1239 -5.55095 1.24219)
(49.1075 1.36366 -0.0397818)
(55.8812 2.13882 0.110785)
(55.6394 5.03957 -0.261714)
(59.4453 4.9756 -0.30094)
(59.8482 5.6131 -0.518968)
(61.7266 4.21059 -0.795476)
(60.7596 3.65058 -0.757991)
(60.9813 2.11663 -0.206331)
(58.1295 1.07288 0.612205)
(57.1068 0.157526 1.51532)
(57.4211 0.628926 0.590418)
(130.997 56.082 65.6836)
(-83.1778 -62.2457 -12.5694)
(115.827 -38.6294 4.70611)
(35.7486 -35.9593 -2.25856)
(113.78 -21.9654 21.0499)
(67.7281 -14.3063 13.1183)
(84.8248 -20.8245 10.278)
(59.616 1.24466 3.34785)
(62.8184 -6.6606 1.80893)
(54.8751 2.17124 0.904745)
(58.7716 -0.661421 0.406489)
(57.4674 3.33634 0.287972)
(60.9738 2.08251 0.364106)
(61.3723 3.2041 0.287491)
(63.6617 2.61681 0.316988)
(64.3267 2.56042 0.308474)
(64.8494 2.54254 0.452316)
(63.0827 2.99572 0.872296)
(61.4323 3.15258 1.62675)
(61.1664 2.37687 0.799682)
(728.7 -172.399 -241.443)
(150.851 -64.899 -94.1284)
(138.697 -67.5343 -7.89025)
(3.99421 -49.181 13.272)
(104.653 -2.04607 9.1044)
(31.5851 20.5025 0.874369)
(69.7289 2.17572 -0.343541)
(52.4651 5.56832 -0.845101)
(56.7342 1.72332 -0.124937)
(54.0216 0.962758 0.412055)
(57.6048 0.846592 0.325912)
(58.3224 1.2254 0.161203)
(61.414 1.42529 0.150913)
(63.2181 1.6937 0.423527)
(63.879 2.14302 0.271797)
(63.7277 3.25566 0.250656)
(63.4799 3.9236 0.2008)
(61.075 4.51281 0.4904)
(59.9965 4.89204 1.11085)
(60.9184 3.77777 0.449676)
(129.805 -291.587 -31.8995)
(-17.6763 -63.2781 -16.3998)
(96.5889 -76.0618 -14.9677)
(-33.4067 -47.4159 3.7635)
(89.2451 -24.5359 -4.2957)
(48.2318 2.56238 -3.7512)
(67.0713 3.75032 0.677328)
(57.1495 -3.26502 -0.336136)
(61.0583 0.880185 0.0782838)
(59.8162 -0.0627463 1.13581)
(61.4784 0.691686 0.786015)
(61.9071 0.253942 -0.0431522)
(63.928 0.172599 -0.755682)
(65.679 -0.30391 -0.853741)
(67.1617 -0.644242 -0.563626)
(65.3259 3.10707 0.0974708)
(63.7801 5.09937 0.309228)
(61.2388 5.59418 0.552052)
(60.3668 5.63923 0.682538)
(61.5833 3.72242 0.0864232)
(125.17 24.6846 -37.2757)
(-0.791404 -65.8627 -24.9761)
(65.6704 -57.0333 -6.49935)
(-45.7675 -42.9819 -1.02279)
(61.3433 -27.8705 -2.82029)
(11.0421 -6.33453 -2.11343)
(58.3506 2.26558 -1.37872)
(63.1806 -3.10042 -0.412475)
(67.5053 -1.00082 0.569185)
(70.9826 0.810646 1.33752)
(72.5469 2.42879 0.613783)
(73.2104 2.0423 -1.01786)
(73.5478 0.595398 -2.46568)
(73.1786 -0.758795 -2.5419)
(71.5676 -1.1775 -1.19077)
(67.7257 3.79338 -0.218246)
(65.586 7.09785 0.0291194)
(63.0812 7.25353 0.440086)
(62.5275 6.58042 0.330003)
(63.0471 3.93489 -0.393196)
(156.929 -69.2296 14.3068)
(21.1233 -96.2378 -70.1591)
(123.436 -68.8576 -28.4253)
(-14.3764 -54.6825 -6.14884)
(93.5158 -41.8311 -2.82942)
(25.0135 -28.1692 -2.29524)
(49.9646 -17.6279 1.60206)
(60.1236 -9.69209 2.70584)
(68.2841 -5.72051 3.14712)
(75.2837 -0.970223 3.56937)
(83.6375 0.225842 1.28317)
(88.4774 1.97021 0.021436)
(87.9142 1.61525 -0.923663)
(84.4872 0.318389 -1.17464)
(76.6101 -0.45839 0.315339)
(68.0805 5.18883 -0.103262)
(66.5362 8.16186 -0.207393)
(65.2095 8.07712 0.0544031)
(65.0552 7.17968 -0.00223752)
(65.0012 3.77946 -0.455152)
(154.488 -56.3594 -23.7135)
(22.2338 -27.7866 -12.4464)
(133.562 -19.0041 -16.1817)
(10.2076 -14.5441 0.383263)
(98.2127 -24.7445 2.43707)
(29.6346 -31.9422 -1.52374)
(64.6427 -29.903 1.96474)
(64.5296 -14.782 2.3699)
(68.2306 -10.0899 1.90742)
(72.1616 -5.67354 2.18632)
(77.7144 -2.32646 2.55803)
(81.3452 1.23522 1.84137)
(83.0009 3.84683 0.512342)
(80.5115 3.73792 1.04018)
(72.7006 5.23434 0.955763)
(65.878 6.7555 -0.607952)
(65.5286 7.89989 -0.54792)
(64.7199 7.50195 -0.241741)
(65.0358 6.84744 0.19944)
(65.2491 4.01855 0.00587291)
(79.1155 133.387 92.7499)
(-9.08249 -27.2656 5.76183)
(155.224 -28.8821 0.763044)
(56.3299 -18.526 -3.22179)
(127.285 -21.177 2.31088)
(66.3205 -50.2774 -0.935937)
(87.851 -16.9461 1.93053)
(58.2816 -17.4554 1.09789)
(69.0291 -9.29549 0.700641)
(54.621 -7.91365 0.273252)
(63.6918 -1.90187 -0.817623)
(57.6895 0.451077 -1.51911)
(63.5789 4.07484 -1.52601)
(60.6356 4.88166 -0.447611)
(60.5683 6.37324 -0.171292)
(61.3347 4.86608 -0.182893)
(62.8482 6.48224 -0.199538)
(62.9863 5.70708 0.0828623)
(63.668 5.96638 0.310877)
(64.2876 4.07957 0.289556)
(121.236 90.8858 5.27898)
(15.0955 -31.9536 -17.9213)
(142.167 -42.5451 -35.3582)
(41.5991 -25.9132 -2.80097)
(114.42 -14.6253 -0.332683)
(37.2251 -27.1486 1.27147)
(74.7088 17.8678 0.159504)
(35.3175 -30.6234 1.92431)
(58.9459 5.83642 -0.591277)
(38.5774 -17.1846 0.278388)