/*--------------------------------*- C++ -*----------------------------------*\
  =========                 |
  \\      /  F ield         | OpenFOAM: The Open Source CFD Toolbox
   \\    /   O peration     | Website:  https://openfoam.org
    \\  /    A nd           | Version:  10
     \\/     M anipulation  |
\*---------------------------------------------------------------------------*/
FoamFile
{
    format      ascii;
    class       volVectorField;
    location    "6.9";
    object      U_0;
}
// * * * * * * * * * * * * * * * * * * * * * * * * * * * * * * * * * * * * * //

dimensions      [0 1 -1 0 0 0 0];

internalField   nonuniform List<vector> 
12920
(
(104.631 -99.4787 -0.245938)
(-12.0884 -11.5447 -6.1805)
(111.112 4.48509 -4.45922)
(100.78 10.6776 -13.9842)
(155.211 6.9393 -13.8611)
(170.639 8.10063 -20.2972)
(215.296 7.3969 -20.516)
(240.473 11.6879 -13.3758)
(243.625 12.9893 -0.642365)
(199.319 9.71067 8.56527)
(151.125 -0.013438 8.99388)
(124.156 -5.76048 4.59081)
(117.973 -8.30576 3.07683)
(112.459 -9.48003 2.64359)
(112.485 -9.85172 2.21858)
(111.232 -10.0903 1.88595)
(111.806 -10.4648 1.36597)
(112.854 -10.223 1.36544)
(114.054 -11.1156 1.09143)
(123.769 -11.807 1.08843)
(313.376 80.1271 127.751)
(39.8623 -8.27347 -2.61705)
(129.497 -13.6206 -11.1143)
(108.235 -10.4482 -9.18329)
(151.689 -0.212053 -6.61816)
(157.587 -5.55915 -4.27578)
(184.584 -4.61814 -0.651008)
(185.997 -5.1219 3.06872)
(182.384 8.04331 9.3028)
(145.858 16.4681 9.01382)
(131.798 13.7313 4.18418)
(114.768 6.36961 1.8221)
(110.551 -1.16434 1.49117)
(98.963 -4.42632 1.2003)
(94.5415 -5.21551 0.272922)
(89.4323 -3.74324 -0.45195)
(88.9538 -2.36171 -1.09913)
(88.4398 -1.86643 -1.3157)
(89.2598 -1.38039 -1.5865)
(95.6751 0.380286 -1.71751)
(229.594 90.472 -26.1734)
(25.8576 -1.3666 -19.1069)
(118.671 37.7975 -12.0738)
(55.9142 9.00613 -0.0801591)
(107.371 10.2432 4.73693)
(81.3714 -6.70582 3.56695)
(105.858 -4.86454 3.34249)
(95.5718 -1.83173 2.33961)
(105.739 6.10161 3.07571)
(104.366 8.64154 2.3023)
(111.415 5.74413 1.15205)
(110.821 2.73551 0.453139)
(108.539 -0.162958 0.838008)
(96.1773 0.0871619 0.997815)
(88.2797 -0.337599 0.34312)
(81.2994 -0.48563 -0.202351)
(79.9937 -1.10567 -0.470946)
(78.191 -1.84909 -0.441118)
(78.2865 -2.8035 -0.503886)
(83.4319 -2.24865 -0.268884)
(307.278 -210.993 101.077)
(76.9014 -44.468 38.8334)
(157.994 -11.6773 24.714)
(53.9354 -34.8894 5.98432)
(98.422 -33.3876 7.13895)
(60.5767 -34.9353 2.31775)
(88.0213 -28.9225 2.24201)
(75.4147 -20.9573 0.780956)
(88.1989 -12.3486 0.716179)
(86.7432 -4.4921 0.325307)
(92.7241 0.46739 0.168222)
(88.7059 4.19089 0.0875037)
(85.8429 7.83383 0.588725)
(76.3976 9.1891 0.379856)
(74.3784 7.8409 -0.0991692)
(69.9066 5.97685 -0.194499)
(69.8352 4.06108 -0.179626)
(68.1814 2.68348 -0.0790953)
(69.0488 1.66113 -0.0859503)
(73.1585 1.81487 -0.0604927)
(318.033 -261.898 -82.9289)
(281.547 -164.651 -27.964)
(276.973 -6.00909 23.3812)
(115.111 9.21338 14.6019)
(135.058 -5.89507 8.44623)
(93.4271 -17.136 3.15817)
(110.599 -17.9003 2.55344)
(89.2616 -8.68047 0.623713)
(93.2931 -5.05386 0.263022)
(83.5184 2.13656 -0.471514)
(85.2066 4.31553 -0.280271)
(80.104 7.9941 -0.292545)
(80.5332 8.65107 0.0803573)
(77.328 9.06608 -0.00681077)
(77.9005 7.24918 -0.158195)
(75.2784 5.50273 -0.218534)
(75.0682 2.14359 -0.0879586)
(71.501 -0.700024 -0.127735)
(70.5474 -2.47884 0.0309941)
(73.8593 -1.23769 0.119668)
(327.103 -68.3725 181.21)
(115.358 37.4811 -0.241809)
(157.239 42.7832 6.05001)
(84.8578 -2.34018 -3.15524)
(128.054 -49.1094 1.20563)
(85.578 -43.8777 0.544135)
(107.964 -34.7306 2.95635)
(88.5746 -14.6475 1.04833)
(92.5994 -5.61645 0.944323)
(84.7716 2.11603 -0.00717992)
(86.7664 4.91102 -0.0371923)
(84.7913 8.75791 -0.124555)
(86.693 10.1099 -0.246821)
(87.3055 11.329 -0.416577)
(89.6214 10.8256 -0.717633)
(91.7809 9.95722 -0.717047)
(93.8178 8.1605 -0.383529)
(92.0769 7.27578 0.25315)
(86.7506 3.32887 1.38876)
(80.3927 2.0458 0.804816)
(98.7688 -69.4333 20.1344)
(161.577 -48.9827 -14.831)
(329.294 -7.6442 -10.7997)
(341.474 3.64091 -6.20047)
(328.627 0.087726 14.3981)
(200.112 -15.1961 12.5263)
(159.56 -28.9527 1.96938)
(117.653 -1.12981 0.383448)
(106.648 -3.90051 0.739358)
(91.3304 6.87826 0.510515)
(90.6843 5.44674 0.140999)
(87.0674 8.71146 0.162594)
(88.7143 8.0316 0.194607)
(88.7048 8.27198 0.26117)
(91.1566 7.22762 0.369911)
(94.529 5.20448 0.29259)
(97.566 3.64142 0.453985)
(97.6313 3.55694 0.739676)
(96.5041 4.86786 0.962269)
(91.6493 4.81399 0.745715)
(-148.453 -198.848 -32.8451)
(-122.911 -72.5544 -31.2102)
(181.097 -32.0302 -8.31321)
(70.0085 -38.9654 7.70532)
(148.367 6.51409 6.66071)
(86.3547 27.3108 -0.245352)
(108.864 16.0442 -0.598061)
(91.522 9.68591 -0.524076)
(95.8955 12.5382 -0.15413)
(87.0112 5.78726 0.00503668)
(86.7665 7.65497 0.0299216)
(83.5639 6.06216 -0.0971381)
(84.1844 6.73589 -0.113866)
(84.3546 5.3948 -0.0752214)
(85.7576 3.06864 0.325251)
(89.0286 2.01624 0.168367)
(91.6286 2.34443 0.0545124)
(91.0961 3.47026 0.167183)
(88.8923 6.66355 0.606382)
(86.2165 6.82355 0.559984)
(139.187 -228.214 -112.5)
(-84.1595 -71.6193 1.8481)
(153.77 -101.631 -4.20834)
(-9.01811 -54.8096 2.85633)
(111.599 -29.0577 0.82277)
(74.9619 -7.9227 -1.01246)
(104.873 13.141 0.76983)
(98.8388 5.42304 -0.326624)
(102.137 13.3183 -0.281617)
(94.7035 10.8557 -0.107351)
(88.8466 9.53305 0.109264)
(82.6897 7.80776 -0.0197934)
(80.6939 7.003 -0.211378)
(82.0036 4.22045 -0.311977)
(86.7607 -0.705244 -0.454138)
(90.3145 -0.79128 -0.383303)
(91.2782 1.32971 -0.0471591)
(89.3659 4.37524 0.108321)
(84.4277 9.44232 0.652582)
(84.0237 8.43535 0.223719)
(12.3113 115.064 3.88615)
(-19.5618 -21.729 -4.83647)
(108.678 -42.1623 -8.1777)
(-49.2097 -37.4727 1.91698)
(93.6259 -24.2775 -0.410493)
(16.7743 -7.2492 -2.58868)
(75.6904 10.0912 -1.1675)
(89.8127 9.15762 -0.581889)
(99.2667 15.0041 -0.0779009)
(102.661 13.6469 0.0889029)
(101.883 12.8602 0.00443774)
(96.4149 15.2618 0.250741)
(91.7324 12.9798 -0.368276)
(93.3797 9.74922 -0.615758)
(95.7704 3.83259 -1.21366)
(94.7993 -0.445029 -0.569971)
(94.1464 2.772 -0.415324)
(89.6576 8.55246 0.0580664)
(85.3107 12.2889 0.52021)
(85.8163 10.2416 -0.0868417)
(-5.40213 52.4651 31.1025)
(-81.1747 -81.9133 -12.9822)
(155.938 -52.4358 -12.6429)
(17.3126 -49.3518 -2.41762)
(114.759 -35.3892 2.95777)
(48.984 -19.4245 -1.68417)
(62.2536 -7.68799 -0.0821974)
(72.0214 1.99184 0.374801)
(79.9018 4.11363 0.420481)
(88.6928 5.24418 0.455112)
(97.4899 8.71038 0.259122)
(103.833 13.7729 0.0417163)
(108.867 15.2496 -0.0886644)
(110.458 15.4044 -0.176215)
(107.786 9.92287 0.00861627)
(96.1802 3.78837 -0.320428)
(93.8455 7.83846 -0.676318)
(90.2113 11.7592 -0.200638)
(88.8562 14.7222 -0.0101799)
(91.0597 12.9785 -0.284969)
(117.263 23.7715 85.2911)
(-49.7881 -21.8061 -8.56295)
(175.78 -12.8136 -17.8892)
(46.7565 2.88572 1.96187)
(120.875 -13.9638 3.56792)
(31.9628 -15.496 -1.34338)
(74.513 -21.5826 0.139194)
(76.8866 -9.29391 0.133592)
(81.0456 -8.91853 0.204178)
(87.5083 -7.17354 0.34893)
(92.427 -8.45769 0.412525)
(96.1871 -1.88014 0.883174)
(108.228 8.6125 0.588672)
(112.557 15.4598 0.214494)
(105.346 10.0644 1.07291)
(88.1939 9.91918 -0.485245)
(87.8664 11.8516 -0.971766)
(87.5004 13.8977 -0.73499)
(88.0709 15.6594 -0.324128)
(91.1335 13.7849 -0.034336)
(198.025 -68.4622 191.624)
(62.7672 -61.9884 -1.76875)
(172.865 -47.4603 -0.209171)
(109.665 -19.3058 -1.30494)
(157.92 -10.263 1.17088)
(110.731 -36.8304 -1.57367)
(125.488 -15.1476 -1.94321)
(95.4022 -13.5405 -1.19658)
(99.4572 -12.5753 -0.493921)
(79.214 -12.5214 0.286756)
(79.7343 -8.47192 0.216667)
(68.4688 -3.15781 -0.165058)
(74.8011 2.73966 -0.84523)
(76.339 8.9113 0.00402869)
(76.0828 11.8542 -0.124297)
(77.6799 10.6548 -0.382902)
(80.1 13.4257 -0.560733)
(81.4941 14.7726 -0.497665)
(84.1049 16.3922 -0.263638)
(88.8634 13.5296 0.216404)
(69.3611 29.3082 -57.0997)
(-17.5403 -8.06744 -25.1924)
(166.716 -13.2051 -10.7969)
(83.8782 -16.1973 -2.2058)
(138.906 -3.85597 3.37788)
(68.9047 -17.3484 1.42853)
(96.0045 25.4661 1.06568)
(58.2515 -19.8994 1.26477)
(77.3352 8.2049 0.0729858)
(56.9798 -12.325 0.264043)
(67.1595 3.64472 -0.0616001)
(58.4237 -4.61305 -0.0102884)
(65.2264 5.00106 -0.0160726)
(64.2605 2.4862 0.102089)
(69.9139 7.38612 0.119393)
(70.7333 7.6255 -0.104074)
(74.5939 10.5278 0.00392971)
(75.9465 11.3596 0.126431)
(79.6074 12.8249 0.181686)
(85.32 10.9031 0.411024)
(68.757 30.0237 38.8697)
(-32.2567 -44.1561 -27.0289)
(163.952 -28.3294 -6.97711)
(38.8589 -18.6532 1.20853)
(123.352 14.256 2.21176)
(41.844 -14.4604 0.732225)
(98.2453 11.8085 0.67413)
(59.8863 -9.74922 0.318185)
(80.2901 1.56468 0.0451534)
(63.8249 -6.84772 -0.0938828)
(70.8185 0.837526 -0.00757055)
(63.125 -1.65526 -0.051452)
(65.8444 2.98545 0.107192)
(63.3608 2.96093 0.139825)
(64.9671 5.67624 0.14568)
(65.2497 5.45808 0.10515)
(67.4736 7.66534 0.172957)
(68.7475 7.75547 0.216988)
(71.405 9.38411 0.248182)
(77.0262 8.60314 0.323788)
(273.068 237.893 -78.5524)
(78.6443 71.6161 -18.3265)
(182.836 -4.55023 8.52484)
(-20.525 -2.19169 2.59541)
(128.532 2.70148 0.166918)
(11.9953 -7.77774 1.18394)
(95.6456 10.9596 0.65183)
(39.6405 -9.29466 0.0157679)
(79.8189 6.60501 -0.217408)
(53.8189 -4.66582 -0.30411)
(71.5421 4.69723 -0.175941)
(59.2934 -0.552371 -0.235462)
(67.1273 4.35439 -0.0665903)
(61.7211 2.03304 -0.0964415)
(65.9493 4.56948 0.00838394)
(64.2814 3.9556 0.0146917)
(66.752 5.51715 0.102249)
(66.8477 5.23116 0.127714)
(68.6595 6.57437 0.145079)
(73.8916 6.47974 0.18823)
(273.582 93.2917 39.684)
(137.875 25.0426 39.6305)
(230.17 -7.38918 13.6405)
(125.048 -2.38852 7.04363)
(137.276 -5.04425 10.6291)
(39.6979 -3.32911 0.109123)
(95.338 -7.30769 0.357827)
(42.6926 -5.8581 -0.860334)
(78.0283 -3.64472 -0.326306)
(53.0452 -2.79534 -0.224602)
(69.5728 -0.0230004 -0.0439501)
(58.2389 0.539674 -0.11123)
(65.5779 2.22585 -0.015284)
(61.0204 2.54089 -0.0220696)
(64.6819 3.47358 -0.014764)
(63.6148 3.49399 -0.020804)
(66.1709 4.21179 -0.0525292)
(66.9094 4.03897 -0.0320913)
(68.9907 5.10896 -0.037436)
(74.6104 5.37228 0.053845)
(98.6275 -153.616 66.3963)
(67.6325 -1.27472 5.1918)
(159.668 17.6894 1.59401)
(67.0979 34.95 -1.37348)
(121.162 43.3003 2.46872)
(38.9173 22.5608 -3.81332)
(96.5131 13.9972 -2.49697)
(48.8432 4.85764 -1.90634)
(82.6806 1.65116 -0.545056)
(58.6493 0.173844 -0.448251)
(75.2882 1.47748 -0.0922012)
(63.5346 1.1142 -0.250863)
(71.2419 2.27868 -0.0863859)
(65.9757 1.75301 -0.241714)
(69.9123 2.28244 -0.189861)
(68.1901 1.93368 -0.260641)
(70.5991 2.18993 -0.292542)
(71.0887 1.70029 -0.34747)
(73.0539 2.72554 -0.357569)
(79.4178 3.70823 -0.212901)
(50.5514 77.7568 29.0666)
(-25.4844 -5.60597 -27.0073)
(119.289 2.24758 -7.53303)
(32.8729 32.0381 -1.33527)
(125.26 28.4823 1.90062)
(62.8248 28.2456 -0.507916)
(114.004 6.48605 -0.0460034)
(77.8563 5.73382 -0.169809)
(97.4463 -4.7929 0.234407)
(74.7145 0.223999 0.11506)
(83.1954 -1.73378 -0.00608491)
(72.2657 2.32673 -0.333502)
(77.3222 1.95192 -0.597588)
(73.0668 3.70924 -0.806698)
(76.2257 3.32555 -0.977311)
(75.1225 3.78411 -1.04404)
(77.5656 3.22704 -1.1839)
(79.3559 2.91158 -1.21194)
(81.9549 2.75742 -1.13563)
(88.9881 3.42679 -0.818661)
(34.0123 14.7119 4.08277)
(18.5916 -4.66513 -17.8915)
(149.34 -3.84472 -10.9699)
(102.418 25.4644 5.75152)
(159.297 21.3129 7.06036)
(126.415 24.8091 6.74247)
(152.838 15.3665 4.86014)
(132.472 13.1759 2.88872)
(142.359 8.80425 2.06202)
(128.862 7.42721 1.70522)
(131.127 5.98314 1.99969)
(122.082 6.12472 2.10925)
(121.749 6.37119 2.12835)
(117.199 6.85234 1.88285)
(117.706 6.94428 1.64677)
(116.312 6.54692 1.31404)
(117.182 5.12324 1.09655)
(115.934 3.73604 0.928281)
(114.977 3.85989 0.945231)
(117.744 4.88677 1.06216)
(111.109 -55.0263 -47.81)
(-27.0188 19.7666 -41.0842)
(109.864 -10.5835 -12.8319)
(73.7552 -12.9329 -16.8602)
(122.473 -16.4691 -9.21971)
(112.425 -14.3315 -9.38515)
(133.546 -13.2081 -5.52708)
(129.356 -10.9713 -3.38946)
(141.173 -6.5513 10.0598)
(131.781 -2.48079 16.8195)
(126.818 -2.90232 15.3511)
(115.624 -4.85771 8.46639)
(114.477 -6.15895 5.65948)
(112.638 -6.14075 4.95761)
(114.165 -5.8524 4.42592)
(114.67 -5.53517 3.7984)
(116.838 -5.14577 3.06185)
(119.005 -4.27927 2.37268)
(120.692 -5.37347 1.53671)
(130.609 -5.03361 1.48463)
(207.137 6.12879 72.0393)
(94.2461 -34.571 40.0363)
(171.665 -50.2881 -3.87347)
(117.633 -40.5856 -9.92758)
(131.664 -23.878 -7.11482)
(109.276 -21.7922 -6.60115)
(123.944 -15.7807 -1.64938)
(115.513 -12.0792 2.18726)
(120.762 1.6517 11.6398)
(110.411 10.0547 11.2046)
(109.536 9.86071 6.54702)
(98.7161 5.85659 3.10522)
(96.6875 0.761186 2.00428)
(90.4471 -1.54791 1.31325)
(89.4122 -2.05863 -0.0944827)
(86.1494 -1.46904 -1.17553)
(85.978 -0.840576 -2.19316)
(85.3202 -0.946925 -2.29546)
(85.8877 -0.723131 -2.70998)
(90.6708 0.0336541 -2.77863)
(273.326 -88.2457 183.088)
(134.557 -7.3297 66.7291)
(146.258 41.2 14.0817)
(52.3289 1.89292 6.10209)
(96.2527 5.52228 7.02797)
(65.1282 -8.88742 2.3151)
(91.4498 -4.99111 2.79438)
(78.148 -1.97902 0.797581)
(89.2233 5.81365 3.36338)
(87.1038 9.02061 2.8937)
(93.0936 7.3628 1.9386)
(89.9156 5.718 0.960827)
(88.7521 2.5848 1.56534)
(81.23 2.23058 1.47356)
(77.9398 1.28046 0.431407)
(73.1986 0.703199 -0.415973)
(72.6108 -0.209856 -0.829371)
(70.9379 -0.981143 -0.776516)
(71.0028 -1.79801 -0.895163)
(75.3302 -1.44879 -0.531664)
(241.012 -59.0033 -58.9352)
(-42.8911 -5.60565 49.7589)
(127.071 2.24783 24.393)
(11.6878 -25.1549 1.98064)
(83.7613 -20.4944 6.55886)
(43.8053 -23.1329 0.387749)
(75.9419 -18.0137 2.33112)
(61.3786 -11.0168 0.212329)
(75.4002 -3.86629 1.1472)
(72.7839 2.88413 0.565529)
(78.3954 5.66626 0.652119)
(74.3736 7.7854 0.420258)
(73.7568 8.18196 1.06492)
(68.1949 8.21582 0.536807)
(67.2051 6.10017 -0.168129)
(63.4285 4.278 -0.378758)
(63.4949 2.45122 -0.407901)
(61.8267 1.31307 -0.213232)
(62.4776 0.598863 -0.184315)
(66.2472 0.833137 -0.143893)
(272.655 -130.823 -166.404)
(72.1281 -34.4529 -12.982)
(149.253 15.5971 60.2556)
(50.5297 9.57837 22.2762)
(106.07 -1.84132 14.2173)
(63.8871 -8.12051 3.13938)
(90.7236 -9.41138 4.01982)
(69.436 -2.18387 0.845216)
(77.3493 -0.306675 0.840201)
(68.2597 5.75706 -0.405238)
(71.7856 6.56681 -0.0692526)
(67.5271 9.10958 -0.249371)
(69.248 8.69934 0.199839)
(66.9597 8.66632 -0.058685)
(67.9834 6.52134 -0.24622)
(65.4553 4.88577 -0.349788)
(65.4808 2.03921 -0.142238)
(62.8968 0.0328235 -0.123216)
(62.6243 -1.36565 0.175819)
(66.2274 -0.558894 0.274742)
(285.209 -276.114 41.4905)
(18.4697 -22.2407 -6.44155)
(128.523 23.8662 20.656)
(42.5473 1.40419 -2.43245)
(100.036 -30.416 6.80876)
(50.7402 -22.5179 0.0144074)
(84.0457 -20.5678 5.40889)
(64.0948 -4.58763 0.917546)
(72.5763 -1.62599 1.5267)
(66.6368 4.71565 0.0589597)
(70.8492 5.84408 0.173687)
(69.7632 8.57507 -0.0665192)
(72.5129 8.74242 -0.236945)
(72.6914 9.14765 -0.503447)
(74.686 7.78033 -0.92615)
(74.5975 6.82749 -0.876469)
(75.5026 4.88912 -0.311459)
(72.5154 3.42023 0.782019)
(70.1398 1.10479 2.03298)
(69.9675 1.06714 1.15352)
(176.149 -247.496 -20.4127)
(68.2998 -57.0142 -37.7167)
(196.432 -6.47182 5.04447)
(168.296 -5.25322 7.39852)
(197.816 -5.48771 29.1423)
(139.919 -5.93011 21.1864)
(122.721 -15.8781 9.97912)
(86.5748 6.20528 3.39928)
(82.7056 0.1267 1.91447)
(72.3455 7.29745 1.08657)
(73.742 4.56269 0.519019)
(71.5284 7.57051 0.40403)
(74.1319 6.20075 0.472999)
(74.4893 6.56088 0.40526)
(76.9987 5.1628 0.468734)
(78.7273 4.20903 0.419179)
(80.0206 3.73085 0.619463)
(79.1203 4.10925 1.06239)
(77.0894 4.84081 1.83471)
(76.0439 3.65848 1.18789)
(-31.3761 -138.281 256.019)
(-70.9269 -51.6222 -108.234)
(135.238 -43.299 -39.5245)
(26.3963 -40.6591 8.57193)
(125.498 9.76011 9.67608)
(62.297 30.7515 1.70181)
(91.6982 13.9917 -1.42211)
(73.3874 11.4004 -1.66799)
(75.8008 9.99599 -0.319609)
(70.1141 6.0058 0.206274)
(71.8317 6.05487 0.344994)
(71.0453 5.15117 0.154164)
(73.17 5.03765 0.165399)
(74.521 4.29326 0.396024)
(75.3404 3.81875 0.153877)
(76.3907 3.9661 0.179949)
(76.7898 4.48427 0.149291)
(74.6367 5.49112 0.465574)
(72.6553 6.66399 1.27857)
(74.1286 5.47074 0.878191)
(72.5597 -200.865 -29.2659)
(-77.2159 -62.4071 -3.7408)
(119.963 -83.0752 -21.5458)
(-29.3287 -41.7508 2.47618)
(100.847 -17.9659 -2.48904)
(64.1404 6.85141 -3.04389)
(87.4123 15.4187 -0.218253)
(78.429 5.3362 -1.30085)
(79.3677 10.1234 -0.579424)
(75.3085 7.50296 0.81662)
(73.6979 7.02644 0.831663)
(71.9791 5.54967 0.134071)
(72.8149 4.59252 -0.720568)
(74.6711 2.60557 -1.06098)
(77.3983 0.0976609 -0.792803)
(77.4531 2.59181 -0.655435)
(76.7303 5.17454 0.0458551)
(73.0786 7.11582 0.518212)
(71.1858 8.12636 0.954756)
(73.7553 5.9691 0.387384)
(-26.4823 -68.7407 109.864)
(-19.1535 -45.3422 -24.906)
(71.5414 -43.4914 -12.4745)
(-55.0504 -35.0072 -0.66845)
(74.1095 -20.3013 -2.57722)
(15.5602 -0.111229 -3.98922)
(67.5653 12.1137 -2.11318)
(76.8356 7.09047 -0.961795)
(82.2996 9.13279 0.214482)
(85.6762 8.85513 1.28004)
(85.2492 9.90681 0.964111)
(83.7124 9.6528 -0.141514)
(83.6319 7.26551 -1.92568)
(84.0377 4.2511 -2.48435)
(83.5833 -0.0834909 -1.83512)
(80.7357 2.29774 -1.14524)
(78.3764 7.49582 -0.383896)
(74.1708 9.68868 0.444193)
(72.9451 9.89867 0.601775)
(75.3892 6.75124 -0.161282)
(73.3295 -33.9601 54.9919)
(-16.2689 -87.1111 -40.4945)
(132.845 -58.1303 -27.3523)
(-20.9475 -49.0749 -3.76363)
(104.171 -35.4329 -0.427359)
(32.2192 -21.926 -4.06521)
(56.1624 -11.2502 0.793563)
(66.8824 -1.96963 1.90782)
(75.6617 1.55518 2.91769)
(83.239 3.83207 2.97259)
(90.2143 6.95769 2.36958)
(95.8248 8.98605 0.676793)
(99.0182 8.84956 -0.532277)
(98.8302 7.11974 -0.957755)
(92.9035 1.35322 0.274046)
(81.6683 5.50448 -1.06844)
(78.9411 10.2052 -0.774524)
(76.1182 11.2852 -0.0159121)
(75.9102 11.4201 -0.00126001)
(78.3905 7.67159 -0.32585)
(228.811 -132.231 51.4572)
(55.2457 -4.77922 -7.60666)
(144.305 -10.4152 -20.0615)
(19.7904 -3.99276 2.37017)
(106.571 -19.2326 5.3094)
(32.6193 -22.3181 -2.40192)
(71.8363 -25.1445 1.29224)
(72.3668 -11.1102 1.87148)
(74.9579 -7.74525 1.54039)
(79.3556 -4.63109 1.8113)
(84.6692 -1.72519 2.43169)
(90.4849 2.79055 2.73449)
(96.9163 7.58499 0.993937)
(97.1636 8.50068 0.992594)
(86.1961 7.0943 2.0671)
(76.7652 9.82481 -1.22653)
(76.038 11.357 -1.1708)
(74.905 11.6446 -0.660693)
(75.4321 11.5077 -0.120643)
(78.5509 7.95293 0.236577)
(178.454 146.598 -59.9305)
(50.6127 23.1381 -6.9379)
(160.36 -8.07262 6.06801)
(82.0896 -10.6928 -2.51405)
(141.512 -13.9086 2.60634)
(88.8715 -43.2115 -0.925531)
(105.391 -16.6582 -0.0861728)
(73.0837 -14.2168 0.345043)
(79.851 -9.92554 0.42879)
(63.0442 -8.06237 0.825059)
(69.6553 -2.76931 -0.128779)
(63.1788 1.05331 -1.20086)
(69.5829 5.32173 -1.73543)
(67.8459 7.75784 -0.300051)
(67.9239 9.65386 -0.563808)
(69.0282 8.52698 -0.532099)
(70.8917 10.5251 -0.549608)
(71.3453 10.1385 -0.281406)
(73.0239 10.3509 0.0929855)
(77.0393 7.49177 0.590961)
(30.8566 142.35 -33.8864)
(-96.7221 -34.3289 -21.0777)
(147.318 -32.9429 -31.6283)
(41.8203 -23.9852 -3.93786)
(122.346 -9.10517 1.07434)
(49.6729 -22.3765 1.09351)
(83.4856 22.8294 0.8418)
(44.8632 -24.4386 2.04698)
(65.8431 8.14943 -0.133691)
(45.4302 -13.8291 0.380737)
(57.8998 4.30101 -0.308732)
(49.664 -4.91417 -0.0607937)
(57.6712 4.77849 -0.14034)
(56.5668 1.28219 0.241541)
(62.2613 5.94763 0.180961)
(62.4053 5.64308 0.0361136)
(65.69 7.72271 0.245616)
(66.5207 7.37407 0.38524)
(69.0538 8.21454 0.510699)
(73.5459 6.74415 0.75089)
(105.69 -22.3588 -69.0534)
(-53.9396 -84.7613 -36.458)
(144.15 -45.7793 -15.4963)
(15.2223 -22.1997 1.22268)
(112.896 10.2361 1.35827)
(27.4133 -16.6731 0.956708)
(89.4344 12.0858 0.90541)
(47.2113 -10.8793 0.549586)
(70.284 3.04477 0.212634)
(51.8257 -7.07929 -0.0702389)
(60.9648 1.45995 0.0923433)
(53.0557 -2.2288 -0.0596173)
(57.2684 2.60143 0.232792)
(55.0347 1.84107 0.269653)
(57.4025 4.3443 0.327432)
(57.7241 3.69216 0.245257)
(60.1245 5.49972 0.372185)
(61.0839 5.13624 0.408086)
(63.0891 6.38172 0.461305)
(67.9506 5.73336 0.607783)
(305.653 102.979 -4.60974)
(26.5619 -31.6302 18.292)
(162.298 -28.9357 21.0694)
(-31.9542 -9.75987 6.45905)
(114.183 0.00301341 -0.975063)
(-0.438471 -10.8085 2.46994)
(88.3606 9.90086 0.438072)
(30.2302 -10.6072 0.398085)
(72.2826 6.25126 -0.100391)
(44.0162 -6.10512 -0.317768)
(63.1753 3.76776 0.0125218)
(49.834 -2.27442 -0.27767)
(58.8642 2.95203 0.115562)
(53.2569 0.317295 -0.00851659)
(58.2066 2.98132 0.18514)
(56.5463 2.21197 0.124086)
(59.4497 3.6905 0.254545)
(59.538 3.31974 0.219644)
(61.3929 4.53628 0.255737)
(66.1712 4.42216 0.352466)
(201.777 -97.4748 -56.5819)
(46.3335 -38.3895 -11.2001)
(174.008 -29.8837 7.17161)
(32.8735 -1.98801 7.24345)
(116.465 -9.94103 14.3355)
(20.8363 -5.40643 -0.579208)
(89.1923 -6.97022 0.930629)
(35.5009 -5.6726 -0.915171)
(72.4343 -3.41486 -0.173165)
(46.5816 -3.58011 -0.340092)
(63.7156 -1.23159 0.0341903)
(51.8421 -1.25041 -0.239818)
(59.5489 0.249588 0.0269901)
(54.7018 0.405693 -0.106727)
(58.601 1.32782 0.0376042)
(57.4091 1.41878 0.0201532)
(60.0493 2.08677 0.0201234)
(60.5675 2.11387 -0.0132314)
(62.5187 3.14734 -0.0527976)
(67.583 3.43353 0.136529)
(73.0561 -107.147 -5.90864)
(-18.9399 34.0731 -25.0676)
(122.615 21.0481 -14.1977)
(5.51712 25.1397 -6.35319)
(109.739 24.5273 -0.978526)
(26.401 7.9673 -6.21473)
(90.3765 2.07397 -3.53241)
(41.7772 -1.85195 -2.49839)
(77.2451 -2.03411 -0.535202)
(52.4896 -1.94594 -0.600427)
(69.854 -0.31994 0.0034499)
(57.8834 -0.611363 -0.50688)
(65.9945 0.39051 -0.241134)
(60.6984 -0.165571 -0.514285)
(64.8793 0.31668 -0.358681)
(63.1237 0.0282883 -0.471599)
(65.7146 0.162633 -0.435093)
(65.8618 -0.0121073 -0.523194)
(67.6785 0.920322 -0.492883)
(73.2177 1.82158 -0.229907)
(214.054 -23.9096 65.2684)
(-12.3649 -35.1227 12.365)
(113.157 -24.1159 8.10584)
(14.259 5.72692 -0.282901)
(121.956 -6.00749 1.14751)
(62.4237 0.54871 -2.73684)
(112.787 -12.5483 -1.71545)
(77.2961 -4.86934 -1.2658)
(96.3747 -9.61414 0.233869)
(75.4192 -2.86954 -0.16221)
(84.163 -4.18193 -0.00518167)
(74.3019 -0.572599 -0.74943)
(79.088 -1.15088 -1.00431)
(75.0858 0.295471 -1.44403)
(77.9157 -0.149549 -1.56648)
(76.5879 0.166274 -1.71052)
(78.5564 -0.452497 -1.72938)
(78.8336 -0.445238 -1.67669)
(80.1537 -0.401129 -1.58599)
(85.3067 0.563749 -1.18887)
(217.583 -23.8581 -48.7197)
(184.468 15.1768 -25.6199)
(177.253 -8.1074 -21.462)
(124.061 8.69099 3.77719)
(163.484 5.41196 8.61381)
(129.47 11.5569 8.91417)
(151.903 5.75416 7.01348)
(129.647 6.70469 4.17047)
(138.937 5.04921 3.86536)
(126.117 5.14728 3.16988)
(130.286 4.033 3.76681)
(124.155 3.44565 3.68688)
(126.481 2.78121 3.72266)
(124.203 2.41038 3.32126)
(125.619 1.84467 3.06614)
(124.648 1.4178 2.65795)
(124.513 -0.255249 2.39238)
(121.655 -0.96627 2.34098)
(119.114 -0.409693 2.57842)
(120.844 0.870921 2.49791)
(76.9002 -265.015 -135.963)
(-61.1328 -41.4512 -29.9148)
(107.917 -47.8277 -2.07992)
(51.6511 -26.9258 -11.0256)
(102.192 -20.7489 -5.83576)
(77.1531 -10.965 -13.8283)
(97.4269 -9.05311 -11.387)
(83.6462 -7.2818 -8.49863)
(93.9135 -6.45361 2.78636)
(95.0978 -2.508 11.5222)
(105.739 -1.65665 12.9609)
(106.721 -1.91715 8.9513)
(109.731 -2.4398 6.64857)
(110.565 -2.2186 5.67473)
(114.203 -1.74047 4.71162)
(116.203 -1.1393 3.50969)
(120.067 0.181782 1.98488)
(122.511 0.280545 1.76703)
(125.718 -0.0666957 0.883193)
(133.554 1.27877 1.09105)
(250.286 -87.817 79.1562)
(172.129 -95.6448 8.53001)
(196.581 -70.4952 -12.5316)
(114.738 -50.668 -8.33459)
(117.321 -24.1024 -2.52822)
(80.1465 -19.8965 -6.03515)
(90.8758 -11.9427 -2.01158)
(75.1804 -6.97563 0.334549)
(83.3892 1.84004 8.60023)
(81.7993 7.34364 8.05862)
(87.6643 7.6994 5.4802)
(83.733 5.65773 2.54208)
(84.3025 2.34884 1.52424)
(81.2726 0.811705 0.672652)
(81.7633 0.296584 -0.614716)
(79.919 0.364656 -1.55048)
(80.1581 0.625128 -2.59391)
(79.4609 0.396687 -2.6534)
(79.8782 0.408471 -3.19511)
(84.0617 0.763969 -3.07561)
(224.394 -47.2248 136.954)
(87.547 7.79766 18.6122)
(136.438 42.4356 15.9412)
(39.2191 1.28099 6.11601)
(85.2259 8.45957 6.72131)
(47.5136 -4.78485 1.03113)
(76.067 -0.415247 2.30373)
(59.3433 1.13168 0.410633)
(72.2275 6.51147 3.0209)
(68.5864 8.966 2.39178)
(75.5666 7.53026 1.90701)
(72.0254 6.31433 0.860914)
(72.8004 3.8775 1.46686)
(68.9517 3.40374 1.14763)
(68.298 2.14177 0.299789)
(64.9998 1.44657 -0.45233)
(64.8102 0.513279 -0.858999)
(63.2003 -0.325398 -0.774769)
(63.2508 -0.962597 -0.911591)
(66.909 -0.682429 -0.53391)
(108.935 53.3227 -23.3993)
(-60.2151 8.94743 62.9417)
(110.154 12.6617 17.5084)
(-2.98583 -18.468 2.28065)
(72.3591 -10.0451 6.18335)
(26.104 -15.5673 -0.305102)
(62.6936 -11.3523 2.21802)
(45.3841 -5.6439 -0.0871156)
(61.6309 -0.352216 1.35013)
(57.7693 5.13699 0.486135)
(64.5912 6.76794 0.802338)
(61.0601 8.04196 0.51557)
(62.5361 7.47345 0.918394)
(59.3125 7.16215 0.359433)
(59.3158 5.00121 -0.140255)
(56.2112 3.39198 -0.383917)
(56.5136 1.765 -0.413103)
(54.9882 0.814996 -0.201561)
(55.604 0.296264 -0.206349)
(59.0392 0.485866 -0.110064)
(52.8907 49.4736 -14.6006)
(-235.577 38.233 9.79217)
(87.2416 24.1173 44.3805)
(-12.6615 3.96223 14.3248)
(85.4035 1.99593 13.0523)
(37.7258 -3.68256 2.44197)
(73.9568 -5.1954 4.09325)
(51.426 0.928477 0.529205)
(63.534 1.28871 0.901825)
(54.6043 6.70744 -0.383763)
(60.1228 6.47696 0.0320176)
(56.3295 8.52037 -0.174265)
(59.1143 7.52362 0.170289)
(57.3001 7.40728 -0.122915)
(58.6615 5.32158 -0.228562)
(56.4285 3.90142 -0.332561)
(56.793 1.46095 -0.126718)
(54.9178 0.0059272 -0.0365234)
(55.0831 -0.90569 0.234089)
(58.8671 -0.314183 0.33812)
(77.9368 -89.1915 -16.3944)
(-115.14 -9.29531 23.0657)
(93.9699 5.81206 21.9138)
(-10.895 -7.72692 -2.98813)
(77.8783 -23.6873 7.83838)
(20.281 -12.7048 -0.954063)
(65.3211 -14.3487 4.7573)
(43.5274 -1.00362 0.210052)
(57.0473 -1.08015 1.34401)
(51.723 4.95011 0.00654847)
(58.072 5.00829 0.225784)
(57.4228 7.42148 -0.0954447)
(60.8309 6.95251 -0.171849)
(60.9134 7.28048 -0.46929)
(62.552 5.62636 -0.790035)
(61.3748 4.76792 -0.763623)
(61.4307 2.94148 -0.19209)
(58.4312 1.61242 0.675239)
(58.0639 0.464837 1.54822)
(60.8177 0.667073 0.953493)
(123.267 85.2498 66.6993)
(-98.8368 -38.9814 -13.9118)
(117.701 -15.688 2.26942)
(40.2273 -20.8309 -1.59431)
(116.619 -9.44651 21.6867)
(71.15 -5.05122 13.2726)
(87.1365 -13.0349 10.262)
(61.5486 7.36992 3.29743)
(64.4754 -1.60803 1.82459)
(56.4702 6.29878 0.904207)
(60.1609 2.71658 0.565778)
(58.6634 6.1079 0.347069)
(61.9559 4.39061 0.443846)
(62.1861 5.18698 0.317322)
(64.2264 4.19071 0.326134)
(64.6397 3.82537 0.302057)
(65.0128 3.47867 0.453988)
(63.1125 3.64056 0.906442)
(62.1021 3.52314 1.66687)
(64.3467 2.444 1.15561)
(699.027 -126.303 -244.035)
(138.978 -42.2241 -89.8087)
(137.657 -48.6403 -9.15409)
(1.75852 -34.3734 12.9582)
(104.473 10.9631 9.66578)
(31.4236 30.474 0.709926)
(69.2589 9.38266 -0.331371)
(53.5914 11.396 -0.738167)
(57.9328 6.52641 -0.28498)
(55.1351 4.88868 0.35351)
(58.6638 4.0181 0.242784)
(59.1844 3.78561 0.0735919)
(62.1624 3.48727 0.0804014)
(63.8248 3.36218 0.403478)
(64.0316 3.96186 0.329285)
(63.6955 4.61508 0.262986)
(63.2982 4.91715 0.208953)
(60.8133 5.17511 0.541704)
(60.3947 5.26979 1.1562)
(63.8804 3.84953 0.799233)
(136.292 -266.11 -8.11215)
(-16.1998 -49.2667 -8.30362)
(98.8014 -62.2477 -17.5328)
(-35.4414 -35.8301 3.42103)
(88.5403 -14.2271 -3.92473)
(45.0275 12.2549 -3.63056)
(65.4994 11.2978 0.39569)
(57.2675 3.10228 -0.758798)
(61.3845 6.07599 -0.189594)
(60.1401 4.23811 0.884045)
(61.8501 4.26122 0.62564)
(62.1958 3.15384 -0.280988)
(64.2056 2.53301 -1.01484)
(65.9703 1.60366 -1.03523)
(67.2309 0.970581 -0.370972)
(64.7885 4.42627 0.104773)
(63.2185 6.08996 0.336589)
(60.6646 6.25155 0.610162)
(60.4799 6.00567 0.736956)
(64.3292 3.76635 0.444091)
(105.637 35.9919 -1.79441)
(-9.54854 -53.2608 -20.2139)
(64.4023 -44.6811 -6.94208)
(-51.6283 -34.6239 -1.27982)
(59.0199 -19.6675 -3.04518)
(7.65735 2.55061 -1.4844)
(55.2488 9.71042 -1.18248)
(61.9365 3.07252 0.0405042)
(66.7951 4.04035 0.861945)
(70.6181 4.94739 1.46507)
(72.2541 5.96359 0.764624)
(73.016 4.96563 -0.969878)
(73.4354 3.09209 -2.43977)
(73.1023 1.37377 -2.53426)
(71.2392 0.651257 -1.14746)
(66.8432 5.03827 -0.185574)
(64.732 8.0331 0.0877614)
(62.2322 7.89652 0.508829)
(62.3563 6.92963 0.394497)
(65.5818 3.96663 -0.0308216)
(140.089 -65.7048 30.9209)
(2.15723 -85.4849 -72.3773)
(120.884 -61.4227 -26.5209)
(-21.2848 -48.9791 -6.57958)
(90.9738 -35.8404 -2.82682)
(21.088 -23.8334 -2.76816)
(46.646 -13.2187 1.42606)
(57.9692 -4.94749 2.45988)
(66.6769 -1.06771 3.1884)
(74.079 3.08344 2.62886)
(82.7826 3.83779 1.8862)
(88.0116 4.66467 -0.12296)
(87.3785 3.87217 -0.901146)
(84.0065 2.19235 -1.15818)
(75.7893 0.985622 0.395458)
(66.9261 6.34043 -0.0389996)
(65.431 9.05365 -0.145601)
(64.1051 8.69624 0.147592)
(64.6035 7.51187 0.0921789)
(67.3255 3.8164 -0.0964361)
(150.058 -24.5801 -5.4232)
(14.0188 -8.36734 -12.7676)
(128.504 -10.7696 -14.9724)
(1.4773 -7.28893 -0.49476)
(94.4788 -20.0036 2.79753)
(24.373 -27.7863 -2.09323)
(61.9113 -26.3305 1.83905)
(62.5335 -11.4627 2.16137)
(66.3867 -6.74104 1.71458)
(70.7557 -2.59828 2.03409)
(76.0694 0.777478 2.37851)
(80.1659 3.85155 1.95998)
(82.0581 5.94457 0.57116)
(79.6233 5.41342 1.10376)
(71.6415 6.66462 1.00422)
(64.4909 7.79863 -0.531415)
(64.206 8.69956 -0.48365)
(63.3671 8.07359 -0.140991)
(64.3307 7.15576 0.306528)
(67.3632 4.06861 0.369414)
(45.3537 120.079 61.4845)
(-46.2656 -21.0112 -3.58412)
(141.982 -26.0826 1.85325)
(46.4957 -13.3675 -3.51349)
(121.373 -17.5166 2.45128)
(61.4401 -46.9115 -1.02503)
(84.5077 -13.7854 1.95416)
(55.9991 -14.7963 1.20858)
(66.8691 -6.8923 0.756008)
(52.9895 -5.52877 0.596815)
(61.8111 0.196589 -0.705051)
(56.1195 2.52273 -1.39302)
(62.004 5.78316 -1.48426)
(59.443 6.19965 -0.413977)
(59.0412 7.36218 -0.126347)
(59.8466 5.71927 -0.118962)
(61.3343 7.16435 -0.139787)
(61.4289 6.20324 0.172789)
(62.7256 6.24125 0.410726)
(66.2141 4.13535 0.654659)
(113.701 40.6595 -11.6707)
(11.5494 -42.3555 -24.772)
(135.415 -44.612 -37.8941)
(34.2556 -25.1096 -3.86021)
(109.363 -12.0537 -0.295084)
(32.8991 -24.6486 1.06115)
(71.7647 21.3039 0.453345)
(32.3436 -28.2614 1.83027)
(56.629 8.34502 -0.42046)
(36.2374 -15.3265 0.117445)
(50.7075 4.53142 -0.57703)
(42.2209 -5.93086 -0.0770638)
(50.8749 4.07918 -0.166498)
(49.1073 -0.344696 0.532143)