/*--------------------------------*- C++ -*----------------------------------*\
  =========                 |
  \\      /  F ield         | OpenFOAM: The Open Source CFD Toolbox
   \\    /   O peration     | Website:  https://openfoam.org
    \\  /    A nd           | Version:  10
     \\/     M anipulation  |
\*---------------------------------------------------------------------------*/
FoamFile
{
    format      ascii;
    class       volScalarField;
    location    "5.7";
    object      k;
}
// * * * * * * * * * * * * * * * * * * * * * * * * * * * * * * * * * * * * * //

dimensions      [0 2 -2 0 0 0 0];

internalField   nonuniform List<scalar> 
12920
(
1861.68
706.316
391.134
307.78
276.974
264.486
252.613
236.498
190.128
150.155
119.962
103.479
92.4022
85.5759
81.4212
80.9236
80.4289
76.6494
70.2861
55.6628
841.594
1566.03
835.216
435.513
298.787
273.12
215.171
178.227
148.654
135.79
127.965
127.527
127.458
128.527
128.678
128.662
126.986
121.759
107.303
88.465
1340.18
1632.48
1400.87
836.184
519.124
436.643
343.165
274.665
205.678
166.065
138.207
126.383
115.495
109.792
103.63
98.5073
93.2591
89.671
85.9456
84.1259
1623.75
1566.16
1436.54
1166.29
849.744
692.313
488.901
340.613
223.356
163.484
132.733
117.028
105.873
98.6937
93.1956
89.759
87.4819
86.2808
85.9626
86.1853
4406.26
2816.7
1649.43
1042.76
764.949
621.628
429.06
305.163
225.007
181.997
155.936
138.784
124.605
115.454
108.075
103.603
99.9475
96.5364
94.3587
91.2215
1702.82
5077.89
2383.19
1100.42
743.721
490.409
398.967
297.855
255.565
217.831
198.16
175.476
152.857
132.995
118.838
110.382
103.61
97.5531
93.1385
89.7785
12631.6
9855.06
3643.82
1710.57
1083.37
704.22
534.783
409.079
364.845
325.562
296.797
256.092
223.278
195.609
166.635
138.323
116.851
102.895
94.002
90.0054
8697.03
3752.44
2241
1274.63
857.134
676.343
382.803
271.362
257.455
230.067
210.482
153.877
113.955
117.761
217.825
152.192
112.988
96.615
90.1293
88.6316
3519.02
1316.16
1306.26
964.359
789.11
451.197
289.709
142.537
138.697
139.717
105.709
44.4311
61.188
91.5865
148.84
138.279
106.212
92.5888
84.5294
84.0612
3628.77
1955.43
1482.41
993.899
794.872
454.097
243.566
156.39
126.694
103.043
81.9936
102.908
72.9235
63.9874
117.542
121.057
97.8101
86.2417
81.5469
82.5699
20107.5
10031
2645.27
1425.85
965.501
458.739
218.899
126.57
128.763
140.686
138.325
131.89
66.7163
43.9656
79.718
103.241
93.2897
90.1786
90.6781
93.1695
3857.96
3469.33
2622.32
2076.99
1493.87
702.963
257.302
168.243
183.086
168.494
152.98
122.658
45.2036
54.2011
88.1167
116.78
107.885
103.047
103.079
104.792
2231.02
2791.35
2165.36
1349.62
866.302
652.381
376.369
284.493
267.243
234.937
174.861
87.5445
74.4264
78.4185
124.712
113.587
109.105
109.363
111.583
116.467
973.519
2749.04
2423.78
1452.82
751.965
524.287
474.111
427.545
343.083
247.17
179.6
155.103
143.124
137.229
129.055
125.084
124.903
125.568
128.226
130.062
671.777
1982.01
1915.55
1025.96
533.205
390.557
370.487
326.785
257.208
216.953
193.053
189.088
188.188
188.986
187.353
178.921
170.032
159.188
155.132
147.707
832.989
2889.86
2782.14
1473.98
643.216
445.467
363.162
323.704
275.78
259.504
245.033
243.271
239.738
237.919
234.818
226.51
212.305
188.995
178.23
160.459
4794.7
3460.02
1837.75
854.896
531.882
428.577
388.594
352.734
319.701
301.028
281.833
275.692
267.927
265.95
262.327
251.254
229.888
201.6
188.248
166.411
2451
4168.63
2421.8
1394.17
994.219
776.513
587.785
492.962
454.168
436.412
397.036
356.239
322.221
298.21
274.464
238.513
209.24
185.897
176.668
159.838
5544.84
4042.74
2008.37
1260.1
809.58
536.188
385.978
333.512
319.406
318.467
318.595
313.697
292.115
249.925
203.592
168.637
143.374
126.675
119.767
112.519
2060.96
1720.22
1313.64
775.915
528.513
476.88
436.759
398.606
328.894
266.524
223.614
201.264
182.882
164.703
147.932
127.022
111.289
94.1353
86.0381
68.1643
4713.43
1962.13
1537.6
1099.81
793.506
649.157
597.699
547.862
451.347
364.125
296.694
252.43
223.128
206.491
196.732
191.096
182.467
167.644
143.187
116.567
1868.34
4255.22
2490.94
1519.78
969.495
859.517
584.687
466.502
362.077
353.867
343.622
347.971
340.614
339.519
336.592
335.948
330.106
320.311
303.773
279.37
1107.58
3912.07
3017.81
1977.96
1318.76
1164.86
831.149
667.229
484.392
422.551
362.815
340.21
313.691
302.912
290.406
283.007
273.55
267.801
259.864
257.138
5396.75
3872.3
3583.72
2900.16
2120.39
1680.99
1103.41
787.769
515.552
417.011
352.043
321.578
294.059
279.136
266.109
260.228
254.91
254.157
254.322
255.958
8921
7126.32
4204.09
2511.43
1850.9
1545.64
995.347
750.44
565.737
486.227
422.151
382.872
343.304
323.192
304.007
296.251
287.221
280.945
275.719
270.037
15324.1
11446
5641.41
2677.67
1904.34
1260.96
1043.05
779.068
678.579
579.928
528.464
472.855
418.102
370.584
333.948
314.203
296.245
283.917
274.124
267.747
16633.3
12146.7
6302.87
3641.36
2455.81
1706.45
1306.59
1040.94
904.108
803.55
703.431
646.369
578.209
512.62
432.384
373.879
323.82
293.898
275.922
270.301
10863.2
5817.29
4785.64
2789.71
2111.6
1650.33
1284.51
1048.53
903.132
781.475
684.451
543.73
502.776
515.411
466.802
343.737
284.099
262.008
255.867
261.38
5178.52
3946.09
3571.1
2530.68
1996.03
1540.54
1243.13
1012.43
851.469
709.664
533.836
366.541
372.993
422.144
383.012
288.181
249.829
236.819
236.85
249.748
6759.66
3934.34
3965.27
2532.45
1888.38
1572.39
1210.22
968.954
751.187
596.653
499.823
425.777
318.911
324.761
298.008
243.106
226.313
226.47
231.272
248.203
28031.5
9260.23
4731.48
2782.87
1750.22
1347.58
1072.46
908.289
774.153
701.091
615.062
498.989
294.052
214.817
210.256
224.973
233.857
249.04
260.356
272.202
7524.59
7819.05
5713.34
3808.84
2164.72
1671.45
1253.55
1100.76
943.133
801.791
670.552
464.6
287.701
259.438
245.649
270.33
274.136
283.051
293.971
304.185
20216.9
9085.72
4258.73
2773.65
1670.01
1529.41
1237.67
1213.8
1007.59
830.86
542.129
334.824
301.415
286.668
305.762
302.117
304.928
315.063
331.13
341.378
12424
6867.58
5143.98
3148.2
1689.19
1359.92
1241.38
1103.98
820.652
606.719
471.923
430.426
405.427
391.233
371.496
366.383
368.478
374.45
384.523
385.891
8046.26
5792.09
4689.9
2445.1
1336.6
1038.56
986.525
854.04
680.305
592.331
544.368
539.902
533.493
531.253
524.849
507.693
491.1
467.745
459.775
442.908
9766.3
8072.65
3747.08
2207.67
1288.15
1163.31
973.08
883.417
759.215
720.764
675.865
665.615
649.565
640.563
631.863
615.142
594.392
547.93
522.659
482.589
8454.89
8048.63
3777.93
1969.35
1482.09
1270.02
1152.73
1034.1
918.766
859.873
799.269
777.229
745.43
725.544
708.321
680.877
650.914
597.149
561.487
505.131
28306.4
20290.4
6924.32
3553.32
2306.55
1972.21
1513.54
1465.14
1386
1334.98
1179.6
1047.13
938.903
846.28
762.621
682.022
626.71
578.95
552.61
498.212
14468
9648.61
4230.63
2687.78
1571.21
1220.24
930.792
916.521
897.584
903.432
883.422
829.273
727.697
626.391
521.645
440.102
393.81
385.368
388.897
386.015
2446.92
3449.37
2996.36
1941.15
1299.66
1091.21
973.864
871.885
750.529
639.358
533.064
449.925
390.976
342.665
305.839
274.045
239.572
195.297
170.371
135.908
6284.94
2951.18
2108.84
1416.81
1047.06
885.122
767.305
644.086
521.701
425.846
353.584
302.266
264.517
237.855
218.784
201.778
182.16
159.168
138.546
129.649
16023.9
6143.33
3803.29
2344.15
1571.13
1321.29
893.429
762.575
596.962
563.351
499.641
485.41
456.262
453.011
443.962
440.462
428.185
415.477
405.869
404.488
3553.54
6137.92
4687.48
2828.72
2068.11
1570.24
1121.03
872.064
666.091
579.821
503.448
470.972
438.021
425.725
411.494
405.749
398.369
396.22
395.563
398.283
9222.75
4822.33
4984.64
3915.48
2841.81
2043.82
1336.4
941.581
684.472
572.395
500.119
458.589
426.006
408.095
393.141
386.663
380.816
380.504
381.173
384.744
8036.09
7827.9
5340.4
3329.3
2577.02
1914.7
1311.01
969.043
769.892
653.194
578.251
525.578
483.534
458.35
435.285
422.675
409.488
401.885
396.03
393.312
9791.72
10316.7
6888.14
3520.84
2555.88
1695.23
1411.9
1046.11
902.54
755.592
682.882
610.774
552.809
508.236
471.347
445.847
423.981
409.221
399.467
395.78
13168
8895.38
6730.9
4356.4
3104.05
2166.98
1654.23
1296.65
1101.82
953.346
839.999
774.891
694.884
623.811
544.917
489.445
444.474
419.442
406.789
406.27
11199.4
6450.22
5505.35
3722.08
2835.48
2169.71
1783.66
1417.7
1162.21
980.84
848.339
752.929
716.282
664.562
518.366
436.592
396.409
384.295
384.825
399.543
5361.75
4678.62
5099.84
3637.69
2735.06
2196.56
1846.61
1426.58
1124.45
895.825
704.719
580.896
566.409
557.476
450.847
364.909
347.181
349.01
358.906
386.946
6309.64
6239.86
5430.27
3482.95
2664.73
2202.71
1732.14
1334.78
1018.56
818.497
663.483
499.031
432.118
422.993
363.265
323.006
325.131
337.755
356.244
381.735
27215.2
9329.45
5557.34
3243.38
2434.97
1995.91
1659.87
1325.23
1075.86
915.914
571.079
434.181
325.643
275.685
278.007
322.802
349.853
371.123
386.934
399.955
29542.3
19569.1
6813.72
4234.27
2653.34
2237.23
1906.46
1559.55
1247.21
1000.9
775.684
525.54
412.926
347.541
334.522
381.62
402.171
418.58
431.157
436.617
10945.7
8962.98
5014.63
3204.69
2394.04
2086.66
1794.11
1632.46
1226.26
946.419
630.868
484.077
435.27
405.824
444.091
449.873
464.393
477.499
486.388
485.486
15485.1
8852.27
5861.82
3575.42
2280.52
1894.61
1644.25
1330.9
994.802
787.171
661.404
617.742
585.012
571.512
557.7
555.365
557.447
557.549
556.314
542.233
8447.14
7408.54
4968.36
2732.76
1925.99
1487.34
1384.07
1152.23
938.267
831.068
767.174
751.845
733.541
725.139
711.002
692.277
678.805
654.93
641.525
606.297
15244.2
7429.22
4355.37
2562.86
1971.93
1637.5
1409.12
1240.05
1074.93
1001.47
931.679
905.765
876.83
860.94
841.634
814.512
789.516
743.342
718.111
662.627
7924.04
10699
6325.75
2985.25
2241.87
1848.54
1671.81
1488.89
1312.39
1210.68
1109.13
1060.58
1006.19
970.332
932.552
888.937
853.257
797.229
764.114
694.109
13409.1
10983
6298.56
4158.37
2958.49
2690.43
2230.19
2127.1
1879.66
1700.5
1464.45
1308.1
1170.88
1063.18
973.595
898.469
850.614
796.664
761.109
684.166
5385.11
7035.03
5260.72
3534.54
2338.45
2090.39
1691.6
1624.43
1463.93
1356.69
1187.75
1056.34
913.084
792.65
688.778
617.3
580.397
574.655
573.119
551.03
1259.55
2850.67
2725.8
2084.04
1547.36
1295.76
1117.84
973.232
832.954
712.056
607.692
524.331
461.892
409.646
361.094
301.229
245.93
199.294
177.798
149.799
3629.94
4148.94
2994.25
1661.03
1164.45
996.52
816.992
647.613
517.109
426.288
355.871
301.785
260.92
226.719
198.582
173.258
155.408
144.926
141.201
143.947
11175.9
8217.21
5100.97
2936.05
2032.76
1527.45
1151.51
978.437
809.77
743.651
653.692
620.294
580.055
573.188
558.897
555.632
548.322
547.089
547.796
559.55
10706.5
9892.52
6222.26
3480.72
2682.04
1779.99
1377.83
1023.16
846.132
725.195
652.669
605.202
575.634
559.243
548.488
544.428
542.987
545.641
549.77
561.016
23484.1
6967.83
6596.84
4604.66
3394.42
2156.93
1528.11
1044.96
849.775
711.005
649.798
593.5
565.695
543.09
531.129
524.387
521.489
523.009
525.838
534.994
8908.12
8214.28
6151.52
3896.22
3162.6
2069.09
1567.21
1116.58
952.477
795.107
730.678
659.669
624.601
591.978
571.135
555.648
543.822
538.644
535.205
538.029
8519.35
9498.7
6965.64
3932.45
3093.79
1972.58
1711.46
1228.73
1086.12
887.37
819.223
730.021
683.738
635.698
602.679
576.308
558.197
547.414
541.564
543.288
9464.97
9268.74
7322.54
4592.43
3584.97
2416.19
1897.6
1453.31
1246.28
1046.87
954.683
867.845
789.502
713.712
648.179
604.645
575.245
562.371
558.49
564.663
12195.6
7659.83
6477.5
4120.48
3421.64
2501.06
2068.83
1608.64
1303.44
1098.73
963.649
888.088
816.557
715.38
587.8
544.933
531.781
534.11
543.972
568.693
12256.2
7062.39
6590.56
4245.26
3272.39
2609.79
2211.66
1623.8
1248.58
1001.24
826.931
735.293
693.786
625.602
512.369
476.68
480.405
499.546
523.295
556.549
21982.2
7629.18
6608.98
4081.92
3310.32
2599.83
2038.1
1543.65
1171.97
929.645
730.615
561.349
513.424
486.722
437.956
450.116
464.473
494.139
517.548
543.501
22653
9623.51
5919.17
3573.48
3042.44
2431.69
2022.1
1580.51
1244.26
994.872
657.165
446.165
370.128
364.284
391.467
469.359
498.939
523.27
538.87
550.901
36511.4
15381.4
6606.65
4165.09
3194.19
2652.25
2321.56
1824.06
1377.76
1037.78
756.738
571.972
484.502
435.812
449.524
527.464
555.145
574.179
584.165
585.304
6682.61
8946.64
5759.04
3484.79
3091.74
2481.12
2156.12
1763.02
1282.08
942.721
708.609
600.955
557.545
532.736
603.784
617.792
638.031
647.47
648.574
638.228
11034.8
8843.94
5927.56
3527.78
2854.41
2235.56
1952.41
1468.69
1144.48
931.588
831.908
788.132
761.909
752.112
744.998
744.249
745.808
740.559
730.071
698.341
14349.7
7993.48
5333.11
3048.08
2513.48
1831.98
1728.59
1378.77
1165.44
1026.09
967.955
941.42
922.727
909.17
893.072
874.876
864.338
838.809
818.238
764.934
7643.19
8580.13
5613.28
3081.46
2608.63
1975.26
1793.32
1517.02
1359.08
1238.51
1167.54
1122.23
1091.61
1066.66
1042.34
1008.99
984.401
937.392
907.457
835.406
14367.1
13431.9
8126.88
3891.69
2958.7
2226.85
2096.22
1802.71
1631.76
1473.68
1369.45
1294.46
1236.93
1190.64
1149.46
1098.15
1060.43
999.133
961.583
877.393
13598.3
10856.9
7626.83
4596.97
3605.26
3103.72
2749.95
2514.49
2209.24
1946.18
1702.94
1521.92
1387.98
1283.15
1207.07
1135.56
1086.96
1014.04
965.95
871.015
4081.65
6873.55
6131.16
3895.02
2934.29
2581.74
2242.44
2101.62
1853.72
1653.17
1418.09
1239.84
1090.22
977.119
890.573
834.477
812.209
786.952
768.944
716.438
2482.28
2751.4
2429.92
1919.51
1541.74
1300.15
1102.24
943.211
802.709
677.783
580.034
499.377
435.504
371.56
310.365
254.14
218.067
188.488
175.309
151.933
1681.12
4303.99
3187.86
1629.3
1172.56
993.778
736.576
564.534
444.57
361.64
290.05
231.401
189.502
163.468
149.675
143.592
141.794
141.906
143.617
150.694
15490.1
10645.3
6230.69
3679.86
2508.86
1718.04
1484.49
1094.01
1084.99
888.719
876.329
763.789
757.323
718.837
723.091
714.234
717.765
723.437
734.826
764.23
35923.5
17378
8414.27
4610
3306.48
2068.33
1707.32
1143.45
1083.75
859.344
853.6
755.746
762.416
723.935
732.62
722.17
731.076
736.064
745.402
768.092
31895.6
10538.1
8110.2
5122.65
3832.35
2294.61
1794.48
1145.8
1070.61
853.351
847.547
750.546
752.718
711.838
715.449
703.133
707.867
710.107
715.294
732.279
18085.6
10309.3
7410.7
4957.51
3809.23
2347.61
1905.89
1249.33
1186.98
938.185
928.028
811.177
808.906
753.871
750.895
727.446
725.877
721.196
722.559
732.306
10248
10201.5
7567.63
4711.26
3800.58
2347.83
2114.52
1394.23
1313.74
1023
997.854
872.785
854.348
791.159
774.094
745.616
738.93
732.666
730.975
739.305
12046
10281.5
8108.65
4976.08
4347.44
2656.85
2320.5
1595.42
1470.14
1149.33
1130.89
982.094
941.794
840.997
802.266
766.855
758.972
756.124
758.642
772.552
13981.5
10033.6
7201.09
4818.13
4288.39
2745.82
2316.91
1747.81
1473.45
1238.46
1135.11
1032.79
944.797
824.387
742.082
728.793
730.387
745.141
759.245
786.017
16010
9100.25
7546.28
5099.56
3926.5
2893.33
2512.75
1767.79
1394.38
1152.63
1010.57
922.674
848.848
755.594
689.445
680.71
690.869
718.049
745.037
776.194
20543.7
9502.84
7388.64
4808.85
4192.55
2889.34
2310.49
1754.74
1353.93
1041.8
821.982
686.903
674.281
665.263
646.998
668.807
682.078
710.348
733.493
757.76
19989.6
10801.4
6844.55
4495.09
3901.6
2777.1
2324.24
1831.03
1417.5
1047.76
761.009
579.53
557.538
606.756
641.396
699.777
711.989
732.595
745.389
756.239
31462.9
12020
8047.91
4355.37
4218.41
3163.76
2748.94
2052.33
1483.09
1060.27
798.401
687.252
666.398
662.828
689.473
754.394
771.688
783.842
790.131
787.153
12243.1
9553.44
6658.18
3944.94
4171.22
3048.15
2519.95
1843.04
1384.41
1010.87
878.393
787.237
770.761
752.332
842.541
851.944
862.691
863.925
858.535
836.154
6228.99
9350.04
6750.34
3808.66
3867.25
2660.33
2457.19
1754.37
1426.46
1146.23
1089.43
1018.32
1012.28
990.963
989.856
982.465
981.161
963.592
945.39
898.033
12928.5
9302.8
6697.16
3640.41
3479.6
2286.37
2310.07
1651.33
1519.06
1263.21
1251.76
1183.71
1177.17
1142.77
1127.87
1102.2
1091.07
1057.55
1029.34
959.133
20882.6
10391.1
7115.04
3709.82
3587.01
2381.48
2382.79
1857.48
1776.84
1520.56
1491.1
1385.89
1371.39
1315.9
1295.08
1246.92
1222.27
1165.55
1129.32
1038.88
6890.72
11805.1
10845.1
4888.45
4068.38
2584.86
2730.03
2096.46
2070.4
1752.63
1711.61
1556.58
1524.33
1439.7
1404.47
1333.23
1298.88
1228.09
1188.47
1090.15
9873.68
10493.4
10339.9
5288.95
4830.38
3451.92
3453.99
2832.74
2660.69
2182.68
2026.03
1755.29
1675.66
1541.64
1488.4
1399.09
1349.38
1253.92
1202.94
1096.4
8789.7
8070.98
7300.83
4084.98
3991.32
2922.06
2929.01
2440.18
2313.8
1890.48
1713.08
1436.25
1349.97
1234.13
1194.97
1129.08
1100.56
1036.28
1004.35
931.424
987.478
2400.64
2118.73
1721.04
1406.66
1142.78
942.736
779.482
646.801
522.252
427.209
344.252
286.78
245.864
220.566
197.645
180.5
160.576
148.204
133.519
701.943
883.917
632.548
906.91
764.938
957.528
672.588
539.106
566.77
429.668
716.984
577.43
584.467
402.84
644.397
986.434
835.738
979.184
666.451
1030.81
836.309
455.528
782.277
605.101
582.91
439.308
772.925
604.681
153.401
245.711
169.915
942.275
868.68
1002
901.616
139.105
161.616
140.921
843.92
764.375
858.926
731.385
140.442
139.527
135.029
736.829
659.412
698.482
598.834
115.335
128.522
85.3471
631.7
509.616
555.451
443.723
51.5419
77.6403
83.3856
471.907
324.38
418.303
378.945
55.0644
90.4844
83.9076
300.702
306.456
367.083
307.406
86.7334
74.1209
68.6286
317.956
366.784
297.668
307.062
86.478
72.2412
68.8106
374.926
380.587
311.78
303.964
164.967
225.273
133.392
972.638
875.024
874.816
786.038
130.321
122.635
108.127
827.559
683.847
740.765
633.147
115.339
107.82
112.528
647.234
543.569
609.843
571.646
81.2841
116.214
122.245
511.252
442.273
564.065
533.379
99.5183
122.682
124.566
429.711
404.582
518.192
467.213
87.1397
123.791
91.5373
389.351
301.492
445.877
304.187
61.8793
69.628
45.531
281.442
280.564
260.061
203.161
65.0586
45.4874
43.5242
286.119
288.086
200.571
206.505
134.409
212.665
151.471
829.503
791.331
870.791
899.445
125.805
158.599
179.257
757.316
679.474
885.894
821.914
139.108
179.757
174.396
662.485
626.717
797.456
726.863
139.934
172.051
160.985
616.698
578.07
704.819
638.765
134.772
157.521
139.961
560.094
496.958
613.636
524.016
88.4464
132.465
60.0905
472.987
305.579
470.812
257.589
44.2989
48.2877
49.9261
259.624
197.1
241.605
225.104
41.0056
50.9777
40.9215
189.355
189.606
217.19
196.865
164.111
310.121
182.994
937.259
955.589
1007.84
1055.38
183.773
183.901
190.969
933.443
854.493
1039.42
941.93
172.292
189.45
172.067
824.769
738.557
900.299
774.604
157.356
163.521
141.457
711.995
635.767
736.532
614.418
133.142
128.89
92.6407
606.396
500.028
560.081
377.551
51.1913
71.8882
43.401
433.15
244.699
307.202
232.032
52.8256
43.8843
55.3738
238.141
233.71
234.658
240.296
43.1642
56.4214
47.2654
228.32
207.24
238.507
231.443
1057.11
1250.35
1063.18
1722.27
1433.98
1695.82
1394.63
890.626
1007.83
847.455
1351.24
1140.98
1310.2
1076.63
744.5
803.919
677.425
1077.47
908.796
1010.82
839.226
574.313
631.08
518.033
862.53
713.337
790.266
668.649
390.686
489.566
430.383
671.413
556.71
632.32
530.563
363.195
410.683
347.062
537.158
522.955
499.27
444.279
416.046
340.512
350.262
526.174
536.48
442.909
441.684
415.259
351.949
331.091
532.699
490.222
435.695
393.851
1028.78
1109.38
942.828
1631.46
1351.09
1539.95
1287.28
796.971
887.519
754.168
1264.74
1031.44
1210.43
1020.76
630.026
723.162
663.961
967.64
816.24
971.986
859.389
518.461
651.234
596.893
777.189
670.265
837.041
666.671
449.967
573.513
499.421
636.185
525.409
613.495
474.871
333.869
469.446
326.845
486.291
410.667
432.926
332.541
322.06
288.459
231.643
407.92
409.001
311.699
283.07
314.147
228.368
228.576
405.229
376.348
283.528
284.224
952.802
1152.26
1078.86
1534.43
1312.48
1668.14
1477.77
800.162
1046.88
944.002
1242.22
1065.04
1404.88
1209.59
715.807
910.375
818.343
1017.64
901.664
1152.11
999.933
641.329
790.437
707.499
877.492
702.938
954.966
820.859
530.73
676.379
564.494
645.477
512.559
772.584
604.454
334.243
500.257
308.57
476.583
363.204
537.656
414.69
224.425
291.42
258.546
330.255
268.536
390.607
328.849
208.712
247.324
219.094
262.021
259.895
313.117
284.358
1140.37
1347.75
1263.12
1761.5
1548.42
1815.7
1678.11
981.964
1228.68
1085.93
1469.14
1255.69
1605.66
1350.96
834.68
1028.04
875.875
1192.04
1021.3
1261.12
1048.77
706.286
830.92
686.44
970.643
820.794
986.933
780.585
539.099
623.235
424.386
767.178
581.18
702.345
500.96
296.69
356.512
284.909
513.672
408.607
455.115
398.778
267.613
283.846
277.069
390.353
341.478
389.132
361.674
230.248
273.267
259.094
328.756
298.401
355.112
339.806
1519.1
1794.16
1472.05
2128.53
1702.43
2038.22
1651.02
1194.19
1379.48
1127.09
1585.24
1303.79
1536.88
1239.78
943.31
1056.39
876.937
1222.62
1023.29
1159.12
964.039
746.182
827.635
701.537
975.44
832.158
911.084
769.613
597.994
662.955
553.05
796.622
710.798
726.247
610.44
564.866
521.475
471.784
698.348
671.169
582.954
542.363
565.601
470.265
462.643
665.454
627.547
537.379
512.117
502.79
454.067
406.953
609.289
536.481
499.34
448.689
1428.08
1655.66
1373.23
1969.03
1609.04
1915.98
1580.49
1085.97
1290.49
1085.32
1497.8
1212.87
1482.48
1235.46
859.952
1031.66
904.491
1137.16
956.675
1168.09
1001.72
817.768
779.26
822.008
852.977
785.477
811.136
858.561
614.754
623.765
654.873
685.004
608.251
641.175
668.161
433.529
384.998
318.999
542.824
496.734
363.604
339.081
429.325
307.322
296.498
493.459
477.395
342.025
352.081
389.347
298.97
297.993
468.006
431.474
354.897
352.892
1402.45
1814.17
1577.07
1942.86
1619.37
2142.15
1814.55
1129.02
1493.69
1272.65
1523.9
1277.19
1704.11
1410.73
944.073
1207.9
1036.84
1207.77
1032.26
1324.66
1098.1
921.693
844.307
946.222
938.33
901.503
781.648
973.751
682.29
517.676
738.82
475.527
687.108
427.941
737.809
353.743
544.543
436.2
408.09
355.257
564.313
479.8
279.44
410.881
346.316
345.457
334.623
455.06
398.97
274.197
330.646
301.868
334.757
336.95
387.666
372.892
1648.9
1954.26
1776.09
2223.91
1886.33
2250.16
1981.12
1318.53
1690.29
1402.64
1768.16
1448.39
1853.32
1481.13
1057.05
1303.62
1076.46
1354.56
1109.52
1364.58
1102.59
834.248
1008.89
787.272
1036.78
829.605
1019.76
783.391
584.411
707.411
521.283
763.527
596.041
714.51
578.445
433.025
482.197
427.862
559.346
486.109
551.602
502.262
360.465
416.431
386.064
465.376
417.553
489.687
459.607
316.753
379.313
362.381
407.619
387.957
453.922
442.076
1748.26
2106.69
1700.24
2433.06
1863.78
2306.67
1846.97
1331.12
1580.03
1272.07
1722.72
1420.48
1712.92
1386.95
1048.69
1189.43
989.573
1343.12
1150.26
1301.79
1082.51
861.189
934.298
787.638
1101.84
978.061
1018.04
859.55
747.369
743.751
630.548
951.863
883.018
817.536
718.525
702.621
604.743
564.945
866.939
814.597
697.238
665.717
646.02
558.808
530.459
799.05
732.403
660.702
634.474
550.582
517.245
466.644
708.281
643.258
622.518
583.571
1659.56
1990.42
1639.07
2228.8
1812.11
2189.67
1814.7
1249.89
1537.11
1278
1686.63
1377.88
1705.1
1416.75
982.974
1206.16
1023.21
1293.91
1071.03
1329.98
1088.9
779.89
972.615
729.182
1004.52
835.897
1012.93
799.985
593.611
645.237
453.104
787.555
667.951
730.844
564.278
517.569
413.426
369.73
642.407
613.382
527.897
486.133
496.033
369.798
378.381
613.774
606.603
490.702
523.867
450.055
381.687
379.196
599.597
571.741
530.652
533.159
1680.65
2242.92
1880.82
2235.13
1863.81
2519.31
2077.43
1318.8
1762.26
1445.74
1752.8
1453.19
1933.98
1549.48
1050.19
1352.86
1107.84
1361.55
1106.08
1437.26
1136.07
737.017
1034.6
829.426
1025.69
802.32
1047.06
826.646
486.757
765.541
608.174
734.255
578.107
770.065
651.606
379.818
572.48
493.674
540.492
487.05
626.032
580.327
362.756
471.01
423.871
488.539
515.459
574.175
567.783
366.239
415.47
403.664
522.642
529.661
567.199
566.327
1951.51
2341.34
2030.65
2610.41
2142.05
2615.69
2145.71
1478.41
1887.04
1492.19
1981.82
1560.83
1956.96
1521.95
1115.32
1372.41
1102.26
1443.02
1134.52
1401.72
1109.6
821.827
1015.46
783.58
1043.33
823.235
1015.9
826.638
603.964
721.565
600.847
769.895
663.179
787.358
704.339
503.527
576.437
529.417
641.299
603.516
684.597
653.036
443.594
517.601
490.483
597.066
586.649
646.687
632.205
418.62
485.576
473.941
584.516
578.634
628.874
624.183
1914.07
2383.01
1914.17
2925.85
2221.08
2781.13
2344.9
1467.91
1776.44
1446.45
2066.92
1789.61
2191.63
1848.33
1203.45
1360.18
1129.39
1760.56
1536.77
1757.57
1473.91
1035.09
1060.97
900.046
1468.99
1366.3
1389.91
1218.78
942.312
859.658
765.832
1358.09
1262.19
1179.08
1081.45
865.9
745.946
722.135
1229.73
1162.91
1062.42
1068.71
779.72
719.135
695.356
1148.46
1062.36
1066.75
1038.11
694.553
684.195
646.639
1039.7
985.954
1027.83
993.668
1882.39
2273.3
1893.26
2737.02
2336.09
2699.43
2381.23
1441.14
1781.32
1481.94
2194.58
1857.68
2256.52
1914.52
1113.43
1387.91
1120.98
1753.83
1452.23
1793.14
1448.03
868.706
1037.98
824.603
1363.67
1173.28
1342.76
1108.66
709.832
760.04
604.095
1126.19
1015.82
1048.09
896.387
669.528
570.753
546.314
997.1
1024.23
873.822
924.952
671.782
560.025
605.358
1039.69
1030.19
971.531
1015
636.443
611.756
608.22
1023.09
983.796
1014.86
989.26
1945.38
2638.53
2164.96
2784.84
2451.32
3221.24
2705.8
1516.76
2011.13
1600.96
2319.08
1952.33
2511.64
2029.8
1135.06
1481.92
1158.55
1823.5
1458.48
1883.09
1477.27
824.695
1064.13
844.303
1348.18
1106.28
1365.63
1140.43
613.9
792.517
686.661
1047.69
903.775
1096.06
1001.28
547.001
665.076
639.853
880.714
929.382
991.247
1037.84
599.745
642.016
647.413
975.398
1017.82
1060.58
1064
606.967
647.74
642.345
1018.45
990.114
1062.1
1040.85
2225.82
2749.96
2197.01
3488.58
2767.74
3387.43
2552.53
1605.95
1993.68
1552.87
2541.03
2022.37
2316.55
1927.75
1155.57
1432.69
1130.65
1878.95
1471.28
1778.79
1420.71
845.841
1036.75
868.319
1362.46
1158.93
1320.09
1224.53
705.43
836.201
761.294
1119.63
1040.1
1189.83
1120.68
667.03
743.158
717.987
1033.97
1076.2
1100.43
1104.8
664.195
713.956
702.743
1082.76
1076.75
1098.61
1085.22
653.744
699.548
693.019
1074.24
1051.1
1077.73
1068.98
769.534
740.57
698.723
727.37
742.98
769.541
718.377
822.894
843.785
822.531
913.597
798.605
881.303
793.103
732.397
667.412
720.922
495.746
733.154
647.66
615.669
844.498
881.945
859.454
912.962
837.454
888.444
865.961
793.039
747.961
812.68
755.155
793.227
737.041
813.018
848.695
935.389
931.921
882.162
910.191
807.848
876.298
755.967
512.432
716.114
779.206
663.797
631.267
800.891
557.361
582.017
503.878
551.001
557.302
595.723
502.773
512.74
610.472
503.173
424.955
551.788
580.894
360.076
441.171
442.426
458.919
340.629
490.671
396.256
330.56
623.587
702.36
668.572
696.694
655.562
681.599
636.975
563.263
563.321
621.028
523.736
608.152
508.402
577.517
514.523
433.945
637.4
513.435
588.162
371.328
563.119
440
324.602
437.439
456.76
392.072
331.174
493.958
857.537
737.512
791.515
538.372
846.35
635.108
795.573
942.607
968.354
937.076
1008.57
923.796
992.783
953.679
889.492
827.18
887.177
841.966
876.611
834.413
898.268
935.206
956.087
884.465
1003.72
790.946
992.01
942.56
866.268
543.267
769.05
802.391
641.218
798.657
872.604
953.627
1022.74
1020.08
964.75
1009.49
962.199
958.346
895.079
841.358
831.47
900.28
835.147
901.942
895.18
628.722
475.163
583.811
394.633
635.827
422.826
574.883
720.694
775.605
726.532
784.116
722.306
778.062
724.722
662.552
608.972
667.382
604.282
666.699
605.219
663.94
675.533
477.021
514.356
735.502
426.48
735.425
672.756
620.28
385.505
467.831
567.955
414.569
568.618
616.756
714.481
780.075
768.361
711.584
774.73
718.767
707.191
656.089
603.741
600.74
654.334
602.002
658.766
650.45
284.481
362.256
277.989
714.457
742.718
682.247
709.456
270.018
252.145
246.81
715.715
650.972
689.251
672.955
240.578
244.77
240.336
638.384
616.448
653.078
624.761
220.997
228.367
214.459
586.751
554.15
578.817
541.5
186.297
193.143
143.804
527.226
461.788
477.44
346.964
126.41
102.519
97.019
390.585
340.902
265.094
252.781
113.521
99.7025
109.534
334.241
340.764
262.121
300.401
98.4967
134.487
127.747
355.211
398.031
339.727
401.474
403.614
431.43
386.413
872.858
835.521
922.402
965.361
408.059
215.111
258.804
401.679
391.771
405.355
209.201
413.352
137.825
151.641
379.224
381.64
411.591
145.767
411.56
139.688
145.483
386.855
384.737
414.773
146.053
368.293
136.988
146.43
377.283
364.622
387.717
142.657
208.822
91.1638
96.1
285.464
244.835
244.382
81.197
170.124
44.7968
60.0268
128.273
131.072
159.806
63.9035
188.622
69.0582
71.6297
183.92
201.842
184.177
72.1141
229.651
94.345
88.039
246.78
249.106
224.717
91.4256
114.379
135.042
96.8417
307.797
290.783
269.387
258.906
385.889
446.451
365.024
881.914
896.663
817.899
820.245
414.755
195.752
236.393
402.59
425.024
397.626
187.551
359.719
146.386
137.352
431.097
409.484
391.918
125.279
285.449
124.293
103.153
354.828
344.075
298.369
98.7831
247.228
91.3615
86.9978
276.149
248.8
247.994
86.958
270.815
84.7867
95.778
229.047
236.529
263.208
102.119
270.789
103.02
112.027
256.695
252.593
277.884
111.568
150.571
64.63
72.212
176.569
164.091
170.868
60.848
159.592
68.7908
57.1046
172.016
178.687
151.647
61.1694
91.6014
97.8344
78.9863
235.922
238.862
200.678
205.333
346.285
497.641
348.099
769.166
727.442
825.463
721.28
357.785
172.236
215.837
347.388
356.185
347.81
171.344
402.325
124.214
138.213
367.447
364.334
394.276
139.689
420.105
132.389
153.286
365.819
369.019
418.322
156.794
409.348
141.207
159.988
373.058
371.83
415.158
158.989
376.784
137.358
151.17
358.924
352.925
387.082
148.191
313.955
126.264
135.634
328.634
310.398
338.825
127.623
116.529
53.2652
60.7868
147.879
121.34
132.653
50.2492
109.398
44.1948
44.024
108.695
110.022
109.652
44.0514
66.6057
77.7884
61.8964
164.453
174.789
163.235
173.893
437.575
711.315
499.936
1013.73
854.372
1025.04
895.697
428.187
192.322
258.767
411.953
415.282
423.172
197.202
514.554
177.565
170.022
489.119
503.603
501.266
177.442
485.108
180.102
182.812
493.564
479.29
502.183
178.928
420.829
164.348
162.494
440.984
428.49
436.046
157.534
354.608
146.246
143.771
391.635
373.373
375.175
136.104
177.142
98.6343
105.579
299.37
220.919
252.677
80.1225
122.037
45.2977
43.373
109.929
116.307
108.359
45.2075
144.126
54.2601
57.0788
137.817
136.937
144.591
57.2481
64.2808
93.5245
74.494
184.494
189.88
199.014
210.249
304.755
384.821
277.053
667.074
742.684
663.608
714.955
275.189
265.728
273.277
801.732
793.518
765.214
743.52
249.681
263.402
242.876
756.048
692.627
697.62
652.378
214.457
218.347
179.547
645.514
566.75
573.743
437.624
126.151
132.401
90.771
434.755
299.79
317.588
228.096
74.6127
72.8277
71.4211
214.379
197.931
199.662
199.417
77.5979