/*--------------------------------*- C++ -*----------------------------------*\
  =========                 |
  \\      /  F ield         | OpenFOAM: The Open Source CFD Toolbox
   \\    /   O peration     | Website:  https://openfoam.org
    \\  /    A nd           | Version:  10
     \\/     M anipulation  |
\*---------------------------------------------------------------------------*/
FoamFile
{
    format      ascii;
    class       volScalarField;
    location    "5.7";
    object      k_0;
}
// * * * * * * * * * * * * * * * * * * * * * * * * * * * * * * * * * * * * * //

dimensions      [0 2 -2 0 0 0 0];

internalField   nonuniform List<scalar> 
12920
(
1863.94
687.405
386.825
306.272
276.268
264.514
252.877
236.404
189.584
149.819
119.83
103.471
92.4446
85.6443
81.533
81.0556
80.5305
76.6246
70.2144
55.5714
902.085
1583.09
829.452
433.432
298.35
272.977
214.994
178.162
148.713
135.937
128.144
127.73
127.635
128.687
128.819
128.775
127.019
121.655
107.02
88.3336
1417.04
1653.15
1407.41
835.481
519.254
437.416
343.534
274.737
205.605
166.008
138.208
126.414
115.533
109.829
103.652
98.5122
93.2625
89.6731
85.9483
84.1578
1715.5
1571.09
1445.12
1169.84
851.234
692.966
488.868
340.032
222.945
163.285
132.679
117.017
105.881
98.7094
93.2188
89.7885
87.5178
86.3225
86.01
86.2362
4293.32
2800.46
1645.66
1044.56
766.63
622.114
428.897
304.812
224.829
181.909
155.903
138.766
124.606
115.477
108.112
103.647
99.989
96.5753
94.3925
91.2565
1821.36
5060.02
2343.14
1095.4
742.738
490.169
398.72
297.75
255.577
217.865
198.157
175.345
152.665
132.889
118.791
110.382
103.611
97.5585
93.1499
89.8078
13258.8
9923.3
3545.9
1696.83
1081.78
703.495
534.916
409.276
365.135
325.846
296.94
256.134
223.315
195.443
166.351
138.091
116.722
102.825
93.977
90.0275
7956.3
3624.78
2240.54
1275.31
857.172
676.233
382.941
272.009
258.048
230.531
210.817
153.708
114.222
118.142
217.349
151.666
112.738
96.5582
90.1483
88.6787
3328.2
1297.82
1305.82
964.141
790.59
452.232
289.144
142.916
138.987
139.879
105.372
44.2721
61.5335
91.9439
148.512
137.905
106.065
92.5456
84.5365
84.0971
3422.17
1956.82
1483.86
993.656
795.866
454.307
243.114
156.151
126.676
102.429
82.114
103.073
72.3336
64.3721
117.574
120.85
97.7131
86.2098
81.5681
82.611
21338.1
9928.45
2586.66
1420.68
963.593
457.51
218.273
126.336
128.861
140.827
138.406
131.891
65.72
44.0188
79.8731
103.211
93.3301
90.2534
90.763
93.2452
3899.49
3441.67
2643.16
2091.48
1493.5
696.513
254.666
168.798
183.048
168.498
152.946
121.948
45.1428
54.2725
88.0055
116.8
107.964
103.133
103.17
104.88
2291.45
2781.43
2167.66
1346.33
865.834
652.239
375.618
284.713
267.319
234.837
173.809
86.9217
74.5608
78.5496
124.72
113.635
109.194
109.468
111.718
116.573
955.078
2774.03
2436.25
1443.4
747.416
523.804
474.782
427.86
342.659
246.507
179.231
155.052
143.152
137.239
129.075
125.144
124.983
125.665
128.339
130.153
661.001
2011.21
1931.46
1007.52
529.401
390.456
370.958
326.775
256.943
216.868
193.129
189.274
188.39
189.174
187.461
178.873
169.977
159.167
155.133
147.734
914.978
2983.53
2831.13
1448.61
636
444.468
363.168
323.726
275.798
259.679
245.285
243.566
240.035
238.189
235.022
226.507
212.135
188.832
178.1
160.395
4669.06
3437.87
1816.82
843.018
529.214
428.162
388.699
352.761
319.717
301.083
281.98
275.978
268.233
266.254
262.541
251.192
229.635
201.387
188.073
166.315
2465.51
4120.14
2365.9
1383.32
992.98
774.436
585.677
492.228
454.392
436.479
396.597
355.868
322.019
298.135
274.151
238.033
208.86
185.693
176.536
159.774
5915.7
4028.31
1983.29
1251.72
803.885
532.409
384.552
333.516
320.05
319.307
319.387
314.182
291.851
249.275
202.911
168.1
142.974
126.469
119.682
112.486
1952.25
1709.75
1301.49
768.469
527.235
478.051
437.826
398.78
328.356
266.007
223.569
201.445
182.965
164.751
147.871
126.878
111.137
93.9749
85.8679
68.0053
4555.22
1946.72
1532.71
1095.75
788.81
647.767
597.933
548.139
450.994
363.707
296.431
252.34
223.175
206.639
196.946
191.273
182.541
167.516
142.869
116.435
1944.1
4259.82
2483.68
1516.01
966.82
858.043
583.48
465.642
362.224
354.281
344.148
348.396
340.887
339.769
336.815
336.103
330.075
320.166
303.508
279.171
1035.62
3948.49
3017.83
1977.01
1319.77
1166.05
831.294
666.807
484.226
422.497
362.887
340.291
313.774
303.016
290.492
283.066
273.581
267.813
259.883
257.205
5904.88
3844.51
3592.84
2909.01
2124.69
1682.26
1103.18
786.383
514.823
416.686
351.995
321.574
294.078
279.18
266.173
260.311
255.002
254.268
254.436
256.074
9230.67
7158.03
4196.96
2518.79
1855.44
1546.73
994.959
749.589
565.459
486.091
422.07
382.795
343.255
323.218
304.085
296.365
287.323
281.042
275.802
270.108
15776.8
11518.4
5597.66
2668.86
1903.5
1260.09
1042.51
778.754
678.522
579.985
528.37
472.586
417.623
370.257
333.764
314.149
296.244
283.928
274.151
267.803
16380.8
12184
6300.9
3639.17
2454.1
1704.87
1306.93
1041.35
904.811
804.135
703.985
646.798
578.149
511.971
431.742
373.39
323.536
293.753
275.886
270.353
10579
5858.59
4802.17
2796.7
2113.83
1650.6
1284.44
1048.2
903.869
782.102
684.746
544.151
504.124
516.404
465.623
342.843
283.801
261.96
255.938
261.526
5282.4
3935.88
3575.78
2539.17
1999.01
1542.1
1242.45
1012.28
851.8
709.167
532.635
366.12
374.269
423.054
382.544
287.743
249.656
236.827
236.916
249.911
6979.11
3904.58
3990.13
2525.71
1892.34
1574.53
1210.35
968.307
750.597
596.029
499.642
425.011
319.213
325.477
297.844
242.904
226.298
226.514
231.382
248.342
27843.7
9384.95
4735.13
2772.15
1750.72
1348.95
1073.86
907.588
773.961
701.374
615.033
497.831
292.513
214.755
210.422
225.098
234.156
249.271
260.542
272.321
7597.74
7982.86
5708.76
3796.75
2155.82
1666
1252.83
1100.5
942.512
801.325
669.754
460.66
287.785
259.329
245.644
270.548
274.437
283.329
294.213
304.347
20013.4
8986.2
4228.76
2762.25
1667.39
1531.38
1239.23
1214.99
1007.18
829.879
538.994
334.064
301.678
286.806
305.901
302.336
305.196
315.416
331.454
341.583
12263.5
6797.49
5164.51
3141.05
1680.72
1359.84
1243.01
1104.38
818.957
605.33
471.34
430.413
405.474
391.247
371.547
366.547
368.701
374.75
384.768
386.049
7945.89
5769.2
4716.79
2422.46
1329.88
1038.16
987.444
853.792
679.79
592.242
544.665
540.362
533.955
531.648
525.092
507.735
491.057
467.766
459.832
442.965
10057.5
8074.81
3735.9
2189.17
1286.04
1163.59
973.347
883.409
759.17
721.019
676.243
666.108
650.05
641.009
632.228
615.287
594.227
547.577
522.393
482.458
8733.08
7950.69
3675.25
1946.76
1479.23
1269.54
1152.74
1033.35
918.202
859.576
799.299
777.433
745.645
725.787
708.49
680.921
650.65
596.704
561.034
504.842
29933.1
20564.4
6713.51
3508.17
2296.23
1965.23
1510.05
1464.82
1386.93
1334.64
1177.25
1045.61
937.728
845.231
761.541
681.158
626.169
578.589
552.195
497.845
14281.8
9368.63
4139
2665.27
1560.04
1215.51
929.636
917.5
899.246
905.085
884.458
828.819
726.494
624.762
519.961
438.881
393.37
385.48
389.102
385.951
2310.47
3428.33
2993.7
1921.8
1292.11
1090.94
974.901
872.235
750.08
638.511
532.222
449.445
390.767
342.56
305.794
273.804
238.977
194.732
169.925
135.654
5916.06
2930.93
2089.39
1409.68
1044.12
884.88
767.971
644.323
521.534
425.627
353.449
302.19
264.522
237.919
218.868
201.793
182.045
158.973
138.424
129.697
15678.5
6055.03
3801.67
2344.26
1569.54
1320
892.542
761.682
596.908
563.348
499.714
485.471
456.334
453.095
444.016
440.437
427.997
415.305
405.803
404.483
3370.93
6161.39
4688.06
2829.94
2068.54
1570.63
1120.52
871.396
665.821
579.645
503.42
470.984
438.067
425.802
411.569
405.819
398.437
396.308
395.662
398.378
8791.85
4816.72
4990.32
3931.94
2847.39
2045.16
1335.52
940.183
683.87
572.116
500.052
458.564
426.023
408.142
393.212
386.755
380.92
380.626
381.298
384.857
8052.64
7853.19
5342.16
3338.06
2580.17
1915.63
1310.08
968.104
769.562
652.98
578.169
525.522
483.531
458.383
435.342
422.745
409.55
401.959
396.103
393.377
9803.53
10490.5
6876.49
3513.72
2555.03
1693.98
1411.15
1045.53
902.301
755.445
682.669
610.476
552.529
508.035
471.189
445.772
423.93
409.209
399.491
395.827
13021.9
8904.53
6755.74
4362.4
3105.15
2166.12
1654.19
1296.67
1102.22
953.598
840.337
775.024
694.574
623.23
544.426
489.054
444.231
419.339
406.797
406.33
11599.3
6467.05
5530.59
3734.25
2837.02
2169.86
1783.05
1416.39
1162.5
981.104
848.726
753.84
717.178
664.317
517.334
436.032
396.216
384.309
384.919
399.734
5451.05
4669.17
5125.56
3646.99
2738.37
2196.88
1845.3
1425.58
1124.23
895.253
704.02
581.27
567.68
557.869
450.219
364.662
347.158
349.079
359.078
387.134
6760.89
6245.12
5450.25
3485.13
2668.9
2203.71
1730.94
1333.57
1017.35
817.703
662.82
498.363
433.158
423.255
362.996
322.988
325.189
337.92
356.432
381.845
26512.7
9349.24
5551.55
3237.52
2437.21
1997.39
1659.34
1323.63
1074.86
915.371
570.326
432.897
324.135
275.667
278.075
323.13
350.157
371.332
387.088
400.03
31773.2
19272.9
6649.95
4205.06
2646.75
2235.41
1905.73
1557.33
1245.66
999.656
773.911
523.597
412.492
347.316
334.637
381.982
402.501
418.826
431.333
436.699
11201.8
8931.6
4985.94
3196.51
2394.69
2087.95
1795.25
1631.91
1224.89
944.346
628.757
483.75
435.276
405.913
444.33
450.193
464.737
477.785
486.586
485.581
15678.4
8863.22
5881.41
3571.95
2277.42
1896.12
1644.94
1329.96
993.107
786.15
661.032
617.75
585.087
571.63
557.878
555.596
557.681
557.751
556.449
542.2
8124.66
7432.84
4944.69
2714.03
1922.88
1486.52
1384.83
1151.38
937.664
830.944
767.42
752.244
733.924
725.452
711.204
692.413
678.858
654.935
641.484
606.131
14781.8
7435.11
4335.61
2553.9
1971.46
1637.3
1409.28
1239.71
1074.66
1001.47
931.853
906.077
877.166
861.26
841.846
814.551
789.33
743.065
717.803
662.29
8143.13
10720.1
6214.58
2952.63
2238.55
1847.83
1672.03
1487.75
1311.34
1209.89
1108.69
1060.38
1006.07
970.256
932.408
888.772
852.99
796.837
763.667
693.645
13284.1
10814.4
6221.18
4136.96
2952.47
2689.84
2230.45
2127.7
1878.31
1698.27
1462.1
1306.36
1169.37
1061.9
972.529
897.808
850.212
796.214
760.538
683.569
5388.04
7023.34
5228.45
3519.84
2331.71
2089.09
1691
1624.83
1463.72
1355.92
1186.4
1054.66
911.167
790.764
687.232
616.335
580.282
574.9
573.287
550.74
1140.44
2858.79
2729
2073.21
1544.15
1295.97
1118.59
973.474
832.65
711.525
607.18
523.997
461.717
409.445
360.57
300.372
245.128
198.805
177.494
149.634
3726.37
4188.38
2965.14
1646.86
1162.35
998.259
817.858
647.667
517.09
426.161
355.812
301.722
260.857
226.628
198.451
173.129
155.339
144.934
141.282
144.097
11375
8257.31
5107
2934.68
2033.92
1527.24
1151.12
978.54
809.62
743.49
653.422
620.083
579.923
573.095
558.808
555.511
548.215
547.04
547.802
559.618
9773.59
9801.1
6211.36
3477.98
2682.7
1779.87
1377.33
1023.12
846.037
725.242
652.677
605.263
575.668
559.316
548.558
544.509
543.092
545.775
549.898
561.108
21670.1
6978.18
6628.28
4630.57
3402.47
2158.92
1527.11
1044.27
849.469
711.001
649.808
593.542
565.723
543.136
531.192
524.463
521.582
523.123
525.95
535.074
8897.78
8227.93
6164.76
3903.99
3165.74
2069.78
1566.21
1116.22
952.352
795.18
730.727
659.736
624.636
592.022
571.176
555.685
543.861
538.696
535.254
538.071
8828.04
9578.97
6961.25
3928.32
3092.5
1971.59
1710.68
1228.51
1085.96
887.338
819.083
729.851
683.579
635.538
602.552
576.223
558.127
547.385
541.57
543.306
9712.64
9323.36
7339.09
4597.09
3585.47
2416.57
1897.5
1453.84
1246.64
1047.11
954.813
867.691
789.068
713.234
647.826
604.39
575.088
562.321
558.518
564.723
12310.9
7713.74
6500.16
4127.1
3421.68
2502.28
2068.08
1607.02
1303.56
1098.74
964.065
888.552
816.407
714.377
587.158
544.674
531.725
534.156
544.147
568.845
12532.1
7103.34
6627.73
4252.84
3274.42
2610.12
2210.38
1622.21
1247.94
1000.65
826.803
735.928
694.307
625.096
511.786
476.583
480.45
499.726
523.507
556.672
21123.4
7653.22
6637.6
4091.24
3313.45
2599.55
2037.03
1541.86
1170.25
928.377
729.654
561.339
514.052
486.583
437.656
450.118
464.643
494.295
517.686
543.55
22382.8
9591.05
5909.08
3571.74
3043.89
2432.37
2020.15
1578.09
1242.31
993.562
655.323
444.646
369.699
364.228
391.48
469.579
499.123
523.369
538.919
550.889
34949.6
14965.2
6517.95
4140.76
3191.62
2651.74
2320.97
1820.8
1375.16
1035.55
754.67
571.263
483.968
435.601
449.626
527.709
555.367
574.294
584.2
585.268
7161.34
8936.91
5706.19
3477.91
3093.55
2479.57
2156.5
1761.14
1279.91
940.435
707.446
600.692
557.458
532.761
603.935
618.102
638.258
647.586
648.624
638.137
11451.2
8856.99
5927.86
3520.95
2854.75
2235.3
1951.69
1466.28
1142.77
930.623
831.609
788.07
761.959
752.21
745.159
744.411
745.94
740.558
729.981
698.087
14083.4
7996.43
5315.31
3038.76
2511.37
1830.07
1728.88
1376.61
1164.56
1025.6
967.997
941.545
922.905
909.285
893.149
874.936
864.336
838.639
817.97
764.49
7588.82
8606.69
5594.06
3074.99
2607.27
1973.58
1792.98
1515.57
1358.4
1237.93
1167.38
1122.15
1091.65
1066.68
1042.29
1008.84
984.128
936.986
906.955
834.748
15075
13658.1
8018.81
3855.25
2952.05
2223.58
2095.3
1800.07
1630.03
1471.98
1368.43
1293.67
1236.39
1190.21
1149.06
1097.73
1059.95
998.555
960.916
876.622
13570.8
10938.9
7600.46
4580.64
3600.49
3102.21
2749.69
2512.43
2206.29
1942.96
1700.1
1519.78
1386.26
1281.88
1206.14
1134.92
1086.33
1013.25
965.028
870.172
3958.19
6955.75
6136.33
3876.05
2929.68
2579.31
2241.51
2099.86
1851.37
1650.32
1415.09
1237.29
1087.99
975.347
889.442
834.006
812.133
786.814
768.606
715.783
2445.3
2765.63
2426.52
1918.67
1542.75
1301.42
1102.98
943.376
802.364
677.257
579.569
499.003
435.065
370.886
309.597
253.537
217.678
188.266
175.131
151.81
1991.37
4423.9
3145.97
1612.37
1171.78
995.758
737.023
564.42
444.588
361.424
289.834
231.173
189.327
163.378
149.661
143.628
141.86
141.983
143.728
150.775
15802.9
10822
6246.67
3688.11
2505.33
1719.37
1480.97
1097.25
1083.47
889.371
874.81
763.037
755.966
717.891
721.911
713.182
716.702
722.617
733.92
763.246
36512.1
17304.6
8389.73
4619.04
3297.29
2070.89
1702.32
1146.1
1082.45
860.895
853.246
756.327
762.135
723.958
732.18
721.82
730.565
735.607
744.699
767.137
29891
10423.7
8171.44
5133.36
3841.51
2296.28
1792.07
1147.83
1069.6
855.034
847.272
751.185
752.482
711.863
715.046
702.778
707.364
709.63
714.615
731.364
18226.5
10302.4
7413.26
4969.64
3803.54
2349.33
1900.87
1251.9
1185.55
939.895
927.705
811.837
808.551
753.798
750.326
726.949
725.201
720.567
721.701
731.333
10340.2
10275.3
7553.79
4719.18
3795.96
2349.59
2110.01
1396.49
1312.15
1023.98
997.119
872.748
853.56
790.549
773.211
744.773
737.969
731.743
729.929
738.236
12487.1
10385.4
8116.24
4992.26
4340.58
2661.59
2316.07
1598.73
1468.51
1150.47
1129.72
981.419
940.111
839.768
800.942
765.763
757.859
755.096
757.57
771.425
13844.3
10055.5
7252.74
4823.25
4289.42
2751.19
2313.37
1747.37
1472.87
1238.16
1135.13
1032.38
944.089
823.52
740.917
727.698
729.362
744.211
758.229
784.847
15948.5
9137.19
7579.64
5115.94
3918.47
2896.82
2512.29
1765.59
1393.59
1152.26
1011.18
923.263
849.047
755.28
689.097
679.821
689.973
717.2
744.039
775.028
21112.3
9483.18
7408.36
4828.88
4188.15
2885.88
2308.07
1751.92
1351.77
1040.56
821.58
687.264
674.763
665.321
646.731
667.788
681.133
709.37
732.359
756.518
19998.5
10792.8
6827.45
4507.4
3888.51
2772.7
2319.52
1827.05
1414.58
1045.82
759.761
578.919
557.639
606.933
641.157
698.583
710.905
731.461
744.101
754.909
31339.9
11928.7
7984.91
4354.54
4207.67
3152.62
2742.6
2046.56
1479.1
1057.63
797.232
686.977
666.332
662.999
689.212
753.118
770.522
782.567
788.674
785.652
12144.7
9572.33
6614.56
3956.77
4165.84
3043.47
2514.06
1837.57
1380.15
1008.25
877.22
786.632
770.386
752.032
841.111
850.707
861.334
862.509
856.893
834.437
6401.9
9372.96
6698.53
3817.25
3862.52
2660.28
2452.19
1750.42
1422.42
1143.99
1087.4
1016.75
1010.61
989.433
988.279
980.858
979.493
961.758
943.336
895.946
13083.9
9354.52
6680.3
3650.86
3473.59
2289.2
2306.5
1646.95
1515.04
1260.96
1249.49
1181.64
1175.1
1140.72
1125.83
1100.23
1089.05
1055.35
1026.88
956.651
21578.8
10392.3
7095.34
3717.2
3583.55
2383.15
2379.3
1853.18
1772.53
1517.26
1487.93
1383.19
1368.73
1313.34
1292.51
1244.39
1219.67
1162.86
1126.32
1035.86
7004.2
11850.1
10829.1
4851.31
4051.43
2583.84
2725.44
2089.96
2065.02
1747.29
1707.03
1552.52
1520.6
1436.35
1401.22
1330.18
1295.86
1225.1
1185.18
1086.87
10181.5
10554.5
10392.7
5278.04
4820.85
3446.36
3448.84
2823.6
2652.26
2174.53
2019.01
1749.58
1670.67
1537.42
1484.57
1395.54
1345.8
1250.44
1199.23
1092.95
9117.86
8151.18
7284.02
4071.61
3983.28
2912.05
2922.68
2431.24
2305.98
1882.04
1705.74
1430.36
1345.15
1230.32
1191.6
1126.14
1097.75
1033.41
1001.24
928.409
1143.04
2417.85
2122.13
1723.93
1408.72
1143.66
943.123
779.392
646.352
521.61
426.548
343.668
286.382
245.637
220.44
197.535
180.372
160.443
148.087
133.468
701.294
883.136
631.915
905.743
763.984
956.787
671.172
538.229
566.259
428.781
716.065
576.92
583.134
401.677
643.584
985.49
834.554
978.076
664.822
1029.06
834.476
454.982
780.868
602.734
581.184
437.88
771.004
603.238
153.414
245.723
170.118
942.827
868.985
1002.32
901.711
139.003
161.501
140.836
844.103
764.774
858.643
731.115
140.592
139.592
134.954
737.343
659.297
698.439
597.976
114.765
128.102
84.8446
631.334
508.522
554.184
442.839
50.8433
77.4409
83.7985
470.719
322.819
417.589
378.788
55.3863
90.7258
83.3049
300.215
307.377
366.675
307.083
87.2377
73.7592
68.8146
319.104
368.086
297.981
308.048
86.57
72.6825
69.046
375.836
380.728
312.509
303.891
165.04
224.527
132.949
973.651
874.897
876.339
785.112
130.127
122.172
107.909
826.944
683.212
739.596
632.378
114.977
107.668
112.683
646.821
542.734
609.337
571.879
81.3073
116.415
122.401
510.527
442.007
564.411
533.725
99.8858
122.895
124.787
429.709
404.543
518.518
467.327
86.2442
123.931
90.1048
388.875
300.584
445.455
301.716
62.0106
68.5872
45.5481
281.354
281.549
258.435
203.231
65.2956
45.5682
43.8486
286.93
288.152
200.972
207.012
134.143
211.772
152
831.828
790.919
874.112
900.436
125.809
159.242
179.466
756.755
679.257
886.511
821.92
139.267
179.879
174.487
662.462
627.037
797.41
726.888
139.967
172.139
161.079
617.062
578.235
704.851
638.724
134.874
157.55
139.893
560.209
496.912
613.392
522.848
87.0875
132.105
59.068
472.225
302.875
467.685
256.376
44.2849
47.9896
50.0853
257.932
196.842
241.526
225.021
41.2572
51.0283
40.888
189.374
189.937
217.023
196.658
164.361
307.34
183.153
939.586
955.857
1012.3
1056.24
183.805
184.091
191.126
933.773
854.135
1039.75
941.395
172.256
189.468
171.763
824.311
738.18
899.673
773.607
157.412
163.163
140.932
711.679
635.432
735.521
612.729
132.96
128.363
91.6016
605.823
498.046
557.985
374.257
50.5648
70.8262
43.2973
429.226
244.253
304.063
232.5
53.0138
44.0134
55.5027
238.389
233.786
235.331
240.638
43.1555
56.5552
47.34
228.293
207.106
238.717
231.49
1056.91
1249.48
1063.29
1722.25
1433.18
1693.2
1394.34
890.666
1007.6
847.108
1350.53
1140.68
1309.62
1075.81
744.121
803.72
676.505
1077.44
908.248
1010.03
838.267
573.167
629.933
517.162
861.979
712.485
789.307
667.771
389.339
488.788
429.949
670.583
556.473
631.432
529.794
364.027
410.043
347.064
537.382
524.055
498.66
445
417.252
341.085
351.154
527.52
537.402
443.868
442.293
415.391
352.616
330.991
533.33
489.683
435.968
393.59
1028.52
1110.03
941.783
1630.17
1350.36
1539.85
1285.69
796.236
886.287
753.316
1263.74
1030.29
1208.81
1019.58
629.288
722.573
664.103
966.586
815.497
971.053
859.214
518.1
651.493
597.124
776.492
669.705
836.917
666.355
449.594
573.703
499.228
635.642
524.517
613.172
474.003
333.381
468.623
324.808
485.45
411.296
431.78
331.629
322.997
287.143
231.699
408.899
409.711
311.029
283.391
314.195
228.77
229.102
405.612
376.139
283.986
284.552
952.311
1153.17
1079.19
1534.87
1311.19
1667.99
1476.38
799.778
1047.04
943.755
1240.9
1064.08
1403.58
1208.51
716.024
910.121
818.214
1016.88
901.419
1151.11
999.185
641.372
790.334
707.266
877.335
702.571
954.268
819.927
530.383
675.936
562.728
645.038
511.709
771.425
601.919
332.045
496.811
307.656
475.155
361.531
535.046
413.986
224.064
291.174
258.282
328.676
268.207
389.954
328.343
209.026
247.054
218.932
261.959
260.047
312.712
284.199
1139.96
1348.81
1263.53
1761
1546.35
1816.3
1677.53
981.388
1228.88
1085.41
1467.36
1254.33
1604.76
1349.72
834.157
1027.4
874.966
1190.76
1020.25
1259.86
1047.52
705.73
829.981
684.637
969.629
819.537
985.544
778.235
536.575
620.982
421.231
765.642
578.369
699.63
498.833
296.367
353.845
285.285
511.139
408.233
453.811
398.84
267.55
284.312
277.291
389.993
341.192
389.184
361.728
230.198
273.471
259.219
328.536
298.375
355.238
339.9
1517.89
1791.41
1471.54
2127.36
1700.68
2035.09
1649.93
1193.65
1378.68
1126.07
1583.74
1302.93
1535.47
1238.21
942.669
1055.4
875.941
1222
1022.56
1157.62
962.805
745.382
826.668
700.643
974.843
831.696
909.905
768.632
597.887
662.059
552.336
796.398
711.137
725.322
610.079
565.935
521.024
472.611
698.992
671.957
582.951
543.091
566.227
471.24
463.07
666.221
627.421
538.055
512.138
502.134
454.231
406.679
608.968
535.606
499.176
448.305
1427.15
1654.85
1371.4
1967.97
1607.56
1914.46
1578.06
1084.66
1288.67
1083.97
1496.06
1211.08
1480.08
1233.51
859.129
1030.56
903.997
1135.52
955.461
1166.36
1000.67
817.099
778.496
821.414
852.071
784.969
810.264
857.805
614.088
623.011
654.542
684.247
607.697
640.342
667.708
434.376
384.026
318.427
542.727
497.574
362.816
339.195
429.869
306.944
296.863
494.259
477.554
342.295
352.423
389.127
299.501
298.273
467.976
431.127
355.169
352.924
1400.85
1813.39
1575.17
1941.06
1617.02
2141.06
1811.55
1127.82
1491.93
1271.25
1521.56
1275.23
1701.28
1408.37
943.425
1206.6
1035.85
1206.01
1031.3
1322.44
1096.27
920.974
843.62
945.843
937.562
900.946
779.713
973.048
680.746
516.967
737.727
474.475
685.859
427.126
736.419
352.055
542.443
435.479
406.397
354.32
563.297
479.067
279.213
410.168
345.798
344.879
334.563
454.321
398.512
274.326
330.245
301.775
334.73
336.925
387.335
372.837
1646.4
1954.91
1775.52
2223.51
1882.99
2250.67
1980.01
1316.87
1689.18
1401.21
1765.01
1445.84
1851.43
1478.97
1055.77
1302.14
1075.07
1352.16
1107.46
1362.31
1100.56
832.747
1007.29
784.804
1034.76
827.551
1017.49
781.068
581.928
704.632
519.606
761.412
594.716
712.357
577.589
432.601
481.269
427.855
558.5
485.588
551.127
502.077
360.157
416.449
386.1
464.856
417.247
489.546
459.569
316.792
379.459
362.535
407.414
387.993
453.998
442.159
1746.39
2104.09
1699.14
2433.3
1861.77
2304.2
1845.63
1330.22
1578.58
1270.42
1721.08
1419.92
1711.33
1385.44
1047.97
1187.86
988.276
1342.76
1150
1300.41
1081.45
860.822
933.056
786.646
1101.7
978.489
1017.08
859.029
747.728
742.857
630.289
952.483
883.725
817.183
718.685
703.18
604.814
565.534
867.641
814.923
697.566
666.097
645.645
559.309
530.336
799.24
731.939
660.96
634.289
549.723
516.968
466.255
707.756
642.794
622.273
583.274
1658.06
1988.72
1636.61
2227.6
1810.36
2187.08
1811.86
1248.04
1534.66
1275.92
1684.73
1376.15
1702.39
1414.52
981.648
1204.27
1021.68
1292.31
1069.79
1327.95
1087.22
778.863
971.385
727.613
1003.37
835.147
1011.35
798.603
593.209
643.713
452.121
786.951
667.929
729.575
563.539
518.271
412.68
369.878
642.618
613.828
527.367
486.117
496.058
369.986
378.608
614.141
606.525
490.793
523.951
449.71
381.845
379.194
599.45
571.452
530.693
533.043
1678.22
2241.3
1877.68
2231.93
1860.78
2515.34
2073.04
1316.68
1759.28
1443.18
1749.95
1450.78
1929.99
1546.35
1048.7
1350.41
1105.77
1359.34
1104.25
1434.33
1133.69
735.306
1032.61
827.48
1023.98
800.765
1044.84
824.973
485.236
763.598
606.972
732.769
577.108
768.63
650.927
379.145
571.622
492.934
539.643
486.704
625.467
579.835
362.653
470.282
423.435
488.31
515.414
573.743
567.617
366.228
415.156
403.648
522.609
529.571
567.114
566.307
1948.09
2341.72
2029.5
2607.25
2137.43
2613.49
2142.78
1475.7
1884.97
1489.84
1977.57
1557.48
1953.33
1518.86
1113.04
1369.95
1100.05
1439.93
1131.98
1398.67
1107.17
819.711
1013.03
781.415
1040.95
821.559
1013.51
825.266
602.891
719.657
600.127
768.514
662.637
786.267
703.986
502.978
576.053
529.194
640.883
603.173
684.368
652.976
443.286
517.458
490.421
596.768
586.564
646.654
632.292
418.688
485.646
474.066
584.5
578.691
629.004
624.386
1911.36
2380.22
1911.87
2923.43
2222.55
2773.45
2339.1
1466.98
1773.98
1444.34
2067.39
1787.9
2186.24
1843.73
1202.88
1358.27
1128.14
1759.26
1537.77
1753.43
1470.89
1035.52
1059.94
899.692
1468.03
1365.56
1387.13
1216.61
942.922
859.515
766.157
1356.67
1261.44
1176.97
1079.47
866.193
746.407
722.611
1228.34
1161.19
1060.6
1069.34
779.414
719.499
695.354
1146.92
1062.13
1067.42
1039.39
694.519
684.169
646.715
1039.8
984.36
1029.25
995.013
1879.64
2269.3
1889.33
2735.82
2328.75
2690.3
2371.67
1438.77
1777.61
1478.94
2187.75
1852.14
2247.36
1907.02
1111.98
1385.25
1119
1748.81
1448.58
1786.44
1442.96
868.106
1036.21
823.342
1360.31
1170.76
1338.18
1105.28
710.003
758.956
603.552
1123.74
1013.73
1045
893.982
670.09
570.403
546.476
995.101
1024.91
871.728
925.374
671.875
560.36
605.618
1040.88
1031.79
973.128
1016.93
636.543
611.979
608.41
1024.71
984.427
1016.74
990.471
1941.18
2631.91
2159
2780.78
2440.83
3206.93
2692.92
1513.5
2005.72
1596.78
2309.03
1944.14
2499.54
2020.36
1132.89
1478.11
1155.75
1816.21
1453.12
1874.67
1471.78
823.303
1061.64
842.776
1343.39
1102.84
1360.93
1137.47
613.152
791.307
686.156
1044.53
901.119
1093.48
999.069
546.881
664.682
639.634
878.372
929.478
989.149
1037.85
599.917
641.874
647.483
976.804
1019.74
1061.45
1064.84
607.209
647.878
642.592
1020.31
990.345
1063.02
1041.12
2219.55
2744.92
2192.61
3477.23
2753.87
3365.72
2546.43
1601.58
1988.51
1548.76
2528.51
2013.11
2308.33
1921.93
1152.6
1428.71
1127.79
1870.43
1466.01
1771.1
1417.52
844.33
1034.06
866.998
1358.06
1156.36
1317.21
1223.25
705.04
835.225
761.023
1117.36
1038.26
1187.82
1119.92
666.912
743.01
718.05
1032.2
1076.65
1099.34
1103.57
664.314
714.061
702.964
1083.16
1077.35
1096.71
1084.02
654.066
699.798
693.462
1074.87
1050.02
1076.05
1067.06
768.957
739.858
698.439
726.632
742.565
768.733
717.965
821.956
843.304
821.446
912.82
798.048
880.597
791.433
732.067
667.506
719.796
494.674
732.945
647.953
613.811
843.589
880.91
858.334
911.831
836.451
887.515
864.879
792.233
747.113
811.642
754.341
792.299
736.437
812.026
847.48
934.728
930.871
880.562
909.349
805.972
875.134
755.309
511.254
715.297
777.439
663.706
629.306
799.883
556.494
581.152
502.915
550.219
556.469
594.837
501.968
512.534
610.532
502.644
424.233
551.511
581.155
359.38
440.644
441.58
458.476
340.221
489.996
395.67
329.989
622.844
701.512
667.673
695.912
654.683
680.989
636.145
562.463
562.679
620.248
523.272
607.306
507.78
576.778
514.168
432.986
636.624
512.054
588.1
370.386
562.247
439.519
323.938
436.855
455.54
391.651
330.331
493.08
856.528
736.478
790.58
537.271
845.519
633.66
794.368
941.663
967.704
936.139
1007.37
923.118
991.863
952.478
888.389
826.152
886.141
840.539
875.781
833.118
896.975
934.191
955.068
882.698
1002.45
788.716
991.056
941.211
864.942
541.98
767.207
800.638
639.61
797.095
871.051
952.373
1021.27
1018.56
963.014
1008.28
960.714
956.831
893.707
839.705
829.758
898.532
833.61
900.412
893.597
627.059
474.445
582.102
393.66
634.407
421.981
573.149
718.943
774.353
724.842
782.476
720.786
776.552
722.845
660.627
606.944
665.3
602.205
664.904
603.302
661.845
673.653
475.684
512.539
733.613
425.225
733.698
670.814
618.409
384.025
466.2
566.364
413.222
566.924
614.942
712.623
778.255
766.525
709.65
773.009
716.808
705.331
654.208
601.999
599.233
652.539
600.27
656.784
648.698
285.067
361.931
278.113
715.198
743.356
682.507
710.047
270.316
252.498
247.184
715.424
651.414
689.589
673.514
241.107
245.184
240.676
638.604
617.005
653.804
625.332
221.274
228.519
214.479
587.01
554.717
579.161
541.58
186.246
192.789
142.772
527.283
461.337
476.184
344.943
126.333
102.227
97.166
390.216
341.304
264.54
253.219
113.855
99.9593
110.081
335.146
342.018
262.993
302.17
98.9598
135.01
128.042
356.392
398.624
341.462
402.491
404.212
432.296
387.408
875.037
836.306
925.439
965.454
408.819
214.857
258.739
402.476
392.441
406.405
209.442
413.334
137.907
151.721
378.916
381.627
411.369
145.898
411.725
139.816
145.578
386.622
384.773
414.892
146.196
367.392
136.899
146.482
376.9
363.874
387.452
142.456
207.199
90.443
95.3326
284.205
242.688
242.771
80.4956
170.745
44.8292
59.9863
127.953
131.347
159.844
64.2154
189.242
69.4936
71.6342
184.779
203.126
184.471
72.2237
230.232
94.5118
88.4897
247.405
249.555
225.609
91.6952
114.066
134.935
96.5884
307.375
289.821
269.142
258.338
386.073
446.469
365.109
884.174
897.985
820.15
822.545
415.218
195.654
235.758
403.452
425.998
398.584
187.199
358.04
145.98
136.809
430.638
408.186
390.293
124.697
284.798
124.328
102.911
354.743
344.097
297.718
98.5376
247.49
90.8389
87.0032
274.836
247.73
247.991
87.0267
271.565
85.0732
96.1605
229.478
237.32
263.954
102.551
270.514
103.068
112.2
256.948
252.394
278.192
111.63
150.245
64.4085
71.3865
175.758
164.102
169.474
60.4763
160.31
69.1588
57.3553
172.919
179.34
152.477
61.5803
91.4628
98.0119
78.9858
235.847
238.5
200.881
205.28
346.231
494.733
347.279
769.83
729.757
823.738
722.537
359.037
171.842
215.193
347.96
357.369
348.501
171.015
402.73
124.093
138.257
367.179
364.118
394.675
139.789
420.602
132.54
153.533
366.063
369.358
418.827
157.029
409.614
141.31
160.118
373.412
372.151
415.506
159.076
376.899
137.488
151.232
359.16
353.181
387.28
148.25
312.467
126.019
135.561
328.6
309.545
338.542
127.154
116.212
52.7274
59.9347
145.735
120.616
131.149
49.885
109.589
44.2836
44.066
108.924
110.39
109.811
44.105
66.6564
77.7713
61.9553
164.626
174.804
163.266
173.89
433.573
705.81
496.465
1008.9
853.322
1022.38
896.786
427.652
190.884
256.227
410.906
415.029
421.746
195.863
515.18
178.009
170.297
490.434
504.409
502.394
177.823
484.378
179.954
182.623
493.273
479.005
501.525
178.551
420.445
164.369
162.248
440.948
428.547
435.542
157.369
354.008
146.107
143.544
391.484
373.089
374.669
135.879
173.278
97.0139
104.369
296.552
216.304
248.931
78.6809
123.324
45.4028
43.4296
110.206
117.3
108.904
45.5048
144.263
54.2961
57.1741
137.988
137.015
144.805
57.3032
64.2649
93.5229
74.4426
184.471
189.815
199.07
210.288
304.861
383.809
276.841
668.132
745.815
663.906
716.963
275.407
266.379
273.891
803.024
794.212
766.792
744.663
249.599
263.595
242.828
755.902
692.258
698.327
652.449
214.009
217.973
178.564
644.987
565.024
572.544
435.539
124.966
131.315
90.0022
431.495
296.818
315.215
226.97
74.5922
72.6767
71.4526
213.385
198.2