/*--------------------------------*- C++ -*----------------------------------*\
  =========                 |
  \\      /  F ield         | OpenFOAM: The Open Source CFD Toolbox
   \\    /   O peration     | Website:  https://openfoam.org
    \\  /    A nd           | Version:  10
     \\/     M anipulation  |
\*---------------------------------------------------------------------------*/
FoamFile
{
    format      ascii;
    class       volScalarField;
    location    "5.7";
    object      nut;
}
// * * * * * * * * * * * * * * * * * * * * * * * * * * * * * * * * * * * * * //

dimensions      [0 2 -1 0 0 0 0];

internalField   nonuniform List<scalar> 
12920
(
5.26175
6.04975
1.53513
2.86532
1.2334
1.68066
1.23396
1.43806
1.0435
0.933885
0.708891
0.645
0.553038
0.51268
0.468236
0.454374
0.428269
0.39473
0.358201
0.298796
1.8824
8.8388
5.09882
4.6977
2.03477
3.71224
1.6556
2.30409
1.2971
1.51064
1.20094
1.30858
1.1939
1.22205
1.1599
1.14965
1.09898
1.01968
0.852422
0.682087
2.81059
9.01644
6.64061
6.49648
3.4871
4.68839
2.80686
3.72126
1.93627
2.12979
1.4701
1.54457
1.25952
1.23577
1.08586
1.02389
0.933149
0.879605
0.811157
0.765011
2.87754
6.52754
7.94553
7.65753
5.80971
5.90597
3.98391
4.14807
2.21802
2.30189
1.52416
1.56016
1.24085
1.19435
1.05176
1.00692
0.950499
0.922404
0.892068
0.849125
15.1014
11.9528
7.8776
7.2454
5.13434
5.5968
3.61069
3.92519
2.246
2.42339
1.67746
1.66124
1.31589
1.25158
1.10245
1.06087
0.998645
0.961984
0.920972
0.863808
2.7768
16.0307
10.8854
7.46652
5.25747
4.97427
3.52898
3.87636
2.63986
2.71915
2.04625
1.86852
1.46474
1.27481
1.09875
1.02893
0.969077
0.927432
0.881744
0.833346
20.8815
22.2165
12.6455
9.32535
6.54386
5.96242
4.34399
4.54092
3.35331
3.29088
2.5145
2.10564
1.64184
1.43761
1.23533
1.08524
0.974096
0.902773
0.837017
0.791212
8.47571
13.9964
10.6319
8.01533
5.66951
5.84068
1.50054
1.5663
1.13622
1.042
0.79136
0.530133
0.355265
0.355551
1.58768
1.20108
0.992789
0.882065
0.820715
0.76983
5.81829
8.20442
6.5204
6.9745
5.33441
2.38232
0.502621
0.298475
0.283753
0.261422
0.171736
0.0799518
0.117175
0.172532
0.567621
1.22561
0.967793
0.841221
0.740159
0.708633
6.47214
9.92683
6.70148
7.08058
4.68533
1.82952
0.423271
0.248453
0.192352
0.157119
0.149489
0.19472
0.13317
0.121913
0.47591
1.06305
0.856625
0.741533
0.684534
0.692945
30.9117
22.6072
10.9148
8.49512
4.88476
1.94279
0.375629
0.213756
0.22269
0.237756
0.227832
0.210867
0.108018
0.0820836
0.315342
0.864407
0.779987
0.757211
0.76166
0.791703
6.05134
13.2802
8.36153
9.24796
5.6582
1.75699
0.375107
0.265809
0.282765
0.25583
0.232093
0.18743
0.0829319
0.11203
0.371244
1.02345
0.930143
0.885372
0.874018
0.883361
4.63426
11.8857
8.62219
8.26
4.23251
4.89261
1.1229
0.95332
0.827666
0.75575
0.559437
0.329772
0.331864
0.371895
1.18818
1.04189
0.977049
0.95656
0.950256
0.967601
3.60024
11.7211
10.5929
8.58739
4.03374
4.22929
2.98555
3.39402
2.51586
2.09306
1.50379
1.41111
1.26364
1.23342
1.12618
1.0779
1.0385
1.02874
1.01706
1.01053
1.593
9.92481
7.28807
7.25851
3.07443
4.43857
2.6725
3.40962
2.11519
2.06535
1.65641
1.67197
1.57297
1.57406
1.50444
1.40718
1.28985
1.18572
1.12243
1.058
1.495
11.8811
9.81262
8.69684
3.64623
4.72307
2.57768
2.89869
2.05829
2.15493
1.87279
1.92526
1.8061
1.80206
1.72137
1.63145
1.46657
1.28548
1.18064
1.05522
14.8987
13.2519
7.55884
6.6121
3.01925
4.54112
2.55234
2.93252
2.14524
2.21049
1.89883
1.92972
1.81167
1.82684
1.75321
1.64732
1.46138
1.27107
1.16506
1.03631
3.44261
13.7454
7.0935
5.89566
3.66957
3.19545
2.2521
2.03377
1.87257
1.93664
1.79063
1.73727
1.61449
1.60171
1.50689
1.35821
1.19745
1.0792
1.02308
0.952783
16.1894
14.3041
7.42891
6.22373
3.21477
2.51164
1.66688
1.61245
1.5046
1.60937
1.5883
1.61495
1.50075
1.32498
1.09051
0.93721
0.796685
0.711863
0.671027
0.64949
4.69168
9.34249
4.26995
3.17231
1.75807
1.75269
1.51717
1.47947
1.20719
1.03566
0.86782
0.814845
0.731063
0.663322
0.590518
0.509915
0.452614
0.409663
0.388471
0.326693
14.2795
24.9667
15.8053
18.6529
9.43207
13.2446
8.99045
12.1091
8.11516
7.76442
5.69833
5.18239
4.28692
3.97929
3.59668
3.37792
3.01923
2.618
2.1993
1.88493
4.20878
33.0352
32.4302
25.4789
20.5222
19.0089
13.8284
11.5951
9.95976
10.9055
12.0176
13.1119
13.3208
13.3759
13.3478
13.4043
13.3849
13.2242
12.6476
11.6866
2.61159
27.1698
29.544
24.801
21.7601
23.2187
18.5214
16.8485
13.9613
14.185
13.9281
14.0903
13.7146
13.5643
13.2682
13.045
12.6509
12.3453
11.7558
11.6422
16.0015
25.687
37.0205
35.5234
30.2839
28.108
22.2614
19.1144
14.8685
14.3967
13.7607
13.7163
13.1347
12.8829
12.5391
12.4689
12.351
12.4367
12.4711
12.5025
18.4516
49.8314
45.8425
30.8727
27.1617
26.5734
20.3862
18.6788
16.3918
16.2252
15.1582
14.4736
13.2971
12.9221
12.5186
12.6599
12.6622
12.7629
12.7745
12.7373
33.7583
47.1495
51.5357
36.0286
33.3108
25.8102
23.9294
20.6325
19.6862
18.2496
16.9987
15.6186
13.9224
12.7635
11.8679
11.9353
12.0372
12.3392
12.4596
12.5131
37.871
45.3265
40.592
39.2214
37.1527
31.6944
26.9168
24.4377
22.4895
20.629
18.1659
16.5382
14.6756
13.0621
11.6629
11.6516
11.6254
11.8541
12.1163
12.3494
29.0884
32.9573
39.9537
33.2826
32.7429
30.7696
22.2079
21.0486
19.984
18.1771
16.0121
12.6369
11.9555
12.1891
12.5393
10.7814
11.2131
11.8591
12.1873
12.435
17.7392
20.5351
34.2106
32.3114
31.7174
24.1973
19.0078
18.1009
17.9303
16.3214
12.7046
9.51155
12.2771
14.1146
12.7366
11.6492
11.2711
11.2683
11.4406
11.9711
18.0525
27.3749
37.2616
29.4125
26.7083
23.5805
20.0852
18.1478
15.5337
13.4795
13.9487
13.1669
9.78789
11.4924
11.942
10.6946
10.4033
10.638
11.0167
11.857
52.566
36.2295
36.0208
26.7411
20.4339
17.6364
16.3817
17.6906
18.3403
18.0648
15.6902
12.5774
7.37283
7.21196
8.44242
9.87287
10.3728
11.1791
11.9038
12.5738
28.1136
34.8223
33.2561
27.0527
18.7188
16.3085
16.9389
21.0632
20.8974
18.9246
16.2595
10.5947
8.1387
10.5586
10.8849
12.128
11.8875
12.2826
12.9223
13.4183
50.3552
44.0566
33.2828
27.6165
20.3366
23.7605
19.656
21.3937
19.8387
17.3769
11.5753
8.3166
11.172
12.1523
13.5179
12.9313
12.922
13.3523
14.0716
14.4008
45.4896
48.3207
42.8403
35.7393
25.1508
23.3427
23.5639
22.4818
18.7752
15.433
13.9607
14.3018
14.7211
14.6845
14.0038
13.8704
14.0501
14.454
15.0117
15.1139
22.4594
36.2463
34.5507
28.4679
22.6253
21.6274
22.6016
20.9666
18.6881
17.5894
17.3539
17.8736
17.9499
17.9592
17.7427
17.1798
16.6169
15.8982
15.7972
15.6911
32.8188
30.8044
25.0301
23.7258
20.3739
23.1603
21.8562
21.8168
20.5776
20.6858
20.2507
20.21
19.8856
19.7483
19.5381
19.1007
18.5227
17.315
16.6946
15.9458
21.598
52.0768
37.7467
28.6932
26.0132
24.1227
23.2723
21.9774
20.862
20.7854
20.5949
20.908
20.5598
20.432
20.1895
19.6842
19.0201
17.8544
17.0175
16.0547
47.6121
49.5018
38.6384
33.7773
26.7792
24.1299
20.4761
21.8096
22.7089
23.5859
22.1915
21.5059
20.9579
20.57
19.8976
19.0926
18.3281
17.478
16.9123
16.0183
46.5212
41.4059
32.9245
26.9944
18.4314
16.8496
14.9837
16.4986
17.7362
19.3138
20.2325
20.1137
18.7462
17.2149
15.5116
14.2233
13.6659
13.8822
14.001
13.8619
4.15095
23.0492
20.0705
18.1324
11.0554
11.0829
9.48825
9.39669
8.06851
7.44142
6.26768
5.56372
4.74675
4.15984
3.60858
3.171
2.77033
2.44618
2.24799
1.88527
18.6591
26.6583
21.8088
21.1854
13.7353
16.705
11.7373
13.9261
9.63813
9.31964
6.91481
6.27141
5.12742
4.62732
4.04365
3.59341
3.08644
2.71476
2.47589
2.4771
33.9594
47.3829
45.9621
39.311
31.6112
29.4995
22.9414
21.3441
19.031
19.4142
18.7861
18.6889
18.0342
17.9626
17.8038
17.8451
17.7486
17.6327
17.4877
17.4451
21.9626
48.0327
54.0607
45.3855
40.9029
37.0438
30.5118
26.9581
23.697
22.8576
21.7599
21.2006
20.4773
20.1604
19.7568
19.5239
19.1889
19.0153
18.8282
18.9181
20.6208
37.8973
51.2918
53.468
47.9023
42.6733
34.5312
29.3473
25.075
23.7252
22.4593
21.6792
20.8005
20.3182
19.8534
19.6506
19.4457
19.4145
19.3922
19.3728
27.1804
57.9463
62.0065
50.9471
47.0927
41.9619
34.7739
30.5526
27.4845
25.7453
23.9329
22.6268
21.3621
20.7904
20.2507
20.088
19.8333
19.7093
19.5848
19.4509
33.0578
59.384
62.7685
57.066
52.7788
43.2339
39.0192
33.3437
30.7375
27.6928
25.4211
23.4163
21.6484
20.7961
20.0056
19.8281
19.6253
19.5419
19.4541
19.3617
32.7302
52.4476
57.9879
57.4358
55.7826
49.0466
41.4478
37.2296
32.6676
29.2183
25.6773
23.6239
21.4147
20.2032
19.5279
19.3979
19.1679
19.1501
19.1873
19.2718
30.2352
47.6934
54.9981
55.1698
52.8534
48.5507
40.9136
35.487
31.8477
27.6365
24.1829
21.2824
20.1217
19.0076
18.2401
17.6682
17.8484
18.1764
18.3999
18.9365
13.0739
32.8056
49.7941
51.5002
49.4342
44.2072
39.3299
33.6359
29.2191
25.0956
20.9559
19.0146
19.7067
19.5667
17.2205
15.62
15.7857
16.2862
16.8813
18.159
11.2118
45.2464
52.221
45.4934
43.8163
41.6798
37.5857
32.3362
27.2147
23.9475
20.7355
15.5016
14.1647
16.5507
15.3476
13.5921
14.2649
15.3077
16.545
18.0289
60.9294
57.9787
53.6537
41.5045
38.643
36.0537
34.2389
32.6052
29.8182
26.8978
5.97697
7.24044
8.07295
8.83217
10.7511
13.2208
15.0788
16.6738
17.9206
18.8635
64.9935
64.4217
47.8459
42.3734
36.2743
35.3757
36.1502
36.206
32.188
27.5216
22.3334
15.5869
15.6392
15.1567
14.8941
16.6568
17.809
18.8746
19.7131
20.0939
39.5005
62.6612
50.8704
43.5298
39.8468
41.5616
38.0099
35.9999
30.6361
25.0141
18.837
17.7669
19.0268
18.7897
19.8799
20.068
20.6797
21.262
21.6366
21.5311
46.6781
61.0038
55.4964
47.9747
40.8811
40.0776
38.4566
34.9303
29.2366
25.9666
24.301
24.337
24.0593
23.7994
23.2603
23.1158
23.1372
23.1822
23.1636
22.6682
23.6282
53.5751
49.8748
44.3718
40.7323
38.487
37.6085
34.2945
30.6948
29.1443
28.3044
28.1648
27.7378
27.3878
26.8162
26.059
25.4952
24.6808
24.3227
23.4471
37.616
56.0563
48.3537
43.0762
40.5513
39.7129
37.7336
35.9724
33.8117
32.8014
31.562
30.869
30.1051
29.5926
29.0078
28.2284
27.4445
26.1011
25.4197
24.0278
27.0796
61.8128
62.3762
49.2621
43.2821
39.324
38.0472
36.6595
34.9219
33.9522
32.6197
31.8033
30.7699
30.0667
29.3024
28.3996
27.5771
26.392
25.6847
24.2507
42.5089
55.815
54.1595
50.2051
40.8112
38.6123
35.7998
37.4171
37.1339
36.1264
33.7665
32.2199
30.7152
29.4751
28.3752
27.3616
26.623
25.7641
25.1601
23.8172
26.6679
46.5873
50.9686
43.3827
33.5032
32.5177
30.4146
31.8166
31.9949
31.5725
29.6754
27.5029
24.8679
22.4666
20.3881
19.193
18.6261
18.932
19.7369
20.3598
2.24799
20.6353
22.122
20.965
14.0468
13.4674
11.5396
11.1573
9.61012
8.85075
7.53329
6.69454
5.75987
5.05584
4.27309
3.50545
3.04478
2.84585
2.73938
2.46742
10.9099
19.2932
30.871
22.9791
15.0303
16.9886
12.573
11.5607
9.12493
8.2357
6.5237
5.59696
4.626
3.91535
3.35793
2.94558
2.71811
2.73795
2.84415
3.04322
26.6534
55.8773
49.7883
45.3159
35.3657
33.8041
27.9464
26.4458
23.441
22.398
20.3008
19.3387
18.3562
18.3006
18.2649
18.4094
18.5895
18.7716
18.9315
19.0934
41.8908
57.2039
64.1399
58.2794
50.7307
43.4282
35.9776
31.2533
27.5284
25.5728
23.7049
22.6703
21.8226
21.4796
21.1503
21.0099
20.9192
20.8511
20.8783
20.9414
46.2138
48.9711
60.152
63.9225
58.2413
49.3896
39.9723
33.4739
29.1573
26.9821
25.1593
23.9012
22.8846
22.2262
21.7154
21.4043
21.1901
21.02
20.9583
20.8806
26.3394
66.305
70.8942
64.8873
58.5745
49.7811
41.5374
35.5166
31.8211
29.0462
27.0263
25.3022
24.0946
23.2329
22.5285
22.0308
21.5769
21.3151
21.0884
20.888
19.7725
68.5303
75.5761
69.3858
62.1661
51.5475
45.5631
38.027
34.7677
30.8686
28.5689
26.2818
24.8658
23.7985
22.9463
22.2911
21.7702
21.375
21.124
20.9483
32.089
66.4666
71.0205
70.2572
65.3331
56.5667
46.9879
41.4817
35.9435
31.9364
28.8307
26.6892
24.7847
23.6165
22.5774
21.9781
21.4728
21.1671
21.0351
21.027
60.0157
65.4548
72.3934
68.4496
62.7971
56.1876
48.8566
38.069
35.6478
30.7465
27.5679
25.295
23.7383
22.0254
19.2816
19.3
19.5435
19.7328
20.0415
20.6969
39.5966
56.8735
66.8921
64.1132
59.3042
54.3365
48.8956
39.2418
32.5923
27.5379
24.1089
22.1122
21.0985
19.7125
16.6866
15.5069
16.6423
17.7656
18.7897
19.9734
72.0639
62.7521
66.648
58.6628
55.9974
51.7557
46.0573
37.9655
31.0063
26.2294
21.4826
16.8037
15.9611
15.7507
13.7546
13.9569
15.5514
17.2929
18.5983
19.7871
83.9019
70.9495
64.8589
54.9574
53.327
49.1552
45.146
38.9568
32.5105
27.2547
12.6221
9.52785
9.70699
10.6979
11.5604
14.5226
16.8234
18.5612
19.6348
20.3277
46.7631
69.4988
60.0017
56.6977
53.0979
50.4669
48.2083
42.0952
34.5492
27.9503
22.3273
18.2719
16.2563
14.3981
14.2838
17.3271
19.3794
20.6727
21.3274
21.4954
16.7003
57.5537
65.6689
57.4846
54.7014
52.4711
48.0117
41.2097
34.3254
27.2612
23.1371
21.1009
20.0897
19.2144
20.772
21.9115
22.9117
23.332
23.3431
22.9653
34.0471
70.3648
65.4619
58.365
52.744
50.3488
45.9701
40.3803
34.0335
31.0042
28.7232
28.1339
27.2055
26.8262
26.4554
26.2056
25.9192
25.6316
25.1584
24.1091
35.3302
65.6842
63.1793
55.9823
52.1895
47.7588
44.6528
40.1651
35.9732
34.129
32.5964
31.8914
31.1197
30.4275
29.6673
28.8019
28.1199
27.2192
26.5279
25.0412
26.0574
66.0958
65.8566
56.2418
52.3753
48.5822
45.6535
42.3915
39.3488
37.447
35.5958
34.4836
33.5006
32.6698
31.824
30.7481
29.8724
28.5062
27.668
25.8359
58.5907
64.8599
68.3368
59.742
52.9108
48.5933
46.682
44.2416
41.4138
39.4087
37.1597
35.6676
34.3502
33.3199
32.3379
31.1732
30.2427
28.885
28.0191
26.0931
48.8137
68.1412
68.2867
59.3144
51.0251
48.609
46.7307
46.5075
43.9961
40.4081
38.0347
34.6501
33.2942
31.2684
30.387
29.3413
28.4497
27.0501
26.4259
24.722
15.4057
48.944
53.6801
51.2055
43.3419
42.4644
40.1875
40.2129
38.0114
34.495
31.27
26.4584
23.5592
20.3079
18.3817
17.6561
18.2016
19.2027
19.7539
19.6372
3.47154
29.3726
21.8019
19.7976
15.478
13.5661
12.2242
11.0038
9.58573
8.32968
7.06471
5.99331
5.07543
4.1803
3.49375
3.04968
3.01488
3.03398
2.98934
2.73287
1.99538
15.4475
10.6051
9.64739
5.70002
11.7567
5.76803
7.40937
3.89742
3.88036
2.56511
2.24911
1.72821
1.60989
1.46191
1.50419
1.53008
1.60653
1.6013
1.59495
36.636
62.3166
52.5008
45.9364
26.255
33.1804
19.6328
25.0281
15.8604
20.0958
13.2325
14.2707
11.8722
12.5975
11.8276
12.3225
12.2068
12.6842
12.5901
12.3766
66.5685
68.448
68.6936
61.8088
38.7546
43.679
24.2468
29.4458
18.896
23.394
16.8336
20.7783
15.5991
16.8394
14.8354
15.2315
14.5811
14.7817
14.3205
13.8772
71.017
38.4502
71.9603
72.1074
59.7687
49.1976
30.395
31.2105
20.7247
25.0585
17.9546
22.0856
16.3342
17.3511
15.1818
15.3369
14.6464
14.6987
14.2865
13.7796
53.0694
58.7141
67.533
71.0639
46.4755
50.5748
28.5338
33.7694
22.2064
27.2187
19.6833
23.6125
17.2853
18.1252
15.5654
15.5704
14.6683
14.6319
14.0797
13.5681
24.9592
76.4266
80.4489
74.3394
49.3319
51.597
30.2488
37.1293
25.3867
29.3306
21.26
22.8431
17.9214
17.5168
15.7213
15.1174
14.4165
14.2382
13.8196
13.3526
38.582
74.7507
77.6807
76.2213
47.7281
56.3511
30.3604
39.5724
27.4481
30.4926
21.8705
23.0269
17.5975
17.1738
15.1437
14.7893
14.1431
14.1071
13.6908
13.3609
44.5847
59.7565
79.3211
74.1678
50.1972
54.6412
47.2452
39.4036
33.6348
29.4496
26.4025
24.3819
22.3808
20.2807
14.2651
13.3668
13.3056
13.3663
13.267
13.206
70.5397
68.881
74.5878
71.7191
46.6349
54.4462
46.4993
35.3642
28.4765
23.977
21.157
19.4705
18.1132
16.4033
14.8459
12.57
12.3967
12.723
12.6823
12.8903
49.5351
74.8438
74.1587
67.0649
43.3218
52.8786
44.0553
32.9303
25.9359
21.0813
17.146
14.1495
13.5836
13.4283
13.322
11.9629
11.8037
12.2101
12.2109
12.4658
70.3398
60.3066
58.2267
63.666
36.0492
52.6366
44.8348
34.1091
26.8878
21.2886
16.0791
12.1535
10.8845
11.8246
13.0122
11.9095
12.0166
12.3924
12.3168
12.4435
98.0887
66.8308
35.9846
64.1537
34.9207
54.2763
47.3693
37.3123
28.6851
21.8908
17.0721
14.369
13.4236
13.3023
14.3128
12.7822
12.8894
13.1654
12.8723
12.7549
28.0628
75.5365
45.5645
62.5033
35.2025
53.8309
47.8681
39.7134
31.3276
24.9752
21.2342
18.9288
18.0427
17.6537
14.1905
14.3173
14.4823
14.4331
13.9089
13.4116
9.16628
57.9361
50.8893
62.8157
33.7178
52.8171
29.8727
32.8072
21.924
21.9776
17.9449
18.4195
16.6305
17.0622
16.2442
16.1763
15.7423
15.4468
14.5391
13.7378
53.985
73.8911
57.9674
59.2546
33.2347
48.8864
26.1518
38.9309
21.2443
24.4163
19.2914
20.5472
18.6818
18.993
18.22
17.8713
17.1706
16.4244
15.2633
14.1305
67.3556
76.5444
60.6951
59.8725
35.7723
49.9201
27.5525
35.7172
22.5788
25.1711
20.6942
21.9555
19.9767
20.3364
19.229
18.7784
17.8741
16.9367
15.6204
14.2774
12.1252
57.6184
62.2162
65.9585
35.5432
50.8786
29.0165
40.1753
24.2965
27.0834
21.4653
22.4259
20.3677
20.7065
19.7122
19.2128
18.3544
17.2512
15.8303
14.4288
24.0409
65.5584
73.4919
66.4764
38.6926
50.9126
31.8521
35.4196
26.4077
25.8997
21.8232
21.0014
19.3652
19.1372
18.4194
17.933
17.1179
16.2355
15.0715
13.864
31.829
50.9578
45.2745
55.1529
29.4173
40.3243
24.81
28.5325
21.1305
20.0914
16.0808
14.591
13.2415
12.9598
12.6035
12.6953
12.6119
12.3738
11.7584
11.1386
1.19986
17.7704
11.1606
21.0449
7.56541
9.39696
5.65236
5.63797
3.99964
3.50018
2.67924
2.25845
1.86522
1.68687
1.56452
1.56094
1.49335
1.40679
1.29132
1.18951
21.6522
25.7828
8.51183
26.4566
22.9074
26.9738
9.10598
16.8173
7.39088
6.26737
21.5673
17.4531
8.00812
6.67101
6.78144
27.6779
24.1642
27.8715
7.68964
28.5611
24.3955
6.08133
22.7713
17.8485
6.73419
6.57821
22.9768
18.9818
0.314127
0.452981
0.275598
11.4743
12.8532
13.634
13.9125
0.29056
0.256204
0.215993
13.2298
13.955
13.6675
12.7762
0.270397
0.21221
0.203296
13.9128
13.4829
12.617
11.5225
0.193393
0.193312
0.137763
13.1239
10.9167
10.8046
9.5597
0.0870837
0.134265
0.161314
10.1247
7.14682
9.76574
10.6272
0.10696
0.175371
0.158224
6.97787
9.23712
10.6686
9.20424
0.16544
0.138773
0.130355
9.81462
11.515
8.9223
9.66357
0.159877
0.138511
0.134719
11.7374
11.305
10.145
10.7195
0.267477
0.391196
0.228996
13.553
14.0896
11.7948
12.9299
0.199308
0.212227
0.189693
13.6799
12.1612
12.8702
12.9741
0.174222
0.190474
0.197648
11.8734
10.5527
13.0847
13.3429
0.142788
0.203084
0.212273
10.106
10.4602
13.3679
13.0106
0.188983
0.212933
0.211907
10.8138
11.3821
12.6591
11.4005
0.159976
0.207263
0.150394
11.0852
8.5659
10.8399
7.24492
0.115712
0.115069
0.0822334
8.00171
8.557
6.19905
5.73866
0.129012
0.0847772
0.0849661
9.19678
10.2412
6.18063
7.51303
0.224995
0.392054
0.260255
10.6741
12.8995
10.6364
14.8154
0.216617
0.267375
0.288948
13.1647
14.0355
15.6022
16.4923
0.236948
0.286316
0.270053
14.275
14.4556
16.4193
15.6677
0.231491
0.26482
0.246504
14.3553
13.6181
15.3315
14.173
0.217768
0.241118
0.212527
13.2
11.7217
13.6661
11.5257
0.140855
0.201814
0.0977757
11.0965
6.88055
10.0424
5.29245
0.0805061
0.0837661
0.0986615
5.86423
5.63935
5.45039
7.57816
0.0801422
0.101498
0.0816069
5.90216
6.93027
7.71359
7.75377
0.25628
0.39415
0.25681
10.4238
15.3014
10.8747
15.4855
0.287094
0.259105
0.268352
16.0824
16.7298
16.1718
16.1036
0.261824
0.265822
0.247991
16.5476
15.5584
15.7638
14.4844
0.239013
0.237543
0.210008
15.1629
13.8641
14.0575
12.2123
0.202211
0.193051
0.146984
13.2482
10.725
11.1552
7.41767
0.0873168
0.118817
0.0849508
8.91618
5.10587
6.04359
5.87085
0.108412
0.0909695
0.12488
5.83261
8.24911
6.89396
8.89405
0.08793
0.128032
0.105052
8.39989
8.23846
9.05921
9.40607
18.0097
20.18
18.7482
34.825
31.6267
34.7716
31.0515
18.1686
18.2225
16.6253
30.6526
28.0313
29.7967
26.2871
16.8775
16.2565
14.5966
27.174
24.432
25.2917
22.4127
13.6109
13.8331
12.7816
23.5141
20.3231
21.6492
20.2625
9.62717
12.9239
13.2479
19.3453
17.1955
19.8135
18.0438
11.7023
13.0649
11.3173
17.2097
18.2427
17.2239
15.557
13.9348
11.1091
12.1547
18.4519
18.9127
15.6663
16.9889
13.1001
12.6445
12.5895
18.7821
17.2948
17.206
16.518
18.8307
17.7547
17.5362
33.9356
30.7377
31.0798
29.67
16.0125
17.3312
17.0628
29.4544
25.8751
29.0022
27.1534
13.874
17.0668
17.038
24.8789
22.4472
26.6082
25.0434
13.7663
17.0238
15.8248
21.9869
20.5438
24.4749
13.6671
13.7992
15.0774
12.8647
19.9308
16.7416
11.9714
9.15701
10.2479
12.0856
8.45848
15.415
13.0758
8.83
8.1084
10.7913
7.49325
7.0853
13.2519
15.3518
7.95471
8.79056
12.0586
7.55366
8.79611
15.8792
15.9897
9.46053
11.2747
17.53
16.7955
19.9034
29.9709
29.8803
31.4642
32.8047
18.2117
20.5025
20.9414
29.5184
28.2123
32.568
30.8249
18.2161
20.7406
19.5975
27.7173
25.9486
30.0154
27.3111
16.5167
19.1243
17.51
25.4431
13.4054
26.3938
23.3212
13.4018
16.7792
13.7735
11.7982
9.84677
22.0445
17.2146
8.32711
11.8049
7.23628
10.0609
9.1963
15.2808
13.0012
6.99931
7.59367
9.61037
8.71671
8.40493
13.4318
13.5026
8.04078
9.65657
9.17769
8.66543
10.0088
13.1542
12.4387
20.4366
17.2898
20.5732
31.2361
33.4129
31.1894
33.3858
21.226
21.1029
20.5108
33.2019
31.1583
33.1208
30.2953
19.4672
19.9477
18.1755
30.2165
27.2128
29.096
25.8719
17.1092
17.5527
15.0192
26.2056
22.8926
24.6715
20.2899
12.7564
13.6653
9.29512
21.5079
16.2551
18.5118
14.0617
7.13544
7.888
8.42564
14.4169
13.5336
13.547
15.3091
10.4671
9.57104
11.4969
14.2653
14.8114
16.0909
16.7798
9.80122
11.6154
11.4266
14.5673
13.5398
16.7113
16.3541
34.9401
38.2937
34.1592
45.5187
40.8476
45.7755
39.8355
30.2595
32.7092
28.677
38.8233
33.9026
37.8793
32.5952
26.0633
27.515
24.3648
32.4905
28.59
31.0774
27.3196
21.9163
23.574
21.7797
27.5646
24.6936
26.359
23.6403
19.0496
21.172
18.827
23.9483
22.268
22.7121
19.7737
19.6007
17.9326
16.5024
21.992
21.3882
18.9883
17.9362
19.7904
16.693
17.7617
21.2395
20.476
17.9386
17.7376
18.0226
17.8396
16.9814
20.114
18.785
17.4997
16.3151
33.7657
35.0649
32.8985
44.7931
39.4318
43.3323
39.2896
28.346
32.0513
29.5838
37.5609
32.4472
37.7822
33.3825
24.5107
28.8254
26.5883
30.9829
27.4273
32.0361
28.3815
23.707
23.2814
24.5032
25.3373
23.2735
24.4669
25.6762
14.8189
19.5882
17.7447
21.1055
16.053
19.7465
16.5924
13.7452
6.27634
7.04677
16.5055
15.7416
6.4116
7.82791
16.1864
7.31468
8.98422
16.0142
16.516
8.57722
10.6361
16.4283
9.79253
11.6273
16.4335
15.7055
11.1769
11.9416
33.1964
36.1217
36.1141
43.278
39.7946
45.5557
42.4687
30.5516
35.5637
33.005
38.3944
34.0986
40.9693
36.1255
27.3949
31.9693
28.7288
32.7217
28.8728
34.4979
29.9376
22.6911
13.8936
27.2225
23.7295
24.2712
3.32313
27.9861
15.3028
5.56061
17.7219
2.10331
16.5895
2.04066
16.1857
8.24897
16.1722
14.5655
7.06582
8.22444
18.0659
16.5098
8.41711
14.7318
14.0907
8.65062
9.91876
15.9431
14.1693
10.3451
13.6621
12.9349
10.2868
11.1344
13.7473
13.2849
36.7494
36.2928
36.8462
46.0781
43.1774
44.9559
43.54
33.3433
36.2028
32.6147
41.6266
36.5043
41.8337
36.4347
28.6679
31.2342
27.5683
34.795
30.0041
34.663
29.8683
23.8116
26.2006
21.4721
28.5244
24.2591
28.1603
23.4845
17.1103
19.7131
15.8434
22.8124
18.9235
22.1228
19.5888
15.2044
15.5529
17.0347
18.1889
17.2365
19.3383
19.0795
15.4845
17.5303
17.7303
16.8319
15.3795
18.8867
18.0794
14.0995
17.6061
17.2031
15.0052
14.2275
17.9035
17.5656
41.3788
46.8484
40.3441
48.1683
39.1007
46.0207
37.5374
34.0598
38.2424
32.6711
36.8996
31.537
35.1566
29.3328
28.5454
31.0896
27.2258
29.8995
25.8801
27.752
24.0209
24.8111
26.2084
23.3829
25.0538
22.7385
22.9911
20.1956
22.4247
22.4332
19.5909
22.1032
20.5286
19.3167
16.9917
21.3113
18.857
17.7043
20.2386
19.2519
16.4009
15.3204
20.1044
17.5858
17.039
18.9239
17.5551
15.1467
14.5217
18.4364
16.7409
15.5966
17.1505
15.861
14.2735
13.4189
39.9873
45.0243
40.0829
45.6015
37.245
45.6304
37.7793
32.5447
38.3286
33.3679
34.8763
29.1229
35.4667
29.7005
27.2642
31.8912
28.0311
27.5578
23.9409
28.1889
24.2567
22.7906
26.7074
14.4131
22.8535
19.783
23.0314
18.4248
17.6621
12.6632
9.42802
18.7521
15.98
16.837
13.2118
15.8918
8.88946
9.25386
15.2966
14.1269
12.4004
10.9991
15.9259
9.75198
11.0899
14.0311
13.7682
10.9549
11.5014
15.0008
11.4159
11.8537
13.6194
13.0569
11.664
11.8444
40.6372
47.5584
43.2127
46.0923
38.4483
48.4642
40.9499
34.027
41.4228
35.9738
36.1452
30.2654
38.5717
32.1283
28.4288
34.2064
29.3726
28.6911
24.5222
30.1665
25.1946
14.2937
27.9271
23.7942
23.2385
18.6463
23.7205
19.8628
9.91995
22.4426
18.8749
17.1233
13.6239
18.7614
16.1342
9.466
18.0726
16.1766
12.7494
10.9982
15.3908
13.4369
10.4734
15.4685
13.7025
10.8694
11.2487
13.0802
12.666
11.2439
13.3396
13.02
11.4169
11.7115
12.6468
12.7197
43.9417
48.5695
44.4538
49.2628
41.7792
49.6045
43.3466
36.3863
42.4851
36.7416
39.3345
32.6284
40.9918
34.6616
29.477
34.8587
29.7473
30.5997
25.3178
32.344
26.6043
23.6854
27.9946
23.555
23.7978
19.8244
24.9973
21.3479
18.9268
22.3236
19.9067
18.7304
16.2005
20.2464
17.8636
16.8205
19.5584
18.7425
15.5343
13.9962
17.3436
16.3162
14.7327
18.4295
17.48
13.7096
13.2715
16.055
15.54
13.8267
17.3161
17.0693
13.2251
13.1443
15.4808
15.446
37.5322
44.3677
35.6078
20.0721
21.7135
20.7794
15.8317
30.1009
33.2589
27.6667
19.6639
15.0963
15.3839
13.5055
24.732
26.1659
22.417
13.6758
14.4388
13.1468
11.0632
21.792
21.3477
18.5581
13.6143
12.5294
10.5655
9.48745
19.7442
17.7476
15.7404
11.9933
12.4441
9.27786
9.18501
18.4698
15.3026
14.6764
11.8905
11.3687
9.41468
11.6288
16.7906
14.5902
14.1389
11.1926
11.3993
11.6985
11.8361
15.3415
13.9418
13.3097
11.1961
10.0534
11.8222
11.513
35.2738
44.3518
35.7323
21.0679
14.9503
18.6724
14.2419
27.4281
33.4345
27.9105
14.6032
13.2134
13.9846
12.4405
22.1869
26.4151
22.3669
12.4854
10.3206
11.5117
9.36994
18.0827
21.1127
17.2183
9.79652
8.67688
8.81935
7.42304
14.7299
15.8747
12.673
8.41953
8.1362
7.09293
6.46672
13.5388
11.9012
10.8144
8.3364
10.8311
6.54044
9.22506
13.5349
10.9733
11.8071
11.6893
11.9043
10.867
11.905
13.0149
11.9784
12.1833
11.8564
11.3117
11.8685
11.4799
36.4004
46.9079
38.9325
19.4761
14.2311
18.7812
15.1667
28.444
36.5629
30.1837
13.9921
12.4261
14.7071
12.9146
22.6049
28.2726
23.2382
11.4995
9.34562
12.0804
9.6605
17.3671
21.7507
17.9755
8.7954
7.37171
9.08347
7.98993
12.9806
16.969
14.6064
7.01268
6.32748
7.82035
7.58412
10.8007
13.9495
12.8788
6.42636
9.14094
7.84254
10.5596
11.6399
12.7852
12.7994
10.8229
11.9299
11.608
11.6255
12.1197
12.8306
12.9634
11.8757
11.163
11.6128
11.2618
39.7552
48.7148
41.9717
17.9202
15.2343
17.6237
18.3906
30.667
39.5775
33.039
14.8085
12.8778
17.0505
12.3428
23.4185
30.6148
24.9963
12.4688
10.0511
12.1188
11.6093
18.0629
23.5048
20.1345
9.47491
8.55323
11.2318
10.1172
14.8755
19.1515
17.0849
8.45063
8.4416
10.4769
10.7367
13.5294
16.6706
15.8917
8.76386
11.4915
10.7017
10.3165
13.3065
15.698
15.3448
11.5176
11.5568
10.4508
10.454
13.3172
15.3038
15.3544
11.5218
10.8398
10.4884
9.79919
20.5741
22.5228
19.3146
22.257
21.3149
23.4104
18.2186
16.5128
24.8832
16.7877
23.4701
21.113
25.4418
4.48597
10.0702
12.7783
10.7147
2.19787
15.6535
8.14922
2.73825
24.151
26.1639
25.4288
26.625
25.1733
26.368
24.852
20.793
22.6505
24.2304
19.8651
23.9577
18.3209
22.2495
16.2751
23.428
26.5406
16.7912
25.9233
4.44782
21.7113
10.0359
2.46189
13.073
11.0435
8.09691
2.76132
15.9334
13.125
18.246
12.6408
16.8536
14.2389
18.2821
11.9022
6.33881
11.1823
6.60021
1.8475
9.70579
7.28387
1.64448
5.67302
7.722
6.13908
3.5576
8.406
5.84774
2.79511
14.8266
21.3576
20.1213
18.0074
19.9138
16.6209
16.1781
13.2584
17.0897
18.7112
13.3567
18.4333
12.1441
14.609
6.32382
2.26542
11.4227
7.19084
7.21989
2.11721
10.037
5.73424
3.62672
8.45979
6.79087
5.98632
2.73625
8.95659
19.1739
8.53242
19.0885
2.38102
21.1139
2.83481
17.3805
26.8944
27.6599
26.6128
28.4544
26.3848
28.436
27.2639
25.1986
23.4768
25.4466
24.5892
24.9293
23.6425
25.9626
22.9878
23.641
14.8462
28.1175
3.52817
28.2666
24.8282
19.3563
2.56948
9.48451
19.5038
2.8564
17.535
21.5478
27.0678
28.744
28.507
27.193
28.7173
27.4473
26.924
25.305
24.6549
23.6124
25.8002
23.6782
26.0725
25.2294
14.7756
5.19253
14.823
3.28536
15.6142
2.44173
14.0248
20.7165
22.0491
21.2671
23.1377
20.6286
22.1442
21.601
19.3077
17.6519
19.6224
18.373
19.1849
17.8599
19.9885
15.3297
2.40825
6.10432
17.9667
2.33002
16.2634
16.6855
14.8064
3.52615
5.74055
14.8646
2.55481
14.0675
15.6477
20.7337
23.2007
22.1154
21.5528
22.1638
21.7001
20.6965
19.3731
18.7837
18.1912
20.1892
18.0515
20.1939
19.3834
1.53219
1.42082
1.43133
7.34815
9.69721
7.08367
9.0003
1.24108
1.41556
1.26286
10.6462
9.95568
10.4823
11.0812
1.11641
1.05615
1.04521
10.2283
10.5774
11.2324
11.1414
0.883759
0.964273
0.825375
10.2713
9.75482
10.5721
9.94723
0.673547
0.660013
0.480183
9.42985
8.41451
8.68311
6.24448
0.41373
0.351657
0.334762
7.18552
6.411
4.89106
5.07437
0.350605
0.341971
0.377595
6.53411
6.80013
5.81528
7.15649
0.295792
0.455573
0.427342
6.99963
8.08593
8.03664
9.97693
1.29118
2.32989
1.44918
8.59856
8.63277
9.44646
11.0362
3.01539
0.419223
0.445321
2.47719
2.80979
2.51909
0.341977
4.27081
0.295285
0.266821
3.61778
3.87797
4.00696
0.260338
4.87894
0.280777
0.258204
4.38867
4.42198
4.82313
0.257925
4.66604
0.248685
0.248274
4.70123
4.61895
4.83126
0.236552
2.67953
0.147374
0.149638
3.81445
3.27078
3.0789
0.127973
2.84932
0.0854927
0.110993
1.89259
2.20772
2.41929
0.122368
3.49684
0.133433
0.136499
3.6982
4.03351
3.40663
0.13745
4.08323
0.179838
0.166539
4.65948
4.6399
4.03416
0.173218
0.448047
0.54639
0.398819
8.05445
7.99749
7.78445
8.43423
1.26797
1.73987
1.1493
8.38735
10.4768
7.63904
9.30815
3.26872
0.327047
0.418976
2.60943
3.31042
2.56913
0.327785
3.95019
0.228649
0.235583
4.38715
4.29808
4.1535
0.210833
3.50977
0.18799
0.167193
4.09751
4.0619
3.6034
0.159778
3.31224
0.144115
0.145953
3.26203
2.96269
3.15754
0.149735
4.21111
0.158776
0.175516
3.39952
3.73861
4.04131
0.18901
4.22435
0.193179
0.204503
4.19022
4.12972
4.33037
0.201546
2.67312
0.118195
0.128269
3.11147
2.97912
2.91054
0.108433
3.14531
0.134262
0.107673
3.28382
3.42209
2.96531
0.117914
0.382315
0.393784
0.32177
7.26626
8.28812
6.48041
7.62321
1.09731
1.87242
1.14227
6.71918
7.76765
6.71027
7.24366
2.83311
0.286393
0.371486
2.31278
2.79594
2.3223
0.284855
4.77101
0.210749
0.231707
4.07965
4.3448
4.39859
0.233952
5.37788
0.228526
0.256281
4.88924
4.97598
5.34211
0.259955
5.22942
0.236839
0.258183
5.00882
4.98113
5.30106
0.254849
4.90925
0.225713
0.239401
4.81936
4.7745
4.99486
0.234265
4.10714
0.200888
0.210611
4.48583
4.21289
4.4592
0.1985
1.71697
0.0885859
0.0976441
2.0342
1.79455
1.7429
0.0845296
2.33157
0.0847931
0.0833807
2.14707
2.32673
2.19582
0.0846981
0.266026
0.312848
0.247466
5.58087
6.90177
5.69708
7.19144
1.07865
1.70723
1.15081
6.58742
7.35205
6.74665
7.88297
3.08897
0.283089
0.366889
2.50382
3.07487
2.52177
0.287224
5.60229
0.280709
0.260281
5.23862
5.62108
5.23135
0.27203
5.68696
0.276193
0.271971
5.80391
5.69578
5.80389
0.26549
5.19857
0.250028
0.242491
5.38338
5.27032
5.32793
0.235976
4.51548
0.221645
0.216295
4.91133
4.72429
4.74697
0.205362
2.16219
0.152361
0.163043
3.71623
2.63961
3.1155
0.126431
2.30013
0.0879435
0.0846237
1.66657
2.07668
1.76876
0.0930757
3.08803
0.112259
0.122638
2.92877
2.94621
3.077
0.122774