/*--------------------------------*- C++ -*----------------------------------*\
  =========                 |
  \\      /  F ield         | OpenFOAM: The Open Source CFD Toolbox
   \\    /   O peration     | Website:  https://openfoam.org
    \\  /    A nd           | Version:  10
     \\/     M anipulation  |
\*---------------------------------------------------------------------------*/
FoamFile
{
    format      ascii;
    class       volScalarField;
    location    "5.7";
    object      omega_0;
}
// * * * * * * * * * * * * * * * * * * * * * * * * * * * * * * * * * * * * * //

dimensions      [0 0 -1 0 0 0 0];

internalField   nonuniform List<scalar> 
12920
(
189.623
115.673
87.2057
77.772
73.9363
72.435
70.8598
68.4662
61.2558
54.4684
48.7369
45.3058
42.8324
41.2318
40.2394
40.1251
39.9877
38.9786
37.3025
33.1763
137.15
178.042
128.148
92.6078
76.9134
73.5716
65.2992
59.4499
54.3288
51.9539
50.4475
50.3689
50.3452
50.5479
50.5709
50.5567
50.1965
49.1003
46.018
41.8289
171.207
182.162
167.549
128.789
101.541
93.2325
82.5997
73.8431
63.8687
57.3858
52.3648
50.0825
47.8791
46.6813
45.3464
44.204
43.0093
42.1729
41.2873
40.8607
190.71
176.967
169.836
152.624
130.108
117.332
98.5215
82.0992
66.4738
56.8933
51.2968
48.1771
45.8291
44.2505
43.0032
42.2054
41.6693
41.3847
41.3108
41.3656
293.765
235.559
180.652
144.193
123.518
111.185
92.276
77.7492
66.7734
60.0604
55.6056
52.4606
49.7147
47.8625
46.3136
45.348
44.5404
43.7729
43.2745
42.5492
193.436
315.003
214.359
147.179
121.323
98.6372
88.9088
76.8561
71.2019
65.7401
62.6887
58.9479
54.9923
51.3209
48.5308
46.7897
45.332
43.9888
42.9843
42.2092
519.804
445.511
262.111
183.015
146.479
118.089
103.051
90.1221
85.1304
80.4198
76.7591
71.2892
66.5632
62.2366
57.3954
52.2974
48.0939
45.1475
43.1679
42.2593
379.11
266.576
211.357
159.316
130.488
115.842
174.515
147.143
143.298
135.394
129.457
110.436
95.3263
96.9537
65.604
54.7706
47.2455
43.7526
42.288
41.9465
245.557
160.064
161.025
138.319
125.364
189.905
303.291
213.471
210.358
210.854
182.734
118.388
140.056
171.113
108.471
52.2471
45.8426
42.8361
40.9484
40.8464
252.313
196.953
171.489
140.352
125.721
189.981
277.839
222.549
200.611
179.953
161.519
180.963
151.028
143.341
96.6181
48.9289
44.0071
41.3443
40.2252
40.4844
669.26
437.945
223.876
167.512
138.069
190.371
263.093
200.054
202.2
211.457
209.653
204.606
143.535
118.275
79.6842
45.2422
43.0338
42.3239
42.444
43.0174
277.792
260.615
229.936
204.439
172.141
234.093
283.142
231.764
240.997
231.274
220.33
196.247
119.674
131.307
83.5209
48.1377
46.2907
45.2435
45.2515
45.623
211.545
233.931
207.448
163.206
131.043
113.755
172.519
150.385
145.654
136.486
117.138
82.806
76.98
79.0044
49.7406
47.4839
46.5533
46.6139
47.0946
48.1003
141.237
235.768
220.377
168.675
121.434
101.91
97.1135
92.1663
82.4044
69.8456
59.5708
55.4457
53.286
52.17
50.5978
49.8281
49.7993
49.9381
50.469
50.8204
117.273
201.305
196.482
140.091
102.143
87.9934
85.8341
80.5083
71.3599
65.5735
61.8995
61.2931
61.1522
61.2765
60.9872
59.552
58.051
56.18
55.4672
54.1323
140.023
247.053
238.932
168.059
111.737
93.8024
84.8746
80.133
73.9611
71.7859
69.7786
69.5393
69.0343
68.7652
68.2981
67.0222
64.8383
61.1724
59.412
56.3898
297.655
260.54
188.85
128.501
102.229
92.1152
87.8014
83.642
79.6255
77.2756
74.7966
74.0155
72.9738
72.7042
72.1848
70.5735
67.4516
63.168
61.0478
57.4165
219.476
282.712
214.144
165.047
140.248
123.757
107.596
98.7398
94.956
93.0465
88.6417
83.9703
79.8931
76.8861
73.6976
68.6448
64.3071
60.6548
59.15
56.2801
347.124
281.623
197.17
157.078
125.847
102.42
87.1807
81.3325
79.7486
79.6803
79.6835
78.9946
76.0485
70.2278
63.3402
57.655
53.1813
50.0438
48.703
47.2247
188.726
183.519
159.843
122.881
102.157
97.4966
93.2979
88.9533
80.6393
72.5724
66.588
63.2392
60.255
57.1726
54.1464
50.1386
46.9206
43.1377
41.2298
36.6855
117.693
78.6007
69.6634
58.8933
49.9062
45.3001
43.5719
41.7232
37.825
33.962
30.6631
28.296
26.6163
25.6162
25.0119
24.6468
24.0723
23.0487
21.2721
19.2125
159.141
121.865
76.8146
59.6354
47.2381
45.2368
42.3063
40.2469
36.3414
32.4257
28.5708
26.5369
25.577
25.3923
25.2259
25.0681
24.6621
24.2203
24.0188
23.9108
168.685
144.234
102.41
79.7616
60.6077
50.1939
44.8841
39.6112
34.6795
29.7704
26.0347
24.1412
22.8739
22.3352
21.8922
21.7012
21.6313
21.7033
22.116
22.0933
361.527
139.922
97.0193
81.852
70.1741
59.8604
49.5629
41.1993
34.6477
28.9453
25.5698
23.4411
22.3884
21.6697
21.2255
20.8739
20.6429
20.4409
20.3978
20.4789
227.175
143.201
91.7028
81.4173
68.1939
58.1945
48.8026
40.1621
34.4942
29.9576
27.8495
26.4588
25.8242
25.0146
24.2848
23.3988
22.6814
22.0123
21.5841
21.2044
391.249
241.857
108.165
74.1177
57.1136
48.8525
43.5698
37.7503
34.4657
31.7836
31.097
30.2855
30.037
29.0306
28.1279
26.3075
24.5936
22.999
21.9958
21.3993
294.134
270.477
153.396
92.1799
65.9264
53.8049
48.543
42.5992
40.2211
38.9843
38.7672
39.1359
39.4474
39.276
37.0466
32.0337
27.8145
24.7674
22.76
21.8882
203.455
176.583
119.867
83.6995
64.3942
53.6123
57.8362
49.8041
45.2262
43.0544
42.8168
43.0994
42.1266
42.3747
37.2451
31.7818
25.2755
22.0712
20.9939
21.0257
202.697
193.31
103.771
78.24
62.9624
63.7394
65.4329
55.9243
47.5135
43.5225
42.0814
38.4537
30.3943
29.955
30.1326
24.7133
22.1477
21.0124
20.7062
20.8687
195.019
143.671
106.664
86.1399
70.6773
66.6592
60.2515
53.4662
48.3887
44.2632
35.773
32.3381
32.5941
28.1938
24.9586
22.7263
21.7509
21.2898
20.9952
20.9364
365.992
253.424
130.663
103.848
85.4724
76.3175
65.3664
51.2786
42.1877
38.8306
39.2277
39.719
39.8834
29.6934
24.9021
22.7915
22.5506
22.2798
21.8728
21.6515
268.279
223.865
172.588
141.286
115.529
101.79
73.3901
52.14
45.1293
42.3839
41.2825
43.9709
35.0425
24.5484
22.5801
22.3068
23.0706
23.0507
22.751
22.6749
386.581
205.072
128.227
100.564
82.1294
64.2995
62.9131
56.7278
50.8112
47.8547
46.8785
40.0692
26.8953
23.5806
22.6344
23.3778
23.6073
23.6033
23.5379
23.7142
273.602
141.253
120.508
88.0747
67.1851
58.3178
52.7124
49.1131
43.7101
39.2981
33.7746
30.0718
27.5325
26.6483
26.5381
26.4245
26.2323
25.9093
25.6182
25.5383
232.963
159.218
136.21
85.3417
58.8511
47.9865
43.6662
40.7269
36.3968
33.6712
31.3707
30.216
29.7355
29.5961
29.5958
29.5655
29.5668
29.4273
29.1061
28.2258
286.015
226.124
148.948
90.2318
62.9178
50.1446
44.5068
40.4789
36.8865
34.8431
33.3835
32.9496
32.6813
32.4516
32.3555
32.2191
32.0984
31.6474
31.3069
30.2605
181.965
153.21
99.3967
68.3726
56.966
52.6952
49.5633
47.0554
44.0231
41.3384
38.7841
37.1678
36.261
35.518
35.0943
34.5995
34.23
33.4502
32.9935
31.4544
545.748
415.95
175.575
104.243
86.1603
81.8427
73.9276
67.122
60.979
56.5599
53.1079
48.6327
44.7423
41.1002
38.2927
35.6986
34.1888
33.128
32.676
31.0924
292.46
228.567
126.913
99.2953
85.1431
72.2903
62.0414
55.5017
50.5739
46.7503
43.6447
41.2149
38.7965
36.3532
33.5881
30.9042
28.7915
27.7588
27.7853
27.8163
83.444
104.091
97.4353
77.682
63.8553
58.8334
55.6493
52.6201
48.7735
44.985
41.0668
37.7481
35.2065
32.9667
31.1493
29.464
27.5055
24.8247
23.1931
20.7295
133.798
96.3378
81.0945
66.7612
57.5064
52.9932
49.398
45.2369
40.6856
36.7495
33.4896
30.9664
28.9748
27.4814
26.3599
25.3071
24.0292
22.4489
20.9508
20.2904
355.193
127.487
82.8342
59.7005
49.7076
44.804
38.9443
35.7183
31.3555
29.0062
26.5933
25.9767
25.3064
25.2259
24.9401
24.6824
24.1201
23.5575
23.2077
23.1881
159.32
127.956
86.7346
62.3503
50.5669
42.3997
36.7403
32.3425
28.097
25.357
23.1321
22.2143
21.392
21.1197
20.8315
20.7866
20.7655
20.8432
21.0139
21.0555
374.773
127.933
97.5354
73.4647
59.4298
47.9237
38.6921
32.0648
27.2811
24.116
22.2633
21.1524
20.4812
20.0868
19.8044
19.6796
19.5865
19.6024
19.6597
19.8637
178.76
135.845
86.2646
65.4707
54.7783
45.6455
37.6872
31.7023
28.0029
25.3676
24.1629
23.2304
22.6368
22.0466
21.4942
21.0405
20.6461
20.3914
20.2228
20.2229
171.442
176.386
109.149
61.5426
48.4004
39.2025
36.1747
31.3683
29.364
27.2911
26.8694
26.0873
25.5337
24.4328
23.5514
22.476
21.5962
20.9367
20.5328
20.4428
233.565
170.119
116.23
75.7862
55.6024
44.1708
39.9167
34.8322
33.7455
32.6512
32.7417
32.8257
32.4604
30.855
27.8754
25.2055
23.1707
21.8933
21.1982
21.0828
202.582
135.461
100.49
67.4969
53.6335
44.6893
43.5969
39.9357
36.5156
35.5285
35.1301
35.4349
35.6486
34.9809
28.3773
24.6727
22.1901
21.1378
20.9169
21.1039
160.257
142.291
102.611
70.7218
55.3588
49.6973
46.9498
42.4116
38.4997
35.7151
33.6528
30.5519
28.7778
28.5205
26.1732
23.3487
21.9882
21.4311
21.2642
21.3122
150.867
137.957
104.205
76.6434
60.8504
52.8259
46.0731
41.296
37.4375
34.1723
31.9575
32.1736
30.4442
25.5205
23.6603
23.7634
22.7913
22.0636
21.5311
21.1737
329.983
160.568
103.438
78.0834
62.955
55.3287
48.422
40.6111
36.0762
34.0905
95.4982
59.7689
40.3461
31.1709
25.8476
24.4138
23.1981
22.2541
21.5887
21.2023
483.675
298.674
140.5
99.5821
72.9041
62.9639
52.5422
43.0176
38.7461
36.3763
34.7539
33.7204
26.3243
22.9301
22.4671
22.9171
22.5853
22.1776
21.8726
21.7306
168.824
142.864
98.5408
73.5893
60.0424
50.1785
47.1814
45.3564
40.0383
37.851
33.4606
27.1832
22.8553
21.5991
22.3473
22.4257
22.4626
22.4623
22.4842
22.5519
250.915
145.395
106.073
74.6018
55.7819
47.2963
42.7659
38.0984
34.0165
30.3011
27.2025
25.3759
24.3159
24.0194
23.9837
24.0328
24.0984
24.054
24.0194
23.9223
150.196
138.861
99.1994
61.2686
47.1991
38.6207
36.8128
33.5918
30.5643
28.514
27.1085
26.7035
26.4561
26.4875
26.5242
26.5756
26.6324
26.5396
26.3767
25.8562
272.689
132.282
89.6608
59.3
48.5613
41.2084
37.3388
34.4627
31.7853
30.5312
29.5249
29.3518
29.1361
29.1033
29.0228
28.8613
28.773
28.4805
28.2496
27.5739
159.953
173.582
99.7299
60.2749
51.8091
47.0269
43.9404
40.5875
37.5561
35.6384
33.9923
33.3478
32.7036
32.2769
31.8289
31.3041
30.9421
30.2048
29.7447
28.6151
230.997
175.484
110.138
82.6378
72.5894
69.7932
62.3001
56.8109
50.5738
47.0325
43.3317
40.567
38.0922
36.0463
34.2911
32.8254
31.9448
30.9146
30.2398
28.714
170.568
150.574
102.796
81.4343
69.8278
64.2824
55.5787
51.0144
45.7173
42.945
40.0062
38.395
36.7034
35.2649
33.7581
31.775
30.0107
28.6582
28.115
27.056
58.6611
95.4576
93.1095
80.9003
69.9334
64.1368
59.5991
55.588
51.3947
47.5017
43.8782
40.766
38.2713
36.0376
33.8028
30.8323
27.8482
25.0887
23.714
21.7789
109.209
115.772
96.6114
72.0576
60.7129
56.3455
50.9869
45.3496
40.5167
36.7751
33.6046
30.9434
28.7712
26.8147
25.089
23.4325
22.1984
21.4462
21.1786
21.3924
223.268
147.783
102.749
64.8219
57.5104
45.1986
41.2052
37.0076
34.5508
33.2067
32.2101
32.0828
31.6041
31.3218
30.596
30.1103
29.4912
29.1418
28.9371
29.3125
248.536
171.89
96.9244
59.6914
52.8895
41.0006
38.3041
32.7446
30.7403
28.362
27.5393
26.7015
26.3822
26.0401
25.9372
25.9172
25.9616
26.1749
26.3382
26.7947
427.263
142.763
110.532
72.34
58.3782
43.7058
38.225
31.2127
29.1424
26.353
25.831
24.8356
24.7232
24.4378
24.4628
24.5032
24.6151
24.8875
25.0963
25.6266
165.689
124.127
87.052
60.1332
54.0509
41.5826
37.7269
31.4392
29.9355
27.3804
27.0431
26.0773
25.9274
25.483
25.3549
25.2246
25.2074
25.2749
25.3839
25.7621
146.794
139.529
91.9723
56.6201
49.761
38.2676
37.5677
32.3134
31.247
28.7563
28.684
27.7791
27.4976
26.709
26.2626
25.8527
25.6407
25.6119
25.6406
25.9389
144.455
140.307
103.098
65.3503
54.8664
42.7274
40.3983
35.0518
34.6931
32.7958
33.1282
32.522
31.8487
30.2051
28.6963
27.5026
26.7862
26.5692
26.5539
26.8599
199.294
117.721
89.7006
60.2371
54.4861
44.5327
42.3508
39.327
36.5822
35.7554
34.9831
35.1343
34.4032
32.4541
30.4663
28.2254
27.2097
27.0718
27.1495
27.4841
200.745
124.489
98.859
66.2977
55.2056
48.0356
45.207
41.3765
38.3151
36.3616
34.3105
33.2738
32.9
31.7259
30.6946
30.7377
28.8679
28.123
27.8564
27.8697
278.146
122.056
99.5397
69.7295
59.1495
50.2196
44.251
40.6595
37.7956
35.4373
33.9865
33.3912
32.1456
30.8924
31.8422
32.2506
29.8658
28.5744
27.8289
27.4697
235.379
135.298
91.1996
65.0268
57.0346
49.472
44.7606
40.5552
38.27
36.5133
52.003
46.8971
38.1114
34.0424
33.8649
32.3123
29.6516
28.1887
27.4446
27.1026
378.652
216.65
109.061
73.1384
60.0492
52.4728
48.1166
43.3058
39.8726
37.1223
33.8808
31.2888
29.8039
30.2789
31.475
30.4409
28.6468
27.7759
27.393
27.2318
129.811
124.92
87.1849
60.5455
56.5106
47.2637
44.9251
42.7853
37.3526
34.5718
30.6138
28.4776
27.7637
27.7362
29.0744
28.2009
27.8533
27.7557
27.7901
27.7948
172.743
125.662
90.5935
60.3876
54.1224
44.4012
42.4797
36.348
33.6187
30.0379
28.9628
28.0168
28.0128
28.0439
28.1696
28.4096
28.7819
28.8983
29.0236
28.9685
217.629
121.79
84.1909
54.3298
48.1132
38.3357
38.7305
34.3026
32.3934
30.0624
29.7013
29.5275
29.6611
29.8898
30.1133
30.3862
30.7462
30.8227
30.8487
30.5466
141.845
130.035
85.0036
54.7216
49.7691
40.6355
39.2759
35.7722
34.5344
33.0714
32.8047
32.5495
32.5925
32.6575
32.761
32.8218
32.9596
32.8876
32.8003
32.3326
253.42
208.363
117.829
64.7766
55.8568
45.7889
44.8896
40.7061
39.3792
37.3768
36.847
36.2897
36.0102
35.7356
35.5485
35.2297
35.0653
34.5888
34.3172
33.6082
211.658
160.013
111.426
77.4553
70.6975
63.8654
58.8289
54.0284
50.1769
47.2638
44.7459
43.0685
41.579
40.2816
39.0922
37.8923
37.1596
36.0829
35.3893
34.2408
116.616
141.867
113.947
75.9044
67.6908
60.759
55.758
52.0344
48.7373
47.2025
45.3377
44.6848
43.5297
42.472
40.8721
38.8082
37.1799
35.5832
34.7568
33.6587
87.3889
93.903
87.692
78.0212
69.9961
64.2978
59.1816
54.7211
50.45
46.3427
42.8699
39.7796
37.139
34.2774
31.3082
28.3336
26.2607
24.4287
23.5627
21.9394
86.3775
119.861
99.3052
71.2561
60.9933
56.2866
48.399
42.3313
37.5696
33.8621
30.3248
27.0783
24.5053
22.7661
21.7932
21.3518
21.2219
21.2316
21.3635
21.8785
248.234
172.966
119.184
80.2724
69.3502
51.853
54.3705
43.8127
49.348
44.3128
47.4607
44.097
45.0384
42.9634
43.2269
42.3048
42.3004
42.1836
42.4699
43.6301
449.298
253.982
122.122
74.7424
63.9165
47.447
49.2885
38.9118
42.2592
36.8103
39.1987
36.2975
37.7826
36.4259
37.3722
37.0058
37.5992
37.8872
38.3616
39.3185
431.14
156.358
113.574
71.1094
63.9342
46.7126
47.0957
36.7828
39.4366
34.1215
36.5863
34.0394
35.7346
34.7373
35.7658
35.6139
36.2078
36.569
36.9576
37.7901
261.794
131.743
93.6914
69.3725
62.9847
46.4851
47.2622
37.0677
39.6192
34.5376
36.8053
34.411
36.1652
35.1665
36.2521
36.0516
36.6481
36.8824
37.2498
37.9387
169.978
133.78
93.2289
63.4671
60.728
45.5723
48.6534
37.6104
39.6454
34.9332
36.9878
35.1425
36.5112
35.8729
36.5283
36.5996
37.0259
37.3549
37.5789
38.1979
194.78
138.116
103.128
65.427
65.8665
47.2154
50.8536
40.3919
42.3336
37.7476
40.6259
38.3264
39.7424
38.1416
38.3054
37.9357
38.2347
38.4796
38.7685
39.4264
229.702
136.273
91.2786
65.013
67.9124
50.355
49.0084
44.3787
43.8329
42.067
43.0226
42.3681
42.2289
40.6542
41.2014
39.5556
39.1523
39.4146
39.6009
40.09
226.787
132.934
101.584
71.2824
63.9118
53.2229
54.1202
49.9952
48.9904
48.0823
47.8026
47.4189
46.9006
46.0917
46.4616
42.2592
40.4452
40.1688
40.2613
40.384
255.143
126.829
99.9096
71.9321
70.4066
54.601
52.4928
53.3093
52.2118
49.4351
47.9685
48.5845
49.6783
49.5847
48.584
43.3401
41.1335
40.4715
40.2325
40.0675
212.138
141.3
95.4214
70.7816
67.333
52.6919
51.8263
53.6681
52.7286
49.224
47.3483
47.7239
51.2647
51.354
49.2992
43.7208
41.171
40.274
39.9124
39.6115
320.629
162.487
122.807
67.8182
72.7937
58.0986
57.894
54.964
51.6941
48.4378
46.7906
47.8782
49.6919
49.8702
48.1713
42.6428
40.7426
39.9687
39.8776
39.6343
191.253
126.818
93.6885
63.2755
72.6244
54.8404
52.5841
46.3657
44.167
40.4618
41.3819
41.6061
42.7362
42.6298
42.0365
40.4603
39.9614
39.9605
40.0391
39.9011
158.599
127.599
94.8464
60.7367
70.8379
50.3636
54.2614
43.9262
43.0744
38.1852
39.6019
38.2668
39.6388
39.3513
39.9746
40.2347
40.9839
41.0982
41.4375
41.1773
173.808
126.465
98.8467
61.6039
65.9761
46.8078
54.2584
40.7618
43.6626
38.3006
40.5437
39.0993
40.3642
40.1037
40.7457
41.2477
42.188
42.4954
42.9205
42.5359
318.404
135.298
100.256
62.1167
67.9045
47.7196
54.2811
43.8659
47.6283
42.7064
44.6915
42.6265
43.7791
43.115
43.8667
44.0055
44.7949
44.9243
45.3584
44.9188
203.438
185.715
143.371
73.9935
74.4923
50.7106
59.3995
46.4228
52.254
46.1791
48.9538
46.1324
47.054
45.8198
46.1804
45.8947
46.4298
46.4805
46.9427
46.5266
191.72
160.866
141.31
79.5515
88.033
66.4291
71.8574
60.49
63.167
57.1148
57.7141
54.3041
53.9978
51.7524
51.2658
50.1564
50.0698
49.1884
49.0192
48.1038
206.746
159.588
130.981
73.9383
87.4816
64.8383
73.0821
61.8275
66.9314
61.7283
63.7355
60.278
59.9089
57.126
56.147
53.9325
53.3717
52.0515
51.7745
50.6428
64.1242
87.8264
82.1327
74.0303
66.914
60.2743
54.7229
49.7351
45.2783
40.6652
36.7675
33.0005
30.1287
27.909
26.4429
25.0316
23.9178
22.5567
21.6708
20.5763
32.3798
34.3
74.3547
34.2738
33.3589
35.5238
73.801
32.0376
76.6548
68.3518
33.21
33.0589
72.9068
60.3497
95.0453
35.6509
34.6052
35.162
86.6584
36.091
34.2781
74.4698
34.3763
33.9318
86.4977
66.6404
33.6355
31.8533
221.178
279.656
232.544
82.1056
67.6044
73.512
64.905
210.41
226.356
211.416
63.7841
54.7848
62.9293
57.2748
211.509
210.572
206.967
52.9937
48.9437
55.3771
52.0346
190.647
201.409
163.733
48.1826
46.7472
51.4613
46.2946
126.502
156.619
163.367
46.6816
45.3986
42.6955
35.6049
132.902
169.819
162.096
42.9782
33.1423
34.3745
33.414
166.827
152.709
147.994
32.4016
31.884
33.3769
31.7189
165.741
152.309
148.16
31.9914
33.764
30.6968
28.38
229.005
266.859
205.148
71.7329
62.1766
74.0439
60.7503
203.195
196.596
184.829
60.5892
56.2685
57.5219
48.7519
190.896
184.659
189.149
54.5413
51.5754
46.5751
42.8533
160.666
192.298
197.206
50.6127
42.1672
42.207
41.0028
178.285
197.657
199.177
39.6492
35.5245
40.9403
41.002
164.718
198.433
167.977
35.1231
35.2152
41.1728
42.0223
140.458
146.625
120.286
35.1881
32.6905
41.9759
35.225
144.106
120.383
118.275
31.0437
28.1405
32.3225
27.4624
206.172
258.878
219.951
77.5295
61.2579
81.3946
60.5626
199.733
225.155
238.749
57.4473
48.3609
56.6889
49.8231
210.274
238.985
235.392
46.38
43.3749
48.5691
46.4169
210.792
233.808
226.192
42.9849
42.4764
45.9995
45.1032
206.98
223.66
210.696
42.4556
42.4341
44.9429
45.5552
165.162
204.542
135.986
42.685
44.4497
47.063
48.6142
118.563
123.153
126.232
44.2786
34.7759
43.9555
29.6111
114.688
127.305
113.816
31.9588
27.3341
28.1123
25.3966
228.527
311.104
241.086
88.9522
62.2
91.8313
67.9504
241.529
241.643
246.225
57.9012
51.0619
64.1858
58.4914
233.811
245.01
233.197
49.8399
47.4845
57.1242
53.4625
223.583
227.169
211.071
46.9742
45.8925
52.3861
50.3202
205.333
201.352
169.623
45.8152
46.732
50.2398
50.9413
126.092
148.895
117.093
48.7651
47.7227
50.8584
39.2013
129.894
118.227
132.849
40.396
28.2654
33.8064
26.9753
116.949
134.042
122.586
27.1541
25.1636
26.3156
24.6185
58.7117
61.9701
56.7896
49.4441
45.3378
48.7358
44.9505
49.0354
55.3784
51.0032
44.0779
40.7144
44.0048
40.9749
44.1496
49.4747
46.4576
39.6675
37.2164
39.9839
37.4553
42.2533
45.6511
40.4461
36.7036
35.1275
36.5008
32.9675
40.584
37.7914
32.4446
34.7371
32.3656
31.8803
29.3834
31.0242
31.4074
30.6808
31.1997
28.6855
28.9759
28.5536
29.8954
30.6637
28.7673
28.5479
28.4006
28.2568
25.969
31.7831
27.8005
26.3173
28.4013
28.3663
25.3009
23.8421
54.6925
62.4274
53.7267
48.0616
43.9829
49.4925
43.3535
49.8044
51.1776
44.1625
42.9668
39.8757
41.7086
37.5768
45.4499
42.3483
38.9764
38.9091
36.3673
36.5212
34.3268
37.5885
38.263
37.7327
35.3399
32.591
34.2185
48.8486
32.5929
38.0522
38.8395
31.884
31.3703
51.2813
51.7815
32.5955
38.8651
38.669
31.5386
31.3816
48.911
40.9929
29.7544
38.515
32.5553
30.7337
26.5816
39.1477
32.1175
26.0535
30.1274
25.9607
25.4756
23.5297
29.892
25.1728
54.279
68.3133
54.0805
51.1232
43.8772
52.8533
44.9742
43.8972
50.9818
45.065
42.0439
37.7341
43.0877
39.2329
39.3122
43.8922
41.7781
36.7075
34.7623
38.3837
36.626
38.8568
41.3555
40.4384
34.5095
52.4116
36.1958
35.2219
39.6316
40.351
41.0758
54.6754
51.9105
35.0758
35.1621
40.1744
42.5184
42.5636
47.2822
39.521
35.2236
31.7725
31.9333
38.0722
26.8288
37.874
31.9048
28.9667
24.3359
25.9363
25.577
23.8794
30.1933
25.9413
23.801
22.8727
55.593
76.3183
61.2166
56.1031
46.2326
58.0029
50.1972
46.2489
58.1271
52.9423
44.1804
40.2918
48.4418
44.5993
42.8898
51.5403
48.1894
39.4488
37.54
43.3563
40.5541
41.3158
47.3443
45.7297
37.0506
35.8781
40.026
38.4949
42.3836
45.6472
45.693
35.7001
35.798
37.9633
35.5945
41.3438
45.1931
33.5748
35.6556
30.0538
33.5074
25.9538
25.5124
29.4807
24.0683
27.25
23.0365
24.1144
21.5434
23.4982
23.5156
22.6828
22.5637
22.0471
21.2484
20.786
43.4763
46.8024
43.1217
44.8185
41.6726
44.4867
41.4568
39.4771
42.1985
39.3166
40.8302
38.4633
40.5793
38.0373
36.2105
38.4064
35.9971
37.6385
35.7983
37.2993
35.2839
34.0698
35.1033
32.1852
35.394
33.7098
34.5579
32.5378
31.391
31.2843
29.3582
33.277
31.9364
31.9585
30.8633
28.8431
29.0696
28.5786
31.7764
31.4065
30.6966
30.2322
28.6071
28.151
26.0233
31.3554
30.6502
29.9481
28.8611
27.9016
25.4343
23.9596
30.2877
28.5383
28.5241
27.4929
42.3131
47.1718
41.7103
43.9511
40.8097
44.1838
40.2025
38.3207
40.2375
36.6743
39.8771
37.3788
39.2173
37.0019
35.0863
35.7845
34.0295
36.7028
34.8783
36.4586
35.3047
34.5017
33.4582
33.5449
33.6593
33.7408
33.1406
33.4335
41.3669
31.8113
36.8165
32.4104
37.8201
32.4297
40.1301
31.4975
61.1499
45.226
32.8648
31.5211
56.7179
43.2601
26.4729
41.9576
32.9161
30.7784
28.8848
39.8127
33.0533
23.6916
30.4513
25.5938
28.4633
27.4647
31.7131
29.5342
42.2057
50.1115
43.6072
44.8539
40.6664
46.9636
42.6882
36.9424
41.9581
38.5525
39.669
37.449
41.5668
39.0431
34.4707
37.7827
36.1014
36.9081
35.7634
38.3946
36.6804
40.6619
61.4868
34.7837
39.5846
37.1925
235.217
34.8129
44.5935
92.9905
41.7225
198.241
41.4434
183.704
45.6106
42.9255
33.6909
29.8615
57.8161
43.1978
31.2282
29.0448
33.1581
27.8151
24.5718
39.9131
33.7098
28.535
28.1699
26.4814
24.2064
23.3498
32.5207
30.2518
28.213
28.0758
44.7807
53.7024
48.1529
48.1947
43.641
48.5875
45.4938
39.5362
46.6584
43.0074
42.443
39.6682
44.2951
40.6521
36.88
41.7411
39.0573
38.9244
36.9773
39.3657
36.9182
35.0528
38.5188
36.6743
36.3444
34.1915
36.2118
33.3446
34.1775
35.8882
32.855
33.4633
31.4876
32.2777
29.5019
28.3814
30.9264
25.0514
30.7323
28.1783
28.4943
26.3153
23.2694
23.7075
21.7687
27.6346
27.1571
25.9221
25.4283
22.4745
21.5458
21.0742
27.1737
27.272
25.3599
25.1745
42.2448
44.9336
42.1542
50.5843
47.6747
50.1547
49.2442
39.0868
41.3215
38.9352
46.6913
45.0665
48.7543
47.3049
36.7411
38.2574
36.3418
44.9429
44.4627
46.9278
45.0756
34.7177
35.6417
33.6707
43.9883
43.0444
44.2885
42.5741
33.3444
33.141
32.1824
43.0933
43.0466
42.339
42.3104
32.9887
32.0702
31.9089
42.8592
42.3385
42.5383
43.4772
32.1284
31.773
31.1252
42.2417
41.7349
43.6439
43.7148
29.8485
30.8901
29.9184
41.3029
40.5794
43.6368
43.505
41.5071
44.1848
40.8739
48.9185
48.69
47.9977
48.0512
38.4029
40.0879
38.2941
48.3911
47.3341
48.095
47.7201
36.0502
37.8176
36.5039
46.9707
44.7448
47.1966
44.8961
34.1965
36.4268
50.5861
43.9612
42.2597
43.983
43.4198
33.5917
50.9445
48.0554
42.0064
41.8127
43.4104
42.7173
32.5472
46.5234
39.9151
42.0134
43.4391
42.5799
44.2109
31.1347
37.8776
34.0917
43.7637
44.0804
44.8059
45.5664
30.0038
33.4132
31.9871
44.0477
43.8064
45.5139
45.0278
41.3378
47.1198
43.4948
48.4895
48.4883
51.946
50.7206
38.752
42.5213
40.1817
48.5102
48.0329
50.1395
48.2384
36.9445
39.5456
37.7143
47.4708
45.1106
47.6557
45.0947
51.4957
37.042
34.8481
44.1398
43.0314
44.1406
41.6148
49.0711
34.1005
32.2162
42.8874
42.4532
41.0453
40.4018
40.1167
31.6696
30.5155
42.4147
44.3053
40.7003
43.2235
34.6225
30.4539
30.9495
44.9653
45.8451
43.9289
44.8568
32.5749
31.1594
31.014
45.7996
45.2411
44.8771
44.5415
44.3764
48.195
45.6819
52.9477
51.2555
52.1328
49.5129
40.6229
44.4139
40.6129
50.3778
47.8436
47.7414
43.9202
37.832
39.3678
37.0539
47.1674
44.8145
43.3492
41.7191
34.6855
36.2677
33.2527
43.8414
41.5306
40.6435
38.7482
31.9002
32.3054
30.1688
41.1127
40.9601
38.9167
39.4702
29.9275
29.4589
28.2518
41.3158
43.1547
39.5082
40.0698
30.1201
28.0915
28.0716
43.583
44.2336
40.3139
40.7204
30.2841
28.0518
27.78
44.2261
44.0385
40.6506
40.4419
51.0076
53.7622
53.7979
71.3186
66.4523
70.1684
75.4097
48.7938
53.4417
52.2974
65.755
66.0868
75.147
74.7828
48.6738
51.996
50.3995
69.1972
67.3426
74.804
75.8661
47.5388
49.719
48.5327
66.2214
66.449
75.9836
76.5747
47.7649
48.4765
48.6951
67.9933
66.6108
76.6114
75.3692
46.9236
48.788
49.247
66.2325
65.8709
74.2925
71.3733
46.4736
49.332
49.2216
66.4443
65.2531
70.8165
69.8242
45.3231
49.1175
48.6293
65.195
63.6148
69.6649
68.8927
53.3968
51.2619
52.9775
70.7905
76.5696
69.4806
78.2896
52.5521
53.2723
53.0954
76.4826
76.0687
78.5286
78.8293
50.2004
52.5543
50.1272
76.2375
78.8194
79.733
85.6578
48.0655
49.1728
47.9067
79.3761
80.1692
87.4659
88.9155
48.2273
47.8962
47.6909
80.1013
78.7529
88.8937
86.9016
49.4905
47.9898
50.552
77.481
73.3727
85.1191
78.6664
49.6751
51.0727
51.3097
72.2376
70.6957
76.533
73.1313
48.9476
51.1123
49.9624
70.4547
68.7593
72.6129
70.5417
53.4271
56.1425
55.5513
71.5722
79.4228
79.7468
82.4095
53.3199
54.9647
53.0275
79.51
79.4323
81.3403
79.1676
50.2204
52.4101
49.8584
80.2274
85.9994
78.8543
80.4229
47.5016
48.9265
46.9837
87.7705
88.7547
80.984
81.0487
47.3237
46.7253
47.0532
88.8578
87.6821
81.1437
80.9457
50.6852
47.7269
49.7337
85.8908
79.3391
80.324
76.7241
51.5653
50.2656
50.6265
77.1306
73.5246
75.5689
73.5858
50.1217
50.5265
49.5873
72.9857
70.3352
73.2343
71.6174
55.9232
56.3488
52.3355
88.3612
83.2485
79.7147
70.6844
52.3531
50.3533
46.9892
81.1351
78.397
68.2188
71.7831
49.3459
46.7877
45.244
77.5271
77.3357
70.1731
66.8365
46.85
44.1065
43.1626
77.5115
77.8478
65.3714
68.326
47.4665
43.7015
44.6133
77.9616
77.8511
67.6899
68.2138
49.3525
44.6211
45.2385
77.4366
75.0644
67.6801
69.5968
49.9596
45.5244
45.8476
74.5645
73.1578
69.1941
68.9999
49.1274
45.7482
45.1838
72.8882
71.2487
68.3983
67.6265
37.332
32.853
36.0934
32.6352
34.8102
32.8401
39.2974
50.2943
33.9151
49.2177
38.9647
37.8897
34.6662
176.762
72.6891
52.0965
67.4326
203.839
46.8012
79.1514
224.697
34.9772
33.7035
33.7878
34.284
33.2564
33.6887
34.8359
38.0593
32.9778
33.5154
37.9222
33.0786
40.091
36.4842
52.6081
39.9711
35.1186
52.7558
35.1422
181.563
40.4305
75.253
208.019
54.5964
70.6081
81.651
228.439
50.1709
42.3663
31.8722
39.8157
32.6652
39.0879
32.5512
42.1495
80.6496
54.4329
76.202
188.778
56.7264
79.4209
171.934
77.3876
57.1651
74.6822
95.4451
58.2889
67.5007
114.063
41.9325
32.8412
33.196
38.5967
32.8798
40.8662
39.2906
42.3711
32.9303
33.1618
39.144
32.957
41.7665
39.462
81.0911
191.421
55.6182
71.307
81.1079
175.23
55.9553
76.3184
89.2704
51.5903
67.1528
65.2278
116.152
54.9961
44.7713
86.719
41.509
211.008
40.1355
223.88
45.8099
35.0699
35.0259
35.2238
35.4529
35.0346
34.9268
34.9887
35.3249
35.2628
34.88
34.2542
35.1924
35.3174
34.6099
40.7192
40.4781
60.1477
35.7113
224.151
35.1106
38.0025
44.7912
211.183
81.2984
41.1551
224.3
45.5735
40.5258
35.2471
35.5852
35.7866
35.4769
35.1624
35.0608
35.6036
35.3912
34.1306
35.2216
34.8926
35.2876
34.5991
35.4911
42.5528
91.2477
39.3841
119.178
40.7348
172.893
40.9831
34.8071
35.2041
34.1884
33.9034
35.0416
35.1582
33.5663
34.3337
34.5299
34.0413
32.9042
34.7795
33.9082
33.2333
44.0657
197.768
84.2032
40.9446
182.701
45.2356
40.3233
41.8959
108.627
81.341
38.2373
161.927
40.426
39.4263
34.4712
33.6275
34.748
33.0128
34.9681
33.1282
34.1744
33.8779
32.1456
33.0335
32.4081
33.3634
32.628
33.5639
150.699
169.581
148.655
97.1218
76.5809
96.2488
78.7733
146.662
141.659
140.155
67.2916
65.4222
65.7369
60.7546
138.507
139.579
138.276
62.512
58.371
58.1924
56.1241
132.669
134.699
130.469
57.2402
56.8739
54.8118
54.5205
121.622
123.612
106.158
56.0107
54.9785
55.1043
55.6548
100.168
90.0025
87.8646
54.4499
53.2161
54.2371
49.7739
95.2041
89.1415
93.635
51.2168
50.1992
45.0521
42.0189
88.773
103.647
100.832
50.8646
49.406
42.3705
40.4484
179.381
185.506
175.609
101.556
96.8472
97.6455
87.5623
135.216
261.632
287.019
162.096
139.319
160.785
258.239
96.8352
209.703
219.528
105.051
98.4894
102.817
215.272
84.409
211.074
215.017
88.4358
87.1896
86.0617
215.5
78.9623
208.518
215.664
80.4454
79.0204
80.2749
212.52
77.9105
169.048
173.45
75.0286
74.9836
79.414
159.329
59.4871
119.334
137.908
67.4895
59.0471
65.7165
142.986
53.9733
148.933
150.779
49.7935
50.111
54.072
151.508
56.3156
173.367
167.96
53.0852
53.7811
55.7794
170.82
95.0521
103.46
87.4395
38.3102
36.4503
34.6508
30.7491
175.135
188.32
170.302
105.078
85.5305
106.979
88.0203
126.618
249.346
273.575
154.076
128.208
154.441
243.75
91.1701
215.066
208.124
98.3819
95.3624
94.4674
198.651
81.428
198.79
180.607
86.5794
84.745
82.8568
176.696
74.4922
169.429
166.186
84.7554
83.9768
78.5113
166.251
64.3127
164.526
174.971
67.1294
63.1285
65.0608
180.707
64.1305
180.869
188.823
61.2789
61.1835
64.2087
188.253
56.2473
142.809
149.819
56.6581
55.0521
58.5762
138.23
50.7734
148.511
135.224
52.4031
52.2532
51.1385
140.222
85.1298
88.2713
79.1621
32.4969
28.8562
30.9927
26.9735
165.798
197.538
165.861
114.248
93.4877
122.697
99.1507
125.942
233.447
261.277
150.041
127.068
149.555
232.925
84.2497
198.314
209.461
89.9288
83.7443
89.5238
210.635
78.1677
205.105
220.818
74.8053
74.1851
78.3346
223.317
78.3365
211.811
225.478
74.539
74.7046
78.3771
224.739
76.7723
208.991
219.139
74.5163
73.9389
77.5273
216.974
76.5933
199.829
207.391
73.3385
73.7748
76.0621
200.568
67.3177
128.844
137.143
72.5959
67.1962
75.8573
125.481
46.838
118.673
118.32
50.4232
47.1992
49.7774
118.385
72.7443
78.5539
70.1311
29.4879
25.3575
28.6671
24.2128
184.692
235.851
197.789
153.298
114.892
151.233
112.448
137.561
245.417
284.018
163.63
134.165
166.87
248.626
91.7982
237.898
232.624
93.244
89.545
95.7108
237.753
85.2665
238.896
240.616
85.0453
84.1523
86.5049
237.806
80.9485
228.439
226.776
81.9397
81.3354
81.8202
223.401
78.5928
215.286
213.322
79.7727
79.0801
79.0556
207.556
81.9839
174.234
181.098
80.8513
83.8585
81.2939
156.813
52.7586
120.19
117.505
65.2505
55.6137
60.6992
120.548
46.6882
131.304
134.8
47.0511
46.4871
47.0002
134.915
71.3851
86.1389
76.8151
28.6367
23.8044
29.1049
25.1988
155.592
174.342
148.172
99.7254
83.0541
95.5038
80.0111
147.875
145.5
147.514
74.0162
69.3152
71.4251
69.2547
140.714
144.626
138.784
65.9318
63.5276
64.9449
61.4491
130.202
131.395
118.726
61.7179
61.3374
61.0868
60.7403
99.1781
101.682
84.1816
60.8761
59.8733