/*--------------------------------*- C++ -*----------------------------------*\
  =========                 |
  \\      /  F ield         | OpenFOAM: The Open Source CFD Toolbox
   \\    /   O peration     | Website:  https://openfoam.org
    \\  /    A nd           | Version:  10
     \\/     M anipulation  |
\*---------------------------------------------------------------------------*/
FoamFile
{
    format      ascii;
    class       volScalarField;
    location    "5.7";
    object      p;
}
// * * * * * * * * * * * * * * * * * * * * * * * * * * * * * * * * * * * * * //

dimensions      [0 2 -2 0 0 0 0];

internalField   nonuniform List<scalar> 
12920
(
2.57726e+06
2.40082e+06
2.19154e+06
2.06961e+06
1.87531e+06
1.7469e+06
1.57685e+06
1.44822e+06
1.30185e+06
1.1765e+06
1.04568e+06
925904
805473
691259
577553
467388
357762
250548
145550
43179.1
2.41532e+06
2.37149e+06
2.17021e+06
2.04986e+06
1.86269e+06
1.73747e+06
1.56659e+06
1.44152e+06
1.29569e+06
1.17202e+06
1.04159e+06
922623
802647
688772
575550
465786
356525
249441
144686
43030.8
2.54765e+06
2.38954e+06
2.18146e+06
2.04512e+06
1.86223e+06
1.72625e+06
1.55807e+06
1.43104e+06
1.28505e+06
1.1616e+06
1.03271e+06
915135
796345
683669
571413
462601
354089
247657
143451
42622
2.40172e+06
2.3956e+06
2.13822e+06
2.02518e+06
1.82236e+06
1.69436e+06
1.53116e+06
1.40703e+06
1.26655e+06
1.14523e+06
1.01973e+06
903892
787214
675994
565391
457840
350592
245174
141858
42134.8
2.38216e+06
2.35518e+06
2.14258e+06
1.99957e+06
1.79601e+06
1.66598e+06
1.50348e+06
1.38056e+06
1.24309e+06
1.12512e+06
1.00242e+06
889356
775252
666325
557619
451767
346018
242054
140043
41538.1
2.54695e+06
2.32986e+06
2.06014e+06
1.90395e+06
1.72694e+06
1.60367e+06
1.45922e+06
1.34096e+06
1.21381e+06
1.09919e+06
982204
871778
761231
654582
548349
444436
340730
238430
138033
40878.3
2.46586e+06
2.24237e+06
1.95563e+06
1.81113e+06
1.65767e+06
1.54335e+06
1.40879e+06
1.29941e+06
1.17884e+06
1.07095e+06
958203
852203
745160
641578
537449
435880
334436
234145
135606
40090.3
2.03535e+06
2.03857e+06
1.77861e+06
1.68805e+06
1.55912e+06
1.46525e+06
1.38833e+06
1.28564e+06
1.17704e+06
1.07067e+06
964042
859461
755854
653845
525722
426612
327618
229337
132872
39204.2
1.63139e+06
1.73825e+06
1.61206e+06
1.56924e+06
1.47474e+06
1.43553e+06
1.35493e+06
1.25608e+06
1.15497e+06
1.05385e+06
952782
852345
752440
652612
537844
416945
320596
224304
130024
38295.2
1.50753e+06
1.53008e+06
1.48222e+06
1.46408e+06
1.38602e+06
1.36374e+06
1.29792e+06
1.20671e+06
1.11314e+06
1.0186e+06
923554
828123
732834
636592
526528
407098
313257
219391
127190
37341.9
1.24147e+06
1.32543e+06
1.36887e+06
1.38107e+06
1.31497e+06
1.29906e+06
1.23957e+06
1.15719e+06
1.07164e+06
983627
893936
803591
712498
620296
513893
397655
306177
214447
124340
36391.9
1.25225e+06
1.27909e+06
1.28949e+06
1.306e+06
1.25099e+06
1.23755e+06
1.18648e+06
1.11239e+06
1.03327e+06
951250
866670
780656
693905
604983
502193
389221
299697
209899
121643
35489.1
1.38375e+06
1.28779e+06
1.24071e+06
1.25427e+06
1.20217e+06
1.16624e+06
1.12449e+06
1.05917e+06
986231
909395
829261
747672
664174
578912
468529
381694
293694
205668
119130
34634.7
1.25498e+06
1.29125e+06
1.22246e+06
1.22397e+06
1.16695e+06
1.13049e+06
1.06733e+06
1.00735e+06
934605
863552
785562
707963
626261
544012
459425
374315
288069
201778
116872
33867.3
1.26375e+06
1.31522e+06
1.23621e+06
1.21121e+06
1.15182e+06
1.10792e+06
1.04409e+06
985000
915488
845692
770519
694177
614584
533852
451043
367627
282986
198274
114957
33185.5
1.48983e+06
1.38074e+06
1.23671e+06
1.20778e+06
1.13342e+06
1.08767e+06
1.02423e+06
966579
898026
830723
756562
682421
604128
525177
443878
362007
278673
195351
113296
32686.4
1.48652e+06
1.3799e+06
1.25626e+06
1.1986e+06
1.12584e+06
1.07767e+06
1.01194e+06
953832
885007
818932
745794
672994
595992
518262
438228
357427
275250
192965
111992
32208.3
1.33472e+06
1.28936e+06
1.19999e+06
1.16453e+06
1.09856e+06
1.05806e+06
996389
940774
874116
809154
737326
665531
589754
513122
434047
354240
272866
191350
111037
31802.6
1.32258e+06
1.28726e+06
1.18145e+06
1.14794e+06
1.08948e+06
1.05189e+06
990033
934957
867873
803527
732088
661068
585621
509533
431152
351832
271001
190231
110560
31636.7
1.20052e+06
1.2422e+06
1.15365e+06
1.14169e+06
1.08191e+06
1.04566e+06
985009
930220
864204
800162
729410
658578
583623
508122
429761
350481
270175
189687
110469
31658.4
2.51782e+06
2.40904e+06
2.18722e+06
2.06861e+06
1.87501e+06
1.74608e+06
1.57677e+06
1.44825e+06
1.30177e+06
1.17649e+06
1.04562e+06
925886
805470
691243
577551
467370
357763
250522
145519
43243
2.39382e+06
2.36512e+06
2.16599e+06
2.04953e+06
1.86308e+06
1.73688e+06
1.56666e+06
1.44228e+06
1.29579e+06
1.17216e+06
1.0416e+06
922699
802647
688779
575562
465788
356507
249410
144650
42919.3
2.36858e+06
2.37485e+06
2.17888e+06
2.04487e+06
1.86434e+06
1.72713e+06
1.55864e+06
1.43167e+06
1.28509e+06
1.16195e+06
1.03275e+06
915219
796347
683707
571440
462632
354094
247689
143466
42562.6
2.5114e+06
2.41374e+06
2.13832e+06
2.02566e+06
1.82286e+06
1.69506e+06
1.53149e+06
1.40743e+06
1.26661e+06
1.14569e+06
1.0198e+06
904055
787207
676048
565402
457858
350597
245212
141916
42108.2
2.59182e+06
2.38278e+06
2.14274e+06
1.99848e+06
1.79546e+06
1.66717e+06
1.50308e+06
1.38125e+06
1.24302e+06
1.12545e+06
1.00247e+06
889514
775242
666330
557626
451786
346034
242095
140085
41531.4
2.54543e+06
2.33132e+06
2.05877e+06
1.90428e+06
1.72663e+06
1.60387e+06
1.45887e+06
1.34103e+06
1.21377e+06
1.09929e+06
982168
871806
761266
654583
548366
444462
340751
238451
138022
40808.7
2.44118e+06
2.23068e+06
1.94968e+06
1.81124e+06
1.65708e+06
1.54328e+06
1.40866e+06
1.29969e+06
1.17893e+06
1.07096e+06
958183
852177
745126
641550
537479
435928
334466
234171
135574
40003.5
1.92395e+06
1.97984e+06
1.76774e+06
1.68707e+06
1.55832e+06
1.46563e+06
1.38848e+06
1.28607e+06
1.17731e+06
1.0707e+06
964005
859450
755860
653799
525859
426699
327686
229383
132849
39091.5
1.61234e+06
1.71766e+06
1.6148e+06
1.56793e+06
1.47487e+06
1.4356e+06
1.35547e+06
1.25669e+06
1.15517e+06
1.0538e+06
952688
852362
752409
652659
537607
416920
320485
224343
130029
38195
1.51476e+06
1.52134e+06
1.48377e+06
1.46481e+06
1.38618e+06
1.36415e+06
1.29816e+06
1.20639e+06
1.11295e+06
1.01853e+06
923490
828064
732722
636611
526290
407077
313247
219410
127173
37225.2
1.17409e+06
1.30484e+06
1.36699e+06
1.38089e+06
1.31477e+06
1.29911e+06
1.23983e+06
1.15729e+06
1.07158e+06
983363
893758
803532
712505
620287
513681
397649
306205
214503
124340
36267.9
1.21027e+06
1.27083e+06
1.2877e+06
1.30596e+06
1.25073e+06
1.23784e+06
1.18672e+06
1.11232e+06
1.03325e+06
951080
866545
780646
693924
604952
501790
389249
299746
209912
121624
35376.5
1.20447e+06
1.27911e+06
1.23818e+06
1.25317e+06
1.20226e+06
1.16638e+06
1.12414e+06
1.05915e+06
986065
909284
829232
747734
664122
578851
468464
381676
293667
205668
119117
34532.5
1.30018e+06
1.29622e+06
1.21796e+06
1.22275e+06
1.16699e+06
1.13058e+06
1.06667e+06
1.00712e+06
934737
863479
785618
707893
626235
543974
459400
374310
288067
201790
116843
33745.5
1.27413e+06
1.32118e+06
1.23298e+06
1.21068e+06
1.15137e+06
1.10799e+06
1.04514e+06
985049
915388
845636
770371
694159
614589
533840
451030
367631
282971
198256
114913
33085.9
1.40824e+06
1.37277e+06
1.23007e+06
1.20722e+06
1.13222e+06
1.08767e+06
1.02428e+06
966615
897939
830680
756523
682399
604116
525177
443894
362025
278636
195300
113247
32601.1
1.46818e+06
1.3627e+06
1.25868e+06
1.2004e+06
1.12696e+06
1.07769e+06
1.01171e+06
953769
884893
818855
745746
672952
595978
518249
438245
357446
275211
192884
111930
32133.7
1.22882e+06
1.28885e+06
1.20194e+06
1.16529e+06
1.09886e+06
1.05809e+06
996456
940774
874073
809121
737373
665606
589753
513085
434032
354244
272835
191271
110978
31730.4
1.09907e+06
1.25087e+06
1.18134e+06
1.14782e+06
1.08996e+06
1.052e+06
989876
934807
867850
803486
732071
661005
585579
509463
431103
351780
271005
190186
110536
31565.2
1.01623e+06
1.22853e+06
1.15488e+06
1.13953e+06
1.08167e+06
1.04579e+06
985046
930257
864265
800202
729447
658590
583550
508019
429745
350559
270236
189692
110451
31684
2.45708e+06
2.42518e+06
2.18445e+06
2.06705e+06
1.87507e+06
1.7457e+06
1.57677e+06
1.44858e+06
1.3016e+06
1.17654e+06
1.04553e+06
925844
805485
691240
577588
467413
357760
250457
145469
43364.1
2.36591e+06
2.39089e+06
2.16588e+06
2.0512e+06
1.86376e+06
1.73622e+06
1.56743e+06
1.44341e+06
1.29599e+06
1.17239e+06
1.04166e+06
922810
802677
688852
575628
465854
356556
249459
144691
43184.5
2.31914e+06
2.39003e+06
2.17972e+06
2.04516e+06
1.8675e+06
1.72731e+06
1.55943e+06
1.43304e+06
1.28517e+06
1.16256e+06
1.03278e+06
915372
796369
683800
571505
462698
354109
247780
143603
42790.5
2.46582e+06
2.45051e+06
2.13415e+06
2.02615e+06
1.82417e+06
1.69577e+06
1.53212e+06
1.40866e+06
1.26673e+06
1.14638e+06
1.01983e+06
904317
787285
676211
565466
457927
350618
245318
142176
42594.5
2.58006e+06
2.39941e+06
2.13687e+06
1.99699e+06
1.79512e+06
1.66745e+06
1.50276e+06
1.38217e+06
1.24287e+06
1.12589e+06
1.00247e+06
889747
775230
666393
557655
451840
346068
242183
140343
42018
2.50763e+06
2.32979e+06
2.0556e+06
1.90518e+06
1.72621e+06
1.60399e+06
1.45839e+06
1.34141e+06
1.21363e+06
1.09948e+06
982124
871863
761308
654619
548402
444518
340773
238498
138210
41240.9
2.3863e+06
2.23281e+06
1.94113e+06
1.81169e+06
1.65609e+06
1.54263e+06
1.40794e+06
1.30017e+06
1.17896e+06
1.07105e+06
958164
852213
745108
641525
537539
436021
334497
234193
135686
40328.1
1.98885e+06
1.98448e+06
1.77164e+06
1.68709e+06
1.55762e+06
1.46618e+06
1.38857e+06
1.28664e+06
1.17763e+06
1.07082e+06
964034
859492
755852
653813
525876
426800
327728
229446
133059
39456.7
1.55942e+06
1.7094e+06
1.61137e+06
1.56648e+06
1.47461e+06
1.43582e+06
1.35608e+06
1.25699e+06
1.1553e+06
1.0539e+06
952739
852348
752374
652697
537492
416945
320467
224409
130173
38445.3
1.53639e+06
1.55211e+06
1.48631e+06
1.46383e+06
1.38626e+06
1.36469e+06
1.29858e+06
1.20615e+06
1.11273e+06
1.01834e+06
923339
828039
732657
636550
526149
406961
313266
219463
127350
37484
1.16032e+06
1.32867e+06
1.36379e+06
1.37967e+06
1.31464e+06
1.29936e+06
1.24029e+06
1.15723e+06
1.07134e+06
981085
893334
803699
712594
620255
513522
397548
306237
214574
124505
36510
1.25563e+06
1.29627e+06
1.29491e+06
1.30747e+06
1.25137e+06
1.23865e+06
1.18727e+06
1.11223e+06
1.0331e+06
950906
866502
780814
693865
604904
501498
389259
299776
209944
121755
35569.5
1.11424e+06
1.25481e+06
1.2376e+06
1.25189e+06
1.20218e+06
1.16646e+06
1.12388e+06
1.05883e+06
985910
909187
829294
747739
664030
578755
468367
381653
293644
205675
119227
34701.7
1.24318e+06
1.2957e+06
1.22133e+06
1.22247e+06
1.16703e+06
1.13067e+06
1.06628e+06
1.00693e+06
934823
863427
785673
707823
626195
543931
459378
374309
288056
201790
116913
33974.5
1.19894e+06
1.30421e+06
1.23409e+06
1.21166e+06
1.15104e+06
1.10809e+06
1.04575e+06
985071
915285
845562
770277
694128
614580
533836
451045
367657
282963
198237
114919
33257.3
1.27088e+06
1.34824e+06
1.22849e+06
1.20584e+06
1.13098e+06
1.08757e+06
1.02408e+06
966593
897856
830637
756486
682387
604123
525209
443952
362065
278612
195262
113220
32637.1
1.39118e+06
1.3435e+06
1.25654e+06
1.20009e+06
1.12755e+06
1.07759e+06
1.01169e+06
953692
884790
818756
745701
672929
595979
518286
438303
357497
275181
192829
111873
32131.6
1.12425e+06
1.24541e+06
1.18445e+06
1.16142e+06
1.09792e+06
1.0582e+06
996385
940744
874015
809145
737363
665638
589752
513080
434068
354270
272813
191176
110920
31778.3
993891
1.22448e+06
1.17079e+06
1.14537e+06
1.09014e+06
1.05166e+06
989629
934642
867728
803426
732021
660969
585548
509469
431118
351848
271104
190126
110466
31647.9
900280
1.21585e+06
1.15117e+06
1.13715e+06
1.08163e+06
1.04603e+06
985150
930390
864341
800285
729420
658569
583515
507922
429706
350677
270310
189648
110358
31667
2.46758e+06
2.44518e+06
2.18434e+06
2.06467e+06
1.87542e+06
1.74528e+06
1.57668e+06
1.44909e+06
1.30155e+06
1.17668e+06
1.04538e+06
925744
805501
691292
577620
467441
357807
250369
145359
43419
2.60186e+06
2.40251e+06
2.16755e+06
2.04982e+06
1.86414e+06
1.73549e+06
1.56895e+06
1.44473e+06
1.29619e+06
1.17268e+06
1.04183e+06
922992
802699
688876
575674
465941
356612
249472
144801
43801.4
2.5301e+06
2.41888e+06
2.17849e+06
2.04577e+06
1.86886e+06
1.72661e+06
1.56016e+06
1.43483e+06
1.2853e+06
1.16306e+06
1.03278e+06
915544
796414
683903
571583
462805
354192
247831
143921
43811.2
2.4841e+06
2.48935e+06
2.13174e+06
2.02381e+06
1.82537e+06
1.69565e+06
1.53234e+06
1.41031e+06
1.26706e+06
1.14705e+06
1.01978e+06
904510
787435
676439
565654
458119
350724
245421
142636
43613.1
2.60606e+06
2.41764e+06
2.13964e+06
1.99488e+06
1.79512e+06
1.66697e+06
1.50213e+06
1.38371e+06
1.24279e+06
1.12621e+06
1.00239e+06
889914
775405
666641
557772
451978
346155
242287
140802
42960.2
2.60505e+06
2.32912e+06
2.0546e+06
1.90626e+06
1.72529e+06
1.60447e+06
1.45847e+06
1.34192e+06
1.2135e+06
1.09964e+06
982103
872030
761445
654748
548491
444615
340818
238543
138629
42117.5
2.37327e+06
2.20906e+06
1.94084e+06
1.81219e+06
1.6551e+06
1.54142e+06
1.40736e+06
1.30063e+06
1.17893e+06
1.07117e+06
958125
852394
745112
641530
537619
436126
334529
234218
136036
41134.6
1.92655e+06
1.95381e+06
1.769e+06
1.68722e+06
1.55659e+06
1.46651e+06
1.38826e+06
1.28744e+06
1.17792e+06
1.07098e+06
964128
859563
755874
653826
526010
426902
327781
229519
133414
40146.6
1.56642e+06
1.70726e+06
1.60632e+06
1.56595e+06
1.47439e+06
1.43591e+06
1.3568e+06
1.25721e+06
1.15544e+06
1.05402e+06
952849
852365
752392
652748
537559
417079
320529
224495
130543
39095.8
1.34233e+06
1.53433e+06
1.46979e+06
1.46299e+06
1.38612e+06
1.36517e+06
1.2991e+06
1.20606e+06
1.11255e+06
1.01824e+06
923266
828074
732649
636477
526140
406980
313317
219508
127648
38074.7
1.24272e+06
1.34912e+06
1.36044e+06
1.37878e+06
1.315e+06
1.29956e+06
1.24073e+06
1.15715e+06
1.0711e+06
982321
893388
803875
712688
620193
513419
397560
306267
214581
124728
37055.4
1.0893e+06
1.27309e+06
1.29174e+06
1.30655e+06
1.25173e+06
1.23927e+06
1.18758e+06
1.11203e+06
1.03291e+06
950817
866580
780983
693847
604863
501351
389279
299795
209948
121957
36082.4
1.00575e+06
1.24579e+06
1.23668e+06
1.25073e+06
1.20229e+06
1.16644e+06
1.1237e+06
1.05856e+06
985759
909143
829366
747725
664004
578656
468358
381656
293641
205667
119399
35177.6
1.15541e+06
1.29119e+06
1.22073e+06
1.22108e+06
1.16704e+06
1.13076e+06
1.0658e+06
1.00674e+06
934887
863364
785703
707772
626170
543909
459375
374320
288051
201769
117059
34378.4
1.2204e+06
1.31122e+06
1.22948e+06
1.21061e+06
1.15087e+06
1.10814e+06
1.04586e+06
985087
915183
845513
770226
694105
614575
533846
451068
367699
282959
198196
114997
33621.7
1.42386e+06
1.34659e+06
1.23062e+06
1.20517e+06
1.13048e+06
1.08753e+06
1.02394e+06
966576
897767
830606
756452
682382
604127
525236
443991
362096
278607
195204
113220
32953.5
1.36219e+06
1.33762e+06
1.25416e+06
1.19893e+06
1.12741e+06
1.07757e+06
1.01163e+06
953651
884709
818697
745669
672926
595987
518320
438343
357528
275170
192744
111826
32375.1
1.12508e+06
1.26554e+06
1.18286e+06
1.16159e+06
1.09893e+06
1.05848e+06
996423
940778
874008
809187
737399
665708
589757
513103
434105
354279
272753
191067
110865
31992.8
973488
1.21515e+06
1.17434e+06
1.14523e+06
1.09015e+06
1.05156e+06
989585
934588
867712
803454
732045
660994
585584
509542
431247
351937
271088
190005
110374
31758.3
903025
1.23877e+06
1.15288e+06
1.13703e+06
1.08195e+06
1.04632e+06
985039
930440
864282
800302
729355
658566
583476
507883
429781
350752
270303
189572
110249
31604.2
2.59153e+06
2.46282e+06
2.18843e+06
2.06432e+06
1.87566e+06
1.7451e+06
1.57652e+06
1.44962e+06
1.3015e+06
1.17698e+06
1.04531e+06
925797
805548
691336
577670
467482
357791
250300
145248
43439.7
2.64384e+06
2.41654e+06
2.16629e+06
2.0501e+06
1.86421e+06
1.73554e+06
1.56864e+06
1.44589e+06
1.2962e+06
1.17386e+06
1.04238e+06
923206
802762
688908
575696
465976
356616
249415
144950
44503.2
2.84256e+06
2.45542e+06
2.18377e+06
2.04875e+06
1.86733e+06
1.72569e+06
1.56043e+06
1.4361e+06
1.28489e+06
1.16347e+06
1.03258e+06
915734
796563
684143
571733
463010
354364
247826
144183
44905.6
2.57686e+06
2.49296e+06
2.13792e+06
2.02367e+06
1.82513e+06
1.69456e+06
1.53404e+06
1.41114e+06
1.26634e+06
1.14724e+06
1.01934e+06
904637
787657
676842
565963
458444
350940
245444
142874
44720
2.63384e+06
2.42467e+06
2.13975e+06
1.99422e+06
1.79339e+06
1.66544e+06
1.50386e+06
1.38425e+06
1.24196e+06
1.12639e+06
1.00199e+06
890058
775730
667149
558101
452305
346360
242324
141055
43931.5
2.47593e+06
2.31723e+06
2.05811e+06
1.90565e+06
1.72571e+06
1.60433e+06
1.45851e+06
1.34223e+06
1.21276e+06
1.09981e+06
981990
872410
761879
655182
548720
444810
340887
238542
138882
42939.9
2.384e+06
2.19836e+06
1.93837e+06
1.81292e+06
1.65399e+06
1.54212e+06
1.40611e+06
1.30093e+06
1.17826e+06
1.07123e+06
958053
852885
745365
641737
537735
436250
334568
234208
136279
41822.7
1.95402e+06
1.95602e+06
1.77137e+06
1.68831e+06
1.55523e+06
1.46654e+06
1.38792e+06
1.28736e+06
1.17799e+06
1.07124e+06
964282
859806
756064
653923
526203
426994
327828
229547
133581
40708.8
1.56173e+06
1.71168e+06
1.5961e+06
1.56413e+06
1.47342e+06
1.43516e+06
1.35735e+06
1.25743e+06
1.15558e+06
1.05418e+06
953027
852502
752485
652820
537647
417243
320659
224539
130691
39587.5
1.48074e+06
1.54644e+06
1.47523e+06
1.46251e+06
1.38691e+06
1.36541e+06
1.29938e+06
1.206e+06
1.11242e+06
1.01816e+06
923307
828171
732663
636450
526074
407115
313379
219517
127757
38500.4
1.37878e+06
1.36576e+06
1.36032e+06
1.37791e+06
1.31612e+06
1.29952e+06
1.24101e+06
1.15703e+06
1.07096e+06
982980
893745
803880
712731
620153
513337
397600
306268
214547
124832
37434.9
1.08047e+06
1.27172e+06
1.29303e+06
1.30656e+06
1.25229e+06
1.23936e+06
1.18763e+06
1.11189e+06
1.03278e+06
950776
866705
781152
693903
604820
501283
389266
299803
209915
122048
36415.9
982355
1.22372e+06
1.23486e+06
1.24948e+06
1.2022e+06
1.16635e+06
1.12343e+06
1.05839e+06
985606
909123
829480
747764
663991
578630
468393
381675
293635
205635
119480
35476.4
1.12462e+06
1.28913e+06
1.22109e+06
1.2203e+06
1.16705e+06
1.13081e+06
1.06552e+06
1.00672e+06
934913
863397
785765
707789
626184
543935
459396
374335
288053
201720
117124
34638.6
1.23953e+06
1.32173e+06
1.23367e+06
1.21092e+06
1.15093e+06
1.10823e+06
1.04588e+06
985150
915118
845518
770197
694108
614575
533865
451088
367742
282965
198141
115049
33859.7
1.47276e+06
1.35493e+06
1.23027e+06
1.20524e+06
1.13022e+06
1.0875e+06
1.02389e+06
966622
897719
830620
756429
682381
604129
525248
444010
362130
278643
195138
113228
33193.1
1.42526e+06
1.33941e+06
1.25114e+06
1.19852e+06
1.12716e+06
1.07767e+06
1.01153e+06
953629
884675
818684
745673
672932
595993
518332
438350
357552
275175
192660
111801
32595.4
1.22443e+06
1.25958e+06
1.18216e+06
1.15967e+06
1.09856e+06
1.05854e+06
996480
940850
874068
809263
737448
665741
589787
513129
434102
354268
272729
190962
110819
32131.4
921143
1.21045e+06
1.16721e+06
1.14181e+06
1.09013e+06
1.05165e+06
989660
934652
867796
803507
732090
661018
585620
509579
431250
351918
271046
189876
110282
31789.2
1.09619e+06
1.25015e+06
1.15363e+06
1.13615e+06
1.08183e+06
1.04629e+06
984987
930395
864285
800302
729341
658570
583532
507890
429802
350791
270276
189492
110174
31681.7
947182
989076
924112
1.01824e+06
947121
988976
924000
851829
901080
834451
923271
851838
900996
834505
916032
958658
894595
980951
915956
958564
894601
828904
872996
808022
893263
828880
873031
808163
1.2834e+06
1.31385e+06
1.243e+06
1.35554e+06
1.28381e+06
1.31415e+06
1.24283e+06
1.18269e+06
1.21932e+06
1.14772e+06
1.25655e+06
1.18295e+06
1.21915e+06
1.14763e+06
1.08138e+06
1.12371e+06
1.05162e+06
1.15516e+06
1.08137e+06
1.12362e+06
1.05156e+06
980235
1.02749e+06
955256
1.05381e+06
980215
1.02744e+06
955232
879442
931069
858658
952722
879523
931037
858608
779695
834457
762158
852353
779632
834417
762133
679580
737989
664975
752388
679608
737915
665039
579862
640737
567940
652618
579747
640756
567731
1.22978e+06
1.25478e+06
1.19044e+06
1.29818e+06
1.22964e+06
1.255e+06
1.1905e+06
1.13666e+06
1.16905e+06
1.10383e+06
1.2065e+06
1.13653e+06
1.1691e+06
1.1038e+06
1.04228e+06
1.08176e+06
1.01472e+06
1.11302e+06
1.04222e+06
1.08171e+06
1.01465e+06
947375
992189
923993
1.01856e+06
947357
992103
923954
852071
901091
832501
923524
851964
901030
832486
756670
809553
740468
828082
756649
809497
740530
660540
717471
647579
732763
660621
717464
647629
564174
624265
553876
636614
563962
624279
553729
1.17815e+06
1.19975e+06
1.14267e+06
1.23981e+06
1.1782e+06
1.19975e+06
1.14266e+06
1.09328e+06
1.12318e+06
1.06294e+06
1.1573e+06
1.09328e+06
1.12317e+06
1.06291e+06
1.0058e+06
1.04248e+06
980114
1.07161e+06
1.00571e+06
1.04244e+06
980041
916480
959015
894816
983487
916386
958919
894751
826220
873213
808007
893817
826193
873120
807937
735259
786166
720458
803521
735338
786105
720501
643403
698381
631254
712509
643423
698395
631249
550340
608658
540642
620294
550201
608640
540488
1.13137e+06
1.1498e+06
1.10057e+06
1.18674e+06
1.13139e+06
1.15e+06
1.10017e+06
1.05341e+06
1.08117e+06
1.02751e+06
1.11232e+06
1.05342e+06
1.08096e+06
1.02735e+06
972035
1.00662e+06
949728
1.03327e+06
971931
1.00651e+06
949717
888041
928269
869477
951119
887955
928300
869450
802252
847132
786913
866573
802216
847129
786943
715837
764360
703287
780629
715870
764387
703311
627414
680089
617290
693929
627408
680102
617279
537451
593624
529691
604963
537279
593580
529532
1.28388e+06
1.31419e+06
1.24275e+06
1.35598e+06
1.28415e+06
1.31463e+06
1.24257e+06
1.183e+06
1.21906e+06
1.14759e+06
1.25696e+06
1.18318e+06
1.2189e+06
1.14748e+06
1.08136e+06
1.12359e+06
1.05153e+06
1.15529e+06
1.08146e+06
1.12348e+06
1.05145e+06
980190
1.02742e+06
955206
1.05389e+06
980227
1.02737e+06
955112
879551
931008
858581
952715
879584
930906
858505
779606
834399
762117
852335
779493
834357
762022
679656
737862
665058
752342
679656
737778
665072
579797
640754
567699
652669
579658
640728
567524
1.22955e+06
1.255e+06
1.19051e+06
1.29858e+06
1.22932e+06
1.25543e+06
1.19053e+06
1.13646e+06
1.16909e+06
1.10376e+06
1.20619e+06
1.13628e+06
1.16904e+06
1.1036e+06
1.04219e+06
1.08167e+06
1.0146e+06
1.11278e+06
1.04206e+06
1.08149e+06
1.01432e+06
947329
991987
923937
1.01841e+06
947219
990942
924087
851929
901009
832509
923375
851842
901103
833172
756633
809497
740546
828036
756580
809594
740619
660642
717460
647647
732652
660655
717504
647678
563918
624278
553706
636570
563712
624263
553548
1.17821e+06
1.19977e+06
1.14264e+06
1.24028e+06
1.17823e+06
1.20026e+06
1.14263e+06
1.09326e+06
1.12315e+06
1.0629e+06
1.15724e+06
1.09312e+06
1.12307e+06
1.06283e+06
1.00565e+06
1.04242e+06
980007
1.07141e+06
1.0054e+06
1.04232e+06
979872
916337
958874
894715
982427
916066
958723
894620
826220
873081
807931
893427
827040
873005
807985
735358
786111
720511
803689
735425
786213
720534
643429
698391
631240
712556
643444
698374
631207
550173
608629
540458
620264
550000
608591
540271
1.13143e+06
1.14992e+06
1.10014e+06
1.18729e+06
1.1314e+06
1.15029e+06
1.0999e+06
1.05341e+06
1.08098e+06
1.02734e+06
1.11225e+06
1.05331e+06
1.08094e+06
1.02717e+06
971899
1.0065e+06
949741
1.03314e+06
971780
1.00632e+06
949714
887919
928326
869465
950953
887845
928270
869450
802221
847144
786985
866500
802311
847149
787108
715875
764416
703303
780764
715870
764520
703228
627400
680088
617265
693881
627361
680010
617197
537232
593561
529500
604914
536996
593495
529258
1.28415e+06
1.31466e+06
1.24253e+06
1.35687e+06
1.28422e+06
1.31529e+06
1.24246e+06
1.18321e+06
1.21886e+06
1.14744e+06
1.25718e+06
1.18337e+06
1.2188e+06
1.14734e+06
1.08146e+06
1.12344e+06
1.05142e+06
1.15542e+06
1.08149e+06
1.12334e+06
1.05135e+06
980246
1.02733e+06
955082
1.05399e+06
980298
1.02728e+06
955037
879587
930876
858491
952805
879537
930832
858481
779496
834352
762013
852335
779434
834348
761998
679676
737780
665065
752356
679655
737768
665034
579723
640715
567546
652725
579645
640676
567488
1.22928e+06
1.25546e+06
1.19053e+06
1.29913e+06
1.22922e+06
1.25591e+06
1.19051e+06
1.13622e+06
1.16903e+06
1.10354e+06
1.20608e+06
1.13608e+06
1.16901e+06
1.10334e+06
1.042e+06
1.08141e+06
1.0142e+06
1.11259e+06
1.04188e+06
1.08122e+06
1.01396e+06
986085
994704
1.00932e+06
1.01827e+06
986132
994654
1.00918e+06
892298
899495
915827
923307
892308
899469
915799
756581
809584
740647
828063
756582
809700
740737
660644
717536
647679
732655
660597
717598
647641
563721
624250
553561
636492
563637
624191
553421
1.17823e+06
1.20032e+06
1.14261e+06
1.24072e+06
1.17819e+06
1.20079e+06
1.14251e+06
1.09305e+06
1.12304e+06
1.06279e+06
1.15718e+06
1.09286e+06
1.12293e+06
1.06264e+06
1.00531e+06
1.04227e+06
979812
1.07114e+06
1.00508e+06
1.04213e+06
979692
952090
960654
974288
980411
952512
958672
973993
863933
870454
886199
891975
863966
869083
886116
735464
786261
720544
803843
735580
786406
720592
643447
698371
631197
712682
643425
698385
631176
550012
608579
540281
620210
549855
608552
540136
1.13136e+06
1.15012e+06
1.09985e+06
1.18764e+06
1.13122e+06
1.15023e+06
1.09966e+06
1.05326e+06
1.08092e+06
1.02715e+06
1.11208e+06
1.05311e+06
1.08075e+06
1.02701e+06
971735
1.00628e+06
949718
1.03295e+06
971629
1.00614e+06
949681
887831
928284
869473
950824
887854
928277
869515
802360
847170
787148
866552
802504
847227
787232
715864
764549
703202
780946
715866
764595
703147
627349
679988
617179
693843
627323
679941
617140
537000
593483
529267
604874
536814
593462
529072
1.28415e+06
1.31536e+06
1.24245e+06
1.35736e+06
1.28406e+06
1.31594e+06
1.24242e+06
1.1834e+06
1.21879e+06
1.14731e+06
1.25738e+06
1.18347e+06
1.21875e+06
1.14723e+06
1.08146e+06
1.1233e+06
1.05134e+06
1.15555e+06
1.08139e+06
1.12321e+06
1.05129e+06
980330
1.02728e+06
955039
1.0541e+06
980378
1.02724e+06
955062
879542
930835
858488
952929
879516
930874
858540
779476
834353
761997
852406
779477
834397
762016
679662
737764
665025
752441
679644
737772
665011
579763
640667
567558
652796
579653
640652
567440
1.22921e+06
1.2559e+06
1.19051e+06
1.29948e+06
1.22918e+06
1.25625e+06
1.19051e+06
1.13605e+06
1.16899e+06
1.10329e+06
1.20602e+06
1.13593e+06
1.16892e+06
1.10318e+06
1.04187e+06
1.08117e+06
1.01401e+06
1.11245e+06
1.04181e+06
1.08107e+06
1.01404e+06
947114
990823
924005
1.01818e+06
947105
991490
923759
851856
901036
833252
923293
851936
900924
832700
756580
809714
740738
828139
756603
809790
740776
660583
717584
647626
732655
660562
717606
647598
563704
624170
553483
636453
563551
624129
553279
1.17818e+06
1.2008e+06
1.14247e+06
1.24106e+06
1.17814e+06
1.20117e+06
1.14238e+06
1.0928e+06
1.12289e+06
1.0626e+06
1.15705e+06
1.09268e+06
1.12277e+06
1.06248e+06
1.00511e+06
1.04209e+06
979677
1.07099e+06
1.00514e+06
1.04198e+06
979613
916030
958566
894627
982936
916198
958534
894700
827140
873060
808213
893693
826491
873162
808362
735600
786450
720616
803904
735635
786587
720686
643415
698398
631174
712709
643398
698442
631174
549920
608546
540199
620162
549681
608525
539997
1.13117e+06
1.15007e+06
1.09959e+06
1.18775e+06
1.13105e+06
1.1503e+06
1.09935e+06
1.05307e+06
1.08071e+06
1.02699e+06
1.11191e+06
1.05296e+06
1.08059e+06
1.0269e+06
971608
1.00611e+06
949669
1.0328e+06
971544
1.00605e+06
949589
887876
928290
869542
950788
887946
928301
869614
802546
847255
787249
866674
802676
847379
787305
715879
764615
703139
781106
715934
764699
703135
627318
679943
617137
693885
627304
679963
617116
536867
593467
529132
604835
536656
593445
528987
1.28404e+06
1.31591e+06
1.24241e+06
1.3578e+06
1.28381e+06
1.31627e+06
1.24236e+06
1.18347e+06
1.21875e+06
1.14722e+06
1.25741e+06
1.18324e+06
1.21874e+06
1.14721e+06
1.08138e+06
1.1232e+06
1.05127e+06
1.15554e+06
1.08118e+06
1.12318e+06
1.05124e+06
980425
1.02723e+06
955074
1.0542e+06
980421
1.02722e+06
955097
879537
930893
858564
953130
879481
930928
858611
779518
834421
762029
852603
779531
834463
762047
679644
737778
665008
752533
679535
737786
664997
579756
640651
567535
652804
579489
640643
567182
1.22917e+06
1.2562e+06
1.19051e+06
1.29972e+06
1.22914e+06
1.25668e+06
1.19056e+06
1.13591e+06
1.16892e+06
1.10315e+06
1.206e+06
1.1359e+06
1.16895e+06
1.10311e+06
1.04178e+06
1.08104e+06
1.01404e+06
1.11238e+06
1.04174e+06
1.08098e+06
1.01402e+06
947107
991530
923748
1.01813e+06
947121
991542
923738
851970
900941
832652
923337
852040
900978
832691
756619
809804
740804
828237
756649
809850
740872
660560
717623
647593
732676
660551
717664
647580
563641
624120
553366
636447
563248
624107
553027
1.17814e+06
1.20112e+06
1.14236e+06
1.24137e+06
1.17819e+06
1.20162e+06
1.14236e+06
1.09266e+06
1.12275e+06
1.06246e+06
1.15707e+06
1.09261e+06
1.12274e+06
1.06241e+06
1.00514e+06
1.04195e+06
979591
1.07089e+06
1.00511e+06
1.04188e+06
979524
916219
958519
894714
982996
916254
958463
894756
826411
873196
808412
893826
826429
873262
808513
735668
786635
720715
803882
735716
786708
720732
643395
698466
631173
712785
643388
698489
631172
549765
608517
540095
620144
549401
608501
539822
1.13103e+06
1.1501e+06
1.09926e+06
1.1879e+06
1.13104e+06
1.15049e+06
1.09904e+06
1.05294e+06
1.08056e+06
1.02686e+06
1.11187e+06
1.05291e+06
1.08067e+06
1.02682e+06
971522
1.00604e+06
949539
1.0327e+06
971444
1.00609e+06
949300
887968
928293
869637
950725
888028
928410
869616
802723
847418
787320
866778
802832
847567
787220
715955
764723
703137
781236
715970
764832
703013
627298
679967
617094
693898
627289
679982
616900
536747
593436
529098
604793
536462
593443
528883
962676
970948
939335
947164
962730
970909
939297
977608
1.00021e+06
969286
988672
977754
999809
970046
954882
931891
946771
925430
954845
931991
947762
986058
1.01824e+06
994626
1.00918e+06
994630
1.00913e+06
986067
962658
947137
970883
939265
970895
939278
962668
977660
988453
1.00003e+06
969287
999703
970205
977725
954888
925445
931797
946713
931953
947869
954811
868698
875619
845326
851827
868728
875595
845337
885615
908718
878125
902320
885455
908831
879432
862214
839192
855298
834068
862129
839245
856371
892282
923284
899446
915759
899452
915778
892266
868678
851830
875592
845361
875584
845352
868709
885601
902368
908637
878059
908801
879421
885425
862150
834159
839245
855264
839287
856086
862139
930350
938563
908453
914648
930532
937197
908332
944863
966541
937434
958596
944980
966434
937378
923206
901520
916046
894582
923285