/*--------------------------------*- C++ -*----------------------------------*\
  =========                 |
  \\      /  F ield         | OpenFOAM: The Open Source CFD Toolbox
   \\    /   O peration     | Website:  https://openfoam.org
    \\  /    A nd           | Version:  10
     \\/     M anipulation  |
\*---------------------------------------------------------------------------*/
FoamFile
{
    format      ascii;
    class       surfaceScalarField;
    location    "5.7";
    object      phi;
}
// * * * * * * * * * * * * * * * * * * * * * * * * * * * * * * * * * * * * * //

dimensions      [0 3 -1 0 0 0 0];

internalField   nonuniform List<scalar> 
38556
(
845.52
-328.536
-371.352
862.632
-171.91
154.797
956.362
65.1361
-158.866
964.328
73.5536
-81.5201
1050.53
190.307
-276.507
1135.54
109.468
-194.477
1127.31
165.318
-157.087
1153.51
89.2143
-115.415
1116.05
85.7705
-48.3091
1109.42
31.3722
-24.7457
1085.83
15.5867
8.00404
1085.92
-17.8884
17.7963
1092.52
-24.2767
17.6736
1117.04
-38.5316
14.0135
1147.96
-40.6884
9.77228
1200.72
-46.3896
-6.37416
1264.45
-43.9641
-19.7659
1306.94
-26.4371
-16.0501
1286.75
14.4192
5.77384
27.0632
0.434423
661.904
-871.42
3367.2
573.418
-321.61
238.187
612.453
60.9719
-34.8713
540.229
116.977
28.7997
651.084
104.987
-25.5346
688.072
88.7506
-16.2711
738.115
59.8904
55.3835
754.795
28.5975
43.9366
749.974
-1.87954
92.4713
747.209
-22.7668
56.9042
749.522
-26.7295
40.0027
759.895
-27.9755
-0.285826
777.007
-23.5412
-17.848
796.603
-18.9047
-39.2229
816.875
-16.4234
-44.5361
837.404
-10.428
-56.4914
864.731
-5.47901
-65.8117
904.16
7.90023
-73.7661
938.723
26.4754
-46.6189
20.1912
-10.4403
1280.53
-31.3804
342.517
1031.72
-37.387
-35.4063
907.809
131.299
53.5805
805.91
129.347
89.5297
738.829
82.6744
89.3942
729.202
99.748
-1.3707
741.001
4.66442
43.4265
749.033
20.9346
-0.368707
728.671
-16.8669
35.3492
708.068
-6.39627
4.23234
691.913
-20.4416
9.86696
690.333
-17.2098
-9.18561
700.98
-24.0988
-10.0892
717.292
-21.6447
-13.5722
736.935
-24.6159
-11.4503
756.048
-20.3829
-9.15817
774.958
-20.1109
-4.27813
792.793
-10.0688
0.133606
808.436
-1.22873
12.0613
-4.71123
13.1634
-451.519
-503.024
3664.62
244.971
-418.103
-315.775
623.207
-206.162
-40.7733
754.053
82.9208
-84.4194
801.452
69.968
-34.6928
829.358
130.233
-58.3914
780.618
42.4395
10.965
750.673
79.8506
-28.9711
695.173
8.64042
29.9927
658.422
25.9367
4.41805
642.622
-18.9475
14.3061
640.3
-16.8003
1.91229
654.069
-42.1273
4.25969
668.098
-38.642
2.96851
685.711
-46.8767
4.64747
700.475
-39.5037
4.35701
714.849
-39.1022
4.61694
727.938
-26.0677
2.91031
744.8
-21.4632
3.37156
-23.6173
2.43339
-1029.7
-328.711
-1446.44
165.842
-1094.27
-519.377
716.742
-534.708
-222.354
745.264
-92.1306
146.529
779.07
-59.0444
95.2064
772.558
132.869
3.87687
739.471
12.0575
63.4694
722.43
99.1445
-2.25282
701.945
3.02027
26.1044
695.279
34.0063
-1.40316
700.194
-28.8966
5.03401
712.267
-28.4302
-0.443619
729.803
-66.3859
6.72334
744.195
-59.6715
6.63706
756.962
-69.6375
9.99413
767.134
-58.3289
8.65268
775.458
-54.6892
7.2636
781.489
-35.9133
3.81424
787.536
-31.234
3.72391
-32.0534
-0.24051
807.554
627.794
2449.03
681.273
-648.299
-319.687
748.911
-287.803
-314.543
662.464
-68.9051
63.2211
635.28
-41.5756
9.71441
598.094
148.813
21.2418
685.28
-94.4053
19.2773
668.837
107.076
8.51114
698.58
-29.7771
3.05464
712.576
29.6218
-9.61162
743.535
-49.4374
-10.418
773.226
-44.9116
-13.2104
802.103
-95.7183
0.455407
819.298
-84.2668
7.40005
827.114
-92.8227
15.3699
825.554
-78.3206
21.5513
816.556
-65.3824
19.691
807.281
-35.7149
9.07741
802.257
-33.564
7.35292
-39.1793
3.21245
3210.64
-241.505
-1607.36
2360.14
199.202
2.99882
1441.56
344.708
286.074
1071.34
184.933
116.379
886.721
142.962
0.0823372
788.676
277.09
-30.231
782.863
-1.80513
-5.87034
-35.0646
-7.02271
-38.8298
789.449
8.3609
-14.9662
50.8986
7.38571
48.811
822.251
-1.94167
-23.6578
-11.7476
-7.33851
-17.8933
866.656
-5.8364
-31.0211
22.5175
-11.7629
11.3196
924.686
-15.5449
-27.155
-15.132
-24.9032
-24.7327
997.93
-30.7408
-13.8847
-15.8863
-37.6855
-19.9583
1045.86
-43.2688
4.39691
-30.3423
-44.8269
-29.6029
1052.22
-39.2599
17.2955
-17.8923
-36.433
-14.3455
1017.46
-86.8915
28.8304
959.931
-50.7413
29.952
902.429
-36.0983
28.2181
864.464
-15.0647
17.3147
845.022
-25.5683
11.4462
-45.4847
6.13017
1951.82
81.907
-7191.86
897.643
693.82
559.558
790.996
384.858
66.4971
742.294
91.2029
142.433
844.591
-18.887
59.5521
209.684
36.3282
21.6786
211.075
203.173
205.173
101.323
36.6927
96.5528
188.987
18.3285
0.562995
-166.629
175.753
6.6921
-7.45592
-205.021
199.252
11.1157
-7.28877
-202.961
211.357
-5.60216
-8.63022
-236.641
239.968
-13.5813
-5.29016
-254.125
259.506
-39.7681
3.64622
-277.741
278.548
-50.763
6.68698
-290.071
289.777
-44.2963
5.33042
1022.76
-21.3984
6.58444
-287.714
-267.481
-268.997
-251.024
-1.56215
-17.5627
-0.4999
924.239
6.14387
41.6396
849.467
13.3151
25.358
822.727
6.4877
5.18801
827.406
-28.9229
-1.3247
-61.7606
-0.0736355
383.634
966.32
-3007.04
224.407
441.214
411.833
673.26
213.659
-277.655
622.723
4.93161
136.808
172.938
-63.9829
-3.35281
162.143
171.285
164.807
200.254
8.89194
0.12055
-8.9529
-60.9219
57.0562
12.4938
0.324834
-52.8819
-0.983727
50.2971
3.85168
-0.283194
-53.088
-0.351467
52.6485
1.68526
-0.894348
-57.6891
3.26203
57.898
-1.80625
-1.66463
-65.9102
8.573
65.4369
-8.73505
0.635293
-61.3756
13.2705
55.4283
-10.142
2.81869
-53.5568
17.7362
52.1478
-16.5348
0.207688
-55.8078
14.5533
54.9979
-12.7465
-0.996837
-58.9584
227.871
-11.5809
-3.62919
-58.9415
-58.9267
-57.2332
837.963
36.4636
-1.03562
-225.226
-218.08
-215.757
-208.185
822.754
31.7425
-3.21914
830.446
8.51197
-9.7161
851.826
-43.6619
-6.64049
-71.7658
-6.5272
846.863
2244.34
-3178.48
719.26
750.439
-181.623
911.895
60.1859
-39.1618
910.766
-79.3797
85.4407
225.41
-145.379
71.1543
233.994
227.293
234.31
-4.1853
240.149
-1.02262
-9.53125
-3.13106
-60.2436
61.942
2.10134
-0.668714
-5.19129
-66.5187
68.0104
3.91586
-0.216317
-2.56633
-70.7417
71.2508
1.50937
0.54787
1.41117
-71.6031
70.126
-1.76282
1.82867
5.26726
-60.3351
58.4656
-4.37215
0.974396
6.12154
-57.1645
57.4549
-4.77612
-1.6359
14.3864
-58.073
58.0473
-13.6022
-0.758518
10.0679
-57.0693
56.5003
-9.07662
-0.422297
-55.6014
5.25279
218.286
-0.111736
-3.44424
-55.5708
-54.3333
-54.4772
844.45
45.5303
-6.78184
-214.307
-216.445
-205.907
-210.076
853.383
34.0441
-11.2341
869.81
2.9416
-10.857
872.642
-42.2224
-4.2713
-66.3741
-5.19631
2279.52
939.619
-1821.44
1156.25
491.685
1382.02
1111.92
-169.147
273.664
1077.14
-156.366
111.766
217.55
-191.88
184.387
236.664
236.801
248.238
10.4508
227.109
-29.7209
9.7106
-3.04001
-60.1176
60.8431
1.92991
0.384605
-1.95725
-61.4135
61.4881
2.44238
-0.559741
0.819451
-61.2565
61.3665
-0.396884
-0.532607
3.01882
-62.9431
63.5545
-3.01279
-0.61751
3.5047
-65.2187
65.4638
-2.99868
-0.751133
2.75857
-67.1158
67.7324
-2.52735
-0.847866
12.1873
-66.3922
64.669
-11.9384
1.47435
5.67498
-58.7342
57.51
-4.89074
0.439956
-55.9636
-3.4997
222.472
5.90988
-2.19068
-55.9282
-55.4013
-55.3989
880.808
45.7345
-7.74122
-221.441
-221.57
-215.205
-215.056
886.156
31.1289
-2.43208
883.965
5.1046
0.0272153
869.792
-28.1895
0.140078
-55.6021
-4.44623
1568.42
-1365.27
4346.46
1579.44
-157.375
638.039
1685.89
-333.253
57.6598
1794.83
-224.4
-40.9043
328.978
-75.8496
210.547
339.953
397.858
401.458
33.2565
291.428
-20.275
24.5681
3.12974
-69.6697
68.5872
-1.72063
-0.326637
-3.26364
-65.6754
65.6436
4.50352
-1.20815
-1.02415
-67.7642
68.6186
1.40653
-1.23686
1.13035
-70.2444
70.2492
-0.475275
-0.659882
0.742042
-70.8966
70.9876
-0.313111
-0.519885
1.69789
-70.9884
70.2829
-1.81964
0.827272
9.12321
-61.0703
57.4027
-7.43096
1.97537
3.25949
-53.2906
53.1506
-2.73106
-0.388434
-53.6238
-5.87778
211.756
6.80617
-1.34847
-52.8594
-52.9244
-51.928
850.218
21.0062
4.42054
-212.39
-208.406
-206.067
-203.048
864.277
4.42212
12.6484
869.874
-8.47125
7.97826
869.206
-30.4483
2.92663
-52.5315
-4.90516
731.93
-449.55
984.617
960.813
-147.949
-238.309
1199.19
-414.752
-156.88
1271.96
-259.767
-37.4066
1161.36
-57.8688
92.6203
274.23
-50.6754
32.5318
11.759
41.9626
12.8203
34.4462
270.43
269.317
264.541
-3.23259
269.633
13.7989
4.9171
-6.70436
0.553813
-4.73593
-9.29867
-263.006
262.767
25.7625
0.800863
-5.05546
-8.13744
-3.83276
-3.45007
-277.108
283.702
0.274291
-0.499788
-0.74353
-2.28151
0.106938
-2.82824
-280.757
279.957
2.52756
1.60717
0.344419
-1.93734
1.08611
-1.10335
-281.869
275.723
-3.35589
6.32372
1.84906
-0.217766
2.65021
0.993522
-256.638
228.442
-1.13458
17.3986
4.4689
1.52151
4.94786
0.903773
-209.804
197.98
-4.22838
6.15885
4.13543
0.913649
3.94061
-0.433596
-192.058
190.297
-2.77386
0.230914
2.75528
-0.602981
2.58561
785.913
-17.414
6.31888
-9.44068
1.18747
-8.99942
4.38192
-192.365
-191.203
-188.154
-190.227
815.114
-18.6876
10.4935
837.312
-30.2642
12.4882
855.928
-36.1423
9.05452
870.186
-47.4108
2.7051
-58.6428
-4.92036
943.827
1144.29
-434.963
994.164
444.305
-642.591
981.852
-178.741
-223.698
1039.99
-120.68
-197.227
1066.87
-38.0438
-46.6989
1050.83
-25.3848
-9.2529
1037.95
156.642
17.0812
-33.2166
-48.7603
-32.2202
-46.6485
1009.95
-8.37672
22.0559
-21.5521
21.846
-13.5671
27.591
964.401
55.5294
8.8299
-5.28395
-6.28253
-1.9075
-5.3333
913.019
-16.0599
29.0418
-2.10026
18.8171
0.0783704
21.6051
866.287
18.9344
29.556
-4.16047
2.01143
-2.05564
2.44586
842.53
-17.3418
27.8887
-8.0671
13.2949
-5.74895
13.7317
836.161
-16.6308
13.7705
-3.35971
7.98055
-3.34178
7.95048
839.12
-46.8312
12.4209
0.0598904
15.842
0.20124
15.3479
852.453
-50.4032
19.6566
873.116
-58.3533
19.0022
895.178
-68.0601
15.7336
912.721
-65.6866
12.0019
928.747
-68.6627
5.22616
-67.4485
-1.12131
1734.16
1045.11
-407.997
1664.5
612.748
-98.7886
1270.31
182.851
32.6008
1072.2
37.1276
40.303
857.051
85.7014
91.4
791.324
10.8658
29.4775
849.342
94.8597
3.76419
819.056
-1.9315
23.8408
839.731
19.3383
15.5155
831.023
-23.3337
15.9818
851.886
-11.9652
10.037
866.984
-34.5554
2.11603
889.241
-34.7391
-4.14886
909.491
-56.5498
-10.5315
934.076
-63.1399
-11.8479
960.736
-80.0528
-4.96091
985.122
-95.3214
2.87555
1003.2
-93.766
10.0003
1014.43
-88.3652
8.47532
-74.866
2.6981
2083.61
305.877
2170.43
2087.01
228.802
380.539
1530.06
255.858
483.944
1247.56
162.178
157.453
990.081
133.548
209.633
904.124
60.0144
36.8089
911.821
49.9074
37.2553
909.961
-10.2065
10.1345
921.639
-3.52878
11.1893
923.824
-23.2013
-2.31756
937.46
-18.6854
-6.91495
952.439
-31.5475
-17.9873
969.986
-31.6477
-20.6381
987.352
-47.3161
-26.6003
1011.09
-57.8226
-29.0592
1044.32
-88.3132
-24.9693
1073.32
-110.956
-13.3636
1089.81
-113.905
3.65075
1099.5
-107.765
9.70639
-86.9834
7.9325
1141.19
980.715
-2379.93
1326.44
679.365
-635.807
1224.05
596.641
-238.392
1033.64
401.259
-48.6743
915.475
247.572
4.14395
866.567
116.643
-7.72034
924.347
-0.0944158
-7.77785
939.884
-34.7609
9.0176
987.074
-73.2224
22.5036
1006.48
-68.1544
25.5459
1029.6
-59.2463
17.4462
1041.78
-42.7251
-1.00457
1054.88
-30.7554
-13.9909
1071.68
-31.1703
-32.9452
1102.86
-43.429
-45.5778
1138.48
-80.5362
-43.3971
1162.13
-113.079
-21.5235
1170.35
-122.004
-0.128014
1166.63
-116.557
12.514
-91.608
9.57405
1781.92
1000.92
1410.09
1962.85
690.909
-192.481
1898.87
611.448
49.1767
1836.11
412.388
51.6306
1822.43
223.136
38.1111
1862.66
89.9048
-13.4866
1831.09
-8.09228
39.5642
1790.2
-29.517
35.6525
1712.51
-44.2452
48.7048
1654.48
-29.9445
19.8234
1572.03
-7.73151
30.9332
1494.8
16.1969
18.3106
1418.2
30.9352
14.9066
1352.73
38.1981
-3.89298
1308.36
18.0249
-17.0897
1278.99
-35.6643
-15.5001
1262.65
-88.5389
-8.19566
1248.87
-105.656
-2.57223
1227.3
-101.664
6.67358
-78.2369
3.66981
1456.21
1288.45
996.949
1531.99
601.632
13.5017
1615.15
429.817
98.4713
1655.76
213.149
158.626
1608.52
62.9275
207.455
1584.11
-22.9361
137.245
1519.55
-79.4305
135.905
1481.21
-76.4925
85.3138
1434.46
-66.8403
69.3455
1409.44
-38.6252
33.6989
1389.15
-6.3023
18.8572
1374.76
38.7561
-8.1697
1348.88
74.3376
-17.5224
1319.77
86.385
-19.0784
1281.89
73.6412
-17.7359
1259.31
35.5002
-48.5811
1259.75
-26.1511
-62.8304
1263.14
-72.2761
-36.7666
1255.44
-83.6949
-10.2727
-68.8583
1.53391
-227.477
781.395
486.33
-112.176
1326.74
-410.59
1580.97
-41.0857
1648.3
-4.39608
1687.46
-62.0989
1667.73
-59.7024
1661.23
-69.9934
1624.93
-30.5434
1605.9
-19.592
1572.82
26.7741
1553.01
58.5653
1546.15
81.2011
1543.48
89.0615
1544.41
72.7026
1543.23
36.6887
1515.18
1.89628
1469.22
-26.3209
1422.24
-36.7144
-38.1925
499.109
-717.546
-1784.23
847.903
-99.4632
-94.5334
1241.66
-49.2457
-503.38
1348.44
-48.2115
-140.088
1305.01
102.16
-335.234
1310.22
46.4525
-246.137
1181.56
113.483
-141.912
1147.52
29.4891
-110.866
1086.77
31.676
-19.235
1078.86
-7.4156
-9.41558
1065.73
-5.03286
26.1603
1076.86
-16.8971
23.5663
1088.08
-14.0914
20.5423
1111.48
-18.434
9.05674
1135.63
-16.438
2.05154
1165.85
-16.4821
-20.1049
1181.78
-7.45728
-28.2445
1170.95
12.1803
-17.3951
1120.59
35.489
20.6419
22.613
11.1962
-181.915
504.179
4402.36
171.854
99.6509
-314.696
467.621
-7.68156
-372.202
461.522
29.5319
-42.8451
600.867
58.7659
-121.486
610.136
52.9185
-32.0051
663.075
34.4346
81.4918
677.468
4.90482
54.1283
693.433
-7.18883
115.372
704.596
-17.1407
55.4655
717.193
-16.2348
38.6074
729.037
-17.3437
-11.6834
742.384
-14.8076
-30.4786
755.471
-14.9958
-55.7483
768.983
-12.7062
-61.7798
781.62
-12.0037
-73.6072
794.479
-9.86435
-76.2627
807.09
-0.0482977
-74.1485
818.063
11.4583
-33.5618
3.71446
-0.0039683
861.338
252.976
-1176.88
593.605
215.496
116.481
656.422
89.222
-106.14
575.625
82.4329
117.426
631.007
31.7374
61.0407
593.263
81.3444
7.94761
616.522
-12.537
67.1396
610.152
15.6531
-4.74774
610.026
-19.9087
48.1952
602.744
-5.05829
-0.567903
607.025
-20.6554
10.006
613.556
-17.4525
-15.6073
628.292
-25.9741
-13.6596
643.135
-24.2699
-19.1416
660.249
-27.2863
-13.9838
674.587
-23.672
-11.8281
689.078
-23.1792
-5.45452
703.577
-14.2977
-0.115832
719.853
-6.62153
13.8657
-8.28741
13.2408
295.572
-1366.3
5196.71
160.721
-218.312
252.883
566.791
-243.426
-114.196
594.325
46.4195
-75.9393
627.061
15.4084
-51.1005
623.304
88.2821
-61.5719
595.963
-13.1498
38.9185
573.803
46.477
-37.6351
566.363
-22.452
39.976
557.717
6.70991
1.29516
568.607
-32.9627
15.7243
575.897
-22.548
-0.282879
593.608
-44.361
4.9355
607.352
-36.4032
1.35775
623.704
-43.3112
4.32092
636.363
-35.3319
3.35797
649.054
-35.4776
4.2234
660.01
-24.607
2.26388
674.309
-21.9728
4.42325
-21.7566
2.87689
236.09
341.737
290.462
279.9
-305.781
-475.717
480.795
-426.329
-240.347
527.409
-61.4775
207.812
609.751
-66.6127
94.8854
586.234
102.391
13.2838
589.597
-37.3562
84.3134
577.002
68.2441
-11.4254
581.557
-32.994
32.091
581.984
11.4266
-6.54601
596.949
-49.9261
7.03203
610.628
-35.62
-1.05033
630.026
-65.9077
8.87214
643.928
-51.0909
7.42302
657.618
-58.6657
11.6582
667.388
-45.6677
9.21854
676.467
-45.4493
8.15656
683.801
-32.7929
4.66605
692.799
-32.0985
4.85151
-31.1448
-0.140438
1519.87
1680.85
-1058.1
963.613
398.942
-468.154
587.328
-70.5336
-294.054
537.649
-43.9356
95.3585
513.483
-55.108
22.3751
483.219
126.206
27.6922
587.191
-146.028
23.9762
564.653
92.9643
6.32974
597.089
-66.7397
4.36361
604.801
5.4845
-11.3814
632.751
-80.3836
-7.91027
653.92
-62.3237
-7.67582
676.256
-94.1987
6.41016
690.06
-69.3357
11.841
699.264
-72.9046
20.405
704.504
-53.3163
23.96
705.501
-48.0211
21.2653
704.707
-33.2857
10.3645
707.808
-35.9405
8.09391
-38.2471
3.46758
1286.19
808.359
-2591.01
1199.81
494.532
-6.20851
1008.82
270.232
136.295
868.796
77.0501
135.421
711.956
67.018
34.7961
607.148
220.393
-19.6104
610.576
-23.1576
-1.00318
-49.1238
-29.8508
-52.1907
610.11
5.27565
-20.3105
45.908
4.73726
42.8535
647.67
-17.5045
-29.4398
-27.1964
-22.573
-31.2443
691.426
-18.639
-31.7003
2.65258
-21.3615
-0.244264
743.739
-34.3107
-22.576
-32.4903
-37.1206
-33.354
791.811
-40.9892
-3.78715
-21.6067
-39.2674
-18.6305
819.906
-42.5474
13.8514
-27.0101
-38.7771
-23.4127
818.572
-31.3191
25.4496
-10.8058
-27.3086
-6.72208
796.884
-56.0438
33.6569
773.777
-30.7816
30.524
753.7
-30.0733
30.3471
742.398
-22.464
17.7954
742.13
-36.0249
11.7988
-45.2434
7.07389
-242.549
-585.915
-5275.85
118.653
306.548
386.341
467.262
147.805
-159.685
561.247
-2.73195
128.23
701.05
-56.962
43.7293
172.988
32.8722
32.7387
175.965
162.835
166.295
85.1548
32.9816
81.2904
-6.09705
155.363
-1.64183
2.20701
10.1221
-135.787
144.737
-2.19392
-11.6022
8.59063
-172.649
166.455
-8.12778
-11.7735
11.0234
-170.4
178.679
-25.2281
-12.7133
4.69991
-201.552
202.568
-34.8056
-5.22077
-6.77169
-214.529
219.043
-45.4584
6.72628
-9.67439
-235.569
233.525
-40.9831
10.1535
-5.82982
-239.976
235.613
-26.2537
5.12785
803.542
-11.3905
20.0804
-230.675
-218.287
-209.155
-203.437
5.0628
-10.399
5.19922
768.426
4.29224
41.6813
744.923
-5.15737
23.9453
740.718
-18.0148
4.94344
749.68
-47.4332
1.12209
-58.2541
0.584136
933.406
109.596
-3170.77
715.891
396.216
539.68
614.074
241.773
-269.805
568.394
-5.25458
185.011
151.549
-63.2033
-14.2205
148.011
144.077
141.865
-3.40124
174.624
10.5765
2.62231
-2.23568
-4.01735
-52.9928
49.5312
8.14138
1.57332
0.295937
-46.7774
2.34811
45.1007
-0.405541
-0.561812
1.96565
-49.2909
4.85271
48.8722
-3.95384
-2.44588
2.57735
-52.2876
9.34574
51.709
-8.64143
-2.70304
-2.45823
-55.8306
12.2484
54.558
-10.988
2.47046
-4.44479
-54.2498
13.1991
52.1019
-10.9242
4.31779
-0.147611
-52.9232
12.5214
51.6284
-11.2816
0.202617
3.22614
-53.637
8.36198
52.254
-7.0463
-3.15886
-53.1769
6.55894
197.173
-3.42839
-5.16869
-51.3858
-51.781
-50.1818
744.09
17.5719
0.579947
-196.331
-192.325
-186.1
-184.23
747.324
-4.9673
-6.6436
758.044
-28.4991
-9.9513
769.216
-61.1334
-4.11219
-65.7424
-6.33407
563.894
1717.64
-3166.82
380.387
508.94
-110.841
740.427
57.7705
-215.2
717.98
-52.1978
154.831
197.183
-129.82
71.4796
205.674
186.236
195.177
12.2973
-2.04077
211.145
-8.33553
-15.8826
0.894328
-1.04679
-54.1226
55.937
-0.499998
-1.1619
-0.116525
0.522142
-57.2711
57.7456
-1.09984
0.219773
-1.50745
4.70027
-58.8597
58.8266
-4.76856
1.6088
-3.24745
7.97626
-57.422
56.5656
-6.93028
3.0578
-1.26418
7.51814
-53.8537
53.1505
-6.55109
1.00033
2.95498
8.77428
-51.9602
51.686
-8.54216
-2.9129
1.39057
11.3007
-51.405
51.3989
-11.363
-1.32214
1.3642
5.94038
-51.019
50.7238
-5.45887
-1.55048
-49.7199
4.22679
1.32313
195.351
0.433441
-3.86891
-49.9748
-48.7519
-49.0192
771.197
15.0053
-6.89798
-193.267
-198.125
-186.226
-190.896
779.426
-13.5651
-10.8655
784.023
-35.5288
-8.42422
779.51
-59.5456
-1.34673
-63.5084
-4.81715
-463.686
871.738
-2191.74
243.994
141.894
1041.39
788.044
-293.819
81.2027
769.147
-136.896
215.361
195.822
-163.463
215.219
203.405
182.472
190.26
-23.0619
20.0834
210.695
-33.5517
21.6569
-3.68653
1.88925
-56.9381
58.8657
-4.02914
3.89887
-0.659519
1.86115
-59.0221
58.6599
-1.83636
0.996913
0.781609
4.03698
-57.6394
57.4438
-3.81105
-0.81192
1.28701
5.60351
-57.089
56.8231
-5.47278
-1.15178
2.86182
6.18297
-57.0462
57.3425
-5.83401
-3.50704
2.30337
8.0815
-58.1436
58.0886
-7.93467
-2.39517
-3.52
11.1716
-56.7157
56.2751
-10.7949
3.58392
-0.504012
3.41275
-54.1191
53.5366
-2.64523
0.319015
-52.1429
2.5914
-2.12402
205.417
3.53526
-2.46604
-52.177
-51.3024
-51.3311
798.873
8.04474
-1.39163
-203.704
-202.603
-196.41
-195.545
794.93
-14.5292
2.4751
786.059
-29.8235
3.19299
773.488
-49.2
2.36528
-57.4704
-4.56023
1954.05
-218.972
3822.9
1727.87
19.42
986.693
1425.54
-234.578
300.756
1314.77
-63.386
-3.64511
294.022
-10.939
233.16
300.523
268.711
276.374
-39.3671
28.8772
294.898
-21.7201
31.3336
-6.08276
8.36366
-71.96
70.4677
-7.11045
6.32176
1.00524
2.99319
-63.7289
62.7924
-2.40843
-0.653514
2.21606
3.58752
-61.9699
61.759
-3.35386
-2.23886
1.8506
4.50448
-60.8055
60.3997
-3.93327
-2.016
1.11019
5.19255
-59.7347
59.4173
-4.92853
-1.05687
-3.68342
8.0306
-57.7069
56.3182
-7.56426
4.60582
-3.75051
7.06075
-52.0095
50.8199
-5.61009
3.48948
0.933956
1.49637
-49.4146
49.2707
-1.26405
-1.02238
-49.4701
0.889383
-3.21114
194.239
2.85583
-0.279807
-48.5539
-48.631
-47.8386
770.25
-9.18315
11.2067
-194.537
-191.484
-187.966
-185.821
776.591
-23.8758
15.6546
776.65
-31.2435
9.3387
773.464
-47.15
4.06226
-55.8617
-5.11063
1073.09
-425.413
-1919.09
938.951
135.088
-219.841
969.704
-204.518
-217.692
968.228
-96.2009
-3.11584
934.555
-22.9649
138.32
227.689
-121.837
57.5026
22.2843
48.6674
26.6729
56.7934
222.041
215.968
211.306
2.05744
-13.4859
226.257
-1.72567
13.6291
-1.2509
2.55583
-0.34809
-1.47863
-4.55922
-212.513
211.632
-1.15249
5.11061
1.38393
-0.566219
2.14222
1.24467
0.128429
-223.906
227.05
-12.9073
-0.00338683
3.1563
1.68754
3.54958
0.958801
-2.16801
-221.281
217.838
-7.96024
3.08572
3.87196
1.36058
4.29366
2.56456
-10.0545
-218.434
210.669
-12.9005
14.0619
5.41373
2.94229
5.73771
2.61093
-25.5916
-196.652
185.774
-6.7431
26.6929
5.67259
2.64554
5.59072
0.956777
-8.52415
-184.007
180.589
-5.90793
8.67253
3.69588
0.919564
3.60538
-0.365936
-0.745604
-178.325
177.95
-4.73499
1.30313
2.61621
-0.329879
2.63252
729.425
-27.806
9.66785
-5.67911
8.09835
-3.83399
9.9929
-180.115
-181.388
-175.328
-176.716
748.595
-30.0013
12.1422
761.174
-37.8925
13.9262
771.419
-42.1049
9.6705
777.02
-53.3837
3.33753
-58.8522
-5.54674
566.037
515.346
-1538.5
806.222
233.952
-981.641
917.179
-61.9098
-477.263
911.425
-83.951
-203.723
886.343
-62.4019
17.8203
837.952
-88.777
6.07759
821.389
114.781
17.9486
-16.7501
-35.0393
-15.2921
-32.0036
786.187
-80.3448
31.4221
5.12818
42.7334
11.5737
46.745
761.658
6.80015
13.2544
5.20645
0.755462
6.41079
0.932237
735.923
-60.7789
37.8295
7.0332
29.7735
8.88027
32.0391
727.586
-13.4251
32.4805
2.66322
6.16236
3.47806
6.53398
728.067
-43.1445
30.315
0.301112
18.5188
1.80799
19.6099
737.057
-32.1158
15.0784
-0.0215269
10.4046
0.632672
10.8023
746.949
-51.4639
14.8083
2.18444
16.8069
2.62048
17.5723
763.542
-47.0899
22.3474
783.221
-50.5762
19.8986
800.293
-55.897
16.6661
811.742
-55.0465
13.4946
819.848
-62.0721
5.80863
-61.6734
-1.6572
1314.52
52.5838
-879.823
1407.29
148.139
-105.752
1083.48
183.68
110.825
908.507
33.8828
97.4437
725.041
67.7044
144.759
665.24
-39.737
40.2379
740.339
42.9662
0.479931
704.727
-51.9613
31.0698
730.727
-19.0445
15.3605
724.453
-57.1687
18.6454
747.97
-38.0902
11.1853
759.539
-54.8478
2.25006
777.192
-50.6066
-3.31056
789.049
-64.2836
-9.56927
804.876
-65.422
-9.34303
825.903
-73.688
-2.87622
847.42
-79.7807
5.2429
863.921
-73.7773
12.2305
872.519
-71.5864
9.39119
-63.2638
2.3421
419.667
-7.84308
1435.04
629.704
-99.8725
418.515
824.273
86.6531
386.401
785.954
66.9715
162.683
789.417
78.8242
195.05
759.758
-8.63648
35.3674
804.31
-9.46025
45.1293
804.494
-59.1009
17.0906
820.492
-41.2764
17.4232
819.757
-57.3381
-1.41271
830.356
-49.5989
-6.00539
838.066
-61.1459
-19.3991
849.967
-63.1121
-20.0345
859.972
-74.2005
-26.6888
873.855
-81.8723
-26.4919
893.003
-97.1877
-20.6166
913.422
-104.695
-8.86828
930.26
-95.1339
8.16832
940.382
-84.3452
12.3437
-66.1222
8.15693
1043.87
1169.82
-1341.07
976.362
674.216
-1342.39
944.708
490.699
-610.784
839.588
257.419
-134.002
863.761
122.845
-64.0496
835.346
27.8327
-15.775
880.805
-53.9872
-8.70982
884.156
-71.4496
18.0155
915.59
-82.9504
32.7439
923.665
-69.0782
29.2109
936.607
-63.1661
18.0719
937.991
-56.6838
-6.85128
940.056
-61.0474
-18.1211
939.174
-68.3899
-37.873
943.986
-88.0099
-44.2525
953.076
-110.706
-38.9692
966.724
-121.349
-18.5174
980.644
-113.681
4.49841
987.458
-95.4714
16.8262
-66.0273
10.0194
2863.35
1559.56
-1983.7
2178.88
1250.5
-84.2944
1649.92
647.763
421.071
1481.25
301.358
176.361
1459.92
115.63
66.6613
1471.35
25.6997
-22.7873
1439.77
-39.3045
56.4642
1402.89
-42.7961
43.8757
1344.38
-40.9642
65.2263
1294.13
-25.9525
26.9469
1239.09
-14.1579
36.9666
1194.69
-7.08226
13.1095
1153.18
-10.5044
5.878
1117.25
-19.6285
-16.7302
1090.71
-51.989
-26.5667
1073.66
-90.0321
-19.1239
1064.95
-112.498
-8.34272
1056.94
-109.661
1.42697
1040.88
-85.9923
13.2459
-53.9775
5.25365
977.55
1971.86
-561
1139.45
1098.26
3.84199
1330.18
649.964
-94.4574
1376.28
310.531
103.354
1404.77
110.128
184.463
1409.64
31.852
126.221
1365.12
-10.0367
151.159
1326.11
-5.90995
87.4409
1282.51
-12.0568
84.0385
1256.1
-0.903952
35.0548
1236.14
2.23707
22.4253
1222.95
15.663
-17.7295
1204.33
24.0584
-33.4579
1191.56
24.2305
-50.1765
1179.71
2.71359
-60.5816
1159.92
-34.0776
-84.7514
1136.57
-84.6637
-67.311
1112.63
-93.7125
-28.7752
1081.12
-67.6283
2.87625
-32.2203
2.71601
840.817
3304.52
1364.02
462.878
1597.74
5.6569
1762.59
104.593
1776.15
92.1689
1778.38
-32.4781
1716.22
-7.57466
1674.48
-34.1665
1613.31
18.5712
1574.42
18.3961
1538.55
64.8819
1527.65
85.125
1532.58
100.332
1546.03
99.8363
1551.85
69.6031
1524.22
30.2339
1425.7
15.7599
1306.88
-1.21835
1210.61
-8.07099
-19.7252
124.149
-1312.6
-3246.4
992.485
-227.695
-735.174
1267.53
-77.8281
-700.594
1348.6
-87.4536
-133.706
1265.04
75.4602
-327.133
1260.33
-7.07826
-234.353
1128.56
67.5653
-77.7088
1089.24
-6.7978
-64.7473
1031.16
13.8507
24.993
1029.24
-15.4931
7.99391
1023.77
-2.6922
34.3283
1037.66
-7.16318
16.838
1045.77
0.481154
11.9488
1057.08
0.803795
-3.05503
1060.38
7.02504
-8.27372
1056.7
8.88901
-25.3164
1025.56
19.4484
-16.552
977.425
31.431
-0.690048
934.199
31.2175
32.6512
9.17389
17.1194
640.081
-981.606
-962.812
133.833
-142.923
106.78
366.111
-105.839
-576.469
344.741
-22.5261
-86.4035
503.214
36.508
-241.007
489.172
21.9857
-47.0269
574.274
13.1176
50.8381
590.381
-5.07113
36.2937
628.457
-5.55413
96.7016
648.51
-9.73945
29.658
667.734
-6.49244
23.1843
678.233
-7.99113
-21.3548
687.242
-7.12157
-31.8848
693.281
-9.12566
-51.8586
699.342
-8.21848
-52.5974
703.046
-9.05885
-59.3632
704.732
-6.94687
-51.5534
704.227
-1.26294
-40.9488
708.14
3.10467
-9.36244
-3.62466
5.2874
164.326
-330.06
-2155.13
405.508
126.245
-393.868
472.917
37.5719
-316.961
444.814
55.5073
67.4957
523.399
3.42772
15.536
465.488
58.933
28.9113
517.49
-26.5372
54.7919
505.754
13.0671
-11.1493
525.295
-20.9589
44.0589
525.672
-2.07706
-8.60752
539.352
-18.8886
8.72195
546.771
-14.7116
-16.3058
561.673
-24.2694
-11.4134
573.038
-22.0967
-17.5363
586.922
-25.3999
-10.6865
597.358
-21.7927
-9.53029
608.664
-21.1989
-2.50844
619.035
-13.0992
1.34974
633.226
-8.44062
11.2197
-9.34059
7.70733
-339.271
-1509.74
3150.27
-9.68298
-84.0403
133.58
432.604
-286.347
-232.564
424.924
3.75228
-16.505
474.424
-32.82
-64.3526
454.504
43.6179
-26.3363
474.525
-47.872
40.232
460.026
25.7574
-35.8256
481.806
-37.5477
34.7848
482.627
2.64806
-4.25135
503.016
-37.6886
14.1349
511.729
-21.1096
-2.59827
530.19
-42.227
4.43227
542.141
-31.383
-1.30647
556.892
-38.617
2.78699
567.788
-30.5642
1.23268
579.426
-31.5794
2.96618
588.63
-21.8987
1.85912
601.099
-20.4408
3.95404
-18.2878
-0.367355
50.9347
-505.577
708.547
166.071
-253.359
-421.534
305.579
-418.254
-247.948
381.01
-66.138
202.272
481.003
-89.6894
51.7625
440.647
64
33.2583
482.497
-79.9745
74.566
469.78
46.9196
-19.8708
490.818
-56.1594
29.665
492.982
3.84513
-9.9079
512.923
-59.1102
8.51278
525.842
-32.9696
-2.10921
545.772
-61.0225
7.73788
558.765
-40.9148
3.9613
573.237
-49.4069
7.97634
583.205
-36.5434
5.23041
593.355
-39.1774
5.60423
601.128
-28.4387
3.43247
611.048
-29.6113
4.10243
-26.374
-2.15949
1396.84
-34.5807
-2630.28
1056.89
23.828
-405.393
499.862
-95.5062
-59.7737
454.658
-54.9094
129.334
421.476
-77.0516
42.9188
392.329
88.3886
32.4513
499.115
-187.844
25.0592
470.403
83.4237
-1.4618
506.001
-95.3654
7.97191
509.778
-2.22397
-9.08939
536.48
-91.8313
-1.89113
552.538
-53.9354
-2.76848
573.518
-82.1528
6.56002
585.393
-49.9539
9.00569
596.354
-54.8113
14.8485
606.022
-38.0397
15.7876
612.889
-38.8997
14.1207
616.824
-29.4899
7.48135
623.361
-33.9115
5.85667
-32.4627
0.707951
830.929
-260.96
-3935.77
673.542
77.3551
97.6509
728.98
102.117
-116.766
698.204
9.06984
102.218
572.424
23.2661
60.2576
470.758
180.42
-9.97527
487.778
-40.5441
3.22713
-59.3696
-46.8078
-62.3734
483.53
3.917
-17.7223
39.7445
3.84911
37.5722
523.073
-30.1443
-21.8052
-37.5564
-34.6797
-40.1617
558.312
-23.4885
-18.83
-1.83492
-23.6764
-1.33399
601.946
-39.3507
-12.3383
-34.2439
-39.1686
-32.9391
634.526
-36.0454
3.44892
-14.2409
-32.8569
-10.6089
652.128
-33.8831
14.017
-19.0282
-30.4899
-16.5196
651.687
-22.0052
20.4974
-2.81783
-19.3638
-0.373581
646.199
-38.7733
23.1074
643.606
-24.2685
19.3449
643.05
-28.1127
20.1164
643.844
-24.1759
11.687
650.505
-37.2132
8.43975
-38.2709
4.05752
212.283
-1125.07
-2146.84
468.983
-52.9645
259.96
422.186
25.3011
-36.0718
481.274
-64.7094
142.921
583.648
-91.6102
56.2323
140.733
29.8897
41.2664
143.922
131.371
134.452
74.5227
28.9697
71.6802
-4.02337
124.551
-19.7202
-0.618515
10.7773
-107.005
117.066
-7.86022
-9.06126
12.3117
-145.212
138.091
-22.3262
-13.0087
11.8555
-140.63
147.892
-32.3077
-10.2985
4.18569
-168.616
166.871
-38.0722
-3.71912
-6.5195
-175.778
178.281
-38.2882
6.25889
-9.1104
-192.275
187.315
-27.815
8.00261
-5.05246
-190.598
182.718
-14.5539
5.48135
655.433
-8.96222
20.3908
-180.191
-177.467
-164.607
-163.852
5.09484
-9.04238
4.50921
652.959
-6.18855
26.0751
652.3
-18.0221
14.5133
656.883
-26.9538
3.13907
665.663
-47.0923
2.22105
-47.5677
-0.112763
839.1
-942.833
-1174.17
741.56
12.2407
572.016
465.421
155.66
-124.025
472.886
-44.8522
157.689
122.434
-80.314
-17.3015
120.864
111.087
110.286
-7.92082
142.636
9.88458
7.7243
-1.91829
0.589741
-43.7086
40.4982
3.22535
1.31358
0.965554
-38.4098
5.7392
37.3991
-4.52013
-1.17393
2.66366
-42.5895
8.41732
41.934
-7.667
-2.75847
2.09115
-43.8992
11.4733
43.0439
-10.748
-1.96111
-2.24497
-46.1785
12.2511
44.8522
-10.7671
2.0873
-3.02969
-46.0419
11.4721
44.7527
-9.82379
2.67057
0.23578
-46.8627
8.86871
45.6774
-7.7192
-0.19999
2.80146
-46.6675
5.19414
45.0308
-3.95812
-2.40084
-45.4355
3.93472
168.094
-1.58687
-2.36801
-44.3859
-44.065
-43.1499
657.953
-4.62695
2.14978
-169.856
-169.776
-160.557
-160.896
664.598
-27.2406
-4.06987
673.311
-40.1504
-5.46786
679.895
-57.4811
-0.307197
-53.9556
-4.62502
1818.98
567.562
645.827
808.51
119.497
792.377
589.524
70.7992
88.6469
571.537
-52.633
180.599
160.091
-120.662
53.8998
168.568
146.457
154.347
12.3596
1.68685
174.125
-15.1111
-12.9693
0.0019122
0.628521
-45.777
47.5661
-2.43459
0.0150261
-0.473556
4.35746
-48.94