/*--------------------------------*- C++ -*----------------------------------*\
  =========                 |
  \\      /  F ield         | OpenFOAM: The Open Source CFD Toolbox
   \\    /   O peration     | Website:  https://openfoam.org
    \\  /    A nd           | Version:  10
     \\/     M anipulation  |
\*---------------------------------------------------------------------------*/
FoamFile
{
    format      ascii;
    class       volScalarField;
    location    "5.7";
    object      turbidity_0;
}
// * * * * * * * * * * * * * * * * * * * * * * * * * * * * * * * * * * * * * //

dimensions      [0 0 0 0 0 0 0];

internalField   nonuniform List<scalar> 
12920
(
-0.0561661
-0.0534261
-0.0649242
-0.07595
-0.0789012
-0.0929296
-0.113757
-0.143568
-0.185079
-0.232118
-0.277278
-0.314138
-0.339564
-0.35531
-0.364475
-0.36724
-0.370435
-0.380874
-0.396554
-0.413743
-0.0380331
-0.0574615
-0.0712144
-0.102474
-0.137033
-0.178033
-0.213557
-0.25859
-0.303431
-0.345314
-0.368318
-0.365901
-0.348813
-0.329506
-0.320089
-0.318631
-0.329356
-0.355757
-0.406099
-0.467141
-0.0499991
-0.0581271
-0.0756399
-0.10585
-0.143605
-0.178346
-0.207944
-0.241676
-0.285381
-0.337234
-0.387473
-0.422332
-0.450111
-0.473132
-0.497941
-0.523379
-0.550057
-0.575561
-0.604981
-0.647213
-0.0470955
-0.0657894
-0.0728046
-0.0949189
-0.118119
-0.140115
-0.171035
-0.213499
-0.276932
-0.352351
-0.423641
-0.481481
-0.525501
-0.563026
-0.596565
-0.629545
-0.660987
-0.690942
-0.717434
-0.738837
-0.0643883
-0.0598694
-0.0794384
-0.113101
-0.137216
-0.163254
-0.199239
-0.243376
-0.294722
-0.345091
-0.386515
-0.421792
-0.450427
-0.481591
-0.514265
-0.550391
-0.585629
-0.618596
-0.646167
-0.66601
-0.0211251
-0.0475936
-0.0701862
-0.122386
-0.162416
-0.200514
-0.235687
-0.271127
-0.29893
-0.324261
-0.339344
-0.356461
-0.37176
-0.395761
-0.427
-0.470911
-0.51852
-0.562939
-0.595063
-0.612965
-0.0344212
-0.046444
-0.0500395
-0.0765986
-0.112149
-0.15242
-0.178727
-0.208606
-0.220036
-0.234432
-0.237152
-0.241291
-0.245493
-0.260805
-0.290062
-0.340431
-0.402083
-0.462306
-0.502849
-0.520552
-0.0325054
-0.0533907
-0.0629902
-0.102703
-0.136368
-0.160714
-0.158661
-0.154628
-0.161583
-0.154895
-0.150373
-0.133754
-0.122383
-0.117809
-0.144109
-0.199646
-0.267673
-0.327285
-0.363411
-0.385349
-0.0307435
-0.0589023
-0.0747363
-0.105371
-0.122625
-0.125429
-0.135312
-0.131079
-0.123552
-0.114264
-0.102889
-0.0952825
-0.0958201
-0.0994991
-0.10488
-0.163401
-0.21794
-0.261287
-0.295427
-0.32615
-0.0368096
-0.0642545
-0.0791271
-0.0974081
-0.115726
-0.110706
-0.107018
-0.105416
-0.104199
-0.101762
-0.0980607
-0.0946988
-0.0913918
-0.0969974
-0.105962
-0.148594
-0.193376
-0.233741
-0.272757
-0.312469
-0.0724423
-0.0775497
-0.0784007
-0.0930512
-0.112034
-0.110482
-0.109665
-0.109348
-0.107101
-0.0986523
-0.090204
-0.0844827
-0.0832824
-0.0955941
-0.112477
-0.149597
-0.189838
-0.229467
-0.2705
-0.314608
-0.0261296
-0.051515
-0.0653304
-0.0805419
-0.0977745
-0.102467
-0.110861
-0.109691
-0.100633
-0.0903402
-0.0815707
-0.0766944
-0.0922361
-0.114069
-0.124216
-0.156777
-0.195153
-0.237169
-0.285108
-0.335133
-0.0160614
-0.0388881
-0.0586856
-0.085585
-0.113447
-0.141679
-0.139813
-0.131031
-0.123719
-0.116302
-0.115013
-0.129639
-0.161953
-0.172193
-0.223908
-0.259966
-0.304742
-0.351459
-0.394599
-0.430894
-0.0111019
-0.0343833
-0.0593651
-0.0905491
-0.12593
-0.155573
-0.171775
-0.193933
-0.212722
-0.242619
-0.277051
-0.32261
-0.366094
-0.403137
-0.433659
-0.46078
-0.485114
-0.506603
-0.523446
-0.533846
-0.0130731
-0.0457429
-0.0795529
-0.123223
-0.161391
-0.197729
-0.216386
-0.243555
-0.268175
-0.295213
-0.320038
-0.338736
-0.352062
-0.361159
-0.37506
-0.395389
-0.418767
-0.444376
-0.470493
-0.494441
-0.0144868
-0.0364442
-0.0600294
-0.0998228
-0.146785
-0.189488
-0.221893
-0.247654
-0.268235
-0.279314
-0.284926
-0.283826
-0.284859
-0.288705
-0.299744
-0.320331
-0.349977
-0.384491
-0.419056
-0.453246
-0.0259244
-0.0447728
-0.0759586
-0.125063
-0.17042
-0.202601
-0.222222
-0.2389
-0.251468
-0.261451
-0.266354
-0.264513
-0.261201
-0.258454
-0.26381
-0.282795
-0.313937
-0.35019
-0.386032
-0.421771
-0.0160934
-0.0344369
-0.0572128
-0.081548
-0.0984611
-0.108516
-0.116669
-0.128541
-0.144706
-0.16392
-0.184609
-0.206155
-0.227047
-0.245096
-0.263666
-0.287689
-0.316569
-0.348181
-0.38113
-0.414852
-0.0302675
-0.0471512
-0.0625319
-0.077743
-0.0919777
-0.107266
-0.124326
-0.144417
-0.165519
-0.185465
-0.202544
-0.21609
-0.23124
-0.249683
-0.26942
-0.286654
-0.309406
-0.339744
-0.375007
-0.410775
-0.0477035
-0.058888
-0.0647631
-0.0761388
-0.0847268
-0.0905936
-0.10134
-0.117153
-0.140811
-0.167125
-0.192269
-0.214302
-0.233774
-0.252028
-0.269777
-0.286722
-0.300469
-0.309267
-0.31954
-0.335972
-0.015243
-0.0144718
-0.0110064
-0.0121158
-0.0117063
-0.0143427
-0.0187141
-0.0236572
-0.0284072
-0.0341662
-0.0423047
-0.0507516
-0.0544981
-0.0541091
-0.0515709
-0.0493051
-0.0513559
-0.0576654
-0.0693121
-0.0739766
-0.016061
-0.0200358
-0.0237503
-0.0386403
-0.0492024
-0.0683387
-0.0935252
-0.115023
-0.122916
-0.104356
-0.0740464
-0.0444967
-0.0317238
-0.0278214
-0.0289015
-0.033487
-0.0419654
-0.055627
-0.0791024
-0.113298
-0.00560613
-0.0186585
-0.0414812
-0.0518197
-0.0594206
-0.0541949
-0.0646034
-0.0680275
-0.0769608
-0.0663888
-0.0557431
-0.0464923
-0.0457373
-0.0502555
-0.0601102
-0.0748043
-0.0948814
-0.118638
-0.146831
-0.165076
-0.0561904
-0.0180602
-0.0173144
-0.0267377
-0.0318261
-0.0339055
-0.0450646
-0.0594055
-0.0819688
-0.083795
-0.0835568
-0.0799857
-0.0848633
-0.0906733
-0.0973467
-0.101325
-0.103086
-0.101912
-0.10079
-0.101532
-0.0210767
-0.0149037
-0.0165525
-0.0304467
-0.0372307
-0.0402409
-0.0587065
-0.06383
-0.0708263
-0.0681499
-0.0727759
-0.0797759
-0.0911943
-0.0969231
-0.0988595
-0.0930879
-0.08585
-0.0781286
-0.0745102
-0.0740424
-0.0248927
-0.0128653
-0.00966691
-0.0234851
-0.0259263
-0.0396015
-0.040804
-0.0455115
-0.0460801
-0.052493
-0.0623003
-0.0762132
-0.0924496
-0.108045
-0.119749
-0.120257
-0.112522
-0.0991155
-0.0896705
-0.0832994
-0.00842976
-0.0105932
-0.00632995
-0.00889408
-0.0116313
-0.0184521
-0.0203622
-0.0256233
-0.0304644
-0.0384599
-0.0495317
-0.0632797
-0.0798272
-0.0990831
-0.116579
-0.126037
-0.126683
-0.118653
-0.105444
-0.0932088
-0.00290207
-0.014736
-0.0100046
-0.0199164
-0.0183742
-0.0198724
-0.022448
-0.0244891
-0.0293533
-0.0388274
-0.0520181
-0.0699061
-0.0787837
-0.0826507
-0.0851619
-0.0902504
-0.0828141
-0.0696077
-0.0601292
-0.0554327
-0.00601825
-0.0195006
-0.0134186
-0.0186332
-0.0169615
-0.0191994
-0.0284147
-0.0290966
-0.0327978
-0.0468676
-0.0759929
-0.0902656
-0.0855609
-0.0772242
-0.0760654
-0.0697179
-0.0673538
-0.0634387
-0.0595577
-0.0560028
-0.00684958
-0.0262695
-0.0160147
-0.0225744
-0.02246
-0.0194353
-0.0221481
-0.0331711
-0.0568428
-0.0760049
-0.0689052
-0.0623696
-0.0707163
-0.0679487
-0.0583995
-0.0575976
-0.0592536
-0.0576681
-0.0540773
-0.0501895
-0.015165
-0.0372942
-0.0239055
-0.0284311
-0.0385785
-0.0404054
-0.0424305
-0.0362395
-0.0317578
-0.0265897
-0.0287604
-0.0432652
-0.073604
-0.0828097
-0.0634114
-0.0568627
-0.0560871
-0.0523187
-0.0471743
-0.0431602
-0.0160549
-0.0173541
-0.0290975
-0.0375021
-0.0483786
-0.0521003
-0.0472146
-0.023903
-0.0214156
-0.0247878
-0.0350444
-0.0673862
-0.0923962
-0.0798918
-0.0614119
-0.0494255
-0.0496398
-0.0461203
-0.0410522
-0.0383663
-0.0145867
-0.0188395
-0.0279267
-0.0351828
-0.0460129
-0.04097
-0.0414881
-0.0355931
-0.0381054
-0.0524046
-0.0824394
-0.102496
-0.0825904
-0.0568439
-0.0571667
-0.0597001
-0.0591719
-0.0534505
-0.045612
-0.0416611
-0.00593004
-0.00479273
-0.00913532
-0.0225663
-0.0376735
-0.0423345
-0.0408578
-0.0482972
-0.0660852
-0.0897357
-0.104671
-0.10734
-0.105033
-0.106088
-0.111872
-0.111673
-0.103172
-0.0892662
-0.0725634
-0.0608086
-0.00431267
-0.00666014
-0.0132349
-0.0329737
-0.0467817
-0.048068
-0.0450418
-0.0553881
-0.0654569
-0.069697
-0.0698046
-0.0643414
-0.0624894
-0.0631724
-0.0671373
-0.0732365
-0.0798146
-0.0841942
-0.0821769
-0.0763677
-0.0123128
-0.0178717
-0.0328444
-0.0393192
-0.0511741
-0.0427602
-0.0451493
-0.0409888
-0.0398575
-0.0352299
-0.0328792
-0.0320892
-0.0337434
-0.0373146
-0.0428838
-0.0502246
-0.0592432
-0.0709478
-0.0814353
-0.0869473
-0.00541035
-0.0155174
-0.0348901
-0.0416354
-0.0379251
-0.0382481
-0.0385396
-0.041518
-0.0421859
-0.0378059
-0.031656
-0.0274265
-0.0281978
-0.03163
-0.0370618
-0.0441385
-0.052756
-0.0632804
-0.0754695
-0.083408
-0.012238
-0.0156606
-0.0254435
-0.0283127
-0.0292979
-0.029441
-0.0327102
-0.0328006
-0.0342378
-0.0346325
-0.0383677
-0.0390415
-0.0384951
-0.0384698
-0.0421129
-0.0479567
-0.0541736
-0.0597114
-0.065913
-0.0674023
-0.00699458
-0.0163582
-0.0222267
-0.0263792
-0.0337233
-0.0375072
-0.0430653
-0.0439749
-0.0424801
-0.0361183
-0.0312218
-0.0295345
-0.0322974
-0.0375923
-0.044375
-0.0516001
-0.0571819
-0.0605784
-0.0669684
-0.0771368
-0.00937167
-0.0184455
-0.0192527
-0.0179444
-0.0150406
-0.01261
-0.0116586
-0.0120735
-0.0150643
-0.0225231
-0.0380322
-0.0577855
-0.0767932
-0.0925921
-0.102114
-0.101547
-0.092079
-0.0784477
-0.0634864
-0.0513531
-0.0085943
-0.00718737
-0.00701887
-0.00894751
-0.00998826
-0.0131572
-0.0164115
-0.0205821
-0.0234109
-0.0252368
-0.0263009
-0.0266234
-0.026476
-0.0261981
-0.0265951
-0.0278941
-0.0302551
-0.0331037
-0.03625
-0.0369242
-0.0224502
-0.0122089
-0.0152795
-0.0240173
-0.0275148
-0.0374315
-0.0504317
-0.0537587
-0.0494927
-0.0356444
-0.0247718
-0.0190791
-0.0177743
-0.018342
-0.0200983
-0.0227095
-0.0265084
-0.031745
-0.0397574
-0.0493633
-0.0050684
-0.0153234
-0.0187926
-0.0264821
-0.0286882
-0.027984
-0.0321793
-0.0300767
-0.0283922
-0.0222367
-0.0190557
-0.0179168
-0.0189613
-0.0212093
-0.0248062
-0.029453
-0.0351522
-0.0410958
-0.047478
-0.0497138
-0.0298007
-0.00924461
-0.00875614
-0.0144324
-0.0175055
-0.0198172
-0.026111
-0.0285304
-0.0315428
-0.0282076
-0.0270674
-0.0261694
-0.0273118
-0.0283055
-0.0297255
-0.0308611
-0.0321029
-0.0332354
-0.034637
-0.0363107
-0.00461855
-0.00873041
-0.0105606
-0.0151716
-0.0174147
-0.0192486
-0.0256893
-0.0257422
-0.0273841
-0.0270993
-0.0294107
-0.0307193
-0.0325226
-0.0320818
-0.03125
-0.0295084
-0.0284793
-0.028164
-0.0286765
-0.0297377
-0.00299335
-0.00647954
-0.00709557
-0.0110977
-0.0129561
-0.0175286
-0.019386
-0.0222857
-0.0259392
-0.0298403
-0.0349046
-0.0383635
-0.0413278
-0.041506
-0.040368
-0.0361674
-0.0316639
-0.0276824
-0.0255166
-0.0246503
-0.00169233
-0.00326885
-0.00298362
-0.00460737
-0.00735514
-0.0112214
-0.016009
-0.0199978
-0.0261156
-0.0323226
-0.0396604
-0.0455412
-0.0501257
-0.0525967
-0.0513778
-0.0460581
-0.0395292
-0.0326053
-0.0272359
-0.0239955
-0.00229807
-0.00413387
-0.0049182
-0.00878597
-0.0116899
-0.0143676
-0.0168711
-0.0239008
-0.0284166
-0.0391881
-0.0483881
-0.0555611
-0.057636
-0.0580622
-0.0410959
-0.033894
-0.0253284
-0.0195074
-0.0169798
-0.0163172
-0.00104548
-0.00910819
-0.00716875
-0.00863212
-0.0107066
-0.0134854
-0.0166497
-0.0235871
-0.0334509
-0.0462652
-0.0602681
-0.0657761
-0.0540957
-0.0447775
-0.0378003
-0.0228319
-0.0204137
-0.019006
-0.018133
-0.0176107
-0.00192094
-0.0103867
-0.00952234
-0.0105291
-0.0109977
-0.0118967
-0.0163395
-0.0245499
-0.0342503
-0.042021
-0.0472193
-0.0505891
-0.0441687
-0.0290471
-0.0243256
-0.0211323
-0.0203185
-0.0190385
-0.0178738
-0.0171875
-0.0126989
-0.0201349
-0.0133176
-0.0138226
-0.0165812
-0.0163131
-0.0174889
-0.0181003
-0.0199038
-0.0259187
-0.0372004
-0.0523528
-0.0565152
-0.0410815
-0.0281854
-0.0218914
-0.0198256
-0.0177839
-0.0165011
-0.0163657
-0.0195105
-0.0191153
-0.0238345
-0.0215023
-0.0234058
-0.0213757
-0.0181514
-0.0148968
-0.0185965
-0.0284018
-0.0469545
-0.0629185
-0.0465305
-0.0306004
-0.0245361
-0.0176293
-0.016786
-0.0158544
-0.0157158
-0.0167222
-0.00333461
-0.0114971
-0.0169202
-0.0185786
-0.0208823
-0.0182028
-0.0182183
-0.0197624
-0.0297333
-0.0456514
-0.0584881
-0.0484944
-0.0261393
-0.0172214
-0.0169371
-0.0169965
-0.0165725
-0.0161116
-0.0165135
-0.0180771
-0.00315428
-0.00406513
-0.00543019
-0.0115627
-0.0179258
-0.0186532
-0.0199472
-0.0271058
-0.0370162
-0.0429155
-0.0420463
-0.0375407
-0.0332188
-0.0315614
-0.0313122
-0.029198
-0.0259
-0.0230579
-0.0216074
-0.0221271
-0.00178009
-0.00522373
-0.00991422
-0.0171228
-0.0192315
-0.0196308
-0.0213954
-0.0254816
-0.0294516
-0.0293691
-0.0285777
-0.0268715
-0.0262514
-0.025973
-0.0261376
-0.0265001
-0.0268941
-0.0271666
-0.0272628
-0.0279808
-0.0047066
-0.00955018
-0.0139457
-0.0153184
-0.0179736
-0.0156108
-0.0173928
-0.017183
-0.0179051
-0.0177792
-0.0181868
-0.0186724
-0.0195846
-0.0206549
-0.0220453
-0.0237386
-0.0258734
-0.0287457
-0.0315721
-0.034016
-0.0024013
-0.00896034
-0.0132756
-0.0151284
-0.0132523
-0.014154
-0.0148338
-0.0155974
-0.0160914
-0.0159342
-0.016292
-0.0170564
-0.0182611
-0.0194455
-0.0207539
-0.0222552
-0.0243216
-0.0274516
-0.0313673
-0.0350461
-0.00272741
-0.00815735
-0.0109433
-0.0101977
-0.011109
-0.0121948
-0.0143275
-0.0147746
-0.0158185
-0.016644
-0.0183435
-0.0197299
-0.0214059
-0.0230029
-0.0243762
-0.0250592
-0.025267
-0.0257183
-0.0272201
-0.0290108
-0.00250123
-0.00444602
-0.00597037
-0.00879005
-0.0142595
-0.0171042
-0.0198678
-0.0191668
-0.0182456
-0.0174763
-0.0186582
-0.0211787
-0.0245947
-0.0279291
-0.0306849
-0.0317762
-0.0310128
-0.0294501
-0.0294398
-0.0302269
-0.00733929
-0.00851875
-0.00778173
-0.00730362
-0.00669266
-0.00622061
-0.00623447
-0.00678745
-0.0084729
-0.0120378
-0.0185571
-0.027433
-0.0370799
-0.0453496
-0.0498308
-0.049522
-0.0448886
-0.0375223
-0.0309694
-0.0269024
-0.00345016
-0.00539914
-0.00595887
-0.00789327
-0.0108602
-0.015508
-0.0190393
-0.0221008
-0.0243001
-0.0253675
-0.0253478
-0.0242535
-0.022715
-0.021247
-0.0204235
-0.0200951
-0.020301
-0.020732
-0.0214086
-0.0212483
-0.00464134
-0.00865304
-0.0132865
-0.0197245
-0.0201171
-0.0236101
-0.0270822
-0.0247894
-0.0216318
-0.0172488
-0.0152039
-0.0144503
-0.0145544
-0.014827
-0.0152505
-0.0156118
-0.0160665
-0.0167181
-0.0180679
-0.0196024
-0.00458349
-0.00772226
-0.0140835
-0.0191979
-0.0186814
-0.0178106
-0.0176036
-0.0150269
-0.0134726
-0.0117595
-0.0112935
-0.0113936
-0.0119043
-0.0126064
-0.0135692
-0.0146916
-0.0160666
-0.0173752
-0.0188156
-0.0195755
-0.0127285
-0.00500185
-0.00604604
-0.0111755
-0.0141284
-0.0148644
-0.0159507
-0.0145747
-0.0142203
-0.0129579
-0.0128835
-0.0129371
-0.0135544
-0.0141707
-0.0150533
-0.0159757
-0.0170443
-0.0180884
-0.0192219
-0.0204417
-0.00244675
-0.00650564
-0.00885176
-0.0117589
-0.0128603
-0.0134624
-0.0148126
-0.0139915
-0.0142755
-0.0138554
-0.014356
-0.0144598
-0.0149066
-0.0150597
-0.0154558
-0.0159307
-0.016624
-0.0174444
-0.0182862
-0.0191958
-0.00128314
-0.00375133
-0.00624955
-0.00948642
-0.0108685
-0.0127898
-0.0142063
-0.0146594
-0.0157811
-0.0159993
-0.0168405
-0.0168805
-0.0169546
-0.0164029
-0.0159398
-0.0153116
-0.0149994
-0.0150374
-0.0153996
-0.0160665
-0.00129038
-0.00287217
-0.00401406
-0.00631891
-0.00890049
-0.0111131
-0.0150105
-0.0158301
-0.017945
-0.0191591
-0.0206508
-0.0216317
-0.0213684
-0.0201724
-0.0180741
-0.0158185
-0.0143196
-0.013494
-0.0134356
-0.0140114
-0.00265022
-0.00491166
-0.00674502
-0.0098517
-0.0133082
-0.0147192
-0.0166352
-0.0195306
-0.020909
-0.0266556
-0.0284831
-0.0293255
-0.0271298
-0.0236068
-0.0134957
-0.0114361
-0.0101519
-0.0100472
-0.0107585
-0.0119467
-0.0026659
-0.0062929
-0.00732312
-0.00926587
-0.0134792
-0.0154935
-0.0171154
-0.0223903
-0.0288972
-0.0364074
-0.0389388
-0.0295877
-0.0194187
-0.0160093
-0.0113442
-0.00854881
-0.0087827
-0.00947388
-0.0105213
-0.0118395
-0.00807417
-0.00884008
-0.00808795
-0.00896201
-0.0116607
-0.0142025
-0.0185835
-0.024424
-0.0288447
-0.0281799
-0.0253229
-0.0196195
-0.0125803
-0.0103102
-0.0096488
-0.00881055
-0.00919673
-0.0100017
-0.0111569
-0.0125181
-0.0107107
-0.0127306
-0.00978319
-0.00977841
-0.0113295
-0.0121066
-0.013871
-0.0164143
-0.018336
-0.0201902
-0.0261671
-0.0294016
-0.01963
-0.0133029
-0.0105412
-0.00891287
-0.0095284
-0.0105191
-0.0118203
-0.0133125
-0.0140183
-0.0160779
-0.015346
-0.0120034
-0.0124535
-0.0119811
-0.0122054
-0.0136367
-0.0175262
-0.0237877
-0.0305024
-0.0248377
-0.0136913
-0.011244
-0.00903865
-0.00899091
-0.00990498
-0.0110081
-0.0123211
-0.0138156
-0.00149915
-0.007782
-0.0104321
-0.0108955
-0.0114523
-0.0114779
-0.0121825
-0.0160017
-0.0204158
-0.0234397
-0.0204179
-0.0124289
-0.00802593
-0.00747051
-0.00865066
-0.00940676
-0.0102587
-0.0112564
-0.0124224
-0.013818
-0.00237468
-0.00664737
-0.00898344
-0.0107231
-0.0117853
-0.0117845
-0.0127689
-0.0147237
-0.0155202
-0.0153416
-0.0132067
-0.011678
-0.0106948
-0.0107188
-0.011101
-0.0112686
-0.0115668
-0.0121441
-0.0129761
-0.014128
-0.00223166
-0.00520323
-0.00847243
-0.0107496
-0.010904
-0.0117166
-0.0122395
-0.0129729
-0.0129316
-0.0121692
-0.0114558
-0.0109496
-0.0108812
-0.0111437
-0.0116719
-0.0123996
-0.0132073
-0.0140106
-0.014784
-0.0156861
-0.00118796
-0.00574528
-0.00865536
-0.00968212
-0.0100169
-0.00980623
-0.0105694
-0.0106115
-0.0108055
-0.0107369
-0.0108316
-0.0110721
-0.0115157
-0.0121875
-0.0130843
-0.0141501
-0.0153222
-0.0165482
-0.0176284
-0.0185297
-0.00531035
-0.00988097
-0.0105881
-0.00946247
-0.00881261
-0.00950415
-0.00999344
-0.0104352
-0.0108322
-0.0109881
-0.0112797
-0.0116572
-0.012254
-0.0130472
-0.0140999
-0.0153812
-0.0168548
-0.0184553
-0.0199246
-0.0210493
-0.0031105
-0.00719288
-0.00713857
-0.00713573
-0.00816655
-0.00897548
-0.00999137
-0.0105489
-0.0114823
-0.0122159
-0.0130738
-0.0136662
-0.0142605
-0.0147618
-0.0152857
-0.0158971
-0.0167964
-0.0179403
-0.0191631
-0.0202177
-0.00116577
-0.0031667
-0.0054492
-0.00750695
-0.0101475
-0.0108028
-0.0114362
-0.0113468
-0.0121357
-0.0133114
-0.0149734
-0.0165793
-0.0180771
-0.0189493
-0.0190626
-0.0183226
-0.0174658
-0.017125
-0.0174566
-0.0180004
-0.00567152
-0.00530732
-0.00493669
-0.00475296
-0.00487458
-0.00517975
-0.00564915
-0.00639791
-0.00782717
-0.0102551
-0.0139158
-0.0183332
-0.0227363
-0.0258666
-0.0267058
-0.0251957
-0.022115
-0.0186609
-0.0167232
-0.0165002
-0.00161929
-0.00371611
-0.00441605
-0.00719662
-0.0126851
-0.0181591
-0.0196849
-0.0192564
-0.0188375
-0.0173148
-0.0156379
-0.0138352
-0.0127673
-0.0124042
-0.0125139
-0.01272
-0.0129764
-0.013097
-0.0133139
-0.0133884
-0.00595231
-0.00738282
-0.0106692
-0.0157423
-0.016691
-0.0152409
-0.0144504
-0.0126241
-0.0117908
-0.0108631
-0.0107548
-0.0110126
-0.0117191
-0.0127914
-0.0141683
-0.0157387
-0.0173689
-0.0190027
-0.0204951
-0.0217249
-0.0107867
-0.00887826
-0.0138377
-0.0157667
-0.0132135
-0.0113083
-0.0101747
-0.0093803
-0.00932965
-0.0095712
-0.0102511
-0.0111252
-0.0121646
-0.0132349
-0.0142805
-0.0152324
-0.0160642
-0.0167648
-0.0173453
-0.0178017
-0.00908957
-0.00682154
-0.0109834
-0.0127669
-0.0113595
-0.0100047
-0.0095914
-0.00931573
-0.00968899
-0.0101234
-0.0108458
-0.0116051
-0.0124161
-0.0132088
-0.0139783
-0.0147109
-0.015411
-0.0160734
-0.0167367
-0.0173816
-0.00742962
-0.00977537
-0.0103369
-0.0104302
-0.00969322
-0.0093158
-0.00926525
-0.00924437
-0.00967102
-0.0101559
-0.01081
-0.0114792
-0.0121776
-0.0128851
-0.0136172
-0.0143637
-0.0151498
-0.0159572
-0.0168129
-0.017624
-0.0017052
-0.00518742
-0.00676632
-0.00854369
-0.00883814
-0.00919286
-0.00912814
-0.00935213
-0.00969289
-0.0102051
-0.0107666
-0.0114032
-0.0120239
-0.0127071
-0.0134436
-0.0142636
-0.0151617
-0.0161459
-0.0171475
-0.0180511
-0.00157279
-0.00363477
-0.00507073
-0.00755577
-0.00867779
-0.00906317
-0.00933097
-0.00943054
-0.00972917
-0.0103827
-0.0108101
-0.011562
-0.011972
-0.012535
-0.0131027
-0.0138428
-0.0147038
-0.0157022
-0.0166876
-0.0175889
-0.0018553
-0.00575583
-0.00778129
-0.00967356
-0.00986087
-0.0101389
-0.0100524
-0.0100002
-0.00998313
-0.0105185
-0.0106271
-0.0108673
-0.0108072
-0.0109582
-0.0123095
-0.0130619
-0.0138779
-0.0147568
-0.0155703
-0.016316
-0.00287255
-0.00429961
-0.00671124
-0.00925471
-0.0101371
-0.0114683
-0.01111
-0.0113463
-0.0115423
-0.0107146
-0.00944763
-0.00841885
-0.00858561
-0.00893381
-0.0100142
-0.0121276
-0.0128875
-0.0136253
-0.0143383
-0.0149877
-0.00608946
-0.00739062
-0.00787829
-0.0090746
-0.00993743
-0.0106589
-0.0121439
-0.0128366
-0.0108052
-0.00878073
-0.00757254
-0.0069148
-0.00709137
-0.00764083
-0.00962343
-0.0120341
-0.0127691
-0.0134345
-0.0140841
-0.014669
-0.00712814
-0.00896951
-0.00823452
-0.00859113
-0.00910093
-0.00986557
-0.0106223
-0.00978916
-0.00822171
-0.00784923
-0.00846906
-0.00770476
-0.00710436
-0.00761719
-0.00961066
-0.012362
-0.0133013
-0.0141135
-0.0148777
-0.0155086
-0.0113634
-0.0113099
-0.00957391
-0.00841823
-0.00844512
-0.00848216
-0.00843334
-0.00797696
-0.00722956
-0.00671521
-0.00674471
-0.00642158
-0.00661369
-0.0073074
-0.00974795
-0.0135775
-0.0147802
-0.0158134
-0.0167618
-0.0174717
-0.00200614
-0.00804364
-0.00824019
-0.008106
-0.00779772
-0.00751905
-0.00740289
-0.00766727
-0.00733386
-0.00702865
-0.0069529
-0.00729206
-0.00822424
-0.00932718
-0.0132732
-0.0148055
-0.0162964
-0.0177295
-0.0190636
-0.0200876
-0.000680926
-0.00680777
-0.00843399
-0.00818159
-0.00772157
-0.00731293
-0.00686874
-0.00713492
-0.00718645
-0.00776042
-0.00834707
-0.00925086
-0.0104168
-0.011776
-0.013302
-0.0150057
-0.0168156
-0.0186306
-0.0203941
-0.0218407
-0.00244743
-0.00680445
-0.007909
-0.00792321
-0.0072635
-0.00731104
-0.00678118
-0.00704099
-0.00718544
-0.00766515
-0.00838196
-0.0093502
-0.01056
-0.0119818
-0.0135836
-0.015329
-0.0171782
-0.0190588
-0.0208927
-0.0224385
-0.00403877
-0.00794699
-0.00811519
-0.00751688
-0.00712049
-0.00708787
-0.00712252
-0.00728452
-0.00761692
-0.00818344
-0.00895287
-0.00992784
-0.0110744
-0.0123986
-0.0139086
-0.0155823
-0.0173969
-0.0192761
-0.0211243
-0.0227394
-0.000368506
-0.00510422
-0.0102918
-0.00830243
-0.00728884
-0.0074808
-0.00760032
-0.00793002
-0.00839485
-0.00899159
-0.0098191
-0.0107614
-0.0118453
-0.0130366
-0.0143934
-0.0159194
-0.0176404
-0.019539
-0.0215458
-0.023492
-0.000802225
-0.00541808
-0.00798219
-0.0075925
-0.0074849
-0.00758721
-0.00803613
-0.00827359
-0.00877824
-0.00924219
-0.0099907
-0.0108445
-0.0118575
-0.0129738
-0.0142012
-0.0155321
-0.0169985
-0.0186303
-0.0204384
-0.0222872
-0.00178114
-0.00380489
-0.00627258
-0.00704783
-0.00739641
-0.00757334
-0.00818816
-0.00880032
-0.00953349
-0.0100745
-0.0105839
-0.0110468
-0.0116844
-0.0126142
-0.0139205
-0.0155461
-0.0174136
-0.01942
-0.0214423
-0.0234133
-0.00199932
-0.00473101
-0.00592196
-0.00626274
-0.00577132
-0.00552786
-0.00580936
-0.00675835
-0.00830463
-0.00996529
-0.0114327
-0.0121561
-0.0124153
-0.0124647
-0.012901
-0.0136798
-0.0151542
-0.017608
-0.0210846
-0.0252241
-0.0461034
-0.0287135
-0.0346156
-0.0359238
-0.0343523
-0.0250221
-0.0291052
-0.0500226
-0.0374764
-0.0476541
-0.0336072
-0.0301128
-0.031089
-0.0348686
-0.0337406
-0.0268273
-0.0389279
-0.0238612
-0.0301966
-0.0269003
-0.035065
-0.0485423
-0.0439213
-0.0581006
-0.0329568
-0.0382008
-0.037593
-0.0397302
-0.132667
-0.112933
-0.109499
-0.1323
-0.128885
-0.103199
-0.100299
-0.125452
-0.109114
-0.107438
-0.123205
-0.099873
-0.101202
-0.102146
-0.116988
-0.106642
-0.103789
-0.0947059
-0.0859904
-0.10202
-0.102094
-0.105622
-0.10263
-0.0988386
-0.0870411
-0.0954425
-0.102131
-0.100095
-0.0965751
-0.0975759
-0.0952157
-0.0970361
-0.0985116
-0.0982282
-0.0880003
-0.0950832
-0.0947497
-0.092998
-0.0982864
-0.0962327
-0.0842681
-0.0815805
-0.0988315
-0.0929511
-0.096269
-0.09497
-0.0890096
-0.0828176
-0.0830016
-0.0990313
-0.097987
-0.100308
-0.0872494
-0.0876836
-0.0812115
-0.0781632
-0.105538
-0.107072
-0.106806
-0.0956636
-0.0950192
-0.101237
-0.102973
-0.104621
-0.107503
-0.108479
-0.0973359
-0.102489
-0.104696
-0.106937
-0.102498
-0.107987
-0.104283
-0.103437
-0.104451
-0.105326
-0.0914723
-0.0990106
-0.102599
-0.0973885
-0.104
-0.0980197
-0.084946
-0.0661779
-0.0956648
-0.0957333
-0.0911356
-0.0940365
-0.0786091
-0.0612875
-0.0538431
-0.0916564
-0.0896963
-0.0857226
-0.0751483
-0.0765521
-0.054996
-0.0696592
-0.0949146
-0.0856317
-0.0919526
-0.0794363
-0.0837086
-0.0760623
-0.0896385
-0.100692
-0.0950659
-0.102184
-0.0823027
-0.0773716
-0.0905852
-0.084299
-0.109095
-0.111432
-0.110351
-0.105791
-0.10583
-0.106843
-0.0972419
-0.108375
-0.109317
-0.10347
-0.105896
-0.0980845
-0.0899449
-0.0680511
-0.101034
-0.100854
-0.092639
-0.0922216
-0.0715368
-0.0622956
-0.0505747
-0.0920556
-0.0900158
-0.0830876
-0.0653106
-0.0512916
-0.0482276
-0.0457425
-0.0856541
-0.0811614
-0.0769496
-0.0485198
-0.0480526
-0.0468263
-0.058264
-0.0823184
-0.0762372
-0.0814206
-0.0514505
-0.071017
-0.0649385
-0.0881484
-0.0921907
-0.0868656
-0.103869
-0.0781193
-0.0932328
-0.0952277
-0.107656
-0.103019
-0.107279
-0.110614
-0.0950205
-0.0902624
-0.108693
-0.107157
-0.111047
-0.113966
-0.113331
-0.105165
-0.0972358
-0.108916
-0.104287
-0.103191
-0.112582
-0.108895
-0.0895109
-0.0704718
-0.100151
-0.0936973
-0.092845
-0.106894
-0.100019
-0.0667143
-0.0601136
-0.0931238
-0.0930791
-0.0835115
-0.0973777
-0.0906596
-0.0587861
-0.058087
-0.0929055
-0.0935119
-0.0772124
-0.0887742
-0.0877826
-0.0597467
-0.0708312
-0.0941449
-0.100252
-0.0851579
-0.0906541
-0.113987
-0.0762919
-0.0962599
-0.105197
-0.123223
-0.11108
-0.124987
-0.141785
-0.102474
-0.109603
-0.126087
-0.114059
-0.115058
-0.141458
-0.13179
-0.109165
-0.107775
-0.107325
-0.0972199
-0.0305487
-0.022472
-0.0281859
-0.0199128
-0.0231672
-0.0211035
-0.0261182
-0.0310422
-0.0310811
-0.0424838
-0.0249511
-0.0315033
-0.028216
-0.0351808
-0.0418332
-0.0468831
-0.0647924
-0.0340473
-0.0433196
-0.0376307
-0.0451166
-0.068598
-0.0708763
-0.0791166
-0.0469206
-0.0582233
-0.0475756
-0.0541927
-0.0891493
-0.0783396
-0.0720689
-0.0620222
-0.0706401
-0.0559371
-0.0587729
-0.0875899
-0.0706905
-0.0718271
-0.0714611
-0.066568
-0.0588951
-0.0554332
-0.0787867
-0.0726823
-0.0696064
-0.0633038
-0.0550801
-0.0523244
-0.0408415
-0.0779658
-0.0671477
-0.063454
-0.0540978
-0.0570326
-0.0382018
-0.0372606
-0.0290761
-0.0289555
-0.0356194
-0.0212148
-0.0267565
-0.0223409
-0.0259537
-0.0508814
-0.0390499
-0.0453033
-0.0288991
-0.0353431
-0.0269999
-0.0284251
-0.0731141
-0.0448121
-0.0390025
-0.037424
-0.0431334
-0.0284004
-0.0287155
-0.0722962
-0.0370484
-0.034552
-0.0447908
-0.049146
-0.0294354
-0.0342266
-0.0624097
-0.0350873
-0.0412132
-0.0504552
-0.0540367
-0.036845
-0.0475706
-0.0682575
-0.0451886
-0.0640695
-0.0552403
-0.0559732
-0.051637
-0.0611319
-0.070569
-0.070709
-0.0798241
-0.0538804
-0.0420485
-0.0619586
-0.0540801
-0.0616875
-0.0781712
-0.0670814
-0.0384578
-0.034706
-0.0491518
-0.0376004
-0.0374893
-0.0412882
-0.0265507
-0.0277265
-0.0246552
-0.0277863
-0.0214025
-0.0330578
-0.0236225
-0.01984
-0.0242194
-0.0229386
-0.020012
-0.0187094
-0.0274699
-0.0194991
-0.0204191
-0.0226345
-0.0237448
-0.0192256
-0.0235628
-0.0272707
-0.0213711
-0.0267746
-0.0250366
-0.0321584
-0.0260367
-0.0369645
-0.0379496
-0.029871
-0.0476259
-0.0356146
-0.048388
-0.0417638
-0.0578033
-0.0664292
-0.0573649
-0.0839959
-0.0529869
-0.0629328
-0.0625869
-0.065563
-0.083932
-0.0886301
-0.0885112
-0.0636988
-0.0564938
-0.0619804
-0.0488355
-0.0719039
-0.086167
-0.0790513
-0.0519716
-0.0405183
-0.0457016
-0.0410973
-0.0272903
-0.0469379
-0.0309357
-0.0314023
-0.022375
-0.0338168
-0.0257547
-0.0212141
-0.0276981
-0.0272393
-0.0210714
-0.0205206
-0.0247801
-0.0257885
-0.023569
-0.0284952
-0.0351549
-0.0212339
-0.025913
-0.0271796
-0.0341776
-0.0311914
-0.0390225
-0.0564934
-0.0285199
-0.0401428
-0.0386994
-0.0554114
-0.0571519
-0.0653153
-0.0899939
-0.045244
-0.0618792
-0.0621936
-0.076277
-0.0904763
-0.0972051
-0.102534
-0.0663415
-0.0638057
-0.0760155
-0.0560597
-0.0835448
-0.0946805
-0.0625463
-0.057952
-0.0424979
-0.0464794
-0.0290296
-0.0740862
-0.0551228
-0.0471983
-0.0397994
-0.0375672
-0.0266385
-0.0257848
-0.0214257
-0.0172409
-0.0225555
-0.0167413
-0.022805
-0.0180689
-0.0243134
-0.0308266
-0.0247745
-0.0324182
-0.025212
-0.0322691
-0.0267456
-0.033886
-0.042743
-0.0351341
-0.0429471
-0.0345993
-0.0416571
-0.0358491
-0.0393748
-0.0569998
-0.0452966
-0.0510492
-0.043719
-0.0477725
-0.0397061
-0.0383697
-0.0661145
-0.0523397
-0.0534302
-0.0480359
-0.0435794
-0.0371675
-0.0311725
-0.0577844
-0.0527224
-0.0459189
-0.0403922
-0.0301554
-0.028418
-0.0199359
-0.0458996
-0.0420338
-0.0311888
-0.0279
-0.0243622
-0.0176736
-0.0141067
-0.0447036
-0.0291728
-0.0284574
-0.0241634
-0.0239967
-0.0137779
-0.0138194
-0.0222462
-0.0160603
-0.0199615
-0.017384
-0.0239114
-0.0153886
-0.0190246
-0.0318958
-0.0211002
-0.0236368
-0.026173
-0.0322707
-0.020144
-0.0225955
-0.0403503
-0.0243307
-0.0270625
-0.0337994
-0.0359922
-0.0230802
-0.0241715
-0.0374389
-0.0435233
-0.0376176
-0.0406951
-0.0388018
-0.0419147
-0.0364658
-0.0415027
-0.0482454
-0.0428274
-0.0442337
-0.0444302
-0.0446682
-0.040341
-0.0475399
-0.0508311
-0.0559633
-0.0281806
-0.0206789
-0.0342933
-0.0283488
-0.0319379
-0.0550348
-0.0434606
-0.0182636
-0.0138932
-0.0254047
-0.0180032
-0.0263939
-0.0385077
-0.0288433
-0.0133644
-0.0132245
-0.0166591
-0.0152707
-0.0179185
-0.0158129
-0.0142376
-0.0144654
-0.0161082
-0.0138375
-0.0144473
-0.0192112
-0.0143258
-0.0164783
-0.0168342
-0.0190129
-0.0150532
-0.0179629
-0.023508
-0.0177779
-0.0238802
-0.0197449
-0.0222715
-0.0193161
-0.0246325
-0.0286142
-0.0280834
-0.0248058
-0.0261807
-0.0275731
-0.0283588
-0.0257784
-0.0436666
-0.0409165
-0.0387886
-0.037423
-0.043318
-0.0411066
-0.0394868
-0.0576289
-0.0609435
-0.0566871
-0.0380076
-0.0313498
-0.0376277
-0.026151
-0.0456519
-0.0517704
-0.0384298
-0.0279393
-0.0194824
-0.0227065
-0.0171675
-0.0314246
-0.0357301
-0.0322654
-0.017917
-0.0161007
-0.0164375
-0.015634
-0.0149725
-0.0196677
-0.0168495
-0.0147465
-0.0148204
-0.015783
-0.0157292
-0.0171951
-0.0168679
-0.0204487
-0.0154795
-0.0188598
-0.0169902
-0.0228049
-0.025182
-0.0227633
-0.0319832
-0.0204831
-0.0267189
-0.0254039
-0.0325618
-0.0416305
-0.0370278
-0.0530287
-0.0292554
-0.0373296
-0.0352661
-0.0397595
-0.0609476
-0.0581197
-0.0650092
-0.0393492
-0.0387984
-0.0393101
-0.030773
-0.0530313
-0.0616008
-0.0387618
-0.0355341
-0.0223476
-0.0256554
-0.0143487
-0.0326587
-0.030702
-0.0183166
-0.0191668
-0.0150195
-0.0122854
-0.0102597
-0.0291958
-0.017059
-0.0171068
-0.0146407
-0.0144382
-0.0101627