/*--------------------------------*- C++ -*----------------------------------*\
  =========                 |
  \\      /  F ield         | OpenFOAM: The Open Source CFD Toolbox
   \\    /   O peration     | Website:  https://openfoam.org
    \\  /    A nd           | Version:  10
     \\/     M anipulation  |
\*---------------------------------------------------------------------------*/
FoamFile
{
    format      ascii;
    class       volVectorField;
    location    "5.7";
    object      U;
}
// * * * * * * * * * * * * * * * * * * * * * * * * * * * * * * * * * * * * * //

dimensions      [0 1 -1 0 0 0 0];

internalField   nonuniform List<vector> 
12920
(
(153.714 38.3884 74.528)
(13.6376 -5.50663 9.37748)
(143.965 -6.95846 -3.77054)
(41.5489 -4.12374 -4.54463)
(117.755 11.7813 -11.3238)
(80.3713 7.97978 -7.39458)
(113.752 15.3364 -5.77267)
(95.6283 12.0273 -3.79479)
(107.349 13.6936 -1.88331)
(96.2422 10.0624 -1.04404)
(100.927 7.37809 -0.0774394)
(95.3585 1.79656 0.428745)
(98.8077 -0.683771 0.428428)
(98.4434 -4.51218 0.506908)
(102.757 -5.62424 0.299356)
(105.54 -7.98492 -0.249836)
(112.669 -8.45469 -0.623939)
(118.656 -6.86393 -0.297729)
(121.854 -0.981431 0.175965)
(116.508 2.65106 -0.120909)
(146.298 -95.7537 57.2741)
(-43.6045 -25.7387 25.4797)
(112.247 13.3779 4.40723)
(-12.2646 16.3504 2.14733)
(89.0915 24.2531 -0.0330562)
(24.4398 13.3022 -0.739784)
(80.7921 16.0315 1.10094)
(50.3223 5.11452 1.4557)
(73.0454 2.76155 2.84891)
(57.3338 -4.07687 2.06153)
(67.4599 -4.55307 1.46568)
(61.5817 -5.60437 0.196838)
(67.5016 -4.39704 -0.400292)
(66.7101 -3.43901 -1.13641)
(70.5755 -2.7047 -1.30724)
(71.5239 -1.45619 -1.73624)
(74.0848 -0.459037 -2.1314)
(77.2106 1.43976 -2.55579)
(82.5332 3.74096 -1.91216)
(86.0782 2.74314 -0.615209)
(194.646 -7.23994 54.0487)
(31.4275 -22.7228 -15.3329)
(137.011 1.17855 -0.492988)
(33.3778 6.47478 2.28604)
(96.3936 -1.79945 3.87139)
(33.8904 5.01798 0.182926)
(80.4612 -4.36584 1.24084)
(50.3811 -1.04794 -0.0400608)
(71.5108 -3.78487 0.953414)
(54.4378 -1.4221 0.203329)
(62.7237 -1.6888 0.371082)
(54.8835 -0.754591 -0.176633)
(60.3853 -0.987246 -0.267557)
(58.718 -0.844155 -0.367861)
(62.763 -1.00727 -0.352814)
(63.461 -0.921066 -0.263476)
(65.9876 -0.8387 -0.0906552)
(67.418 0.0640263 0.05077)
(69.9912 1.4368 0.407743)
(72.4394 1.22805 0.458096)
(19.3561 -36.5037 171.573)
(-98.4595 12.5806 -33.8093)
(97.9917 19.6165 -2.21047)
(10.4106 16.5584 -4.11321)
(95.9486 12.4197 -1.3789)
(48.3744 11.62 -1.9751)
(84.1651 2.43705 -0.25576)
(54.1067 2.58319 -1.07921)
(68.8872 -1.53885 0.724901)
(50.0104 -1.52992 0.281792)
(57.8307 -3.6873 0.51571)
(49.8938 -3.83109 0.107284)
(55.6565 -4.76986 0.151986)
(54.1057 -4.31027 0.116027)
(57.742 -4.54112 0.172259)
(58.3075 -3.65669 0.177789)
(60.166 -3.52225 0.1877)
(61.2894 -2.28802 0.138587)
(63.1377 -1.78191 0.121668)
(66.5693 -2.18238 0.0988255)
(-72.3402 -74.8686 -49.7753)
(-119.122 -95.275 -15.2127)
(115.978 -51.3255 -5.00609)
(9.20518 -6.05944 3.64223)
(98.1715 -2.37501 3.00177)
(40.8456 10.4566 -0.0414272)
(80.067 2.9016 1.57624)
(49.675 10.0336 0.0384712)
(67.9019 1.12156 0.781302)
(52.7811 4.60512 0.0344403)
(62.6031 -2.03292 0.176345)
(56.9662 -1.04065 -0.015948)
(63.2457 -5.0722 0.198648)
(61.9703 -4.472 0.20357)
(65.3651 -5.73212 0.309362)
(65.2905 -4.91188 0.280476)
(66.8253 -4.82754 0.237924)
(67.0275 -3.25794 0.120559)
(68.3163 -2.70366 0.118083)
(70.1443 -2.60001 -0.00533669)
(143.287 90.367 150.706)
(-46.1626 -112.874 -12.8927)
(123.831 -70.3461 -6.88868)
(5.36456 -26.9498 2.37473)
(91.263 -20.6291 0.723945)
(17.3135 5.52568 0.677426)
(73.3909 -5.69542 0.520896)
(44.5856 4.02151 0.22609)
(64.5214 -3.54784 0.0595948)
(55.0707 -0.788823 -0.296183)
(64.9017 -5.88633 -0.431259)
(63.2985 -6.63473 -0.60191)
(69.7127 -9.8159 -0.174049)
(70.1106 -8.87937 0.123278)
(72.6108 -9.24028 0.410641)
(72.2299 -7.57439 0.683691)
(71.7641 -6.67308 0.655618)
(70.4035 -4.31518 0.282471)
(70.3495 -3.75167 0.220039)
(71.2827 -3.8786 0.131725)
(398.238 57.4316 -90.8996)
(193.311 -18.0437 -4.85784)
(199.675 3.29237 11.9318)
(70.9251 4.19869 3.60075)
(110.713 4.7249 -0.3068)
(50.1126 14.2597 -1.24246)
(80.4616 -19.8102 -0.32635)
(58.7486 11.729 -0.490172)
(75.2663 -6.84295 -0.743171)
(70.2852 3.89261 -1.13087)
(80.724 -7.01697 -1.16232)
(84.3182 -4.41123 -0.784744)
(93.9443 -11.3231 -0.124496)
(95.1798 -9.32487 0.350542)
(94.3869 -10.6329 0.84708)
(88.9028 -9.08255 1.01734)
(82.2264 -7.17246 0.912055)
(77.313 -3.33383 0.618247)
(75.1311 -3.26189 0.389431)
(75.2949 -4.04806 0.201337)
(405.698 -135.766 -474.449)
(-33.1858 35.5174 -28.7322)
(133.058 38.5906 5.61999)
(17.1648 13.8702 5.42548)
(100.278 8.75391 2.79911)
(54.2034 28.8493 0.54252)
(80.5303 4.82487 -0.781224)
(55.4602 -2.52368 -1.03396)
(73.1392 2.14119 -1.03303)
(71.0238 -4.83131 -1.21196)
(85.6893 -4.469 -1.03302)
(92.0866 -14.7949 0.0810237)
(101.695 -18.3261 0.684331)
(106.037 -16.6282 0.626929)
(96.8092 -7.90244 0.269573)
(87.6659 -2.00326 1.48093)
(76.5697 -0.78486 0.97534)
(72.5 -0.220206 0.225223)
(71.8034 -2.1905 -0.101193)
(75.2546 -5.14518 -0.0272945)
(186.288 34.2152 -70.7252)
(-115.087 32.5327 6.16555)
(125.731 3.95845 -3.11409)
(8.13976 -15.008 4.22645)
(94.5691 -24.1626 0.610928)
(49.6975 1.31245 -0.575812)
(87.3669 16.0152 0.331179)
(73.3512 -0.305089 -0.217054)
(75.2283 -0.522977 -0.550807)
(82.5309 -5.87538 -1.03637)
(95.6965 -14.8196 -0.110967)
(82.8016 -20.5624 1.14809)
(74.7181 -28.4858 0.168479)
(78.9247 -22.4863 -0.103694)
(83.5904 -6.4055 -0.200334)
(75.2364 2.53393 0.0646117)
(72.0766 2.69653 -0.00900542)
(71.8071 1.07023 -0.281555)
(74.3496 -3.94227 -0.268509)
(77.782 -7.31259 -0.248577)
(181.25 69.1946 -101.255)
(4.73315 5.00832 -5.78287)
(138.976 9.73879 9.40701)
(51.0618 -0.994849 3.59417)
(112.628 -2.8622 2.87481)
(76.2414 -3.81846 -1.09661)
(88.0091 -1.27762 -0.275959)
(99.2284 4.36708 -0.202965)
(104.698 1.68875 0.0580693)
(104.878 -4.75801 0.7286)
(85.2357 -9.11152 0.464814)
(82.2072 -9.49787 -0.719706)
(83.2568 -23.2348 -0.348555)
(81.2652 -16.0049 -0.13254)
(78.7902 -1.52917 -0.439919)
(74.5512 3.92994 -0.0282815)
(74.2941 2.98073 -0.293921)
(76.0237 0.153608 -0.390127)
(78.1943 -5.11254 -0.197235)
(78.2966 -7.1492 -0.204794)
(387.099 273.779 -122.699)
(102.126 88.7918 30.5309)
(164.559 -22.7956 14.2316)
(73.5398 -28.1005 2.30507)
(126.937 -34.725 5.41918)
(66.4829 -11.9839 0.224296)
(87.7515 0.81115 0.613269)
(90.4627 1.19571 -0.349036)
(89.5014 -2.76704 -0.275199)
(92.335 -6.31885 -0.265673)
(95.4312 -6.53887 -0.258945)
(98.6966 -5.14723 -0.335162)
(95.4495 -20.0379 0.545424)
(83.3327 -8.94992 0.178793)
(79.7363 1.4155 -0.377103)
(78.0176 4.25663 -0.174668)
(78.3689 3.13149 -0.104902)
(78.6646 -0.0523098 -0.0428462)
(78.6076 -3.689 -0.0217955)
(77.5025 -6.23989 -0.163268)
(196.926 -68.6916 89.9556)
(141.862 11.5307 4.16574)
(196.003 -18.7695 -3.95441)
(160.047 -11.2342 -2.48958)
(185.339 -10.1257 6.62612)
(103.292 -14.1476 1.80712)
(101.718 -7.95822 0.875785)
(97.5118 3.71303 -0.608177)
(101.156 1.07019 -0.548551)
(104.105 -1.87188 -0.3028)
(104.684 -1.21093 -0.234331)
(104.015 -3.27134 0.242513)
(84.802 -13.6052 0.789425)
(75.4935 -5.02247 -0.169075)
(75.1047 1.63053 -0.235798)
(74.4566 4.00081 0.158405)
(75.984 2.41789 0.44554)
(76.799 0.650471 0.28601)
(77.8366 -2.27662 0.10338)
(78.3564 -4.99216 -0.180043)
(90.9251 -120.867 81.9601)
(38.0539 -20.4507 -9.53326)
(154.178 -44.1715 -5.90523)
(102.149 -32.4863 -2.16486)
(137.308 -4.96006 2.31502)
(92.284 -10.4236 0.587423)
(105.221 7.95734 -0.0626438)
(97.0379 7.75331 -0.403902)
(106.066 3.2793 -0.125704)
(103.035 1.56211 0.214395)
(103.515 -0.732603 0.624021)
(87.4652 -3.53279 1.84)
(71.6517 -2.62809 0.703434)
(66.4329 -1.22964 -0.0041193)
(67.4582 -1.16578 0.240366)
(70.6007 -0.735063 0.360034)
(72.648 -2.08949 0.422443)
(74.9106 -2.81555 0.321708)
(77.1059 -4.12055 0.102021)
(79.4658 -5.62804 -0.167291)
(166.475 19.2462 32.9644)
(39.8923 12.2709 -13.2595)
(137.436 -26.6194 -4.59133)
(68.7086 -12.297 -6.87487)
(120.598 -2.82768 -2.58292)
(87.6644 1.93314 -0.625425)
(105.38 25.7776 0.350863)
(89.4059 -1.37274 0.47366)
(94.6425 8.47556 0.125781)
(82.5976 -2.18327 0.762706)
(81.6104 4.56539 0.960004)
(74.3709 -0.65507 0.909892)
(75.4399 0.505314 0.471203)
(73.4853 -3.34429 0.389701)
(75.2782 -3.14733 0.628597)
(76.1564 -3.78619 0.651979)
(78.9528 -4.56419 0.550522)
(80.4104 -4.85335 0.418191)
(83.1812 -5.62933 0.179291)
(85.3179 -6.18632 -0.0117126)
(229.101 250.951 97.5)
(128.774 105.292 15.8074)
(170.951 12.454 -1.67211)
(82.3201 0.0837063 -1.68895)
(112.232 3.1109 0.929551)
(49.4196 -2.58162 0.702966)
(90.5 8.12734 0.189894)
(65.2043 0.383417 0.698696)
(80.6939 1.96153 0.443746)
(70.6214 -1.42878 0.477559)
(77.3544 -1.09779 0.286409)
(75.3147 -3.513 0.0787274)
(79.4998 -4.35605 -0.144346)
(79.8581 -6.84392 -0.395596)
(83.0215 -7.76554 -0.49283)
(84.856 -8.58791 -0.243681)
(87.8966 -9.60744 0.0348449)
(89.6168 -8.70216 0.298613)
(92.3116 -8.3107 0.278068)
(93.4649 -7.38889 0.130679)
(219.333 43.5967 38.2197)
(169.165 54.9507 -5.24183)
(201.856 42.387 5.90895)
(103.508 17.1594 3.7339)
(117.926 18.5443 6.72469)
(68.2109 7.85175 1.55584)
(92.2364 11.1958 1.23546)
(75.0585 0.135394 0.256393)
(87.9458 2.09442 0.226506)
(79.8144 -3.30478 -0.110302)
(86.1935 -1.69735 -0.281413)
(83.7761 -3.8886 -0.619621)
(87.9838 -3.29031 -0.760161)
(87.7778 -5.14177 -0.95871)
(90.8099 -5.49415 -1.10708)
(92.632 -7.94378 -1.01887)
(96.9073 -9.91147 -0.610948)
(98.4181 -10.371 -0.00604543)
(101.01 -9.56397 0.26509)
(101.988 -7.62353 0.23718)
(126.169 36.4389 -114.63)
(57.9642 17.8306 -8.99012)
(160.36 28.2263 2.96608)
(68.4279 24.2233 1.31794)
(112.755 15.8272 2.03763)
(57.0064 7.46193 0.228047)
(94.8001 0.451463 -0.218422)
(74.3614 -0.471485 0.209245)
(93.8714 -1.90102 0.556897)
(86.8273 -0.980537 0.79639)
(95.4085 -1.97284 0.57536)
(92.9085 -2.63642 0.0547293)
(96.6676 -3.3514 -0.415791)
(96.0644 -4.7566 -1.1184)
(99.4573 -6.49157 -1.69804)
(102.367 -10.1686 -1.6988)
(106.116 -12.6386 -0.824119)
(107.062 -12.7011 -0.110334)
(108.705 -12.1473 0.316187)
(107.921 -9.83978 0.290463)
(183.78 147.781 172.981)
(135.025 113.552 41.7673)
(205.635 85.1808 1.46168)
(156.78 55.2952 -0.428506)
(181.918 32.952 0.466465)
(169.751 16.715 -0.411446)
(180.283 -0.25315 1.17191)
(169.876 -6.44469 1.09771)
(168.176 -12.6367 1.35756)
(157.368 -12.7882 0.430123)
(154.339 -10.063 0.900839)
(142.321 -6.22122 0.732933)
(137.769 -3.07171 0.67337)
(127.519 -1.73924 0.0326518)
(124.096 -2.47955 -0.461778)
(118.883 -6.14398 -0.443568)
(117.747 -10.1552 -0.256811)
(115.68 -11.8528 -0.143006)
(115.989 -11.2999 0.116295)
(112.88 -8.54575 0.0959612)
(174.561 37.4144 -41.5599)
(81.6665 35.6643 -7.43742)
(169.134 46.401 7.34954)
(138.047 31.4259 7.54786)
(165.599 16.1115 8.03637)
(142.404 4.5171 5.28809)
(151.156 0.434066 4.41549)
(136.536 1.95934 2.81058)
(139.28 4.45465 2.07311)
(130.612 7.22462 1.07366)
(131.991 8.66379 0.462118)
(128.162 9.24455 -0.309573)
(127.799 9.12381 -0.544169)
(123.666 9.12649 -0.358677)
(121.453 5.87985 0.0154885)
(116.207 -1.22067 -0.890163)
(116.486 -7.80539 -1.82844)
(116.427 -9.41599 -1.15306)
(118.184 -9.08584 -0.633347)
(116.365 -7.11364 0.00567346)
(19.776 177.004 -130.757)
(-85.6769 69.922 -23.8351)
(133.81 36.7034 -20.3289)
(120.81 13.7324 -5.92264)
(164.725 -2.5448 -3.67342)
(151.305 -8.45709 -3.89898)
(162.518 -16.0735 -3.47538)
(154.24 -17.3261 -3.2051)
(157.595 -17.7558 -2.08086)
(150.158 -14.9976 -1.45113)
(151.738 -9.92445 0.0989509)
(144.953 -1.62866 1.40755)
(146.602 5.6615 2.30122)
(144.403 8.15657 2.65091)
(145.555 8.75935 2.16257)
(144.829 8.18296 1.2253)
(144.97 2.5237 0.209795)
(139.053 -5.0873 -1.27506)
(136.813 -7.62983 -1.99163)
(131.038 -6.62656 -1.88173)
(105.511 -14.2729 -110.047)
(-8.695 -2.50635 6.6307)
(158.084 -18.1103 -10.7488)
(90.2004 -16.1269 -1.91918)
(143.969 0.406373 -11.1179)
(105.776 2.11441 -8.7526)
(123.268 10.1841 -6.82132)
(97.0462 4.75891 -5.41531)
(104.769 5.20126 -1.97808)
(93.0101 2.08005 -0.939298)
(98.0807 1.41717 0.706405)
(94.2192 -0.324177 0.983889)
(98.1627 -1.04249 0.972535)
(98.2257 -2.11561 0.59162)
(101.912 -2.4379 0.457753)
(103.932 -2.62816 -0.287215)
(107.307 -1.19895 -0.948359)
(107.473 1.43369 -0.98112)
(105.815 4.99935 0.309434)
(99.2503 3.76971 0.240543)
(62.366 -96.136 204.742)
(-104.86 -10.9437 -16.2965)
(98.0527 3.44495 -6.40245)
(-28.7993 4.58217 0.0469516)
(85.7522 18.573 -2.10461)
(16.4486 6.32397 -0.982545)
(74.626 10.9761 3.39921)
(41.1472 0.626076 2.46162)
(66.7933 0.656692 4.6982)
(52.2518 -3.80448 2.58021)
(64.0617 -2.68593 1.75491)
(58.5723 -3.25257 -0.221272)
(64.3979 -1.98699 -1.02316)
(62.951 -1.79869 -2.00815)
(66.1818 -1.02746 -2.2584)
(66.4209 -0.817406 -2.79217)
(68.15 -0.39883 -3.15107)
(69.1781 0.880369 -3.36198)
(71.1799 1.96341 -1.81308)
(73.1535 0.677501 -0.229176)
(214.38 189.308 -55.6708)
(-43.206 29.6522 10.7027)
(117.39 -1.68661 2.85382)
(-2.78425 0.62504 4.95977)
(88.3391 -6.44711 4.30549)
(18.4552 2.93132 -0.277189)
(70.3075 -5.03094 2.79202)
(34.7077 -0.171126 -0.0749148)
(59.7822 -2.72837 2.00895)
(42.2828 -0.495245 0.111264)
(53.8879 -1.40482 0.523566)
(46.7061 -0.950376 -0.495249)
(53.2453 -1.61607 -0.529185)
(51.33 -1.68082 -0.703457)
(55.3577 -1.92142 -0.554169)
(55.5771 -1.86785 -0.455043)
(57.6597 -1.78208 -0.235632)
(58.638 -0.917277 0.00193497)
(60.9255 0.286756 0.657828)
(63.617 0.133741 0.623981)
(153.106 -138.531 220.413)
(-118.692 10.694 15.0404)
(100.957 15.2129 1.4628)
(-5.8343 13.1772 -1.75149)
(82.0232 8.98744 -0.626579)
(25.1697 8.72076 -2.33351)
(67.4864 -0.652308 1.64324)
(32.8036 0.665607 -1.23904)
(55.201 -3.23655 1.80481)
(37.7551 -2.16004 0.207716)
(49.9268 -3.99851 0.759201)
(42.9583 -3.65632 0.0277359)
(49.6909 -4.51725 0.161065)
(47.9957 -3.9973 0.0583628)
(51.7165 -4.16636 0.191167)
(51.9732 -3.37584 0.172574)
(53.7468 -3.19734 0.198789)
(54.6117 -2.16401 0.142712)
(56.2506 -1.72839 0.248959)
(59.1911 -1.79267 0.137932)
(79.2565 -110.164 63.9308)
(-70.3724 -51.8061 -7.80401)
(89.7333 -53.8056 -10.8916)
(-18.8036 -7.76815 7.9853)
(85.6956 -6.39321 4.33389)
(17.4682 4.78583 0.112987)
(66.8562 -3.65982 3.41112)
(32.4518 5.34132 -0.289993)
(56.1758 -3.68333 1.35019)
(40.3317 1.7386 -0.163282)
(52.4388 -4.60266 0.309303)
(46.4552 -2.39221 -0.0499875)
(53.4229 -5.77489 0.329417)
(51.828 -4.34404 0.305837)
(55.4756 -5.3889 0.489968)
(55.3223 -4.34878 0.423919)
(56.8775 -4.41753 0.3689)
(57.2066 -3.08866 0.239462)
(58.601 -2.86773 0.279829)
(60.7289 -2.61403 0.0115719)
(229.298 194.856 45.4296)
(26.085 -4.51534 -13.9907)
(102.726 -45.5566 -18.1339)
(-6.12588 -18.0714 3.05705)
(79.0521 -18.1061 0.149644)
(3.6339 5.77913 0.895311)
(64.5828 -9.61101 0.904679)
(33.4567 2.56022 0.217314)
(55.0485 -6.18885 0.0918688)
(44.2119 -2.14701 -0.430307)
(54.2472 -7.6247 -0.393573)
(51.7989 -6.78933 -0.445542)
(57.3931 -8.99698 0.137534)
(57.2575 -7.27424 0.458077)
(59.6746 -7.37415 0.830415)
(59.6137 -5.5904 1.06454)
(60.2201 -5.22645 0.952503)
(59.8432 -3.86305 0.48306)
(60.4447 -3.77699 0.440303)
(62.1111 -3.6999 0.172445)
(172.834 176.102 -40.0008)
(28.8852 68.8522 1.29722)
(139.085 21.5318 10.0816)
(45.5649 0.223978 6.27658)
(95.2941 -0.476378 0.495526)
(30.2736 9.5871 -1.42259)
(64.4775 -26.3917 -0.175982)
(40.0826 9.86746 -0.691876)
(58.3192 -11.8619 -1.10187)
(52.1579 0.644657 -1.37764)
(63.9787 -11.5681 -1.0272)
(64.9523 -7.77711 -0.37946)
(72.2049 -11.8542 0.433294)
(71.7106 -7.93145 0.999602)
(71.1453 -8.50616 1.47845)
(68.0236 -6.03722 1.40946)
(65.9047 -5.12791 1.37991)
(63.9602 -3.29079 0.810837)
(64.0991 -3.71514 0.583672)
(65.5932 -4.03843 0.326089)
(36.1545 -87.9986 -200.23)
(-113.167 -5.47167 46.1555)
(84.9895 4.47965 -4.54819)
(-5.41601 -2.94913 5.04308)
(86.9431 -0.184589 1.29747)
(38.6331 22.9181 1.20799)
(66.6137 -4.72248 0.584329)
(43.9692 -3.41544 -1.74795)
(60.0837 -4.6219 -1.56158)
(58.2976 -11.2231 -1.99036)
(71.3004 -13.5281 -0.841419)
(76.0598 -19.3029 1.07753)
(84.3821 -17.6263 1.66653)
(84.7109 -12.5635 0.851295)
(72.04 -3.75345 0.341254)
(68.4865 -1.00841 1.91808)
(64.5851 -1.59546 1.13113)
(63.6518 -1.74978 0.262486)
(64.2983 -3.82871 0.0439488)
(67.0704 -5.12555 0.0395628)
(214.344 -102.626 -176.293)
(-7.06566 12.2375 18.1034)
(110.583 -3.10293 -17.1737)
(8.64374 -18.6428 6.28113)
(83.9099 -22.5677 -1.22875)
(41.8278 2.29475 0.141709)
(74.8372 7.7977 1.09324)
(64.8784 -4.9227 -0.17761)
(69.8826 -8.66083 -1.37866)
(74.1331 -15.9228 -1.74287)
(79.2075 -19.7537 1.58592)
(75.5258 -20.4784 2.82623)
(74.2735 -19.5268 0.0821247)
(75.5107 -12.9244 -2.06952)
(71.3503 -2.28263 -0.991721)
(64.4738 1.09307 -0.188481)
(64.0927 -0.15363 -0.300124)
(64.7518 -2.43391 -0.450984)
(66.8448 -5.99829 -0.187778)
(68.6173 -6.6182 -0.251706)
(192.874 57.1742 -167.104)
(-58.5072 21.8604 -12.9932)
(126.719 22.5125 -12.0276)
(26.4098 1.22096 3.64107)
(99.288 -4.14958 2.77615)
(65.8305 -5.97025 -2.49504)
(79.798 -4.28161 -0.596966)
(84.1563 -4.10747 -0.0193931)
(85.9172 -9.8379 0.949943)
(82.7127 -13.8224 2.01682)
(76.9774 -12.5222 0.753528)
(73.9762 -15.0163 -1.88357)
(73.0778 -19.1215 -0.911161)
(72.2618 -9.95561 -0.940625)
(69.3771 -0.740982 -0.686456)
(66.7261 1.37602 -0.488268)
(67.4154 -1.48926 -0.604183)
(68.0847 -3.78398 -0.456431)
(68.9841 -6.56256 -0.0977787)
(68.8149 -6.64528 -0.196302)
(30.913 173.67 -42.6467)
(-62.9018 28.8385 70.8369)
(136.588 -35.9751 9.12341)
(32.7623 -25.1446 7.09663)
(106.541 -30.2806 9.30641)
(63.2377 -16.0876 3.71115)
(85.1767 -8.00514 2.55819)
(86.9236 -5.11531 0.524999)
(84.3174 -7.96973 -0.549169)
(83.6408 -10.4185 -1.04402)
(84.2149 -11.1694 -2.06727)
(84.6722 -13.8322 -1.42911)
(81.4418 -18.5562 2.30427)
(76.8896 -5.42752 0.26654)
(72.917 0.634601 -0.4947)
(70.0692 0.748512 -0.424331)
(69.8756 -1.95975 -0.0757173)
(68.9116 -3.89736 0.0687743)
(68.7423 -5.6942 0.0764459)
(67.9416 -6.17265 -0.166098)
(247.193 36.0342 230.594)
(175.831 -1.98533 36.0146)
(190.752 -30.2519 7.06493)
(112.735 -9.94572 -1.22809)
(136.626 -8.76379 9.89093)
(106.508 -11.6393 5.66465)
(107.578 -14.7568 4.45095)
(94.2653 -6.26366 -0.531686)
(91.7341 -6.75452 -1.44613)
(89.1956 -7.8871 -1.29451)
(87.2657 -9.0918 -0.719697)
(82.6482 -13.552 2.69848)
(73.0913 -10.7694 2.3599)
(69.8918 -2.75335 -0.635594)
(68.2818 0.527678 -0.172994)
(66.795 0.252772 0.211806)
(67.6959 -1.6247 0.614756)
(67.5934 -2.59819 0.38193)
(68.4059 -4.47844 0.188012)
(68.4855 -5.42702 -0.183864)
(208.314 -33.2931 -41.8783)
(30.5907 24.0388 -10.2678)
(144.726 -12.9178 -8.9689)
(64.9444 -0.825855 -1.34101)
(114.493 7.19499 5.21425)
(69.2729 -16.8628 2.01168)
(89.0549 0.461975 2.15234)
(76.177 -1.49241 0.895047)
(84.1237 -3.80895 -0.0137139)
(78.5712 -4.39122 0.411726)
(78.0561 -6.39921 1.94469)
(65.965 -5.48507 4.50284)
(63.8789 -3.42697 1.44362)
(61.5919 -2.30279 0.171747)
(62.4308 -2.62165 0.22299)
(64.3616 -2.78879 0.454058)
(65.6264 -3.80676 0.579016)
(66.7558 -4.13576 0.425762)
(68.3557 -5.25707 0.172949)
(69.4354 -5.8542 -0.193706)
(106.105 14.498 3.34568)
(-2.06711 22.4561 -28.8541)
(136.963 -15.4878 -16.1997)
(56.4511 -10.355 -9.78866)
(107.399 -7.72411 -1.15476)
(64.39 -6.72148 -0.233693)
(85.8767 19.2892 0.701559)
(65.6578 -11.5405 1.11137)
(73.8021 3.22278 0.509814)
(62.6516 -8.13114 1.51201)
(66.2333 0.502504 1.44492)
(61.9042 -4.47977 1.28565)
(65.0669 -2.02456 0.627317)
(64.0265 -4.79485 0.581412)
(66.3277 -3.77693 0.92489)
(67.3528 -4.00393 0.870353)
(69.8018 -4.35777 0.725095)
(70.6294 -4.71723 0.57065)
(72.7746 -5.69517 0.290911)
(73.7981 -6.01284 -0.0348994)
(183.691 63.559 -83.3019)
(90.629 39.8641 -17.4777)
(155.84 21.4346 4.90769)
(61.2928 5.49525 5.01125)
(100.233 3.37023 6.1)
(34.7604 -6.63193 1.5915)
(80.418 4.66806 0.138808)
(53.0279 -4.13909 1.2297)
(70.0569 -1.33127 0.672101)
(59.4899 -4.63153 0.775634)
(67.1637 -3.4248 0.438734)
(64.7624 -4.92024 0.0758778)
(68.6321 -4.96147 -0.18242)
(68.4422 -6.31146 -0.452485)
(70.4804 -6.45652 -0.466346)
(71.6256 -6.80155 -0.151026)
(74.2061 -7.37722 0.203196)
(75.7982 -6.71211 0.509489)
(78.2569 -6.93381 0.432867)
(79.0199 -6.40586 0.132738)
(100.363 9.23722 113.179)
(-50.4368 25.9999 35.778)
(131.997 30.15 28.502)
(31.744 10.6002 8.37073)
(96.7678 15.0748 9.17349)
(49.4714 1.3376 1.31693)
(82.0917 4.98822 1.80056)
(63.6749 -5.61501 0.586898)
(78.2559 -2.33638 0.626435)
(69.2816 -6.96802 -0.0773299)
(75.9595 -4.69866 -0.289997)
(72.5971 -6.60757 -0.829202)
(76.3272 -5.90038 -0.904966)
(75.4471 -7.21752 -1.17528)
(77.7051 -7.24612 -1.2183)
(78.3517 -8.44521 -0.970778)
(80.9978 -9.03233 -0.468259)
(82.3881 -8.36524 0.302173)
(85.1142 -7.58635 0.5393)
(85.9484 -6.28693 0.39982)
(149.965 14.6002 -125.348)
(29.4307 -24.0893 -56.1981)
(133.467 2.14844 -21.1125)
(38.4684 9.8237 -4.57685)
(104.164 6.3536 -1.65928)
(54.8803 1.14401 -0.763818)
(90.8473 -4.07418 -0.461665)
(69.6957 -4.45702 0.534)
(87.4541 -5.10328 1.18054)
(78.9728 -4.25811 1.21153)
(86.7721 -5.27341 0.775388)
(82.9707 -5.92264 -0.165318)
(85.9087 -7.08066 -0.720064)
(83.8856 -8.07881 -1.53436)
(85.1879 -9.55547 -1.94947)
(84.9235 -11.4364 -1.77218)
(86.5614 -12.2608 -0.910508)
(87.5828 -10.9611 0.116517)
(90.1816 -9.44783 0.698333)
(90.4155 -7.00721 0.471048)
(388.945 194.377 -138.106)
(188.328 160.008 -62.4332)
(195.272 89.2753 3.46753)
(118.953 41.596 5.50925)
(149.368 19.448 3.06903)
(129.626 4.92968 -0.662764)
(142.4 -6.6219 2.10585)
(129.454 -9.83763 1.79343)
(131.364 -11.3546 2.54712)
(120.571 -9.67119 1.1383)
(119.156 -7.50907 1.61786)
(110.92 -5.69408 0.785708)
(109.184 -5.42835 0.510342)
(103.146 -5.88616 -0.37595)
(101.441 -8.34775 -0.93317)
(98.0362 -10.9071 -0.800091)
(97.5751 -12.1908 -0.414629)
(96.3546 -11.9287 -0.0680943)
(96.8865 -9.78793 0.445337)
(94.551 -6.26593 0.235992)
(187.741 111.124 19.9813)
(32.6328 98.9474 -4.8026)
(144.391 48.9546 -0.852866)
(104.01 22.8314 5.43319)
(144.671 8.12811 8.92822)
(122.379 1.69675 5.91585)
(136.282 0.642315 6.40199)
(120.479 2.63705 3.93561)
(124.397 3.79946 3.48588)
(115.073 4.88623 1.60132)
(116.932 4.78412 1.04311)
(112.678 4.30275 -0.388736)
(113.135 3.19007 -0.891172)
(109.535 1.70724 -1.22845)
(110.037 -2.28093 -1.47522)
(107.219 -7.3704 -3.05901)
(105.671 -10.5535 -3.23383)
(102.59 -10.1361 -1.80181)
(101.781 -7.4573 -0.149941)
(97.6816 -4.55099 0.134546)
(156.409 263.595 110.11)
(47.3127 119.03 7.80461)
(162.829 79.2329 -11.8527)
(144.156 41.6127 1.75201)
(178.864 14.6996 3.24897)
(162.712 5.3121 -1.05663)
(169.328 -2.23101 -1.27866)
(157.207 -3.70956 -2.37625)
(157.312 -6.0831 -0.332398)
(148.105 -5.04303 -0.101351)
(147.396 -4.31957 2.08853)
(142.457 -1.23945 3.29518)
(144.145 1.55355 4.14039)
(144.201 3.14698 4.41538)
(146.287 2.77468 3.65287)
(145.568 0.459916 1.73294)
(140.375 -6.41799 -0.0422023)
(125.719 -8.64573 -0.811778)
(117.61 -6.04943 -0.921679)
(107.823 -1.82843 -1.14164)
(29.2468 -26.8805 -15.1772)
(1.05813 -18.4233 -7.59849)
(161.721 -14.5538 -31.4183)
(93.6011 -17.3161 -9.15639)
(141.016 -2.6336 -15.9225)
(100.323 -3.9257 -11.0464)
(118.998 4.59011 -4.4249)
(90.7888 -0.222643 -3.22419)
(99.2958 1.34848 0.427599)
(87.4411 -0.641052 0.212312)
(93.6958 0.162805 1.37237)
(90.2282 -0.0583869 0.876114)
(94.4009 0.309032 0.676229)
(93.635 0.598573 0.109304)
(95.7976 1.30197 -0.316107)
(95.1511 1.89397 -1.28811)
(94.4015 3.66979 -1.31563)
(89.1971 5.57605 -0.400716)
(85.3185 5.3214 1.39687)
(82.3306 2.15695 0.857462)
(226.176 -254.687 107.381)
(-109.107 -28.9755 -2.84803)
(94.8985 -4.87786 -21.9228)
(-46.7368 -1.03834 -0.908974)
(77.3697 16.3546 -7.54265)
(2.06255 1.77212 -1.70169)
(66.4898 8.02676 3.81092)
(30.455 -1.37331 2.35179)
(60.1295 0.564909 4.806)
(45.8034 -2.65491 1.96558)
(59.2886 -0.904358 1.38371)
(53.47 -1.51363 -0.658012)
(59.351 -0.3958 -1.387)
(56.9841 -0.619397 -2.40356)
(59.7754 -0.0695275 -2.64628)
(59.0291 -0.23395 -3.05794)
(60.0028 0.121076 -2.89473)
(59.54 0.605905 -2.48582)
(60.3041 0.826234 -0.713428)
(61.9818 -0.315334 0.391711)
(85.7947 71.2043 -63.2234)
(-72.374 8.02144 2.56271)
(97.075 -7.61029 -11.2059)
(-28.2866 -1.57575 5.25551)
(78.7161 -8.17226 2.10536)
(2.9609 1.70308 0.781997)
(61.5161 -5.66705 3.30564)
(22.062 0.0679306 -0.434263)
(51.4958 -2.36807 2.02893)
(33.3546 -0.0378271 -0.182574)
(47.268 -1.16583 0.419475)
(39.6894 -0.774194 -0.652581)
(46.8549 -1.63089 -0.552078)
(44.3478 -1.66343 -0.795846)
(48.3322 -1.95664 -0.539295)
(48.003 -1.84668 -0.466935)
(49.8421 -1.71255 -0.178983)
(50.4153 -0.886435 0.0604471)
(52.2312 -0.16378 0.713053)
(54.8442 -0.321351 0.710657)
(86.7308 -123.665 214.905)
(-160.291 22.2794 25.5898)
(88.5149 12.485 -10.4151)
(-24.0965 10.1089 -2.71387)
(67.5736 5.26828 -2.38448)
(4.08209 5.62783 -1.80914)
(55.6935 -3.03988 2.25298)
(18.2985 -0.130827 -1.48563)
(46.6815 -3.80034 1.54871)
(28.941 -1.98768 -0.114644)
(43.4625 -3.85588 0.659527)
(36.167 -3.2336 -0.0802712)
(43.5306 -4.13593 0.105407)
(41.4135 -3.54643 -0.0757067)
(45.2267 -3.74137 0.103099)
(45.1673 -3.00879 0.0660944)
(46.8893 -2.85916 0.164936)
(47.5711 -1.94261 0.148145)
(49.0199 -1.59671 0.317345)
(51.6911 -1.46978 0.244863)
(45.274 -142.003 -10.1341)
(-90.766 -42.2779 -19.9971)
(71.72 -59.1498 -11.4187)
(-36.9578 -11.1698 8.37858)
(74.198 -10.8781 3.42267)
(-1.30536 0.409821 0.832079)
(57.0199 -8.44948 3.59267)
(19.4044 3.04375 -0.869072)
(47.5467 -6.30302 1.22864)
(30.4818 0.675911 -0.303596)
(44.3275 -5.72802 0.329807)
(37.6255 -2.52744 -0.104589)
(45.1765 -5.75245 0.287467)
(43.1587 -3.80922 0.193185)
(47.0641 -4.87482 0.432168)
(46.8245 -3.75288 0.329717)
(48.5155 -3.96365 0.326392)
(48.9309 -2.76971 0.249313)
(50.3463 -2.69597 0.336634)
(52.5392 -2.25538 0.13611)
(183.829 27.7293 -160.509)
(55.6662 -8.80286 -27.8331)
(90.3373 -36.9704 -6.21828)
(-12.1812 -14.5708 5.47858)
(68.366 -18.4131 1.70568)
(-7.54444 4.00265 1.2591)
(56.8086 -13.5459 0.823698)
(22.9097 1.433 -0.0147269)
(46.6116 -8.32404 0.0808115)
(34.2448 -2.75768 -0.432366)
(45.083 -8.38565 -0.241609)
(41.6146 -6.16772 -0.223219)
(47.2552 -8.01722 0.201162)
(46.7818 -5.75504 0.467216)
(49.1848 -6.02189 0.819286)
(49.4893 -4.34822 0.89616)
(50.6476 -4.42563 0.788382)
(50.8806 -3.32041 0.432398)
(51.7915 -3.47171 0.469418)
(53.7634 -3.11946 0.275853)
(128.966 -21.0215 -176.216)
(-39.1994 13.5443 0.501733)
(107.079 5.54826 -0.321159)
(23.8628 -5.77429 5.2316)
(82.1551 -4.68382 2.39223)
(14.6418 5.69301 -0.737836)
(53.1662 -31.1404 -0.113173)
(26.4499 9.24689 -0.904865)
(46.5335 -15.5372 -1.26621)
(38.7144 -0.310618 -1.15409)
(50.7985 -13.1186 -0.800544)
(49.698 -6.66522 -0.0958092)
(55.9637 -10.4217 0.637392)
(54.3357 -5.5608 1.00419)
(55.1836 -6.20185 1.25578)
(53.83 -4.18745 1.09649)
(54.0829 -4.08645 1.09811)
(53.7106 -3.07861 0.677391)
(54.6242 -3.64061 0.600329)
(56.6095 -3.49462 0.449584)
(40.3509 -111.309 -185.426)
(-42.6796 -35.0908 -3.18461)
(78.0581 -11.8035 -4.32973)
(-10.3739 -11.8826 5.43838)
(76.5876 -6.25848 1.7069)
(25.2245 18.8887 1.44534)
(54.1857 -12.6131 0.290206)
(33.4733 -3.52372 -1.48029)
(49.0448 -10.2962 -1.9686)
(46.3555 -13.6864 -1.78311)
(57.7496 -15.7658 -0.607666)
(60.1455 -16.8728 1.06737)
(66.5849 -13.1388 1.40669)
(64.5602 -8.09463 0.863344)
(55.6137 -2.56224 1.26463)
(55.3845 -1.53356 1.48595)
(54.7196 -2.23361 0.849747)
(55.0745 -2.29068 0.237758)
(56.1237 -4.10182 0.196833)
(58.3483 -4.25019 0.170982)
(171.349 -220.595 -118.432)
(20.2725 -35.6741 28.2085)
(85.9265 -14.3506 -6.25256)
(1.79777 -22.6093 8.28492)
(71.3598 -23.4188 -0.710312)
(30.2443 2.41778 1.14161)
(59.8124 0.37072 1.17519)
(52.5265 -10.8894 -0.708038)
(59.5102 -14.4307 -1.76316)
(60.9782 -19.4414 -1.33987)
(64.117 -19.5929 1.41368)
(63.6271 -18.0092 1.83723)
(65.0124 -13.8334 -0.14599)
(64.375 -7.7318 -1.66427)
(59.7779 -1.29803 -0.490621)
(55.4938 -0.615111 0.148963)
(55.8035 -2.15559 -0.20588)
(56.5074 -3.69227 -0.266292)
(58.1241 -5.68963 0.0421054)
(59.3684 -5.39319 -0.028576)
(342.92 17.3989 -25.6968)
(46.1639 7.05834 21.1898)
(111.124 20.5402 -1.12489)
(11.4165 -2.65555 7.87976)
(85.9145 -6.63004 2.70722)
(49.9851 -8.41624 -2.2227)
(66.6402 -6.51725 -0.0271243)
(71.0915 -9.74372 0.223507)
(71.459 -14.6856 0.794467)
(68.9628 -16.1629 0.954032)
(66.1218 -14.1935 -0.0117031)
(63.6236 -15.0964 -1.17885)
(63.2917 -13.4838 -0.62452)
(63.0335 -6.43683 -1.12518)
(60.4679 -1.1043 -0.458647)
(58.2247 -1.16533 -0.144894)
(58.685 -4.00067 -0.234654)
(58.6741 -4.87251 -0.146233)
(59.4412 -6.12914 0.130334)
(59.4726 -5.504 0.0132675)
(-57.6798 3.95116 -71.0849)
(-120.224 -39.198 39.5369)
(98.1076 -32.7896 -0.365561)
(-7.61184 -21.4177 9.9553)
(88.8174 -25.9405 7.87428)
(43.5035 -15.4216 3.66376)
(69.7343 -12.2834 3.4342)
(75.3477 -11.0189 0.910117)
(74.2136 -12.1129 -0.672741)
(71.9188 -13.3796 -2.17751)
(73.3958 -13.8237 -3.63449)
(71.2125 -16.9945 -0.568852)
(70.0511 -12.1239 1.35628)
(67.6851 -3.80483 -0.16771)
(63.7212 -0.876916 -0.252271)
(60.6139 -2.50357 0.224325)
(59.9763 -4.46584 0.293596)
(59.0711 -5.00035 0.275333)
(59.2195 -5.66548 0.262206)
(58.8305 -5.33357 -0.000755421)
(438.175 79.2238 156.637)
(161.657 -14.1936 62.7937)
(174.732 -50.4304 22.6292)
(61.7735 -10.4306 1.13764)
(104.407 -10.508 9.32633)
(71.457 -17.9779 4.89332)
(86.7864 -22.2935 4.81743)
(82.2986 -11.9161 0.172657)
(78.3519 -10.2693 -1.24573)
(73.993 -10.841 -1.40609)
(70.3892 -12.4812 -0.159443)
(65.0945 -13.5577 3.52808)
(63.5345 -7.32309 1.09411)
(62.9456 -2.26604 -0.672029)
(60.876 -1.54238 0.139703)
(58.4134 -2.17467 0.68184)
(58.7163 -3.50074 0.670716)
(58.3769 -3.75594 0.444194)
(59.1795 -4.75138 0.29918)
(59.2979 -4.86106 -0.025396)
(161.354 -98.9932 -143.578)
(46.3262 41.8515 -19.3073)
(124.162 -2.77317 -8.84666)
(32.2014 11.829 0.908371)
(98.7101 4.83627 5.76723)
(50.5669 -24.1159 2.5054)
(72.9752 -4.83119 2.27846)
(58.7416 -6.06824 0.782119)
(67.4314 -6.87484 -0.0454947)
(59.1208 -7.5323 0.875101)
(60.0843 -8.07679 2.65141)
(54.5239 -5.72969 3.48215)
(56.9984 -3.75745 1.10073)
(55.7866 -3.02955 0.312388)
(55.7255 -3.50714 0.472232)
(56.7079 -3.83442 0.501601)
(57.3622 -4.34515 0.561217)
(57.9617 -4.43527 0.415864)
(59.306 -5.18057 0.247438)
(60.0011 -5.22385 -0.0453902)
(119.484 -19.1759 -138.392)
(24.7283 -4.42157 -42.6987)
(126.79 -25.7393 -18.9076)
(32.3654 -11.428 -6.39514)