/*--------------------------------*- C++ -*----------------------------------*\
  =========                 |
  \\      /  F ield         | OpenFOAM: The Open Source CFD Toolbox
   \\    /   O peration     | Website:  https://openfoam.org
    \\  /    A nd           | Version:  10
     \\/     M anipulation  |
\*---------------------------------------------------------------------------*/
FoamFile
{
    format      ascii;
    class       volVectorField;
    location    "5.7";
    object      U_0;
}
// * * * * * * * * * * * * * * * * * * * * * * * * * * * * * * * * * * * * * //

dimensions      [0 1 -1 0 0 0 0];

internalField   nonuniform List<vector> 
12920
(
(139.364 19.6405 67.1976)
(-15.1706 -10.3425 10.156)
(126.105 -8.5169 -4.80387)
(23.4689 -5.53259 -4.81859)
(101.785 11.1264 -11.4384)
(64.6101 7.32908 -7.45958)
(98.7677 14.7782 -5.74753)
(81.5339 11.5867 -3.74354)
(93.7459 13.3532 -1.85196)
(83.2913 9.75633 -1.02551)
(88.4438 7.08608 -0.0693769)
(83.3803 1.51444 0.437805)
(87.2466 -0.923983 0.431971)
(87.2605 -4.69699 0.508403)
(91.8732 -5.78384 0.294777)
(94.9012 -8.11557 -0.25832)
(102.296 -8.53281 -0.623476)
(108.599 -6.87242 -0.295773)
(111.994 -0.977332 0.168934)
(107.376 2.70092 -0.127594)
(136.922 -109.295 33.0107)
(-55.3096 -28.7343 24.7184)
(96.9247 12.8842 3.23563)
(-29.1305 14.5737 2.01358)
(73.6358 23.649 0.138251)
(8.9599 11.954 -0.823699)
(65.923 14.8962 1.10549)
(36.4684 4.00049 1.60296)
(59.5727 1.71743 2.87395)
(44.5045 -5.03255 2.08825)
(55.0545 -5.34597 1.46616)
(49.7014 -6.26285 0.197523)
(55.9983 -4.93324 -0.403215)
(55.5637 -3.88175 -1.13972)
(59.6992 -3.05993 -1.30631)
(60.8528 -1.73655 -1.7381)
(63.6138 -0.676333 -2.13929)
(67.1271 1.26511 -2.56129)
(72.7733 3.59146 -1.91286)
(77.1292 2.68188 -0.635251)
(184.891 -23.9714 11.531)
(10.9307 -20.8186 -19.3954)
(120.874 -2.05192 -0.693199)
(15.7712 4.48094 2.269)
(80.8391 -4.70869 4.28857)
(17.7721 2.21394 0.329761)
(65.7042 -6.62703 1.3115)
(36.4588 -3.11508 0.071732)
(58.0514 -5.51716 0.965529)
(41.7248 -2.98905 0.259216)
(50.4776 -2.98275 0.375386)
(43.1473 -1.86401 -0.165254)
(49.0201 -1.90467 -0.262906)
(47.6914 -1.60318 -0.355579)
(51.9905 -1.61562 -0.343648)
(52.8766 -1.40212 -0.253937)
(55.5773 -1.20133 -0.0876486)
(57.3518 -0.205796 0.0539766)
(60.2829 1.23947 0.3991)
(63.6232 1.15038 0.434286)
(10.2334 -44.5122 192.247)
(-114.028 11.7185 -31.9228)
(77.6191 17.0072 -2.45499)
(-5.34479 13.9568 -4.09781)
(80.0989 8.08013 -1.36209)
(33.7517 7.87744 -1.88868)
(70.1036 -0.892195 -0.241333)
(40.7919 -0.433041 -0.967804)
(55.9024 -4.04428 0.744377)
(37.6015 -3.70905 0.354591)
(45.8673 -5.50654 0.522597)
(38.3743 -5.37912 0.134547)
(44.4881 -6.03815 0.15825)
(43.2487 -5.35026 0.133375)
(47.1191 -5.37241 0.180783)
(47.8545 -4.31256 0.185103)
(49.8635 -4.01135 0.188082)
(51.3158 -2.63023 0.14119)
(53.5503 -2.00245 0.11952)
(57.9031 -2.25807 0.078715)
(-80.0098 -63.5181 -23.2504)
(-135.225 -101.352 -11.4456)
(97.7636 -54.3404 -5.14527)
(-9.5733 -12.5584 3.47634)
(81.7258 -7.51082 2.84523)
(25.8443 5.30289 0.220555)
(66.0157 -1.24471 1.50413)
(36.5197 6.19889 0.172202)
(55.2547 -2.03763 0.781811)
(40.7605 1.86977 0.0914495)
(51.0036 -4.32064 0.184067)
(45.7869 -2.96443 0.015011)
(52.3848 -6.66659 0.208251)
(51.3647 -5.7649 0.214658)
(54.9671 -6.78068 0.317154)
(55.0389 -5.72215 0.285764)
(56.7171 -5.42249 0.238006)
(57.2258 -3.65408 0.121692)
(58.8787 -2.9293 0.111383)
(61.6218 -2.67429 -0.026417)
(121.131 115.096 139.606)
(-75.6739 -124.456 -13.8001)
(102.978 -81.1101 -7.06625)
(-12.9285 -37.7011 2.50758)
(76.9287 -27.9637 0.612167)
(3.60859 -1.30584 0.739096)
(60.6976 -11.0701 0.479192)
(32.2931 -0.680334 0.259131)
(52.7038 -7.37588 0.0623217)
(43.6095 -4.02138 -0.271411)
(53.8095 -8.5767 -0.432001)
(52.5054 -8.89481 -0.586945)
(59.1833 -11.6723 -0.154397)
(59.7804 -10.388 0.135222)
(62.4395 -10.4846 0.420124)
(62.1862 -8.53137 0.691565)
(61.8398 -7.36978 0.653922)
(60.7811 -4.7801 0.27792)
(61.0829 -4.0131 0.205489)
(62.9243 -3.96519 0.102831)
(404.361 19.4675 -93.4008)
(162.247 -38.1425 -2.3984)
(177.971 -11.8151 11.3388)
(53.431 -7.74808 3.3405)
(98.063 -4.44894 -0.539249)
(37.0073 6.67012 -1.24822)
(68.6588 -26.0637 -0.338839)
(47.2716 6.68243 -0.447134)
(64.2043 -11.0553 -0.721712)
(59.5163 0.335949 -1.10572)
(70.2105 -10.0288 -1.15415)
(74.0711 -6.95152 -0.774206)
(83.8989 -13.4339 -0.116301)
(85.2027 -11.0197 0.360022)
(84.4929 -12.0715 0.865398)
(79.0643 -10.1699 1.02758)
(72.5209 -7.95122 0.910411)
(67.9062 -3.86861 0.614435)
(66.0735 -3.57299 0.371164)
(67.1272 -4.15641 0.170457)
(379.634 -162.87 -438.829)
(-50.4022 14.0865 -27.6783)
(117.208 20.7242 4.09013)
(5.616 0.813762 5.29721)
(90.3822 -1.2144 2.67653)
(43.5901 20.8064 0.600725)
(71.9383 -0.132879 -0.778049)
(45.0532 -6.13234 -0.984667)
(62.641 -0.890641 -0.998485)
(60.8223 -6.90099 -1.20271)
(75.5771 -6.14601 -1.04018)
(82.2164 -15.899 0.090156)
(91.9753 -18.9398 0.683586)
(96.527 -16.7874 0.644546)
(87.1683 -9.43726 0.294463)
(78.0646 -3.13627 1.50877)
(67.1198 -1.64761 0.972159)
(63.3652 -0.840092 0.220255)
(62.9977 -2.55352 -0.120128)
(67.3328 -5.28487 -0.0626199)
(181.024 16.5226 -68.8096)
(-112.139 8.96513 2.93441)
(117.957 -10.0127 -2.63706)
(0.245267 -26.4841 4.08175)
(86.9842 -33.5327 0.680733)
(41.7328 -4.34997 -0.551272)
(78.6123 10.7767 0.424558)
(63.3653 -4.46234 -0.177531)
(65.4134 -3.99439 -0.517806)
(72.8222 -8.54253 -1.04658)
(86.0727 -16.8675 -0.0975628)
(72.8506 -22.1398 1.13684)
(65.1701 -29.4191 0.167623)
(69.5119 -22.8604 -0.105664)
(74.549 -6.39373 -0.219487)
(66.0391 1.32083 0.0627121)
(63.0223 1.78287 -0.0272098)
(62.987 0.410484 -0.278899)
(65.8499 -4.36542 -0.27858)
(70.0771 -7.45415 -0.279732)
(174.085 60.4096 -91.8162)
(-4.34578 -14.4768 -6.21572)
(134.947 -1.69812 10.1063)
(44.1856 -10.595 3.74243)
(106.837 -11.7088 2.93303)
(70.3794 -11.461 -1.02787)
(80.6319 -8.14061 -0.227806)
(90.3019 -1.56723 -0.214141)
(95.6515 -3.48452 0.0602797)
(95.6836 -9.30856 0.748501)
(75.9814 -12.866 0.447531)
(73.2014 -12.7725 -0.735071)
(74.166 -25.9416 -0.347787)
(72.1394 -17.8885 -0.130214)
(69.8932 -3.04532 -0.465524)
(65.8391 2.72075 -0.030386)
(65.5789 2.04207 -0.298994)
(67.5184 -0.538437 -0.388385)
(69.9133 -5.51941 -0.210066)
(70.8091 -7.28512 -0.2378)
(399.516 264.953 -137.24)
(88.544 67.9515 31.9518)
(166.272 -35.8396 13.3938)
(67.5695 -37.4424 2.07154)
(121.261 -43.0711 5.41816)
(61.0116 -19.4873 0.238352)
(81.033 -5.87631 0.637085)
(82.2363 -4.74745 -0.331351)
(81.1736 -7.89914 -0.271126)
(83.9754 -10.683 -0.273479)
(86.9851 -10.1704 -0.268799)
(90.2985 -8.21299 -0.341168)
(86.7386 -22.7881 0.555373)
(74.567 -10.8113 0.172019)
(71.2133 -0.0914625 -0.398411)
(69.6189 3.09307 -0.176632)
(69.9565 2.22349 -0.0981368)
(70.4065 -0.715523 -0.0341761)
(70.564 -4.08321 -0.0342839)
(70.2478 -6.37626 -0.198839)
(183.927 -65.603 101.418)
(135.738 6.88424 0.275633)
(196.648 -29.8877 -4.64527)
(156.586 -20.4935 -2.42336)
(180.866 -18.0826 6.85322)
(98.434 -21.6447 1.85373)
(95.6885 -14.4255 0.874176)
(90.1982 -1.91957 -0.610427)
(93.7311 -3.80909 -0.533724)
(96.4847 -5.91821 -0.320404)
(96.8925 -4.59583 -0.245675)
(96.104 -6.16282 0.252862)
(76.4463 -15.9187 0.768396)
(67.252 -6.85887 -0.17117)
(66.9701 -0.0554867 -0.27005)
(66.2487 2.95466 0.162767)
(67.851 1.57238 0.455912)
(68.8013 0.0538246 0.28285)
(70.0502 -2.64414 0.0864077)
(71.3443 -5.12211 -0.213893)
(77.929 -125.008 57.3712)
(26.4505 -26.0925 -11.2684)
(153.265 -53.3633 -6.12532)
(99.9484 -40.3954 -2.24452)
(133.948 -11.5018 2.43532)
(87.0413 -16.7115 0.604547)
(100.733 2.29983 -0.0855667)
(90.8471 2.78436 -0.352494)
(99.4707 -0.990315 -0.154405)
(96.1415 -2.06831 0.191627)
(96.265 -3.86264 0.618348)
(79.7454 -6.1994 1.8519)
(63.9236 -4.89469 0.678295)
(58.614 -3.05475 -0.0142046)
(59.5932 -2.37965 0.235797)
(62.7519 -1.73069 0.359287)
(64.7343 -2.8738 0.414229)
(67.1641 -3.35624 0.315447)
(69.5582 -4.44211 0.0863172)
(72.6814 -5.73742 -0.19953)
(166.907 -0.0277916 31.4333)
(38.4819 7.48216 -13.3579)
(135.745 -32.0629 -5.30587)
(66.1657 -17.955 -7.14612)
(117.781 -7.89554 -2.50702)
(83.6589 -3.17668 -0.560371)
(100.788 21.5554 0.232795)
(83.7766 -5.53512 0.428766)
(88.6873 5.26016 0.179201)
(76.1377 -5.09212 0.76672)
(74.8952 2.21355 0.98348)
(67.3701 -2.74791 0.894486)
(68.2486 -1.2559 0.463954)
(66.1059 -4.85801 0.384354)
(67.766 -4.32067 0.629158)
(68.5252 -4.74155 0.651174)
(71.2925 -5.2867 0.54578)
(72.895 -5.34211 0.413668)
(75.8459 -5.89971 0.161988)
(78.7221 -6.27528 -0.0482071)
(236.782 260.528 99.4541)
(127.316 99.7758 14.4452)
(167.288 7.2676 -2.9188)
(78.2175 -4.50199 -1.92475)
(109.25 -1.15219 0.885599)
(44.9641 -6.95036 0.710904)
(86.3966 4.37891 0.396269)
(59.9605 -3.09701 0.717878)
(75.2905 -0.891272 0.41666)
(64.5525 -3.95957 0.469483)
(71.083 -3.23248 0.26116)
(68.664 -5.38997 0.0730313)
(72.6381 -5.947 -0.1473)
(72.7495 -8.17692 -0.399342)
(75.7767 -8.8553 -0.49281)
(77.4824 -9.44262 -0.237856)
(80.4655 -10.2408 0.0351787)
(82.3332 -9.11062 0.294065)
(85.1651 -8.52345 0.260741)
(87.0267 -7.45008 0.0990605)
(211.417 46.3527 39.0147)
(158.179 52.7833 -8.98392)
(196.307 39.7651 4.92731)
(99.2962 13.2077 3.64137)
(114.507 15.1426 6.56022)
(64.3986 4.48495 1.51385)
(88.5413 8.22522 1.2407)
(70.3682 -2.71523 0.250595)
(82.9563 -0.372476 0.211573)
(74.1314 -5.47864 -0.124753)
(80.229 -3.54792 -0.28987)
(77.4187 -5.48164 -0.628467)
(81.3931 -4.62066 -0.7632)
(80.9314 -6.26836 -0.961406)
(83.818 -6.4067 -1.10532)
(85.486 -8.67686 -1.01067)
(89.69 -10.45 -0.610352)
(91.3255 -10.7114 -0.0118634)
(94.0294 -9.72298 0.251031)
(95.686 -7.66092 0.214038)
(122.635 17.9307 -106.554)
(51.5815 6.96703 -8.62421)
(157.14 23.8516 4.13633)
(63.1322 19.5444 1.71413)
(110.082 11.9733 2.294)
(52.9734 4.35053 0.182841)
(91.206 -2.25371 -0.279657)
(69.5963 -2.75101 0.196982)
(89.0525 -3.90063 0.539421)
(81.3093 -2.67531 0.785159)
(89.6571 -3.46035 0.564875)
(86.7425 -3.90682 0.0393356)
(90.2646 -4.40394 -0.425023)
(89.396 -5.63586 -1.13311)
(92.6543 -7.23773 -1.7055)
(95.3906 -10.7594 -1.68827)
(99.0511 -13.0536 -0.818553)
(100.109 -12.9556 -0.119399)
(101.845 -12.2707 0.302715)
(101.718 -9.85325 0.270278)
(185.401 142.47 184.35)
(138.358 105.839 40.7921)
(206.947 78.7595 1.52098)
(155.025 49.8732 -0.319017)
(180.974 28.7762 0.549061)
(167.899 13.5682 -0.393334)
(177.248 -2.64243 1.21704)
(165.806 -8.41105 1.09365)
(163.567 -14.2044 1.34179)
(152.124 -14.0291 0.405092)
(148.676 -11.0784 0.916306)
(136.22 -7.01765 0.747319)
(131.386 -3.77816 0.668409)
(120.9 -2.35222 0.0158328)
(117.302 -3.01127 -0.465596)
(111.953 -6.60089 -0.43822)
(110.755 -10.4968 -0.257181)
(108.821 -12.0428 -0.157154)
(109.225 -11.3649 0.105264)
(106.708 -8.52424 0.0740642)
(174.235 41.3129 -83.7399)
(77.1501 32.5735 -12.3064)
(167.71 43.0663 8.2855)
(136.575 28.897 7.66299)
(165.114 14.0067 8.18226)
(140.13 2.94152 5.24986)
(148.147 -0.749002 4.37494)
(132.403 1.06508 2.74578)
(134.776 3.69363 2.05246)
(125.491 6.576 1.04087)
(126.573 8.08897 0.442439)
(122.303 8.74531 -0.344272)
(121.613 8.68581 -0.551196)
(117.181 8.7492 -0.358238)
(114.74 5.49057 0.00965128)
(109.331 -1.61863 -0.913904)
(109.587 -8.06084 -1.82644)
(109.65 -9.53639 -1.15124)
(111.485 -9.10637 -0.628431)
(110.227 -7.08045 0.00168445)
(22.435 165.432 -158.058)
(-81.1722 66.8385 -26.1513)
(134.511 33.9901 -20.1045)
(121.084 12.6188 -6.05533)
(164.482 -3.72995 -3.67069)
(149.495 -9.27623 -3.88944)
(159.764 -16.8027 -3.45961)
(150.404 -17.8259 -3.19288)
(153.268 -18.1 -2.03676)
(145.138 -15.1853 -1.41981)
(146.323 -9.96276 0.145248)
(139.119 -1.57937 1.44267)
(140.502 5.63614 2.30781)
(138.054 8.08653 2.64195)
(138.992 8.67689 2.15246)
(138.072 8.06309 1.21699)
(138.072 2.26201 0.180709)
(132.222 -5.244 -1.30378)
(130.04 -7.65432 -2.00445)
(124.839 -6.60936 -1.87703)
(94.0247 -33.745 -134.984)
(-32.954 -7.73291 11.819)
(140.239 -20.0663 -12.0547)
(73.0818 -17.5841 -2.30867)
(128.415 -0.116536 -11.2172)
(90.0851 1.56526 -8.84953)
(108.228 9.65405 -6.79026)
(82.833 4.3196 -5.32483)
(91.1167 4.83649 -1.94421)
(80.0748 1.79003 -0.902877)
(85.6174 1.16259 0.71389)
(82.2878 -0.538012 0.989692)
(86.6221 -1.23037 0.980037)
(87.0482 -2.27097 0.595032)
(91.0208 -2.56389 0.465818)
(93.2588 -2.71624 -0.28831)
(96.8182 -1.24468 -0.955933)
(97.3018 1.41152 -0.994851)
(95.9107 4.96717 0.291853)
(90.1125 3.72684 0.246547)
(56.728 -102.578 212.128)
(-114.875 -15.8945 -12.4599)
(82.6264 2.94314 -7.71406)
(-45.0847 2.81545 0.0108044)
(70.3779 18.1658 -1.70475)
(0.903262 5.07589 -1.12615)
(59.8133 9.87492 3.5439)
(27.3273 -0.432968 2.81156)
(53.3042 -0.352637 4.75373)
(39.4617 -4.70437 2.66184)
(51.6769 -3.45242 1.77171)
(46.7063 -3.8975 -0.202805)
(52.8999 -2.51893 -1.01972)
(51.8078 -2.24348 -1.99892)
(55.3015 -1.38301 -2.24856)
(55.7473 -1.10339 -2.78377)
(57.6745 -0.62364 -3.1583)
(59.0532 0.694023 -3.37126)
(61.3733 1.80004 -1.82277)
(64.2165 0.601084 -0.231743)
(218.845 204.583 -95.7089)
(-52.4761 31.5262 11.7095)
(102.418 -5.20421 2.67777)
(-20.0575 -1.36083 4.86617)
(72.9453 -9.41325 5.30654)
(2.19083 0.217253 -0.0670599)
(55.5012 -7.24924 2.96276)
(20.7497 -2.23159 0.29219)
(46.2874 -4.45028 2.04278)
(29.5836 -2.04493 0.271438)
(41.6403 -2.70186 0.525379)
(34.9843 -2.05684 -0.458023)
(41.8871 -2.53644 -0.509842)
(40.3063 -2.43784 -0.663128)
(44.5817 -2.53109 -0.525389)
(44.9894 -2.34962 -0.428667)
(47.2491 -2.14679 -0.230394)
(48.566 -1.18836 0.0137301)
(51.2101 0.0918957 0.649802)
(54.8226 0.0591621 0.614225)
(156.73 -125.665 223.111)
(-141.74 12.6838 22.1705)
(80.1613 12.9063 0.07263)
(-21.5674 10.5483 -1.77651)
(66.1099 4.46725 -0.526528)
(10.5615 5.04904 -2.15404)
(53.3832 -4.01584 1.72501)
(19.495 -2.33825 -0.888062)
(42.2084 -5.7368 1.86385)
(25.3811 -4.33383 0.394076)
(37.9737 -5.8115 0.767597)
(31.4589 -5.1947 0.101655)
(38.5305 -5.78369 0.191637)
(37.1474 -5.03846 0.117991)
(41.0957 -4.99897 0.221952)
(41.524 -4.03357 0.198876)
(43.4534 -3.68748 0.201814)
(44.6418 -2.50751 0.155254)
(46.6554 -1.94562 0.26927)
(50.5373 -1.86487 0.174141)
(55.3115 -138.352 80.2803)
(-96.544 -58.139 -2.0628)
(70.1871 -57.3133 -12.6164)
(-37.4904 -14.4604 7.45165)
(69.3514 -11.6064 4.10038)
(2.48997 -0.427056 0.447428)
(52.7263 -7.8262 3.2723)
(19.3404 1.47004 0.0440544)
(43.5039 -6.83529 1.34604)
(28.3267 -1.00601 -0.0274482)
(40.8355 -6.88285 0.316097)
(35.2816 -4.31154 0.0274803)
(42.5578 -7.35658 0.355344)
(41.2257 -5.63407 0.346136)
(45.0799 -6.43544 0.514329)
(45.0723 -5.15957 0.44466)
(46.7724 -5.01616 0.372429)
(47.406 -3.49287 0.246856)
(49.1605 -3.1006 0.294489)
(52.2233 -2.6917 0.0468658)
(218.573 187.131 36.612)
(-0.830496 -17.9632 -13.9468)
(81.5922 -57.2697 -19.5335)
(-24.2033 -28.852 3.31324)
(64.6767 -25.4991 -0.123721)
(-10.0186 -1.18326 1.0035)
(51.8881 -14.9414 0.808757)
(21.196 -2.16464 0.367774)
(43.2369 -9.99578 0.077187)
(32.7501 -5.38489 -0.357433)
(43.1468 -10.3106 -0.392327)
(41.0105 -9.04178 -0.400629)
(46.8595 -10.8421 0.181771)
(46.9317 -8.777 0.490639)
(49.5201 -8.61402 0.854479)
(49.5902 -6.55438 1.08435)
(50.3159 -5.93435 0.951654)
(50.2385 -4.33937 0.477809)
(51.1837 -4.04619 0.433254)
(53.7701 -3.78962 0.188903)
(164.41 139.75 -49.9088)
(3.56638 47.9537 0.71524)
(119.509 4.53226 7.22677)
(29.8823 -12.1196 6.13962)
(82.8011 -9.66168 -0.0447339)
(17.2624 2.00128 -1.50049)
(52.6902 -32.6178 -0.313967)
(28.6007 4.85775 -0.550781)
(47.2213 -16.0573 -1.06079)
(41.3463 -2.93212 -1.31269)
(53.4227 -14.5788 -1.00794)
(54.659 -10.2984 -0.33286)
(62.0984 -13.9424 0.453903)
(61.6936 -9.61959 1.01977)
(61.2465 -9.92239 1.51027)
(58.2447 -7.11972 1.43425)
(56.2456 -5.92752 1.37955)
(54.5886 -3.84175 0.803125)
(55.0578 -4.03281 0.560665)
(57.4552 -4.14485 0.325132)
(46.3857 -132.409 -206.752)
(-114.437 -33.5457 39.1238)
(71.3393 -13.1171 -5.94722)
(-15.815 -15.9447 4.9306)
(77.0624 -10.0032 1.13226)
(28.0794 14.953 1.36688)
(58.0739 -9.54835 0.613197)
(33.6126 -7.04314 -1.58622)
(49.5462 -7.57777 -1.44466)
(48.0224 -13.3371 -1.96024)
(61.2138 -15.1907 -0.83356)
(66.1983 -20.3434 1.11134)
(74.6157 -18.2326 1.67133)
(75.078 -12.7296 0.871249)
(62.3377 -5.31184 0.392152)
(58.9969 -2.20662 1.95601)
(55.2027 -2.4819 1.12889)
(54.5445 -2.3659 0.260095)
(55.5082 -4.1968 0.0374848)
(59.1562 -5.247 0.0413335)
(228.393 -99.5324 -191.333)
(-6.12427 -5.94538 16.5144)
(105.11 -15.9889 -18.065)
(0.820358 -29.9249 6.04744)
(76.409 -31.8304 -1.18391)
(33.9163 -3.41494 0.263357)
(66.3361 2.76384 1.23776)
(55.1784 -9.05938 -0.0508575)
(60.2268 -12.1005 -1.33363)
(64.5475 -18.599 -1.68693)
(69.6818 -21.7275 1.6281)
(66.0451 -21.8556 2.82846)
(64.9459 -20.3889 0.0408798)
(66.2156 -13.3492 -2.06921)
(62.2969 -2.3616 -1.02777)
(55.3005 -0.149358 -0.175299)
(55.0675 -1.09302 -0.32652)
(55.9451 -3.10148 -0.442278)
(58.312 -6.38015 -0.196142)
(60.927 -6.74224 -0.262605)
(176.659 35.1995 -170.197)
(-70.7671 2.6119 -9.08455)
(123.291 10.9432 -11.4866)
(19.317 -8.30344 3.89937)
(93.5533 -13.0636 2.90034)
(59.7304 -13.5718 -2.37652)
(72.5038 -11.0129 -0.543353)
(75.3847 -10.0116 -0.0764889)
(77.023 -14.9701 0.914195)
(73.7311 -18.2005 2.03023)
(68.0024 -16.2 0.695349)
(65.047 -18.2495 -1.91611)
(64.1355 -21.6858 -0.947768)
(63.2848 -11.9146 -0.955331)
(60.5225 -2.31725 -0.730254)
(58.0252 0.153389 -0.505122)
(58.7126 -2.45243 -0.606593)
(59.5544 -4.44452 -0.451319)
(60.6968 -6.9436 -0.100753)
(61.3602 -6.77095 -0.207436)
(32.0634 159.491 -64.5013)
(-65.3419 13.6237 70.2306)
(140.067 -47.8481 7.03324)
(27.1146 -34.3504 6.77716)
(101.146 -38.6703 9.29929)
(57.3215 -23.483 3.69822)
(78.5679 -14.4754 2.60075)
(78.906 -10.8635 0.538378)
(76.1996 -12.9587 -0.577587)
(75.445 -14.6552 -1.19705)
(75.9492 -14.7931 -2.15206)
(76.3301 -16.9922 -1.3756)
(72.9773 -21.0006 2.30174)
(68.2636 -7.36745 0.236995)
(64.4129 -0.906965 -0.529528)
(61.6745 -0.431617 -0.434723)
(61.4557 -2.88373 -0.0617591)
(60.6437 -4.53704 0.0820693)
(60.6916 -6.06596 0.0753928)
(60.7134 -6.2957 -0.18158)
(254.493 30.2299 237.766)
(172.664 -8.03053 33.337)
(190.8 -41.1041 7.65243)
(108.493 -19.045 -1.10701)
(132.23 -16.6999 10.2305)
(101.671 -19.0564 5.82384)
(101.399 -21.1627 4.47269)
(87.0999 -11.7851 -0.556299)
(84.4431 -11.4623 -1.45476)
(81.6984 -11.8804 -1.32141)
(79.5866 -12.475 -0.734633)
(74.7588 -16.4949 2.81009)
(65.0424 -12.985 2.27721)
(61.7609 -4.58685 -0.650052)
(60.183 -1.19085 -0.28148)
(58.5841 -0.806391 0.22922)
(59.5573 -2.477 0.628893)
(59.5862 -3.18583 0.376864)
(60.6127 -4.83365 0.177813)
(61.4941 -5.54555 -0.205283)
(202.732 -34.5826 -81.3777)
(28.5746 19.9017 -14.4242)
(144.317 -22.3438 -9.01774)
(62.2091 -8.61451 -1.63424)
(111.215 0.375313 5.31942)
(64.0849 -23.4734 2.01836)
(84.564 -5.32832 2.15392)
(70.057 -6.47293 0.819901)
(77.5735 -8.00976 -0.0590671)
(71.6584 -8.07115 0.362471)
(70.804 -9.49901 1.98171)
(58.5011 -8.13077 4.51524)
(56.2688 -5.67334 1.38252)
(53.8168 -4.11661 0.149587)
(54.5595 -3.85002 0.216558)
(56.5069 -3.79134 0.450952)
(57.7074 -4.59444 0.561662)
(59.003 -4.67524 0.41257)
(60.7916 -5.57459 0.159484)
(62.665 -5.96163 -0.217389)
(107.238 12.0424 2.01148)
(-5.91161 19.6563 -29.8042)
(135.856 -20.7445 -16.3439)
(54.23 -16.1852 -10.1225)
(104.637 -12.9858 -1.05713)
(60.2845 -11.9531 -0.164709)
(81.2578 15.1058 0.495921)
(60.0629 -15.7236 1.03264)
(67.8695 0.0331661 0.593035)
(56.193 -11.0481 1.51229)
(59.5606 -1.85869 1.48035)
(54.9316 -6.57286 1.259)
(57.9041 -3.76941 0.61442)
(56.6629 -6.29506 0.571368)
(58.8287 -4.9386 0.924664)
(59.7304 -4.95468 0.868649)
(62.14 -5.07551 0.71398)
(63.1081 -5.20772 0.558969)
(65.427 -5.97005 0.266487)
(67.2212 -6.10269 -0.0550842)
(188.819 66.8456 -99.42)
(90.0294 38.4626 -19.0797)
(152.959 17.2455 4.81137)
(57.728 1.0481 4.93557)
(97.4425 -1.06022 5.99196)
(30.4179 -11.0618 1.57592)
(76.3418 0.976473 0.430846)
(47.6624 -7.60122 1.26265)
(64.6443 -4.20082 0.618696)
(53.4164 -7.15761 0.756911)
(60.895 -5.56112 0.398274)
(58.1184 -6.77854 0.0649077)
(61.77 -6.52579 -0.184614)
(61.3339 -7.63225 -0.458038)
(63.2294 -7.52865 -0.464189)
(64.2413 -7.64307 -0.142118)
(66.7738 -8.01007 0.197623)
(68.5081 -7.1307 0.492942)
(71.0993 -7.15648 0.397369)
(72.6002 -6.46749 0.105829)
(96.609 8.40686 78.1234)
(-59.4736 22.6298 29.9563)
(126.754 28.5832 27.3571)
(28.4788 7.25987 7.9198)
(93.8552 11.8495 8.78035)
(45.875 -2.06221 1.24556)
(78.452 1.90699 1.78687)
(58.9701 -8.47258 0.576038)
(73.2716 -4.79053 0.596489)
(63.6002 -9.13885 -0.106066)
(69.999 -6.54076 -0.306183)
(66.2346 -8.20278 -0.84308)
(69.7304 -7.23694 -0.905494)
(68.5987 -8.33998 -1.17361)
(70.6953 -8.144 -1.20471)
(71.1764 -9.15472 -0.957008)
(73.7743 -9.55418 -0.475912)
(75.2943 -8.70225 0.279869)
(78.1318 -7.75342 0.502038)
(79.6635 -6.32803 0.361301)
(134.527 12.7739 -148.879)
(18.9362 -36.6145 -60.296)
(130.751 -1.69069 -20.0764)
(33.0906 5.33209 -3.95566)
(101.567 2.68389 -1.30301)
(50.8347 -1.93519 -0.818737)
(87.2225 -6.75659 -0.538287)
(64.9304 -6.73765 0.503599)
(82.65 -7.10247 1.14306)
(73.4819 -5.96752 1.17784)
(81.0444 -6.76924 0.755052)
(76.8156 -7.19613 -0.189933)
(79.5096 -8.15318 -0.730172)
(77.2144 -8.96438 -1.54405)
(78.3384 -10.2889 -1.94375)
(77.8983 -11.9979 -1.75733)
(79.4805 -12.6587 -0.915422)
(80.637 -11.1993 0.0917441)
(83.3235 -9.55278 0.658909)
(84.2322 -7.03352 0.430039)
(421.425 182.62 -175.07)
(190.944 152.778 -65.9141)
(194.863 82.1262 2.13612)
(116.916 36.0938 4.93953)
(148.187 15.3294 2.89935)
(127.392 2.07617 -0.734531)
(139.469 -8.96478 2.15709)
(125.406 -11.6368 1.77108)
(126.85 -12.866 2.54195)
(115.341 -10.8844 1.10584)
(113.548 -8.55737 1.62979)
(104.91 -6.57086 0.797741)
(102.892 -6.19927 0.50775)
(96.5782 -6.55156 -0.396445)
(94.6801 -8.90531 -0.930489)
(91.1133 -11.3433 -0.789106)
(90.5841 -12.4906 -0.420927)
(89.4904 -12.0997 -0.103938)
(90.1001 -9.81079 0.40989)
(88.4196 -6.25681 0.199301)
(196.516 100.516 -26.8099)
(37.5095 95.7857 -14.1357)
(145.026 44.5014 -2.1085)
(102.169 19.9469 5.11727)
(144.33 6.06017 9.15053)
(120.152 0.278463 5.80697)
(133.35 -0.475494 6.35196)
(116.377 1.74257 3.82752)
(119.933 3.00227 3.46026)
(109.965 4.19619 1.54912)
(111.516 4.1747 1.02192)
(106.834 3.77233 -0.442785)
(106.989 2.72359 -0.913903)
(103.092 1.30092 -1.24603)
(103.386 -2.68365 -1.5)
(100.352 -7.70796 -3.0794)
(98.72 -10.7564 -3.21739)
(95.7564 -10.2081 -1.79632)
(94.9935 -7.43177 -0.165685)
(91.547 -4.51701 0.117521)
(176.062 247.121 68.3425)
(64.9937 117.087 2.8441)
(165.722 76.8681 -12.4949)
(144.638 39.9612 1.25844)
(178.656 13.2816 3.21917)
(160.934 4.43107 -1.10758)
(166.521 -2.91525 -1.25705)
(153.32 -4.18248 -2.36771)
(152.933 -6.4473 -0.266981)
(143.042 -5.28113 -0.0500851)
(141.959 -4.49786 2.11888)
(136.652 -1.35578 3.31773)
(138.08 1.4701 4.14719)
(137.877 3.05408 4.38995)
(139.742 2.66205 3.6232)
(138.766 0.270646 1.71355)
(133.307 -6.60394 -0.0588229)
(118.712 -8.67389 -0.837143)
(110.72 -5.9805 -0.955157)
(101.611 -1.77462 -1.15439)
(9.7744 -31.851 -30.2035)
(-16.865 -22.9629 -1.77035)
(143.045 -16.2776 -32.1848)
(76.6729 -18.7424 -9.67337)
(125.509 -3.24538 -15.9457)
(84.7302 -4.61876 -11.0395)
(104.073 4.08231 -4.32766)
(76.6247 -0.598427 -3.06295)
(85.6544 1.00858 0.455708)
(74.5389 -0.895773 0.262108)
(81.2495 -0.0566437 1.3644)
(78.3179 -0.235792 0.866413)
(82.8796 0.15133 0.68587)
(82.4587 0.465947 0.119562)
(84.885 1.19893 -0.305314)
(84.4252 1.82232 -1.28743)
(83.8518 3.62047 -1.30891)
(78.9395 5.53138 -0.42084)
(75.3843 5.23674 1.35558)
(73.2611 2.11157 0.84883)
(209.245 -269.188 127.207)
(-123.045 -32.5989 3.30342)
(77.7604 -5.2156 -22.1668)
(-63.0331 -2.70157 -1.10932)
(61.8918 16.1807 -7.36071)
(-13.4669 0.56337 -1.87774)
(51.7778 6.97744 4.22131)
(16.6442 -2.32245 2.82268)
(46.6123 -0.406081 4.90149)
(33.0434 -3.49713 2.11068)
(46.9105 -1.65866 1.43393)
(41.6149 -2.14267 -0.617031)
(47.8576 -0.922966 -1.37649)
(45.844 -1.05595 -2.3881)
(48.9017 -0.424707 -2.63184)
(48.3587 -0.52 -3.04022)
(49.5246 -0.106688 -2.89151)
(49.4022 0.418356 -2.50113)
(50.5103 0.663649 -0.718773)
(53.0469 -0.388764 0.456965)
(96.4477 75.5863 -41.1559)
(-74.7728 11.6328 11.4322)
(80.7426 -11.489 -11.7687)
(-45.304 -3.58084 5.21419)
(63.4463 -11.1922 2.93191)
(-13.4943 -0.936029 0.722697)
(46.7735 -7.89383 3.51104)
(8.09156 -1.96746 0.146076)
(37.9495 -4.07824 2.11152)
(20.6697 -1.56205 0.0141714)
(35.0022 -2.46844 0.423514)
(27.9848 -1.86979 -0.593831)
(35.5029 -2.54573 -0.505047)
(33.3281 -2.40907 -0.727677)
(37.5601 -2.56279 -0.49214)
(37.4173 -2.32425 -0.420894)
(39.4318 -2.07746 -0.160317)
(40.3431 -1.15461 0.0716176)
(42.5222 -0.34782 0.745669)
(46.0506 -0.380682 0.834644)
(65.3207 -72.292 197.616)
(-177.018 23.8256 36.5471)
(65.4356 9.7354 -12.6427)
(-39.236 7.41407 -3.41807)
(51.5845 0.517298 -2.22202)
(-10.5486 1.97398 -1.87688)
(41.6176 -6.43794 2.31346)
(5.00494 -3.14167 -0.941494)
(33.6533 -6.29749 1.69646)
(16.5769 -4.16559 0.120703)
(31.4974 -5.66391 0.662817)
(24.6891 -4.76124 0.00679724)
(32.3767 -5.40042 0.179759)
(30.5708 -4.58658 0.0342463)
(34.6087 -4.57692 0.174628)
(34.724 -3.66513 0.12773)
(36.6033 -3.3492 0.185438)
(37.6149 -2.28778 0.166547)
(39.4473 -1.8048 0.392985)
(43.0108 -1.52367 0.417525)
(37.9517 -139.666 -15.638)
(-113.599 -50.583 -15.4997)
(51.278 -62.8508 -12.5691)
(-55.0617 -17.9057 7.66438)
(58.0343 -16.1971 3.21446)
(-16.2908 -4.84633 0.75014)
(42.9315 -12.6477 3.41444)
(6.33416 -0.871652 -0.351149)
(34.8326 -9.46591 1.2519)
(18.491 -2.08805 -0.158721)
(32.7164 -8.00061 0.329445)
(26.4645 -4.44733 -0.0124859)
(34.3086 -7.32909 0.36502)
(32.561 -5.10455 0.291933)
(36.6683 -5.92363 0.486939)
(36.5751 -4.5667 0.377744)
(38.4123 -4.56563 0.34297)
(39.1431 -3.18082 0.262096)
(40.9321 -2.93536 0.409248)
(44.0079 -2.33676 0.297107)
(183.467 18.6204 -152.932)
(34.4704 -18.9571 -24.9107)
(68.9901 -48.5096 -7.14636)
(-29.6588 -25.1916 5.76032)
(53.9464 -25.9147 1.3949)
(-21.1324 -3.01727 1.33318)
(44.1536 -18.8789 0.81094)
(10.6755 -3.32562 0.240659)
(34.778 -12.1125 0.0618535)
(22.7939 -6.00576 -0.334668)
(33.9748 -11.0588 -0.227066)
(30.835 -8.41517 -0.130134)
(36.7197 -9.85793 0.283631)
(36.4577 -7.26285 0.536242)
(39.0354 -7.26215 0.86298)
(39.4765 -5.31935 0.932527)
(40.7556 -5.13839 0.791866)
(41.289 -3.80437 0.425792)
(42.5551 -3.75235 0.52034)
(45.4059 -3.21885 0.412302)
(120.845 -40.669 -172.528)
(-60.1681 -6.14673 -0.786298)
(86.9769 -10.4607 -2.36202)
(9.35783 -17.9899 5.36731)
(69.6818 -13.8088 1.90649)
(1.7333 -1.87885 -0.94004)
(41.4374 -37.3393 -0.314698)
(15.0174 4.22668 -0.713147)
(35.3941 -19.6964 -1.23057)
(27.8798 -3.89766 -1.06374)
(40.216 -16.1107 -0.765228)
(39.3744 -9.1815 0.0170479)
(45.8206 -12.5135 0.678556)
(44.31 -7.25178 1.03615)
(45.3027 -7.61183 1.29523)
(44.0829 -5.27837 1.13309)
(44.4513 -4.89718 1.09962)
(44.3563 -3.63081 0.662815)
(45.6076 -3.95725 0.627508)
(48.4614 -3.60135 0.557594)
(42.5952 -151.839 -199.726)
(-44.935 -63.7883 -7.40721)
(64.9964 -28.8879 -4.32315)
(-20.7632 -24.9138 5.34425)
(66.7327 -15.9549 1.62747)
(14.6943 11.0218 1.61206)
(45.6622 -17.2606 0.158688)
(23.2204 -7.1566 -1.2963)
(38.4698 -13.1767 -1.84052)
(36.012 -15.8083 -1.70315)
(47.6628 -17.3793 -0.555492)
(50.2227 -17.8843 1.12682)
(56.798 -13.7493 1.42712)
(54.8724 -8.28727 0.908458)
(45.9608 -4.14596 1.32978)
(45.9566 -2.74025 1.52846)
(45.3745 -3.1235 0.848795)
(45.9918 -2.90457 0.234305)
(47.3523 -4.45851 0.24369)
(50.4148 -4.36735 0.270941)
(170.8 -229.851 -125.652)
(25.8403 -53.3722 27.4904)
(80.2591 -26.9364 -8.30286)
(-5.30001 -33.829 8.15985)
(63.9274 -32.6287 -0.619514)
(22.4781 -3.26102 1.39586)
(51.4636 -4.42956 1.44176)
(43.1081 -15.0176 -0.62401)
(50.0055 -17.8682 -1.68545)
(51.5187 -22.11 -1.26023)
(54.7277 -21.5698 1.47739)
(54.3227 -19.3631 1.8404)
(55.7781 -14.6524 -0.166802)
(55.1168 -8.19484 -1.6426)
(50.7604 -1.42499 -0.450156)
(46.3212 -1.8806 0.201846)
(46.7879 -3.09804 -0.204817)
(47.7042 -4.34497 -0.257822)
(49.5975 -6.05816 0.0822733)
(51.671 -5.51738 0.0477184)
(295.997 21.6131 -20.927)
(35.1314 -10.1889 22.484)
(105.704 9.16785 -4.21566)
(4.61457 -12.0982 7.87137)
(80.2389 -15.5104 2.84515)
(43.9639 -16.032 -2.0301)
(59.4005 -13.0801 0.123072)
(62.4675 -15.5707 0.249064)
(62.7059 -19.7463 0.785324)
(60.1562 -20.4844 0.928319)
(57.2578 -17.8463 -0.0632011)
(54.7615 -18.2083 -1.1506)
(54.4253 -15.9592 -0.615894)
(54.1248 -8.432 -1.14855)
(51.6492 -2.72431 -0.430463)
(49.527 -2.40808 -0.147443)
(49.987 -4.95333 -0.226077)
(50.1462 -5.51534 -0.146548)
(51.1683 -6.49655 0.169154)
(52.0122 -5.62206 0.0830227)
(-57.6634 8.4966 -62.5837)
(-118.246 -54.1633 44.9905)
(99.0443 -43.3842 -2.94405)
(-12.4124 -30.4208 9.67108)
(83.6045 -34.2208 8.01266)
(37.6451 -22.8416 3.71977)
(63.2499 -18.6831 3.48113)
(67.5546 -16.6263 0.914385)
(66.244 -16.9993 -0.72944)
(64.0957 -18.1069 -0.719719)
(64.8625 -17.8425 -4.54791)
(62.6141 -20.0989 -0.473873)
(61.5933 -14.514 1.37808)
(59.094 -5.79893 -0.185963)
(55.2451 -2.44416 -0.24851)
(52.2113 -3.69488 0.229926)
(51.5588 -5.36733 0.303722)
(50.8168 -5.62554 0.269905)
(51.1986 -6.03037 0.289378)
(51.6032 -5.45389 0.0590829)
(459.667 77.4844 134.89)
(143.275 -26.8644 58.8453)
(173.187 -61.5298 23.035)
(56.469 -19.2758 0.916459)
(100.115 -18.4901 9.68)
(66.8325 -25.5096 5.00915)
(81.0323 -28.5764 4.80778)
(75.3604 -17.3147 0.130721)
(71.1814 -14.8855 -1.28536)
(66.5877 -14.789 -1.43708)
(62.778 -15.8386 -0.117016)
(57.3257 -16.3503 3.62272)
(55.6467 -9.55296 1.02299)
(54.8821 -4.11512 -0.677448)
(52.8178 -3.26797 0.117877)
(50.2048 -3.23606 0.709013)
(50.5717 -4.35009 0.675061)
(50.3777 -4.33817 0.431069)
(51.4052 -5.10265 0.315879)
(52.3034 -4.97901 0.0234982)
(164.476 -109.115 -177.973)
(51.4798 36.1759 -23.6691)
(124.408 -12.3585 -8.55812)
(29.2594 3.99403 0.630853)
(95.6283 -2.23636 5.8428)
(45.4291 -30.8257 2.50303)
(68.475 -10.6306 2.26482)
(52.6591 -11.0468 0.677779)
(60.8946 -11.0507 -0.0709789)
(52.163 -11.2301 0.858508)
(52.8822 -11.145 2.70044)
(47.1722 -8.37627 3.46751)
(49.45 -5.98539 1.06326)
(48.0453 -4.83705 0.295372)
(47.8518 -4.73566 0.483706)
(48.85 -4.84216 0.504825)
(49.4427 -5.13357 0.547166)
(50.2156 -4.97399 0.394941)
(51.7527 -5.50007 0.256067)
(53.2277 -5.32674 -0.00544651)
(125.56 -23.7124 -174.971)
(27.3558 -8.74857 -44.6839)
(125.985 -31.2282 -18.052)