/*--------------------------------*- C++ -*----------------------------------*\
  =========                 |
  \\      /  F ield         | OpenFOAM: The Open Source CFD Toolbox
   \\    /   O peration     | Website:  https://openfoam.org
    \\  /    A nd           | Version:  10
     \\/     M anipulation  |
\*---------------------------------------------------------------------------*/
FoamFile
{
    format      ascii;
    class       volScalarField;
    location    "7.4";
    object      k;
}
// * * * * * * * * * * * * * * * * * * * * * * * * * * * * * * * * * * * * * //

dimensions      [0 2 -2 0 0 0 0];

internalField   nonuniform List<scalar> 
12920
(
48.4364
734.224
1156.84
950.089
470.499
270.362
180.462
161.234
151.101
149.596
146.812
146.607
146.398
146.919
147.611
148.958
154.412
168.177
170.483
157.363
143.647
1341.55
1585.3
1273.76
768.19
573.105
411.522
338.705
283.491
251.468
226.978
211.272
201.363
198.127
198.364
202.73
212.21
213.927
211.12
180.88
1402.75
1362.57
1349.43
1041.99
694.954
532.818
441.587
408.398
385.891
360.531
321.465
284.45
249.178
220.71
204.013
193.566
188.171
178.349
169.574
144.564
3873.27
1700.88
1133.38
840.893
674.936
603.77
594.395
584.48
545.54
502.898
453.909
408.754
348.131
282.775
232.909
199.205
180.169
155.512
141.017
114.58
707.684
2351.28
2120.73
1604.38
1240.4
924.36
711.479
633.058
593.116
575.747
526.558
482.854
428.122
354.032
277.624
216.454
178.374
146.465
132.521
109.11
1057.51
1724.82
1715.92
1682.34
1555.58
1259.93
916.765
738.686
645.307
603.762
535.538
477.977
443.807
406.375
341.282
264.867
204.646
158.492
138.036
116.615
942.822
1434.93
1556.98
1547.77
1485.64
1278.64
857.485
614.303
456.413
381.422
364.215
366.009
376.551
392.259
392.531
380.671
341.633
252.107
185.554
138.325
1649.86
2936
2354.83
1800.54
1184.17
922.759
569.497
341.563
229.856
181.051
191.108
214.672
225.04
226.364
353.165
308.57
247.857
189.247
156.947
128.743
705.343
2694.46
2543.41
1653.92
781.715
388.005
317.236
204.592
160.985
125.234
122.235
130.455
128.716
119.59
183.797
216.595
174.701
145.292
134.833
121.597
1862.23
2498.41
2215.1
1465.04
799.065
391.44
185.966
121.226
140.113
120.906
100.591
88.8474
85.8394
84.9043
137.562
176.177
155.853
139.591
134.699
127.365
7282.17
5996.97
2981.39
1538.89
875.181
425.77
215.102
180.391
166.058
129.165
118.454
99.7329
71.2686
54.1208
84.1754
128.533
120.987
120.078
121.499
122.533
13840.5
5121.31
2384.33
1707.08
1260.17
677.832
328.329
165.252
133.658
134.822
158.098
168.022
122.373
91.0974
113.966
148.458
131.181
123.161
121.915
119.321
4560.83
2805.87
1672.08
1272.18
949.597
691.262
392.993
255.059
213.003
209.305
204.156
180.399
159
139.52
168.791
134.977
121.509
114.051
112.354
107.343
6241.77
4211.6
1840.83
1157.97
812.056
694.511
566.867
496.576
424.781
344.461
281.95
226.129
182.924
148.015
123.801
106.326
96.8409
90.5568
88.6291
86.8872
32889.9
19213.3
6408.55
2098.05
942.604
723.166
564.375
461.159
354.319
269.672
209.778
170.218
144.766
126.058
111.344
99.4555
89.8635
82.5087
78.5946
74.5268
6595.06
5579.62
2861.91
2052.52
1396.29
948.753
641.189
504.992
376.728
285.936
211.781
164.956
135.329
117.663
104.794
95.655
88.0055
82.3014
79.0534
74.5639
115.942
1304.02
1378.65
1298.55
959.127
763.295
575.079
476.003
357.667
292.868
229.362
179.312
142.478
120.32
105.483
95.9585
89.0526
84.9379
82.9
80.3329
978.185
1903.97
1853.46
1190.81
819.467
709.959
531.706
447.073
343.978
283.376
228.083
190.611
159.95
139.441
122.705
111.09
102.342
97.0186
94.4927
93.8213
100.356
984.136
1499.23
1184.46
691.852
504.484
370.242
303.902
249.14
223.51
200.747
186.206
174.569
166.592
156.003
144.839
132.953
122.771
115.232
112.039
46.5146
818.828
1141.03
1007.35
708.207
536.633
418.757
336.779
262.873
196.568
149.342
128.128
116.427
107.923
100.937
92.3821
87.0061
78.9115
74.7556
65.0744
1639.75
2081.67
2086.76
1611.99
944.551
619.21
479.292
434.139
406
395.132
383.705
378.809
375.847
374.278
374.761
377.091
383.284
384.251
379.382
328.634
655.993
3922.23
3810.83
2834.6
1906.1
1524.34
1168.47
1033.25
839.814
752.348
659.517
621.19
589.438
584.134
586.898
614.778
662.657
677.734
665.715
560.248
2798.12
3652.41
3485.19
2675.26
1819.71
1491.23
1238.1
1178.16
1071.37
1015.59
886.986
802.629
715.108
658.931
614.919
587.837
579.035
556.983
530.363
454.706
11046.3
5551.71
3082.11
1928.59
1550.94
1549.69
1549.16
1537.32
1402.74
1293.68
1159.44
1058.54
911.899
767.286
650.246
570.38
525.904
464.269
419.17
346.963
6044.3
5631.42
4079.53
3172.92
2239.69
1918.61
1707.3
1678.87
1595.2
1503.21
1360.28
1271.61
1129.72
947.197
749.143
596.393
498.476
420.85
382.85
324.958
1513.67
3347.03
3522.7
3500.7
3152.62
2732.13
2174.19
2027.06
1844.54
1746.23
1548.24
1398.01
1279.41
1144.21
936.66
720.553
555.487
445.005
397.204
348.461
992.983
2716.95
3386.02
3628.21
3441.41
2893.94
2046.51
1552.43
1200.69
1037.63
1026.81
1042.5
1041.25
1026.19
1005.5
967.361
857.095
617.183
467.587
393.168
4897.53
6094.24
4929.56
4057.4
2879.1
2369.56
1769.27
1300.6
1010.77
842.349
822.212
818.098
808.815
789.648
767.522
721.953
611.883
487.243
427.712
378.732
3849.27
7062.04
6125.21
3675.72
1914.32
1436.75
1308.75
1119.87
926.717
741.448
664.818
634.115
601.482
565.059
527.888
485.209
433.461
392.242
377.259
355.898
13514.3
9021.33
6247.54
3449.92
1794.8
1276.31
980.53
892.656
778.063
639.601
532.906
456.598
414.491
397.645
392.646
393.774
386.686
376.843
373.763
366.662
15901.9
12129
4886.81
3011.21
1671.12
1344.76
1091.53
1039.04
869.2
719.353
646.903
505.596
355.648
272.844
270.624
319.776
325.945
343.45
364.125
377.545
22567
7147.2
4198.7
3852.25
2556.64
1920.82
1351.31
1071.92
934.928
919.778
887.962
750.164
572.834
424.905
357.241
353.021
344.298
347.402
359.309
369.473
8377.24
7966.19
4020.34
2898
1821.71
1580.19
1254.29
1169.98
953.428
859.651
750.898
646.049
554.345
471.983
391.542
342.301
322.3
314.705
317.308
321.043
8736.94
8867.05
4477.09
2870.88
1702.19
1706.81
1477.4
1375.84
1111.61
896.663
718.552
580.035
469.117
386.648
331.523
297.827
276.273
264.144
260.736
262.575
35987.8
12507.5
4441.77
3238.69
1807.32
1808.57
1418.2
1209.38
883.629
694.289
546.591
455.58
389.989
343.843
306.517
279.366
257.234
242.597
234.083
227.726
23544.5
8405.13
4469.47
4132.45
2162.69
1915.31
1403.98
1268.72
909.222
724.121
532.156
437.126
367.251
327.789
294.747
273.442
254.702
243.335
235.79
228.265
1604.28
5875.53
3384.67
2744.48
1821.79
1737.4
1328.49
1157.48
854.897
749.621
572.958
469.022
381.911
336.251
300.713
278.337
261.932
253.855
250.065
247.084
1976.12
5492.19
4802.62
2658.6
1906.29
1661.11
1209.35
1060.77
815.638
713.338
581.969
511.888
440.896
393.32
352.006
324.989
304.907
293.816
289.385
289.311
422.119
2527.35
3710.05
2903.79
1589.5
1203.62
833.329
729.794
606.58
571.048
526.407
507.567
480.913
462.375
436.319
413.875
389.966
370.831
356.733
350.833
92.7088
1302.51
1932.94
1811.08
1265.53
962.517
729.679
580.879
435.974
329.394
262.796
240.536
229.211
223.805
218.715
209.934
203.91
190.466
180.279
153.837
1096.99
2408.7
2450.53
1790.49
1157.58
770.838
655.177
579.167
544.738
517.022
505.177
490.744
480.899
468.608
458.086
447.916
438.65
414.996
387.188
294.038
11138.5
5767.05
4945.34
3381.49
2486.92
1917.73
1558.41
1390.57
1208.36
1137.24
1049.58
1019.22
976.733
960.341
948.368
950.758
954.263
940.034
885.449
740.594
11372.8
6536.77
5275.03
3824.85
2852.27
2357.29
1944.97
1759.06
1526.98
1409.19
1252.54
1164.8
1067.36
994.541
924.44
866.218
823.154
763.839
714.137
627.021
7982.39
6337.25
4574.83
3361.05
2825.91
2606.16
2273.82
2044.03
1767.66
1601.14
1420.13
1285.33
1132.38
1001.39
887.09
787.808
711.868
628.395
573.608
498.251
7156.87
5448.18
4529.35
3934.32
3112.07
2814.9
2433.79
2236.23
1999.75
1825.13
1625.31
1466.7
1274.58
1086.43
914.837
769.233
664.73
577.669
530.612
464.582
3084.81
5222.49
4716.37
4529.03
3759.72
3206.82
2657.89
2480.07
2227.59
2046.85
1826.83
1659.14
1474.35
1266.23
1059.42
867.976
722.358
613.321
558.397
497.512
5424.19
4811.61
4825.07
4865.81
4176.48
3344.44
2526.46
2113.08
1759.35
1591.93
1490.62
1415.37
1324.61
1237.8
1152
1031.43
877.139
716.515
633.274
562.696
4731.99
7649.28
5957.99
4756.84
3464.91
2923.57
2420.02
1872.06
1538.92
1301.06
1203.72
1128.76
1075.99
1017.76
919.099
824.296
725.691
639.856
598.155
547.264
13928.9
11522.2
7772.85
4346.89
2568.64
2202.92
2026.49
1672.36
1321.47
1078.86
943.143
863.678
803.728
753.306
686.057
626.685
587.626
556.167
542.984
518.471
19851.7
13109.2
8141.66
4102.62
2342.68
1816.49
1577.14
1360.53
1098.26
892.329
741.55
625.343
566.435
547.579
541.18
554.5
554.138
548.82
543.76
529.498
19354.4
10314.2
4916.22
3421.82
2138.67
1811.29
1607.12
1405.92
1166.85
1026.15
689.387
485.657
409.853
385.279
426.011
508.892
529.021
544.643
552.453
549.567
17655.9
8039.81
4847.76
4172.85
2673.23
2268.48
1874.56
1536.5
1360.74
1277.63
1125.34
896.281
706.295
562.502
506.321
519.292
520.117
527.034
534.298
531.744
15312.6
12236.1
4841.08
3203.14
2364.64
2027.71
1747.27
1620.47
1331.5
1164.94
976.774
832.23
705.826
602.651
516.332
475.738
461.003
458.245
461.516
463.049
12392.7
10700.6
5652.86
3472.21
2427.59
2244.07
1832.91
1606.66
1303.77
1059.7
872.805
719.87
602.295
515.511
456.553
420.71
398.682
390.13
389.843
394.603
22968.8
10429.5
5236.23
3830.21
2517.34
2175.92
1732.16
1408.76
1092.36
871.763
715.866
606.504
528.221
471.068
425.344
394.343
371.069
358.25
351.521
351.285
52947.8
8976.99
5086.01
3818.43
2620.84
2275.97
1706.15
1425.04
1073.28
881.03
700.947
596.868
513.79
462.171
419.838
393.65
372.192
361.251
353.836
352.026
9110.32
7231.92
5376.87
3293.65
2553.54
2071.67
1562.45
1302.32
1025.81
890.783
721.444
619.16
528.686
476.211
433.201
408.734
391.202
384.406
381.572
382.569
5134.01
8194.88
6331.35
3496.75
2516.15
1916.05
1432.4
1204.33
982.667
876.542
759.174
687.876
609.441
557.471
509.767
480.717
458.741
448.703
445.724
448.291
848.186
5182.65
5691.16
3665.33
1977.52
1408.89
1033.7
901.533
787.779
761.854
722.763
712.495
683.943
662.093
625.455
599.015
568.808
548.566
533.805
530.587
85.4385
1346.05
2138.44
1946.94
1351.75
1011.51
801.171
653.719
519.055
418.318
352.258
319.342
300.572
286.631
275.451
258.152
246.398
224.717
213.352
187.221
2195.61
3572.82
3117.58
1737.7
1220.78
808.219
750.178
650.637
626.642
577.25
562.014
529.652
512.1
486.205
467.93
442.439
418.404
373.424
332.635
240.775
15051.4
7749.68
6552.57
3844.72
3172.42
2254.75
1983.04
1687.03
1549.03
1451.53
1387.87
1349.9
1309.9
1282.95
1254.86
1222.49
1185.67
1112.64
1027.83
924.33
18061.3
10744.1
7654.91
5012.76
3948.66
3028.75
2539.57
2154.03
1894.22
1712.4
1565.8
1457.57
1358.22
1263.21
1176.5
1091.27
1021.07
936.364
871.59
798.012
6666.34
7229.49
6646.66
4932.67
4137.46
3369.46
2843.95
2378.42
2071.33
1832.62
1645.36
1477.78
1327.8
1187.4
1067.4
956.167
864.92
772.801
712.967
644.545
7530.43
6984.24
6089.23
4988.88
4144.67
3520.92
3026.52
2628.63
2341.18
2061.85
1828.87
1598.18
1388.98
1198.09
1038.65
901.019
800.979
716.038
665.257
603.45
25130.9
9092.98
7378.38
5550.72
4408.89
3607.85
3129.05
2836.07
2547.49
2284.69
2040.03
1806.32
1575.38
1337.3
1143.57
972.776
852.865
758.443
705.027
646.247
8830.73
6263.91
6482.69
6091.52
4831.54
3723.37
2955.18
2514.58
2185.98
1992.04
1830.02
1671.47
1511.17
1362.27
1218.25
1064.96
937.278
833.919
782.041
722.949
9303.63
11417.1
7039.04
5314.68
4110.01
3400.91
2864.89
2229.61
1895.37
1630.62
1491.6
1357.56
1256.41
1149.62
1009.5
912.591
843.543
786.847
755.588
709.782
21527.7
13852.7
8443.48
4586.12
3159.58
2801.36
2528.24
1976.58
1580.42
1312.86
1148.84
1030.16
944.941
879.268
802.436
767.736
743.267
720.066
707.729
681.612
16092.9
13456.1
7641.24
4018.45
2782.69
2247.18
2018.25
1644.76
1299.02
1061.52
886.896
752.76
690.6
681.786
691.545
735.092
733.952
724.288
714.297
689.704
13654.2
9938.41
5405.65
3346.85
2540.1
2106.71
1923.61
1625.83
1363.79
1180.16
815.523
560.978
532.764
555.815
629.684
730.913
738.721
738.133
732.467
710.073
16718.1
8883.83
5184.84
3722.84
2859.61
2406.84
2154.51
1805.29
1591.41
1417.4
1174.47
934.183
774.65
682.36
665.886
704.415
705.279
703.187
699.85
685.297
22351.2
11539.8
5407.29
3413.87
2905.59
2305.05
2079.24
1856.22
1538.12
1314.48
1093.11
929.844
795.919
702.544
641.448
612.101
604.174
604.466
607.641
609.787
10403.8
10454.4
6504.91
3772.77
3103.34
2468.37
2125.57
1726.92
1448.57
1158.16
985.853
818.034
710.21
624.951
575.052
543.87
528.735
526.674
528.604
539.709
18471.2
10282.4
6426.71
3946.83
3148.43
2291.83
2022.43
1504.25
1241.92
981.485
846.142
720.664
645.727
582.6
538.563
509.66
491.497
484.442
483.357
489.251
40231.9
8679.37
5712.15
3779.47
3267.79
2349.14
1952.07
1482.06
1203.98
974.084
830.976
715.912
640.803
582.618
542.476
515.924
497.987
490.465
487.279
491.686
12751.4
10362.6
6697.06
3781.53
3157.02
2166.17
1776.98
1356.51
1159.58
973.307
841.574
732.87
656.365
601.581
563.533
540.908
527.662
524.55
524.364
531.175
28339.5
12077.4
8123.43
4147.61
3042.23
2004.43
1636.66
1294.78
1144.76
1015.54
925.685
844.289
769.802
711.349
666.182
637.748
619.556
613.321
612.739
621.312
3961.28
7665.14
7625.52
4018.17
2244.72
1439.62
1173.94
1008.03
947.507
933.713
917.485
913.136
884.953
856.046
812.267
781.519
749.474
731.184
718.728
721.406
456.32
2093.11
2460.14
1787.55
1210.33
918.568
760.06
629.239
522.965
447.047
397.49
365.567
342.296
319.664
299.423
274.279
255.819
230.65
219.405
196.468
2648.74
4132.97
3035.77
1567.48
1157.29
775.713
759.144
646.964
619.171
543.117
521.419
464.575
443.048
402.346
379.291
338.228
310.165
265.382
234.038
197.667
17738.3
11126.2
8357.29
4114.12
4150.28
2492.18
2614.85
1954.9
2026.88
1772.02
1809.7
1698.96
1703.65
1642.02
1612.75
1528.78
1453.57
1333.37
1248.64
1181.16
18279.9
12107.2
10561.7
5573.39
5153.71
3425.13
3244.54
2465.9
2372.89
2020.99
1961.27
1767.95
1704.19
1553
1472.57
1347.17
1259.89
1147.68
1074.94
1013.54
7273.57
8556.77
9333.11
5804.62
5450.42
3741.98
3462.54
2603.77
2452.27
2059.3
1947.8
1699.15
1586.33
1403.49
1296.64
1162.8
1067.81
964.561
899.445
842.759
11300.7
8947.7
8853.94
5747.67
5391.85
3980.32
3694.43
2950.06
2764.66
2299.96
2112.87
1768.9
1588.68
1361.4
1221.65
1080.28
989.969
905.623
851.963
799.165
15642
12901.6
10668.8
6026.73
5377.72
3817.01
3671.9
3121.13
2919.87
2510.72
2293.54
1965.36
1726.03
1470.82
1297.88
1140.12
1044.87
960.624
908.942
856.206
15408
9203.36
9677.8
6813.78
5844.63
3878.6
3399.73
2833.06
2637
2366.19
2207.8
1944.59
1741.36
1526.03
1346.25
1189.49
1097.52
1026.07
990.331
943.987
64834.6
23982.6
9610.18
5737.32
5105.97
3795.92
3260.81
2586.63
2298.37
2027.14
1871.69
1668.53
1516.54
1354.75
1175.41
1082.81
1036.57
996.101
968.629
928.23
34586.9
15371.5
9639.23
4628.45
3939.39
3339.83
3013.97
2283.65
1903.96
1619.49
1434.83
1271.97
1162.62
1076.77
1020.1
992.248
964.452
940.04
924.784
895.519
11024.5
13132
8251.91
4282.69
3415.2
2678.09
2481.54
1956.69
1567.37
1280.24
1070.72
930.155
906.465
921.816
955.847
990.361
974.486
949.686
931.284
894.318
8014.71
11144
7002.43
3801.77
3175.98
2421.28
2281.88
1941.78
1640.53
1334.62
1016.65
791.503
779.621
856.244
945.753
1010.83
984.644
957.288
937.96
903.48
13905.4
12139.7
6481.43
4288.62
3467.86
2663.43
2535.54
2158.82
1881.88
1574.13
1256.27
1031.46
948.535
922.294
946.409
958.615
936.01
910.28
899.207
877.232
16256.5
12447.4
6486.15
4440.19
3699.82
2723.53
2472.25
2087.61
1808.51
1500.91
1294.5
1096.22
983.294
893.475
854.119
819.294
806.916
802.92
804.273
808.005
13921.9
11639.9
7338.87
4502.17
3962.2
2763.66
2673
1947.69
1736.1
1315.72
1200.52
970.013
898.37
795.349
765.808
730.034
726.371
723.88
729.468
746.108
26520.6
12528.7
7393.02
5006.35
3954.39
2644.76
2487.28
1686.42
1495.72
1136.21
1050.43
878.616
829.477
746.164
714.815
684.708
676.686
673.424
676.622
691.323
47064.4
12361.8
6410.35
5078.67
3937.53
2630.79
2392.83
1649.07
1481.93
1124.47
1052.86
881.37
842.103
755.059
734.219
697.55
691.406
683.709
685.866
697.86
30638.9
12885.3
7728.25
4761.52
3913.47
2420.43
2190.49
1510.38
1421.93
1113.62
1052.26
887.866
854.409
773.963
758.041
727.534
726.278
722.934
727.008
741.72
32483.7
17009
9895.38
5212.77
3791.64
2250.05
2060.86
1495.49
1461.47
1218.52
1195.53
1043.92
1003.79
903.708
883.341
841.522
837.86
830.568
835.262
852.075
13065.3
10707
10122.1
4443.12
2871.27
1540.24
1552.9
1207.96
1301.71
1177.49
1247.33
1172.81
1168.16
1088.6
1055.21
998.704
978.127
956.703
951.187
962.245
844.52
2891.77
2769.27
1603.79
988.962
745.775
631.159
536.95
469.962
416.893
379.744
345.45
313.755
281.097
253.79
229.497
211.556
195.225
185.461
170.928
775.993
980.259
701.631
1023.45
893.909
1087.77
780.392
649.629
623.03
466.653
854.456
749.719
671.637
486.68
768.038
1222.11
1144.45
1146.69
832.975
1350.47
1204.06
529.505
1100.29
930.674
714.894
506.51
1140.96
948.78
219.414
154.908
110.19
908.5
908.267
738.864
728.396
163.482
111.599
118.907
881.43
808.242
717.748
663.239
132.612
117.647
113.389
774.084
656.077
636.405
567.387
118.885
113.539
107.968
621.376
575.819
548.363
493.627
127.646
105.349
100.226
572.166
560.265
479.141
445.372
128.882
99.8749
99.0224
556.413
537.429
436.731
414.695
120.155
98.567
95.9524
530.717
505.88
408.975
393.214
96.9744
94.793
78.0573
497.44
486.733
388.462
377.925
120.022
252.148
183.993
762.013
741.321
927.729
935.351
139.667
186.633
183.216
734.581
695.524
927.329
836.022
126.078
169.107
144.435
668.808
580.662
785.433
647.618
105.652
135.057
110.107
553.783
481.773
608.288
529.856
90.9957
104.157
87.0432
461.921
412.098
504.978
416.476
85.8686
80.3949
68.7454
398.67
370.048
383.261
304.451
85.3033
65.2238
57.005
364.154
352.282
284.466
243.5
74.2827
55.5828
43.0549
349.604
352.797
235.669
226.818
171.148
195.724
112.902
850.459
897.526
744.413
750.643
179.471
108.356
103.297
893.933
808.21
739.987
684.571
139.219
103.67
115.148
761.445
642.234
678.981
697.908
118.274
122.035
150.822
615.615
581.429
715.157
758.753
110.816
157.752
166.432
569.704
497.738
759.078
710.861
75.654
165.586
128.782
457.013
345.169
673.337
531.984
56.8729
116.524
91.2218
316.765
251.153
492.587
377.556
41.6183
81.1275
50.3807
237.449
218.07
341.189
282.707
184.858
411.835
238.841
1006.15
930.16
1302.87
1222.48
138.17
215.805
184.875
890.103
792.879
1186.87
1029.33
132.35
163.719
132.37
777.302
767.869
942.18
795.559
153.073
132.496
135.354
773.542
783.557
769.757
710.06
168.498
136.384
129.162
777.096
714.872
679.711
605.16
135.555
127.382
112.302
677.793
547.346
579.253
511.287
100.244
108.944
97.1122
512.196
411.542
491.951
437.397
52.6235
94.2021
67.057
375.632
301.65
415.297
360.767
1168.24
966.407
904.443
1855.03
1657.63
1463.56
1338.9
976.57
881.529
789.272
1564.27
1316.41
1278.22
1088.23
781.292
753.682
663.358
1240.75
1059.33
1030.86
889.351
673.284
638.034
570.07
1008.32
903.192
850.262
752.009
640.34
552.51
510.019
883.095
828.792
726.311
660.66
608.711
498.768
470.783
814.382
772.168
642.917
601.065
573.054
463.76
445.525
761.007
723.776
591.038
567.922
542.171
440.471
422.988
714.146
686.635
562.473
545.873
911.177
1154.84
1094.34
1441.93
1317.93
1530.81
1409.49
814.79
1072.27
948.197
1265.93
1091.44
1357.75
1172.16
671.731
892.289
741.647
1033.16
882.419
1109.84
951.032
555.983
701.504
609.225
839.373
729.48
918.291
724.07
472.965
575.828
466.758
697.444
611.971
658.079
497.867
421.72
429.323
340.819
589.095
542.27
457.145
376.159
400.519
319.121
276.33
532.871
516.278
363.228
348.792
395.555
268.691
256.738
513.65
514.207
349.627
363.83
1059.11
1030.97
944.368
1499.14
1387.83
1529.07
1375.24
919.665
917.138
837.046
1336.11
1159.94
1319.83
1198.9
745.048
827.278
840.688
1105.85
983.236
1180.69
1159.54
668.829
854.57
875.908
962.506
794.92
1154.89
1102.02
550.697
869.354
788.465
734.027
575.489
1066.09
912.766
386.317
742.498
591.946
526.449
425.988
853.787
695.198
287.043
548.875
425.489
404.893
363.297
649.272
528.909
246.566
389.519
322.243
355.583
350.283
498.042
441.055
1126.77
1673.56
1448.9
1776.86
1519.31
2025.75
1792.89
952.672
1391.68
1184.73
1448.27
1304.42
1715.78
1463.21
918.757
1088.33
932.279
1279.59
1231.2
1372.53
1216.48
904.79
903.321
823.458
1215.46
1132.33
1179.76
1050.47
795.384
786.207
692.148
1090.08
932.09
998.133
864.515
610.883
661.91
583.09
874.996
726.138
826.115
727.248
461.255
560.649
494.839
683.47
565.562
696.811
610.216
342.554
470.775
400.937
532.861
462.808
582.832
512.251
1774.84
1615.24
1453.98
2406.61
2042.31
1990.1
1727.75
1397.8
1381.59
1165.87
1910.63
1599.28
1624.26
1351.55
1131.16
1103.28
949.437
1520.45
1313.65
1278.3
1098.88
966.049
907.16
801.611
1257.25
1129.36
1049.8
927.936
880.473
773.649
701.562
1099.47
1014.28
894.458
806.732
816.289
682.078
636.765
990.438
928.31
783.16
730.596
763.584
625.991
602.146
911.537
862.891
718.956
696.388
721.622
596.725
578.747
849.874
811.524
691.759
676.614
1423.39
1630.05
1481.92
1911.46
1675.25
1860.51
1653.15
1161.47
1422.86
1225.37
1582.45
1326.17
1576.72
1355.42
937.501
1162.56
1005.24
1253.54
1073.4
1291.74
1132.19
901.326
850.848
901.219
940.139
856.95
897.109
946.456
705.237
708.525
717.06
782.264
670.987
747.205
753.717
576.223
427.41
373.129
722.69
669.38
454.055
454.732
549.93
370.015
375.176
659.575
647.08
464.569
494.598
546.891
380.343
399.654
646.639
649.199
505.982
542.146
1464.75
1658.02
1480.22
1848.51
1646.87
1939.29
1727.46
1220.76
1419.94
1292.19
1573.88
1372.96
1658.23
1508.92
1045.75
1270.61
1233.77
1318.33
1185.42
1475
1384.7
1096.57
953.002
1081.01
1070.83
1050.94
903.952
1139.03
840.986
623.506
900.898
543.798
844.614
483.445
904.399
420.144
870.577
714.987
475.938
481.087
892.62
757.304
388.839
670.359
556.81
487.554
500.381
720.915
639.057
385.921
528.607
474.374
506.009
530.927
621.198
591.347
1609.61
2094.38
1856.65
2083.76
1820.15
2240.88
1989.57
1388.72
1773.68
1523.48
1743.3
1580.45
1899.39
1654.72
1299.45
1435.2
1279.48
1541.75
1434.36
1572.82
1408.38
1174.51
1240.79
1098.13
1393.54
1234.52
1359.38
1184.91
954.233
1042.65
901.536
1170.82
982.922
1124.65
973.924
748.722
862.078
758.875
928.203
794.889
933.512
824.942
592.78
726.9
637.974
757.911
670.497
792.054
708.557
496.146
611.104
540.474
649.801
607.832
685.421
628.401
2115.07
2107.3
1803.97
2882.05
2343.89
2473.23
2048.62
1660.63
1691.38
1404.71
2194.73
1881.72
1913.5
1597.89
1370.23
1329.05
1143.21
1801.33
1580.15
1517.31
1309.51
1180.85
1092.16
965.18
1518.98
1375.95
1250.07
1102.12
1056.16
930.109
838.324
1337.59
1219.02
1061.67
958.068
963.052
813.843
760.443
1185.6
1103.44
932.234
886.708
893.283
749.192
728.431
1081.4
1018.67
879.984
868.074
837.862
724.209
708.542
1001.07
951.267
864.721
847.994
1746.42
1934.36
1705.5
2352.19
1982.44
2187.62
1911.86
1373.89
1624.22
1396.28
1858.99
1555.74
1819.53
1571.27
1113.29
1331.47
1165.19
1474.74
1262.89
1496.81
1285.7
927.472
1117.33
874.491
1201.71
1047.06
1216.96
1007.92
780.195
775.961
573.007
1002.6
890.587
930.332
746.917
699.654
536.015
509.232
863.613
824.576
709.893
676.619
681.409
514.359
543.981
823.327
830.548
683.842
736.26
683.553
556.626
591.497
833.071
832.89
752.878
787.366
1702.49
2026.57
1799.65
2175.7
1919.46
2301.76
2060.65
1420.12
1727.95
1569.77
1835.51
1612.13
1982.95
1792.73
1219.7
1530.95
1419.49
1543.73
1341.27
1735.64
1543.38
920.99
1376.83
1209.57
1273.91
1044.94
1471.81
1244.57
599.008
1142.61
950.108
960.172
766.942
1170.17
982.514
530.661
896.53
770.542
727.531
687.584
936.028
850.213
547.822
738.173
670.201
692.95
737.685
836.704
818.791
582.243
656.481
633.156
752.396
784.311
816.693
812.699
1884.06
2296.97
2033.71
2418.84
2130.54
2536.96
2207.12
1634.78
1939.01
1693.36
2044.81
1841.83
2098.79
1846.02
1465.58
1611.99
1440.71
1782.47
1584.49
1768.39
1564.01
1241.06
1387.52
1204
1510.59
1281.93
1493.51
1288.56
986.832
1143.14
992.042
1209.41
1026.76
1229.18
1076.03
808.274
951.477
843.245
980.596
889.631
1033.77
932.019
699.318
811.14
732.718
871.548
838.522
905.706
846.266
647.268
711.402
657.825
831.82
816.796
828.657
788.171
2431.59
2610.39
2149.74
3337.81
2674.41
2983.83
2460.33
1981.71
2010.54
1693.05
2555.1
2276.4
2320.41
2017.53
1680.64
1612.42
1397.9
2228.84
1990.57
1944.86
1725.16
1474.37
1335.38
1179.41
1957.2
1806.89
1663.06
1504.35
1307.26
1137.15
1029.42
1786.32
1629.6
1464.33
1358.58
1185.36
1003.67
966.381
1609.74
1511.74
1340.94
1345.46
1095.22
962.273
952.814
1503.34
1417.7
1348.47
1336.98
1022.1
949.312
928.789
1411.17
1333.79
1333.77
1308.72
2084.29
2296.43
2014.42
2855.06
2408
2632.15
2368.5
1649.7
1920.67
1668.18
2278.36
1981.39
2273.9
2020.29
1345.69
1589.6
1355.96
1901.78
1668.1
1933.59
1664.36
1116.64
1279.72
1064.43
1600.07
1431.84
1574.97
1353.79
956.414
989.871
811.733
1388.41
1279.49
1288.48
1132.21
902.573
776.822
756.185
1262.42
1287.84
1110.06
1160.58
919.334
772.363
839.023
1309.1
1321.04
1213.31
1289.42
916.63
855.821
883.781
1321.96
1300.11
1300.44
1303.56
2026.01
2419.01
2180.04
2633.91
2394.29
2792.15
2584.5
1714.03
2101.47
1902.06
2310.53
2076.74
2497.68
2277.04
1411.68
1838.81
1616.56
1992.88
1719.32
2198.32
1922.99
1098.25
1534.45
1288.27
1624.58
1379.39
1821.06
1558
828.572
1212.32
1026.48
1307.95
1143.89
1483.93
1316.97
765.352
982.762
918.312
1120.27
1168.14
1286
1303.21
840.756
914.316
911.224
1220.25
1294.56
1325.19
1338.45
882.483
911.336
906.606
1305.07
1306.43
1339.07
1328.42
2247.12
2649.43
2290.48
2928.41
2649.16
3039.94
2650.11
1946.45
2176.27
1926.35
2547.87
2313.38
2493.32
2257.7
1657.66
1851.94
1635.98
2236.06
1963.24
2172.93
1956.09
1329.83
1558.51
1351.74
1860.35
1606.95
1830.3
1665.99
1075.13
1293.75
1139.43
1535.53
1374.11
1596.01
1474.15
959.732
1095.7
998.885
1340.96
1345.06
1402.77
1357.33
926.933
975.336
920.609
1347.76
1342.67
1327.4
1301.29
907.59
903.274
863.309
1339.2
1323.15
1267.66
1241.55
853.366
812.313
763.98
818.729
810.934
856.968
803.603
922.202
927.619
903.847
1021.77
881.357
973.973
866.717
852.502
750.169
801.302
559.337
819.601
774.06
686.416
941.111
983.53
977.632
1022.86
939.177
986.689
976.222
892.847
858.033
935.001
876.367
897.793
841.738
927.959
960.318
1053.56
1047.41
1009.65
1013.73
891.232
995.697
891.252
578.622
855.539
906.016
811.473
711.019
930.702
659.777
677.696
591.124
684.805
627.901
714.457
621.066
629.955
682.233
550.376
476.298
618.847
698.034
404.137
559.381
511.378
496.692
385.127
559.235
514.579
373.986
740.495
819.905
816.615
824.058
783.246
790.106
774.181
693.607
718.078
781.478
685.645
749.019
652.674
727.535
662.132
484.363
778.763
587.984
732.65
409.474
708.176
587.318
374.701
594.509
532.433
542.742
370.354
643.123
1034.31
859.108
954.81
626.316
1007.87
741.173
967.94
1187.42
1153.67
1205.38
1276.04
1137.8
1210.18
1251.64
1152.76
1076.73
1179.89
1174.55
1112.21
1107.63
1217.97
1140.55
1107.02
1080.61
1221.6
950.134
1186.8
1175.05
1065.04
634.949
963.7
1020.39
769.708
987.426
1101.91
1225.57
1318.12
1288.56
1310.14
1254.66
1285.83
1252.02
1182.7
1193.63
1141.05
1261.27
1128.6
1244.35
1202.27
788.357
565.258
731.319
436.206
790.671
445.877
722.518
995.653
1032.78
1048.57
1122.89
980.81
1054.63
1065.09
936.046
865.875
991.248
941.321
925.232
873.357
1003.75
840.616
534.874
622.377
937.783
462.313
912.775
858.189
784.541
403.685
547.577
733.98
423.492
717.863
793.072
1002.92
1135.57
1073.81
1075.33
1067.5
1073.11
1005.11
939.911
946.667
875.806
1010.45
875.439
1009.34
939.327
431.729
566.721
426.058
895.789
851.5
897.176
838.668
277.538
333.097
277.474
725.422
628.906
769.542
718.308
194.26
240.96
208.478
553.671
522.038
678.744
606.988
181.221
190.279
189.499
510.658
521.815
539.472
528.341
204.709
194.232
205.066
555.163
584.11
538.121
546.036
220.973
210.473
210.935
593.621
598.421
546.454
541.629
225.192
209.763
204.683
598.281
599.567
533.164
521.786
208.064
199.701
161.235
593.589
646.601
506.311
521.673
333.272
316.634
256.234
761.483
704.407
673.836
644.308
346.413
284.424
233.385
420.617
417.008
345.777
196.649
373.93
178.355
137.97
366.624
363.884
359.655
133.564
346.528
153.304
129.881
354.447
344.481
364.435
124.377
312.585
118.999
113.564
290.494
293.512
312.47
113.809
318.131
123.981
118.224
323.678
334.209
318.124
118.859
319.063
130.259
123.493
339.251
340.149
320.031
123.593
303.8
126.07
121.617
326.095
322.605
309.678
119.11
282.915
116.437
112.921
300.007
297.056
287.695
110.21
161.041
162.073
128.664
397.716
416.691
348.888
363.168
308.088
432.005
372.147
730.51
698.605
792.613
799.431
337.663
147.079
201.787
310.008
313.46
326.242
165.64
430.839
125.591
146.21
354.455
372.22
408.787
151.319
413.635
138.252
158.792
386.346
373.537
439.379
152.295
318.421
116.169
126.059
323.769
310.097
337.845
119.391
252.639
96.8623
98.9786
270.013
259.913
266.567
93.5759
207.62
87.3143
81.5833
236.208
230.805
216.24
78.9695
188.923
85.7432
73.8837
221.506
219.608
190.959
73.7423
187.062
84.4257
74.3618
214.941
213.884
186.836
74.7144
117.657
104.629
84.6029
298.73
325.891
229.154
247.117
325.856
441.129
318.301
725.181
693.712
741.955
643.901
338.411
175.536
201.37
345.76
367.743
330.112
159.282
425.578
184.182
148.37
488.369
500.715
417.206
152.546
372.377
155.88
146.401
453.02
423.63
395.191
139.11
343.903
121.883
122.251
345.395
332.027
339.865
122.748
384.141
117.997
141.855
325.465
321.532
383.084
144.119
314.233
88.3876
138.524
262.06
230.773
354.91
126.54
193.455
65.9486
83.8989
179.596
164.589
212.548
77.0253
133.802
51.9741
57.9867
133.212
127.82
142.777
53.6574
67.055
93.8489
68.9664
192.257
207.093
214.114
220.139
513.657
750.71
603.676
1016.6
932.7
1255.1
1194.51
481.853
258.847
344.697
469.398
442.194
496.798
278.027
443.804
152.145
188.506
410.617
402.246
453.731
174.381
390.658
130.821
153.485
373.219
370.312
410.367
144.252
412.509
139.334
134.733
388.331
408.856
394.559
137.237
434.05
162.492
151.894
445.842
451.046
430.935
156.657
395.023
164.169
159.66
440.122
416.06
415.617
155.815
299.709
114.361
120.991
318.022
297.954
315.569
114.557
228.509
80.5391
98.0864
226.916
205.581
246.936
88.5287
82.676
129.012
98.0038
252.644
255.1
279.63
282.09
307.233
398.29
248.325
709.397
757.226
628.337
618.325
227.169
212.224
222.095
740.352
697.365
635.693
652.188
210.053
226.044
220.394
634.233
605.934
646.894
631.62
208.521
218.152
213.568
594.128
580.782
605.568
553.56
194.302
202.709
183.445
550.567
517.89
505.799
472.377
170.36
165.303
152.301