/*--------------------------------*- C++ -*----------------------------------*\
  =========                 |
  \\      /  F ield         | OpenFOAM: The Open Source CFD Toolbox
   \\    /   O peration     | Website:  https://openfoam.org
    \\  /    A nd           | Version:  10
     \\/     M anipulation  |
\*---------------------------------------------------------------------------*/
FoamFile
{
    format      ascii;
    class       volScalarField;
    location    "7.4";
    object      omega_0;
}
// * * * * * * * * * * * * * * * * * * * * * * * * * * * * * * * * * * * * * //

dimensions      [0 0 -1 0 0 0 0];

internalField   nonuniform List<scalar> 
12920
(
35.6326
124.852
152.626
136.927
95.531
72.5956
59.6134
56.5592
54.8479
54.5922
54.1019
54.069
54.037
54.1322
54.2566
54.5105
55.553
57.9324
58.2502
55.8812
57.683
166.004
178.994
158.949
123.159
106.334
90.1479
81.8163
74.9234
70.5841
67.0829
64.7472
63.2502
62.7722
62.8256
63.5604
64.9885
65.212
64.7483
59.7588
161.379
165.788
163.956
143.251
117.123
102.653
93.6335
90.1303
87.587
84.5735
79.7942
75.0192
70.2031
66.0985
63.6024
61.9788
61.1035
59.461
57.9511
53.4482
269.49
182.62
149.886
129.335
115.949
109.848
109.018
108.025
104.173
99.9586
94.9238
89.9993
82.9573
74.7187
67.843
62.7961
59.7264
55.4745
52.8096
47.6063
131.458
220.052
206.227
178.857
157.042
135.306
118.777
112.247
108.696
107.028
102.223
97.8756
92.0763
83.5977
73.9883
65.3592
59.3735
53.8225
51.2102
46.4685
145.384
186.577
186.398
184.378
176.667
157.971
134.573
120.889
113.168
109.473
103.04
97.3836
93.8742
89.7163
82.0953
72.2689
63.5294
55.9476
52.2592
48.062
127.967
168.922
176.567
176.171
172.517
158.843
129.662
109.855
94.8559
86.9901
85.1646
85.3996
86.6746
88.4183
88.4173
87.0057
82.2358
70.4403
60.4549
52.2858
186.648
242.004
216.041
188.369
152.855
134.738
211.848
163.898
134.651
120.047
123.717
130.877
133.903
134.283
83.7928
78.1617
69.9377
61.0975
55.6769
50.4769
122.728
233.137
225.547
179.571
123.404
174.724
319.511
254.515
226.495
199.549
197.903
204.099
202.646
195.276
120.763
65.4712
58.7869
53.6343
51.6989
49.1044
194.414
220.42
209.091
169.305
125.705
176.765
244.133
197.256
211.768
195.989
178.544
168.136
165.442
164.475
104.636
59.1474
55.6016
52.6285
51.712
50.2791
414.732
343.493
240.457
172.895
131.024
183.235
261.678
240.231
228.724
202.055
194.194
176.766
150.269
131.103
81.8034
50.5074
49.02
48.8409
49.1257
49.3164
529.658
310.046
216.117
184.728
158.813
233.135
323.873
229.52
206.517
207.413
224.931
231.326
196.45
169.435
94.9509
54.2464
51.0213
49.4491
49.1981
48.6543
308.327
233.499
181.685
158.978
137.261
117.032
176.395
141.821
129.987
129.085
127.392
119.673
112.359
105.207
57.8009
51.7128
49.0991
47.5767
47.2165
46.1288
374.548
286.576
188.551
151.13
127.11
117.644
106.217
99.3178
91.8083
82.6196
74.7416
66.9237
60.1838
54.1351
49.5161
45.8961
43.815
42.3762
41.9281
41.5147
817.18
592.504
336.576
196.175
135.166
119.847
105.866
95.632
83.7751
73.0765
64.4571
58.0786
53.5713
49.9928
46.9838
44.4016
42.205
40.444
39.4753
38.4429
351.449
317.877
235.55
202.861
167.194
137.269
112.753
100.067
86.3951
75.2262
64.7289
57.1395
51.7756
48.2893
45.5785
43.5474
41.771
40.3977
39.5921
38.4528
45.794
160.008
166.544
161.25
137.872
123.225
106.884
97.1327
84.2209
76.2083
67.4159
59.5791
53.1141
48.818
45.7187
43.6101
42.0198
41.0431
40.5504
39.919
145.125
195.122
192.48
154.146
127.869
118.942
102.837
94.1785
82.6171
74.9496
67.2378
61.4543
56.295
52.5614
49.3079
46.9163
45.0386
43.858
43.2923
43.1437
42.9146
142.513
174.271
153.151
117.07
99.9774
85.7029
77.6224
70.3079
66.6033
63.1214
60.7969
58.8741
57.4989
55.6222
53.5733
51.3167
49.3095
47.7853
47.1344
38.7157
135.48
152.816
141.834
118.676
103.354
91.2918
81.8326
72.2051
62.36
54.384
50.4239
48.0868
46.2978
44.7661
42.8194
41.552
39.5648
38.5053
35.9144
74.4707
82.3357
81.6208
71.2152
54.4136
44.1572
38.9527
37.1262
35.9312
35.4615
34.9569
34.7407
34.6115
34.536
34.5562
34.6632
34.938
34.9674
34.7225
32.2338
95.8887
120.266
97.0704
75.5309
63.8551
57.1174
53.0827
48.857
45.9203
43.6561
42.252
41.2667
40.5725
39.5748
38.7973
38.21
38.2832
38.9248
41.0419
40.9493
190.961
156.569
116.552
91.0098
75.9398
66.3404
59.8166
55.127
51.3388
48.9294
47.0555
45.5404
43.6783
41.0752
38.6944
35.6503
33.255
31.6667
31.339
30.1797
317.577
191.892
114.788
91.3005
79.0005
69.8556
61.6104
55.8668
51.6829
49.8405
48.1764
47.2899
46.3206
44.4116
40.8748
36.1229
32.369
29.0634
27.7041
25.034
201.804
170.362
137.177
109.067
95.7214
84.0385
71.6878
61.2108
55.6409
53.1379
51.5884
50.2207
48.8488
47.085
43.49
37.7294
32.865
28.616
26.5753
23.7286
164.217
156.202
115.973
94.8477
85.9674
82.8568
77.7471
71.7492
67.0838
63.3465
61.1785
57.704
53.0202
50.0575
48.2355
44.7004
38.7102
32.3392
28.1977
24.9368
111.325
104.218
102.551
98.4311
89.4513
82.6247
73.6015
67.2979
60.4218
54.8064
48.7659
45.2029
43.8307
43.9377
45.1332
47.1866
47.4386
46.1934
39.8307
30.502
152.658
129.145
108.275
94.579
84.0109
77.2872
77.9814
71.6854
62.1315
50.2964
41.6085
38.5972
38.342
38.6243
36.7727
38.1636
38.0673
36.5386
32.2891
27.7854
180.631
152.594
130.785
84.7399
64.9235
65.3279
71.9759
69.7625
60.7464
47.7928
36.0835
33.3738
33.0414
32.8841
30.9403
29.1675
28.8079
27.5747
26.2149
25.1487
209.175
167.644
136.537
85.8098
67.8328
65.5271
60.6471
52.2224
45.7982
36.8871
32.5706
31.4244
30.4082
29.85
28.388
27.401
27.3324
26.8387
26.2671
25.7147
211.793
230.13
175.344
120.279
89.1653
80.4344
68.3027
58.0163
54.0228
43.8564
43.8588
46.4726
37.5937
30.4027
26.8927
25.9477
26.5546
26.7989
27.2232
27.4923
264.903
175.602
149.376
131.921
110.25
101.687
85.2928
70.071
66.2801
61.5309
50.5054
45.4368
42.9438
35.9975
29.083
25.91
25.5506
25.7529
26.5957
27.148
205.503
145.166
96.8077
98.1902
90.624
71.9061
71.1845
65.0917
51.4621
44.8055
39.8775
37.8383
36.7201
35.1543
28.0099
25.2493
23.9442
23.6382
23.8543
24.3276
183.613
157.728
106.195
93.8457
80.6758
69.6443
61.471
57.5229
51.0635
44.7198
38.9479
34.5692
31.1544
27.9944
25.3549
23.0643
21.7192
21.0438
20.9409
21.1432
369.781
275.898
176.863
126.088
85.5718
66.9473
58.211
52.6646
46.1232
38.1428
32.3926
28.6276
26.4624
24.6958
23.2515
21.9415
20.9385
20.1894
19.6403
19.567
438.33
196.794
153.15
150.512
120.476
86.6711
62.7507
54.36
48.8224
43.1389
36.1273
30.2606
26.3828
23.961
22.4313
21.3539
20.5612
19.9877
19.5558
19.3505
147.912
172.104
131.24
109.92
82.8219
63.3723
52.3127
49.7123
46.7566
43.4352
38.6761
33.0646
27.9082
24.2771
22.1591
21.061
20.3363
19.9574
19.7062
19.6547
174.105
127.335
102.367
81.7169
66.1222
58.6167
50.6505
47.4776
43.9134
40.3682
36.267
31.8591
28.0985
25.6815
23.9493
22.8392
22.0369
21.5465
21.2969
21.2477
171.894
136.087
111.854
80.8948
60.7861
53.0959
47.0096
41.9193
38.6162
35.8909
33.2827
31.6174
30.1754
29.2988
28.3409
27.474
26.6616
25.9341
25.4834
25.1169
19.4757
66.44
79.4587
76.1271
63.3944
55.3267
48.1777
42.9495
37.162
32.2886
28.8742
27.6554
27.0086
26.6877
26.3785
25.8351
25.4562
24.5885
23.9141
22.0746
60.7759
88.6453
88.5701
74.9626
60.467
49.3805
45.5905
42.8942
41.6243
40.5648
40.1082
39.5298
39.1296
38.6163
38.1721
37.7427
37.337
36.279
35.0019
30.4216
318.782
138.383
96.7267
68.4982
56.6276
49.6839
45.0793
42.4948
39.8441
38.8725
37.6309
37.2025
36.4933
36.0088
35.8064
35.8831
36.4664
37.2228
37.6105
36.5008
255.136
163.812
116.614
84.5204
66.9786
57.9346
50.7162
47.1102
43.3741
41.8844
40.0004
38.8027
37.0842
35.3856
33.6369
31.982
31.0688
30.4078
30.1355
29.1114
157.713
148.392
111.467
85.762
70.4676
60.7554
52.1927
47.3328
43.4073
41.8267
40.1061
39.0545
37.5456
35.5565
33.1726
30.5701
28.6741
26.915
26.0751
24.4785
207.494
135.872
106.538
87.6821
74.0192
64.5107
55.3479
49.3734
45.7102
43.7633
41.9791
40.4703
38.7559
36.5892
33.8175
30.5147
27.9209
25.7678
24.7048
23.3274
184.305
155.562
108.541
85.4483
71.7232
65.3578
59.3101
55.3638
51.6366
49.187
46.9309
44.6035
41.9292
39.5138
37.2916
34.0586
30.5161
27.3549
25.4706
24.113
218.005
130.857
108.977
90.4441
74.4989
66.1878
57.5129
52.4713
46.8479
43.2396
40.1811
38.7355
38.0516
37.9239
37.9321
37.7206
36.5384
33.287
29.7257
26.7093
133.778
130.133
102.781
80.9585
68.821
62.4968
60.5582
53.2684
46.4474
38.961
34.939
33.5027
33.4694
33.7675
33.0267
32.7874
31.5422
29.3095
27.3627
25.7991
210.148
179.086
131.729
75.2889
55.988
54.6988
56.2611
51.4494
43.2971
35.3069
30.6041
29.3537
29.0996
28.9684
28.4756
28.131
27.1949
26.1622
25.4248
24.93
242.103
190.156
149.305
76.7339
54.5466
48.9606
46.5475
41.7944
36.2646
31.1055
29.3517
29.5847
28.7104
27.7832
27.6047
28.243
27.641
26.8761
26.4111
25.8059
212.435
164.693
121.913
82.1106
60.7832
55.3005
50.2566
44.8499
40.6827
36.0996
76.9908
64.0424
40.971
31.4575
28.3836
28.584
28.7483
28.7924
28.7441
28.1219
186.324
133.318
109.343
95.3036
73.1169
65.6059
59.4126
51.7676
49.661
45.5776
40.3712
37.1981
33.0195
28.6753
26.5822
27.0235
27.2037
27.5738
27.7804
27.534
193.597
156.504
82.6497
70.9669
63.4378
52.5004
51.3005
48.3368
40.5791
36.6743
33.3739
31.9854
30.3576
28.6397
25.7582
24.4536
23.9754
24.0009
24.2646
24.4812
183.897
153.188
93.0476
70.2028
59.3683
53.1825
46.9714
42.9356
37.9433
33.5745
30.5414
27.9523
25.9595
24.0917
22.7003
21.7259
21.2068
21.1489
21.2481
21.6995
282.44
169.231
102.533
79.5489
59.5249
49.7121
44.4769
39.6679
34.4431
29.8283
26.747
24.6812
23.323
22.2294
21.3269
20.6732
20.1881
20.0176
19.9938
20.171
698.866
154.567
103.086
90.0834
71.6554
55.5454
45.0322
41.1756
36.3746
32.5594
28.1159
25.2072
23.0973
21.8732
20.9903
20.4833
20.0661
19.9182
19.8551
19.944
257.364
130.27
97.4387
72.3408
58.0754
47.6422
41.568
39.2535
36.1432
33.4485
29.6256
26.6117
23.8723
22.3183
21.2479
20.7355
20.3656
20.2808
20.2685
20.3688
298.977
157.526
102.006
66.7833
53.4795
46.2692
40.7579
38.0834
35.0078
32.8388
29.9967
28.0086
25.9551
24.7532
23.6919
23.1008
22.6331
22.4319
22.3837
22.4382
75.0214
125.319
117.645
74.5145
51.3641
44.013
38.9416
36.6244
34.3088
33.25
31.7728
31.2823
30.4591
30.1086
29.3876
28.8517
28.2013
27.7543
27.464
27.3293
14.7779
66.2047
83.0531
78.8459
65.4941
56.7015
50.476
45.5673
40.5765
36.4262
33.4518
31.8711
30.9277
30.1994
29.5976
28.6424
27.9743
26.7051
26.0178
24.3657
83.7442
107.422
99.8369
74.089
62.2034
50.6129
48.8161
45.491
44.6495
42.8602
42.2903
41.0466
40.3551
39.3084
38.5519
37.4757
36.4192
34.3739
32.392
27.5419
251.722
135.073
103.829
66.8828
60.3805
49.0987
47.0264
43.051
42.0774
41.0305
40.732
40.6607
40.6995
40.8407
41.1503
41.6751
42.1134
42.0771
41.6108
40.2771
281.004
176.196
120.999
82.9205
69.0774
57.0126
51.8151
46.8863
44.4639
42.5019
41.2588
40.1086
39.0235
37.952
36.9911
36.2208
35.8259
35.2387
34.8145
34.2021
127.992
128.502
115.773
85.4908
71.8256
59.1552
52.5193
46.7902
44.0628
41.9382
40.6007
39.2252
37.9122
36.3433
34.8458
33.4208
32.4198
31.3884
30.7063
30.1151
156.702
133.559
108.58
81.5149
70.1926
59.4708
53.5409
48.0259
45.6935
43.2257
41.607
39.7295
38.023
36.0711
34.1726
32.2673
31.005
30.0461
29.5475
29.1714
481.735
178.047
124.422
84.2457
70.0647
59.9513
55.4709
51.4297
48.8643
46.5585
44.7491
42.6456
40.5887
38.1962
36.2273
33.9065
32.0926
30.7631
30.095
29.7761
275.457
145.874
113.098
87.9357
72.6093
61.3087
53.6305
48.4229
44.9257
42.8221
41.404
40.3703
39.5876
38.7581
37.7737
36.2579
34.6677
33.0505
31.9221
31.3206
265.039
182.726
105.246
76.6391
66.7989
58.5775
54.1176
46.6159
42.0937
38.0833
36.548
35.7207
35.4984
35.2774
35.5216
34.0002
32.8359
31.8835
31.2832
30.9788
263.869
183.762
118.289
68.4992
55.4228
52.8952
51.4444
44.8627
38.9587
35.1123
33.381
32.8221
32.5584
32.4179
33.0288
33.4312
32.0829
31.2747
30.9191
30.7702
228.846
179.799
114.642
64.0916
51.1286
45.4692
43.8531
39.855
35.9474
33.4098
32.684
33.099
32.9774
32.8806
34.0547
34.9973
33.6615
32.7181
32.1885
31.605
191.373
143.568
91.9685
61.0347
51.6013
45.984
44.1998
41.2286
38.716
37.2969
58.9203
55.7774
41.149
36.5399
36.0879
36.7413
35.6976
34.8685
34.2804
33.1313
170.181
121.892
85.5742
66.1451
56.9072
51.1919
49.2893
45.436
43.672
41.3757
38.6832
36.0321
33.6499
32.6628
33.828
34.833
34.1602
33.6247
33.313
32.5606
257.682
135.034
77.6117
59.467
55.6104
45.7485
45.2398
43.0754
38.4436
36.3226
34.2442
33.3031
32.0223
31.2956
31.3272
30.1631
29.779
29.8077
29.9551
30.0718
160.276
141.168
89.728
60.6576
56.0148
46.7533
43.7772
38.0813
35.6803
31.9971
30.9322
28.9935
28.25
27.2311
26.8502
26.6116
26.6268
26.882
27.223
27.8678
237.687
134.467
89.9097
63.0371
54.9536
43.4318
41.8762
35.651
32.7654
29.3827
28.2067
26.8343
26.3213
25.7552
25.44
25.3273
25.3521
25.6154
25.858
26.4199
420.399
124.042
83.7801
64.6312
59.1571
45.4604
42.3072
36.8732
34.1842
30.8879
28.9449
27.2996
26.4767
25.8864
25.593
25.4794
25.4651
25.6188
25.7731
26.195
182.716
153.567
93.9835
62.1742
55.0146
43.0895
40.9772
36.0933
34.6526
31.7646
29.9909
28.2851
27.2303
26.585
26.2021
26.0408
25.9978
26.1035
26.2118
26.5276
541.222
187.245
118.968
66.7167
55.6007
43.6756
41.5309
37.0996
35.9912
34.0945
32.9351
31.8303
30.8495
30.151
29.5494
29.2005
28.9652
28.9406
28.9583
29.1469
150.512
143.864
129.912
72.9641
54.2522
43.8341
42.3767
39.6892
39.2946
38.3864
38.1767
38.1172
37.8964
37.6794
37.0514
36.5501
35.9498
35.66
35.4253
35.448
37.9604
82.6032
88.8817
75.3182
61.9987
54.0567
49.1662
44.7175
40.7568
37.6891
35.5509
34.0996
32.9945
31.8784
30.8428
29.5106
28.4932
27.0513
26.3828
24.9661
89.7376
114.842
98.4455
70.5137
60.627
49.6278
49.1144
45.3596
44.3585
41.5505
40.6979
38.4037
37.4939
35.7158
34.6616
32.7162
31.3166
28.9566
27.1844
25.0154
242.271
162.381
121.526
68.8524
80.165
54.7531
64.8256
51.6349
58.3129
53.0008
57.2656
55.7459
58.5576
58.5816
60.2285
60.3827
60.3632
59.0188
57.9758
57.0372
220.743
163.845
138.601
80.9619
84.5498
63.0719
67.3945
55.9163
58.9235
53.2546
55.0443
52.3713
53.3246
51.9641
52.1953
51.3552
50.792
49.1965
48.2667
47.3502
159.93
137.298
134.072
84.9421
85.4183
63.5719
65.5814
54.4793
56.4088
51.2978
52.548
49.9672
50.3005
48.7368
48.5851
47.5533
46.9021
45.4352
44.745
44.0965
180.916
143.491
131.106
81.6298
84.4364
65.2087
66.5462
56.8231
58.0793
52.9754
53.525
50.4623
50.0188
47.6542
46.841
45.4258
44.9731
44.1978
43.9586
43.4133
217.102
192.337
154.503
84.7179
83.1283
63.221
65.5266
57.5555
58.2759
54.9148
54.885
52.6729
51.5553
49.0842
47.9816
46.264
45.8022
45.1614
44.9446
44.4816
276.219
165.353
139.451
90.2714
87.2244
64.8785
61.809
54.5392
55.5316
53.6917
54.5055
52.8275
51.9911
49.9213
48.2566
46.5623
45.9781
45.7315
46.1304
46.1865
753.973
332.382
129.059
76.251
80.9154
64.5466
59.2895
51.2913
51.199
49.722
50.4117
49.0355
48.6067
47.0353
47.5148
45.4812
45.2997
45.4544
45.767
45.6905
337.381
189.899
124.294
67.3927
67.3162
59.6351
58.6463
51.107
50.5352
49.9148
49.8575
49.0558
48.5564
47.9549
48.954
46.7156
45.0977
44.9647
45.1775
45.1175
247.115
179.309
109.161
66.9205
61.8561
51.5743
53.5166
52.1731
51.4081
49.8691
49.29
49.9258
50.8913
50.9126
51.2547
48.4096
46.7934
46.1754
46.0354
45.3263
175.086
165.408
100.831
64.8469
59.1963
48.5087
51.1761
53.8117
53.4624
49.9626
50.2409
50.6671
52.6325
53.0482
53.1148
50.4213
48.3155
47.4578
47.0536
45.9692
168.864
153.596
96.2767
73.0236
65.0741
52.116
55.9905
55.8107
55.0919
52.9127
51.3907
50.535
51.3839
51.8042
52.2005
48.637
47.0263
46.3456
46.1804
45.3882
220.642
144.398
87.7308
74.3137
66.2772
50.0828
52.3487
47.788
48.3213
45.6955
47.0639
45.5794
46.6332
46.0288
45.3943
43.3453
42.9755
43.0548
43.2251
43.2119
206.606
149.458
95.9418
67.0617
68.3019
49.9889
54.6934
43.0106
44.719
39.7281
41.9179
39.4506
40.8469
39.8247
40.3922
40.0087
40.4066
40.6763
41.1387
41.6185
287.284
156.484
95.2415
75.8546
65.7916
48.5098
52.0992
39.7497
41.6541
36.7939
38.8791
36.9977
38.4117
37.7185
38.3082
38.2994
38.7497
39.1862
39.4795
40.0142
419.979
173.042
85.4819
81.232
67.4915
49.6411
54.12
42.1429
45.075
38.8409
41.1421
38.3346
39.8594
38.5509
39.3713
38.8345
39.2569
39.2858
39.5096
39.8441
323.3
162.645
100.794
71.3105
67.9656
48.664
53.327
41.2193
45.4608
38.8011
41.7555
38.605
40.3143
38.8469
39.5919
39.0051
39.3954
39.3908
39.5704
39.7986
390.228
215.066
132.813
80.0274
73.3514
51.8965
57.1481
45.0816
50.0674
43.7727
47.0373
43.6749
45.1363
43.1877
43.7009
42.7321
42.9423
42.6793
42.8052
42.7923
359.449
208.026
156.602
81.3803
80.3582
55.1805
63.7581
50.0571
57.6481
51.4315
56.3173
53.4946
55.5382
53.736
54.0899
52.9056
52.7964
52.2431
52.1197
51.9612
53.3807
96.6643
94.1759
71.1677
56.006
48.6957
44.7924
41.3143
38.6446
36.4023
34.7382
33.1253
31.557
29.8622
28.3696
26.9774
25.9002
24.8814
24.2481
23.2793
29.4176
36.1808
76.5078
32.1663
31.335
36.2785
86.6398
29.6066
75.0991
60.9993
31.3872
31.8723
85.4928
67.2718
77.2115
43.6358
41.5391
36.3997
85.5311
40.7042
39.5834
68.8053
40.9692
39.3418
86.9109
79.3631
39.209
37.5247
263.688
221.995
187.418
85.7787
82.2858
65.5582
59.3995
228.209
188.679
194.513
79.7361
73.1176
57.0507
50.5849
205.213
193.418
190.183
69.978
61.1654
48.8872
42.7212
194.949
190.242
185.171
56.1069
42.9887
40.5877
36.4973
201.911
182.94
178.64
40.8683
37.7546
35.8394
34.7028
202.608
178.376
177.652
37.5648
37.1312
34.4335
34.0111
195.552
177.219
174.81
37.2241
36.9809
33.9584
33.7991
175.663
173.707
157.614
37.0128
35.2613
33.7162
32.0402
196.184
284.272
242.951
70.6524
60.5397
79.1737
70.286
211.576
244.549
240.884
58.0165
52.6245
67.8834
63.5181
200.236
230.806
214.049
51.3873
44.082
62.3698
51.6681
182.922
206.768
186.537
41.4334
36.8218
47.8261
43.495
170.076
181.512
165.765
36.212
35.1093
43.7408
45.4203
165.469
159.438
147.8
34.7783
33.8338
45.2186
39.7607
164.883
143.935
134.641
33.598
33.1878
37.7012
33.1718
153.758
133.053
117.181
33.0975
31.7833
32.2313
29.4814
234.382
249.26
189.709
78.1742
66.5689
83.1626
67.9155
238.255
185.685
181.283
64.1304
61.2959
64.8256
61.5334
209.843
181.697
192.099
60.4863
51.8871
61.5467
61.9543
194.069
197.82
219.932
48.7398
46.8389
61.5401
57.0482
186.797
224.785
230.369
47.5456
51.4951
55.648
52.9096
154.87
229.583
201.092
51.6538
45.4227
52.6767
52.1922
134.276
191.728
169.546
41.8113
34.7301
50.7866
42.0603
115.146
159.765
126.256
33.3028
29.506
39.7513
33.0033
242.866
361.865
274.734
100.204
81.7691
111.318
94.808
210.02
261.415
240.334
78.3773
73.3561
90.5073
82.2253
205.529
225.672
205.012
73.0376
70.5574
78.2431
65.9497
221.351
205.472
207.848
67.7217
58.7716
61.4084
51.3806
231.842
208.604
202.753
56.3575
51.2064
49.0327
45.1537
206.347
201.271
188.858
50.3922
49.4647
44.3577
43.4757
177.949
186.066
175.703
48.6961
43.1444
43.4037
42.6721
128.966
173.014
145.934
41.3396
33.7691
42.215
38.9549
71.3815
57.4184
53.5792
59.1267
56.306
48.2022
44.943
63.9298
51.6381
45.6752
54.7023
48.5869
43.4135
38.4577
52.1838
43.8775
38.0265
46.1837
39.2361
36.8354
32.4099
37.7518
36.1968
32.6567
36.8335
31.775
31.2298
28.9214
33.6054
32.07
31.0664
30.9356
29.5733
28.5426
28.0308
33.0014
30.8502
30.4715
29.4054
29.1347
27.9448
27.6873
32.8775
30.4099
30.2335
29.1362
29.0114
27.6018
27.3365
32.361
30.1617
29.5646
29.0075
28.8373
27.2557
26.8805
54.2053
68.052
62.5723
48.5916
44.7429
52.7705
49.1221
47.2948
60.6292
56.9034
43.3795
39.117
47.8874
44.5354
39.073
55.5726
45.8493
37.5827
32.8638
43.0679
37.3526
33.0846
42.7399
40.017
31.5858
29.4493
36.3418
48.391
31.6907
40.5061
41.8166
29.2607
29.2417
49.8446
48.2451
30.6266
41.5338
36.3817
29.1901
28.6073
46.6542
39.1744
29.9561
34.562
30.6697
28.3427
27.6491
36.8191
31.7916
29.3734
29.8868
28.1247
27.47
26.8751
30.7275
28.5264
60.0893
71.6331
61.3615
53.5707
48.4591
56.2916
50.653
55.0215
58.9576
56.2852
47.1132
43.9395
49.27
47.4651
46.2317
56.3174
56.5661
42.7268
38.5935
47.3608
46.4579
42.9749
55.9744
51.4866
37.5029
50.8463
45.6747
42.9428
46.5397
50.13
47.657
52.5299
52.0225
42.2134
40.5138
40.5516
47.3981
46.0464
50.27
40.7233
39.9384
36.3463
31.6132
44.0981
36.61
37.6127
31.3719
34.5656
29.7942
27.9887
34.6506
29.7734
30.1788
28.1864
28.6528
26.0622
72.8081
96.38
85.9724
64.3176
56.6437
70.5081
63.4585
66.3562
82.5637
74.4775
54.9932
52.9676
61.35
55.7716
64.3244
70.6365
59.0334
52.7995
50.1162
53.088
45.7318
52.7564
54.8185
45.9633
48.3211
43.1648
43.4983
38.3829
46.1104
43.8213
40.4944
41.8523
39.1443
37.026
34.7488
44.1169
39.8303
39.1504
38.4725
35.6827
34.2852
33.2239
37.6268
38.9312
37.9062
34.3494
30.3448
32.7498
31.0745
30.6158
37.3091
35.0488
29.2539
26.3974
30.4416
28.31
53.3748
46.5843
43.4334
52.1102
47.6674
44.6529
41.3313
45.5333
41.9384
37.2401
45.7235
40.5503
39.9314
36.1191
37.2401
35.7436
31.8346
39.0992
35.3762
35.0696
32.639
31.2668
30.8268
28.8562
34.3459
32.3905
32.0512
30.8829
29.4996
28.5459
28.1894
32.0799
31.5027
30.7197
30.623
29.1091
28.1326
27.9046
31.3977
31.1852
30.6155
30.569
28.9759
27.8158
27.5538
31.1497
31.0303
30.5547
30.5186
28.8425
27.4756
27.1137
31.0119
30.9109
30.4957
30.3975
43.0819
49.5362
46.4445
43.7955
40.7759
44.4386
42.0768
37.6989
45.3215
42.0565
39.6273
36.2523
41.2184
38.6033
32.175
40.6978
36.1981
35.2384
32.781
37.7171
35.5855
31.6615
30.2707
32.1258
31.0497
31.4566
30.3651
31.8935
34.6187
29.4075
32.5217
29.7726
33.335
29.9091
33.6059
28.9986
57.0513
44.0045
31.8749
31.5135
61.5641
45.5603
27.972
40.4266
33.4668
31.3625
31.0279
42.0948
36.3211
27.152
32.1023
29.4006
30.9342
30.5985
35.2877
33.4642
46.057
52.9654
48.4759
44.8443
42.1187
47.5206
44.6434
41.7924
47.2639
45.5959
41.2669
38.9787
43.8429
42.5463
37.6597
45.4299
44.3447
38.2932
36.859
42.2837
41.2086
54.2791
59.7464
39.0707
42.9358
44.0847
253.592
39.0387
61.1071
75.3948
51.4233
212.697
51.401
195.662
62.5061
45.582
38.6318
34.8263
71.9757
47.392
36.6896
33.6393
32.8438
33.2197
29.2158
42.7962
36.0469
32.7393
31.0567
29.0822
28.3011
26.2765
35.0474
33.4947
30.7798
30.3437
53.2051
64.0319
58.5793
50.6409
46.9179
52.3057
49.0661
49.9328
56.7676
51.721
46.0052
44.5268
47.8359
44.2228
47.0402
49.3202
43.2888
44.1201
42.2519
42.7354
39.6013
41.4541
41.512
37.2619
41.4652
39.168
38.7322
36.1859
37.9263
36.0795
34.0356
38.4494
36.3662
35.4113
33.9403
34.256
33.5862
32.4057
35.6202
33.2433
33.5602
32.3483
29.571
31.8863
30.215
32.5154
30.9763
31.898
30.7919
26.473
29.6264
27.7616
30.6657
30.1624
30.4595
29.6026
46.7905
44.8846
41.4998
54.8151
48.955
50.4909
47.2807
40.1726
40.1507
36.6978
47.3603
45.032
46.301
44.694
35.9124
35.8173
33.8332
44.8172
43.8253
44.4833
43.4465
33.6066
33.3455
32.3482
43.4991
43.0975
43.0117
42.2348
32.9195
32.2133
32.1479
43.0822
42.6363
42.1874
42.2708
32.598
32.1589
32.265
42.3907
42.0137
42.4733
43.3219
32.4416
32.3096
32.3983
41.9315
41.6679
43.4829
43.6393
32.2144
32.3979
32.2712
41.5215
41.1057
43.6268
43.519
40.9513
43.8886
41.8395
48.9442
47.0684
47.3026
47.5178
36.7987
41.0809
38.7991
46.353
44.9406
47.3388
46.5566
33.9284
38.0648
36.2296
44.6725
42.9653
45.9468
43.6656
32.6465
36.3338
55.0912
42.4017
41.5708
43.0123
44.278
33.0829
56.5069
52.8959
41.5485
41.8601
45.0054
44.9708
32.9985
50.7446
42.718
42.1639
43.5639
44.6939
45.3783
32.9231
40.6631
37.2568
43.8777
44.2203
45.8009
46.3112
32.5318
36.6256
35.2642
44.2084
43.9708
46.2924
45.9346
41.9562
46.7713
44.4189
47.2935
47.8274
49.8467
50.0467
39.2806
43.7413
42.5778
47.7509
47.1873
49.8298
49.2053
37.4099
42.3207
41.289
46.6245
44.511
48.9946
47.2146
56.5868
40.8176
39.6521
43.912
45.1602
46.6154
45.0716
58.2996
39.2656
37.5833
45.8465
45.6703
44.6407
43.3387
43.8996
36.8164
34.417
45.3262
45.5624
43.0623
43.9646
37.1316
33.8407
32.9897
45.9045
46.4826
44.3593
45.1989
35.3591
32.9096
32.7162
46.4965
46.2226
45.36
45.5438
46.2187
50.3779
47.76
51.7295
50.8645
52.5351
49.7635
44.0696
46.6509
43.3496
50.394
49.4265
48.5771
46.4814
42.0445
42.0711
39.5826
49.179
47.523
46.1094
44.859
39.3436
38.8667
36.6486
46.8911
45.2233
44.2485
43.1774
36.715
35.9893
34.7215
44.7418
43.4692
43.084
42.5443
34.1387
34.3885
33.2895
43.3597
43.9169
42.235
41.9045
32.7943
32.9162
32.1385
44.1495
44.7542
41.9502
42.158
32.4318
31.9222
31.2309
44.8787
45.1353
42.1012
41.9948
52.3947
55.2229
52.5854
72.5299
68.0528
72.7189
72.6954
50.2677
51.8659
51.1022
68.128
70.9979
72.8893
75.3338
50.1213
51.115
50.7074
72.6142
74.221
76.5886
81.6288
49.7942
50.458
50.0249
75.0131
77.2247
83.3031
86.7506
49.3323
50.0354
50.0237
78.1731
78.1921
87.5838
87.9838
48.6218
50.0984
50.3782
78.3354
78.7894
87.5214
84.7328
48.1179
50.4465
50.3945
79.1587
78.8214
84.3374
83.632
47.1555
50.3512
49.9636
78.8797
76.7844
83.6004
82.6505
52.6335
51.4197
53.2673
71.2275
73.4745
68.4064
74.7815
51.4808
53.3615
53.1749
73.9285
76.3691
75.7137
78.7971
50.3595
52.8055
50.1229
77.8064
84.2484
81.0145
90.7961
49.2554
49.2131
49.2103
86.2555
90.1386
93.679
98.8175
49.6204
49.6897
50.0377
91.0183
91.4441
99.8268
99.556
50.6821
50.4104
52.0607
90.7812
86.7341
98.0648
91.8682
50.9545
52.4684
52.8371
85.6848
84.4743
89.6374
86.701
50.3884
52.7831
52.1314
84.359
82.8232
86.3705
84.3194
53.6068
53.8881
55.6318
67.5543
74.9166
70.7839
76.0703
53.8048
55.5938
55.3171
75.9175
79.0471
76.3715
78.0326
50.7957
55.212
53.3544
81.3044
91.2542
79.2713
85.761
49.8582
52.6074
51.2275
94.1966
98.919
87.6069
90.748
50.2897
50.9527
50.2579
99.8387
99.9421
91.3513
92.1372
52.2169
50.2785
51.3489
98.4427
92.2461
91.5652
88.1631
53.0744
51.7089
52.2057
89.9981
87.0428
87.1356
86.2767
52.4529
52.2954
52.1436
86.7241
84.7863
86.2004
84.9832
56.1929
56.8477
53.1252
73.6265
76.2587
74.4171
70.7067
55.1872
51.9373
50.8952
76.0437
77.1676
68.3965
70.6384
53.5787
51.0649
50.0691
77.9663
82.5538
71.4803
72.6618
51.6671
49.4338
48.9693
83.8636
86.8151
71.5755
75.6734
50.5375
49.0976
48.5498
87.4482
88.3435
76.3964
77.6175
51.1489
48.2147
48.1899
87.9486
85.9978
76.9177
80.0294
51.7291
48.4326
48.5448
85.7406
85.5379
80.4393
81.1841
51.7396
48.4518
48.0873
85.5093
84.7594
80.6577
79.8671
31.9196
29.7024
31.7989
29.7601
31.432
29.9193
32.6705
38.27
33.7546
56.4834
40.7567
34.9782
33.6985
185.198
44.5865
41.1629
72.2466
217.116
38.0214
49.2202
238.306
32.0578
31.3969
31.6877
32.7122
30.8339
32.0862
32.6104
32.4362
30.4025
31.3934
33.661
30.4829
33.3269
32.9077
38.8643
41.4851
34.055
61.6524
33.8101
191.157
36.0013
45.4861
221.602
43.8432
81.1432
50.2639
243.476
40.0569
35.5255
29.5515
34.1955
30.2258
34.0088
30.1356
35.6153
54.6972
43.538
72.8096
200.133
45.5807
51.9609
182.277
57.5745
46.4472
68.0535
90.8004
47.0587
54.0551
121.393
35.3208
30.4488
31.5626
34.5396
30.6294
34.295
35.4298
36.161
30.972
31.7756
36.101
30.8713
36.1853
36.0444
55.0385
202.527
46.1564
83.5706
52.6802
184.172
47.9735
57.1428
93.1322
48.2015
76.7024
53.587
122.907
48.9449
61.9132
73.2495
50.7287
228.514
48.6056
243.001
63.3138
41.1519
41.0897
42.8623
42.1407
41.4126
40.2096
41.5323
42.1964
42.4639
42.1562
40.5774
41.9639
42.8631
41.0241
54.8325
43.7169
63.0878
38.4838
246.346
38.8796
44.4384
63.9193
229.047
80.065
53.5885
246.776
65.6211
50.4182
40.7105
41.1592
39.4636
40.2357
39.6553
40.6605
40.0035
41.9459
39.9321
41.6964
39.8852
42.7138
40.2712
40.9209
58.6169
75.8298
50.2044
123.564
51.1216
178.018
57.3953
42.9659
42.6649
40.4393
40.1165
42.6278
43.058
39.6434
42.6252
42.101
39.9074
38.4849
42.4563
42.1372
39.1057
63.1589
209.999
86.1555
54.7598
190.699
64.8278
54.633
60.3618
120.385
86.9203
53.0464
164.219
58.8601
54.1897
42.8196
39.5339
41.9843
38.7647
42.9318
39.0852
41.9209
42.4117
37.8703
40.9128
38.2072
41.7844
38.5344
41.6028
184.539
211.366
183.192
120.546
105.109
120.914
105.704
147.822
161.982
148.01
94.1086
87.0854
95.234
87.4298
123.977
137.935
128.408
80.1069
75.1449
81.8576
78.5507
120.2
123.071
122.957
66.8073
59.9572
70.9547
60.7577
127.933
124.592
127.973
55.2918
52.1905
53.1366
49.6878
132.764
129.525
129.61
51.1863
50.8701
48.4663
47.8827
133.936
129.204
127.543
51.2127
51.0281
47.6275
47.2404
128.658
125.963
113.105
51.6272
45.9187
46.8969
37.3277
162.617
157.568
142.351
92.346
89.8297
85.3271
73.426
139.761
301.348
272.406
159.171
157.394
150.133
249.953
107.796
237.826
209.291
139.154
133.251
114.801
206.202
94.072
220.42
203.131
115.127
112.905
96.9641
198.638
78.9498
194.662
190.397
100.746
92.7775
84.1319
190.641
68.1767
198.966
194.165
75.2905
71.3996
69.3503
194.637
67.2539
203.691
198.463
69.7597
69.0104
67.3196
198.44
66.6339
200.094
196.703
69.9462
69.009
66.9331
194.615
64.9287
192.158
189.507
69.3078
68.2574
65.4094
187.155
113.006
113.475
101.068
41.6031
38.0877
37.9515
31.8443
156.875
185.742
172.499
99.981
83.2065
104.031
89.8535
124.54
217.154
254.566
138.158
118.367
140.888
230.766
95.0312
200.974
217.009
89.8667
86.3254
98.3539
220.607
91.6707
210.146
224.952
84.3159
83.9966
92.2116
219.582
70.9502
191.981
199.973
72.7094
69.3163
75.6171
194.452
63.4304
175.302
176.925
63.6755
62.7235
64.1376
172.12
60.9191
166.753
161.04
60.9852
60.386
62.0477
158.499
56.6181
165.347
153.49
59.1146
58.9543
57.5659
153.379
55.5287
164.016
154.015
58.616
58.5434
55.5795
154.386
96.6961
91.3135
82.1342
36.4053
31.1796
33.8721
28.0353
160.812
186.591
158.767
109.113
89.7295
115.993
95.2349
122.442
236.732
252.79
143.146
124.334
143.188
225.041
87.19
242.219
217.123
98.855
97.2632
90.1483
219.794
87.6137
222.13
214.811
93.775
92.1014
87.2171
209.462
80.0965
196.51
197.256
81.5623
77.4725
81.8306
197.867
86.8152
193.713
213.031
77.4685
80.9756
84.5659
214.421
93.6281
166.641
209.47
86.0448
85.5943
93.4257
198.827
75.0717
144.479
162.746
70.5289
66.079
82.343
155.982
57.4664
128.568
135.378
56.2343
53.6214
61.0942
130.393
73.027
86.2338
73.9178
32.6096
27.6155
35.051
28.7475
202.656
244.989
219.169
142.24
118.139
145.395
124.292
161.115
287.714
331.667
181.621
159.151
184.782
297.951
113.176
220.274
244.697
120.606
114.016
120.055
235.528
100.131
204.341
220.408
106.213
103.684
102.698
213.453
94.7993
211.041
206.928
92.4833
91.3925
94.0753
209.333
87.5767
228.031
220.582
92.2994
90.9992
92.439
223.916
79.5817
228.19
225.429
85.3297
84.2252
80.9769
222.344
76.3523
190.271
195.523
81.1827
80.5306
76.7067
190.6
71.0329
159.27
176.046
73.1049
68.3613
73.6295
167.109
80.9534
101.001
88.0248
38.3027
30.6228
42.3456
35.4433
155.812
177.626
140.316
103.869
92.749
98.5175
83.8905
133.892
129.926
133.231
82.3149
72.8406
70.4876
66.4738
129.256
134.342
132.566
66.0406
62.959
64.3564
60.7405
128.839
131.788
130.365
59.4341
55.4347
58.0238
57.0784
124.229
126.957
120.705
52.808