/*--------------------------------*- C++ -*----------------------------------*\
  =========                 |
  \\      /  F ield         | OpenFOAM: The Open Source CFD Toolbox
   \\    /   O peration     | Website:  https://openfoam.org
    \\  /    A nd           | Version:  10
     \\/     M anipulation  |
\*---------------------------------------------------------------------------*/
FoamFile
{
    format      ascii;
    class       volScalarField;
    location    "7.4";
    object      omega;
}
// * * * * * * * * * * * * * * * * * * * * * * * * * * * * * * * * * * * * * //

dimensions      [0 0 -1 0 0 0 0];

internalField   nonuniform List<scalar> 
12920
(
33.1124
122.79
152.053
137.085
96.0267
72.8905
59.7078
56.5485
54.7914
54.5278
54.0281
53.9931
53.9579
54.0535
54.1792
54.4293
55.4443
57.8422
58.1962
55.8683
55.496
164.627
178.162
158.922
123.273
106.458
90.2292
81.8768
74.9434
70.5946
67.0815
64.7331
63.2174
62.7244
62.7701
63.4819
64.9288
65.1704
64.7233
59.819
164.321
165.099
163.771
143.472
117.239
102.71
93.5974
90.056
87.5272
84.5584
79.8115
75.0553
70.2421
66.1223
63.5998
61.9642
61.092
59.463
57.9665
53.4912
272.251
183.156
149.897
129.218
115.807
109.626
108.789
107.838
104.086
99.9042
94.8919
90.0079
83.0131
74.7915
67.8938
62.8179
59.7447
55.499
52.8405
47.6331
123.894
217.946
205.67
178.596
156.914
135.323
118.762
112.137
108.567
106.935
102.197
97.8579
92.1002
83.6825
74.0821
65.4283
59.4166
53.8521
51.2319
46.4886
145.004
185.801
185.443
183.519
176.149
158.004
134.685
120.946
113.136
109.44
103.04
97.3643
93.8382
89.7354
82.1704
72.3598
63.6065
55.9971
52.2838
48.0717
132.871
168.843
176.111
175.664
172.072
159.018
130.008
110.095
94.9828
86.9735
85.0721
85.2954
86.5434
88.3065
88.3195
86.9399
82.2634
70.5592
60.5458
52.3235
184.539
241.792
215.998
188.632
153.028
134.995
212.137
164.224
134.814
119.935
123.432
130.692
133.758
134.144
83.7337
78.1858
70.0131
61.17
55.7255
50.4977
120.531
232.259
225.052
180.257
123.888
174.998
318.454
254.682
226.274
199.433
197.445
203.789
202.373
195.035
120.747
65.4956
58.8157
53.6506
51.7002
49.1023
193.54
221.478
209.3
169.828
125.735
176.385
243.305
196.662
211.277
195.893
178.567
167.995
165.22
164.28
104.535
59.1222
55.593
52.6175
51.695
50.2657
398.955
344.353
241.625
173.68
131.313
183.374
261.263
239.748
229.054
202.204
194.013
177.246
150.272
131.033
81.7471
50.493
48.9985
48.8175
49.1045
49.3038
527.209
313.84
216.554
184.286
158.397
232.379
323.044
229.15
206.165
207.087
224.43
231.082
196.672
169.655
94.9909
54.2456
51.0084
49.4321
49.1817
48.6472
304.948
234.64
181.803
158.86
137.207
117.025
176.385
141.998
129.973
128.965
127.317
119.637
112.32
105.186
57.8189
51.7187
49.0899
47.5648
47.2074
46.1312
362.193
287.791
189.677
151.278
126.976
117.484
106.11
99.2656
91.7845
82.6239
74.7487
66.9359
60.1987
54.1501
49.527
45.9032
43.8159
42.3746
41.9242
41.5107
815.316
605.678
346.059
199.705
135.832
119.773
105.813
95.6171
83.7853
73.0899
64.4684
58.0819
53.5706
49.9914
46.9831
44.4026
42.2067
40.4446
39.4751
38.4416
357.199
324.538
236.472
202.225
166.758
137.189
112.737
100.053
86.4002
75.2511
64.7565
57.1591
51.7843
48.293
45.5791
43.5475
41.7706
40.3963
39.591
38.4513
44.606
159.946
165.887
160.819
137.857
123.105
106.82
97.1309
84.2073
76.1979
67.4191
59.5967
53.1278
48.8279
45.7239
43.6135
42.0193
41.0405
40.5466
39.9147
141.041
194.664
192.094
153.877
127.652
118.787
102.746
94.1558
82.5931
74.9466
67.2375
61.4613
56.3017
52.5688
49.3143
46.9228
45.0415
43.8583
43.2886
43.1378
44.2802
141.077
173.322
153.181
117.078
99.9815
85.6817
77.6159
70.2917
66.5845
63.1039
60.7786
58.8526
57.4851
55.6179
53.5797
51.3283
49.3224
47.7914
47.1333
34.4648
131.607
151.649
141.577
118.575
103.244
91.2011
81.768
72.1935
62.3879
54.3946
50.4112
48.0653
46.2774
44.7502
42.808
41.5422
39.559
38.5013
35.9161
73.1701
81.7971
81.5078
71.349
54.567
44.2334
38.9705
37.1179
35.9096
35.4333
34.9233
34.7038
34.5713
34.4976
34.5189
34.626
34.9049
34.9413
34.7076
32.26
94.3856
119.575
96.9327
75.5591
63.8201
57.0698
53.0322
48.827
45.8911
43.6304
42.2278
41.2429
40.5522
39.5608
38.7834
38.1863
38.2529
38.8754
40.9834
40.9273
180.632
156.353
116.265
90.9125
75.8905
66.2948
59.7852
55.0983
51.3213
48.9081
47.0318
45.5244
43.6794
41.0905
38.7216
35.6819
33.2764
31.6661
31.3345
30.1801
316.51
191.453
114.808
91.1927
78.9452
69.8315
61.6391
55.8627
51.6643
49.8094
48.1423
47.2547
46.2926
44.42
40.926
36.1793
32.414
29.0884
27.7223
25.046
193.761
169.369
136.606
108.943
95.652
84.0721
71.8226
61.2952
55.6551
53.1137
51.5613
50.1982
48.8298
47.0903
43.5482
37.7993
32.9214
28.6533
26.6014
23.744
165.919
154.696
115.905
94.6924
85.8003
82.6728
77.6389
71.7183
67.0865
63.3209
61.1552
57.7207
53.0442
50.0574
48.2434
44.7547
38.794
32.4082
28.246
24.9533
114.982
104.339
102.207
98.0951
89.3032
82.5911
73.6336
67.3372
60.4886
54.8635
48.8091
45.2086
43.7934
43.8869
45.046
47.1092
47.3822
46.185
39.9636
30.5686
149.519
129.208
108.155
94.3242
83.8442
77.2021
77.998
71.7475
62.2073
50.4458
41.6631
38.582
38.3057
38.5761
36.7226
38.1344
38.0529
36.572
32.3697
27.8195
178.972
152.434
130.505
85.0458
64.9408
65.2297
71.8421
69.7904
60.8717
48.0187
36.145
33.3608
33.0131
32.8591
30.9241
29.1631
28.8104
27.589
26.2292
25.1511
223.681
168.119
136.42
85.9919
67.7269
65.364
60.4996
52.1775
45.7618
36.9417
32.5609
31.4144
30.3934
29.8294
28.3719
27.391
27.3271
26.8373
26.2655
25.7103
207.592
226.534
176.059
120.754
89.3795
80.5534
68.2748
57.9575
53.9714
43.8908
43.7467
46.437
37.7296
30.4419
26.8937
25.9326
26.5414
26.7853
27.2078
27.4821
259.983
175.596
149.247
131.497
110.053
101.646
85.2394
69.93
66.0286
61.5701
50.5667
45.403
42.9749
36.0705
29.122
25.9192
25.5482
25.7427
26.5769
27.1396
202.971
146.055
96.8903
98.1534
90.752
72.0298
71.2272
65.1849
51.5169
44.8364
39.8715
37.8075
36.6864
35.1366
28.0348
25.266
23.948
23.6342
23.8467
24.3253
174.682
158.145
106.315
93.7029
80.6898
69.6173
61.4442
57.4931
51.0616
44.746
38.9775
34.5874
31.171
28.0115
25.3737
23.0777
21.7262
21.0449
20.9389
21.1403
351.368
283.529
180.791
127.848
86.1619
67.1018
58.223
52.6421
46.1525
38.1811
32.4248
28.6393
26.4669
24.6981
23.2553
21.9456
20.9425
20.192
19.641
19.567
448.613
198.683
152.79
149.842
120.337
86.8784
62.9071
54.3689
48.8117
43.1493
36.1667
30.2937
26.4056
23.973
22.4385
21.3577
20.5645
19.9893
19.5571
19.3515
173.068
172.382
131.044
110.131
83.1696
63.5151
52.3465
49.674
46.7127
43.4106
38.6857
33.0928
27.9426
24.2995
22.1694
21.0658
20.3382
19.9576
19.7055
19.6544
171.794
127.065
102.205
81.6624
66.1462
58.5799
50.6303
47.4408
43.8883
40.3615
36.2837
31.8837
28.1206
25.6945
23.9571
22.8443
22.0397
21.5474
21.2959
21.2459
181.108
136.222
111.46
80.9868
60.8074
53.0804
46.9963
41.9061
38.6023
35.8809
33.2762
31.6106
30.1669
29.2918
28.337
27.4733
26.6631
25.9359
25.4839
25.1165
18.3711
65.4068
78.8894
75.9661
63.3651
55.2862
48.1397
42.9339
37.1714
32.3037
28.872
27.639
26.9871
26.6668
26.3598
25.8208
25.4448
24.5844
23.9138
22.0823
60.0472
88.044
88.3836
75.1542
60.5237
49.4103
45.5882
42.878
41.597
40.5319
40.0705
39.4933
39.0944
38.5866
38.1468
37.7194
37.3205
36.2812
35.0237
30.4794
314.384
139.977
96.5703
68.5612
56.6285
49.6638
45.0559
42.4738
39.8248
38.8511
37.611
37.184
36.4786
35.9935
35.7855
35.8576
36.4298
37.1903
37.5903
36.5089
258.42
164.62
116.488
84.4938
66.977
57.9197
50.7127
47.1005
43.3659
41.8702
39.9891
38.7976
37.0886
35.3959
33.6508
31.9901
31.0677
30.4002
30.129
29.1123
154.644
147.164
111.281
85.6417
70.4292
60.7599
52.2159
47.3416
43.4034
41.8129
40.0913
39.0438
37.5459
35.5732
33.1995
30.5945
28.6913
26.9247
26.082
24.4843
222.811
136.386
106.412
87.651
74.0446
64.5818
55.4285
49.4177
45.7219
43.7594
41.9756
40.4701
38.7629
36.6115
33.854
30.5493
27.9463
25.7825
24.7138
23.3322
192.289
155.606
108.381
85.3904
71.6739
65.3149
59.2897
55.3581
51.6411
49.1797
46.9277
44.6148
41.9441
39.5269
37.315
34.0986
30.5582
27.3847
25.4871
24.1163
223.127
131.309
108.625
90.3589
74.521
66.2265
57.5583
52.5083
46.8939
43.2679
40.1906
38.7237
38.0263
37.8913
37.8983
37.6939
36.5397
33.3283
29.7714
26.7267
133.118
131.851
102.736
80.8135
68.7456
62.4646
60.5478
53.2932
46.4979
39.0204
34.951
33.4819
33.4369
33.7266
33.0036
32.7761
31.558
29.3362
27.3869
25.8068
200.276
178.078
131.525
75.5593
56.0309
54.6484
56.1808
51.4716
43.3686
35.3769
30.6132
29.3374
29.0773
28.9486
28.4635
28.1261
27.1952
26.1644
25.4248
24.9263
239.421
188.653
148.159
76.9025
54.5205
48.9072
46.4928
41.7849
36.2787
31.1202
29.3332
29.5626
28.6969
27.7695
27.5932
28.2301
27.6307
26.8682
26.4029
25.7995
206.994
164.386
122.151
82.4097
60.8872
55.3415
50.2225
44.8139
40.6721
36.1396
77.0782
64.0938
41.0535
31.462
28.3706
28.5627
28.725
28.7726
28.7265
28.1148
179.766
132.474
108.908
95.0134
73.0868
65.5957
59.3571
51.6913
49.5535
45.5872
40.378
37.1935
33.0558
28.7034
26.5865
27.0113
27.1851
27.5564
27.7665
27.527
189.452
155.8
82.866
71.0088
63.5242
52.5487
51.319
48.3625
40.6018
36.6788
33.3641
31.9665
30.3474
28.6415
25.7624
24.4525
23.9691
23.9935
24.2561
24.4767
180.645
152.874
92.9194
70.1396
59.3556
53.153
46.9451
42.9308
37.9455
33.586
30.5476
27.9577
25.965
24.0982
22.7053
21.7277
21.2046
21.1445
21.2424
21.6924
284.151
170.431
103.204
79.9136
59.6964
49.7469
44.4689
39.6652
34.4579
29.8403
26.752
24.6811
23.3211
22.2277
21.3254
20.6715
20.1854
20.0136
19.9888
20.1653
681.197
160.607
103.084
89.9186
71.7122
55.6078
45.059
41.1637
36.3691
32.5682
28.1302
25.2183
23.1025
21.875
20.9898
20.4816
20.0632
19.9143
19.8502
19.9388
260.22
130.518
97.4008
72.4412
58.1854
47.6702
41.5522
39.2206
36.118
33.4414
29.633
26.6241
23.8814
22.3227
21.2479
20.7335
20.3616
20.2757
20.2625
20.3624
287.229
156.173
101.573
66.6316
53.4571
46.2316
40.7325
38.0581
34.9911
32.8335
29.9982
28.0129
25.9576
24.7543
23.6909
23.0986
22.629
22.4267
22.3769
22.4309
76.2727
123.853
116.832
74.7399
51.4033
44.0222
38.922
36.6073
34.2864
33.232
31.7555
31.2655
30.4434
30.0964
29.3794
28.847
28.1981
27.751
27.4588
27.3234
15.5987
65.7868
82.7133
78.7178
65.4798
56.6688
50.4408
45.5495
40.5736
36.4242
33.4385
31.8492
30.9031
30.1768
29.5789
28.6295
27.9658
26.702
26.0164
24.3678
83.5269
106.954
99.6413
74.151
62.2104
50.6197
48.7986
45.4603
44.6173
42.8259
42.2571
41.0182
40.3302
39.2907
38.5399
37.4697
36.4252
34.3953
32.4365
27.5876
263.005
134.436
103.617
66.8483
60.3914
49.1141
47.044
43.0619
42.0881
41.0353
40.7385
40.6651
40.7051
40.8451
41.1517
41.6752
42.1198
42.0896
41.6352
40.306
260.479
176.697
121.054
82.9102
69.1058
57.0473
51.8571
46.9204
44.4967
42.527
41.2851
40.1346
39.0527
37.9799
37.0168
36.2408
35.8419
35.2523
34.8252
34.213
130.011
127.951
115.376
85.4059
71.8353
59.2035
52.5775
46.8331
44.0955
41.9614
40.6247
39.25
37.9427
36.376
34.8788
33.4486
32.4425
31.4065
30.7203
30.1258
159.907
133.551
108.486
81.5718
70.2762
59.5718
53.626
48.0904
45.7414
43.265
41.6466
39.7684
38.0645
36.113
34.2138
32.2999
31.0289
30.0615
29.5579
29.1799
495.764
182.196
124.07
84.2307
70.101
59.9909
55.4982
51.4542
48.892
46.5846
44.7799
42.6843
40.6318
38.239
36.2707
33.9467
32.1254
30.7851
30.1078
29.7855
273.84
148.126
113.067
87.9575
72.7066
61.3978
53.6925
48.474
44.9712
42.856
41.4313
40.3906
39.6035
38.7717
37.7926
36.2825
34.697
33.0778
31.9424
31.3331
264.854
188.518
105.37
76.5366
66.799
58.601
54.1548
46.6486
42.1334
38.1139
36.5616
35.7204
35.4937
35.2668
35.5313
34.0173
32.8547
31.9009
31.2964
30.9893
261.561
183.833
118.355
68.7098
55.4682
52.9152
51.4276
44.8914
38.9918
35.1289
33.3745
32.8072
32.5415
32.401
33.0198
33.4341
32.0869
31.2799
30.9226
30.7757
221.002
179.377
114.581
64.2419
51.1205
45.4769
43.8503
39.8687
35.9587
33.405
32.6628
33.073
32.9565
32.8599
34.0377
34.9896
33.6571
32.7179
32.1896
31.6102
191.748
144.372
92.3843
61.1995
51.6516
45.9979
44.1761
41.2201
38.7055
37.2824
58.8422
55.7746
41.1688
36.5186
36.067
36.7276
35.6877
34.8652
34.2819
33.1387
167.224
121.574
85.4699
66.1113
56.9247
51.2181
49.2686
45.4066
43.6386
41.3656
38.6813
36.0383
33.6541
32.6515
33.8117
34.8221
34.1507
33.6226
33.314
32.5671
252.273
135.581
77.6506
59.4891
55.6464
45.7638
45.2579
43.0792
38.4543
36.3219
34.2414
33.2936
32.0181
31.2884
31.3264
30.1607
29.7768
29.8064
29.955
30.0723
159.537
140.992
89.7517
60.5889
55.9961
46.7277
43.7783
38.0861
35.6921
32.0053
30.9409
29.0006
28.2577
27.2367
26.8538
26.6133
26.6258
26.8793
27.2191
27.8632
233.621
134.98
90.0963
63.1618
55.0211
43.4351
41.8866
35.6624
32.7792
29.3866
28.2102
26.8339
26.3224
25.7552
25.44
25.3262
25.3495
25.6112
25.8528
26.4125
438.812
124.464
83.8978
64.6194
59.1693
45.447
42.3235
36.8702
34.1956
30.896
28.9558
27.305
26.4809
25.8882
25.5938
25.4792
25.4629
25.6153
25.7683
26.1878
195.826
152.601
93.7236
62.1232
55.0397
43.0834
40.9774
36.0813
34.6524
31.7636
29.9997
28.2897
27.2342
26.586
26.202
26.0395
25.9946
26.0995
26.2066
26.5199
536.541
192.625
118.137
66.5107
55.5807
43.6395
41.5317
37.0865
35.99
34.0881
32.9362
31.831
30.8521
30.1532
29.5508
29.2013
28.9631
28.9383
28.9549
29.141
153.037
142.516
129.128
73.1541
54.3067
43.847
42.3669
39.6709
39.281
38.3758
38.1674
38.1092
37.8912
37.6793
37.056
36.5568
35.9551
35.6646
35.4254
35.4487
37.8829
82.0567
88.6198
75.2996
61.9721
54.0147
49.1317
44.6946
40.7413
37.672
35.5293
34.0763
32.9731
31.8611
30.8308
29.5034
28.4897
27.0501
26.382
24.9654
91.1849
114.716
98.2767
70.4989
60.6041
49.6138
49.0948
45.3297
44.3385
41.5287
40.6839
38.3961
37.4915
35.7206
34.6741
32.7355
31.3414
28.9851
27.2156
25.028
237.922
160.547
120.831
68.713
79.9182
54.6741
64.6425
51.5481
58.1607
52.8916
57.1206
55.6193
58.4126
58.4448
60.0889
60.2595
60.2525
58.9348
57.883
56.9418
215.782
163.484
138.205
80.8448
84.2947
62.9536
67.1948
55.821
58.7823
53.1629
54.9274
52.2753
53.2161
51.8649
52.0932
51.2645
50.7063
49.1239
48.1824
47.2737
167.279
136.204
133.096
84.6374
85.1508
63.4453
65.4178
54.3889
56.2818
51.2052
52.4373
49.8754
50.2028
48.6464
48.493
47.4696
46.8211
45.3631
44.6624
44.0259
176.511
142.376
130.62
81.4938
84.2373
65.1134
66.3759
56.735
57.9578
52.8961
53.4321
50.389
49.9415
47.5815
46.7627
45.3491
44.8925
44.1195
43.8737
43.3465
216.838
189.98
153.37
84.4394
82.8864
63.0632
65.3278
57.4239
58.1332
54.8098
54.7784
52.5847
51.4746
49.0092
47.9041
46.1843
45.7159
45.0798
44.8574
44.4158
292.183
169.652
138.943
89.9406
87.0601
64.7837
61.6787
54.4321
55.4084
53.5883
54.4046
52.7412
51.909
49.8456
48.1842
46.4874
45.895
45.6424
46.0306
46.1173
768.109
344.251
130.854
76.2069
80.6619
64.3511
59.2344
51.2784
51.1677
49.7007
50.3976
49.0461
48.6318
47.0722
47.4358
45.396
45.2051
45.3628
45.6728
45.6236
334.678
189.541
124.334
67.4007
67.2266
59.6002
58.6633
51.1433
50.5678
50.024
50.0015
49.2163
48.7249
48.1243
49.0107
46.627
45.0067
44.8739
45.0824
45.0467
246.561
182.892
109.829
66.8845
61.6562
51.5646
53.5133
52.2006
51.5221
49.9675
49.4154
50.0901
51.0375
51.0612
51.3116
48.3173
46.6982
46.0862
45.9433
45.2588
174.153
165.648
102.349
64.7879
59.3428
48.5168
51.1666
53.8409
53.5486
50.0617
50.3288
50.7731
52.7739
53.1957
53.1635
50.3282
48.2224
47.3719
46.9647
45.9025
169.423
152.406
96.2488
72.9288
64.9267
52.1243
55.939
55.7998
55.1293
52.974
51.494
50.6853
51.5244
51.9445
52.2463
48.5405
46.936
46.2607
46.0925
45.3213
214.42
144.508
88.0798
74.0761
66.4566
50.0032
52.3383
47.7813
48.3024
45.7047
47.0763
45.6008
46.6749
46.0686
45.3109
43.2635
42.8881
42.97
43.1363
43.1388
206.971
148.854
95.8277
66.9818
68.1446
49.8727
54.6006
42.9255
44.6293
39.643
41.8328
39.3698
40.767
39.7453
40.3122
39.9271
40.3212
40.5919
41.0494
41.5436
279.687
156.302
95.9791
75.7962
65.9173
48.4088
52.0842
39.6821
41.5859
36.7105
38.7945
36.9106
38.3243
37.6342
38.2246
38.2157
38.6636
39.1013
39.3916
39.9378
453.401
172.845
85.4467
81.7703
67.1985
49.5416
53.9863
42.0334
44.971
38.7483
41.0426
38.2453
39.7684
38.4657
39.2856
38.7508
39.1707
39.202
39.4219
39.7677
333.046
162.176
100.267
71.1644
67.8793
48.5457
53.247
41.1302
45.3695
38.7135
41.6602
38.5153
40.2224
38.7612
39.5055
38.9196
39.3079
39.3049
39.4813
39.72
366.13
213.484
131.715
79.9625
73.0349
51.7416
56.9797
44.9459
49.9309
43.6604
46.9198
43.5767
45.0367
43.0976
43.6106
42.644
42.8513
42.5911
42.7133
42.7152
351.793
205.298
156.013
81.148
80.1443
55.0146
63.5765
49.9511
57.4875
51.3127
56.1682
53.3756
55.4115
53.6271
53.9802
52.8021
52.6887
52.141
52.0094
51.8742
52.7253
96.2409
93.9568
71.2253
56.0016
48.6635
44.7685
41.2927
38.6274
36.3839
34.7228
33.1143
31.5524
29.8614
28.3715
26.9795
25.9029
24.8836
24.2519
23.2828
29.4063
36.21
76.5709
32.163
31.3166
36.2619
86.5903
29.5834
75.2469
61.0303
31.3648
31.8438
85.4772
67.223
77.3054
43.6017
41.5291
36.3961
85.4938
40.6781
39.5722
68.7839
40.9585
39.3352
86.7783
79.1982
39.2015
37.5368
263.716
221.669
187.178
85.5724
82.2684
65.4725
59.3901
227.96
188.421
194.359
79.7459
73.2236
57.0625
50.5895
205.127
193.285
189.912
70.0789
61.4056
48.898
42.7927
194.591
190.007
185.105
56.3881
43.1347
40.6549
36.5086
201.565
182.861
178.465
40.9524
37.7473
35.8393
34.6901
202.389
178.179
177.435
37.5455
37.1022
34.4193
33.9867
195.376
177.012
174.623
37.1896
36.9546
33.9332
33.7739
175.589
173.541
157.536
36.9839
35.2354
33.6922
32.0134
195.617
283.36
242.25
70.479
60.4592
79.0145
70.1531
211.02
243.931
240.968
57.9538
52.5303
67.7526
63.3686
200.084
231.137
214.021
51.3085
44.1572
62.2712
51.8133
182.974
206.845
186.691
41.5046
36.8275
47.9461
43.4401
169.973
181.619
165.923
36.2035
35.0968
43.6646
45.3813
165.247
159.522
147.705
34.7676
33.8194
45.2021
39.8668
164.679
143.856
134.531
33.5804
33.1627
37.7876
33.2054
153.671
132.898
117.053
33.0722
31.7569
32.2541
29.4749
233.713
248.985
189.431
78.1736
66.5251
83.1708
67.8738
238.413
185.512
181.131
64.0649
61.1742
64.727
61.3007
209.964
181.503
191.612
60.4033
52.0029
61.3082
61.7403
193.879
197.283
219.336
48.8132
46.7586
61.4123
57.0606
187.102
224.241
230.052
47.4208
51.4114
55.6625
52.8702
154.848
229.363
201.524
51.6077
45.6419
52.6119
52.1635
134.259
191.927
169.77
41.9845
34.8012
50.8697
42.1862
115.039
160.03
126.33
33.3567
29.5097
39.8637
33.068
242.4
361.38
274.883
100.162
81.6627
111.353
94.8668
209.634
261.45
241.198
78.2289
73.0936
90.5734
82.2254
205.189
226.686
204.931
72.7712
70.4936
78.3146
66.1475
220.847
205.22
207.51
67.753
58.8578
61.611
51.4743
231.512
208.299
202.544
56.4336
51.2097
49.093
45.1434
206.778
201.13
188.769
50.3605
49.4252
44.3441
43.4205
178.085
185.96
175.574
48.7048
43.2259
43.3512
42.6428
129.087
172.908
145.888
41.429
33.8301
42.1997
38.9528
71.3834
57.3295
53.5781
59.0065
56.3019
48.1644
44.9567
64.0387
51.6527
45.6943
54.7065
48.6659
43.4342
38.4878
52.3914
43.9033
38.0873
46.2636
39.3435
36.8684
32.4427
37.8566
36.2514
32.665
36.9305
31.8131
31.2558
28.9207
33.6004
32.0686
31.0546
30.9535
29.5628
28.5356
28.0152
32.9761
30.8369
30.4512
29.3898
29.1132
27.9285
27.6701
32.8531
30.3887
30.2119
29.1129
28.991
27.5845
27.3198
32.3424
30.141
29.55
28.9865
28.8195
27.2398
26.8682
54.1486
67.8885
62.4601
48.5282
44.7212
52.6865
49.0568
47.2401
60.5164
56.7834
43.3657
39.1182
47.8241
44.4992
39.134
55.5113
45.9611
37.5939
32.8936
43.0613
37.382
33.0856
42.8204
39.9702
31.6082
29.4416
36.3565
48.427
31.6791
40.4271
41.7838
29.2453
29.2223
49.8558
48.2409
30.6142
41.5275
36.4687
29.1719
28.5948
46.676
39.2264
29.9357
34.6331
30.6938
28.3299
27.6348
36.862
31.7985
29.3577
29.901
28.1144
27.4559
26.8631
30.727
28.5186
60.0451
71.621
61.317
53.5599
48.4199
56.2617
50.6017
54.9268
58.8685
56.0816
47.0713
43.9081
49.1976
47.34
46.3108
56.108
56.3901
42.7164
38.592
47.2367
46.3933
42.9005
55.8915
51.5015
37.4911
50.8357
45.6363
42.9365
46.483
50.1397
47.618
52.5038
52.0407
42.2039
40.4963
40.7147
47.3424
46.0608
50.3016
40.8179
39.9264
36.4045
31.668
44.1938
36.7106
37.6938
31.3961
34.6344
29.8447
27.9911
34.7385
29.8259
30.1893
28.1794
28.6936
26.0809
72.7058
96.452
86.0183
64.2816
56.5744
70.6131
63.4899
66.1071
82.6001
74.492
54.9032
52.8171
61.3793
55.8147
64.2729
70.7121
59.2163
52.6581
50.1042
53.152
45.8248
52.8353
55.0022
46.0422
48.341
43.1909
43.5844
38.4182
46.104
43.8749
40.4831
41.8677
39.1339
37.0489
34.739
44.1057
39.8141
39.1036
38.4589
35.7116
34.2717
33.2075
37.6981
38.8951
37.8902
34.3895
30.3877
32.7393
31.0794
30.6693
37.3069
35.0653
29.2921
26.4171
30.4526
28.3249
53.3727
46.5513
43.4496
52.0621
47.6804
44.6505
41.3531
45.5988
41.9602
37.2684
45.7425
40.5877
39.9546
36.1377
37.3211
35.7731
31.8588
39.1342
35.4056
35.0854
32.642
31.2907
30.8448
28.8522
34.3678
32.3873
32.0498
30.8694
29.4868
28.5364
28.1719
32.0714
31.4856
30.7032
30.6006
29.0879
28.1147
27.8872
31.3792
31.1647
30.5934
30.5477
28.956
27.7985
27.5374
31.1295
31.01
30.5339
30.4979
28.8253
27.4601
27.1004
30.9928
30.8938
30.4759
30.3796
43.0662
49.454
46.3903
43.7785
40.7782
44.4008
42.0512
37.7061
45.2706
42.0334
39.6319
36.2628
41.1969
38.5959
32.1962
40.6952
36.2151
35.2481
32.7819
37.7132
35.5701
31.6617
30.2776
32.1403
31.0573
31.4612
30.3671
31.8985
34.5461
29.3844
32.4742
29.7525
33.2784
29.8812
33.5468
28.985
57.0859
44.0548
31.8474
31.4942
61.5421
45.5814
27.9581
40.469
33.4719
31.3431
31.0082
42.1117
36.3109
27.1395
32.1
29.392
30.915
30.5813
35.2731
33.4474
46.0215
52.9006
48.4254
44.8184
42.0975
47.4717
44.6067
41.7691
47.1982
45.4913
41.2475
38.9634
43.7992
42.4882
37.6541
45.3285
44.2919
38.2784
36.8359
42.2297
41.175
53.9432
59.4992
39.0313
42.8946
44.0307
253.263
38.9841
61.0735
75.4486
51.4372
212.541
51.4133
195.643
62.4933
45.6808
38.6352
34.8814
71.9477
47.4532
36.7092
33.668
32.8619
33.2786
29.2533
42.8412
36.0407
32.7623
31.0579
29.0725
28.3301
26.2859
35.0329
33.4751
30.7758
30.3302
53.1459
64.0882
58.5926
50.6137
46.8828
52.3565
49.0664
49.8134
56.781
51.7501
45.9612
44.4698
47.8407
44.2391
47.029
49.3741
43.3543
44.0714
42.2357
42.7561
39.6185
41.4679
41.5734
37.285
41.4549
39.1643
38.7474
36.188
37.9207
36.0942
34.0257
38.4464
36.3703
35.4103
33.9308
34.2859
33.575
32.3939
35.627
33.2584
33.5522
32.3407
29.6038
31.8809
30.2208
32.5284
30.9771
31.8934
30.7884
26.4846
29.6378
27.7745
30.6628
30.1505
30.458
29.5968
46.8109
44.8964
41.5282
54.8684
49.0295
50.5323
47.3612
40.2089
40.179
36.7174
47.4391
45.1094
46.3805
44.7939
35.9364
35.8331
33.8346
44.9069
43.9406
44.5924
43.5485
33.6039
33.3428
32.3349
43.62
43.2349
43.1112
42.3306
32.9061
32.1975
32.1264
43.2214
42.7687
42.285
42.363
32.5811
32.1374
32.2438
42.5206
42.1355
42.5673
43.416
32.4238
32.2889
32.3772
42.0541
41.7767
43.5786
43.7312
32.1958
32.3776
32.2472
41.6308
41.2114
43.7201
43.6169
40.964
43.8647
41.8272
48.9964
47.1408
47.3353
47.5786
36.8124
41.0725
38.7982
46.4329
45.0451
47.4151
46.662
33.9274
38.0638
36.221
44.7838
43.0518
46.048
43.7258
32.6287
36.3296
55.1013
42.4793
41.6332
43.061
44.3027
33.0557
56.4955
52.8663
41.6098
41.9268
45.0256
44.9915
32.978
50.7323
42.7234
42.2401
43.6486
44.7183
45.4375
32.9018
40.6641
37.2385
43.9645
44.3075
45.8656
46.3843
32.5084
36.605
35.2396
44.2972
44.068
46.3676
46.0246
41.9455
46.7223
44.3938
47.3179
47.8825
49.8445
50.0854
39.2719
43.7111
42.536
47.8237
47.2879
49.8763
49.2724
37.3965
42.2815
41.2624
46.7217
44.5687
49.0688
47.2787
56.54
40.7963
39.643
43.9603
45.189
46.6769
45.1333
58.2497
39.2605
37.5951
45.8718
45.6938
44.7047
43.4013
43.9318
36.8332
34.434
45.3569
45.6237
43.1269
44.0411
37.1155
33.8508
32.9804
45.9716
46.5544
44.4417
45.2779
35.3315
32.8963
32.6912
46.5706
46.3116
45.4382
45.6274
46.1961
50.4107
47.7594
51.7396
50.9079
52.5483
49.7981
44.0299
46.6545
43.361
50.4407
49.4833
48.6184
46.5349
42.0309
42.0883
39.5947
49.245
47.593
46.1711
44.9304
39.34
38.8773
36.65
46.9592
45.2944
44.3169
43.2562
36.7195
35.9882
34.7145
44.8159
43.5381
43.1694
42.6314
34.146
34.3815
33.2824
43.4406
43.9953
42.3161
41.9822
32.7859
32.9101
32.1313
44.2344
44.8346
42.0298
42.2359
32.4073
31.9154
31.2154
44.9603
45.2212
42.1796
42.0779
52.4355
55.2149
52.6051
72.1709
67.5205
72.063
72.1626
50.2723
51.8872
51.1903
67.5892
70.3274
72.3156
74.6664
50.2125
51.2224
50.829
71.9191
73.4983
75.8922
80.8657
49.9338
50.587
50.1775
74.2804
76.4504
82.5176
85.9125
49.4921
50.1971
50.1937
77.3766
77.4043
86.7242
87.1166
48.7899
50.2653
50.5254
77.5349
77.9713
86.6618
83.9483
48.2885
50.5969
50.5417
78.3274
77.9978
83.5517
82.8451
47.3188
50.5007
50.1079
78.043
75.9397
82.8089
81.8483
52.6443
51.419
53.2735
70.6293
72.9194
67.8361
74.2805
51.5809
53.3981
53.2775
73.3377
75.7066
75.1793
78.1765
50.4624
52.9035
50.2172
77.1087
83.4798
80.3548
90.022
49.3703
49.3122
49.2937
85.4636
89.2891
92.8632
97.9335
49.775
49.7716
50.1158
90.1436
90.541
98.9321
98.6274
50.8259
50.518
52.2041
89.8825
85.9321
97.1024
91.0113
51.1021
52.6094
52.9849
84.9005
83.6914
88.8321
85.9159
50.5333
52.9318
52.2777
83.5714
82.0322
85.5843
83.5627
53.6044
53.8378
55.6018
67.3304
74.458
70.3829
75.6831
53.8981
55.5807
55.3561
75.4182
78.4508
75.9539
77.5224
50.893
55.2657
53.4144
80.6668
90.4907
78.7266
85.0977
49.9464
52.6835
51.3081
93.3851
98.0426
86.9199
89.9787
50.3684
51.0373
50.3799
98.9529
99.0162
90.5586
91.2712
52.3655
50.4194
51.5006
97.4812
91.3888
90.6935
87.3653
53.221
51.8493
52.3471
89.1936
86.2616
86.3631
85.5023
52.6
52.4391
52.2866
85.9419
84.0053
85.4276
84.2323
56.1736
56.7855
53.1448
73.2713
75.8609
73.775
70.1274
55.2083
51.9556
50.9047
75.6305
76.6723
67.9838
70.1113
53.634
51.0744
50.1358
77.4444
81.921
70.9782
71.9834
51.7518
49.4932
49.0829
83.2105
86.0755
71.021
74.9359
50.6756
49.2169
48.6891
86.6862
87.5151
75.6848
76.8108
51.2995
48.3442
48.3332
87.1223
85.2269
76.1811
79.1916
51.8672
48.57
48.676
84.9707
84.7668
79.6268
80.3366
51.8801
48.578
48.2131
84.7418
83.9506
79.8632
79.0586
31.9077
29.7004
31.7693
29.745
31.4259
29.9136
32.6336
38.2547
33.7629
56.1577
40.7237
34.9806
33.7028
184.997
44.542
41.0994
72.2637
216.901
38.0251
49.0604
237.905
32.0525
31.3983
31.6809
32.7069
30.831
32.0844
32.6019
32.4206
30.3853
31.3815
33.627
30.4736
33.2889
32.891
38.8457
41.4491
34.0469
61.2702
33.8105
190.967
35.9929
45.443
221.426
43.7662
81.1141
50.108
243.108
40.0564
35.4594
29.5256
34.1526
30.1991
33.9565
30.1065
35.556
54.4558
43.4329
72.8911
200.056
45.464
51.7442
182.31
57.4346
46.3922
68.1172
90.8491
46.9807
53.9173
121.444
35.2498
30.427
31.5332
34.4894
30.5997
34.2363
35.3716
36.0966
30.9436
31.7452
36.054
30.8408
36.1269
35.9918
54.7941
202.489
46.044
83.5147
52.4844
184.243
47.8447
57.0111
93.1735
48.1219
76.6837
53.4692
122.998
48.8397
61.8201
73.3262
50.7476
228.197
48.6258
242.536
63.2762
41.1122
41.0373
42.844
42.1092
41.3714
40.1672
41.5133
42.1869
42.4427
42.1445
40.5664
41.9448
42.8543
41.0104
54.5156
43.643
62.8433
38.4598
246.055
38.8307
44.4118
63.8132
228.858
80.1059
53.5943
246.4
65.5942
50.4341
40.6757
41.1304
39.4324
40.2172
39.6212
40.6419
39.9777
41.9398
39.921
41.6903
39.8703
42.7108
40.2569
40.9145
58.5808
75.8252
50.2617
123.736
51.1359
177.97
57.4869
42.962
42.6461
40.4284
40.1064
42.6116
43.0507
39.6355
42.6268
42.099
39.8963
38.4879
42.4435
42.1521
39.1008
63.1363
209.95
86.01
54.7636
190.725
64.8278
54.6411
60.3284
120.385
86.7633
53.1065
164.209
58.9692
54.197
42.8234
39.5253
41.9834
38.7624
42.9313
39.0806
41.9242
42.4233
37.8799
40.9424
38.2106
41.8114
38.5347
41.6158
184.747
211.612
183.452
120.745
105.195
121.062
105.792
148.065
162.217
148.147
94.1989
87.1724
95.3498
87.5371
124.034
138.061
128.473
80.1588
75.2612
81.8811
78.6543
120.045
122.946
122.774
66.9957
60.102
71.2184
61.012
127.684
124.357
127.757
55.3636
52.2031
53.2615
49.7089
132.577
129.362
129.475
51.1558
50.8286
48.4539
47.8542
133.788
129.091
127.472
51.1539
50.9822
47.5992
47.2107
128.583
125.902
113.118
51.5579
45.8462
46.8706
37.3106
162.598
157.901
142.411
92.2379
89.5301
85.4149
73.3206
139.531
300.891
272.154
158.588
156.844
150.144
249.804
108.054
237.825
209.245
139.154
133.406
115.054
206.017
94.261
220.455
203.054
115.129
112.975
97.1461
198.613
79.2204
194.458
190.093
101.042
93.2731
84.4059
190.318
68.1835
198.652
193.911
75.4484
71.5345
69.4296
194.408
67.2053
203.487
198.198
69.6424
69.0098
67.2854
198.22
66.6025
200.032
196.548
69.8055
69.008
66.8922
194.48
64.9123
192.157
189.37
69.1829
68.3209
65.3953
187.046
113.006
113.412
101.05
41.5848
38.0588
37.941
31.8275
156.537
185.336
172.11
99.6736
82.9811
103.672
89.679
124.213
216.444
253.604
137.97
118.084
140.59
229.885
94.7804
200.284
216.171
89.746
86.1856
98.1062
219.853
91.537
209.757
224.683
84.0779
83.8065
91.9971
219.644
71.1115
191.953
199.946
72.8491
69.4213
75.8455
194.509
63.4167
175.279
177.034
63.6904
62.7218
64.1507
172.18
60.9289
166.577
160.935
60.964
60.364
62.044
158.367
56.602
165.126
153.278
59.0748
58.9082
57.5654
153.152
55.4819
163.819
153.79
58.5704
58.4986
55.5345
154.157
96.6536
91.1987
82.0355
36.3823
31.1653
33.8402
27.9972
160.726
186.679
158.748
109.211
89.7716
116.216
95.2821
122.461
236.263
252.548
143.163
124.228
143.354
224.803
87.1635
241.967
217.061
98.7272
97.1023
90.1674
219.903
87.5312
222.201
215.126
93.7239
92.0727
87.0867
209.733
80.0284
196.547
197.078
81.7676
77.5715
81.9234
197.588
86.6225
193.579
212.586
77.2918
80.6767
84.3279
214.109
93.5683
166.967
209.506
86.0126
85.6213
93.2799
199.517
75.4355
144.516
162.88
70.8162
66.2973
82.8073
156.095
57.5902
128.459
135.456
56.3456
53.7036
61.2708
130.392
72.9819
86.2384
73.938
32.6153
27.5948
35.0989
28.7656
202.166
244.391
218.925
142.009
118.03
145.14
124.228
161.123
286.929
330.92
181.583
158.914
184.68
297.294
113.124
219.908
244.536
120.467
113.855
120
235.293
100.157
203.988
220.477
105.995
103.595
102.66
213.626
94.6689
210.623
206.798
92.5333
91.3377
93.9893
208.97
87.7601
227.526
220.041
92.291
91.0941
92.6799
223.418
79.5908
228.166
225.225
85.3003
84.2225
80.9833
222.308
76.3086
190.317
195.662
81.1255
80.5306
76.6417
190.572
71.1449
159.498
176.169
73.2685
68.5354
73.6444
167.293
80.9664
101.057
88.0833
38.3672
30.6642
42.3706
35.4976
155.913
177.577
140.266
103.962
92.8384
98.6315
83.9279
134.047
129.822
132.989
82.4473
72.9802
70.5558
66.3722
129.164
134.124
132.387
66.0894
63.0111
64.2944
60.7064
128.722
131.666
130.244
59.4827
55.4726
57.9718
57.0174
124.177
126.867
120.649
52.8035
50.9769
55.7629