/*--------------------------------*- C++ -*----------------------------------*\
  =========                 |
  \\      /  F ield         | OpenFOAM: The Open Source CFD Toolbox
   \\    /   O peration     | Website:  https://openfoam.org
    \\  /    A nd           | Version:  10
     \\/     M anipulation  |
\*---------------------------------------------------------------------------*/
FoamFile
{
    format      ascii;
    class       volScalarField;
    location    "7.4";
    object      p;
}
// * * * * * * * * * * * * * * * * * * * * * * * * * * * * * * * * * * * * * //

dimensions      [0 2 -2 0 0 0 0];

internalField   nonuniform List<scalar> 
12920
(
1.16457e+06
1.31173e+06
1.18294e+06
1.15983e+06
1.08024e+06
1.03499e+06
966730
910689
842068
778437
707880
639230
566715
494602
420743
346475
271277
197430
121513
46817.8
1.38644e+06
1.3044e+06
1.1657e+06
1.15784e+06
1.07569e+06
1.0362e+06
968406
913021
844160
780616
709810
640783
568037
495686
421622
347206
271714
197551
121524
46436
1.35146e+06
1.31844e+06
1.19743e+06
1.16759e+06
1.08545e+06
1.04265e+06
974966
917747
849982
785257
714095
644217
571014
498030
423653
348781
272828
198179
121693
46251.8
1.00442e+06
1.1783e+06
1.11988e+06
1.14704e+06
1.08234e+06
1.04868e+06
984517
926814
857723
791542
719759
648902
574899
501184
426300
350898
274336
199127
122005
46378.1
919704
1.19188e+06
1.18694e+06
1.19509e+06
1.12519e+06
1.08164e+06
1.01125e+06
947491
873298
802860
728936
656373
581037
506000
430109
353802
276436
200538
122954
46819.2
1.1835e+06
1.30266e+06
1.24509e+06
1.25032e+06
1.15493e+06
1.1086e+06
1.03251e+06
965446
890608
816978
740658
664867
588132
511432
434585
357465
279386
202560
124078
47507.4
1.42616e+06
1.49647e+06
1.32062e+06
1.30222e+06
1.20888e+06
1.1496e+06
1.06809e+06
994140
913132
834698
753867
675115
595385
516823
438309
360037
281005
203565
124884
48081.7
1.59373e+06
1.60092e+06
1.45313e+06
1.38779e+06
1.25538e+06
1.18792e+06
1.10918e+06
1.02917e+06
947823
866221
783519
702536
621654
541166
442132
362568
283014
205210
125817
48489.5
1.81475e+06
1.71928e+06
1.54858e+06
1.45416e+06
1.32455e+06
1.24694e+06
1.15273e+06
1.06227e+06
975003
889578
803980
720558
637505
555491
464249
366141
285169
206815
126719
48832.7
1.84852e+06
1.8379e+06
1.62669e+06
1.51341e+06
1.34981e+06
1.27997e+06
1.18284e+06
1.08545e+06
993148
904047
816369
730895
646688
562651
469717
369547
287803
208699
127809
49302.9
2.11563e+06
1.91079e+06
1.69709e+06
1.56583e+06
1.40768e+06
1.31952e+06
1.21185e+06
1.10564e+06
1.00883e+06
917000
828571
740351
654562
570198
475505
373054
290485
210439
128924
49921.2
2.20987e+06
1.93538e+06
1.69732e+06
1.57383e+06
1.4043e+06
1.33303e+06
1.23004e+06
1.12104e+06
1.02108e+06
927976
837756
749254
662747
576564
481435
378125
292972
212252
129887
50288.9
2.04896e+06
1.91474e+06
1.70268e+06
1.58793e+06
1.41497e+06
1.31675e+06
1.2178e+06
1.11668e+06
1.01785e+06
925352
834108
745493
658445
572194
465579
380526
296284
213771
130466
50141.1
1.94589e+06
1.84314e+06
1.63271e+06
1.54453e+06
1.38682e+06
1.30117e+06
1.18397e+06
1.09468e+06
995028
907911
816499
729926
641007
555049
468560
384731
298690
215371
131057
49991
2.0033e+06
1.89861e+06
1.65229e+06
1.5582e+06
1.38927e+06
1.30083e+06
1.18108e+06
1.09567e+06
996275
911150
819377
732628
643755
558146
472162
387085
300641
216690
131618
49822.2
2.01991e+06
1.77973e+06
1.52082e+06
1.48981e+06
1.33474e+06
1.2697e+06
1.16451e+06
1.08879e+06
992804
911986
821823
737860
648948
563186
475694
390258
302928
218400
132489
50061.5
1.18874e+06
1.51009e+06
1.42695e+06
1.43781e+06
1.32053e+06
1.2599e+06
1.15853e+06
1.08554e+06
991260
912000
822421
739123
651053
565824
478192
392259
304599
219752
133439
50518.5
1.34555e+06
1.46012e+06
1.3442e+06
1.37866e+06
1.27969e+06
1.23614e+06
1.14264e+06
1.07705e+06
986436
909255
820945
738476
650985
566307
479102
393445
306060
221440
135090
51799.9
1.23767e+06
1.40788e+06
1.30966e+06
1.36017e+06
1.2601e+06
1.22242e+06
1.13694e+06
1.07162e+06
984005
907237
819925
737873
650823
566287
479396
393798
306860
222612
136543
53414.1
1.56855e+06
1.42765e+06
1.31516e+06
1.35074e+06
1.25122e+06
1.21576e+06
1.13145e+06
1.06695e+06
981829
904966
819033
736993
650417
566029
479380
393821
307271
223230
137431
54559.8
1.31366e+06
1.3303e+06
1.18603e+06
1.15958e+06
1.0806e+06
1.03506e+06
966682
910704
842072
778497
707875
639216
566695
494587
420723
346453
271232
197350
121380
46678.3
1.4067e+06
1.29489e+06
1.16515e+06
1.15717e+06
1.07516e+06
1.0359e+06
968318
913045
844296
780613
709774
640747
568001
495647
421601
347180
271677
197488
121434
46250.9
1.46664e+06
1.30459e+06
1.19712e+06
1.16644e+06
1.08544e+06
1.04252e+06
975103
917836
849896
785186
714066
644179
570991
497996
423629
348778
272806
198072
121609
45985.1
1.00538e+06
1.17614e+06
1.11972e+06
1.14742e+06
1.08266e+06
1.04928e+06
984333
926765
857767
791525
719744
648828
574864
501142
426258
350875
274289
198936
121829
46058.7
1.01915e+06
1.19835e+06
1.1863e+06
1.19488e+06
1.12597e+06
1.08244e+06
1.01136e+06
947486
872995
803038
729033
656315
580961
505934
430237
354002
276444
200407
122887
46481
1.14804e+06
1.31333e+06
1.24302e+06
1.24676e+06
1.15306e+06
1.10774e+06
1.03183e+06
965273
890561
817053
740596
664924
588184
511723
434662
357413
279435
202525
123936
47101.4
1.32218e+06
1.47059e+06
1.31595e+06
1.30043e+06
1.20935e+06
1.15051e+06
1.06815e+06
993969
912551
834382
753544
675096
595477
516853
438434
360079
280980
203469
124769
47732.2
1.62826e+06
1.5949e+06
1.45184e+06
1.38796e+06
1.25411e+06
1.18764e+06
1.10862e+06
1.02904e+06
947869
865810
783413
702570
621698
541245
442063
362587
283003
205089
125671
48140.3
1.75678e+06
1.71482e+06
1.54557e+06
1.45432e+06
1.32505e+06
1.24719e+06
1.1529e+06
1.0623e+06
975077
889733
803975
720337
637427
555455
464030
366204
285157
206674
126548
48460.9
1.85501e+06
1.84503e+06
1.62096e+06
1.51104e+06
1.34842e+06
1.2791e+06
1.18312e+06
1.08562e+06
993121
903781
816258
730816
646485
562533
469555
369615
287814
208583
127699
49022.5
2.00737e+06
1.91133e+06
1.69026e+06
1.56386e+06
1.40769e+06
1.31915e+06
1.2117e+06
1.10556e+06
1.00877e+06
916754
828432
740306
654546
570074
475253
373258
290550
210387
128844
49647.8
2.24244e+06
1.94466e+06
1.69188e+06
1.57242e+06
1.40391e+06
1.33245e+06
1.22983e+06
1.1211e+06
1.02121e+06
928144
837582
749331
662828
576782
481344
378040
293066
212218
129836
50001.5
2.03078e+06
1.91474e+06
1.70122e+06
1.58564e+06
1.4142e+06
1.31611e+06
1.21715e+06
1.11616e+06
1.01743e+06
925093
833939
745444
658339
572112
465503
380527
296203
213674
130443
49876.2
2.11997e+06
1.86637e+06
1.63744e+06
1.54377e+06
1.38621e+06
1.30102e+06
1.18328e+06
1.09438e+06
994931
908017
816445
729959
640968
554974
468447
384647
298645
215237
130992
49637.5
1.99017e+06
1.8179e+06
1.63311e+06
1.55521e+06
1.38698e+06
1.29986e+06
1.18099e+06
1.09566e+06
996178
911188
819401
732695
643827
558210
472209
387120
300699
216597
131473
49335.5
1.92207e+06
1.78041e+06
1.51075e+06
1.49072e+06
1.33287e+06
1.26974e+06
1.16459e+06
1.08896e+06
992830
912190
822016
737900
648970
563221
475714
390338
303003
218347
132370
49527.4
1.05268e+06
1.50523e+06
1.42077e+06
1.43803e+06
1.3197e+06
1.25923e+06
1.15913e+06
1.08563e+06
991441
912282
822647
739292
651121
565828
478194
392310
304668
219727
133318
49958.5
1.44349e+06
1.458e+06
1.34173e+06
1.37963e+06
1.27825e+06
1.23569e+06
1.1435e+06
1.07723e+06
986778
909559
821116
738485
651028
566299
479110
393486
306114
221389
135076
51415.2
1.36682e+06
1.43232e+06
1.31534e+06
1.3604e+06
1.25974e+06
1.2223e+06
1.13727e+06
1.07154e+06
983962
907144
819818
737856
650826
566295
479416
393846
306897
222604
136542
53345.1
1.44788e+06
1.41123e+06
1.3125e+06
1.35194e+06
1.25125e+06
1.21603e+06
1.13132e+06
1.06703e+06
981743
904969
818921
736934
650396
566028
479405
393842
307295
223242
137444
54540.6
1.35066e+06
1.3085e+06
1.18043e+06
1.15885e+06
1.08127e+06
1.03533e+06
966892
910826
842114
778517
707846
639149
566652
494554
420683
346434
271196
197234
121267
46262.1
1.36159e+06
1.29382e+06
1.16074e+06
1.15836e+06
1.07504e+06
1.03605e+06
968533
913106
844402
780608
709747
640716
567953
495602
421537
347134
271624
197285
121282
45651
1.3189e+06
1.27625e+06
1.1947e+06
1.16509e+06
1.08556e+06
1.04235e+06
975214
917801
849810
785066
713998
644137
570963
497950
423537
348720
272755
197927
121457
45533.8
1.02818e+06
1.16217e+06
1.12007e+06
1.14833e+06
1.0831e+06
1.04984e+06
984262
926838
857808
791539
719791
648715
574872
501177
426243
350823
274214
198757
121696
45535.2
956429
1.20151e+06
1.18418e+06
1.19374e+06
1.12651e+06
1.08308e+06
1.01105e+06
947231
872992
803207
729096
656241
580986
506278
430463
354227
276609
200373
122647
45803.4
1.19997e+06
1.31587e+06
1.24695e+06
1.24484e+06
1.15157e+06
1.10807e+06
1.03179e+06
965279
890585
817053
740671
664997
588391
511992
434800
357466
279384
202314
123675
46379
1.40148e+06
1.47018e+06
1.31776e+06
1.30105e+06
1.21083e+06
1.15093e+06
1.06797e+06
993979
912126
834012
753337
675051
595557
516951
438559
360204
281066
203387
124503
47126.2
1.64328e+06
1.60279e+06
1.45337e+06
1.38915e+06
1.25288e+06
1.18779e+06
1.10815e+06
1.02863e+06
947487
865304
783434
702572
621895
541129
442008
362671
283076
204903
125374
47411.1
1.83854e+06
1.72167e+06
1.5493e+06
1.45586e+06
1.3259e+06
1.24667e+06
1.15325e+06
1.06233e+06
974986
889616
803966
720154
637390
555473
463900
366257
285189
206455
126245
47679.3
1.92588e+06
1.85077e+06
1.62135e+06
1.50961e+06
1.34801e+06
1.27923e+06
1.18352e+06
1.08571e+06
992984
903512
815848
730419
646081
562345
469525
369593
287855
208425
127476
48457.6
2.1345e+06
1.94087e+06
1.68942e+06
1.56276e+06
1.40742e+06
1.31859e+06
1.21153e+06
1.10558e+06
1.00873e+06
913913
828258
740596
654722
569957
475167
373344
290626
210286
128682
49023.8
2.33736e+06
1.97968e+06
1.69385e+06
1.56942e+06
1.40356e+06
1.33226e+06
1.23005e+06
1.121e+06
1.02141e+06
928251
837802
749643
662941
576936
481063
377980
293139
212145
129675
49269.4
2.03898e+06
1.93309e+06
1.70739e+06
1.58507e+06
1.4133e+06
1.31477e+06
1.2158e+06
1.11568e+06
1.0171e+06
924830
833719
745402
658114
571925
465382
380353
296229
213626
130402
49080.8
2.02279e+06
1.8652e+06
1.63435e+06
1.5417e+06
1.38518e+06
1.30036e+06
1.18216e+06
1.09409e+06
994803
908060
816492
730065
641003
555022
468363
384600
298675
215196
130883
48993.1
1.96711e+06
1.85608e+06
1.62992e+06
1.55418e+06
1.38389e+06
1.29882e+06
1.18068e+06
1.09565e+06
995942
911248
819615
733079
644184
558475
472348
387218
300843
216675
131386
48679
1.92358e+06
1.7983e+06
1.51159e+06
1.49546e+06
1.32982e+06
1.26899e+06
1.16436e+06
1.08886e+06
992830
912480
822358
738041
649019
563313
475761
390458
303152
218486
132316
48853.7
1.25808e+06
1.50393e+06
1.42177e+06
1.43835e+06
1.31705e+06
1.25919e+06
1.15987e+06
1.08598e+06
991701
912801
823180
739590
651257
565886
478203
392398
304778
219811
133210
49262.2
1.56826e+06
1.47842e+06
1.34501e+06
1.38177e+06
1.27165e+06
1.23592e+06
1.14533e+06
1.07782e+06
987497
910199
821512
738679
651240
566351
479137
393561
306198
221346
135024
50757.2
1.54065e+06
1.43451e+06
1.32379e+06
1.36103e+06
1.25894e+06
1.22286e+06
1.13758e+06
1.0715e+06
983808
907049
819704
737899
650917
566382
479517
393989
307009
222605
136519
53204.2
1.23801e+06
1.39428e+06
1.31229e+06
1.35108e+06
1.25093e+06
1.21612e+06
1.13118e+06
1.06707e+06
981572
904927
818847
736934
650441
566059
479459
393902
307346
223259
137429
54475.7
1.31723e+06
1.28936e+06
1.17773e+06
1.15936e+06
1.0812e+06
1.03571e+06
967145
910979
842105
778471
707764
639046
566568
494485
420620
346393
271135
197088
121030
45812.9
1.23991e+06
1.25954e+06
1.1591e+06
1.15786e+06
1.07486e+06
1.03614e+06
968487
913096
844482
780558
709716
640668
567921
495548
421492
347121
271553
197000
120722
44796.5
1.37394e+06
1.26299e+06
1.1934e+06
1.16349e+06
1.08588e+06
1.04235e+06
975274
917715
849761
784839
713876
644005
570888
497846
423437
348663
272664
197631
120864
45049.6
927530
1.14506e+06
1.12168e+06
1.15007e+06
1.08382e+06
1.05021e+06
984420
926889
857828
791510
719647
648671
574895
501220
426230
350772
274148
198534
121380
44900.3
1.00876e+06
1.20083e+06
1.18354e+06
1.1921e+06
1.12721e+06
1.08317e+06
1.01069e+06
946892
873060
803217
729091
656124
580934
506385
430552
354358
276753
200271
122241
45162.5
1.11811e+06
1.34098e+06
1.24447e+06
1.24305e+06
1.15062e+06
1.10789e+06
1.03186e+06
965057
890515
816935
740750
665028
588632
512077
434838
357476
279363
202075
123306
45760.2
1.42828e+06
1.47043e+06
1.31954e+06
1.3007e+06
1.21067e+06
1.15047e+06
1.06707e+06
993596
911752
833903
753295
675081
595597
517054
438604
360271
281084
203146
124141
46395.4
1.49812e+06
1.58496e+06
1.44779e+06
1.38924e+06
1.25172e+06
1.1877e+06
1.10763e+06
1.02795e+06
946591
864921
783265
702456
621773
540935
442103
362724
283148
204668
125029
46819.5
1.72456e+06
1.72075e+06
1.54187e+06
1.45536e+06
1.32538e+06
1.24576e+06
1.15333e+06
1.0622e+06
974728
889217
803885
719998
637366
555350
463881
366202
285267
206320
125912
47287.3
1.94165e+06
1.85255e+06
1.62468e+06
1.50839e+06
1.34686e+06
1.28045e+06
1.18421e+06
1.08574e+06
992782
903304
815758
730096
645808
562226
469708
369497
287947
208340
127247
47960.9
2.10363e+06
1.95169e+06
1.6853e+06
1.55923e+06
1.40599e+06
1.31805e+06
1.21207e+06
1.10576e+06
1.00876e+06
916629
828404
740744
654947
569930
475269
373225
290738
210231
128559
48703.8
2.23162e+06
1.97899e+06
1.69083e+06
1.56712e+06
1.40184e+06
1.33326e+06
1.23019e+06
1.12091e+06
1.02144e+06
928132
837850
749757
662981
576928
480941
377597
293260
212089
129485
49172.5
2.15288e+06
1.95026e+06
1.70761e+06
1.58394e+06
1.41052e+06
1.31375e+06
1.21437e+06
1.11502e+06
1.01714e+06
924853
833787
745657
658163
571835
465040
380127
296343
213622
130217
49126.6
2.0587e+06
1.866e+06
1.63973e+06
1.54248e+06
1.38257e+06
1.30018e+06
1.18022e+06
1.09455e+06
994351
908617
816538
730380
641060
555141
468313
384574
298779
215491
130926
48903.9
1.96096e+06
1.84968e+06
1.62275e+06
1.55473e+06
1.37864e+06
1.29873e+06
1.17791e+06
1.09577e+06
995060
911534
819605
733608
645003
558958
472534
387399
301040
217053
131555
48745.7
1.70625e+06
1.76067e+06
1.50772e+06
1.49707e+06
1.32878e+06
1.26871e+06
1.16179e+06
1.08904e+06
992158
913002
822613
738871
649132
563456
475779
390542
303319
218838
132422
48950
1.20618e+06
1.50915e+06
1.41833e+06
1.43759e+06
1.31319e+06
1.26078e+06
1.15694e+06
1.08677e+06
991245
913631
823539
740558
651710
566019
478231
392518
304926
220093
133333
49374.7
1.64551e+06
1.52575e+06
1.35182e+06
1.3815e+06
1.26853e+06
1.23618e+06
1.14253e+06
1.07854e+06
988123
911596
821863
739060
651448
566433
479192
393639
306339
221353
134918
50791.4
1.58066e+06
1.43575e+06
1.33079e+06
1.36325e+06
1.25567e+06
1.22355e+06
1.13775e+06
1.07152e+06
983552
907108
819614
737997
651106
566499
479626
394128
307121
222524
136484
53148.1
1.4517e+06
1.39646e+06
1.3174e+06
1.35143e+06
1.25031e+06
1.21606e+06
1.13137e+06
1.06717e+06
981626
905054
818858
736996
650537
566115
479517
393944
307346
223181
137368
54318.8
1.28983e+06
1.27937e+06
1.17006e+06
1.16238e+06
1.08227e+06
1.03627e+06
967515
911114
842112
778272
707680
638924
566497
494444
420569
346365
271067
196849
120854
45526.6
1.19375e+06
1.24906e+06
1.15768e+06
1.15945e+06
1.07468e+06
1.03648e+06
969152
913222
844804
780677
709768
640684
567941
495549
421500
347140
271464
196727
120210
43516.3
1.33279e+06
1.24896e+06
1.19223e+06
1.16245e+06
1.08643e+06
1.04364e+06
975552
918178
849815
784865
713904
643980
570923
497862
423411
348623
272439
196821
119688
44509.6
876329
1.13081e+06
1.12362e+06
1.15066e+06
1.08454e+06
1.05077e+06
984699
926817
857906
791328
719576
648540
574929
501286
426355
350808
274037
197977
120883
45039.7
1.02732e+06
1.20734e+06
1.18435e+06
1.1896e+06
1.1277e+06
1.08296e+06
1.01065e+06
946618
873067
803157
729006
656025
580823
506086
430479
354423
276790
200051
121871
45481.2
1.17865e+06
1.33798e+06
1.24582e+06
1.24061e+06
1.15082e+06
1.10787e+06
1.03206e+06
964778
890707
816992
740882
665137
588670
511894
434864
357524
279371
201853
122930
45998.4
1.36698e+06
1.46351e+06
1.31968e+06
1.29981e+06
1.21043e+06
1.14988e+06
1.06617e+06
993164
911787
833977
753284
674869
595155
516352
438538
360294
281122
202946
123937
46574.9
1.48866e+06
1.64017e+06
1.45658e+06
1.39092e+06
1.25048e+06
1.18792e+06
1.10661e+06
1.02754e+06
945799
864817
782906
702216
621536
540907
441683
362763
283264
204474
124795
47276.9
1.7944e+06
1.73284e+06
1.53841e+06
1.455e+06
1.32287e+06
1.24516e+06
1.15332e+06
1.062e+06
974539
888766
803601
719746
637175
555237
463890
365613
285362
206311
125929
48057.4
1.99778e+06
1.86363e+06
1.62907e+06
1.50792e+06
1.34772e+06
1.28231e+06
1.18526e+06
1.08581e+06
992675
903210
815832
730029
645766
562248
469849
369215
288049
208266
127218
48810.6
2.03616e+06
1.95314e+06
1.69027e+06
1.55762e+06
1.40431e+06
1.31773e+06
1.21327e+06
1.10616e+06
1.00888e+06
916871
828046
740829
655021
569922
475502
372920
290834
210054
128356
49627.8
2.08799e+06
1.97447e+06
1.69093e+06
1.56845e+06
1.40075e+06
1.33267e+06
1.23033e+06
1.12087e+06
1.02149e+06
927967
837746
749773
663032
576931
481318
376881
293381
212076
129450
50528.4
2.14107e+06
1.94695e+06
1.71606e+06
1.58462e+06
1.40915e+06
1.31404e+06
1.21363e+06
1.11384e+06
1.01699e+06
924822
833991
746051
658328
572131
464370
380068
296522
213565
130228
51187.3
2.03509e+06
1.86103e+06
1.63719e+06
1.54265e+06
1.38176e+06
1.29981e+06
1.17891e+06
1.09514e+06
993427
908496
816094
730462
640999
555285
468174
384536
298890
215745
130989
51208.6
1.94181e+06
1.8558e+06
1.62002e+06
1.5579e+06
1.37711e+06
1.29916e+06
1.17501e+06
1.09661e+06
993938
911833
818945
733450
644445
558813
472475
387419
301186
217268
131691
50889.5
1.55663e+06
1.75971e+06
1.50454e+06
1.49766e+06
1.32886e+06
1.27037e+06
1.15937e+06
1.08983e+06
991014
913142
821974
738737
649131
563431
475708
390572
303495
219071
132609
51036.2
1.20124e+06
1.51224e+06
1.41568e+06
1.43712e+06
1.31159e+06
1.26241e+06
1.15501e+06
1.08798e+06
990041
914111
823025
740319
651360
565944
478116
392592
305067
220280
133437
51351.5
1.7222e+06
1.52939e+06
1.36064e+06
1.38e+06
1.26715e+06
1.23787e+06
1.14114e+06
1.07883e+06
986812
911030
821728
739403
651597
566523
479106
393712
306409
221303
134828
52623.4
1.46423e+06
1.4263e+06
1.3301e+06
1.36527e+06
1.25435e+06
1.22375e+06
1.13518e+06
1.07166e+06
983462
907405
819524
738220
651371
566631
479740
394251
307204
222377
136477
53614.7
1.32779e+06
1.38906e+06
1.31277e+06
1.35057e+06
1.24958e+06
1.21786e+06
1.13208e+06
1.06727e+06
981742
905151
818903
737101
650649
566187
479574
394014
307349
223104
137316
54112.1
837482
910770
846811
903344
837372
910881
846796
751598
824827
762172
815713
751320
824819
761813
850236
925763
858120
914161
850305
925803
858187
764671
835771
769495
828313
764615
835915
769685
1.08542e+06
1.17707e+06
1.10363e+06
1.15288e+06
1.08558e+06
1.17747e+06
1.10372e+06
997607
1.0804e+06
1.01136e+06
1.06231e+06
997710
1.08048e+06
1.01143e+06
911833
988870
921942
975084
911951
988942
922037
825883
900188
834886
889727
825969
900210
834828
742298
813508
749449
803966
742144
813445
749395
659065
728361
665170
720387
658846
728327
665076
576618
644393
581460
637442
576346
644305
581428
495061
560817
498110
555455
494898
560758
497968
1.109e+06
1.20291e+06
1.1256e+06
1.1831e+06
1.10916e+06
1.20304e+06
1.12557e+06
1.01583e+06
1.10084e+06
1.02873e+06
1.08557e+06
1.01587e+06
1.10081e+06
1.02863e+06
926125
1.00529e+06
936652
993135
925939
1.0052e+06
936498
837974
914143
847598
903849
837923
913925
847391
752166
825576
759815
816308
752089
825380
759766
667618
738156
673895
730861
667539
738089
673866
583549
652715
589598
646562
583472
652712
589482
499868
568499
504800
562576
499678
568394
504673
1.13095e+06
1.22695e+06
1.14376e+06
1.21193e+06
1.13085e+06
1.22704e+06
1.14392e+06
1.03245e+06
1.11768e+06
1.04226e+06
1.10557e+06
1.03239e+06
1.11785e+06
1.04235e+06
939576
1.01804e+06
947960
1.00879e+06
939468
1.01816e+06
948120
850794
925705
858011
916856
850662
925670
858029
762254
835642
769011
828477
762228
835618
768982
675834
747118
682050
740313
675783
747189
682264
591280
660586
596025
654545
591226
660722
596213
506515
574822
511120
570112
506318
574935
510928
1.1471e+06
1.23258e+06
1.15392e+06
1.23004e+06
1.14719e+06
1.2324e+06
1.15375e+06
1.04518e+06
1.12736e+06
1.05267e+06
1.12114e+06
1.04527e+06
1.12707e+06
1.05247e+06
950837
1.02788e+06
957635
1.02113e+06
950916
1.02766e+06
957602
859935
934019
865696
928119
859836
933961
865694
771037
842381
776392
837606
770966
842720
776483
684070
753779
689430
749263
684194
754120
689174
597955
667206
603120
662799
598030
667172
603039
512308
581403
517246
576717
512226
581280
517258
1.08562e+06
1.17756e+06
1.10376e+06
1.15332e+06
1.0858e+06
1.17795e+06
1.10387e+06
997733
1.0805e+06
1.01143e+06
1.06235e+06
997778
1.08054e+06
1.01134e+06
911950
988937
922042
975039
911886
988843
921972
826010
900191
834786
889670
826038
900077
834591
742039
813388
749340
803960
741615
813162
749105
658721
728274
665019
720183
658500
728074
664797
576301
644245
581402
637372
576315
644010
581282
494980
560727
497961
555466
494907
560616
497800
1.10922e+06
1.20301e+06
1.12557e+06
1.1835e+06
1.10935e+06
1.20346e+06
1.12562e+06
1.01586e+06
1.10081e+06
1.0286e+06
1.0857e+06
1.01579e+06
1.10082e+06
1.02853e+06
925875
1.00518e+06
936423
993028
925686
1.00511e+06
936205
837873
913808
847280
903578
837608
913144
846769
752016
825254
759732
815976
751705
824745
759842
667451
738047
673841
730520
667130
737970
673795
583426
652690
589429
646191
583251
652624
589281
499669
568337
504662
562390
499468
568159
504519
1.13082e+06
1.22685e+06
1.1439e+06
1.2117e+06
1.13079e+06
1.22679e+06
1.14375e+06
1.03237e+06
1.11786e+06
1.04238e+06
1.10554e+06
1.03236e+06
1.11783e+06
1.04252e+06
939426
1.01821e+06
948182
1.00872e+06
939392
1.01843e+06
948346
850602
925675
858011
916301
850513
925704
858030
762209
835594
769049
828418
762428
835657
769358
675781
747261
682355
740408
675923
747606
682623
591193
660798
596313
654660
591139
661085
596587
506266
575010
510869
569973
506077
575232
510621
1.14713e+06
1.23216e+06
1.15366e+06
1.23021e+06
1.14688e+06
1.23202e+06
1.15327e+06
1.04531e+06
1.12694e+06
1.05239e+06
1.12102e+06
1.04541e+06
1.12644e+06
1.05207e+06
950941
1.02752e+06
957562
1.02138e+06
951038
1.02698e+06
957336
859831
933903
865675
928225
859949
933557
865509
771016
842772
776456
837712
771333
842505
776468
684234
754158
689069
749578
684334
753906
688978
598099
667041
602992
662915
598274
666793
602876
512230
581186
517298
576922
512068
580927
517121
1.08583e+06
1.17796e+06
1.10389e+06
1.15367e+06
1.08594e+06
1.17829e+06
1.10395e+06
997740
1.08054e+06
1.01129e+06
1.06227e+06
997610
1.08051e+06
1.01112e+06
911812
988792
921929
974812
911557
988618
921783
826023
900027
834514
889338
825902
899884
834402
741525
813082
749010
803924
741389
812950
748731
658496
727980
664712
720032
658579
727735
664482
576385
643941
581237
637388
576478
643778
581133
494969
560580
497853
555394
494954
560548
497825
1.10938e+06
1.20341e+06
1.12565e+06
1.18405e+06
1.10947e+06
1.20409e+06
1.1258e+06
1.01575e+06
1.10087e+06
1.02851e+06
1.08573e+06
1.01562e+06
1.10099e+06
1.02848e+06
925627
1.00509e+06
936182
992832
925455
1.00503e+06
936112
884657
881379
907025
903452
884747
881301
906966
796798
794241
818674
815744
797003
794127
818439
667018
738004
673795
730151
666761
737997
673825
583192
652614
589238
645848
583061
652614
589141
499538
568119
504588
562236
499533
568031
504521
1.1308e+06
1.22653e+06
1.14371e+06
1.21189e+06
1.1309e+06
1.22668e+06
1.1437e+06
1.03236e+06
1.11784e+06
1.04256e+06
1.1057e+06
1.03239e+06
1.11789e+06
1.04266e+06
939510
1.0185e+06
948417
1.00875e+06
939551
1.01864e+06
948514
898517
893305
920260
913731
898134
891918
920700
809405
806276
831371
828961
808999
807296
831751
676003
747718
682687
740834
676239
747900
682786
591143
661175
596655
654921
591152
661292
596710
506102
575266
510628
569933
506015
575324
510566
1.14681e+06
1.23153e+06
1.15311e+06
1.23026e+06
1.14668e+06
1.23081e+06
1.15264e+06
1.04543e+06
1.12626e+06
1.05199e+06
1.12093e+06
1.04544e+06
1.12571e+06
1.05188e+06
951083
1.02683e+06
957251
1.02144e+06
950998
1.02647e+06
957084
860039
933422
865442
928205
860104
933103
865473
771404
842345
776474
837891
771484
842068
776607
684355
753813
688971
749753
684371
753706
689090
598266
666717
602854
662977
598213
666597
602902
512073
580858
517141
576935
511951
580705
517085
1.08588e+06
1.17825e+06
1.10396e+06
1.15375e+06
1.08552e+06
1.17875e+06
1.10399e+06
997540
1.08049e+06
1.01107e+06
1.06214e+06
997373
1.08048e+06
1.01096e+06
911447
988561
921741
974614
911119
988461
921658
825867
899848
834406
888857
825799
899793
834375
741410
812943
748665
803653
741318
812913
748534
658608
727676
664431
719808
658548
727574
664329
576507
643741
581113
637225
576430
643684
581061
495113
560548
497989
555243
495010
560546
497910
1.10951e+06
1.20435e+06
1.12589e+06
1.18514e+06
1.10965e+06
1.20552e+06
1.12627e+06
1.01557e+06
1.10105e+06
1.02848e+06
1.0858e+06
1.01549e+06
1.10131e+06
1.02854e+06
925407
1.00502e+06
936125
992689
925313
1.00505e+06
936112
837430
913241
846740
903226
837485
913567
846949
751274
824677
759737
815826
751228
824880
759656
666711
737975
673825
730039
666644
738104
673887
583041
652610
589120
645766
583019
652652
589104
499732
568013
504660
562236
499722
568003
504614
1.13098e+06
1.22674e+06
1.14373e+06
1.21314e+06
1.13137e+06
1.22749e+06
1.14388e+06
1.03241e+06
1.11792e+06
1.04269e+06
1.10605e+06
1.03253e+06
1.11803e+06
1.0428e+06
939488
1.01867e+06
948483
1.00885e+06
939453
1.01876e+06
948382
850540
925733
858086
916823
850235
925560
857874
762542
835847
769677
828144
762560
835698
769630
676268
747906
682788
740847
676336
747904
682786
591151
661294
596705
655007
591150
661289
596679
506132
575319
510686
569933
506117
575304
510710
1.14666e+06
1.23029e+06
1.15248e+06
1.23053e+06
1.14661e+06
1.22987e+06
1.15228e+06
1.04544e+06
1.12557e+06
1.05187e+06
1.12086e+06
1.04549e+06
1.12514e+06
1.05189e+06
950933
1.02641e+06
957035
1.02147e+06
950778
1.02639e+06
956949
860039
933050
865520
927989
859890
933069
865622
771465
842044
776638
837760
771388
842239
776639
684370
753717
689169
749765
684388
754019
689331
598198
666592
602941
663014
598159
666895
602881
512052
580674
517239
576924
512050
580823
517083
1.08527e+06
1.17871e+06
1.104e+06
1.15305e+06
1.08507e+06
1.17926e+06
1.10394e+06
997271
1.08048e+06
1.01094e+06
1.06153e+06
997186
1.08044e+06
1.01093e+06
911002
988453
921633
974206
910615
988455
921570
825718
899788
834353
888458
825364
899769
834312
741160
812919
748497
803349
740869
812911
748456
658438
727555
664303
719558
658183
727549
664269
576253
643682
581028
636979
576050
643684
581011
495058
560544
498066
555076
494677
560582
497847
1.10968e+06
1.20578e+06
1.12638e+06
1.1858e+06
1.10971e+06
1.20642e+06
1.12644e+06
1.01548e+06
1.10141e+06
1.02856e+06
1.08585e+06
1.01544e+06
1.1015e+06
1.02844e+06
925286
1.00506e+06
936105
992651
925220
1.00495e+06
936022
837471
913594
846944
903182
837444
913568
846881
751213
824883
759595
815818
751195
824850
759501
666632
738083
673919
730033
666625
738046
673946
583002
652683
589111
645778
583005
652705
589101
499873
568009
504805
562309
499558
568024
504534
1.13147e+06
1.22748e+06
1.14391e+06
1.21349e+06
1.13153e+06
1.2279e+06
1.14388e+06
1.03257e+06
1.11806e+06
1.04283e+06
1.10624e+06
1.03245e+06
1.11803e+06
1.04272e+06
939455
1.01878e+06
948349
1.00876e+06
939385
1.01866e+06
948220
850139
925520
857827
916846
849926
925407
857702
762439
835663
769611
827850
762304
835583
769545
676358
747903
682783
740760
676371
747881
682759
591139
661287
596667
655028
591097
661266
596612
506338
575302
510940
569901
506047
575286
510691
1.1466e+06
1.22954e+06
1.15232e+06
1.23022e+06
1.14657e+06
1.2304e+06
1.1523e+06
1.0455e+06
1.12505e+06
1.05188e+06
1.12082e+06
1.04543e+06
1.1252e+06
1.05191e+06
950739
1.02641e+06
956962
1.02139e+06
950622
1.02639e+06
956946
859852
933130
865647
927857
859743
933173
865685
771342
842331
776589
837697
771280
842395
776692
684388
754191
689398
749793
684380
754303
689542
598140
667057
602868
663039
598097
667153
602984
512238
580994
517228
576944
511933
580977
517064
862346
859415
840457
837379
862543
859321
840225
888366
910467
890272
910697
888341
910552
889718
865185
843415
868772
846067
865669
842890
867588
884619
903395
881217
906834
881246
906902
884603
862313
837335
859282
840370
859277
840198
862447
888418
910600
910356
890444
910497
890064
888273
865198
846058
843372
868814
842883
867666
865635
775489
772952
754308
751505
775614
772842
754250
799298
821544
803163
824240
799728
821051
803065
777875
756814
781999
763268
778025
756954
782495
796721
815689
794039
818550
794047
818392
796794
775394
751404
772693
754052
772745
754167
775364
799256
824237
821481
803147
821011
803017
799584
777744
763536
756610
781992
756897
782370
777845
876259
872138
853586
850786
875836
872267
853960
900801
923062
903138
925826
900653
923205
903193
878551
855979
880697
858206
878389
856108
880760
898712
913589
893506
920485
892219
920775
898295
876292
850756
872222
853498
872207
853968
875790
900822
925846
923133
903134
923216
903206
900674
878560
858246
855972
880697
856119
880766
878374
787166
784802
764800
766555
786598
787930
765113
811546
833678
813442
835883
811354
833822
813586
789565
767391
791441
769610
789302
767624
791605
809482
828889
806419
831402
807312
831781
809186
787209
767049
785173
765182
787642
765294
786940
811635
835947
833774
813636
833867
813659
811573
789683
769675
767715
791677
767746
791677
789641
1.07128e+06
1.12837e+06
1.08582e+06
1.10917e+06
1.0713e+06
1.1285e+06
1.08582e+06
989687
1.04316e+06
1.00047e+06
1.02914e+06
989663
1.04314e+06
1.00046e+06
908114
958276
916162
947869
908034
958251
916162
825741
874609
831656
866097
825596
874556
831667
744406
789792
748264
783463
744429
789861
748392
663217
707127
665876
702506
663103
707211
665898
582625
624997
584096
621626
582546
624988
584100
502733
543422
503187
541187
502494
543391
503077
1.19407e+06
1.26583e+06
1.20982e+06
1.24693e+06
1.19421e+06
1.26562e+06
1.21009e+06
1.13816e+06
1.13068e+06
1.16255e+06
1.15259e+06
1.13073e+06
1.16256e+06
1.13812e+06