/*--------------------------------*- C++ -*----------------------------------*\
  =========                 |
  \\      /  F ield         | OpenFOAM: The Open Source CFD Toolbox
   \\    /   O peration     | Website:  https://openfoam.org
    \\  /    A nd           | Version:  10
     \\/     M anipulation  |
\*---------------------------------------------------------------------------*/
FoamFile
{
    format      ascii;
    class       surfaceScalarField;
    location    "7.4";
    object      phi_0;
}
// * * * * * * * * * * * * * * * * * * * * * * * * * * * * * * * * * * * * * //

dimensions      [0 3 -1 0 0 0 0];

internalField   nonuniform List<scalar> 
38556
(
1599.68
1001.51
2429.79
745.453
689.681
164.546
828.784
595.834
-679.165
916.084
303.035
-390.335
931.148
227.166
-242.23
945.117
151.378
-165.346
913.714
83.8461
-52.4442
913.914
57.5753
-57.7749
916.63
15.3674
-18.0832
941.795
1.89493
-27.0598
971.426
-20.8813
-8.74938
1009.88
-21.7394
-16.7193
1047.2
-24.4088
-12.9105
1094.28
-25.0335
-22.0406
1143.52
-26.2824
-22.9618
1196.77
-32.1725
-21.0704
1278.26
-45.4232
-36.0661
1411.43
-56.7379
-76.4394
1554.65
-65.1716
-78.0425
-43.0036
-23.1651
304.825
1177.69
1357
287.967
683.799
22.7402
713.05
378.666
-207.914
823.236
354.502
-161.653
888.664
241.904
-80.166
924.234
224.919
-109.112
928.444
113.665
-34.0294
944.488
77.5662
-36.0343
953.172
-5.93726
12.6205
977.398
-44.9972
22.6665
994.195
-86.1594
48.4807
1013.12
-97.7588
57.0918
1027.19
-105.577
67.0996
1039.11
-102.817
65.8641
1055.09
-107.077
64.8104
1092.98
-116.743
46.683
1142.58
-126.134
31.1139
1191.91
-127.761
21.6909
1200.73
-104.84
30.8439
-56.0569
25.8974
59.4606
188.894
-1638.39
394.227
359.921
-10.8879
836.79
187.875
-251.773
913.673
252.798
24.8211
983.137
111.679
60.7607
1041.68
107.832
58.5446
1065.91
12.1154
77.3208
1097.77
2.1422
43.5676
1106.97
-65.2893
50.1476
1115.06
-81.0043
27.9125
1107.57
-111.876
33.2147
1097.91
-119.97
31.8693
1072.44
-122.524
42.4128
1038.94
-110.174
40.8583
989.358
-104.403
46.9105
945.799
-107.776
34.5931
917.519
-112.128
14.2745
905.896
-106.246
-9.89231
883.645
-69.5868
-13.0019
-8.28763
-25.1291
20.5442
-691.364
-645.03
572.7
98.1453
-290.38
855.655
-20.6163
-74.4635
987.485
-7.76663
128.735
1034.13
-99.9582
164.991
1072.09
-25.0185
94.8897
1064.42
-51.5526
71.3353
1070.35
-8.11185
4.32425
1064.78
-49.4733
-10.2372
1076.19
-69.3949
-23.0184
1083.08
-104.709
-14.0616
1092.28
-121.81
-7.35699
1088.21
-125.478
7.01748
1057.59
-105.565
26.0129
981.761
-78.285
49.7124
908.137
-74.5
40.3479
851.491
-72.3129
16.8298
806.329
-60.2965
-0.786898
761.57
-20.4869
-4.34068
25.5299
-7.15158
1831.19
1030.13
1377.2
1776.61
376.201
-223.477
1619.93
165.898
-29.831
1651.31
-29.6394
-9.50629
1544.3
-80.7812
87.8257
1477.59
-27.8404
69.5336
1328.26
-1.42099
99.1977
1246.58
41.5025
32.0714
1188.62
6.91802
1.56197
1168.13
-4.16272
-44.7355
1161.57
-52.9747
-45.18
1160.85
-87.168
-33.9179
1155.93
-108.516
-12.0423
1119.81
-75.509
6.0621
1018.61
-11.4683
34.3842
905.499
4.32524
34.2859
819.733
-9.01393
22.4673
767.28
-19.9759
12.1332
731.847
7.07177
7.87394
46.5174
-4.69055
-908.499
720.453
773.556
269.062
-386.688
-414.671
865.578
-282.171
-148.446
1205.28
-251.199
-118.138
1369.26
-166.66
-78.1013
1502.99
-58.9164
-102.663
1531.1
-25.2782
-4.24738
1515
57.2881
0.31493
1466.86
20.7304
34.3298
1436.12
16.8372
9.7319
1390.7
-35.301
27.7464
1316.35
-46.8237
34.0121
1256.17
-63.9431
15.6079
1214.63
-29.186
-4.78484
1155.76
25.9394
21.4609
1047.06
67.3833
45.6422
917.546
62.0228
58.4763
821.02
40.5302
36.0199
764.824
41.4347
21.8336
62.0694
1.00756
208.018
-476.803
-3364.8
765.326
-511.586
-432.41
1240.61
-523.518
-233.934
1522.15
-373.179
-159.564
1564.05
-108.818
-99.7438
1559.2
33.0845
-87.1436
1430.27
23.811
23.6503
17.676
23.6355
14.8736
1308.32
32.1648
56.9635
32.3002
28.4112
29.3966
1178.47
19.8561
99.7164
7.81353
16.9208
6.27284
1081.66
-0.881811
117.38
-2.60468
-0.886601
0.644412
1035.64
-12.2298
73.4789
-23.7311
-8.9536
-17.8486
1013.28
-16.3959
28.4351
-18.111
-8.5476
-9.84405
1007.33
-11.7832
-14.7371
-16.9545
-5.23119
-9.28293
1040.18
-7.43595
-45.5529
-8.14577
-1.15445
0.251752
1113.24
7.17544
-54.3004
1165.18
52.5655
-37.1203
1161.88
76.8256
-11.5058
1086.81
87.2992
28.3087
951.997
101.423
74.8208
91.1068
38.6239
325.193
-464.489
-225.613
1034.11
-19.1871
-1201.31
1094.41
-315.022
-268.799
1266.72
-249.56
-295.931
1287.66
-94.1662
-35.5852
330.972
4.52742
-70.7702
326.182
327.122
315.087
42.5249
7.88418
37.2141
314.862
38.5958
1.32539
-299.742
284.894
39.3687
7.64377
-275.39
255.229
30.184
9.83319
-234.85
211.955
6.97756
15.0349
-204.742
196.835
-9.08252
4.75902
-194.856
195.045
-13.1896
-3.39517
-199.759
202.167
-7.39039
-6.80125
-206.261
209.71
-3.47828
-7.40627
854.461
5.37394
-62.7495
-211.819
-201.046
-203.051
-189.707
4.91213
6.00185
4.79943
906.819
46.6529
-46.4452
916.487
77.3691
-10.211
887.473
98.1227
18.1902
838.978
115.386
34.5327
95.0498
15.5605
631.097
445.77
120.884
844.14
212.692
-444.921
846.413
5.49641
-322.792
864.514
24.1381
-291.799
195.891
103.73
-68.7633
145.542
218.338
175.611
198.306
9.5375
-7.42489
-10.6688
-55.5961
53.6249
11.956
0.683914
-51.819
-10.3308
51.3703
9.64742
1.13211
-53.0774
-9.1362
51.6276
9.65154
0.934519
-47.1285
-5.41421
44.6855
6.12923
1.72801
-43.0483
0.99495
42.3786
-0.986743
0.661548
-43.1849
2.34337
43.5345
-2.04826
-0.644716
-45.0113
0.976498
45.326
-0.544303
-0.746973
-46.4498
-0.153602
46.5293
0.58113
-0.507
-47.3239
187.298
8.27414
-2.83306
-47.5159
-46.3903
-46.1351
734.097
60.07
-18.8591
-187.537
-185.444
-179.556
-176.119
729.387
87.1491
-5.07006
728.249
103.257
-3.99608
733.74
106.575
3.32015
86.5362
-2.64794
317.965
-531.147
1554.83
791.089
196.935
-457.368
704.508
422.094
-330.017
722.701
353.663
-347.717
138.39
215.424
3.72645
154.15
155.255
159.486
-26.6791
141.311
26.2925
-2.53378
-8.5514
-37.6992
37.5567
8.18892
0.505
-9.05998
-40.9258
41.5242
8.18921
0.272404
-5.33316
-44.6534
45.2071
5.23945
-0.459989
-1.73054
-42.8979
42.0935
2.50329
0.0316211
1.81669
-40.5919
40.3482
-1.38367
-0.189377
3.34672
-40.335
40.8425
-3.88682
0.032509
1.1487
-43.1683
44.039
-1.81505
-0.204346
-0.333272
-45.9552
46.5266
0.0749956
-0.313121
-47.2153
-7.25538
188.005
7.27679
-1.07511
-47.5176
-45.8233
-46.3948
742.205
47.2621
4.4192
-185.352
-189.248
-176.505
-182.711
744.66
79.7209
4.97329
749.65
100.938
-2.67149
756.224
106.678
-6.67677
90.0662
-12.2268
1912.6
257.121
476.89
2223.12
187.912
-301.502
1710.89
644.77
289.561
1451.64
446.047
166.861
225.266
398.425
274.912
231.351
269.072
268.039
-7.79324
189.298
31.6499
12.1117
-1.96947
-47.6987
47.4266
2.94492
-0.703339
-5.07373
-51.9996
54.3523
4.77473
-2.05371
-10.032
-58.3235
57.4517
11.1316
-0.227845
-7.48562
-53.1759
52.6158
7.39902
0.646653
1.04274
-56.8
59.1306
-4.07079
0.697397
4.43848
-61.4492
59.862
-4.80061
1.94932
4.4152
-50.0637
48.2817
-4.05357
1.42031
1.44994
-46.3951
46.3482
-2.22398
0.820923
-46.9216
-4.14179
191.432
-1.50778
1.50582
-46.938
-46.7118
-46.7163
786.505
6.61977
10.8349
-193.034
-190.091
-188.208
-185.364
811.317
40.7319
14.1761
837.607
71.5927
3.05518
851.71
97.8074
-5.23175
91.1833
-9.64372
1225.2
1140.74
-2800.73
1212.43
-181.774
382.455
1209.06
288.875
359.261
1303.28
251.447
100.38
256.232
383.431
221.764
274.559
276.904
288.818
-48.4658
252.795
35.2645
16.6379
-3.30215
-65.4539
66.1327
2.63489
-0.01148
-3.03291
-68.4766
69.256
1.81855
0.43494
-3.58692
-71.803
73.9355
0.498927
0.955498
3.58584
-76.5088
75.7989
-2.49607
-0.379858
8.36364
-69.5886
67.592
-7.02267
0.655684
6.48344
-62.489
62.4655
-5.3341
-1.12582
-1.12306
-62.5485
62.0069
1.30168
0.362934
1.11746
-56.5495
54.5621
-0.0327869
0.902723
-48.7272
5.88571
192.945
-10.0115
5.60385
-49.8584
-47.5478
-48.29
727.274
-7.37812
14.0194
-185.478
-186.627
-179.005
-176.185
753.587
9.2269
5.19168
800.705
29.7021
-5.22756
835.795
69.9075
-7.18987
81.6346
-7.063
787.787
2606.23
-2.94283
829.786
-22.3993
-201.374
1049.29
133.938
-64.5625
1004.65
148.157
147.925
925.565
214.801
247.715
222.296
37.5209
63.3598
-16.3586
16.6492
-45.4387
0.79348
216.711
219.063
210.97
-3.47111
210.96
22.596
4.60628
-3.98577
-4.04006
-4.3696
-6.38917
-187.714
174.321
27.7188
6.34504
-3.75624
-6.61869
-3.90691
-3.482
-172.708
174.135
3.81012
5.81039
-2.32875
-3.26845
-1.96842
-2.69651
-164.897
166.381
-0.307498
5.65665
-1.07113
-2.35009
-0.714841
3.79104
-174.204
182.046
-19.3364
-2.04801
3.73195
2.88378
3.13631
4.22203
-180.044
184.519
-15.2997
-2.30252
3.30027
3.07446
2.53
1.40018
-190.089
198.92
-10.4571
-1.8945
0.983473
0.529843
0.606704
0.17785
-197.869
200.358
-5.14535
1.26617
0.693769
-0.0274996
0.545949
667.319
15.194
6.81273
5.14197
-1.02868
1.982
-3.46907
-189.647
-169.537
-173.081
-159.687
645.443
8.51395
5.98415
640.182
20.8183
-6.33018
660.941
21.7731
-12.8302
700.849
45.7431
-15.7438
65.4902
-11.2413
1423.4
3331.17
-1240.15
1256.27
606.599
-461.865
1149.31
400.676
-159.786
1074.81
226.008
-3.35015
936.579
140.603
212.434
940.232
16.597
17.2702
916.675
172.004
65.7207
-39.8862
-65.4517
-42.0458
-66.7844
908.388
33.2736
11.4986
-23.0346
2.40546
-19.8734
4.01715
838.808
90.1625
31.7114
-5.32493
-17.6168
-7.97838
-21.3731
786.137
2.16516
19.9243
3.63625
15.3392
0.33958
11.266
721.934
20.6948
26.1328
14.4186
0.0869746
5.61654
-2.74638
679.288
-11.526
11.5072
15.3391
11.193
9.03978
7.09235
644.498
16.288
16.1803
8.95361
-3.75124
2.60251
-5.48289
626.267
6.83989
12.2145
4.21293
-2.6822
1.13674
-3.49078
606.038
22.7772
12.646
592.333
19.0639
3.15415
585.077
26.3052
1.7693
587.449
23.9575
-4.55626
605.398
33.3339
-5.53945
48.286
-0.991175
5116.75
977.918
-7326.79
3841
1059.6
822.751
2395.38
770.537
1075.75
1662.45
505.974
452.967
995.948
332.915
474.188
842.308
124.478
45.7592
797.662
148.488
68.1617
746.561
87.824
-3.44878
664.909
123.47
48.3452
591.013
61.877
14.1837
542.812
47.8776
21.0186
526.633
-0.4616
5.11419
529.844
9.06883
4.00811
533.394
2.34201
0.947651
537.644
15.5959
2.93123
542.268
12.7638
1.67654
544.841
19.4134
4.3186
548.959
18.618
1.22174
555.809
25.6607
0.822394
35.1058
5.89971
-202.03
192.772
3136.13
666.916
841.76
-651.107
1183.43
264.934
-10.9087
1427.12
220.54
41.7392
1194.97
222.925
342.147
1046.79
155.787
116.864
886.819
167.898
140.563
852.056
120.237
2.3509
783.102
150.318
42.1055
729.94
104.487
10.5526
647.322
87.8031
42.6923
596.328
33.1288
17.4035
567.204
20.1543
18.0391
557.579
5.41031
6.55647
553.921
13.071
6.18253
553.305
12.045
1.33448
551.944
16.554
4.22028
553.02
16.8649
0.677551
555.984
20.1142
2.58277
25.8226
6.06423
1431.1
523.884
2814.39
1469.3
440.789
362.765
1093.02
169.723
471.492
1032.71
201.235
79.6127
796.916
230.532
228.191
760.231
191.395
1.07773
730.329
179.937
17.8632
753.299
141.033
-43.7658
743.163
142.132
18.3213
734.771
113.671
-0.79321
690.054
100.88
31.6398
640.038
70.3187
12.8261
584.624
50.4813
25.0867
549.576
32.3742
8.08476
535.025
26.6374
0.9838
529.228
20.8926
-3.05023
527.342
18.8531
-0.413383
529.22
17.2894
-2.30194
533.981
15.3243
0.0284726
18.1017
3.68199
-1261.93
420.954
4107.03
-330.417
-113.152
-377.573
394.924
-270.541
-285.078
460.659
48.5564
86.9445
603.024
28.3155
59.8514
667.481
153.29
-26.352
701.543
127.318
18.5576
740.473
146.924
-44.8204
734.258
136.607
11.7401
732.296
125.281
-9.64804
698.993
114.392
19.7908
666.819
98.7069
3.78642
628.363
83.7304
5.20612
604.027
65.549
-8.83874
590.265
49.6558
-9.25644
584.336
39.2148
-12.3929
580.33
30.3084
-7.44981
580.201
26.2687
-8.84976
581.642
19.5511
-5.66816
19.8219
-4.47447
554.709
-1100.16
985.199
470.251
-326.663
297.969
528.284
-235.26
-93.3137
673.064
49.6528
-145.877
644.854
31.7609
24.7645
669.093
139.083
-10.0317
624.168
125.818
46.4247
626.584
152.085
-7.57728
624.514
119.754
18.9227
640.44
119.397
-10.0412
653.919
106.093
-5.1802
662.373
110.659
-20.4069
665.306
103.949
-23.1517
667.123
96.7705
-33.038
666.673
85.2088
-35.103
666.25
76.899
-37.2614
663.987
64.4941
-31.9225
663.624
54.106
-27.4748
661.887
40.1824
-18.8945
35.6243
-16.8254
2969.23
1894.68
1828.63
813.939
1017.3
576.065
1096.28
-29.3293
1026.09
101.957
1106.8
58.3728
1072.51
160.11
1071.77
152.824
1006.36
185.166
959.526
166.227
910.246
155.374
895.804
125.101
898.617
101.136
918.175
77.2129
940.837
62.5469
976.254
41.4818
1013.17
27.5789
1045.58
21.6988
1060.74
25.016
31.6281
2051.85
411.715
-1289.12
1679.06
232.036
305.305
982.747
445.034
-427.887
763.269
171.578
-342.436
666.475
87.1346
-232.571
650.253
46.1522
-195.276
672.274
-13.3616
-61.1038
706.693
-16.9902
-75.2032
754.667
-51.7527
-14.304
801.37
-51.2623
-22.5003
846.998
-62.7707
8.393
891.76
-61.8551
0.374489
932.3
-64.3406
10.8889
979.525
-66.7047
-2.55984
1027.55
-69.202
-1.78538
1078.27
-74.9944
3.20657
1131.3
-79.0532
-10.0456
1193.68
-87.0538
-51.767
1274.2
-96.5318
-62.0297
-64.9255
-4.16134
945.073
560.191
1800.27
471.98
303.891
423.978
588.249
159.779
-38.9291
602.555
100.948
-105.328
669.222
-17.8931
-41.806
689.651
8.25482
-91.6424
727.624
-81.9213
-3.4432
756.146
-55.1677
-26.3787
785.364
-95.7448
27.395
813.78
-79.8753
22.8635
837.2
-90.6458
52.9357
858.647
-79.7884
53.5771
875.421
-80.3498
66.3349
890.548
-75.5802
59.613
908.701
-83.9239
61.3794
937.721
-90.4588
33.1281
965.574
-89.9053
14.1131
983.957
-82.4106
-1.33525
970.387
-60.7066
8.58858
-24.1752
3.87615
709.196
466.162
-300.951
776.689
265.024
-39.5136
845.063
147.559
-307.927
879.68
114.159
-23.0066
888.851
-19.4863
53.1829
908.472
1.95722
45.2211
902.526
-80.8983
82.2431
905.19
-50.856
36.5932
895.57
-87.1529
51.1757
891.435
-72.0801
24.2525
880.51
-84.5119
38.0061
870.709
-71.9154
33.7976
854.669
-68.2405
46.3434
834.936
-56.0453
41.0564
812.01
-63.2665
49.1788
793.1
-70.609
33.6533
776.014
-70.2318
11.6871
759.746
-61.3735
-14.6613
729.906
-28.5613
-15.3075
6.70569
-33.082
658.166
-975.343
-2172.25
734.327
-17.971
-83.5455
837.688
11.5635
-41.8294
932.743
46.0419
101.797
937.889
-19.182
159.541
945.802
16.8015
72.1324
898.045
-31.2073
69.4016
868.964
-8.75442
-8.69657
843.076
-68.746
-2.75651
834.183
-62.9683
-23.2366
829.369
-86.1902
-7.56952
827.666
-75.0127
-2.55662
818.695
-65.6139
13.3621
800.428
-39.1024
27.3376
767.682
-31.5886
50.7803
732.805
-36.7429
41.3594
698.082
-37.338
18.6578
665.755
-26.7559
-3.07712
637.102
1.27269
-5.5224
26.9285
-12.7538
1013.7
514.163
375.902
1293.43
221.577
-742.756
1266.23
116.338
-107.405
1286.05
47.6564
-30.9361
1182.05
39.9369
132.706
1115.21
84.1485
69.0265
1022.39
47.7649
113.041
969.117
48.9072
27.6861
917.596
-16.0182
0.355166
892.338
-38.7291
-43.7172
874.906
-82.7182
-31.2195
864.591
-72.5544
-26.0612
847.018
-57.0165
-3.06635
813.742
-4.90119
5.1364
761.562
17.6253
37.3503
706.721
17.893
34.4908
662.505
4.90841
24.437
633.074
3.79474
11.0137
614.275
20.2662
7.67904
40.0071
-9.87302
133.136
-728.135
1486.71
729.647
-264.742
-524.863
812.906
-164.779
49.4125
985.136
-85.4819
-157.229
1005.92
-2.27486
-56.6692
1043.23
56.5477
-112.374
1045.53
28.9767
12.2345
1036.63
58.9632
-0.83683
1018.31
-3.05931
39.6868
996.734
-20.982
13.5634
974.86
-59.2193
26.1217
949.281
-34.9984
22.0353
911.682
-17.4374
13.6272
873.459
21.8973
6.63956
832.86
56.1128
23.5723
776.747
72.8039
46.8446
715.776
63.1748
61.1811
669.553
49.502
36.5361
641.489
46.197
23.9673
52.1081
-2.70101
780.039
-1592.25
-1204.88
1175.5
-425.078
-667.536
1226.39
-334.032
-115.566
1300.57
-152.618
-166.616
1203.45
30.8198
-35.714
1114.99
141.666
-83.8031
1021.71
33.4943
42.8814
19.1073
33.4872
16.9366
963.42
26.2242
69.7489
27.2442
24.8821
26.1189
911.471
12.2602
119.56
3.89459
10.4621
2.42937
881.8
-1.55795
123.865
1.89482
-0.889279
2.75662
855.517
-5.11198
67.9651
-11.1905
-3.85521
-7.26525
835.741
-2.7924
17.4635
-1.35437
-1.27391
1.16984
821.336
0.626301
-21.5526
-0.299641
1.66512
1.79169
820.352
4.54246
-45.495
5.09114
6.00639
7.18323
828.988
45.8604
-52.6844
827.774
70.7146
-33.8169
804.4
77.4736
-2.42997
763.463
81.1824
37.5647
722.817
83.5
78.1644
72.0552
34.4416
574.861
-697.034
1484.04
723.369
-206.268
-1568.63
735.035
-298.707
-315.79
835.765
-140.933
-408.346
882.12
16.1855
-67.3054
239.174
26.0193
-105.106
225.317
217.971
204.935
55.2376
29.9369
59.5311
-5.64635
232.634
47.745
-2.06445
-17.4559
-223.221
216.531
32.0922
18.2783
-22.1025
-213.96
199.024
22.519
26.7796
-26.2265
-191.51
183.191
4.04665
28.9411
-7.73374
-183.713
179.048
-2.53384
9.82053
5.15449
-178.051
177.026
-2.82653
-4.09534
10.2904
-179.705
179.013
1.22885
-10.201
12.2892
-180.979
181.561
4.85232
-13.1808
689.998
9.73981
-61.4034
-180.921
-170.909
-169.315
-161.072
8.03527
10.0919
8.86623
700.268
53.0475
-39.0482
696.711
70.5773
0.24226
687.697
83.6029
24.7838
677.73
89.9757
38.0244
75.1425
12.9393
708.631
-248.671
301.874
820.834
-136.588
-626.804
799.891
-172.606
-427.951
741.605
-49.2033
-325.244
187.226
84.5574
-63.7834
155.225
176.264
149.538
22.7137
193.58
27.6083
-30.6569
2.80986
-11.016
-53.7161
52.4187
12.9075
-3.40392
-3.62658
-50.7773
-8.69189
49.6923
9.25294
4.15049
-5.81728
-47.415
-6.35707
45.4645
7.45095
6.6739
-6.71463
-42.1306
-2.61567
40.5581
3.97767
6.92511
-1.48518
-40.1556
0.601585
39.4197
0.0815215
1.53799
1.74499
-39.6437
0.852916
39.4456
-0.706541
-1.69325
2.06857
-40.1662
0.154008
40.0289
0.0983746
-2.18359
1.77466
-40.799
-0.549028
40.602
0.961294
-1.98992
-40.9048
7.07507
161.144
10.5092
-7.80959
-40.7448
-39.8312
-39.6977
621.709
53.9135
-17.6432
-160.549
-160.316
-151.401
-151.525
618.849
70.7714
-2.40391
621.467
79.2315
-2.24281
629.927
79.3283
5.50736
66.3503
-4.25643
414.157
-800.314
-1276.61
909.183
-71.5407
-1017.44
591.966
161.356
-346.761
455.9
113.588
-374.442
111.079
115.157
7.96463
112.806
99.2492
97.9284
10.8063
-37.0338
122.935
32.4617
-18.0901
-1.46008
-12.493
-35.1903
36.3973
11.5768
1.16939
-1.97042
-10.5645
-38.736
38.8027
10.0765
2.39178
-0.886453
-6.74998
-37.88
37.6945
6.46859
1.35339
-0.390728
-2.55024
-37.314
37.2249
2.49717
0.532882
0.255235
0.58664
-36.8447
36.8655
-0.603772
-0.258872
0.192901
1.67919
-37.4355
37.9171
-2.12802
-0.225609
0.416719
0.801248
-39.265
39.7384
-1.28246
-0.408945
0.765814
-0.309098
-40.6217
40.9245
0.0505765
-0.810096
-41.1789
1.449
-7.77538
164.458
7.34744
-1.19153
-41.9544
-40.1825
-40.9721
647.714
45.8
10.0914
-162.039
-169.231
-153.818
-160.184
648.893
66.7058
7.85952
652.084
75.8079
-2.4388
654.176
76.137
-5.57796
64.742
-14.8847
999.788
-170.428
-90.3466
1395.68
-184.425
-584.513
1051.67
407.048
387.882
933.424
222.793
175.902
194.113
292.042
300.213
191.799
173.854
171.473
-25.2713
-11.7202
179.236
32.0461
19.8227
-1.74623
-4.57304
-43.5846
43.1208
4.97967
1.80347
2.2312
-6.73495
-43.6812
44.1259
5.74025
-1.68123
-0.857087
-7.43766
-44.8822
44.8624
7.06836
1.24611
-1.20944
-3.21716
-45.4027
45.9438
2.55316
1.33231
-2.43457
0.90023
-47.7853
48.392
-1.7513
2.67901
-4.09465
2.29592
-48.2529
47.3429
-1.54721
4.25595
-3.34316
2.25393
-44.5707
44.0136
-1.86278
3.50915
-1.82059
0.654655
-43.5965
43.7334
-0.842517
1.87159
-43.9877
-2.98408
-5.15625
177.389
1.49418
3.60076
-43.9487
-43.2511
-43.1556
705.608
24.4234
13.1169
-176.652
-174.414
-168.656
-166.79
716.315
55.1108
15.0641
725.693
67.2845
2.20014
722.027
77.5652
-2.99344
69.5709
-12.4117
-210.481
863.787
-2875.82
200.036
-339.22
126.734
714.305
211.999
40.0388
763.192
179.11
95.1767
183.367
310.643
259.568
196.128
157.084
170.21
-13.8015
-55.6624
199.55
51.4391
1.84215
-2.32447
-5.73323
-53.9419
54.3885
5.97412
1.63699
-1.51776
-4.66915
-53.7833
54.0566
4.16874
1.7448
-2.7016
-3.342
-55.4499
56.412
1.95513
3.12627
-2.41008
1.3821
-56.0186
55.3736
-1.35268
3.02572
-1.20694
2.89502
-52.7629
52.2383
-2.3294
1.16596
1.04341
0.106391
-50.0951
49.6329
-0.00216635
-0.685432
-1.71894
-0.933818
-47.5433
46.9876
1.21434
1.9941
-2.306
0.357733
-44.4473
44.0125
-0.0346296
2.41772
-42.4058
-8.02701
0.503128
170.449
-3.40107
7.66849
-42.3524
-41.2544
-41.1801
649.456
12.2434
11.7659
-166.076
-159.849
-157.93
-151.167
671.549
32.8497
5.35976
694.43
44.7651
-5.58867
701.626
69.1488
-5.9701
68.7501
-9.2767
1158.87
1051.12
1774.73
602.67
331.894
-316.292
598.953
353.596
-202.443
585.3
198.423
142.264
672.169
211.947
259.542
163.131
-21.8078
111.92
-18.0536
26.1615
-9.093
36.9886
157.716
146.25
142.316
-3.90905
-21.8455
156.336
17.8794
25.9243
-4.26306
-3.20526
-3.78595
-6.20803
-17.165
-133.336
130.731
18.1122
21.4109
-3.72243
-6.10082
-3.72169
-3.00519
-9.60662
-140.321
144.914
3.78199
10.8306
-1.68024
-3.13088
-1.78335
-2.035
-7.19472
-137.51
139.914
2.39539
7.19096
-0.330781
-2.09327
-0.336595
-0.116199
2.8645
-146.128
150.667
-5.14187
-3.30331
0.922356
-0.353769
0.590159
-0.35988
2.82953
-147.527
151.117
-3.12158
-2.9367
0.424826
-0.595423
0.169792
-0.868872
1.80152
-153.919
158.146
-2.28293
-1.44086
-0.269001
-0.868778
-0.298638
-0.626412
-1.83059
-154.408
157.317
-1.65672
1.77097
0.0980328
-0.715813
0.0516244
557.747
20.1006
6.07496
-0.3035
-5.4081
-1.86419
-6.25883
-151.989
-139.719
-140.649
-130.918
558.023
14.0955
3.85551
563.663
27.1791
-6.29911
582.001
28.1274
-14.5304
600.098
50.2387
-14.9304
56.5026
-10.5031
1619.69
2244.9
-101.891
990.781
991.503
-492.565
674.097
753.585
-243.091
621.177
276.929
-28.9367
644.256
184.709
216.593
614.702
24.0482
0.968162
604.081
209.032
87.2059
-39.6481
-68.754
-41.8828
-69.6108
583.002
0.569869
20.5237
-9.1699
12.148
-5.80406
14.3094
551.166
82.3505
47.1763
-8.23679
-22.7034
-10.2335
-24.8056
535.491
-14.4448
25.4133
1.51528
11.9376
0.565405
10.6125
519.467
25.4271
32.3735
0.719201
-6.43723
-0.988228
-8.93795
511.35
-8.58893
16.3124
3.58233
4.1403
1.59082
2.58732
504.697
22.1763
21.1688
-1.16052
-7.67503
-2.8859
-8.78977
506.302
6.43592
15.002
-0.353603
-4.55689
-1.22201
-4.69658
501.93
22.6454
14.473
499.699
16.8632
2.61767
501.754
24.3725
2.52118
509.595
21.0094
-5.27945
525.951
32.8789
-4.53542
40.3965
2.63619
507.335
820.585
-6833.34
498.957
673.216
1149.42
938.585
847.414
542.297
712.762
509.695
446.024
609.833
341.143
420.683
517.168
115.113
47.3595
546.349
172.931
75.0813
488.741
62.6147
-7.88623
461.219
99.5219
58.6962
426.084
20.0126
14.8615
419.77
27.559
25.2002
419.536
-7.59612
4.35541
433.048
8.41644
4.25581
439.061
0.554477
0.816175
446.335
13.2015
5.10034
453.967
8.62024
2.28782
461.452
15.1154
6.09085
468.815
13.0416
1.82637
479.613
20.63
2.27289
26.5321
12.9039
-768.21
-242.051
2086.47
-505.713
155.617
-396.005
346.269
186.617
-202.093
445.128
225.834
226.741
589.466
197.424
341.529
569.175
127.193
125.075
574.431
159.49
148.748
560.571
82.5474
-3.72233
536.341
110.927
54.9302
512.301
45.4887
9.11661
488.428
47.3964
46.7283
474.503
8.21502
15.5164
467.242
12.6973
21.0195
465.621
2.25824
6.47344
466.542
10.0212
8.44195
467.787
7.66666
1.0431
469.302
11.362
6.45843
471.332
10.2211
1.46872
477.258
12.8471
4.43951
17.0527
13.0638
461.644
-211.886
-1166.23
220.142
31.9533
727.931
607.246
79.1556
191.849
552.784
188.204
171.706
534.048
204.949
239.401
497.458
161.684
3.17672
505.164
149.618
20.0287
502.185
92.7356
-50.9754
510.925
92.6105
27.8987
506.44
55.4637
-6.28332
496.694
51.7684
37.0136
480.409
29.8979
7.42841
470.551
25.9062
21.7353
461.412
15.8517
3.63103
457.585
14.0405
0.791368
456.834
10.3497
-4.98221
458.168
9.39235
0.22165
460.525
8.32325
-2.7609
466.185
6.44731
0.768369
8.7047
10.041
-1387.3
-535.714
4711.32
-389.935
-389.554
-953.433
102.993
-287.068
-411.782
164.487
84.4321
129.223
376.021
38.8571
14.4101
407.505
133.567
-29.7191
481.795
85.9675
7.91845
503.459
84.9569
-58.7057
524.224
68.2178
15.3679
536.446
55.3704
-21.7768
539.963
49.176
18.8666
537.922
40.7691
-5.04389
532.967
34.5809
1.48641
528.304
26.7004
-15.0243
524.895
19.7962
-11.6036
522.825
16.4941
-16.4667
520.707
12.3445
-8.28399
519.94
11.1656
-10.9248
521.43
6.29297
-7.0047
6.32362
-2.95321
976.602
-1206.21
-1603.78
740.864
-310.934
455.088
561.529
-177.025
-24.023
553.346
76.6592
-129.921
489.573
65.5435
61.8508
502.325
144.772
-33.9881
494.898
104.473
35.3458
505.436
110.827
-43.9852
532.07
67.8179
-7.31196
562.205
62.7298
-47.5358
595.109
45.9106
-34.819
618.74
48.9003
-52.1692
635.223
43.3108
-48.3644
644.644
43.0985
-58.8567
647.728
36.9069
-55.2977
648.088
35.3461
-56.4738
644.92
28.6711
-45.0811
643.867
25.4585
-40.7152
641.248
18.3076
-28.2897
15.1451
-25.9168
1212.32
2193.73
740.545
974.779
631.255
508.331
769.087
-90.502
797.146
139.441
914.22
86.0702
938.381
240.423
983.09
218.942
967.834
268.24
964.212
232.579
951.021
214.476
958.244
166.778
968.222
134.47
990.882
97.6507
1012.22
78.1121
1038.79
50.2577
1059.08
35.9687
1073.59
32.647
1080.01
36.9031
43.7329
1878.8
421.815
-2052.64
1998.64
352.209
-166.74
1150.46
603.285
-182.996
749.792
153.821
-95.5856
566.096
-6.96395
-41.9112
524.638
-36.1525
-117.666
561.91
-84.4964
-13.8792
591.889
-58.407
-46.7751
645.606
-77.2224
9.20223
689.381
-60.4013
-5.87433
737.4
-64.8303
25.2041
779.871
-57.0393
14.9425
820.563
-57.8759
28.0735
864.452
-57.2578
10.8092
908.948
-59.9522
13.6703
955.498
-58.4868
15.1433
999.958
-58.226
3.7205
1029.62
-58.6908
-22.7417
1050.11
-64.2658
-18.251
-38.3141
22.5507
732.426
535.142
-370.012
155.843
260.213
1092.56
520.761
94.8716
104.566
484.718
12.7823
71.7543
547.266
-139.797
28.4797
547.927
-74.9778
-53.4789
583.15
-134.741
11.578
596.06
-75.7677
-21.9284
622.995
-101.587
24.8252
642.52
-67.9282
10.8653
665.366
-73.165
38.4245
685.032
-56.382
33.2539
704.727
-56.9581
45.7218
722.949
-53.6069
37.7407
744.562
-60.1004
39.9152
767.265
-63.5322
15.4699
780.394
-60.2389
2.99719
781.601
-52.1965
-9.03714
758.892
-33.5131
0.545347
-3.27429
-9.03529
1000.32
245.743
-2016.77
1041.2
306.91
-127.091
853.661
150.525
-176.04
802.324
57.3905
-16.2781
743.356
-82.6052
54.9583
726.688
-29.6145
16.5258
710.085
-101.373
65.4786
700.83
-48.6693
18.7501
691.186
-80.6988
39.9321
683.562
-49.2306
13.1784
676.171
-58.2512
30.484
669.598
-38.0382
22.0259
662.261
-37.4375
34.1604
653.019
-30.2196
26.9112
647.998
-38.931
33.0302
643.049
-44.3876
19.4574
631.848
-43.4976
6.14664
613.15
-35.6157
-12.5441
585.398
-11.1851
-9.8835
10.7945
-29.7365
311.302
-320.639
-2070.7
743.99
91.5589
-300.884
769.748
106.232
-23.295
831.965
64.509
32.4622
774.119
9.58486
125.196
754.614
29.1466
32.8758
702.38
-34.2729
54.5356
671.809
-9.29169
-17.5029
650.167
-66.1141
4.30034
637.695
-40.0011
-19.9942
633.212
-61.2577
-0.0799663
628.03
-33.4936
-1.91901
619.83
-26.1051
10.2297
607.776
-6.44757
15.6196
596.956
-9.09028
31.7597
583.983
-15.2297
25.1753
564.322
-19.1909
14.0113
540.244
-11.5579
-3.05704
520.633
7.40927
-4.50575
23.329
-16.3737
952.907
408.022
-2327.18
941.32
71.173
-710.783
931.959
93.4734
-85.2847
941.403
58.2089
-34.0809
872.261
83.0556
128.378
819.652
114.167
36.6152
767.286
40.9403
90.1923
736.723
33.4004
15.5573
702.8
-34.65
2.81424
684.257
-37.6835
-27.4917
667.982
-62.6159
-13.5866
653.76
-30.9656
-14.368
635.034
-12.4081
1.96267
607.889
16.776
9.05865
579.792
25.8811
30.4754
554.118
21.5593
23.3756
531.968
10.5545
16.8418
514.925
10.1594
6.33943
505.638
20.6888
3.68702
31.3348
-13.3381
-46.4501
-403.507
1801.14
615.471
-382.066
-733.546
721.82
-99.3566
135.894
789.188
-16.4652
-149.924
751.887
46.294
17.3936
738.452
100.56
-85.3315
741.135
27.3921
23.0997
731.116
46.0961
-3.51387
729.751
-22.5027
28.9052
721.921
-24.3252
8.03486
709.987
-40.3375
15.7774
698.247
-8.78374
11.5938
674.759
7.47942
17.2273
642.595
42.9061
12.6733
612.393
60.0809
19.5751
582.022
66.113
32.6617
556.887
54.534
42.3369
537.135
42.4926
23.9546
526.315
39.0534
16.4229
40.1449
-8.35772
442.044
-1236.92
-1545.03
873.683
-302.74
-1178.5
999.64
-167.625
-173.255
1018.9
-27.3399
-174.997
901.3
125.762
2.41475
789.551
194.578
-66.0716
721.153
34.1086
49.6124
14.1547
30.7171
10.0788
688.041
22.9945
56.577
24.6435
21.2769
23.4647
678.972
7.24947
92.6695
0.751874
5.65466
-0.199085
683.617
0.28385
84.3713
4.14561
1.02139
5.07205
675.368
-2.52827
45.682
-3.41701
-1.67531
-2.18389
662.917
1.01893
9.56219
3.87125
2.24722
4.43094
646.447
3.95936
-14.9498
4.09725
4.94853
4.34166
629.691
8.73115
-24.3868
9.53714
9.70699
10.5777
615.612
55.246
-33.7696
598.772
70.0819
-20.9456
577.737
68.589
4.54957
563.192
66.522
28.0803
561.754
65.4491
53.2069
55.099
16.0953
602.867
-1418.48
2873.61
643.349
-371.931
-1539.92
627.531
-295.371
-172.226
623.289
-82.0138
-349.43
637.602
54.6015
-10.4583
163.895
41.2035
-89.5999
152.916
145.032
134.544
67.9596
42.8925
68.2307
-2.91735
155.052
48.1061
-2.23778
-19.3796
-148.167
147.188
25.7109
17.6414
-27.5442
-152.487
146.236
16.6897
24.3554
-27.1978
-148.71
147.685
4.94515
23.5616
-9.58818
-152.904
149.922
1.94944
8.09192
3.97468
-150.775
148.982
2.41323
-3.57602
10.4991
-151.377
148.701
5.79966
-9.66267
13.6038
-149.909
147.925
9.11898
-12.0078
534.995
11.2132
-35.7791
-145.505
-139.842
-132.811
-128.511
9.34719
11.2383
9.49683
535.574
51.3923
-20.9371
535.492
62.3791
6.53379
539.399
68.7701
18.6284
545.014
70.5202
27.339
58.9078
2.82552
986.903
-549.306
817.451
966.058
-467.202
-510.689
732.581
-338.727
-151.119
611.148
-87.3157
-198.509
150.544
96.2253
-30.9252
128.887
138.597
118.638
32.2609
149.171
42.333
-32.0171
2.08284
-11.7565
-40.2541
38.0764
14.3339
-2.48255
-5.31201
-35.3338
-6.84662
34.4059
7.85521
5.23132
-7.50322
-34.7445
-4.71128
33.9709
5.81105
7.17698
-6.13935
-34.1295
-1.81562
33.5462
2.92536
5.61293
-1.17045
-34.5389
-0.0493583
33.9732
0.747792
1.03773
1.68678
-34.3895
0.21321
33.9519
0.183642
-1.64604
2.42295
-34.5288
-0.373671
34.1355
0.715485
-2.37145
2.37402
-34.6284
-1.04078
34.2202
1.41888
-2.34383
-34.0812
8.48052
133.143
11.351
-7.70933
-34.1746
-32.8356
-32.9602
506.019
46.2561
-7.46151
-132.073
-133.827
-121.79
-123.374
506.128
57.3779
2.48741
511.242
61.7113
-0.297497
521.834
60.5359
4.89958
52.0753
-6.14853
612.069
-1208.08
-2465.37
994.356
-232.666
-1634.26
548.89
23.1007
-263.122
317.785
28.2342
-258.888
75.3697
107.825
48.8588
71.1326
62.5441
56.2445
16.3588
-43.5404
87.629
31.8341
-16.9118
-1.81793
-14.3923
-27.5675
29.1496
12.9765
1.65167
-3.01977
-9.32734
-31.4705
31.633
9.14932
3.03532
-2.14701
-5.75649
-31.4822
31.6314
5.55814
2.19618
-0.841833
-2.42406
-32.1155
32.2621
2.32533
0.793973
-32.3412
0.292482
-0.024781
32.497
-0.138618
-0.284833
-33.1597
0.276209
0.699869
-0.931257
-0.323845
33.4387
0.5446
0.322432
-34.1456