/*--------------------------------*- C++ -*----------------------------------*\
  =========                 |
  \\      /  F ield         | OpenFOAM: The Open Source CFD Toolbox
   \\    /   O peration     | Website:  https://openfoam.org
    \\  /    A nd           | Version:  10
     \\/     M anipulation  |
\*---------------------------------------------------------------------------*/
FoamFile
{
    format      ascii;
    class       volScalarField;
    location    "7.4";
    object      turbidity_0;
}
// * * * * * * * * * * * * * * * * * * * * * * * * * * * * * * * * * * * * * //

dimensions      [0 0 0 0 0 0 0];

internalField   nonuniform List<scalar> 
12920
(
-0.00696408
-0.0288054
-0.035512
-0.0487195
-0.0673317
-0.0876893
-0.11748
-0.14428
-0.171458
-0.190421
-0.205436
-0.213448
-0.218506
-0.220811
-0.222754
-0.224643
-0.225648
-0.226641
-0.233471
-0.245699
-0.0141699
-0.0454549
-0.0501699
-0.0605691
-0.0769685
-0.095081
-0.122557
-0.152016
-0.181671
-0.207014
-0.22832
-0.247897
-0.267206
-0.287264
-0.308141
-0.329361
-0.349383
-0.366497
-0.379754
-0.390981
-0.0399298
-0.0585291
-0.0676884
-0.0798641
-0.0961556
-0.114746
-0.136205
-0.157285
-0.1752
-0.191502
-0.207526
-0.225832
-0.248114
-0.276015
-0.30931
-0.346229
-0.382371
-0.410554
-0.43445
-0.456495
-0.034945
-0.0520207
-0.0701767
-0.0868057
-0.101942
-0.117853
-0.131796
-0.143144
-0.153866
-0.165947
-0.181744
-0.201003
-0.224
-0.252593
-0.289413
-0.335207
-0.386649
-0.438779
-0.491862
-0.543304
-0.00871928
-0.0239893
-0.0394994
-0.0563556
-0.0720123
-0.090167
-0.109178
-0.126321
-0.138316
-0.14754
-0.161549
-0.180121
-0.203857
-0.232433
-0.268716
-0.316298
-0.374327
-0.438155
-0.502274
-0.560527
-0.0262045
-0.0398057
-0.0448176
-0.0520486
-0.062269
-0.0752967
-0.0919919
-0.10923
-0.126552
-0.144295
-0.162727
-0.181356
-0.200574
-0.22232
-0.24913
-0.284698
-0.334081
-0.39692
-0.464012
-0.52419
-0.0253408
-0.0317858
-0.0419661
-0.0532672
-0.0672458
-0.0842764
-0.107346
-0.13199
-0.158016
-0.18052
-0.194502
-0.200752
-0.199466
-0.198161
-0.206765
-0.225673
-0.253156
-0.291617
-0.350362
-0.42525
-0.0134945
-0.0219994
-0.0368794
-0.0518086
-0.0704165
-0.0907457
-0.0969061
-0.11176
-0.127473
-0.136843
-0.136495
-0.126064
-0.114803
-0.109037
-0.124908
-0.172591
-0.227653
-0.286442
-0.348079
-0.40638
-0.0165099
-0.0275931
-0.0400184
-0.0680715
-0.114138
-0.119635
-0.112159
-0.111878
-0.120986
-0.1274
-0.11923
-0.108287
-0.0986559
-0.0944757
-0.101877
-0.153419
-0.212614
-0.267197
-0.311646
-0.343227
-0.0210922
-0.0314114
-0.0460195
-0.0716919
-0.108536
-0.112702
-0.115476
-0.115647
-0.111357
-0.113729
-0.114192
-0.111251
-0.105407
-0.095225
-0.0956626
-0.136163
-0.180074
-0.219481
-0.248803
-0.268245
-0.0152717
-0.0293501
-0.0458447
-0.0709049
-0.0983047
-0.102728
-0.104942
-0.0988872
-0.0952821
-0.102609
-0.10105
-0.0972679
-0.102405
-0.111594
-0.118571
-0.152563
-0.17972
-0.20564
-0.227216
-0.244912
-0.0250384
-0.0395784
-0.053178
-0.0681119
-0.0833723
-0.0832068
-0.0823638
-0.0822956
-0.0813058
-0.0798955
-0.0903517
-0.100604
-0.0968575
-0.0989013
-0.127194
-0.183741
-0.21339
-0.234779
-0.251384
-0.266816
-0.0297756
-0.0475879
-0.0644255
-0.083672
-0.0988174
-0.121179
-0.118063
-0.117472
-0.125974
-0.140594
-0.161293
-0.169037
-0.170232
-0.168412
-0.229222
-0.263862
-0.286751
-0.30013
-0.308465
-0.318468
-0.0359257
-0.0376947
-0.0524124
-0.0766045
-0.0996852
-0.11974
-0.135532
-0.155078
-0.180467
-0.221124
-0.268578
-0.321016
-0.366454
-0.410053
-0.448068
-0.48081
-0.49638
-0.49792
-0.486391
-0.473868
-0.0313596
-0.0339411
-0.0416673
-0.060436
-0.0875474
-0.114348
-0.137799
-0.165938
-0.206939
-0.268848
-0.337633
-0.400852
-0.450968
-0.49476
-0.532302
-0.566716
-0.594678
-0.615042
-0.623701
-0.623027
-0.0242605
-0.0299996
-0.0404392
-0.0529441
-0.0704854
-0.0965411
-0.126002
-0.155685
-0.192002
-0.241505
-0.308713
-0.386014
-0.458086
-0.516737
-0.562932
-0.601584
-0.635398
-0.66507
-0.690006
-0.709342
-0.00950679
-0.0334313
-0.055017
-0.0780517
-0.0963686
-0.113959
-0.134946
-0.159251
-0.192854
-0.232527
-0.282457
-0.34472
-0.4195
-0.494555
-0.559569
-0.61232
-0.657204
-0.694827
-0.727942
-0.756794
-0.0468492
-0.0485614
-0.0577714
-0.0890316
-0.111266
-0.127343
-0.148307
-0.169964
-0.201879
-0.239691
-0.285504
-0.337178
-0.390755
-0.43947
-0.488844
-0.537006
-0.584198
-0.626132
-0.662169
-0.692428
-0.0148787
-0.0401207
-0.0606306
-0.0911021
-0.123862
-0.151274
-0.177608
-0.205905
-0.237206
-0.269489
-0.304096
-0.334641
-0.362927
-0.387582
-0.41391
-0.443978
-0.479273
-0.515731
-0.547574
-0.570579
-0.0144046
-0.0491081
-0.0675554
-0.0791106
-0.0967894
-0.118695
-0.140098
-0.164341
-0.19255
-0.227908
-0.267396
-0.30624
-0.3403
-0.369255
-0.394432
-0.417302
-0.438329
-0.457923
-0.476586
-0.495751
-0.00783103
-0.00713988
-0.00395678
-0.0032558
-0.00568237
-0.00877974
-0.0157098
-0.020983
-0.0266552
-0.0306071
-0.0347075
-0.0379071
-0.0407615
-0.0431895
-0.0457745
-0.0492309
-0.0541801
-0.0617502
-0.072955
-0.0869598
-0.00555226
-0.00776414
-0.00710748
-0.00863179
-0.0160276
-0.0219308
-0.0328108
-0.0427694
-0.0561338
-0.0693337
-0.0834793
-0.0957914
-0.105803
-0.110896
-0.111808
-0.107813
-0.105147
-0.110416
-0.127961
-0.149213
-0.0134813
-0.0161967
-0.0182318
-0.0261474
-0.0358166
-0.0430386
-0.048363
-0.0505386
-0.0529425
-0.0577365
-0.0677612
-0.0813241
-0.0959798
-0.10618
-0.109985
-0.104121
-0.0929411
-0.0866935
-0.0896948
-0.0961346
-0.00998654
-0.0147045
-0.0191052
-0.0299746
-0.0349407
-0.0313804
-0.0240647
-0.0180044
-0.0185321
-0.0234624
-0.0320247
-0.0448894
-0.0630095
-0.0814516
-0.0932766
-0.0923372
-0.0831932
-0.0787306
-0.0839844
-0.0901751
-0.00336273
-0.00516226
-0.00913015
-0.0148394
-0.0226675
-0.0271066
-0.0269738
-0.0208607
-0.0180623
-0.0194719
-0.0237808
-0.0301035
-0.0412666
-0.0578902
-0.0755641
-0.0836229
-0.0830745
-0.0791573
-0.076861
-0.0771577
-0.0116291
-0.00955399
-0.0061166
-0.00641531
-0.0101011
-0.0151064
-0.0209249
-0.024152
-0.0286313
-0.0314987
-0.0366857
-0.0398703
-0.0411011
-0.0487189
-0.0678939
-0.0906451
-0.104642
-0.101523
-0.0891546
-0.0787415
-0.00164701
-0.00267705
-0.00354608
-0.00593539
-0.0111181
-0.0190243
-0.0330356
-0.0490994
-0.0631658
-0.0669786
-0.0546839
-0.0385713
-0.029572
-0.0311415
-0.0408986
-0.0577003
-0.0818203
-0.111253
-0.130063
-0.123926
-0.00220585
-0.00218843
-0.00443489
-0.00833548
-0.0158915
-0.0249042
-0.0330177
-0.0534756
-0.0710962
-0.0710787
-0.0444028
-0.0237162
-0.0187276
-0.0216872
-0.0340043
-0.0483477
-0.0657486
-0.082683
-0.0909316
-0.0893975
-0.00628509
-0.0040968
-0.00518131
-0.0113345
-0.0304037
-0.0371192
-0.0397627
-0.0571958
-0.0789144
-0.0798455
-0.0394733
-0.0198412
-0.0156949
-0.0181652
-0.0274672
-0.0374806
-0.0452744
-0.0498875
-0.0508324
-0.0507883
-0.00511402
-0.00542929
-0.00940653
-0.0137011
-0.0305076
-0.0376411
-0.0506745
-0.0673607
-0.0682686
-0.0567571
-0.0570196
-0.0571628
-0.0427879
-0.027655
-0.0263986
-0.0372582
-0.0391929
-0.0389956
-0.0377503
-0.0372595
-0.00600266
-0.0149728
-0.025702
-0.033111
-0.0493623
-0.0535057
-0.0532268
-0.0427154
-0.053879
-0.0718466
-0.0811171
-0.0925985
-0.104783
-0.111626
-0.097595
-0.080668
-0.0736582
-0.065757
-0.0589458
-0.0543194
-0.00754816
-0.0153023
-0.0218674
-0.0217566
-0.0324788
-0.0380852
-0.0447995
-0.0575128
-0.0676358
-0.0684956
-0.0574361
-0.0538982
-0.0789352
-0.10054
-0.100167
-0.0771023
-0.0770917
-0.0761709
-0.0744047
-0.07204
-0.0028529
-0.00865125
-0.0177873
-0.025452
-0.0406381
-0.0422947
-0.0489512
-0.0572571
-0.0546054
-0.0447349
-0.0371174
-0.0423828
-0.0534122
-0.0655878
-0.0587616
-0.0579536
-0.0593688
-0.061718
-0.063645
-0.0642523
-0.00131369
-0.00430061
-0.0148518
-0.0243691
-0.0351979
-0.0277148
-0.0331646
-0.0348749
-0.0417057
-0.0492673
-0.05634
-0.0647122
-0.0732738
-0.0785377
-0.0779748
-0.0724443
-0.0688248
-0.0678081
-0.0679391
-0.0688391
-0.00401433
-0.0114444
-0.025495
-0.026105
-0.0310142
-0.0192961
-0.0289386
-0.0364155
-0.0522389
-0.0571513
-0.0589297
-0.058145
-0.0596531
-0.0599884
-0.0612878
-0.06331
-0.0678205
-0.072834
-0.0780954
-0.0862185
-0.0147802
-0.0129719
-0.0211862
-0.0262402
-0.0382032
-0.0351472
-0.0355573
-0.0395083
-0.0599867
-0.0771009
-0.090801
-0.0860645
-0.0756387
-0.0626712
-0.0550539
-0.0511127
-0.0527301
-0.0566621
-0.0640353
-0.0755895
-0.00454353
-0.013684
-0.0298596
-0.0266109
-0.0272237
-0.0182384
-0.0244445
-0.0349286
-0.0545804
-0.0683663
-0.0860501
-0.0902469
-0.0835813
-0.0652199
-0.0518164
-0.0461457
-0.0449702
-0.0458463
-0.0484246
-0.0544261
-0.0460427
-0.011119
-0.00876521
-0.0141737
-0.0151169
-0.0153539
-0.0233454
-0.032063
-0.0456934
-0.0531879
-0.060244
-0.05476
-0.0476004
-0.0420726
-0.0396214
-0.0386666
-0.0383818
-0.0381055
-0.0378016
-0.03809
-0.018538
-0.0199518
-0.014245
-0.0146605
-0.0231363
-0.0315413
-0.0465669
-0.0520594
-0.0600196
-0.0598329
-0.0577271
-0.0541426
-0.0510165
-0.048676
-0.0471211
-0.0457049
-0.0441624
-0.0422684
-0.0402575
-0.0384213
-0.00931132
-0.0175549
-0.0162877
-0.0139368
-0.0247464
-0.0383415
-0.0587744
-0.079285
-0.102961
-0.125233
-0.14471
-0.157311
-0.164378
-0.166134
-0.164991
-0.16056
-0.156731
-0.157225
-0.164455
-0.176539
-0.000801999
-0.00165748
-0.00173167
-0.00277368
-0.0058641
-0.00818532
-0.0118999
-0.0138643
-0.0162405
-0.0176137
-0.0191812
-0.0203461
-0.022013
-0.0241494
-0.0274402
-0.0322985
-0.0393078
-0.0490063
-0.0620726
-0.0784554
-0.0138955
-0.00499453
-0.00396471
-0.00651407
-0.011059
-0.0147205
-0.0197686
-0.0240747
-0.0298225
-0.0344148
-0.0391382
-0.0418828
-0.0436001
-0.0430478
-0.0421785
-0.0411624
-0.043628
-0.050779
-0.0636554
-0.0735668
-0.00908798
-0.00805513
-0.00787022
-0.00975635
-0.0133519
-0.0168464
-0.0202359
-0.0233659
-0.0278262
-0.0332245
-0.0391978
-0.0438346
-0.0464691
-0.0455548
-0.0426754
-0.0383764
-0.0356179
-0.0358737
-0.0382266
-0.0400131
-0.00205825
-0.00672533
-0.0093083
-0.0120788
-0.0122125
-0.0107946
-0.0109876
-0.0134716
-0.0172054
-0.0215662
-0.0258628
-0.0299298
-0.0336327
-0.0356739
-0.0356547
-0.0331536
-0.0309647
-0.0311497
-0.0329621
-0.0341425
-0.000661712
-0.0023741
-0.00432453
-0.00627176
-0.00907853
-0.0101025
-0.0104056
-0.0104461
-0.0115832
-0.0134731
-0.0159997
-0.0189533
-0.0226406
-0.0262562
-0.0294575
-0.030347
-0.0303743
-0.0309518
-0.0323906
-0.0340405
-0.00746994
-0.00298106
-0.00264191
-0.00358598
-0.00583988
-0.00795696
-0.0101679
-0.0110509
-0.0122431
-0.0128172
-0.0141807
-0.0158475
-0.0185686
-0.0232374
-0.0299168
-0.0360386
-0.0385741
-0.0378392
-0.0380889
-0.0409255
-0.00169343
-0.00158509
-0.00266782
-0.00485033
-0.00865281
-0.0126073
-0.0185301
-0.0230971
-0.0253176
-0.0227222
-0.0172852
-0.0147918
-0.0162931
-0.0205647
-0.0268299
-0.0349551
-0.0445717
-0.0530789
-0.0558047
-0.0536793
-0.00121733
-0.00167717
-0.00357635
-0.00678159
-0.0118866
-0.016298
-0.0198063
-0.0272575
-0.028791
-0.0210549
-0.0123594
-0.0102957
-0.0124073
-0.0164053
-0.0215571
-0.0266627
-0.032067
-0.0367749
-0.0399705
-0.0429332
-0.00359214
-0.00481545
-0.00568261
-0.00886414
-0.017065
-0.0196133
-0.0210887
-0.0291098
-0.0301032
-0.0199437
-0.0111283
-0.00903872
-0.00972715
-0.012047
-0.015926
-0.0180982
-0.0206581
-0.0235897
-0.027068
-0.0313823
-0.00460125
-0.00713327
-0.00863475
-0.00925571
-0.0157563
-0.0185924
-0.0227834
-0.0257863
-0.0241649
-0.0248477
-0.0269662
-0.0256027
-0.0203923
-0.0161614
-0.0163618
-0.0177339
-0.0179516
-0.0190757
-0.0212642
-0.0244589
-0.00597526
-0.0163323
-0.021267
-0.021295
-0.0313012
-0.0294831
-0.0259056
-0.0217183
-0.0272613
-0.0321935
-0.0389446
-0.0465003
-0.0517206
-0.0517911
-0.0449688
-0.0378521
-0.0353269
-0.0338288
-0.0334631
-0.0335341
-0.00542672
-0.0105157
-0.0160201
-0.0160291
-0.0242169
-0.0257393
-0.0281521
-0.0326173
-0.034613
-0.0288015
-0.0260165
-0.0339009
-0.0419065
-0.0464172
-0.0438234
-0.0403942
-0.0423614
-0.0431393
-0.0424634
-0.0404468
-0.0035973
-0.00649492
-0.0111142
-0.0148866
-0.0244207
-0.0213031
-0.0238699
-0.0233373
-0.0196985
-0.0183949
-0.0194626
-0.0220316
-0.0246487
-0.0269403
-0.0271879
-0.0295645
-0.0318312
-0.0331125
-0.0334601
-0.0328847
-0.00179576
-0.00248149
-0.0055613
-0.00860831
-0.0146374
-0.0118885
-0.0151966
-0.0160831
-0.0181816
-0.0201825
-0.0222246
-0.0245097
-0.0264591
-0.0276672
-0.0283024
-0.0288238
-0.0298852
-0.0310103
-0.0320486
-0.0330729
-0.00299183
-0.00491763
-0.00971689
-0.00873683
-0.0110016
-0.00973009
-0.0146249
-0.0174116
-0.0206376
-0.0208512
-0.0207659
-0.0206062
-0.0214716
-0.022354
-0.0240596
-0.026083
-0.0285732
-0.031066
-0.0335677
-0.036457
-0.0268924
-0.00848983
-0.0119989
-0.0136354
-0.0185919
-0.0148636
-0.0179917
-0.0222074
-0.0290689
-0.0305186
-0.0301055
-0.0256536
-0.0225189
-0.0206492
-0.0206682
-0.0215408
-0.0232432
-0.0251099
-0.0273971
-0.0301198
-0.0141798
-0.0085261
-0.00888678
-0.00858853
-0.00946917
-0.0110215
-0.0170278
-0.0218553
-0.0283553
-0.0296539
-0.0314566
-0.0280282
-0.024101
-0.020467
-0.0190171
-0.0187284
-0.0190084
-0.0194379
-0.0200799
-0.0211038
-0.0499703
-0.0113111
-0.00657869
-0.00595582
-0.00844752
-0.0126071
-0.0176287
-0.0211446
-0.0242078
-0.0244262
-0.0241143
-0.0223694
-0.0209265
-0.0197579
-0.0189305
-0.0183056
-0.0179049
-0.0176618
-0.0175899
-0.0176344
-0.00662271
-0.0137968
-0.0123586
-0.0115197
-0.0159868
-0.0222091
-0.0285106
-0.0316942
-0.0341182
-0.0346061
-0.034562
-0.0333771
-0.0322699
-0.0307221
-0.0292701
-0.0276636
-0.026415
-0.025734
-0.0259881
-0.0270453
-0.00430831
-0.00765579
-0.00772472
-0.0111793
-0.0184391
-0.0281306
-0.0421199
-0.0572967
-0.0739447
-0.0874672
-0.0968815
-0.100755
-0.100884
-0.0979284
-0.0937537
-0.0887536
-0.0848217
-0.0831974
-0.084419
-0.0878409
-0.000559107
-0.00139237
-0.00227445
-0.00371787
-0.00601739
-0.00724643
-0.00917347
-0.00969997
-0.0107035
-0.0113942
-0.0127908
-0.0145259
-0.0170651
-0.0204126
-0.0248961
-0.030731
-0.0381994
-0.0477209
-0.0597444
-0.0738305
-0.00558102
-0.00272304
-0.0031045
-0.00505074
-0.00784052
-0.0101386
-0.0131102
-0.0143333
-0.016221
-0.0167495
-0.0178928
-0.0184764
-0.0194776
-0.0203362
-0.0217558
-0.0235483
-0.0263793
-0.0299109
-0.0342812
-0.0355391
-0.00446315
-0.00298083
-0.00299477
-0.00447637
-0.00698844
-0.00983637
-0.0129102
-0.0154923
-0.0179724
-0.0194565
-0.0207074
-0.0209208
-0.0208613
-0.0201233
-0.019563
-0.0190985
-0.0191788
-0.0196359
-0.0202434
-0.0204802
-0.000792417
-0.0031398
-0.0044394
-0.00524827
-0.0061266
-0.00789028
-0.0100847
-0.0122955
-0.0136979
-0.0147756
-0.0155561
-0.016239
-0.0170504
-0.0174693
-0.0176999
-0.0175739
-0.0175216
-0.0176096
-0.0176916
-0.0175028
-0.000564375
-0.00133178
-0.00291493
-0.0043103
-0.0058777
-0.00701703
-0.0077664
-0.0085237
-0.00914592
-0.0100971
-0.0111428
-0.0123701
-0.0138716
-0.0152693
-0.0166535
-0.0174979
-0.0180122
-0.0182453
-0.0183021
-0.0182223
-0.00599738
-0.00176506
-0.00234165
-0.00359943
-0.00508516
-0.00595151
-0.0064881
-0.00666235
-0.00718712
-0.00792046
-0.00912997
-0.0106179
-0.0125753
-0.0149519
-0.0176096
-0.0199722
-0.0216797
-0.0228829
-0.0240362
-0.0252065
-0.000411267
-0.000676649
-0.00160266
-0.0035153
-0.00594226
-0.00719093
-0.00860939
-0.00911935
-0.0092942
-0.00898201
-0.00914792
-0.0104246
-0.0125161
-0.0151276
-0.0182961
-0.0219488
-0.0257545
-0.0287297
-0.0302575
-0.0309045
-0.000782648
-0.00135241
-0.00329003
-0.00599959
-0.00887953
-0.00933663
-0.00999813
-0.0106771
-0.00925544
-0.00766894
-0.00769435
-0.0090266
-0.0109977
-0.013337
-0.0164385
-0.0191442
-0.0219508
-0.0244625
-0.0265184
-0.0280223
-0.00282233
-0.00336846
-0.00508
-0.007381
-0.00995014
-0.0100232
-0.0101668
-0.0119873
-0.0097398
-0.00779502
-0.0074251
-0.00810038
-0.00931189
-0.0108648
-0.0129569
-0.0149618
-0.0172563
-0.0196448
-0.0217992
-0.0233999
-0.00328725
-0.00467736
-0.00615148
-0.00787948
-0.0102545
-0.010637
-0.0110733
-0.0116979
-0.0133979
-0.014992
-0.0152679
-0.0139252
-0.0120151
-0.0108041
-0.010657
-0.0132655
-0.0146504
-0.01625
-0.0178404
-0.0190721
-0.00294899
-0.0111882
-0.0139178
-0.0142319
-0.018126
-0.0164852
-0.0152461
-0.0161177
-0.0192361
-0.02204
-0.0256509
-0.028961
-0.0285466
-0.0254618
-0.0224666
-0.0229344
-0.0220269
-0.0210046
-0.0201307
-0.0193334
-0.0051893
-0.00944609
-0.0122889
-0.0130041
-0.0172264
-0.0169152
-0.0171731
-0.0176218
-0.0175614
-0.0189852
-0.0219276
-0.0241803
-0.0252649
-0.0266489
-0.028696
-0.0248074
-0.0234931
-0.0216747
-0.0199304
-0.0184936
-0.00370359
-0.0055486
-0.00939409
-0.0114738
-0.0146763
-0.0124635
-0.0132674
-0.013415
-0.0133303
-0.01398
-0.0146215
-0.0155777
-0.0165319
-0.0177249
-0.0167099
-0.0171318
-0.0172318
-0.0170279
-0.0168278
-0.0167209
-0.00102501
-0.00203857
-0.0048917
-0.00684631
-0.00902198
-0.00881237
-0.0108104
-0.0114195
-0.0123308
-0.0129283
-0.0136492
-0.0143197
-0.0149095
-0.015372
-0.0158475
-0.0163053
-0.0168403
-0.0173366
-0.0177774
-0.0183032
-0.00187966
-0.00295385
-0.0046432
-0.0055242
-0.00727287
-0.00895937
-0.0108775
-0.0116609
-0.0122076
-0.012128
-0.0124293
-0.0126545
-0.0132742
-0.013785
-0.0145242
-0.0152248
-0.0159754
-0.0166021
-0.0171911
-0.0178943
-0.0108826
-0.00563882
-0.00552412
-0.00684049
-0.00922141
-0.0102853
-0.0125147
-0.0135161
-0.0146171
-0.0138776
-0.0134242
-0.0126317
-0.0124862
-0.0124885
-0.0127914
-0.0130612
-0.0134243
-0.0136743
-0.0140135
-0.0145091
-0.00578896
-0.00718306
-0.00428746
-0.00504967
-0.00757152
-0.0108638
-0.0134031
-0.0146469
-0.015384
-0.0146156
-0.0142122
-0.0131401
-0.0125056
-0.0121182
-0.0120149
-0.0119858
-0.0119895
-0.011992
-0.0120512
-0.0122786
-0.0431097
-0.010007
-0.00629728
-0.00700091
-0.0102394
-0.0138697
-0.0159053
-0.0172113
-0.0172806
-0.0168742
-0.0160376
-0.0152332
-0.0146061
-0.0142397
-0.014145
-0.01423
-0.0144528
-0.0146973
-0.0149661
-0.0150906
-0.006766
-0.0103714
-0.00950632
-0.0120907
-0.0167979
-0.0215271
-0.0255258
-0.0276089
-0.0292709
-0.0288585
-0.0280614
-0.026368
-0.0248148
-0.0230601
-0.0217105
-0.020764
-0.0205512
-0.0210072
-0.0220884
-0.0234213
-0.00572132
-0.00513146
-0.00701026
-0.0129514
-0.0204871
-0.0282677
-0.0377205
-0.0466032
-0.0550785
-0.0599073
-0.0617143
-0.0602859
-0.05747
-0.0536089
-0.0497794
-0.046088
-0.0432301
-0.0415361
-0.0410554
-0.0414007
-0.000524361
-0.00197499
-0.00275037
-0.00409221
-0.005856
-0.00706829
-0.00833011
-0.00920168
-0.0103072
-0.011574
-0.0131149
-0.0149374
-0.0170823
-0.0195879
-0.022606
-0.0261979
-0.0302741
-0.0350244
-0.0405338
-0.0445273
-0.00321556
-0.00247589
-0.00347512
-0.00545078
-0.00729873
-0.0082328
-0.00940517
-0.00971095
-0.0104084
-0.0106512
-0.0111868
-0.0115066
-0.0119896
-0.0123896
-0.012952
-0.0135424
-0.0143252
-0.0151567
-0.0160761
-0.0167471
-0.00175889
-0.00300038
-0.00403432
-0.00577047
-0.00755101
-0.00895307
-0.0101964
-0.0107395
-0.0114206
-0.0115772
-0.0119204
-0.0119136
-0.0119601
-0.0118336
-0.0118167
-0.0118466
-0.0120272
-0.0123347
-0.0127751
-0.0132679
-0.000510328
-0.00284888
-0.00378693
-0.0052781
-0.0069876
-0.0084654
-0.00923709
-0.00986065
-0.0103035
-0.0107233
-0.0110611
-0.011254
-0.0114203
-0.0114346
-0.0114778
-0.0115358
-0.0117461
-0.0121228
-0.0126282
-0.0131644
-0.000494044
-0.00159149
-0.00305018
-0.00464398
-0.00585131
-0.00689068
-0.00751219
-0.00837035
-0.00907373
-0.00981136
-0.0103918
-0.0108188
-0.0111778
-0.0113665
-0.0115779
-0.011707
-0.0119078
-0.0122183
-0.0126606
-0.0131628
-0.00056117
-0.00142148
-0.00262863
-0.00374304
-0.00460688
-0.00551511
-0.00625837
-0.00723886
-0.00816703
-0.00914049
-0.0100094
-0.010774
-0.0114819
-0.0120703
-0.0126053
-0.0130108
-0.0132921
-0.0135131
-0.0138107
-0.0142105
-0.000419065
-0.000675175
-0.00219325
-0.00343622
-0.00441974
-0.00510302
-0.00603681
-0.00698312
-0.00793062
-0.0088962
-0.00987661
-0.010825
-0.0117312
-0.01259
-0.0134557
-0.0142149
-0.0148198
-0.0151662
-0.0152735
-0.0152724
-0.00245248
-0.00170728
-0.00344229
-0.00463382
-0.00534052
-0.00553386
-0.00580887
-0.00648123
-0.00718419
-0.00812866
-0.00917375
-0.0101463
-0.0110617
-0.0119364
-0.0125344
-0.0130223
-0.0133911
-0.0136083
-0.013741
-0.0138805
-0.00292583
-0.0034514
-0.00487576
-0.00582801
-0.00638079
-0.00611289
-0.00593802
-0.00636098
-0.00687461
-0.00765115
-0.00850737
-0.00933656
-0.0101939
-0.0109817
-0.0117
-0.0119174
-0.0121868
-0.0123019
-0.0123631
-0.0124941
-0.00100847
-0.00367989
-0.00549716
-0.00725814
-0.00816236
-0.00807996
-0.00778023
-0.00877739
-0.00966843
-0.0100052
-0.0100171
-0.00981372
-0.00982658
-0.0101807
-0.0106839
-0.0109167
-0.0109801
-0.0110292
-0.0111478
-0.0113632
-0.00117153
-0.00575365
-0.00877036
-0.0101217
-0.0109414
-0.0114946
-0.0117443
-0.0128164
-0.0137529
-0.0147564
-0.0160434
-0.0163076
-0.0156235
-0.0146706
-0.0127002
-0.0111695
-0.0108402
-0.0107179
-0.0108348
-0.0110929
-0.00249291
-0.00707864
-0.00888095
-0.0102087
-0.0113971
-0.011844
-0.0118763
-0.0127429
-0.0132193
-0.0136203
-0.0143432
-0.0153115
-0.0161886
-0.0165082
-0.012934
-0.010463
-0.0102726
-0.0103791
-0.010744
-0.0112698
-0.00187776
-0.00497493
-0.00781708
-0.00942409
-0.0101907
-0.00989582
-0.0102781
-0.0105346
-0.0103151
-0.0103574
-0.0103215
-0.0103919
-0.0102524
-0.0100173
-0.00949172
-0.0097281
-0.0100874
-0.0105978
-0.0112619
-0.0120459
-0.00116535
-0.00233701
-0.00518316
-0.00715112
-0.00839161
-0.00882891
-0.00934116
-0.00908619
-0.00909601
-0.00901535
-0.00898064
-0.00897817
-0.00902414
-0.00918723
-0.00947831
-0.00991049
-0.0104776
-0.0111721
-0.0119827
-0.0128845
-0.00383602
-0.00284938
-0.00469901
-0.00642241
-0.00800989
-0.00862896
-0.00890147
-0.0086925
-0.00866474
-0.00851366
-0.00852912
-0.00852432
-0.00867601
-0.00889807
-0.00929821
-0.00981652
-0.0104838
-0.0112747
-0.0122053
-0.0131759
-0.010908
-0.00371435
-0.004619
-0.00648985
-0.00819918
-0.00894484
-0.00911721
-0.00896629
-0.00891323
-0.00868097
-0.00859149
-0.00851084
-0.00859836
-0.00879086
-0.00916668
-0.00968122
-0.010369
-0.0111993
-0.0121707
-0.0131209
-0.0102275
-0.00444468
-0.00459981
-0.00701802
-0.00891586
-0.00970712
-0.00963717
-0.00960002
-0.00941069
-0.00925029
-0.00911415
-0.00901949
-0.00902481
-0.00919334
-0.00951137
-0.0099984
-0.0106435
-0.0114423
-0.0123635
-0.0132337
-0.0125324
-0.0055093
-0.00609184
-0.00910367
-0.0110116
-0.0117829
-0.0115205
-0.0114788
-0.0110727
-0.0109781
-0.0108522
-0.0108728
-0.0108837
-0.0109245
-0.0109877
-0.0111161
-0.0113614
-0.0117308
-0.0122699
-0.0128386
-0.0027602
-0.00277084
-0.00623088
-0.0123773
-0.0161767
-0.0179242
-0.0192651
-0.0188057
-0.018204
-0.0167567
-0.0157326
-0.0150058
-0.0149634
-0.0153089
-0.0158943
-0.016438
-0.0168366
-0.0170227
-0.0170531
-0.016871
-0.00149657
-0.00329077
-0.00592248
-0.0120629
-0.0190093
-0.0238617
-0.02913
-0.0313115
-0.0330923
-0.0317936
-0.02963
-0.0261645
-0.0229956
-0.0201025
-0.0183911
-0.017646
-0.0179866
-0.019076
-0.0205995
-0.0222683
-0.026572
-0.0312904
-0.0367792
-0.017616
-0.0183884
-0.0238933
-0.0269049
-0.0264446
-0.0390069
-0.0446908
-0.0183362
-0.017324
-0.0277443
-0.0291642
-0.0369462
-0.028103
-0.0268262
-0.0244676
-0.0273827
-0.0209398
-0.0238215
-0.0446576
-0.0278164
-0.0344953
-0.0285254
-0.031543
-0.0249737
-0.0283356
-0.11016
-0.128113
-0.126088
-0.107677
-0.109685
-0.123555
-0.124804
-0.118183
-0.125817
-0.124588
-0.111413
-0.117375
-0.125254
-0.126132
-0.126802
-0.123857
-0.121627
-0.120005
-0.124036
-0.125797
-0.121957
-0.121808
-0.12076
-0.117525
-0.12252
-0.103224
-0.119521
-0.108696
-0.110951
-0.116312
-0.112491
-0.092549
-0.059057
-0.104309
-0.0896956
-0.100543
-0.110982
-0.104727
-0.0508601
-0.0366604
-0.0838367
-0.0659307
-0.0946584
-0.102161
-0.0947092
-0.0353833
-0.0366731
-0.0604613
-0.0496012
-0.0958015
-0.0926124
-0.0885012
-0.0391505
-0.0486858
-0.0480283
-0.0499444
-0.115939
-0.10443
-0.0964476
-0.11315
-0.116482
-0.100204
-0.0890705
-0.112669
-0.0944834
-0.0920443
-0.1171
-0.116797
-0.0863992
-0.0886634
-0.11239
-0.0927798
-0.100276
-0.116351
-0.116529
-0.0917498
-0.102669
-0.114834
-0.103047
-0.105325
-0.116461
-0.113601
-0.105697
-0.108863
-0.111962
-0.104318
-0.101414
-0.112553
-0.107322
-0.108556
-0.108221
-0.107478
-0.101452
-0.105498
-0.10441
-0.090918
-0.109169
-0.115517
-0.0977682
-0.107492
-0.110548
-0.0851133
-0.068627
-0.117944
-0.121225
-0.0891799
-0.109837
-0.10303
-0.0643894
-0.0587022
-0.120264
-0.111324
-0.100666
-0.103972
-0.102755
-0.100804
-0.0924948
-0.102139
-0.10405
-0.0951448
-0.101987
-0.0991197
-0.0890991
-0.0915696
-0.104325
-0.103404
-0.100725
-0.0979687
-0.092181
-0.0947284
-0.104087
-0.102471
-0.0972373
-0.102412
-0.0899656
-0.0887599
-0.106119
-0.106589
-0.0954125
-0.0940167
-0.097672
-0.0900736
-0.0949049
-0.105702
-0.103938
-0.0944136
-0.0953387
-0.100083
-0.0957117
-0.0947001
-0.10435
-0.110452
-0.09566
-0.0983115
-0.110043
-0.0942863
-0.0972448
-0.113822
-0.123235
-0.100402
-0.111751
-0.110118
-0.100155
-0.111898
-0.125008
-0.123859
-0.11664
-0.13026
-0.082281
-0.0812918
-0.0818492
-0.0832386
-0.0857231
-0.0782865
-0.0787375
-0.081839
-0.0824584
-0.0850976
-0.086654
-0.0869625
-0.0796044
-0.0851118
-0.0794506
-0.0866961
-0.0947164
-0.0861292
-0.0838194
-0.0883053
-0.0994747
-0.0866704
-0.100651
-0.124009
-0.0844132
-0.0904199
-0.104601
-0.114685
-0.0994407
-0.132121
-0.141856
-0.0921697
-0.0926314
-0.115584
-0.111436
-0.0981206
-0.142612
-0.135967
-0.0930638
-0.0973913
-0.112116
-0.118336
-0.096915
-0.134054
-0.127704
-0.0994661
-0.109735
-0.120813
-0.126202
-0.10987
-0.128429
-0.132572
-0.114351
-0.128337
-0.129032
-0.137479
-0.0504458
-0.0516975
-0.0696469
-0.0370242
-0.0410731
-0.0447831
-0.0434255
-0.0741301
-0.0744939
-0.0813481
-0.042673
-0.0437313
-0.0417436
-0.0352019
-0.0844269
-0.0806639
-0.066794
-0.042774
-0.0342329
-0.0331786
-0.0294311
-0.0500337
-0.0598242
-0.0475426
-0.0299618
-0.0193093
-0.0289979
-0.0284571
-0.0224494
-0.0464011
-0.0426084
-0.0167831
-0.0120041
-0.0279695
-0.0250007
-0.0160169
-0.040169
-0.030827
-0.0111951
-0.0105728
-0.0235291
-0.0190056
-0.0169558
-0.027656
-0.0207568
-0.0108998
-0.01282
-0.0176931
-0.0153904
-0.0236059
-0.0195234
-0.019549
-0.0139052
-0.0178143
-0.0151948
-0.0162648
-0.0648065
-0.0372092
-0.0366221
-0.0410685
-0.0399444
-0.0316912
-0.0280814
-0.0687068
-0.0369145
-0.0436798
-0.0382504
-0.0326973
-0.0274003
-0.0280443
-0.0603507
-0.0486783
-0.0609623
-0.0314924
-0.0308136
-0.0291676
-0.0339933
-0.0554617
-0.0642608
-0.0762353
-0.0313867
-0.0337429
-0.0359174
-0.0425103
-0.0586652
-0.0809986
-0.0927397
-0.0342667
-0.0337154
-0.0452057
-0.0530266
-0.0471526
-0.0956912
-0.102516
-0.0327155
-0.027931
-0.0547338
-0.0578076
-0.0307108
-0.103742
-0.101185
-0.0260183
-0.0210561
-0.0578635
-0.0549079
-0.0229344
-0.0978131
-0.0822171
-0.0199137
-0.0186137
-0.0529497
-0.0455284
-0.0442141
-0.0672921
-0.0734515
-0.0413048
-0.0329259
-0.0514573
-0.0477544
-0.0481284
-0.0750622
-0.0801462
-0.0314086
-0.0313138
-0.0463621
-0.0432451
-0.0690083
-0.0805539
-0.0762043
-0.0324293
-0.0363833
-0.0421267
-0.0371645
-0.078699
-0.0736136
-0.0638465
-0.037552
-0.0424781
-0.0351725
-0.031054
-0.0895101
-0.0605146
-0.0591103
-0.0447556
-0.0528709
-0.0311124
-0.036834
-0.101772
-0.0631499
-0.0806385
-0.0553602
-0.06085
-0.0401211
-0.0502323
-0.111231
-0.0861134
-0.10161
-0.0620127
-0.0632525
-0.0530814
-0.0599716
-0.10604
-0.106472
-0.118336
-0.0626869
-0.0582742
-0.0617885
-0.0663491
-0.0540283
-0.0371938
-0.0426996
-0.0368379
-0.0406458
-0.0332186
-0.036206
-0.0661528
-0.0452852
-0.0589202
-0.0415767
-0.0428363
-0.0372201
-0.0381473
-0.0688402
-0.0638875
-0.0717742
-0.0426261
-0.0386654
-0.0372178
-0.0317837
-0.0618968
-0.0694849
-0.04937
-0.0362797
-0.0301797
-0.0295656
-0.0268518
-0.0509877
-0.0431459
-0.0408137
-0.0296166
-0.0336049
-0.0271043
-0.0298281
-0.0724801
-0.0437468
-0.0587146
-0.0362677
-0.044886
-0.0311174
-0.0348967
-0.0956482
-0.0641573
-0.0783471
-0.0473697
-0.0531769
-0.035864
-0.038316
-0.112134
-0.0815292
-0.0900025
-0.0546049
-0.0579705
-0.0388338
-0.0401494
-0.0267657
-0.0231484
-0.0278195
-0.0199634
-0.0196414
-0.0201127
-0.0165318
-0.031246
-0.0281192
-0.0258623
-0.0188524
-0.0154938
-0.0152826
-0.0134976
-0.0231886
-0.0247405
-0.0222254
-0.0140504
-0.0104927
-0.0135026
-0.0143495
-0.0126389
-0.0217666
-0.0210951
-0.00963767
-0.00832994
-0.0146024
-0.014628
-0.00922051
-0.0208148
-0.0190191
-0.00813558
-0.00815175
-0.0143698
-0.0132463
-0.00935651
-0.0180658
-0.0151407
-0.00833522
-0.00920402
-0.0128102
-0.0117435
-0.0112969
-0.0143219
-0.0129858
-0.00962245
-0.0109603
-0.0114955
-0.0111776
-0.0145557
-0.0129074
-0.0136349
-0.0115431
-0.0133255
-0.0111876
-0.0114813
-0.0258732
-0.0183269
-0.0184884
-0.0183347
-0.0157392
-0.0153824
-0.0151776
-0.0244329
-0.0190068
-0.02293
-0.0149999
-0.0148369
-0.0156554
-0.0182828
-0.0244176
-0.0246565
-0.0296615
-0.0152973
-0.0171058
-0.0193438
-0.0223868
-0.0250786
-0.0254117
-0.0277007
-0.021098
-0.0289897
-0.0216988
-0.023986
-0.0288116
-0.0271274
-0.0330734
-0.022892
-0.0340843
-0.0229474
-0.0281255
-0.0218057
-0.0460375
-0.0484945
-0.0167412
-0.0148034
-0.0295736
-0.0292621
-0.0169142
-0.0485134
-0.0457871
-0.0141952
-0.0128006
-0.0286676
-0.0257485
-0.0153312
-0.0440465
-0.0376599
-0.0124933
-0.0120231
-0.024545
-0.0209959
-0.0216825
-0.0334931
-0.0339278
-0.0196125
-0.0174093
-0.024475
-0.0215998
-0.0255811
-0.0339188
-0.033677
-0.0176864
-0.0198746
-0.0209902
-0.0200203
-0.0312728
-0.0330596
-0.0294277
-0.0207452
-0.023154
-0.0198794
-0.0203514
-0.0279534
-0.0335605
-0.0310003
-0.028411
-0.0314642
-0.0297003
-0.0270699
-0.0344551
-0.0409791
-0.0354133
-0.0344009
-0.0377465
-0.0360863
-0.0324023
-0.0507924
-0.0373085
-0.0447963
-0.0324016
-0.0333963
-0.029267
-0.0311983
-0.0524118
-0.0467514
-0.0513521
-0.0332303
-0.0313661
-0.0316078
-0.0325857
-0.0477349
-0.0525536
-0.0556711
-0.0303826
-0.0269918
-0.0329291
-0.0343608
-0.0315315
-0.0253947
-0.0286265
-0.0227277
-0.0215562
-0.0208505
-0.0190518
-0.034752
-0.0297012
-0.0304514
-0.0211302
-0.0200001
-0.0185605
-0.0172344
-0.0307449
-0.0292971
-0.0243886
-0.0196706
-0.0195118
-0.0168963
-0.0170119
-0.0255376
-0.022639
-0.020714
-0.01995
-0.0224819
-0.0172875
-0.0182603
-0.0314881
-0.0210749
-0.0240798
-0.0234678
-0.0261272
-0.0185155
-0.0195418
-0.0402986
-0.0251588
-0.0281728
-0.0268298
-0.0282731
-0.0198074
-0.020629
-0.0455228
-0.0287866
-0.0304689
-0.0285786
-0.0294662
-0.020835
-0.0218073
-0.0488455
-0.0306777
-0.0315216