/*--------------------------------*- C++ -*----------------------------------*\
  =========                 |
  \\      /  F ield         | OpenFOAM: The Open Source CFD Toolbox
   \\    /   O peration     | Website:  https://openfoam.org
    \\  /    A nd           | Version:  10
     \\/     M anipulation  |
\*---------------------------------------------------------------------------*/
FoamFile
{
    format      ascii;
    class       volScalarField;
    location    "5.2";
    object      k;
}
// * * * * * * * * * * * * * * * * * * * * * * * * * * * * * * * * * * * * * //

dimensions      [0 2 -2 0 0 0 0];

internalField   nonuniform List<scalar> 
12920
(
378.822
608.363
504.6
449.667
415.824
361.636
302.587
271.833
251.006
236.362
205.825
148.432
114.236
97.321
85.6276
76.1936
69.1003
62.9868
61.3103
58.2005
963.619
2350.75
983.239
610.449
531.738
402.584
344.929
300.18
255.828
217.161
171.835
146.875
131.291
125.796
119.409
116.006
112.635
111.468
111.259
111.469
4804.97
4162.61
2337.15
964.423
636.652
443.675
331.822
261.103
204.1
176.306
150.96
140.663
130.701
126.25
121.653
119.126
116.821
115.631
114.323
113.778
7564.76
5184.07
2786.62
1162.94
618.327
378.956
308.983
226.031
188.05
159.485
143.546
136.148
130.625
127.563
123.925
120.455
117.096
114.713
113.117
111.843
3086.29
3260.85
2393.04
1264.34
737.867
512.281
376.266
298.068
243.579
201.566
177.384
163.123
153.011
145.799
135.576
128.304
123.395
119.96
118.146
114.162
6952.93
3450.87
1913.58
885.461
651.1
409.213
353.429
290.003
256.035
224.742
202.55
184.611
166.828
150.12
136.06
128.309
124.554
121.994
120.745
116.608
3597.52
5343.16
3564.41
2116.54
1308.73
782.31
509.065
360.684
306.08
260.942
225.452
193.783
164.66
144.166
135.048
131.421
129.105
124.652
122.872
118.392
3130.52
3400.76
3231.93
2548.11
1607.07
1048.33
616.783
242.996
199.048
165.391
137.917
109.15
101.69
95.2668
166.597
146.623
133.013
123.366
120.347
117.644
2430.59
3811.32
2843.6
1942.85
1067.65
549.767
364.183
121.095
181.042
160.143
90.8172
57.5735
58.9767
64.5425
108.839
130.844
119.239
112.796
111.911
113.242
3203.31
3797.88
2870.73
1432.2
636.281
203.212
98.6255
118.343
183.144
175.406
112.205
61.9915
65.0382
55.88
82.1878
123.134
116.983
113.454
112.401
112.793
1083.26
4165.52
3875.83
2163.99
1162.71
497.408
152.5
103.672
119.58
121.218
99.9027
67.4364
62.1803
62.3288
101.573
150.516
141.72
134.496
126.522
116.588
1144.04
3837.87
3247.79
1922.65
1204.33
467.844
157.488
113.106
115.875
99.3558
79.2505
80.0189
89.5632
75.8823
122.311
177.246
163.578
150.134
139.932
123.266
1635
2827.6
2127
1417.2
843.785
484.935
236.902
187.366
176.978
164.527
147.745
131.774
117.887
114.241
202.661
189.536
181.859
164.546
151.6
131.987
5898.47
2978.59
1469.16
776.099
484.84
401.079
325.89
296.455
266.14
246.656
228.776
221.17
214.207
211.272
208.831
206.002
197.39
171.904
154.182
133.775
1449.78
3081.64
1842.04
1194.86
809.002
734.92
489.77
400.455
304.693
275.345
259.231
254.662
245.693
239.941
232.829
225.136
206.878
172.451
147.772
125.664
871.146
3141.32
1989.22
1376.34
1084.69
982.884
725.167
583.443
402.612
318.889
270.21
255.637
243.995
237.382
229.835
221.305
198.341
160.818
134.74
113.072
1557.55
1461.28
1656.16
1672.23
1577.18
1449.58
1067.76
747.974
493.977
378.717
315.271
284.509
257.592
239.732
226.304
216.265
195.723
161.588
135.99
109.41
413.55
1689.97
1818.64
1791.08
1604.78
1342.18
935.564
655.509
472.055
387.374
334.886
304.593
274.994
253.637
238.45
231.331
219.034
188.697
161.503
122.087
1131.64
3724.09
2825.96
1601.19
1096.91
786.685
524.486
359.808
282.26
250.044
222.939
199.146
180.068
165.53
154.718
141.815
133.633
128.613
128.418
124.711
2837.53
3290.29
2706.86
1669.58
859.818
450.998
304.408
264.186
226.386
193.073
156.039
128.392
104.346
87.6899
74.0034
63.3938
56.9774
55.5463
57.3407
62.2539
1400.19
1417.05
1322.82
1198.61
1087.11
891.177
708.232
613.834
546.251
451.238
338.462
259.813
216.721
195.841
187.303
180.888
176.514
167.354
162.629
154.225
4700.98
5666.96
2573.17
1570.6
1272.69
973.669
783.004
690.589
567.16
507.955
423.486
404.905
379.79
375.071
354.485
347.515
337.464
337.405
336.677
338.164
3057.21
6653.39
5475.7
2331.79
1558.74
1047.67
815.547
645.565
528.56
473.399
415.046
401.13
373.43
367.62
354.436
350.918
344.779
343.907
341.321
340.482
7131.74
7416.01
5802.57
2601.22
1494.08
934.975
805.997
594.814
523.229
444.629
407.618
387.363
372.501
365.883
355.754
348.489
340.793
337.978
335.797
334.542
11745.4
8274.12
5562.81
2810.56
1660.96
1209.11
932.456
777.928
647.305
563.789
499.165
468.453
435.08
414.787
386.064
368.476
355.616
349.26
344.861
338.483
21482.6
9198.98
4581.66
2238.54
1642.21
1005.19
965.943
786.014
698.502
619.116
552.005
506.144
454.869
417.856
383.086
365.728
356.43
351.952
349.453
340.823
13061.3
13091.2
7366.86
4411.25
2492.97
1643.39
1162.87
965.873
823.581
738.863
617.756
532.246
447.95
397.825
367.473
361.318
359.809
358.962
358.377
352.351
14072
9165.67
6525.91
5449.59
2816.52
1911.18
1319.34
1069.07
877.632
692.841
549.859
436.788
391.693
359.781
383.228
368.544
358.427
354.279
355.337
354.892
1554.91
6530.28
4167.46
3387.1
1361.48
1355.32
1122.36
1032.24
1006.25
727.418
471.77
378.985
355.862
340.794
328.708
316.742
315.757
319.365
327.884
342.414
5433.88
6672.84
3733.07
2107.41
851.008
736.531
772.934
872.183
877.819
703.937
473.674
370.321
330.638
275.62
250.365
291.489
300.94
310.351
319.075
330.932
2210.25
8396.72
7353.42
4562.69
1862.95
1265.13
818.463
694.391
643.588
570.022
426.824
326.256
287.907
279.302
298.338
342.652
345.203
345.166
341.218
333.444
8330.88
8315.32
5044.12
3743.02
1759.64
1247.91
868.131
728.817
629.29
531.971
463.119
440.411
415.26
367.647
365.859
412.06
406.637
393.914
379.602
352.352
5974.99
8175.57
4673.72
3007.36
1480.81
1157.85
938.914
845.906
679.381
583.795
524.337
473.536
445.478
435.532
496.013
484.224
473.15
447.538
423.141
381.654
8555.22
6726.77
3652.68
1723.43
1183.28
1035.32
893.724
805.655
729.752
673.496
627.122
610.683
594.121
581.519
566.45
548.506
521.585
474.141
436.973
390.69
4054.42
7463.51
4532.83
2564.26
1740.07
1629.78
1090.92
1024.58
826.173
800.789
752.072
737.15
701.179
672.811
636.363
600.522
548.845
483.18
426.844
370.981
4231.3
7342.04
4434.64
3014.57
2339.26
2080.33
1498.81
1316.79
991.486
903.978
791.531
762.986
714.094
693.459
657.911
623.612
555.908
462.231
392.488
337.934
6968.12
5223.6
4353.19
4057.64
3316.23
2951.79
2003.19
1620.34
1140.73
1012.11
876.142
818.543
743.303
702.511
660.264
632.526
576.287
478.42
395.936
323.799
1486.45
4472.87
4699.18
4304.83
3229.82
2672.28
1648.71
1361.71
1083.79
1026.59
916.67
860.867
780.583
731.156
686.433
663.18
623.775
550.043
463.898
357.107
6886.05
9418.82
6113.2
3006.99
1608.1
1065.18
699.062
669.611
641.827
651.975
626.564
594.693
546.216
513.998
482.184
450.362
420.115
394.011
381.475
354.689
4382.36
4930.22
2950.61
1533.44
809.343
587.377
556.007
542.471
470.385
368.338
297.03
252.089
221.361
198.217
179.236
163.178
156.672
152.884
153.223
148.434
870.592
2088.08
1942.08
1650.18
1402.73
1107.78
873.019
709.585
578.189
443.279
333.547
265.159
233.224
223.229
221.709
217.399
214.883
208.676
205.324
196.144
4580.88
7133.52
3821.91
2194.68
1578.74
1180.24
927.687
800.616
657.032
602.977
541.899
546.137
538.946
536.124
517.786
514.359
507.505
508.318
507.466
507.729
7604.9
7969.97
6260.56
3064.45
1981.48
1307.32
1049.35
829.483
718.44
649.254
600.11
581.748
552.941
542.475
524.789
519.51
511.513
509.946
506.258
505.005
7503.03
9064.62
6548.23
3187.1
1953.92
1256.78
1077.05
813.529
737.973
637.369
598.067
563.93
540.176
523.609
508.64
500.008
492.491
490.645
488.064
487.72
16289.5
12892.1
7886.45
3619.1
2214.46
1537.83
1283.33
1025.75
881.292
759.722
684.919
632.442
589.087
558.059
529.087
511.731
498.836
492.032
485.841
480.162
16731.2
12792.7
5985.48
3022.45
2184.48
1440.97
1407.32
1114.88
972.11
825.618
732.644
660.764
602.495
560.935
530.477
512.465
500.896
492.428
485.803
473.732
30882
20427.6
8893.19
4923.1
2892.25
2137.92
1674.17
1377.44
1114.05
945.264
786.005
681.359
600.367
554.902
527.83
518.529
513.046
506.973
501.303
486.286
16827.1
11293.7
6357.23
4801.48
2625.84
2259.04
1877.22
1576.72
1207.3
913.346
748.837
617.395
555.219
513.997
518.457
512.296
511.071
510.234
508.614
500.292
4520.3
7607.01
3636.51
2618
1763.24
1844.96
1764.66
1575.17
1217.21
859.647
638.66
551.221
509.049
477.736
455.165
449.238
458.664
474.581
486.684
495.142
5898.65
7478.31
3469.72
2020.45
1422.66
1334.99
1408.63
1273.42
1081.88
812.991
604.251
510.66
442.628
383.884
367.86
413.244
435.633
452.463
464.371
475.746
21577.4
20444.1
8999.69
4009.98
1920.64
1633.56
1296.3
1029.59
878.949
744.637
417.46
325.489
357.048
372.245
402.15
454.838
466.056
468.657
467.345
465.492
16015
8370.47
4294
3373.38
1874.72
1616.3
1401
1052.74
862.1
729.371
637.778
584.004
531.161
486.474
485.909
531.369
526.533
512.333
496.726
474.992
14880.9
7653.7
4208.85
3084.82
1944.15
1596.32
1455.23
1207.48
923.865
792.817
708.688
652.428
621.245
603.363
645.74
625.113
602.465
569.705
541.998
499.942
6736.17
6878.54
4615.07
2442.24
1928.35
1508.57
1372.75
1177.69
1057.65
970.019
893.842
854.319
811.413
776.878
739.139
696.669
650.078
597.385
559.584
509.211
10097.9
9686.95
6116.36
3162.09
2239.28
1823.69
1488.72
1376.39
1205.17
1159.71
1071.34
1014.21
938.05
875.7
809.743
743.163
672.84
604.371
553.278
494.265
5031.9
8761.64
5720.38
3665.31
2779.45
2262.66
1750.24
1534.64
1323.54
1240.51
1136.01
1072.11
985.75
921.194
844.819
767.793
676.054
585.658
523.222
466.727
15635
9448.49
5872.82
4739.82
3506.85
2849.9
2027.48
1771.81
1463.45
1358.8
1215.76
1126.42
1020.19
946.387
868.535
800.158
703.308
593.796
516.717
446.567
8215.56
7326.19
6248.09
4901.21
3359.12
2587.87
1847.24
1694.03
1454.94
1368.49
1228.3
1134.78
1021.68
942.714
865.802
804.498
723.954
627.296
549.5
462.923
36946.3
15912.9
7220.46
3109.54
1788.17
1394.72
1067.85
1041.97
961.553
943.022
887.092
833.507
758.195
695.651
634.071
583.243
541.752
505.113
483.603
446.868
5247.55
4606.44
3549.16
1680.84
977.466
890.161
806.949
653.488
499.995
390.764
326.415
283.772
255.412
228.12
207.245
188.556
181.616
169.31
162.333
151.487
3031.09
4441.67
2888.77
1994.95
1573.95
1186.03
895.513
649.857
494.359
366.458
295.717
253.298
239.47
236.316
236.807
232.15
229.419
222.116
218.551
207.574
14463.5
9073.3
5004.14
2791.67
1810.54
1268.56
1007.53
843.521
739.643
691.292
669.422
675.597
677.436
670.42
658.752
656.998
655.063
657.384
657.129
658.239
6371.45
9063.99
7588.2
3889.9
2389.88
1533.8
1240.27
979.122
886.274
799.511
763.578
727.542
704.887
685.423
672.278
665.017
659.878
658.242
654.453
653.176
11799.5
10820.3
7082.11
3801.17
2309.89
1531.27
1294.08
994.622
916.756
795.95
758.045
705.459
682.178
656.779
644.525
634.676
630.055
628.081
625.557
625.835
22905
16710.7
9518.01
4311.08
2660.66
1798.88
1566.65
1199.8
1070.15
904.731
833.984
758.065
716.812
677.689
655.143
637.405
627.286
619.641
612.821
608.392
19123.3
15029.1
7164.27
3668.92
2575.33
1800.32
1756.63
1318.77
1160.94
954.571
862.825
771.992
722.039
678.959
656.629
636.875
625.395
613.622
603.826
591.784
12004.5
11879.9
9089.55
4916.7
3266.15
2337.13
2010.75
1551.17
1270.01
1044.88
895.093
788.21
725.081
684.465
665.308
653.084
645.393
632.453
620.315
599.671
18989.3
10183.1
6039.82
3978.47
2871.21
2388.08
2172.31
1755.97
1341.83
1023.59
865.079
744.037
684.208
646.07
646.414
646.264
647.948
645.157
637.41
619.153
20601.6
8625.2
3833.51
2780.44
2276.69
2210.83
2148.93
1704.77
1256.1
918.145
751.222
671.853
630.057
599.892
577.456
587.293
605.321
623.221
629.235
626.987
16545.5
7668.67
3419.03
2428.54
1915.24
1795.8
1802.38
1464.89
1143.62
856.282
689.743
600.365
538.803
504.94
498.48
545.417
572.651
591.257
601.903
608.848
18270.9
12991.1
5405.65
3088.13
2157.36
1761.11
1562.94
1238.45
1021.22
842.925
570.802
472.125
462.596
479.081
510.637
563.921
578.441
584.546
586.309
587.62
4575.85
7916.3
4842.26
3138.38
2162.95
1902.63
1755.87
1246.99
1007.43
849.997
740.019
666.326
615.717
584.941
588.808
629.803
624.912
611.74
599.118
584.569
8420.43
6629.55
4696.7
3221.49
2459.11
1973.74
1753.33
1421.53
1076.45
935.195
845.115
789.785
758.377
732.199
753.095
726.436
697.86
663.8
634.721
599.464
25444.7
9951.73
5173.8
3163.3
2458.7
1906.06
1703.61
1444.21
1265.25
1158.37
1071
1013.96
957.792
904.885
850.517
794.772
741.64
689.931
650.739
606.34
26292.9
15564.9
7619.96
3915.68
2676.78
2059.75
1817.36
1581.27
1458.67
1357.3
1266.3
1174.19
1081.29
993.585
910.71
829.184
757.665
693.992
644.291
594.933
24223.9
12851.3
6500.07
4117.65
3081.08
2349.47
1957.13
1678.08
1564.05
1434.04
1352.8
1243.08
1140.91
1037.59
938.351
838.355
748.267
670.471
617.785
572.67
16148.5
12458.5
7322.12
4892.31
3666.41
2705.6
2191.13
1866.31
1698.03
1545.23
1432.61
1300.93
1182.12
1070.06
966.025
863.055
758.494
663.508
600.947
547.936
18551.1
11106.6
8277.65
5063.58
3630.44
2585.82
2135.37
1851.75
1699.96
1546.1
1429.36
1287.45
1164.45
1048.58
949.597
856.471
764.583
674.787
611.942
551.476
20275.1
13351.3
8466.9
3536.9
2454.11
1795.05
1489.75
1330.79
1227.02
1159.71
1093.31
988.097
891.05
793.302
720.668
661.409
620.762
585.879
562.305
527.26
2906.76
3944.55
3051.77
1780.07
1317.17
1140.38
919.691
666.557
491.929
387.094
335.36
290.142
258.701
223.995
201.819
180.836
167.88
153.746
154.373
153.314
7932.04
7460.5
4370.03
2265.93
1499.06
974.819
636.966
436.583
339.238
280.946
252.125
235.974
231.467
224.791
221.87
211.421
208.327
198.894
195.921
184.526
22121.6
11716.5
6076.22
3396.19
2258.04
1429.1
1192.53
942.847
912.038
838.956
867.387
827.343
857.507
822.15
832.395
819.313
826.918
824.571
825.188
823.246
15341.3
12231.7
9556.07
4494.43
3142.59
1933.1
1609.38
1256.91
1158.49
1022.64
991.033
909.637
903.932
861.058
861.229
843.813
844.961
837.945
834.99
831.133
28762.2
14189
8511.09
4637.28
2882.93
2003.4
1640.41
1291.44
1179.79
1023.78
976.07
890.876
874.756
830.789
827.032
809.204
809.183
802.455
800.945
798.555
26557.1
15129
10266.6
4690.21
3429.01
2211.19
2050.74
1489.43
1380.03
1121.57
1055.21
934.279
902.211
843.189
831.572
804.332
799.053
785.286
779.798
773.543
37042.5
18517.8
8625.96
4560.57
3129.25
2362.25
2272.41
1583.33
1438.09
1142.78
1060.3
935.417
898.635
843.048
828.649
799.21
788.639
769.542
758.186
744.999
17673.4
11650
10373.1
5054.95
4183.27
2604.72
2620.17
1856.16
1564.06
1225.3
1090.94
956.39
912.706
859.171
846.787
821.14
809.715
784.326
767.019
743.54
19779.3
11018.2
6461.85
4430.39
3584.24
2850.19
2409.74
1867.05
1448.22
1136.48
988.681
878.562
830.055
790.645
830.073
818.855
812.895
800.757
784.687
758.634
22411.2
10146.8
4831.71
4064.32
2912.29
2590.97
2427.86
1729.86
1290.45
996.998
876.468
810.893
783.088
755.437
729.664
771.976
782.503
790.815
788.876
774.935
28754.8
7482.3
4075.17
3686.29
2419.2
2198.05
2023.31
1570.73
1189.53
907.561
769.764
696.156
688.916
685.335
667.927
725.788
742.222
757.937
764.583
763.151
23447
8664.23
5033.44
3821.07
2674.57
2074.58
1755.36
1402.93
1140.47
902.565
722.722
605.694
616.736
655.746
664.589
724.729
731.55
736.421
739.317
739.077
16504.9
9239.8
5695.52
3867.51
2655.49
2324.54
1977.02
1404.93
1138.06
943.888
819.664
747.367
735.963
723.861
719.627
774.603
763.298
747.574
739.131
727.603
29557.4
9503.1
6318.18
4012.15
3414.13
2716.35
2029.69
1585.16
1233.27
1074.83
986.744
928.202
897.134
860.179
902.462
865.402
829.103
792.513
763.277
734.721
30339.1
16231.6
7398.84
4303.66
3326.23
2536.39
2228.5
1860.56
1543.73
1400.92
1294.89
1205.97
1141.12
1063.59
993.581
927.833
870.265
816.401
776.776
739.974
18429.3
16473
10186.3
4828.55
3496.98
2603.62
2336.22
1884.3
1783.86
1583.33
1504.25
1357.12
1256.04
1137.49
1042.71
951.471
880.006
816.815
769.57
732.254
18865.4
13711.7
8225.42
4860.29
3781.05
2715.29
2374.29
1945.99
1897.12
1649.5
1609.16
1417.62
1316.02
1156.75
1049
934.127
854.558
787.779
744.645
713.098
26421.1
13517.5
9235.7
5265.82
4541.11
2963.96
2715.42
2079.2
2051.07
1756.05
1699.38
1475.1
1358.45
1179.58
1063.2
932.773
840.535
764.804
718.089
683.863
44958.8
17125.2
11547.2
5614.19
4804.23
2906.87
2766.02
2075.78
2072.91
1749.76
1690.57
1440.64
1329.02
1140.32
1037.07
912.939
831.984
758.342
712.741
675.505
17884.5
14294.6
11489.1
4572.96
3970.95
2233.15
2195.47
1598.36
1631.9
1375.33
1344.21
1120.04
1025.18
865.248
807.787
739.008
712.902
681.162
661.009
631.989
407.127
3249.63
2972.52
1900
1507.95
1194.24
856.495
576.584
425.484
351.369
308.537
256.294
219.922
184.378
163.928
148.963
142.4
139.449
145.852
141.283
644.33
766.539
493
847.432
703.807
822.15
533.704
528.438
434.755
353.744
670.97
598.791
477.393
423.009
477.332
719.032
632.081
822.424
540.826
816.165
720.581
333.786
608.652
564.238
481.045
416.869
693.796
635.04
142.486
172.313
107.994
737.819
723.851
564.105
704.658
158.256
109.65
168.378
770.74
895.516
740.702
839.678
180.482
187.381
189.615
888.76
735.372
836.605
716.616
108.211
176.712
128.154
662.304
459.286
660.484
475.875
62.7987
106.077
64.1713
410.852
332.086
419.923
328.049
58.1799
60.3624
62.4601
317.015
303.811
317.827
304.029
64.6407
64.0129
63.3591
302.613
299.125
299.055
273.53
58.5754
60.5152
40.0841
296.314
294.751
262.385
230.603
103.212
126.149
99.3516
553.789
703.221
571.518
605.834
170.524
104.639
133.727
728.734
784.553
600.599
611.646
185.443
139.847
146.027
781.299
692.979
610.431
575.558
134.87
143.934
123.867
648.082
485.729
554.094
453.726
64.7456
108.369
69.294
426.705
328.291
408.487
315.728
64.5312
66.7796
63.8723
318.266
299.648
299.29
260.975
59.6169
60.7316
55.6321
291.329
255.183
249.152
225.812
39.5747
55.521
45.4157
241.929
213.532
222.754
225.02
102.08
155.203
104.834
572.707
603.687
583.939
620.587
116.872
107.69
111.884
581.379
564.171
594.9
546.133
122.153
111.153
99.1549
559.724
523.633
530.931
469.704
110.072
92.4401
78.6775
506.153
424.371
447.596
392.636
70.7737
76.1311
72.0857
388.767
310.684
378.738
358.25
63.5111
72.4613
84.0894
295.476
265.759
357.964
359.013
62.4115
85.6197
81.0857
259.508
250.548
355.463
327.223
47.0212
76.2584
56.3706
248.926
243.376
316.726
296.224
110.561
218.238
117.173
629.786
646.133
636.459
708.914
116.713
116.328
125.98
616.756
564.77
660.006
599.052
105.671
121.079
118.985
546.803
484.419
571.404
511.497
82.3547
115.861
106.32
462.009
410.086
503.89
467.587
77.8823
102.3
95.4102
398.948
385.602
452.282
419.939
89.415
93.5992
85.8056
385.204
379.118
414.114
380.078
80.5937
80.8447
71.0605
371.768
336.071
369.255
345.083
56.2766
69.7533
57.9025
325.699
304.371
342.56
345.256
1000.04
872.833
903.522
1589.08
1516.73
1383.14
1318.78
1048.92
926.492
965.092
1493.65
1277.09
1301.01
1185.03
807.518
944.301
780.508
1189.73
926.764
1115.22
881.055
519.242
716.84
521.775
837.587
644.452
806.529
619.806
394.625
468.737
383.199
604.498
531.485
578.288
506.231
360.472
371.96
350.216
515.681
486.122
491.861
453.641
345.364
342.357
311.298
476.567
453.55
440.314
401.165
330.464
299.363
260.09
447.212
434.322
388.938
358.036
856.161
785.061
733.009
1259
1215.43
1159.71
1029.59
893.551
716.487
702.212
1196.55
1103.32
990.593
903.637
755.633
693.532
638.98
1049.36
859.747
873.362
767.206
529.304
613.557
493.31
795.835
620.835
736.093
529.65
382.294
446.421
351.51
577.416
499.531
475.046
375.314
341.977
332.131
287.367
482.805
434.998
356.966
323.839
289.568
275.095
251.969
418.568
371.299
317.832
311.407
241.73
249.421
250.865
357.901
334.051
313.151
331.596
727.246
823.459
742.127
1196.3
1011.22
1226.65
1025.85
654.683
705.413
634.416
960.348
860.938
963.474
837.577
591.274
613.752
542.444
831.562
734.516
802.949
706.512
466.087
518.601
455.937
707.981
506.083
678.233
596.294
343.438
439.978
413.9
453.166
358.632
574.331
534.247
293.617
411.662
404.394
343.121
335.573
526.617
498.92
280.4
397.888
366.559
339.989
348.34
487.382
452.593
271.18
356.124
330.388
350.265
353.089
442.961
422.825
769.012
966.04
851.078
1275.06
1053.44
1377.44
1158.67
653.028
787.117
701.487
986.914
852.989
1069.03
921.116
555.721
660.425
582.511
814.708
716.275
857.142
743.546
476.148
572.29
531.464
689.286
621.275
727.461
672.685
443.229
512.167
475.443
603.089
565.831
647.657
600.136
425.019
468.001
433.231
556.408
521.048
590.044
554.07
377.941
421.698
398.824
507.695
470.559
542.913
520.739
340.156
395.265
389.917
461.141
438.405
516.148
509.404
1623.66
1540.26
1410.8
2062.15
1799.88
1867.26
1593.89
1311.41
1379.55
1221.31
1691.46
1352.35
1523.88
1269.89
947.116
1142.45
896.844
1252.82
981.662
1176.29
922.195
676.808
822.231
644.929
904.954
758.413
853.479
708.245
566.954
606.769
537.354
725.35
657.568
677.569
614
519.947
522.208
480.951
643.005
611.234
597.884
555.346
484.347
466.933
427.678
599.541
574.413
542.48
510.488
461.298
416.021
384.689
568.012
552.603
501.786
479.689
1304.27
1268.8
1105.92
1713.35
1494.96
1513.1
1285.94
1144.62
1061.4
953.692
1431.44
1215.16
1226.81
1068.65
877.978
917.214
797.435
1134.89
910.38
1017.42
871.694
761.545
750.866
800.573
826.512
745.467
765.991
816.854
582.51
573.093
593.722
628.52
559.43
598.957
615.567
459.53
343.713
333.587
579.601
527.545
421.048
411.318
396.246
331.855
332.175
512.637
478.226
410.319
416.513
360.922
335.917
353.931
470.287
457.297
421.917
439.256
1083.89
1345.24
1098.12
1504.28
1258.04
1602.77
1268.36
913.611
1030.26
890.288
1194.52
1038.43
1189.21
1017.75
769.471
851.909
748.602
990.95
858.978
970.665
849.428
695.408
677.132
726.201
767.046
671.851
636.394
759.38
445.712
377.265
477.346
308.505
442.818
275.33
475.089
348.489
554.679
521.857
418.05
429.364
619.809
579.154
369.537
509.616
475.541
432.867
443.608
568.012
541.916
375.127
466.456
446.017
447.48
454.287
535.156
520.558
1125.2
1522.13
1235.28
1681.03
1291.3
1780.71
1401.79
904.049
1140.35
975.597
1206.49
1025.76
1298.25
1099
757.415
906.232
785.611
975.964
856.057
1021.58
887.878
657.452
767.914
709.64
824.71
742.274
866.04
800.006
595.355
682.954
633.808
718.854
663.539
772.25
720.902
544.744
623.134
587.831
648.339
605.793
709.693
677.5
495.422
576.493
554.747
594.072
566.055
667.111
645.966
462.809
549.754
539.889
558.837
539.584
640.246
628.453
1828.42
1957.01
1631.37
2343.28
1862.85
2125.21
1708.49
1355.12
1549.89
1273.91
1713.02
1364.95
1598.91
1282.28
989.615
1178.49
927.579
1270.51
1024.17
1187.55
953.294
783.064
861.931
726.697
966.803
865.12
896.109
785.282
685.875
697.925
636.619
838.083
781.329
761.352
709.137
641.611
620.834
581.177
769.173
747.105
697.062
678.694
606.459
569.926
542.784
738.669
719.073
675.563
663.671
582.101
535.191
512.052
711.351
693.191
657.948
638.195
1538.01
1576.57
1332.82
1967.31
1634.75
1720.79
1453.78
1226.99
1269.57
1098.63
1537.89
1255.85
1380.97
1181.38
917.543
1043.54
888.87
1168.41
944.379
1116.12
933.821
720.754
842.175
621.762
887.722
772.092
880.731
734.301
619.459
569.884
486.399
745.643
682.815
693.147
597.254
551.524
472.748
444.839
667.03
643.485
574.851
551.595
511.346
443.383
452.465
642.438
637.138
558.905
588.264
490.711
457.921
470.115
633.519
620.576
593.157
597.202
1304.63
1674.06
1313.3
1704.75
1428.3
1823.29
1434.82
1072.17
1231.81
1052.95
1355.79
1166.35
1348.72
1153.07
879.596
1003.69
876.426
1105.37
933.656
1097.97
947.678
625.102
841.508
743.849
884.295
737.798
905.824
801.294
484.261
716.171
653.43
694.861
598.519
772.311
703.442
461.239
637.211
597.733
577.419
560.476
687.844
668.263
474.924
588.253
566.913
569.581
599.161
668.469
664.878
483.415
561.076
545.662
603.442
603.738
661.251
646.886
1334.41
1866.66
1442.84
1923.79
1451.06
2078.83
1556.32
1058.88
1337.38
1130.82
1357.77
1153.89
1441.33
1219.35
882.823
1052.44
917.064
1098.73
956.178
1144.14
1003.69
764.349
893.9
826.523
916.964
822.222
975.154
906.273
682.015
798.809
748.228
796.704
736.109
881.683
832.758
625.94
736.915
706.575
722.269
701.069
822.067
798.752
591.555
696.364
675.738
698.258
687.111
790.514
769.408
564.723
669.569
655.358
682.115
663.246
762.332
744.229
1885.17
2178.95
1742.72
3031.49
2300.23
2707.24
2253.6
1384.05
1625.07
1299.27
2137.97
1818.42
2104.42
1745.63
1051.15
1205.3
974.799
1729.45
1458.04
1646.72
1381.85
902.631
919.076
812.937
1409.67
1336.94
1319.91
1210.02
823.108
790.11
741.039
1324.02
1257.58
1187.65
1141.17
791.067
730.853
722.196
1252.31
1240.52
1140.83
1198.83
764.196
721.897
713.32
1245.4
1210.42
1206.13
1198.4
732.079
707.636
682.871
1208.95
1168.07
1193.16
1169.8
1674.46
1767.52
1501.72
2506.59
2195.04
2229.27
2042.53
1277.67
1425.79
1217.3
2064.92
1736.49
1950.77
1708.23
963.896
1148.21
953.398
1633.08
1365.05
1613.82
1353.87
795.255
898.19
759.938
1299.48
1176.75
1280.2
1125.53
709.788
721.026
625.319
1149.86
1088.33
1082.75
968.739
685.375
603.719
593.661
1083.61
1147
953.616
1023.83
689.023
608.788
644.091
1176.26
1180.93
1084.36
1145.81
666.367
648.2
644.007
1177.18
1143.27
1147.67
1125.5
1477.63
1874.56
1484.72
2271.9
2029.3
2404.49
2036.11
1205.36
1396.86
1194.73
1937.57
1704.42
1930
1702.58
955.07
1136.94
975.446
1613.7
1360.84
1625.47
1402.49
763.367
930.042
821.823
1288.55
1129.15
1339.54
1204.19
626.179
792.659
723.554
1083.97
967.565
1169.44
1087.53
600.37
709.686
701.651
953.181
1025.66
1080.81
1141.74
652.107
706.449
708.111
1086.29
1148.72
1173.66
1182.45
649.018
704.888
685.714
1150.29
1122.91
1180.04
1151.7
1500.26
2177.21
1606.33
2540.6
2042.68
2764.71
2080.15
1194.83
1486.5
1258.47
1928.17
1696.27
1939.53
1737.7
986.344
1185.11
1042.73
1632.49
1421.26
1670.7
1493.96
845.372
1011.48
941.161
1362.99
1243.33
1452.16
1387.01
759.54
917.025
868.379
1213.4
1144.62
1367.54
1305.2
736.023
857.741
836.361
1140.18
1194.15
1294.35
1281.31
728.567
828.3
806.588
1200.96
1196.89
1276.1
1244.36
701.162
799.109
776.42
1193.14
1169.68
1237.66
1206.74
706.343
693.715
637.064
665.775
688.877
711.825
656.622
751.466
784.466
699.587
783.251
731.901
803.704
668.582
677.518
603.371
585.707
395.365
663.422
614.64
495.682
775.045
837.721
791.429
842.104
779.334
830.495
787.408
722.409
685.592
743.792
693.159
728.483
675.343
737.485
766.362
799.088
835.049
742.575
820.236
674.445
779.044
695.807
400.069
658.229
629.793
632.73
500.763
717.025
553.611
548.51
507.87
553.993
530.903
574.682
530.058
529.008
554.593
388.196
344.719
516.459
566.489
302.999
493.419
460.997
361.861
316.544
482.035
471.016
298.084
604.358
650.722
643.793
656.15
622.439
636.447
624.84
575.871
577.175
620.185
572.517
598.43
551.416
597.339
547.426
349.663
612.312
444.054
585.504
313.352
575.212
513.714
335.046
515.12
435.014
486.986
312.625
543.784
600.084
565.058
526.439
365.207
593.923
467.438
524.799
713.292
715.295
689.734
755.312
678.085
751.853
724.855
666.459
593.335
659.8
664.616
634.432
623.105
693.582
728.027
791.889
755.841
813.718
663.345
789.413
761.525
634.908
381.147
633.942
621.805
484.305
562.843
686.828
745.968
787.605
812.956
783.638
784.721
756.107
774.096
698.68
694.227
686.186
751.047
655.156
724.035
728.534
438.556
346.132
415.571
277.269
424.255
260.601
434.417
565.702
560.711
590.066
639.982
537.215
589.622
620.054
550.39
511.117
575.632
590.883
522.364
538.424
604.11
488.961
326.82
442.554
575.536
296.76
515.786
544.87
480.975
311.745
417.247
513.55
289.405
472.615
527.323
595.894
668.489
651.959
671.115
621.253
647.158
624.895
578.311
614.416
588.826
651.911
564.742
629.586
604.515
368.936
585.462
366.495
780.604
676.403
741.868
628.066
214.393
259.999
245.801
616.91
593.061
634.12
682.069
188.674
249.731
246.556
586.512
565.202
684.971
664.629
156.991
219.397
167.063
491.852
398.851
569.943
442.342
115.294
134.284
112.178
360.173
320.763
358.065
311.481
108.856
99.8504
97.8775
282.63
262.214
273.084
269.281
95.9765
97.6121
99.1349
261.039
258.308
268.357
269.464
86.4192
100.964
92.8148
252.421
269.123
267.632
285.342
435.435
431.509
281.882
831.422
700.379
668.571
518.255
307.697
265.348
287.091
406.744
354.626
363.41
216.01
296.677
121.209
122.679
284.567
315.324
273.446
122.001
538.139
188.319
184.362
519.528
529.237
524.204
194.751
395.287
143.098
172.807
434.055
376.783
449.493
152.166
210.241
78.5428
93.4893
221.636
187.537
248.432
78.8944
155.397
56.6988
56.4993
141.705
134.867
159.721
55.0453
170.797
61.9253
59.3804
146.229
149.116
166.375
62.1473
173.176
65.9148
65.8845
168.236
169.548
174.692
65.721
85.0189
90.8035
64.5618
246.379
255.469
204.533
210.603
159.102
312.815
216.617
411.094
391.981
547.757
468.83
246.122
89.4014
88.9176
184.811
241.794
188.469
86.5811
398.78
134.793
125.034
366.602
403.298
362.88
141.871
458.491
188.246
175.281
484.752
487.924
455.49
179.12
400.365
162.845
169.903
440.894
410.185
424.862
159.194
234.734
90.2163
113.995
285.236
232.133
288.268
91.8027
175.395
61.9522
63.1243
172.849
173.23
174.31
63.3855
164.705
64.7538
65.71
175.832
172.75
173.558
63.8797
130.807
52.7682
52.7916
144.971
138.154
135.214
50.9032
63.2356
87.9425
72.1242
183.387
195.981
193.853
212.221
289.07
499.795
293.723
723.832
547.047
716.514
539.382
252.038
112.143
153.252
262.801
266.272
250.204
107.861
294.141
107.393
97.5478
301.694
307.356
288.803
101.948
294.557
121.589
107.071
326.402
327.227
297.85
106.662
262.227
119.477
99.1609
314.727
307.407
268.474
97.9497
212.725
87.5595
87.5142
252.325
223.86
228.158
81.6818
179.467
66.1846
67.9235
178.993
175.664
181.835
66.6723
181.744
62.0038
68.2923
162.928
160.813
180.746
70.2246
173.236
61.8073
69.804
157.816
156.284
176.884
67.1884
77.7738
111.506
90.9623
225.448
235.243
251.315
266.843
287.261
489.593
350.595
686.4
560.966
732.612
585.047
286.396
116.862
166.733
264.965
277.245
275.904
126.758
340.52
115.994
115.631
324.978
326.391
337.864
119.346
321.87
113.842
120.521
317.142
310.104
330.661
118.685
275.827
92.4182
106.735
268.497
252.028
288.231
101.558
243.55
77.6206
89.8774
220.497
217.246
247.492
88.327
246.037
83.9791
89.4003
224.782
231.403
244.005
91.011
231.912
88.8995
91.0981
236.855
233.224
240.862
88.2806
193.253
71.9884
73.6497
202.148
193.245
198.517
71.232
97.1094
126.797
110.269
276.76
291.851
288.869
300.111
204.54
242.05
182.39
483.288
596.806
494.392
613.106
185.217
191.103
187.096
555.308
532.8
552.146
444.618
174.607
173.282
151.698
486.166
458.333
464.92
439.854
156.407
149.095
148.98
426.493
414.935
409.628
375.667
141.519
135.66
123.292
385.501
364.941
358.563
345.643
124.161
118.898
120.146