/*--------------------------------*- C++ -*----------------------------------*\
  =========                 |
  \\      /  F ield         | OpenFOAM: The Open Source CFD Toolbox
   \\    /   O peration     | Website:  https://openfoam.org
    \\  /    A nd           | Version:  10
     \\/     M anipulation  |
\*---------------------------------------------------------------------------*/
FoamFile
{
    format      ascii;
    class       volScalarField;
    location    "5.2";
    object      nut;
}
// * * * * * * * * * * * * * * * * * * * * * * * * * * * * * * * * * * * * * //

dimensions      [0 2 -1 0 0 0 0];

internalField   nonuniform List<scalar> 
12920
(
0.862169
5.53484
2.24923
3.53588
1.77095
1.80526
1.1871
1.12565
0.926712
0.920329
0.804877
0.706143
0.560258
0.518276
0.443516
0.400115
0.353548
0.316405
0.299323
0.277767
2.12649
7.36462
7.06764
5.54888
3.25069
4.50394
2.35698
3.62808
1.73821
1.86145
1.11928
1.04511
0.831617
0.837514
0.757507
0.75191
0.717509
0.716672
0.70612
0.70839
12.9827
14.4485
9.15638
7.01534
3.56038
4.73265
2.22291
3.03588
1.46441
1.62853
1.0735
1.10414
0.912391
0.936854
0.859509
0.868719
0.833093
0.829142
0.799275
0.785441
12.2878
16.1853
9.97991
7.71023
3.77449
4.37497
2.27428
3.37826
1.49116
1.90029
1.14951
1.27156
1.02003
1.06308
0.954744
0.941804
0.881279
0.854372
0.81208
0.787909
5.58555
12.7659
10.9956
8.00074
4.40354
5.08525
2.44231
2.8436
1.65377
1.71726
1.2482
1.28414
1.09366
1.10369
0.980565
0.950598
0.893138
0.866394
0.828173
0.791381
14.5411
13.235
9.84427
6.69694
3.80012
4.54562
2.14499
3.07206
1.77132
1.93108
1.46892
1.46264
1.22231
1.14141
1.00535
0.955794
0.907747
0.876348
0.840296
0.801881
12.8127
16.3654
13.3957
10.3482
5.53235
4.23434
2.37951
2.33116
1.74022
1.73612
1.42352
1.35772
1.13394
1.05665
0.967825
0.935594
0.891394
0.84438
0.807038
0.770772
6.32019
13.0199
12.7062
11.3528
5.40944
4.39871
1.04797
0.646149
0.556028
0.530813
0.430592
0.38971
0.362621
0.358435
1.18679
0.999097
0.88226
0.803764
0.767844
0.744036
4.69165
13.7911
11.5648
9.89898
4.52792
1.19132
0.363543
0.144951
0.229936
0.234713
0.139652
0.0964587
0.104407
0.113792
0.34584
0.837883
0.772358
0.726447
0.711322
0.71349
11.9884
13.7577
11.8956
8.52372
3.62156
1.32588
0.211781
0.205815
0.275247
0.257447
0.168301
0.105298
0.111654
0.0885461
0.251953
0.811925
0.78596
0.759214
0.741239
0.734275
2.46838
14.3732
10.426
8.73341
4.25561
1.18948
0.220637
0.173904
0.203038
0.190659
0.152438
0.105051
0.095591
0.093543
0.325953
1.03741
0.978246
0.91202
0.839851
0.762681
2.66803
13.8242
12.2044
9.87336
4.97073
1.40531
0.22428
0.193793
0.192561
0.158152
0.124031
0.121336
0.130323
0.112595
0.39733
1.18821
1.10071
0.991053
0.90362
0.792656
4.76661
11.8999
7.30225
7.9866
3.44453
3.29501
0.675369
0.894819
0.645772
0.665765
0.490372
0.439579
0.372653
0.36567
1.32495
1.23209
1.16755
1.03935
0.943408
0.827264
16.474
12.2963
4.84457
6.27894
2.07586
4.11202
1.92293
2.47557
1.81276
1.82732
1.51942
1.49285
1.36716
1.35174
1.30956
1.28077
1.202
1.04588
0.931924
0.828077
3.96522
12.4519
7.57641
7.76458
3.70454
5.99049
2.40346
2.33619
1.57343
1.51986
1.39757
1.42437
1.37145
1.36207
1.32518
1.29212
1.18953
1.00355
0.867057
0.773735
2.65862
12.5133
8.56645
8.3267
4.88313
7.0397
3.50433
3.42151
1.97285
1.71768
1.3655
1.35828
1.2681
1.26691
1.22153
1.19436
1.07521
0.904519
0.778239
0.693352
2.77559
8.59553
5.73021
9.15796
5.77472
6.53573
4.07373
3.24298
2.05254
1.76298
1.46344
1.39641
1.25076
1.18853
1.11668
1.07854
0.987456
0.849516
0.74844
0.65556
1.7801
9.24492
5.92247
8.55908
5.26951
5.17997
3.22687
2.62178
1.84849
1.72633
1.49211
1.45087
1.3028
1.23913
1.16178
1.13989
1.07708
0.94734
0.824095
0.672853
5.04627
12.674
6.76443
6.50448
3.57969
3.27538
1.9323
1.60256
1.1997
1.18458
1.02735
0.976268
0.879283
0.843359
0.794623
0.749413
0.715528
0.707584
0.70792
0.691539
4.94082
7.92376
4.8526
3.68966
1.96366
1.4627
0.986045
1.02467
0.848508
0.79655
0.632421
0.553991
0.450802
0.396749
0.339277
0.302488
0.275165
0.26876
0.271306
0.279685
2.4139
18.4361
20.4125
19.4056
15.1676
16.7633
9.23066
9.40848
6.4276
5.41457
3.90103
3.8234
3.27183
3.17579
2.89808
2.83787
2.69267
2.52409
2.3779
2.21958
11.7366
48.5668
33.5535
27.507
25.9948
22.1541
19.756
18.4326
16.425
15.5448
13.9681
14.0302
13.3877
13.2697
12.5717
12.4642
12.328
12.6164
12.8456
13.1999
11.8868
37.4026
47.8063
34.8788
30.4068
24.5061
22.0823
19.4212
17.2563
16.1123
14.4062
14.1698
13.4919
13.7038
13.6656
13.9511
14.0084
14.1987
14.2152
14.2136
18.9766
39.8402
40.8828
33.5478
27.9204
21.909
22.0883
18.4608
17.5847
15.7795
14.9551
14.7463
14.7431
15.003
14.8904
14.7764
14.4878
14.3885
14.263
14.1195
42.2768
57.9031
54.2086
37.8508
27.4832
24.0337
21.0792
20.4551
18.9349
17.948
16.7282
16.4196
15.7878
15.69
15.0193
14.7824
14.498
14.3963
14.2391
14.0466
60.0188
67.5135
53.4615
34.6089
27.9146
19.5734
20.1849
18.6556
18.3462
18.0288
17.0726
16.6636
15.723
15.2222
14.4438
14.374
14.2923
14.2955
14.2142
13.9586
25.561
60.0671
58.1776
44.1089
26.5886
20.307
17.4651
17.6812
18.0415
17.8409
16.6204
15.934
14.8643
14.491
13.8344
14.1169
14.2429
14.2947
14.2498
13.976
45.6268
45.507
41.0158
37.4212
21.5935
17.2656
11.6083
14.432
17.2058
15.3489
13.4757
12.7812
13.1255
13.4455
15.4185
14.5375
14.1336
14.032
14.0958
13.9889
5.90428
47.5159
37.0232
25.6999
13.6319
11.525
10.8901
12.4748
18.4683
16.6597
11.9735
11.2396
12.6016
13.0605
13.0187
12.7992
12.8723
13.1845
13.5569
13.9813
14.2173
47.3266
31.5268
17.6505
10.2946
11.3505
13.041
16.6523
20.4848
17.8826
12.5963
12.2114
12.2332
10.3467
9.58517
12.1772
12.6811
13.1218
13.472
13.8373
8.08175
41.2112
42.8012
30.7418
16.0238
12.6026
11.3013
15.602
17.8086
16.2652
11.8591
9.68655
9.3345
9.64597
11.5502
14.4674
14.1597
14.0374
13.884
13.6909
21.4678
39.7254
32.8012
26.693
14.8893
11.7282
13.75
17.4289
16.9636
15.3313
14.1779
13.8253
13.1967
12.3564
14.0744
15.8204
15.2622
14.7814
14.2969
13.6507
25.9843
32.6172
25.6838
25.7347
17.4405
19.9719
16.8709
19.7157
18.6503
17.3292
15.9901
14.9202
14.577
14.8039
17.4844
16.8873
16.4231
15.6173
14.9084
14.1516
26.9291
31.2537
33.9754
24.0491
19.7687
19.3663
19.0168
18.9125
18.5885
18.3091
18.1754
18.6297
18.8016
18.7135
18.3795
17.8664
17.0411
15.7504
14.7959
14.3243
8.89252
47.6423
49.3147
37.1488
29.3786
27.8122
19.8852
20.4773
17.6752
18.5777
18.7561
19.7329
19.8569
19.716
19.0798
18.3115
17.0015
15.5239
14.1695
13.896
12.8195
51.8427
49.3907
41.2941
36.6965
33.6886
27.2753
25.3273
20.8629
20.6838
19.286
19.6281
19.1119
19.2027
18.7144
17.9959
16.3579
14.3164
12.9774
13.0554
21.9815
39.5464
43.1217
42.498
38.9435
35.8728
26.9613
24.3996
20.2666
21.2495
20.7908
20.848
19.6534
18.9914
17.9924
17.2926
15.8806
13.6223
12.4177
12.4496
5.15837
32.4123
41.4457
43.6974
36.7785
31.0237
20.2169
19.1424
18.5313
21.1295
21.4588
21.7665
20.7219
19.9205
18.9293
18.2413
16.9965
15.0749
13.0807
12.0329
25.6367
44.5366
51.531
35.4682
19.3998
13.1504
10.0207
12.4066
14.6761
17.3306
17.9854
17.7219
16.6091
16.0585
15.6289
15.0924
14.2855
13.7997
13.8123
13.3061
14.1236
36.9114
15.1184
8.76063
5.25937
5.58761
5.21436
6.10319
5.03251
4.33699
3.42959
3.07584
2.71133
2.53082
2.32623
2.20496
2.1559
2.12032
2.06668
1.93566
1.39294
23.3355
24.7384
22.7755
20.0287
18.689
11.6246
11.126
7.07944
5.90013
4.58299
4.42296
3.89633
4.01512
3.79087
3.76835
3.60991
3.45768
3.27746
3.057
23.4941
55.8102
53.9268
42.7187
35.2006
29.5607
24.4072
22.5958
19.874
19.5777
19.2667
20.4027
20.9809
21.0736
20.6293
20.5978
20.5627
20.6935
20.7985
20.7989
19.1671
53.3035
66.0325
54.6095
45.0171
36.5984
32.2973
28.4898
26.1714
24.7688
23.6964
23.5165
23.0853
23.1229
22.9371
22.9887
22.8888
22.871
22.7315
22.5842
22.1596
62.606
65.9312
55.2195
45.5673
36.7547
34.1675
29.6228
27.936
25.8492
24.9884
24.5518
24.2381
24.0603
23.6671
23.3666
23.0079
22.8253
22.5946
22.3838
33.1081
75.5643
76.6857
59.2819
45.8397
38.7447
35.2412
32.5038
30.1746
28.1226
26.6023
25.7781
24.9248
24.4207
23.677
23.2333
22.8143
22.5431
22.2574
22.0078
48.2158
80.6686
73.4521
53.7677
43.511
35.3018
34.9222
32.2388
30.5957
28.927
27.2524
26.1416
24.9336
24.0908
23.2865
22.909
22.5667
22.289
22.0238
21.6171
63.4767
67.563
70.4279
57.5818
40.3632
36.1432
33.5446
32.3866
30.2918
28.8839
26.8784
25.7332
24.4074
23.6775
22.8361
22.6286
22.3874
22.1266
21.8999
21.4149
55.805
62.2427
54.6634
46.3709
30.9777
31.8352
26.819
25.7053
30.0275
26.3246
24.3514
23.3339
22.8793
22.2191
21.7264
21.4974
21.5218
21.6199
21.5962
21.3502
6.76236
61.5727
46.3896
37.1487
27.4436
27.4353
25.1791
28.548
30.4077
25.706
21.8177
21.2504
21.2431
20.3735
18.8388
18.1582
19.1637
20.1559
20.7702
21.1086
28.9883
56.0264
43.7189
31.0153
24.8446
27.0042
28.8184
30.5313
30.8829
26.0407
21.1502
19.6336
17.4436
14.7931
14.1232
17.2566
18.9142
19.8909
20.4216
20.8052
65.2038
61.2262
51.2945
35.1483
26.2278
23.04
25.5158
29.1835
28.4209
25.049
6.48986
6.20027
10.0711
13.3791
16.9463
19.7929
20.5314
20.7424
20.7171
20.6588
38.1399
40.16
45.4625
39.2437
26.6559
28.2765
31.5309
30.7518
27.7001
25.0391
22.4758
21.2153
20.3988
19.9026
20.6396
22.1357
22.1458
21.7994
21.3002
20.818
42.1007
38.7539
38.3666
43.6909
34.9459
37.596
31.5763
34.1121
30.3193
27.7513
25.9974
24.8059
24.3457
24.0576
25.2573
24.7194
24.0047
23.0938
22.2877
21.4876
20.5361
42.043
50.3697
45.6629
40.6378
36.6023
36.2411
34.1258
33.0279
32.0164
30.9466
30.4731
29.5456
28.5737
27.4612
26.1913
24.774
23.4435
22.5217
21.8501
18.1662
51.2631
61.6072
55.8887
46.4849
41.4269
35.3892
34.936
32.7223
33.1163
32.5568
32.1832
31.0399
29.701
28.1161
26.4454
24.6901
23.2395
22.2215
21.6801
14.3223
54.0114
63.7305
60.0547
52.2913
46.7854
39.9071
37.6738
34.8314
34.3657
33.0578
32.2468
30.7235
29.3956
27.6845
25.903
23.8744
22.2201
21.2486
20.9033
39.9808
65.8953
63.0194
60.1284
52.4531
47.2498
38.3887
37.1282
35.0768
35.5819
34.3558
32.9642
30.8082
28.9884
27.0252
25.2798
23.0811
21.4568
20.6269
20.1772
33.3476
51.7655
56.0585
59.0028
48.6722
41.2912
33.3463
34.2069
33.9337
35.1178
34.1789
32.8063
30.6738
28.7747
26.8639
25.1888
23.1439
21.39
20.2028
19.4874
56.3189
64.3698
61.8384
43.1775
28.4315
23.881
21.3248
23.9327
25.8696
27.4289
27.6658
26.7985
25.3022
23.8294
22.4783
21.3096
20.4455
19.8039
19.5966
18.6345
10.3623
36.3507
20.4115
13.3077
7.83328
9.71313
8.08214
7.85683
5.70488
5.09043
4.22642
4.00155
3.59719
3.36246
3.05213
2.84666
2.74307
2.54236
2.39564
2.18468
17.551
37.1651
30.3156
25.0788
22.2645
19.3422
11.304
8.81123
6.48593
5.45786
4.77296
4.69091
4.34018
4.55013
4.34926
4.30704
4.11924
3.9062
3.69044
3.39547
42.1483
52.7748
57.3397
47.9399
36.2107
28.882
23.3087
21.776
20.4994
21.3709
21.866
22.9258
23.3007
23.2505
22.9308
22.8352
22.7335
22.6372
22.5104
22.268
21.2675
61.537
67.8683
61.5323
50.2214
39.8304
34.571
30.8263
28.8281
27.6962
26.888
26.5056
26.0912
25.8056
25.4946
25.2853
25.0713
24.8723
24.6097
24.3386
39.6698
74.1673
76.9683
65.2917
52.5709
42.3198
38.0299
33.4272
31.3725
29.3419
28.2966
27.4986
26.8209
26.2816
25.7657
25.3683
25.0311
24.7309
24.4402
24.2581
87.8016
81.5398
81.5771
68.6202
54.6774
45.4588
41.5883
36.9165
34.224
31.47
29.7721
28.456
27.4029
26.5445
25.8074
25.2054
24.7503
24.3701
24.008
23.7838
56.2749
87.8753
81.2115
62.4738
51.6
44.1485
42.8073
38.4667
35.9447
32.8637
30.8032
29.0334
27.6703
26.5575
25.7598
25.0582
24.5472
24.0643
23.6465
23.2438
44.5597
70.198
81.0207
65.8696
52.3824
46.6319
43.4341
39.9497
35.6992
33.4538
30.4445
28.8063
26.9393
25.9672
25.1894
24.7058
24.3257
23.8735
23.4749
22.9342
80.646
76.0033
66.0449
54.8327
44.8872
45.2697
42.3781
35.3193
35.8404
31.3924
28.5751
26.4653
24.7659
23.5087
21.9042
22.8265
23.2229
23.36
23.1797
22.8257
53.8521
64.1388
57.2902
48.5894
43.6569
42.0216
36.4609
38.4902
34.2414
28.1759
24.8373
22.7933
21.3802
20.0736
18.3899
19.3075
21.044
22.1299
22.4687
22.6309
34.7375
62.4133
52.9731
45.0908
41.2396
40.7703
39.9461
36.5718
31.8096
26.4507
22.4812
19.7348
16.8959
15.3395
15.0555
18.203
20.4219
21.4745
21.8831
22.1765
27.097
48.0176
42.594
49.0224
41.6628
39.8384
38.6022
34.5945
29.9813
25.6241
11.2287
10.8924
13.0135
14.601
16.4153
19.6327
21.3299
21.9063
21.9906
22.0111
12.1318
34.9483
58.6859
52.4946
43.8556
43.8906
42.6203
35.1858
29.7477
26.3687
23.5467
21.7876
20.3369
19.5387
19.5418
22.151
23.0497
22.9834
22.6361
22.2563
22.7189
52.2531
55.6291
56.5509
50.4013
48.3779
43.9352
39.5952
33.3988
30.2473
28.1801
26.7925
25.9286
25.1378
25.7047
25.8818
25.3657
24.5398
23.7555
22.9164
58.0138
56.2231
64.7331
58.6969
52.6016
47.5074
44.947
42.3583
39.0079
37.5717
35.2345
33.9032
32.1669
30.639
29.2457
27.8012
26.3601
25.1512
24.2293
23.2823
46.2679
74.894
71.0767
65.9933
55.89
49.4893
44.9734
42.6416
40.8091
39.4736
37.9723
36.1012
34.0145
31.8904
29.8923
28.0203
26.4075
25.1336
24.1571
23.1679
65.1463
72.4687
75.7393
69.3561
59.4872
52.3679
46.5992
44.0143
41.8563
40.1196
38.455
36.2287
33.9313
31.6246
29.4709
27.488
25.7038
24.299
23.3778
22.5199
83.2863
77.8746
74.8291
69.1576
59.5561
52.1703
46.0239
43.8253
42.3255
40.7891
38.9401
36.2126
33.5592
31.0359
28.7967
26.8464
25.0488
23.658
22.6913
21.7265
63.8149
65.7965
69.1476
65.943
56.2222
48.0702
43.0268
41.7967
40.8807
39.5454
37.8394
35.1001
32.4999
29.9601
27.8345
26.0327
24.3558
23.0038
22.012
20.9907
56.6741
67.9447
67.5495
49.3956
39.3615
33.5703
30.67
30.8544
31.1719
31.1914
30.6675
28.6187
26.6687
24.4545
22.9349
21.7247
20.9881
20.296
19.8712
18.957
8.34397
35.0315
21.0468
15.6456
11.5775
13.1906
9.60563
8.31552
5.96457
5.4547
4.75147
4.50782
3.99611
3.61399
3.23395
2.95309
2.73334
2.49895
2.48822
2.45754
15.521
46.8012
16.888
17.0232
7.07958
6.54166
3.30188
3.43964
2.16779
2.6508
1.8841
2.15051
1.79593
1.92178
1.72782
1.68785
1.57655
1.4837
1.40221
1.27357
66.1013
60.6793
60.1299
45.4023
18.8063
26.5714
10.0447
18.8794
8.5143
13.6031
8.74898
10.4939
8.52834
9.19994
8.34651
8.59808
8.25526
8.30415
8.00119
7.89306
59.7394
70.8055
66.3003
60.7773
26.4216
37.2912
15.0513
26.3648
11.6956
16.2905
10.3736
11.8853
9.50427
10.1506
9.13604
9.39959
8.96955
9.02045
8.65629
8.54767
81.2305
81.5371
55.5887
65.5732
29.0334
39.8534
17.548
32.2119
13.0406
20.0992
10.9686
12.9197
9.74576
10.4115
9.22713
9.39049
8.90556
8.88846
8.51513
8.41307
80.2575
88.6583
77.7618
68.3803
33.6451
45.1017
19.822
27.383
13.7091
16.6291
11.1079
12.1996
9.78726
10.1405
9.10399
9.11574
8.67688
8.59727
8.22517
8.11507
96.4882
91.2656
79.4989
60.0974
34.2509
44.985
21.8656
37.8447
15.2963
17.9253
11.8798
12.4014
10.1472
10.1505
9.33631
9.04418
8.62961
8.38759
7.99149
7.80095
71.8933
74.4501
84.9925
70.0303
35.4767
49.3677
22.0994
29.1633
15.1868
16.1737
11.5192
11.6997
9.89539
9.84432
9.04907
8.76754
8.45801
8.19729
7.79461
7.54666
42.0474
78.4822
71.981
58.2229
32.922
51.1715
46.5561
41.1099
34.4243
29.7198
25.9529
23.6215
21.832
20.8616
8.66016
8.48833
8.34695
8.13017
7.79234
7.51902
72.361
46.1581
48.6146
43.575
28.0103
48.2985
45.2003
37.3267
29.7151
23.474
20.4079
18.5246
17.5388
16.7218
16.5392
7.73721
7.92912
7.89838
7.70541
7.53994
54.4418
56.9491
29.5675
37.3676
27.1235
44.6283
41.4679
33.1535
25.685
20.1965
17.1177
14.9529
14.1823
14
14.6645
7.3253
7.54284
7.61337
7.53604
7.46633
88.0346
54.0444
29.3615
48.0108
20.119
44.6375
39.6139
30.6939
24.5738
20.1505
15.6098
13.0168
12.6438
13.4863
14.9318
7.36268
7.49799
7.48142
7.35633
7.25517
47.2226
61.8829
35.8123
56.8007
25.9653
47.6774
42.9514
31.2318
24.9726
20.912
18.2257
16.4925
15.9126
15.595
16.6466
7.71982
7.80567
7.59208
7.34439
7.15168
75.8125
62.8012
34.7143
60.9743
21.6366
28.4286
43.5089
37.5397
30.5781
27.274
24.8999
23.4917
22.4763
21.6346
8.83197
8.54253
8.29752
7.9293
7.47726
7.14956
80.3173
68.4744
35.6237
59.3303
20.5739
49.2483
18.3776
22.9102
14.5725
15.1739
12.1407
11.9384
10.6653
10.2738
9.49663
9.00112
8.50595
8.08169
7.50806
7.15275
30.2049
83.6067
62.4554
66.9003
23.5218
49.3958
16.8319
20.4996
14.7446
15.0099
12.913
12.3038
11.0582
10.319
9.49434
8.9003
8.37005
7.91925
7.32262
6.96267
34.3119
81.2468
52.5569
70.389
23.5732
39.9165
16.8234
21.8883
14.8353
15.8617
13.0601
12.6747
11.0112
10.2481
9.17949
8.55
7.92684
7.54319
7.00118
6.68601
46.3091
84.0313
41.7996
57.7276
25.0221
30.5235
17.4042
19.2764
14.7012
15.0029
12.889
12.2549
10.7959
9.90239
8.89057
8.17204
7.5149
7.10443
6.57958
6.27506
91.8475
77.6414
52.073
57.1179
23.8757
25.1264
16.2137
17.4042
13.9106
14.3102
12.3476
11.7741
10.3358
9.49501
8.53138
7.89425
7.27783
6.89432
6.40022
6.05629
26.8559
64.1691
37.8521
36.4455
17.5458
17.4449
11.3862
11.899
10.0269
10.5716
9.42642
8.95772
7.85876
7.18011
6.62341
6.3653
6.15968
5.99098
5.70706
5.44015
0.419723
17.3668
7.58531
10.9644
5.10006
6.17825
3.49931
3.30288
2.17086
2.32975
1.87661
1.81224
1.46516
1.32482
1.14296
1.07518
1.01888
1.00614
1.03974
0.992725
21.9727
24.7593
6.97911
27.1348
23.7294
25.4649
6.79573
19.9407
6.18903
6.42066
22.9009
20.894
6.16215
7.53108
7.40594
24.7605
21.267
26.0885
7.50856
26.6633
22.9649
5.73444
20.3908
19.3258
6.72123
7.01308
22.1022
20.8957
0.16655
0.252459
0.145425
6.86609
7.82464
6.19174
9.10404
0.198035
0.148112
0.231077
8.81227
13.5475
10.1367
14.7678
0.258154
0.259828
0.273029
14.6019
14.3538
15.853
15.31
0.16461
0.257598
0.192022
13.4204
9.90912
14.3003
10.6554
0.102468
0.161258
0.105628
9.06938
8.00948
9.60312
8.83245
0.101927
0.102632
0.109674
8.08087
9.00292
9.09887
9.94085
0.115036
0.112022
0.105876
9.36037
9.94975
9.98329
9.3943
0.0994591
0.0990338
0.0604564
10.0771
10.5469
9.04639
8.27134
0.187215
0.223251
0.167666
8.34419
11.9274
7.44981
11.1967
0.260884
0.185706
0.2306
12.6396
15.6396
12.4963
14.7658
0.27224
0.236858
0.226883
16.2677
15.3813
14.9173
14.141
0.199807
0.219299
0.185761
14.4319
10.933
13.5063
10.9548
0.106866
0.163191
0.10946
9.76274
8.9673
9.92347
8.41839
0.111941
0.106327
0.101318
9.24894
9.79824
8.30807
7.90752
0.0966571
0.0951617
0.0847687
9.68458
8.67928
7.70743
7.31886
0.0601506
0.0836871
0.0684549
8.25272
7.62809
7.26794
7.64122
0.161737
0.232066
0.16868
6.86612
10.7671
7.46688
12.2946
0.19925
0.180354
0.185761
11.7811
13.7349
12.7539
12.9754
0.195651
0.181635
0.157211
13.8531
13.2283
12.7594
11.7954
0.167865
0.146695
0.125192
12.7797
10.6332
11.4821
10.6291
0.110083
0.120721
0.111849
9.75673
8.26753
10.3751
10.0888
0.0985863
0.111416
0.125591
8.0765
7.91714
10.1819
10.4774
0.0941786
0.126405
0.11996
7.92096
7.96366
10.3728
9.59956
0.0723935
0.113189
0.0870737
7.9369
8.17398
9.38145
9.79202
0.181019
0.295816
0.235451
8.3595
12.8
5.52094
13.0256
0.196409
0.243586
0.230665
13.1964
13.3577
13.5436
13.7509
0.168469
0.224082
0.219375
13.1336
12.1676
13.7098
13.3859
0.129639
0.209777
0.175167
11.8184
11.0825
13.2122
12.2876
0.119347
0.164602
0.148937
10.9224
10.8276
12.039
11.3269
0.131378
0.144402
0.12967
10.8753
10.6914
11.1694
10.3472
0.118814
0.122046
0.108587
10.4677
9.67007
10.1734
9.9807
0.0869748
0.107146
0.0880967
9.52807
10.0568
10.0927
10.9613
11.3261
10.489
12.8201
20.0384
23.3176
21.2882
24.6234
17.5483
13.9729
18.8885
24.6753
27.891
25.7176
28.8534
17.8267
20.0331
18.9616
28.0571
25.497
29.0174
26.1315
12.818
17.7036
13.4598
23.9523
20.3309
24.5523
20.4336
11.0816
12.4304
11.8684
19.731
19.2325
19.6993
19.1732
12.3058
12.1583
12.8397
19.3633
19.827
19.1819
18.7022
13.0484
12.7893
11.8967
19.8453
19.4937
18.295
16.6641
12.866
11.4556
9.94026
19.2753
18.6947
16.0823
14.5446
15.8866
11.5751
15.0598
24.7476
26.8888
22.2788
26.3351
19.856
16.4914
18.9165
27.5476
29.2823
27.211
27.9444
19.0675
19.0107
17.795
29.146
26.1816
27.572
25.1136
13.743
17.0257
13.3767
24.7004
20.4544
23.8661
11.8917
11.9628
12.1419
10.3133
19.593
18.6867
10.5878
9.01892
12.4724
10.0738
9.32951
18.5354
17.4091
9.12402
9.29587
10.8671
9.09075
8.69897
16.7896
14.7282
9.51272
10.3917
9.13551
8.6916
9.09104
14.1126
13.1387
10.8149
12.932
14.4384
12.741
16.429
20.0628
25.534
25.4865
27.5875
17.7379
16.8439
16.8483
26.2947
26.9023
27.3823
26.0034
16.8615
16.5489
15.3737
26.562
24.4566
25.3992
23.6097
12.9594
15.005
13.8082
23.4893
11.5834
23.0449
20.185
9.97717
13.4402
12.9076
10.2232
8.25759
19.3771
18.3094
9.3018
12.9428
13.0696
8.26913
9.32551
18.2859
18.2944
9.57839
12.9259
12.2152
10.0751
12.0879
18.2113
17.9142
9.82877
12.0356
12.1036
12.6858
14.2951
17.8741
18.1683
17.0668
8.61791
17.543
26.8428
28.4193
15.7785
29.6679
17.2981
18.0653
18.1771
28.1059
26.4337
29.4841
28.0853
15.7328
17.8493
17.0253
25.746
23.8543
27.1766
25.1636
14.4153
16.7437
15.7156
23.3307
21.6195
24.7137
23.4648
13.8501
15.3342
14.4973
21.1024
20.1624
22.954
21.8838
13.4554
14.2799
13.5006
19.9817
19.4004
21.6182
20.9807
12.4688
13.2961
13.2197
19.1858
18.7376
20.8162
20.6875
12.4699
13.2978
13.7408
18.6834
18.7841
20.6776
20.9298
27.426
25.6589
28.3302
32.7781
37.2112
36.9095
36.3571
30.6173
29.2027
31.1499
37.1041
35.3738
36.1086
34.1903
27.2458
30.9267
27.5022
34.1967
29.6906
32.9735
28.547
22.3898
25.935
22.109
28.3395
25.6554
27.1827
24.1336
21.2275
21.4344
20.6924
25.0149
23.6035
23.4711
21.9375
21.3633
20.5556
19.6674
23.3145
22.4942
21.4446
19.7407
20.6392
19.1666
17.4352
22.0937
21.0562
19.1519
17.6411
19.6499
16.8721
15.3827
20.7787
20.1423
17.2655
16.375
30.0605
26.9777
29.4952
37.6577
36.5613
36.95
35.4847
31.3226
30.0062
29.8505
36.0912
33.7183
34.7993
32.0135
27.5009
29.2873
26.4183
32.4888
28.4006
30.9632
27.6824
25.0562
24.545
26.0599
26.912
24.3382
25.482
26.8988
19.3539
20.6146
19.7078
22.2335
18.9307
21.6335
20.2204
18.1179
7.15679
8.79929
20.2806
18.1934
8.62136
10.869
15.3575
9.31871
10.7642
17.5003
15.9071
11.3559
12.6558
13.9456
11.3599
13.7099
15.6014
15.2722
13.2108
14.9768
28.7637
30.1441
30.5545
36.5016
35.0564
39.701
35.9808
28.9403
30.0693
28.1223
34.2915
31.4868
34.6145
31.0072
25.8846
27.404
25.406
30.4954
27.4522
29.9619
27.4462
14.7967
14.3466
24.3016
21.8329
18.8817
3.00469
24.996
7.37345
5.98289
9.85191
1.21715
9.21403
1.15285
7.51484
8.97888
19.3162
19.3353
8.1762
11.5023
20.7322
20.1715
12.6563
19.2649
19.0228
12.3181
14.1471
19.9568
19.4934
15.1384
18.9943
19.1671
14.7077
15.9792
19.4147
19.3114
31.3653
18.7949
32.8183
40.9967
36.5579
23.5022
38.3973
28.5003
32.3403
30.3524
35.0635
31.2334
37.1584
33.6726
25.6086
29.2608
26.9261
30.1312
27.5403
32.1624
29.0702
23.0598
26.4372
25.1805
26.8774
24.6313
28.5456
27.2531
21.4225
24.6345
23.5399
23.9854
22.6837
26.6466
25.4028
20.6064
23.2648
22.6748
22.366
21.412
25.1406
24.5184
19.965
22.494
22.2949
21.1312
20.5174
24.2739
23.7807
19.8217
22.2407
22.2896
20.3911
20.0364
23.6416
23.4573
39.0264
39.6103
37.5805
42.7728
39.8583
42.8064
37.0088
35.6898
36.9099
33.8464
38.3203
33.25
35.2865
29.7379
29.4244
32.3814
27.8014
31.1521
25.8233
27.8319
23.1335
25.5682
26.5212
23.6549
24.7858
22.3897
22.0363
19.5702
23.136
22.9778
21.2726
21.4636
19.6502
18.9235
17.2619
21.8112
20.7198
18.8944
19.327
18.5079
16.769
15.663
20.317
18.3376
17.0358
18.1402
17.3949
15.4467
14.9722
19.5726
16.7343
16.0616
17.2095
16.985
14.8381
14.564
37.4069
38.8256
36.0919
41.9396
36.1624
40.3339
34.1562
33.2347
35.0275
31.5156
34.4123
29.0131
32.3331
27.5144
27.6399
30.3501
27.1548
27.2202
22.9919
26.1242
22.9119
23.3003
25.4553
11.8611
21.9501
19.4208
21.846
17.2805
20.3843
10.8486
10.6168
18.7227
16.8276
16.1605
14.0238
17.5474
11.0363
11.9414
16.2176
14.7697
13.5231
12.4633
15.5704
12.1653
13.0227
14.5509
14.2126
12.4418
13.006
15.1349
13.4429
14.8015
14.133
14.1017
13.1827
13.7285
35.7408
41.5595
36.4377
40.4058
33.8739
42.6497
34.3003
31.0844
34.7992
30.7264
31.9952
27.2721
32.1522
27.2545
26.9948
29.5889
26.9672
25.9498
22.9123
25.9498
23.0209
12.315
26.2046
22.9015
21.8876
17.2736
22.2592
19.8475
10.4203
22.0618
20.7097
16.16
14.0855
19.1323
17.4975
12.592
20.4478
19.5252
13.6461
12.806
17.0552
15.9439
14.1885
19.2389
18.6919
12.8326
13.421
15.7982
15.5926
15.618
18.5945
18.53
13.5859
14.0294
15.5185
15.479
36.9334
26.4158
38.9079
43.8234
34.7167
31.6585
37.3109
30.9323
37.4995
33.6771
32.4799
27.4991
35.5484
31.1832
27.0366
32.0311
28.738
26.1607
23.1301
29.2109
25.6086
24.1873
28.2199
26.886
22.4085
20.3541
25.0217
23.5914
22.1591
26.263
24.9518
19.7401
18.2302
22.8872
21.5569
20.6467
24.6994
24.0267
17.8061
16.8253
21.3078
20.7093
19.6797
23.7724
23.1942
16.6614
16.3027
20.416
19.835
19.2366
23.0484
22.894
16.1906
15.9965
19.663
19.5623
39.0917
42.6183
35.9955
12.097
10.5944
11.9244
8.67687
31.8462
34.0611
28.1433
9.4209
7.30987
8.20111
6.91392
24.4755
26.2325
21.512
6.79174
6.3822
6.63378
5.21723
21.2651
20.3988
18.0193
6.08187
5.77144
4.91483
4.43702
18.8035
17.417
16.0029
5.67607
5.67527
4.35208
4.35897
17.8498
15.6684
15.0984
5.57624
5.51391
4.50813
5.78917
16.9009
14.9998
14.6994
5.51145
5.50977
5.78345
5.77286
16.6088
14.5826
14.4484
5.46743
5.23711
5.74994
5.512
35.068
39.4997
32.8947
10.5839
8.32162
9.62608
7.31016
27.4845
31.0167
26.1467
7.90711
6.81987
7.10779
6.2172
21.262
24.7011
21.1108
6.29587
4.8763
5.62176
4.38294
17.7719
20.089
16.6151
4.57383
4.05815
4.11482
3.54037
15.4284
15.6251
13.4516
3.95743
3.87907
3.40164
3.11505
14.227
12.9182
12.1704
4.0045
5.34085
3.17108
4.42966
14.0682
12.3626
13.0606
5.78296
5.77147
5.23596
5.69644
14.053
13.2026
13.7075
5.75025
5.61107
5.67406
5.40559
32.6028
41.7629
33.0436
7.94464
7.08169
8.66976
6.96206
25.9459
30.8849
26.0394
6.93755
6.13031
6.79688
6.23661
21.1396
24.7238
21.4717
5.55312
4.34728
5.81525
4.60542
16.6001
20.6297
18.2925
4.08124
3.5202
4.34752
3.86808
13.503
17.6137
16.0285
3.38168
3.08832
3.77414
3.63132
12.417
15.6371
15.0978
3.14605
4.3837
3.75404
4.97727
13.3537
15.1032
15.0733
5.17861
5.64449
5.46109
5.45179
13.9367
15.0157
15.088
5.62419
5.44917
5.44682
5.2418
33.4849
36.836
36.2235
8.16211
7.03084
10.4049
7.82579
26.2991
34.4109
30.0157
6.83246
6.17432
7.52307
5.7727
21.7284
28.1063
24.5728
6.06593
4.84031
5.90428
5.47549
18.819
23.9497
22.5179
4.58707
4.16191
5.50435
5.01492
16.8172
21.8266
20.5751
4.08937
4.00689
5.17192
4.97836
15.9818
20.3325
19.8037
4.14894
5.3959
5.07814
4.90924
15.6909
19.5174
18.9797
5.39705
5.38802
5.04027
4.90168
15.5545
18.8007
18.8235
5.38573
5.27762
4.98679
4.65924
23.0198
23.1255
20.8509
23.0487
22.4558
24.1421
21.4112
21.6152
25.635
14.8687
22.3558
22.8357
26.2534
4.12949
16.801
16.4132
9.10862
1.64647
18.7395
14.6486
2.22358
25.4011
27.2892
25.8893
27.0757
25.9444
27.243
25.3959
23.378
23.6436
24.731
22.0226
24.6909
21.7693
23.5893
21.6485
22.1942
26.5466
14.3422
26.5387
4.07378
23.3264
16.6253
1.98703
16.3485
8.55463
14.4318
2.46603
18.8177
18.5346
20.2407
17.7795
20.6936
18.2732
21.1366
17.9758
12.6313
15.0683
5.65118
1.40795
14.1338
13.4948
1.30795
11.717
13.0614
5.63467
4.0723
13.3022
11.9485
2.4017
19.6111
22.8207
22.187
20.8379
22.1543
20.5665
19.8458
18.7059
20.9978
21.526
18.2606
21.5543
18.0902
18.9698
12.2779
1.7081
14.9721
5.93378
13.2858
1.6687
13.9133
11.4548
4.24867
12.9623
6.39301
11.7817
2.23021
13.1986
9.92517
9.23303
11.0539
1.46881
13.5996
2.02253
8.25234
23.0511
24.4455
23.7684
25.9385
22.5622
25.5529
24.8313
19.4587
17.3453
22.538
22.0345
19.6008
17.1788
23.3979
15.3681
21.9201
14.5866
25.8221
3.23718
25.526
19.9134
10.5786
1.92152
9.16507
12.6027
2.4912
9.1191
14.684
23.5989
26.5782
26.3119
25.5596
26.1886
25.4346
24.1989
20.0328
22.6237
19.1229
24.2038
17.8833
23.961
21.1171
7.94816
5.40975
9.2874
2.81032
9.03021
1.3922
8.59591
15.5125
16.0964
19.7953
21.1465
15.4314
16.0742
20.541
15.464
15.2584
19.449
20.1081
15.1717
15.7007
20.2257
8.46427
1.6341
6.33611
11.6887
1.61573
8.45266
11.3235
9.05523
3.25421
6.0497
11.929
2.13096
9.7411
11.4867
16.3071
21.7467
18.0894
21.4751
16.8546
21.1309
17.4676
16.2834
20.6609
17.3841
21.1287
16.4913
20.8198
17.3155
0.765789
1.04256
0.731106
5.83273
5.58326
5.52623
5.25146
0.597447
0.655355
0.653129
6.48146
8.03211
6.63601
9.05866
0.575088
0.668525
0.698523
8.95042
9.40007
10.3909
10.7313
0.485572
0.697161
0.520352
8.45309
7.00706
9.78251
7.94989
0.389136
0.418699
0.36632
6.57379
6.28196
6.75852
6.14868
0.380808
0.361552
0.352617
5.99435
5.88072
5.90485
6.55321
0.361193
0.350798
0.364451
6.27643
6.91715
7.03726
7.52915
0.317628
0.377093
0.330358
6.97268
8.75872
7.63031
9.65289
0.858952
1.25362
0.713575
6.48485
6.1654
5.71775
5.24666
1.9172
0.280239
0.309297
2.30256
2.18667
2.06174
0.230037
2.95565
0.14748
0.138001
2.54312
3.16745
2.45114
0.140508
5.74489
0.248358
0.227373
5.6512
5.75597
5.60648
0.252154
4.76212
0.215044
0.250485
5.15149
4.53802
5.17471
0.227858
2.86986
0.123362
0.143427
2.83831
2.44081
3.32147
0.123664
2.53168
0.0977968
0.0943315
2.05068
1.97456
2.46143
0.0951895
3.17212
0.110923
0.104614
2.40342
2.47038
3.05244
0.111095
3.34162
0.116175
0.114411
3.11665
3.14482
3.36459
0.113222
0.274749
0.281701
0.199766
7.71102
9.06713
6.35354
7.58748
0.60054
1.34649
0.647732
5.06376
5.35627
5.54637
5.46882
2.91512
0.175856
0.201632
1.75336
2.57459
1.8758
0.165152
5.0058
0.22001
0.231506
4.20286
4.70025
4.59925
0.247424
5.63523
0.279772
0.276618
5.72255
5.78155
5.60375
0.275095
4.91751
0.239233
0.250575
5.28145
4.96596
5.19451
0.234373
3.09882
0.139095
0.169771
3.65467
3.05483
3.72243
0.139673
3.05871
0.1069
0.105738
2.8394
3.0288
2.85283
0.107874
3.15064
0.109457
0.109379
3.31255
3.28849
3.25895
0.104617
2.68418
0.0822989
0.0816611
2.84704
2.78232
2.70568
0.0780656
0.196612
0.27363
0.229039
5.78199
7.20143
6.00121
7.67411
0.679013
1.27595
0.705065
5.77536
5.40326
5.45999
5.16326
2.2241
0.16562
0.231963
1.99075
2.40663
1.83093
0.162649
4.16694
0.180494
0.163802
4.04205
4.31043
3.90902
0.17047
4.17677
0.202699
0.178752
4.60306
4.60414
4.22608
0.176152
3.87178
0.185016
0.159436
4.40753
4.30517
3.90363
0.156
3.22494
0.134515
0.135986
3.60528
3.24576
3.42517
0.126642
3.03478
0.103404
0.104806
2.87208
2.94753
2.94641
0.102985
3.35031
0.0946817
0.103581
3.04277
3.07208
3.32255
0.106097
3.15075
0.0931766
0.10433
3.03067
2.99125
3.21923
0.101301
0.257322
0.362612
0.29984
6.72076
8.40278
7.3621
9.06912
0.739539
1.47453
0.804555
5.17635
5.79359
5.73922
6.24792
2.5284
0.172729
0.241923
1.9692
2.57512
2.01003
0.183269
4.47812
0.198666
0.198818
4.18524
4.33646
4.30542
0.206197
4.49106
0.186428
0.203926
4.35447
4.32759
4.54349
0.200803
4.09543
0.146936
0.172843
3.92465
3.7735
4.19931
0.163366
3.82998
0.120849
0.140276
3.49047
3.47912
3.86499
0.137284
3.87796
0.126133
0.134399
3.71369
3.81729
3.8747
0.136093
3.60562
0.129783
0.133144