/*--------------------------------*- C++ -*----------------------------------*\
  =========                 |
  \\      /  F ield         | OpenFOAM: The Open Source CFD Toolbox
   \\    /   O peration     | Website:  https://openfoam.org
    \\  /    A nd           | Version:  10
     \\/     M anipulation  |
\*---------------------------------------------------------------------------*/
FoamFile
{
    format      ascii;
    class       volScalarField;
    location    "5.2";
    object      omega_0;
}
// * * * * * * * * * * * * * * * * * * * * * * * * * * * * * * * * * * * * * //

dimensions      [0 0 -1 0 0 0 0];

internalField   nonuniform List<scalar> 
12920
(
92.8951
110.108
99.832
94.5915
90.9363
84.6658
77.4808
73.528
70.7217
68.5913
63.7633
54.0076
47.4818
43.8891
41.1798
38.8486
36.9977
35.3426
34.8774
33.9863
143.996
216.082
138.621
110.008
102.708
89.4188
82.7476
77.1482
71.1399
65.4616
58.2059
53.8849
51.0095
49.9542
48.67
47.9746
47.2746
47.0365
46.9947
47.0397
328.932
288.769
213.593
136.664
112.116
93.6928
81.0079
71.857
63.5289
59.0675
54.6807
52.8109
50.9183
50.0531
49.1331
48.6217
48.1502
47.9039
47.6315
47.5221
391.361
320.295
233.32
149.843
110.146
86.5493
78.1719
66.8617
60.9779
56.2102
53.3521
51.9841
50.9184
50.3189
49.5858
48.8841
48.1975
47.7067
47.3739
47.1114
270.57
256.151
217.638
157.723
120.661
100.683
86.3066
76.7979
69.4012
63.1506
59.2697
56.8714
55.085
53.7669
51.841
50.4425
49.4757
48.7871
48.4122
47.5884
379.255
259.31
193.879
131.909
113.28
89.9521
83.6052
75.8131
71.2354
66.7542
63.3753
60.5056
57.503
54.534
51.9305
50.4519
49.7195
49.2085
48.953
48.0952
266.169
327.56
266.145
204.065
160.194
123.585
99.7666
84.2814
77.7707
71.8464
66.7881
61.9077
57.0655
53.4346
51.7664
51.0828
50.623
49.7357
49.3767
48.4596
218.386
262.879
255.486
223.954
177.551
142.964
218.019
137.629
125.586
114.23
104.256
93.221
89.7388
87.0339
57.467
53.9074
51.3505
49.4642
48.8696
48.3159
208.249
277.609
238.817
196.129
144.827
207.492
338.335
196.329
241.393
223.228
168.141
134.866
137.139
143.147
92.6349
50.9011
48.6209
47.3027
47.1316
47.4177
259.01
277.511
239.535
167.449
111.204
125.482
177.254
195.356
242.162
234.985
186.079
140.014
143.586
132.476
80.5859
49.4074
48.1804
47.4481
47.2302
47.3183
153.668
292.573
278.161
202.824
150.086
195.514
216.042
181.586
195.229
196.06
176.648
145.959
140.19
140.376
89.539
54.6243
53.0276
51.641
50.0592
48.0726
165.173
279.221
254.352
194.215
153.773
189.712
219.592
189.8
191.67
176.784
158.184
159.799
168.481
154.391
98.3719
59.2668
56.9445
54.5386
52.6228
49.4061
188.969
238.7
203.962
166.938
128.498
97.4873
135.984
121.909
118.545
114.247
108.253
102.161
96.6851
95.2621
63.4056
61.3303
60.0468
57.0641
54.7682
51.12
367.593
241.498
169.097
123.156
97.6837
88.9903
80.3665
76.6236
72.6899
69.9764
67.4048
66.2713
65.2291
64.7902
64.4128
63.9568
62.5344
58.2718
55.2183
51.4636
175.274
247.667
189.967
153.835
126.634
120.728
98.0546
88.766
77.5132
73.8529
71.7452
71.1266
69.8552
69.0355
67.9984
66.8285
63.9441
58.3306
54.0178
49.8698
138.748
252.536
198.012
165.339
146.769
139.61
119.479
107.026
88.8245
79.2053
73.0819
71.1905
69.5858
68.6474
67.5487
66.2395
62.5472
56.2751
51.5362
47.2851
155.711
169.984
182.056
182.977
177.518
169.864
144.746
120.906
98.3054
86.3011
78.8784
75.0031
71.3961
68.909
66.9786
65.4432
62.135
56.3961
51.7421
46.4775
92.2738
182.518
190.552
189.498
178.774
162.936
135.573
113.363
96.3427
87.4675
81.4051
77.6625
73.7915
70.8935
68.7815
67.7502
65.849
60.971
56.3669
49.0458
153.081
268.956
232.605
176.14
147.218
124.452
101.347
84.0796
74.7023
70.4004
66.4333
62.7759
59.7085
57.266
55.3543
52.9894
51.4546
50.5017
50.4693
49.7249
250.984
260.103
230.017
178.877
127.229
92.9437
77.3271
72.4194
66.958
61.757
55.4629
50.3008
45.3454
41.5861
38.2202
35.3985
33.6103
33.2306
33.812
35.2166
65.6577
67.2786
64.8176
61.8613
58.8033
53.1477
47.3529
44.1476
41.6225
37.7363
32.6361
28.6271
26.1887
24.931
24.3923
23.9704
23.6718
23.0428
22.7169
22.1277
253.388
111.359
76.5015
57.0074
48.9572
43.9515
39.6453
37.4662
34.5301
32.6647
30.3052
28.8558
28.3806
28.2775
28.2096
27.8863
27.377
26.745
26.2108
25.6245
163.685
178.231
113.645
66.3499
51.1757
42.7095
36.9146
33.2286
30.6353
29.3925
28.8281
28.317
27.6813
26.8245
25.935
25.1538
24.6159
24.2268
24.0187
23.9643
162.343
188.989
141.315
76.9719
53.3254
42.6376
36.463
32.203
29.7531
28.1842
27.2641
26.2705
25.2662
24.3885
23.8959
23.5912
23.5319
23.4989
23.5542
23.7045
257.612
143.133
102.323
74.2157
60.4051
50.2633
44.1926
37.9829
34.1637
31.4012
29.8417
28.5327
27.5606
26.4363
25.7064
24.93
24.5351
24.2688
24.2286
24.1058
314.598
135.569
85.4998
64.731
58.8985
51.354
47.806
42.0799
38.0339
34.321
32.3272
30.3719
28.9293
27.4509
26.5243
25.4463
24.9455
24.6287
24.5946
24.4242
362.303
216.415
126.404
100.153
93.9697
80.7687
66.3009
54.4398
45.5874
41.3764
37.1434
33.3707
30.1093
27.4397
26.562
25.5982
25.2708
25.1214
25.1614
25.2212
270.673
203.21
160.55
146.328
130.845
110.385
101.639
73.2518
50.8846
45.1066
40.7828
34.1074
29.7999
26.7471
24.8793
25.3677
25.3729
25.2577
25.22
25.3829
124.781
138.692
113.346
120.395
99.9448
103.067
99.4267
82.3875
54.1994
43.6186
39.3833
33.6445
28.2063
26.1
25.2704
24.7606
24.5371
24.2311
24.1961
24.5064
177.152
140.345
118.881
106.926
82.3981
64.6928
59.2916
52.4524
42.7749
39.3929
37.5668
30.2533
27.0248
26.6546
26.1282
23.9436
23.7398
23.661
23.6946
23.9289
139.212
190.934
171.951
148.804
115.994
99.8692
71.9877
44.2626
36.1404
35.0749
36.0047
33.6573
30.8258
28.9583
25.8051
23.7011
24.3948
24.5996
24.5844
24.3613
207.501
172.64
155.216
140.606
118.112
101.966
62.5477
41.7046
37.1085
34.6996
32.6744
31.8735
31.4821
29.7272
25.984
26.0698
26.6597
26.6609
26.5589
25.8127
245.248
256.618
181.327
116.034
84.5012
57.7253
55.5262
42.7749
36.3776
33.7125
32.7836
31.747
30.5564
29.4195
28.3928
28.6929
28.8266
28.6664
28.3903
26.9636
320.5
216.249
106.343
71.3037
59.8276
53.4102
46.9725
42.5786
39.232
36.7586
34.4872
32.7694
31.6038
31.0873
30.8358
30.7177
30.6226
30.1084
29.5332
27.2602
260.324
156.682
91.5057
68.9766
59.3103
58.6702
54.8909
50.0418
46.7426
43.086
40.0728
37.3315
35.3003
34.1273
33.3605
32.8047
32.2872
31.1211
30.11
26.6686
281.571
142.186
89.5538
72.9756
63.7788
61.7495
54.9458
51.9724
47.5083
43.6821
41.0308
38.8636
37.363
36.1134
35.1631
34.662
33.9828
32.2618
30.1953
25.8517
207.776
132.167
101.183
95.7524
85.3935
82.4325
74.3161
66.3091
56.1461
47.492
42.0668
39.2343
37.8199
37.0029
36.7174
36.5975
36.303
35.0927
31.7918
25.9569
138.711
138.554
113.32
98.6576
88.0397
86.3555
81.6576
70.9741
58.2905
48.4365
42.6431
39.5204
37.6658
36.7154
36.2877
36.3896
36.7335
36.5044
35.401
29.5952
235.513
211.164
116.202
84.6397
83.3704
81.2858
69.5238
53.7294
43.5821
37.5439
34.8199
33.5589
32.8933
32.0055
30.8469
29.843
29.413
28.5486
27.6098
26.6572
130.223
126.278
93.6594
67.8941
49.6289
43.1099
42.1695
41.5944
38.5018
34.0607
30.6102
28.2266
26.4675
25.0531
23.8288
22.7492
22.3053
22.0419
22.0679
21.7036
59.9906
82.2899
78.4924
72.5499
66.7913
59.2608
52.5751
47.4066
42.7476
37.3744
32.4193
28.9518
27.2024
26.6416
26.5477
26.28
26.1243
25.738
25.5293
24.9511
174.326
128.194
70.6841
51.3186
44.8626
39.9445
38.0344
35.4337
33.0551
30.7779
28.1086
26.7592
25.6884
25.4459
25.1071
24.9785
24.6874
24.5714
24.4071
24.4213
238.193
149.78
94.5136
55.8929
43.9695
35.7015
32.4879
29.1118
27.4557
26.2168
25.3304
24.7396
23.9531
23.4611
22.8818
22.6028
22.3538
22.3041
22.2791
22.3703
145.263
145.874
98.4506
57.4179
42.8074
34.1736
31.5116
27.4599
26.4165
24.6609
23.9362
22.97
22.2868
21.7651
21.4963
21.4051
21.4129
21.5045
21.6099
21.7976
230.314
170.877
102.742
60.926
48.29
39.6791
36.3959
31.5384
29.1977
27.0115
25.7471
24.534
23.6346
22.8522
22.3485
22.0303
21.8714
21.8333
21.8353
21.8246
239.064
157.264
81.1047
56.1861
50.2173
40.8225
40.2874
34.5365
31.751
28.5319
26.8781
25.2737
24.1628
23.2857
22.7841
22.3747
22.2029
22.0994
22.0641
21.9193
456.355
304.183
125.178
85.4967
71.6872
59.0571
49.7898
42.4584
36.7443
32.6975
29.2191
26.4573
24.5862
23.4343
23.1189
22.922
22.925
22.9195
22.8968
22.7113
240.41
184.376
116.906
103.914
84.8443
70.7718
66.4805
51.0558
40.1522
34.6496
30.7133
26.4256
24.2509
23.1331
23.8726
23.8403
23.7555
23.6085
23.5592
23.44
207.4
123.802
78.6047
70.6502
64.3266
67.297
68.8094
54.915
39.8937
33.3986
29.2393
25.9139
23.9551
23.459
24.1723
24.7405
23.938
23.5535
23.4417
23.4673
156.604
130.859
78.4493
64.9256
57.1471
49.3489
48.8618
41.6853
34.9823
31.2089
28.5399
25.9923
25.3859
25.9697
26.0393
23.9406
23.0352
22.7556
22.749
22.8787
359.769
343.605
169.08
102.162
72.9087
63.1758
48.4323
35.1886
30.9215
29.8153
64.3834
52.3036
35.374
27.7892
23.7108
22.9806
22.7057
22.6013
22.5657
22.5403
286.403
142.734
94.7216
86.2205
70.1999
56.7267
44.2049
34.1877
31.1254
29.1328
28.3892
27.5284
26.0272
24.4273
23.536
24.0099
23.7817
23.5072
23.3239
22.8184
364.384
195.844
108.87
70.1777
55.4479
42.3712
41.6544
35.3379
30.4432
28.5809
27.2516
26.3055
25.5184
25.0846
25.575
25.297
25.105
24.6724
24.3186
23.2627
188.4
163.127
90.9746
53.2372
47.4314
41.1803
37.8625
34.497
32.0111
30.2891
28.8812
28.0389
27.472
27.1992
26.9258
26.6075
26.2441
25.4811
24.841
23.2967
232.471
189.153
98.7757
56.3853
48.1747
44.0337
42.0803
39.4029
36.8322
35.0156
32.8998
31.5085
30.2212
29.4879
28.8036
28.102
27.2459
25.9969
24.8803
22.786
164.21
163.844
88.8569
60.9021
53.1448
48.328
43.8474
40.7192
37.9956
36.0973
34.3672
33.2504
32.0888
31.3421
30.5181
29.6342
28.298
26.3319
24.5942
22.3129
277.111
141.19
93.0793
78.9659
66.9169
60.3138
52.7844
47.658
41.6572
38.1433
35.3692
34.1701
33.1223
32.6596
32.1502
31.6564
30.4494
27.6246
25.0016
22.1081
217.77
140.066
111.624
83.0776
69.0424
62.6812
55.3816
49.4558
42.8084
38.9272
35.923
34.5911
33.3165
32.7764
32.2467
31.9541
31.2817
29.2949
27.1533
23.7239
502.011
238.574
114.802
71.4489
62.9809
58.3804
49.9581
43.4136
37.0909
34.3455
32.0521
31.1008
29.9654
29.1916
28.2057
27.3661
26.4902
25.4966
24.6697
23.9807
118.311
121.494
104.62
71.2624
55.3325
53.295
50.6263
45.4061
39.673
35.1008
32.1181
29.9704
28.4438
26.8817
25.6256
24.4549
24.0044
23.1723
22.6838
21.9211
105.09
120.271
94.7761
79.5385
70.7178
61.2898
53.1935
45.2782
39.4899
34.0031
30.5809
28.3415
27.5908
27.4153
27.4376
27.1524
26.9916
26.5527
26.3392
25.6668
312.367
174.39
87.3221
58.1828
50.0009
43.9613
43.2554
38.7236
36.0625
32.3363
30.6206
29.4869
29.0956
28.8588
28.7539
28.799
28.8433
29.0711
29.2236
29.5916
146.475
147.949
111.735
63.0651
47.5188
38.4982
35.8806
31.7707
30.7599
28.8875
28.4189
27.4677
27.036
26.5821
26.3925
26.3252
26.3459
26.4928
26.6213
26.8645
201.386
145.226
91.668
58.0541
43.8876
36.1703
34.0289
29.7619
29.2382
27.141
26.8073
25.6708
25.4527
25.0107
25.0373
25.0418
25.1969
25.4227
25.6216
25.8241
268.382
207.994
116.933
62.7158
48.6245
39.5712
37.6686
32.4986
31.2782
28.7634
28.0283
26.6558
26.1753
25.5491
25.4067
25.3109
25.3684
25.4501
25.5494
25.6031
202.123
171.672
87.7634
58.6542
49.8935
40.7862
41.0374
34.254
32.2944
29.0541
28.0214
26.6042
26.1107
25.5854
25.512
25.438
25.5004
25.5215
25.5572
25.48
225.276
168.295
112.097
74.6436
62.3149
50.0868
46.2486
38.8021
35.5583
31.2237
29.3984
27.3694
26.9299
26.3792
26.4359
26.4587
26.5552
26.5132
26.4445
26.1649
232.046
134.248
91.6604
72.6213
63.9668
52.6928
51.2025
43.4029
37.4232
32.5808
30.2681
28.1133
27.6451
27.4963
29.5228
28.3301
27.9239
27.6406
27.5204
27.144
367.381
134.89
66.865
57.2389
52.1843
52.6261
53.244
44.1951
36.6419
32.5631
30.2426
29.4889
29.491
29.9082
31.407
30.4202
28.7817
28.1858
28.0295
27.728
249.232
121.643
64.0527
53.6945
46.3956
44.0587
45.1087
40.0602
35.9386
32.3581
30.6823
30.4378
31.9253
32.9377
33.0993
29.9591
28.0576
27.559
27.5333
27.4815
233.07
206.029
95.6319
62.6531
51.6431
44.0977
40.3994
35.8048
34.0731
32.9487
50.875
43.2618
35.5407
32.8078
31.0947
28.7223
27.1339
26.7067
26.6869
26.7223
121.013
133.09
81.5996
59.7026
49.2431
43.2928
41.0922
35.4537
33.8878
32.2464
31.4425
30.5908
30.2899
29.9505
30.1267
28.4353
27.1256
26.6359
26.4876
26.2866
167.266
125.697
84.1308
56.8019
48.6839
40.765
39.8844
35.8841
32.2357
30.9411
30.0108
29.5026
29.2742
29.1504
29.3098
28.0823
27.5293
27.0669
26.7341
26.1754
437.981
170.239
79.0864
53.7074
46.6785
40.0895
37.8875
34.0937
32.4444
30.8473
30.4191
29.9326
29.8018
29.5571
29.1019
28.6054
28.1499
27.4444
26.8684
26.0568
304.05
208.051
106.682
59.0982
47.8206
41.6133
40.4106
37.0896
35.7586
34.4012
33.3635
32.5418
31.807
31.1728
30.4796
29.6015
28.6985
27.6186
26.6759
25.6906
301.26
177.813
85.234
59.2578
51.7233
44.8314
41.9772
38.1293
37.3848
35.7648
35.201
34.333
33.6426
32.8234
31.8466
30.4977
29.1074
27.5907
26.4276
25.4407
185.685
160.068
97.1585
70.6198
61.4839
51.8006
47.5623
42.5479
40.1034
37.8833
36.804
35.944
35.2451
34.4942
33.5541
32.1414
30.2627
28.03
26.4763
25.2264
292.044
167.953
119.673
76.6391
64.4673
53.719
49.5931
44.2677
41.5725
39.0996
37.7905
36.7007
35.852
35.0192
34.13
32.9028
31.3837
29.3209
27.7904
26.2755
303.271
193.983
124.36
71.0349
62.2445
53.3466
48.4834
43.0526
39.3303
37.1758
35.6579
34.5372
33.4226
32.4493
31.4297
30.4512
29.5841
28.8764
28.3083
27.8279
104.143
113.248
97.0541
74.4106
64.6289
60.1967
53.893
45.7794
39.3476
34.9601
32.575
30.3057
28.6177
26.627
25.2818
23.9344
23.0639
22.0829
22.1429
22.0646
158.417
156.084
115.151
84.1303
68.7465
55.3772
44.7771
37.1199
32.777
29.8548
28.305
27.3978
27.1413
26.743
26.5601
25.9209
25.7333
25.1394
24.9555
24.214
353.328
193.551
98.7269
75.1119
65.9693
53.9236
54.1613
43.3257
45.0733
39.2076
41.9953
38.9794
41.3523
39.6138
40.8341
40.2491
40.9758
41.0834
41.5489
41.8525
240.458
173.502
123.188
74.0737
64.5532
51.9841
49.3775
41.9818
42.531
38.0539
39.5889
36.8004
38.0228
36.497
37.2762
36.7052
37.2194
37.1984
37.5201
37.6418
370.757
169.446
102.691
70.9053
55.2153
50.5042
45.4041
40.1905
40.0077
35.8683
37.1983
34.6467
35.9103
34.6541
35.5027
35.1418
35.7448
35.8352
36.234
36.2745
286.298
171.422
116.341
68.7721
62.1986
49.1607
50.5022
40.9481
42.5377
37.2797
38.3541
35.5801
36.3862
35.0846
35.7541
35.3724
35.8494
35.8145
36.0905
36.0085
342.875
205.526
102.007
76.3403
59.1399
52.7809
52.5913
40.2593
41.2391
36.0678
36.9135
34.7573
35.5062
34.7271
35.2904
35.2154
35.6242
35.6687
35.8772
35.7204
258.245
156.979
122.368
72.3157
73.8887
52.7053
58.9545
44.729
44.6916
38.2335
38.6541
36.1744
37.0966
36.2546
36.7712
36.6169
36.8869
36.7366
36.7883
36.43
235.198
140.401
89.7782
76.414
67.0993
55.8146
51.6845
45.3495
42.0237
38.229
38.0687
37.1819
38.0152
37.8861
40.4688
38.4487
37.965
37.806
37.7168
37.2398
284.943
146.308
77.859
78.7581
58.3769
53.7111
53.6423
46.3196
43.4735
42.5388
43.0507
43.8799
44.7647
45.2885
44.0618
40.6841
38.871
38.449
38.3859
37.9379
326.208
119.482
70.3661
74.8254
50.4689
49.3422
48.8303
47.4349
46.3957
45.0292
45.091
46.7014
48.7212
49.0844
45.4931
40.3046
38.3088
37.9657
37.9395
37.6677
266.567
136.006
83.1743
71.981
55.9789
46.4479
44.3097
45.7886
46.5122
44.8744
46.3999
46.6468
48.9253
48.7479
44.4492
39.1633
37.1834
36.8969
37.0025
36.9518
282.286
147.426
85.5691
68.3312
51.3484
48.8115
45.9049
45.0613
45.6766
45.238
45.0892
45.4407
46.3817
46.5412
43.1667
38.421
36.6594
36.3186
36.4346
36.3046
393.431
146.237
94.5675
65.8362
63.9831
53.4008
46.4691
42.2207
40.305
39.437
39.6258
39.5216
39.913
39.7646
39.0829
37.1466
36.5173
36.3212
36.2947
35.9872
398.948
236.738
105.092
72.8031
62.22
51.1463
49.2858
41.7605
40.1191
37.7234
38.9078
38.1244
38.7973
38.199
37.6768
37.1429
36.8876
36.4164
36.2815
35.7891
215.577
198.832
131.608
72.2163
61.5813
51.3543
51.1384
41.6296
43.1484
40.383
41.36
40.2019
40.316
39.407
38.868
37.8916
37.2901
36.5454
36.204
35.6927
201.516
170.048
100.868
69.131
62.8972
50.9828
50.7089
42.5122
45.3831
41.4303
43.7064
41.6734
42.3472
40.6992
40.0474
38.3579
37.5605
36.5544
36.2172
35.7844
260.319
158.773
111.312
69.9643
73.1841
54.1001
57.1249
46.1885
49.1611
44.3941
46.3992
44.0465
44.4911
42.6087
41.717
39.5397
38.2832
36.942
36.4711
35.8707
430.585
220.906
143.879
78.4323
82.0396
57.003
61.6781
48.7576
52.1013
46.0451
48.0064
44.8741
45.3941
43.1485
42.4961
40.3464
39.3165
37.9892
37.4906
36.918
280.877
204.805
155.796
80.1489
86.952
58.4423
67.2149
50.6075
54.7127
46.8108
48.7312
44.7621
45.2552
42.7447
42.4318
40.9272
40.8107
40.4369
40.3597
39.8974
42.7733
104.069
97.0139
77.2137
69.1999
61.4832
51.9261
42.5826
36.6557
33.3694
31.2747
28.4913
26.3928
24.1671
22.7997
21.7445
21.2715
21.0576
21.5482
21.1873
29.3012
31.0472
71.0599
31.2108
29.6483
32.3791
78.9618
26.4761
70.5061
54.8259
29.2894
28.6602
77.6945
55.8651
64.5683
29.0471
29.7618
31.6286
72.0805
30.6227
31.4103
58.0181
29.878
29.1949
71.526
59.1216
31.4138
30.3845
210.249
233.104
185.561
107.378
92.3292
91.3077
77.5156
227.68
187.4
233.526
87.2056
65.7523
73.0693
56.6221
237.94
245.226
244.709
60.6022
51.1438
52.587
46.7885
183.64
235.732
199.376
49.3057
46.3633
46.1942
44.676
140.183
181.031
141.635
45.3077
41.3943
43.6983
37.0255
136.113
138.032
140.957
39.1534
33.6769
34.8269
30.552
143.259
142.551
141.363
32.2914
30.0407
29.9448
29.1242
136.594
137.881
112.636
29.4092
27.9566
29.0193
27.9013
182.62
196.916
177.683
66.4154
59.1848
76.2197
53.6946
234.218
182.977
207.023
57.783
50.0733
47.8019
41.4189
242.337
211.496
215.443
47.9532
45.0748
40.9381
40.7514
204.88
213.522
197.048
44.9448
44.4568
41.0853
41.4409
142.416
183.471
147.66
43.6925
36.4814
41.1609
37.4225
143.163
145.389
141.853
34.3089
30.5583
35.9577
32.9806
136.819
138.232
132.587
30.0746
29.4122
32.3097
30.86
111.964
132.478
120.01
29.3271
28.0144
30.6617
29.456
179.985
217.796
182.46
82.8306
55.6821
77.3816
50.2334
193.189
185.097
188.479
49.0759
41.0593
46.517
42.1044
196.972
187.753
176.619
40.4141
39.6199
41.6336
39.8191
185.973
170.488
157.522
39.6437
39.9344
38.9724
36.9413
149.222
155.035
151.131
39.8611
37.5366
36.5101
35.5144
141.622
151.666
163.619
36.5458
33.5364
35.1578
34.2883
140.511
164.798
159.553
32.7416
31.4754
34.2983
34.0929
122.115
154.763
133.853
31.3798
29.7741
33.7511
30.2142
187.458
259.231
191.748
74.5353
50.2209
87.1563
54.0812
192.479
191.606
199.525
46.6079
42.2862
48.5696
43.4783
182.498
195.431
193.82
41.6493
39.8188
41.6092
38.2244
161.093
191.363
183.115
39.092
37.0035
38.1742
38.0492
157.288
179.776
173.654
36.5333
35.6268
37.5786
37.0961
168.448
172.035
164.266
35.4404
35.4992
37.1062
36.7263
159.049
159.28
149.583
35.5475
34.7393
36.2929
34.5482
133.988
148.486
135.782
34.1549
30.2301
33.923
31.4922
88.0411
83.4136
70.546
79.1068
64.7879
64.9375
53.5056
59.3862
66.2706
50.8636
60.2244
45.5628
50.5083
40.9332
45.218
46.9561
41.1428
42.2363
36.2973
38.3214
33.6889
40.502
40.4949
38.764
34.929
31.6703
32.8316
30.305
35.5441
37.6709
32.2012
30.6039
27.5955
29.3198
26.3682
29.2387
30.5177
27.2523
26.5972
24.4968
25.614
24.251
26.4543
26.7611
26.1774
24.0013
23.269
24.0705
24.0894
25.69
26.1483
26.1796
23.2115
23.2447
24.2028
24.6322
54.0458
67.299
48.3162
50.878
45.2134
50.736
38.9319
44.9065
43.2188
37.1067
43.4194
37.611
36.2981
32.3231
39.642
36.4873
35.945
35.9474
32.8287
31.6727
30.5676
38.5236
36.0812
36.8969
32.2165
30.3293
30.8844
44.6189
31.866
36.7684
34.0234
29.4357
26.6976
44.8747
41.4991
27.4016
32.9235
30.7877
26.0216
24.9892
39.0438
34.8107
26.6607
30.2501
28.9699
24.9397
25.232
33.3882
29.9548
26.475
28.7028
27.5841
25.3817
25.4371
28.9376
25.6198
50.0214
64.0437
44.9685
53.6623
39.4185
47.8112
37.0753
36.8862
41.7693
37.6634
36.3998
31.9858
35.1254
32.2114
35.0939
37.1025
35.2824
31.3017
30.0511
31.6165
29.9227
35.9904
34.5561
33.0255
30.18
43.7929
29.4346
29.5744
34.3926
32.7453
32.0738
44.3525
43.3551
29.664
29.1822
31.5443
31.8104
30.9536
41.4352
35.9291
28.796
27.2602
29.2776
30.7965
30.0029
33.6908
28.7874
26.7502
25.2478
27.5681
29.5713
27.257
27.582
24.6745
24.7632
23.2569
44.8409
69.6668
48.2441
47.2028
36.9549
52.1967
38.9269
37.7556
43.4382
38.5265
35.0548
32.2697
36.1813
32.7537
35.3285
36.9561
34.2413
31.648
30.0297
31.5069
29.5661
33.0344
34.222
33.8207
29.547
28.7487
29.4612
28.6622
32.017
33.4154
32.82
28.5922
28.0715
28.2161
27.4331
31.6083
32.8034
32.0873
27.851
26.8516
27.3047
26.4001
30.295
31.7144
30.1534
26.4522
25.0971
26.0738
25.1654
27.2398
29.7155
28.3637
24.6637
23.3275
24.9593
24.3381
58.9638
59.9822
49.7405
55.914
48.2593
50.5311
43.8114
42.6496
47.1667
39.0957
45.4612
38.1482
42.1689
37.0895
34.7128
36.8484
32.5797
36.573
33.0284
35.6276
32.2753
30.1969
31.6797
29.143
31.8998
29.5444
31.372
29.3337
26.6772
28.2775
25.9438
28.98
27.8558
28.8586
27.9902
24.3237
25.3859
24.4539
27.5794
27.1795
27.8873
28.1495
23.4723
24.3681
24.5459
27.1452
27.294
28.3444
28.9549
23.4881
24.6747
25.0213
27.3517
27.4445
29.0784
29.2975
43.3804
46.7501
37.3758
45.4702
40.8843
40.8149
36.21
36.485
35.2954
31.9378
39.6521
36.0115
35.2408
33.3844
31.9098
31.3142
30.2043
34.905
32.0321
32.8602
31.503
30.4036
30.581
30.7242
30.6946
30.6418
30.0454
30.3682
30.0727
27.7697
30.0948
28.2454
29.5204
27.664
30.4176
25.3703
47.8212
37.857
28.5852
29.019
48.6178
37.8008
25.8231
35.5754
30.8392
29.3169
30.082
36.111
32.8947
25.8898
29.5444
25.7927
30.1569
29.9386
31.9167
29.3099
37.5435
44.3942
35.8527
41.0775
35.8465
40.2513
35.2245
31.5559
34.2156
31.6585
34.8152
32.9838
34.3505
32.8341
29.7473
31.0889
29.4638
32.4975
31.3067
32.4055
30.9511
47.9431
47.5903
29.9283
35.2423
35.9445
210.917
30.4669
60.6184
63.0491
48.6074
159.61
48.1665
147.553
63.6516
38.7148
28.708
26.9751
50.8841
37.2612
29.8872
28.7077
29.1616
26.4381
24.9824
35.0996
31.3365
28.4596
27.7976
24.7543
24.5405
23.2573
30.4048
28.4093
27.5614
26.9503
35.7863
47.6698
37.5415
40.8743
35.2954
43.3902
36.4703
31.7213
35.2
32.1047
34.4038
32.8529
34.9147
32.6202
29.5785
30.9432
29.1939
32.4011
31.0887
31.7536
30.5652
28.5245
29.0704
28.1759
30.6908
30.1484
30.3618
29.3578
27.7954
27.7234
26.9333
29.9815
29.2534
28.9867
28.3923
26.4266
26.794
25.9173
28.9874
28.2921
28.2419
27.639
24.8005
25.6234
24.8788
28.1137
27.5892
27.4897
27.174
23.3397
24.7184
24.2215
27.4057
26.9274
27.0917
26.7969
46.7687
49.3617
43.3998
52.178
46.7349
49.6696
46.2293
37.9126
41.9759
37.6066
44.6894
41.0815
45.3734
43.1865
33.6094
36.3666
33.3438
40.833
39.7153
42.7409
41.2733
30.6231
32.4819
30.7186
39.0537
38.7247
40.7307
40.2124
29.6586
30.3763
29.9415
39.1382
39.8602
40.3275
41.1903
29.4387
29.9827
30.7902
39.8895
40.4772
41.6852
43.4548
29.8754
31.1115
31.8872
40.8241
41.4433
43.8562
44.4364
29.7624
32.0048
31.8948
41.4311
40.8839
44.4492
43.8812
41.1253
40.5108
36.9267
46.9672
45.2876
42.6829
42.6586
36.907
36.2544
34.8751
44.7701
43.3649
42.8143
43.0391
33.1789
34.3926
32.7463
43.0028
41.1309
42.8132
40.8103
30.9315
33.1361
52.5436
40.4992
39.8308
40.374
42.5737
30.4018
52.5782
45.6844
39.9058
40.6733
42.9584
42.6426
31.4664
42.7487
37.2448
41.2389
43.6975
42.5747
44.3808
32.8661
36.4511
34.7443
44.2761
44.9383
45.0444
45.3331
32.4302
34.0595
31.7616
44.9324
44.0658
45.0914
43.5543
36.4933
40.1953
36.0401
42.2118
42.2624
42.7418
41.9223
34.5089
35.4116
34.2916
42.4807
42.8716
42.0533
42.4156
32.5972
33.9406
32.5068
42.69
40.8053
42.4166
41.2359
50.8615
32.1282
32.5093
40.4642
42.7947
40.7636
40.4492
46.3631
32.4839
31.552
43.0657
42.5448
40.441
40.2756
36.6083
31.1625
30.6249
42.3767
43.887
40.4139
42.0304
33.4702
30.5888
30.3407
44.5066
44.7458
42.4277
42.7465
30.9504
30.1846
29.4566
44.5138
43.0832
42.7141
41.8468
36.1268
43.0229
37.0642
43.8548
41.8853
46.0506
41.7554
34.2554
35.6535
33.5741
41.9023
42.068
40.5921
39.1797
32.6638
32.8584
31.9412
42.106
41.4191
39.2555
39.2943
31.6177
31.7037
30.7548
40.9971
40.4791
39.0615
38.5148
30.7862
30.4299
30.0096
40.4438
40.4662
38.6224
38.7376
30.3302
29.8561
29.4263
40.6597
41.781
38.6781
38.6812
30.0727
29.3092
29.1547
42.0206
42.2537
38.821
38.8984
29.3674
29.069
28.6434
42.2355
41.5169
38.8693
38.1141
48.2084
51.1121
48.4502
79.9541
70.6332
75.4824
78.5175
43.4864
47.7505
46.2341
70.4397
75.1937
77.8169
79.0228
43.0206
46.0265
45.4113
76.4832
73.453
79.3351
82.3198
42.55
45.1568
45.2405
73.7869
77.3162
83.4204
86.2527
43.8905
45.4952
46.4462
78.7706
77.5529
86.8387
86.8905
44.4429
46.7861
47.9763
78.2986
80.0335
86.5287
85.0116
45.3404
48.2677
48.6602
81.3567
80.127
85.019
84.7973
44.1596
48.6579
47.3407
81.0668
79.6548
84.9376
85.5985
47.8034
44.7631
45.7239
70.9101
78.7374
67.139
79.4526
46.5643
46.0538
46.654
78.5443
79.8682
79.8381
82.5064
45.4253
46.5837
45.2387
80.564
85.2014
84.2029
91.9574
44.8636
44.7918
45.8427
86.6473
89.5699
94.1109
97.6114
46.1439
46.2457
46.5898
90.0948
89.9601
98.0212
96.6861
48.324
46.8546
48.933
89.2947
86.4749
94.8228
89.0681
49.1115
49.3937
49.4442
85.8594
85.3226
87.5773
85.7654
47.4957
49.222
47.0548
85.3684
84.5004
85.6718
84.4855
45.388
44.8267
44.9939
70.3775
80.2481
72.3993
79.2719
46.5569
45.3072
45.9834
80.3903
82.7958
79.0768
80.9248
45.2578
46.0901
45.5256
84.5092
92.403
81.8155
86.8714
46.0931
45.1784
45.0357
94.6901
97.8545
88.3591
90.4162
46.4735
45.1117
45.2565
98.1093
96.7042
90.6505
90.0048
48.5017
45.5109
46.613
94.7166
88.8387
89.012
85.5164
48.9607
46.9109
47.1054
87.3412
85.5419
84.7653
84.2399
46.6391
47.0686
45.5165
85.4342
84.0073
84.2721
83.557
44.8614
48.8887
44.3749
75.0653
77.8794
75.867
69.1754
45.5336
43.2332
41.9932
77.5936
79.7035
68.858
74.227
45.4957
42.2342
42.5373
80.2589
83.7659
76.3387
73.9998
45.0354
42.3241
41.904
84.9109
86.9094
74.3779
77.0748
45.2859
42.1187
42.3232
87.2269
86.895
78.2816
77.4169
46.1878
42.2936
42.3543
86.2792
83.9825
77.7714
79.1442
46.5591
42.5469
42.6165
83.8363
83.6301
79.5967
79.0879
45.1458
42.6158
41.3249
83.7325
84.2071
79.2861
78.424
30.6882
29.9831
30.5421
28.8647
30.6801
29.4679
30.6586
34.8671
30.6208
47.598
35.127
32.1408
30.6286
161.198
40.357
36.7578
64.955
181.497
35.4635
41.9353
200.239
30.5194
30.6779
30.5549
31.0945
30.0225
30.4814
31.0119
30.9093
28.9796
30.0624
31.4722
29.4879
31.0133
31.2717
35.5209
36.1002
31.4703
52.549
30.9182
164.855
33.4972
41.7823
183.259
40.2228
74.3975
43.7368
202.112
38.1424
29.844
27.0709
28.5376
26.7559
29.0249
27.1694
29.4606
41.8331
36.7756
68.8278
169.886
36.4984
41.9395
157.997
41.973
35.2219
64.0643
77.0041
36.1783
39.3104
108.633
30.7983
28.497
29.0109
31.4803
28.0811
30.9279
31.4774
30.7642
27.4804
28.8088
31.3418
27.7525
30.4582
31.4809
44.4254
171.79
40.8272
74.9069
43.9677
161.326
41.2651
44.6729
78.1356
39.6547
67.7884
41.1998
113.254
41.1174
61.1719
61.5268
47.8756
173.061
44.0383
190.472
64.1424
31.1078
29.2837
29.0405
29.1296
30.1449
29.4497
29.2192
34.4496
34.32
29.3191
30.2074
32.5244
36.4186
29.6982
48.302
36.2228
52.3918
31.5761
204.06
31.0215
38.6732
60.7115
176.226
69.5128
49.5249
193.369
62.1705
47.119
31.7761
29.6452
30.9212
30.6864
29.9916
29.7574
32.106
35.0615
30.7262
35.9696
31.0764
36.7606
30.2719
34.6358
55.262
63.8955
44.7238
97.7068
47.0364
135.963
50.4961
36.5197
34.9018
29.8302
30.2944
34.8594
36.771
30.2055
35.5836
33.4757
29.6024
29.3795
34.4374
34.2636
29.8678
57.8453
163.697
69.7109
49.3568
152.749
61.3122
48.1371
53.1417
94.8298
68.7529
42.997
135.797
48.4453
45.8931
36.5775
30.7666
36.0919
31.2594
36.9347
30.6399
35.7964
35.4983
29.7301
33.8499
30.8491
34.214
30.2345
34.8965
168.114
212.761
168.064
133.034
120.177
133.674
118.868
130.333
142.887
139.871
94.2131
73.3817
94.7038
74.8248
122.137
140.932
139.773
65.3736
60.0645
65.7462
61.8512
111.454
130.928
114.241
58.1995
56.9526
58.2122
55.6489
95.4277
102.603
93.9468
54.7936
51.0081
52.9767
50.6082
92.9592
88.9358
88.1675
47.1285
44.5404
46.1489
41.0142
87.2798
88.0835
88.8251
41.5441
37.3048
38.0856
35.7771
83.1449
89.5997
86.1099
36.2047
30.8067
35.0792
29.6539
185.66
183.792
149.168
127.81
113.583
116.897
98.8476
159.991
286.485
299.591
176.35
161.878
175.991
259.183
100.014
197.525
197.186
111.208
99.2061
111.066
197.35
93.717
245.001
243.85
92.1108
92.0974
93.6485
249.101
82.8219
211.311
232.119
84.1841
83.1085
86.6817
217.604
73.2196
156.629
170.154
78.1166
76.912
74.7851
156.459
61.2683
134.192
133.284
69.1535
68.3756
64.7625
131.977
53.8731
140.69
137.577
60.8951
60.4758
54.498
140.685
51.8661
144.893
144.506
54.0088
54.018
51.9474
144.264
81.9942
84.6104
71.6281
31.9939
28.2597
32.2293
27.8311
111.951
155.153
129.651
81.0068
73.0906
98.334
85.3256
84.1067
168.946
166.712
105.404
94.1169
99.8867
165.79
79.8564
208.566
201.059
87.4491
85.9639
79.1419
213.827
81.4686
244.902
236.752
84.7871
84.4675
81.3948
238.907
81.4828
226.422
231.525
83.5337
82.6513
81.8815
224.056
75.6724
166.689
187.698
78.0702
75.871
77.4758
168.069
57.2002
140.142
141.367
60.6598
57.0602
60.8801
141.897
52.272
143.133
144.194
53.0903
52.5493
53.2541
141.696
48.7339
128.819
128.871
50.9194
49.6374
49.9681
126.629
70.9185
83.3875
75.7457
31.7396
27.2767
32.3136
27.7039
149.389
196.12
150.66
124.785
100.631
130.703
103.774
112.384
186.981
216.545
131.098
109.722
135.683
182.975
70.5717
185.033
176.215
74.4516
71.2881
73.7069
180.144
70.6173
196.708
184.38
71.0207
71.1705
70.5803
183.935
67.7759
194.521
177.153
71.4862
71.4769
68.7927
176.053
65.9719
165.139
165.827
70.0062
68.9603
66.653
160.125
59.0535
144.673
146.455
62.2323
59.514
61.6431
145.28
54.2967
140.056
147.362
53.5116
52.3482
54.4241
149.288
55.0259
139.656
148.39
52.134
52.3066
54.999
145.371
78.6788
93.7661
85.1078
33.5374
28.0482
34.1258
29.4824
149.306
194.837
164.988
131.914
95.9879
126.98
93.1338
112.031
190.808
225.938
133.658
106.446
136.334
198.313
76.0185
192.087
191.877
77.5644
75.2465
78.3762
194.89
71.7086
189.816
195.536
72.8649
71.6977
72.806
193.84
67.3564
170.44
183.46
68.4124
66.7801
68.6556
178.942
63.6344
156.737
168.58
63.1872
62.4741
64.0688
167.33
63.5533
163.706
168.623
60.5798
60.6972
63.0653
170.091
64.3811
167.649
169.716
62.7499
62.9552
64.4606
166.587
59.9276
150.583
152.263
61.6728
60.2575
62.1218
149.948
87.9207
100.244
93.6053
35.011
30.1712
38.1103
36.4787
127.258
137.201
119.859
83.976
69.997
80.8825
65.1603
121.297
123.377
121.877
56.7163
52.8887
62.4442
59.9863
117.83
116.999
109.579
48.9985
46.1314
55.5168
46.572
111.437
108.785
108.612
45.5965
45.5681
46.9604
48.5401
105.945
103.426
98.7351
44.7515
43.9428