/*--------------------------------*- C++ -*----------------------------------*\
  =========                 |
  \\      /  F ield         | OpenFOAM: The Open Source CFD Toolbox
   \\    /   O peration     | Website:  https://openfoam.org
    \\  /    A nd           | Version:  10
     \\/     M anipulation  |
\*---------------------------------------------------------------------------*/
FoamFile
{
    format      ascii;
    class       volScalarField;
    location    "5.2";
    object      omega;
}
// * * * * * * * * * * * * * * * * * * * * * * * * * * * * * * * * * * * * * //

dimensions      [0 0 -1 0 0 0 0];

internalField   nonuniform List<scalar> 
12920
(
90.0752
109.915
99.9338
94.5089
90.8707
84.6757
77.4712
73.4732
70.6361
68.5272
63.8283
54.1321
47.5391
43.9102
41.1938
38.8601
37.0078
35.3424
34.873
33.9793
141.465
215.995
139.118
110.013
102.696
89.3849
82.7261
77.151
71.184
65.5431
58.2906
53.9265
51.0173
49.95
48.6657
47.9688
47.2676
47.0257
46.9828
47.0273
319.544
288.099
214.459
137.473
112.238
93.7476
81.0643
71.9079
63.5749
59.0983
54.6974
52.8128
50.9142
50.0443
49.1247
48.6125
48.1405
47.8945
47.6223
47.5107
389.786
320.295
234.156
150.83
110.432
86.6191
78.2271
66.9075
61.0233
56.224
53.3528
51.972
50.9068
50.307
49.5793
48.8789
48.1925
47.7006
47.3677
47.1026
259.683
255.435
217.635
158.028
120.815
100.739
86.3453
76.8414
69.4525
63.1878
59.29
56.8737
55.0848
53.7688
51.846
50.4418
49.4711
48.7802
48.4077
47.584
373.889
260.739
194.385
132.219
113.468
90.0234
83.6642
75.8247
71.2464
66.757
63.3768
60.5059
57.5107
54.5481
51.9372
50.447
49.7089
49.1967
48.9428
48.0911
267.522
326.491
266.085
204.532
160.679
124.089
100.129
84.4294
77.8414
71.8914
66.8272
61.95
57.1049
53.4518
51.7582
51.0665
50.6106
49.7268
49.3692
48.4565
232.842
261.198
254.359
224.448
178.064
143.595
219.661
138.229
125.623
114.384
104.431
93.1328
89.7758
86.9795
57.4732
53.9152
51.3547
49.4626
48.8607
48.3078
213.385
276.361
238.223
196.268
145.202
208.204
339.348
196.149
240.55
224.319
168.955
135
136.95
143.123
92.7774
50.9203
48.624
47.2986
47.1199
47.4023
255.849
276.055
239.09
168.025
111.783
126.265
177.12
194.548
241.617
235.467
187.421
140.132
143.624
132.823
80.6678
49.4115
48.1725
47.4403
47.2208
47.3058
149.011
289.813
277.85
204.999
150.966
197.108
218.07
181.473
195.007
196.101
177.382
146.126
140.333
140.509
89.6553
54.6294
53.0204
51.6428
50.0748
48.0778
157.951
277.619
254.133
194.731
154.165
191.221
221.628
189.621
191.714
177.182
158.386
159.566
168.531
154.785
98.4416
59.2775
56.9499
54.5517
52.6508
49.4238
183.376
237.615
204.698
167.298
128.94
97.7784
136.547
121.91
118.516
114.249
108.256
102.201
96.6946
95.2273
63.4007
61.3189
60.0502
57.0941
54.7997
51.1402
357.024
242.235
169.858
123.604
97.8719
89.0921
80.3786
76.6505
72.6692
69.9576
67.3801
66.2489
65.202
64.7584
64.3822
63.9357
62.5504
58.3299
55.257
51.4847
172.678
247.483
190.611
153.886
126.654
120.732
98.3117
88.944
77.6237
73.8728
71.7213
71.0947
69.828
69.0071
67.9737
66.8231
63.9987
58.406
54.0761
49.8947
133.994
251.039
198.393
165.292
146.725
139.62
119.71
107.303
89.0936
79.3649
73.1413
71.1946
69.5723
68.6286
67.5296
66.2433
62.6332
56.375
51.6144
47.3189
165.895
170.004
181.613
182.537
177.179
169.714
145.151
121.359
98.6444
86.483
78.9748
75.0584
71.434
68.929
66.9845
65.466
62.2192
56.503
51.8371
46.5287
91.7382
182.8
190.218
188.979
178.596
163.047
135.904
113.696
96.5503
87.5577
81.4491
77.6912
73.8192
70.9071
68.7727
67.7403
65.8783
61.073
56.4809
49.1255
151.373
270.349
234.648
177.147
147.36
124.69
101.674
84.2792
74.7595
70.409
66.4627
62.8095
59.7326
57.2798
55.3726
53.0101
51.4662
50.5015
50.4661
49.7272
241.349
257.646
230.979
180.469
128.923
93.7526
77.5075
72.4003
66.9824
61.819
55.5466
50.3812
45.4182
41.6441
38.2649
35.4276
33.6119
33.2095
33.7652
35.176
66.0188
67.1351
64.8043
61.7663
58.7674
53.1623
47.3786
44.1396
41.6275
37.7881
32.7039
28.6695
26.2056
24.929
24.3851
23.9636
23.6686
23.043
22.7162
22.1242
262.705
111.468
76.6885
57.0982
48.9595
43.9498
39.6338
37.4656
34.5303
32.6768
30.3181
28.8596
28.3686
28.2651
28.1969
27.881
27.3737
26.7433
26.2095
25.6187
167.691
177.886
114.539
66.8539
51.2628
42.7515
36.9322
33.2403
30.6299
29.3813
28.8102
28.3088
27.6781
26.8261
25.9364
25.1534
24.6123
24.2211
24.011
23.9546
158.102
186.144
141.932
77.5379
53.5121
42.6754
36.4898
32.2204
29.7549
28.1777
27.2562
26.2685
25.2662
24.3873
23.8914
23.5841
23.5227
23.4894
23.5433
23.6937
265.839
142.896
102.619
74.2537
60.4353
50.3087
44.2358
38.0309
34.1858
31.4123
29.8397
28.5301
27.558
26.4364
25.7046
24.9267
24.5285
24.2605
24.2193
24.0971
325.689
136.254
85.7001
64.6811
58.83
51.355
47.8547
42.1329
38.0733
34.3403
32.3328
30.3742
28.9301
27.4504
26.5224
25.4437
24.9386
24.6197
24.5848
24.4167
374.041
217.942
126.627
100.008
93.7606
80.9272
66.5827
54.6271
45.6491
41.414
37.1686
33.4032
30.1359
27.4532
26.5621
25.5947
25.2623
25.1115
25.1497
25.2112
270.762
201.412
159.107
145.628
130.434
110.692
102.2
74.0761
51.0078
45.1395
40.8037
34.1743
29.8421
26.7585
24.855
25.3513
25.36
25.2479
25.2087
25.3696
124.293
137.433
112.564
119.772
99.8748
102.976
99.4892
82.7458
54.4849
43.6633
39.4012
33.7187
28.2393
26.0934
25.2489
24.747
24.53
24.2228
24.1858
24.4909
170.402
140.996
118.41
107.04
82.6656
64.8897
59.2695
52.3761
42.8522
39.3644
37.6043
30.3259
27.028
26.6385
26.1201
23.9372
23.7313
23.6516
23.6844
23.916
145.363
192.028
171.804
148.42
116.262
100.386
72.4219
44.5065
36.1392
35.0455
35.9912
33.6813
30.8433
28.9553
25.8296
23.6844
24.3793
24.5891
24.5764
24.3551
217.757
172.19
153.778
140.225
118.181
102.619
63.1369
41.8167
37.0965
34.6982
32.6649
31.8555
31.4669
29.7537
25.9946
26.0461
26.6435
26.6493
26.5513
25.8119
229.947
250.652
181.972
116.86
84.9064
57.9739
55.6528
42.9053
36.4273
33.6886
32.7913
31.7379
30.5603
29.42
28.3689
28.6739
28.8101
28.6566
28.3828
26.9691
317.695
215.231
107.51
71.6632
59.8565
53.4602
46.9967
42.5991
39.2582
36.7848
34.504
32.7801
31.5996
31.0748
30.8198
30.7004
30.6075
30.1034
29.5335
27.2747
275.483
156.657
91.9163
69.0269
59.2294
58.5994
54.8608
50.035
46.742
43.1048
40.0975
37.3565
35.3117
34.1252
33.3526
32.7948
32.2822
31.1249
30.1241
26.697
282.063
141.621
89.7868
73.0025
63.7463
61.7518
54.9513
51.9907
47.5239
43.7046
41.0417
38.8721
37.3639
36.1126
35.1553
34.653
33.984
32.2868
30.2441
25.8845
210.732
132.088
100.951
95.4785
85.1549
82.2849
74.2985
66.4083
56.2862
47.6298
42.1408
39.2625
37.8205
36.9909
36.6969
36.5778
36.2887
35.1204
31.8848
26.0088
135.162
137.999
113.382
98.5145
87.8181
86.1369
81.5513
71.1359
58.4843
48.5856
42.7178
39.55
37.6694
36.7037
36.2631
36.356
36.7002
36.4875
35.4253
29.6775
226.35
211.485
118.632
84.7799
82.8926
81
69.7621
53.9723
43.7327
37.6199
34.8374
33.5569
32.8865
32.0078
30.852
29.8403
29.4084
28.5521
27.6185
26.6561
124.356
125.856
95.1674
68.8265
50.1478
43.1345
42.0844
41.5412
38.5696
34.1244
30.6552
28.2544
26.4849
25.0658
23.8381
22.7515
22.3003
22.033
22.0582
21.7026
56.1355
81.8822
78.5049
72.4541
66.7529
59.2742
52.6034
47.4283
42.7902
37.4395
32.4758
28.9786
27.2023
26.6274
26.5351
26.2717
26.1176
25.7346
25.5265
24.9488
172.12
127.818
70.8722
51.3753
44.8498
39.9259
38.0087
35.4322
33.0599
30.7992
28.1262
26.7679
25.6874
25.4406
25.0996
24.9715
24.6808
24.5642
24.3992
24.4113
245.836
149.521
94.8102
56.1156
44.0162
35.7208
32.4905
29.1151
27.4513
26.2126
25.325
24.7379
23.9521
23.4605
22.8794
22.5985
22.3477
22.2967
22.2712
22.361
142.12
144.788
99.3191
57.7169
42.8799
34.1938
31.5226
27.4629
26.4166
24.6572
23.9338
22.9691
22.2862
21.7624
21.4914
21.3984
21.4053
21.4956
21.6009
21.789
237.448
170.611
102.841
61.0489
48.3087
39.6915
36.4157
31.558
29.2064
27.0147
25.7466
24.5341
23.6346
22.8519
22.3461
22.0257
21.865
21.8263
21.8283
21.8179
231.119
158.583
81.4883
56.2131
50.2051
40.8187
40.2987
34.582
31.7728
28.5414
26.8837
25.2763
24.164
23.2842
22.7805
22.3696
22.1963
22.0929
22.058
21.9147
432.168
302.348
126.274
85.4974
71.6558
59.1513
49.9087
42.5312
36.7774
32.7263
29.243
26.4778
24.5978
23.4358
23.1139
22.9148
22.9168
22.9123
22.8906
22.7079
242.124
181.447
116.298
103.545
84.7655
70.9603
66.7733
51.3559
40.2063
34.6956
30.7513
26.4591
24.2673
23.1332
23.863
23.8306
23.7467
23.6002
23.5511
23.4327
207.887
123.545
78.3906
70.4737
64.2497
67.2478
68.9871
55.1763
40.0297
33.4414
29.2726
25.9393
23.9631
23.4489
24.1611
24.7402
23.934
23.5456
23.4319
23.4569
152.396
132.977
79.3641
65.1436
57.2622
49.4363
48.8795
41.7086
35.0315
31.2201
28.5695
26.0095
25.3748
25.9502
26.0464
23.947
23.032
22.7472
22.7392
22.8667
330.923
333.91
175.451
103.023
73.2291
63.4985
48.6946
35.2798
30.9262
29.7272
64.3249
52.4959
35.4527
27.8228
23.7308
22.9798
22.6997
22.5941
22.5585
22.5323
287.446
145.364
94.4514
85.9599
70.3303
57.1604
44.4327
34.2334
31.1226
29.1293
28.3762
27.5275
26.0388
24.4427
23.5426
24.0051
23.7758
23.5022
23.3203
22.8164
353.46
197.495
109.701
70.6054
55.633
42.4599
41.7256
35.3976
30.4712
28.5686
27.2599
26.3013
25.5177
25.08
25.5664
25.2883
25.0978
24.6691
24.3182
23.2665
202.173
163.607
91.6239
53.4841
47.4522
41.2152
37.8783
34.5103
32.0229
30.2975
28.8834
28.0352
27.4631
27.1886
26.9158
26.5992
26.2403
25.4819
24.8465
23.3048
247.49
188.965
99.2799
56.5783
48.1721
44.0217
42.067
39.3974
36.8302
35.0192
32.9068
31.5138
30.2208
29.4839
28.8
28.1018
27.2514
26.0062
24.8984
22.798
157.996
162.218
89.7589
61.0329
53.1533
48.3626
43.858
40.7349
37.9986
36.0974
34.3643
33.2472
32.0846
31.3378
30.516
29.6411
28.3171
26.3572
24.6238
22.3279
265.157
143.387
93.1907
78.8282
66.8569
60.3154
52.8146
47.7214
41.7214
38.188
35.3873
34.1711
33.1143
32.647
32.1379
31.6521
30.4712
27.6741
25.0506
22.1322
215.166
141.526
111.457
83.0673
69.0152
62.6736
55.3957
49.523
42.8759
38.9686
35.9375
34.5903
33.308
32.7619
32.2292
31.9388
31.2805
29.3265
27.1992
23.755
511.319
247.211
116.763
72.0178
62.8941
58.4029
50.0755
43.5376
37.1692
34.3806
32.0646
31.1027
29.9655
29.193
28.2082
27.37
26.4973
25.5057
24.6779
23.9807
124.339
121.016
105.457
72.1561
55.5024
53.219
50.6147
45.4727
39.7531
35.1569
32.1504
29.9885
28.4558
26.8928
25.6344
24.4571
24.0046
23.1749
22.6894
21.9223
101.102
119.512
95.2899
79.5473
70.6931
61.3182
53.2501
45.3441
39.548
34.0513
30.6062
28.3453
27.5774
27.3988
27.4241
27.1463
26.9857
26.5499
26.3361
25.665
323.597
171.925
87.2717
58.2328
50.0003
43.922
43.2256
38.7363
36.0812
32.3473
30.6148
29.4689
29.0736
28.8346
28.7279
28.7713
28.8149
29.0399
29.1922
29.5598
148.703
147.293
111.808
63.2173
47.5869
38.5084
35.8759
31.7626
30.7434
28.8672
28.3985
27.4487
27.0163
26.561
26.3695
26.3006
26.32
26.4649
26.5933
26.8371
195.316
145.89
92.0134
58.2183
43.9386
36.1834
34.0279
29.7549
29.2216
27.1267
26.7893
25.6544
25.4346
24.99
25.0148
25.0185
25.1709
25.3966
25.5954
25.799
260.872
204.94
116.675
62.8252
48.661
39.5717
37.6704
32.5004
31.2689
28.749
28.0123
26.6399
26.1582
25.5303
25.3858
25.2885
25.3446
25.4262
25.5258
25.5801
213.08
171.027
88.2175
58.7272
49.9094
40.7788
41.0358
34.2834
32.298
29.0464
28.0109
26.5898
26.0944
25.5656
25.4905
25.4158
25.4772
25.4993
25.5355
25.4599
220.254
169.235
112.188
74.6428
62.3521
50.1188
46.2943
38.828
35.5753
31.2335
29.4008
27.3625
26.9154
26.3588
26.4123
26.4345
26.5313
26.4918
26.4245
26.1475
235.464
133.983
91.4502
72.5565
63.9651
52.7522
51.2603
43.4993
37.4389
32.6064
30.2739
28.1137
27.627
27.4821
29.5109
28.312
27.9013
27.6181
27.4986
27.1252
371.179
134.477
66.9139
57.2233
52.1497
52.6117
53.2806
44.2911
36.6837
32.5862
30.2457
29.4759
29.4692
29.8846
31.4008
30.4178
28.7646
28.162
28.0049
27.7049
262.551
122.869
64.5429
53.8588
46.4417
44.0467
45.1203
40.0553
35.9519
32.3728
30.6809
30.4216
31.8895
32.9177
33.1095
29.963
28.041
27.533
27.5053
27.4547
225.877
208.875
98.4343
62.9944
51.7814
44.2062
40.4884
35.799
34.0619
32.8958
50.8342
43.3445
35.5475
32.8115
31.1074
28.7236
27.1188
26.684
26.6618
26.6965
122.157
134.25
82.5115
59.7848
49.3199
43.3492
41.198
35.4403
33.8658
32.2351
31.4276
30.5828
30.2758
29.9376
30.1308
28.4323
27.1115
26.6167
26.4674
26.2653
168.769
126.874
84.4288
56.9661
48.7907
40.7984
39.9073
35.9015
32.2303
30.9183
29.9897
29.4778
29.2487
29.1274
29.298
28.0675
27.512
27.05
26.7189
26.1587
438.597
177.004
79.925
53.8921
46.7419
40.1214
37.9027
34.0951
32.4358
30.831
30.3964
29.9075
29.7757
29.5337
29.0817
28.5877
28.1349
27.4313
26.8575
26.043
314.148
207.826
107.208
59.3344
47.8937
41.6201
40.4095
37.0829
35.7438
34.3851
33.3479
32.5248
31.7891
31.1562
30.4664
29.5922
28.6913
27.6121
26.6709
25.6793
297.314
177.336
85.8216
59.3697
51.7941
44.8648
41.9992
38.1258
37.367
35.744
35.1788
34.3122
33.6241
32.8097
31.8399
30.499
29.1112
27.5925
26.4262
25.4296
185.951
159.982
97.8512
70.7415
61.5623
51.8608
47.6085
42.5852
40.1182
37.8834
36.79
35.9247
35.2251
34.4782
33.5463
32.1479
30.2807
28.0459
26.4835
25.2197
290.701
168.802
119.71
76.7872
64.5731
53.7924
49.6288
44.3037
41.5834
39.0969
37.7743
36.6794
35.8294
34.9993
34.1159
32.8999
31.3923
29.3337
27.8004
26.2724
306.821
196.503
125.344
71.6036
62.3479
53.4714
48.5734
43.1312
39.363
37.1806
35.6504
34.5263
33.4118
32.4398
31.4223
30.445
29.5768
28.8667
28.2975
27.8135
100.808
112.6
97.7605
74.7804
64.6357
60.1757
53.9591
45.8864
39.429
35.0036
32.5979
30.3238
28.6342
26.6433
25.2936
23.9441
23.0718
22.0847
22.1369
22.0599
157.288
154.97
116.54
84.456
68.856
55.4972
44.8669
37.1695
32.7926
29.8556
28.2941
27.3799
27.1206
26.7246
26.5462
25.9104
25.7214
25.1301
24.9438
24.2053
334.662
193.09
99.1947
74.8023
66.4489
53.7832
54.6002
43.3933
45.4584
39.3288
42.3241
39.2049
41.7077
39.917
41.1954
40.5906
41.3443
41.4495
41.9443
42.2528
228.368
172.751
123.472
73.9492
65.0086
51.838
49.7841
41.9796
42.8688
38.1734
39.9021
37.0124
38.3436
36.765
37.5975
37.0042
37.5424
37.5157
37.862
37.9866
354.082
174.018
103.781
70.7191
55.5553
50.2691
45.7246
40.092
40.3057
35.921
37.4806
34.8151
36.2028
34.8922
35.7974
35.4193
36.0482
36.1377
36.5641
36.6089
285.874
170.644
116.368
68.5901
62.4598
49.0268
50.8336
41.0398
42.8956
37.449
38.6852
35.8044
36.7015
35.3482
36.0632
35.6656
36.1634
36.1269
36.4273
36.3482
348.585
202.9
102.394
75.8862
59.4052
52.5119
52.964
40.3088
41.5651
36.222
37.2125
34.9747
35.7998
34.9888
35.5831
35.5088
35.9346
35.9844
36.2164
36.0631
245.829
156.481
122.047
72.1822
74.159
52.7615
59.3303
44.9039
45.0956
38.4793
39.0003
36.438
37.4134
36.5433
37.0961
36.9473
37.2285
37.0818
37.1539
36.7962
226.703
140.391
89.7716
76.0936
67.4571
55.6987
51.7598
45.4161
42.0698
38.2399
38.0952
37.1934
38.0201
37.8996
40.8423
38.8007
38.3188
38.1687
38.0993
37.6227
291.214
145.855
77.9963
78.4866
58.728
53.645
53.7133
46.3437
43.4274
42.4724
42.9475
43.7738
44.6489
45.1768
44.1173
41.08
39.2335
38.8208
38.7775
38.3335
323.866
120.479
71.1347
74.6666
50.7888
49.2525
48.7923
47.3776
46.3122
44.9366
44.9689
46.5564
48.5759
48.9525
45.5472
40.7025
38.6699
38.3325
38.323
38.0576
266.338
137.713
84.5427
71.8757
56.7237
46.4761
44.3117
45.7072
46.4101
44.7913
46.2993
46.5319
48.7777
48.6231
44.5082
39.5639
37.5455
37.2605
37.3814
37.3406
270.425
149.311
86.766
68.0892
51.7992
48.7557
46.0293
44.9839
45.5723
45.1361
44.9729
45.3157
46.2505
46.4162
43.2297
38.8424
37.0314
36.69
36.8205
36.6982
389.875
151.32
95.9353
65.8006
64.9117
53.6717
46.6499
42.2261
40.3317
39.4085
39.6284
39.5119
39.9148
39.7594
39.5303
37.5618
36.9116
36.711
36.7005
36.3965
377.74
237.046
107.782
72.5373
63.3304
51.0759
49.8737
42.0051
40.5949
38.0667
39.3629
38.5449
39.2561
38.6391
38.1245
37.5727
37.3056
36.8204
36.7043
36.2084
213.392
197.03
132.297
72.1752
62.4906
51.2879
51.9156
42.0327
43.7406
40.8665
41.9144
40.7165
40.8466
39.9169
39.3666
38.3606
37.7373
36.9719
36.6451
36.1279
199.771
168.766
101.963
69.0491
64.0074
51.0645
51.5434
42.8677
46.0341
41.9053
44.3089
42.2056
42.9225
41.2369
40.5862
38.8534
38.0328
36.9916
36.6666
36.23
248.662
160.862
113.538
70.3757
74.3858
54.6051
58.0762
46.7708
49.9302
45.0086
47.0869
44.6603
45.122
43.2015
42.3026
40.0821
38.7939
37.4075
36.9441
36.336
413.257
220.568
145.512
78.9516
83.4616
57.7994
62.7845
49.4886
52.9625
46.725
48.7399
45.5095
46.0424
43.744
43.086
40.8941
39.8406
38.4687
37.9761
37.3978
275.656
207.462
159.456
81.1674
88.6824
59.4775
68.4959
51.5779
55.7283
47.6145
49.5465
45.4526
45.9434
43.3601
43.0334
41.4768
41.341
40.9458
40.8878
40.4259
39.4259
102.892
97.1015
77.4201
69.1868
61.524
52.0324
42.6804
36.7005
33.3802
31.2822
28.5047
26.4048
24.1775
22.8031
21.7425
21.2637
21.0459
21.5297
21.1799
29.3242
30.9596
70.6393
31.2305
29.6597
32.2857
78.5352
26.5004
70.2461
55.0946
29.2989
28.6585
77.4719
56.1685
64.4526
29.0395
29.7213
31.5244
72.0279
30.6101
31.3775
58.2072
29.8494
29.1961
71.571
59.4417
31.3904
30.391
211.446
233.549
185.346
107.458
92.5091
91.106
77.4005
225.898
186.951
232.326
87.4621
66.1018
73.0712
56.8588
238.68
244.534
245.023
60.8659
51.232
52.7727
46.8071
184.484
236.264
200.548
49.3507
46.3499
46.1868
44.6603
140.677
182.275
142.166
45.301
41.4616
43.7278
37.1413
135.994
138.211
140.872
39.2303
33.7458
34.9304
30.5838
143.243
142.538
141.596
32.3292
30.0636
29.9555
29.1166
136.456
138.23
112.685
29.4046
27.9466
29.0044
27.8798
181.771
198.532
177.601
66.3682
58.9586
76.7158
54.1083
233.411
182.577
206.506
57.6549
50.1644
48.062
41.4232
242.473
211.076
215.357
48.0275
45.0535
40.921
40.7013
205.915
213.637
197.694
44.9063
44.4277
41.025
41.4182
142.872
184.498
147.975
43.7075
36.6098
41.1638
37.5046
143.132
145.483
142.117
34.4111
30.5818
36.024
33.0033
137.182
138.535
132.727
30.0817
29.4014
32.3262
30.8534
111.996
132.607
120.008
29.3151
27.9929
30.6489
29.4482
179.975
219.905
182.411
83.4106
56.0675
78.2039
50.4766
192.879
184.975
188.45
49.3486
41.0757
46.6447
42.0898
196.93
187.782
177.01
40.4041
39.5843
41.6109
39.8211
186.462
170.888
157.769
39.606
39.9099
38.9821
36.9396
149.548
155.236
151.189
39.846
37.5788
36.5044
35.5097
141.796
151.648
163.49
36.5846
33.5675
35.1567
34.2656
140.622
164.815
159.991
32.7622
31.4615
34.2689
34.0873
122.111
155.165
133.77
31.3631
29.7745
33.7608
30.2516
187.366
261.269
192.329
75.3378
50.479
87.5422
54.4245
192.462
191.857
199.778
46.7366
42.2807
48.732
43.5646
182.815
195.733
194.093
41.6339
39.8121
41.6785
38.2117
161.38
191.547
183.428
39.0924
37.003
38.1383
38.0534
157.243
179.978
173.834
36.5258
35.6129
37.568
37.0745
168.452
172.191
164.657
35.4201
35.46
37.0759
36.7326
159.491
159.73
149.895
35.5159
34.7538
36.2963
34.575
133.78
148.622
135.664
34.1831
30.2651
33.9416
31.4978
88.2948
83.2142
70.4769
79.3016
65.0466
64.9721
53.5582
59.7734
66.3063
51.094
60.5319
45.7885
50.5883
41.0707
45.2982
47.1369
41.1626
42.404
36.348
38.4329
33.7162
40.5089
40.4913
38.7654
34.9689
31.6982
32.8495
30.3326
35.6108
37.7091
32.2874
30.637
27.6348
29.3558
26.403
29.293
30.5932
27.2761
26.6318
24.5181
25.6419
24.2561
26.4679
26.7689
26.1667
24.014
23.2665
24.0675
24.0736
25.6852
26.1324
26.1653
23.2013
23.2323
24.1842
24.6164
53.892
67.823
48.6731
50.8736
45.2023
51.0805
39.0958
45.0015
43.446
37.1217
43.4355
37.6788
36.4042
32.337
39.6294
36.4812
35.9078
36.0037
32.8379
31.6757
30.5494
38.5143
36.0372
36.8784
32.2195
30.3522
30.8426
44.5395
31.9568
36.767
34.0833
29.4705
26.7319
44.8674
41.614
27.4186
32.9697
30.8019
26.0477
24.9868
39.1237
34.8368
26.6464
30.261
28.9653
24.9302
25.21
33.4113
29.9668
26.4604
28.6968
27.5948
25.3603
25.425
28.9555
25.6415
50.3687
64.6307
45.1717
54.0225
39.6029
48.1292
37.1852
36.9086
41.8795
37.6547
36.5224
32.0023
35.186
32.2102
35.0665
37.0873
35.2839
31.3064
30.0334
31.6132
29.9247
35.9652
34.5619
33.0193
30.1405
43.6906
29.431
29.5415
34.4224
32.7361
32.0664
44.3272
43.4306
29.6397
29.1789
31.5656
31.8061
30.9416
41.4943
35.9844
28.7991
27.2717
29.2742
30.7822
30.0084
33.7456
28.8173
26.7626
25.2645
27.5905
29.5892
27.2967
27.6108
24.7001
24.7822
23.2727
45.0589
69.8562
48.5138
47.5009
37.0678
52.3251
39.0547
37.7514
43.5707
38.5917
35.1142
32.269
36.2577
32.7971
35.3224
36.9999
34.2144
31.644
30.0271
31.5397
29.5485
33.0307
34.1794
33.8175
29.5441
28.7367
29.4356
28.6679
32.0018
33.4003
32.7953
28.5792
28.0637
28.2155
27.4238
31.5872
32.7734
32.0898
27.8459
26.8575
27.2939
26.4085
30.3108
31.7159
30.1689
26.4621
25.1131
26.0813
25.1716
27.2781
29.7241
28.3766
24.6819
23.3391
24.9617
24.3387
59.2017
60.0282
49.7986
55.9808
48.3693
50.5904
43.84
42.8323
47.2403
39.2074
45.5868
38.2304
42.2028
37.1418
34.7619
36.9405
32.6099
36.6356
33.0631
35.6738
32.3044
30.2284
31.7035
29.1704
31.9325
29.5616
31.3979
29.3469
26.7085
28.3083
25.9686
28.9967
27.8589
28.8682
27.9886
24.3383
25.4046
24.4542
27.5795
27.173
27.8804
28.1319
23.4674
24.3619
24.5296
27.1363
27.2801
28.325
28.9374
23.4758
24.6573
25.0078
27.3363
27.435
29.0629
29.2939
43.3882
47.0314
37.4951
45.498
40.889
40.9501
36.2392
36.5429
35.3727
31.9489
39.6618
36.0387
35.2539
33.3812
31.9255
31.3179
30.1849
34.9317
32.0549
32.859
31.4891
30.3935
30.5914
30.7204
30.7116
30.6295
30.0601
30.3676
30.0979
27.8003
30.1262
28.2691
29.5514
27.6865
30.4429
25.3633
48.0261
37.9107
28.5791
28.9965
48.8379
37.843
25.8015
35.6117
30.8593
29.2931
30.0637
36.1326
32.9107
25.8807
29.5704
25.8158
30.1439
29.9431
31.9372
29.329
37.6825
44.6271
35.9396
41.2113
35.8863
40.3709
35.251
31.5687
34.2628
31.6577
34.8342
32.9797
34.3557
32.8231
29.727
31.087
29.4655
32.4951
31.29
32.3967
30.9488
46.9977
47.1981
29.8828
35.1326
35.5821
211.8
30.3801
60.4483
63.0573
48.4521
159.84
48.0591
147.633
63.2201
38.8121
28.7158
26.9899
51.1301
37.3286
29.896
28.7115
29.198
26.4531
24.9984
35.1406
31.3568
28.462
27.8
24.7798
24.5577
23.2699
30.4249
28.43
27.5644
26.956
35.8741
47.7073
37.64
41.004
35.322
43.4037
36.5075
31.7207
35.261
32.1423
34.4086
32.8418
34.9384
32.6378
29.5766
30.9709
29.1766
32.3904
31.0838
31.7631
30.5426
28.5108
29.0468
28.1821
30.6841
30.1354
30.3388
29.3547
27.7911
27.7235
26.9248
29.9705
29.2518
28.9812
28.3788
26.4356
26.7844
25.9245
28.9877
28.2922
28.229
27.6323
24.8146
25.6287
24.8822
28.1135
27.589
27.4827
27.1634
23.3486
24.7184
24.2216
27.4059
26.9301
27.0813
26.7913
46.8509
49.4066
43.4099
52.1622
46.7369
49.6471
46.1645
37.9693
41.9911
37.638
44.7026
41.051
45.3123
43.1195
33.6325
36.3941
33.3645
40.7842
39.6606
42.6686
41.2083
30.6265
32.4997
30.7207
39.0063
38.6392
40.6651
40.1264
29.6453
30.3739
29.9267
39.0467
39.7618
40.2331
41.0811
29.4166
29.9633
30.7592
39.7978
40.3667
41.5684
43.3309
29.8499
31.0797
31.8615
40.7201
41.3383
43.7352
44.327
29.7407
31.9816
31.8806
41.3347
40.812
44.3419
43.8199
41.1157
40.6065
36.9286
46.9081
45.2058
42.6636
42.5626
36.9188
36.2451
34.8598
44.6901
43.2858
42.7106
42.9367
33.1963
34.3833
32.7334
42.9244
41.0744
42.7237
40.7571
30.9332
33.0844
52.4204
40.4427
39.7558
40.3155
42.493
30.389
52.5306
45.8142
39.8255
40.577
42.8914
42.5886
31.4304
42.8359
37.2518
41.13
43.568
42.5087
44.2576
32.8408
36.4466
34.7443
44.1511
44.8291
44.9214
45.2302
32.4225
34.0641
31.7614
44.8256
44.007
44.9951
43.5009
36.5026
40.281
36.0424
42.1908
42.165
42.7503
41.831
34.4921
35.3976
34.2687
42.3749
42.767
41.9479
42.3074
32.5839
33.9213
32.4997
42.5965
40.749
42.3114
41.166
50.7592
32.113
32.4803
40.4017
42.7125
40.6944
40.3725
46.473
32.462
31.552
42.9989
42.4918
40.3668
40.2025
36.6295
31.1628
30.6133
42.3137
43.7667
40.3304
41.9135
33.4724
30.5762
30.3293
44.3854
44.6435
42.3129
42.6406
30.9523
30.1743
29.4474
44.4166
43.0339
42.6105
41.7911
36.1303
43.021
37.0836
43.8986
41.7973
46.0603
41.7122
34.2323
35.6639
33.5784
41.8033
41.9609
40.5455
39.1029
32.6529
32.8568
31.9112
41.9994
41.3391
39.1684
39.1932
31.6013
31.6762
30.7418
40.9203
40.396
38.9723
38.4154
30.7781
30.4157
29.987
40.3596
40.3786
38.5231
38.6307
30.3168
29.8353
29.408
40.563
41.6676
38.5806
38.5696
30.0592
29.293
29.1339
41.9087
42.147
38.7203
38.7905
29.3567
29.0505
28.6257
42.1304
41.4619
38.7698
38.0441
48.2242
51.1272
48.4148
81.3146
71.659
76.4491
80.1767
43.4605
47.7105
46.1662
71.658
76.7612
79.5588
81.0253
42.9471
45.9467
45.3143
78.4462
75.1759
81.4327
84.5837
42.4466
45.0555
45.1149
75.6804
79.4341
85.7733
88.8478
43.7743
45.3642
46.3066
81.1813
79.7475
89.5188
89.6231
44.3181
46.6449
47.8327
80.6749
82.5134
89.2768
87.6811
45.2163
48.1272
48.5273
84.0483
82.6227
87.7049
87.4661
44.0778
48.5259
47.2628
83.73
82.3423
87.6368
88.8179
47.749
44.7477
45.6523
72.1442
80.4814
68.3139
81.6039
46.4869
45.9685
46.5564
80.4014
81.9758
82.0925
84.9757
45.3341
46.4841
45.1616
82.7617
87.6476
86.7474
94.8674
44.7478
44.7106
45.7379
89.1983
92.3769
97.1354
100.897
46.0053
46.1455
46.4866
92.9799
92.9184
101.35
100.06
48.1742
46.734
48.7793
92.2474
89.2716
98.1813
92.1322
48.9774
49.2442
49.3156
88.6076
88.0314
90.5208
88.5806
47.4183
49.0962
46.9822
88.0972
87.4794
88.5011
87.7262
45.3223
44.8858
44.9323
72.5134
82.5894
74.3731
81.7356
46.4566
45.2278
45.8818
82.785
85.3524
81.553
83.5809
45.1792
45.9859
45.4294
87.133
95.4009
84.5118
89.8204
45.9857
45.0828
44.9268
97.8129
101.217
91.4116
93.7269
46.3732
45.0025
45.1417
101.503
100.135
93.9986
93.3875
48.3505
45.3848
46.4736
98.122
91.9476
92.3425
88.6399
48.8333
46.7748
46.9779
90.3285
88.4004
87.8062
87.2437
46.5691
46.9436
45.4477
88.304
87.1301
87.2777
86.9671
44.804
49.0464
44.3451
77.6835
80.2687
77.5239
70.9919
45.4323
43.1985
41.927
79.9902
82.3488
70.5664
76.8883
45.3942
42.1652
42.4342
82.9535
86.6185
78.942
76.576
44.9213
42.2336
41.7961
87.8432
90.0984
76.8786
80.1113
45.1645
42.0141
42.2052
90.4557
90.1524
81.3134
80.4373
46.0537
42.1857
42.2326
89.5129
87.0656
80.751
82.3371
46.4325
42.439
42.4974
86.8976
86.6717
82.7798
82.2566
45.0777
42.5042
41.2473
86.7804
87.6227
82.4483
81.8654
30.6841
29.9978
30.5533
28.8856
30.677
29.4848
30.6673
34.7657
30.6013
47.0511
35.0356
32.0508
30.6133
161.904
40.3259
36.7613
64.3025
181.924
35.4024
41.959
201.186
30.5123
30.6979
30.5698
31.1018
30.0386
30.4847
31.0053
30.9013
28.9969
30.0753
31.4749
29.5041
31.0227
31.2635
35.4003
36.0043
31.456
51.7756
30.9072
165.558
33.3975
41.8524
183.711
40.2624
73.6201
43.8427
203.065
38.1039
29.869
27.0993
28.5649
26.7712
29.0537
27.189
29.4873
41.8808
36.8053
68.6929
170.072
36.5408
41.9784
157.988
42.1112
35.2946
64.2205
77.7311
36.2372
39.4203
108.565
30.8172
28.5145
29.0167
31.4882
28.0956
30.9459
31.4848
30.7855
27.4875
28.811
31.3525
27.7638
30.4814
31.4889
44.5862
171.978
40.897
74.835
44.0699
161.329
41.3427
44.8471
78.859
39.7397
68.0453
41.334
113.187
41.2003
60.4608
61.1997
47.6247
173.616
43.6722
191.493
63.594
30.9439
29.2609
29.0189
29.1194
30.0541
29.4234
29.1912
34.2499
34.2073
29.275
30.1626
32.3677
36.2717
29.643
47.3726
36.1261
51.8174
31.5125
204.914
30.9259
38.2418
60.018
176.786
69.1693
49.339
194.406
61.7213
46.7738
31.6103
29.6335
30.8969
30.6593
29.9642
29.7275
31.9889
34.8768
30.6858
35.8829
31.0301
36.6351
30.2172
34.4997
55.1771
63.983
44.7457
98.6613
46.9817
136.037
50.5376
36.4676
34.8347
29.8083
30.2642
34.8132
36.6812
30.1861
35.5916
33.4974
29.597
29.3853
34.4303
34.2929
29.8684
57.7676
163.956
69.8462
49.2387
152.841
61.0206
48.1184
53.1157
95.7973
68.9698
43.0505
135.809
48.5176
45.9072
36.5419
30.7397
36.041
31.2509
36.8595
30.6261
35.7746
35.5154
29.7381
33.8714
30.8543
34.2449
30.2398
34.9118
169.613
214.175
169.306
133.832
121.148
134.245
119.598
130.372
143.245
139.751
95.1808
73.8363
95.5573
75.2947
122.242
140.843
139.817
65.529
60.1275
65.9202
61.9336
111.526
131.44
114.686
58.186
56.9214
58.2614
55.6413
95.5315
102.909
94.14
54.7893
51.061
52.9798
50.6583
92.9438
88.9658
88.1393
47.1493
44.5888
46.2474
41.0915
87.2679
88.0381
88.7501
41.5904
37.3431
38.1338
35.7894
82.9639
89.5459
85.9514
36.2015
30.7263
35.0749
29.5603
185.797
184.459
149.383
128.21
113.598
116.929
98.7783
160.492
288.449
300.814
176.649
162.177
176.263
260.579
100.376
196.789
197.237
111.897
99.5512
111.559
197.053
93.6727
244.73
242.882
91.9323
91.9459
93.4997
248.859
83.0065
212.215
233.165
84.2583
83.028
86.8634
218.691
73.2582
157.257
171.212
78.0876
76.834
74.7958
157.351
61.381
134.159
133.587
69.1016
68.3027
64.8894
132.068
53.8433
140.432
137.42
60.8418
60.3616
54.5057
140.556
51.8241
144.76
144.552
53.9798
53.9133
51.9207
144.339
82.0562
84.7444
71.5883
31.9515
28.1752
32.192
27.7566
112.152
156.355
130.377
81.1836
73.1817
98.7597
85.7277
84.4295
168.697
167.368
105.404
93.9155
100.474
165.771
79.6636
207.658
200.103
87.2268
85.8036
78.8997
212.98
81.3615
244.652
236.298
84.709
84.3933
81.2831
238.659
81.4162
226.882
231.875
83.4797
82.5993
81.7906
224.422
75.7496
167.964
188.985
78.0469
75.9888
77.4407
169.4
57.3428
140.172
141.447
60.8752
57.1942
61.1009
141.852
52.2766
143.247
144.303
53.0806
52.5318
53.2557
142.061
48.7328
129.113
129.153
50.9201
49.6542
49.9741
126.864
70.8657
83.4586
75.6858
31.717
27.2142
32.3023
27.6542
150.42
197.637
151.665
125.331
101.244
131.23
104.465
113.321
187.814
218.581
132.011
110.641
136.654
183.997
70.5893
184.807
176.068
74.639
71.3052
73.881
179.995
70.5227
196.572
184.352
70.9098
71.0723
70.4791
183.959
67.7277
194.63
177.274
71.4068
71.4042
68.7755
176.185
65.9626
165.937
166.253
69.9877
68.9698
66.6123
160.575
59.1365
144.801
146.637
62.3217
59.5971
61.7141
145.368
54.2471
140.162
147.281
53.5459
52.3467
54.3999
149.283
54.9825
139.857
148.618
52.0728
52.2472
54.946
145.698
78.6041
93.9107
85.0194
33.545
27.9958
34.1363
29.4232
150.139
195.977
165.894
132.603
96.8253
127.65
93.6388
113.272
191.681
228.017
134.555
107.663
137.264
199.432
76.0407
191.966
191.696
77.6485
75.2667
78.4742
194.745
71.669
189.944
195.548
72.8315
71.6575
72.7769
193.955
67.35
170.854
183.755
68.413
66.7891
68.6379
179.234
63.5904
156.84
168.731
63.1712
62.4428
64.0344
167.374
63.4449
163.473
168.525
60.528
60.6197
62.9739
170.017
64.3197
167.811
169.876
62.6494
62.8858
64.3878
166.989
60.0024
150.862
152.569
61.683
60.2954
62.1749
150.145
87.835
100.268
93.5658
34.9968
30.0794
38.0455
36.3854
127.319
137.892
120.076
84.3779
70.306
81.1873
65.3971
121.254
123.243
121.86
56.8691
52.9914
62.5031
60.127
117.758
117.122
109.639
49.0522
46.1288
55.6923
46.6669
111.412
108.764
108.672
45.5602
45.5411
46.9175
48.5702
105.95
103.579
98.8154
44.745
43.9187
46.6771
43.3833
99.2218