/*--------------------------------*- C++ -*----------------------------------*\
  =========                 |
  \\      /  F ield         | OpenFOAM: The Open Source CFD Toolbox
   \\    /   O peration     | Website:  https://openfoam.org
    \\  /    A nd           | Version:  10
     \\/     M anipulation  |
\*---------------------------------------------------------------------------*/
FoamFile
{
    format      ascii;
    class       surfaceScalarField;
    location    "5.2";
    object      phi;
}
// * * * * * * * * * * * * * * * * * * * * * * * * * * * * * * * * * * * * * //

dimensions      [0 3 -1 0 0 0 0];

internalField   nonuniform List<scalar> 
38556
(
1017.56
17.2278
2724.68
911.377
-317.127
423.308
1073.01
-158.81
-2.82253
1155.84
-113.613
30.7826
1326.5
-145.759
-24.8968
1447.81
-137.288
15.9783
1533.53
-102.769
17.0496
1614.41
-101.435
20.5503
1631.22
-45.321
28.5078
1596.58
-16.0841
50.7256
1410
91.1525
95.433
1245.81
115.784
48.4053
1163.07
94.3258
-11.5857
1137.79
58.202
-32.9275
1136.09
29.3803
-27.6726
1149.03
8.56913
-21.5128
1170.69
-10.7933
-10.8697
1193.56
-24.6941
1.82475
1213.03
-36.7553
17.284
-35.2014
19.1976
-628.588
643.67
2964.78
49.7035
-1004.56
9.13975
261.302
-498.966
128.558
412.462
-330.101
65.3279
585.222
-256.619
-61.9001
576.728
-129.598
0.8034
681.31
-103.15
-104.202
711.153
-34.3166
-96.9607
807.106
-4.83282
-136.442
852.717
61.7302
-123.425
926.986
88.2935
-71.4099
965.365
100.045
-22.6402
992.121
59.1822
8.38826
1001.85
33.5326
14.9441
1005.71
-2.75069
28.2647
1005.16
-17.3737
26.4985
1000.43
-35.9332
29.8643
992.971
-42.3811
25.1487
985.146
-51.8071
22.8771
-50.0609
15.1759
1295.4
-157.655
1490.66
818.878
-945.056
417.017
927.531
-488.084
-119.536
760.029
-278.737
116.138
791.661
-258.168
-30.0822
733.181
-68.0909
-3.0269
765.966
-103.61
-32.3247
754.607
3.51023
-26.4681
796.159
-27.0079
-19.3769
813.839
56.2827
-12.232
856.735
38.4434
6.9541
876.561
63.7732
16.4452
890.171
19.2815
26.2912
891.243
10.6786
21.7817
888.156
-21.334
21.6699
885.418
-30.3027
15.6678
886.673
-49.8677
12.6791
889.414
-53.5606
8.43869
897.341
-67.4452
7.71073
-64.7127
6.17603
2506.02
-1333.96
-3277.3
1822.06
-294.597
33.502
1220.99
-51.2942
164.276
856.255
-6.88931
92.8893
609.926
-75.9331
64.0946
539.751
-29.8484
31.9325
592.519
-138.689
-17.6884
590.019
-12.9395
18.9491
661.663
-83.9234
-14.7276
677.486
30.7205
9.73843
732.831
-25.8105
8.90958
755.719
28.1297
12.7556
785.896
-20.4813
9.58591
798.19
-6.66815
5.05264
815.731
-40.8477
1.9721
828.106
-44.049
1.37194
844.592
-69.1481
2.79332
860.461
-72.0441
2.61502
877.612
-88.318
3.72142
-81.6793
5.12381
937.243
-339.2
3305.46
870.829
-175.725
-52.4584
889.143
157.765
-227.373
881.879
39.5607
-39.1857
837.819
-82.7475
50.8747
809.399
-29.5425
28.1132
835.877
-197.596
32.43
837.06
-31.7684
17.6459
852.838
-105.479
5.77765
857.525
21.5855
4.44807
873.246
-43.4892
1.9572
878.414
22.7327
0.229269
883.306
-26.5831
1.20984
881.709
-3.37693
-1.6942
879.578
-40.0679
1.35072
877.712
-43.121
0.938024
882.232
-75.942
2.27461
889.915
-81.7645
2.03688
900.079
-101.19
2.70882
-92.4914
3.11126
-266.272
303.38
-343.568
376.364
-54.9441
-763.417
488.042
410.316
-364.229
463.581
155.83
-91.8079
619.279
-100.687
-137.759
606.259
-81.2169
64.6946
798.788
-387.515
-2.61033
783.775
-86.7675
70.0122
840.593
-181.396
19.099
840.283
-0.573716
22.4688
861.376
-70.4065
5.82437
864.234
14.0291
5.84587
872.133
-38.9377
4.45504
868.295
-2.57043
3.03248
865.264
-44.0626
7.02542
867.561
-50.0234
4.6051
877.786
-90.1774
4.01028
892.232
-98.4401
2.23017
905.761
-117.176
2.45588
-104.174
3.10815
-345.329
377.34
672.775
340.462
111.43
-852.165
1133.45
341.637
-724.311
1323.45
201.003
-235.169
1403.93
-107.25
-73.924
1313.57
-77.6598
86.8091
1162.64
-72.4099
102.666
-108.918
-58.6243
-99.3009
1103.46
-61.1339
114.112
-16.695
-53.9672
-9.89944
1071.85
-46.6644
47.1918
-56.0351
-41.9803
-52.3061
1044.44
-21.5873
27.9452
16.3079
-15.7309
19.9088
1001.44
-8.65383
15.7088
-11.4759
-9.43733
-13.5476
959.412
-1.14422
15.8252
23.6809
-2.27918
19.9696
916.872
-2.46482
21.6413
-3.39973
-6.10808
-6.06683
887.218
-3.16077
17.3218
11.7562
-5.52015
6.68704
886.551
-65.008
21.6119
901.869
-74.307
8.96622
923.394
-116.961
5.25821
943.952
-121.096
2.09775
959.219
-134.194
1.75117
-117.067
4.27881
1034.3
-654.275
-1989.98
1322.85
-138.531
-38.5939
1661.78
154.282
-151.576
1986.9
-3.07804
-121.032
1961.32
-177.046
95.372
455.408
-40.9269
175.945
442.373
450.306
445.823
2.56552
-41.1028
-6.73216
399.584
-53.038
36.452
-320.798
284.137
-54.8033
30.3308
-280.355
267.764
-41.9509
7.87783
-250.586
251.119
-29.2412
7.12123
-253.52
243.034
-2.17741
4.00952
-225.9
218.865
1.0348
4.8557
-217.37
209.539
3.87928
1.48671
-201.813
204.573
-4.90323
-1.01778
890.726
-29.9991
-5.0806
-210.626
-214.904
-207.301
-209.922
-23.1926
-30.78
-23.929
932.969
-113.081
-3.46897
954.648
-140.643
2.00227
970.12
-139.32
2.75304
980.815
-147.437
2.5473
-130.67
5.43329
-757.959
-1025.7
-3234.63
304.824
-176.736
-1024.58
1165.91
-103.72
-603.088
1438.34
-94.1107
-181.393
338.837
-290.524
268.135
262.749
358.226
323.871
359.446
-70.1701
8.63422
6.75967
-93.3297
91.0377
-7.73319
3.26545
-77.1983
7.54479
76.5441
-6.67796
-0.2126
-75.8729
8.61441
74.4276
-6.3295
-0.839631
-67.1046
5.3391
65.852
-3.41794
-0.66849
-63.3704
-0.417358
62.4187
0.776165
0.592881
-58.0245
-1.6851
56.3595
2.53974
0.810351
-53.7562
-2.14613
53.1377
2.75251
0.0121209
-53.034
0.904643
53.4234
-0.831984
-0.462103
-56.7086
236.418
-35.4021
-1.32903
-58.3193
-56.764
-57.8937
969.963
-129.113
0.854432
-239.677
-245.065
-233.031
-237.012
967.829
-138.044
-0.46502
968.922
-142.755
2.34178
974.546
-155.06
1.99876
-139.893
2.18736
630.112
58.4437
-720.965
1043.93
141.156
-731.707
1166.06
235.626
-461.475
1006.11
203.864
-138.03
101.687
-187.769
345.013
135.646
136.049
184.961
74.1828
117.738
-102.718
12.4833
13.5793
-37.95
40.4809
-18.2783
2.16814
2.53233
-51.1565
55.0823
-6.49875
0.0405792
-2.05436
-62.8363
64.0762
2.11837
-1.30394
-3.78164
-66.0796
66.1235
4.96334
-1.22557
-4.1963
-65.7025
64.3017
5.56037
0.0367252
-6.69387
-56.9888
55.2234
7.51347
0.945727
-4.221
-54.2176
54.8589
3.67843
-0.0987112
1.75031
-58.6202
59.7269
-3.06157
0.204595
-61.9964
36.4396
244.498
-36.0472
1.41884
-62.0321
-61.1286
-61.1518
930.146
-115.437
-1.482
-241.357
-236.301
-235.333
-229.349
923.793
-129.217
-2.47476
926.059
-142.589
-2.43182
934.28
-158.547
-4.73382
-143.734
-3.77997
658.582
-518.278
-351.71
1344.67
416.403
-961.331
1708.77
788.177
-916.657
1694.6
484.147
-266.112
301.479
-51.7647
212.39
311.983
370.707
362.037
128.304
260.62
-107.597
20.1527
24.9224
-56.3306
54.2895
-23.4032
0.521799
10.3749
-54.5165
54.2
-8.9044
-1.15391
1.04641
-54.6097
55.361
-1.55909
-0.238534
-5.32344
-59.6059
60.8519
4.19507
-0.117612
-8.12201
-62.6134
62.2245
8.33328
0.177576
-8.50991
-60.6078
60.3426
8.22337
0.551722
-1.31736
-60.8894
61.4801
0.946138
-0.21945
4.48848
-62.6965
62.7594
-4.12712
-0.424224
-60.787
31.4974
231.99
-24.9456
1.39699
-60.5237
-59.5786
-59.0496
894.808
-105.149
-10.1833
-227.585
-226.627
-221.481
-219.221
904.816
-128.637
-10.5876
918.534
-146.811
-9.49637
931.515
-165.702
-5.82566
-149.597
-2.34686
1161.63
582.314
1343.94
1430.37
655.468
-507.806
1515.92
712.568
-9.9383
1570.23
312.712
117.123
256.611
20.3926
341.39
265.173
311.571
323.328
86.585
228.117
-91.0657
32.9748
21.8879
-58.0848
57.4841
-23.3508
2.06358
8.74222
-54.3409
53.5581
-8.62136
0.661968
5.27832
-55.582
56.3739
-6.25899
0.188805
-1.99598
-59.5149
59.3261
2.06788
0.116873
-6.04503
-60.172
60.2536
5.53634
0.427158
-6.438
-61.8429
62.4257
5.81158
0.0436097
-1.63923
-65.3547
65.5223
1.99798
-0.526282
2.30226
-64.8626
63.7375
-1.38963
0.212564
-60.8951
19.6041
231.127
-11.2822
0.197601
-60.4883
-59.2467
-59.0165
927.809
-96.9474
-18.2349
-232.249
-235.413
-222.913
-227.2
940.69
-125.112
-16.4064
955.397
-149.649
-11.8693
962.856
-170.049
-3.11139
-151.947
0.346982
1188.14
-219.105
503.368
1473.14
591.434
-220.972
1423.87
554.001
207.841
1458.07
67.9652
210.549
1204.46
39.8962
234.11
249.707
-322.139
92.7799
89.5304
147.547
67.248
137.454
253.469
242.19
246.669
18.7058
212.931
-23.7524
10.1757
5.63903
19.3546
6.65358
5.44919
-166.927
163.191
-27.3874
4.2741
7.92648
5.70462
7.76976
5.43875
-193.776
195.496
-20.6433
0.513038
4.33682
4.92535
3.70935
-2.36676
-189.476
192.177
0.987358
0.883753
-0.231518
-1.8899
-0.084045
-4.29937
-217.391
226.783
3.74873
1.79338
-3.93463
-3.68582
-3.01417
-4.58682
-231.737
230.846
10.5135
3.22852
-3.0711
-3.58651
-1.60689
-2.47696
-240.53
239.639
1.98168
3.7224
-1.00951
-1.36514
0.0386065
0.157029
-240.72
237.41
-2.77905
1.76846
1.1763
1.09233
1.89496
960.824
-73.0149
-15.2918
11.4102
23.579
13.2077
24.5817
-241.049
-241.068
-230.249
-232.93
975.428
-89.355
-22.1958
994.01
-121.598
-22.0959
1005.11
-150.196
-10.5576
1002.55
-167.352
-0.128424
-145.885
-1.574
903.028
-736.888
2709.66
800.38
752.796
-58.7146
1096.58
395.504
-137.7
968.647
-6.32622
202.222
971.253
-61.2563
98.5464
815.17
-242.788
76.7325
844.134
27.8969
77.9444
-4.00368
-60.4784
-12.8534
-57.4702
798.477
-260.381
27.7126
42.0536
93.9575
50.6336
91.6804
836.714
-106.063
50.3598
19.7098
-9.5256
12.5421
-5.26018
865.302
-185.429
35.3137
12.4942
45.4
17.1268
46.5065
905.707
-94.0967
28.0453
8.15947
3.61602
8.02677
5.84398
939.906
-109.936
18.5425
3.10415
21.7559
6.78428
25.5495
969.298
-71.8609
6.20267
5.15381
10.4727
7.03234
13.6078
988.07
-85.999
-2.75279
8.19683
23.6659
12.0406
26.0769
1006.95
-77.9823
-13.9172
1031.71
-89.7646
-24.3417
1048.47
-113.759
-24.6073
1047.09
-141.111
-7.7041
1029.54
-155.803
6.00699
-127.346
-3.54394
-1053.6
-555.437
3002.99
256.931
208.514
-766.245
917.528
258.319
-523.413
984.261
-31.0964
-41.9626
1055.27
-84.1636
-48.1008
1060.49
-193.973
-54.0396
1174.17
-116.408
30.6297
1166.05
-239.114
-13.1492
1181.13
-175.271
54.1281
1162.56
-203.34
36.4828
1149.84
-123.815
42.4416
1133.48
-112.886
19.3113
1124.44
-71.7037
8.88427
1118.02
-73.0309
-6.5496
1114.85
-60.9401
-13.8731
1117.18
-65.2105
-26.8884
1113.31
-86.7261
-23.159
1094.94
-116.543
-6.2024
1051.22
-128.781
16.7049
-95.7883
1.18522
-225.423
-125.155
1396.52
449.376
-202.94
-263.344
810.061
206.337
-308.704
906.479
-24.0381
-103.475
1034.48
-38.561
-173.608
1063.01
-78.7113
-143.787
1165.97
-78.0432
-141.323
1198.24
-165.56
-105.827
1225.19
-182.258
-19.9655
1223.86
-207.044
5.03472
1221.34
-151.064
29.7686
1212.55
-126.611
22.5171
1206.61
-86.5218
20.7565
1200.72
-76.0264
8.88561
1196.64
-58.6082
1.75435
1194.84
-53.7619
-9.65565
1174.54
-61.6754
-4.74515
1127.41
-78.1081
8.69593
1060.54
-92.2747
30.3632
-66.3189
12.4323
647.698
113.939
-2448.91
979.462
-322.519
-212.185
1339.23
101.109
-254.54
1481.58
13.4907
-179.875
1551.48
68.302
-176.767
1621.93
40.4946
-189.65
1624.29
16.7981
-97.2058
1571.01
-35.2502
-77.0356
1469.33
-107.916
27.3413
1380.1
-148.243
30.4333
1323.3
-128.762
34.4981
1298.68
-121.081
19.0902
1290.9
-97.2676
18.5226
1290.64
-89.2065
13.4435
1292.11
-74.2643
14.1797
1290.13
-63.2493
11.4652
1268.01
-46.4214
6.87084
1207.71
-36.7253
18.9152
1105.4
-32.1256
42.1587
-25.1687
21.3372
566.153
-180.849
746.481
905.526
-669.406
7.51327
1465.25
-243.882
-214.738
1700.29
-93.9772
-127.563
1818.19
59.4557
-109.062
1864.09
93.4785
-98.8827
1781.53
78.8376
20.525
1695.34
1.55934
49.374
1558.07
-55.554
84.9114
1455.37
-89.5886
44.0423
1384.43
-86.0284
28.207
1346.88
-89.4773
5.94739
1324.41
-78.3231
3.52568
1313.65
-76.1454
-2.30093
1310.5
-67.3773
-3.7296
1318.73
-62.7976
-8.68401
1320.27
-41.086
-6.87726
1300.73
-14.5454
-2.6389
1224.28
18.102
26.2184
16.4988
20.813
238.75
-209.074
1343.63
1167.26
201.206
-1799.12
1681.08
325.19
-1082.89
1647.01
269.386
-329.286
1659.63
18.8457
27.9859
1632.91
-2.20957
122.41
1522.09
-22.1908
211.844
1435.36
-52.1595
140.455
1370.86
-72.6894
81.6318
1335.78
-77.7274
23.2219
1309.49
-75.5207
15.7837
1286.12
-76.1329
10.0178
1260.14
-69.4313
17.0959
1236.34
-67.9361
15.5919
1213.56
-55.0631
10.4622
1194.05
-46.0539
2.76125
1170.86
-19.6853
1.79485
1149.37
3.70977
3.23768
1135.52
37.4385
-5.49483
35.6781
-11.7645
2195.7
-1971.29
3037.32
-640.414
2950.18
412.328
2713.57
505.994
2109.38
623.041
1750.45
356.721
1563.86
164.399
1487.85
23.848
1443.9
-28.7373
1425.76
-59.5936
1402.3
-52.053
1378.67
-52.5117
1342.85
-33.6103
1303.04
-28.1266
1252.73
-4.74623
1210.08
-3.40518
1193.16
-2.7688
1196.69
0.186465
1238.45
-4.32708
-0.322802
1097.58
-259.373
-1466.51
954.211
-199.452
766.13
1039.08
-126.133
38.4373
1105.96
-76.5168
40.4228
1222.98
-109.736
-32.1834
1311.02
-94.4389
22.3842
1374.63
-59.6677
13.1024
1434.95
-58.3598
18.5956
1431.6
-10.7986
42.6577
1382.51
22.8364
76.9708
1242.73
105.595
129.621
1133.38
94.392
63.3645
1060.02
46.2896
15.4845
1031.5
10.0798
-14.4828
1029.33
-12.3302
-13.1724
1038.47
-23.5467
-7.10604
1056.87
-32.9847
3.71374
1082.54
-36.4377
12.5895
1111.87
-39.3404
27.2895
-32.6588
29.4443
-1316.51
-56.4786
567.883
-373.99
-612.226
-520.609
194.444
-375.75
-190.259
399.259
-243.239
27.2357
543.372
-203.871
-111.878
566.482
-97.8471
-18.8985
658.179
-86.244
-169.322
688.384
-28.0453
-157.481
756.644
-8.88149
-206.619
775.632
48.6809
-168.258
822.132
60.1069
-72.4212
843.706
62.1851
-12.0073
861.553
21.8071
15.0235
867.303
4.33559
14.9387
874.261
-18.8264
27.8029
877.893
-23.984
23.3035
881.444
-34.04
27.3688
883.687
-34.8623
21.3297
886.992
-39.4701
19.7013
-35.066
12.2914
1004.83
60.6883
1660.42
653.453
-539.886
696.049
622.535
-318.577
-145.791
604.479
-198.443
89.3982
646.175
-208.478
-67.1709
616.411
-64.0171
-7.09292
660.489
-108.808
-53.8391
653.706
-7.40615
-40.3236
697.765
-37.4424
-34.8746
710.581
39.3935
-15.7608
752.724
12.1683
12.7499
767.05
44.2838
20.0208
782.884
0.119824
32.1445
785.297
1.1017
22.6018
788.411
-23.1664
22.8963
789.746
-24.7141
15.0626
794.806
-39.6306
13.2097
798.947
-38.7681
8.20384
807.401
-47.3578
7.14484
-42.4394
5.34122
1579.73
-607.512
-1154.32
1200.95
-14.6035
-112.996
802.976
169.552
74.1208
613.972
41.0623
42.3881
502.768
-68.2067
35.026
462.425
-33.7126
41.9712
516.569
-152.782
-27.8598
521.775
-20.1289
26.4659
589.119
-99.9835
-19.5302
603.825
21.3502
13.0751
657.148
-38.8041
6.55944
676.009
22.9366
15.2418
704.061
-27.3785
9.03134
712.391
-6.65088
4.47521
728.955
-40.585
2.82729
739.847
-36.4874
2.2535
754.984
-56.0067
4.03189
767.61
-52.2298
3.45096
781.675
-61.4727
3.77152
-52.3008
5.05934
-204.566
357.463
1197.62
169.194
44.0335
-484.856
534.886
220.836
-644.349
576.273
52.3247
-91.8342
653.362
-89.0914
-5.32941
648.865
-39.2328
38.1295
708.709
-219.817
39.622
708.353
-35.6034
33.4769
729.457
-125.267
9.95703
727.736
16.3845
11.1354
743.425
-56.8126
4.27631
744.338
20.3952
1.85792
752.106
-36.3426
2.40566
752.549
-7.69282
-1.095
759.016
-48.1962
2.49432
764.14
-42.22
1.54684
773.522
-66.3306
3.21637
781.846
-61.5278
3.01152
791.026
-71.2524
3.3084
-59.3118
3.35378
-203.654
25.5433
-2415.94
269.719
-219.535
-973.221
367.261
216.113
-457.047
407.132
46.7984
-126.153
483.093
-126.989
-175.822
496.699
-84.638
96.4935
683.364
-389.212
-19.8803
664.688
-47.3599
100.445
714.812
-177.565
21.2729
705.054
20.1001
28.5109
724.642
-78.0535
7.47719
724.728
18.6406
7.515
737.346
-50.1214
5.61495
738.543
-9.42848
3.57208
747.481
-57.7667
7.65801
758.901
-53.6578
4.62257
772.457
-80.5224
4.64607
785.025
-74.9999
3.13468
794.818
-82.0067
3.41666
-66.3215
3.60662
132.407
-570.351
-782.755
517.877
-300.353
-1156.82
884.413
19.1508
-893.885
969.942
-16.4738
-257.425
1020.34
-167.936
-83.3755
956.291
-44.978
111.2
893.671
-57.2183
93.1782
-97.702
-62.224
-99.9601
876.706
-37.0897
129.471
7.13429
-30.4913
14.6928
859.397
-36.1299
52.2307
-47.351
-35.7915
-46.0221
831.461
-9.22923
37.7083
26.3511
-5.94443
27.0948
802.452
-10.9757
22.2158
-15.0281
-13.2037
-16.3444
781.134
-1.47977
21.9269
19.1556
-1.61439
17.7954
771.292
-9.76787
22.7845
-9.16662
-11.8535
-10.6341
770.932
-7.66263
18.3138
3.50076
-8.48497
2.58599
787.335
-74.8246
22.2675
804.559
-71.5323
9.61634
819.827
-97.2731
6.74114
831.902
-89.3833
4.40637
839.6
-91.8976
3.94427
-71.9052
5.36341
738.498
-943.401
-2731.66
864.348
-439.349
-25.4484
1068.57
-150.359
-186.292
1208.95
-198.46
-79.4185
1197.6
-238.395
177.173
296.922
-31.621
207.691
294.768
268.656
264.681
17.6959
-23.0427
32.8198
-62.437
274.438
-26.1085
53.812
-62.4975
-231.288
223.51
-39.2778
72.4642
-13.8496
-229.5
217.611
-26.4661
16.0744
-6.61275
-200.103
202.035
-11.9145
7.36583
-6.4411
-207.166
199.261
-3.802
7.17253
-5.24617
-188.275
189.002
-2.54943
5.58829
-3.39561
-192.207
189.369
-6.22059
2.68629
0.417213
-185.66
190.453
-12.6921
-0.180729
810.363
-30.9929
-3.58592
-195.724
-199.057
-190.238
-193.659
-23.9099
-30.5624
-22.5394
836.355
-98.9625
-2.03095
852.071
-114.299
3.31215
863.311
-103.163
5.29302
869.683
-100.004
4.28101
-76.9693
5.93797
770.836
-1333.75
-1681.47
449.176
-492.48
-649.787
463.872
-456.829
-311.313
579.347
-374.502
-120.826
232.762
-436.802
239.95
203.667
199.577
169.932
-19.8752
274.58
-67.7185
14.1547
-10.642
4.33637
-77.7488
77.6686
-3.77655
10.1624
-5.84102
-70.6225
6.77904
68.0826
-6.49711
8.09898
-1.36076
-61.3282
4.87783
59.5229
-3.82886
2.11716
1.17589
-52.937
1.8015
51.899
-1.26814
-0.671286
-0.979831
-50.719
-0.392841
50.1724
0.814817
1.10444
-1.85355
-47.9522
-0.220234
47.7789
0.426435
1.82064
-0.312597
-48.6739
0.773545
48.8933
-0.818201
0.137848
0.830067
-49.7918
3.43516
50.3979
-3.88039
-0.990963
-53.1851
1.29907
216.29
-34.4753
-0.975252
-54.0971
-52.5122
-53.3372
869.062
-110.438
4.99515
-217.44
-221.758
-209.841
-212.689
868.914
-115.846
1.2306
872.617
-108.539
4.01413
877.744
-105.679
2.54684
-81.9787
2.50407
856.83
-791.059
1611.45
475.591
-494.473
-348.476
366.746
-343.433
-466.026
367.827
-339.474
-174.139
100.046
-444.517
277.896
137.703
90.6065
114.304
-21.5297
76.8622
126.658
-101.288
19.3441
-4.70605
11.9679
-42.236
46.0165
-15.4807
4.43826
0.876801
3.46417
-52.6623
54.0699
-5.08551
-0.663053
2.49661
-0.980327
-55.7856
55.6121
1.18163
-2.52439
2.28817
-2.45571
-54.2853
53.5879
3.0394
-2.17449
-0.896678
-3.03952
-51.5846
50.8376
3.69149
0.991712
-1.10511
-2.32215
-50.2699
50.409
2.47012
0.818077
0.461625
0.955576
-52.1292
52.7631
-1.37067
-0.680382
3.22512e-05
4.98256
-55.1837
55.817
-5.5179
-0.0979863
-57.0013
-1.83896
32.7479
224.504
-31.5482
2.21354
-57.0313
-56.0095
-56.0358
846.134
-102.287
4.07765
-221.765
-216.232
-213.052
-208.795
839.653
-111.713
-0.126706
840.137
-110.642
-0.811873
846.635
-110.833
-6.07863
-87.9507
-4.59849
2794.29
-925.44
-1157.47
2359.3
-344.671
-676.147
1696.39
58.6752
-655.852
1366.05
-157.957
-117.288
283.975
-253.087
344.194
271.626
249.183
238.03
-32.9696
119.271
266.558
-103.897
35.0129
-7.39258
26.1119
-60.8385
60.2153
-26.6282
8.53209
-1.95258
8.33895
-53.5051
52.3752
-8.11727
2.86077
-0.10668
0.739555
-52.2717
52.7108
-1.30482
0.232881
-0.562819
-2.85382
-53.923
53.9467
2.3229
1.07004
-1.35585
-4.1088
-53.7671
53.9485
3.81322
1.47002
-0.730821
-2.04511
-55.5987
56.1839
1.77459
0.416184
1.15953
2.51514
-57.1811
57.281
-2.47782
-1.29679
0.48947
5.85963
-56.8082
56.4218
-5.59239
-0.370344
-54.7303
-2.09991
28.3178
211.034
-24.2371
2.53976
-54.0288
-53.7234
-53.0718
814.146
-99.3524
-8.64125
-209.1
-206.832
-202.442
-200.248
816.815
-114.143
-10.828
822.427
-117.168
-8.58277
831.518
-119.871
-5.87807
-95.1351
-2.40359
92.6482
543.243
-1152.47
600.854
550.006
-1910.69
946.154
242.186
-538.749
990.36
-120.422
35.3814
207.391
-90.6154
389.307
217.733
171.365
183.483
-63.4214
85.6805
209.662
-86.1765
61.647
-10.1961
23.0404
-57.3278
57.6758
-23.7091
10.5169
-2.33769
7.29849
-50.7482
49.8124
-6.67072
2.64581
-0.37516
2.44578
-51.0408
51.5032
-2.9412
0.408116
-0.419935
-1.8785
-52.5288
52.5672
1.70013
0.55996
-0.782288
-2.80032
-53.9995
54.2637
2.46548
0.852913
-0.179982
-0.727953
-55.7873
55.9536
0.508122
0.23347
0.286895
2.27996
-56.2802
55.9064
-2.0986
-0.094446
-0.58194
4.52396
-54.8839
54.36
-4.05896
0.640897
-53.9391
-0.533624
21.5121
206.935
-15.2641
0.721841
-53.6855
-52.9872
-52.7597
821.345
-99.5568
-18.5159
-208.129
-209.504
-200.962
-202.264
823.781
-116.503
-16.4829
829.821
-124.907
-10.1704
836.335
-127.334
-2.16183
-99.1425
0.881643
1503.65
843.236
1492.92
1554.56
899.417
-621.287
1204.91
442.761
356.915
1107.25
-50.3348
238.117
944.096
30.4725
276.178
194.685
-338.981
119.683
92.3403
147.775
99.6867
149.863
199.641
183.481
188.703
15.2371
-24.7923
167.833
-13.0759
25.345
5.34968
13.8647
4.92385
5.66654
-8.28415
-133.465
145.793
-37.8708
8.82825
6.98567
5.57944
6.76661
3.41456
-0.903237
-176.796
175.582
-9.67068
0.631875
2.34796
3.20986
2.18347
-0.0852323
-2.00911
-170.619
174.6
-5.985
2.01813
0.878036
0.194726
1.008
-0.631799
-3.72886
-196.302
200.172
-3.94569
4.74353
-0.299901
-0.0943689
0.0874374
0.156122
-6.13592
-202.751
203.009
-4.02012
6.85048
0.995854
0.651403
1.24473
1.55232
-4.4431
-212.76
211.5
-6.8076
4.76697
2.00378
1.90988
2.27801
3.06426
-2.00978
-212.928
210.056
-10.9443
1.79284
3.7262
3.34093
3.90179
845.129
-85.1738
-17.8663
15.2391
25.5176
15.344
25.5046
-213.112
-214.086
-205.316
-206.473
847.452
-100.308
-23.7667
849.773
-120.617
-20.3026
854.427
-131.166
-8.95326
854.649
-129.414
1.72881
-97.4089
-1.56694
446.734
-24.6158
3162.71
706.247
849.787
-268.598
697.675
397.335
-83.7016
696.276
5.41445
147.872
825.294
-36.1672
36.1675
658.969
-201.942
106.019
727.533
100.786
66.8292
-22.1813
-55.447
-28.6414
-51.9653
685.517
-249.651
25.9401
57.674
89.4425
59.9947
86.3278
748.14
-76.0025
49.4014
10.8521
-2.94318
7.69934
-1.27049
777.3
-174.59
38.6382
21.6168
48.0251
24.1941
48.2708
819.646
-85.9732
34.062
9.24271
8.58788
9.6981
10.0809
844.171
-113.723
20.764
12.3064
29.2076
14.9627
30.5008
863.396
-77.3927
7.16121
10.6981
16.8143
11.8439
17.8532
871.34
-93.7738
-4.96035
15.2213
27.8281
16.3184
28.6691
877.216
-89.0617
-15.9052
880.937
-103.797
-24.5733
879.75
-122.12
-21.918
876.373
-130.155
-5.33769
868.756
-123.135
7.34525
-87.3192
-4.79268
-742.844
-328.21
509.156
360.921
196.556
-1216.78
542.658
302.543
-610.358
672.12
-49.5905
-116.42
792.923
-87.8277
-117.243
780.643
-201.222
-42.4795
953.305
-87.6743
46.4277
928.783
-228.734
-9.5449
975.603
-132.655
63.9612
972.19
-171.882
37.1874
979.857
-96.5448
45.3452
971.329
-105.225
19.3419
966.572
-72.5528
8.80069
958.69
-83.3528
-9.08798
949.779
-77.5795
-16.4442
938.083
-90.9151
-28.075
921.118
-108.586
-19.7268
905.444
-118.01
-2.67282
884.253
-103.6
18.3602
-68.454
-0.4375
-817.611
-281.436
235.983
223.318
-343.278
-764.44
609.848
114.606
-507.297
735.923
-114.062
-165.079
839.229
-130.461
-234.281
842.812
-204.378
-144.213
933.759
-188.745
-131.199
941.225
-255.307
-86.7201
996.537
-199.833
-8.09979
1011.44
-192.666
10.9125
1034.05
-122.883
33.4998
1035.3
-107.009
23.0515
1035.15
-72.5779
20.9257
1026.52
-72.0765
6.24002
1015.3
-62.6934
-1.90596
997.108
-69.7787
-12.6014
965.115
-78.8023
-2.53699
929.789
-85.5517
11.5641
897.793
-73.0909
31.8501
-46.4632
11.4011
20.2268
-203.005
-2321.62
803.628
-415.395
-923.469
1165.42
-36.0339
-465.696
1219.4
-128.896
-219.019
1203.88
-111.043
-180.669
1193.04
-186.44
-196.742
1189.66
-198.025
-84.5488
1163.32
-233.957
-72.0484
1154.48
-196.936
33.2834
1135.72
-172.23
28.7655
1128.24
-118.217
37.3061
1118.62
-98.4775
20.1832
1113.59
-68.9676
19.9389
1106.28
-63.1956
11.8739
1097.86
-49.8632
9.77368
1080.96
-48.0619
6.64003
1037.05
-39.0233
11.0109
981.388
-36.9383
25.9587
928.735
-23.7673
45.4884
-15.6175
21.1889
770.544
243.254
1418.99
964.706
-378.763
-223.28
1211.28
-258.279
-239.07
1339.76
-242.054
-142.882
1387.5
-149.935
-117.914
1380.14
-167.637
-110.32
1336.24
-157.313
23.7076
1292.69
-171.766
30.7378
1245.51
-141.239
76.391
1203.71
-120.965
34.5822
1172.01
-86.4274
28.1107
1149.04
-74.1494
4.58916
1133.14
-53.9204
4.37851
1121
-49.0223
-4.33209
1110.88
-37.4828
-5.99277
1099.76
-35.0085
-10.6105
1073.46
-15.021
-4.586
1036.16
-4.70004
2.42994
989.285
16.7289
32.5925
14.5551
21.7828
2136.85
-116.292
1644.75
1891.28
-93.4195
-1838.9
1511.62
-59.6532
-901.856
1361.6
-160.69
-260.626
1379
-221.579
82.229
1356.36
-191.498
168.911
1323.04
-160.5
248.347
1276.09
-120.646
136.284
1232.58
-95.1269
79.0371
1192.11
-71.8186
14.5375
1158.84
-51.3874
14.0159
1128.79
-38.5783
4.4994
1102.7
-22.9281
12.19
1078.67
-15.2322
5.8311
1056.55
-6.64081
1.74697
1034.63
-3.353
-6.97831
1012.48
11.7318
-2.80969
994.356
20.5864
-3.92299
984.058
30.4748
-8.94201
18.9926
-10.7098
2544.88
415.366
2247.05
-436.009
2210.91
388.823
2053.87
502.34
1803.15
652.179
1641.76
326.62
1492.92
152.739
1401.56
-5.4403
1316.12
-38.4227
1252.27
-67.5644
1193.03
-44.201
1148.43
-46.4872
1116.08
-24.1871
1094.57
-21.8499
1083.68
-0.502647
1076.21
0.715297
1078.57
6.60098
1093.77
5.57523
1131.65
-11.7305
-8.86671
1100.84
-182.043
3891.7
841.81
113.651
911.51
1076.46
-44.9741
-151.241
1125.57
-42.5622
33.877
1211.74
-81.6628
-36.6856
1264.38
-52.494
22.2363
1277.95
2.11703
-2.59162
1277.72
12.2761
6.54809
1203.03
70.7926
46.5624
1125.87
96.0801
58.0499
1033.57
109.839
112.081
976.573
69.8134
50.5472
941.812
24.0662
26.1795
930.173
-2.86909
0.025838
932.753
-20.1062
4.35306
944.251
-24.7923
6.18919
964.138
-30.3319
14.1581
989.859
-29.4024
16.2707
1021.47
-30.2191
25.8992
-22.2828
27.5618
-39.2768
-496.871
2209.03
186.739
-450.963
-182.011
278.702
-239.113
-88.0837
418.368
-172.759
17.767
507.838
-152.111
-130.9
546.827
-69.2551
-41.1263
628.257
-56.1828
-192.452
646.361
-3.38603
-159.923
691.317
6.60943
-187.391
687.401
52.2078
-120.47
719.508
42.2707
-36.9594
732.107
41.722
3.4858
750.378
2.08144
18.7373
754.918
-3.31306
10.8424
764.385
-21.1313
19.3618
769.955
-20.6005
13.5417
778.219
-27.9731
16.7453
784.584
-25.9232
11.4852
792.774
-28.9169
10.2096
-23.049
5.15509
263.575
-19.9682
-1442.82
426.181
-302.742
385.222
538.989
-169.163
-328.548
533.85
-130.415
52.1924
558.286
-166.21
-77.5079
538.407
-52.0918
-4.37691
580.502
-100.948
-51.1685
574.682
-4.50149
-33.3886
614.518
-39.2694
-28.8321
620.933
37.0011
-6.96835
660.205
0.547383
15.2012
670.066
34.7376
17.144
687.103
-6.27223
23.4619
690.583
0.142154
15.6661
697.979
-21.4537
15.8229
701.438
-18.3093
9.3124
709.001
-31.0952
8.76885
714.106
-27.8
4.97551
722.323
-34.2435
4.25412
-27.8502
2.74009
1576.63
243.709
449.599
1056.52
287.256
-182.884
680.353
240.374
40.7461
491.537
100.474
0.315964
420.626
-55.6893
-4.58354
398.491
-27.904
39.9184
447.058
-150.694
-26.6811
456.76
-15.2863
27.5495
519.173
-104.49
-16.7228
533.04
21.174
15.0357
583.296
-46.6517
3.50187
599.358
20.8819
13.0364
627.471
-31.4728
6.11894
634.292
-5.05045
2.84677
651.185
-37.6987
2.17911
660.952
-27.8417
2.01863
675.176
-44.3873
3.09998
685.433
-37.4345
2.82865
696.565
-44.3817
2.77753
-33.9115
3.14594
630.378
1436.41
252.658
512.581
133.128
-212.93
465.878
226.977
-584.25
482.32
46.6049
-54.407
525.088
-84.3801
-19.4075
533.306
-35.2075
37.2159
604.088
-217.469
35.6143
604.071
-18.5528
36.7602
630.05
-129.886
9.37416
625.723
23.9172
12.7187
644.198
-64.2068
3.35667
644.341
20.3241
2.27246
656.018
-42.5047
1.76074
658.072
-7.69326
-0.505871
668.795
-47.9154
1.98746
675.75
-34.4886
1.23898
685.964
-53.808
2.42294
693.509
-44.6717
2.70368
701.201
-51.4085
2.6439
-38.2351
2.20646
258.399
-355.958
979.879
437.687
-450.354
-569.027
349.572
122.162
-264.116
357.535
-2.52644
-84.9851
368.729
-130.158
-141.238
397.708
-58.3722
90.6788
564.898
-373.304
-31.2351
547.543
11.097
88.1494
603.371
-176.032
11.5919
594.438
37.4159
23.9451
620.307
-86.7072
4.10862
622.114
20.0385
5.99305
640.06
-58.3362
3.50062
643.99
-10.4372
2.38642
657.602
-58.805
4.93519
671.265
-46.758
3.22897
684.471
-65.7992
3.43185
695.095
-55.0937
2.93263
702.975
-58.6838
2.81221
-42.3213
2.44275
2022.99
-277.87
-1888.21
1118.27
-271.244
-431.211
823.922
-26.5297
-450.841
760.91
-81.4546
-115.486
747.385
-181.209
-18.7985
673.882
36.5683
89.7621
671.282
-64.8321
56.7735
-99.3812
-71.7451
-98.3408
679.673
-15.8567
95.8838
27.8794
-6.1403
30.4101
687.581
-35.8562
31.9676
-44.9029
-38.1011
-44.8167
673.761
-1.02755
30.5206
29.4869
0.971382
28.9926
667.379
-16.3271
15.146
-18.4341
-18.8708
-19.6234
662.464
-1.63823
17.3751
16.867
-1.86307
16.1399
669.312
-14.4311
13.9982
-12.5938
-16.1108
-13.2622
678.611
-9.13217
13.1709
1.48885
-9.15375
2.20345
699.215
-72.3948
15.254
714.43
-59.5943
7.23707
725.57
-75.5119
5.31461
733.545
-63.2355
4.57279
738.068
-63.1383
3.87561
-43.4027
3.50489
123.891
-405.851
-3731.6
395.967
-310.724
-258.044
575.905
-200.184
-192.576
665.857
-229.988
-20.8369
720.925
-225.25
166.146
179.42
-0.160575
166.529
176.927
159.758
157.178
54.0101
10.9576
60.5668
-65.2057
168.119
-37.0755
48.7496
-65.7317
-143.287
163.58
-24.1701
53.7517
-15.3415
-181.301
172.589
-24.5701
12.7676
-6.13262
-157.983
163.527
-6.90799
6.46946
-6.82742
-171.739
166.755
-9.44557
4.92896
-4.91599
-159.753
164.151
-5.46353
4.34296
-1.89955
-170.24
169.574
-12.4857
0.620373
0.00231045
-167.348
173.051
-15.0135
0.175333
725.8
-29.2392
-0.815164
-177.368
-180.993
-170.701
-174.165
-21.142
-28.177
-19.1786
742.657
-78.6233
0.140563
753.132
-86.6023
3.928
761.893
-72.1501
5.44638
765.212
-66.3814
4.20491
-43.7026
3.68824
17.8691
69.7912
2249.63
-106.347
-579.794
-256.501
164.966
-597.133
-185.678
226.965
-381.898
-30.9148
148.358
-382.171
116.38
123.467
128.151
107.48
-15.6757
176.541
-29.2632
16.5949
-13.2228
2.89448
-52.7783
51.7455
-0.0488094
11.41
-10.4185
-47.8325
5.6838
47.6924
-5.2902
10.165
-2.60907
-48.0821
3.656
47.2981
-2.829
2.56607
-0.423004
-42.7986
1.54771
42.2857
-1.3105
0.698623
-1.35492
-43.1213
0.834431
42.9448
-0.496446
1.19348
-1.23095
-42.1917
1.14075
42.5427
-1.24218
0.981401
0.271146
-44.5371
2.43816
44.9276
-2.65479
-0.445003
1.01392
-45.7743
4.34219
46.25
-4.87919
-0.95258
-48.345
0.604541
193.996
-31.3097
0.222142
-48.953
-47.4639
-47.9906
767.661
-89.7442
8.44538
-193.523
-196.047
-184.582
-185.837
769.26
-90.0509
3.08009
774.222
-77.6994
4.60182
777.935
-70.1901
2.64238
-45.7689
1.4899
740.256
486.279
3189.79
271.139
-496.642
37.4904
92.4687
-562.2
-322.289
123.398
-488.491
-98.4758
65.2349
-414.116
163.24
76.8481
60.6479
67.2685
-24.9028
42.958
100.564
-75.5097
22.125
-4.70044
4.47204