/*--------------------------------*- C++ -*----------------------------------*\
  =========                 |
  \\      /  F ield         | OpenFOAM: The Open Source CFD Toolbox
   \\    /   O peration     | Website:  https://openfoam.org
    \\  /    A nd           | Version:  10
     \\/     M anipulation  |
\*---------------------------------------------------------------------------*/
FoamFile
{
    format      ascii;
    class       surfaceScalarField;
    location    "5.2";
    object      phi_0;
}
// * * * * * * * * * * * * * * * * * * * * * * * * * * * * * * * * * * * * * //

dimensions      [0 3 -1 0 0 0 0];

internalField   nonuniform List<scalar> 
38556
(
913.315
186.418
1041.59
865.281
-221.987
270.021
1049.43
-141.306
-42.8415
1154.03
-118.469
13.8667
1335.76
-154.179
-27.5526
1467.45
-145.611
13.9267
1559.01
-108.405
16.8401
1645.12
-106.689
20.5774
1663.71
-47.9958
29.4113
1629.9
-17.9652
51.7738
1442.47
91.0153
96.4194
1281.56
113.854
47.0533
1202.29
91.8262
-12.5575
1179.49
56.0856
-33.2814
1179.25
27.719
-27.4843
1193.68
7.09878
-21.5234
1216.35
-12.1574
-10.5186
1240.16
-25.8407
2.03442
1260.32
-37.5867
17.4237
-35.7011
19.227
-922.184
571.597
1981.66
-28.6235
-1036.9
-78.6446
228.808
-510.717
111.979
405.705
-350.924
55.5573
590.178
-275.55
-63.1023
593.636
-146.746
-2.32306
706.078
-116.383
-104.465
740.85
-44.0078
-97.453
840.908
-11.591
-136.462
889.236
56.582
-122.875
965.837
83.855
-69.4413
1005.97
95.4306
-21.7145
1033.74
54.7219
9.33469
1044.47
29.7969
15.5645
1049.27
-5.12696
28.0431
1049.9
-19.9772
26.4478
1045.83
-38.1232
30.0367
1038.99
-44.1192
25.1167
1031.99
-53.2287
22.6371
-50.9359
14.9512
1027.78
-636.268
1481.04
661.984
-1083.33
412.223
889.828
-570.835
-167.726
756.09
-325.327
108.141
805.939
-289.157
-36.2424
755.519
-92.4007
-3.9242
793.935
-121.471
-33.3282
786.732
-10.0059
-26.7992
832.195
-38.88
-18.1733
851.861
48.8404
-11.9244
896.188
31.2944
8.23338
917.871
57.0613
16.6865
932.406
14.1434
26.0435
933.989
7.40886
20.8052
932.548
-25.7804
22.0944
930.801
-33.9414
15.7112
932.747
-52.9516
12.8818
936.174
-55.9745
8.42897
945.042
-69.2465
7.15005
-65.6207
5.52204
2372.51
-1654.41
-3058.26
1720.28
-473.984
42.8823
1163.53
-182.271
168.192
836.183
-89.3837
91.4007
615.679
-132.555
63.9012
558.465
-67.5283
32.3422
621.43
-166.032
-18.4037
623.759
-30.9607
18.6258
700.515
-99.8344
-15.802
716.93
23.2043
9.22115
774.98
-34.4918
7.73599
798.183
21.6628
12.1952
830.078
-26.9484
9.19716
842.935
-10.1521
4.7035
861.571
-46.4339
2.01747
874.722
-48.418
1.32582
891.622
-72.9543
3.10243
908.102
-74.8266
2.37234
926.169
-90.2553
2.94147
-82.5754
4.52781
664.585
-633.39
3217.09
812.766
-415.614
-206.55
894.434
-38.4787
-225.46
909.802
-66.2932
-38.4586
870.658
-144.799
51.388
845.273
-69.7574
27.6139
875.425
-228.762
32.5778
876.703
-49.2129
16.974
894.527
-123.143
5.48436
899.01
15.2006
3.52101
916.899
-54.4562
2.07474
922.085
16.7919
-0.315269
928.149
-34.2248
1.21273
927.28
-7.84939
-1.43346
925.923
-46.4684
1.3916
924.897
-48.2153
0.822855
929.772
-80.4229
2.59415
938.161
-84.958
1.74233
949.375
-103.385
1.91542
-93.4277
2.45287
-107.756
432.182
-408.439
500.979
-207.111
-817.239
552.763
333.057
-423.319
502.684
80.479
-96.693
661.487
-166.177
-137.425
647.129
-122.017
66.6175
843.613
-422.68
-2.56576
826.707
-101.66
69.353
885.294
-200.224
18.4943
884.935
-4.03273
19.5918
906.989
-81.953
5.44313
909.967
9.45115
4.36266
918.634
-47.1501
4.25811
915.018
-7.03644
2.80316
913.036
-51.5208
7.03509
916.155
-55.8266
4.49175
926.604
-95.181
4.30915
941.605
-101.985
2.02643
956.064
-119.486
1.64181
-105.092
2.49024
-243.361
120.081
-72.3829
470.056
-18.2953
-902.232
1235.41
270.783
-703.081
1407.39
144.05
-235.549
1472.08
-159.59
-71.2778
1370.85
-109.319
88.5317
1214.35
-82.7853
104.82
-114.962
-67.7528
-105.498
1152.77
-67.1639
113.271
-16.7997
-59.8957
-9.49605
1118.41
-52.8186
47.6698
-58.229
-48.0531
-54.4309
1092.85
-25.2971
29.4166
16.4952
-18.8785
19.7956
1046.53
-12.6019
15.4534
-11.2546
-13.5136
-13.7245
1006.64
-4.35284
16.0346
23.5159
-5.71172
19.8645
962.809
-6.81852
20.3991
-1.18438
-9.97039
-5.74927
935.363
-6.85233
17.174
11.8363
-9.03653
7.28781
935.706
-73.494
21.6294
951.9
-80.9104
8.88999
973.411
-122.207
5.51484
994.306
-124.857
1.97781
1010.48
-136.608
0.948855
-118.044
3.80116
1181.75
-788.726
-2108.83
1461.74
-129.736
-168.543
1777.78
128.684
-173.944
2083.5
-21.5293
-140.139
2036.58
-210.122
97.4495
471.389
-50.0206
175.877
456.386
466.446
459.282
3.2219
-50.1306
-5.19115
411.266
-59.8363
37.1746
-332.208
295.778
-60.585
29.8515
-293.47
279.579
-47.0403
8.11226
-262.887
262.546
-32.3025
7.3467
-266.607
254.439
-4.63156
4.1976
-237.721
229.585
-0.511881
4.29552
-230.147
220.327
2.30786
0.693309
-214.543
215.896
-6.9433
-1.26224
941.962
-34.4541
-4.63278
-223.088
-228.454
-219.616
-223.438
-22.9738
-35.1878
-23.612
984.633
-120.434
-3.1478
1005.99
-145.963
2.39959
1021.7
-143.36
2.79567
1033.26
-150.142
1.97062
-131.871
5.1624
-594.427
-669.656
-3081.86
501.046
-55.8162
-1169.39
1280.37
-5.72067
-644.923
1535.21
-61.0288
-215.338
360.326
-299.232
262.13
280.662
379.163
342.041
377.328
-75.0595
8.037
8.91207
-98.3004
94.9981
-9.14126
3.53152
-81.0189
9.34791
80.0583
-8.10087
-0.286384
-79.3204
10.2513
77.5036
-7.61305
-0.821325
-70.1608
6.80663
68.6029
-4.58129
-0.667412
-66.5959
0.810557
65.0643
0.065402
0.655593
-61.1651
-0.961761
59.3392
1.74651
1.04118
-56.9232
-1.29918
56.0636
1.94609
0.212738
-56.3566
2.0037
56.3141
-1.46163
-0.499547
-60.0942
248.328
-38.1441
-1.06179
-61.9617
-60.082
-61.4386
1022.24
-135.82
1.11514
-252.572
-258.854
-245.783
-250.761
1019.96
-143.493
-0.189013
1021.3
-147.005
2.3016
1027.97
-157.796
0.987749
-141.029
1.48926
698.046
351.542
-355.077
1121.57
283.19
-762.529
1241
310.965
-436.117
1081
230.097
-131.128
119.588
-176.307
338.974
148.85
152.886
197.78
78.6255
133.901
-104.025
11.0872
14.6882
-42.496
44.5577
-18.9209
2.17101
2.99635
-55.1576
59.1676
-7.18682
0.180479
-1.5086
-66.4184
67.5724
1.67831
-1.32372
-2.93243
-69.4574
69.489
4.05198
-1.15119
-3.31239
-68.942
67.4643
4.66101
0.12905
-5.83619
-60.1704
58.4584
6.62423
0.924022
-3.41598
-57.5383
58.1999
2.87131
-0.116962
2.3311
-62.0611
63.1666
-3.72883
0.292151
-65.2544
38.758
257.632
-38.2555
1.6097
-65.502
-64.3698
-64.618
983.486
-122.386
-1.30778
-254.213
-250.043
-248.217
-243.139
977.202
-135.035
-2.17323
979.828
-147.063
-2.56848
988.707
-161.597
-5.07787
-145.081
-4.07375
867.81
95.7144
1069.1
1448.97
624.333
-922.306
1781.67
856.257
-877.99
1751.13
498.639
-237.999
311.583
2.56951
194.273
318.966
379.671
367.759
130.226
271.507
-109.232
19.0812
25.6274
-59.9239
57.6097
-23.6978
0.384583
11.2232
-58.0181
57.7055
-9.756
-1.15457
0.799331
-58.4195
59.3465
-1.73461
0.00833878
-4.38099
-63.0529
64.2844
3.27328
-0.12374
-7.17475
-66.0045
65.5959
7.33885
0.244442
-7.51673
-63.987
63.7351
7.2163
0.55226
-0.886185
-64.3602
64.9116
0.723166
-0.388299
5.18923
-66.171
66.2264
-4.83617
-0.408384
-64.0155
33.6994
245.5
-27.3578
1.58044
-64.0417
-62.8036
-62.5617
949.852
-112.645
-9.92871
-240.843
-240.752
-234.717
-233.352
960.095
-134.99
-10.2883
973.846
-151.608
-9.20618
987.387
-168.948
-6.19059
-150.93
-2.83615
935.029
597.592
1475.23
1423.45
719.096
-583.185
1555.65
732.773
-8.71569
1615.65
310.69
127.949
266.607
61.2163
369.187
271.547
320.77
328.894
91.3719
237.489
-94.5644
32.31
22.959
-61.5545
60.5317
-23.9902
2.05407
9.69903
-57.5461
56.7993
-9.65333
0.701117
6.24085
-59.2033
60.0702
-7.31901
0.211294
-1.60037
-63.3276
63.0678
1.73048
0.129656
-4.93258
-63.7502
63.8548
4.39686
0.431125
-5.40442
-65.4328
66.0217
4.7869
0.0286496
-1.08905
-68.9825
69.1785
1.35302
-0.459981
2.95594
-68.4486
67.2126
-1.8322
0.112306
-64.2889
22.0062
244.793
-13.3063
0.257993
-64.166
-62.6239
-62.6724
984.83
-104.264
-17.8947
-246.308
-250.185
-236.914
-241.911
997.624
-131.649
-16.1357
1011.84
-154.37
-11.4534
1019.74
-173.29
-3.56358
-153.112
-0.384631
1083.97
-61.7418
1363.83
1447.54
508.597
-153.078
1441.97
499.481
238.861
1476.31
76.9017
199.45
1235.57
58.9371
243.017
263.361
-365.53
88.2137
95.3186
157.439
73.4401
147.423
263.787
255.701
256.421
19.5039
223.126
-22.6866
9.94092
6.26615
19.8113
7.39928
5.94816
-178.357
176.909
-34.0686
3.30246
10.1657
6.17257
9.92759
5.69527
-208.995
209.862
-23.3248
0.671262
5.99523
5.07436
5.02116
-2.59461
-204.082
206.809
0.978242
-0.273608
0.655243
-2.26526
0.773493
-3.83463
-235.163
241.969
4.20501
0.17839
-2.33963
-3.30447
-1.71023
-4.10124
-246.813
245.299
8.20384
3.12093
-1.67955
-3.18541
-0.844103
-2.37039
-256.659
254.367
2.8251
3.00098
-0.435348
-1.67449
0.945798
-0.567469
-256.309
252.249
-3.08809
1.74236
2.35993
0.385374
3.22788
1020.53
-80.853
-15.0133
11.2317
28.6695
12.8164
29.6355
-255.979
-257.079
-245.141
-248.82
1034.61
-96.2456
-22.099
1052.46
-127.622
-21.8779
1062.81
-154.557
-10.158
1060.65
-170.016
-1.11212
-146.828
-2.09641
586.567
-735.582
1439.31
707.939
557.199
-169.974
1094.89
273.526
-160.992
984.44
-7.32932
194.677
1017.98
-82.8697
108.266
866.877
-290.66
76.2336
896.668
36.7308
68.4764
-12.4348
-53.9033
-17.6081
-51.0525
853.614
-290.145
25.3116
47.3041
103.715
55.6853
101.183
901.317
-118.784
48.7291
20.6778
-6.9756
12.5515
-3.90221
927.938
-200.574
36.6262
12.6595
52.9703
17.6309
54.0663
972.564
-101.439
34.3622
3.66967
4.89228
5.36789
8.52159
1004.61
-119.409
21.3461
-0.396181
28.2394
6.09126
32.0779
1033.6
-79.0454
8.51838
1.34995
15.4157
5.87369
18.9
1050.99
-93.5702
-2.58711
7.15699
28.9501
11.3175
31.3431
1068.77
-84.553
-14.0806
1092.67
-95.6519
-24.4913
1108.23
-118.876
-24.3022
1106.1
-144.883
-7.54501
1088.44
-158.063
5.70603
-128.072
-3.98439
-1029.7
-1116.54
1947.37
354.461
50.8581
-877.824
978.584
184.113
-534.71
1045.28
-19.8001
-54.2292
1128.33
-102.992
-62.9253
1124.55
-230.661
-56.2173
1246.1
-134.043
49.2235
1231.32
-262.362
-13.0027
1249.01
-189.248
52.7737
1228.38
-216.382
36.4347
1216.19
-132.254
43.01
1198.63
-121.189
19.3426
1188.82
-78.2635
9.02114
1181.48
-79.3996
-6.83308
1177.32
-66.234
-14.1588
1178.58
-69.8832
-27.0256
1173.69
-91.0574
-22.9258
1154.89
-119.781
-6.29911
1110.5
-130.538
16.8592
-96.048
0.273711
159.834
403.353
1647.13
638.733
-165.746
-262.294
911.684
195.331
-284.169
1009.5
17.8573
-135.478
1121.08
-13.3345
-201.231
1136.55
-86.9634
-159.17
1240.16
-85.1955
-152.458
1268.88
-182.652
-108.429
1295.49
-196.104
-19.7556
1292.47
-218.314
4.95693
1289.07
-159.053
30.1963
1278.96
-133.601
22.5233
1271.86
-91.9898
20.8252
1264.8
-81.1184
8.77441
1259.66
-62.789
1.69522
1256.93
-57.4643
-9.68051
1235.34
-65.0321
-4.44456
1187.51
-80.7832
8.84099
1120.67
-93.8161
30.1167
-66.693
11.9337
933.675
327.062
-2646
1152.3
-266.332
-118.042
1431.9
138.929
-223.191
1578.34
57.5133
-186.096
1647.15
81.9114
-164.058
1709.47
46.8501
-196.135
1704.33
25.7051
-105.764
1644.34
-39.7457
-82.9135
1539.92
-119.755
28.074
1449.04
-157.426
29.9924
1391.82
-135.842
34.008
1366.37
-126.883
18.7272
1357.58
-101.825
18.6291
1356.31
-93.2809
13.4282
1356.66
-77.4975
14.3618
1353.5
-65.9869
11.6806
1329.55
-48.393
7.31639
1267.88
-38.355
19.2426
1165.78
-33.4305
41.7152
-25.754
20.9396
695.52
-87.909
934.628
986.48
-652.547
95.2549
1574.23
-206.047
-242.771
1811.11
-49.5251
-129.848
1918.86
74.0673
-99.8987
1955.19
94.1093
-83.5899
1867.32
74.6616
38.914
1771.86
7.36704
48.3425
1630.7
-63.8335
85.2419
1526.44
-96.0801
42.9109
1453.93
-90.9937
27.662
1415.1
-93.5434
5.4921
1391.14
-81.5288
3.66477
1379.41
-79.0086
-2.54547
1375.42
-69.7712
-3.73379
1382.89
-64.7927
-8.65992
1383.34
-42.3136
-6.53402
1362.75
-15.3037
-2.4584
1285.29
17.428
26.5941
16.1196
21.0702
335.675
12.4486
1437.28
1243.05
254.655
-1814.57
1785.05
316.614
-1064.66
1752.91
258.958
-276.345
1757.95
26.6985
42.3274
1721.16
7.59326
123.31
1601.58
-22.4169
216.66
1515.27
-54.7546
148.431
1445.8
-76.4387
82.0759
1408.28
-80.7822
22.2178
1379.67
-77.9851
15.6065
1354.59
-78.2597
9.79206
1327.19
-71.3825
17.2572
1302.42
-69.6855
15.4454
1278.61
-56.4996
10.5414
1258.06
-47.0963
2.84617
1233.96
-20.228
2.02108
1212.22
3.59517
2.83712
1198.45
37.4945
-6.29891
35.5502
-12.068
2548.97
-154.635
3219.09
-415.466
3073.19
462.517
2801.08
531.073
2187.33
640.442
1834.49
360.432
1644.99
167.083
1567.27
22.968
1519.85
-29.0171
1499.28
-60.2109
1473.29
-51.9977
1447.79
-52.7639
1410.02
-33.6051
1368.74
-28.4091
1317.39
-5.14599
1274.14
-3.84945
1256.49
-2.57833
1260.04
0.0425369
1302.14
-4.60272
-0.899546
1154.11
-63.2337
-2031.04
912.659
-140.033
651.507
1020.34
-116.209
-34.3166
1103.45
-82.3427
13.1073
1231.06
-117.93
-37.2336
1329.18
-102.081
17.8849
1399.02
-64.8883
11.8894
1464.43
-63.6486
18.8103
1463.17
-14.2137
44.8837
1415.78
20.9661
78.206
1276.79
104.421
130.98
1170.34
91.544
61.9661
1099.6
43.656
14.5275
1073.28
8.32356
-15.2871
1072.57
-13.8514
-12.9196
1083.1
-24.9636
-7.09321
1102.61
-34.1191
4.0901
1129.28
-37.3701
12.736
1159.26
-40.0425
27.4792
-33.244
29.6572
-1453.1
98.3897
-193.949
-453.889
-621.058
-596.828
168.328
-395.604
-230.843
396.408
-265.583
10.7183
549.655
-223.562
-110.718
583.859
-115.333
-23.2748
682.852
-99.5076
-168.838
718.176
-38.111
-158.316
790.253
-15.9486
-206.804
811.838
43.6425
-167.137
860.896
55.6399
-69.7186
884.295
57.5279
-11.0971
903.369
17.8955
16.0209
909.938
2.69361
14.6258
918.151
-21.9225
27.9005
922.855
-26.4448
23.2247
927.154
-36.0204
27.6393
930.074
-36.4853
21.3119
934.104
-40.7699
19.3341
-35.8951
11.6709
719.479
-542.843
894.14
554.701
-675.43
631.373
592.92
-402.49
-199.06
608.128
-246.679
74.0296
661.931
-238.624
-74.9836
640.122
-88.785
-8.66371
689.231
-126.744
-55.2008
686.379
-20.9642
-41.0938
734.243
-47.7426
-34.2438
748.901
32.7686
-15.709
792.335
8.54121
11.8985
808.413
38.0277
20.1087
825.293
-4.75718
31.8158
828.47
-2.08662
22.4089
833.015
-27.5577
23.1843
835.318
-28.186
15.1498
841.082
-42.5268
13.6242
845.749
-40.9979
8.27378
855.019
-48.917
6.02726
-43.2269
4.08408
1474.36
-838.902
-944.449
1124.79
-205.046
-77.9384
759.999
-0.192523
130.689
602.175
-48.9895
51.5359
510.626
-124.594
41.4194
481.874
-71.2539
43.5627
545.807
-180.433
-28.6463
555.694
-38.1514
25.9256
628.3
-116.166
-19.9846
643.083
15.0982
12.1084
699.844
-48.3315
7.84802
718.462
17.2235
14.3813
748.519
-34.2979
8.6815
757.277
-10.0858
3.94401
774.96
-46.0946
2.87184
786.605
-40.6727
2.16727
802.223
-59.6101
4.568
815.324
-54.8114
3.08464
830.093
-63.2575
2.5123
-53.146
4.0677
-341.527
-102.868
570.193
130.898
-208.219
-675.802
535.374
75.4357
-705.565
606.885
-59.8704
-99.0876
687.927
-147.303
-6.9447
685.602
-79.2856
37.9704
748.857
-251.097
39.9859
748.25
-53.4115
32.8419
771.498
-143.563
9.63335
769.508
11.5614
9.04774
787.355
-68.5485
4.44484
788.161
14.8795
1.22231
797.355
-44.6793
2.40053
798.278
-11.0706
-1.3715
805.714
-54.6839
2.54473
811.582
-47.1673
1.44931
821.334
-70.5518
3.78413
830.2
-64.4996
2.56428
840.171
-73.2943
1.98116
-60.2028
2.1793
-45.0828
-339.372
-3169.88
409.966
-348.985
-1131.52
439.587
124.417
-501.921
449.074
-35.8628
-130.188
525.648
-186.012
-175.29
538.431
-124.351
98.9004
728.679
-424.193
-19.717
707.926
-63.9494
100.644
759.325
-196.868
20.3996
750.113
14.2969
26.0684
770.292
-90.1196
6.83542
770.751
12.617
6.16649
784.106
-59.1424
5.36607
785.522
-13.0376
3.35388
795.573
-65.3842
7.68388
807.745
-59.3171
4.46963
821.542
-85.2126
5.17307
834.508
-78.2757
2.83681
844.925
-84.1493
2.07959
-67.1776
2.48651
295.89
-661.692
-659.052
606.797
-404.673
-1157.45
981.138
-83.499
-869.506
1049.4
-80.2956
-259.376
1088.99
-218.265
-78.615
1015.67
-75.0908
112.588
948.13
-66.4122
95.4427
-103.669
-71.4811
-105.714
927.221
-42.5121
126.72
7.32509
-35.1849
13.8827
906.792
-42.1835
52.8242
-49.434
-41.8871
-48.0888
879.669
-12.7856
40.3868
25.9812
-9.37815
26.6317
848.23
-15.3212
21.7574
-15.2773
-17.8258
-16.5601
828.603
-4.87906
21.3125
19.0885
-4.99878
17.7558
818.175
-14.0727
21.9705
-9.10995
-16.3409
-10.7629
819.702
-11.4065
17.9847
4.54287
-12.3233
3.81193
836.814
-83.184
22.3175
854.647
-77.7963
9.53575
869.991
-102.255
7.21397
882.29
-92.9018
4.30439
890.57
-94.2528
2.7732
-72.8857
4.57149
921.552
-1181.24
-4067.65
1027.15
-458.575
-220.237
1186.49
-177.174
-239.609
1301.75
-222.104
-113.594
1271.31
-269.165
178.79
314.062
-39.2931
207.815
309.484
285.821
279.289
15.4903
-30.3481
29.7773
-63.7465
287.912
-31.8115
55.2965
-61.306
-244.112
236.167
-44.3306
71.0699
-14.0421
-242.762
229.482
-30.9709
16.1101
-6.98851
-212.461
213.29
-13.9404
7.31422
-6.76645
-220.263
210.651
-6.24587
7.30346
-5.16647
-200.306
200.041
-5.05472
5.60772
-2.92982
-205.096
200.453
-8.87034
2.37032
0.515083
-198.054
201.651
-15.3225
-0.196591
861.141
-35.2216
-3.08331
-208.078
-212.536
-202.596
-207.116
-23.5221
-34.714
-22.0918
887.849
-105.916
-1.73694
903.47
-119.395
3.91835
914.879
-106.935
5.41953
921.855
-102.512
3.25397
-78.1185
5.40495
1121.39
-942.962
-613.073
597.018
-368.377
-735.214
581.442
-407.558
-398.963
674.375
-368.897
-161.478
253.979
-444.233
226.611
222.339
220.496
188.147
-18.3559
292.513
-71.8787
12.4074
-11.1163
6.33034
-82.5553
81.5718
-4.86756
10.637
-5.85462
-74.2958
8.34279
71.3904
-7.72702
8.14419
-1.22134
-64.7468
6.17688
62.57
-4.76791
1.98914
1.14343
-55.9585
3.01597
54.447
-2.05586
-0.591979
-1.42438
-53.8447
0.839767
52.7428
0.126046
1.56054
-2.34921
-51.1965
0.976031
50.5641
-0.081636
2.08722
-0.22515
-51.8519
1.83331
51.6515
-1.43654
0.0287646
0.802836
-53.0256
4.6074
53.2423
-4.6927
-0.934189
-56.3765
1.06859
227.894
-37.114
-0.816399
-57.4976
-55.6726
-56.7067
921.479
-117.127
5.22967
-230.13
-235.432
-222.485
-226.335
921.39
-121.26
1.76486
925.34
-112.572
3.98917
931.168
-108.239
0.88648
-83.0461
1.18673
748.542
-946.143
1121.31
515.331
-387.035
-510.66
434.973
-258.289
-505.028
438.123
-315.546
-187.63
118.406
-438.313
263.585
151.89
108.813
128.482
-18.8187
80.5931
142.346
-101.82
16.1059
-4.49107
12.8866
-46.7546
50.0261
-15.8415
4.17446
0.739681
3.87851
-56.4161
57.7844
-5.39193
-0.594569
2.39465
-0.85286
-59.1377
58.8671
1.07013
-2.34128
2.10535
-1.85925
-57.4105
56.7109
2.42724
-1.97379
-1.01875
-2.3168
-54.6757
53.9572
2.96026
1.09388
-1.06925
-1.69377
-53.4338
53.5967
1.82258
0.777512
0.646303
1.25423
-55.2862
55.9453
-1.75765
-0.802013
-0.064429
5.59762
-58.456
59.1
-6.13632
-0.0408402
-60.1858
-2.12445
34.8954
237.544
-33.6026
2.50875
-60.4378
-59.1814
-59.4161
899.644
-109.29
4.2703
-234.611
-229.992
-225.912
-222.545
893.281
-117.366
0.29567
894.166
-114.725
-1.30095
901.139
-113.658
-6.63142
-89.1859
-5.13096
3037.66
-553.154
-1618.27
2435.3
-35.0422
-671.946
1746.54
156.121
-603.637
1411.71
-105.61
-113.1
295.258
-251.628
337.942
279.473
260.857
245.767
-31.0109
120.665
277.342
-104.707
32.9684
-7.15184
26.3794
-64.2825
63.3766
-26.5894
8.26776
-1.9606
8.79705
-56.8037
55.6953
-8.60446
2.8764
-0.232734
0.399916
-55.8773
56.3227
-0.957444
0.344842
-0.65804
-2.28982
-57.1566
57.1177
1.75712
1.22969
-1.49766
-3.36233
-56.9667
57.1629
3.06121
1.60254
-0.687677
-1.41979
-58.9055
59.467
1.2333
0.31261
1.21475
3.14578
-60.5049
60.61
-3.12831
-1.33731
0.449592
6.48154
-60.1417
59.7574
-6.21762
-0.329216
-57.9637
-2.39019
30.4291
224.553
-26.4605
2.78086
-57.4999
-56.9454
-56.5033
869.127
-106.801
-8.44021
-222.32
-220.874
-215.629
-214.281
872.002
-120.188
-10.3405
877.763
-121.603
-8.08911
887.324
-122.889
-6.52087
-96.3902
-3.20187
-108.009
729.287
-1800.26
638.482
646.946
-2011.66
986.318
268.017
-468.447
1038.56
-73.4679
43.5619
215.84
-44.7831
394.036
222.881
179.753
188.394
-62.5139
88.9334
218.362
-88.9085
59.9664
-9.94362
23.6922
-60.6472
60.5619
-23.9155
10.2522
-2.39646
7.85203
-53.7542
52.8257
-7.23187
2.70483
-0.513933
2.71213
-54.4637
54.9042
-3.16843
0.52975
-0.342916
-1.46303
-56.088
56.0847
1.39983
0.409441
-0.696077
-2.03587
-57.3748
57.6875
1.74235
0.676908
0.0448032
-0.689811
-59.1235
59.2917
0.507658
-0.0308867
0.298816
2.94574
-59.7252
59.2976
-2.67893
-0.137986
-0.528436
5.16437
-58.2992
57.74
-4.67674
0.600013
-57.2611
-0.661968
23.718
220.35
-17.2021
0.929094
-57.2806
-56.2711
-56.3205
878.147
-106.887
-18.1863
-221.985
-224.139
-214.814
-216.833
880.551
-122.691
-16.0359
886.32
-129.272
-9.55349
893.259
-130.294
-3.09754
-100.122
-0.634233
1255.86
767.971
1616.06
1522.53
822.938
-595.738
1214.89
382.102
432.419
1125.41
-19.3893
234.845
974.767
55.1765
293.703
208.419
-381.607
113.796
97.6892
157.425
104.865
159.249
208.862
196.916
197.366
15.3383
-25.267
177.953
-7.71883
23.4586
5.65062
13.8966
5.10796
5.9674
-6.71663
-144.963
159.534
-44.1566
7.19712
8.82086
5.82359
8.49351
3.25009
-1.79055
-191.911
189.618
-9.62901
1.82516
2.97501
2.94325
2.71958
-0.863199
-0.245237
-184.628
189.395
-7.84211
1.44448
1.57318
-0.594747
1.75999
-1.34586
-1.95281
-213.019
215.144
-2.94377
3.5462
0.564297
-0.937563
0.94492
-0.557004
-4.90297
-217.967
217.61
-4.68309
6.39346
1.87388
-0.0611018
2.29343
1.38579
-4.59717
-228.379
226.164
-8.31339
5.06219
3.25834
1.85927
3.56081
3.03359
-1.88237
-228.129
224.581
-12.9806
1.74908
5.07535
3.32574
5.22765
904.622
-93.0081
-17.895
15.018
30.5257
15.1407
30.4879
-227.81
-229.874
-220.025
-222.196
906.491
-107.158
-23.6963
908.15
-126.306
-19.9217
912.208
-135.218
-8.27019
912.696
-131.928
0.0337624
-98.2289
-2.48457
229.765
-319.033
1545.04
650.31
622.758
-390.338
701.224
274.71
-104.514
717.053
7.99443
151.465
871.843
-28.9798
37.6319
709.057
-248.404
105.816
782.239
78.5743
64.199
-23.4085
-49.0511
-29.2244
-45.7946
740.629
-278.804
23.8442
62.5737
98.9445
64.6971
95.6662
813.924
-83.2548
52.0107
5.61279
-1.50286
2.40419
0.163763
840.607
-190.001
40.1744
22.876
55.5464
25.5694
55.7775
886
-94.1081
38.8791
8.14125
12.2426
8.85473
14.9598
908.526
-123.903
22.718
12.3427
35.599
15.2003
36.8637
927.127
-85.0659
8.37176
9.98891
22.1786
11.2121
23.2323
933.854
-101.446
-4.91256
14.4931
33.0422
15.6546
33.8552
938.478
-95.6472
-16.066
941.408
-109.81
-24.7691
939.192
-126.971
-21.4219
935.173
-133.637
-5.10747
927.596
-125.158
6.51267
-87.9556
-5.60018
-590.003
-663.668
497.154
458.499
82.5575
-1386.13
603.601
214.001
-619.103
731.434
-49.0844
-124.984
866.996
-109.769
-117.698
846.186
-239.672
-44.1387
1022.76
-101.816
53.0394
993.144
-251.82
-10.3699
1044.33
-145.163
63.4912
1038.4
-184.749
37.1221
1046.42
-104.908
45.7896
1036.39
-113.875
19.3445
1030.87
-79.2766
8.75112
1022.01
-89.96
-9.46041
1012.03
-83.0984
-16.7319
999.394
-95.9781
-28.2193
981.441
-112.679
-19.265
965.195
-120.795
-2.89428
943.715
-105.095
18.276
-68.9429
-1.94337
-488
215.356
1011.24
397.46
-377.645
-687.552
707.432
123.489
-503.63
836.1
-120.912
-192.318
926.024
-151.047
-249.877
914.751
-232.683
-154.886
1008.3
-208.971
-138.851
1010.81
-273.169
-89.5866
1067.27
-212.313
-9.06435
1080.21
-203.127
10.3856
1102.13
-130.272
33.6453
1101.81
-113.887
22.8566
1100.46
-78.0647
20.9572
1090.53
-77.2453
5.99798
1078.27
-67.124
-2.0209
1059.12
-73.7784
-12.7352
1026.22
-82.1407
-2.08144
990.411
-87.854
11.7098
958.146
-74.3512
31.6379
-46.8484
10.14
165.916
-131.545
-926.808
938.721
-362.941
-905.551
1256.65
39.161
-456.789
1313.5
-130.383
-233.474
1292.04
-118.255
-175.396
1275.6
-211.356
-201.02
1268.18
-219.384
-87.935
1237.08
-249.442
-75.5394
1226.6
-207.337
33.5816
1205.8
-180.158
27.8249
1196.91
-124.124
36.7493
1185.9
-103.74
19.5914
1179.82
-73.2722
19.9096
1171.4
-67.1093
11.7184
1161.78
-53.0959
9.95016
1143.71
-50.8221
6.79239
1098.57
-41.2978
11.618
1042.16
-38.5625
26.3623
989.491
-24.9135
44.9434
-16.1077
20.1986
847.221
341.861
2175.73
1034.22
-312.746
-141.943
1315.87
-225.941
-259.317
1445.96
-256.027
-134.294
1485.06
-151.915
-105.342
1468.18
-175.71
-102.353
1419.28
-166.211
34.6424
1369.59
-182.151
30.7457
1318.95
-148.454
76.9945
1274.93
-126.481
33.2555
1241.43
-90.5866
27.6266
1217.07
-77.8263
3.93277
1199.87
-56.8452
4.44472
1186.52
-51.6874
-4.62023
1175.36
-39.6669
-6.00154
1163.38
-36.8289
-10.6794
1135.92
-16.4684
-3.89798
1097.73
-5.30622
2.46971
1050.69
15.8793
32.8478
14.1759
21.4571
2294.67
413.776
1254.9
1977.74
-0.169823
-1810.23
1596.88
-14.1787
-895.566
1454.72
-171.889
-218.318
1473.67
-229.628
101.087
1443.38
-196.857
174.75
1404.53
-165.123
254.417
1355.22
-123.346
138.941
1307.69
-98.0961
79.244
1264.44
-74.3075
13.2966
1228.96
-53.4326
13.9373
1197.21
-40.3751
4.088
1169.8
-24.6513
12.4707
1144.72
-16.8773
5.71606
1121.46
-7.99407
2.12874
1098.48
-4.09806
-6.90198
1075.58
10.9825
-2.53045
1056.95
20.2517
-4.08891
1046.25
30.1954
-9.9208
18.8563
-11.4525
2496.11
1505.89
2338.23
-257.757
2315.03
471.536
2139.66
534.558
1885.64
664.832
1724.78
324.429
1573.54
153.208
1480
-6.84521
1391.14
-38.2529
1324.86
-68.2337
1263.48
-44.0531
1217.34
-47.0006
1183.49
-24.4022
1160.6
-22.3977
1148.8
-1.34178
1140.8
0.0499127
1142.41
6.80034
1157.38
5.32132
1195.35
-12.3791
-9.63299
1091.92
-3.94984
3168.3
814.77
232.085
696.568
1065.03
-57.0472
-227.528
1121.73
-55.8856
12.2902
1218.9
-90.0314
-44.3708
1281.08
-59.6125
15.3197
1300.82
-6.92225
-0.934372
1305.4
7.34953
6.88107
1233.26
68.1644
48.8665
1159.21
93.6142
58.6409
1069.38
107.505
113.302
1015.11
66.79
49.4439
982.231
21.6357
25.7733
972.167
-4.42308
-0.800081
976.267
-21.6304
4.61115
989.068
-26.0712
6.17664
1010.05
-31.3376
14.4485
1036.65
-30.2286
16.3641
1068.92
-30.9068
26.1146
-22.8786
28.0253
-174.786
-333.066
2959.91
114.166
-475.945
-177.75
245.853
-280.468
-139.109
409.498
-201.525
-7.28711
514.032
-172.742
-132.541
564.305
-87.9123
-45.2477
652.845
-69.039
-195.261
676.07
-13.8531
-160.338
724.8
-1.22474
-186.145
723.334
46.7553
-118.812
758.488
37.4003
-34.7672
772.87
37.2127
4.09804
792.349
-1.04242
19.2195
797.752
-5.82021
10.62
808.552
-24.0769
19.5465
815.112
-22.9071
13.5008
824.228
-29.8579
17.0439
831.175
-27.4136
11.5501
839.832
-29.9308
9.70008
-23.583
3.93972
-3.57697
-373.879
-1469.04
355.683
-463.363
259.53
510.62
-262.727
-371.737
538.396
-187.7
32.4283
574.533
-195.053
-88.8098
562.799
-78.2349
-6.60628
609.705
-118.592
-52.5542
607.677
-18.4165
-34.5024
651.31
-49.8756
-29.2256
659.128
30.4061
-7.1781
700.284
-6.12181
14.2644
711.464
28.9505
17.1913
729.853
-10.8764
23.2603
734.03
-3.01831
15.4299
742.823
-25.7666
16.0815
747.172
-21.6324
9.52556
755.542
-33.8946
9.29123
761.161
-29.8229
5.06404
769.821
-35.5993
3.03546
-28.5387
1.27584
1437.32
-27.9874
429.169
965.57
85.9805
-155.533
629.613
102.76
101.158
479.267
-19.3864
33.5684
428.284
-112.851
10.201
418.209
-66.1598
41.5621
476.452
-178.306
-27.1753
490.844
-33.4925
26.6102
558.61
-120.734
-16.8926
572.422
14.8421
13.8599
626.269
-56.7322
4.61138
641.899
15.4379
12.2639
672.217
-38.5097
5.99649
679.344
-8.71106
2.51045
697.374
-43.1053
2.18015
707.869
-31.8289
1.86947
722.751
-47.8718
3.66246
733.367
-39.8669
2.51289
744.769
-46.0101
1.52137
-34.6658
1.87062
596.058
764.337
-796.23
500.748
-126.98
-367.532
476.688
60.6031
-639.347
512.946
-66.9195
-87.8119
560.603
-143.884
-23.5698
570.637
-75.8978
37.6743
644.495
-248.351
36.173
644.125
-36.4809
36.2
672.201
-148.339
9.16136
667.902
17.0078
11.1811
688.353
-76.2573
3.51951
688.337
14.8224
1.85337
701.593
-51.1145
1.74997
703.944
-11.0822
-1.35177
715.741
-54.3513
1.99363
723.409
-39.2505
1.20286
734.207
-57.9017
3.016
742.161
-47.5003
2.24419
750.121
-53.3901
1.40058
-39.0997
0.668762
659.892
-500.999
1245.76
566.471
-567.238
-597.842
424.992
-1.85668
-297.982
400.545
-83.9892
-88.671
411.538
-187.761
-142.406
439.958
-97.1386
91.7209
610.702
-407.92
-30.8917
590.883
-2.62467
86.6066
648.042
-195.734
10.6361
639.904
28.7084
22.5056
666.174
-99.1244
3.4324
668.434
13.6908
5.03831
687.129
-67.6837
3.24019
691.15
-14.1779
2.42895
705.909
-66.3673
4.94032
720.27
-52.1545
3.01276
733.891
-70.3221
3.97308
744.813
-58.2056
2.61994
752.82
-60.8278
1.51026
-43.1822
0.916421
2157.02
-703.348
-1130.32
1178.63
-416.739
-329.561
912.866
-134.277
-471.325
837.775
-146.426
-121.848
816.07
-231.808
-12.8626
734.03
8.25241
89.2373
727.216
-74.2446
58.3547
-104.883
-81.2074
-103.684
730.918
-20.2385
95.4284
26.6779
-10.5684
29.0941
735.942
-42.0465
32.3728
-46.963
-44.3851
-46.9114
721.606
-4.55031
31.94
28.8684
-1.18044
28.3537
713.821
-21.2175
14.7041
-18.888
-23.9513
-20.2297
710.175
-5.02012
15.8391
16.9094
-5.26419
16.1849
716.759
-19.0097
13.4795
-12.7411
-20.7637
-13.2621
727.6
-12.9931
12.4404
2.98875
-12.9961
3.52539
748.75
-80.4447
15.2459
764.543
-65.5077
7.09548
775.938
-80.3165
5.81293
784.082
-66.6149
4.57039
788.776
-65.4457
2.69698
-44.3704
2.46368
560.395
-512.731
-4371.5
586.725
-325.733
-337.574
705.545
-241.887
-250.819
758.324
-255.445
-57.3549
795.825
-256.754
166.236
197.152
-6.71373
166.001
192.469
177.458
172.743
51.0144
4.37812
57.39
-66.5928
182.897
-43.3678
49.971
-64.4936
-157.437
176.674
-27.687
52.7052
-15.2826
-194.986
184.601
-29.0441
12.6654
-5.63887
-170.406
174.95
-8.75951
5.30391
-6.90349
-184.663
178.053
-12.6578
4.95366
-4.82958
-172.001
175.371
-7.69465
4.13388
-1.71362
-182.946
180.73
-15.5632
0.483917
-0.0459537
-179.778
184.133
-17.5564
0.254673
776.365
-33.2734
-0.227531
-189.742
-194.442
-183.055
-187.642
-20.6353
-32.2222
-18.6529
794.098
-85.2745
0.296168
804.758
-91.5379
4.48019
813.682
-75.7675
5.64794
817.112
-68.7556
3.13419
-44.7367
2.85326
257.427
470.872
1623.15
173.468
-481.88
-495.109
316.13
-539.295
-244.218
327.086
-370.032
-57.8459
169.95
-389.447
98.3638
142.176
149.766
126.134
-13.5812
193.916
-32.4421
15.3432
-13.526
5.10151
-57.6063
55.5823
-1.19681
11.6452
-10.3607
-51.4215
7.02122
50.9272
-6.25345
10.0871
-2.53841
-51.514
4.86395
50.3049
-3.61043
2.49399
-0.440652
-45.8233
2.80675
44.8285
-2.0674
0.69604
-1.61838
-46.2197
2.14803
45.5459
-1.20251
1.34665
-1.26205
-45.3269
2.24758
45.2299
-1.8898
1.00134
0.344098
-47.5891
3.60203
47.6637
-3.49839
-0.522303
0.940695
-48.893
5.45959
49.0072
-5.63571
-0.878738
-51.4707
0.483243
205.41
-33.9014
0.36217
-52.2679
-50.5863
-51.3025
820.242
-96.3141
8.39856
-206.131
-209.609
-197.187
-199.443
822.118
-95.2469
3.59699
827.217
-81.5697
4.69277
831.151
-72.805
1.00154
-46.9196
-0.0508368
737.597
349.75
1403.92
353.847
-410.09
-198.7
183.183
-490.072
-383.587
206.288
-467.529
-113.238
84.6715
-402.341
143.099
92.4443
79.7523
82.8006
-20.6629
46.0099
116.641