/*--------------------------------*- C++ -*----------------------------------*\
  =========                 |
  \\      /  F ield         | OpenFOAM: The Open Source CFD Toolbox
   \\    /   O peration     | Website:  https://openfoam.org
    \\  /    A nd           | Version:  10
     \\/     M anipulation  |
\*---------------------------------------------------------------------------*/
FoamFile
{
    format      ascii;
    class       volScalarField;
    location    "5.2";
    object      turbidity_0;
}
// * * * * * * * * * * * * * * * * * * * * * * * * * * * * * * * * * * * * * //

dimensions      [0 0 0 0 0 0 0];

internalField   nonuniform List<scalar> 
12920
(
-0.0436837
-0.0785557
-0.0985482
-0.111743
-0.118411
-0.127656
-0.134654
-0.145039
-0.157011
-0.174033
-0.19614
-0.22026
-0.236717
-0.25396
-0.282573
-0.319303
-0.364323
-0.409016
-0.448725
-0.482714
-0.0581976
-0.0870061
-0.126727
-0.155768
-0.153411
-0.172629
-0.169201
-0.177677
-0.188414
-0.211957
-0.247244
-0.28263
-0.318892
-0.356519
-0.397502
-0.440348
-0.481207
-0.519114
-0.554993
-0.587693
-0.0972724
-0.0732937
-0.0889628
-0.139613
-0.163725
-0.192903
-0.222642
-0.248021
-0.278735
-0.302445
-0.33159
-0.364543
-0.404782
-0.447365
-0.490866
-0.529145
-0.562776
-0.59192
-0.617406
-0.639715
-0.0420025
-0.0553322
-0.0782326
-0.129522
-0.179672
-0.232729
-0.262516
-0.306054
-0.337205
-0.369786
-0.404921
-0.44083
-0.479883
-0.515407
-0.54252
-0.564525
-0.58026
-0.594238
-0.606574
-0.621461
-0.0219746
-0.0455038
-0.0631347
-0.101273
-0.143987
-0.184121
-0.220661
-0.259239
-0.29247
-0.327477
-0.35737
-0.388731
-0.417744
-0.44614
-0.474003
-0.497213
-0.51193
-0.523099
-0.532706
-0.546956
-0.0306059
-0.0526495
-0.0717422
-0.137783
-0.151788
-0.195792
-0.208921
-0.248319
-0.273073
-0.305331
-0.330614
-0.359454
-0.386868
-0.415119
-0.436111
-0.448143
-0.448391
-0.448471
-0.4518
-0.464297
-0.0255954
-0.0424796
-0.0620906
-0.0848983
-0.101891
-0.128051
-0.149352
-0.186922
-0.215115
-0.255246
-0.290306
-0.33222
-0.368933
-0.395093
-0.386837
-0.371491
-0.355533
-0.3519
-0.358619
-0.375437
-0.0212113
-0.0382083
-0.0546115
-0.0638266
-0.0707123
-0.0851418
-0.0899022
-0.113163
-0.135991
-0.154757
-0.190851
-0.232218
-0.271949
-0.267924
-0.202583
-0.21331
-0.231305
-0.256933
-0.287113
-0.317932
-0.0260179
-0.0298169
-0.0430109
-0.0563023
-0.0792862
-0.0821196
-0.0851402
-0.0941236
-0.10593
-0.117419
-0.136639
-0.167431
-0.201823
-0.19538
-0.148894
-0.162645
-0.203135
-0.247589
-0.291897
-0.32999
-0.0176824
-0.0278179
-0.0414577
-0.0697775
-0.11558
-0.130456
-0.1353
-0.121713
-0.1157
-0.111739
-0.114833
-0.135006
-0.152471
-0.137905
-0.119255
-0.16652
-0.222775
-0.279993
-0.332424
-0.374167
-0.0130419
-0.0234117
-0.0381936
-0.0627703
-0.0903799
-0.100052
-0.115416
-0.122624
-0.128529
-0.126092
-0.123841
-0.129685
-0.130941
-0.115164
-0.111026
-0.185816
-0.251592
-0.314952
-0.375229
-0.423935
-0.0123062
-0.0314105
-0.0479425
-0.0688883
-0.0914943
-0.107564
-0.139062
-0.137731
-0.125491
-0.116423
-0.117871
-0.119405
-0.110287
-0.0955011
-0.116121
-0.210145
-0.278826
-0.344611
-0.40858
-0.462101
-0.0163946
-0.0382247
-0.0542117
-0.0781125
-0.109384
-0.160983
-0.168339
-0.172481
-0.163911
-0.137188
-0.123625
-0.117838
-0.122285
-0.13914
-0.224674
-0.274744
-0.3247
-0.378847
-0.434174
-0.483868
-0.118199
-0.0534394
-0.0723906
-0.112562
-0.147969
-0.173195
-0.210511
-0.237717
-0.265432
-0.290809
-0.305062
-0.323043
-0.336326
-0.344252
-0.347299
-0.351968
-0.370467
-0.405741
-0.449387
-0.49463
-0.0433911
-0.0444637
-0.0616892
-0.083601
-0.103925
-0.11774
-0.152285
-0.173627
-0.206804
-0.241339
-0.276016
-0.303009
-0.32041
-0.325665
-0.327576
-0.333471
-0.356492
-0.39609
-0.444155
-0.497716
-0.0245005
-0.0370582
-0.0553004
-0.0693925
-0.0787034
-0.0895198
-0.111116
-0.137062
-0.175739
-0.214176
-0.250775
-0.282721
-0.308954
-0.328851
-0.343187
-0.355959
-0.379226
-0.41288
-0.459045
-0.516807
-0.0195442
-0.039407
-0.0495616
-0.0571167
-0.0648024
-0.0729115
-0.0909861
-0.116915
-0.153776
-0.195457
-0.235248
-0.26813
-0.294575
-0.316495
-0.336469
-0.356676
-0.380352
-0.412345
-0.458606
-0.521488
-0.024582
-0.0441663
-0.0490199
-0.0554412
-0.064702
-0.0767379
-0.0951291
-0.1192
-0.148574
-0.181591
-0.212966
-0.241433
-0.267694
-0.2911
-0.312757
-0.332101
-0.352659
-0.377131
-0.410749
-0.460106
-0.0261581
-0.0287687
-0.0429035
-0.064607
-0.0828448
-0.10272
-0.130374
-0.166381
-0.198473
-0.224131
-0.247042
-0.270278
-0.29593
-0.323759
-0.352952
-0.381505
-0.408331
-0.429199
-0.438963
-0.447
-0.0374156
-0.0620683
-0.0778341
-0.0938457
-0.110888
-0.131778
-0.152221
-0.164537
-0.172457
-0.179945
-0.195201
-0.214337
-0.242923
-0.275809
-0.314258
-0.349869
-0.381223
-0.404969
-0.413853
-0.413089
-0.0643285
-0.0392824
-0.0286774
-0.022096
-0.0206226
-0.0244372
-0.0334783
-0.0430061
-0.056584
-0.0694106
-0.0747184
-0.057435
-0.0387146
-0.0327811
-0.0383474
-0.0500791
-0.0648186
-0.0826808
-0.101968
-0.113571
-0.0693259
-0.0279
-0.0315611
-0.0227227
-0.0156137
-0.0160725
-0.018501
-0.0211145
-0.0265585
-0.0317368
-0.0384091
-0.0429382
-0.0611353
-0.0828735
-0.108848
-0.126958
-0.142395
-0.148673
-0.149343
-0.142527
-0.0125729
-0.0261988
-0.0202967
-0.0236711
-0.019542
-0.0197037
-0.0234484
-0.0269957
-0.0357738
-0.0439429
-0.0617237
-0.0755795
-0.0935455
-0.103175
-0.111569
-0.11566
-0.119415
-0.120245
-0.120797
-0.11829
-0.00574145
-0.026634
-0.026406
-0.0323339
-0.031475
-0.0439306
-0.0421153
-0.0543395
-0.0617611
-0.0735066
-0.0820097
-0.0831212
-0.0797056
-0.0750329
-0.0763615
-0.0832441
-0.0942435
-0.104567
-0.114024
-0.122262
-0.0117474
-0.0117982
-0.0142976
-0.0226449
-0.0341114
-0.0360207
-0.0459795
-0.0475062
-0.0539149
-0.059811
-0.0640779
-0.0637912
-0.061759
-0.0583777
-0.0604563
-0.0629644
-0.0678443
-0.0737582
-0.0818412
-0.0919806
-0.00813852
-0.00816672
-0.0141152
-0.0303695
-0.0390485
-0.0596783
-0.0577521
-0.0620104
-0.0574888
-0.0538218
-0.052013
-0.0495703
-0.0534823
-0.0570906
-0.063095
-0.0600139
-0.0556623
-0.0528903
-0.0545702
-0.0614283
-0.0126669
-0.0112905
-0.0128073
-0.0187636
-0.0354032
-0.0547692
-0.0658713
-0.0731044
-0.072536
-0.0719133
-0.0747356
-0.0745298
-0.0781241
-0.0753308
-0.070374
-0.0581363
-0.049042
-0.0444876
-0.0446545
-0.0499638
-0.0079133
-0.0129954
-0.0176234
-0.0241657
-0.0404171
-0.0540283
-0.064544
-0.0744718
-0.0650296
-0.0748308
-0.0895209
-0.0902582
-0.0697932
-0.0526224
-0.0427424
-0.0418953
-0.0411865
-0.0409667
-0.0415651
-0.045601
-0.00306579
-0.00841122
-0.0198805
-0.0366734
-0.0655385
-0.0675777
-0.0700593
-0.0758489
-0.0523049
-0.0563597
-0.093636
-0.108464
-0.0795801
-0.0763908
-0.0818374
-0.055082
-0.0490025
-0.0451873
-0.0426344
-0.0433931
-0.0025888
-0.0143932
-0.0338475
-0.0585201
-0.0921824
-0.100476
-0.100884
-0.0701105
-0.043174
-0.0464432
-0.0903661
-0.110413
-0.103785
-0.101479
-0.0708896
-0.0437638
-0.0409083
-0.0394355
-0.038624
-0.0388348
-0.00310454
-0.00494791
-0.0147135
-0.0314632
-0.0568016
-0.0692037
-0.0817303
-0.0812943
-0.062706
-0.063157
-0.0902181
-0.107022
-0.0890309
-0.0676309
-0.0529751
-0.0357012
-0.036494
-0.0394561
-0.0430677
-0.0456306
-0.00667999
-0.011132
-0.0246268
-0.0360535
-0.0598228
-0.0739387
-0.0814254
-0.0529032
-0.0399394
-0.0586784
-0.0728434
-0.0623989
-0.05395
-0.05742
-0.0416871
-0.0326173
-0.0381758
-0.0458391
-0.0552102
-0.0619533
-0.0129272
-0.0150103
-0.0262226
-0.0372483
-0.0603033
-0.0646173
-0.073528
-0.0399482
-0.0278364
-0.031901
-0.0388305
-0.0430896
-0.0398404
-0.0317976
-0.0247283
-0.0308927
-0.0404645
-0.0521261
-0.0656588
-0.0727153
-0.0425789
-0.0229736
-0.0271062
-0.0566416
-0.0736686
-0.0722354
-0.0709622
-0.0665854
-0.0599444
-0.0547488
-0.0455988
-0.0344439
-0.0247935
-0.021435
-0.0245756
-0.0332726
-0.0468141
-0.0627071
-0.0796402
-0.0812308
-0.0277296
-0.0143729
-0.016515
-0.0252068
-0.0370272
-0.0417539
-0.0663256
-0.0694671
-0.0831671
-0.0792926
-0.0690973
-0.0494992
-0.0339038
-0.027367
-0.0301051
-0.0410943
-0.0594369
-0.0811525
-0.102276
-0.098794
-0.0217776
-0.0080056
-0.00987781
-0.0127673
-0.0176891
-0.0244771
-0.0379234
-0.0484483
-0.0644674
-0.071473
-0.0771392
-0.0713827
-0.063461
-0.0536067
-0.0515917
-0.0612624
-0.083114
-0.111799
-0.134014
-0.129751
-0.00747884
-0.00699584
-0.00624208
-0.00792568
-0.0118298
-0.0187635
-0.0309584
-0.0408493
-0.0531855
-0.0548481
-0.0569647
-0.0577231
-0.0637979
-0.07014
-0.0801622
-0.0920433
-0.109951
-0.1328
-0.150961
-0.146535
-0.00922341
-0.00867687
-0.00728322
-0.0107835
-0.0162305
-0.0255719
-0.0396854
-0.0451159
-0.0454644
-0.0350995
-0.0275778
-0.0221472
-0.02297
-0.0272343
-0.0353127
-0.0481541
-0.0675415
-0.0925097
-0.126281
-0.144931
-0.00940557
-0.00977163
-0.0128224
-0.0285128
-0.046441
-0.0587981
-0.0681846
-0.059188
-0.0443877
-0.0290464
-0.0288089
-0.0349859
-0.0466205
-0.0548938
-0.0601212
-0.0636337
-0.0690688
-0.0700504
-0.070486
-0.0746752
-0.00961978
-0.0383789
-0.0625034
-0.0724071
-0.0777729
-0.0682091
-0.0499944
-0.0280024
-0.0184278
-0.0171259
-0.0203791
-0.0258833
-0.032622
-0.039098
-0.0448704
-0.0490753
-0.0516414
-0.0524108
-0.0499783
-0.0472315
-0.0239547
-0.0236675
-0.0173418
-0.0153328
-0.0157145
-0.0187804
-0.024453
-0.0307519
-0.0374137
-0.0402168
-0.036717
-0.0261721
-0.0207216
-0.0214414
-0.0252365
-0.0295923
-0.0340676
-0.0382104
-0.0416799
-0.0429785
-0.0217766
-0.0209016
-0.0140544
-0.0119768
-0.0119246
-0.0130291
-0.0152629
-0.0167045
-0.0197623
-0.0207628
-0.0217272
-0.0235559
-0.0293071
-0.034611
-0.0405008
-0.0425917
-0.0434203
-0.0405161
-0.0366691
-0.03192
-0.0244641
-0.0218062
-0.0160472
-0.0131155
-0.011394
-0.0109907
-0.0121223
-0.0132716
-0.0158806
-0.0183215
-0.0229218
-0.0262717
-0.0305645
-0.0322343
-0.0340628
-0.0342066
-0.0344596
-0.0333675
-0.0324962
-0.0313441
-0.00517562
-0.0138193
-0.0141661
-0.0154979
-0.0143772
-0.0167147
-0.0173011
-0.0200513
-0.0220716
-0.0243584
-0.026044
-0.0264669
-0.027232
-0.0287905
-0.0317292
-0.0350374
-0.0382648
-0.0403302
-0.041506
-0.0420662
-0.00478965
-0.00718942
-0.00902101
-0.0131881
-0.016511
-0.0178876
-0.0205121
-0.0208617
-0.0222171
-0.0234302
-0.0240388
-0.0243954
-0.0250993
-0.0264893
-0.028588
-0.0310692
-0.0334961
-0.0359488
-0.0379306
-0.0396582
-0.00311911
-0.00620568
-0.00985605
-0.0162071
-0.0208671
-0.0260952
-0.0252944
-0.0242408
-0.0222013
-0.02041
-0.0199555
-0.0199092
-0.0207187
-0.0215487
-0.0223148
-0.0225589
-0.0232663
-0.024752
-0.0268092
-0.0292937
-0.0118374
-0.00922742
-0.00823066
-0.0117241
-0.0220081
-0.0294289
-0.031671
-0.0325412
-0.0305077
-0.0277832
-0.0261486
-0.0239507
-0.022386
-0.0205969
-0.0192448
-0.0175815
-0.0173299
-0.0184483
-0.0206474
-0.0237004
-0.00618569
-0.0113993
-0.0178179
-0.0225668
-0.0348212
-0.0358725
-0.0396769
-0.0332087
-0.0291473
-0.031943
-0.0307763
-0.0245195
-0.0178829
-0.0144622
-0.0126584
-0.0131884
-0.0141205
-0.0155288
-0.0175418
-0.0204804
-0.00359813
-0.0136478
-0.0274484
-0.0345979
-0.0521576
-0.0457833
-0.0465057
-0.0380392
-0.0240049
-0.0305725
-0.0353692
-0.0277607
-0.0203646
-0.0218512
-0.0220654
-0.0161201
-0.0155488
-0.0158871
-0.0170191
-0.01933
-0.0019345
-0.0155258
-0.0345106
-0.0481888
-0.0680486
-0.0609068
-0.0458725
-0.0258055
-0.0180127
-0.0255665
-0.0345206
-0.0327759
-0.0335363
-0.0330104
-0.0237192
-0.0147847
-0.0147598
-0.0153166
-0.0163957
-0.0180926
-0.00680336
-0.00982972
-0.0194656
-0.0298938
-0.0466302
-0.0469438
-0.047623
-0.038541
-0.0275294
-0.0323235
-0.0384828
-0.0368484
-0.0289496
-0.0229524
-0.0155129
-0.0140236
-0.0156867
-0.0173056
-0.0187728
-0.0200776
-0.00553086
-0.00906927
-0.0215116
-0.0263886
-0.0443
-0.037165
-0.0264267
-0.0153127
-0.0176097
-0.0247333
-0.025974
-0.0226199
-0.0204156
-0.0177408
-0.0134462
-0.0160655
-0.0186281
-0.0209634
-0.0231027
-0.0245441
-0.0127557
-0.0123806
-0.0179989
-0.0197042
-0.0322657
-0.0246143
-0.0209972
-0.00958627
-0.00899113
-0.0107682
-0.0120147
-0.0122743
-0.0115468
-0.0114893
-0.0144882
-0.01758
-0.0207249
-0.0235936
-0.0264261
-0.028142
-0.0123298
-0.0136052
-0.0144251
-0.0256759
-0.028183
-0.0286
-0.0204148
-0.0198181
-0.0147101
-0.0130161
-0.0105307
-0.00957352
-0.010234
-0.0126265
-0.0160897
-0.020137
-0.0239329
-0.0267581
-0.0290077
-0.0292488
-0.0131123
-0.0117343
-0.010895
-0.0152531
-0.0200909
-0.0230267
-0.031245
-0.0298105
-0.0310041
-0.0242764
-0.0181933
-0.0137005
-0.0129786
-0.0155555
-0.0200233
-0.0253987
-0.0303766
-0.0334023
-0.0344264
-0.0309393
-0.00631909
-0.00798272
-0.00808734
-0.0102565
-0.0139054
-0.0175514
-0.0233825
-0.0250629
-0.0289263
-0.027107
-0.0256994
-0.022156
-0.0210824
-0.0226733
-0.027489
-0.0340029
-0.0409985
-0.0455904
-0.0456165
-0.0385668
-0.00463989
-0.00453119
-0.00602829
-0.00842956
-0.012275
-0.0150767
-0.018932
-0.0188309
-0.0208613
-0.0195725
-0.0205891
-0.0221422
-0.0260524
-0.0307946
-0.0370707
-0.0437503
-0.0510259
-0.0547474
-0.0527762
-0.0437488
-0.00439954
-0.00449973
-0.00610333
-0.0108927
-0.0151175
-0.0180108
-0.0204207
-0.0169219
-0.0148211
-0.0123077
-0.0126175
-0.0150066
-0.0192361
-0.0249224
-0.031664
-0.0385188
-0.0451728
-0.049448
-0.0535072
-0.0513584
-0.00649414
-0.00694129
-0.0110851
-0.0225885
-0.0333313
-0.0344716
-0.0324253
-0.0218042
-0.0158684
-0.0148756
-0.0178733
-0.0220729
-0.0266506
-0.0294972
-0.0309139
-0.0308673
-0.0305581
-0.0306978
-0.0328282
-0.0371029
-0.00361897
-0.0113368
-0.0280975
-0.0373971
-0.0402865
-0.0287779
-0.0188226
-0.0131508
-0.0122491
-0.013889
-0.0171223
-0.0205167
-0.0236395
-0.0255368
-0.0264756
-0.026524
-0.0263243
-0.0259142
-0.02666
-0.0293663
-0.0454197
-0.0224266
-0.0142111
-0.0123601
-0.0127595
-0.0146189
-0.0178701
-0.0207541
-0.0230188
-0.0205748
-0.0174158
-0.0143791
-0.0145134
-0.0159997
-0.0178096
-0.0193421
-0.020584
-0.0212579
-0.0213941
-0.020805
-0.0468272
-0.0295301
-0.0131731
-0.0105604
-0.0107964
-0.0117647
-0.0131913
-0.0136059
-0.0139342
-0.0129778
-0.0128521
-0.0130762
-0.0139879
-0.0140817
-0.0146365
-0.0143415
-0.0145463
-0.0145689
-0.0152684
-0.0163637
-0.0122856
-0.0218536
-0.0187279
-0.0122278
-0.0097609
-0.00922916
-0.00941287
-0.0097257
-0.0103413
-0.0108808
-0.0119077
-0.0124586
-0.0133754
-0.0137951
-0.0147264
-0.0155186
-0.0167869
-0.0180624
-0.0196908
-0.0213343
-0.0106407
-0.0181146
-0.0145943
-0.0119688
-0.0102488
-0.0102801
-0.0103269
-0.0109391
-0.0115663
-0.012257
-0.0130929
-0.0138105
-0.0149754
-0.0161548
-0.0176943
-0.0191058
-0.0205076
-0.021667
-0.0228235
-0.0240992
-0.0117141
-0.0127836
-0.010788
-0.0113841
-0.0115582
-0.0112592
-0.0114541
-0.0114953
-0.0119174
-0.01264
-0.0134261
-0.0143964
-0.0155426
-0.0168236
-0.0180551
-0.0192187
-0.0201325
-0.0209394
-0.0216042
-0.022451
-0.00377856
-0.00737265
-0.00958247
-0.0125993
-0.0136363
-0.0139452
-0.0130132
-0.0120745
-0.0114195
-0.0116264
-0.0119581
-0.0127839
-0.0134048
-0.0143519
-0.0150366
-0.0158386
-0.0165819
-0.017335
-0.0180347
-0.018797
-0.00134917
-0.00462725
-0.00885827
-0.0121509
-0.0161939
-0.0172652
-0.0156964
-0.0151246
-0.0132922
-0.0124622
-0.0116965
-0.0116237
-0.011445
-0.011873
-0.0123833
-0.013261
-0.0143544
-0.0155684
-0.0167205
-0.0177337
-0.00659202
-0.0115327
-0.0148888
-0.0162828
-0.0217776
-0.0183612
-0.0182144
-0.0151274
-0.0131395
-0.0127502
-0.0113699
-0.00996217
-0.0089115
-0.00858974
-0.00965987
-0.0110427
-0.0126675
-0.0144437
-0.0162242
-0.017845
-0.00978467
-0.0136841
-0.0181223
-0.0197103
-0.0247449
-0.0208608
-0.0199856
-0.0134982
-0.0118262
-0.0123793
-0.0110507
-0.00869081
-0.0076006
-0.00746948
-0.00796685
-0.0106844
-0.0123413
-0.0141969
-0.0162114
-0.0181966
-0.00527343
-0.0151381
-0.0238143
-0.0279155
-0.0327571
-0.0230933
-0.015291
-0.00984312
-0.00919925
-0.0112074
-0.0118653
-0.0111324
-0.00994347
-0.00899513
-0.00855626
-0.0113731
-0.0130322
-0.0147603
-0.0165456
-0.0182403
-0.00846191
-0.0124925
-0.0191651
-0.0203664
-0.0256157
-0.0224221
-0.0199794
-0.0144797
-0.0127984
-0.0145227
-0.0141094
-0.0113255
-0.00882185
-0.00788193
-0.00875778
-0.0125779
-0.0142449
-0.0158036
-0.0172877
-0.0186231
-0.000678365
-0.00437764
-0.011631
-0.0141013
-0.0202443
-0.0123851
-0.00836289
-0.00781931
-0.00963151
-0.0110527
-0.0098347
-0.00825591
-0.00754856
-0.00794044
-0.0100263
-0.0133573
-0.0149531
-0.0164919
-0.0179517
-0.0192151
-0.00205114
-0.00615347
-0.00918383
-0.00985537
-0.0121686
-0.00885339
-0.0065714
-0.00521169
-0.0055627
-0.00620565
-0.00669204
-0.00729281
-0.00805511
-0.00913284
-0.0116976
-0.0130565
-0.0144987
-0.0160673
-0.0177958
-0.0194046
-0.0303843
-0.0106735
-0.00895356
-0.0115447
-0.00978681
-0.0107889
-0.00675663
-0.00723764
-0.00624955
-0.00663927
-0.00714685
-0.00818936
-0.0093689
-0.0106918
-0.0118704
-0.0129589
-0.0139943
-0.0151982
-0.0168314
-0.0186043
-0.0103783
-0.0098023
-0.00884103
-0.0101289
-0.0108994
-0.0113773
-0.0123736
-0.0107295
-0.0101709
-0.00865139
-0.00838506
-0.00926789
-0.0106554
-0.012235
-0.0133992
-0.0142268
-0.0147238
-0.0152434
-0.0161151
-0.017118
-0.0123589
-0.00819208
-0.00746932
-0.00886125
-0.0102828
-0.0109705
-0.0118391
-0.0112618
-0.0115834
-0.0109091
-0.011209
-0.011975
-0.0134345
-0.0150405
-0.0163535
-0.0172406
-0.0178337
-0.017914
-0.0176327
-0.0171935
-0.00365019
-0.00483572
-0.00681328
-0.00877658
-0.0101672
-0.009832
-0.0102952
-0.00977289
-0.010673
-0.011246
-0.0129507
-0.0148988
-0.0171278
-0.0188835
-0.0202882
-0.021023
-0.0216195
-0.0208542
-0.0194679
-0.0182241
-0.00370058
-0.00659159
-0.00752575
-0.00945849
-0.0106274
-0.0103114
-0.0100604
-0.0091496
-0.00975463
-0.0112318
-0.0135247
-0.0161785
-0.018732
-0.0204906
-0.0215386
-0.0217774
-0.0219221
-0.0213861
-0.0213821
-0.0204795
-0.00301243
-0.00535466
-0.00785709
-0.0136284
-0.0189799
-0.0169028
-0.0143305
-0.0115087
-0.0119928
-0.013756
-0.0157708
-0.0169172
-0.0173585
-0.0171009
-0.0168815
-0.0170911
-0.0179066
-0.0194195
-0.0217062
-0.0248554
-0.00205285
-0.0061784
-0.0142913
-0.0159145
-0.0171662
-0.0126449
-0.0103724
-0.00968731
-0.0104743
-0.011922
-0.013534
-0.0144467
-0.0148902
-0.0150545
-0.0155305
-0.0165497
-0.0187986
-0.022621
-0.0281699
-0.035365
-0.0459016
-0.0390563
-0.0223825
-0.01281
-0.0111198
-0.0111523
-0.0115262
-0.0105825
-0.011138
-0.0108828
-0.0116824
-0.0120431
-0.0122553
-0.0121184
-0.0120337
-0.0117755
-0.0118087
-0.0119932
-0.012768
-0.0139923
-0.052605
-0.0195711
-0.0101973
-0.00906023
-0.00903061
-0.00881697
-0.00901556
-0.00878673
-0.00942383
-0.0101638
-0.0112805
-0.0126261
-0.0143007
-0.0161578
-0.0180003
-0.019858
-0.0215023
-0.0230642
-0.024288
-0.0251654
-0.0265447
-0.0229372
-0.0145901
-0.00961544
-0.00806683
-0.00774238
-0.00807284
-0.00865989
-0.00954895
-0.0105533
-0.0117553
-0.0130002
-0.0142082
-0.0153106
-0.0161948
-0.0169264
-0.0174705
-0.0179094
-0.0182666
-0.0186042
-0.0231904
-0.0138093
-0.0120959
-0.00910703
-0.0078552
-0.00819253
-0.0087334
-0.00946453
-0.0102855
-0.0111478
-0.0120525
-0.0129389
-0.0137527
-0.014528
-0.0152386
-0.0159273
-0.0166026
-0.0172518
-0.0179115
-0.0185213
-0.00595971
-0.00863916
-0.00900442
-0.00815972
-0.00775664
-0.00818502
-0.00871245
-0.00948315
-0.0102106
-0.0110354
-0.0118042
-0.0126019
-0.0133609
-0.0141331
-0.0149411
-0.0157547
-0.0166364
-0.0175373
-0.0184841
-0.0193002
-0.0127936
-0.0108099
-0.00886632
-0.00836216
-0.00818602
-0.00857264
-0.00851619
-0.0092841
-0.00985736
-0.0107318
-0.0114724
-0.0123188
-0.013133
-0.0140255
-0.0149757
-0.0160083
-0.0171092
-0.0182427
-0.0193451
-0.0202264
-0.00412621
-0.00539527
-0.00855733
-0.00913689
-0.00945494
-0.00928417
-0.00858127
-0.0091893
-0.0095034
-0.0103336
-0.0110527
-0.0119491
-0.0128128
-0.013773
-0.0147372
-0.0158563
-0.016987
-0.0181361
-0.0191776
-0.0200067
-0.00797811
-0.00932025
-0.00861138
-0.00835694
-0.00904732
-0.00866201
-0.00825392
-0.00888603
-0.00878737
-0.00951452
-0.00988615
-0.010605
-0.0112363
-0.0120016
-0.0140359
-0.0149561
-0.0159089
-0.0168662
-0.0177243
-0.0183902
-0.0100094
-0.00837892
-0.00833942
-0.00783467
-0.00800135
-0.00852145
-0.00785171
-0.00760507
-0.00785249
-0.00778855
-0.00802873
-0.00854001
-0.00942603
-0.0103762
-0.0118222
-0.0137632
-0.0145106
-0.0153013
-0.0160455
-0.01665
-0.0105747
-0.012373
-0.0120033
-0.0110627
-0.0100342
-0.00801721
-0.00702421
-0.00667566
-0.00659981
-0.00643979
-0.00660506
-0.00757176
-0.00910316
-0.0105654
-0.0121506
-0.0134319
-0.0140104
-0.014679
-0.0153958
-0.0160358
-0.0123695
-0.0118396
-0.0130871
-0.0111485
-0.00988764
-0.00867261
-0.00757588
-0.0069467
-0.0068175
-0.00665482
-0.00662072
-0.00750989
-0.00912271
-0.0107519
-0.0125976
-0.0139684
-0.0145848
-0.0152747
-0.0160616
-0.0167699
-0.00192804
-0.00461591
-0.00794211
-0.00802716
-0.00741244
-0.00582899
-0.00528073
-0.00563648
-0.00592596
-0.00601288
-0.00652178
-0.00776
-0.00949197
-0.0112052
-0.0133026
-0.0156274
-0.01639
-0.017151
-0.0179531
-0.018583
-0.0049094
-0.00492287
-0.00643638
-0.0063543
-0.00557991
-0.00512878
-0.00499526
-0.00573349
-0.00631328
-0.0072357
-0.00832982
-0.00977275
-0.0113453
-0.0130138
-0.0164821
-0.0177174
-0.0189295
-0.0200991
-0.0211537
-0.0219544
-0.022315
-0.0104928
-0.00673294
-0.00614045
-0.00506465
-0.00557318
-0.00557231
-0.00642347
-0.00740255
-0.0085355
-0.00995298
-0.0115575
-0.0133282
-0.015172
-0.0170274
-0.0188579
-0.0206271
-0.0223216
-0.023889
-0.0251884
-0.00334466
-0.00899853
-0.00756141
-0.00624149
-0.00575419
-0.00589301
-0.00623917
-0.00669102
-0.0074344
-0.00852598
-0.00985765
-0.0115486
-0.0134016
-0.0154091
-0.0174633
-0.0194885
-0.0214202
-0.0232038
-0.0247925
-0.0260512
-0.00498983
-0.00690125
-0.00658372
-0.00671212
-0.00669453
-0.0067402
-0.00704262
-0.00766995
-0.00836851
-0.00939492
-0.0105927
-0.0121198
-0.0138664
-0.0158347
-0.0179135
-0.0199974
-0.0219613
-0.0237525
-0.0252447
-0.0263018
-0.00425642
-0.0056548
-0.0067985
-0.00687411
-0.00695001
-0.00713844
-0.00784832
-0.00864276
-0.00956687
-0.0105467
-0.0116848
-0.0129628
-0.014502
-0.0162503
-0.0182848
-0.0204567
-0.0227213
-0.0249824
-0.0271113
-0.0287772
-0.0086538
-0.00727484
-0.00622637
-0.00676899
-0.00679826
-0.00715479
-0.00798055
-0.00909504
-0.0103002
-0.0114122
-0.0124808
-0.0134846
-0.0146042
-0.0158997
-0.017436
-0.0192165
-0.0212124
-0.0234214
-0.0257241
-0.0278789
-0.0020774
-0.00427466
-0.00718415
-0.00907653
-0.0093465
-0.00887573
-0.00892084
-0.00934402
-0.0103309
-0.0113136
-0.0125633
-0.013844
-0.0153765
-0.0170705
-0.0188927
-0.020822
-0.022791
-0.02491
-0.0270885
-0.0290888
-0.00020649
-0.00379698
-0.00730455
-0.00892256
-0.00988715
-0.00945436
-0.00898637
-0.00857715
-0.00858322
-0.00901667
-0.00990077
-0.0112531
-0.0133612
-0.0162626
-0.0200116
-0.0245523
-0.0295461
-0.0349354
-0.0403695
-0.0464504
-0.0335458
-0.0279683
-0.0336469
-0.0144975
-0.0151922
-0.0170923
-0.0192606
-0.0332405
-0.0349699
-0.0367885
-0.0151651
-0.0147755
-0.019401
-0.0175364
-0.0375403
-0.0308977
-0.0326596
-0.0182905
-0.018947
-0.0162725
-0.0156381
-0.0381043
-0.0320465
-0.0276194
-0.0187174
-0.0167426
-0.0150194
-0.0127766
-0.0908311
-0.100354
-0.100924
-0.0826334
-0.0877045
-0.0966642
-0.100668
-0.103439
-0.101856
-0.107705
-0.0907309
-0.0962255
-0.099865
-0.0881371
-0.11414
-0.109039
-0.110247
-0.0942532
-0.0916176
-0.079434
-0.0664276
-0.131383
-0.110614
-0.113729
-0.0982632
-0.132377
-0.0712051
-0.105908
-0.157905
-0.115837
-0.130587
-0.141799
-0.164092
-0.118097
-0.145571
-0.19657
-0.138491
-0.159071
-0.170427
-0.177972
-0.151235
-0.154902
-0.201819
-0.161981
-0.155477
-0.173982
-0.15223
-0.152474
-0.143128
-0.171003
-0.149148
-0.127651
-0.144747
-0.132757
-0.139589
-0.127938
-0.125622
-0.124305
-0.129154
-0.131285
-0.121785
-0.116166
-0.122325
-0.116782
-0.131647
-0.13337
-0.113391
-0.0836181
-0.122931
-0.102012
-0.112235
-0.131694
-0.125161
-0.073899
-0.062646
-0.0927595
-0.0809348
-0.113178
-0.12348
-0.120979
-0.067225
-0.100684
-0.0837022
-0.104996
-0.128015
-0.121107
-0.126702
-0.113284
-0.141376
-0.113752
-0.134176
-0.151076
-0.12991
-0.13513
-0.146731
-0.149208
-0.137957
-0.138122
-0.14364
-0.134157
-0.124116
-0.147208
-0.138668
-0.134852
-0.119995
-0.119832
-0.119407
-0.105483
-0.134937
-0.123119
-0.115648
-0.109919
-0.120771
-0.127093
-0.130848
-0.107437
-0.11522
-0.116409
-0.123878
-0.127799
-0.128358
-0.121959
-0.117093
-0.11255
-0.121868
-0.114934
-0.127081
-0.120163
-0.117981
-0.108004
-0.0994939
-0.113463
-0.113732
-0.12392
-0.118516
-0.121968
-0.100536
-0.113678
-0.115173
-0.121177
-0.127537
-0.123171
-0.12577
-0.119726
-0.134591
-0.122884
-0.121989
-0.132407
-0.125898
-0.121341
-0.137121
-0.131611
-0.118102
-0.0999517
-0.120031
-0.117882
-0.104796
-0.126245
-0.110528
-0.0958731
-0.0954263
-0.102045
-0.100599
-0.0940763
-0.10796
-0.107731
-0.0976586
-0.106995
-0.140801
-0.151242
-0.155981
-0.12521
-0.132758
-0.141699
-0.151629
-0.128604
-0.155443
-0.153233
-0.129655
-0.117401
-0.147173
-0.122034
-0.117546
-0.145888
-0.124422
-0.11393
-0.109439
-0.109734
-0.0889883
-0.117033
-0.118705
-0.107807
-0.109795
-0.112511
-0.0875484
-0.0876589
-0.11968
-0.105365
-0.0996214
-0.112947
-0.108224
-0.0874142
-0.0874408
-0.113712
-0.0979926
-0.0927069
-0.104008
-0.0914181
-0.0884765
-0.0958162
-0.0986767
-0.091368
-0.0917757
-0.0901828
-0.094785
-0.0982716
-0.107038
-0.0928394
-0.0939061
-0.114127
-0.0976598
-0.107097
-0.10962
-0.117482
-0.0761886
-0.0825664
-0.0801376
-0.0612565
-0.0552354
-0.0667976
-0.0552873
-0.0591786
-0.0761756
-0.0536565
-0.0504972
-0.0373597
-0.0494298
-0.0310395
-0.0500318
-0.0465274
-0.0429236
-0.0362536
-0.0423122
-0.0278186
-0.0320624
-0.0837395
-0.0482617
-0.0811395
-0.0467234
-0.0553905
-0.0364705
-0.0470979
-0.10918
-0.0935791
-0.113247
-0.0558841
-0.0509738
-0.048349
-0.0457534
-0.0865974
-0.113061
-0.104594
-0.0475014
-0.0377897
-0.0440901
-0.041976
-0.0734953
-0.103546
-0.104763
-0.0351416
-0.0320297
-0.0423218
-0.0439799
-0.0868718
-0.1047
-0.099839
-0.0322893
-0.0340653
-0.0442549
-0.0436015
-0.0786498
-0.0922552
-0.090635
-0.0723669
-0.051293
-0.0712377
-0.058303
-0.0482676
-0.084549
-0.0586278
-0.0448601
-0.0281726
-0.0534105
-0.0390591
-0.0416412
-0.0535554
-0.0498689
-0.0256786
-0.0299305
-0.0361687
-0.0364778
-0.0775984
-0.0525858
-0.0744104
-0.0340502
-0.0448095
-0.0385304
-0.044954
-0.110606
-0.0848008
-0.105
-0.0464237
-0.0452493
-0.0467577
-0.0483168
-0.104244
-0.106992
-0.103013
-0.0442316
-0.0437432
-0.048071
-0.044778
-0.103109
-0.0991546
-0.0823681
-0.044133
-0.0443796
-0.042995
-0.0374274
-0.0921858
-0.07703
-0.0676262
-0.0439051
-0.0411489
-0.0358403
-0.0317897
-0.0835725
-0.0811364
-0.0663967
-0.0611653
-0.053526
-0.0497811
-0.033118
-0.0665732
-0.0603444
-0.0529683
-0.0508286
-0.0431702
-0.0309467
-0.0303929
-0.0603837
-0.0545415
-0.0686791
-0.0415374
-0.0415183
-0.0317775
-0.0375616
-0.0819902
-0.0745185
-0.0879618
-0.0427996
-0.0479674
-0.0393679
-0.0423603
-0.106145
-0.0899578
-0.0839197
-0.0494822
-0.0492841
-0.0422529
-0.0387716
-0.0954266
-0.0782577
-0.061459
-0.0480669
-0.0415997
-0.0371082
-0.0332715
-0.0713399
-0.0582457
-0.0565371
-0.0394054
-0.0345703
-0.0325403
-0.0307686
-0.0641694
-0.0575003
-0.0579116
-0.0334317
-0.0303559
-0.0301126
-0.0275468
-0.0619433
-0.0818683
-0.0587433
-0.0454208
-0.0250525
-0.0506986
-0.0232504
-0.0397249
-0.0435355
-0.0251329
-0.0230649
-0.0234373
-0.0194524
-0.0168666
-0.052623
-0.0242827
-0.0291447
-0.0250139
-0.0311924
-0.0166557
-0.0198672
-0.0715728
-0.0314939
-0.0375526
-0.0330082
-0.0358666
-0.0212914
-0.0242032
-0.0664193
-0.0397086
-0.0463526
-0.0358963
-0.0340194
-0.0249072
-0.0259101
-0.0542413
-0.0488818
-0.0539169
-0.0331822
-0.0313128
-0.0259802
-0.0252931
-0.0569221
-0.0542515
-0.0470624
-0.0308957
-0.0295308
-0.024958
-0.0234749
-0.0535812
-0.0434288
-0.0337465
-0.0288927
-0.0262672
-0.0229754
-0.0215553
-0.0433399
-0.049702
-0.0393803
-0.0312356
-0.0205617
-0.0303811
-0.0190324
-0.024961
-0.0336285
-0.0200165
-0.0185075
-0.0178715
-0.0166477
-0.0132713
-0.0278888
-0.0191203
-0.0240758
-0.0180363
-0.0182265
-0.0131862
-0.0144675
-0.0351338
-0.0272844
-0.0347806
-0.0184806
-0.017664
-0.0149169
-0.0150649
-0.030577
-0.0353049
-0.0324979
-0.0167296
-0.0136355
-0.0148025
-0.0137806
-0.0210393
-0.0314598
-0.0310528
-0.0127122
-0.0106117
-0.0135143
-0.0129106
-0.0210697
-0.0315475
-0.0329744
-0.0101354
-0.00939111
-0.0127446
-0.0122321
-0.0236986
-0.0331568
-0.0324561
-0.0093208
-0.009282
-0.0120602
-0.0116438
-0.0303796
-0.0550777
-0.0432712
-0.0264974
-0.0172866
-0.0310972
-0.0206914
-0.0182795
-0.0370201
-0.0233144
-0.0154889
-0.0125774
-0.0186837
-0.0156167
-0.0225635
-0.0220552
-0.0251924
-0.0125236
-0.0139643
-0.0153562
-0.0160615
-0.0219008
-0.0287365
-0.0246514
-0.0208693
-0.0277507
-0.0224836
-0.0202413
-0.026082
-0.0345549
-0.0345648
-0.025079
-0.0351917
-0.0249675
-0.0256861
-0.033198
-0.0366031
-0.0336428
-0.0146031
-0.0138857
-0.0165922
-0.0136231
-0.0334757
-0.0319999
-0.0268312
-0.0135754
-0.0125558
-0.0127418
-0.0107803
-0.0306239
-0.0253296
-0.0216914
-0.0122401
-0.0114874
-0.0103682
-0.00972031
-0.0421965
-0.0330258
-0.0238392
-0.0288335
-0.0209515
-0.0183325
-0.0130929
-0.0287674
-0.0223182
-0.0225135
-0.019237
-0.0167767
-0.012697
-0.0135974
-0.0302931
-0.0238737
-0.029324
-0.0166326
-0.0173416
-0.0142505
-0.0159963
-0.0295879
-0.0344035
-0.0358673
-0.025685
-0.0374797
-0.0279821
-0.0280852
-0.0308044
-0.0388174
-0.0399196
-0.0344096
-0.0393704
-0.0346703
-0.0315806
-0.0309889
-0.0259973
-0.022441
-0.0157838
-0.0127996
-0.0120585
-0.0103627
-0.0240987
-0.0216417
-0.0196968
-0.0119536
-0.0102015
-0.00998487
-0.00945673
-0.0201136
-0.0189817
-0.0163662
-0.00987943
-0.00954363
-0.00948479
-0.0101104
-0.0164997
-0.027329
-0.0122172
-0.0134732
-0.00985559
-0.0143683
-0.00748153
-0.0161521
-0.00979685
-0.00879984
-0.0098778
-0.0113169
-0.00717239
-0.00752831
-0.0232017
-0.00945884
-0.0124896
-0.012072
-0.0139584
-0.0078902
-0.00907318
-0.0263639
-0.0133686
-0.0151699
-0.0142298
-0.0137364
-0.0092622
-0.00933051
-0.0234279
-0.0158117
-0.0165844
-0.0132737
-0.0116704
-0.00939068
-0.0093689
-0.0208906
-0.0165503
-0.0151628
-0.0111777
-0.0100432
-0.00935264
-0.00935177
-0.0185532
-0.0147508
-0.0130187
-0.00980473
-0.00958995
-0.00946014
-0.0100179
-0.0151462
-0.0126782
-0.0124157
-0.00969905
-0.0105061
-0.0103697
-0.0115567
-0.0148982
-0.0187607
-0.0128323
-0.0122475
-0.00916664
-0.0105967
-0.00839132
-0.0119239
-0.0112052
-0.00936284
-0.00901023
-0.00911742