/*--------------------------------*- C++ -*----------------------------------*\
  =========                 |
  \\      /  F ield         | OpenFOAM: The Open Source CFD Toolbox
   \\    /   O peration     | Website:  https://openfoam.org
    \\  /    A nd           | Version:  10
     \\/     M anipulation  |
\*---------------------------------------------------------------------------*/
FoamFile
{
    format      ascii;
    class       volVectorField;
    location    "5.2";
    object      U;
}
// * * * * * * * * * * * * * * * * * * * * * * * * * * * * * * * * * * * * * //

dimensions      [0 1 -1 0 0 0 0];

internalField   nonuniform List<vector> 
12920
(
(200.24 -83.8717 262.761)
(24.4301 49.3699 22.1006)
(139.375 10.354 0.282296)
(78.6827 9.29518 2.67294)
(141.719 0.0858497 -0.487132)
(127.121 -7.27862 0.259919)
(156.986 -7.13248 0.120747)
(152.728 -11.567 0.275974)
(168.186 -9.10236 0.531376)
(161.577 -8.82127 1.11769)
(158.151 7.17415 2.44703)
(128.048 12.657 1.06692)
(123.303 11.9978 -1.06338)
(113.969 8.22009 -1.60988)
(116.764 6.10404 -1.35556)
(115.406 3.54552 -1.14168)
(118.554 1.55409 -0.772275)
(120.891 -0.589417 -0.202904)
(123.955 -2.42216 0.361976)
(126.302 -2.55701 0.456442)
(-23.6333 117.159 197.636)
(-103.225 -89.4872 6.92405)
(77.5321 -39.4437 7.20063)
(-28.393 -33.0377 1.89636)
(102.118 -29.6997 -1.67353)
(18.0116 -20.4499 0.151312)
(91.2712 -14.3453 -2.63514)
(48.1147 -9.22216 -2.58896)
(91.8585 -0.681252 -3.62532)
(72.8261 4.85113 -3.36432)
(97.906 10.0163 -2.29686)
(91.7684 9.81091 -0.987166)
(103.36 6.22859 0.132824)
(99.6219 2.91938 0.525885)
(104.01 -0.575768 0.977486)
(101.982 -2.13868 1.00452)
(103.22 -3.94805 1.1305)
(101.952 -4.5764 0.985421)
(102.65 -5.11807 0.881696)
(101.94 -4.60949 0.576354)
(275.369 17.0641 -48.5589)
(-28.6545 -120.481 -10.9462)
(160.361 -66.3399 -11.977)
(25.965 -38.3849 2.29968)
(116.433 -26.9205 -1.08689)
(44.5982 -8.93992 -0.175977)
(97.0437 -8.88689 -0.796898)
(58.915 0.592496 -0.77995)
(90.5308 -0.804473 -0.501676)
(72.2168 5.97129 -0.299765)
(91.4305 6.77822 0.230752)
(83.978 9.19597 0.517302)
(93.7568 4.81541 0.85199)
(88.8784 3.07585 0.733126)
(92.7175 -0.610368 0.752411)
(89.8708 -1.88831 0.569338)
(91.502 -3.69383 0.442594)
(90.9357 -4.30289 0.297776)
(93.0505 -5.59953 0.257025)
(94.186 -5.58961 0.200467)
(354.456 -93.1907 -213.428)
(131.918 -53.7926 -23.9902)
(191.903 -21.2809 0.884258)
(58.4362 -12.3066 2.457)
(106.533 -21.2114 2.07296)
(16.3569 -2.48036 0.922224)
(87.0848 -15.0112 -0.473788)
(35.2369 -0.443647 0.455588)
(81.0394 -6.16141 -0.342474)
(55.7096 2.51329 0.301479)
(80.6794 -1.62516 0.250293)
(70.4147 1.41737 0.398361)
(83.24 -2.64299 0.286813)
(78.7001 -2.15073 0.163882)
(84.6288 -4.83471 0.0573876)
(83.5822 -5.09345 0.0253588)
(86.517 -6.98421 0.0798806)
(87.5917 -6.97511 0.0933249)
(90.7953 -8.32091 0.169878)
(92.6805 -7.58056 0.175305)
(150.263 -160.526 142.771)
(18.7107 -35.656 8.91513)
(140.208 1.10002 1.92014)
(53.7352 7.37133 0.175762)
(111.624 1.31338 2.81475)
(60.1038 -5.70732 0.795144)
(98.8637 -19.1331 0.939526)
(71.9932 -4.11196 0.270181)
(95.681 -14.2441 0.0743474)
(79.3598 0.801896 -0.0231813)
(93.9276 -6.11402 0.0137643)
(85.6043 2.03823 -0.0345272)
(93.1375 -3.3207 0.00854139)
(88.5921 -0.500396 -0.0754597)
(91.8124 -4.57397 0.0188598)
(89.4292 -4.71425 0.0155209)
(90.8698 -7.65033 0.0755566)
(90.98 -8.0239 0.0704526)
(93.5048 -9.7545 0.12102)
(94.647 -8.94185 0.106264)
(60.7711 15.244 22.2919)
(-71.7886 -22.9943 -22.2984)
(124.299 24.3633 -12.2718)
(-21.7007 0.0526842 -2.03348)
(111.008 -15.3535 -3.76987)
(17.7705 -0.356507 1.77608)
(102.085 -26.9098 0.266642)
(63.3176 -4.56342 1.91532)
(94.3175 -11.7841 0.557925)
(78.9408 0.417013 0.52852)
(91.7544 -5.99308 0.122196)
(85.4409 -0.144901 0.111031)
(91.2258 -4.41096 0.0885088)
(88.283 -1.71678 0.0671184)
(89.9084 -5.17715 0.220718)
(88.6764 -5.28997 0.171897)
(89.9749 -8.55526 0.148702)
(91.2254 -9.05784 0.0914328)
(94.0821 -10.9071 0.0988801)
(95.4517 -9.72758 0.0976422)
(29.885 154.86 -63.0767)
(-98.3647 33.43 -21.2328)
(139.764 43.3157 -20.3575)
(96.8488 21.95 -7.55862)
(160.403 -13.2807 -1.60856)
(129.572 -22.6131 2.94961)
(133.131 -59.2008 3.82955)
(106.313 -18.451 3.49374)
(115.973 -29.7117 1.57499)
(104.33 -3.28365 0.902178)
(107.788 -11.7229 0.364738)
(98.1525 0.643424 0.3818)
(97.783 -6.0451 0.617645)
(91.0132 -0.461199 0.576273)
(91.4929 -5.3827 0.770341)
(91.7575 -6.11647 0.319804)
(94.2415 -10.5224 0.170191)
(96.4182 -11.3608 0.0566428)
(99.553 -13.0009 0.037282)
(100.952 -11.2769 0.113043)
(174.782 -128.736 -18.536)
(86.3544 -26.8386 -8.60906)
(170.367 17.3921 -13.0914)
(174.928 9.05767 -9.6803)
(217.626 -14.6743 0.261388)
(185.413 0.793064 5.29921)
(183.061 -19.932 3.39158)
(115.108 -32.1001 1.57198)
(114.193 -17.2337 0.733808)
(100.54 -15.7269 1.36758)
(103.533 -2.78317 0.502138)
(89.8109 -3.50098 0.683796)
(88.8112 -0.942321 0.0202364)
(83.3456 -4.11941 -0.225218)
(89.6908 -9.8784 -0.0759266)
(95.0924 -10.3051 -0.0961583)
(97.5366 -14.1312 0.0664337)
(99.7243 -13.7133 0.0827983)
(101.825 -14.3577 0.0974673)
(103.258 -12.3666 0.146231)
(-4.00715 -36.7022 -219.29)
(-102.514 -15.2224 -59.2172)
(140.127 -3.01025 -33.4883)
(115.669 -19.1098 -13.257)
(163.267 -30.8558 5.56369)
(133.936 -32.1012 0.343049)
(153.778 -10.7397 2.441)
(125.038 -15.8022 0.389251)
(123.401 -15.4191 -0.396356)
(108.624 -11.7723 -0.0069967)
(103.475 -1.03706 0.389031)
(94.3742 0.122384 0.269742)
(88.4492 1.11911 -0.181737)
(88.1691 -4.01136 -0.375499)
(97.9878 -15.8627 -0.0819355)
(101.144 -14.2114 0.132402)
(99.717 -15.1979 0.0233456)
(100.233 -15.0711 0.0998881)
(101.39 -15.7233 0.0966698)
(102.73 -14.0138 0.0660982)
(58.6231 -89.5099 -23.7691)
(39.2944 -27.2479 -32.2754)
(160.426 -23.2121 -20.4085)
(94.5093 -9.5059 -5.19492)
(103.024 -36.3347 12.4388)
(20.6682 -35.8006 0.214268)
(62.4357 -29.614 0.909048)
(87.6386 -9.08332 0.231445)
(104.78 2.01 -0.550891)
(108.949 4.75068 -0.539459)
(107.637 5.69321 -0.11519)
(92.584 9.2893 0.438294)
(90.3917 4.85112 -0.0315169)
(98.3103 -5.36193 0.118171)
(101.714 -16.5645 0.269922)
(97.5436 -13.1847 -0.000611479)
(95.5448 -13.8084 -0.0779388)
(96.0189 -14.4541 -0.0973577)
(97.4038 -15.9012 -0.107528)
(98.9869 -14.2408 -0.137881)
(101.994 46.6824 -94.1497)
(61.9238 32.0909 -71.8098)
(191.953 59.78 -36.5671)
(157.559 40.6385 -11.1376)
(182.438 -8.73894 3.81097)
(100.645 -54.0071 1.55297)
(88.5072 -42.9974 1.14882)
(89.103 -19.719 -0.814795)
(91.3598 -5.02812 -0.0644402)
(99.8831 4.54894 -0.10254)
(103.68 10.8315 -0.0300721)
(100.341 11.1017 0.232704)
(101.661 0.194078 -0.0785262)
(104.453 -8.50263 -0.219071)
(98.2661 -12.7021 0.195456)
(93.3463 -11.7292 -0.171821)
(93.0995 -13.4362 -0.303406)
(95.0997 -15.0612 -0.353814)
(97.2496 -16.4589 -0.199952)
(99.0458 -14.7764 -0.101537)
(176.976 -68.2305 -18.6654)
(65.447 64.9876 2.76903)
(178.387 82.3605 5.84072)
(140.169 44.1893 5.37745)
(170.324 -8.00286 11.0859)
(81.0474 -40.8024 2.09611)
(95.6159 -41.5949 1.78659)
(88.8837 -19.0638 0.217951)
(93.2895 -13.6654 0.0835785)
(99.1175 -0.148983 0.0550868)
(100.308 6.26002 0.203292)
(103.388 7.15219 0.0399199)
(109.198 0.825575 -0.265179)
(107.364 -4.93861 0.0237672)
(97.6548 -8.7716 0.0861524)
(97.068 -11.5234 -0.405848)
(96.7435 -13.7436 -0.520993)
(98.9788 -15.3691 -0.463386)
(101.156 -17.3627 -0.121353)
(101.803 -15.4198 0.00198896)
(158.877 158.702 6.44602)
(84.5735 50.5075 -0.636657)
(171.389 54.9164 0.953863)
(126.436 6.69804 5.13099)
(162.298 4.47727 6.51368)
(90.948 -43.9728 2.58399)
(109.363 -16.0281 -0.0136353)
(64.5968 -17.5511 0.147865)
(86.453 -11.7468 -0.0455157)
(78.4054 -4.4448 -0.0237806)
(96.2468 0.885438 0.0247677)
(96.2383 0.283949 0.335579)
(101.217 -1.10807 0.442751)
(99.513 -4.35032 0.234777)
(100.245 -8.60431 -0.265845)
(100.858 -9.64593 -0.670798)
(102.576 -12.7671 -0.831297)
(104.488 -15.5407 -0.44544)
(105.951 -17.2655 -0.0308211)
(105.367 -15.2123 -0.0659766)
(171.375 -172.058 38.2631)
(-48.3229 45.8318 5.19154)
(200.599 37.231 -2.20626)
(41.0855 -6.31699 6.97317)
(148.682 -7.20026 5.0243)
(61.0115 -32.9358 2.29858)
(107.489 17.6497 2.66395)
(73.3815 -32.0504 1.04896)
(93.7536 -6.91805 1.68646)
(85.2703 -20.5515 1.19035)
(96.6101 -8.16657 1.03412)
(95.4676 -11.848 0.661117)
(101.813 -6.97847 0.252437)
(102.067 -9.32939 -0.0378399)
(104.655 -8.37081 -0.419602)
(106.162 -10.1694 -0.885466)
(109.026 -12.8971 -0.977158)
(109.396 -15.4308 -0.390216)
(109.829 -16.7451 0.1742)
(107.246 -14.1782 -0.108463)
(-71.0799 -72.6635 76.2114)
(-106.941 47.2128 -18.7633)
(149.439 6.90743 -15.2054)
(58.5196 -11.5073 -1.00667)
(140.708 -20.5469 -0.769127)
(88.0361 -31.0185 -2.06549)
(132.763 -19.8551 0.98652)
(115.587 -29.3402 -0.420631)
(127.858 -20.9094 1.63936)
(120.446 -22.1486 1.33716)
(122.606 -14.8394 1.44317)
(118.422 -13.96 0.706754)
(118.502 -10.4773 0.320865)
(116.712 -10.579 -0.177436)
(116.589 -9.32578 -0.444499)
(116.126 -9.38777 -0.929039)
(116.445 -11.0168 -0.965401)
(115.291 -13.5836 -0.366406)
(113.88 -14.8512 0.50631)
(107.863 -11.4566 0.0944656)
(59.1778 -90.4616 110.704)
(-50.315 -45.0201 1.12982)
(151.607 11.7993 -5.19862)
(45.7313 -9.84826 -2.99028)
(142.819 -11.0697 -5.76152)
(87.7677 -19.6469 -5.77737)
(135 -13.4907 -5.86453)
(115.104 -25.5743 -4.52762)
(135.079 -20.6373 -1.30216)
(124.149 -23.1866 -0.0380328)
(131.188 -14.2562 0.92587)
(125.288 -11.8942 0.802926)
(127.582 -6.78277 0.742383)
(124.685 -6.28161 0.392053)
(125.349 -4.77816 0.160979)
(124.103 -5.11271 -0.262401)
(124.301 -7.3656 -0.2108)
(119.997 -10.3992 0.184251)
(115.955 -11.3001 1.00226)
(108.051 -7.79498 0.403059)
(136.145 50.6375 -141.038)
(40.5902 -16.8762 0.267634)
(184.548 11.0025 -7.92202)
(123.358 -1.78133 -7.52518)
(180.175 -4.40505 -7.03481)
(156.99 -6.85977 -7.55079)
(180.104 -10.5975 -5.04137)
(162.956 -14.6915 -3.66449)
(163.547 -20.8238 0.515669)
(145.071 -22.4926 1.09294)
(142.662 -19.094 1.12639)
(134.775 -16.1976 0.628189)
(135.943 -12.7556 0.613582)
(133.683 -10.8336 0.508039)
(134.828 -8.47642 0.615236)
(134.244 -6.83971 0.560133)
(133.628 -5.82563 0.216561)
(129.665 -5.79852 0.457627)
(122.631 -7.43219 1.34413)
(110.613 -5.54439 0.656564)
(102.579 20.8987 -16.2865)
(7.8001 -49.1829 2.20371)
(191.534 -6.22516 -4.44538)
(147.448 -2.40524 -3.99762)
(204.874 8.4705 -3.94095)
(186.166 7.59091 -3.53762)
(200.382 9.13675 0.227308)
(176.93 2.36835 1.75447)
(174.875 -5.34872 3.23313)
(152.911 -10.5024 1.85595)
(150.098 -9.56714 1.00692)
(140.236 -10.2512 0.237186)
(140.23 -8.60447 0.105639)
(136.381 -8.48818 -0.0487804)
(136.81 -7.57635 -0.0651632)
(136.1 -6.73754 -0.265089)
(137.595 -4.19699 -0.271242)
(136.466 -2.0586 -0.259589)
(134.556 0.625705 0.719366)
(122.588 0.336347 0.643252)
(57.8234 -64.5379 -28.2146)
(21.0306 -100.758 -86.4126)
(222.989 -51.1834 -42.4459)
(151.836 -19.7682 -13.6376)
(196.847 -3.21517 -1.33857)
(164.025 5.46984 2.51728)
(177.487 2.23558 6.32086)
(148.176 -4.57196 5.17944)
(152.627 -8.84466 3.0286)
(138.044 -9.73853 1.05494)
(141.428 -9.37933 0.623182)
(134.09 -9.07637 0.48855)
(134.481 -8.17045 0.725654)
(129.514 -7.69104 0.780263)
(128.495 -6.67044 0.575549)
(125.223 -6.47417 0.31994)
(123.762 -4.50354 0.174658)
(120.587 -1.23406 0.343491)
(120.332 2.85678 -0.06966)
(119.334 2.94658 -0.495586)
(250.946 15.1876 25.7697)
(279.947 123.54 -7.48682)
(339.183 105.079 13.2465)
(293.46 70.0266 15.4201)
(268.129 4.44071 22.127)
(183.806 -7.73117 13.2099)
(182.113 -9.19293 6.26471)
(152.951 -7.67423 1.38194)
(158.601 -7.25052 -0.955204)
(147.046 -7.00632 -2.1411)
(150.609 -6.69709 -2.15417)
(143.787 -6.90954 -2.14885)
(143.509 -6.37567 -1.48011)
(137.238 -6.44553 -1.23297)
(134.274 -4.77954 -0.231482)
(127.427 -3.08061 -0.218799)
(124.855 0.264648 -0.411431)
(124.069 1.74915 -0.328315)
(126.298 4.50023 -0.0920071)
(133.99 4.12836 0.0897684)
(235.103 -4.88561 -113.984)
(37.3031 21.7425 8.34002)
(134.2 9.1877 -2.71421)
(76.5913 9.11448 -1.10839)
(133.957 2.16695 -1.58085)
(113.939 -3.34966 0.969833)
(142.88 -1.52 1.25708)
(134.917 -5.46179 1.38705)
(150.134 -1.6946 1.81253)
(139.646 0.036239 3.01064)
(137.229 13.2139 5.17597)
(115.472 13.0739 2.79728)
(113.347 7.2212 0.141651)
(103.268 2.54308 -1.00886)
(106.167 0.282424 -0.87453)
(104.585 -1.4437 -0.587007)
(107.22 -2.65376 -0.114161)
(109.39 -3.35776 0.335549)
(113.208 -3.86077 0.972003)
(116.824 -3.20716 1.06761)
(-71.812 -7.78733 -36.2211)
(-161.03 -42.2687 -17.1015)
(56.3387 -29.4241 -1.80391)
(-20.2308 -24.3738 1.85033)
(91.3925 -24.5327 -3.33907)
(20.1114 -15.7098 -0.270029)
(87.1607 -11.2609 -5.63053)
(47.5002 -6.65739 -5.0951)
(87.8893 -0.426641 -7.38522)
(66.6198 3.68629 -6.58238)
(88.7433 6.92057 -3.34683)
(79.7845 5.13522 -0.78355)
(90.9784 1.42692 0.562605)
(85.7987 -0.974457 0.701595)
(90.8295 -3.11146 1.23984)
(88.8016 -3.57731 1.10905)
(90.8828 -4.17237 1.25911)
(90.3876 -4.14417 1.02363)
(92.2503 -4.19736 0.907443)
(92.7073 -3.46165 0.566291)
(211.904 1.24062 153.07)
(-22.73 -83.1794 41.1121)
(114.649 -49.643 -0.752401)
(10.844 -28.6756 5.89856)
(100.491 -21.5276 -1.68886)
(31.0812 -7.15269 -0.130687)
(87.3157 -8.65064 -1.85958)
(47.3481 0.446025 -1.41427)
(81.8736 -1.96767 -1.16606)
(61.1273 4.56905 -0.611105)
(81.8576 4.20474 0.453916)
(72.5642 6.26906 0.830569)
(83.2215 2.08412 1.30215)
(77.8316 1.35174 0.98747)
(82.534 -1.34574 1.01468)
(80.0072 -1.75733 0.698882)
(82.1538 -3.08217 0.593368)
(81.7548 -3.22709 0.402597)
(83.9707 -4.07024 0.368805)
(85.1595 -3.78691 0.28048)
(213.195 -48.6601 -86.005)
(80.2717 -28.3685 13.2694)
(138.052 -6.97289 7.64398)
(25.0692 -6.95775 3.25413)
(91.7051 -16.9577 2.49878)
(9.76211 -3.38769 1.58324)
(78.3076 -16.2439 -0.937659)
(28.6532 -2.32794 1.10364)
(74.0785 -8.43736 -0.72144)
(47.9148 0.743946 0.501574)
(73.6458 -3.35018 0.293696)
(62.2522 0.476995 0.605126)
(75.3786 -3.25763 0.368444)
(70.0964 -2.01918 0.194076)
(76.0438 -4.4772 0.107285)
(74.7069 -4.11124 0.0846718)
(77.6924 -5.54239 0.178151)
(78.3862 -5.07692 0.206849)
(81.2699 -5.81571 0.252845)
(82.8725 -4.91362 0.292859)
(21.4057 -59.1205 117.255)
(-81.6663 15.5588 -20.113)
(113.697 22.8242 -21.9399)
(8.49341 10.4239 -3.28609)
(95.7413 -1.20815 0.872145)
(39.0035 -5.5131 1.44951)
(87.8371 -20.7558 1.68625)
(57.4092 -3.6873 1.1582)
(84.5068 -15.2685 0.407712)
(65.6475 1.07558 0.328766)
(81.6819 -6.98867 0.162995)
(71.6992 2.03691 0.0446826)
(80.1787 -4.04938 0.0805335)
(75.1701 -0.603426 -0.0439964)
(79.3386 -4.87992 0.0882307)
(77.6765 -4.19337 0.0567561)
(79.84 -6.46149 0.147175)
(80.1097 -5.95147 0.185518)
(82.5697 -6.87539 0.233248)
(83.6208 -5.72541 0.235395)
(76.1195 44.886 -84.6439)
(-67.4827 -15.7822 -41.1997)
(95.6886 19.7435 -18.3651)
(-17.0263 -1.42286 -5.06069)
(94.5885 -15.3419 -7.28864)
(6.80037 -2.37352 3.70984)
(91.1301 -29.6428 -0.361903)
(50.9277 -5.67942 3.87606)
(82.8549 -14.7006 0.976462)
(64.9765 -0.587774 1.09611)
(78.6954 -7.82876 0.32066)
(70.9767 -0.549895 0.285457)
(77.7303 -5.63623 0.242189)
(74.6964 -2.63936 0.150471)
(77.471 -6.49077 0.334697)
(77.4614 -5.62295 0.198956)
(79.3997 -7.81613 0.214425)
(80.6239 -7.0762 0.190371)
(83.0687 -7.79594 0.235983)
(84.122 -6.3044 0.249862)
(89.9885 16.8564 36.5228)
(-41.0705 -3.99389 -53.1166)
(122.19 17.7582 -37.1756)
(62.0932 6.44695 -11.5432)
(125.035 -21.8413 -4.33293)
(87.4389 -20.4358 4.07488)
(103.994 -56.7484 4.42279)
(81.2629 -7.61518 5.61597)
(95.7521 -25.9165 2.33833)
(81.9127 1.40561 1.60781)
(87.4259 -11.3671 0.907933)
(78.5849 1.79763 0.921037)
(81.5807 -7.06603 1.04399)
(78.0222 -1.19128 0.821848)
(81.145 -6.77246 0.979341)
(82.164 -6.50377 0.400494)
(84.3031 -9.33087 0.289581)
(85.5326 -8.6539 0.224393)
(87.8663 -9.06833 0.227088)
(88.5484 -7.12939 0.316046)
(162.019 -150.656 -84.7047)
(25.1019 -66.5112 9.01988)
(130.438 -18.6377 -3.14756)
(94.2391 -14.7955 -2.54751)
(143.195 -18.5251 6.775)
(106.468 7.59254 8.77218)
(127.379 -12.0598 9.65971)
(88.2203 -23.2277 11.6685)
(94.5082 -12.827 2.70021)
(80.2246 -9.17749 1.26867)
(85.2394 -4.54722 1.25186)
(76.5672 -4.3443 0.901791)
(79.4767 -5.45529 0.548946)
(77.1997 -6.89122 -0.0579404)
(82.9039 -10.3969 -0.244381)
(85.63 -9.34927 -0.160644)
(87.5412 -11.3856 0.124257)
(89.0598 -10.0845 0.257275)
(90.9695 -9.83456 0.244184)
(91.7635 -7.46698 0.33437)
(237.862 -65.8461 -63.1902)
(-34.7514 -36.1657 -32.1948)
(108.413 -26.0901 -15.99)
(-1.33581 -33.6119 -3.48711)
(109.318 -39.378 14.5739)
(96.5374 -29.5575 2.96077)
(130.57 -10.3211 7.21983)
(113.239 -15.3732 4.71335)
(99.2675 -10.178 1.1542)
(85.7853 -6.27679 -0.581346)
(83.3047 -1.18174 0.812185)
(79.1256 -2.06147 1.29743)
(80.8091 -3.56698 0.165009)
(82.9594 -8.14563 -0.496031)
(89.8851 -16.104 -0.0189819)
(90.8942 -12.3123 -0.00122311)
(89.6793 -12.6693 -0.0261378)
(90.4138 -11.4768 0.192104)
(91.8806 -10.7634 0.160479)
(92.8136 -8.17752 0.186434)
(152.935 -114.811 -1.2227)
(-10.0951 -62.6039 -28.5321)
(100.37 -74.1916 -18.4827)
(-13.6736 -52.3065 -5.76486)
(83.225 -56.3472 14.3082)
(29.4634 -37.3335 2.66859)
(72.7101 -25.9339 2.94055)
(87.8537 -9.8066 -0.418392)
(91.7417 0.141387 -1.53396)
(89.0082 2.16335 -1.39143)
(84.8992 3.17346 0.648565)
(83.3826 1.89772 0.641001)
(86.8756 -3.4951 -0.403991)
(91.9869 -9.89348 -0.0189109)
(93.1576 -14.6474 0.462901)
(89.0232 -11.3609 -0.0549847)
(87.2066 -11.906 -0.0836651)
(87.4554 -11.221 -0.0370728)
(88.6771 -11.0057 -0.170616)
(90.1294 -8.49045 -0.120537)
(374.197 -139.044 56.3509)
(235.987 -60.2165 -13.8705)
(218.747 -4.16162 -41.8929)
(129.481 -24.1794 -11.3894)
(144.333 -38.5449 11.7001)
(108.958 -50.2742 5.32554)
(100.001 -47.0162 5.48104)
(86.6768 -17.0573 1.62346)
(87.0108 -3.91203 0.0953335)
(89.8913 1.33105 0.411719)
(90.3288 3.98145 0.984479)
(93.1889 1.12814 0.544619)
(95.0274 -5.92951 -0.804148)
(94.0913 -10.7183 -0.261228)
(88.5767 -11.8717 0.49353)
(85.423 -10.9427 -0.554219)
(84.7925 -11.8457 -0.509435)
(85.6816 -11.9078 -0.359971)
(87.2758 -11.8202 -0.175753)
(88.9177 -9.37641 -0.0125112)
(50.6177 -7.03729 86.5257)
(-47.8643 3.77953 -57.0128)
(132.035 1.57033 -9.19769)
(73.6042 -17.7493 4.10773)
(121.315 -23.7307 17.1044)
(74.7742 -38.7328 10.3276)
(97.0939 -42.0901 6.85766)
(82.7666 -15.7467 1.69026)
(85.6019 -7.67126 0.338017)
(87.6712 0.202282 0.275025)
(90.3293 1.64476 0.51842)
(93.0038 -0.688029 0.0433374)
(93.5058 -5.61741 -0.131313)
(91.0334 -8.63152 0.38713)
(87.4713 -9.98875 0.230176)
(86.7461 -11.1433 -0.961871)
(85.6302 -12.4401 -0.766256)
(86.5733 -12.5974 -0.444131)
(88.2642 -12.8346 -0.0100277)
(89.2791 -9.93879 0.122219)
(161.88 149.858 97.2392)
(107.349 98.5631 -16.6983)
(174.058 36.054 15.4078)
(79.6621 -14.8804 11.304)
(139.223 -1.06317 12.5197)
(61.535 -51.2692 4.83169)
(90.8571 -13.3392 3.86359)
(56.0794 -16.9726 1.28189)
(78.1811 -8.77616 0.105226)
(71.0737 -6.22615 0.225681)
(85.9257 -3.62693 0.584079)
(84.6351 -5.02521 1.01802)
(89.846 -6.10378 0.80679)
(88.5607 -7.8324 0.327577)
(88.8594 -9.51022 -0.861761)
(88.9949 -10.5583 -1.07598)
(88.7672 -12.356 -0.926746)
(89.3407 -13.3717 -0.359595)
(90.7902 -13.2575 0.134132)
(90.8235 -10.1349 0.0507515)
(96.9251 -10.1393 142.39)
(-39.0112 62.0383 -9.87963)
(163.49 31.3666 -9.86037)
(-4.49881 -5.43501 7.88049)
(141.085 -2.95727 2.78918)
(39.0632 -28.8464 3.92206)
(98.055 19.8097 3.00996)
(59.5005 -33.8517 1.10111)
(85.1161 -6.68735 2.31735)
(76.0392 -21.5095 1.70694)
(88.323 -9.22737 1.50297)
(86.3162 -13.4451 0.914278)
(91.7689 -8.46087 0.33686)
(90.8127 -10.6349 -0.168225)
(92.4531 -9.88535 -0.68246)
(92.2386 -11.4405 -1.06693)
(92.6726 -13.1106 -0.987509)
(91.8264 -13.8033 -0.197903)
(93.005 -13.1794 0.392698)
(91.756 -9.57257 -0.108584)
(-41.3927 -89.1974 97.5294)
(-57.3471 50.4453 -51.1557)
(119.528 13.7682 -26.4579)
(10.8356 -10.0613 -3.10108)
(126.581 -16.169 -3.78705)
(49.7162 -26.8872 -2.25481)
(115.49 -11.1172 2.20889)
(88.2574 -25.2802 -0.543951)
(107.613 -15.3386 2.57878)
(99.5741 -19.0646 1.59862)
(105.313 -12.3356 1.96223)
(101.624 -13.1146 0.858524)
(102.75 -10.0784 0.408759)
(100.78 -10.8043 -0.344696)
(100.544 -9.99427 -0.67186)
(99.0691 -10.8952 -1.21954)
(97.6498 -12.4768 -0.883281)
(95.5213 -13.025 -0.119451)
(95.5108 -11.9019 0.790357)
(92.6935 -8.07611 0.0843947)
(-40.2262 -16.2298 -18.6771)
(-69.4855 -47.1075 -27.1221)
(127.462 12.7473 -21.6905)
(25.8482 -15.2837 -7.36801)
(129.724 -16.8437 -9.71955)
(61.5262 -25.4967 -6.53151)
(117.368 -16.8932 -6.05973)
(86.1845 -27.6979 -4.12208)
(112.654 -17.7437 -0.396049)
(100.693 -20.0829 0.392957)
(112.14 -11.3524 1.43328)
(106.789 -11.2188 1.00709)
(110.566 -7.33868 0.92676)
(107.331 -8.0781 0.337917)
(107.798 -7.37246 -0.00135214)
(105.336 -8.70513 -0.483816)
(103.535 -10.259 -0.133043)
(98.8119 -11.2496 0.50317)
(97.4721 -9.218 1.3356)
(93.874 -5.72977 0.505696)
(32.3687 -49.8972 -61.9183)
(32.1157 -50.0409 -19.7451)
(171.803 -4.68463 -12.6095)
(97.7787 -20.1446 -8.19491)
(155.434 -22.5837 -6.6684)
(111.43 -26.9571 -7.90865)
(139.874 -29.3644 -3.31345)
(116.131 -30.3815 -2.86434)
(128.787 -27.177 1.55465)
(116.653 -22.7098 1.31927)
(121.992 -16.4399 1.59132)
(116.169 -12.9907 0.887873)
(118.379 -9.44327 0.878043)
(115.598 -8.24821 0.579255)
(115.897 -6.6858 0.54185)
(114.128 -6.41906 0.395122)
(111.802 -6.34202 0.375679)
(105.207 -6.4287 1.05437)
(101.671 -5.69179 1.92574)
(96.134 -3.65356 0.874218)
(112.745 42.2603 54.0098)
(37.7454 -35.2681 -1.87521)
(177.795 -12.7781 -14.1613)
(109.394 -18.9672 -6.81167)
(171.581 -10.7174 -4.84833)
(133.092 -19.3122 -4.02601)
(156.859 -17.3147 1.83084)
(130.849 -21.4593 2.06819)
(140.402 -16.5521 3.53962)
(124.52 -15.003 1.69279)
(127.978 -10.073 1.22933)
(119.642 -8.94332 0.236087)
(121.18 -6.27593 0.192581)
(117.084 -5.89998 -0.136448)
(117.485 -4.51193 -0.22035)
(115.378 -4.13996 -0.415145)
(114.477 -2.21214 -0.243212)
(110.077 -1.4695 0.0814019)
(107.878 0.592157 1.34189)
(102.247 0.410328 0.891597)
(304.925 -9.33389 138.773)
(159.237 -51.7163 -66.0949)
(224.938 -46.4426 -43.5518)
(116.952 -39.0243 -11.8313)
(174.415 -26.8954 3.4311)
(129.992 -20.1182 7.03796)
(156.407 -18.5773 10.6199)
(129.47 -16.6045 6.4408)
(139.36 -14.416 3.61085)
(123.557 -11.4345 0.843996)
(127.149 -8.93858 0.637149)
(118.168 -7.34411 0.303465)
(118.898 -5.67506 0.63374)
(113.542 -4.89343 0.456452)
(112.874 -3.79781 0.249394)
(109.337 -3.54192 -0.103228)
(107.689 -1.33932 -0.0244063)
(104.866 0.0587394 -0.0586422)
(104.865 2.58385 -0.376643)
(104.333 2.46731 -0.528776)
(361.535 16.1871 -70.0383)
(189.453 30.2587 -31.6268)
(278.413 30.9417 19.6056)
(209.101 2.72827 25.7264)
(220.686 -20.3665 28.651)
(168.941 -20.8974 15.8609)
(175.13 -15.8361 7.33032)
(145.348 -9.38187 0.691045)
(148.937 -6.16202 -1.27542)
(131.124 -4.13156 -2.59304)
(131.841 -2.32772 -2.00647)
(120.658 -1.16143 -2.06963)
(120.566 0.385271 -1.22445)
(114.723 1.23852 -1.05523)
(114.931 1.93686 -0.186036)
(112.782 2.42606 -0.0769513)
(112.664 3.36739 0.182352)
(113.287 3.85474 0.398014)
(116.486 3.41408 -0.181974)
(122.482 1.32641 -0.0499814)
(271.348 51.1852 8.73774)
(11.1827 65.2729 58.4075)
(137.565 13.0702 4.92829)
(79.7677 9.34341 4.00068)
(134.499 2.56439 -0.642133)
(111.068 0.239099 1.00803)
(136.536 6.2259 -0.160946)
(121.784 4.85719 0.163959)
(131.851 11.3569 1.63266)
(112.063 14.1922 3.1286)
(113.46 16.3047 5.23901)
(97.2651 10.6923 2.34242)
(100.073 5.0916 1.06746)
(92.7571 1.19482 -0.164002)
(96.383 -0.955173 -0.183208)
(94.9907 -1.97668 -0.00597236)
(97.9566 -2.75711 0.393689)
(100.047 -2.87773 0.643987)
(103.954 -3.08035 1.11717)
(107.964 -2.28139 1.17344)
(47.8539 -46.4257 73.588)
(-59.6237 -22.6872 -19.6547)
(63.3785 -17.6801 -9.28089)
(-10.1711 -16.2496 0.433696)
(85.7259 -19.0072 -4.88122)
(18.5922 -10.6397 -0.998648)
(84.7953 -6.4252 -7.62577)
(43.6848 -2.69972 -7.38591)
(83.3321 2.02659 -9.0735)
(58.0495 4.21245 -6.62619)
(79.6237 4.76328 -2.37363)
(68.2117 2.60823 -0.124932)
(80.2274 -0.806847 0.728533)
(74.1835 -2.14837 0.511974)
(79.8951 -3.43811 0.963007)
(77.6863 -3.28361 0.754049)
(80.3591 -3.53105 0.93082)
(80.1761 -3.20815 0.683502)
(82.4984 -3.16922 0.619697)
(83.5462 -2.35499 0.388761)
(92.539 -49.3945 -64.8028)
(-57.4085 -65.7513 14.8278)
(103.676 -32.2358 -12.7601)
(6.87118 -21.353 1.64049)
(90.6013 -16.6726 -3.60107)
(23.1604 -5.17546 -0.422386)
(79.8064 -7.32571 -2.47097)
(38.7475 1.32411 -1.69949)
(74.6507 -1.64882 -1.58644)
(51.58 4.68784 -0.5505)
(73.4331 2.72853 0.593849)
(62.357 4.6959 0.825078)
(73.9136 0.725023 1.17348)
(67.9253 0.847253 0.812136)
(73.4369 -1.45596 0.829009)
(70.929 -1.36705 0.521091)
(73.527 -2.49585 0.491318)
(73.1374 -2.35813 0.34377)
(75.4428 -2.99007 0.374526)
(76.5422 -2.52159 0.306487)
(221.857 -2.44889 -29.3217)
(74.0875 2.08642 -16.9913)
(125.441 4.9768 -0.465748)
(12.9167 -0.70391 -0.000262817)
(80.2264 -13.4186 0.287688)
(5.06732 -3.06795 1.72343)
(70.3909 -15.8131 -1.18036)
(22.5328 -2.64811 1.156)
(67.2346 -9.13659 -0.819392)
(40.5872 0.201306 0.587456)
(66.7179 -4.17913 0.148755)
(54.333 0.172517 0.586479)
(67.9311 -3.4864 0.306131)
(62.1095 -1.71068 0.14067)
(68.3701 -4.02725 0.109692)
(66.7353 -3.22584 0.0935108)
(69.8567 -4.41444 0.186277)
(70.1805 -3.72203 0.224274)
(72.8401 -4.23291 0.270774)
(74.1246 -3.23274 0.329807)
(106.736 48.8479 -8.14302)
(-11.0054 39.748 -20.3364)
(105.783 25.8409 -31.7073)
(2.59386 10.5728 -4.63454)
(83.64 -1.92011 -1.20371)
(25.2832 -4.65048 1.61309)
(78.4619 -20.7171 1.54142)
(45.6873 -2.35371 1.54473)
(75.3577 -15.4906 0.37716)
(54.7111 1.59188 0.46932)
(72.2255 -7.63456 0.160188)
(61.1597 1.9984 0.080578)
(70.6703 -4.61237 0.0989894)
(65.3454 -0.513866 -0.0251949)
(70.2048 -4.75592 0.0998658)
(68.6751 -3.35893 0.0628254)
(71.1394 -5.26574 0.156131)
(71.2385 -4.33493 0.209762)
(73.6028 -5.00925 0.254348)
(74.46 -3.70875 0.259855)
(143.466 117.157 -74.9882)
(-19.2546 -18.5922 -34.0102)
(87.3576 15.9834 -16.1671)
(-12.0646 -2.49733 -4.86439)
(79.7291 -13.1325 -6.6936)
(-1.5012 -2.38453 4.39691)
(79.6943 -29.1299 -1.09943)
(38.2384 -3.7034 4.1251)
(72.2076 -15.4007 0.682971)
(53.0664 -0.0918742 1.09041)
(68.4803 -8.69047 0.230683)
(60.1701 -0.538456 0.259224)
(67.9677 -6.2969 0.173202)
(64.8928 -2.73133 0.122854)
(68.3029 -6.55503 0.257354)
(68.5689 -4.91341 0.159064)
(70.7262 -6.50492 0.20745)
(71.6011 -5.32126 0.226648)
(73.8974 -5.70047 0.264353)
(74.7619 -4.10991 0.272639)
(343.462 -77.3217 -74.7673)
(82.8637 -41.1721 -33.9874)
(128.189 2.20352 -30.0402)
(42.9077 -2.20799 -7.96043)
(103.075 -24.6755 -2.12055)
(53.9075 -15.0227 4.503)
(81.4912 -53.9732 3.23522)
(58.8595 1.78495 5.10824)
(78.7309 -24.7657 1.9573)
(64.38 4.04205 1.59459)
(73.2885 -12.1935 0.835326)
(65.5596 2.04852 0.846058)
(70.8166 -8.03635 0.75495)
(68.3001 -1.35102 0.64947)
(72.3187 -6.89653 0.801455)
(73.2346 -5.83464 0.375254)
(75.1213 -7.70412 0.301509)
(75.7487 -6.43626 0.319322)
(77.7639 -6.50307 0.327775)
(78.1937 -4.52672 0.359035)
(88.3146 -66.4448 -175.251)
(-41.1569 -23.6605 -11.9204)
(94.4348 -12.8264 -13.0188)
(26.7539 -19.3958 -4.40638)
(102.7 -18.358 7.72974)
(51.0402 16.0724 8.54126)
(84.7201 -17.7576 9.79322)
(60.6498 -12.9681 9.82662)
(75.9468 -13.1987 2.36865)
(63.9274 -5.56492 0.992567)
(71.318 -7.35858 1.02306)
(65.9506 -4.56099 0.762018)
(71.065 -7.73176 0.21157)
(70.0359 -7.64285 0.0154338)
(74.9582 -9.74429 0.0256166)
(76.5532 -7.60802 0.0302228)
(77.7735 -8.65887 0.201655)
(78.9429 -7.08334 0.359889)
(80.6358 -6.6509 0.352058)
(81.0693 -4.36344 0.376264)
(131.98 -7.83358 -49.7305)
(-109.288 -52.8535 -28.5823)
(81.0533 -41.8446 -12.2789)
(-50.0012 -33.9063 -6.07502)
(87.7321 -36.9828 5.37122)
(56.1717 -14.0264 2.70529)
(89.1982 -4.12944 8.14912)
(78.1591 -12.8181 6.7578)
(78.837 -7.95405 1.79929)
(69.8293 -5.50685 0.476404)
(71.3472 -3.23546 0.971805)
(70.1179 -4.62582 0.818402)
(74.2436 -6.38951 -0.18701)
(76.2829 -9.62043 -0.573673)
(81.1842 -15.2645 0.0425026)
(80.6378 -9.98268 0.44737)
(79.6077 -9.86529 0.181302)
(80.4877 -8.28113 0.318336)
(81.9944 -7.20826 0.237039)
(82.6168 -4.61328 0.215033)
(161.698 47.4438 126.118)
(-15.2906 -72.1496 -9.14439)
(63.0242 -86.9237 -21.6604)
(-45.1513 -53.6712 -7.14525)
(63.6289 -47.6047 8.2308)
(17.3325 -26.2111 3.62746)
(66.9349 -14.7093 3.05323)
(77.8848 -7.38642 0.587046)
(78.9618 -1.849 -1.05515)
(75.9379 -0.616353 -0.915666)
(74.9538 -0.831631 0.328243)
(76.6867 -3.41964 -0.206712)
(80.431 -7.18979 -0.730035)
(83.6299 -10.7679 -0.130218)
(82.997 -12.6055 0.604115)
(79.6675 -9.56182 0.429233)
(78.3401 -9.55219 0.122497)
(78.8402 -8.26295 0.0935029)
(80.1182 -7.49163 -0.0706201)
(81.1912 -4.81282 -0.0304603)
(434.096 -20.3794 -176.604)
(311.011 -44.0312 -44.3435)
(200.517 -27.2272 -3.5408)
(38.6589 -51.1142 3.74342)
(106.023 -42.0348 15.5333)
(60.6388 -46.9601 7.90152)
(76.4555 -33.8063 7.75281)
(77.6678 -13.0788 2.73409)
(79.5819 -4.21395 0.317775)
(80.8585 -0.137258 1.24089)
(83.9486 -1.37439 -0.322266)
(86.3858 -5.03164 -0.232555)
(85.4411 -8.61962 -0.626457)
(83.7885 -10.9026 0.0635909)
(80.0279 -10.8536 0.563061)
(77.2216 -9.56809 -0.103498)
(76.3035 -9.81037 -0.307533)
(76.8774 -9.12423 -0.213245)
(78.3991 -8.46081 -0.0614281)
(79.9345 -5.77956 0.0573459)
(212.053 93.5248 -202.532)
(-61.0628 -12.1989 -101.114)
(114.914 -17.8238 -31.9046)
(2.8839 -26.5442 -0.556961)
(85.6207 -22.2345 14.0447)
(32.015 -42.8825 10.3317)
(79.482 -35.3058 6.63532)
(74.1883 -12.0121 1.87339)
(77.2876 -5.66568 0.275119)
(78.5922 -1.49736 0.352674)
(81.2603 -2.21074 0.478499)
(82.6749 -4.984 0.254342)
(82.5593 -8.00615 0.199877)
(81.3904 -9.38891 0.4042)
(79.1631 -9.73506 0.204067)
(77.761 -9.9687 -0.489536)
(76.2021 -10.5498 -0.510265)
(76.8092 -9.87498 -0.266262)
(78.4129 -9.4132 0.0762143)
(79.56 -6.23743 0.157827)
(228.165 -41.9543 8.80412)
(-4.0723 -32.8397 -25.3797)
(145.274 -11.5832 16.4596)
(23.5041 -29.8365 9.24655)
(120.601 -7.00103 10.1785)
(42.8955 -53.8337 4.55423)
(75.9351 -9.33275 3.83206)
(50.3511 -16.5391 1.38723)
(71.2353 -6.58822 0.100555)
(64.7584 -7.75858 0.364035)
(77.8917 -5.66134 0.830419)
(76.239 -7.33965 1.12677)
(81.0309 -7.5358 0.70119)
(79.6874 -8.71332 0.243227)
(79.0972 -9.086 -0.543694)
(78.7919 -10.1394 -0.805288)
(78.0567 -10.7713 -0.65432)
(78.3006 -10.7544 -0.232993)
(79.8149 -9.9344 0.213107)
(80.2935 -6.47015 0.0977024)
(268.967 -208.825 42.1626)