/*--------------------------------*- C++ -*----------------------------------*\
  =========                 |
  \\      /  F ield         | OpenFOAM: The Open Source CFD Toolbox
   \\    /   O peration     | Website:  https://openfoam.org
    \\  /    A nd           | Version:  10
     \\/     M anipulation  |
\*---------------------------------------------------------------------------*/
FoamFile
{
    format      ascii;
    class       volVectorField;
    location    "5.2";
    object      U_0;
}
// * * * * * * * * * * * * * * * * * * * * * * * * * * * * * * * * * * * * * //

dimensions      [0 1 -1 0 0 0 0];

internalField   nonuniform List<vector> 
12920
(
(198.526 -86.588 248.684)
(29.9002 52.6518 18.6748)
(143.474 11.075 0.141602)
(80.4014 9.61242 2.78145)
(144.954 0.166286 -0.498099)
(129.463 -7.32838 0.262813)
(159.878 -7.17658 0.145716)
(155.068 -11.7267 0.28466)
(170.844 -9.10983 0.574697)
(163.819 -8.87601 1.15597)
(160.326 7.47953 2.47459)
(129.981 12.69 1.01485)
(125.704 11.8985 -1.09646)
(116.453 8.13595 -1.6187)
(119.386 6.03787 -1.35188)
(118.048 3.47673 -1.14253)
(121.314 1.48012 -0.763592)
(123.828 -0.650189 -0.203037)
(126.766 -2.44776 0.357528)
(128.253 -2.56771 0.454615)
(-22.8218 118.014 191.041)
(-91.184 -85.6152 6.37436)
(78.4085 -38.1696 6.3947)
(-27.5071 -33.1039 1.66138)
(104.743 -29.7508 -1.64317)
(19.1759 -20.6673 0.215218)
(93.8993 -14.581 -2.62498)
(49.8003 -9.52747 -2.56667)
(94.4971 -0.838415 -3.63944)
(74.904 4.70787 -3.36337)
(100.634 9.97353 -2.24233)
(94.2361 9.67795 -0.961743)
(106.083 6.07323 0.161592)
(102.178 2.77969 0.539775)
(106.681 -0.694421 0.978979)
(104.619 -2.22895 1.00274)
(105.933 -4.0243 1.13184)
(104.83 -4.64475 0.974431)
(105.437 -5.15785 0.866643)
(103.871 -4.6262 0.562002)
(283.323 49.7932 -72.9126)
(-40.5163 -111.106 -10.8364)
(161.051 -61.4484 -13.3309)
(25.0914 -36.2281 2.20706)
(119.407 -25.8757 -1.22449)
(45.8026 -9.06931 -0.246988)
(99.6919 -9.6012 -0.81714)
(60.6789 -0.0659426 -0.823231)
(93.2476 -1.53796 -0.532707)
(74.509 5.60589 -0.291924)
(94.2102 6.47808 0.274989)
(86.4758 8.96887 0.521224)
(96.4919 4.5491 0.860451)
(91.4263 2.87685 0.724986)
(95.3783 -0.781964 0.757173)
(92.5098 -2.00495 0.567288)
(94.2167 -3.79734 0.44203)
(93.8318 -4.38818 0.285053)
(95.8809 -5.67731 0.226556)
(96.1779 -5.63019 0.15838)
(347.11 -87.8807 -213.516)
(114.698 -49.9685 -26.1464)
(183.701 -23.609 0.703364)
(53.6547 -14.4756 2.15651)
(106.788 -23.9799 1.93029)
(15.8414 -4.47634 0.871189)
(89.2196 -16.7144 -0.498505)
(36.9153 -1.50186 0.446945)
(83.9111 -6.9946 -0.301977)
(58.1524 2.05604 0.296698)
(83.6147 -2.07254 0.210624)
(73.0232 1.17547 0.384291)
(86.0534 -2.90819 0.26711)
(81.3515 -2.32442 0.141635)
(87.3774 -4.98612 0.0570693)
(86.2746 -5.1999 0.0232902)
(89.2667 -7.08927 0.0852338)
(90.519 -7.06005 0.0819395)
(93.6463 -8.39305 0.132436)
(94.7351 -7.62252 0.124919)
(107.434 -218.099 142.148)
(-1.55473 -58.5703 6.14025)
(135.705 -9.94077 1.00189)
(54.8295 -0.1841 0.0811606)
(114.317 -4.05172 2.78183)
(62.5655 -9.16398 0.74737)
(102.331 -21.3425 0.935941)
(74.6884 -5.15863 0.242574)
(98.9872 -15.0443 0.0804307)
(82.0729 0.552067 -0.045806)
(96.9508 -6.43451 0.0268277)
(88.3032 1.94251 -0.0478983)
(95.9517 -3.50914 0.00969294)
(91.255 -0.607118 -0.0901475)
(94.5455 -4.74081 0.0195933)
(92.1122 -4.81735 0.011514)
(93.6082 -7.76469 0.0811999)
(93.9001 -8.096 0.0598746)
(96.3634 -9.82099 0.0815244)
(96.7451 -8.9702 0.0525405)
(86.5209 -38.9895 16.5934)
(-44.7197 -49.4643 -22.3897)
(131.49 12.6575 -12.4887)
(-19.2219 -7.78463 -1.64253)
(115.942 -20.3962 -3.7356)
(20.3707 -3.0071 1.8662)
(106.338 -28.7047 0.257221)
(66.3533 -5.06212 1.92719)
(97.8947 -12.333 0.536389)
(81.9127 0.309075 0.477026)
(94.8358 -6.20796 0.113934)
(88.2189 -0.163561 0.0928913)
(94.0387 -4.55419 0.0847723)
(90.9663 -1.81872 0.0595349)
(92.659 -5.3135 0.222092)
(91.4112 -5.37649 0.170065)
(92.7458 -8.65057 0.152125)
(94.1815 -9.11692 0.0824752)
(96.948 -10.951 0.0601623)
(97.5797 -9.74199 0.0438696)
(49.2993 149.962 -62.1117)
(-75.2062 20.6102 -20.9612)
(153.825 35.0081 -19.5775)
(106.059 17.5654 -7.33039)
(168.344 -17.0369 -1.30181)
(135.024 -24.4577 3.06408)
(138.011 -60.5642 3.8787)
(110.077 -18.0915 3.43633)
(119.712 -29.8758 1.57366)
(107.463 -2.96749 0.949524)
(110.861 -11.8301 0.363167)
(100.863 0.740535 0.377345)
(100.445 -6.16845 0.603538)
(93.6318 -0.497047 0.57585)
(94.2434 -5.5481 0.772354)
(94.5256 -6.18165 0.314899)
(97.0433 -10.6083 0.168987)
(99.3806 -11.4019 0.0473255)
(102.416 -13.0314 0.00601793)
(103.105 -11.2837 0.0628453)
(185.584 -129.73 -25.0465)
(111.656 -21.8703 -10.5964)
(187.275 18.7426 -14.4803)
(185.798 10.3759 -10.1265)
(225.704 -14.4949 0.539281)
(190.463 1.52755 5.5127)
(187.621 -21.4811 3.38932)
(118.337 -32.5092 1.5559)
(117.752 -18.0952 0.755523)
(103.651 -16.057 1.35655)
(106.576 -3.71794 0.533523)
(92.5428 -4.23295 0.670498)
(91.4588 -1.90346 0.0931836)
(85.9446 -4.86697 -0.198058)
(92.5185 -10.0587 -0.0711306)
(97.9667 -10.4167 -0.0892478)
(100.345 -14.1501 0.0683403)
(102.691 -13.7316 0.0713631)
(104.682 -14.3744 0.0685099)
(105.443 -12.3728 0.105986)
(-21.9133 -1.51319 -212.217)
(-79.137 0.738683 -61.8332)
(152.792 2.21251 -33.3084)
(126.074 -16.5922 -13.0512)
(170.75 -29.2496 5.73426)
(139.6 -31.9513 0.351246)
(159.05 -11.2429 2.48104)
(128.999 -16.5607 0.351783)
(126.958 -16.307 -0.368869)
(111.561 -12.5745 -0.0260778)
(106.299 -2.04482 0.405679)
(97.1175 -0.832408 0.298511)
(91.123 0.107912 -0.191455)
(90.8412 -5.03587 -0.366637)
(100.757 -16.6708 -0.0791463)
(103.975 -14.237 0.140816)
(102.518 -15.1891 0.0281383)
(103.158 -15.08 0.0882425)
(104.236 -15.7363 0.0671143)
(104.938 -14.0153 0.0248438)
(49.8744 -66.5409 -36.0339)
(30.5331 -14.4544 -36.2544)
(165.363 -10.9839 -20.7379)
(100.478 -3.70301 -4.67751)
(108.23 -32.7616 12.7831)
(24.7488 -33.416 0.133715)
(66.4966 -27.7337 0.937797)
(91.8644 -7.8286 0.247561)
(108.281 2.64646 -0.559327)
(112.095 5.21268 -0.527651)
(110.498 5.95171 -0.0803719)
(95.2655 9.50664 0.426001)
(93.1988 4.88316 -0.0347188)
(101.192 -5.36225 0.132955)
(104.419 -16.4589 0.270918)
(100.273 -13.0755 0.00915783)
(98.2851 -13.7856 -0.0716748)
(98.9332 -14.4622 -0.11191)
(100.223 -15.9154 -0.145111)
(101.195 -14.2363 -0.179591)
(115.025 38.3986 -102.434)
(74.4142 44.7464 -72.526)
(199.133 71.3708 -36.1928)
(159.699 46.4222 -10.5318)
(185.569 -6.03138 3.90772)
(102.18 -51.1118 1.46324)
(91.192 -40.3948 1.09534)
(92.1189 -18.1863 -0.796584)
(94.6612 -4.291 -0.0407509)
(102.868 5.19116 -0.106592)
(106.484 11.3258 -0.0122042)
(103.097 11.2348 0.231288)
(104.454 0.183435 -0.0999409)
(107.184 -8.41889 -0.213371)
(100.855 -12.603 0.197379)
(96.0435 -11.6719 -0.171203)
(95.8356 -13.4076 -0.299653)
(98.0039 -15.0671 -0.363982)
(100.059 -16.4681 -0.238953)
(101.255 -14.7694 -0.147109)
(178.434 -57.7524 -11.1685)
(71.324 83.0786 2.90127)
(178.398 89.7649 5.59647)
(141.22 48.0553 5.6727)
(172.686 -5.95902 11.3865)
(81.9441 -38.7069 2.06656)
(97.6508 -39.3219 1.6963)
(91.19 -17.682 0.22082)
(96.0775 -12.8632 0.121223)
(101.961 0.318885 0.0669285)
(103.069 6.506 0.20785)
(106.181 7.27833 0.03941)
(111.977 0.86825 -0.256315)
(109.984 -4.91253 0.0175128)
(100.199 -8.69893 0.0895672)
(99.7893 -11.3886 -0.403248)
(99.4981 -13.725 -0.518134)
(101.85 -15.3563 -0.470954)
(103.939 -17.3714 -0.159117)
(103.996 -15.3981 -0.0490545)
(165.301 194.551 29.342)
(85.1661 58.1477 0.260832)
(168.419 59.9906 0.986486)
(124.953 9.82113 5.22386)
(163.335 7.19908 6.60598)
(91.0213 -42.9342 2.51381)
(111.139 -13.5619 -0.0928597)
(66.2514 -16.5672 0.0800963)
(89.0002 -10.7468 -0.0475848)
(80.8295 -4.03501 -0.0365174)
(99.1943 1.20724 0.0190255)
(98.881 0.53164 0.366561)
(103.965 -0.943815 0.441217)
(102.155 -4.23505 0.208431)
(102.97 -8.38878 -0.265605)
(103.593 -9.48778 -0.671004)
(105.284 -12.7452 -0.828921)
(107.334 -15.5093 -0.452225)
(108.698 -17.2515 -0.0679877)
(107.53 -15.1789 -0.118394)
(152.735 -176.188 -5.72097)
(-77.9081 42.9696 2.47689)
(196.639 35.3396 -2.24717)
(37.2446 -7.19313 6.79279)
(149.597 -6.85568 4.99046)
(60.5473 -32.8615 2.25646)
(109.286 18.8789 2.60365)
(74.3865 -31.8038 0.992445)
(95.9958 -5.93557 1.70305)
(87.4955 -19.9943 1.17979)
(99.2549 -7.46019 1.09573)
(98.0999 -11.439 0.658067)
(104.528 -6.5357 0.249989)
(104.719 -9.02534 -0.0415547)
(107.337 -8.11648 -0.424756)
(108.861 -10.0328 -0.891648)
(111.697 -12.8282 -0.971867)
(112.197 -15.3865 -0.39692)
(112.537 -16.7095 0.139771)
(109.347 -14.1249 -0.165335)
(-68.5157 -111.216 70.3787)
(-100.232 34.4925 -20.5013)
(150.287 1.87289 -14.6052)
(58.8656 -13.2123 -0.723913)
(142.854 -20.7574 -0.869526)
(89.0373 -30.6639 -2.11671)
(135.142 -19.0101 1.18738)
(117.237 -28.7101 -0.430049)
(130.137 -19.9361 1.65431)
(122.638 -21.4484 1.33469)
(125.045 -14.0701 1.44057)
(120.842 -13.4461 0.689722)
(121.034 -10.0378 0.31502)
(119.251 -10.2745 -0.186546)
(119.183 -9.06031 -0.453091)
(118.715 -9.19924 -0.935564)
(119.028 -10.9442 -0.961357)
(118.029 -13.5357 -0.370093)
(116.53 -14.8072 0.474122)
(109.864 -11.3785 0.0354162)
(62.554 -74.678 105.166)
(-41.3103 -44.8873 -2.21166)
(157.424 13.4855 -4.90175)
(47.8762 -8.31764 -3.43654)
(145.561 -10.4504 -6.08416)
(88.643 -18.987 -5.95525)
(137.24 -12.7168 -5.95004)
(116.524 -25.0384 -4.54868)
(137.354 -19.8589 -1.23327)
(126.17 -22.5419 -0.0225848)
(133.588 -13.5287 0.945117)
(127.604 -11.3516 0.800387)
(130.068 -6.30694 0.741245)
(127.141 -5.95454 0.385583)
(127.88 -4.52002 0.159133)
(126.621 -4.94449 -0.268021)
(126.828 -7.29698 -0.201809)
(122.614 -10.3723 0.182918)
(118.504 -11.2351 0.969773)
(110.011 -7.72893 0.347551)
(135.9 83.3526 -142.961)
(40.304 -8.59165 -0.878916)
(188.024 13.5532 -7.19578)
(123.181 -1.12703 -7.75863)
(181.492 -3.77245 -6.89418)
(158.498 -6.34265 -7.59286)
(182.39 -10.2208 -5.0582)
(164.556 -14.1981 -3.63558)
(165.493 -20.3547 0.575337)
(146.761 -21.9682 1.10063)
(144.757 -18.5897 1.11371)
(137.005 -15.7804 0.617349)
(138.315 -12.3814 0.614285)
(136.111 -10.5564 0.50878)
(137.316 -8.23794 0.620071)
(136.744 -6.66023 0.56155)
(136.117 -5.71105 0.221735)
(132.214 -5.74227 0.459215)
(125.05 -7.40973 1.31279)
(112.5 -5.524 0.609028)
(92.4546 24.6771 -13.4186)
(-10.5916 -46.5092 1.80209)
(190.635 -4.3382 -4.63221)
(148.863 -2.81323 -4.11368)
(207.515 9.69025 -3.90918)
(187.488 8.49999 -3.44421)
(202.43 9.79217 0.447254)
(178.299 2.68712 1.81078)
(176.654 -5.00843 3.25447)
(154.571 -10.1611 1.81849)
(152.142 -9.24076 0.987877)
(142.38 -9.98027 0.222287)
(142.557 -8.36096 0.106575)
(138.729 -8.31049 -0.0533321)
(139.265 -7.41994 -0.0640566)
(138.592 -6.61758 -0.266901)
(140.117 -4.04254 -0.267103)
(139.117 -1.93399 -0.260943)
(137.089 0.688998 0.714777)
(124.385 0.34955 0.626207)
(55.5884 -96.6428 -37.4114)
(12.8932 -107.414 -85.9256)
(224.554 -48.8981 -41.4693)
(150.767 -18.1858 -12.5444)
(199.306 -1.87848 -0.938176)
(164.72 6.43129 2.61697)
(179.124 2.66422 6.44882)
(149.285 -4.37467 5.22235)
(154.509 -8.63379 3.00098)
(139.747 -9.49517 1.01577)
(143.534 -9.15479 0.615925)
(136.144 -8.88946 0.484695)
(136.732 -8.01427 0.731407)
(131.754 -7.56979 0.776987)
(130.847 -6.57769 0.570601)
(127.603 -6.39724 0.314309)
(126.183 -4.40556 0.178634)
(123.204 -1.1112 0.328426)
(122.888 2.93846 -0.107551)
(121.284 2.98096 -0.53362)
(266.448 10.3427 60.1577)
(296.73 124.72 -2.4477)
(344.084 104.659 14.6103)
(292.928 67.6147 16.1298)
(267.192 3.18092 22.3578)
(183.269 -7.77358 12.9995)
(183.216 -9.07492 6.24236)
(154.034 -7.50065 1.29143)
(160.46 -7.15934 -0.998122)
(148.789 -6.92724 -2.16553)
(152.708 -6.63464 -2.15296)
(145.825 -6.85822 -2.14533)
(145.717 -6.33707 -1.46849)
(139.408 -6.40594 -1.21931)
(136.536 -4.71997 -0.226264)
(129.73 -3.00564 -0.224316)
(127.263 0.327347 -0.416556)
(126.696 1.79168 -0.34321)
(128.927 4.55186 -0.110272)
(136.047 4.13255 0.0703042)
(223.558 -22.4546 -134.894)
(46.3015 23.4336 8.48611)
(138.592 9.79496 -1.95804)
(78.2288 9.33326 -0.502906)
(137.006 2.30348 -1.29863)
(116.055 -3.31566 1.09151)
(145.635 -1.51222 1.38131)
(137.089 -5.5885 1.42226)
(152.698 -1.68336 1.89523)
(141.75 0.0629281 3.07307)
(139.5 13.3595 5.23089)
(117.58 12.9538 2.73371)
(115.791 7.07573 0.0894947)
(105.746 2.44991 -1.03708)
(108.791 0.222938 -0.873484)
(107.218 -1.50088 -0.595371)
(109.962 -2.69707 -0.108805)
(112.325 -3.38936 0.321198)
(116.034 -3.86768 0.945526)
(118.786 -3.21341 1.03924)
(-70.3542 20.8416 -33.9896)
(-147.982 -38.2315 -12.1292)
(57.5029 -28.8704 0.286249)
(-18.8579 -24.6135 2.38758)
(94.0673 -24.694 -3.03284)
(21.3676 -15.9653 -0.0586756)
(89.7409 -11.5461 -5.55909)
(49.1743 -7.00342 -5.06294)
(90.4784 -0.655802 -7.3992)
(68.6557 3.50593 -6.54867)
(91.4238 6.84028 -3.23225)
(82.2142 4.96416 -0.744202)
(93.6879 1.27532 0.609068)
(88.3367 -1.10077 0.710769)
(93.4964 -3.20475 1.23794)
(91.4392 -3.64997 1.10204)
(93.5961 -4.22775 1.26062)
(93.2645 -4.20278 0.995978)
(95.0511 -4.23467 0.847931)
(94.663 -3.49423 0.512559)
(218.547 28.729 141.385)
(-24.0846 -74.5836 42.2575)
(114.518 -44.9967 -2.33792)
(11.3132 -26.7141 5.72535)
(103.43 -20.6376 -1.87044)
(32.4045 -7.38141 -0.292607)
(89.9759 -9.40036 -1.90849)
(49.1075 -0.23813 -1.46922)
(84.6177 -2.69071 -1.19043)
(63.4258 4.18939 -0.602438)
(84.6363 3.85707 0.51408)
(75.0324 6.0279 0.830831)
(85.9534 1.81693 1.28522)
(80.376 1.1596 0.969418)
(85.2004 -1.49461 1.02149)
(82.6474 -1.85872 0.695204)
(84.8639 -3.16974 0.59694)
(84.6293 -3.30914 0.365685)
(86.7842 -4.14856 0.268724)
(87.1783 -3.84148 0.169606)
(209.012 -44.1593 -87.2763)
(67.1219 -26.1872 8.13407)
(132.35 -9.72959 7.86044)
(21.4758 -9.18499 2.92964)
(92.144 -19.7065 2.27967)
(9.39599 -5.42299 1.47591)
(80.4025 -17.955 -1.00186)
(30.3594 -3.39579 1.0925)
(76.9278 -9.26129 -0.662199)
(50.3134 0.273913 0.486399)
(76.5698 -3.80614 0.215495)
(64.8526 0.23634 0.565368)
(78.1811 -3.51856 0.342527)
(72.7423 -2.18781 0.154943)
(78.7918 -4.62628 0.104694)
(77.3942 -4.21085 0.0787746)
(80.4297 -5.63524 0.186446)
(81.2832 -5.15338 0.175466)
(84.0981 -5.88524 0.146296)
(84.9581 -4.95771 0.173423)
(1.25364 -106.8 107.897)
(-101.072 -4.03701 -24.0627)
(108.791 11.8709 -23.4939)
(9.72006 2.95314 -3.57772)
(98.5717 -6.53543 0.746203)
(41.5074 -8.88501 1.40252)
(91.3578 -22.9553 1.67148)
(60.0898 -4.72007 1.10938)
(87.8289 -16.1032 0.412732)
(68.3388 0.810698 0.275445)
(84.7075 -7.30268 0.179196)
(74.3733 1.94406 0.017474)
(82.9887 -4.23271 0.0799171)
(77.8252 -0.697841 -0.0719754)
(82.0772 -5.04337 0.0836289)
(80.3689 -4.28384 0.0463012)
(82.5732 -6.55933 0.154816)
(83.0029 -6.00766 0.159879)
(85.4048 -6.92888 0.135386)
(85.7527 -5.75025 0.1173)
(86.1999 -16.6251 -59.6057)
(-38.6721 -41.331 -40.8293)
(102.555 8.57622 -18.2195)
(-14.1847 -9.20012 -4.48169)
(99.314 -20.2838 -7.18209)
(9.46069 -5.04431 3.86502)
(95.4144 -31.4443 -0.365268)
(53.9711 -6.2288 3.83934)
(86.4056 -15.284 0.929886)
(67.9117 -0.662369 1.00272)
(81.7755 -8.0522 0.302644)
(73.7272 -0.558555 0.245958)
(80.5374 -5.793 0.232348)
(77.3705 -2.74001 0.128921)
(80.2238 -6.63064 0.33054)
(80.207 -5.69751 0.189536)
(82.1622 -7.8881 0.220492)
(83.5523 -7.11621 0.166858)
(85.9052 -7.82506 0.138638)
(86.2802 -6.31377 0.13162)
(98.9724 17.3282 62.5106)
(-22.9299 -16.4534 -52.189)
(135.947 9.13729 -35.4595)
(70.4508 1.95084 -11.0934)
(132.719 -25.3572 -3.98757)
(92.94 -21.9098 4.09701)
(109.199 -58.0509 4.53625)
(85.1578 -7.25428 5.61106)
(99.5765 -26.1582 2.36915)
(85.0145 1.68348 1.68787)
(90.4837 -11.5117 0.908509)
(81.3017 1.8874 0.899021)
(84.2789 -7.19155 1.01787)
(80.6942 -1.22746 0.810434)
(83.9255 -6.93324 0.975198)
(84.9311 -6.55493 0.392756)
(87.0834 -9.39 0.290192)
(88.4657 -8.67462 0.19877)
(90.7005 -9.08732 0.137013)
(90.7235 -7.12742 0.203682)
(182.268 -158.013 -110.853)
(54.3544 -64.1891 4.8758)
(147.689 -18.0092 -3.98361)
(104.557 -13.2226 -3.07086)
(150.919 -17.85 7.0755)
(111.504 8.61052 9.02803)
(132.552 -13.0644 9.99744)
(91.8821 -23.5365 11.4065)
(98.1159 -13.7351 2.72132)
(83.2845 -9.39339 1.18511)
(88.2467 -5.55267 1.35614)
(79.3366 -5.04928 0.892324)
(82.1797 -6.41324 0.545451)
(79.7451 -7.63168 -0.0034587)
(85.6935 -10.5637 -0.237486)
(88.485 -9.42086 -0.146841)
(90.3228 -11.3952 0.13036)
(92.0099 -10.0835 0.227912)
(93.808 -9.83874 0.15678)
(93.9633 -7.46492 0.236948)
(258.503 -25.1541 -52.7261)
(-15.7694 -20.7853 -38.0202)
(121.694 -20.2277 -15.62)
(7.7091 -30.4894 -2.84355)
(116.772 -37.4757 14.7908)
(101.816 -29.2255 2.83073)
(135.739 -11.0024 7.31218)
(116.967 -15.9242 4.6809)
(102.657 -10.9715 1.07362)
(88.655 -7.05432 -0.613122)
(86.0958 -2.20799 0.964244)
(81.9229 -3.02055 1.38682)
(83.4903 -4.57964 0.249318)
(85.6562 -9.14024 -0.480643)
(92.5881 -16.9085 0.0147837)
(93.7147 -12.331 0.0100457)
(92.4736 -12.6487 -0.0136714)
(93.3293 -11.461 0.163796)
(94.7179 -10.7555 0.0794873)
(95.0389 -8.17601 0.095152)
(136.205 -108.343 -44.7296)
(-18.7702 -49.6929 -41.5845)
(104.762 -63.3176 -19.0861)
(-8.37781 -47.0724 -4.84273)
(88.7738 -52.5485 14.8965)
(33.2392 -34.6931 2.56016)
(76.9908 -24.0854 2.87823)
(91.7161 -8.69911 -0.386475)
(95.0243 0.71749 -1.47157)
(91.948 2.57246 -1.30301)
(87.699 3.4359 0.68975)
(86.1825 2.0333 0.5929)
(89.6278 -3.47446 -0.417111)
(94.7612 -9.84169 0.0364451)
(95.844 -14.5088 0.483001)
(91.7502 -11.2564 -0.0419744)
(89.9438 -11.8802 -0.0669476)
(90.3469 -11.1956 -0.0695172)
(91.4956 -10.9988 -0.271758)
(92.3685 -8.4798 -0.211343)
(403.303 -153.21 93.1571)
(247.016 -43.5741 -14.6816)
(223.069 6.35554 -41.2605)
(130.476 -18.7086 -10.3045)
(147.677 -34.923 11.9642)
(110.457 -47.4197 5.28179)
(102.644 -44.3451 5.37801)
(89.5924 -15.5084 1.62359)
(90.1571 -3.17103 0.172749)
(92.7217 1.89075 0.539596)
(93.0968 4.3981 1.07513)
(95.9498 1.26724 0.488548)
(97.7413 -5.82219 -0.802518)
(96.7436 -10.5998 -0.227619)
(91.2168 -11.7557 0.504142)
(88.1188 -10.8926 -0.552432)
(87.5029 -11.7977 -0.4978)
(88.5529 -11.8838 -0.388546)
(90.0689 -11.812 -0.283459)
(91.1573 -9.36741 -0.113865)
(51.7275 30.8153 98.0339)
(-39.9172 19.0055 -55.3541)
(131.877 8.08891 -8.00325)
(74.7812 -13.2764 4.58895)
(123.837 -20.611 17.7324)
(75.2071 -36.4709 10.0909)
(99.1275 -39.9155 6.71679)
(85.0106 -14.46 1.71087)
(88.3081 -6.88887 0.426662)
(90.4438 0.571984 0.306347)
(93.0438 1.82626 0.524158)
(95.6549 -0.592243 0.0080842)
(96.1525 -5.56436 -0.122013)
(93.6374 -8.56741 0.378412)
(90.0409 -9.89954 0.257654)
(89.4532 -11.0067 -0.958472)
(88.3469 -12.3979 -0.756142)
(89.4086 -12.5563 -0.469342)
(91.027 -12.8238 -0.11474)
(91.5155 -9.90789 0.013285)
(155.781 179.658 132.556)
(101.487 110.511 -10.2614)
(170.861 40.3051 17.8471)
(77.193 -11.8055 11.598)
(140.452 1.91666 12.7583)
(61.4732 -50.2109 4.64176)
(92.8569 -10.8775 3.69088)
(57.8436 -16.0688 1.0455)
(80.7065 -7.77637 0.175589)
(73.461 -5.85022 0.225013)
(88.7547 -3.36391 0.550746)
(87.303 -4.81614 1.0076)
(92.5824 -5.89411 0.828389)
(91.1867 -7.67212 0.294867)
(91.5631 -9.29565 -0.866004)
(91.7051 -10.4014 -1.0678)
(91.4306 -12.3002 -0.918081)
(92.1491 -13.312 -0.388978)
(93.5171 -13.2241 0.0339506)
(93.0312 -10.0867 -0.0677988)
(86.7475 -27.6192 86.5777)
(-56.6926 57.3592 -16.3176)
(159.294 29.6506 -9.55409)
(-8.01582 -5.89144 7.74274)
(142.322 -2.55956 2.79176)
(38.5148 -28.7331 3.90638)
(99.9463 21.1223 2.89993)
(60.5441 -33.6169 1.00844)
(87.4402 -5.72873 2.38298)
(78.2987 -20.9834 1.70218)
(90.9808 -8.51759 1.60468)
(88.911 -13.0526 0.908009)
(94.4609 -8.03571 0.335049)
(93.4392 -10.3415 -0.173269)
(95.1009 -9.63453 -0.683898)
(94.8849 -11.3067 -1.07065)
(95.2952 -13.0183 -0.976073)
(94.5815 -13.7338 -0.23701)
(95.7011 -13.1196 0.286982)
(93.9135 -9.50569 -0.24005)
(-40.689 -119.204 82.3668)
(-48.5491 38.1769 -55.1928)
(120.863 9.0388 -24.8128)
(10.6288 -11.7691 -2.63198)
(128.837 -16.3726 -3.8612)
(50.4266 -26.5343 -2.30469)
(118.015 -10.241 2.45704)
(89.7031 -24.6667 -0.590416)
(109.957 -14.3572 2.56893)
(101.789 -18.4029 1.5758)
(107.803 -11.6221 1.95284)
(104.059 -12.6489 0.83319)
(105.296 -9.64768 0.399846)
(103.315 -10.5155 -0.356785)
(103.13 -9.74327 -0.680626)
(101.622 -10.7372 -1.22435)
(100.192 -12.3738 -0.872106)
(98.2327 -12.946 -0.163636)
(98.1457 -11.823 0.692402)
(94.7854 -7.99744 -0.0594515)
(-34.5219 -1.85885 -18.0545)
(-60.6364 -47.363 -30.2115)
(133.641 14.5802 -20.5448)
(27.6235 -13.8538 -8.21429)
(132.545 -16.0948 -10.101)
(62.1849 -24.8035 -6.78824)
(119.629 -16.1467 -6.24167)
(87.4361 -27.1061 -4.20532)
(114.973 -16.8603 -0.360549)
(102.709 -19.4228 0.372415)
(114.593 -10.6502 1.4463)
(109.118 -10.7294 0.992976)
(113.069 -6.90335 0.922853)
(109.781 -7.78395 0.325777)
(110.318 -7.14046 -0.00543005)
(107.813 -8.57427 -0.488435)
(106.009 -10.1666 -0.118777)
(101.446 -11.1661 0.476802)
(100.05 -9.12507 1.22737)
(95.9171 -5.66346 0.365391)
(23.4243 -21.1487 -56.2366)
(26.9613 -41.9567 -21.7588)
(175.828 -2.34048 -10.8726)
(97.1848 -19.45 -8.56997)
(156.6 -21.9157 -6.33664)
(112.285 -26.483 -7.92461)
(141.974 -28.9901 -3.32856)
(117.575 -29.8284 -2.92364)
(130.94 -26.5723 1.60973)
(118.555 -22.0958 1.2919)
(124.276 -15.8786 1.57323)
(118.39 -12.5463 0.860544)
(120.786 -9.08108 0.875773)
(117.992 -7.97189 0.572099)
(118.369 -6.48267 0.545426)
(116.578 -6.26587 0.395699)
(114.232 -6.24557 0.389)
(107.755 -6.35477 1.03659)
(104.171 -5.63604 1.82099)
(98.1112 -3.61697 0.751954)
(98.2588 29.8083 59.1353)
(18.3955 -31.3461 -4.66276)
(176.957 -11.4515 -15.3085)
(110.296 -19.3531 -6.83547)
(174.056 -9.62979 -4.68207)
(133.928 -18.6727 -3.88512)
(158.911 -16.7006 2.14053)
(132.206 -20.9887 2.07403)
(142.423 -16.0079 3.5728)
(126.29 -14.5485 1.64597)
(130.157 -9.65229 1.20758)
(121.768 -8.6363 0.209677)
(123.527 -6.01204 0.196525)
(119.422 -5.71344 -0.145267)
(119.929 -4.34735 -0.220285)
(117.81 -4.01011 -0.417626)
(116.925 -2.10648 -0.232344)
(112.645 -1.36968 0.0543458)
(110.382 0.647646 1.2782)
(104.191 0.431152 0.817751)
(318.189 -21.7095 125.989)
(155.462 -55.1255 -65.4372)
(224.318 -44.6787 -43.6842)
(114.561 -38.1515 -10.3657)
(176.639 -25.7305 3.96522)
(130.273 -19.3404 7.16106)
(158.204 -18.1285 10.7774)
(130.64 -16.2235 6.4632)
(141.31 -14.0757 3.58322)
(125.252 -11.1185 0.789873)
(129.259 -8.67217 0.634417)
(120.209 -7.1327 0.291041)
(121.158 -5.50325 0.640725)
(115.79 -4.76525 0.446959)
(115.236 -3.70335 0.248834)
(111.705 -3.46099 -0.106532)
(110.101 -1.25776 -0.0193957)
(107.465 0.141761 -0.10198)
(107.411 2.64472 -0.480461)
(106.296 2.49663 -0.62114)
(352.564 20.0549 -33.1389)
(184.151 28.6563 -26.2056)
(280.698 29.8347 21.9177)
(207.274 1.40148 26.6588)
(221.238 -21.0239 28.8859)
(168.511 -20.7138 15.549)
(176.446 -15.5375 7.2169)
(146.36 -9.09613 0.574235)
(150.724 -6.00491 -1.29476)
(132.737 -4.00833 -2.61609)
(133.858 -2.22795 -1.9925)
(122.623 -1.07135 -2.07195)
(122.768 0.448296 -1.21009)
(116.941 1.28458 -1.05516)
(117.285 1.97791 -0.187068)
(115.146 2.46656 -0.087173)
(115.105 3.39533 0.181567)
(115.922 3.87523 0.35791)
(119.138 3.39862 -0.27358)
(124.5 1.31644 -0.130571)
(241.287 59.2194 -13.6709)
(23.8232 70.8469 53.6888)
(143.093 13.9758 3.42181)
(81.1146 9.54845 4.23276)
(137.361 2.68742 -0.472144)
(113.012 0.35443 1.09632)
(139.129 6.32587 0.0025403)
(123.723 4.80571 0.246696)
(134.23 11.4422 1.73644)
(114.003 14.1943 3.17494)
(115.849 16.2701 5.29612)
(99.5168 10.5282 2.28378)
(102.64 4.95374 1.03386)
(95.2332 1.09508 -0.211349)
(99.0185 -1.01233 -0.190479)
(97.6302 -2.01824 -0.0194461)
(100.697 -2.78559 0.398538)
(102.971 -2.90215 0.626592)
(106.775 -3.09088 1.06886)
(109.949 -2.29161 1.10999)
(56.4011 -29.0194 85.5098)
(-48.8337 -16.674 -15.1275)
(62.9339 -17.3796 -7.95568)
(-10.0071 -16.682 1.19416)
(88.1211 -19.2834 -4.37652)
(19.819 -10.9554 -0.80105)
(87.3268 -6.74359 -7.47284)
(45.3244 -3.06334 -7.39151)
(85.8738 1.76216 -9.03412)
(60.0162 3.99047 -6.5507)
(82.2759 4.63175 -2.24196)
(70.621 2.42925 -0.0974541)
(82.9324 -0.956907 0.7538)
(76.7039 -2.25615 0.501203)
(82.558 -3.51616 0.962789)
(80.3197 -3.34286 0.743172)
(83.0669 -3.57803 0.933873)
(83.0344 -3.26564 0.643964)
(85.2904 -3.22164 0.501745)
(85.5358 -2.40514 0.241313)
(85.1399 -14.8561 -53.9426)
(-56.0172 -58.5349 17.5075)
(102.536 -28.3561 -12.7837)
(7.47151 -19.8188 1.42085)
(93.386 -15.9675 -3.77274)
(24.5231 -5.52384 -0.701991)
(82.454 -8.12789 -2.52763)
(40.5172 0.622167 -1.68357)
(77.3781 -2.36904 -1.54041)
(53.8556 4.28269 -0.526423)
(76.1991 2.33217 0.613884)
(64.7907 4.44292 0.820218)
(76.639 0.458947 1.14432)
(70.4721 0.662754 0.789899)
(76.1047 -1.59479 0.833882)
(73.5648 -1.46058 0.518387)
(76.2239 -2.5779 0.499058)
(75.9759 -2.43721 0.298622)
(78.2292 -3.07392 0.228359)
(78.6097 -2.58554 0.139392)
(206.06 19.4777 -28.3326)
(59.1812 2.39929 -19.5702)
(119.65 1.74405 0.386182)
(8.98537 -3.09915 -0.552478)
(80.5439 -16.2242 -0.13616)
(4.80625 -5.11342 1.61217)
(72.4302 -17.5266 -1.29035)
(24.283 -3.73865 1.14345)
(70.0421 -9.96695 -0.777686)
(42.9527 -0.285479 0.574529)
(69.6162 -4.63795 0.114086)
(56.9313 -0.0683048 0.547219)
(70.7257 -3.73332 0.305861)
(64.745 -1.87561 0.125076)
(71.1148 -4.17476 0.110118)
(69.4148 -3.32188 0.0898664)
(72.5778 -4.50182 0.198395)
(73.0328 -3.7915 0.196949)
(75.6382 -4.29507 0.150852)
(76.2569 -3.2735 0.174496)
(98.0547 4.09191 -22.4514)
(-30.2745 20.1274 -25.8864)
(101.969 14.4007 -32.9294)
(4.01395 3.14813 -5.39486)
(86.4807 -7.17537 -1.36351)
(27.8281 -7.9613 1.58519)
(81.9748 -22.8959 1.51954)
(48.3571 -3.41454 1.49015)
(78.6713 -16.3544 0.381153)
(57.3815 1.3103 0.42034)
(75.2483 -7.9436 0.176584)
(63.8125 1.90774 0.0650503)
(73.4728 -4.79635 0.104003)
(67.9887 -0.601322 -0.0409988)
(72.9409 -4.91547 0.098363)
(71.3653 -3.44107 0.0581621)
(73.8628 -5.35578 0.169712)
(74.0954 -4.38191 0.190751)
(76.4082 -5.05416 0.148862)
(76.6329 -3.72923 0.115746)
(159.517 77.3023 -61.1256)
(2.82338 -43.6635 -32.8091)
(93.8459 5.52308 -16.2543)
(-9.19524 -10.0861 -4.54029)
(84.156 -17.9427 -6.47283)
(1.2655 -5.12001 4.54548)
(83.8973 -30.9029 -1.11577)
(41.281 -4.25118 4.01123)
(75.7578 -15.9984 0.632761)
(55.9835 -0.145772 1.02592)
(71.5598 -8.92311 0.214044)
(62.9046 -0.548246 0.225981)
(70.7694 -6.4608 0.164625)
(67.5571 -2.82856 0.0998838)
(71.0521 -6.69189 0.252735)
(71.3119 -4.97777 0.151505)
(73.4706 -6.56927 0.218442)
(74.4898 -5.35025 0.205945)
(76.7053 -5.72675 0.155335)
(76.9619 -4.11661 0.126202)
(369.672 -115.377 -58.0096)
(90.8516 -57.2357 -29.4944)
(141.249 -6.28513 -29.224)
(50.5885 -6.78766 -7.63612)
(110.527 -28.0752 -1.97144)
(59.3725 -16.2825 4.47187)
(86.9104 -55.2192 3.35798)
(62.7792 2.09885 5.16385)
(82.5685 -25.0731 2.00922)
(67.4525 4.31258 1.61715)
(76.3397 -12.3503 0.836033)
(68.2797 2.14639 0.80138)
(73.5321 -8.1625 0.741051)
(70.9816 -1.375 0.621887)
(75.0942 -7.05093 0.797726)
(75.9963 -5.86571 0.366391)
(77.8783 -7.75459 0.307559)
(78.6374 -6.44459 0.289622)
(80.572 -6.51861 0.210631)
(80.4091 -4.52153 0.202377)
(118.153 -76.9666 -210.449)
(-3.95168 -23.5692 -17.1521)
(113.107 -13.1579 -12.7956)
(36.4229 -17.757 -4.41017)
(110.433 -17.5875 8.12312)
(56.0599 17.1882 8.80644)
(90.2064 -18.8333 10.1194)
(64.6765 -12.9065 9.51155)
(79.6433 -14.1781 2.39645)
(67.003 -5.75313 0.964316)
(74.3287 -8.36685 1.08985)
(68.7274 -5.21449 0.757098)
(73.78 -8.67326 0.224703)
(72.5508 -8.36223 0.0535952)
(77.7321 -9.87993 0.0577231)
(79.378 -7.65334 0.0441659)
(80.5328 -8.66095 0.211835)
(81.8531 -7.07519 0.324833)
(83.4466 -6.64931 0.229845)
(83.3043 -4.35591 0.220354)
(128.061 14.6641 -29.6315)
(-89.7519 -39.7169 -37.8637)
(95.5069 -36.568 -12.7592)
(-40.9928 -30.4211 -5.42538)
(94.7822 -35.0078 5.6165)
(61.0441 -13.537 2.87507)
(94.3064 -5.21134 8.4675)
(81.9239 -13.3406 6.69562)
(82.3193 -8.80206 1.79095)
(72.6863 -6.25566 0.528658)
(74.1692 -4.24898 1.04647)
(72.8581 -5.54996 0.866786)
(76.9046 -7.39138 -0.14875)
(78.9078 -10.5523 -0.522436)
(83.836 -16.0308 0.10705)
(83.4419 -9.99355 0.456831)
(82.3912 -9.83208 0.191361)
(83.372 -8.25568 0.285399)
(84.8088 -7.19446 0.125417)
(84.8721 -4.60708 0.0731924)
(164.651 76.2421 68.2007)
(-12.8909 -57.9279 -26.1193)
(69.6305 -75.4518 -22.7582)
(-39.0817 -48.2968 -6.65137)
(68.8653 -43.5738 8.87332)
(21.1589 -23.4894 3.72055)
(71.2277 -13.0275 2.99832)
(81.5727 -6.43129 0.684562)
(82.1957 -1.33346 -0.994319)
(78.7876 -0.277283 -0.758)
(77.7426 -0.670986 0.363482)
(79.465 -3.31731 -0.230942)
(83.1754 -7.13284 -0.723977)
(86.348 -10.6882 -0.0840615)
(85.6748 -12.4617 0.635759)
(82.3916 -9.45626 0.437574)
(81.066 -9.51725 0.136445)
(81.7032 -8.22401 0.0635789)
(82.9193 -7.47989 -0.198285)
(83.465 -4.80328 -0.179061)
(455.779 -14.3084 -150.355)
(310.661 -28.6991 -36.0306)
(200.727 -17.228 -1.95565)
(38.6569 -45.8432 4.01482)
(109.8 -37.9365 15.8577)
(62.1314 -43.8403 7.83248)
(79.385 -31.1294 7.61274)
(80.664 -11.6467 2.78376)
(82.6119 -3.46133 0.421713)
(83.4323 0.827386 1.13527)
(86.8731 -0.950131 -0.319394)
(89.097 -4.69996 -0.119912)
(88.13 -8.46131 -0.609233)
(86.4337 -10.7539 0.0848978)
(82.6877 -10.7199 0.58416)
(79.9039 -9.51606 -0.0942053)
(78.9981 -9.75262 -0.29693)
(79.706 -9.08504 -0.253124)
(81.1734 -8.44393 -0.192713)
(82.2177 -5.77092 -0.0955036)
(200.582 129.436 -199.479)
(-64.3704 3.66947 -100.318)
(113.421 -11.6311 -29.034)
(2.87586 -21.5997 -0.0935153)
(88.0344 -18.7283 14.5734)
(32.6372 -40.4433 9.99006)
(81.8474 -33.0317 6.43708)
(76.4341 -10.8438 1.86784)
(79.9477 -4.93801 0.410022)
(81.2227 -1.20855 0.389657)
(83.925 -2.08035 0.470757)
(85.2682 -4.886 0.259952)
(85.1476 -7.92694 0.196344)
(83.9666 -9.30243 0.408947)
(81.7309 -9.63769 0.238326)
(80.4552 -9.8264 -0.479224)
(78.8986 -10.4968 -0.498739)
(79.6006 -9.81643 -0.305494)
(81.1573 -9.38547 -0.0465452)
(81.8411 -6.21204 0.00651029)
(221.425 -32.6064 9.55653)
(-22.927 -26.2016 -21.8077)
(139.504 -6.33025 19.7187)
(20.3977 -26.131 9.58042)
(121.937 -3.9585 10.5023)
(42.8392 -52.6805 4.38335)
(77.9315 -6.8795 3.53545)
(52.304 -15.6824 1.23228)
(73.7994 -5.68906 0.124677)
(67.1148 -7.39275 0.478947)
(80.6691 -5.34073 0.982928)
(78.8977 -7.10842 1.19535)
(83.7362 -7.28713 0.720371)
(82.3031 -8.54518 0.237548)
(81.785 -8.87158 -0.546248)
(81.485 -9.97412 -0.794584)
(80.6871 -10.6987 -0.643751)
(81.062 -10.6857 -0.275731)
(82.5218 -9.88415 0.0859417)
(82.5531 -6.43083 -0.07091)
(279.253 -250.472 27.9611)
(-7.54652 -17.8668 -16.5032)