/*--------------------------------*- C++ -*----------------------------------*\
  =========                 |
  \\      /  F ield         | OpenFOAM: The Open Source CFD Toolbox
   \\    /   O peration     | Website:  https://openfoam.org
    \\  /    A nd           | Version:  10
     \\/     M anipulation  |
\*---------------------------------------------------------------------------*/
FoamFile
{
    format      ascii;
    class       volScalarField;
    location    "2.4";
    object      omega_0;
}
// * * * * * * * * * * * * * * * * * * * * * * * * * * * * * * * * * * * * * //

dimensions      [0 0 -1 0 0 0 0];

internalField   nonuniform List<scalar> 
12920
(
197.245
176.947
163.273
155.785
148.803
132.475
109.983
93.0407
80.8649
73.7954
70.6186
68.3743
65.3391
61.3459
56.4959
50.5524
44.8574
40.7711
39.393
36.9807
323.41
199.546
183.209
146.978
120.897
105.959
92.8849
86.635
83.7118
83.0058
81.8783
79.8068
74.3234
65.8957
58.0122
52.0436
48.8803
46.3814
45.2318
43.8114
234.929
209.932
178.747
134.523
111.504
100.791
91.5467
86.4886
79.9373
75.9449
72.848
71.6517
69.6682
65.303
59.3945
54.2206
50.8851
48.1648
47.1758
45.3699
344.406
265.273
177.98
139.279
115.157
95.921
83.251
78.1673
73.8617
71.4141
67.988
65.3182
62.4325
58.8383
55.2035
51.2104
47.8468
44.6719
43.4193
41.523
202.988
166.902
150.072
138.482
129.971
111.775
98.5377
90.9135
85.2893
81.6435
77.4082
73.5478
69.0814
63.4213
57.7296
51.9348
46.8841
41.0148
37.9081
32.3605
272.366
283.235
216.354
153.141
133.988
114.74
107.578
98.0764
90.6597
86.0142
82.6427
79.5165
73.2257
65.709
59.7439
53.3954
46.3598
38.1989
30.8192
21.7115
223.251
224.594
216.161
190.257
167.586
145.648
121.306
107.193
97.9961
90.9112
86.0284
83.8704
80.4996
71.1458
62.0184
53.7233
43.4503
31.2097
21.5318
16.1289
185.758
238.818
211.454
173.88
150.993
131.31
184.886
153.958
154.825
148.186
136.437
127.606
127.866
124.261
66.814
53.0475
39.1249
27.8244
22.368
22.4024
89.2762
174.62
190.972
166.118
144.73
212.561
328.785
258.496
273.088
237.977
215.977
213.874
194.359
207.812
122.706
54.5967
39.1742
29.9198
29.0078
33.4578
149.199
146.978
158.379
144.391
129.301
191.949
286.922
265.938
264.747
224.251
188.778
201.299
182.979
200.017
128.577
58.7483
44.0247
40.3047
41.4533
45.2098
274.773
173.809
150.348
126.288
121.336
198.257
314.638
273.952
286.465
265.974
182.248
177.168
153.628
169.68
119.588
64.35
55.8171
51.9732
50.4562
49.0662
132.119
162.496
150.914
131.365
119.299
178.299
269.788
211.127
195.574
166.169
151.206
171.003
175.894
165.112
105.948
63.4992
59.0718
54.0454
50.3608
49.0785
102.73
192.281
157.119
139.891
126.551
121.416
188.905
154.454
124.894
94.3284
90.7081
93.4625
98.4296
102.786
61.9576
59.5258
55.9639
51.0245
47.8593
46.4171
114.85
178.745
179.152
154.514
133.641
121.693
104.867
88.0739
73.1448
62.3005
56.5121
52.1406
50.6054
48.9213
48.6796
47.9202
47.0757
45.2623
44.0198
40.2038
155.645
195.047
173.835
163.049
139.755
124.791
105.166
88.0587
71.7757
61.2411
54.5252
50.5377
47.6506
45.2817
43.9256
42.848
42.1935
40.8689
38.8396
34.6546
339.456
236.421
159.869
138.206
119.887
102.426
87.4469
75.9768
66.2942
60.6864
55.6372
52.528
49.3535
46.7093
44.4247
42.4012
41.2518
39.3362
38.1392
35.3342
162.281
101.426
112.288
123.062
110.314
89.6759
78.8127
71.1232
65.5557
62.1741
58.5274
55.8099
52.1671
48.6726
45.0476
41.5292
39.5988
36.9383
35.5792
31.7235
55.2713
107.165
148.074
143.019
126.061
102.391
83.4424
75.5055
69.3739
66.854
62.8402
60.4578
57.6271
55.8567
53.5481
49.9824
46.3787
41.4491
39.1883
34.3247
102.252
121.213
134.614
135.784
128.985
115.485
96.6049
81.8669
70.8764
66.2777
61.4062
57.8931
53.8606
51.0042
49.3532
46.8111
44.6052
40.4911
38.4591
33.9193
129.834
119.496
108.378
102.28
99.9465
100.982
98.9421
90.1545
79.8673
72.1021
67.0739
62.7945
56.8421
48.7768
41.5888
36.1879
33.2348
31.0096
30.1884
28.3623
158.783
109.829
86.5425
81.9091
77.0805
66.9867
55.6028
47.7392
44.1971
42.9061
41.4853
39.6022
36.7335
33.0997
29.0621
25.6585
24.0873
23.7649
23.7528
23.1981
282.954
113.59
89.8852
74.5348
67.4403
63.6783
58.9229
53.8506
50.2951
46.833
45.2029
44.5663
43.9629
42.7111
39.2287
35.0645
32.7209
30.4365
29.2704
26.4088
411.16
128.597
96.9561
73.405
63.6307
58.3991
55.4376
50.2814
45.9064
42.4948
40.3666
39.0323
37.893
36.1484
34.3603
32.2275
30.3242
28.0776
26.8588
24.714
139.853
171.007
118.526
86.4308
64.3131
51.3785
47.3893
44.5564
43.1514
41.5585
40.8818
39.6315
38.0846
35.3543
32.6399
29.4703
26.6542
24.2863
23.025
21.7477
162.031
143.594
97.3089
84.285
68.913
57.3208
51.0488
46.7982
44.5046
42.5374
41.8267
40.4793
39.8113
38.0501
34.8447
30.2861
26.6455
23.2812
21.4515
18.6101
228.257
205.257
120.517
80.8049
64.5416
55.1135
50.5218
46.8871
44.049
42.4113
41.2837
39.9327
38.7512
36.635
33.3663
30.3796
28.4823
24.3552
20.3841
14.2202
182.337
164.385
122.677
92.4706
74.8671
64.385
54.0223
48.7513
44.7591
43.0034
41.1466
39.7154
38.0511
36.2847
34.3526
32.8544
29.6926
21.0771
14.2272
11.0109
187.202
146.921
104.897
81.685
67.1054
56.3265
59.5677
50.0785
46.5451
44.8529
43.8958
41.7938
38.8178
36.8292
33.7145
32.9382
27.1123
17.4034
13.5528
13.2544
239.999
129.549
108.114
81.218
65.6304
67.9703
66.7783
58.8776
51.2393
45.6118
44.7738
45.2359
40.5724
36.7756
34.2443
31.8125
24.6216
17.8765
16.595
18.0976
165.94
126.366
103.755
77.7849
61.591
61.2215
60.311
53.6045
49.296
49.7669
44.5963
41.8963
37.6916
35.0167
32.4583
29.4644
24.759
22.2869
22.4085
23.8332
269.292
138.277
111.245
83.4305
67.2493
66.9775
64.7545
59.1173
56.1459
58.7373
58.7799
40.8865
36.6424
35.0966
32.1026
29.6934
28.097
26.9931
26.5779
26.9786
141.141
144.767
110.352
76.9644
64.5987
65.2591
66.6043
59.3646
57.6042
60.8588
61.7125
33.0592
30.8263
31.9175
32.0514
31.0694
31.2314
31.125
30.446
28.5778
156.405
129.235
88.2722
74.942
69.3755
62.0508
63.9343
59.6875
50.2844
40.378
32.3871
28.4788
27.7748
28.3122
29.2732
31.6665
32.221
31.871
29.9451
26.3519
180.55
128.543
94.6261
81.0016
69.0769
61.4119
52.2812
45.0948
40.3406
35.3748
31.1781
27.8078
26.1516
25.4788
26.249
27.039
27.3049
26.8279
25.4595
23.2071
173.183
120.4
97.5521
86.8576
73.7855
63.6338
52.2232
43.1844
36.4318
31.5142
28.3776
25.9496
24.8794
23.9013
23.532
23.2583
23.2381
23.0013
22.5512
20.7861
232.285
151.295
97.9116
86.8561
73.4099
59.0923
46.6924
37.8344
32.7073
29.8227
27.5433
26.0361
24.8546
23.8003
23.1538
22.2621
21.7494
20.8212
20.1936
18.4825
163.725
186.178
132.775
88.4981
61.79
46.9228
38.4057
33.7717
30.3375
28.7633
27.0369
26.2605
25.2064
24.2342
23.0979
21.8369
20.9492
19.7121
19.0948
17.5233
91.3016
109.271
100.244
76.1437
60.0968
51.134
43.2778
38.5681
34.1855
32.2345
29.9292
28.7446
27.6251
27.167
26.8817
26.2817
25.6572
24.214
22.6377
20.6053
141.049
148.752
112.467
83.6535
68.5906
61.3548
52.5098
45.6604
39.1777
36.1567
32.8173
30.3862
27.6667
25.5637
24.3411
23.3169
22.8414
21.8738
21.3698
20.2072
97.203
93.1615
68.9683
52.1739
51.0163
55.0515
55.2785
51.6417
44.5092
39.9524
36.9117
33.6193
29.3188
25.163
22.1786
19.9552
18.5523
17.4003
16.9555
15.9374
126.92
88.9848
85.2633
82.8368
76.9137
64.7756
54.4177
48.163
44.7419
42.6848
40.4362
37.6333
34.4054
31.1973
28.8188
27.5829
27.1981
26.6846
26.1902
24.4151
304.416
101.846
80.4204
63.0876
58.2089
52.7124
47.1653
44.2349
41.2723
40.5379
39.6246
39.3763
38.51
36.9638
35.0453
33.044
31.4589
29.7158
28.6935
26.8843
334.412
124.733
89.4885
61.4318
52.9071
47.0773
43.9081
41.182
38.2263
36.8905
35.4404
34.8399
33.7074
32.3237
30.8088
29.3034
27.9831
26.6131
25.8923
24.8115
102.526
141.993
114.632
72.7617
51.7164
41.5475
38.5967
36.799
35.5453
34.8312
33.9549
33.1937
31.7623
30.0237
28.0827
26.1973
24.6205
23.4523
22.9339
22.5368
200.57
126.295
90.3025
70.5793
56.4
46.6903
41.456
38.7606
36.8284
35.8363
34.9685
34.2413
32.9948
30.9866
28.5769
25.9354
23.9361
22.4477
21.8208
20.7271
238.456
135.478
91.6395
64.5923
52.8265
43.6348
41.2462
38.0597
36.1812
34.9623
34.0144
33.0885
31.9531
30.1638
27.8905
25.8373
23.8936
21.7378
19.9633
17.0552
416.271
175.195
111.511
82.6499
65.0344
52.6782
43.8214
39.6221
36.8337
35.4408
34.0112
32.9181
31.5178
29.9985
28.5448
26.6035
22.7274
18.3358
15.8568
15.0869
253.517
163.549
101.713
71.9674
57.9164
47.5531
44.9668
40.9511
38.2567
36.8079
35.157
33.3656
31.4164
29.9406
28.4737
26.0371
20.9691
17.5606
16.3627
16.3371
193.445
147.428
111.509
73.2936
56.6522
52.3091
48.9696
45.1262
40.5479
38.3424
37.2421
35.4222
32.1313
30.0304
28.5742
25.3251
21.3798
19.3902
19.3514
19.9974
147.917
136.285
113.627
74.3235
54.2449
48.4527
46.8176
43.4288
40.559
39.6427
40.6844
36.4705
32.148
29.6404
28.1085
26.0592
24.3842
24.0575
24.2521
25.1097
360.957
139.216
113.429
78.9287
59.0551
53.8001
50.0047
46.4987
44.6931
45.0399
99.5641
62.4019
44.7007
33.0137
28.9056
28.654
28.1643
27.9662
27.9985
28.4184
175.1
149.338
122.966
74.3551
54.9497
51.4689
50.7064
46.898
45.4741
47.4349
36.7567
28.9546
29.6185
32.1095
31.4679
30.9966
30.7997
30.3986
29.6937
28.9098
237.228
189.62
91.445
65.7872
58.6669
52.2278
49.6881
46.342
37.4885
30.8767
26.6719
25.3606
25.3809
26.2526
28.0134
29.0924
29.239
28.758
27.2957
25.866
116.169
131.302
86.7025
65.236
57.5368
49.2146
42.1773
35.3311
31.2513
27.1686
24.9219
23.1288
22.6704
22.6243
23.1652
23.7272
24.0788
23.9222
23.3765
22.9975
185.562
129.022
81.085
67.1309
57.6674
48.0878
40.0753
33.4186
28.8069
25.5644
23.5472
22.1357
21.5339
21.1067
21.0865
21.1209
21.2913
21.3703
21.3336
21.1412
187.271
171.38
89.9009
63.5911
52.7861
41.9999
35.2031
30.0719
27.0191
25.0243
23.4583
22.4591
21.6051
21.0121
20.5551
20.2113
19.9253
19.6478
19.3954
19.2163
291.878
157.449
97.0832
61.2724
47.1144
37.3663
32.4706
28.9202
26.6442
25.2406
23.8932
23.1483
22.1095
21.4317
20.5297
19.8632
19.3142
18.8553
18.6695
18.7047
355.626
183.361
104.519
71.1069
54.256
43.8806
36.7743
33.5783
30.3917
29.0531
27.0848
26.1705
24.9547
24.3624
23.6666
23.0026
22.3236
21.6112
21.1055
20.8872
259.327
225.136
128.716
80.8664
63.9464
55.6558
45.5814
40.4766
35.9064
34.1646
31.4025
29.2751
26.7768
24.9817
23.6419
22.5743
21.9545
21.3579
21.0667
20.4799
117.19
124.727
107.975
73.5046
60.5637
59.5615
58.2092
52.7538
46.1878
41.7453
38.0738
33.9171
29.7215
26.1103
23.5972
21.5338
20.2901
19.0582
18.5204
17.2652
40.8281
72.8313
80.2205
78.4092
71.2268
59.9676
51.2939
45.1287
41.0498
38.0411
35.6203
33.4259
31.7915
30.481
29.703
28.8394
28.2455
26.8706
26.0071
23.734
235.03
117.817
81.6034
62.0447
58.5397
49.7603
47.3003
44.714
43.3684
43.0346
42.2723
41.9249
40.9762
40.0872
39.0495
38.0959
37.2144
36.2879
35.628
35.0707
286.382
127.579
89.1811
59.9345
53.8894
45.7682
45.2651
42.2653
41.0919
39.8167
38.7793
37.8983
36.7915
35.6704
34.6675
33.8064
33.1589
32.5932
32.3236
31.9814
164.15
136.401
114.085
68.6964
51.9989
40.6845
40.3632
37.5452
37.5243
36.3228
35.8129
34.8438
33.7345
32.5184
31.4388
30.5206
29.9651
29.803
29.8298
30.0768
199.115
127.208
90.2568
65.4942
56.1779
45.2563
43.0853
39.8413
39.1241
37.8192
37.0852
35.921
34.394
32.565
31.0414
29.7008
29.0862
29.012
29.0728
29.5291
205.856
123.186
90.0006
62.5666
53.9742
42.2674
42.1013
37.9567
37.2425
35.6612
35.2987
34.3913
33.2627
31.6062
29.9728
28.5506
27.6451
27.5179
27.4739
27.7937
254.285
158.254
110.734
79.9319
65.7947
50.1672
44.0146
39.0605
37.7248
36.0271
35.3798
34.2869
32.9401
31.1731
29.5119
27.3748
25.7768
25.7129
25.7077
25.7828
274.372
206.557
108.696
70.9339
59.2996
47.1472
43.6931
40.5472
38.1653
36.7268
35.3521
34.0923
32.6065
30.9616
29.4869
26.7382
25.3792
25.3953
25.1764
24.7344
235.008
176.802
127.474
74.6125
57.901
50.9426
47.3052
43.942
40.519
39.002
37.1631
35.4095
33.4117
31.837
30.4599
28.6303
27.2793
26.754
26.3019
25.5724
209.62
174.459
143.411
82.2862
57.1004
48.3412
45.8768
43.5384
41.2587
39.4502
39.3168
36.3725
34.4355
33.171
32.6821
32.2329
31.2832
30.9557
31.095
31.0813
355.97
168.759
131.465
77.302
58.6786
51.4743
47.5037
45.2653
42.8121
40.7934
63.8556
51.3834
40.9085
35.4588
34.797
35.3208
34.6655
34.7271
34.9382
35.1533
236.126
183.324
143.223
77.7558
56.2233
49.8788
48.0528
44.5441
41.3621
38.8047
34.3147
33.5595
35.4275
36.6085
37.0289
36.7043
35.8208
35.464
35.2613
34.978
450.756
284.859
112.516
65.273
59.4777
50.5526
47.9173
41.6645
35.1045
31.1791
29.9246
30.1285
30.6159
31.5787
32.8052
32.5656
32.61
32.3018
31.9198
31.8105
206.054
144.819
83.7562
61.4189
57.2803
45.9861
41.4147
33.7364
31.0642
27.3902
26.715
25.4959
25.9106
26.0411
26.7532
27.3991
28.12
28.4504
28.6846
29.5285
324.331
156.948
80.4318
59.9756
55.1898
43.3957
39.3402
32.5474
29.7842
26.8149
25.7028
24.5856
24.4755
24.4365
24.6995
25.1471
25.7393
26.4534
26.935
28.27
190.378
139.575
80.7199
55.9876
49.4758
38.2997
35.7095
30.3948
29.1397
26.7421
26.1426
25.0577
24.7287
24.2943
24.2531
24.3267
24.4788
24.8759
25.1865
26.1854
336.066
131.868
86.2748
56.1915
48.3118
37.1266
35.1515
30.707
29.8487
27.7982
27.1983
26.0115
25.3111
24.6243
24.1422
23.9885
24.0454
24.4962
25.0305
26.3873
215.95
145.71
102.801
69.0355
57.2127
43.4017
39.4554
35.288
34.269
32.624
31.4795
30.2755
29.1692
28.3844
27.6229
27.247
27.0773
27.2191
27.6077
28.7056
171.012
167.643
108.09
74.2713
67.1925
56.1306
48.4124
43.5733
40.7911
38.7617
36.154
34.0258
31.6229
30.2175
29.2738
28.7503
28.7419
29.093
29.367
30.1892
139.252
131.616
86.6102
67.0047
64.9057
63.1653
57.0082
48.7969
43.4538
39.0606
35.2369
31.2716
27.9149
24.9501
22.9207
21.1573
20.1848
19.0902
18.5661
17.2234
62.3686
72.1672
75.7459
73.1265
65.0286
53.3954
44.4295
39.613
36.3248
34.4539
33.0119
31.7687
30.7873
29.6049
28.4
26.8457
25.4039
23.8308
22.6797
20.8408
167.765
148.891
89.774
79.4891
65.5807
55.3396
57.5113
50.423
55.0295
50.7755
52.8686
50.4478
51.0635
50.0727
50.4531
50.207
50.3974
50.1225
50.1125
49.8236
607.895
186.251
100.519
81.5556
63.0876
53.1538
54.7182
48.0905
50.8767
46.9736
47.9499
45.4434
45.3783
44.1239
44.2934
44.0286
44.3605
44.4002
44.6109
44.4781
236.369
146.897
123.556
71.1466
62.1627
47.6118
50.4018
43.0629
46.7189
42.6575
44.4056
42.1652
42.4034
41.2438
41.3991
41.1594
41.6241
42.0872
42.5128
42.9948
317.678
158.477
100.688
71.9008
65.1127
51.205
52.8372
45.8693
48.3479
44.8963
45.8655
43.5651
42.8996
41.0873
40.9404
40.6345
41.2137
41.6155
41.8481
42.0451
287.836
157.19
102.936
70.4005
65.1635
49.2229
51.9364
42.7157
44.8363
41.5899
43.0558
41.4669
41.2041
39.7446
39.3518
39.0046
39.5239
39.8636
39.8364
40.3403
243.079
130.157
115.436
79.3656
73.8125
52.1779
52.892
43.6619
45.1559
42.1885
43.5343
41.919
41.1467
39.1842
38.1246
37.4604
37.8267
37.9723
37.5204
37.5328
290.424
176.823
117.938
76.0454
70.4896
51.8479
50.3393
46.1408
45.4162
43.864
44.3726
43.4412
42.9729
41.0028
38.7349
36.8672
36.2908
35.8839
34.9703
34.7841
311.088
195.911
146.548
81.6107
67.5944
55.3395
55.5423
52.8816
50.7932
49.686
49.0259
48.4044
47.5893
46.5955
45.0115
39.0895
37.7733
36.7718
36.1369
34.8434
517.739
228.99
169.651
91.9726
69.6128
54.7703
54.5712
55.2824
54.2223
51.7931
50.7279
50.48
51.1352
50.7869
48.2106
42.5601
41.4549
41.257
41.3545
40.3969
367.692
204.256
151.991
80.8697
68.3898
56.3983
55.9615
56.8363
54.409
51.1118
51.9048
51.8843
53.4532
52.508
49.8676
45.0729
44.3647
44.67
45.2552
45.181
213.899
192.9
153.331
76.7
68.0704
56.8305
57.1045
54.2001
51.9715
50.1512
50.2012
51.4374
52.8325
52.9728
51.0092
46.187
45.2295
45.2454
45.4381
45.2801
258.532
176.104
107.27
70.1805
72.6229
59.0095
54.6887
46.1776
44.2707
41.8104
43.5245
43.4444
44.8836
45.0507
42.8131
41.9836
42.3118
42.7847
43.0928
43.5886
292.294
144.212
94.9646
68.8194
73.0741
51.6875
50.5835
41.5017
39.1247
35.2913
35.8646
34.5744
35.9595
35.8998
37.2445
38.0255
39.3651
40.1389
40.823
42.3296
374.552
154.348
91.4367
66.7201
68.0136
49.0534
50.5857
39.214
39.1477
34.8076
35.2408
33.7081
34.5338
34.4124
35.3245
36.0964
37.3552
38.5029
39.2582
40.9508
234.115
124.997
89.4152
65.1548
63.5833
45.6475
47.7838
37.5381
39.6943
34.6399
36.4467
34.2005
35.5351
34.6588
35.7868
35.8212
36.5911
36.9338
37.2932
38.2083
245.358
123.346
92.4192
61.7882
65.6016
45.0491
49.8918
38.1196
41.3673
35.552
37.5701
34.8668
36.199
35.1231
36.0129
35.8076
36.3552
36.4705
36.7369
37.538
186.483
141.949
116.518
71.0584
70.8382
48.0917
53.188
41.7888
46.0514
40.0223
42.3549
39.3913
40.8933
39.4884
40.3499
39.8933
40.4888
40.5469
40.9303
41.2508
232.898
169.495
126.439
77.4889
88.7636
60.5224
66.8815
51.5482
55.4393
46.9195
47.9447
43.5927
44.827
43.6798
44.8319
44.6364
45.4963
46.0039
46.6122
47.7011
98.2352
83.5617
69.5572
70.462
69.4399
60.9977
48.5531
40.0363
35.3777
31.2547
28.1625
25.4079
23.439
21.6247
20.4681
19.2453
18.6896
17.6501
17.101
15.6582
40.8412
43.8886
81.8894
38.64
39.7029
41.3036
89.2936
37.6678
81.1576
67.0715
39.4042
36.6204
87.2881
65.8818
101.006
49.2418
44.6378
41.3556
109.843
40.9405
36.3819
72.2332
39.9952
31.5553
106.584
71.8908
34.9004
33.232
257.567
308.343
273.147
81.8925
68.5303
77.104
67.521
273.121
279.262
277.115
66.3982
59.3102
63.9259
56.1504
249.391
270.55
242.09
57.3989
51.0736
55.0316
53.9111
215.707
224.44
198.11
50.0217
48.6647
53.6243
49.7068
215.899
198.803
210.762
48.6976
50.0358
48.4008
47.3468
193.769
209.974
188.916
50.2227
47.5227
47.3147
44.8343
206.654
188.801
200.693
45.8265
42.1499
43.2514
40.5778
183.289
203.181
193.207
41.5794
39.6323
40.0828
37.3428
261.289
290.048
265.192
71.2817
62.8568
72.2575
66.3367
267.675
269.322
283.979
60.1863
55.5718
64.6012
61.3598
241.939
284.81
275.116
55.0044
55.5069
61.1546
62.4322
188.287
261.095
188.165
55.4529
50.356
63.5943
60.6651
201.94
178.31
179.506
48.4863
46.44
57.7587
47.7881
182.743
179.369
158.424
46.0052
42.8607
45.5351
40.7311
197.076
157.192
173.276
41.5721
39.7432
39.5196
37.9403
190.067
181.413
178.781
39.435
37.1547
37.8568
36.1561
272.788
292.356
242.051
76.3026
68.6029
78.8738
69.9572
285.379
241.144
240.014
66.5876
62.9984
67.5455
63.6884
278.674
237.43
216.171
62.5121
63.1222
63.4945
64.5673
199.292
212.348
178.857
64.6123
65.9761
65.9363
74.0019
177.071
165.405
169.035
64.5113
48.5613
73.9617
45.2534
156.893
173.088
172.254
44.8981
39.8375
39.8209
35.4563
160.513
169.994
160.421
38.9011
37.554
35.2836
35.2973
174.515
159.231
149.053
37.4726
35.9786
35.4542
34.7459
216.141
336.315
254.7
79.3354
68.8707
88.5474
73.7502
200.698
250.686
223.322
66.2032
63.2097
69.6946
65.5128
170.216
214.416
162.893
63.3353
64.2254
63.4141
55.8059
154.171
152.005
142.338
64.8757
71.3889
51.6124
42.9442
165.784
145.48
153.396
69.5343
40.5661
40.2491
34.5662
176.209
157.884
168.703
36.8847
34.0975
33.6681
32.3108
169.056
171.322
176.145
34.029
34.2866
32.1128
32.0231
149.255
175.77
159.845
34.4779
34.3396
32.0944
32.2077
60.4034
64.5601
58.9842
51.1969
47.8155
50.5925
47.1146
52.9764
56.2372
50.0282
46.8522
43.0148
45.6301
42.0297
46.3211
49.0685
48.2793
41.8238
39.3854
41.3006
40.4834
44.7604
48.1524
45.3308
39.1718
38.4608
40.2958
39.1913
45.2778
44.2909
42.9643
38.3045
37.3202
38.765
37.2277
42.038
42.7774
40.1637
36.8155
33.9528
36.6117
33.7261
37.3374
38.7104
35.9635
33.1059
31.1404
32.7217
30.5951
35.7214
35.4375
33.9667
30.73
29.8653
30.1491
29.0981
55.6309
61.5049
58.473
48.5077
45.8227
49.7137
47.6214
49.7473
57.2297
54.8487
44.6974
42.0846
46.9062
45.4391
49.7899
54.7431
56.1233
41.6753
41.3162
45.262
45.7229
46.0451
57.1216
55.4704
41.1034
40.8953
46.0247
58.2944
42.4275
52.9288
43.7939
40.6375
38.1735
57.9038
52.0924
38.9487
41.8603
38.1537
37.1686
33.8477
49.2029
41.9496
35.4391
37.3516
35.2521
32.7766
30.5241
39.611
32.9009
33.7891
34.6996
33.2516
30.0554
28.99
31.465
29.0585
60.5297
66.7106
61.9053
52.1436
49.0478
53.2931
49.8015
56.4389
60.2282
57.6642
48.2603
46.6486
49.0184
47.9089
57.095
57.6557
59.5392
46.5023
47.4942
47.9927
51.0181
60.4707
61.4113
68.6399
48.1837
60.7082
52.8541
50.6069
43.7269
67.091
39.5122
59.7456
51.4534
44.746
32.1218
37.1286
35.4174
32.2083
48.5773
43.1455
30.8575
30.8361
35.6026
32.1876
32.921
41.8404
35.3998
31.5072
33.6558
33.2511
33.311
33.346
33.3104
29.4353
33.7236
31.9907
61.1814
69.7995
63.619
53.0204
49.5425
54.3952
50.9241
57.5026
61.2525
57.8147
48.7561
47.649
49.8513
45.7583
59.304
55.8609
49.1991
47.6779
50.1168
43.4987
38.6711
65.6524
45.4271
37.5306
51.3597
46.221
35.8063
30.4854
35.9376
35.1733
30.5783
40.4323
30.0823
28.9323
26.599
30.8286
29.8395
28.7513
29.0176
28.6711
26.2346
25.9097
31.5221
28.6509
28.8212
29.0457
30.9125
25.9407
26.5626
32.8134
29.0279
30.1799
31.5424
31.8297
26.9144
28.3426
46.0187
48.5783
45.4067
46.9532
44.231
46.559
44.0125
41.6019
44.1163
40.9172
43.4269
40.5709
43.076
40.6577
38.5211
40.2301
39.298
39.7931
38.3971
40.0782
38.854
37.4875
39.0543
38.332
38.1569
36.8182
38.4832
37.6784
35.9744
37.9717
36.244
36.3967
34.9592
37.2534
35.4822
32.8542
35.5425
32.823
34.4617
32.7265
34.8757
33.1572
30.4161
31.9616
30.0904
32.2126
30.9806
32.6829
31.4825
29.1944
29.6795
28.6715
30.5476
29.2088
31.1437
29.9648
44.4275
47.8746
45.9922
45.3895
43.4625
46.0362
44.5079
41.0027
45.3341
43.8614
42.7289
40.741
43.9954
42.3578
39.9046
43.5837
43.5939
40.2483
38.9686
41.7683
40.2711
43.5998
39.7255
40.8366
38.7818
42.4338
39.133
39.9614
52.1327
40.0516
49.5627
40.7465
48.6212
39.9417
54.2611
33.1231
60.1264
44.4322
35.6752
33.4559
58.0739
41.7452
30.0826
40.5985
32.5868
32.9026
31.6075
38.6984
33.4155
28.5849
31.1307
28.7976
31.2632
30.1103
32.5125
31.0177
47.2141
50.965
47.7794
47.3388
45.25
47.9354
45.2751
44.9322
47.0921
45.9422
44.7035
42.9809
44.6737
42.847
45.2336
45.971
48.3008
42.3927
40.9345
42.4354
41.62
50.972
76.4266
47.7886
48.8058
50.9097
248.052
45.0378
48.7794
93.5604
48.5804
215.89
45.5294
201.103
50.4527
47.8317
30.8819
31.7255
61.7885
45.1636
33.3624
35.168
35.2761
32.525
34.3624
41.8997
35.0948
35.7553
36.0627
29.202
34.2212
32.0185
33.7488
31.4671
35.6022
34.1176
47.6021
51.8812
48.9856
47.9208
45.1386
49.3059
46.1046
45.5538
47.6647
42.9629
44.3658
42.0168
44.0529
38.3452
47.0869
40.9292
36.2951
41.4787
40.3091
36.8493
33.5793
40.9828
33.9629
29.345
39.4468
34.7523
32.2309
29.666
29.6278
28.1777
26.464
33.364
31.5844
29.2801
29.0885
29.1233
26.2496
26.0972
31.5897
32.6918
29.1358
29.3525
31.5456
26.1531
26.877
33.2179
34.4996
29.491
30.3541
31.9324
27.2471
28.5736
34.652
34.2596
30.6654
31.5765
44.7939
47.0013
44.6871
52.3389
50.4657
52.2312
51.3849
41.2445
43.8423
41.6522
49.4902
47.3029
50.8639
49.4855
39.2893
41.1187
39.8248
46.9696
46.2286
49.1411
47.5342
37.5985
39.4099
38.3714
45.7994
44.8334
46.9794
45.7715
35.8742
37.9277
36.3371
44.651
44.162
45.4851
44.8849
33.8881
35.8396
34.5834
43.7678
42.923
44.8899
45.2556
32.3136
34.236
33.2735
42.617
41.9625
45.2075
44.8645
30.2993
32.9681
31.7425
41.4028
39.9998
44.7457
44.07
44.1871
46.3784
45.1208
51.0699
50.9983
51.2846
51.9096
41.7381
44.6716
43.034
50.7217
49.7289
51.7627
50.4744
39.8494
42.3687
40.4141
49.3684
47.4229
49.6054
46.996
39.6473
40.7782
61.0287
46.8685
45.8938
46.4425
48.4483
37.0992
60.5967
53.124
45.603
44.7645
48.623
47.5752
34.8097
49.6024
40.5516
44.6837
45.4801
46.9828
47.1254
33.4654
38.6584
35.0886
45.5472
45.2918
47.3535
46.8047
31.9923
34.4185
33.1536
45.1953
44.5075
46.5813
45.7427
45.7603
48.0304
45.5929
52.2561
52.4582
52.8491
51.6999
43.4855
44.9893
42.9416
52.18
50.5493
51.0649
48.9612
40.8129
42.4136
40.9318
49.6296
46.8716
48.4515
46.1432
64.1045
40.0749
36.446
46.1619
47.9701
45.3746
44.1264
55.0896
35.5061
34.7638
48.3265
47.8409
44.1188
44.6823
42.9014
34.9786
36.8461
47.33
47.9191
45.1773
47.6608
36.4173
37.3806
37.5785
48.1569
47.4632
48.0963
48.2539
33.6208
37.2276
36.051
47.1781
46.2108
48.1571
47.5812
45.3797
49.4325
45.9354
53.0599
50.9238
53.8922
48.8133
41.9747
43.6468
38.0442
50.0266
47.7271
46.3226
42.5515
39.7521
36.8186
34.1321
47.329
45.6207
42.488
41.5294
35.1918
32.9894
31.1132
44.9019
43.9728
40.9617
41.1024
33.4574
30.9381
31.2068
44.0495
44.78
41.6983
42.7284
34.912
31.2945
31.5897
45.2564
47.1186
42.7198
43.2286
36.5139
31.7578
32.6547
47.4675
47.9114
43.5636
44.3837
36.2127
32.9234
33.5124
47.9294
47.7212
44.3913
44.4459
53.9254
55.7366
55.7247
69.9553
68.4453
70.1943
72.6525
50.9718
55.3221
54.1841
66.5539
65.0372
72.1672
70.7058
50.1988
53.8908
52.3684
65.2934
64.3309
70.3625
71.1858
49.0913
51.8291
50.8755
62.6464
63.0655
71.2469
71.399
48.7873
50.7208
50.544
62.9788
63.248
71.2502
70.3125
47.8107
50.5928
50.7801
62.5472
62.9348
69.4488
67.1692
47.068
50.7149
50.4169
62.8126
63.0805
66.8067
66.5494
45.1137
50.3637
49.425
62.9067
60.8388
66.6598
64.9481
55.411
54.8872
56.4528
69.0123
72.7526
69.7551
74.5759
54.5441
56.4119
55.2565
72.5862
71.5617
74.4532
73.4655
52.3374
54.4517
51.9894
71.5469
73.6824
74.1435
78.3712
50.9147
51.3828
52.1332
74.053
74.2935
79.1871
80.4695
50.3792
52.3144
51.8175
74.1084
72.8473
80.5887
79.0253
51.1328
51.645
52.7008
71.7524
68.2085
77.2761
71.3647
50.8445
52.8264
52.2385
67.5022
66.8108
69.8701
67.8232
49.7658
52.0419
50.6969
66.8404
64.7929
67.5747
64.9838
57.0393
56.7998
56.1297
71.6484
75.6813
75.5569
74.9559
55.2733
55.4788
53.4952
75.2695
73.626
73.9167
71.5914
51.8089
53.0533
51.0591
74.203
78.3278
71.3338
73.3681
51.5967
50.4457
49.8664
79.1312
80.3966
74.2145
74.9693
51.9519
50.0246
50.86
80.6941
79.5141
75.0616
74.3675
53.3071
51.4377
53.1535
77.7226
71.8556
73.4998
70.3713
52.7539
53.406
53.2909
70.3577
68.1573
69.626
68.4598
51.1203
53.1935
52.1822
67.8798
65.2502
68.3058
66.2721
55.0793
57.4243
51.4721
78.117
73.1887
72.3076
63.6079
52.2512
49.1688
46.5341
72.0817
70.3732
62.7379
64.6755
50.6502
46.8449
46.1805
69.8274
70.696
63.5053
61.3069
49.9405
45.7778
46.3556
71.3684
72.2651
61.3924
63.2085
51.0752
47.0253
47.8766
72.4013
71.8426
63.3872
62.9916
52.6339
47.808
48.3396
71.2406
69.2397
62.9018
63.8378
52.9842
48.675
49.3141
68.903
68.2018
64.0596
63.9996
52.3233
49.2536
48.8627
68.1578
66.5116
63.933
62.8623
51.7975
40.3621
49.553
40.967
46.8426
40.3487
54.8646
71.5658
42.7975
61.96
47.5418
50.8754
42.7831
192.875
108.766
70.6669
78.9216
222.094
65.2856
113.861
243.214
43.3269
38.4447
38.8117
39.3006
38.8237
39.4553
41.3667
50.811
40.4169
39.4929
47.2685
39.9759
52.9379
45.809
72.66
47.6031
40.6761
65.069
42.1822
200.627
51.1771
105.006
226.893
68.5537
86.7779
106.383
249.861
65.6529
48.0096
38.9149
42.9113
37.2082
46.1973
38.5991
43.4828
100.886
70.5541
79.0329
208.14
68.736
109.816
192.103
84.1075
56.6161
75.525
95.6295
64.7532
64.5049
131.425
49.8401
40.1326
38.6417
46.7821
39.2837
52.0777
45.3565
46.2413
36.7646
37.6326
40.5866
38.0322
42.3467
43.0702
91.8692
210.795
67.0583
83.7576
100.901
196.368
63.8564
77.8926
93.3834
51.6795
76.5289
61.3904
136.453
58.5634
52.894
96.9293
51.2843
228.215
52.0738
238.135
52.3526
45.7236
49.0821
49.2217
45.7276
49.3989
45.7678
45.18
44.7739
46.2654
48.0324
40.2462
48.741
42.4308
43.3673
48.2139
48.2833
81.8235
41.1378
238.042
42.7056
43.8364
50.8494
227.681
107.466
46.4476
239.241
50.848
46.0306
42.6556
42.9078
41.2413
39.7332
43.0792
41.8887
40.5361
41.6043
37.5724
38.5146
38.0948
39.9019
39.9504
39.6299
47.7694
89.7382
42.7173
118.409
43.8344
183.057
47.1181
37.3659
42.2228
35.9529
36.9426
38.577
39.6426
34.2618
35.9775
34.8367
33.1313
31.6164
36.0779
35.5433
32.4881
49.5446
214.539
99.1086
46.3629
199.873
50.0672
46.4004
49.3537
110.618
91.3578
47.3527
172.474
49.1565
47.0707
36.8874
35.3207
37.499
33.8728
38.1573
33.6215
36.8808
36.2989
32.1979
37.0332
33.335
36.345
32.5911
36.7693
151.586
182.816
169.359
99.8624
72.04
97.1554
78.4112
155.524
169.241
170.994
64.9042
62.194
72.0506
68.746
150.736
170.189
165.897
60.2434
57.5042
65.8446
62.6878
142.264
156.756
151.805
57.4553
57.0777
60.3821
59.5521
129.794
148.33
143.782
56.7182
55.8214
59.5525
59.5226
127.3
136.181
132.006
55.018
52.9962
59.1448
56.7592
127.458
131.297
131.199
51.8272
50.2653
53.9268
51.8717
108.948
129.236
119.259
50.0764
45.7644
50.6016
45.3319
197.729
207.061
195.067
111.432
98.3268
109.08
92.1839
143.999
288.529
314.303
172.714
141.505
172.497
286.798
105.448
262.647
266.742
104.477
100.615
109.635
271.493
98.4286
270.562
275.247
94.4078
91.8541
100.099
270.564
84.4594
224.976
234.838
78.5655
75.2434
87.4309
224.575
82.434
216.27
217.597
74.259
75.3955
82.1741
219.041
85.5556
205.204
217.717
80.7473
80.7263
85.8116
210.112
78.0999
197.374
196.856
77.2088
75.6416
80.4311
198.505
74.875
207.163
209.791
73.6156
73.4982
75.3954
209.508
105.514
128.427
108.318
46.8516
48.4899
44.6836
44.2985
181.659
186.869
179.481
100.51
82.5258
99.7433
81.3756
123.99
259.4
277.42
155.574
128.393
152.944
255.447
97.5505
268.271
262.663
101.385
98.8491
99.1584
265.937
96.5174
260.113
266.966
95.2274
94.499
96.2405
263.987
92.1878
205.507
228.917
90.6501
86.6601
95.1549
207.472
73.9056
192.961
181.971
74.4441
74.3977
74.2836
183.561
74.3092
195.054
191.646
76.4211
75.2453
75.7133
185.776
65.986
185.418
174.862
68.7115
68.7363
65.9746
177.774
70.1635
200.879
195.621
71.3956
71.4408
69.7233
197.287
110.31
125.326
112.749
43.8822
41.7067
43.0201
40.594
192.025
191.848
182.138
102.853
88.0439
102.831
90.0911
141.404
286.642
316.071
167.301
141.2
167.573
286.418
105.486
276.991
265.943
110.104
106.772
108.945
268.592
103.753
285.988
279.648
104.616
104.476
104.076
279.488
104.872
245.207
261.984
104.8
104.524
104.571
247.115
94.1039
175.539
184.103
85.7088
84.3219
96.1117
174.891
70.6437
174.868
175.554
76.1344
72.4609
75.3665
174.188
62.0607
153.508
154.421
64.1364
61.0031
64.3478
152.84
59.9098
176.18
159.002
60.8122
62.8479
59.2544
165.621
109.3
110.366
104.554
41.8631
37.9019
40.3719
36.2638
167.485
191.616
186.312
100.597
91.8115
104.426
101.822
140.167
241.046
276.58
152.338
134.52
156.272
247.884
100.795
207.44
208.432
101.813
97.5617
106.044
202.708
96.2196
188.003
188.045
95.0368
96.0366
96.7038
179.096
78.4639
164.273
152.559
90.815
89.3853
80.7136
150.736
77.0824
151.853
144.767
94.1484
91.6414
83.5634
147.297
59.9331
174.114
167.089
63.5359
61.8721
60.3001
171.808
60.2127
174.513
178.211
61.109
60.9149
60.1057
177.964
59.2989
161.562
173.07
59.4308
58.7814
59.9017
167.455
97.7422
108.39
94.0884
38.8575
34.2576
36.8786
31.3136
168.036
192.871
170.315
105.434
88.0931
103.53
86.2269
141.759
154.647
146.485
78.2909
72.4724
77.364
73.5012
106.439
128.329
108.455
65.3475
60.9392
66.0692
60.6863
91.2547
98.4513
96.1539
53.2496
47.3876
55.5464
52.0926
91.5512
91.7363