/*--------------------------------*- C++ -*----------------------------------*\
  =========                 |
  \\      /  F ield         | OpenFOAM: The Open Source CFD Toolbox
   \\    /   O peration     | Website:  https://openfoam.org
    \\  /    A nd           | Version:  10
     \\/     M anipulation  |
\*---------------------------------------------------------------------------*/
FoamFile
{
    format      ascii;
    class       volScalarField;
    location    "2.4";
    object      p;
}
// * * * * * * * * * * * * * * * * * * * * * * * * * * * * * * * * * * * * * //

dimensions      [0 2 -2 0 0 0 0];

internalField   nonuniform List<scalar> 
12920
(
1.8295e+06
1.64308e+06
1.31608e+06
1.25038e+06
1.03871e+06
967967
852498
786350
701418
639209
570489
511729
450475
393491
335350
279192
223032
167422
111787
54098.5
1.79289e+06
1.55195e+06
1.31307e+06
1.20962e+06
1.01606e+06
953922
839005
779681
696055
636957
568768
510607
449570
392830
335129
278891
222572
166946
110922
52969.3
1.43071e+06
1.42433e+06
1.2158e+06
1.15982e+06
990846
936761
824197
768567
688273
631045
564629
507889
447716
391808
334601
278463
221900
166177
109734
51804
1.10506e+06
1.2963e+06
1.17379e+06
1.10759e+06
970292
915660
811316
758289
680680
625255
560493
504805
445781
390379
333633
277533
221010
165238
108660
50844
1.48104e+06
1.24852e+06
1.0674e+06
1.03312e+06
929034
888009
796683
746227
673139
618151
555315
500410
442624
387863
331659
275871
219507
164035
107519
49973.8
850008
1.02433e+06
1.01103e+06
997948
911396
873457
787431
737134
667992
612360
551748
496875
440318
385840
329751
274020
218047
162813
106359
48445
941792
1.01363e+06
940324
946095
875727
850301
776024
726223
660965
606735
547699
493746
437689
383546
327454
271797
216411
161990
105555
47022.1
737073
949421
891295
917282
855541
832210
783871
729393
671164
615480
559122
504061
448838
393878
324145
269282
214806
160862
104537
46282.8
618273
878403
805186
870962
816233
815596
778586
729275
674064
619058
563791
508853
453969
398139
333664
266239
212826
159393
103444
45938.1
924122
956012
889539
906451
836802
816075
773183
723068
669892
615883
561655
506814
452188
396136
331680
263927
211101
157736
102601
46595.5
600257
970637
873328
920328
832072
817193
772550
720972
667566
613645
559595
505084
449881
393874
329639
262379
209699
156610
102153
47303.5
969739
1.02688e+06
951362
941507
861870
825976
776575
721827
667145
612809
558775
503342
446946
391085
328086
261090
208703
155815
101888
47399.5
1.21273e+06
1.12927e+06
1.00454e+06
961150
863764
821799
770439
716595
660777
606465
550510
494522
437796
381868
313505
260820
207920
155431
101490
46823.6
1.44209e+06
1.23157e+06
1.05744e+06
977426
885533
828690
761398
708025
648204
594701
536648
481638
424113
368724
313773
260724
207611
155243
101103
46210.7
1.08418e+06
1.13665e+06
995239
955361
870456
824149
758005
706221
647615
593991
536730
481689
424984
369972
314350
260708
207851
155382
101006
45677.9
1.07099e+06
1.13683e+06
1.03769e+06
967679
879635
825085
758950
707147
646654
594390
535952
482217
425147
371046
315536
261976
208208
155766
101363
45379.2
881634
1.02968e+06
938295
924641
861588
815230
753665
704011
645026
593139
535577
482067
425604
371748
316611
263161
209445
156836
101946
45610.7
1.00101e+06
1.04195e+06
960366
928940
855779
811080
750354
702207
643627
592749
535297
482479
426101
372569
317391
264087
210396
157642
102902
46752.5
958495
914045
873555
882362
837162
802548
746172
700200
642503
591693
534844
482071
426197
372984
318085
264832
211066
158203
103634
47294
975674
898014
893643
889402
836672
800410
744105
698689
641461
591476
534702
482229
426560
373521
318646
265338
211471
158495
104029
47545.2
1.85059e+06
1.67793e+06
1.31885e+06
1.25195e+06
1.03826e+06
968748
852744
786585
701195
639241
570369
511721
450439
393511
335306
279204
223043
167390
111628
53655.9
1.73399e+06
1.54557e+06
1.3065e+06
1.21274e+06
1.01721e+06
953423
838057
778972
695597
636820
568650
510601
449525
392856
335107
278947
222586
166906
110675
52432.6
1.37853e+06
1.41913e+06
1.21657e+06
1.16183e+06
993396
936479
824788
768558
688132
631029
564502
507908
447642
391894
334674
278540
221861
166089
109427
50920.3
1.16101e+06
1.2986e+06
1.17516e+06
1.10746e+06
970972
915206
811624
758159
680505
625210
560330
504875
445757
390473
333741
277627
220962
165125
108300
49918.3
1.42316e+06
1.24533e+06
1.06425e+06
1.03238e+06
929848
887883
796828
746112
672917
618066
555062
500410
442664
387958
331758
275933
219431
163927
107149
49093.6
905172
1.04239e+06
1.00384e+06
996172
911227
873547
787296
737087
667570
612152
551454
496754
440314
385948
329863
274041
217978
162699
105991
47779.8
1.00031e+06
1.01662e+06
935428
943747
874759
850189
775880
726082
660637
606587
547500
493807
437777
383569
327373
271799
216296
161854
105199
46450.9
795439
966882
894638
916613
854726
832205
783721
729321
671050
615378
558984
504056
448875
393853
324203
269312
214742
160775
104304
45639.9
779415
901003
804336
872363
816843
815364
779281
729219
674038
619070
563766
508974
454055
398102
333310
266357
212747
159242
103212
45252
843482
964701
887789
906922
837441
816569
773855
723067
669847
615745
561456
506899
452212
396036
331490
263996
211010
157608
102391
46097.4
676832
961387
874991
920810
832314
817869
773122
720965
667482
613506
559677
505065
449973
393882
329461
262382
209620
156540
101968
46858.6
1.01011e+06
1.03676e+06
955441
942394
862691
826768
777213
721942
667182
612860
558824
503229
446863
391067
327833
261067
208585
155762
101680
46808
1.24782e+06
1.1258e+06
1.00718e+06
961596
864299
822136
770579
716614
660887
606331
550387
494349
437712
381854
313286
260737
207841
155379
101267
46396.1
1.42022e+06
1.22994e+06
1.05678e+06
978813
885672
828844
761482
708031
648305
594641
536636
481531
423969
368580
313594
260531
207507
155169
100867
45778.6
1.17875e+06
1.14401e+06
1.00055e+06
955460
870646
824082
758114
706241
647660
593993
536739
481667
424946
369912
314229
260611
207710
155265
100776
45339
1.09582e+06
1.1469e+06
1.04031e+06
967595
879654
825078
759131
707170
646907
594400
535951
482188
425101
370991
315522
261951
208117
155640
101031
44970.8
1.01415e+06
1.0427e+06
943784
927660
861362
815397
753783
704005
645109
593128
535585
482043
425574
371714
316581
263132
209394
156746
101715
45138.1
1.12715e+06
1.05088e+06
963193
928110
856025
811064
750440
702222
643662
592712
535273
482453
426072
372549
317371
264060
210367
157628
102750
46157.1
890494
898539
876794
882004
837235
802636
746188
700030
642469
591749
534887
482062
426160
372988
318075
264806
211051
158200
103567
47042
861677
893919
893713
888630
835909
800007
744134
698720
641406
591486
534706
482279
426639
373565
318652
265345
211459
158481
103960
47400.2
1.83756e+06
1.66342e+06
1.31738e+06
1.25249e+06
1.03742e+06
969184
853095
786543
700698
639107
570280
511889
450496
393459
335347
279189
222915
167305
111331
52814.3
1.69427e+06
1.55733e+06
1.30353e+06
1.2151e+06
1.02051e+06
954074
837908
778295
695095
636511
568409
510767
449604
392962
335210
278984
222485
166789
110151
50846.5
1.2463e+06
1.42261e+06
1.213e+06
1.16606e+06
996646
937407
825898
768056
687865
630888
564194
507958
447501
392012
334915
278700
221736
165918
108803
48862.9
1.27798e+06
1.31313e+06
1.1791e+06
1.11086e+06
972947
914655
812453
757853
680366
625152
560003
504992
445670
390595
334003
277792
220855
164901
107580
47765.2
1.30662e+06
1.24117e+06
1.06072e+06
1.03195e+06
930934
887954
797299
745915
672733
617987
554621
500501
442786
388122
332057
276056
219335
163705
106437
46990.2
787081
1.05203e+06
995613
994197
911858
873690
787249
737088
667031
611856
550760
496655
440405
386208
330119
274159
217861
162507
105315
46012.5
994077
1.03554e+06
927314
941986
874184
850412
776125
725855
659931
605995
546884
493873
437912
383691
327450
271883
216139
161630
104540
44505
692352
953684
891889
915326
854426
832337
783760
729032
670732
614838
558545
503912
448829
393737
324316
269473
214628
160647
103866
43256.2
742069
924410
802992
872259
818667
815579
779698
729234
674052
619026
563644
508987
453959
397834
333289
266509
212583
159134
102801
43564.6
929786
991919
887673
909109
838844
817434
774572
723149
669937
615716
561367
506994
452215
396005
331537
264022
210825
157459
101943
44750.3
802831
997110
878457
922454
833852
819097
774077
721126
667564
611617
559493
505163
450139
393893
329403
262341
209522
156448
101545
45440.5
1.13873e+06
1.0615e+06
956946
941162
863524
827824
778159
722103
667285
613009
558658
502993
446852
391099
327569
260949
208448
155672
101210
45362.9
1.16536e+06
1.12145e+06
1.00816e+06
961232
865441
822787
771507
716763
661199
606076
550248
494166
437675
381693
312947
260583
207695
155274
100767
45061.2
1.41801e+06
1.23868e+06
1.06406e+06
979837
886549
829107
762040
708249
648446
594620
536620
481378
423828
368605
313269
260164
207302
155012
100391
44666
1.21101e+06
1.1434e+06
1.01193e+06
955537
871222
824065
758140
706277
647794
594065
536786
481664
424902
369833
314198
260528
207473
155056
100239
44083.6
1.31724e+06
1.17787e+06
1.05185e+06
967758
880099
825084
759344
707230
647269
594479
535992
482170
425070
370914
315498
261854
208023
155476
100452
43909.6
1.18823e+06
1.05457e+06
957452
928920
861375
815448
753946
704020
645271
593176
535635
482044
425563
371682
316547
263085
209335
156635
101265
44076.1
1.16754e+06
1.08056e+06
970407
928204
856303
811044
750567
702165
643755
592726
535309
482448
426061
372531
317356
264036
210304
157550
102271
45032.2
878814
894037
878338
879754
836670
802356
746142
699914
642470
591805
534935
482118
426308
373053
318105
264817
211040
158176
103211
46293.5
770567
884807
888150
884596
835076
799566
744021
698726
641428
591521
534733
482379
426752
373588
318610
265331
211436
158473
103839
47086.5
1.71418e+06
1.66382e+06
1.31338e+06
1.25046e+06
1.03719e+06
969176
853323
786501
700018
638922
570201
512006
450393
393366
335192
279083
222850
167268
111047
51348
1.76086e+06
1.55312e+06
1.30019e+06
1.21534e+06
1.02482e+06
954790
839270
777322
694695
636011
568230
510942
449615
392958
335212
279001
222368
166667
109532
47400.2
1.2886e+06
1.41203e+06
1.20843e+06
1.16629e+06
1.00121e+06
937807
828598
767239
687709
630539
563685
508040
447081
392067
335288
279042
221632
165754
107844
44896.8
1.43141e+06
1.32191e+06
1.17742e+06
1.11184e+06
973000
915293
815298
757382
680398
625020
559496
505102
445284
390738
334499
278160
220794
164654
106398
43773.5
1.29332e+06
1.23955e+06
1.05693e+06
1.03237e+06
931960
887851
798561
745559
672634
617873
553839
500518
442801
388346
332623
276366
219223
163466
105244
43023.8
686996
1.05637e+06
989138
992474
912768
872679
788690
737363
666562
611600
549752
496591
440516
386597
330525
274397
217734
162305
104310
42111.1
858195
1.01931e+06
925939
939902
873760
850214
776909
725317
659392
605599
546134
494070
438169
383714
327595
272042
216043
161402
103572
40545.8
770048
959422
902414
915503
854709
832362
784345
729457
670308
614100
557862
503611
448782
393565
324672
269781
214558
160442
103121
39138.4
846823
947840
806125
873575
820218
815608
780080
729369
674126
618989
563444
508910
453851
397731
333509
266852
212378
159038
102138
39581.3
894097
1.00524e+06
885965
910700
839977
818047
774906
723330
670164
615870
561327
507003
452213
396121
331967
264123
210688
157308
101232
41314.6
989481
1.01212e+06
883256
922927
835536
819912
774545
721376
667898
613455
559849
505192
450066
393875
329643
262426
209488
156327
100805
42106.6
1.21492e+06
1.08339e+06
960405
940624
864306
828478
778826
722428
667642
613202
558426
502905
446947
391126
327444
260928
208279
155459
100446
42213.4
1.10571e+06
1.12779e+06
1.01139e+06
962250
867051
823061
772869
716898
661735
605801
550271
494041
437801
381556
312644
260226
207500
155174
100117
42090.6
1.40898e+06
1.22532e+06
1.06615e+06
980955
887090
829509
762591
708369
648527
594511
536574
481267
423834
368697
313079
259915
207073
154860
99686.6
41703.3
1.16938e+06
1.14392e+06
1.01953e+06
954963
872434
824045
757880
706280
647912
594092
536863
481665
424922
369819
314258
260533
207201
154786
99416.5
41223.4
1.36964e+06
1.18356e+06
1.05929e+06
967058
880530
825113
759573
707285
647571
594530
536151
482193
425088
370862
315464
261778
208006
155406
99504.2
40974.9
1.11564e+06
1.06501e+06
966184
929274
861842
815538
754148
704065
645479
593201
535733
482056
425566
371645
316471
263025
209274
156536
100558
41549.5
1.20382e+06
1.05642e+06
976802
927119
856645
810944
750625
702087
643871
592753
535393
482465
426066
372468
317304
264005
210230
157462
101564
42552.3
884820
884390
882683
880648
837043
802261
746148
699770
642541
591933
535247
482462
426489
373116
318107
264803
211012
158168
102898
44699
829293
884723
889966
882195
834689
799121
743757
698682
641492
591640
534923
482500
426825
373580
318598
265305
211408
158482
103736
46591.6
1.82492e+06
1.67248e+06
1.32124e+06
1.24995e+06
1.03836e+06
968643
853839
786348
699264
638572
569880
511986
450233
393294
335110
279017
222760
167239
110916
49769
1.61512e+06
1.54743e+06
1.29697e+06
1.21615e+06
1.02642e+06
957328
840198
777971
695554
635552
568725
511244
449085
392781
335204
279043
222246
166609
109125
42535
1.15841e+06
1.42296e+06
1.19989e+06
1.16654e+06
1.00288e+06
940214
829024
768148
689649
630393
563112
508294
446227
391979
336006
279701
221491
165701
106885
39504.5
1.41809e+06
1.32672e+06
1.17871e+06
1.11399e+06
973814
915785
816518
757410
682537
625023
558975
505236
444504
390914
335345
278819
220758
164497
105356
38553.5
1.2406e+06
1.22759e+06
1.05599e+06
1.03278e+06
932164
887930
801061
745518
674158
618027
552716
500536
442831
388735
333667
276871
218962
163307
104145
37764.5
686682
1.06426e+06
987814
992478
912518
872475
790657
736998
668440
611915
548936
496654
440646
387243
331042
274748
217704
162293
103189
36638.4
854498
1.02116e+06
918601
936844
873924
848080
777308
725153
660963
606213
545501
494734
438611
383593
327833
272466
216124
161178
102358
35612.7
746327
968949
897556
914625
854847
831659
785011
730172
670336
614874
557366
503228
448948
393834
324541
270404
214553
160100
102123
34978.8
854507
948225
808747
872005
821188
815902
780566
729574
674252
618901
563198
508736
453795
397923
334297
267493
212248
159032
101472
35185.3
946705
1.02127e+06
885297
913239
840626
818256
775087
723584
670441
616009
561417
507082
452337
396281
332713
264044
210444
157181
100545
37108.6
995598
1.02094e+06
887338
921226
837929
820776
774630
721625
668285
614122
559807
505182
449956
393867
330378
261943
208871
156119
99786.4
37900.8
1.04816e+06
1.07632e+06
958356
939194
864634
828404
779101
722818
668040
613396
558434
502996
447104
391167
327909
260990
208121
155376
99771.3
38202.4
1.12441e+06
1.13124e+06
1.01078e+06
964921
868187
823240
773952
717248
662320
605834
550687
494135
438198
381877
312739
260199
207420
155113
99710.6
38309.7
1.40268e+06
1.22453e+06
1.06743e+06
981621
887902
830062
763059
708349
648595
594514
536553
481437
424008
368940
313205
259929
207014
154846
99111
37948.9
1.22171e+06
1.1428e+06
1.02362e+06
955125
873255
824297
758023
706168
648042
594028
536961
481720
425021
369922
314414
260624
207158
154764
98617.4
37621.2
1.27864e+06
1.19008e+06
1.0644e+06
966662
880886
825138
759727
707226
647747
594556
536487
482312
425188
370958
315499
261808
208136
155472
98666.8
37512
1.18387e+06
1.07365e+06
973190
929673
862442
815552
754257
704172
645672
593174
535838
482057
425619
371634
316486
262993
209250
156517
99838.9
38110.5
1.0171e+06
1.04833e+06
978136
926182
856797
810831
750634
702021
644026
592789
535486
482463
426086
372382
317187
263966
210171
157490
101227
39361.4
837460
878964
885857
880653
837210
801860
746188
699729
642721
592099
535461
482605
426517
373049
318035
264765
210969
158191
102817
42884.9
765855
870405
884281
879336
834206
798912
743804
698672
641613
591707
535043
482608
426854
373582
318563
265268
211383
158491
103696
46135.8
574957
611763
573021
615817
574926
611901
572965
520586
559419
520395
561327
520600
559374
520293
573100
613010
572505
611818
573391
613196
572432
520219
558882
517400
559730
520211
558717
517263
743184
772765
737020
779189
743310
773145
736964
688720
724377
684452
729237
688697
724285
684354
633560
670874
630155
674019
633601
670798
630101
578324
616617
575973
619042
578212
616556
575796
523207
562226
520926
563729
523240
562065
520966
468401
507316
466442
508899
468405
507357
466473
412795
452684
410780
454005
412666
452701
410748
355838
396617
353907
398104
355604
396557
353557
735860
772118
733922
773712
735875
772514
733956
683382
721075
681387
723058
683316
721064
681313
629409
667985
627510
669848
629300
667893
627368
575294
613987
573501
615764
575158
613867
573438
520404
560010
519111
561496
520455
559931
519128
465922
505450
464328
506868
465950
505477
464363
410249
450552
408651
452207
410230
450608
408641
353213
394449
351480
396072
352861
394416
351256
734006
774574
734730
772971
734005
775009
734849
681007
721371
680560
720951
680952
721432
680595
627089
666993
626403
667488
626985
667007
626407
573187
612874
572283
613550
573166
612883
572390
518790
558871
517878
559659
518788
558965
517818
463688
503841
461664
505075
463711
503774
461603
408012
447639
405677
449917
407975
447585
405682
350867
391687
349546
393868
350730
391674
349387
735436
777124
737792
777059
735563
777324
737834
680791
722834
682058
721913
680802
722850
682043
626480
667109
627748
667164
626482
667075
627719
572233
613043
572422
612847
572326
613008
572393
517446
557549
516792
558821
517406
557508
516714
461062
501796
460254
503277
461002
501693
460185
405039
445169
404011
446884
405024
445146
404035
349187
389389
348891
391068
348996
389396
348665
743322
773242
736956
779740
743442
773903
736981
688705
724263
684337
729213
688653
724247
684357
633626
670796
630096
674020
633579
670848
630122
578221
616550
575723
618996
578027
616514
575609
523298
562038
521004
563635
523248
561969
521069
468446
507388
466480
508957
468298
507459
466472
412629
452700
410729
453946
412301
452666
410666
355688
396527
353535
397887
355493
396462
353338
735888
772655
733988
774516
735967
773336
734135
683314
721078
681308
723120
683356
721182
681370
629280
667881
627333
669899
629283
667915
627232
575096
613824
573401
615719
574972
613423
573077
520490
559866
519122
561381
520568
559460
519624
465964
505477
464388
506976
465987
505585
464536
410210
450638
408623
452213
410146
450770
408656
352847
394429
351253
395996
352699
394437
351117
734033
775081
734889
773996
734176
775803
735012
680953
721459
680624
721072
681024
721547
680757
626971
667020
626411
667524
626945
667108
626491
573206
612886
572436
613083
573444
612962
572515
518762
558992
517757
559813
519216
558935
517507
463729
503718
461573
505203
463900
503493
461513
407995
447565
405690
450106
408079
447552
405748
350732
391679
349377
393893
350590
391724
349195
735608
777302
737805
778025
735752
778074
737995
680830
722833
682053
722044
680956
722952
682188
626475
667073
627681
667232
626552
667173
627671
572359
612973
572361
612961
572391
612895
572254
517359
557461
516644
558720
517126
557325
516500
460976
501632
460160
503045
460911
501508
460153
405023
445144
404027
446846
405077
445208
404029
348966
389391
348634
391090
348728
389342
348337
743462
773939
737004
780121
743584
774292
737100
688664
724257
684384
729314
688634
724356
684517
633601
670882
630138
674074
633575
671029
630231
578027
616516
575587
618940
577799
616583
575551
523272
561949
521082
563464
523186
561911
521106
468284
507472
466460
508911
468035
507486
466457
412289
452658
410639
453857
412308
452649
410665
355600
396468
353413
397717
355675
396537
353517
736002
773434
734193
774970
736122
773921
734372
683389
721234
681412
723276
683550
721420
681581
629296
667946
627098
670102
629421
668144
627279
601282
602115
614889
615731
601325
602112
614880
547142
547764
560758
561343
547203
547750
560669
465988
505555
464589
507004
466002
505535
464536
410132
450783
408660
452204
410179
450724
408623
352777
394433
351183
396078
352883
394433
351263
734235
775865
735066
774643
734420
776393
735270
681062
721599
680819
721315
681250
721816
681076
626881
667175
626549
667798
627075
667463
626787
599676
599655
612884
611769
599598
599522
612906
545897
545794
559236
559825
545606
546029
559539
463949
503431
461516
505169
463927
503353
461590
408078
447567
405772
450106
408024
447677
405832
350644
391740
349214
393880
350674
391764
349105
735817
778107
738042
778794
736060
779051
738392
681009
722988
682242
722336
681246
723213
682482
626607
667212
627656
667544
626810
667482
627714
572368
612855
572195
613156
572254
612781
572074
517055
557261
516442
558469
516929
557165
516386
460907
501471
460139
502909
460950
501439
460155
405098
445226
404034
446918
405163
445306
404041
348736
389329
348394
391118
348561
389262
347830
743615
774192
737142
780544
743658
774433
737304
688666
724410
684570
729467
688708
724603
684736
633630
671081
630279
674176
633722
671264
630415
577778
616615
575551
618850
577603
616702
575574
523196
561911
521116
563233
523201
561938
521180
467999
507490
466474
508778
467961
507530
466567
412351
452656
410703
453810
412479
452754
410896
355895
396577
353707
397867
356409
396719
353925
736167
773844
734429
775172
736324
774039
734581
683610
721489
681657
723518
683796
721673
681910
629487
668239
627589
670374
629644
668519
627910
574931
613726
573054
615979
574988
614318
573459
520605
559409
519579
561389
520664
559822
519236
466013
505563
464496
507044
466098
505571
464444
410214
450684
408609
452306
410377
450606
408598
353068
394439
351435
396258
353293
394480
351727
734478
776380
735346
774797
734633
776629
735597
681337
721902
681178
721561
681610
722183
681475
627372
667571
626878
668196
627654
667884
627123
573534
613267
572417
614054
573432
613465
572457
519206
558684
517266
559780
518856
558701
517341
463899
503364
461628
505163
463853
503456
461750
408003
447709
405851
449980
407963
447809
405889
350813
391771
349190
393878
351038
391796
349227
736150
779050
738478
779192
736431
780002
738805
681339
723271
682545
722720
681643
723495
682840
626881
667563
627726
667947
627086
667969
627839
572225
612739
572036
613342
572225
612677
572095
516920
557141
516382
558409
516970
557235
516481
460982
501437
460177
502965
461098
501424
460339
405199
445342
404060
447073
405258
445444
404169
348623
389267
347877
391158
348583
389329
347866
743656
774337
737365
780509
743234
774663
737466
688773
724671
684795
729538
688376
724800
684878
633828
671326
630453
674212
633440
671417
630487
577625
616728
575580
618913
577129
616758
575554
523247
561954
521210
563107
522807
561936
521214
467986
507558
466600
508663
467628
507566
466591
412409
452789
410920
453854
411954
452789
410842
356564
396731
354101
398146
356362
396651
354023
736386
773892
734619
775473
736509
774063
734590
683862
721729
681991
723728
683969
721850
682146
629686
668601
627984
670547
629727
668749
628112
575015
614389
573554
616026
575004
614526
573696
520706
559926
519269
561404
520744
560074
519290
466129
505605
464443
507106
466119
505615
464356
410419
450588
408588
452342
410397
450495
408533
353497
394481
352061
396258
353377
394452
352395
734681
776489
735684
774693
734803
776449
735917
681699
722276
681562
721785
681866
722500
681693
627713
667969
627195
668441
627827
668059
627391
573450
613531
572491
614248
573541
613754
572637
518887
558730
517373
559895
518839
558824
517391
463848
503489
461772
505151
463743
503470
461653
407942
447826
405888
449849
407888
447717
405880
351400
391802
349500
393844
351810
391835
349856
736523
780047
738829
779167
736726
780853
739002
681732
723556
682896
723044
681890
724376
683270
627150
668048
627825
668143
627310
668509
627915
572252
612676
572152
613588
572380
613066
572405
517000
557272
516522
558523
517029
557679
516631
461124
501428
460419
503002
461091
501764
460604
405266
445474
404258
447043
405279
445804
404316
348884
389338
348227
391203
349315
389602
348243
587658
588535
574292
574932
587761
588513
574198
600331
613884
599622
611811
600549
613775
598978
587056
573881
586340
572909
587231
573744
585890
601318
615765
602181
615024
602135
614919
601423
587655
574923
588538
574241
588518
574179
587759
600400
611792
614057
599711
613800
599132
600732
587026
572983
573918
586352
573680
586051
587312
533566
534177
520136
520603
533614
534175
520166
546748
560366
545988
559353
546837
560246
546145
533340
519910
532835
520676
533327
520117
533168
547110
561326
547739
560682
547737
560640
547131
533532
520605
534169
520112
534168
520157
533551
546668
559436
560375
545926
560174
546140
546826
533248
520762
519902
532746
520112
533021
533278
586516
586582
572777
573489
586233
586944
573095
599721
613049
599529
613070
599655
613127
599571
586231
572684
586017
572493
586183
572711
586036
599824
611745
599922
613068
599821
612952
599812
586574
573439
586862
572841
586870
573123
586358
599791
613133
613267
599648
613199
599613
599827
586257
572466
572676
586040
572705
586042
586260
532389
532548
518458
520342
531998
533127
518628
545407
559111
545183
558833
545431
559106
545116
531635
517814
531327
517340
531662
517771
531256
545875
559727
545951
559214
545954
559529
545553
532335
520452
532581
518458
532887
518663
531954
545354
558776
559010
544978
559067
545046
545285
531577
517296
517689
531114
517738
531185
531506
761987
778537
753441
783808
762084
778397
753544
701340
725957
697797
729366
701309
725952
697723
645247
669757
641771
671085
645212
669724
641778
588677
614441
586280
615364
588538
614408
586222
533125
558501
530907
559027
533052
558525
530943
477885
503641
476083
503998
477810
503692
476109
422641
448576
420748
448791
422516
448638
420727
367094
392970
364904
393842
366976
392918
364693
794825
812337
786717
815521
794806
812505
786709
764254
768404
777703
778620
768425
777689
764241
714170
716438
727694
729280
716440
727680
714207
659355
661105
673170
674045
661112
673162
659371
604628
605998
618381
619055
605985
618369
604651
549558
550685
563413
563767
550673
563412
549548
494804
495832
508483
508851
495827
508492
494798
439838
440766
453687
453975
440758
453706
439834
383404
384494
397740
398126
384405
397735
383446
307498
332813
305755
333364
307478
332662
305668
789574
818175
788550
816291
789946
818256
788773
759592
760911
772893
773258
760962
772944
759538
708925
710006
722010
723058
709986
722004
708932
655576
656376
669048
669868
656362
669028
655599
601496
602298
615100
615845
602283
615072
601503
547334
547843
561046
561604
547830
561021
547371
492738
493205
506333
506827
493213
506354
492726
437783
438284
451675
452193
438287
451682
437777
381253
381866
395567
396127
381845
395556
381289
304475
330300
303691
331584
304393
330239
303592
790017
819311
790761
817459
790185
819476
791005
759658
759764
773388
772537
759805
773321
759634
707642
707734
720996
720954
707712
720981
707664
653729
654076
667282
667532
654032
667254
653780
599923
600244
613283
613609
600237
613273
599933
545824
546124
559137
559609
546127
559168
545803
490767
491275
504686
505088
491277
504684
490770
435181
435958
449112
449891
435984
449117
435169
378842
379553
393063
393832
379555
393073
378861
302695
328654
302169
329571
302612
328562
302073
797850
831814
799645
826435
798142
832137
799900
763173
762855
777458
776644
762899
777524
763135
708508
708097
722314
721844
708109
722339
708492
653783
653551
667334
667141
653562
667335
653775
599385
599259
613014
612828
599276
613017
599391
544831
545258
558438
558791
545264
558457
544818
488769
489264
502868
503334
489250
502850
488785
432358
432972
446348
446928
432953
446325
432384
376639
377186
390460
391077
377180
390446
376629
301686
326640
302586
327977
301589
326501
302486
745759
769313
746308
770509
745804
769422
746319
689591
716286
690035
716569
689573
716267
690056
634231
660331
635416
660800
634228
660395
635499
579010
605708
579702
606421
578972
605685
579709
522975
549797
523857
550466
522932
549800
523868
466721
493864
467646
494443
466681
493840
467620
409721
437459
410976
437755
409697
437432
410925
354971
381267
355412
381860
354938
381295
355327
762280
778123
753647
783820
762508
778243
753845
701282
725905
697619
729084
701056
725848
697486
645229
669691
641778
670827
645065
669638
641764
588484
614339
586099
614989
588078
614226
585944
533041
558500
530929
558672
532814
558439
530899
477805
503713
476084
503851
477454
503710
476037
422450
448653
420660
448769
422178
448687
420588
367152
392798
364827
393691
366949
392696
364698
794776
812692
786962
815572
794848
813031
787190
764659
768681
778121
779532
764531
768821
778407
713995
716394
727595
729211
714039
716370
727567
659366
661211
673136
674017
659356
661219
673136
604479
605948
618358
619027
604525
605857
618344
549548
550729
563347
563695
549559
550679
563324
494869
495908
508558
508948
494857
495866
508581
439758
440734
453741
453999
439793
440636
453734
383242
384227
397686
398020
383266
384177
397643
307792
332546
305778
333237
307740
332501
305677
790340
818330
789097
817176
790699
818768
789406
760008
761215
773426
774139
759883
761317
773677
708985
709958
722065
723081
708962
709958
722098
655538
656337
669009
669855
655534
656344
669019
601425
602210
614969
615734
601455
602181
614953
547228
547781
560880
561424
547253
547777
560837
492832
493280
506418
506927
492801
493304
506448
437815
438292
451713
452214
437803
438293
451722
381114
381717
395467
396002
381131
381701
395457
304505
330136
303690
331468
304376
330101
303563
790491
819746
791359
818741
790930
820444
791708
760082
760057
773731
773485
759935
760195
774061
707633
707703
720977
720991
707616
707720
720997
653667
653964
667202
667488
653663
653965
667207
599772
600202
613214
613460
599811
600229
613169
545755
546077
559303
559689
545805
546020
559308
490692
491282
504612
505062
490715
491293
504579
435273
436083
449150
450035
435246
436112
449191
378858
379522
393107
393888
378842
379522
393124
302668
328424
302115
329404
302508
328310
301930
798552
832235
800195
827536
799055
832700
800748
763593
763165
777968
777524
763447
763295
778233
708572
708160
722411
721965
708537
708197
722433
653800
653612
667344
667196
653788