/*--------------------------------*- C++ -*----------------------------------*\
  =========                 |
  \\      /  F ield         | OpenFOAM: The Open Source CFD Toolbox
   \\    /   O peration     | Website:  https://openfoam.org
    \\  /    A nd           | Version:  10
     \\/     M anipulation  |
\*---------------------------------------------------------------------------*/
FoamFile
{
    format      ascii;
    class       surfaceScalarField;
    location    "2.4";
    object      phi;
}
// * * * * * * * * * * * * * * * * * * * * * * * * * * * * * * * * * * * * * //

dimensions      [0 3 -1 0 0 0 0];

internalField   nonuniform List<scalar> 
38556
(
106.177
-1297.97
1479.85
1032.69
-140.313
-786.197
1075.93
-513.156
469.913
1392.7
-463.814
147.049
1385.97
-189.353
196.076
1427.18
-66.5343
25.3286
1275.97
212.878
-61.6653
1263.87
135.408
-123.317
1243.33
72.5695
-52.0234
1303.86
-43.7663
-16.7632
1369.02
-105.706
40.5413
1429.68
-131.865
71.2103
1469.83
-125.347
85.1887
1497.62
-105.385
77.5994
1486.47
-46.7074
57.8586
1424.01
9.06968
53.3845
1315.28
59.049
49.681
1215.15
71.1344
28.9969
1125.39
77.6921
12.0712
48.2849
0.914612
-39.4909
-1001.74
3347.04
-74.9814
-433.679
328.856
166.511
-589.035
-165.613
264.173
-457.788
-103.689
555.944
-268.795
-212.329
688.855
-89.0664
-110.379
797.192
0.0968286
104.444
882.934
-29.7427
79.4086
925.888
-80.6266
110.242
973.401
-132.17
40.8901
998.657
-152.16
21.1993
1029.83
-152.755
-10.2862
1049.69
-135.503
-9.69842
1062.2
-104.012
-13.8839
1044.46
-31.7749
2.80237
1017.53
26.1163
9.88864
992.825
57.8739
25.8781
966.001
61.5465
36.4112
932.68
62.6934
48.3194
46.2107
23.5707
-1394.53
-1296.48
3153.49
-519.263
-583.642
-725.309
95.4012
-853.081
-350.619
97.5406
-479.153
19.2261
411.766
-547.103
-35.9171
514.463
-270.81
79.0462
647.003
-243.621
111.178
726.941
-180.138
70.4566
772.05
-200.406
74.6711
808.685
-192.191
23.385
828.521
-190.704
18.7081
850.254
-165.39
-9.09747
857.501
-126.766
-15.985
855.923
-64.7178
-37.7164
843.194
-3.5015
-15.5445
828.167
34.1821
6.96105
815.276
51.253
19.5119
805.678
49.4622
21.683
795.768
51.6288
20.9737
44.899
6.59332
1075.58
-1912.08
-2096.72
1163.87
-142.519
-529.415
957.949
-407.473
-239.683
735.525
-286.386
29.6562
486.968
-375.34
76.7933
438.615
-269.1
46.6431
496.891
-372.876
70.9797
562.066
-297.602
52.2886
638.489
-346.397
69.568
695.059
-293.684
44.9231
736.619
-288.484
56.22
773.268
-239.556
37.5172
788.188
-185.909
44.2226
778.789
-82.3963
27.077
758.741
-8.94414
25.4914
726.247
45.2709
21.4045
704.497
51.4769
21.5268
699.202
37.0679
17.6895
706.184
27.132
17.5142
28.6977
6.65221
709.302
395.111
1150.79
437.207
598.394
-468.817
430.054
-235.616
-164.704
469.7
-410.44
84.4092
532.666
-461.367
23.0618
559.026
-322.076
26.6156
603.13
-459.245
42.2643
638.243
-348.577
15.8625
675.431
-414.683
31.098
718.06
-345.71
9.39682
756.987
-347.996
20.585
808.08
-289.216
-1.43316
847.37
-233.555
8.35641
845.487
-91.4687
10.955
801.921
7.12418
27.4976
747.913
70.1487
29.1306
719.114
61.8134
18.4626
713.212
24.6922
18.2776
708.745
14.8172
16.7821
24.7001
7.31364
1548.71
-715.234
666.652
1633.38
415.684
98.0396
968.138
-121.068
550.693
701.759
-320.862
176.8
563.468
-391.932
68.8557
520.266
-286.682
7.80793
581.277
-525.889
5.63231
572.546
-331.55
-8.29764
610.712
-449.849
-2.99935
642.746
-367.502
-10.2414
683.662
-382.382
-6.53075
730.882
-314.022
-22.4143
780.011
-259.866
-22.8174
794.088
-99.5761
-5.96941
779.322
17.1593
4.73063
761.283
74.5046
13.6826
733.754
57.3735
31.969
684.674
24.3091
49.4633
613.875
32.8284
52.7874
34.1534
32.1094
32.0034
362.933
688.091
452.562
-28.9479
24.0729
729.588
-143.303
-254.79
790.666
-243.858
-138.083
792.558
-245.739
-148.084
743.095
-117.954
-119.264
660.099
-71.162
-51.5091
-118.757
-79.2266
-122.239
629.713
-66.2631
-45.011
-59.4779
-68.5443
-61.8672
632.703
-101.658
-9.04319
-121.705
-103.37
-117.061
667.109
-107.474
-9.90984
-96.6041
-100.024
-87.8955
698.99
-109.228
-7.41374
-104.375
-99.295
-93.951
739.652
-93.2987
-35.8804
-78.9383
-81.0655
-65.501
780.373
-73.7077
-56.6439
-62.0254
-59.6355
-48.5741
802.387
-40.2981
-18.2748
-22.5646
-25.714
-14.7389
799.672
5.78236
14.0917
765.695
75.2824
33.1993
672.174
77.2929
73.6014
553.827
71.2599
71.3964
473.236
70.7765
42.643
38.9553
21.693
-904.043
1627.43
-1197.41
-160.249
-178.842
-593.901
345.696
-251.024
-398.225
475.171
-290.94
-82.3924
613.184
-271.14
-112.612
147.376
-20.3001
-67.7469
145.984
140.477
138.349
17.7569
-20.7544
14.0881
122.318
-45.0654
-1.03865
-93.8345
113.339
-76.5855
-9.18261
-144.235
151.453
-102.327
-6.54932
-156.848
168.32
-116.527
-2.41887
-186.099
187.143
-113.205
2.93263
-189.388
188.329
-96.5439
4.30385
-193.205
190.555
-70.6256
-0.432123
-192.446
196.086
-41.1584
-2.77921
773.499
-4.17901
-9.16855
-199.154
-203.456
-185.171
-187.038
5.77955
4.16109
10.5086
707.743
98.4405
42.5979
592.71
132.568
59.757
512.172
124.92
26.8779
484.795
108.999
-10.8454
56.0492
-15.4193
-688.342
367.056
-1134.05
-297.694
-575.175
5.68523
105.084
-403.427
-250.375
263.92
-360.142
-89.6337
122.216
-369.994
-88.3073
107.802
117.499
103.565
162.592
-49.062
-11.6141
7.66479
-53.849
52.7436
-5.19342
-1.366
-56.1455
23.3576
56.7984
-22.8857
-1.12472
-59.0243
26.5209
57.5469
-24.1838
-0.859713
-53.8309
29.904
52.6501
-28.0242
-0.699057
-54.9711
31.7896
55.0738
-32.346
0.45368
-57.5032
26.8555
57.0924
-27.1121
0.667424
-54.8713
19.2523
52.9027
-18.2741
0.990473
-50.5646
11.1084
49.8897
-9.9331
-0.500385
-50.2363
198.197
-4.5076
-0.0178831
-50.6637
-48.4671
-48.4839
684.535
134.172
24.3585
-192.121
-193.067
-180.555
-178.882
595.199
182.348
39.556
547.475
172.707
-0.0620351
535.139
161.349
-40.0145
103.412
-43.7613
448.228
-151.087
1805.38
387.36
-762.805
248.498
578.732
-535.149
-59.6504
587.894
-413.357
44.0521
156.825
-363.29
-37.6103
148.553
159.207
154.215
79.3669
160.406
-74.1799
-8.76752
16.2918
-42.2492
43.1867
-17.3724
0.14302
17.6553
-46.835
48.3538
-18.2775
-0.89654
20.1564
-54.2409
56.5941
-21.5733
-0.936306
25.4127
-61.1958
60.1127
-24.547
0.217518
33.1592
-55.5142
55.1747
-32.8491
0.0293613
27.2194
-55.3806
54.9341
-26.573
-0.199948
14.3081
-52.2995
51.6034
-13.3109
-0.301043
6.77215
-50.2529
50.0694
-5.84303
-0.745691
-49.2632
2.33988
194.968
4.23613
-7.57527
-49.8542
-47.1507
-47.7002
706.948
168.999
-9.33503
-190.175
-190.417
-175.153
-176.695
669.831
216.5
2.96445
657.536
210.464
-25.4625
675.088
183.719
-39.9219
110.584
-24.8374
-19.7673
-3192.33
-2936.16
-20.2228
-1290.44
528.088
595.367
-936.891
-213.848
666.525
-439.079
-45.4355
169.734
-350.388
-22.3349
164.512
174.878
166.834
69.9816
200.76
-89.7145
-11.2932
20.6702
-58.2823
61.695
-21.5835
-2.49942
23.3476
-68.1356
69.6721
-22.7826
-2.1015
24.6297
-73.9354
74.998
-23.4025
-2.28981
21.7437
-77.2328
76.2887
-20.7151
-0.084472
29.8544
-67.0238
64.3846
-26.3061
-0.909102
24.8583
-57.439
55.2675
-23.5859
0.899128
11.1209
-51.1219
50.3697
-10.8836
0.51503
3.4807
-50.6094
50.9267
-2.97147
-0.826516
-50.0134
-11.4759
196.356
19.6766
-6.51826
-50.7678
-48.0943
-49.1628
748.824
191.67
-20.1031
-192.149
-196.057
-178.422
-184.764
750.071
226.502
-11.2499
772.763
214.615
-26.8432
834.265
149.38
-27.163
68.8666
-8.88354
861.247
-3164.74
-716.779
1265.5
-1233.92
-460.772
1046.36
-589.642
-128.111
973.301
-378.293
12.2755
211.959
-281.883
41.1854
214.222
218.533
218.896
113.003
209.804
-114.141
3.29279
29.4658
-57.0083
57.998
-31.2996
0.844055
22.9561
-59.9469
61.1309
-24.6071
0.467099
22.5385
-65.2775
66.6133
-25.4151
1.54086
24.3066
-70.435
71.7224
-27.9569
2.36292
19.7439
-67.9955
61.3513
-16.3715
3.27186
16.6471
-46.8127
45.4498
-15.1735
-0.110791
10.5459
-46.4052
46.8052
-10.1403
-0.805599
3.15353
-48.6201
49.4138
-3.30974
-0.637542
-51.4555
-26.0726
206.624
29.5358
-6.22848
-51.7018
-50.2402
-50.4613
847.795
173.479
-15.1275
-208.268
-209.261
-196.776
-200.171
876.073
199.251
-1.02616
904.366
177.605
8.71779
925.898
108.563
19.2853
50.7522
4.85064
435.344
-2097.69
1195.06
464.654
-842.379
-420.851
546.886
-499.784
-172.089
660.855
-489.836
-2.42518
836.338
-481.962
24.595
229.157
-656.029
-0.702235
127.647
182.635
124.728
175.735
219.027
221.319
212.822
33.0236
233.485
-127.408
-3.03198
29.5691
33.7789
29.7407
26.877
-224.012
222.988
-107.931
-2.0231
28.81
26.6756
28.616
26.0808
-232.518
222.158
-99.9923
3.57433
26.9688
26.5836
27.1451
19.4219
-186.781
159.847
-65.7997
10.7729
20.9754
20.018
21.5448
15.0044
-158.557
151.711
-61.219
5.72843
16.2202
15.01
16.1019
12.4723
-142.087
139.735
-49.8558
-0.453506
14.3087
12.1075
13.7725
8.30677
-147.525
155.624
-36.4045
-4.90237
8.98062
7.72527
8.19498
2.52192
-161.675
172.505
-13.3009
-5.7946
2.33586
1.76557
1.64226
783.886
37.3835
-0.139667
-30.9994
-31.3794
-31.2237
-29.2143
-184.595
-169.584
-177.359
-166.776
851.168
87.3179
18.8793
882.52
129.759
38.1393
888.623
120.128
51.374
866.052
82.068
49.0657
40.4997
20.4258
1942.15
-807.246
-877.808
1342.43
-515.358
272.7
1123.85
-373.764
92.559
1063.88
-472.372
42.5056
1047.92
-480.01
14.0092
947.293
-547.187
-8.21609
885.164
-327.261
11.7783
111.008
81.9747
107.373
77.2571
805.459
-429.92
15.9161
107.581
139.327
107.034
139.766
752.184
-241.377
24.6769
82.5493
53.7439
80.4234
53.2588
695.821
-278.937
31.7486
62.9474
87.8088
64.9227
87.8726
650.356
-166.759
27.5964
51.4348
43.1588
49.1913
40.8428
612.845
-182.172
18.4891
46.1003
56.9522
44.0057
54.1356
601.216
-109.309
17.6795
31.0246
23.3189
27.89
21.0253
606.527
-98.3692
15.167
18.1978
22.9064
17.4114
19.3751
649.177
-35.9254
30.6595
704.939
0.135901
31.4195
747.148
51.5249
36.0256
770.68
54.5187
42.077
780.639
30.6338
41.4753
-0.930152
29.6234
-118.56
274.641
-136.761
138.855
-464.486
-308.287
689.487
-811.291
-113.106
939.112
-674.458
-47.5395
999.115
-550.632
10.6192
971.551
-482.543
-37.08
939.183
-302.764
7.87119
844.59
-319.59
-15.7361
773.768
-179.788
9.23188
699.467
-211.631
6.99507
655.28
-136.34
13.7685
621.685
-155.713
7.13666
611.775
-111.048
11.6492
608.958
-106.377
10.8249
621.065
-62.2638
14.2312
649.514
-45.6814
17.3679
693.66
-13.55
20.9293
731.103
-5.85875
22.9348
737.184
-12.237
36.79
-23.05
20.4885
1489.57
881.374
-2365.7
1651.68
-428.549
-198.043
1501.42
-634.659
-26.3676
1299.52
-576.906
104.343
1128.3
-481.171
101.761
986.538
-371.682
30.898
859.668
-222.895
47.0015
772.515
-230.18
-2.25742
733.469
-144.179
3.4363
697.892
-169.092
-6.96127
686.772
-125.956
0.73607
674.629
-139.955
-3.6142
675.994
-113.757
1.34359
677.545
-106.883
-1.04613
685.618
-75.8646
5.52763
693.911
-54.3504
0.37595
704.145
-25.6704
1.88649
712.222
-12.2823
-1.65323
700.253
2.2255
-2.49365
9.06919
-22.898
2008.17
-459.515
-3299.27
2787.15
-898.33
-309.196
2094.22
-488.052
546.326
1428.1
-386.458
475.668
1020.42
-339.857
266.367
857.174
-263.776
55.3412
797.884
-184.882
21.2763
718.196
-143.095
-7.39666
706.374
-111.056
-21.3002
673.565
-109.409
-26.874
677.475
-100.327
-29.5394
672.683
-107.883
-27.2803
683.295
-107.083
-17.2863
690.91
-103.138
-11.3604
698.052
-80.3444
-2.66137
700.437
-55.2072
-1.52822
701.63
-22.6658
-4.19811
701.274
-2.26512
-9.66093
694.088
23.0768
-13.6658
40.3885
-29.6294
966.143
-1754.99
-1221.79
1275.59
-801.686
-406.094
1303.33
-22.5554
-493.231
1135.09
-12.2825
-205.935
1061.15
-149.652
-116.272
989.088
-160.163
-31.5474
935.152
-142.465
11.5197
881.595
-78.6387
-10.8999
848.767
-60.2226
-18.0057
821.734
-41.0916
-41.285
811.816
-51.1067
-39.3015
809.933
-62.6913
-43.3093
823.167
-85.4497
-34.8672
843.265
-87.1385
-36.0966
862.224
-72.356
-26.9474
876.991
-47.6791
-22.296
877.118
-16.005
-6.78741
860.913
9.74313
4.19683
832.743
40.0079
11.2393
55.5609
-3.51258
1984.52
-1364.29
-1345.15
1856.1
-211.354
-461.913
1599.96
137.894
95.693
1454.24
99.228
34.2081
1374.49
-57.2735
-12.6291
1303.52
-76.0227
-13.1694
1198.24
-66.0985
28.9163
1094.47
0.658089
24.4724
986.847
27.6402
19.7613
902.675
62.8965
-19.8163
837.879
55.6192
-41.9292
797.604
50.5278
-72.9445
796.782
-12.2684
-72.3592
815.225
-39.7333
-65.8485
830.891
-32.4182
-55.6042
843.875
-12.668
-47.9945
857.558
5.63318
-35.3211
866.209
20.6979
-19.606
868.211
36.5729
1.43337
44.0148
6.18577
1545.43
632.455
1613.18
-279.102
1679.63
71.4433
1717.25
61.6066
1737.65
-77.6758
1772.78
-111.153
1760.63
-53.948
1753.26
8.03287
1698.7
82.1971
1663.1
98.4993
1614.23
104.484
1571.3
93.4592
1449.77
109.266
1305.53
104.502
1194.01
79.0992
1123.94
57.402
1079.03
50.5435
1050.76
48.9692
1036.27
51.0687
46.5798
2141.05
-4607.1
1778.33
986.643
-747.573
1115.78
1046.58
-457.216
867.189
1251.17
-299.278
241.745
1222.82
-46.6555
271.078
1248.09
-8.424
8.4857
1104.69
98.588
-16.8536
1086.6
-4.64325
-100.585
1077.45
-26.3168
-16.5612
1139.62
-77.4132
-1.51587
1209.16
-82.255
53.2563
1306.19
-81.5597
55.7364
1371.56
-53.4412
73.266
1390.52
-13.181
71.8107
1343.13
27.1085
78.1454
1256.95
47.275
92.2874
1169.21
51.174
86.2455
1110.22
40.1864
47.7996
1059.08
34.1595
29.0582
22.1747
9.96181
-1461.17
-835.66
2219.93
-615.804
-463.375
-800.706
-183.665
-611.901
-443.069
-0.281642
-412.162
-174.188
320.428
-251.226
-328.469
433.04
-122.524
-108.891
585.783
-57.4009
107.69
668.796
-76.8942
68.6465
736.501
-92.1081
108.328
786.933
-102.479
15.5237
818.034
-97.3578
5.20088
847.981
-82.9792
-38.8135
868.151
-57.8535
-25.4567
883.362
-18.4392
-23.8368
881.094
24.5845
7.59447
864.593
45.5609
28.1032
843.149
53.663
44.8339
825.437
47.5464
46.7633
805.866
47.2425
54.8074
37.4512
20.5782
-475.795
-1503.27
2628.15
-514.514
-819.637
-330.328
-128.976
-1006.98
-341.072
-40.3093
-534.21
52.6077
244.412
-526.212
-45.6527
344.566
-237.695
94.064
505.347
-219.019
112.016
569.933
-144.609
73.5856
619.901
-151.411
84.0058
648.411
-125.704
18.1006
666.099
-115.313
18.9742
678.564
-86.2309
-18.31
677.219
-53.7281
-18.7656
672.798
-17.7865
-33.9489
671.721
19.769
-9.65127
673.74
39.8703
10.6318
676.657
46.1454
24.1125
679.038
42.9782
23.8706
676.43
44.7677
26.0564
38.9592
7.25339
1431.66
-2016.21
-2472.93
1058.7
-524.876
-451.221
687.875
-578.764
-297.076
492.567
-347.673
38.4278
338.871
-356.488
60.7653
302.885
-218.25
63.1843
389.601
-299.866
65.1112
443.072
-204.603
58.8111
520.441
-238.995
79.7833
564.361
-170.531
45.8303
600.251
-157.203
62.2201
619.43
-102.842
34.949
625.978
-57.2173
41.1647
619.137
-9.55823
25.6897
610.753
28.2178
25.4272
601.515
47.4452
23.0671
600.638
44.3554
24.1935
607.22
33.2309
20.855
618.292
28.6442
22.5659
28.7103
8.16
843.159
843.343
685.022
449.915
-230.159
-370.291
358.618
-455.189
-196.982
383.115
-378.973
91.2115
408.479
-374.175
15.3845
412.573
-234.24
38.5114
472.229
-370.016
52.7594
504.963
-239.308
17.8327
552.609
-295.362
39.8191
591.069
-207.604
8.0096
625.003
-197.335
26.7841
651.973
-126.689
-4.55639
658.406
-62.9803
7.686
642.745
8.56935
8.48873
623.844
48.5574
26.0587
607.682
64.9357
27.8023
606.251
42.4379
21.811
616.385
18.3292
23.0456
621.65
17.45
22.7108
25.0461
10.5936
520.479
492.4
3132.69
396.878
-439.016
430.498
465.479
-364.569
391.473
407.311
-300.052
156.048
395.793
-310.753
16.9517
333.536
-192.398
28.2224
423.504
-454.87
0.518371
408.163
-228.443
-3.821
463.51
-354.161
0.452827
497.182
-242.784
-8.73428
541.379
-248.01
-0.0536772
579.02
-162.484
-24.2597
608.578
-94.6807
-20.6753
611.347
7.7938
-7.96302
610.541
52.5254
1.56865
608.914
66.303
13.9419
605.693
35.4652
42.1632
598.787
21.1977
53.5007
570.418
35.0386
63.5671
33.5965
46.7172
477.362
136.399
1924.12
671.052
-547.141
-61.4925
580.396
-298.951
-229.753
610.879
-305.42
-163.197
574.27
-254.487
-167.741
489.561
-100.52
-126.435
439.289
-82.2146
-48.238
-119.508
-86.8585
-119.288
429.059
-59.5956
-39.9926
-54.1772
-57.1409
-52.3185
463.036
-95.5953
-1.09006
-106.103
-93.1172
-101.275
508.821
-83.933
-2.3922
-71.2729
-76.7244
-64.1573
551.185
-81.0049
0.341922
-75.5481
-73.4082
-68.1684
588.204
-59.6174
-40.3276
-45.3477
-51.5262
-38.5644
613.52
-38.2294
-51.7199
-29.6368
-31.6825
-25.3725
622.525
-8.00493
-13.2363
1.5578
-4.23699
4.43467
627.439
50.5307
11.1717
614.087
73.166
39.6892
566.448
66.6451
90.06
507.18
71.1059
80.7557
458.531
75.4088
50.9219
45.4062
28.6615
41.9154
815.205
810.432
-15.565
-539.01
-544.551
265.407
-437.396
-540.752
382.642
-412.513
-92.5338
491.239
-331.129
-144.569
116.285
-27.2512
-66.7108
114.225
106.051
103.635
3.86157
-27.7041
0.581281
4.69547
98.504
-58.7756
-10.3533
15.0894
-74.6487
90.411
-75.7352
-14.7122
11.0286
-113.242
115.058
-98.4058
-10.0346
5.65066
-118.118
128.429
-97.0168
-2.87768
-1.33425
-143.639
144.043
-84.9721
4.89727
-0.627684
-147.235
149.595
-63.7909
2.44139
7.59019
-156.403
155.409
-38.0457
-6.77992
10.8695
-156.13
158.409
-10.6482
-10.5054
603.347
12.2271
-11.5722
-158.255
-161.325
-145.217
-148.278
17.4809
13.9033
19.05
568.351
102.258
48.5032
506.529
122.845
65.3784
462.117
120.488
21.9081
439.209
103.516
-16.0451
53.5944
-20.2948
-865.34
450.294
2565.38
-519.788
-686.543
-192.335
74.8905
-663.485
-618.964
151.544
-504.538
-74.2629
91.8208
-444.152
-144.506
77.7693
82.3479
68.8287
14.9276
124.959
-56.0784
-19.2388
2.85615
10.7049
-41.5401
40.231
-8.56686
-3.6851
2.90183
-40.2325
22.1646
40.249
-21.84
-3.24297
2.64594
-42.0715
26.1387
41.2068
-25.0918
-2.82813
1.53549
-40.5881
27.219
40.534
-27.3938
-1.30663
-0.522898
-42.9146
24.4326
43.0079
-25.0193
1.01628
-1.04908
-43.3317
18.0678
42.6081
-17.9177
1.62264
-0.423768
-41.79
10.9939
41.2497
-10.5062
0.476291
2.82445
-40.57
4.05913
40.4567
-3.90669
-2.8636
-40.2236
5.20708
156.401
14.6709
-5.86053
-40.4479
-38.6562
-38.8637
539.114
135.526
28.3583
-150.593
-151.775
-136.319
-137.696
510.411
159.233
31.8722
493.161
150.266
-12.5904
480.472
123.609
-47.4193
67.7641
-48.3368
199.39
-582.279
3595.44
353.194
-738.442
146.594
442.323
-719.976
-92.2878
499.839
-540.386
22.3845
136.801
-439.7
-70.9818
134.759
129.418
127.78
11.339
87.0079
139.433
-84.5841
-16.3954
0.608715
18.0582
-37.8605
39.2245
-18.9429
-1.08815
2.27232
20.7327
-41.6256
42.5252
-21.4138
-2.49084
2.84964
24.3684
-45.4496
46.2401
-24.8815
-3.12702
0.399821
27.5238
-46.6786
46.1984
-27.0054
-0.438
-0.270991
26.3878
-45.3924
45.4945
-26.5262
0.307313
-0.101776
17.5729
-45.2487
44.7822
-17.3803
0.375805
0.385918
8.81014
-42.9601
42.4613
-8.32229
-0.374932
1.78174
2.86952
-41.2973
41.0417
-2.43126
-1.9644
-39.7561
10.5493
-15.5785
155.883
17.8658
-11.4184
-40.32
-38.3254
-38.8995
567.836
151.485
-8.43697
-150.721
-153.566
-138.135
-142.271
568.62
167.591
-6.17834
585.324
143.229
-35.1299
605.709
105.22
-41.9183
63.9787
-29.3233
-1718.2
-3553.9
-273.492
-352.969
-1155.12
-420.467
411.036
-1026.96
-670.865
520.741
-540.804
-154.722
142.803
-438.426
-30.9515
134.859
128.878
121.543
14.7219
85.1434
169.44
-108.684
-17.8185
3.53139
22.2438
-48.0454
50.0674
-24.0456
-3.75165
4.19564
25.3837
-52.7762
53.5619
-25.9764
-4.38864
4.66556
26.7075
-55.4497
55.8691
-26.9725
-4.81993
-0.664316
24.4112
-55.6045
54.6167
-23.9492
1.19018
-2.20793
27.0106
-49.8607
48.6841
-26.2965
2.67044
-1.95453
16.1365
-46.8284
46.408
-15.4848
1.72327
-0.0374982
6.57558
-45.4534
45.2571
-5.98621
-0.355584
2.30721
0.793199
-44.0725
43.537
-0.135539
-2.42938
-41.5233
8.6488
-20.1576
161.982
24.3175
-9.1885
-42.64
-40.1761
-41.2627
636.723
146.07
-22.0115
-158.736
-166.026
-148.423
-156.214
662.729
150.826
-20.4898
704.776
107.449
-33.1099
747.47
58.8564
-23.4933
39.9316
-10.2841
596.17
-2876.52
-496.708
752.829
-1033.87
-738.687
772.604
-611.81
-563.039
794.657
-399.189
-151.393
190.452
-304.423
-37.22
188.499
181.143
178.966
-3.23126
129.045
192.14
-124.294
-3.2078
-3.75274
32.8247
-52.2478
53.3047
-33.5157
3.38682
-1.66804
26.9767
-52.5678
52.417
-26.9039
1.74604
-2.65748
28.6326
-53.1219
53.5489
-28.8929
2.49068
-4.01585
25.0985
-55.0625
54.9057
-24.9107
3.9848
-8.34065
19.1876
-48.0556
45.258
-16.35
8.30057
0.538228
12.5119
-41.088
40.6
-11.7365
-0.825502
2.34876
5.54164
-41.2776
41.6877
-5.59414
-2.70639
2.23283
-1.1644
-43.5817
44.1696
0.921588
-2.57797
-45.0272
8.51012
-27.3988
178.699
27.5852
-8.98774
-45.3878
-43.7788
-44.2134
740.387
111.081
-12.4345
-180.123
-184.017
-170.084
-173.867
770.732
117.725
1.73061
797.853
78.4307
10.6142
807.517
45.1486
23.3297
35.714
2.75304
87.7131
-999.929
2307.75
277.978
-800.439
-844.544
438.236
-505.753
-438.403
534.86
-475.89
-22.3477
702.255
-451.638
4.41598
186.874
-624.609
7.3377
131.008
173.648
135.46
174.546
177.039
174.499
165.75
29.8439
-1.94932
186.593
-109.123
-0.192712
26.2701
29.4923
25.9395
24.8883
-0.331976
-169.686
167.351
-101.999
1.28216
26.9535
24.7352
26.8062
24.6604
-7.9437
-176.524
164.366
-87.6126
9.37922
24.9289
24.2826
24.4636
19.0249
-15.774
-138.964
127.81
-67.0645
16.5603
20.078
18.6464
19.683
13.9097
-8.78249
-134.34
132.233
-54.0796
8.44702
14.5928
13.7105
14.3098
10.2149
2.07358
-127.314
129.156
-42.2988
-3.99791
11.3214
9.91535
10.9294
5.90419
7.97974
-138.397
144.442
-27.2384
-9.86785
5.91074
5.65309
5.61298
0.546994
7.41099
-147.344
154.893
-10.3099
-7.0387
0.702624
0.459602
0.679291
682.065
21.1983
7.78405
-25.1171
-23.9246
-21.5692
-18.5121
-163.208
-154.724
-155.583
-148.549
737.117
45.6302
29.2788
764.779
76.9601
51.2414
774.327
62.3006
57.9569
764.239
48.1463
56.1558
36.5005
20.6022
468.262
-117.83
-322.832
542.609
-505.292
-96.795
870.215
-458.444
-282.356
852.695
-488.29
72.4255
872.826
-464.442
6.68125
751.387
-520.889
9.50342
696.738
-254.885
17.4127
92.1872
64.6572
86.6772
60.3789
610.911
-401.275
23.6819
105.711
134.125
107.184
132.316
574.189
-190.635
29.5299
68.8948
45.6083
64.0801
43.9204
532.875
-263.837
34.634
65.2473
85.8811
66.3608
84.7767
518.478
-143.936
26.8697
44.4845
36.7253
42.5685
35.2812
506.103
-170.972
17.735
41.7524
51.3454
40.8901
50.1135
517.301
-94.4821
16.167
24.7674
18.4854
23.5638
17.9803
535.587
-89.4124
16.4054
17.0213
17.2068
17.3225
18.3369
578.245
-30.5331
39.7333
624.531
-9.42781
40.1913
660.767
32.5374
44.2122
684.18
33.0572
47.9076
701.802
23.3269
48.6723
16.8813
32.025
-501.604
-444.808
-303.5
-55.1079
-767.036
-493.039
502.992
-879.719
-249.931
679.89
-682.175
-30.5512
752.954
-545.113
18.2257
714.987
-485.911
-34.0914
727.826
-271.585
11.7323
644.206
-317.698
-15.6926
613.414
-164.77
14.1589
562.057
-212.356
6.87139
544.13
-128.24
16
523.907
-150.09
6.47669
525.737
-97.986
13.3234
529.978
-93.8462
11.0172
546.632
-49.375
16.4199
574.169
-37.5695
17.9727
611.856
-9.56374
25.3431
644.667
-3.54517
26.7262
663.801
-0.987226
41.9704
3.22177
19.4745
799.156
-1013.04
-3276.86
977.766
-709.699
-433.99
1041.16
-628.657
-340.826
938.833
-557.06
81.5565
863.205
-460.861
93.138
744.566
-371.023
34.6489
696.59
-223.983
47.3753
626.546
-247.009
-2.90265
613.172
-152.29
4.33136
581.669
-180.623
-7.19157
580.289
-128.54
2.41614
569.504
-139.238
-3.68063
573.733
-104.412
3.54107
575.12
-95.5252
-0.754198
584.807
-61.7872
8.25272
592.182
-44.4564
-0.113064
601.869
-19.8809
2.51688
610.252
-9.97312
-3.60755
608.708
2.11177
-4.04872
7.3108
-28.0638
642.651
-906.632
-4512.79
846.699
-904.281
-318.662
973.595
-589.751
380.524
913.224
-433.358
412.336
858.083
-358.976
219.622
750.351
-268.32
60.3706
727.085
-201.728
22.2881
651.818
-168.778
-10.3613
642.296
-138.721
-25.3478
604.354
-135.871
-33.6845
601.133
-121.184
-33.6728
586.875
-119.869
-32.391
592.446
-109.092
-18.1766
594.922
-96.9734
-12.389
601.631
-69.2754
-1.88225
604.084
-44.9387
-3.499
605.304
-17.5316
-7.76734
604.332
-2.86235
-15.7993
599.923
8.79515
-15.9411
13.4174
-37.3236
2863.94
-466.169
1444.5
1851.23
-217.651
-80.0078
1344.17
-103.753
-472.172
1084.7
-152.289
-227.531
951.966
-225.775
-116.74
875.321
-187.081
-36.1405
838.219
-159.15
6.04306
789.107
-106.775
-23.7897
762.843
-100.573
-29.8906
732.761
-88.5123
-58.5612
720.368
-96.5799
-51.5136
710.508
-98.1575
-55.1611
713.768
-107.78
-39.4413
718.132
-99.622
-37.812
721.427
-75.7973
-23.7203
722.854
-48.1621
-20.4997
722.633
-16.2512
-7.84661
719.692
4.75895
-0.482628
714.082
19.2408
6.40297
23.9507
-14.1526
1905.34
-343.235
-1489.52
1356.13
342.811
-473.165
1439.28
157.356
-248.568
1381.44
-3.80458
-56.4302
1307.06
-135.183
-28.8476
1212.71
-94.2475
-11.648
1112.57
-56.6184
26.5252
1027.16
8.73031
-5.63233
951.54
17.978
-23.1648
891.78
35.9892
-84.5583
843.327
19.4657
-109.523
807.348
10.4589
-145.581
794.473
-50.457
-116.807
789.441
-72.583
-87.8555
781.619
-59.913
-63.666
774.807
-38.2187
-51.1258
774.834
-15.6027
-35.9968
780.236
0.234944
-20.4834
789.179
11.9001
-0.169218
17.8
1.48883
1234.08
-741.927
1793.39
-495.6
2200.58
-178.387
2278.33
-19.949
2041.48
23.9866
1853.83
-17.7537
1694.87
48.4011
1639.09
72.5435
1593.58
145.682
1580.97
147.098
1553.15
151.769
1514.92
142.148
1394.28
179.447
1262.04
164.16
1163.33
117.896
1098.97
83.5424
1057.38
76.5311
1031.6
74.9824
1018.27
76.3011
67.0364
530.384
-2303.31
1949.07
232.301
-13.0228
1426.89
802.362
-311.428
608.556
944.162
-132.726
232.67
936.48
21.0265
257.734
969.293
-20.5012
-3.82563
892.927
28.238
31.2748
899.425
-36.829
-70.2545
905.632
-38.5718
15.8033
960.049
-50.4141
-5.51876
1004.48
-35.7238
44.5524
1047.61
-18.6889
31.2894
1059.18
5.81689
55.882
1046.53
26.3666
58.0944
1007.98
38.6429
78.0487
982.431
36.7346
81.104
973.13
30.2876
65.259
965.275
19.8824
35.7728
949.563
19.7947
24.9749
16.4564
7.92886
-948.951
-1590.04
-603.979
-551.639
-452.703
-758.337
-267.769
-585.169
-453.197
-94.7405
-353.295
-126.647
138.323
-240.919
-299.587
198.949
-140.464
-49.5545
399.499
-87.2859
22.664
477.58
-85.645
39.3806
562.461
-81.0542
65.9293
609.113
-74.2309
-7.31195
642.238
-59.4617
-4.18514
663.596
-39.7742
-39.0861
675.306
-15.6199
-15.7299
679.658
10.4574
-12.2804
680.001
30.4592
15.4353
678.027
38.8857
27.9255
674.919
41.5664
36.6638
673.621
36.2703
31.6735
670.292
38.7309
39.1998
31.8826
10.4713
-722.935
-2421.15
903.225
-486.883
-874.057
-145.027
-228.663
-1017.59
-166.871
-116.496
-492.728
79.8736
110.305
-465.586
-47.7863
167.04
-199.672
96.5369
349.844
-195.613
37.5389
401.052
-118.102
54.8341
465.666
-119.417
57.7542
491.532
-86.881
4.88511
511.759
-75.1777
14.4638
519.395
-46.1294
-19.5913
517.751
-24.674
-8.0678
514.467
0.630127
-20.8374
520.406
20.564
-5.69491
531.101
31.7045
7.11801
542.298
35.7623
18.7198
553.265
33.2258
15.948
559.429
37.3829
21.2398
31.8867
9.35818
2023.18
-979.895
-2948.31
1188.43
-651.104
160.572
517.319
-603.309
-40.2418
293.727
-328.815
98.108
166.367
-320.552
43.091
162.673
-184.999
52.206
266.679
-252.6
18.0914
306.98
-146.625
47.0325
388.603
-176.434
55.1774
420.273
-103.452
30.7315
453.772
-93.9016
47.4446
465.253
-43.212
20.5508
472.139
-22.6568
32.2619
470.045
13.5809
14.8327
473.84
27.917
14.279
478.877
36.3333
13.4023
489.925
31.622
17.2849
505.023
25.2235
13.7593
520.961
25.366
18.6451
23.7909
10.7891
679.391
723.33
-2253.02
435.553
-400.921
-376.637
196.235
-461.163
-99.8084
209.152
-335.054
84.5333
244.56
-324.315
-16.2615
240.796
-188.556
45.8335
337.676
-317.468
20.7477
365.6
-172.023
15.3061
423.462
-223.978
29.5014
453.184
-128.375
3.21103
480.625
-120.211
25.6524
490.192
-52.847
-4.48899
488.789
-19.7073
6.14001
478.679
29.6971
2.48265
476.977
42.1996
13.4779
480.528
44.5761
16.0085
493.77
23.0555
17.1354
512.244
14.9422
14.8534
524.054
18.4118
17.8544
21.8522
13.0097
-180.254
-558.78
3038.6
156.097
-501.939
195.165
332.594
-359.935
113.747
279.685
-272.45
146.353
253
-270.708
-9.97013
184.134
-150.031
58.5625
302.278
-418.14
-16.9544
280.8
-159.234
4.86749
347.643
-290.572
0.204364
377.239
-162.053
-4.65265
420.069
-171.335
8.23944
444.194
-83.8554
-17.3767
461.596
-42.98
-14.8039
463.818
28.2319
-8.72022
468.173
42.8841
-3.47086
474.976
42.8278
8.88649
487.581
19.2386
33.3753
497.573
23.9979
34.4533
492.744
38.3312
48.4769
36.3672
42.4181
1275.92
-691.434
933.602
540.298
-431.456
603.647
494.794
-359.196
-184.989
467.648
-329.083
-79.417
396.774
-261.805
-105.77
288.118
-93.7986
-74.0106
278.256
-89.2738
-38.273
-118.059
-93.0809
-117.829
279.456
-48.4745
-19.092
-45.0631
-45.1455
-42.6511
335.345
-86.2014
3.52434
-92.7776
-83.4568
-88.6402
383.736
-63.5766
5.81069
-51.733
-57.0178
-46.3192
428.259
-61.3057
10.5573
-56.7018
-55.9607
-52.1042
456.122
-38.1045
-28.2477
-27.7759
-32.7749
-25.1429
469.631
-21.3104
-32.5484
-19.2053
-18.0695
-17.0753
471.599
1.7775
-8.01672
7.66635
3.54367
8.05594
473.454
46.3962
5.80471
467.96
56.9504
31.0609
456.886
57.8014
62.5708
441.466
69.0051
51.1692
419.255
72.2277
39.2358
49.0625
29.9644
-554.475
-881.373
643.427
-59.5734
-680.952
-789.957
189.647
-516.8
-632.368
311.921
-464.831
-79.06
372.846
-354.763
-112.536
83.7864
-28.1818
-31.0319
79.9621
73.5846
68.5948
-2.57691
-27.6702
-4.13027
10.9347
67.5359
-69.4404
-14.5176
14.821
-42.5305
61.7207
-70.6282
-11.8575
9.97809
-82.9869
83.6686
-89.5195
-7.34169
2.03329
-85.8649
96.4585
-77.6732
1.46974
-4.71354
-110.884
111.923
-64.0289
6.39739
-0.714013
-115.39
119.221
-43.1474
1.92595
8.57173
-124.654
123.702
-21.9462
-6.98412
10.8643
-122.087
122.479
-0.864364
-8.61431
440.04
14.6258
-7.22565
-119.614
-123.26
-106.975
-110.348
17.3579
14.0804
16.1423
427.247
86.7277
31.5192
407.268
104.112
39.0467
389.21
102.918
6.05297
374.507
84.1712
-13.2852
43.5165
-7.216
155.236
81.5273
2091.97
98.9097
-881.263
64.3036
59.6057
-714.099
-382.36
121.766
-570.224
-31.0304
63.5651
-464.91
-114.552
49.3275
51.8693
37.1972
15.3307
88.9011
-56.6727
-12.1758
3.09197
13.9474
-30.3682
28.6765
-11.8648
-3.48291
3.62644
-27.5582
21.922
27.5758
-22.015
-3.551
3.17508
-30.0823
24.5923
29.7307
-24.4587
-2.95707
1.15301
-30.1045
22.9627
30.3473
-23.5525
-0.805945
-1.32989
-32.5422
18.4727
32.6076
-18.8616
1.65337
-1.77551
-32.9183
12.6467
32.7025
-12.569
1.91366
0.290824
-32.9844
6.66247
32.9119
-6.57506
-0.305687
3.02391
-32.0898
1.40657
31.9644
-1.44205
-2.86302
-30.9437
6.12411
116.527
18.4113
-5.16391
-31.2621
-29.3756
-29.691
415.461
108.013
17.9394
-111.294
-114.317
-98.6457
-102.072
416.204
120.061
15.1808
414.963
108.962
-17.394
403.176
82.6094
-34.0708
41.729
-31.7966
398.922
513.34
6818.53
359.604
-729.719
34.3669
400.558
-711.449
-135.892
411.126
-553.64
-4.76723
109.616
-452.283
-82.0294
106.498
98.9025
94.53
14.7576
89.2468
110.81
-90.0349
-15.1635
0.675508
19.0151
-30.7201
31.8982
-20.073
-0.795674
2.52803
22.1911
-33.7576
34.3372
-22.9072
-2.39157
3.11984
24.7835
-35.683
35.8342