/*--------------------------------*- C++ -*----------------------------------*\
  =========                 |
  \\      /  F ield         | OpenFOAM: The Open Source CFD Toolbox
   \\    /   O peration     | Website:  https://openfoam.org
    \\  /    A nd           | Version:  10
     \\/     M anipulation  |
\*---------------------------------------------------------------------------*/
FoamFile
{
    format      ascii;
    class       surfaceScalarField;
    location    "2.4";
    object      phi_0;
}
// * * * * * * * * * * * * * * * * * * * * * * * * * * * * * * * * * * * * * //

dimensions      [0 3 -1 0 0 0 0];

internalField   nonuniform List<scalar> 
38556
(
-233.2
-1759.97
1719.04
829.765
-296.232
-766.733
908.89
-594.294
515.168
1289.82
-530.74
149.814
1297.73
-200.301
192.387
1342.5
-69.2676
24.4975
1194.86
206.768
-59.1266
1186.22
129.668
-121.024
1168.36
68.0536
-50.2006
1230.22
-47.4097
-14.4469
1296.39
-107.967
41.7923
1356.49
-132.575
72.4775
1396.22
-125.308
85.5806
1423.31
-104.774
77.6849
1410.5
-45.1032
57.911
1346.07
10.8619
53.568
1237.12
59.6182
49.3348
1138.11
70.8574
28.1491
1051.39
76.2347
10.4872
46.0136
-0.625133
-363.357
-1625.11
3490.62
-321.802
-719.102
381.314
23.1781
-735.666
-203.607
150.93
-540.584
-117.909
475.733
-302.947
-222.155
624.333
-105.694
-112.174
727.184
-9.47142
113.389
812.888
-33.6709
77.6347
855.587
-84.6237
109.978
902.779
-135.202
40.6008
927.851
-154.058
21.0183
958.517
-153.523
-9.71847
978.04
-135.311
-9.52032
989.368
-102.832
-13.2692
969.888
-29.4036
3.78069
941.951
27.8973
10.9013
917.137
58.3058
26.1262
890.755
61.1324
36.1075
859.392
61.3109
46.2863
44.4773
19.4223
-1444.14
-1886.65
2191.43
-547.695
-779.291
-836.26
7.3272
-950.1
-340.589
28.3669
-550.694
-10.9303
345.961
-582.38
-38.1619
460.641
-295.789
75.4139
582.565
-254.575
123.18
662.988
-186.815
72.7214
704.977
-203.639
77.0257
740.143
-194.447
24.078
759.505
-191.603
18.1832
780.283
-165.319
-8.98224
787.323
-125.472
-16.8779
784.343
-62.4272
-37.4246
769.936
-1.93624
-13.0598
753.4
35.631
8.8023
740.5
51.6438
19.5613
731.616
49.1511
20.8649
723.572
50.5573
18.7982
43.4576
3.03511
1449.06
-1757.09
-1782.89
1258.6
-146.679
-442.147
953.311
-420.979
-223.836
704.744
-324.765
22.6385
440.491
-401.099
82.9733
391.207
-287.684
41.1794
438.945
-383.124
80.81
502.049
-303.69
53.7709
573.897
-348.046
72.5593
627.964
-294.528
46.0146
668.794
-288.002
55.5684
703.92
-238.59
38.1455
718.189
-183.483
43.7413
707.402
-79.1399
27.4999
685.461
-7.5247
27.5302
651.447
46.5935
23.0506
629.746
51.7123
21.633
625.219
36.8559
16.8219
634.032
26.4433
15.3007
27.6404
2.99617
549.939
425.138
1412.96
319.037
524.435
-440.211
424.123
-314.335
-211.73
469.723
-444.447
74.0818
508.132
-470.177
30.6698
524.29
-328.811
24.9684
552.18
-460.126
49.1119
581.088
-349.516
16.9176
612.487
-412.553
33.108
651.774
-344.06
10.2453
690.039
-345.387
19.1201
739.687
-286.811
-1.42678
777.653
-230.449
9.00039
773.725
-87.9842
12.7722
727.385
10.0992
28.7157
672.357
71.2479
30.3742
643.719
62.0544
18.2956
638.415
24.7024
17.4577
635.834
14.3729
14.6514
22.9686
3.84995
1785.12
-1177.59
1210.68
1742.03
425.754
141.765
1005.63
-100.34
522.411
692.209
-288.959
157.932
533.451
-381.327
69.9073
482.659
-276.575
-1.44349
530.048
-519.764
12.2491
516.334
-327.612
-8.18946
547.697
-444.618
0.702228
576.551
-362.763
-10.1505
616.492
-377.178
-8.14983
662.235
-309.339
-23.215
709.703
-255.46
-22.4567
721.979
-95.5111
-4.74937
705.223
20.5441
6.31098
685.805
75.9545
14.7115
657.675
58.1292
32.0552
608.603
25.0094
48.7645
539.856
32.7643
50.3555
32.6732
27.523
338.727
1019.59
1365.94
465.429
201.578
97.474
736.26
-54.5992
-316.573
788.141
-181.685
-159.155
767.602
-203.873
-156.916
704.638
-88.2738
-125.337
610.21
-67.4922
-52.89
-112.706
-75.832
-116.417
573.486
-65.4007
-46.5987
-54.4224
-67.6372
-56.8286
569.92
-100.204
-6.84074
-118.509
-101.751
-113.747
600.5
-105.786
-9.86416
-94.1652
-98.2279
-85.3005
631.015
-107.153
-9.23932
-102.338
-97.1623
-91.8009
669.766
-91.3902
-36.432
-77.3978
-79.1012
-63.7694
708.684
-71.9246
-56.7343
-60.7535
-57.8288
-47.1365
729.397
-38.6346
-16.9462
-21.8641
-24.284
-14.4949
725.342
9.08002
15.5188
689.392
77.8747
34.0298
595.283
78.8151
73.4233
477.937
72.2237
70.1321
399.386
70.9048
40.4104
38.4041
17.9755
-918.859
1453.08
-1326.01
-83.0049
3.66868
-637.945
377.745
-135.026
-380.324
465.103
-180.822
-88.221
577.612
-197.398
-118.983
134.442
-7.42188
-65.1098
138.244
127.664
130.702
21.2251
-8.13894
17.7327
108.714
-40.2363
-1.52855
-82.2083
98.3354
-72.2614
-9.26638
-130.322
135.454
-98.8721
-6.4647
-141.232
151.388
-113.617
-2.32547
-169.242
169.71
-110.474
2.85399
-171.982
170.4
-94.0662
4.2584
-175.2
172.257
-68.5405
-0.44162
-174.318
178.201
-39.5609
-2.95683
698.234
-1.68492
-9.05743
-181.894
-184.005
-168.095
-167.688
5.64082
6.50927
11.1209
630.707
101.797
43.6043
515.954
134.295
59.2731
436.912
125.61
25.6554
410.742
109.06
-11.9843
55.7926
-16.9706
-651.583
584.758
-201.239
-292.522
-426.294
70.9024
118.177
-260.728
-284.997
266.762
-243.568
-85.8394
114.454
-287.18
-79.4901
108.111
109.778
103.692
155.524
-35.9757
-12.5168
4.35117
-49.7095
49.834
-3.371
-1.10463
-52.6535
22.2881
52.9106
-21.3999
-1.14536
-55.1356
25.5891
53.3662
-22.9379
-0.881775
-49.5014
29.1586
48.2538
-27.2216
-0.689426
-50.5661
31.0047
50.6613
-31.5404
0.440447
-53.0022
26.0911
52.5496
-26.3306
0.6922
-50.1338
18.608
48.1698
-17.6386
0.994627
-45.8257
10.575
45.1566
-9.39151
-0.514469
-45.694
179.909
-2.96437
0.376047
-45.7528
-43.9562
-43.6031
607.527
137.828
25.4531
-174.042
-173.167
-162.664
-159.139
518.468
184.455
38.8989
471.485
173.553
-0.95987
460.336
162.143
-41.9345
104.778
-47.6929
425.817
-291.296
926.052
339.554
-603.919
263.887
536.498
-390.804
-66.8677
532.796
-294.029
54.1626
136.826
-277.965
-31.9267
136.706
139.488
142.488
59.2276
145.679
-59.8488
-8.23237
12.6597
-37.4835
39.2762
-14.7171
0.264709
15.5893
-42.8724
44.294
-16.1249
-0.88604
18.713
-49.9602
52.2461
-20.0789
-0.920007
24.5585
-56.5397
55.3551
-23.5718
0.197833
32.3947
-50.8733
50.6114
-32.1138
-0.0189772
26.3948
-50.7158
50.2062
-25.699
-0.186161
13.68
-47.4916
46.7822
-12.6643
-0.306296
6.2397
-45.4038
45.2259
-5.27062
-0.791149
-44.6712
0.945547
175.936
6.09315
-8.06833
-44.8883
-42.5904
-42.7564
629.403
172.669
-8.59275
-171.466
-170.642
-156.534
-157.008
592.368
218.563
2.92753
580.973
211.734
-26.7853
600.301
184.483
-41.6683
111.818
-27.6875
-82.8938
-2526.77
-2484.17
-95.5402
-1086.59
495.32
512.828
-795.624
-203.548
601.346
-344.355
-38.192
148.915
-269.298
-15.9584
151.337
154.545
153.84
51.499
183.922
-75.8388
-10.6675
17.3568
-53.2203
57.2787
-19.0292
-2.38589
21.1784
-63.5724
65.0742
-20.5944
-2.08575
23.0926
-69.2219
70.2497
-21.8241
-2.29619
20.4447
-72.3486
71.2736
-19.3402
-0.0295151
29.3744
-61.6685
59.1431
-26.0004
-0.848623
23.9342
-52.3323
50.2221
-22.7131
0.889135
10.4555
-46.1343
45.4071
-10.2251
0.496752
2.89202
-45.6803
46.0281
-2.50561
-0.734218
-45.2064
-13.3297
177.042
21.3235
-6.70045
-45.6715
-43.3561
-44.1012
670.702
195.347
-19.8139
-173.2
-175.997
-159.567
-164.803
672.21
228.714
-11.6586
695.731
215.839
-27.6262
759.403
149.381
-28.57
68.9705
-10.753
917.843
-2888.23
-93.6727
1235.06
-1027.61
-376.2
949.679
-420.248
-89.9977
871.925
-283.535
16.9343
183.197
-210.007
49.5864
192.134
190.302
197.414
95.9767
186.01
-103.037
4.2476
25.9924
-50.5793
52.3176
-28.7138
0.983116
20.6934
-54.6369
55.8681
-22.4279
0.503264
20.8799
-60.1496
61.5443
-23.8383
1.56374
22.8988
-65.5726
66.8831
-26.585
2.37563
18.8617
-62.8242
56.058
-15.4255
3.33007
15.9527
-41.6761
40.3723
-14.4966
-0.152375
9.90632
-41.3964
41.8065
-9.51834
-0.798068
2.71177
-43.6148
44.405
-2.85892
-0.643037
-46.5864
-27.5871
187.141
30.7874
-6.45692
-46.5218
-45.4274
-45.3488
768.681
177.631
-15.1273
-188.725
-189.33
-177.387
-180.396
797.043
201.241
-0.889036
825.87
178.575
8.43751
849.375
108.15
17.7253
49.9514
2.3295
284.383
-1360.52
1453.14
279.097
-587.728
-434.594
384.475
-381.53
-144.096
531.284
-421.837
-8.50628
723.799
-429.596
27.0753
202.619
-623.245
-0.544975
117.354
169.541
113.819
162.708
196.379
194.982
190.186
31.0563
210.319
-121.025
-2.52317
26.5006
31.6362
26.6545
25.5379
-200.809
200.976
-102.473
-1.71624
26.6497
25.3494
26.4849
25.0669
-210.489
200.237
-94.9961
3.98619
25.2036
25.5905
25.4013
18.7047
-164.247
138.164
-62.4012
10.7361
19.5909
19.3052
20.1472
14.4069
-137.095
130.783
-58.2976
5.63067
15.1391
14.4121
15.0206
12.0617
-121.159
119.351
-47.8681
-0.513463
13.4905
11.6916
12.9455
7.87591
-127.094
135.619
-34.5921
-4.8974
8.30735
7.30221
7.4799
2.52283
-141.365
152.935
-12.2612
-6.04567
1.61364
1.79553
0.805182
703.766
44.1163
-0.44324
-31.5854
-33.8489
-31.7309
-31.6632
-164.746
-149.525
-157.625
-146.715
770.912
91.3879
19.097
802.277
131.964
37.9117
808.57
121.237
51.0441
787.754
81.9399
47.0263
39.7232
17.0748
1383.63
-982.425
-912.735
1041.22
-499.523
254.203
926.167
-352.399
85.9221
907.624
-449.369
46.0743
918.151
-454.944
14.8215
833.753
-530.216
-8.63255
782.257
-307.599
13.3188
105.486
71.6765
101.733
66.8797
709.106
-417.146
15.9943
104.812
132.45
104.25
132.791
660.314
-227.503
25.6044
79.2945
47.3557
77.1978
46.8428
607.181
-268.916
31.4928
61.152
83.1354
63.1034
83.166
563.604
-157.065
27.3998
49.4298
39.5469
47.1749
37.0907
528.226
-174.71
17.9744
44.8897
53.6364
42.7326
50.8557
518.51
-102.228
17.4992
29.6455
20.3475
26.5505
17.9014
524.564
-92.7753
15.2372
17.8302
20.011
17.2303
16.4124
568.32
-30.0669
30.4276
623.988
5.54254
30.1768
666.425
54.0004
35.527
690.345
55.8059
41.5108
701.941
30.8011
39.5431
-0.991367
26.3132
-291.246
-83.6195
720.751
35.0211
-573.758
-252.032
540.666
-808.496
-49.5477
805.499
-669.099
-45.103
877.499
-540.632
13.6874
862.058
-475.911
-38.8627
837.216
-291.685
8.92719
748.235
-311.742
-16.4226
680.802
-169.465
9.3945
609.671
-204.562
6.77687
567.589
-128.713
13.7303
535.942
-150.055
6.99208
527.478
-105.368
11.6038
525.672
-101.678
10.7088
538.886
-57.6825
14.4015
568.407
-41.8824
17.9042
612.808
-10.6236
20.2224
650.334
-4.03657
22.3169
657.418
-11.4213
35.1378
-23.4899
18.3617
1447.89
1163.79
-1145.67
1385.27
-522.685
11.5484
1284.83
-716.541
8.4777
1136.78
-622.279
101.234
996.823
-502.61
101.934
872.444
-380.636
29.1042
755.136
-222.743
48.3663
675.047
-228.008
-3.64541
640.282
-139.027
4.3267
607.574
-164.461
-7.39384
598.786
-120.716
0.791632
588.165
-135.614
-3.82043
590.881
-109.492
1.40725
593.496
-103.034
-1.25968
602.356
-72.1356
5.59337
611.396
-51.2065
0.284482
622.227
-23.2108
1.75579
630.879
-10.4752
-2.21293
619.645
3.52635
-3.71362
9.5474
-25.6202
1955.54
-673.785
-1377.02
2745.07
-1135.23
-176.98
1969.2
-586.604
645.926
1298.2
-448.905
497.626
906.608
-373.565
262.548
752.018
-279.304
53.257
699.017
-191.256
21.5139
623.153
-143.893
-8.25049
614.435
-109.142
-21.1673
583.601
-106.544
-27.083
589.349
-96.969
-29.4954
585.887
-104.812
-27.3401
597.71
-104.104
-17.2102
606.237
-100.249
-11.3121
614.072
-77.3371
-2.63321
617.038
-52.5368
-1.63641
618.893
-20.3854
-4.68038
619.158
-0.335928
-10.4039
612.792
25.1364
-15.2435
42.5199
-32.909
969.191
-2015.31
-99.0284
1159.62
-1043.78
-281.877
1178.12
-135.347
-469.763
1022.86
-91.9709
-201.671
958.399
-197.295
-111.808
891.336
-182.089
-30.152
839.398
-152.091
12.7727
787.896
-80.6809
-11.7099
756.855
-60.1148
-17.9857
731.313
-39.1371
-41.8648
722.93
-49.2386
-39.3475
722.441
-60.848
-43.4745
736.953
-83.8027
-34.8135
757.949
-85.1662
-36.0795
777.487
-70.1055
-26.7692
792.731
-45.5227
-22.2578
793.322
-14.0675
-6.90868
777.53
11.4313
4.02461
750.921
41.8412
9.90429
56.6127
-3.86252
2103.78
-1716.61
-1364.3
1886.84
-393.593
-433.236
1567.42
51.1356
132.93
1399.01
38.0347
38.4091
1297.81
-82.7354
-13.3659
1217.01
-88.0964
-13.1923
1106.72
-71.4854
29.6857
1001.24
1.50208
23.3019
894.15
27.4123
19.5617
811.422
63.8691
-20.2788
748.059
56.1801
-42.055
709.473
50.9408
-73.2032
710.182
-12.3282
-72.184
729.587
-38.9386
-65.6318
745.89
-30.9567
-55.4525
759.451
-11.1629
-47.9209
773.769
6.88112
-35.2661
783.059
21.7409
-19.6001
786.246
37.6062
1.04823
44.7835
4.86784
1776.52
419.156
1700.62
-317.689
1676.71
75.0468
1666.96
47.7811
1667.12
-82.9001
1692.27
-113.237
1672.51
-51.7301
1663.62
10.3914
1607.11
83.9236
1571.82
99.1613
1523.44
104.559
1480.65
93.7269
1358.13
110.198
1214.72
104.467
1105.2
78.564
1036.94
57.0958
993.51
50.3128
966.458
48.7939
953.695
50.3692
45.1888
1857.48
-4930.05
1885.11
679.278
-800.474
1211.95
865.695
-536.887
865.638
1148.2
-360.811
228.117
1133.64
-57.8691
264.815
1166.76
-16.7028
8.08698
1025.79
94.0094
-12.1695
1010.69
-6.81243
-99.1102
1003.44
-28.7918
-14.1566
1067.09
-80.0094
1.9109
1137.45
-83.2791
54.7063
1233.76
-81.6468
57.8214
1298.11
-52.787
74.0134
1315.83
-11.919
71.8886
1266.59
28.3439
78.8064
1179.17
48.1358
92.854
1092.16
51.0384
85.3039
1034.33
39.502
46.4732
985.648
32.6833
26.4874
20.0709
7.16331
-1882.83
-1475.4
1996.88
-800.139
-789.918
-711.931
-311.795
-749.97
-478.868
-101.985
-496.415
-192.115
236.792
-285.215
-333.586
365.648
-141.606
-116.127
517.085
-66.4127
122.374
602.101
-82.8765
68.6827
667.907
-95.4461
110.827
717.796
-104.761
15.4634
748.229
-98.7356
6.04195
777.498
-83.2864
-37.3483
797.321
-57.3021
-24.8282
811.576
-16.727
-22.716
807.726
26.5771
9.39692
790.193
46.8818
29.6883
768.568
53.9188
44.8712
751.379
47.0222
45.7766
733.48
45.8526
51.0156
35.4021
13.7727
-186.376
-1956.77
2861.07
-542.321
-1003.72
-266.515
-190.789
-1103.37
-338.722
-109.77
-608.097
19.7328
173.309
-558.506
-47.9497
281.726
-262.825
88.216
441.07
-230.147
127.571
507.673
-151.363
74.6051
553.775
-154.071
89.5488
581.251
-127.312
19.1528
598.49
-115.718
17.9259
609.772
-85.7653
-17.7857
608.46
-52.062
-20.8056
603.272
-15.784
-33.1793
600.213
22.1389
-5.56287
600.627
41.066
14.2043
603.284
46.5538
24.2691
605.939
42.6958
22.5363
604.347
43.6703
22.5726
37.5241
0.838709
1759.55
-1650.07
-1496.59
1111.77
-514.403
-283.681
681.373
-611.58
-285.229
452.648
-389.668
32.9333
288.283
-382.835
71.6669
246.799
-235.786
55.6247
331.255
-310.117
76.3233
384.635
-210.115
59.1427
456.737
-240.362
86.7492
498.494
-170.629
47.5747
533.783
-156.045
60.6074
551.401
-100.854
35.6157
557.84
-53.5132
38.7533
549.961
-8.26065
27.8566
539.256
30.8453
29.5286
528.318
48.4693
26.5848
527.151
44.6134
24.7403
534.071
33.1293
19.4679
546.14
27.9585
18.9436
27.6902
1.75493
767.11
714.149
509.263
391.541
-247.944
-331.102
363.925
-526.018
-269.676
382.395
-408.639
74.5827
384.512
-382.445
28.1627
379.044
-239.641
34.292
422.373
-370.059
65.7256
450.23
-239.454
18.3996
490.981
-292.546
44.5406
525.984
-204.836
9.44931
559.483
-193.64
23.2162
584.637
-122.86
-4.57461
590.164
-58.1326
8.09272
572.856
11.7938
10.0256
551.77
50.4743
30.1725
534.044
65.7963
30.7728
532.217
42.7384
21.9978
542.424
18.7079
21.672
548.836
17.0674
19.1305
23.6614
4.36163
676.635
-42.369
2303.26
530.844
-451.155
490.767
520.011
-296.869
304.095
405.21
-263.247
127.34
369.187
-296.085
19.5709
296.318
-179.518
11.302
373.287
-448.488
13.7092
354.777
-223.011
-6.12256
402.243
-347.615
8.30515
432.599
-236.824
-8.51911
475.917
-241.681
-3.42648
511.773
-156.578
-25.3528
539.723
-89.0148
-19.5243
541.149
10.4846
-4.86681
538.271
54.8109
4.85278
534.8
67.5845
16.3944
530.955
36.392
42.2463
524.188
22.1404
52.099
496.92
35.0499
59.6411
32.1485
38.9799
738.976
658.465
2044.26
688.717
-246.544
-56.8794
594.394
-221.663
-297.455
613.836
-252.138
-189.705
552.318
-212.402
-179.081
456.907
-73.2497
-136.194
392.57
-78.7476
-47.1829
-113.693
-83.5912
-113.826
376.103
-58.3595
-43.4451
-48.8901
-55.6229
-46.8255
402.119
-93.8234
4.81063
-102.667
-91.1078
-97.6842
443.86
-82.0607
-1.87341
-68.5206
-74.7586
-61.2156
484.979
-78.7933
-3.24466
-73.1793
-71.1061
-65.7166
519.699
-57.598
-40.7166
-43.3462
-49.5056
-36.5637
543.231
-36.4345
-50.1609
-28.2921
-29.9208
-24.4728
551.251
-5.6793
-11.6458
0.0692485
-1.15234
3.92693
554.751
54.3546
12.4749
539.304
75.4974
41.5639
491.051
68.2349
89.8335
432.404
72.1685
78.7513
384.681
75.6366
47.5458
44.9477
21.6806
-25.2856
972.682
581.465
61.9729
-273.767
-697.98
291.263
-275.467
-555.809
373.577
-317.442
-105.231
459.482
-266.8
-150.491
103.603
-10.9873
-68.7345
106.375
93.4692
95.6185
8.25771
-11.5437
5.06469
5.54089
85.3354
-54.7493
-11.2713
15.2439
-63.3346
75.7083
-71.4812
-14.496
10.8151
-99.8834
99.6635
-94.7531
-9.66558
5.3871
-103.23
111.915
-93.8422
-2.29113
-1.20596
-127.413
127.147
-82.0048
4.68282
-0.561622
-130.563
132.348
-61.1558
2.33486
7.59981
-139.078
137.711
-35.8695
-6.79726
11.5549
-138.432
141.124
-8.54386
-11.3817
529.984
14.0938
-11.8424
-141.297
-142.156
-128.512
-129.286
18.5431
15.7432
20.0269
493.126
105.211
50.7486
431.249
124.549
64.8355
387.818
121.075
20.1803
365.556
103.519
-17.605
53.3987
-21.115
-960.132
419.163
3279.16
-556.806
-576.614
-29.5765
82.6865
-529.082
-670.873
150.13
-396.879
-73.8452
83.7562
-366.03
-133.617
77.2918
74.2987
68.1398
17.3925
118.814
-43.1689
-20.2684
2.65713
8.25337
-38.0526
37.3579
-6.55282
-3.66301
3.00725
-37.0431
21.0676
36.6638
-20.3564
-3.33913
2.63197
-38.469
25.1997
37.3412
-23.9009
-2.80306
1.53079
-36.7236
26.3784
36.5071
-26.4087
-1.28398
-0.548625
-38.8352
23.5847
38.8598
-24.0961
1.03546
-1.07068
-39.0708
17.3112
38.3041
-17.1178
1.64395
-0.402491
-37.4585
10.3265
36.8905
-9.81455
0.458613
2.9949
-36.1427
3.37232
36.099
-3.2501
-3.07346
-35.843
4.96302
138.417
16.3565
-5.70399
-35.6938
-34.2853
-34.1163
463.99
138.713
30.832
-133.047
-132.354
-119.019
-118.452
435.035
161.223
31.1792
418.11
151.219
-14.1784
406.167
124.192
-50.6646
69.3863
-54.0239
340.041
-589.543
3532.15
332.734
-597.87
292.451
399.335
-574.523
-88.0283
447.713
-422.902
31.8067
117.57
-355.624
-62.5655
123.352
110.471
116.552
10.5167
67.8888
125.379
-70.8104
-15.4034
0.384725
14.9754
-33.5382
35.7053
-16.6955
-0.831653
2.22155
18.9832
-37.9893
38.8149
-19.5952
-2.43514
2.78772
23.0876
-41.5086
42.2281
-23.5397
-3.05503
0.353881
26.589
-42.4541
41.9364
-26.0501
-0.375063
-0.212793
25.5245
-41.1315
41.2024
-25.6593
0.276723
-0.148852
16.7814
-40.8738
40.3751
-16.5658
0.431915
0.420122
8.16563
-38.4998
37.9914
-7.65675
-0.420613
1.81638
2.4869
-36.821
36.5865
-2.09167
-1.97712
-35.3218
10.7326
-17.3027
137.367
19.4982
-11.3064
-35.5677
-33.9176
-34.1817
491.881
154.689
-6.93782
-132.391
-134.165
-119.945
-123.01
492.552
169.66
-6.17983
509.553
144.266
-36.8331
531.167
106.12
-45.2101
65.502
-33.2817
-1459.73
-2904.7
361.375
-414.078
-939.438
-208.764
328.462
-887.298
-633.313
456.092
-449.437
-139.287
122.594
-360.198
-16.5095
121.579
108.806
108.238
13.5032
67.1963
153.405
-95.2971
-16.2131
3.25314
19.2289
-43.2549
45.9398
-21.7061
-3.4609
4.17465
23.4391
-48.543
49.3105
-24.0171
-4.36421
4.65535
25.2335
-51.1217
51.5031
-25.4735
-4.79666
-0.685127
23.2729
-51.0853
50.074
-22.7625
1.18602
-2.34442
26.1247
-45.1471
44.022
-25.4346
2.77936
-1.91652
15.2833
-42.17
41.7461
-14.6422
1.69931
0.0308245
5.8677
-40.7588
40.5448
-5.24819
-0.436391
2.21928
0.462114
-39.4449
38.8805
0.2596
-2.37659
-36.9525
8.77837
-21.7792
143.067
25.8104
-9.12653
-37.7588
-35.6299
-36.4091
559.607
149.378
-21.1017
-140.137
-146.315
-129.946
-136.611
585.659
152.895
-20.9458
628.065
108.436
-34.2011
672.288
59.6582
-26.3312
40.3028
-13.475
580.946
-2714.54
-372.823
677.451
-836.164
-575.979
673.656
-444.566
-528.935
695.267
-306.143
-147.971
162.645
-230.268
-26.2738
167.159
153.63
157.762
-4.70563
112.54
169.323
-112.96
-1.55243
-4.13489
29.6358
-46.301
48.1205
-31.0732
3.75277
-1.73104
24.9631
-47.6833
47.5965
-24.9396
1.79433
-2.72432
27.1428
-48.325
48.7939
-27.4452
2.55781
-4.08425
23.8111
-50.3554
50.1786
-23.6268
4.07671
-8.40219
18.2624
-43.1572
40.3952
-15.4201
8.322
0.657459
11.7323
-36.3143
35.8616
-10.9828
-0.954207
2.31117
4.79526
-36.5922
37.0198
-4.87815
-2.65593
2.23376
-1.7414
-38.8584
39.4477
1.48803
-2.56974
-40.3537
8.7359
-28.7935
159.666
28.7074
-9.13863
-40.4328
-39.1183
-39.2721
661.966
115.235
-12.1125
-160.994
-164.463
-151.006
-154.376
692.326
119.866
1.78011
719.66
79.5131
10.0261
730.696
45.6736
20.6737
35.5834
-2.38246
-171.137
-534.004
2603.25
39.2874
-566.453
-914.729
287.892
-393.063
-444.203
406.954
-406.328
-27.3835
590.911
-398.384
11.2344
160.922
-591.91
6.56374
120.358
160.796
124.983
161.688
154.789
148.742
143.434
27.7759
-2.92162
163.912
-102.62
1.0272
23.3
27.4472
23.0016
23.6381
-0.810703
-146.752
145.483
-96.5217
1.86663
24.8614
23.5033
24.7321
23.6564
-8.59567
-154.732
143.043
-82.7679
10.19
23.1945
23.2821
22.7293
18.2874
-15.671
-117.368
107.078
-63.728
16.4489
18.7062
17.9179
18.328
13.303
-8.65725
-113.617
111.97
-51.1529
8.32645
13.4947
13.1164
13.2167
9.78134
2.20311
-106.88
109.255
-40.2115
-4.18447
10.4683
9.49189
10.0767
5.58618
7.91245
-118.414
124.994
-25.4441
-9.78789
5.04032
5.37073
4.74214
0.732982
7.31091
-127.151
135.782
-9.54904
-6.61142
-0.586278
0.665992
-0.593881
602.574
27.9958
7.34515
-25.7037
-26.362
-22.0981
-20.8626
-143.7
-134.867
-136.039
-128.725
657.529
49.8358
29.5419
685.16
79.3673
50.7793
694.971
63.6807
57.0663
686.412
48.5966
52.6618
35.9769
14.6471
0.904836
-259.075
-1144.6
302.918
-470.103
-144.16
676.905
-420.47
-260.658
698.647
-463.925
81.9292
745.563
-438.744
8.26544
639.39
-503.184
8.81477
595.604
-233.948
19.724
86.5668
54.1382
80.8876
49.7369
515.906
-388.514
23.8905
103
127.328
104.482
125.506
484.148
-176.069
30.5556
65.6991
39.0834
60.8196
37.2735
446.068
-253.97
34.1714
63.4717
81.2284
64.5863
80.0853
433.908
-133.93
26.6335
42.4478
32.7047
40.5039
31.2001
423.358
-163.449
17.0687
40.4051
48.0877
39.5398
46.8719
436.123
-87.2131
16.2797
23.4944
15.1551
22.3739
14.6448
454.765
-83.853
16.7929
16.8603
14.1551
17.2276
15.4121
498.119
-25.0682
40.1371
544.526
-5.90038
39.506
580.812
35.157
43.4517
604.593
34.5824
46.8277
623.532
23.8435
45.3572
16.4264
26.4722
-872.765
-826.923
6.73298
-216.391
-855.894
-522.615
347.61
-878.81
-155.209
544.892
-677.904
-28.4062
632.17
-536.216
23.8809
605.801
-479.472
-36.205
627.333
-260.207
13.6536
549.175
-310.005
-16.774
522.262
-154.404
14.643
474.051
-205.368
6.38552
458.226
-120.471
16.0962
439.864
-144.353
6.25886
442.964
-92.1416
13.4321
448.061
-89.0447
10.8029
465.642
-44.8541
16.6069
493.767
-34.0071
17.886
531.712
-7.07773
24.5122
564.594
-1.62971
25.6466
584.553
0.199482
38.8227
3.93589
14.0074
624.576
-802.013
-2004.07
732.758
-780.803
-171.725
841.968
-706.754
-272.788
780.975
-602.497
86.8201
733.192
-482.887
96.3874
630.65
-380.897
33.0708
594.088
-224.166
48.8874
530.252
-245.119
-4.69531
521.532
-147.103
5.74565
492.713
-176.123
-7.81977
493.638
-123.283
2.67916
484.292
-134.822
-4.00593
489.873
-100.005
3.68902
492.253
-91.5992
-1.08525
502.678
-58.0523
8.36703
510.734
-41.3588
-0.419838
520.84
-17.4448
2.01671
529.526
-8.14673
-4.38242
528.799
3.52306
-6.30958
7.72493
-30.9727
333.705
-1304.82
-3828.48
692.843
-1152.56
-164.364
832.499
-700.949
500.466
797.342
-496.676
426.962
749.767
-391.296
218.533
647.066
-283.778
58.8384
629.627
-208.117
22.9042
557.687
-169.753
-11.6762
551.386
-136.997
-24.9731
515.382
-133.18
-34.0211
514.049
-117.929
-33.5163
501.133
-116.756
-32.4904
507.979
-105.98
-18.0808
511.348
-93.9163
-12.3637
518.768
-66.2309
-1.87513
521.727
-42.2221
-3.73161
523.46
-15.341
-8.51785
523.057
-1.14002
-17.0075
519.425
10.6043
-18.6926
14.9201
-42.0004
2616.47
-809.449
1402.67
1715.64
-470.509
-63.0998
1206.42
-242.818
-418.673
969.626
-239.427
-222.125
848.804
-270.05
-112.232
777.85
-207.501
-35.4752
743.547
-168.477
7.4362
696.11
-108.913
-25.1127
671.693
-100.781
-29.786
642.975
-87.0538
-59.2733
632.128
-95.0441
-51.3855
623.522
-96.3342
-55.2899
628.003
-106.023
-39.251
633.335
-97.5025
-37.8253
637.389
-73.4989
-23.5551
639.314
-45.8898
-20.5158
639.659
-14.3517
-8.24243
637.247
6.30259
-1.00608
632.515
21.0465
4.19397
25.5598
-15.5876
2001.79
-665.706
-987.477
1383.19
163.575
-448.725
1423.93
60.4736
-211.101
1326.31
-49.5471
-53.8486
1229.91
-159.719
-27.2966
1125.31
-103.683
-12.4082
1021.31
-61.9275
27.1296
934.717
8.35509
-7.37174
859.652
17.6679
-23.8218
801.05
36.7509
-85.4814
753.715
19.9524
-109.717
719.083
10.9018
-145.807
707.558
-50.7022
-115.98
703.544
-71.7417
-87.3787
696.485
-58.4715
-63.4201
690.399
-36.7244
-51.0012
691.277
-14.3625
-36.1326
697.561
1.17845
-20.7598
707.52
12.8563
-0.720434
18.6163
-0.13574
1569.45
-945.445
1907.03
-491.691
2207.77
-165.224
2230.69
-24.6887
1962.93
25.1408
1765.79
-19.7786
1603.16
48.9674
1548.61
73.3004
1502.28
147.919
1490.63
147.571
1462.74
152.394
1424.15
143.221
1302.83
180.811
1171.71
163.847
1074.85
116.952
1012.17
83.0517
971.943
76.1805
947.299
74.616
935.579
74.9458
64.3156
68.6964
-2374.15
1794.86
-54.5356
-156.723
1491.9
627.407
-397.624
581.319
844.728
-193.735
204.532
848.284
-1.03366
262.292
893.248
-27.2466
-9.62974
816.358
26.0928
38.6278
826.314
-39.8592
-69.2073
832.626
-41.0804
20.6118
888.234
-52.2019
-1.49502
932.604
-35.7797
46.1157
975.036
-17.9569
33.3461
985.944
6.62456
56.4814
972.269
27.1478
58.4154
933.012
39.5378
78.5258
907.366
37.332
81.1684
898.172
30.1408
64.3569
890.822
19.2502
34.5731
876.794
18.3606
22.1552
14.2446
5.36649
-1334.06
-2277.31
-1201.32
-713.722
-761.546
-727.444
-393.63
-721.158
-475.426
-214.234
-434.353
-130.893
13.8019
-275.487
-287.168
102.826
-160.564
-71.8342
329.259
-98.5172
20.5514
413.511
-91.615
36.1865
495.195
-83.4647
71.5274
542.155
-75.751
-7.9476
573.89
-60.6868
-0.785765
594.428
-39.6755
-36.1676
605.958
-15.3398
-14.394
609.837
11.81
-11.2575
608.732
32.4753
17.5644
605.621
40.4272
29.7036
602.081
41.8989
36.653
601.011
35.7796
30.3181
598.419
37.319
34.6491
29.5373
3.67501
-663.22
-2854.94
695.373
-504.141
-1087.94
-99.2022
-282.881
-1108.23
-172.906
-202.258
-566.535
71.2925
2.95485
-493.154
-35.4962
84.4283
-224.77
70.9488
283.629
-207.257
37.1105
340.012
-124.879
51.4854
400.416
-121.376
67.0559
426.058
-87.7129
5.47356
446.075
-75.0809
12.3024
451.961
-45.2109
-18.1361
451.1
-23.2266
-12.0579
447.611
1.68307
-19.5631
450.922
22.8111
0.789943
459.316
32.9595
13.2781
469.896
36.3309
19.2573
480.845
33.0355
14.3315
487.53
36.2629
16.9431
30.3446
2.80646
2254.3
-610.597
-1340.61
1206.22
-631.621
308.089
496.37
-654.935
-28.6842
217.421
-376.171
121.519
101.581
-347.512
41.8646
89.9927
-202.385
44.8277
204.773
-261.825
16.111
247.696
-151.519
42.86
325.051
-177.831
65.8488
355.581
-102.972
32.3036
389.153
-92.2688
44.2229
398.653
-40.0476
20.9529
406.841
-20.7661
28.1051
403.504
16.7782
16.0982
404.687
30.2899
20.867
407.284
37.4433
19.5036
417.358
32.0318
18.9657
432.433
25.3209
12.1068
448.98
24.7147
13.9446
22.8705
4.39948
609.713
241.206
-2340.62
463.139
-475.287
-340.863
204.229
-528.466
-137.235
178.517
-363.833
87.9574
212.963
-333.395
-20.401
194.413
-192.965
43.4218
286.354
-317.473
29.4319
312.549
-171.656
12.3422
362.514
-220.807
37.553
389.044
-124.583
4.52944
417.018
-115.725
18.6984
424.703
-47.2574
-5.04925
422.812
-17.0888
6.30603
411.505
33.0559
5.05517
407.1
43.9009
20.9668
408.355
45.5139
21.4466
420.87
23.8117
17.7026
439.114
15.5491
13.2004
451.6
18.1835
13.1755
20.8056
6.8203
101.504
-794.805
2434.79
357.331
-496.704
256.357
400.816
-291.708
23.8518
277.17
-233.096
120.248
223.575
-255.072
-5.15721
127.516
-137.387
51.7847
249.673
-411.879
-14.0424
227.429
-152.529
-3.00563
286.579
-283.329
11.6774
313.242
-155.396
-4.3701
356.819
-164.054
1.32515
378.815
-77.1524
-17.4537
394.796
-38.9706
-13.6233
395.761
31.6311
-4.40711
397.912
44.9306
1.67176
402.405
44.3249
13.0902
414.045
20.6853
33.7334
424.051
24.987
32.6544
419.605
38.4285
43.8425
34.7987
34.6731
1481.65
-471.101
-435.654
541.431
-182.746
569.379
514.451
-307.504
-254.679
478.01
-278.398
-107.962
377.038
-220.487
-112.694
256.919
-69.2943
-84.168
230.798
-85.9885
-31.3634
-112.806
-89.9752
-112.808
226.712
-46.3453
-26.4353
-39.3867
-42.7804
-36.9403
274.85
-84.0394
12.3327
-89.0991
-81.028
-84.8233
320.027
-61.5081
5.5152
-48.655
-54.7201
-43.0785
364.2
-58.8029
4.04122
-54.0237
-53.3165
-49.3683
389.527
-36.1028
-25.6556
-26.3313
-30.7812
-24.3255
401.047
-19.3528
-29.5843
-18.91
-15.9482
-16.856
402.38
4.65466
-7.84893
7.70203
6.10387
8.04072
402.885
49.4977
7.40326
394.958
59.4248
34.3906
383.041
59.5529
62.883
368.048
70.1431
48.588
345.596
72.703
35.7237
47.9323
23.5477
-364.657
-534.852
-308.151
78.1583
-441.128
-882.414
221.131
-383.938
-622.348
306.487
-377.95
-91.0356
344.111
-294.031
-114.571
71.441
-12.3496
-36.014
71.6303
61.0943
59.7612
2.00347
-12.0598
0.575198
11.7873
54.0747
-65.7491
-14.6604
14.0058
-29.4591
46.6165
-66.483
-11.0255
9.33781
-69.5004
68.3702
-85.7073
-6.53971
1.2845
-71.2341
80.3578
-74.3149
2.39863
-4.41116
-95.0856
95.4617
-60.8687
6.10089
-0.679019
-99.291
102.514
-40.5007
1.85427
8.54812
-107.689
106.523
-19.7972
-6.93848
11.0102
-104.45
105.7
0.9929
-8.5981
369.266
16.5067
-9.33425
-103.034
-104.499
-90.6548
-91.8417
18.3432
15.9313
16.9723
354.099
89.8104
35.5297
333.495
105.847
39.1457
316.186
103.566
4.06595
300.354
84.0616
-13.1321
44.501
-7.90915
5.31872
128.805
2342.67
199.376
-770.803
106.042
67.5343
-570.522
-352.448
122.816
-464.831
-42.2458
55.4824
-388.686
-99.6087
48.1577
44.0625
35.7608
15.4392
83.5218
-43.9542
-11.8739
3.20311
11.9172
-27.067
25.8644
-10.3468
-3.57098
3.65963
-24.4896
20.8935
24.0953
-20.5886
-3.57017
3.10221
-26.5829
23.6326
26.0125
-23.2808
-2.88361
1.09149
-26.3729
22.0739
26.4432
-22.5109
-0.72491
-1.35199
-28.5981
17.6031
28.5931
-17.9176
1.6715
-1.77666
-28.8522
11.8813
28.5924
-11.7549
1.91003
0.330373
-28.7989
5.9402
28.7585
-5.87035
-0.359742
3.22774
-27.7173
0.755272
27.8087
-0.988459
-3.08594
-26.6596
5.93384
98.9821
19.9508
-4.89315
-26.6199
-25.1186
-25.0688
342.388
111.104
22.2436
-94.3469
-95.4055
-81.9542
-83.3863
342.319
122.186
14.9098
341.017
110.037
-19.3466
329.652
83.2988
-38.5374
43.7427
-34.1071
405.772
653.691
7195.54
301.866
-593.035
218.588
354.724
-567.798
-143.61
359.039
-438.324
0.985388
90.8866
-367.415
-74.6296
95.1993
80.4163
83.3294
13.6455
70.7881
97.2159
-76.6899
-14.0729
0.482348
16.3275
-26.6421
28.532
-18.1082
-0.591495
2.46013
20.6007