/*--------------------------------*- C++ -*----------------------------------*\
  =========                 |
  \\      /  F ield         | OpenFOAM: The Open Source CFD Toolbox
   \\    /   O peration     | Website:  https://openfoam.org
    \\  /    A nd           | Version:  10
     \\/     M anipulation  |
\*---------------------------------------------------------------------------*/
FoamFile
{
    format      ascii;
    class       volScalarField;
    location    "2.4";
    object      turbidity_0;
}
// * * * * * * * * * * * * * * * * * * * * * * * * * * * * * * * * * * * * * //

dimensions      [0 0 0 0 0 0 0];

internalField   nonuniform List<scalar> 
12920
(
-0.0256344
-0.0436889
-0.0651459
-0.0874529
-0.100053
-0.105902
-0.105487
-0.108881
-0.125482
-0.150111
-0.172198
-0.190042
-0.205459
-0.220218
-0.235102
-0.254313
-0.280813
-0.313632
-0.349395
-0.386862
-0.0470283
-0.057164
-0.0710703
-0.0997929
-0.115919
-0.126095
-0.137211
-0.155767
-0.178286
-0.198453
-0.213873
-0.226524
-0.242298
-0.262705
-0.288787
-0.320261
-0.355807
-0.394765
-0.434937
-0.476134
-0.0323037
-0.0522896
-0.0671022
-0.119336
-0.149256
-0.164623
-0.179296
-0.198015
-0.216586
-0.233197
-0.247828
-0.259926
-0.274801
-0.296069
-0.331863
-0.373508
-0.417844
-0.4635
-0.506642
-0.543557
-0.0246085
-0.0383333
-0.0595125
-0.103717
-0.152098
-0.191332
-0.211339
-0.226498
-0.238073
-0.25115
-0.265615
-0.284511
-0.309741
-0.34231
-0.381197
-0.428369
-0.482919
-0.538236
-0.585817
-0.620277
-0.0257176
-0.0607199
-0.091717
-0.118234
-0.14169
-0.163783
-0.179056
-0.194785
-0.206784
-0.220005
-0.233779
-0.252315
-0.277976
-0.311695
-0.354296
-0.408658
-0.471843
-0.536993
-0.599144
-0.655096
-0.0446667
-0.0722564
-0.0855491
-0.105506
-0.124312
-0.146515
-0.155071
-0.170184
-0.177765
-0.187083
-0.197293
-0.213768
-0.244854
-0.291453
-0.340553
-0.394312
-0.454948
-0.527679
-0.615625
-0.709633
-0.0522722
-0.0600599
-0.0438026
-0.0555241
-0.0706069
-0.091087
-0.112544
-0.130149
-0.135639
-0.141533
-0.146552
-0.157838
-0.184829
-0.242668
-0.306941
-0.371241
-0.446239
-0.539229
-0.630477
-0.689683
-0.0293432
-0.0406907
-0.0452319
-0.066042
-0.0836834
-0.106123
-0.105652
-0.0993058
-0.0918539
-0.0873073
-0.0862635
-0.0877077
-0.0933191
-0.113522
-0.208887
-0.299049
-0.387525
-0.458614
-0.481434
-0.473376
-0.0212306
-0.0501228
-0.0576772
-0.0775951
-0.0949406
-0.0918648
-0.0919632
-0.0838181
-0.0778504
-0.0744285
-0.0740808
-0.0753209
-0.0749712
-0.0794914
-0.115952
-0.232092
-0.321753
-0.373473
-0.372478
-0.353967
-0.0476239
-0.0689518
-0.0705715
-0.0924065
-0.108183
-0.0994608
-0.0877763
-0.0776278
-0.0737399
-0.0715113
-0.0754521
-0.082439
-0.0807918
-0.0817941
-0.0918944
-0.18441
-0.259794
-0.30155
-0.316957
-0.324518
-0.0610358
-0.060115
-0.0636276
-0.0803448
-0.0974485
-0.0948409
-0.0917737
-0.0856348
-0.0790849
-0.0733663
-0.0762742
-0.0922875
-0.0911263
-0.0879408
-0.091074
-0.151184
-0.209267
-0.24755
-0.270866
-0.28806
-0.015661
-0.0362648
-0.0648042
-0.100238
-0.125348
-0.121171
-0.114754
-0.102471
-0.100183
-0.103645
-0.100481
-0.121492
-0.116573
-0.103091
-0.0981634
-0.132442
-0.174995
-0.208749
-0.232865
-0.25197
-0.0225117
-0.0604736
-0.0881693
-0.110185
-0.12663
-0.141641
-0.138383
-0.138703
-0.150042
-0.165846
-0.193542
-0.197597
-0.174563
-0.144482
-0.14455
-0.163828
-0.189154
-0.219031
-0.253552
-0.290686
-0.0217874
-0.0603093
-0.0854498
-0.104855
-0.122094
-0.138231
-0.164596
-0.197599
-0.235054
-0.281074
-0.32329
-0.360175
-0.36794
-0.358222
-0.326092
-0.313804
-0.320201
-0.348993
-0.395415
-0.447691
-0.0256903
-0.0608408
-0.0782339
-0.0898067
-0.10734
-0.128703
-0.15894
-0.196899
-0.245162
-0.29987
-0.354479
-0.399139
-0.431481
-0.452402
-0.460539
-0.466706
-0.476439
-0.50081
-0.533907
-0.561124
-0.0287689
-0.0499602
-0.0702235
-0.0964796
-0.122691
-0.153982
-0.187205
-0.224542
-0.263786
-0.301576
-0.341775
-0.375621
-0.409423
-0.439184
-0.466932
-0.489965
-0.508726
-0.51994
-0.521234
-0.499898
-0.0162268
-0.0227509
-0.0389772
-0.0889971
-0.147377
-0.194999
-0.229458
-0.255259
-0.274912
-0.291448
-0.309716
-0.331501
-0.362785
-0.39794
-0.436838
-0.468718
-0.486904
-0.489928
-0.483769
-0.46778
-0.0212254
-0.0407723
-0.0511466
-0.0825763
-0.12464
-0.169776
-0.208881
-0.23447
-0.249427
-0.253005
-0.259185
-0.266109
-0.279252
-0.295509
-0.320555
-0.352848
-0.393939
-0.434828
-0.470741
-0.497133
-0.0175238
-0.0320331
-0.0596006
-0.0898237
-0.111847
-0.135445
-0.165071
-0.200008
-0.23009
-0.244547
-0.252395
-0.258056
-0.272139
-0.290394
-0.31514
-0.346999
-0.388297
-0.436204
-0.483368
-0.521934
-0.0275246
-0.0520858
-0.0715886
-0.0824943
-0.0834531
-0.089373
-0.104962
-0.128622
-0.153131
-0.177769
-0.199304
-0.220257
-0.244673
-0.278594
-0.319643
-0.361253
-0.39977
-0.435519
-0.469316
-0.50117
-0.0331166
-0.0225113
-0.0366692
-0.0462807
-0.0504143
-0.0402392
-0.0281977
-0.0207321
-0.0208955
-0.0285492
-0.0428675
-0.0588926
-0.0736501
-0.0858957
-0.0954293
-0.101282
-0.0996887
-0.0893523
-0.0756919
-0.0666705
-0.0179808
-0.0185009
-0.022307
-0.0307001
-0.0385552
-0.0400196
-0.045847
-0.0442215
-0.045052
-0.041332
-0.0451744
-0.0562709
-0.0740308
-0.0954249
-0.116602
-0.133209
-0.143433
-0.146147
-0.140875
-0.12123
-0.0340836
-0.0101859
-0.0154251
-0.0271223
-0.0379279
-0.0443807
-0.0531071
-0.051783
-0.0537637
-0.0507827
-0.0520434
-0.0566391
-0.0677414
-0.0840268
-0.103264
-0.11961
-0.127451
-0.124886
-0.113715
-0.09634
-0.00223445
-0.0088001
-0.0151094
-0.0285228
-0.044411
-0.0528688
-0.0645499
-0.0705179
-0.0785162
-0.0853888
-0.0972378
-0.107437
-0.118055
-0.126572
-0.137042
-0.146631
-0.152706
-0.153227
-0.146683
-0.135592
-0.00437661
-0.0192734
-0.019855
-0.0273666
-0.0275581
-0.0321336
-0.0385141
-0.0411192
-0.0462156
-0.0520248
-0.0632826
-0.0745294
-0.0916328
-0.111429
-0.133002
-0.150995
-0.168017
-0.187949
-0.203703
-0.217009
-0.00776853
-0.0338504
-0.0263651
-0.0278401
-0.0203261
-0.0186378
-0.0168944
-0.0200972
-0.0245884
-0.0313276
-0.0402901
-0.05302
-0.0704423
-0.091855
-0.116201
-0.149727
-0.200868
-0.25522
-0.297289
-0.323834
-0.0194018
-0.013028
-0.00601546
-0.00482801
-0.005047
-0.00631508
-0.00846703
-0.012696
-0.0185939
-0.0253368
-0.032345
-0.0416278
-0.0570672
-0.08253
-0.119447
-0.17035
-0.229797
-0.264202
-0.267815
-0.258741
-0.00510238
-0.00898856
-0.00606642
-0.00500654
-0.00501275
-0.0061247
-0.00713433
-0.0103642
-0.0150767
-0.0229487
-0.0331092
-0.0397761
-0.0462979
-0.0656197
-0.114669
-0.163753
-0.194098
-0.181419
-0.149203
-0.117417
-0.0200184
-0.0194372
-0.0103002
-0.00751487
-0.00626385
-0.00609035
-0.00630425
-0.00700686
-0.0110987
-0.0229812
-0.0358872
-0.0516885
-0.0511862
-0.0510426
-0.0895343
-0.146076
-0.159034
-0.134328
-0.103516
-0.0784468
-0.00919743
-0.021929
-0.0132589
-0.0106319
-0.00803029
-0.00750714
-0.00790408
-0.0104005
-0.0181856
-0.037022
-0.0514625
-0.0555049
-0.0567309
-0.0468887
-0.0694136
-0.111006
-0.117862
-0.105746
-0.090597
-0.0796342
-0.0169613
-0.0236924
-0.0120601
-0.0108084
-0.010539
-0.010455
-0.0116659
-0.0152844
-0.0253442
-0.0439497
-0.0700214
-0.072008
-0.0679522
-0.050872
-0.0523993
-0.0747625
-0.0829846
-0.0821714
-0.080091
-0.0809026
-0.00596028
-0.0129955
-0.0131255
-0.0169709
-0.0243916
-0.0283507
-0.0431104
-0.0514362
-0.070219
-0.089823
-0.0956672
-0.0687011
-0.0611098
-0.0566139
-0.0445824
-0.0542041
-0.0643986
-0.0728031
-0.0776188
-0.0769762
-0.0130762
-0.0109211
-0.0110542
-0.0138814
-0.0202243
-0.0214634
-0.0266719
-0.0452936
-0.0787978
-0.102123
-0.0875274
-0.0642277
-0.0593104
-0.0597535
-0.0618594
-0.0699272
-0.0799335
-0.0878699
-0.0876809
-0.0801555
-0.0254119
-0.0264879
-0.0137297
-0.0165886
-0.0169891
-0.0194784
-0.0313316
-0.0501505
-0.0763245
-0.0883089
-0.0898995
-0.0846475
-0.0810398
-0.0819881
-0.0890281
-0.0950393
-0.102964
-0.115369
-0.132906
-0.156025
-0.0127509
-0.0132184
-0.016498
-0.0179549
-0.0233296
-0.0260808
-0.0347467
-0.0453983
-0.0647327
-0.0708465
-0.076012
-0.0736262
-0.0806473
-0.0884516
-0.0991074
-0.111836
-0.127816
-0.150242
-0.180103
-0.198225
-0.00985234
-0.0180747
-0.0246398
-0.0343398
-0.0486158
-0.0475488
-0.0523053
-0.0453281
-0.0494117
-0.0458867
-0.0457744
-0.0429404
-0.0456331
-0.0482758
-0.0565
-0.0595953
-0.0635721
-0.0637182
-0.0616092
-0.0595161
-0.00574351
-0.0196853
-0.0354438
-0.0449023
-0.0474284
-0.0381112
-0.0310176
-0.0251094
-0.0235693
-0.0229719
-0.0242762
-0.0270324
-0.0310808
-0.0351109
-0.0385154
-0.0403153
-0.0411272
-0.0417742
-0.0430299
-0.0456406
-0.00340845
-0.00672245
-0.0073102
-0.0115623
-0.0219143
-0.0320103
-0.039621
-0.033908
-0.0288181
-0.0259587
-0.0258931
-0.0275081
-0.0307633
-0.0352688
-0.0420694
-0.0508392
-0.0611116
-0.0707284
-0.073509
-0.0724124
-0.0049879
-0.0205737
-0.0270336
-0.0209171
-0.0189265
-0.0228651
-0.034483
-0.0387777
-0.0394671
-0.038392
-0.039938
-0.043006
-0.0488684
-0.0512592
-0.0511468
-0.0527014
-0.058651
-0.0703046
-0.0895003
-0.11613
-0.00920468
-0.0161345
-0.0219365
-0.0201672
-0.0169591
-0.0164867
-0.0211426
-0.0333457
-0.0520086
-0.0700179
-0.0882786
-0.108064
-0.129934
-0.147845
-0.158695
-0.165566
-0.173661
-0.183568
-0.194979
-0.206433
-0.00565774
-0.0116665
-0.0259303
-0.0299486
-0.0288072
-0.0208336
-0.015997
-0.0157895
-0.0189974
-0.0248129
-0.0323248
-0.040742
-0.0492165
-0.0562485
-0.0607095
-0.0605061
-0.0553842
-0.0484093
-0.0431325
-0.0407445
-0.00719942
-0.00886015
-0.0127792
-0.0165149
-0.0195456
-0.019744
-0.0229238
-0.025178
-0.0308878
-0.0382153
-0.0476373
-0.05704
-0.0659521
-0.0722479
-0.0751465
-0.0736859
-0.0682269
-0.0605484
-0.0523004
-0.0432299
-0.0136294
-0.0058986
-0.00876402
-0.0116186
-0.0141701
-0.016535
-0.020631
-0.0215623
-0.0250271
-0.0281685
-0.0333365
-0.038885
-0.0448916
-0.0494418
-0.0519351
-0.051829
-0.0496499
-0.0460609
-0.0424716
-0.039911
-0.000833909
-0.00498935
-0.00875881
-0.0129409
-0.0164691
-0.0194633
-0.0256213
-0.0292206
-0.0344107
-0.0385686
-0.0451771
-0.0500449
-0.0550389
-0.0588769
-0.06248
-0.0648241
-0.0662078
-0.0663362
-0.06509
-0.0646432
-0.00290739
-0.00875664
-0.00795045
-0.0095952
-0.0113144
-0.0140447
-0.0175113
-0.0198401
-0.0235776
-0.0277372
-0.0339826
-0.0402167
-0.0486611
-0.0581923
-0.0688943
-0.0792976
-0.090593
-0.101208
-0.109427
-0.118411
-0.0075428
-0.0143826
-0.00858866
-0.00940707
-0.00871585
-0.0111331
-0.0124826
-0.0158992
-0.019401
-0.023803
-0.0293301
-0.0361676
-0.0450926
-0.0568262
-0.0730906
-0.0964888
-0.126752
-0.151735
-0.169251
-0.18011
-0.0188837
-0.00658527
-0.00376045
-0.00350491
-0.00413654
-0.00595334
-0.00872548
-0.0126317
-0.0167992
-0.0213283
-0.0270148
-0.0348721
-0.0459706
-0.0622803
-0.0855366
-0.114635
-0.139414
-0.142502
-0.133425
-0.123626
-0.0118427
-0.0088777
-0.00667148
-0.00480439
-0.00467473
-0.00610981
-0.00746172
-0.0114501
-0.0152805
-0.0196098
-0.0236178
-0.0296157
-0.0405979
-0.0572558
-0.0900777
-0.109322
-0.10915
-0.0918359
-0.0749065
-0.061314
-0.013834
-0.0126851
-0.0111069
-0.00740047
-0.00568257
-0.00551684
-0.0059998
-0.00745837
-0.0117398
-0.0185403
-0.0265971
-0.0287326
-0.0329147
-0.0501751
-0.0824702
-0.0953909
-0.0845783
-0.066181
-0.0515536
-0.0415442
-0.00544727
-0.0122428
-0.011068
-0.00801895
-0.00681599
-0.00666055
-0.00742694
-0.0105045
-0.0164048
-0.0231794
-0.0290841
-0.0331308
-0.0293198
-0.0405021
-0.0685699
-0.07202
-0.0652913
-0.0563132
-0.0496574
-0.0458578
-0.0101556
-0.00616853
-0.00721629
-0.00778361
-0.00838854
-0.00894592
-0.0108747
-0.0165042
-0.0268167
-0.0375263
-0.0355639
-0.0359384
-0.0312875
-0.0305299
-0.0464855
-0.0508889
-0.0507255
-0.0489346
-0.0476927
-0.0475254
-0.00335117
-0.00572454
-0.00716927
-0.00909921
-0.0127186
-0.0159399
-0.0215257
-0.0295301
-0.0434978
-0.0539932
-0.0429282
-0.0332688
-0.0312791
-0.0279082
-0.0329075
-0.0452846
-0.0501399
-0.052388
-0.0518799
-0.0496741
-0.0064088
-0.0107008
-0.00899631
-0.0113282
-0.0146299
-0.0173158
-0.020404
-0.0321082
-0.0424656
-0.0407287
-0.0313659
-0.03074
-0.035555
-0.0405872
-0.047013
-0.051271
-0.0536733
-0.0532882
-0.0509128
-0.0491886
-0.00940637
-0.0158344
-0.0115891
-0.0119815
-0.0129781
-0.0155005
-0.0226531
-0.0292501
-0.0350468
-0.0344705
-0.0321518
-0.0314931
-0.0336124
-0.0379478
-0.0445048
-0.0499636
-0.0559434
-0.0640149
-0.0748957
-0.0884923
-0.00724774
-0.00971486
-0.011723
-0.0124844
-0.0146638
-0.0168576
-0.0226562
-0.0257056
-0.0297032
-0.0285777
-0.0295912
-0.0310966
-0.0359386
-0.0415575
-0.0486129
-0.0565236
-0.0660592
-0.0776697
-0.0909713
-0.100275
-0.00499169
-0.0100484
-0.0135106
-0.0186206
-0.0241776
-0.021708
-0.023442
-0.0216387
-0.0224862
-0.0220822
-0.0236611
-0.0257117
-0.0293021
-0.0330001
-0.0376745
-0.0415364
-0.045735
-0.0491084
-0.0523805
-0.0555437
-0.00802427
-0.0141739
-0.018519
-0.016667
-0.0159367
-0.0156067
-0.0162225
-0.0164439
-0.017612
-0.0190722
-0.0210785
-0.0232741
-0.02561
-0.0280476
-0.0306923
-0.0334962
-0.0366075
-0.0400011
-0.0442105
-0.049968
-0.00730583
-0.00493348
-0.00422265
-0.00620361
-0.0106993
-0.0154825
-0.0187703
-0.0196567
-0.0210424
-0.0226432
-0.0248295
-0.0267745
-0.0285264
-0.0301886
-0.0322124
-0.0349546
-0.0385254
-0.0436289
-0.0512092
-0.0623905
-0.0090732
-0.0105347
-0.00912311
-0.00777284
-0.00930647
-0.0136432
-0.0196886
-0.0246023
-0.0292856
-0.0333833
-0.0385832
-0.042793
-0.0456943
-0.0452328
-0.0442208
-0.0450951
-0.0490921
-0.0565011
-0.0682067
-0.0847067
-0.00309915
-0.00633138
-0.00790522
-0.00837941
-0.00864381
-0.0103353
-0.0157508
-0.0250798
-0.0375101
-0.0508859
-0.0648033
-0.0789768
-0.0914745
-0.0965707
-0.0949339
-0.0927749
-0.0944498
-0.0992779
-0.105507
-0.112082
-0.000612516
-0.00611092
-0.0148532
-0.0176706
-0.0154288
-0.0120524
-0.0131236
-0.0177312
-0.0234991
-0.0290589
-0.0337319
-0.0372198
-0.0393757
-0.0396984
-0.0385803
-0.0357366
-0.0323673
-0.0300263
-0.0292662
-0.0295628
-0.00238591
-0.00532987
-0.00831651
-0.0103742
-0.0127181
-0.0159415
-0.0206116
-0.0253353
-0.0306169
-0.0346159
-0.0383527
-0.0401232
-0.0406001
-0.0391998
-0.0369055
-0.0335929
-0.0303776
-0.0279144
-0.0263478
-0.0250077
-0.00448655
-0.00365075
-0.00516677
-0.00735892
-0.00952214
-0.01196
-0.0150006
-0.017134
-0.0196764
-0.0215573
-0.0236124
-0.0250007
-0.0260089
-0.0263094
-0.0263893
-0.0262408
-0.0261205
-0.0260678
-0.0262499
-0.0267554
-0.00158861
-0.00294753
-0.00421249
-0.00685909
-0.00917948
-0.011744
-0.0145069
-0.0166055
-0.0195415
-0.021974
-0.0254288
-0.0278161
-0.0304058
-0.0323179
-0.0340923
-0.0353705
-0.0362957
-0.0367398
-0.0371443
-0.0387668
-0.00244426
-0.00602999
-0.00502877
-0.00602884
-0.00775708
-0.00950669
-0.0116867
-0.0133149
-0.0160602
-0.0189726
-0.023283
-0.0276544
-0.0332603
-0.0390019
-0.0451293
-0.0506851
-0.0557543
-0.0595321
-0.0633377
-0.0691393
-0.00498017
-0.00711188
-0.00607923
-0.00689711
-0.0080855
-0.010174
-0.0119476
-0.014
-0.0170193
-0.0202983
-0.0250238
-0.0303779
-0.0373525
-0.0453475
-0.0550629
-0.0662471
-0.0772348
-0.0830977
-0.0880549
-0.0913368
-0.00459521
-0.00358279
-0.00270096
-0.00318733
-0.00477545
-0.00743662
-0.0106087
-0.0136411
-0.0173729
-0.021676
-0.0274219
-0.0340166
-0.0423195
-0.0519876
-0.062078
-0.0706115
-0.0732566
-0.0676815
-0.0616697
-0.0569752
-0.0120717
-0.00949867
-0.00614263
-0.00463922
-0.00571781
-0.00792415
-0.00963608
-0.0129954
-0.0153271
-0.0186946
-0.024281
-0.0323357
-0.0413812
-0.0515775
-0.0579255
-0.0576553
-0.0502663
-0.0418611
-0.0365492
-0.0327651
-0.0120058
-0.0125119
-0.0105597
-0.00658599
-0.00608764
-0.00677115
-0.00802887
-0.0106605
-0.0139801
-0.0162893
-0.0186683
-0.0262857
-0.0386955
-0.0502755
-0.0586156
-0.0453528
-0.0371501
-0.0303703
-0.0253323
-0.0217611
-0.00785127
-0.0133693
-0.0129219
-0.00853145
-0.00732634
-0.00771912
-0.00921951
-0.0121989
-0.0156852
-0.0191998
-0.0196923
-0.0211249
-0.0320585
-0.0454597
-0.052208
-0.0423385
-0.0392922
-0.0372168
-0.0360255
-0.0345942
-0.00699504
-0.00552023
-0.00639241
-0.00640486
-0.00733094
-0.00829744
-0.0105668
-0.0145251
-0.0181609
-0.0212733
-0.0230719
-0.020814
-0.0254356
-0.0348003
-0.0404906
-0.0365173
-0.0369701
-0.0382027
-0.0399089
-0.0410828
-0.0050723
-0.00683273
-0.00711723
-0.00794934
-0.0105582
-0.012978
-0.0164079
-0.020722
-0.0236413
-0.0235767
-0.0218847
-0.0216251
-0.0225316
-0.0261007
-0.030995
-0.0351373
-0.0374818
-0.0394623
-0.0412597
-0.0423423
-0.0190026
-0.0157347
-0.00844646
-0.00831902
-0.010998
-0.0134614
-0.015501
-0.0204493
-0.0205212
-0.0190163
-0.018957
-0.0209736
-0.0243445
-0.0295346
-0.0325878
-0.0359885
-0.0388482
-0.0414331
-0.0440436
-0.0467148
-0.0156573
-0.0119885
-0.00831721
-0.00959652
-0.0111427
-0.013332
-0.0162108
-0.0182954
-0.0193742
-0.020891
-0.0219958
-0.0248012
-0.0274838
-0.0315544
-0.0362608
-0.0417363
-0.047806
-0.0552572
-0.0629915
-0.070754
-0.0143927
-0.0102703
-0.00833403
-0.00941247
-0.0114687
-0.0136134
-0.0161383
-0.0175937
-0.0194547
-0.0215387
-0.0243664
-0.0279313
-0.0320329
-0.0366582
-0.0417636
-0.0472706
-0.053235
-0.0593145
-0.0651326
-0.069043
-0.00280114
-0.00573109
-0.00811505
-0.0118184
-0.0139462
-0.0145818
-0.0161691
-0.0174389
-0.0194254
-0.0217295
-0.0244815
-0.0273728
-0.030534
-0.0335439
-0.0367154
-0.0392738
-0.0417623
-0.0433519
-0.0447769
-0.0456956
-0.0080499
-0.00729919
-0.00749305
-0.00897403
-0.0113484
-0.0132862
-0.0155201
-0.017353
-0.0198525
-0.0221855
-0.024782
-0.0274153
-0.0302468
-0.0332072
-0.0361418
-0.0389805
-0.0416697
-0.0443198
-0.0474995
-0.0508926
-0.00131771
-0.00266492
-0.00334612
-0.00556939
-0.00928632
-0.0126819
-0.0156737
-0.0180306
-0.0209145
-0.0234052
-0.025771
-0.0279511
-0.0303522
-0.0336965
-0.0380299
-0.0435676
-0.049995
-0.0570193
-0.0644647
-0.0717726
-0.00147976
-0.00389207
-0.00502649
-0.00586215
-0.00822236
-0.0122662
-0.0178654
-0.0229015
-0.0281833
-0.0321898
-0.0358704
-0.0375585
-0.0380033
-0.0384085
-0.0407932
-0.0455146
-0.0520491
-0.0600084
-0.0693502
-0.0801174
-0.00360967
-0.00538175
-0.00637118
-0.00629201
-0.00733705
-0.010991
-0.0173991
-0.0259702
-0.0355808
-0.0450629
-0.0536175
-0.059571
-0.0615962
-0.0579373
-0.0532813
-0.0516721
-0.0537522
-0.0581096
-0.063938
-0.0714655
-0.00177217
-0.00483066
-0.00714129
-0.00713104
-0.0079597
-0.0109573
-0.0155354
-0.0189158
-0.0208961
-0.0213228
-0.0216615
-0.0212491
-0.0211679
-0.0207869
-0.0206514
-0.0204472
-0.0203254
-0.0200867
-0.0194803
-0.0184042
-0.000482218
-0.00384105
-0.00644101
-0.00910166
-0.0119846
-0.0152655
-0.0176458
-0.0187097
-0.0197313
-0.0198949
-0.020101
-0.0198005
-0.0194801
-0.0187922
-0.0180376
-0.0168679
-0.0155884
-0.0141718
-0.0127963
-0.0114857
-0.00844261
-0.00397573
-0.00509494
-0.00724846
-0.00971968
-0.0115655
-0.0133347
-0.0144568
-0.0157245
-0.016589
-0.0173999
-0.0178155
-0.0179295
-0.0176079
-0.0169721
-0.0159802
-0.0147633
-0.0133862
-0.0120159
-0.0109704
-0.00246431
-0.00520606
-0.0054027
-0.00677288
-0.00895853
-0.0110931
-0.0130307
-0.014857
-0.0167865
-0.018237
-0.0196559
-0.0202368
-0.0206041
-0.0203147
-0.0197986
-0.0189736
-0.0180492
-0.0170043
-0.0159794
-0.0154221
-0.00505855
-0.00452931
-0.00440042
-0.00605927
-0.00797199
-0.00998255
-0.0124821
-0.0147125
-0.0174083
-0.0195798
-0.0217785
-0.023116
-0.0244119
-0.0250935
-0.0258171
-0.0260524
-0.0261926
-0.0260533
-0.0261458
-0.0263649
-0.00670835
-0.00523883
-0.00539377
-0.00738749
-0.00965351
-0.0120649
-0.0150982
-0.0172973
-0.0202395
-0.0221072
-0.0238891
-0.0247506
-0.0253414
-0.0257454
-0.026471
-0.0273091
-0.0277385
-0.0267563
-0.0265885
-0.0256613
-0.00279089
-0.00264303
-0.00306297
-0.00532995
-0.00830624
-0.0116206
-0.0153758
-0.0184524
-0.0216872
-0.0238643
-0.025207
-0.0254305
-0.0243833
-0.0235224
-0.0223886
-0.0212681
-0.0190419
-0.0159051
-0.0138011
-0.0127243
-0.00477678
-0.00660276
-0.00520192
-0.00612094
-0.00915338
-0.0121835
-0.0140059
-0.0179035
-0.0204386
-0.023433
-0.0253997
-0.0258868
-0.0243685
-0.0218702
-0.0147595
-0.0132222
-0.0108905
-0.00919687
-0.00820974
-0.00778297
-0.0161183
-0.0160967
-0.00947991
-0.00628938
-0.00884663
-0.01062
-0.0123786
-0.0147267
-0.0169195
-0.0202907
-0.0247688
-0.0269001
-0.0251236
-0.0208798
-0.0150457
-0.00906179
-0.00688819
-0.00538873
-0.00418489
-0.00340481
-0.0265518
-0.0197949
-0.0144297
-0.00824121
-0.00954194
-0.0114948
-0.0130993
-0.0147536
-0.0160807
-0.0180545
-0.0222415
-0.0272402
-0.0286511
-0.0264053
-0.0219031
-0.0163672
-0.0136889
-0.0104539
-0.00728653
-0.0049632
-0.0121746
-0.00671279
-0.00586195
-0.00611347
-0.00907728
-0.0107921
-0.0125294
-0.0142718
-0.0156666
-0.0173162
-0.019849
-0.0245671
-0.0288038
-0.0319817
-0.032369
-0.0240685
-0.0219935
-0.0188303
-0.0151828
-0.011978
-0.0025013
-0.0056012
-0.00685038
-0.00833198
-0.011051
-0.0129451
-0.0141536
-0.0145879
-0.0151655
-0.0162474
-0.018041
-0.0205602
-0.0229498
-0.0252915
-0.0289862
-0.0239388
-0.0220624
-0.0189396
-0.0154349
-0.0125049
-0.00476426
-0.00633119
-0.00638227
-0.00859107
-0.0110058
-0.0134914
-0.0142176
-0.0171738
-0.0186072
-0.0196668
-0.0207388
-0.0215994
-0.0230545
-0.0250889
-0.0264052
-0.0271822
-0.0266469
-0.02565
-0.0241155
-0.0235659
-0.0174499
-0.00840199
-0.00807628
-0.00965715
-0.0117481
-0.0147182
-0.0168866
-0.0203544
-0.0225894
-0.0255521
-0.0275235
-0.0302243
-0.0322251
-0.0349157
-0.0371928
-0.0396317
-0.0412175
-0.0426273
-0.0428327
-0.0432143
-0.0162024
-0.00686689
-0.00793822
-0.0100854
-0.0131077
-0.0165266
-0.0185119
-0.0216583
-0.0240395
-0.0268431
-0.0289736
-0.0308559
-0.0325928
-0.0336566
-0.0347024
-0.0347202
-0.0344999
-0.0332512
-0.0318359
-0.0302642
-0.00752815
-0.00601776
-0.0085054
-0.0115582
-0.0147289
-0.0179369
-0.0205699
-0.0236239
-0.0257361
-0.02808
-0.0292301
-0.0302063
-0.0300063
-0.0293568
-0.0279452
-0.0259994
-0.0238319
-0.0215264
-0.0195231
-0.0181306
-0.00366914
-0.00482492
-0.00711352
-0.010635
-0.01451
-0.0181491
-0.0218966
-0.0254431
-0.0286917
-0.0318097
-0.0343152
-0.0366727
-0.0381096
-0.039353
-0.0394687
-0.0392441
-0.0378797
-0.0359185
-0.0333888
-0.0305328
-0.000453805
-0.00267347
-0.00485908
-0.0078383
-0.011273
-0.0147314
-0.0180924
-0.0218572
-0.0259599
-0.0303739
-0.0349331
-0.039561
-0.04415
-0.0486005
-0.0526238
-0.0558553
-0.0578984
-0.0583822
-0.0572881
-0.0544166
-0.000510656
-0.00218506
-0.00443769
-0.00602617
-0.00878245
-0.0123595
-0.016271
-0.019361
-0.0226981
-0.0253504
-0.0286309
-0.0324217
-0.0370347
-0.0422734
-0.0479681
-0.0539393
-0.060152
-0.0663745
-0.0721125
-0.0764636
-0.00324435
-0.00414422
-0.0042278
-0.00432618
-0.00660554
-0.0106655
-0.0166372
-0.02223
-0.0274594
-0.029909
-0.0315437
-0.0312578
-0.0314659
-0.0315841
-0.0336928
-0.0375781
-0.0429507
-0.0497564
-0.0582934
-0.0687512
-0.0274136
-0.0339061
-0.0348826
-0.0206393
-0.0227195
-0.0232358
-0.0250259
-0.0331617
-0.0344906
-0.0352832
-0.022782
-0.0220058
-0.025171
-0.0234325
-0.0366595
-0.0512831
-0.0479915
-0.0245011
-0.0260596
-0.0291885
-0.0264863
-0.0354838
-0.0437712
-0.0352927
-0.0262642
-0.0243178
-0.0260086
-0.0250764
-0.0858871
-0.0866183
-0.0812142
-0.0791223
-0.0639748
-0.0735592
-0.0586563
-0.0790218
-0.079636
-0.0759788
-0.0604079
-0.0510234
-0.0533408
-0.0447012
-0.0751173
-0.0751055
-0.0729086
-0.0499052
-0.0561733
-0.045512
-0.0569755
-0.0737574
-0.0723438
-0.0734413
-0.0601458
-0.0707213
-0.0618855
-0.0728571
-0.0752761
-0.0749929
-0.0798247
-0.072666
-0.075519
-0.0752159
-0.0790278
-0.0748467
-0.0803659
-0.0793262
-0.0757875
-0.0729242
-0.0794918
-0.0772562
-0.0777335
-0.0789755
-0.0798869
-0.069761
-0.0609215
-0.0743676
-0.0614183
-0.0897834
-0.0806161
-0.0835152
-0.0623494
-0.0846079
-0.0584683
-0.0635741
-0.0793016
-0.0889802
-0.083016
-0.0734519
-0.0554873
-0.0712772
-0.055903
-0.0744433
-0.0816372
-0.0778826
-0.0502373
-0.0440315
-0.0519763
-0.0451215
-0.0719226
-0.0766745
-0.0731596
-0.0453538
-0.0570252
-0.0451978
-0.0539944
-0.0734294
-0.072157
-0.0733731
-0.0617918
-0.0732146
-0.0587006
-0.0732063
-0.0816899
-0.0761184
-0.0872681
-0.0760573
-0.080632
-0.0782973
-0.0884919
-0.0812535
-0.0895431
-0.0889451
-0.0811213
-0.0785763
-0.0893994
-0.086505
-0.0812615
-0.0878001
-0.086221
-0.075564
-0.0623515
-0.0831787
-0.0680056
-0.0838529
-0.0861767
-0.0863232
-0.0589275
-0.0610274
-0.0632143
-0.0573785
-0.0872095
-0.0993956
-0.0946261
-0.0769544
-0.0627775
-0.0945127
-0.0912212
-0.0806994
-0.0929667
-0.0893627
-0.0584964
-0.0501191
-0.08957
-0.0894932
-0.0746393
-0.0887102
-0.0888514
-0.0496441
-0.056213
-0.0915534
-0.0962028
-0.0735825
-0.0883898
-0.0867013
-0.0602505
-0.0739377
-0.0958012
-0.0945627
-0.0891913
-0.0884419
-0.104779
-0.0793725
-0.091295
-0.0964064
-0.103618
-0.0925199
-0.109412
-0.110248
-0.0925338
-0.0903435
-0.10286
-0.0965269
-0.088265
-0.108015
-0.0998685
-0.0876255
-0.0721715
-0.0945662
-0.0843783
-0.0874445
-0.0975516
-0.0929004
-0.0666794
-0.0576826
-0.0792499
-0.0641773
-0.104767
-0.129346
-0.126706
-0.111546
-0.10397
-0.126955
-0.124275
-0.0996719
-0.127259
-0.133052
-0.102814
-0.105325
-0.124947
-0.131821
-0.103859
-0.135915
-0.142188
-0.10746
-0.111464
-0.135072
-0.141805
-0.0993674
-0.145916
-0.158695
-0.110595
-0.106431
-0.145572
-0.154117
-0.117558
-0.164717
-0.174058
-0.10744
-0.10933
-0.155201
-0.141547
-0.119592
-0.173912
-0.161471
-0.10514
-0.0929479
-0.131026
-0.102365
-0.106286
-0.153397
-0.130877
-0.0907587
-0.0838609
-0.0947797
-0.0827051
-0.0959595
-0.123974
-0.109112
-0.0802018
-0.0670753
-0.0805033
-0.0752883
-0.00671378
-0.00650723
-0.00764235
-0.00628637
-0.00692721
-0.00649601
-0.00793599
-0.00942943
-0.0084696
-0.0132612
-0.00740703
-0.0102269
-0.00887996
-0.0132863
-0.0195387
-0.0158861
-0.0283215
-0.0116439
-0.0169878
-0.0152026
-0.0214591
-0.0326499
-0.0336496
-0.0451596
-0.0190239
-0.0257825
-0.023283
-0.0279428
-0.0479285
-0.0464689
-0.0508335
-0.0281926
-0.0333798
-0.0297548
-0.0356774
-0.0537406
-0.05381
-0.0579052
-0.0336983
-0.0332822
-0.036661
-0.0342082
-0.0482002
-0.0558515
-0.047588
-0.0346935
-0.0457156
-0.0332313
-0.0380431
-0.0682222
-0.047097
-0.0569777
-0.0518267
-0.0728665
-0.0424487
-0.0618681
-0.00937765
-0.00977028
-0.0125162
-0.00786007
-0.00965089
-0.0101249
-0.0136625
-0.0155397
-0.0138285
-0.0197466
-0.0107613
-0.0155508
-0.0153741
-0.0223853
-0.0311349
-0.0225078
-0.0351877
-0.017605
-0.0243922
-0.0253036
-0.0350638
-0.0502013
-0.0418244
-0.0621244
-0.026272
-0.0300187
-0.0378953
-0.0414684
-0.0535185
-0.0666548
-0.0689247
-0.0313092
-0.0364345
-0.0408199
-0.0398529
-0.0585871
-0.0686089
-0.0667373
-0.0374687
-0.0348576
-0.040517
-0.0384598
-0.0480318
-0.0639589
-0.0518707
-0.0334285
-0.0361467
-0.0360742
-0.032135
-0.0545051
-0.0486755
-0.0483902
-0.0399195
-0.0579815
-0.0333919
-0.0448188
-0.0138509
-0.0257161
-0.033237
-0.0119675
-0.0153281
-0.0198142
-0.0275869
-0.0222394
-0.0354754
-0.0488386
-0.0173247
-0.0255055
-0.0310028
-0.0423573
-0.0377548
-0.0548894
-0.0718452
-0.0287368
-0.0390963
-0.0459196
-0.0546619
-0.0646541
-0.0759528
-0.0858768
-0.0421971
-0.0455511
-0.0571168
-0.0578951
-0.0728335
-0.0880169
-0.077829
-0.044206
-0.0408183
-0.0538433
-0.0415967
-0.0704624
-0.0719063
-0.065698
-0.0412165
-0.0400152
-0.0403638
-0.0390424
-0.0549071
-0.0654243
-0.0602653
-0.0377835
-0.0319768
-0.0379378
-0.0328706
-0.0472429
-0.0569077
-0.0478813
-0.0321882
-0.0406078
-0.031544
-0.0320163
-0.0505443
-0.0356181
-0.0416705
-0.0275182
-0.0330691
-0.0257683
-0.0327271
-0.0633685
-0.0463198
-0.0665893
-0.0360467
-0.047259
-0.0383335
-0.0532675
-0.0868324
-0.0773771
-0.100831
-0.0509423
-0.0596775
-0.0590119
-0.0667496
-0.0956969
-0.106374
-0.105954
-0.0617449
-0.0592443
-0.0660803
-0.0554228
-0.0760713
-0.0992754
-0.0697463
-0.0539139
-0.0402985
-0.0501547
-0.040075
-0.0611964
-0.0633859
-0.056813
-0.0389549
-0.0378219
-0.0387312
-0.0382655
-0.0588449
-0.056505
-0.056669
-0.0370747
-0.0331718
-0.0383771
-0.0379686
-0.0487842
-0.0563581
-0.0536728
-0.03191
-0.0310654
-0.0375543
-0.0363597
-0.00687093
-0.00603213
-0.00773138
-0.00642647
-0.00829398
-0.00650626
-0.00899449
-0.0104082
-0.00872513
-0.0127699
-0.00927527
-0.0127894
-0.010174
-0.0139106
-0.0166111
-0.0143562
-0.0193889
-0.0139975
-0.0172584
-0.0151655
-0.0189312
-0.0247676
-0.0210134
-0.0262556
-0.0180375
-0.0194949
-0.0200433
-0.0219261
-0.0289667
-0.0282427
-0.0324004
-0.0199777
-0.0231054
-0.0219876
-0.0217831
-0.0303032
-0.0322739
-0.0294514
-0.0252724
-0.0343373
-0.0223036
-0.0285701
-0.0447975
-0.0297793
-0.0383679
-0.0381846
-0.04957
-0.0321554
-0.0445187
-0.067242
-0.043156
-0.0607126
-0.0543907
-0.0687052
-0.0488382
-0.062325
-0.00940352
-0.00958933
-0.0132389
-0.00797648
-0.0104888
-0.0102465
-0.0138872
-0.0147476
-0.0149452
-0.0213286
-0.011577
-0.0148503
-0.0151566
-0.0184908
-0.0216549
-0.0238153
-0.0317708
-0.0159619
-0.0195008
-0.0194529
-0.0220152
-0.0245269
-0.0245593
-0.026104
-0.0215719
-0.0272782
-0.0229763
-0.0234557
-0.0293939
-0.0308117
-0.030343
-0.0275356
-0.0316744
-0.0287049
-0.0282819
-0.0296128
-0.0356078
-0.0320004
-0.0220864
-0.0268927
-0.0227557
-0.0235155
-0.0361019
-0.0300901
-0.0300928
-0.0301354
-0.0420273
-0.0253085
-0.0337081
-0.0573551
-0.0324955
-0.044576
-0.0462387
-0.058994
-0.036981
-0.0466029
-0.0145253
-0.0168205
-0.023362
-0.0114753
-0.0152526
-0.0169738
-0.0228653
-0.0239721
-0.0259685
-0.0358718
-0.0166958
-0.0202805
-0.0245604
-0.0275646
-0.0358347
-0.0394953
-0.0492405
-0.0212478
-0.0235218
-0.0282343
-0.0295606
-0.0374533
-0.0383266
-0.0426927
-0.0328342
-0.0440562
-0.0334514
-0.0372583
-0.0327806
-0.0349389
-0.0405217
-0.0315073
-0.0384514
-0.0314778
-0.0336773
-0.0332989
-0.0346873
-0.0327918
-0.0232572
-0.0229106
-0.0245101
-0.0231418
-0.0290463
-0.0315284
-0.0280186
-0.0242094
-0.0311079
-0.0232463
-0.0257772
-0.0402497
-0.0277121
-0.0306971
-0.0339142
-0.0422746
-0.0271712
-0.0318826
-0.0271913
-0.0204745
-0.0261386
-0.0206183
-0.0252452
-0.0200519
-0.0249847
-0.0397139
-0.03033
-0.0406819
-0.0266238
-0.0291719
-0.0273841
-0.0300664
-0.0525571
-0.0443015
-0.0491234
-0.0296595
-0.0300639
-0.0298883
-0.026922
-0.0478955
-0.0472744
-0.0372645
-0.0293138
-0.0258184
-0.0254155
-0.022958
-0.033799
-0.03389
-0.029865
-0.0252545
-0.0246427
-0.022704
-0.0233413
-0.0321503
-0.0304473
-0.0328235
-0.0243508
-0.0235513
-0.0239701
-0.0259527
-0.0283862
-0.033469
-0.0340211
-0.0236095
-0.0254118
-0.0268008
-0.0298516
-0.0293867
-0.0340118
-0.0342119
-0.0264915
-0.0304482
-0.0312609
-0.036051
-0.00983821
-0.00807293