/*--------------------------------*- C++ -*----------------------------------*\
  =========                 |
  \\      /  F ield         | OpenFOAM: The Open Source CFD Toolbox
   \\    /   O peration     | Website:  https://openfoam.org
    \\  /    A nd           | Version:  10
     \\/     M anipulation  |
\*---------------------------------------------------------------------------*/
FoamFile
{
    format      ascii;
    class       volVectorField;
    location    "2.4";
    object      U;
}
// * * * * * * * * * * * * * * * * * * * * * * * * * * * * * * * * * * * * * //

dimensions      [0 1 -1 0 0 0 0];

internalField   nonuniform List<vector> 
12920
(
(-7.46035 -146.465 83.1445)
(14.0581 -67.4439 -54.3718)
(153.212 -74.8635 4.77907)
(77.2927 -74.3668 2.21047)
(153.614 -45.2659 5.23506)
(123.133 -20.0856 1.86947)
(134.75 27.2853 -3.14888)
(110.873 26.2859 -5.00415)
(121.663 22.9803 -2.9859)
(115.037 8.23507 -1.56874)
(129.102 -2.01209 0.767402)
(131.757 -6.79843 2.48363)
(139.298 -6.84814 3.15586)
(141.585 -5.63693 3.11851)
(144.147 -2.49583 2.02465)
(140.369 0.436821 1.33127)
(131.532 6.10259 0.91521)
(118.941 8.24374 0.521338)
(111.862 9.60507 -0.153694)
(103.903 5.46368 -0.334516)
(90.0956 -103.736 113.793)
(-117.574 34.1575 34.6422)
(88.6413 -22.0449 -3.1544)
(-36.6346 -27.5934 -1.78178)
(82.9659 3.0685 -5.48676)
(31.5248 4.1331 -4.18787)
(84.8247 12.0395 2.47331)
(67.4854 -0.817096 2.36923)
(89.9506 -9.7022 3.54738)
(84.4269 -17.5092 1.86108)
(94.4097 -19.6501 1.02079)
(93.2018 -20.0071 0.198433)
(98.6632 -18.6204 0.00422557)
(98.6613 -15.7903 -0.180612)
(100.41 -7.06017 0.0732716)
(95.7276 1.21325 -0.00562638)
(95.0181 5.47264 0.501785)
(91.3138 5.78249 0.985695)
(89.8596 5.68435 1.5176)
(87.6278 3.84059 0.805355)
(-67.0384 -124.899 20.6228)
(-224.645 -132.712 -39.7933)
(96.8035 -122.567 -9.83661)
(-56.5451 -71.9929 -0.674661)
(74.7791 -61.1868 -1.29141)
(13.6243 -24.5056 2.16731)
(71.672 -11.7439 3.59849)
(51.8808 -6.14981 2.42078)
(75.7854 -8.055 2.34914)
(68.3243 -10.6327 0.931394)
(78.2844 -12.1634 0.679583)
(75.7322 -11.597 -0.101547)
(80.7146 -9.32832 -0.46492)
(78.7078 -5.58657 -1.39414)
(79.5408 0.359174 -0.766917)
(76.5807 3.71046 0.148312)
(76.4836 5.73143 0.593499)
(74.63 6.17858 0.688157)
(74.7052 6.47994 0.593369)
(75.7348 5.04067 0.222807)
(196.302 -222.51 -108.058)
(50.0548 1.54932 -21.4905)
(143.992 -43.1751 -5.43678)
(43.4878 -27.7001 0.54195)
(84.7349 -49.0241 2.34982)
(13.5075 -32.7964 1.40507)
(60.24 -39.3653 2.30782)
(34.242 -31.8791 1.64966)
(62.4002 -34.0488 2.06043)
(55.6074 -29.3745 1.48718)
(68.9618 -27.3674 1.80326)
(66.9513 -22.6329 1.3782)
(74.4404 -16.9147 1.65223)
(71.2226 -8.05093 1.06733)
(71.8573 -0.823044 0.8957)
(67.5781 2.6427 0.725721)
(65.327 4.04472 0.687452)
(63.851 3.28246 0.511215)
(64.4317 3.5052 0.439228)
(68.3811 3.66442 0.182887)
(140.909 -0.0126609 13.533)
(-4.1771 -6.7661 -27.4638)
(92.0741 -49.4983 -4.98277)
(1.3475 -38.6294 2.87495)
(78.1851 -35.4613 0.906724)
(26.403 -26.8565 0.601744)
(68.2131 -39.2601 0.997827)
(45.8608 -30.8424 0.438036)
(65.7975 -37.9029 0.76132)
(59.1096 -31.7901 0.297376)
(70.3632 -32.5311 0.486242)
(69.6071 -27.1685 -0.021579)
(78.9394 -21.8831 0.247855)
(78.5601 -9.61203 0.432583)
(77.8571 -0.800134 0.984934)
(70.2371 5.67 1.05933)
(66.9938 5.54072 0.511881)
(65.1549 3.58959 0.451482)
(65.8429 1.50512 0.353264)
(67.4646 1.83245 0.154019)
(208.491 16.8535 5.59021)
(138.928 100.936 -19.0579)
(156.558 0.663754 17.6012)
(30.5262 -43.6503 7.02842)
(89.931 -57.1332 3.51635)
(18.9349 -38.9458 0.00280298)
(68.6762 -55.3407 0.130981)
(40.5625 -41.3576 -0.423596)
(59.3232 -47.3013 -0.230587)
(52.4022 -39.6573 -0.438113)
(62.9573 -38.9731 -0.421931)
(62.3143 -32.4976 -0.818075)
(71.3167 -26.2817 -0.967491)
(72.9153 -9.81305 -0.192055)
(73.4504 2.15042 0.184275)
(70.3286 7.48735 0.407197)
(69.8951 6.10428 0.812296)
(65.4015 0.816694 1.5313)
(60.0512 1.05591 1.49581)
(54.3551 2.63511 0.748972)
(88.4893 -93.0002 -77.4279)
(-35.6465 3.77384 5.10645)
(111.703 -11.6005 -11.1396)
(37.1577 -22.9994 -5.74502)
(97.2175 -27.9804 -5.34433)
(57.1465 -22.5398 -4.33189)
(71.9129 -54.7464 -2.18645)
(51.2583 -28.1612 -1.79741)
(60.096 -46.3787 -0.546979)
(55.8668 -36.4522 -0.451898)
(64.5441 -40.1572 -0.317652)
(63.9582 -32.237 -1.0144)
(71.5193 -27.497 -1.95881)
(72.974 -11.1951 -0.866578)
(75.0935 0.948446 0.36906)
(72.8212 6.40908 0.943356)
(68.5033 4.57592 2.00784)
(54.8614 3.62452 2.1049)
(44.9498 5.17506 1.22126)
(41.9697 3.72675 0.54805)
(-1.74918 221.251 -53.8022)
(-147.326 20.6179 -15.8213)
(91.4637 -1.57414 -7.59415)
(-14.7467 -19.7192 -2.95718)
(89.6003 -19.1287 -3.62883)
(28.6922 2.79972 -2.65927)
(61.0877 -16.7023 -0.307695)
(34.2293 -27.968 -0.647546)
(56.2091 -38.5381 -0.457566)
(57.8313 -47.0324 0.163072)
(69.8386 -45.4307 0.914042)
(69.3785 -39.9269 1.32048)
(71.1732 -30.2479 0.909346)
(71.0293 -18.3917 0.570787)
(72.4973 0.73635 -0.00676869)
(70.4668 7.5831 1.22908)
(59.5448 10.0236 1.75771)
(48.219 9.95346 0.865993)
(43.5063 8.48154 -0.271378)
(45.5995 3.78811 -0.481452)
(64.2955 83.8066 -65.6921)
(-166.526 -42.3168 14.7935)
(67.2625 -40.6215 8.44712)
(-34.7069 -35.2444 -1.83418)
(66.1429 -37.302 -1.69848)
(38.3405 -8.89219 -1.88607)
(81.5119 -4.23815 -0.655947)
(84.7291 -39.1615 -0.479733)
(88.1017 -41.4162 -0.314068)
(78.9133 -48.1136 -0.226897)
(82.3596 -52.6952 0.409457)
(86.1276 -44.8663 0.514059)
(80.3654 -32.0968 0.817328)
(74.34 -18.4862 0.228699)
(74.2142 -2.37548 0.506022)
(67.3888 10.6843 0.865648)
(58.2885 15.3373 1.48625)
(50.1206 14.2209 0.257572)
(48.6234 12.7789 -1.17762)
(50.3944 7.25065 -1.4889)
(166.946 44.6433 9.50562)
(-62.6016 -66.7504 9.73792)
(122.967 -17.5106 -4.13023)
(3.82983 -28.8609 1.61892)
(90.9529 -31.3495 -0.928368)
(47.1524 -33.4208 -1.37602)
(61.5708 -28.1422 0.177865)
(70.1309 -29.3116 -0.400236)
(82.6864 -33.9979 -0.381504)
(91.6808 -41.2816 0.166247)
(82.7938 -54.2115 -0.00782916)
(82.9046 -44.2345 -0.0755486)
(77.4593 -22.7976 -0.136164)
(74.7111 -10.6732 -0.281342)
(72.8622 0.349447 -0.884709)
(67.1709 14.7761 -0.139359)
(63.326 19.974 0.418176)
(60.0124 19.3917 -0.669549)
(60.7988 18.9693 -1.27831)
(66.263 13.5704 -0.815988)
(217.906 -170.525 -125.58)
(-160.671 -98.1339 30.6455)
(126.315 -98.6939 2.28459)
(12.066 -54.5414 0.671377)
(90.4541 -45.9226 -1.18544)
(57.9777 -29.6308 -1.5259)
(90.3675 -35.581 -1.3618)
(104.367 -39.0038 -0.978647)
(113.346 -40.2118 -1.03251)
(117.787 -35.4513 -0.153808)
(98.8099 -47.5205 -0.676442)
(84.1353 -40.5545 0.338891)
(75.6175 -18.5012 0.273827)
(75.9853 -4.64707 -0.354198)
(74.1969 5.52968 -0.741929)
(69.722 17.6017 -0.456249)
(69.4678 22.1629 -0.122923)
(70.2103 21.9125 -0.753649)
(73.8127 17.3458 -1.0018)
(85.2143 8.67915 -0.321436)
(118.33 -375.551 -11.6706)
(72.8588 -160.086 -12.9963)
(154.612 -79.1277 7.20295)
(62.7466 -32.9702 4.82621)
(108.359 -19.8885 3.48593)
(70.5932 -48.4016 0.174738)
(87.4946 -51.4501 0.254509)
(91.0051 -40.0012 0.0390322)
(100.043 -39.1959 0.588917)
(108.103 -44.3028 1.02999)
(98.8795 -31.4323 1.19463)
(67.5868 -26.555 -0.054593)
(69.142 -17.7308 -0.324954)
(73.0641 -4.64881 -0.252636)
(77.4239 10.8965 -0.805004)
(78.0194 19.1395 -0.38027)
(81.4095 22.0181 -0.0183001)
(83.6096 20.2129 0.231195)
(86.9292 12.1359 0.589171)
(90.5489 5.03416 0.218077)
(116.379 -218.727 103.082)
(-29.5661 -66.9346 -8.9341)
(104.147 -31.3801 0.802274)
(3.57999 -40.3241 -0.255002)
(102.826 -38.0419 0.928349)
(62.8632 -74.6943 -0.479328)
(95.5692 -51.5143 -1.48067)
(82.8497 -48.0996 -0.815374)
(88.8868 -42.4826 -0.029415)
(59.4236 -31.271 1.09182)
(57.7833 -26.038 0.495745)
(49.5737 -21.9875 0.0118768)
(55.084 -14.8896 -0.535227)
(60.0171 -4.14319 -0.699544)
(69.2796 10.1747 0.0320014)
(77.4776 14.2947 0.503983)
(82.5237 16.7157 1.01362)
(84.2062 14.5942 1.57536)
(83.3847 9.12519 1.54605)
(82.2543 4.83558 0.645966)
(263.999 -86.8065 -52.1579)
(72.2505 -47.2992 24.8604)
(149.512 -53.9785 16.2254)
(65.4891 -57.5851 2.3496)
(126.509 -57.8079 0.666706)
(77.2454 -61.6403 -0.605145)
(98.5564 -29.6636 -0.031706)
(71.0251 -50.6435 0.221637)
(78.6872 -24.6809 0.657124)
(63.0582 -32.5751 0.938178)
(65.2008 -17.2299 0.913554)
(55.243 -20.7686 0.635314)
(56.5629 -10.8736 0.595133)
(53.5182 -10.5158 0.406309)
(57.5268 -3.56653 0.843958)
(62.4514 2.07127 0.864033)
(68.5069 8.28858 1.02683)
(71.4703 8.74761 1.26931)
(72.7455 6.83679 1.22361)
(75.9688 2.98353 0.925539)
(22.1118 -72.7466 59.564)
(-112.18 -53.4154 -10.3183)
(85.8911 -40.5613 -2.00674)
(42.711 -51.6008 -2.58577)
(121.746 -51.3996 -0.427733)
(75.3763 -56.6881 -1.47046)
(105.382 -42.4777 -0.0110104)
(76.3051 -41.6814 -0.60354)
(82.1653 -27.5896 0.0962703)
(64.4227 -27.178 0.179879)
(65.3305 -18.6719 0.402594)
(56.4509 -18.1234 0.238689)
(57.6458 -12.5221 0.346366)
(54.9503 -10.3629 0.349145)
(56.5548 -4.37093 0.355872)
(57.8856 -2.16851 0.51699)
(62.3793 1.38544 0.579454)
(67.0646 1.65934 0.630831)
(69.3962 -1.03279 1.15083)
(70.7061 -3.21316 0.698517)
(207.048 83.678 -45.3864)
(114.932 -52.9493 -0.227694)
(188.966 -110.421 7.8351)
(103.659 -84.9652 4.76196)
(139.298 -62.2892 3.56283)
(83.8261 -45.6058 1.16022)
(102.445 -22.7536 1.64514)
(64.6392 -26.4108 -0.0061036)
(79.6376 -12.0184 0.0656944)
(60.2765 -18.093 -0.261413)
(69.1557 -11.2239 -0.0334779)
(59.936 -15.0229 -0.149208)
(64.8919 -11.4264 -0.0277804)
(61.2837 -12.1339 -0.068261)
(64.2456 -8.80601 0.0957539)
(63.456 -7.3722 -0.0042925)
(65.5309 -4.23904 0.00801021)
(66.2641 -2.87863 -0.0802018)
(66.6585 -1.53246 -0.105928)
(66.004 -1.56963 -0.793374)
(219.908 16.2783 -36.3514)
(215.631 -88.125 -14.8686)
(295.887 -65.3138 16.4029)
(132.946 -56.5624 19.7503)
(140.153 -48.9628 10.7256)
(63.2522 -38.3501 2.18248)
(99.2408 -28.2902 0.798766)
(56.6578 -24.7012 -0.155186)
(77.7757 -20.285 -0.663816)
(57.2517 -18.8412 -0.852356)
(68.0147 -16.1551 -0.994366)
(59.5867 -14.9386 -0.898548)
(65.339 -12.7026 -0.638943)
(62.5969 -10.3668 -0.426247)
(65.9451 -7.07389 -0.169078)
(64.4585 -3.93493 -0.0534747)
(66.0371 -0.958011 -0.121649)
(65.3699 0.483509 -0.296092)
(65.318 1.96071 -0.512979)
(66.0968 3.39267 -1.01103)
(167.489 -175.921 -122.936)
(64.3692 -112.823 -26.6377)
(192.415 -36.065 -23.7275)
(84.8344 -24.3373 -8.97789)
(133.311 -24.9429 -4.08587)
(82.604 -19.8305 -0.934724)
(107.972 -13.2956 0.546625)
(77.1779 -7.40439 -0.0460365)
(90.7567 -4.69106 -0.426297)
(73.8299 -5.0804 -1.17807)
(81.4531 -5.60113 -1.23229)
(73.6697 -7.87584 -1.35138)
(78.9416 -9.74639 -1.17774)
(77.3747 -11.0155 -1.28598)
(81.7972 -9.61367 -1.08911)
(81.7125 -7.49736 -0.913792)
(84.3062 -3.71996 -0.302908)
(82.2883 -0.879142 0.146902)
(80.4056 2.78498 0.383024)
(78.7539 5.04051 -0.0187217)
(226.116 -206.506 -72.9799)
(161.757 -96.9933 -20.4596)
(218.059 -8.58991 15.6779)
(127.62 -0.932125 3.90402)
(160.826 -15.8627 0.689192)
(120.113 -18.5481 -0.0377404)
(135.163 -19.2271 1.18631)
(104.114 -10.9923 1.16643)
(107.273 -9.24022 1.10141)
(85.4065 -4.61195 0.0339703)
(86.5959 -5.79453 -0.590601)
(73.933 -5.74247 -1.31937)
(76.5114 -8.16471 -1.66542)
(74.6757 -7.03086 -1.89004)
(79.0752 -5.24598 -1.80902)
(78.3221 -2.2843 -1.64941)
(81.1885 0.417546 -1.30496)
(81.545 2.81183 -0.728334)
(82.3777 5.28572 0.0091716)
(83.9155 6.23064 0.171671)
(168.069 -110.006 98.8317)
(157.552 30.3876 4.3505)
(204.931 24.3067 13.5371)
(155.431 14.7441 3.21319)
(187.274 2.07018 -5.51768)
(167.719 1.58956 -6.22754)
(182.244 4.22194 -4.02776)
(170.253 10.0853 -1.35065)
(173.334 13.6346 1.26718)
(162.547 16.4373 2.283)
(161.695 16.2952 2.8289)
(154.614 15.4487 2.75856)
(150.758 5.46514 3.05584)
(131.269 -1.10265 2.75289)
(120.53 -1.37375 2.09001)
(109.528 -0.326068 1.56879)
(106.011 0.676252 1.31267)
(101.013 1.29754 1.25577)
(99.8576 2.05678 1.35047)
(99.8632 2.64729 1.26889)
(387.224 -907.218 74.4744)
(-3.04644 -193.354 13.6111)
(161.587 -62.0735 37.0349)
(65.0303 -46.2483 9.76484)
(139.891 -15.6804 10.3647)
(105.116 1.30361 0.476154)
(118.269 16.1066 -1.61152)
(93.532 8.88981 -4.67918)
(104.048 5.89102 -1.16821)
(99.8537 -2.24329 0.292712)
(111.803 -4.50609 2.43492)
(117.326 -6.30263 3.17411)
(129.14 -3.42692 3.61846)
(132.183 -0.362186 3.11233)
(132.159 2.90208 2.53719)
(123.735 4.92276 2.94239)
(114.807 4.92239 3.09606)
(106.539 3.83155 1.7707)
(103.368 2.70813 1.03343)
(99.1372 1.14231 0.371951)
(-130.266 -36.373 168.237)
(-201.661 26.7711 -10.2722)
(42.7486 -27.257 -13.0718)
(-73.8095 -21.2354 -4.80798)
(68.2599 3.66185 -12.0153)
(5.54775 -3.84887 -5.4604)
(66.5743 0.7067 5.33349)
(44.7353 -9.67436 3.5657)
(71.7335 -12.1122 5.11457)
(65.4007 -13.8523 1.37007)
(76.8788 -12.4549 0.689791)
(75.0219 -10.4348 -1.04023)
(80.8951 -7.63759 -0.813109)
(80.4565 -2.49704 -0.927657)
(83.1234 2.32366 0.136676)
(80.651 4.32604 0.824113)
(79.7847 5.08607 1.58578)
(76.8936 4.00702 1.89048)
(76.445 3.85064 2.24677)
(75.955 2.90352 0.897923)
(140.428 -187.155 199.577)
(-202.236 -129.286 -28.4839)
(75.7787 -119.37 -17.6678)
(-73.5595 -69.3786 1.40152)
(63.9166 -57.7003 -2.92119)
(-2.12231 -23.2043 3.66979)
(60.0682 -13.7226 5.43309)
(36.215 -7.52697 3.32884)
(61.8787 -7.8917 3.65998)
(52.5208 -8.20517 0.945511)
(62.9059 -8.29873 0.804433)
(59.2125 -7.12312 -0.612417)
(63.4748 -4.68301 -0.834796)
(60.4485 -1.41747 -1.56583)
(61.7205 2.28626 -0.459149)
(60.6414 4.45617 0.44677)
(62.0093 5.26717 0.946073)
(61.8505 5.14382 0.968886)
(62.5752 5.21881 0.948286)
(64.2317 4.12096 0.306688)
(255.453 -163.266 -69.0282)
(59.5982 -46.3603 -27.177)
(121.921 -77.3948 -13.5792)
(15.731 -42.0291 1.27579)
(72.0914 -49.0753 3.96609)
(0.30214 -27.4255 2.25238)
(51.9238 -32.6035 3.38117)
(22.6006 -23.348 2.5015)
(52.3093 -24.3022 3.4906)
(42.9123 -18.3757 2.09792)
(56.4104 -16.0338 2.64832)
(52.8839 -11.1173 1.6534)
(58.3862 -6.7518 1.8998)
(55.4354 -2.13829 1.17868)
(56.3145 1.31874 1.18986)
(54.0756 3.02914 1.03241)
(54.3894 3.51119 1.0047)
(54.5112 3.02765 0.817301)
(55.7645 3.37976 0.803279)
(59.6382 3.39266 0.351274)
(138.591 -106.436 131.837)
(-4.12395 -42.1007 -8.49292)
(84.88 -54.7525 -11.6205)
(-3.49124 -37.4071 3.44311)
(69.1545 -31.039 1.25719)
(12.4346 -21.5832 1.57475)
(56.8022 -31.2219 2.49512)
(32.2178 -20.4883 0.847797)
(54.4568 -25.9575 1.69418)
(46.6267 -17.8816 0.44739)
(58.1653 -17.3783 1.0676)
(55.948 -11.033 -0.0801417)
(61.9191 -5.76828 0.449869)
(58.3055 0.406967 0.470227)
(58.194 3.67038 1.25187)
(54.8503 5.71544 1.30269)
(54.8515 4.68201 0.912816)
(55.1482 3.09882 0.926632)
(56.7807 1.93567 0.824715)
(59.2346 2.11821 0.444855)
(162.15 197.657 93.9021)
(-45.3537 -13.3321 31.1594)
(102.295 -39.6294 23.0345)
(-9.42953 -38.4174 6.75571)
(77.6787 -44.1124 1.64298)
(-0.180141 -26.34 0.340469)
(55.6468 -45.5013 0.555616)
(23.6881 -29.5747 -0.234325)
(45.6391 -35.3088 0.208622)
(37.7869 -25.7465 -0.419245)
(49.4525 -23.8281 -0.173326)
(48.0591 -15.885 -1.03691)
(55.8137 -7.81579 -0.872523)
(54.6518 1.29551 -0.237784)
(55.7584 5.19206 0.244423)
(54.7414 6.4216 0.687544)
(55.3618 3.16227 1.70118)
(54.6467 0.0965103 2.33182)
(53.9638 1.14167 2.54671)
(51.9266 2.48007 1.5735)
(96.1981 -81.926 188.39)
(17.2124 -62.0496 -4.28159)
(98.8862 -29.9359 -11.0655)
(20.9105 -23.4151 -6.75726)
(80.2296 -23.4544 -7.15035)
(31.1708 -14.7454 -5.42257)
(50.6391 -50.1779 -2.0326)
(30.0656 -18.8482 -1.86548)
(43.4458 -39.0286 -0.0338201)
(39.7158 -25.1288 -0.305074)
(49.9476 -28.1572 -0.301663)
(49.6549 -18.1569 -1.79552)
(56.0986 -12.361 -2.47698)
(55.4474 0.488159 -0.606307)
(57.1526 4.3241 0.691359)
(56.8086 5.86802 1.69711)
(54.4942 3.24733 3.81068)
(48.038 3.73961 3.50777)
(42.6533 5.52104 2.00549)
(41.3331 3.80012 1.06359)
(117.721 155.584 -30.2832)
(-103.192 -18.465 -21.6134)
(79.3116 -20.6632 -20.4193)
(-18.2086 -34.4941 -3.53061)
(76.7018 -25.599 -5.90734)
(17.6268 -0.480026 -2.86962)
(49.3318 -25.496 -1.5748)
(27.2174 -28.534 -2.48931)
(42.8792 -38.5337 -1.70397)
(42.8029 -38.5556 -0.577454)
(52.9604 -34.5236 0.592612)
(53.5114 -26.8074 0.384185)
(57.2729 -16.5966 -1.12414)
(56.8045 -5.03087 -1.9319)
(54.9665 4.97106 -0.689059)
(54.3533 7.72169 2.17393)
(48.126 9.27353 2.98683)
(42.741 9.82904 1.20976)
(39.2966 9.09652 -0.711689)
(40.9195 4.96142 -0.820159)
(57.3712 27.5575 45.477)
(-214.658 -72.9813 -9.7865)
(67.1769 -65.6161 -28.8097)
(-41.0844 -52.4852 -4.07458)
(54.136 -45.9693 -5.1884)
(25.8282 -11.9208 -3.15646)
(61.8155 -12.4598 -2.08823)
(60.2766 -36.5092 -2.03508)
(62.7449 -41.8367 -1.77661)
(60.2619 -45.0216 -0.955923)
(64.1729 -40.8875 0.483146)
(63.9761 -30.3449 0.837994)
(61.6876 -18.5979 0.271228)
(60.0663 -7.57213 -1.89045)
(57.5597 4.71323 -1.01519)
(49.4923 11.3268 1.16756)
(47.4274 14.1488 1.62952)
(44.3442 13.4408 -0.341571)
(43.8732 11.0615 -2.17232)
(44.3781 5.56336 -2.33355)
(123.929 38.1813 94.1824)
(-53.3068 -59.586 13.1996)
(99.4153 -44.802 -0.780879)
(0.198417 -43.1384 2.47243)
(77.9161 -38.4086 -1.67298)
(41.2308 -36.7549 -2.33725)
(56.878 -30.6938 -0.644101)
(62.9275 -34.2725 -1.49874)
(68.9348 -40.2826 -1.90458)
(69.6439 -44.9894 -0.233416)
(68.1326 -43.5488 0.288351)
(67.3723 -28.9182 0.192266)
(63.5763 -14.3343 -0.244844)
(61.3021 -3.98769 -1.20477)
(57.583 5.96542 -1.84108)
(51.2753 14.3917 -0.543888)
(51.6421 16.5674 -0.222517)
(51.7714 15.7083 -1.48806)
(54.8325 13.153 -2.04254)
(58.4279 8.19825 -1.40143)
(-72.5511 -213.386 -72.9899)
(-193.393 -103.698 1.15797)
(97.3228 -113.245 -18.4015)
(-0.409273 -68.7884 -3.43992)
(75.8357 -56.0251 -0.141838)
(48.7562 -37.5203 -2.6929)
(73.9441 -37.8956 -2.26227)
(80.5484 -42.3941 -2.73958)
(84.5659 -44.1228 -3.05549)
(84.0875 -39.9618 0.497235)
(74.5677 -44.9821 1.61757)
(69.881 -26.5453 1.24932)
(67.6127 -10.575 -0.141191)
(65.3616 -0.397278 -1.5104)
(60.8613 8.01779 -1.45997)
(57.4062 14.4951 -1.13022)
(59.4826 15.8291 -0.833188)
(62.8494 12.1952 -1.46983)
(67.6292 7.48842 -1.27631)
(74.0962 4.74798 -0.546692)
(122.293 -440.301 -36.1011)
(10.7487 -120.1 -20.353)
(117.98 -82.2656 -14.6882)
(42.7196 -40.8977 -2.91519)
(93.7019 -28.7333 0.386234)
(64.8586 -53.2241 -0.297446)
(80.6473 -55.0786 2.46442)
(79.2809 -44.6533 1.14667)
(80.5543 -47.7816 1.69878)
(83.3501 -42.0159 2.53425)
(69.395 -29.3386 5.41759)
(60.4926 -20.2936 -0.453299)
(61.7153 -9.4184 -1.60801)
(65.4722 1.72063 -1.54792)
(66.8719 10.8355 -1.52959)
(67.487 13.1863 -0.834768)
(70.5167 13.243 -0.0785365)
(73.576 8.53736 0.401212)
(75.7562 3.91896 0.850531)
(78.1253 3.12255 0.13121)
(70.4665 -92.3245 15.6536)
(-50.1462 -71.6512 -24.741)
(92.4543 -33.8016 -12.3926)
(-10.2059 -37.5782 -0.198137)
(92.6477 -34.8249 1.05484)
(45.7866 -71.3325 0.340333)
(79.0067 -44.1638 -0.0655074)
(60.5569 -43.3168 0.0790015)
(66.4638 -38.1583 1.46095)
(45.1659 -30.2386 2.65783)
(49.7199 -23.3241 1.44687)
(45.3185 -17.9574 -0.529547)
(51.971 -10.7511 -1.50389)
(54.3143 -2.23492 -1.20422)
(60.076 6.447 0.0509412)
(66.4735 7.82765 0.976024)
(70.8072 9.25581 1.98136)
(72.4979 6.47762 2.47266)
(72.313 4.6907 2.27754)
(73.0739 3.80821 0.811014)
(90.7956 19.1047 -48.6876)
(-63.9408 -38.0093 -10.9097)
(128.314 -54.5714 -10.2125)
(35.8006 -56.9689 1.5847)
(113.554 -54.8873 0.29363)
(55.0216 -58.5065 -0.00678018)
(81.7607 -22.2974 0.849275)
(49.916 -48.9381 1.03178)
(61.0666 -19.3309 1.33649)
(44.947 -31.5896 1.53743)
(50.9763 -14.8736 1.2487)
(43.2197 -19.7146 0.7566)
(47.5223 -9.35844 0.691707)
(46.0043 -9.80936 0.672511)
(51.0366 -2.8424 1.54773)
(54.8802 0.337727 1.58261)
(60.1255 5.23738 1.79882)
(62.6815 5.32835 2.03541)
(64.3155 4.49752 1.97407)
(68.7025 3.19651 1.19364)
(-8.54772 -23.1438 -47.3467)
(-146.833 -59.9437 -14.7376)
(79.3445 -56.9354 -5.17794)
(9.51189 -55.605 -1.34745)
(103.862 -50.834 1.21468)
(43.2867 -54.3725 -1.56148)
(86.3354 -34.8641 0.671124)
(52.7291 -37.5123 -0.651141)
(65.719 -22.5666 0.638548)
(48.6813 -25.0656 0.357297)
(53.7078 -16.3535 0.680073)
(45.9139 -16.8637 0.295174)
(48.8132 -10.9637 0.541089)
(46.751 -9.21334 0.462033)
(49.1389 -3.68316 0.668403)
(50.5805 -2.29351 0.789175)
(54.7331 0.679396 1.01129)
(58.4745 0.802697 1.1112)
(60.8207 -0.147114 1.67702)
(64.7294 -0.0263499 0.796902)
(141.079 -116.04 -138.484)
(15.8792 -103.01 -13.1077)
(145.836 -109.355 -10.567)
(52.5028 -82.7798 3.06242)
(118.659 -61.7419 4.40518)
(50.9713 -48.5545 1.3267)
(86.8913 -23.9953 2.22288)
(47.1524 -30.1587 -0.164687)
(68.0718 -13.8717 0.190457)
(47.5282 -20.3336 -0.30212)
(58.7733 -11.8661 0.0739536)
(49.0137 -15.1481 -0.168247)
(54.9051 -10.3243 0.109591)
(50.8846 -10.7537 -0.0181366)
(54.3108 -6.84153 0.335399)
(53.329 -5.57917 0.0369621)
(55.4195 -2.63107 0.101213)
(56.0289 -1.53914 -0.122043)
(56.5841 -0.0607332 -0.186454)
(57.9167 0.485546 -1.30071)
(126.947 -132.825 -180.406)
(-22.766 -98.3683 -3.38742)
(154.36 -64.308 27.9037)
(47.104 -53.5852 20.1135)
(122.052 -45.3948 10.5098)
(48.9951 -35.2015 2.40991)
(92.042 -27.259 0.944298)
(49.491 -24.3466 -0.399926)
(71.7469 -20.1181 -1.00063)
(50.3538 -18.9205 -1.30004)
(61.1403 -16.0115 -1.37012)
(51.1747 -14.6571 -1.30776)
(56.6662 -11.905 -0.783068)
(53.1402 -9.44774 -0.516716)
(56.3002 -6.21463 -0.0628108)
(54.8944 -3.74068 -0.0892236)
(56.4274 -1.39215 -0.263085)
(55.8018 -0.381467 -0.569966)
(55.6421 0.496029 -0.74277)
(57.0827 0.96514 -1.68727)
(398.335 -82.8118 87.9448)
(175.086 -103.003 -8.46727)
(199.768 -56.3767 -15.9019)
(84.6865 -37.2377 -8.58836)
(124.346 -32.1972 -5.03833)
(69.2099 -23.9716 -1.59149)
(98.6629 -17.7165 0.354663)
(66.871 -12.9247 -0.805135)
(82.615 -10.4522 -1.00278)
(64.6643 -10.3568 -2.14624)
(72.8666 -9.96714 -1.93561)
(63.9209 -10.5602 -2.13544)
(68.8366 -10.9392 -1.63722)
(65.5845 -10.6945 -1.62609)
(68.6283 -8.24197 -1.08557)
(66.788 -5.62001 -0.894353)
(68.4652 -2.24866 -0.264415)
(67.2736 -0.100579 0.137284)
(67.2757 1.43534 0.411863)
(68.1876 2.05159 -0.378672)
(294.974 -98.1568 -41.0208)
(87.1741 1.48413 -17.6208)
(190.464 -4.91029 -6.68453)
(118.345 -15.8685 -1.18928)
(156.328 -24.0852 -1.70368)
(110.92 -19.7299 -0.89867)
(126.251 -18.1587 1.12702)
(95.6973 -11.2213 0.57833)
(102.313 -11.6758 0.362755)
(83.3203 -9.0452 -1.62187)
(86.5617 -10.6174 -2.73134)
(75.0948 -10.209 -4.53019)
(77.3408 -11.4618 -4.20437)
(73.4347 -9.84844 -3.40688)
(75.1984 -7.30197 -2.66365)
(72.3645 -4.25958 -2.22498)
(73.3594 -1.10223 -1.5492)
(72.8667 1.05284 -0.867649)
(73.9392 2.5198 0.109783)
(76.6055 3.02356 0.25908)
(135.082 -48.1908 -48.4449)
(147.82 36.4139 -23.2357)
(239.844 24.5169 -6.56211)
(224.401 10.3027 2.23511)
(230.402 -4.58793 -1.15763)
(185.687 -1.09674 -3.01796)
(180.465 5.16887 -0.294172)
(158.842 11.7007 1.98378)
(161.853 14.2144 5.25182)
(153.031 15.5003 5.58717)
(154.954 13.9423 5.52746)
(149.22 11.9817 4.72286)
(144.899 1.11046 5.70947)
(126.015 -4.84888 5.62982)
(117.085 -4.81635 4.25153)
(106.851 -3.46928 3.025)
(103.698 -2.06048 2.71334)
(99.0084 -0.977734 2.62971)
(98.0296 -0.11276 2.68552)
(98.0806 0.653211 2.35612)
(192.291 -395.418 101.859)
(-119.746 -27.6676 74.575)
(140.131 -30.2013 33.8197)
(34.508 -15.5888 8.6733)
(115.433 4.42943 11.1126)
(73.305 4.26692 0.175862)
(96.4641 9.73004 0.646361)
(73.338 2.28207 -3.48985)
(87.6074 1.38538 0.0151902)
(82.3381 -0.976287 -0.210837)
(93.7598 -0.472968 1.86291)
(94.7479 0.492746 1.40532)
(100.439 2.41869 2.33819)
(98.8131 3.60963 2.60474)
(97.0828 4.13043 3.78072)
(91.9491 3.29187 4.43568)
(91.967 2.0412 3.69714)
(90.4623 0.788809 1.95968)
(90.6283 0.460285 1.09829)
(89.9859 0.2061 0.374898)
(-29.2201 -86.506 9.89185)
(-187.707 12.8835 -38.8697)
(36.3118 -31.4643 -21.6294)
(-84.538 -16.4543 -7.75606)
(55.6874 -1.72434 -13.8047)
(-16.389 -9.98193 -2.94526)
(51.3266 -4.77171 2.85619)
(25.2737 -11.0641 1.74867)
(55.757 -10.2416 3.43913)
(47.491 -9.75759 -0.159585)
(60.2938 -7.15589 -0.161141)
(57.126 -4.51882 -1.94567)
(62.5701 -1.36069 -1.10484)
(60.8566 1.40779 -0.89454)
(62.6885 3.41171 0.555345)
(61.4905 3.8683 1.42934)
(62.1908 3.80551 1.91721)
(61.3837 2.98038 1.73047)
(62.0647 3.16537 1.86429)
(63.2744 2.48674 0.724022)
(72.3643 -343.403 -49.8612)
(-178.923 -121.116 6.54841)
(52.3314 -111.28 -12.3987)
(-81.0567 -61.5443 2.76283)
(51.4628 -50.3935 -2.87721)
(-18.1072 -20.4747 4.34036)
(47.8946 -14.1857 3.46259)
(19.6914 -7.87159 2.38312)
(47.8626 -7.40532 3.04278)
(36.8807 -6.45451 0.49686)
(48.501 -5.88174 0.646195)
(43.7065 -4.24359 -0.81176)
(48.0085 -2.0924 -0.65806)
(44.8984 0.494765 -1.06271)
(46.5419 2.39734 -0.164747)
(46.3099 3.62735 0.470639)
(48.3367 4.12801 0.893532)
(49.0914 3.90644 0.779862)
(50.5771 4.19255 0.885757)
(52.7564 3.34146 0.44853)
(311.86 -94.2373 -103.318)
(100.876 -61.2355 -11.1712)
(113.081 -84.5123 -6.88782)
(-4.14528 -41.5866 2.77306)
(60.707 -44.5647 1.93949)
(-13.0106 -22.8754 2.73225)
(42.8735 -27.4829 1.76865)
(10.0312 -17.542 2.11032)
(41.3196 -18.2368 2.9405)
(29.0037 -12.1622 1.59169)
(43.0118 -10.267 2.2166)
(38.128 -5.70652 1.20637)
(43.3632 -3.01603 1.45473)
(40.693 -0.0908835 0.90574)
(42.3283 1.36242 0.963426)
(41.5446 2.26776 0.866005)
(43.0183 2.59704 0.851365)
(44.2138 2.30757 0.668569)
(46.0394 2.8963 0.779069)
(49.8033 2.76269 0.474964)
(109.128 -21.4657 -50.7015)
(-8.67439 -55.6713 -19.153)
(74.1302 -55.7478 -7.50697)
(-17.925 -34.6161 3.82378)
(57.499 -27.9954 -0.0523226)
(-3.93937 -18.8661 1.94645)
(45.7556 -26.7724 1.79533)
(18.418 -14.4241 0.600286)
(43.1194 -19.3153 1.55024)
(33.3505 -10.3094 0.248522)
(45.0216 -10.1756 0.947892)
(41.2203 -3.74677 -0.215797)
(45.3011 -1.17278 0.269449)
(41.9127 2.55604 0.281719)
(42.8061 3.58118 0.94774)
(41.6639 4.31717 0.958447)
(43.2431 3.11622 0.771264)
(44.7935 2.25353 0.733826)
(46.8234 1.78333 0.778564)
(49.6062 1.76755 0.587604)
(81.9081 87.096 125.191)
(-80.9735 -50.448 9.50687)
(89.6636 -39.9326 4.67329)
(-18.8319 -32.2108 5.86885)
(66.0995 -36.9339 -0.200343)
(-13.6796 -19.7245 1.76014)
(46.2024 -39.4541 -0.31197)
(11.294 -21.8126 -0.0566487)
(35.7265 -27.6151 0.252645)
(26.2284 -17.1364 -0.282562)
(38.346 -15.4003 0.0900964)
(36.0352 -7.59766 -0.899466)
(41.8479 -2.22526 -0.725096)
(40.1097 2.78954 -0.279085)
(41.7099 4.07322 -0.00132482)
(41.1098 3.85307 0.482825)
(42.8205 0.999676 1.59383)
(44.102 0.316634 1.7814)
(44.7295 1.50148 2.24768)
(45.6161 2.30794 1.83582)
(268.449 -121.119 9.1037)
(-9.59041 -37.1074 4.95559)
(97.7929 -28.2746 -11.9922)
(8.41386 -23.0171 -6.75838)
(66.5955 -21.936 -6.43702)
(10.5749 -11.8762 -4.57349)
(36.2362 -48.6502 -1.6827)
(15.1447 -12.1787 -1.37565)
(31.823 -33.8531 0.246747)
(27.5165 -17.2467 0.130602)
(38.4226 -20.9271 0.209199)
(37.6316 -10.0367 -1.36031)
(42.5394 -6.21374 -1.58604)
(40.969 2.37759 -0.33695)
(42.2753 3.5825 0.28104)
(41.6388 3.88383 1.52427)
(40.9906 2.37842 3.29056)
(40.1813 4.03999 2.77372)
(37.8595 5.80249 1.78561)
(38.0672 4.45244 1.18039)
(14.6819 -0.716807 52.4323)
(-98.0005 -28.8775 -30.6332)
(65.2311 -38.3916 -26.9222)
(-19.5942 -40.2315 -4.29329)
(65.721 -28.728 -5.73866)
(5.46711 -1.56709 -2.32816)
(37.6221 -30.4567 -2.13644)
(17.634 -25.156 -2.25472)
(31.4188 -35.421 -1.37121)
(30.8207 -30.3278 0.184027)
(40.5175 -26.3316 0.867174)
(41.5631 -18.0679 0.193527)
(45.0373 -9.79454 -1.32911)
(43.4137 -0.281197 -1.64855)
(39.0035 4.96883 -0.210994)
(38.4742 6.58944 1.77936)
(36.4044 8.42297 2.16019)
(35.2573 9.14532 0.423754)
(32.9328 8.24174 -0.701172)
(34.3466 4.88814 -0.827721)
(93.0861 -133.857 116.395)
(-76.1982 -98.0017 -2.15116)
(58.356 -72.4942 -22.8995)
(-34.8771 -59.2628 -1.81419)
(43.4682 -48.1326 -5.26478)
(13.6951 -12.1357 -2.38761)
(43.8736 -18.8371 -2.17909)
(40.9711 -36.1914 -2.32725)
(44.7955 -40.0421 -1.9442)
(44.5253 -38.4093 -0.605487)
(48.2922 -30.9694 0.974416)
(48.3928 -21.3521 1.18756)
(48.7117 -11.6098 -0.224687)
(47.1327 -2.79651 -1.93286)
(42.7089 6.14658 -0.920008)
(35.7407 9.43374 1.14229)
(37.0563 11.2669 0.793543)
(36.5021 10.6258 -0.805448)
(36.6988 8.0557 -1.83973)
(36.2789 3.82029 -2.04299)
(144.369 147.929 292.453)
(-52.3979 -75.6872 12.5991)
(98.0537 -48.0361 -4.96497)
(-5.23811 -49.4116 0.693152)
(66.5108 -40.6658 -3.08468)
(30.1613 -38.0449 -2.4179)
(46.0713 -31.8007 -0.487252)
(50.9168 -36.3583 -1.53342)
(53.5272 -40.6001 -1.90204)
(52.9209 -40.2092 -0.222003)
(53.6484 -32.7022 0.703648)
(52.6962 -20.0709 0.919507)
(51.0403 -9.26032 -0.305006)
(49.2638 -0.801382 -1.50971)
(44.4727 6.94597 -1.4842)
(39.7952 10.8446 -0.0996904)
(41.6709 11.6563 -0.353934)
(43.5091 10.2698 -1.47296)
(46.461 7.9542 -1.56907)
(48.3289 4.82557 -1.25238)
(133.463 -112.312 76.4012)
(-125.29 -86.3728 -21.0843)
(101.189 -107.223 -33.7758)
(-18.1306 -65.2416 -6.89447)
(58.1306 -56.1147 -1.02616)
(28.6701 -41.1833 -2.11381)
(55.4582 -41.4476 -0.975368)
(61.4436 -44.0219 -2.46179)
(62.2852 -43.1855 -2.62506)
(57.5832 -40.3493 -0.509122)
(59.6398 -37.3522 -3.39487)
(59.2353 -19.0756 -0.00341812)
(55.8446 -6.45532 -0.571134)
(52.4323 1.34784 -1.50423)
(48.8392 7.21027 -1.23958)
(46.9508 8.80499 -0.651484)
(49.9453 8.40153 -0.885087)
(53.667 4.43647 -1.29021)
(56.8589 2.83959 -0.823733)
(61.0097 2.53828 -0.340709)
(120.059 -281.51 42.5311)
(51.7388 -114.332 -22.8316)
(126.981 -92.8599 -30.5669)
(38.744 -46.6711 -9.63115)
(81.6169 -34.1544 -2.88328)
(51.207 -58.9795 -0.992579)
(65.9946 -56.8628 2.01268)
(60.8511 -44.7685 0.879242)
(59.1317 -43.7572 0.892084)
(55.8291 -34.9653 2.57399)
(51.849 -24.9469 3.14979)
(51.511 -15.3283 -1.22426)
(53.0189 -5.67969 -2.06585)
(54.8417 2.04739 -1.68458)
(54.8069 6.69912 -1.14021)
(55.3415 5.81669 -0.236433)
(58.0583 4.59746 0.198388)
(60.1788 1.29821 0.347657)
(61.5462 0.594239 0.784145)
(63.8017 1.68482 0.16398)
(132.916 -197.064 140.807)
(1.62845 -114.163 -45.9513)
(85.0857 -48.6405 -23.1533)
(-20.9205 -39.3806 -1.97024)
(81.974 -35.8593 -0.77807)
(27.7476 -71.6371 0.228486)
(62.8432 -38.7899 0.00413386)
(41.6177 -41.3142 0.760586)
(49.4213 -33.5109 1.6505)
(34.7376 -28.6304 2.18439)
(42.6642 -20.7898 0.897932)
(39.4318 -15.8422 -0.95541)
(46.0373 -9.19976 -1.65685)
(46.7551 -3.3855 -0.753493)
(49.6871 1.90709 0.679132)
(53.6335 1.69383 1.34608)
(56.9715 3.09993 2.01365)
(58.4482 1.32922 2.03074)
(59.0029 2.08721 1.93538)
(61.242 2.44153 0.732246)
(348.35 -67.637 -40.4399)
(67.4419 -54.455 -3.4699)
(120.755 -56.7896 -8.97401)
(24.6816 -57.559 4.31815)
(102.397 -53.729 0.268305)
(36.6739 -56.3993 0.790113)
(68.6068 -17.255 0.750881)
(33.7602 -48.6103 1.05329)