/*--------------------------------*- C++ -*----------------------------------*\
  =========                 |
  \\      /  F ield         | OpenFOAM: The Open Source CFD Toolbox
   \\    /   O peration     | Website:  https://openfoam.org
    \\  /    A nd           | Version:  10
     \\/     M anipulation  |
\*---------------------------------------------------------------------------*/
FoamFile
{
    format      ascii;
    class       volVectorField;
    location    "2.4";
    object      U_0;
}
// * * * * * * * * * * * * * * * * * * * * * * * * * * * * * * * * * * * * * //

dimensions      [0 1 -1 0 0 0 0];

internalField   nonuniform List<vector> 
12920
(
(-15.3465 -150.511 85.9458)
(-20.0033 -72.2443 -48.8723)
(127.149 -73.9041 6.07136)
(58.0776 -77.3223 2.5907)
(134.36 -46.681 5.25724)
(108.94 -20.1946 1.94141)
(121.651 26.9307 -3.20297)
(99.7898 25.808 -5.01522)
(111.694 22.5299 -3.02066)
(106.199 7.74841 -1.53942)
(120.929 -2.34727 0.792314)
(124.063 -6.91723 2.50681)
(131.784 -6.88596 3.15987)
(134.247 -5.62382 3.11137)
(136.845 -2.4739 2.00097)
(133.006 0.544391 1.31008)
(124.13 6.16395 0.907461)
(111.585 8.25308 0.50725)
(104.275 9.52868 -0.189456)
(92.4123 5.36202 -0.413081)
(62.1145 -150.09 86.6512)
(-153.981 22.9812 33.5899)
(63.7955 -24.8488 -4.33248)
(-59.0443 -32.7226 -1.18374)
(63.54 0.0354153 -5.01808)
(18.1273 1.975 -4.2624)
(72.4986 9.86724 2.27101)
(57.2337 -2.40323 2.22528)
(80.3982 -10.9041 3.45019)
(75.891 -18.2857 1.79756)
(86.2458 -20.1672 0.973536)
(85.4995 -20.3372 0.183996)
(91.1824 -18.8125 -0.00519948)
(91.3548 -15.8749 -0.169272)
(93.0901 -6.95591 0.0675796)
(88.4778 1.25389 0.00324172)
(87.8104 5.42448 0.508652)
(84.0681 5.70464 0.991726)
(82.3499 5.53827 1.4751)
(76.3031 3.68304 0.70447)
(-73.2012 -174.431 17.5998)
(-247.035 -149.804 -40.3895)
(74.7834 -131.978 -9.7104)
(-76.0945 -79.3057 -0.308869)
(56.8057 -64.2019 -0.527618)
(0.708603 -26.8846 2.16321)
(59.7796 -13.586 3.65877)
(42.3142 -7.64391 2.37588)
(66.6501 -9.19738 2.2766)
(60.0764 -11.5348 0.897482)
(70.3172 -12.7931 0.641767)
(68.1507 -12.0167 -0.114336)
(73.2962 -9.57616 -0.485887)
(71.4402 -5.69105 -1.38529)
(72.2511 0.301555 -0.758385)
(69.3576 3.63839 0.161775)
(69.311 5.63452 0.586405)
(67.4245 6.07237 0.676634)
(67.2304 6.33416 0.536523)
(64.6157 4.89214 0.0654054)
(203.598 -219.23 -95.8692)
(47.1477 -7.2432 -18.8469)
(129.601 -55.6461 -4.75285)
(24.9084 -37.4922 0.640647)
(69.6023 -53.9681 2.49425)
(0.693388 -36.366 1.31372)
(48.7667 -41.4481 2.31273)
(24.8714 -33.5766 1.5988)
(53.4859 -35.2587 1.98393)
(47.5737 -30.3664 1.46236)
(61.1912 -28.0736 1.77227)
(59.5143 -23.15 1.39273)
(67.0928 -17.216 1.65737)
(63.9726 -8.24813 1.08067)
(64.5865 -0.997284 0.899157)
(60.351 2.47474 0.730719)
(58.1501 3.87849 0.672233)
(56.6493 3.13357 0.493089)
(56.9742 3.36015 0.3734)
(57.4091 3.55373 0.0208877)
(100.805 -23.6382 -1.73)
(-40.246 -30.2257 -29.3098)
(74.7905 -63.6688 -5.13408)
(-10.6559 -47.9288 2.82711)
(67.2032 -40.1407 1.0171)
(16.0171 -30.1528 0.572517)
(58.1035 -41.1115 0.974395)
(37.0853 -32.417 0.396374)
(57.266 -38.9465 0.696698)
(51.3217 -32.7623 0.269456)
(62.8439 -33.2244 0.449196)
(62.4035 -27.7255 -0.0206202)
(71.8177 -22.1959 0.263504)
(71.4472 -9.8099 0.449231)
(70.6402 -0.99126 1.00483)
(63.0408 5.45815 1.05839)
(59.8601 5.32328 0.489985)
(57.984 3.40546 0.434721)
(58.4053 1.34135 0.286779)
(56.6047 1.68395 -0.000120918)
(225.98 -11.74 10.1848)
(152.56 84.3902 -16.1547)
(154.356 -13.8023 17.2632)
(20.2218 -52.6159 6.62971)
(80.9531 -62.4621 3.51292)
(8.94463 -42.3476 0.0308538)
(59.0942 -57.3367 0.0687577)
(31.9908 -43.0624 -0.4334)
(51.0013 -48.4484 -0.337443)
(44.6989 -40.6149 -0.49167)
(55.5714 -39.6431 -0.479411)
(55.2003 -33.0016 -0.8446)
(64.2983 -26.5604 -0.959636)
(65.8618 -9.93445 -0.162692)
(66.2773 1.97547 0.203635)
(63.2141 7.22914 0.404473)
(62.8377 5.86029 0.802979)
(58.1896 0.636373 1.52125)
(52.5078 0.939708 1.42157)
(43.6023 2.45079 0.624221)
(79.6366 -116.409 -61.1897)
(-46.0055 -6.33977 5.70279)
(106.78 -23.5511 -11.9686)
(32.0155 -31.3609 -6.04532)
(91.4063 -33.7157 -5.46414)
(49.9407 -26.5654 -4.25553)
(63.576 -56.8797 -2.1941)
(43.3146 -30.1974 -1.81882)
(52.2523 -47.582 -0.632785)
(48.476 -37.4008 -0.502933)
(57.3709 -40.7751 -0.370166)
(56.9849 -32.753 -1.02512)
(64.5999 -27.8932 -1.94882)
(65.9951 -11.5368 -0.855918)
(67.9372 0.62527 0.353135)
(65.7501 6.081 0.942144)
(61.4635 4.31013 1.99814)
(47.6256 3.49494 2.07969)
(37.3598 5.0462 1.14413)
(31.3857 3.57029 0.444236)
(15.8325 180.442 -34.5313)
(-131.102 5.02548 -11.8379)
(90.9263 -14.7896 -6.9712)
(-17.4156 -27.6068 -3.08532)
(85.1617 -25.0613 -3.78191)
(22.2072 -2.31849 -2.66932)
(54.5676 -17.778 -0.261227)
(25.9851 -28.4891 -0.656293)
(48.7326 -38.385 -0.482634)
(50.5242 -46.5414 0.129135)
(62.7127 -44.7184 0.892843)
(62.3128 -39.094 1.30819)
(64.1417 -29.3948 0.900862)
(63.9724 -17.532 0.585329)
(65.4748 0.12787 0.0135443)
(63.4987 7.19092 1.24254)
(52.5589 9.77833 1.74475)
(41.1005 9.75206 0.845648)
(35.9966 8.3016 -0.320394)
(35.1926 3.67495 -0.606859)
(79.4659 81.8969 -40.9995)
(-148.23 -43.3236 18.8902)
(69.122 -43.5047 9.16374)
(-32.14 -37.904 -1.60477)
(63.7953 -40.2213 -1.59257)
(36.4853 -12.0273 -1.87721)
(76.9464 -6.89921 -0.605119)
(77.8473 -39.9752 -0.456184)
(81.0323 -41.4933 -0.315731)
(71.8453 -47.9674 -0.216161)
(75.4621 -52.0993 0.402021)
(79.2674 -44.0319 0.526056)
(73.2393 -31.2604 0.829816)
(67.087 -17.7295 0.229258)
(67.2387 -1.67858 0.422853)
(60.6219 10.3483 0.886692)
(51.5005 15.0752 1.46911)
(43.1141 13.9612 0.226954)
(41.2455 12.6103 -1.22449)
(40.1161 7.22511 -1.623)
(171.092 56.3643 -6.38218)
(-65.0952 -60.1915 10.9701)
(121.936 -13.3151 -4.8355)
(0.552861 -26.5015 1.65896)
(86.306 -31.4118 -0.861189)
(42.1187 -33.7147 -1.29836)
(56.5172 -28.8855 0.262537)
(63.8913 -30.633 -0.403816)
(76.0913 -34.9327 -0.387122)
(84.6786 -42.2163 0.137875)
(75.9315 -54.7757 -0.0510029)
(76.0866 -44.2749 -0.075027)
(70.4526 -22.9929 -0.13223)
(67.4439 -10.9102 -0.279589)
(65.8582 0.0496477 -0.91237)
(60.5036 14.6011 -0.136264)
(56.6526 19.7748 0.400575)
(53.1367 19.1752 -0.694445)
(53.6362 18.8507 -1.3167)
(56.108 13.5927 -0.900426)
(191.237 -155.39 -114.822)
(-147.836 -93.7747 29.6724)
(123.361 -96.0814 2.78765)
(10.4589 -52.9515 0.613092)
(85.3387 -44.9554 -1.26773)
(54.0645 -29.8803 -1.43403)
(85.475 -36.0869 -1.30138)
(98.3143 -39.5512 -0.986001)
(106.942 -40.7779 -1.04504)
(111.087 -35.6213 -0.139638)
(91.4634 -48.5905 -0.660519)
(77.0586 -40.4592 0.336365)
(68.5672 -18.8148 0.276659)
(68.6881 -5.00319 -0.402152)
(67.281 5.40791 -0.770396)
(63.106 17.5175 -0.467135)
(62.8683 22.0335 -0.132694)
(63.4346 21.766 -0.765311)
(66.8655 17.1754 -1.02675)
(75.0979 8.64461 -0.385653)
(125.02 -342.831 -10.691)
(76.1936 -149.61 -11.138)
(151.963 -70.2987 8.40845)
(57.6607 -30.3295 4.98637)
(102.188 -18.0103 3.63291)
(64.0208 -47.7593 0.256043)
(81.258 -50.7035 0.306761)
(84.611 -39.8878 0.0402884)
(93.7085 -39.1367 0.585052)
(102.099 -43.9241 1.02551)
(91.8954 -31.5156 1.22006)
(60.5326 -26.8608 -0.0711762)
(62.1062 -18.0378 -0.332089)
(66.1003 -4.81977 -0.246217)
(70.65 10.7688 -0.847908)
(71.375 19.1436 -0.391652)
(74.8503 21.9237 -0.0307754)
(76.8788 20.0826 0.23586)
(79.9783 11.945 0.556549)
(80.3807 4.93952 0.122437)
(96.5492 -194.479 125.23)
(-46.432 -56.7811 -10.6905)
(95.1526 -25.0184 1.25137)
(-4.63169 -38.6521 -0.129457)
(96.0736 -36.4922 1.09196)
(56.5108 -74.269 -0.405718)
(90.0137 -51.1517 -1.48731)
(76.472 -48.1268 -0.819769)
(82.4097 -42.2804 -0.00546682)
(52.4189 -31.3489 1.07062)
(50.7486 -26.1024 0.468456)
(42.4733 -22.16 -0.021506)
(47.8787 -14.9514 -0.558712)
(53.2137 -4.32986 -0.679034)
(62.5931 10.2609 -0.023919)
(70.9485 14.3504 0.493746)
(75.9277 16.6716 1.008)
(77.4356 14.5327 1.57755)
(76.3019 8.99008 1.50097)
(72.0971 4.72657 0.571267)
(261.908 -105.072 -46.7304)
(54.8354 -52.3965 26.9681)
(139.415 -55.818 16.2103)
(55.8099 -58.1513 2.44988)
(119.721 -56.9524 0.690259)
(69.7456 -61.1663 -0.59116)
(91.892 -28.619 0.00769934)
(63.967 -50.2321 0.236887)
(71.8897 -24.0565 0.692823)
(55.9962 -32.2719 0.935997)
(58.1267 -16.8935 0.918061)
(48.0272 -20.5621 0.613669)
(49.3904 -10.5984 0.566701)
(46.5236 -10.2721 0.373461)
(50.801 -3.34109 0.805199)
(55.8195 2.16992 0.826544)
(61.8638 8.35374 1.00777)
(64.6643 8.7638 1.25851)
(65.6635 6.78195 1.17846)
(65.9035 2.88802 0.853874)
(35.7724 -88.1676 75.0525)
(-103.304 -57.9235 -8.81192)
(81.4768 -39.7134 -1.25869)
(37.4657 -50.6068 -2.65085)
(116.276 -50.512 -0.393944)
(68.812 -56.2284 -1.5133)
(99.0573 -41.843 0.0346045)
(69.3871 -41.2681 -0.598712)
(75.3683 -27.1538 0.121926)
(57.3238 -26.9146 0.190014)
(58.2423 -18.3988 0.411935)
(49.2633 -17.8852 0.236533)
(50.5133 -12.2137 0.341718)
(47.8939 -10.0179 0.33829)
(49.6394 -4.08808 0.329645)
(51.1927 -1.98455 0.492019)
(55.7655 1.49067 0.551624)
(60.256 1.71209 0.614086)
(62.259 -1.02393 1.11139)
(60.6513 -3.27888 0.641958)
(217.368 93.7349 -44.9441)
(113.435 -55.9016 2.54177)
(181.809 -111.649 8.39016)
(93.4347 -83.9415 4.51655)
(132.067 -60.3554 3.51644)
(76.0498 -44.574 1.10252)
(95.6255 -21.6915 1.69506)
(57.2718 -25.947 -0.0235098)
(72.7402 -11.5171 0.129567)
(53.0828 -17.8569 -0.25729)
(62.1029 -10.9544 -0.0254002)
(52.7779 -14.8255 -0.152124)
(57.8381 -11.1806 -0.0336285)
(54.2602 -11.8807 -0.079194)
(57.3234 -8.5019 0.0938897)
(56.6505 -7.11632 -0.00830718)
(58.8108 -4.05515 -0.00766897)
(59.4197 -2.73629 -0.0982446)
(59.4578 -1.44853 -0.158443)
(55.9232 -1.57334 -0.865867)
(225.951 30.1748 7.22205)
(231.201 -86.5188 -12.5851)
(296.683 -63.5024 19.3107)
(124.695 -55.2224 20.6516)
(133.968 -48.1517 10.5111)
(55.2336 -37.5771 2.07588)
(92.6372 -27.7282 0.810132)
(49.1573 -24.3196 -0.170081)
(70.8593 -19.9855 -0.647664)
(49.9807 -18.6165 -0.854313)
(60.9548 -15.9436 -0.990413)
(52.4157 -14.7333 -0.899041)
(58.2919 -12.4719 -0.638037)
(55.5721 -10.1202 -0.427414)
(59.0126 -6.79686 -0.169341)
(57.6168 -3.67968 -0.0563164)
(59.2563 -0.734358 -0.1289)
(58.4443 0.652108 -0.308604)
(58.0328 2.0889 -0.551824)
(55.9643 3.48618 -1.08961)
(158.365 -148.567 -111.157)
(52.7356 -108.158 -23.8969)
(184.581 -31.6106 -23.2688)
(74.4564 -22.7487 -8.84415)
(125.528 -24.1001 -3.94843)
(74.2846 -19.0496 -0.871633)
(100.9 -12.7093 0.601815)
(69.5716 -6.9523 -0.046772)
(83.7066 -4.41303 -0.419652)
(66.5297 -4.907 -1.19318)
(74.3762 -5.46174 -1.23394)
(66.5275 -7.75987 -1.35437)
(71.9351 -9.62149 -1.17801)
(70.3985 -10.8656 -1.2894)
(74.9201 -9.41556 -1.08823)
(74.9086 -7.3007 -0.912677)
(77.5178 -3.52989 -0.296439)
(75.3257 -0.729122 0.158054)
(73.1047 2.94274 0.363475)
(68.4856 5.15559 -0.106889)
(219.771 -200.965 -97.5575)
(147.518 -94.763 -22.1799)
(212.356 -6.26138 17.0782)
(120.461 -0.328004 3.48768)
(154.581 -15.6723 0.66924)
(112.021 -18.2395 -0.0201991)
(127.97 -19.0049 1.23751)
(96.3199 -10.629 1.1498)
(99.9932 -9.07092 1.10902)
(77.9402 -4.43156 0.0418208)
(79.4085 -5.71767 -0.579823)
(66.6944 -5.66453 -1.31982)
(69.4599 -8.09169 -1.66988)
(67.6568 -6.89444 -1.89092)
(72.1623 -5.08021 -1.80978)
(71.4711 -2.11895 -1.65042)
(74.371 0.548257 -1.29755)
(74.6046 2.90814 -0.71365)
(75.0985 5.38489 0.00578495)
(73.5817 6.27682 0.132272)
(141.339 -87.0199 69.2829)
(135.654 36.3231 2.32917)
(197.358 28.4599 13.8551)
(145.686 16.3495 2.79273)
(179.473 2.42076 -5.95206)
(159.431 1.84131 -6.34246)
(175.051 4.39486 -3.96387)
(162.697 10.3199 -1.27358)
(166.139 13.7803 1.3318)
(155.204 16.5952 2.32216)
(154.526 16.3515 2.84068)
(147.45 15.4113 2.77495)
(143.481 5.28536 3.07532)
(123.878 -1.15085 2.7501)
(113.331 -1.30985 2.07947)
(102.499 -0.260467 1.564)
(99.0543 0.723213 1.30965)
(94.0008 1.3282 1.25672)
(92.539 2.09148 1.34068)
(89.4854 2.65801 1.24635)
(401.964 -944.636 80.0759)
(-49.4458 -180.507 13.5004)
(132.914 -60.1528 37.919)
(45.1849 -48.4711 10.2104)
(120.178 -16.5562 10.1808)
(90.8438 0.573397 0.538534)
(105.282 15.2363 -1.63787)
(82.4908 8.20191 -4.75701)
(94.0491 5.42 -1.33857)
(91.0558 -2.56411 0.259779)
(103.622 -4.69421 2.40683)
(109.677 -6.37518 3.19957)
(121.652 -3.41142 3.60724)
(124.785 -0.325577 3.08112)
(124.783 2.93672 2.52048)
(116.274 4.94636 2.94599)
(107.46 4.87376 3.06244)
(99.2681 3.77673 1.73914)
(95.8407 2.61953 0.94574)
(87.7289 1.05414 0.143057)
(-160.458 -53.6443 148.097)
(-235.05 13.9544 -10.4792)
(18.9394 -30.1234 -15.1008)
(-96.0666 -26.3517 -3.70073)
(48.2431 0.936489 -10.6522)
(-8.13751 -6.14041 -5.35118)
(54.1006 -1.51771 5.02922)
(34.5797 -11.2146 3.23458)
(62.1979 -13.2025 4.86969)
(56.8707 -14.5347 1.21043)
(68.6882 -12.9034 0.567858)
(67.2871 -10.7088 -1.06095)
(73.372 -7.78244 -0.824625)
(73.1182 -2.53967 -0.910728)
(75.795 2.3245 0.140464)
(73.4097 4.29226 0.834241)
(72.5959 5.00081 1.57004)
(69.6635 3.90855 1.88154)
(68.9332 3.70132 2.11466)
(64.7177 2.72414 0.502037)
(146.273 -218.152 176.642)
(-225.472 -145.202 -29.0602)
(54.7666 -127.985 -18.5815)
(-93.2076 -76.9062 2.60033)
(45.843 -60.9177 -1.19653)
(-15.2818 -25.7251 3.92601)
(48.0359 -15.5504 5.6978)
(26.5633 -9.02541 3.14071)
(52.6817 -9.03253 3.46967)
(44.2553 -9.10005 0.851953)
(54.9147 -8.92189 0.695814)
(51.6166 -7.54048 -0.631579)
(56.0323 -4.93523 -0.879287)
(53.1593 -1.54552 -1.53716)
(54.4292 2.21039 -0.432919)
(53.431 4.36663 0.462212)
(54.857 5.15818 0.907302)
(54.6532 5.02811 0.934148)
(55.059 5.06289 0.780093)
(53.2037 3.95454 -0.235646)
(265.086 -177.935 -40.5035)
(48.9678 -57.4711 -22.1287)
(106.615 -90.2499 -12.4351)
(-2.75881 -52.001 2.01698)
(56.9242 -54.148 4.5184)
(-12.46 -30.9786 2.01916)
(40.4442 -34.7022 3.52592)
(13.2136 -25.0392 2.36191)
(43.3726 -25.4942 3.31606)
(34.8795 -19.3604 2.02702)
(48.6215 -16.74 2.5515)
(45.4344 -11.6451 1.68722)
(51.0223 -7.08482 1.90133)
(48.1959 -2.39613 1.20055)
(49.0505 1.11588 1.21935)
(46.8695 2.84302 1.04444)
(47.2385 3.34175 0.959128)
(47.3095 2.87762 0.764087)
(48.2635 3.23255 0.608272)
(48.7566 3.28245 -0.214691)
(118.892 -127.318 92.7495)
(-32.1196 -64.0998 -12.8953)
(68.4953 -69.3203 -12.315)
(-15.0092 -46.8416 3.42866)
(58.2162 -35.8187 1.60297)
(2.03259 -24.8498 1.54088)
(46.6579 -33.097 2.492)
(23.4496 -22.0302 0.732689)
(45.9257 -26.9967 1.53207)
(38.8512 -18.8346 0.370655)
(50.6396 -18.0581 0.94345)
(48.7448 -11.5814 -0.0747013)
(54.7258 -6.12313 0.480419)
(51.1592 0.146376 0.507538)
(51.0018 3.4243 1.30716)
(47.6876 5.47388 1.30394)
(47.7465 4.46042 0.862274)
(47.9774 2.9257 0.875158)
(49.3016 1.77692 0.628982)
(48.469 1.98389 -0.105985)
(170.906 169.001 89.3279)
(-39.9325 -33.8397 36.6907)
(98.9636 -52.2238 20.6546)
(-18.9576 -46.8119 5.99625)
(68.9292 -49.3745 1.78521)
(-10.1283 -29.6551 0.414894)
(46.0363 -47.3993 0.415791)
(15.1225 -31.2346 -0.24888)
(37.2943 -36.3989 -0.0533193)
(30.1017 -26.6658 -0.555432)
(42.0652 -24.4454 -0.353638)
(40.9477 -16.3312 -1.09644)
(48.7637 -8.08482 -0.862389)
(47.5786 1.07185 -0.181521)
(48.5851 4.9298 0.292017)
(47.6223 6.13753 0.685066)
(48.3007 2.89192 1.66641)
(47.4769 -0.0553239 2.2884)
(46.4372 1.02678 2.34565)
(41.2708 2.31706 1.11182)
(90.4978 -103.592 196.784)
(6.18104 -72.3759 -2.16817)
(93.6333 -40.9226 -13.1785)
(16.0025 -31.4103 -7.3252)
(74.5066 -29.0458 -7.37202)
(23.9966 -18.6678 -5.2332)
(42.2175 -52.1316 -1.98042)
(22.0576 -20.8704 -1.92373)
(35.5613 -40.1343 -0.282792)
(32.3246 -26.0608 -0.476661)
(42.7946 -28.7348 -0.457558)
(42.6994 -18.6478 -1.79189)
(49.1357 -12.7508 -2.44512)
(48.4139 0.0640248 -0.581767)
(49.996 3.92758 0.674702)
(49.7415 5.51862 1.69383)
(47.485 2.98098 3.77088)
(40.8588 3.62321 3.44324)
(35.0583 5.40445 1.79295)
(30.8257 3.64193 0.589018)
(127.395 121.817 -14.1166)
(-91.3026 -33.1086 -19.6427)
(77.5989 -33.1588 -20.2096)
(-21.1165 -42.1149 -3.82035)
(72.3023 -31.3811 -6.12359)
(11.2445 -5.54571 -2.85215)
(42.9282 -26.5431 -1.47573)
(18.8633 -29.0348 -2.65874)
(35.4942 -38.2648 -1.85984)
(35.4618 -37.9932 -0.757472)
(45.8823 -33.7605 0.440706)
(46.5141 -25.9392 0.298434)
(50.2739 -15.7106 -1.17088)
(49.7728 -4.23483 -1.95679)
(47.9375 4.31396 -0.630231)
(47.3922 7.30805 2.2092)
(41.2016 9.02389 2.9428)
(35.6503 9.63498 1.16912)
(31.7493 8.93521 -0.850847)
(30.5768 4.84089 -1.37548)
(69.3578 31.4567 74.0694)
(-212.536 -75.5636 -2.49203)
(68.0745 -69.3904 -29.2429)
(-39.0409 -55.263 -3.90883)
(51.5849 -48.9008 -4.81268)
(23.8651 -14.9403 -3.02518)
(57.3384 -14.7187 -1.90771)
(53.3983 -37.2204 -2.016)
(55.7991 -41.9188 -1.79602)
(53.3546 -44.7162 -0.970937)
(57.3927 -40.2387 0.441759)
(57.1377 -29.5976 0.867465)
(54.7847 -17.8014 0.250187)
(52.9248 -6.83679 -1.96072)
(50.6566 5.30942 -1.07186)
(42.7239 10.9461 1.20948)
(40.6936 13.8751 1.57561)
(37.3588 13.1769 -0.384992)
(36.4546 10.883 -2.28908)
(34.163 5.55632 -2.79108)
(134.208 40.6067 96.9002)
(-48.065 -54.4749 18.8228)
(97.5929 -40.7636 -1.29963)
(-2.43802 -40.7432 2.84792)
(73.2806 -38.4285 -1.39742)
(36.4949 -37.099 -2.03541)
(51.8143 -31.4668 -0.303116)
(56.7849 -35.594 -1.51372)
(62.3827 -41.2384 -1.91012)
(62.8855 -45.8073 -0.282876)
(61.4208 -43.9658 0.192512)
(60.645 -29.1077 0.230655)
(56.6893 -14.5556 -0.233272)
(54.1079 -4.24913 -1.28785)
(50.6139 5.68124 -1.8879)
(44.6213 14.1546 -0.549129)
(45.0028 16.3489 -0.276042)
(44.909 15.4824 -1.53523)
(47.6609 13.0023 -2.15069)
(48.2879 8.26692 -1.73912)
(-65.4238 -193.16 -42.4652)
(-187.824 -100.383 6.35956)
(95.3389 -110.571 -17.2936)
(-1.84337 -67.5501 -3.20556)
(70.7177 -55.1979 0.0271963)
(45.1498 -37.6638 -2.3506)
(68.9482 -38.2872 -1.97123)
(74.49 -42.9379 -2.76953)
(78.191 -44.6085 -3.0902)
(77.4626 -40.3198 0.425036)
(67.7147 -45.2593 1.67315)
(63.0548 -26.6139 1.23905)
(60.7262 -10.9321 -0.0427959)
(58.1202 -0.752165 -1.5289)
(53.9519 7.86243 -1.53348)
(50.8163 14.3517 -1.15877)
(52.8906 15.6756 -0.866496)
(56.1051 11.9888 -1.48969)
(60.616 7.36381 -1.37158)
(63.9882 4.76025 -0.852398)
(127.629 -411.468 -14.2098)
(7.86353 -109.703 -14.9396)
(114.523 -74.0255 -13.6903)
(37.8791 -38.4766 -2.98146)
(87.5498 -26.8161 0.678978)
(58.688 -52.4984 0.0416995)
(74.6573 -54.4175 2.80418)
(73.043 -44.6487 1.15782)
(74.2853 -47.8948 1.72248)
(77.1097 -41.8706 2.57733)
(62.6765 -29.4779 5.4605)
(53.5526 -20.5339 -0.560353)
(54.7724 -9.72451 -1.66314)
(58.5784 1.49594 -1.54347)
(60.1154 10.6565 -1.65294)
(60.8592 13.14 -0.871936)
(63.9616 13.1229 -0.114932)
(66.8466 8.38454 0.395317)
(68.7449 3.8172 0.734588)
(68.0174 3.0767 -0.220141)
(47.4533 -82.8116 -7.64561)
(-69.3159 -62.0288 -26.7647)
(83.8542 -27.5328 -11.4738)
(-18.5089 -35.7193 -0.031841)
(85.8336 -33.2551 1.50139)
(39.3838 -70.9539 0.535004)
(73.4197 -43.7828 0.18703)
(54.0658 -43.3037 0.0970264)
(59.9513 -37.983 1.54082)
(38.3119 -30.3167 2.57193)
(42.7772 -23.3663 1.36009)
(38.2888 -18.105 -0.621665)
(44.7999 -10.8198 -1.56916)
(47.4996 -2.43826 -1.25499)
(53.3735 6.49279 -0.089572)
(59.9462 7.84531 0.928098)
(64.2129 9.20411 1.94828)
(65.722 6.41538 2.4661)
(65.237 4.62205 2.14241)
(62.9913 3.73554 0.500305)
(79.9599 -0.779972 -33.3703)
(-81.8408 -42.5961 -7.07019)
(118.25 -56.1823 -9.11589)
(26.2038 -57.5398 2.27242)
(106.856 -54.0228 0.501327)
(47.5856 -58.0655 0.082158)
(75.1687 -21.2539 1.00159)
(42.8447 -48.5634 1.07985)
(54.2746 -18.7309 1.39808)
(37.8745 -31.3191 1.53321)
(43.9154 -14.5459 1.25327)
(36.0188 -19.5068 0.706109)
(40.3689 -9.08124 0.634081)
(39.0172 -9.57321 0.647153)
(44.3091 -2.62224 1.43219)
(48.2553 0.417032 1.46281)
(53.5005 5.29737 1.73847)
(55.8794 5.35172 2.00374)
(57.2204 4.47013 1.84304)
(58.7007 3.12751 0.929573)
(-4.83597 -37.1034 -12.3832)
(-147.36 -63.6977 -12.1089)
(73.9663 -55.6735 -2.07713)
(3.70131 -54.6136 -1.31435)
(98.3017 -49.9117 1.4091)
(36.6124 -53.8156 -1.6319)
(80.0357 -34.1652 0.739449)
(45.7876 -37.1101 -0.651991)
(58.9543 -22.1203 0.700423)
(41.5982 -24.8084 0.384096)
(46.6415 -16.0831 0.706057)
(38.7426 -16.6219 0.293857)
(41.6989 -10.6523 0.529033)
(39.6965 -8.86928 0.436936)
(42.2285 -3.39128 0.636963)
(43.8855 -2.10551 0.746473)
(48.1143 0.783776 0.936162)
(51.6549 0.864378 1.06012)
(53.6793 -0.120542 1.53848)
(54.7391 -0.0695161 0.520194)
(140.324 -121.582 -106.243)
(15.2964 -102.232 -4.74624)
(140.468 -109.916 -8.40892)
(42.7401 -81.8072 3.14911)
(111.664 -60.0603 4.49552)
(42.9908 -47.6778 1.25879)
(80.1801 -22.9987 2.33229)
(39.7707 -29.7318 -0.173934)
(61.1941 -13.3759 0.339876)
(40.3007 -20.107 -0.279094)
(51.7206 -11.5924 0.0956668)
(41.8444 -14.9449 -0.17334)
(47.8475 -10.0686 0.100482)
(43.8596 -10.4934 -0.045692)
(47.3908 -6.52699 0.330325)
(46.5159 -5.31747 0.0147053)
(48.692 -2.441 0.0735543)
(49.1689 -1.39443 -0.161693)
(49.3643 0.0292507 -0.342241)
(47.8984 0.479793 -1.56409)
(126.31 -119.622 -133.963)
(-24.2107 -93.2405 1.93827)
(150.136 -62.8848 32.8701)
(40.9016 -52.2341 21.0745)
(116.482 -44.5178 10.3795)
(41.1697 -34.4742 2.33211)
(85.5047 -26.7367 0.995694)
(41.9999 -23.9868 -0.41468)
(64.8499 -19.8451 -0.950099)
(43.0732 -18.7073 -1.2904)
(54.0827 -15.7996 -1.35424)
(43.9962 -14.4472 -1.30705)
(49.6191 -11.6668 -0.781234)
(46.1198 -9.19781 -0.525057)
(49.3739 -5.94832 -0.0707035)
(48.0591 -3.49779 -0.101943)
(49.6478 -1.17075 -0.278397)
(48.863 -0.210351 -0.59339)
(48.3296 0.627126 -0.853068)
(47.0018 1.04288 -1.9545)
(373.175 -75.2384 122.653)
(155.14 -103.164 -4.36969)
(189.857 -52.6464 -14.147)
(73.6463 -35.9798 -8.45338)
(116.438 -31.262 -4.89317)
(60.7979 -23.1515 -1.55097)
(91.6225 -17.1551 0.443231)
(59.2591 -12.5081 -0.824647)
(75.5687 -10.1939 -0.97177)
(57.3478 -10.1752 -2.16279)
(65.7804 -9.81891 -1.92416)
(56.7539 -10.4239 -2.13672)
(61.7986 -10.7936 -1.63351)
(58.5669 -10.5159 -1.63091)
(61.7106 -8.03777 -1.08618)
(59.9471 -5.40795 -0.898134)
(61.6637 -2.06505 -0.268067)
(60.3205 0.0324258 0.147714)
(59.9634 1.57455 0.322636)
(57.9734 2.16908 -0.655877)
(297.399 -89.987 -62.2385)
(73.9302 2.0638 -22.9762)
(187.862 -4.40756 -5.48067)
(111.3 -15.8261 -1.56796)
(150.11 -23.863 -1.80054)
(102.648 -19.2931 -0.92873)
(119.036 -17.8958 1.1709)
(87.9175 -10.8914 0.541374)
(95.0975 -11.5624 0.379387)
(75.893 -8.90032 -1.6087)
(79.3915 -10.5527 -2.71472)
(67.8512 -10.1253 -4.53799)
(70.2431 -11.3782 -4.18417)
(66.3633 -9.70649 -3.39321)
(68.225 -7.13075 -2.65841)
(65.4647 -4.0871 -2.22426)
(66.5104 -0.976074 -1.54247)
(65.9149 1.13641 -0.849824)
(66.6469 2.6111 0.0472322)
(66.2988 3.09197 0.0891493)
(127.65 -35.266 -92.9739)
(134.792 43.3624 -26.7151)
(234.017 28.1143 -7.31616)
(215.67 11.3417 1.52184)
(222.003 -4.29849 -1.56718)
(176.559 -0.635463 -3.19586)
(172.641 5.43737 -0.242711)
(151.186 11.9301 2.03869)
(154.621 14.3247 5.3453)
(145.737 15.6059 5.61819)
(147.835 13.9428 5.54276)
(142.027 11.8931 4.75038)
(137.6 0.922559 5.77509)
(118.668 -4.88398 5.63692)
(109.916 -4.75274 4.22276)
(99.8372 -3.3996 3.01398)
(96.7472 -2.01047 2.70982)
(91.9913 -0.947509 2.63568)
(90.6982 -0.0786697 2.65722)
(87.7109 0.67172 2.28131)
(175.38 -373.941 58.206)
(-157.9 -29.0017 68.8124)
(111.783 -28.7771 32.8081)
(14.4025 -17.5263 8.65697)
(95.177 3.71919 10.8687)
(59.0862 3.19752 0.114706)
(83.4723 8.55727 0.622854)
(62.3557 1.54407 -3.63209)
(77.6239 0.939014 -0.316831)
(73.5652 -1.18706 -0.335389)
(85.4965 -0.586645 1.79797)
(86.9487 0.442064 1.42805)
(92.7741 2.39483 2.31222)
(91.2907 3.60857 2.57581)
(89.6311 4.11741 3.76147)
(84.6688 3.25378 4.41077)
(84.7897 1.97522 3.63609)
(83.2817 0.737934 1.92811)
(83.1232 0.374476 0.999709)
(78.6937 0.0734004 -0.0370938)
(-49.299 -108.507 -15.0166)
(-215.978 1.68579 -40.6634)
(13.1012 -35.0121 -23.6525)
(-106.443 -21.472 -7.3194)
(35.6446 -4.09623 -12.0435)
(-30.4569 -12.2667 -2.49027)
(38.5884 -6.9244 3.08797)
(15.1324 -12.5824 1.37775)
(46.2257 -11.2728 3.16628)
(38.9816 -10.4011 -0.388347)
(52.1031 -7.59259 -0.313553)
(49.3885 -4.78064 -1.96076)
(55.0014 -1.52748 -1.12545)
(53.4681 1.34761 -0.894376)
(55.356 3.38462 0.553752)
(54.2681 3.81982 1.42514)
(55.0383 3.71329 1.8739)
(54.1728 2.88234 1.70744)
(54.4715 2.99733 1.67166)
(52.2154 2.21815 -0.202492)
(53.6371 -363.102 -62.028)
(-189.809 -135.562 5.64109)
(31.4782 -119.241 -14.7231)
(-100.088 -68.9585 3.67153)
(33.3227 -53.8093 -0.880381)
(-31.5228 -23.2052 4.85231)
(35.5922 -15.9647 4.25005)
(9.91762 -9.36341 2.06628)
(38.6652 -8.5331 2.82477)
(28.638 -7.32872 0.33871)
(40.5137 -6.49817 0.473601)
(36.1173 -4.64916 -0.829603)
(40.5517 -2.34684 -0.759257)
(37.6214 0.342508 -1.05544)
(39.2586 2.31806 -0.100846)
(39.0867 3.53324 0.508558)
(41.1827 4.0125 0.834514)
(41.869 3.78282 0.740318)
(42.9192 4.02226 0.603106)
(41.9303 3.13372 -0.68277)
(315.843 -109.498 -48.4885)
(82.1391 -75.6369 -2.11557)
(96.0707 -97.0989 -6.92455)
(-22.6181 -51.8992 3.32563)
(45.2552 -49.8765 2.41153)
(-25.7497 -26.5582 2.67394)
(31.3854 -29.6401 2.48111)
(0.572246 -19.202 1.93613)
(32.3775 -19.4131 2.77289)
(20.9823 -13.1465 1.49459)
(35.2305 -10.985 2.06287)
(30.7 -6.23777 1.25033)
(35.992 -3.35597 1.39684)
(33.4693 -0.374172 0.935784)
(35.0898 1.15192 1.04915)
(34.3306 2.07483 0.906183)
(35.8659 2.4282 0.79118)
(36.9796 2.15834 0.601427)
(38.3875 2.74218 0.428324)
(39.1343 2.64739 -0.681217)
(102.881 -71.7986 -84.1693)
(-23.6035 -79.826 -21.8565)
(58.6191 -71.0724 -8.05002)
(-29.3424 -44.4427 3.88181)
(46.466 -32.905 0.452477)
(-14.3965 -22.0897 1.85623)
(35.5356 -28.7182 2.05992)
(9.61495 -15.9301 0.451692)
(34.5752 -20.3587 1.38625)
(25.5689 -11.2718 0.154534)
(37.4844 -10.8738 0.742086)
(34.0166 -4.32747 -0.204823)
(38.0919 -1.55349 0.293572)
(34.7743 2.27516 0.342351)
(35.626 3.31473 1.05926)
(34.4901 4.06781 0.979629)
(36.1412 2.89909 0.708274)
(37.5923 2.09095 0.66708)
(39.2043 1.62866 0.423225)
(39.0547 1.65985 -0.555052)
(93.4011 66.831 81.7544)
(-65.2624 -68.1766 10.9708)
(86.1405 -52.4043 2.51328)
(-27.3896 -40.5938 5.29989)
(57.4741 -42.2614 0.135987)
(-23.613 -22.9566 1.58409)
(36.5451 -41.2803 -0.102965)
(2.72648 -23.4386 -0.00886085)
(27.3447 -28.7013 -0.0320723)
(18.559 -18.0701 -0.430154)
(30.9663 -16.0064 -0.194305)
(28.9622 -8.04486 -0.958662)
(34.7949 -2.53589 -0.703817)
(33.0388 2.51812 -0.190604)
(34.5306 3.77306 0.0771679)
(33.9634 3.55659 0.502215)
(35.7623 0.745119 1.53665)
(36.9087 0.180584 1.72853)
(37.1043 1.38445 1.92762)
(35.1707 2.15106 0.764756)
(277.311 -137.163 -23.2992)
(-25.51 -45.9567 5.4658)
(91.5348 -38.9759 -13.7288)
(4.10467 -30.9566 -7.32531)
(60.969 -27.578 -6.60481)
(3.42875 -15.7647 -4.46253)
(27.7092 -50.4463 -1.50291)
(7.0421 -14.2419 -1.48835)
(23.8942 -34.8786 -0.0592188)
(20.1539 -18.2039 -0.0785895)
(31.3141 -21.4728 -0.0257461)
(30.7109 -10.5583 -1.34621)
(35.5494 -6.64962 -1.53804)
(33.9109 1.90431 -0.320513)
(35.1061 3.16189 0.301206)
(34.5411 3.52807 1.5421)
(34.0057 2.13242 3.23243)
(33.0267 3.93847 2.70297)
(30.1583 5.70772 1.45644)
(27.7731 4.25596 0.0712194)
(31.6712 -43.9785 57.8292)
(-82.1384 -43.0176 -31.825)
(63.9865 -50.9205 -25.657)
(-22.1918 -47.7622 -4.39314)
(61.3799 -34.3886 -5.74878)
(-0.834148 -6.64221 -2.27514)
(31.3671 -31.4543 -1.93344)
(9.0306 -25.6394 -2.37213)
(24.1312 -35.0212 -1.63098)
(23.4142 -29.7184 -0.173396)
(33.5485 -25.5147 0.612357)
(34.5603 -17.2177 0.0793793)
(38.0568 -8.90226 -1.38676)
(36.4539 0.451939 -1.65049)
(31.9421 4.30627 -0.0854369)
(31.4912 6.1766 1.84581)
(29.528 8.169 2.10161)
(28.1717 8.96298 0.382339)
(25.2265 8.10753 -0.947231)
(24.209 4.79442 -2.00122)
(115.919 -120.906 128.087)
(-61.8101 -98.4928 5.53137)
(57.9156 -76.2322 -23.037)
(-32.3624 -61.986 -1.53596)
(40.8976 -51.0205 -4.73579)
(11.5561 -15.1359 -2.24889)
(39.5415 -20.7902 -2.13325)
(34.0894 -36.8313 -2.33194)
(38.0125 -40.042 -1.99309)
(37.6626 -38.0064 -0.668575)
(41.6105 -30.3268 0.890044)
(41.6721 -20.6356 1.16119)
(41.8716 -10.8771 -0.289275)
(40.1257 -2.09395 -2.01868)
(35.8615 6.68841 -0.864478)
(28.9595 9.01647 1.20767)
(30.3464 10.9863 0.718466)
(29.5218 10.3604 -0.817583)
(29.1513 7.88173 -2.02321)
(26.2131 3.88987 -3.06541)
(132.331 158.41 282.817)
(-53.3833 -70.9553 17.8815)
(94.9599 -43.726 -5.40339)
(-7.61765 -47.1017 1.29202)
(61.8182 -40.7589 -2.7518)
(25.5132 -38.3717 -2.14263)
(41.0934 -32.6205 -0.322459)
(44.8449 -37.6158 -1.5231)
(47.0311 -41.5382 -1.85607)
(46.2805 -40.9414 -0.2456)
(47.0463 -33.1018 0.637219)
(46.0436 -20.2961 0.961579)
(44.2475 -9.47776 -0.28837)
(42.1247 -1.0706 -1.50655)
(37.5034 6.63756 -1.40835)
(33.1389 10.5611 -0.10934)
(35.0458 11.4312 -0.426859)
(36.6398 10.0306 -1.50844)
(39.1729 7.81593 -1.75728)
(38.3025 4.93331 -2.0968)
(125.136 -100.091 100.538)
(-125.082 -82.7914 -13.0233)
(97.1713 -104.334 -32.9279)
(-20.0911 -64.1756 -6.67452)
(52.7433 -55.369 -0.653484)
(24.9649 -41.3201 -1.77474)
(50.4427 -41.7991 -0.775229)
(55.4396 -44.5579 -2.45289)
(55.9236 -43.6483 -2.57373)
(51.216 -40.9269 0.591091)
(52.8485 -37.5637 -3.75696)
(52.3367 -19.2599 0.0515583)
(48.8839 -6.87191 -0.517986)
(45.2493 1.01027 -1.48587)
(41.9381 6.99544 -1.24172)
(40.36 8.62048 -0.675422)
(43.3813 8.21703 -0.919339)
(46.876 4.24751 -1.30482)
(49.7233 2.7425 -1.01782)
(51.0083 2.56681 -1.17101)
(115.594 -261.494 66.2675)
(40.6682 -105.924 -17.0671)
(122.556 -84.7445 -30.6171)
(33.9403 -44.2625 -10.0933)
(75.5882 -32.1617 -2.66608)
(45.2325 -58.2808 -0.714061)
(60.1856 -56.2274 2.30423)
(54.672 -44.8202 0.94805)
(52.864 -43.8241 0.985126)
(49.3942 -34.961 2.6897)
(45.2712 -25.0991 3.06185)
(44.6832 -15.5413 -1.31889)
(46.1618 -6.03028 -2.08492)
(47.9256 1.74924 -1.68804)
(48.0571 6.46713 -1.24719)
(48.7105 5.72422 -0.269723)
(51.4994 4.45053 0.152495)
(53.3966 1.18152 0.316749)
(54.4257 0.518493 0.57796)
(53.8339 1.65834 -0.652249)
(126.187 -188.389 129.424)
(-12.6524 -105.194 -49.7681)
(76.8641 -41.7108 -22.5131)
(-29.451 -37.189 -1.81828)
(75.1445 -34.241 -0.165742)
(21.2694 -71.3086 0.433964)
(57.2205 -38.3565 0.511285)
(34.9864 -41.3004 0.822747)
(42.9216 -33.3171 1.83537)
(27.9118 -28.7053 2.07353)
(35.7865 -20.822 0.844246)
(32.4409 -15.9875 -1.03294)
(38.8835 -9.2924 -1.65894)
(39.8131 -3.6122 -0.885365)
(42.9748 1.90276 0.517676)
(47.0985 1.6752 1.23033)
(50.3764 3.03872 1.95717)
(51.6518 1.28506 2.02399)
(51.8621 2.04272 1.73174)
(51.3122 2.4025 -0.0324455)
(322.224 -84.4629 -11.2482)
(46.647 -58.1162 -0.666237)
(109.112 -57.598 -7.30525)
(14.8393 -58.1241 5.11713)
(95.6085 -52.9365 0.548449)
(29.1953 -56.0293 0.951967)
(62.02 -16.3463 0.993723)
(26.6438 -48.3002 1.1272)