/*--------------------------------*- C++ -*----------------------------------*\
  =========                 |
  \\      /  F ield         | OpenFOAM: The Open Source CFD Toolbox
   \\    /   O peration     | Website:  https://openfoam.org
    \\  /    A nd           | Version:  10
     \\/     M anipulation  |
\*---------------------------------------------------------------------------*/
FoamFile
{
    format      ascii;
    class       volScalarField;
    location    "3.2";
    object      k_0;
}
// * * * * * * * * * * * * * * * * * * * * * * * * * * * * * * * * * * * * * //

dimensions      [0 2 -2 0 0 0 0];

internalField   nonuniform List<scalar> 
12920
(
463.531
642.922
584.282
539.203
465.662
344.288
292.151
225.193
162.696
130.463
115.336
107.621
101.589
95.8455
91.3983
86.4983
83.4887
80.5018
80.2102
78.4553
1881.84
1515.84
1029.32
1087.79
1054.15
1005.48
825.393
508.556
291.01
210.98
176.395
160.722
149.981
147.019
145.641
146.054
147.475
149.402
150.335
146.253
2607.04
3215.36
1401.28
1062.99
801.429
692.768
498.409
361.178
281.919
236.353
195.776
170.258
152.853
142.426
133.588
126.497
120.643
115.295
112.797
112.825
1796.6
2660.91
2234.7
1292.59
842.582
580.146
462.082
401.259
337.73
289.091
237.981
196.588
163.776
144.109
132.497
124.588
118.254
112.194
109.872
106.702
1171.8
4238.73
3926.81
3292.54
2132.07
1309.02
775.641
522.808
374.943
311.138
258.077
220.311
184.143
156.924
139.366
127.854
120.436
114.187
112.341
108.487
7872.39
5384.66
3903.46
2493.33
1363.67
920.516
569.433
425.577
336.843
295.106
252.94
221.056
187.075
158.962
140.678
128.019
120.318
113.249
110.659
103.779
7638.44
4537.67
3855.47
2369.3
1255
866.274
592.35
445.655
350.207
302.957
254.907
210.937
177.316
155.277
139.404
130.162
123.262
114.322
110.519
101.096
1266.76
3388.16
2827.26
1651.37
966.871
740.921
478.542
254.215
184.957
157.028
159.937
129.068
101.776
95.3442
163.403
144.264
131.614
118.503
113.324
102.32
2434.15
4363.77
3398.49
1541.92
788.728
410.034
288.096
112.655
106.162
76.5794
98.394
98.1911
65.2411
66.3586
120.735
141.531
125.821
115.922
112.2
103.753
4615.51
4646.6
3569.28
2506.6
1289.35
622.9
291.742
159.46
107.086
99.6359
88.0469
79.6852
79.9246
66.7172
101.768
115.367
103.323
103.272
105.223
104.353
4010.28
3266.31
2223.7
1267.07
677.903
319.073
136.105
105.281
109.127
93.5142
80.9636
54.406
50.4846
54.6639
78.1207
108.126
94.5644
94.7849
99.7806
99.9777
4755.03
5207.46
2574.31
1065.43
699.332
395.136
269.602
145.746
120.965
101.751
59.6657
54.0454
49.0136
47.1048
77.6824
86.2203
79.095
80.1444
86.7147
92.3255
4976.68
4370.92
3351.8
1720.67
1030.85
929.732
632.713
395.078
265.861
172.083
99.844
79.6452
73.7145
66.6181
89.8981
76.0512
69.6927
68.9637
71.7374
82.1219
1938.25
4068.34
3425.39
1963.52
1291.6
1113.51
849.775
626.827
411.148
274.418
187.36
145.017
119.259
102.362
88.4356
77.1024
68.8186
64.2838
63.8628
67.6363
1223.44
1748.56
1618.56
1273.18
1129.15
1063.79
885.259
693.998
482.021
321.68
218.635
164.344
132.53
110.966
94.5219
81.0634
71.6814
64.777
59.7198
56.6096
1786.9
2468.24
1904.55
1465.72
1251.02
958.626
576.027
388.876
297.48
234.465
188.51
164.091
139.924
118.375
98.3781
83.9025
74.2759
67.0614
63.3543
57.0077
2876.8
2579.28
2388.01
2235.89
1840.35
1180.29
583.49
314.367
237.33
205.685
184.752
169.388
151.791
131.085
110.439
93.2307
82.6721
74.2738
70.8339
63.6476
302.975
2276.89
2587.37
2417.05
1770.91
1014.63
497.509
311.886
243.985
215.528
189.338
174.23
159.651
144.496
127.984
110.342
98.2781
88.9402
85.7605
79.0008
107.879
1763.32
2036.33
1664.35
1112.92
666.917
419.64
313.572
253.293
232.385
212.287
195.991
172.632
151.073
133.136
115.784
104.441
96.343
92.7341
90.0703
89.1494
297.824
709.207
764.804
630.175
483.743
396.39
338.092
286.429
243.016
204.614
172.072
144.055
119.39
99.4703
82.4879
72.7689
65.9049
63.5995
58.9366
4602.77
2594.42
1442.11
1227.65
1049.11
754.838
509.787
344.976
268.501
247.905
234.726
230.163
222.885
217.483
214.018
210.277
208.753
205.517
202.092
189.061
5512.16
5318.11
3139.3
2967.2
2271.82
2129.33
1259.29
770.046
534.266
496.634
450.433
435.724
420.179
418.688
419.567
424.057
431.642
440.241
444.409
440.327
24703.3
8918.99
3400
2588.12
1475.31
1352.35
861.524
793.789
657.265
592.318
495.967
462.041
427.498
412.137
392.737
378.66
366.857
355.972
353.781
356.341
5257.52
7119.18
4613.52
2864.53
1595.14
1361.25
1087.01
1010.02
829.358
742.22
592.919
520.523
446.114
411.835
385.298
366.517
350.14
335.663
330.151
324.114
9694.49
10648.9
7111.02
6121.87
4031.63
2688.54
1493.33
1210.14
903.444
820.135
672.086
594.153
497.222
437.981
394.321
366.514
347.455
332.284
327.065
315.917
20503.4
12942.2
8526.35
4995.48
2600.18
2046.15
1307.2
1097.54
860.063
779.889
663.261
588.266
503.859
437.837
390.662
358.703
338.323
319.829
312.453
294.202
7726.06
9032.04
8598.57
5012.56
2536.94
1982.28
1389.01
1136.69
874.163
768.093
626.703
538.216
454.37
402.949
367.553
344.224
329.966
314.025
305.933
282.118
10349.2
8754.26
6257.24
3823.65
1980.42
1589.19
1279.33
1045.05
829.464
739.567
617.276
485.089
394.612
349.653
351.917
335.39
328.197
317.077
310.309
286.255
8750.59
9453.81
5491.38
3040.75
1679.26
1269.61
1028.98
850.613
790.427
676.386
631.416
499.705
377.274
334.952
314.332
299.109
301.587
311.162
315.227
300.978
1254.69
5841.97
6139.67
5009.59
2428.91
1842.15
1271.97
956.055
682.939
552.679
483.227
416.765
356.875
303.199
245.823
256.05
263.054
289.905
317.372
309.702
11381.8
4545.81
3943.28
2159.52
1258.3
1153.87
969.732
763.222
654.187
533.235
419.278
288.226
250.361
238.215
250.334
243.427
242.323
252.372
278.432
281.358
12922.9
5615.12
2677.17
2018.64
1478.76
1342.98
1206.35
1060.55
910.238
627.808
392.382
311.333
275.223
256.353
234.03
210.296
209.96
218.485
241.875
261.607
9329.98
9262.87
4015.97
2787.58
2027.25
2070.51
1688.2
1388.92
981.806
615.634
378.666
311
272.667
238.8
218.973
200.907
197.1
199.786
211.916
240.636
8293.55
8262.1
4086.7
3359.05
2691.77
2564.42
1954.67
1364.66
846.116
594.464
439.177
364.806
308.942
270.435
237.998
212.759
195.939
189.315
190.844
204.063
6098.59
5643.43
3604.29
2803.25
2637.64
2562.76
1974.89
1509.82
1008.25
701.905
495.427
409.111
341.207
291.117
253.299
222.533
199.862
184.623
174.535
167.649
3989.91
6915.72
5267.99
3795.81
2849.02
2082.09
1250.52
925.678
710.349
580.81
477.7
417.942
357.609
310.308
266.219
232.714
207.284
190.323
179.129
164.473
5681.87
6543.64
5560.76
5072.49
3901.25
2304.12
1068.64
735.308
611.502
540.925
487.471
448.567
403.715
361.923
308.956
263.682
233.225
210.247
197.794
178.376
5954.95
6459.31
5325.63
4622.92
3172.27
1830.01
1005.87
782.11
653.615
592.398
531.566
492.349
448.166
410.729
368.609
324.458
287.338
259.112
245.617
223.843
2498.65
5219.18
4178.86
2935.18
1982.02
1345.33
949.056
810.669
697.822
659.323
593.887
548.423
477.583
417.542
373.144
336.671
311.967
291.534
284.33
275.921
809.145
2133.35
1677.67
1237.6
1008.73
854.139
748.372
664.168
574.648
493.492
414.367
343.421
294.899
265.91
244.089
209.113
183.159
164.218
157.85
145.093
6717.75
4439.22
2141.6
1436.61
1063.61
688.367
490.911
385.982
342.176
320.031
303.595
294.082
281.519
270.598
261.524
250.093
243.316
228.557
220.122
199.938
4817.62
5753.25
3967.41
2621.89
1740.08
1436.45
1049.26
860.833
738.796
688.489
639.352
627.429
612.539
615.706
618.941
627.757
634.145
638.947
638.16
626.566
6950.83
6739.39
3836.08
2306.38
1745.46
1451.43
1164.61
1029.26
874.794
788.639
701.529
664.932
626.005
609.439
590.248
579.49
569.184
558.992
554.894
546.974
15262.9
8644.8
4715.95
2822.24
2126.54
1645.94
1435.52
1212.12
1033.9
903.818
770.437
699.624
632.77
598.955
567.218
543.967
524.141
505.402
496.82
480.636
28200.3
13010.3
7553.82
5019.85
3168.82
2523.31
1709.37
1452.33
1146
1010.22
845.595
751.871
658.895
604.768
559.641
527.137
502.477
479.661
468.086
443.051
16397.8
14273.8
9717.23
5117.91
2798.9
2128.89
1624.9
1360.97
1122.2
978.87
833.08
735.73
646.342
584.703
538.906
502.818
477.275
449.981
434.78
400.006
13220.1
11522.9
9790.57
5442.48
2922.77
2293.79
1755.32
1453.98
1146.02
974.835
794.734
688.442
596.609
543.775
505.882
479.718
460.947
434.114
416.077
371.684
12100.4
10528.9
7132.63
4150.09
2477.87
2193.23
1914.16
1545.91
1189.74
1003.13
788.425
640.478
541.814
485.091
466.985
455.91
449.316
431.726
413.597
363.289
17426.2
11771.6
6314.27
3219.14
2155.11
1867.49
1774.72
1401.17
1168.41
996.204
805.423
634.633
516.144
453.547
412.349
409.645
421.33
426.558
420.091
374.249
5877.17
10764.4
7892.42
4706.72
2381.42
1933.72
1637.2
1241.04
958.619
792.457
666.207
557.246
462.783
382.143
330.806
363.284
390.285
415.94
417.071
386.801
14415.9
6499.38
4205.71
2319.44
1801.57
1558.07
1441.57
1097.88
894.54
732.218
445.092
319.914
303.597
324.409
345.428
341.636
349.245
372.133
386.14
380.981
12312.9
5682.39
3679.6
2503.88
2213.67
2008.22
1924.03
1568.66
1160.79
774.124
555.754
449.254
396.077
361.396
317.268
298.597
304.772
326.594
353.414
375.394
21815.3
8885.28
4487.64
3234.76
2699.61
2602.52
2281.61
1778.73
1185.67
742.849
533.477
442.419
380.877
333.799
302.812
290.998
291.473
300.591
323.676
358.472
13971.1
9094.82
4826.32
4016.06
3216.02
2845.72
2019.83
1479.6
1012
759.656
582.82
484.147
411.972
362.59
324.327
298.708
284.99
283.409
288.835
313.113
19151
10074.9
5262.31
4527.15
3720.9
2923.53
1956.73
1459.7
1023.46
790.213
620.505
520.484
438.362
380.914
337.248
303.685
280.391
267.001
260.355
261.412
7707.54
10852.2
7081.23
4740.59
3176.44
2100.3
1379.34
1055.76
862.354
721.046
612.816
536.67
464.625
408.681
358.979
320.066
290.583
270.003
255.904
245.3
6434.16
9106.21
6343.89
5321.91
3535.7
2076.89
1236.59
963.411
821.326
731.691
661.381
604.654
540.949
483.785
423.854
371.272
330.954
298.325
278.771
256.194
9793.3
8844.21
6056.31
4771.98
2971.27
1878.67
1262.07
1034.88
893.423
820.141
743.259
691.571
628.694
576.505
519.974
461.378
413.068
372.269
350.969
321.866
3409.08
6394.27
4935.31
3245.77
2438.03
1718.1
1314.19
1144.26
973.745
900.14
794.459
737.599
655.93
595.27
543.793
500.818
470.442
440.496
427.117
403.715
2832.77
3945.2
3229.31
1810.26
1419.12
1189.64
1011.87
861.467
718.431
594.01
495.148
425.404
382.062
341.564
299.097
251.264
219.918
198.447
191.578
176.746
2909.72
3802.2
2258.56
1226.24
859.68
560.85
450.832
389.12
361.862
340.073
323.392
307.12
291.454
274.435
260.972
245.997
235.488
219.331
211.81
195.849
9139.97
6443.37
3738.96
2196.83
1484.79
1190.12
1099.68
927.053
897.025
834.217
812.66
801.724
796.365
801.355
805.502
814.051
815.387
814.432
808.538
789.82
12818.6
7180.35
3744.39
2469.57
1963.8
1527.87
1407.09
1145.74
1046.89
931.161
875.565
831.511
805.067
788.096
775.882
766.463
757.781
744.628
735.386
713.832
14408
8666.3
4786.45
3007.74
2429.29
1789.21
1642.72
1295.9
1170.46
999.818
911.085
838.033
790.697
756.493
730.342
705.593
686.932
664.532
650.925
622.185
24798.5
12563.3
7814.16
4351.72
2997.05
2246.36
1872.25
1509.9
1290.03
1101.71
969.133
868.18
796.939
745.059
707.503
673.245
649.105
620.367
601.796
561.846
9742.89
13473.8
10095.2
4838.64
3024.19
2202.69
1863.23
1486.83
1274.81
1075.83
946.015
841.423
767.599
711.159
672.161
634.531
608.443
573.841
549.959
499.639
7482.89
11505.9
10613.3
5583.97
3314
2408.02
1973.14
1548.59
1284.15
1066.09
907.159
797.811
721.083
671.397
638.778
609.957
587.253
547.617
517.35
454.171
23842.1
11214.9
7456.58
4114.88
3002.44
2494.55
2170.36
1700.78
1317.46
1091.95
881.371
747.894
660.454
608.656
591.327
580.886
569.458
537.722
501.738
428.523
19591.8
10215.6
6031.68
3365.49
2485.59
2237.38
2178.91
1582.43
1292.06
1084.26
874.025
721.983
624.476
567.503
532.887
540.993
544.184
533.997
503.285
431.722
18535.4
12671.4
7322.73
4087.44
2401.69
2006.28
1791.93
1339.99
1093.35
928.577
778.647
649.154
548.751
485.801
473.304
507.511
522.054
522.89
507.762
458.606
18793.4
7469.3
4262.53
2712.29
2055
1785.77
1615.35
1225.51
1003.95
836.168
576.318
462.544
433.784
454.378
466.889
463.338
474.705
491.666
494.837
487.357
17057.4
6959.45
4350.15
2978.76
2633.61
2287.04
2161.84
1556.64
1128.26
827.47
654.737
556.223
500.883
463.271
414.551
410.044
421.717
451.235
477.958
500.366
18365.2
9516.43
5593.45
3671.14
3192
2756.28
2362.58
1656.22
1141.17
796.701
636.761
542.694
476.063
425.579
400.623
397.215
402.78
422.786
452.594
488.447
8136.92
8158.53
5943.87
4373.72
3493.1
2724.77
1960.42
1415.36
1055.42
823.606
674.332
575.344
506.698
455.329
418.178
397.155
389.727
392.651
405.411
438.861
12484
9390.75
6951.63
5183.99
3900.24
2682.07
1880.62
1386.38
1061.48
847.054
706.348
604.381
528.102
470.366
427.278
394.661
374.4
365.516
364.196
372.302
16986.3
12613.1
7033.78
4761.03
3170.46
1997.54
1472.66
1152.29
993.831
827.787
725.542
634.9
564.109
502.718
453.244
411.454
382.32
361.856
348.453
344.687
13335.5
11862.9
6797.95
4844.2
3157.71
1908.67
1385.7
1122.22
994.029
878.926
805.38
726.024
656.907
587.626
526.936
470.705
428.127
392.998
369.051
349.348
19750.9
11101.1
6483.45
4318.79
2986.53
1906.88
1466.6
1225.14
1105.32
1003.19
926.408
854.731
789.515
721.276
655.979
586.923
534.334
489.385
462.126
432.496
6829.18
8938.75
6052.69
3629.9
2800.81
1951.05
1612.62
1410.69
1224.23
1098.01
975.346
909.091
839.049
778.416
723.698
673.364
632.036
593.56
570.824
533.709
1775.59
3183.87
2963.94
2008.09
1634.41
1371.43
1168.9
974.894
798.963
645.915
535.857
461.115
406.061
346.784
294.335
248.652
222.261
199.622
190.705
171.648
4960.77
3169.29
1648.42
900.121
618.642
476.962
419.928
383.247
357.382
334.728
312.073
287.475
263.032
239.007
221.23
207.623
201.086
192.97
188.539
176.073
14175.1
6834.14
4286.77
2583.64
1783.03
1439.43
1389.65
1109.92
1210.28
1055.96
1108.2
1035.7
1065.89
1038.92
1060.16
1051.73
1060.46
1049.47
1038.74
1005.64
24767.6
10256.3
4884.11
3585.91
2471.5
1926.76
1803.2
1380.59
1385.02
1169.86
1178.69
1081.68
1091.1
1048.12
1053.5
1030.25
1025.27
998.402
982.075
940.826
31165
11070.9
5969.72
4066.44
3063.75
2176.29
2064.13
1509.47
1472.72
1199.89
1179.59
1057.82
1048.99
991.81
982.917
944.435
930.672
894.782
873.523
826.968
36170.8
12010.9
8708.09
4629.33
3478.44
2381.83
2317.02
1706.06
1621.08
1299.78
1235.33
1078.23
1046.47
970.092
950.948
901.484
882.325
838.029
808.536
748.662
33284.9
13838.9
10310.7
4876.24
3753.97
2526.9
2366.11
1729.54
1581.14
1266.72
1182.68
1038.89
993.35
923.699
896.324
847.454
822.867
772.752
734.625
667.583
32010.7
15749.8
12146.4
5506.19
4198.47
2646.68
2496.4
1772.8
1610.62
1258.68
1161.51
1005.31
960.859
893.284
870.395
824.988
796.49
734.523
684.59
605.073
45071.1
14860.1
8460.88
4619.15
3979.33
2902.15
2414
1836.26
1473.29
1194.19
1016.9
888.955
822.483
775.56
829.521
797.661
769.809
708.486
646.068
563.334
31349.7
10974.4
6592.43
4279.88
3112.16
2605.96
2456.99
1684.75
1381.9
1140.3
953.665
833.13
769.96
730.349
717.975
767.043
744.722
696.676
639.372
568.999
43147.1
20253.1
8450.65
4240.94
2932.18
2245.56
1950.73
1460.1
1222.33
1021.01
853.847
731.175
687.842
677.36
681.663
737.713
724.389
697.05
660.824
621.053
20478.8
10062.7
4977.03
3730.33
2502.02
2059.68
1738.98
1348.63
1116.22
910.49
741.873
623.251
615.608
659.03
665.869
692.072
689.004
688.804
687.841
682.487
17086.3
10064.9
5553.69
3968.83
3419.95
2656.33
2316.38
1523.57
1141.7
894.64
751.045
672.71
656.019
634.838
604.349
641.052
645.48
668.985
697.068
719.683
45832.5
12100.1
6941.66
4224.19
4232.83
3276.74
2473.54
1642.14
1199.5
909.207
786.502
686.867
632.418
583.543
621.375
615.023
623.966
650.022
683.517
717.837
25122.3
9057.3
7962.06
4815.23
4489.43
2914.82
2252.57
1619.15
1297.23
1024.28
898.727
772.562
711.053
649.579
617.002
600.544
600.838
608.322
630.028
667.894
14005.5
10150
9537.85
5642.97
4622.8
2793.56
2281.92
1610.43
1353.58
1054.55
932.839
796.121
727.236
658.417
618.477
586.828
574.461
569.4
572.699
591.728
52595.8
13932.3
8731.08
4875.31
3744.85
2206.26
1912.62
1442.82
1332.85
1062.21
980.425
832.31
772.47
687.5
646.789
598.782
576.556
555.546
547.335
550.757
53958.7
19021.4
9233.42
4916.19
3683.81
2162.88
1901.59
1480.18
1381.72
1157.38
1090.97
940.873
874.784
772.467
721.908
657.358
621.383
582.366
557.923
544.304
16549.2
13163.1
8267.86
4546.53
3787.23
2186.31
2045.94
1579.9
1531.98
1304.25
1251.65
1100.66
1048.16
931.217
872.512
790.475
745.259
694.785
663.307
637.699
25191.7
14760.3
8787.36
4221.46
3709.19
2310.41
2261.72
1837.76
1711.13
1401.89
1294.17
1131.15
1097.81
1023.79
989.778
925.624
884.593
826.577
778.849
726.203
7037.12
3685.5
2681.61
1983.58
1605.6
1294.79
1021.23
797.014
648.846
538.899
444.425
353.859
294.519
250.59
224.4
199.884
183.89
162.188
150.615
127.281
698.069
720.289
493.97
903.665
793.385
812.744
571.064
581.655
435.589
344.565
756.591
657.932
498.572
408.979
508.789
765.924
609.313
818.056
535.576
820.497
681.388
339.291
568.535
472.744
467.978
395.502
642.619
552.772
129.736
238.582
170.087
716.283
656.431
962.311
895.059
104.836
163.986
138.98
657.237
654.546
855.432
717.041
88.0866
131.657
108.925
649.709
568.833
669.572
546.087
81.2033
104.572
100.107
549.916
552.202
517.673
475.056
104.12
100.326
98.229
548.402
470.959
466.181
419.06
72.9642
93.07
86.5387
446.715
350.893
403.526
350.473
63.8195
78.3507
65.9499
327.566
299.351
327.663
290.961
60.4723
67.0692
59.09
294.579
287.176
283.837
257.766
173.792
230.352
112.881
1054.08
895.939
924.626
665.108
114.814
101.748
94.9016
829.363
631.244
602.89
509.735
101.223
95.3723
98.772
580.637
490.465
495.945
457.987
91.3539
96.252
83.6349
473.262
432.029
440.429
382.407
79.9188
80.5132
54.2424
417.059
372.148
354.09
262.751
81.9633
49.2435
54.9193
363.191
333.647
249.066
238.745
66.4697
59.2684
60.574
316.721
280.625
236.466
223.376
58.9316
59.3146
40.3707
271.533
245.167
217.106
202.294
102.453
216.932
147.924
760.342
660.615
920.095
853.977
113.202
139.942
126.452
636.802
582.714
830.131
763.345
99.2035
123.261
105.326
559.863
488.473
731.98
575.544
82.8149
95.4938
66.7306
459.457
393.656
515.131
371.313
65.3714
63.7746
64.4053
372.202
275.032
350.987
292.47
47.6764
60.7619
49.2578
249.871
224.958
273.815
239.273
54.9727
46.9742
44.458
221.88
214.873
232.473
221.986
37.2122
44.4618
36.3585
211.042
206.137
219.822
217.676
164.434
441.906
294.15
878.199
846.403
942.954
963.767
122.553
260.629
192.965
828.751
780.135
934.84
825.104
108.854
184.539
149.804
755.07
606.19
781.224
657.041
67.3896
137.869
88.1499
545.81
361.512
583.073
353.16
54.3509
73.3347
53.9419
329.957
277.334
308.696
255.444
50.1283
52.2487
51.752
265.585
241.013
248.654
233.631
47.4691
50.8582
48.3039
235.218
223.963
227.911
210.641
38.579
46.3963
35.8764
220.541
214.086
203.972
188.795
864.918
1196.29
1044.38
1595.29
1365.06
1625.24
1337.6
806.803
992.913
830.968
1303.2
1151.66
1257.64
1054.12
692.87
777.114
638.592
1103.98
973.352
993.856
844.383
652.302
606.69
552.046
945.809
825.983
807.175
716.133
527.902
537.482
475.871
777.522
643.655
685.467
594.555
400.802
457.346
394.146
608.39
510.778
567.818
488.304
342.457
371.789
329.918
487.276
439.938
465.571
409.907
316.875
319.248
278.981
427.393
400.999
392.22
341.752
1032.27
1095.38
788.743
1570.07
1282.09
1353.63
1059.9
739.813
721.552
608.588
1193.32
966.192
988.341
837.675
574.363
587.903
530.143
906.007
774.577
800.812
697.577
501.318
509.106
431.301
743.109
658.033
672.349
503.845
429.284
396.107
305.599
629.044
551.284
451.629
356.095
374.68
289.641
267.541
529.36
462.38
336.607
302.971
315.567
262.297
245.774
441.285
384.439
296.726
285.686
263.755
239.729
223.118
365.364
318.689
284.99
292.734
797.58
1204.72
1067.17
1351.05
1095.98
1701.26
1489.32
682.729
1031.51
920.4
1037.64
893.898
1411.75
1173.37
564.593
870.88
668.974
850.309
722.61
1083.05
815.374
449.821
598.178
441.416
691.282
524.859
738.914
578.49
312.209
413.543
338.176
469.902
354.909
538.912
443.781
255.702
318.069
280.762
333.017
297.476
422.007
378.462
241.099
273.265
260.389
293.841
298.401
368.75
348.651
231.53
257.345
244.507
302.288
310.571
342.953
321.516
1090.72
1383.3
1287.2
1776.15
1585.98
2009.77
1832.38
958.506
1240.05
1041.05
1504.66
1240.17
1700.81
1341.79
703.511
967.633
768.666
1140.35
841.357
1218.48
896.713
427.169
671.185
418.781
752.353
563.701
775.968
541.898
325.779
371.769
308.216
523.864
438.223
499.43
423.791
282.088
297.64
275.615
419.466
379.678
407.324
369.416
260.824
267.474
245.921
369.713
345.948
356.561
324.534
239.54
238.041
212.856
338.511
314.223
313.847
282.968
1477.21
1736.81
1396.51
2099.25
1663.92
1928.94
1493.11
1223.69
1310.13
1100.89
1560.88
1341.41
1396.57
1189.05
1029.11
1041.1
893.652
1277.49
1120.47
1134.42
996.879
857.369
855.261
754.296
1074.59
913.812
955.782
836.437
670.165
719.987
623.221
861.793
735.224
797.171
692.363
539.649
594.591
512.743
701.74
619.085
661.263
579.661
466.814
489.571
430.646
597.324
549.47
556.944
499.666
423.672
411.945
359.558
536.24
509.047
483.139
446.184
1331.8
1415.38
1123.49
1763
1417.01
1531.04
1248.37
1017.24
1051.2
893.712
1325.17
1120.8
1175.92
1012.14
826.055
853.577
740.802
1069.08
940.913
968.117
850.001
751.62
761.547
739.653
835.623
708.342
802.57
783.908
596.964
635.743
594.922
699.91
564.355
667.562
629.507
484.944
326.204
305.639
628.46
548.332
400.439
383.44
401.982
302.629
299.972
525.151
466.497
381.398
387.685
334.95
301.686
313.723
450.922
425.469
393.406
410.674
1161.68
1823.13
1558.73
1590.21
1278.78
1994.91
1607.7
940.951
1468.62
1201.02
1206.36
1033.66
1494.93
1198.18
759.949
1105.53
838.618
984.515
853.298
1107.64
879.18
727.698
674.782
744.13
759.716
698.243
634.632
773.923
515.493
398.447
543.389
365.174
497.915
323.629
560.993
302.751
450.838
405.691
392.906
387.854
531.304
484.323
318.696
395.382
373.203
390.462
408.384
473.597
449.753
332.229
366.723
340.45
414.173
421.316
442.218
412.187
1666.12
2186.17
1920.98
2134.65
1711.46
2387.08
1944.07
1267.24
1768.73
1367.41
1584.29
1247.26
1756.64
1328.6
858.823
1239.38
904.201
1144.45
884.384
1210.55
902.878
595.757
790.089
573.865
817.659
670.437
815.234
650.662
468.644
532.736
455.299
633.267
550.27
614.269
537.585
406.88
437.545
395.833
530.401
484.599
517.806
468.712
369.694
381.607
347.193
472.865
443.297
452.99
414.69
332.652
335.733
300.904
433.515
401.056
401.844
364.462
1690.49
1969.56
1507.29
2367.31
1756.34
2075.12
1563.86
1357.03
1409.55
1205.92
1635.62
1400.05
1463.4
1264.37
1132.46
1153.32
1018.27
1335.46
1161.26
1213.81
1070.07
924.113
976.378
854.442
1105.86
956.008
1022.63
893.864
753.833
815.14
711.17
914.656
815.216
856.072
760.423
644.99
680.496
602.408
788.503
731.951
734.149
680.413
580.016
581.201
530.149
717.748
685.925
668.959
643.802
539.116
515.961
482.155
675.385
651.299
635.837
614.958
1431.31
1556.67
1273.26
1884.02
1492.38
1643.91
1354.93
1142.96
1201.21
1038.38
1401.28
1215.13
1282.54
1118.33
966.928
994.253
873.329
1167.17
1029.56
1070.56
935.453
815.794
838.81
651.979
984.909
863.524
892.912
761.717
679.028
591.717
485.941
826.699
730.026
719.185
616.462
570.533
467.724
428.228
702.651
646.535
591.728
552.909
498.075
424.105
431.082
636.626
619.503
554.42
580.209
463.404
437.3
449.326
614.651
603.325
586.563
591.217
1298.74
2020.13
1591.4
1685.49
1366.37
2077.09
1559.65
1052.66
1475.82
1183.9
1290.86
1116.65
1440.48
1168.34
871.941
1098.56
886.776
1065.94
924.027
1095.5
914.231
633.389
832.163
700.104
880.069
748.038
865.56
749.718
480.524
663.38
577.911
707.516
612.32
719.305
647.897
433.597
557.07
511.945
588.729
558.011
630.541
604.092
448.784
502.123
480.774
561.103
589.251
602.354
595.721
457.394
473.554
440.974
594.221
592.416
589.994
560.7
1687.44
2410.47
1902
2245.95
1632.43
2507.01
1802.81
1225.07
1713.39
1299.32
1495.81
1188.67
1619.21
1255.02
888.404
1188.17
900.737
1107.6
911.391
1158.47
920.064
689.946
821.681
672.011
860.193
744.303
858.474
743.313
575.612
637.625
563.658
715.311
649.76
716.085
650.728
511.922
543.686
494.295
633.618
605.965
630.781
585.23
472.996
478.695
441.297
601.071
584.214
573.44
541.004
427.807
428.191
389.051
575.633
544.54
528.53
493.506
1810.02
2134.71
1621.41
2949.56
2266.59
2587.49
2157.93
1446
1519.57
1318.12
2118.08
1952.86
2057.42
1886.07
1199.2
1266.41
1110.39
1915.24
1698.21
1844.3
1633.17
992.448
1058.41
922.927
1618.25
1529.77
1568.39
1431.98
858.65
884.888
790.924
1518.48
1429.06
1401.07
1326.33
782.046
766.723
727.436
1409.79
1399.89
1326.02
1413.27
740.594
720.748
703.066
1409.57
1368.73
1423.52
1404.66
700.897
696.074
670.656
1365.5
1326
1399.04
1392.6
1551.91
1708.71
1417.03
2427.59
2106.44
2141.29
1971.01
1272.21
1343.78
1175.42
2016.5
1854.06
1903.96
1758.64
1070.61
1123.89
972.942
1798.36
1590.34
1687.92
1486.04
891.39
925.376
794.74
1527.53
1387.72
1423.54
1289.49
756.957
753.713
650.359
1353.44
1267.56
1248.75
1135.96
690.545
625.91
601.014
1264.07
1363.88
1129.35
1253.99
681.16
609.157
647.636
1406.33
1400.24
1339.27
1404.64
659.83
653.453
648.763
1395.72
1375.22
1402.73
1394.66
1425.03
2136.28
1595.01
2144.37
1966.55
2561.43
2079.68
1170.49
1474.25
1204.68
1897.75
1747.42
1960.58
1748.08
958.92
1132.67
947.689
1673.8
1467.36
1675.93
1463.84
780.579
896.869
779.757
1404.59
1273.87
1404.31
1297.59
646.005
750.053
680.393
1237.54
1136.1
1272.17
1213.87
605.07
664.67
651.959
1132.06
1261.29
1219.48
1345.35
654.767
656.032
655.576
1346.78
1411.07
1392.36
1392.74
648.595
650.056
615.494
1408.45
1386.25
1386.89
1369.21
1662.2
2600.96
1821.59
2838.49
2128.15
3089.76
2180.55
1219.85
1638.85
1286.18
1986.27
1744.52
2015.27
1778.16
946.627
1190.8
960.351
1684.75
1473.49
1698.14
1477.76
779.176
901.42
792.787
1416.97
1324.09
1440.78
1403.14
687.329
767.009
702.14
1302.89
1254.18
1403.33
1326.38
657.236
681.969
638.337
1261.15
1374.98
1323.26
1302.69
643.016
627.81
596.111
1385.15
1370
1313.31
1264.22
599.152
584.055
544.362
1364
1351.99
1269.66
1218.98
710.137
729.962
630.328
734.079
670.041
768.577
667.096
714.027
717.711
667.739
754.593
677.311
757.866
661.854
628.987
544.329
577.703
410.485
612.318
548.617
519.208
790.917
872.662
867.814
857.505
838.128
823.502
824.145
749.304
766.075
830.891
739.844
802.434
704.971
783.587
753.935
780.482
825.147
769.838
792.799
691.005
789.907
669.79
421.288
657.818
678.463
589.426
543.049
726.389
568.508
607.529
517.318
609.143
538.967
637.308
544.07
460.538
494.211
386.333
350.622
455.484
497.186
301.111
432.383
412.393
357.141
299.727
428.913
422.122
288.788
631.398
730.239
722.115
699.727
696.543
665.645
664.459
599.962
634.509
689.31
601.395
664.652
572.107
631.763
500.262
353.163
604.379
454.811
537.291
307.053
565.323
468.566
306.105
506.312
430.146
454.143
297.132
532.859
670.031
590.173
592.081
425.116
644.74
514.649
612.475
732.264
755.575
704.737
787.759
704.403
782.036
730.072
683.743
611.519
653.66
636.199
656.813
636.915
680.513
753.317
785.887
749.684
819.379
659.716
800.217
773.903
694.315
428.464
635.467
662.853
525.24
635.89
718.54
755.195
805.781
821.316
769.279
803.903
751.525
773.852
706.848
660.146
681.585
723.497
660.185
703.719
726.844
479.947
360.643
430.782
293.691
460.955
306.904
449.881
553.367
568.092
531.638
595.241
528.369
592.931
558.513
519.387
465.128
499.369
500.202
493.768
491.343
526.581
540.754
366.312
425.682
613.475
327.44
584.192
572.286
505.97
306.739
396.194
509.953
312.312
476.6
537.967
578.302
619.914
639.935
608.201
616.906
584.07
602.883
545.152
526.838
544.502
578.058
517.96
552.811
570.788
341.239
455.429
328.668
712.336
653.851
641.616
568.171
219.956
248.514
209.69
589.157
519.248
501.77
490.213
157.142
186.341
169.431
508.924
496.906
473.072
474.609
161.059
165.435
170.122
508.073
502.202
491.772
500.899
149.158
175.959
172.415
475.11
421.798
488.071
443.708
112.575
154.107
125.204
368.981
321.425
377.53
318.944
96.9067
107.918
103.233
290.525
277.023
282.784
271.984
81.8613
101.918
91.787
258.881
271.609
259.279
272.94
358.488
426.752
355.397
727.967
662.139
886.097
861.353
293.664
229.403
242.527
347.908
314.788
332.954
187.587
354.662
104.117
128.726
251.114
264.11
323.491
131.725
347.088
105.545
134.476
299.844
298.056
366.705
129.872
245.998
73.325
96.3941
238.869
239.112
252.051
91.5339
293.185
106.246
99.2136
305.939
317.543
279.565
107.248
258.736
92.6159
102.034
281.471
263.789
271.419
97.3072
175.42
62.5279
72.2825
181.54
174.026
187.022
66.4697
179.769
68.4501
68.1322
176.592
178.81
178.021
70.4246
97.7363
116.42
84.312
248.574
259.885
226.949
227.352
467.139
612.271
426.015
1148.42
1047.45
1116.13
964.181
445.714
227.16
286.385
467.163
466.777
457.332
215.187
328.958
143.408
119.169
448.231
415.78
359.203
107.281
264.665
103.954
94.1445
316.956
301.226
270.514
94.2703
238.027
97.0675
92.1711
272.855
265.387
248.573
87.6668
170.313
85.798
70.751
238.564
230.009
189.6
63.9001
179.069
80.3395
61.0621
210.06
211.218
166.063
66.8177
178.271
72.8275
74.7484
199.604
183.015
187.194
72.3064
157.345
67.5541
64.2939
169.07
168.067
159.751
64.0653
75.8372
86.1502
63.5241
193.413
201.797
177.246
188.791
250.344
312.197
289.794
743.313
734.193
698.484
791.168
329.612
109.458
142.391
285.877
312.163
278.336
124.931
380.99
111.768
130.585
326.529
331.424
382.689
131.269
311.451
104.905
118.976
309.535
296.663
336.597
110.273
222.1
87.2163
89.1841
256.365
240.05
245.004
81.3711
202.019
78.4919
73.4226
218.262
208.87
202.463
73.9459
130.224
48.5776
60.9718
129.85
120.227
149.907
52.5874
117.395
53.5272
45.7288
128.518
132.321
117.338
45.8853
111.95
52.6941
46.3005
130.921
125.521
114.769
45.1855
65.2485
79.5823
63.9997
181.391
193.01
183.585
191.134
366.238
461.787
462.644
726.608
751.711
752.418
762.136
370.253
227.136
286.927
366.784
361.066
375.717
247.225
306.763
133.588
157.184
325.172
320.718
315.676
140.552
318.396
118.424
122.282
326.951
326.536
315.682
120.623
256.873
91.8646
108.521
274.295
243.889
289.947
98.9369
139.541
55.6263
59.6288
158.874
153.765
151.754
53.0318
135.27
52.9327
49.2671
146.696
142.361
134.44
49.7305
130.56
48.4708
49.7273
129.73
127.975
131.594
49.469
122.902
46.8624
48.0286
122.409
121.68
124.398
47.3276
58.3085
67.5548
54.5259
169.611
172.471
151.121
143.571
486.641
688.027
522.303
912.59
897.189
939.07
921.808
318.683
445.423
355.889
841.736
718.25
811.286
672.465
220.301
294.48
216.759
631.064
573.965
547.627
460.592
127.403
166.102
127.741
443.476
307.273
344.106
272.361
85.7
107.096
86.6436
244.522
226.055
233.796
216.443
77.443
82.652