/*--------------------------------*- C++ -*----------------------------------*\
  =========                 |
  \\      /  F ield         | OpenFOAM: The Open Source CFD Toolbox
   \\    /   O peration     | Website:  https://openfoam.org
    \\  /    A nd           | Version:  10
     \\/     M anipulation  |
\*---------------------------------------------------------------------------*/
FoamFile
{
    format      ascii;
    class       volScalarField;
    location    "3.2";
    object      nut;
}
// * * * * * * * * * * * * * * * * * * * * * * * * * * * * * * * * * * * * * //

dimensions      [0 2 -1 0 0 0 0];

internalField   nonuniform List<scalar> 
12920
(
0.883468
4.34208
2.52703
5.19701
4.0867
4.15679
3.82777
3.36955
2.26104
2.26491
1.39245
1.31354
1.01965
0.92414
0.780857
0.705863
0.629635
0.580041
0.541912
0.504482
4.35912
8.59327
6.29518
7.34991
7.23365
7.08331
6.34816
5.06802
3.69996
3.26152
2.76777
2.8445
2.19921
2.21464
1.94644
1.91855
1.79903
1.77234
1.66612
1.60501
4.18474
6.74379
7.0976
7.28156
6.3185
5.8782
4.9945
4.26004
3.76527
3.45049
2.81551
2.84784
2.22599
2.23748
1.93055
1.84946
1.66969
1.58913
1.46268
1.48436
7.26018
7.3288
10.6602
8.11169
6.55319
5.41804
4.82882
4.49273
4.12167
3.81566
2.98404
2.91041
2.24574
2.23137
1.98933
1.96333
1.81194
1.74411
1.62021
1.60741
2.00393
14.4001
13.9233
12.8164
9.96347
8.15669
5.34848
5.1367
4.05209
3.95695
3.05883
3.05877
2.41582
2.33428
2.0542
2.02457
1.88107
1.82582
1.70902
1.69456
18.4597
16.303
13.98
11.1895
8.28778
6.81614
5.35703
4.62914
4.11594
3.85248
3.49875
3.33614
2.87169
2.67229
2.33581
2.21373
2.02178
1.9092
1.75201
1.68176
13.7293
15.101
13.8761
10.9171
7.96018
6.60424
5.45875
4.73592
3.78999
3.90399
3.2382
3.26028
2.77024
2.79731
2.35611
2.20831
1.96638
1.79255
1.62826
1.54827
1.87271
12.8433
11.8725
9.10079
6.95518
6.0943
1.87823
1.41741
0.978156
0.914897
0.971474
0.884886
0.776705
0.814787
2.71178
2.24144
1.85573
1.65447
1.52328
1.48773
4.02315
14.5002
12.9572
8.83371
6.32099
2.26199
0.656822
0.264358
0.214798
0.143359
0.20075
0.237739
0.195705
0.242428
0.837028
1.79239
1.52779
1.41516
1.3523
1.41203
9.53071
14.9084
13.2601
11.2259
8.07479
2.80121
0.615808
0.317292
0.253976
0.269236
0.223124
0.197741
0.215482
0.197709
0.565736
1.30335
1.1833
1.22689
1.2544
1.44005
9.35991
12.7081
10.5024
7.95742
5.83169
1.99914
0.614143
0.313696
0.237656
0.190162
0.165804
0.135462
0.142687
0.146368
0.42029
1.41419
1.32527
1.44411
1.48936
1.63037
8.50891
15.6869
9.98476
7.3931
4.88875
1.99042
0.420889
0.218361
0.187139
0.181801
0.13713
0.165585
0.161101
0.154939
0.542466
1.39882
1.37888
1.44541
1.51918
1.59462
8.27416
14.7831
11.2812
9.36806
5.08363
5.22683
1.48308
1.0851
0.809803
0.705599
0.530335
0.58961
0.546004
0.51744
1.519
1.2996
1.25386
1.2554
1.30794
1.4233
5.23369
13.9243
10.9823
10.0051
5.39484
6.13881
4.81841
4.1058
3.10395
2.5886
2.10333
1.95642
1.72281
1.58262
1.4038
1.28137
1.18465
1.14463
1.16154
1.19486
4.87139
7.49686
4.86638
5.1364
4.36369
5.78564
4.92131
4.70229
3.46328
2.79125
2.19754
2.08102
1.80821
1.65712
1.45925
1.30846
1.19899
1.13019
1.05791
1.02969
8.75688
11.1619
7.96059
8.61155
6.44715
6.95918
4.34363
4.43126
3.17565
3.28647
2.37226
2.36621
1.88437
1.69637
1.38736
1.25545
1.14226
1.0887
1.02397
0.965484
4.96484
11.3129
8.38736
9.98342
7.00649
5.99767
3.47316
3.68474
2.62542
2.89687
2.22876
2.18505
1.79871
1.58845
1.3077
1.16176
1.09961
1.08949
1.05123
1.02147
0.545643
10.3785
10.4179
10.9781
7.14592
5.84527
3.15947
3.34871
2.3272
2.44654
1.88367
1.82477
1.55786
1.44006
1.25446
1.12598
1.06476
1.06697
1.05169
1.04546
0.13616
9.04507
9.99818
9.12746
6.56385
5.82967
2.96164
2.91506
2.08192
2.19565
1.87011
1.85423
1.57897
1.41236
1.20413
1.06777
0.967182
0.924382
0.890295
0.929222
0.168751
1.24688
2.2268
4.87698
3.12435
2.79362
1.93104
1.75443
1.40251
1.22934
1.00251
0.858839
0.711469
0.630504
0.550056
0.489208
0.440641
0.405795
0.383971
0.357569
15.9808
15.4873
15.6124
19.6085
18.0847
15.3876
12.6806
10.4445
7.93273
8.82627
7.46311
8.16231
6.65517
6.53541
5.75588
5.49738
5.07937
4.77489
4.35596
3.95789
14.8068
34.6748
30.0746
28.5228
26.4044
18.7329
12.9954
10.4896
11.3172
13.828
14.3073
14.9999
15.1168
15.3759
15.4665
15.5883
15.7287
15.8196
15.8474
15.5965
28.205
37.6832
38.2533
27.7941
16.7987
15.8518
12.1296
14.8303
14.8539
15.0418
13.7413
14.1815
14.4204
14.9417
14.8244
14.6295
14.3517
13.9821
13.9183
14.0172
31.8303
37.6862
41.084
27.27
17.7898
19.8847
18.9026
20.0737
18.0537
17.3264
15.0488
14.5302
13.7239
14.0188
14.2103
14.2861
14.1332
13.8388
13.7482
13.4747
28.1426
57.3305
57.289
46.4072
30.7481
19.8169
17.157
19.3017
18.1577
18.7236
17.063
16.4972
15.0593
14.6177
14.2966
14.2213
14.1562
13.9539
13.9013
13.4432
43.2085
65.5514
61.1578
47.9881
30.5712
27.0962
21.4888
21.4166
18.8202
19.0431
18.2315
17.6045
16.3712
15.199
14.5861
14.3645
14.1113
13.6561
13.419
12.7697
29.0896
44.8194
56.8255
49.2919
31.1894
26.3508
19.8698
18.2809
17.1559
17.7143
17.1554
16.8795
16.1396
15.5087
14.8229
14.2492
13.8105
13.2731
12.9765
12.1637
34.1258
55.1883
53.4465
39.168
23.6747
20.2323
16.2329
14.0811
14.3549
15.1388
15.594
13.8059
13.4534
13.4895
14.8632
13.8541
13.3445
12.8653
12.59
11.9175
13.9002
41.8017
37.0693
29.9547
23.7061
18.152
12.6656
11.6973
12.5911
11.3103
13.0838
12.8136
11.731
12.782
13.0894
12.3026
12.0469
12.225
12.152
11.9316
4.09921
32.192
35.4961
41.0955
29.3312
21.8569
17.689
15.6464
13.9205
13.5517
12.3984
11.9454
11.5848
10.8109
9.26734
10.2558
10.5617
11.4929
12.2124
12.2332
34.8428
27.8561
35.9791
24.7517
17.7206
18.2076
15.6852
14.6041
12.742
11.8619
10.2837
8.21849
8.51104
8.31061
9.57833
10.5072
10.9313
11.4423
12.361
12.4645
34.2526
23.9866
19.8269
20.1305
18.5966
17.6963
15.2741
14.2457
13.8411
11.2321
9.70864
10.6018
10.5149
10.1375
10.3056
10.4151
10.7016
11.1241
12.0089
12.497
22.3425
49.3472
30.7475
26.04
22.7468
25.1763
20.2988
17.2916
14.5645
10.9632
9.88975
10.9273
10.9312
10.232
10.5053
10.0899
10.3697
10.7015
11.2825
12.2173
18.9678
42.5149
27.0671
27.7366
28.0463
31.0072
26.4653
19.7624
14.2681
12.3161
12.0424
12.4469
12.2732
11.8259
11.1434
10.5162
10.2052
10.2796
10.5951
11.0419
36.7487
36.4794
25.1633
22.0256
24.6125
29.7241
28.8516
25.0586
18.2299
14.4602
12.7176
13.4757
13.3299
12.604
11.8256
11.0349
10.5156
10.2276
10.0469
9.64414
11.3895
42.6262
40.1646
36.4544
31.6148
28.0026
22.4757
21.5512
18.4965
17.2395
15.7641
15.0243
13.7881
12.78
11.782
11.1332
10.603
10.3554
10.0842
9.49451
23.7113
37.2906
35.5539
39.3653
33.226
22.0031
16.8108
18.4215
18.759
17.7807
16.7243
15.7421
14.4902
13.2622
11.7202
10.8333
10.8116
10.8508
10.6971
10.1122
25.8703
32.839
38.983
36.6717
27.1042
20.1536
17.8914
19.4803
19.0032
18.3704
17.3299
16.5452
15.4637
14.4738
13.3055
12.2466
11.7908
11.7722
11.7457
11.2017
8.31713
43.6689
43.503
32.3161
22.5081
19.2106
17.5038
17.9904
17.7642
17.7991
17.1241
16.6656
15.505
14.4499
13.64
12.9353
12.3523
11.8924
11.8176
11.6849
3.251
26.1455
16.2464
19.6935
14.9032
15.2605
10.644
10.8269
8.77642
8.0701
6.50795
5.48411
4.51501
4.30084
4.2064
3.99538
3.62617
3.32295
3.12282
2.91021
12.3463
26.3203
26.0388
21.2027
18.2383
14.7059
12.438
11.0239
10.374
10.0301
9.76936
9.61536
9.24887
8.86791
7.52459
6.92987
6.17456
5.53016
4.96745
4.32168
17.9333
44.6545
40.7132
37.3583
29.0607
24.2742
19.2095
21.0081
22.4595
23.2869
22.8913
22.9365
22.7027
22.7318
22.7204
22.7542
22.8135
22.8024
22.7183
22.2131
17.7697
48.0067
50.9006
36.8054
28.8792
27.12
25.5902
27.4636
26.057
25.4721
24.3243
24.4086
24.1579
24.1541
23.8106
23.4871
23.0937
22.643
22.3846
21.9767
36.8181
55.3985
56.9166
41.1803
35.0266
34.7309
33.3796
31.3646
28.7328
26.9313
24.9364
24.3872
23.7352
23.7032
23.4091
23.0054
22.5046
21.8572
21.5061
20.7823
61.524
76.4951
74.7198
58.5288
38.6043
35.3072
32.4045
33.0049
30.4969
29.2092
26.9272
25.7582
24.4025
23.8164
23.2256
22.6699
22.1341
21.4004
20.9443
19.8753
56.4124
80.2982
78.6686
63.6545
44.8119
40.7047
35.7994
34.2534
31.4327
29.9434
28.0801
26.4925
24.9534
23.7671
22.9784
22.2232
21.5477
20.5686
19.9617
18.5799
41.1146
62.9221
76.3634
65.6546
45.4255
39.5498
33.6839
32.148
30.028
29.1415
27.0198
25.7265
24.1397
23.1768
22.2093
21.4479
20.7766
19.7855
19.105
17.4586
40.1437
74.5443
73.6599
55.1379
39.2134
36.4521
31.5571
28.8262
27.6247
26.8853
25.305
23.0286
21.8499
20.8027
19.6157
19.3591
19.2296
18.8409
18.3291
16.8267
66.9611
59.7187
59.5153
47.9151
40.4533
34.1316
28.8277
26.0566
23.8187
21.9153
22.4112
21.2335
19.8128
18.843
16.9433
15.8494
16.6275
17.3953
17.5662
16.8546
28.2091
53.938
53.2523
56.8981
42.6191
37.0248
31.7304
26.9725
23.8334
22.259
19.7499
18.4183
16.6938
13.9239
11.7847
13.6627
15.0415
16.5876
17.1435
17.3321
60.4882
55.6621
56.9203
41.597
35.3872
32.3761
29.3273
25.4583
22.6243
17.1898
6.65038
6.32885
8.45769
11.2279
13.9822
14.5446
15.2434
16.6815
17.5038
17.9353
23.8983
51.2012
45.0242
39.526
36.6846
33.0325
30.7813
27.4489
23.8595
19.5516
18.4357
17.9299
17.0577
16.0612
14.7397
14.3292
15.1264
16.3355
17.5619
18.4346
68.2908
61.6168
53.5443
45.1783
40.8746
39.6252
34.5854
28.8636
24.7877
20.5244
19.4002
18.726
17.546
16.152
15.2153
15.2802
15.6512
16.118
17.1431
18.2322
60.1113
55.6451
46.0803
48.0653
45.8597
44.3478
34.8508
29.1905
24.5684
22.8908
21.6393
20.7443
19.3439
18.1393
16.9576
16.1802
15.8492
15.8754
16.1138
16.863
61.0416
53.9148
41.2147
42.2398
44.5218
45.7607
38.0984
33.3195
26.7545
23.984
22.4173
21.6983
20.2581
18.876
17.606
16.5231
15.7932
15.3559
15.1092
14.986
20.0729
59.5735
52.2657
52.5317
46.6564
41.1388
34.5436
31.6058
28.082
26.1341
24.1276
22.3856
20.5627
19.1986
17.8788
16.8397
15.9518
15.2921
14.7704
14.1954
11.4425
54.7106
52.2027
54.3843
43.3036
35.8928
31.4278
30.5601
28.6139
26.7505
25.0087
23.2386
21.4179
19.9449
18.5086
17.4688
16.7362
15.9381
15.3687
14.4487
47.7041
52.6276
53.4527
50.5774
38.2121
34.1152
31.2847
29.5328
27.6443
26.4049
25.0162
23.8274
22.3804
21.1715
19.973
18.8932
18.0499
17.2097
16.6802
15.6696
13.4326
43.0196
51.8574
45.7133
38.3802
32.7212
28.755
26.8801
24.6603
23.6017
22.0499
21.3527
20.1744
19.3738
18.8103
18.2989
17.8061
17.064
16.6631
15.795
6.76787
24.6933
31.8818
23.9656
21.0988
19.3105
14.6377
13.6949
10.5647
9.38241
7.61792
6.73996
5.94276
5.74194
5.39262
5.03737
4.5483
4.18752
3.95936
3.69888
6.35344
34.326
26.6414
16.8531
16.4348
11.4452
11.9046
11.0568
10.6652
10.3361
10.0821
9.82622
8.42568
7.25074
6.19632
5.40346
4.83875
4.31805
4.067
3.74276
19.4103
50.9778
46.3378
36.9717
30.6706
27.6976
27.1192
26.7859
26.597
25.6632
24.8631
24.4353
24.014
23.811
23.7556
23.7927
23.7755
23.7118
23.5511
22.9971
29.2105
63.1338
56.2407
45.289
40.7379
37.2384
35.8662
33.6273
31.4267
29.7119
28.4021
27.7077
26.9617
26.47
26.0137
25.5854
25.1779
24.6676
24.2763
23.5429
43.4398
69.2897
66.1441
52.3347
48.5917
43.4338
41.2222
36.7169
33.8732
31.2184
29.3482
28.2785
27.2798
26.574
25.8322
25.0538
24.3881
23.5842
23.0712
22.1136
89.2799
79.7662
81.1979
64.7682
50.8708
47.0435
43.1052
40.0179
36.243
33.4356
30.8067
29.0332
27.5798
26.5071
25.5717
24.5658
23.7384
22.7048
22.0141
20.664
27.3734
90.7572
89.8577
70.9363
55.4819
49.6942
44.7893
41.0917
37.171
34.0505
31.2663
29.1298
27.3647
26.0273
24.9527
23.813
22.881
21.6288
20.7553
19.0246
37.5423
77.1974
86.3869
76.4487
56.1839
49.6834
43.9589
40.6728
36.299
33.456
29.91
27.8924
25.7262
24.5515
23.5758
22.7769
22.019
20.723
19.7
17.6016
74.9121
85.2394
84.1485
65.3568
52.6665
49.1886
43.7388
38.8608
34.9968
31.5831
28.1834
25.1002
22.9905
21.3006
19.1927
20.0483
20.331
19.9006
18.9216
16.7643
50.0738
74.4176
75.1849
59.2823
51.3785
45.977
41.0137
35.6407
31.1051
28.0489
25.5974
22.5741
19.9923
17.9692
15.9707
16.4944
17.978
18.9195
18.6111
16.9367
59.0813
70.4189
70.9256
65.1383
50.9257
44.8198
40.0483
33.0789
28.5004
25.7791
22.4504
19.489
16.1287
13.5078
12.8346
14.9499
16.8013
18.2122
18.6656
17.9162
63.8654
70.2909
66.0764
51.5417
45.0095
40.3086
36.85
31.1274
27.1373
24.0883
10.4065
9.7239
11.4193
12.9176
13.6244
14.6206
16.3566
18.0154
18.7888
19.1301
36.169
66.3301
52.1229
51.8828
48.013
43.1877
40.4864
33.9577
28.3402
23.6347
20.9307
18.7314
16.744
15.2334
13.2814
14.1773
15.8286
17.5498
18.7641
19.6483
49.0741
65.0317
68.0055
58.0196
52.3945
48.7472
42.9225
35.9156
30.2499
25.0079
22.0848
19.389
17.4321
15.7282
15.0027
15.8622
16.3948
17.1552
18.2099
19.2691
24.2926
53.379
64.237
62.8935
55.7431
49.985
41.146
35.728
30.5994
27.6743
24.6909
22.6307
20.4976
18.9806
17.7003
16.9772
16.6374
16.5977
16.8799
17.7574
27.5344
66.058
61.7929
60.7264
56.9008
52.1508
42.4925
37.0529
31.6185
28.2594
25.6211
23.4405
21.3566
19.6366
18.1658
17.0128
16.1779
15.7198
15.5785
15.6028
61.3117
73.5097
65.6991
64.941
56.1261
47.0943
39.5166
35.2668
31.7095
28.6667
26.0552
23.7375
21.7743
20.1653
18.618
17.2799
16.2057
15.3857
14.8327
14.509
54.0399
70.2063
65.3907
63.7489
52.5343
44.0253
37.624
34.1569
31.2001
28.7875
26.7498
24.6771
22.9122
21.3535
19.8445
18.3801
17.0855
15.9485
15.2069
14.3833
69.2301
67.1484
64.3708
58.9721
49.4999
41.4637
35.4929
31.7766
29.1652
27.4429
26.0203
24.7631
23.6079
22.4397
21.2574
19.8612
18.5673
17.3465
16.5793
15.611
11.3747
50.4797
54.5732
51.0263
45.2154
37.11
31.4256
28.3404
25.3707
23.6972
22.0942
21.5237
21.0172
19.5992
19.2081
18.8085
18.2606
17.2623
16.6141
15.5588
7.39974
30.2365
30.4781
25.2277
22.6384
20.7369
16.2648
14.4234
10.8849
9.12011
7.35456
6.34832
5.63359
5.13094
4.81032
4.57495
4.24458
3.89866
3.63705
3.19492
11.376
23.2793
15.6867
6.22941
11.2597
5.07356
11.4829
10.971
8.59316
10.2556
5.6654
5.90931
4.0833
3.91118
3.26703
3.1895
3.02625
3.04143
2.91354
2.94534
50.025
31.7583
45.6471
16.9401
29.1771
12.5637
26.5179
18.6503
23.6245
23.4618
21.8516
21.7758
21.0113
21.0549
20.7928
20.8441
20.678
20.5385
20.2315
19.72
71.7375
39.045
56.1898
17.6168
42.6223
15.0395
35.5272
24.2406
29.2728
28.1329
25.7942
25.2886
24.1091
23.8522
23.2379
22.9809
22.4995
22.029
21.5453
20.8708
56.8441
42.6378
67.149
22.3114
49.9164
20.9109
40.0499
25.6797
31.9152
30.2038
27.1255
26.0985
24.5569
23.8633
22.9733
22.2993
21.638
20.9124
20.3277
19.4913
94.3085
74.7669
83.0245
32.1335
56.9459
23.0455
44.257
37.8884
34.4656
31.4257
28.0948
26.2789
24.6466
23.573
22.5893
21.6577
20.8798
19.9385
19.1481
17.9892
59.9648
62.4998
90.6487
36.5672
57.4175
29.1068
45.6906
36.6984
36.1111
32.4114
28.7176
26.4786
24.5815
23.2319
22.1463
20.9774
20.0635
18.8491
17.8207
16.3637
72.5391
86.2184
94.9211
61.1231
59.3485
36.4059
33.6911
41.5588
32.9721
31.4177
27.2658
25.0158
23.1126
21.9847
21.1112
20.1781
19.2687
17.8582
16.5777
14.8438
99.2098
76.9122
88.3854
32.7216
57.6026
50.0898
47.7621
41.4939
34.31
29.6717
24.8492
22.0217
19.9556
18.8377
18.2514
18.6859
18.2845
17.1477
15.7226
14.0578
66.2461
58.5538
59.0361
31.2873
45.1725
50.1466
46.4134
36.274
29.8959
25.1362
21.2448
18.3538
16.632
15.6174
15.0253
16.6795
17.195
16.7621
15.6339
14.4166
91.4681
81.3085
76.0543
43.9717
51.4235
45.4809
40.6428
30.8988
25.671
21.7807
18.3265
15.3228
13.7684
13.3722
13.6526
15.7198
16.6154
16.8144
16.3302
15.8751
54.8008
45.2795
67.3705
26.0134
46.9094
40.2641
36.5914
28.3863
23.5829
20.0585
15.894
13.0526
12.2202
12.975
13.404
15.1518
16.2752
16.965
17.2552
17.5026
45.5335
45.3598
47.558
33.6632
37.1798
46.165
41.3083
30.9928
24.2146
19.3615
16.2654
14.3205
13.5614
13.0137
12.5354
14.7527
15.9451
16.8486
17.6093
18.2285
74.1971
67.4501
50.7848
61.0519
38.234
38.4546
44.0852
35.5459
27.5834
21.8902
18.5118
16.1835
14.683
13.6065
14.62
15.4965
15.94
16.5525
17.3098
17.9413
54.5078
62.1111
45.3486
68.5761
36.6354
48.5819
41.7533
35.1006
29.4901
25.7169
22.0067
19.7039
17.912
16.7033
15.9594
15.7087
15.6593
15.7718
16.1932
16.7846
34.9313
74.0477
68.2932
70.1264
45.0251
49.6256
34.3344
34.952
29.7796
26.0452
22.6658
20.2228
18.3986
17.0126
16.0085
15.3409
14.9731
14.8416
14.8973
15.1317
100.338
78.3268
64.7682
68.5241
46.0389
45.2592
34.9541
33.6326
29.3518
26.1384
23.0403
20.7268
18.8905
17.3757
16.2407
15.2842
14.6685
14.2311
14.0321
14.0176
101.847
80.0254
68.7348
66.4492
46.4988
43.2099
29.3493
31.9501
27.8899
26.4868
24.0316
21.9985
20.1604
18.4564
17.1687
15.9401
15.0637
14.3494
13.8581
13.5928
30.2723
73.4821
59.5901
58.5172
44.4828
40.0058
27.1542
30.2532
25.1248
26.0485
24.1397
22.7018
21.3547
19.7895
18.5524
17.2678
16.318
15.49
14.9006
14.4879
59.9614
61.7257
57.6487
51.3407
36.9961
34.1974
21.1712
22.3502
17.3139
17.7235
15.6714
16.8807
16.8509
18.3062
17.5874
16.6598
15.8439
14.9682
14.2126
13.5526
11.7717
21.3929
12.732
19.1361
8.98226
8.0638
5.13504
4.28554
3.37754
3.10489
2.65223
2.4188
2.1374
2.06395
1.91605
1.79448
1.63034
1.43579
1.29427
1.12029
20.3633
21.5905
8.2848
25.6323
23.1055
22.12
7.64031
18.6316
7.37744
6.5608
22.2959
20.2925
6.65217
6.50675
7.50482
19.4751
18.4596
16.4316
5.96807
23.3831
21.5719
5.99307
18.3062
17.6016
5.27022
5.66045
20.9826
19.3406
0.285799
0.73006
0.366905
7.41777
7.54338
12.0912
12.7635
0.207351
0.337307
0.266973
8.15091
9.45025
12.6257
11.5816
0.15478
0.256737
0.239731
9.5672
8.88974
11.2373
10.2795
0.151977
0.239278
0.224765
8.67547
9.92555
10.1215
9.98821
0.225363
0.22027
0.216512
10.4652
10.3709
9.96293
9.54979
0.193011
0.210546
0.220828
10.1512
8.98145
9.55836
9.41969
0.212329
0.209504
0.202042
8.85819
9.8147
9.04214
9.18733
0.2141
0.212216
0.17993
10.0554
10.7418
9.32826
9.2511
0.349012
0.653542
0.328487
12.6415
12.6151
10.7353
10.7275
0.254707
0.300711
0.249766
12.2231
11.0583
10.6579
10.3788
0.270433
0.244463
0.236236
10.9123
10.9099
10.3275
10.3978
0.238929
0.223406
0.180587
10.8009
10.0702
10.1194
8.81749
0.196247
0.173705
0.132457
9.76125
9.22094
8.14223
6.30496
0.2159
0.126509
0.153633
9.34764
9.51165
6.3682
7.32446
0.194745
0.16555
0.163662
9.1685
8.76174
7.39752
7.04781
0.177178
0.158215
0.102049
8.74369
8.6414
6.85946
6.73258
0.333331
0.489511
0.247961
11.0268
11.3237
11.1998
10.9299
0.255771
0.2282
0.199407
11.355
10.3717
11.0431
11.0188
0.204281
0.195996
0.183403
9.97588
9.60133
10.8284
9.48166
0.167381
0.173995
0.136612
9.33968
8.6035
8.77197
7.41147
0.15319
0.138272
0.169709
8.32735
6.59576
7.69907
8.06393
0.134405
0.169434
0.148659
6.30485
6.88468
7.92465
7.75076
0.149955
0.142402
0.133606
7.00165
6.88287
7.67135
7.46702
0.0971138
0.132241
0.107314
6.75037
6.88584
7.40802
7.85287
0.245108
0.574725
0.40805
9.59526
10.0203
8.96567
9.916
0.1869
0.350321
0.280627
10.219
10.5877
10.1124
9.86523
0.186097
0.262452
0.247871
10.6247
9.65411
9.85976
9.30605
0.142557
0.231898
0.194681
8.91136
7.08092
8.59751
6.18102
0.158157
0.167101
0.174165
7.22516
8.05081
6.13617
7.03654
0.164564
0.164693
0.191894
8.13611
8.15168
7.43072
7.87203
0.155931
0.173105
0.183924
8.06858
7.87458
7.8934
7.67836
0.128851
0.161151
0.128988
7.79326
8.03372
7.54031
7.44585
11.1783
17.1474
16.4621
24.4044
22.8551
28.0838
25.8949
12.5786
16.1495
14.6331
22.7989
21.8467
25.0526
22.404
11.4987
14.1322
12.8411
21.2852
19.5708
21.5818
19.8163
12.6356
12.6465
12.5476
19.437
20.3967
19.5923
19.3372
13.0199
12.5218
12.2083
20.4597
20.0122
19.1859
18.7144
11.8047
12.2814
12.0455
19.6652
18.6908
18.5999
17.6986
12.609
11.7117
11.6871
18.5069
18.2764
17.2766
16.0208
12.864
11.6825
10.7267
18.0845
17.493
15.4779
13.54
16.2266
15.0088
14.1142
28.5138
25.4689
25.4833
23.3852
14.1562
13.9284
13.3899
24.5169
22.2391
22.8646
21.5003
13.698
13.2906
13.1472
21.7098
20.6454
21.1994
20.1985
12.7417
12.8102
10.9679
20.3892
18.9405
19.7441
11.9495
11.8309
10.1005
8.31742
18.3843
17.4986
10.6868
8.75228
11.9287
8.32256
8.82506
17.3884
16.5572
8.64769
8.80783
10.9904
8.80905
8.39769
16.078
14.3947
8.90321
9.29391
9.89881
8.22097
7.89872
13.7268
12.0436
9.4993
10.7856
14.7704
16.3214
14.9176
26.2128
23.7936
27.4759
25.2948
13.2068
14.8744
14.2702
23.0948
20.9672
24.6246
22.2928
12.168
13.8695
11.977
20.4367
19.0723
21.3788
18.3919
10.7239
11.098
9.83776
18.8862
12.0958
17.4993
16.5799
8.45761
10.1145
10.3685
10.8811
8.75141
16.5776
16.2236
8.48099
10.2706
10.162
8.61813
8.78415
16.0651
15.6483
8.38279
10.0824
9.835
9.01177
10.2383
15.4845
15.0341
8.22484
9.74955
9.61982
10.7551
12.0071
14.8731
14.4907
14.1936
16.2673
15.3411
27.094
25.3603
27.7198
26.7628
14.0268
15.1597
13.8177
24.7253
22.5943
25.3705
22.6735
12.2101
13.5554
12.2235
21.7739
18.6337
21.9104
19.0321
9.48659
11.2183
8.77469
17.5829
16.5283
17.8127
16.2142
10.5279
8.83124
9.82598
16.6268
16.6751
16.3139
16.6695
10.6073
10.1858
10.5573
16.5879
16.1895
16.6759
16.3619
10.2572
10.5048
10.1679
15.9913
15.3975
16.1147
15.3597
9.81209
9.96745
9.25339
15.1708
14.5405
15.0173
14.129
26.3514
31.6974
28.4882
35.5976
35.0115
39.202
34.309
24.524
27.4979
24.5798
33.9537
30.9239
32.8683
29.2384
22.0428
23.7047
21.9028
29.9432
27.7875
28.2655
26.2093
22.5298
21.6603
21.1928
27.3813
26.2392
25.76
24.3092
21.6493
20.928
20.1846
25.625
23.6655
23.7309
21.9837
20.0973
19.949
18.7232
23.01
21.1776
21.3439
19.0837
19.1428
18.1999
16.5091
20.5982
19.0406
18.2922
15.9905
18.0775
15.8517
13.8297
18.5921
17.6724
15.3359
13.8787
28.02
28.6542
26.0102
38.4153
33.5938
35.3255
31.539
24.4503
25.362
23.7277
32.2015
28.8595
30.4817
27.8821
22.5375
23.3387
22.0058
28.0052
26.0795
27.1855
25.2356
22.1424
21.8729
22.3119
23.8338
21.2076
23.2799
23.6367
15.5572
19.2674
16.4857
20.8227
15.7053
20.2607
16.2933
17.2696
6.65523
7.86327
19.6994
17.4963
7.1398
9.18631
14.6604
8.20847
9.20828
16.664
14.2978
9.63637
10.8126
12.2493
9.6028
11.3497
13.687
12.782
11.2662
12.6765
26.2703
30.8235
28.0209
35.5545
31.5126
37.9068
33.7125
23.1941
27.1751
24.417
30.3899
27.5528
32.3913
28.6269
20.9569
23.3967
20.2978
26.7787
24.7575
27.3957
24.1694
18.4179
13.2783
19.9331
19.0633
18.373
2.97754
21.65
12.9159
6.20843
14.6171
2.10843
13.7904
2.03248
13.7719
7.89351
17.3645
16.753
6.66034
9.52064
18.8921
17.6114
10.5165
16.5506
16.0086
10.2521
12.1706
17.2198
16.2594
12.7223
15.8197
15.2409
12.7143
13.5945
15.9769
14.9576
28.2633
30.7331
29.6619
38.6026
34.4002
33.5557
35.9142
24.8324
28.2167
25.2013
33.0679
29.2393
34.2129
30.4774
20.5228
24.3089
21.0957
27.9431
24.3317
29.221
25.2976
18.48
19.9506
18.4663
23.4159
21.6213
24.198
22.1788
18.1048
18.4264
18.2829
21.1303
19.6855
21.6005
20.0024
17.3079
18.139
17.5476
19.2434
17.8941
19.48
18.1906
16.324
17.2286
16.3421
17.4727
16.3434
17.7288
16.4912
15.2462
15.9653
14.9353
15.9913
14.8202
16.0721
14.8749
36.9168
41.1018
35.4528
46.6925
39.1775
43.5729
35.7367
32.2048
33.8477
29.9657
37.3195
32.8528
33.7275
29.2704
28.6294
28.9478
26.6811
31.3812
27.69
28.0972
25.0902
26.3448
26.1198
24.3412
26.6773
23.8077
24.1903
21.5827
23.2801
23.6698
21.6127
22.789
20.1748
20.7284
18.2861
20.6134
20.8695
18.4014
19.4959
17.9198
17.5142
15.6271
18.3929
17.5728
15.4188
17.4233
16.3877
15.1868
14.2882
17.1825
14.8695
13.778
16.1239
15.6677
14.0884
13.6753
34.6171
36.69
32.4417
41.7118
34.5012
37.8413
31.8258
29.4346
31.2331
28.2635
32.6128
28.3403
30.2589
26.4541
26.3359
27.4532
25.3257
27.216
24.4073
25.4552
22.8865
23.2916
24.2774
12.482
23.5457
20.9269
21.9684
17.7273
20.2058
11.0849
9.70638
20.0532
17.5676
16.5095
14.0811
17.0132
9.93818
10.6023
16.7587
14.7085
13.5295
12.2658
13.9887
10.7838
11.4881
14.2703
13.5369
12.1428
12.529
12.8916
11.8154
12.82
13.4131
13.2796
12.6847
13.0124
32.3683
39.575
34.6625
37.7013
31.6665
41.0449
33.953
28.0001
33.1772
29.0766
30.1251
26.2845
32.033
27.1328
24.9573
27.777
24.4398
25.2574
22.6111
25.6792
22.1665
11.6573
23.6196
21.5547
21.7134
17.57
21.2333
18.7746
9.33796
20.8779
19.0684
16.3864
14.0972
18.0397
16.1601
11.02
18.5659
17.0543
13.5881
12.5404
15.612
14.3039
12.5674
16.5971
15.5613
12.4551
12.9026
14.0907
13.6883
13.5086
15.2722
14.3482
13.0272
13.1609
13.5414
12.913
35.4743
37.2271
37.2399
42.5066
34.9648
40.204
37.793
29.7208
35.5418
31.4203
32.9214
27.6798
35.635
30.4805
24.5775
29.9664
25.7329
26.1121
22.1492
28.4692
23.5814
21.5378
24.5603
22.2534
21.1301
18.5769
22.2207
19.4883
19.2391
21.5002
19.5372
17.8558
16.043
18.6267
16.6675
17.1915
18.9569
17.5503
15.5307
14.397
16.1325
14.9535
15.5793
17.0695
15.7924
14.1731
13.5902
14.561
13.6474
14.1615
15.3725
14.3055
13.3822
12.6731
13.3307
12.6311
38.296
42.9712
34.1112
18.7178
9.94562
15.2672
14.1981
31.5101
32.0953
27.739
13.8832
12.6854
14.1275
15.6699
26.2041
26.5811
23.4302
18.6537
11.6812
16.223
14.9181
22.2435
22.4565
19.7546
18.3441
14.6416
15.0419
14.1291
18.9549
18.9272
16.7227
16.6364
14.5831
13.6183
12.7381
17.069
16.1078
14.8508
15.4087
14.9127
12.7553
13.988
15.8508
14.5875
14.0449
14.677
14.5268
14.1171
14.069
15.2686
13.9059
13.5838
14.327
14.0699
14.0214
13.7546
32.7635
36.7839
30.0563
15.8238
14.6484
11.6961
14.6491
26.7832
28.5159
24.8225
14.4596
15.9736
14.6482
15.3287
22.6859
23.7835
21.1622
15.7335
14.5471
14.5248
13.3149
19.1645
20.3275
17.0317
14.4548
13.104
13.1953
11.0185
16.0184
15.9935
13.6393
12.5901
11.6314
10.5226
9.47283
13.9808
13.0253
11.9823
11.6363
13.118
9.50129
11.3632
13.4433
12.0018
12.6256
13.7217
13.8982
12.5161
13.6752
13.271
12.7699
12.9895
13.8775
13.6237
13.7188
13.5782
29.9085
40.0188
32.0925
12.8593
14.7241
14.3807
16.1292
24.6596
30.1349
25.2834
14.7542
15.3924
15.7908
16.3307
20.8866
23.8918
20.3622
14.576
13.3223
16.0992
14.7136
16.8876
19.4251
17.0212
12.9968
10.8842
13.8698
11.9944
13.6467
16.3415
14.6572
10.4057
9.39511
11.6071
10.9196
12.153
14.2064
13.5081
9.45253
11.3929
11.0326
12.8429
12.8648
13.459
13.3081
12.5599
13.7217
13.5199
13.7049
13.0655
13.1971
12.6665
13.7509
13.5393
13.6587
13.3159
33.1028
44.0149
36.4588
17.3773
16.9324
16.5324
19.3528
25.711
34.0924
28.4617
16.1766
16.3845
13.5799
19.5648
20.3793
26.4734
21.8921
17.0761
15.5439
14.5231
17.7072
16.9187
20.6383
18.1707
14.5355
12.7596
14.5844
15.3406
14.709
17.3735
15.7277
12.3936
11.7926
15.0372
14.2573
13.6711
15.2464
14.2565
11.8975
13.4966
14.0898
13.5576
13.1842
13.9075
13.1701
13.6489
13.6047
13.4894
13.1425
12.4306
12.8914
12.3478
13.5355
13.1734
13.0867
12.6127
19.3484
21.0942
17.5617
21.5075
19.3387
22.3562
17.3352
15.5626
21.8448
14.1249
16.5998
18.9134
22.7292
4.08159
9.11505
11.4626
10.105
2.21188
14.0548
7.47362
2.50678
23.0724
24.9803
24.9757
25.266
24.3321
24.6462
23.9852
20.1895
22.4522
24.0352
19.7201
23.3648
18.1424
21.7292
16.0846
20.6214
24.4893
15.8058
23.56
4.09669
20.942
9.65146
2.23105
12.377
9.95132
8.03414
2.55409
15.1589
15.0274
18.8968
15.0324
19.43
15.1985
19.7883
15.033
6.71213
10.3134
6.66282
2.04487
9.60112
6.92546
1.91494
6.6261
9.23724
6.34189
3.54934
9.15344
7.68409
2.70557
16.2869
21.6968
21.5775
18.5187
21.0536
17.0663
17.6374
15.6619
19.9955
20.91
16.5168
20.4782
15.558
16.9188
7.29337
2.04247
11.235
6.13272
7.51882
1.92372
10.6021
7.13561
3.48565
10.3697
6.04559
8.13052
2.69464
10.1519
16.1967
9.04615
15.5668
2.27267
16.7866
2.55231
14.8005
20.6053
19.5174
18.9274
21.217
18.9602
21.3002
20.6666
19.848
17.9467
18.6145
19.9914
18.4237
19.1397
20.2889
19.4145
18.1179
12.7023
23.7077
3.20118
22.9581
21.4427
16.6721
2.28829
7.54563
16.7
2.58414
15.0645
18.6247
21.8931
22.5643
23.5103
22.7357
22.687
21.9802
22.7057
20.9457
21.0479
20.6559
22.1544
20.0469
21.5029
21.6664
12.3802
5.56069
12.4381
2.72617
13.0269
2.09057
11.7445
17.8607
17.4785
18.1063
19.669
17.0045
18.4808
19.3143
17.2975
16.1018
17.8562
18.5915
16.5325
16.7756
18.9437
13.0198
2.11792
4.96105
15.3796
2.04924
13.9031
14.3944
12.5306
2.86099
4.77456
13.175
2.22472
11.9373
13.6438
18.5003
20.5724
19.7554
20.3942
19.2327
20.0885
18.955
17.8667
19.1822
17.6936
19.8447
17.2951
19.6197
18.2674
1.65048
1.92036
1.43896
6.46813
6.58736
5.59989
5.39427
1.14271
1.10532
0.912639
6.58958
6.45865
5.25909
5.76832
0.743843
0.74235
0.670625
7.14704
7.64663
6.10742
6.60438
0.866171
0.692262
0.741191
8.40554
9.08123
7.16493
8.03088
0.802619
0.792833
0.833344
9.15165
8.65607
8.55784
8.29646
0.731769
0.859437
0.75616
7.8591
7.4592
7.36646
6.84756
0.693715
0.703649
0.733764
7.38646
7.85955
6.81441
7.35976
0.644829
0.798346
0.696948
7.62205
9.74164
7.36548
9.83791
1.73281
2.3202
2.11475
7.50186
6.5666
9.21236
9.39923
1.93367
0.546848
0.66399
2.09438
1.95234
2.06736
0.426259
3.47338
0.217003
0.277637
2.12302
2.48444
2.98705
0.276837
3.5645
0.188568
0.241389
3.11395
3.13685
3.72417
0.226762
3.02495
0.129513
0.170413
2.86888
3.11822
2.89621
0.165091
3.99551
0.2112
0.194795
4.38911
4.55201
3.82354
0.213939
3.42358
0.214946
0.224926
3.93585
3.69676
3.57354
0.223075
2.6951
0.183742
0.196212
2.75657
2.86066
2.68357
0.195681
3.45022
0.234362
0.234731
3.41286
3.52116
3.36272
0.246765
0.633531
0.730558
0.495602
8.12246
10.2465
7.24022
8.83768
1.9918
2.76693
1.89739
9.74012
10.8338
9.49359
9.73006
3.15929
0.469064
0.687013
2.77511
3.30811
2.70219
0.48581
3.82275
0.288306
0.27961
4.41638
4.38337
3.69303
0.264655
3.93828
0.260513
0.254841
4.07439
4.0959
3.90188
0.257711
3.65965
0.262938
0.254835
4.02671
3.93839
3.83184
0.241237
2.54063
0.212847
0.18852
3.52084
3.41676
2.80795
0.168979
3.08411
0.203259
0.161741
3.28338
3.41086
2.72756
0.177264
3.125
0.202262
0.204386
3.33739
3.07599
3.29722
0.199238
2.96066
0.203417
0.180425
3.12288
3.18835
2.90486
0.179007
0.4168
0.450936
0.32563
6.08759
7.51635
5.42134
6.69685
1.77729
1.97913
1.35235
8.30532
9.31056
8.42699
9.70956
3.16121
0.450523
0.559804
2.32579
3.10904
2.27317
0.365878
4.31098
0.292896
0.288425
4.13134
4.20804
4.27959
0.2673
3.67304
0.222254
0.219476
3.87704
3.76428
3.91739
0.202549
3.1438
0.175605
0.170075
3.58875
3.46942
3.29598
0.157192
3.10905
0.165265
0.148263
3.31702
3.13496
3.10274
0.15388
2.08856
0.127886
0.150928
1.91146
1.88553
2.31406
0.138367
2.25623
0.150458
0.130729
2.46654
2.56678
2.2228
0.131478
2.10056
0.139436
0.125335
2.48787
2.38457
2.15433
0.121398
0.359921
0.471894
0.391951
5.33712
6.23631
5.63461
6.79368
1.18529
1.84251
1.24524
7.04351
7.55431
6.75825
6.76017
2.39694
0.341196
0.454764
2.3151
2.45281
2.30183
0.358877
2.55541
0.200613
0.228866
2.8149
2.96566
2.50025
0.205335
3.1864
0.187172
0.184506
3.47022
3.54145
3.05121
0.185966
2.85663
0.17223
0.189154
3.13811
2.86006
3.16974
0.182899
2.11569
0.139851
0.139399
2.2582
2.42271
2.04283
0.138388
2.6702
0.168629
0.159758
2.78356
2.79152
2.55106
0.168868
2.72524
0.159508
0.173312
2.6353
2.60016
2.72483
0.174209
2.64895
0.153798
0.168321
2.48716
2.49466
2.65644
0.166074
0.426121
0.469109
0.415409
5.73389