/*--------------------------------*- C++ -*----------------------------------*\
  =========                 |
  \\      /  F ield         | OpenFOAM: The Open Source CFD Toolbox
   \\    /   O peration     | Website:  https://openfoam.org
    \\  /    A nd           | Version:  10
     \\/     M anipulation  |
\*---------------------------------------------------------------------------*/
FoamFile
{
    format      ascii;
    class       volScalarField;
    location    "3.2";
    object      omega_0;
}
// * * * * * * * * * * * * * * * * * * * * * * * * * * * * * * * * * * * * * //

dimensions      [0 0 -1 0 0 0 0];

internalField   nonuniform List<scalar> 
12920
(
86.5153
111.161
107.5
103.562
96.2467
82.6904
76.2007
66.8009
56.7481
50.8668
47.8475
46.2245
44.9085
43.6182
42.5917
41.4341
40.7077
39.9784
39.9079
39.4676
197.758
174.498
143.256
147.419
145.127
141.566
128.049
100.288
75.8516
64.6582
59.1483
56.4711
54.5573
54.0224
53.7702
53.8467
54.1095
54.458
54.6201
53.8577
224.503
248.588
166.72
145.52
126.398
117.48
99.5427
84.6627
74.7949
68.4618
62.3021
58.1056
55.0625
53.1523
51.4752
50.0895
48.9149
47.8205
47.3039
47.3133
182.814
229.81
209.815
159.509
128.835
107.112
95.6918
89.2395
81.8687
75.7213
68.6809
62.4065
56.9671
53.4512
51.2605
49.7096
48.4287
47.1741
46.6855
46.0096
158.58
292.253
280.419
256.057
205.551
160.626
123.71
101.734
86.2291
78.5656
71.549
66.0906
60.4121
55.7717
52.5684
50.3574
48.8773
47.5967
47.2129
46.3977
392.886
328.224
278.407
222.329
164.296
134.978
106.202
91.8611
81.7603
76.535
70.847
66.2195
60.904
56.14
52.82
50.3917
48.8548
47.4026
46.8582
45.3773
397.395
299.202
276.857
216.579
157.525
131.013
108.38
94.0127
83.3726
77.5399
71.0989
64.6711
59.2951
55.4906
52.5856
50.8175
49.4516
47.6247
46.8258
44.7842
165.177
261.844
237.281
180.989
138.597
121.318
195.022
142.075
121.168
111.795
112.768
101.128
89.8763
87.0241
56.9443
53.5075
51.1017
48.487
47.4156
45.0527
223.579
298.297
260.631
174.461
124.844
180.598
303.766
189.46
183.77
155.546
177.665
176.422
143.771
145.365
97.9253
52.9923
49.971
47.963
47.1843
45.364
310.753
307.523
267.476
222.944
159.641
222.038
304.465
225.192
184.696
178.052
167.617
159.381
159.229
145.691
89.8596
47.8419
45.2892
45.2813
45.7022
45.4948
281.367
255.482
210.566
158.614
115.954
159.12
207.724
182.47
185.65
172.141
160.376
130.862
127.041
131.852
78.7807
46.3076
43.3243
43.3838
44.5093
44.5351
321.777
326.482
223.195
144.711
117.758
177.227
293.047
214.88
196.069
179.228
137.369
131.116
124.725
122.323
78.5207
41.3473
39.6252
39.8952
41.503
42.8049
312.18
294.48
258.924
184.14
142.732
135.777
224.026
176.697
144.959
116.558
88.8518
79.5172
76.4935
72.7065
42.2123
38.8297
37.1822
36.9968
37.742
40.3838
196.934
287.583
261.544
196.813
159.996
148.755
129.719
111.322
90.0889
73.6135
60.8693
53.5852
48.613
45.0418
41.8666
39.0923
36.9368
35.7069
35.5962
36.6429
156.018
186.204
179.471
158.897
150.038
145.633
132.619
117.272
97.6145
79.7289
65.7491
57.042
51.2391
46.8889
43.2765
40.0796
37.6932
35.8344
34.4093
33.5091
183.818
221.086
193.829
170.399
157.771
137.801
106.64
87.7568
76.7812
68.1605
61.1314
57.0416
52.6631
48.4257
44.1428
40.7719
38.3675
36.4617
35.44
33.622
236.328
226.888
218.116
210.791
190.956
152.417
106.879
78.7026
68.5626
63.8676
60.54
57.9651
54.8553
50.958
46.7656
42.9717
40.4746
38.372
37.4738
35.5241
81.9983
215.602
227.686
219.519
187.11
141.097
98.7242
78.4815
69.5159
65.3573
61.2599
58.7711
56.2556
53.5084
50.3465
46.746
44.127
41.9904
41.2354
39.5791
50.0382
190.464
202.171
181.926
148.288
114.672
91.0609
78.8051
70.8552
67.8816
64.8694
62.3125
58.4672
54.6951
51.3479
47.8847
45.4905
43.7024
42.8838
42.2681
36.7859
77.1812
119.863
123.707
111.673
97.9544
88.744
81.9635
75.4156
69.4389
63.6945
58.3934
53.4161
48.6204
44.3749
40.4175
37.9795
36.1567
35.5214
34.1973
118.271
89.1181
67.3115
62.4937
57.8242
48.9647
40.182
33.0393
29.1943
28.0639
27.3086
27.0424
26.6084
26.2826
26.0724
25.8426
25.7482
25.5467
25.3303
24.4945
142.109
153.766
104.392
95.3214
85.8798
99.5383
97.1971
73.4174
47.0306
35.8318
31.4483
29.0271
27.781
27.2169
27.1169
27.1928
27.4334
27.82
28.0386
28.233
646.766
220.487
89.0558
92.8391
87.6297
85.3639
70.8447
53.4128
44.1866
39.3686
36.0808
32.5575
29.6197
27.5675
26.4875
25.8813
25.5638
25.4608
25.4191
25.4196
166.71
189.866
112.389
105.128
89.6783
68.2973
57.308
50.2629
45.924
42.8625
39.4392
35.8479
32.5098
29.3684
27.1036
25.6502
24.7733
24.255
24.0158
24.0542
242.675
184.866
124.266
128.005
131.642
124.595
86.6728
62.4903
49.6884
43.7709
39.3911
36.0251
33.0309
29.9649
27.5752
25.7656
24.54
23.8084
23.5256
23.4985
292.959
195.906
138.87
104.058
85.2946
75.5819
60.8585
51.2075
45.6491
40.9022
36.344
33.4087
30.7814
28.8145
26.7808
24.9674
23.9718
23.417
23.2816
23.0383
151.429
198.284
150.248
101.781
81.579
75.3155
69.9428
62.1303
50.8969
43.2925
36.4925
31.8619
28.1436
25.9787
24.7922
24.1529
23.889
23.6571
23.5751
23.1953
299.317
157.688
116.477
97.3277
83.5957
78.6118
78.8282
74.1377
57.658
48.6901
39.5509
35.1181
29.3015
25.9062
23.6649
24.2
24.5883
24.6436
24.6463
24.0218
202.85
212.573
147.875
101.71
70.8326
69.9141
81.001
72.5277
62.7946
59.7997
48.1451
38.9818
32.1118
26.1714
24.0013
24.2991
25.0258
25.446
25.9395
25.2304
107.965
179.866
172.079
121.257
82.9111
79.1215
71.8044
61.017
49.0807
40.8428
38.9513
34.8099
30.7935
28.0148
26.517
24.956
24.8953
25.2087
25.9855
25.3234
268.552
162.616
108.256
86.9593
70.694
63.2621
61.8621
52.3705
51.3877
44.9027
40.7963
35.0339
29.3759
28.6538
26.1155
23.1537
22.1543
22.0426
22.519
22.5756
224.899
209.029
133.717
96.3774
79.1703
75.7507
78.9085
74.3486
65.7469
56.0769
40.2917
29.3509
26.1707
25.2782
22.702
20.18
19.6105
19.628
20.1328
20.9303
184.2
187.582
132.376
107.556
89.0626
82.3654
83.3048
80.4992
67.4407
56.2091
38.2137
28.4131
24.9262
23.3339
20.847
19.9098
19.0002
18.6612
18.7726
19.6896
188.667
194.153
153.081
120.963
95.3394
82.514
74.1783
69.4111
59.5058
48.2508
36.4278
29.2818
25.1666
22.8696
21.3638
20.2365
19.2003
18.4113
18.0087
18.4741
152.885
157.249
145.117
127.53
106.497
85.7413
68.5139
60.4116
55.5501
48.6738
38.9363
30.3245
25.595
23.1039
21.4263
20.173
19.009
18.052
17.3737
17.3844
143.783
161.879
130.992
104.456
90.1395
74.388
55.5857
42.9223
38.4446
33.706
30.3068
27.8229
25.9491
24.2952
22.6063
20.9097
19.5516
18.38
17.766
17.3255
169.377
175.252
156.493
128.814
117.89
102.982
63.3857
39.7357
32.5835
30.4233
29.1522
28.5057
27.8821
27.3245
26.4008
24.3508
21.5645
19.3752
18.4937
17.6432
226.786
195.525
136.914
126.386
117.858
90.9642
56.0035
40.047
34.3883
32.2507
30.6838
29.7711
29.001
28.4018
27.7368
26.522
24.3737
22.0093
20.9145
19.9874
131.61
119.221
95.9825
91.0907
88.3283
69.9148
54.1113
45.0032
39.2707
37.0363
34.6848
32.9231
30.8296
28.9176
27.3705
26.0419
25.2715
24.5205
24.061
23.6149
50.2011
81.9714
73.0216
62.7571
56.6478
52.1419
48.8106
45.9555
42.719
39.5641
36.2335
32.9803
30.5789
29.0498
27.8227
25.7413
24.0977
22.8267
22.3817
21.4601
148.266
118.306
82.241
67.5972
58.1676
46.7355
39.4481
34.9944
32.962
31.8837
31.0546
30.5639
29.9003
29.313
28.8156
28.177
27.7908
26.9313
26.4284
25.1857
116.892
128.833
97.365
70.17
59.8602
59.278
54.6328
40.9177
32.8325
29.5395
27.9133
27.3398
26.9692
27.0742
27.2305
27.5776
27.7858
28.0117
28.0826
28.2056
207.625
140.647
73.7055
62.5086
60.3616
53.4927
45.4103
37.4287
33.5475
30.945
28.8227
27.2243
25.8979
25.2192
24.7807
24.6659
24.6411
24.6822
24.7847
24.8844
255.068
156.178
82.7272
68.5031
60.5437
47.3222
42.9423
38.6314
35.9791
33.563
30.8966
28.6816
26.6476
25.257
24.2207
23.638
23.285
23.1189
23.0979
23.1246
383.325
169.328
101.216
85.9663
82.2708
71.4481
52.6032
43.9443
37.5452
34.571
31.3963
29.1833
26.9936
25.3836
24.0864
23.245
22.6954
22.4089
22.3454
22.2896
209.578
176.752
123.321
80.4785
62.5179
52.3015
45.3451
39.6966
35.6652
32.6652
29.6497
27.7627
25.8951
24.5942
23.4439
22.6187
22.1437
21.8729
21.7775
21.5289
229.713
183.234
127.918
82.9543
64.4633
58.0157
52.0803
45.1725
38.1109
33.4152
29.388
26.7426
24.7008
23.451
22.7676
22.3589
22.1801
21.9385
21.7773
21.2922
211.27
140.261
96.4889
75.1397
63.2046
60.1609
60.5815
53.5417
42.9836
37.2498
31.1348
27.7993
24.7817
23.3074
23.7924
23.5373
23.3563
22.9102
22.5638
21.5949
254.898
196.247
105.566
67.2942
53.2471
54.6673
61.4575
53.6954
49.0294
45.3891
35.8922
29.875
26.0338
24.0584
24.3235
25.8332
25.326
24.5141
23.9103
22.2103
154.881
198.808
147.469
82.5894
55.8472
52.1897
51.5169
45.9698
40.2374
35.616
33.6499
30.1799
27.6978
27.4465
28.0691
26.5815
25.9315
25.0673
24.3245
22.3188
237.172
116.502
73.5098
55.6783
50.8385
48.0745
49.1304
43.1426
39.5117
34.1949
66.3477
50.6699
35.9568
28.8957
24.6991
23.4803
22.9023
22.2969
22.0568
21.2388
211.374
110.493
80.8842
63.2991
60.2666
60.759
62.4693
57.1383
48.6789
39.6151
30.117
25.044
23.2107
22.4933
21.5216
20.8324
20.1412
19.9806
20.1158
20.3572
318.138
143.854
83.8976
71.6887
66.0356
65.7641
66.0428
61.6585
47.8356
36.1802
27.4735
23.6141
21.7037
20.6652
19.9025
19.0396
18.6172
18.6402
18.8691
19.6538
232.163
163.921
104.517
83.3765
70.0191
64.2637
58.1297
50.7833
41.2076
33.1612
26.9187
23.3324
21.297
19.9908
19.1273
18.4604
17.9771
17.8461
17.9171
18.559
312.375
187.62
128.294
107.136
83.2586
63.8029
51.455
43.8986
38.3188
32.9547
27.6632
23.9801
21.6395
20.1826
19.1578
18.3808
17.7528
17.3851
17.2279
17.4395
181.876
182.593
135.511
90.2827
68.0781
51.0826
39.9269
33.4103
30.7147
27.5877
25.3964
23.9768
22.6003
21.2918
20.0826
19.0095
18.2177
17.6565
17.3255
17.2786
165.787
160.869
121.804
97.9638
81.857
57.9615
39.2686
31.5028
28.7001
27.3505
26.4461
26.0249
25.2672
24.2686
22.9107
21.2575
19.7769
18.7208
18.1418
17.7332
190.804
168.184
113.712
94.5533
78.0113
55.0426
40.2951
35.0372
32.316
31.0562
29.7091
29.026
28.0975
27.2374
26.0425
24.4282
22.8895
21.6361
21.0463
20.5454
116.155
135.64
94.8654
70.9682
63.5488
52.515
45.7092
42.5747
39.496
38.1413
36.0338
34.5477
32.5197
30.7241
28.9052
27.3682
26.4246
25.8218
25.6405
25.5672
96.3583
112.847
101.245
75.6677
67.1765
61.5145
56.7097
52.2953
47.7284
43.3829
39.609
36.7275
34.8163
32.9132
30.7864
28.2131
26.4046
25.0943
24.6578
23.6843
96.0179
110.338
84.5768
62.4174
52.2307
42.2017
37.8339
35.1587
33.9036
32.8716
32.0521
31.2333
30.4226
29.5184
28.7842
27.9447
27.3387
26.382
25.9252
24.9294
193.408
126.624
80.5686
59.3228
48.3722
42.9565
40.5257
34.5903
33.7062
32.4982
32.6747
32.801
33.1527
33.6456
33.8977
34.2054
34.2861
34.3395
34.3257
34.3428
230.071
113.492
66.4536
54.4166
48.1651
40.9687
39.1951
34.0533
33.2958
31.3313
30.8145
30.001
29.85
29.7664
29.8184
29.9514
30.0912
30.1822
30.2883
30.3184
188.154
125.159
72.2478
57.4003
49.921
41.1515
39.838
35.2944
34.5537
32.0291
31.0385
29.6287
28.9755
28.46
28.2655
28.1581
28.1618
28.1736
28.2105
28.1343
277.816
157.621
96.424
67.2013
58.9267
47.6795
43.3934
37.7166
35.5823
32.9467
31.4526
29.8977
28.8881
28.1007
27.6604
27.4006
27.3394
27.3202
27.3342
27.1895
161.418
148.452
112.053
68.2735
54.5182
44.2967
41.5766
36.169
34.2813
31.5863
30.2463
28.8786
28.0416
27.3152
26.9293
26.6406
26.5869
26.529
26.4961
26.2653
150.22
149.118
122.612
73.0234
59.0424
48.4503
44.855
38.0494
35.3487
31.8493
30.3121
28.5902
28.0148
27.335
27.0835
26.7721
26.6653
26.4251
26.2626
25.8092
319.728
130.992
88.4631
62.8301
57.002
50.6756
49.5531
43.4625
37.5996
34.5533
31.2554
29.7846
28.7127
28.5633
30.7974
28.9622
28.0009
27.0194
26.5203
25.5714
244.342
136.803
80.0984
56.8119
48.3612
48.6025
51.6306
44.36
41.4968
38.6149
34.1259
31.9803
31.2345
31.5793
33.3566
32.7901
30.2603
28.2179
27.0443
25.5009
291.096
180.078
103.007
62.665
47.1221
44.7259
44.6812
40.4792
38.3436
35.9951
34.614
33.2602
34.0155
35.971
36.8802
33.9426
31.0628
28.7026
27.1999
25.603
243.109
106.276
64.3495
52.5639
45.6604
44.271
43.8276
39.371
36.9781
34.707
55.4058
47.5656
38.0194
35.1892
34.2841
31.6893
29.0127
27.2824
26.3309
25.4723
252.341
104.804
68.9546
57.3693
54.8735
52.9866
53.3959
45.8546
39.8355
35.0102
31.2705
29.6827
29.913
30.4206
31.2274
28.9226
26.6352
25.6999
25.4634
25.4596
283.779
146.44
82.1298
63.3255
60.9708
56.6253
55.081
46.1167
37.7385
31.8613
28.8389
27.9988
27.3211
27.069
26.7103
25.0394
24.5594
24.6303
24.8397
25.3401
167
139.563
92.3037
69.5643
62.7309
54.6383
47.7193
39.6607
34.5043
29.7659
27.3151
25.4288
24.7258
23.9952
23.6282
23.3914
23.4157
23.6466
24.003
24.7
189.171
142.083
112.661
85.3225
68.5204
51.498
44.3333
37.4687
33.5976
29.9826
27.5697
25.7877
24.7327
23.9587
23.526
23.2005
23.1395
23.2449
23.3677
23.8491
255.578
171.405
107.037
73.3109
56.5248
42.474
37.2897
32.6911
31.3492
28.8837
27.8513
26.7531
25.9128
24.9361
24.3523
23.8188
23.5945
23.5185
23.4878
23.7492
232.04
169.674
104.266
76.0083
60.2004
43.4112
36.8383
32.8725
31.8661
30.5383
30.1123
29.429
28.6784
27.5276
26.5633
25.6219
25.0696
24.6495
24.2726
24.2879
252.788
166.151
100.77
73.2753
60.3982
46.0459
41.3599
38.5914
37.9094
36.5611
35.6007
34.517
33.4438
32.1474
30.8679
29.5657
28.7948
28.2274
27.8857
27.7129
163.533
177.402
110.464
70.9991
61.9213
52.6301
51.3481
49.8035
48.2689
46.3496
44.1428
42.2244
39.9084
37.8171
36.1662
35.1052
34.6293
34.4029
34.3757
34.3188
75.9661
101.055
97.0927
79.7278
72.1048
66.0453
60.9438
55.6153
50.3147
45.2274
41.2063
38.2389
35.8825
33.1497
30.5358
28.0703
26.5469
25.1646
24.5976
23.3368
130.056
100.329
72.3715
53.4892
44.3344
38.9246
36.5313
34.8981
33.7004
32.6118
31.4862
30.2138
28.8975
27.5433
26.4995
25.6725
25.2661
24.7507
24.4641
23.6384
255.065
122.526
93.5993
74.7462
60.997
54.0021
52.3816
41.7587
51.2105
44.9758
50.6889
47.5282
50.7047
49.3132
50.9633
50.4317
51.2646
51.0776
51.3287
50.9814
343.273
154.584
86.574
77.6167
57.8919
49.3338
50.7287
40.9138
47.2923
41.5623
45.6729
42.7445
45.2328
43.9133
45.3114
44.8043
45.5463
45.3007
45.5647
45.0612
351.301
147.945
88.6342
75.4232
61.3311
49.9863
51.5417
40.7349
46.1453
39.7173
43.4715
40.509
42.6967
41.5384
42.764
42.3309
42.9913
42.7683
42.9563
42.4124
386.406
148.043
104.843
68.846
60.9753
46.5558
52.3518
42.1641
47.0337
41.3424
43.9608
41.0092
42.4426
41.1311
42.0789
41.6047
42.2399
42.0142
42.213
41.6058
389.541
141.488
111.477
70.5704
65.3627
48.8741
51.787
40.9494
43.7789
39.0676
41.1681
39.2131
40.3889
39.737
40.4523
40.3798
40.9968
40.9828
41.2143
40.7891
375.64
178.402
127.733
70.8831
70.6641
49.2377
53.8579
41.8975
45.4544
40.0345
42.5807
40.158
41.5445
40.6019
41.2053
40.8675
41.3234
41.1237
41.2955
40.7626
433.376
177.163
95.464
66.3203
69.0055
54.1818
50.4321
44.2245
42.7924
40.1915
40.7994
40.2852
41.1104
41.0911
45.4134
42.6648
42.0892
41.314
41.0989
40.0752
332.425
135.382
86.2186
72.3954
57.4754
51.9423
52.7849
46.3387
46.0862
45.2866
44.7913
45.315
46.2072
46.6892
47.7288
45.9629
43.2967
41.5602
40.9037
39.4677
472.207
248.518
110.934
66.1739
56.963
49.361
47.888
47.1226
47.4818
46.7517
46.4748
47.6308
49.8896
50.5971
49.9065
46.909
43.5819
41.4449
40.4629
39.1094
290.756
130.9
73.719
73.6112
53.3284
51.1846
47.519
47.431
47.2415
45.3352
46.6372
47.6787
50.328
50.749
49.6611
45.6536
42.3132
40.5819
39.8455
38.9719
287.728
145.149
84.2708
71.7659
68.2491
57.5941
56.0515
49.1386
47.1176
46.1482
46.1046
46.9035
48.3168
48.7325
48.1883
43.429
40.4568
39.6801
39.5615
39.456
559.547
179.474
98.6451
69.2723
78.3724
63.6183
56.1364
46.2134
43.4476
41.5235
42.4432
42.4206
43.0405
42.8706
42.4857
39.673
39.1252
39.2468
39.4637
39.987
404.338
145.723
114.368
70.2301
81.6525
58.2529
53.9762
44.931
44.0026
39.8509
40.8577
39.2216
39.7032
38.8903
38.6562
38.2186
38.355
38.5524
38.8869
39.7724
217.551
136.539
127.573
80.3507
80.7336
56.3408
57.7581
46.0936
45.4844
40.5022
41.1833
39.3851
39.5423
38.7089
38.6368
38.2492
38.3597
38.3536
38.4307
39.0902
521.741
177.724
119.141
71.1358
68.7071
48.7742
51.7844
42.8917
45.4362
40.6447
42.5822
40.1714
40.9144
39.5801
39.8386
39.1817
39.3091
39.0347
39.0019
39.2816
530.598
237.701
126.539
73.9706
70.7668
50.0717
55.2471
46.3237
48.7488
43.7
45.4311
42.7935
43.4241
41.8773
42.0725
41.2578
41.267
40.5933
40.2675
40.0428
190.817
180.68
120.026
77.7543
76.6456
54.6312
62.5283
52.2255
56.0305
50.0757
51.8739
48.4962
49.1099
47.0842
47.0622
45.8037
45.6961
44.8706
44.5313
44.024
342.585
240.014
152.658
82.1086
87.0191
67.6265
79.9308
69.9257
73.3288
65.3721
64.7453
58.8049
58.2345
55.9479
56.3114
55.5971
55.8777
55.2647
54.8457
53.6241
150.841
107.166
92.2362
79.3746
71.4201
64.0939
56.8738
50.2325
45.3401
41.3285
37.5265
33.4827
30.5539
28.1889
26.6781
25.1795
24.1501
22.6783
21.852
20.0888
34.2106
33.3654
59.639
35.2335
34.2593
33.8109
74.6638
31.1311
59.1163
52.481
33.8483
32.3479
74.9164
62.6788
66.9957
39.3401
32.9845
33.9731
89.1348
35.081
31.5775
56.7718
31.0422
26.8551
88.4047
70.0248
30.6197
28.5738
203.507
275.372
232.444
96.7639
86.9171
79.8431
70.0412
182.807
228.287
210.136
80.5162
69.4206
67.684
61.9111
166.363
204.541
185.786
68.0287
64.201
59.6187
53.2807
161.602
182.069
178.403
63.4515
55.4726
51.3042
47.578
181.685
178.675
176.693
52.2718
45.4297
46.7787
43.8534
151.842
171.897
165.692
44.016
39.0933
42.1499
37.2292
142.622
157.284
144.801
36.9298
30.463
36.2491
31.6012
138.603
146.151
136.899
29.2559
26.695
30.3733
27.8321
235.026
270.841
189.036
83.4771
70.9054
86.3051
62.1171
191.138
179.371
173.329
67.7399
57.0451
56.6598
49.1322
179.49
173.878
177.046
53.2123
45.0157
47.9724
43.983
170.637
174.677
162.877
43.8647
42.8796
43.4812
43.4222
159.639
159.763
130.706
42.6808
40.2766
43.6052
41.629
161.473
124.95
132.666
38.762
35.0681
38.9507
32.4717
145.364
137.558
138.763
34.5512
31.9733
31.8824
31.6711
136.713
137.265
113.083
31.0054
28.3376
31.6377
30.0148
180.053
262.611
216.605
69.201
58.4363
82.0746
77.913
189.028
210.837
200.465
56.2247
56.3393
74.9742
69.2387
177.377
197.771
182.32
56.2191
50.7977
67.6514
60.8898
162.275
173.462
145.312
49.1453
45.7221
58.9434
49.9492
143.371
142.465
143.101
44.7126
41.8115
45.4125
36.2961
123.228
138.679
124.915
39.6058
32.5813
34.5869
30.8774
132.271
122.017
118.829
31.6236
31.1985
30.3105
29.721
108.555
118.845
107.432
31.2527
29.8927
29.6602
27.674
228.036
374.401
304.746
91.7186
84.3571
105.348
97.4255
197.4
286.84
247.042
80.9166
73.5428
92.5773
83.5843
185.567
241.652
217.851
70.995
62.9386
79.145
70.6187
145.756
208.678
166.657
61.4808
50.968
67.9268
57.1182
131.565
151.967
130.765
45.5044
34.3952
50.1578
36.1587
126.128
128.638
128.177
32.6211
29.5687
33.345
29.6317
122.784
126.949
123.788
29.1543
28.4342
28.8256
27.413
110.666
121.218
106.616
28.2893
26.6177
27.0223
25.3365
77.1144
69.737
63.3696
65.4271
59.6673
57.9146
51.6162
64.1142
61.4306
56.7953
57.0971
52.7026
50.1694
47.0635
60.3219
55.0315
49.8597
51.8662
49.717
46.0848
42.6537
51.4503
48.0936
44.0014
48.6094
40.4248
41.2244
37.0152
40.5121
42.9101
38.9361
37.9548
32.1438
35.6987
31.7228
33.9297
37.1773
32.7212
30.9249
27.3131
30.4836
27.5709
27.1157
31.7357
28.1826
26.3084
24.0541
26.9285
25.571
24.6235
27.29
26.0158
23.6195
22.9017
25.33
25.2341
63.521
72.9745
55.967
55.0341
50.2831
53.1626
45.3226
52.2456
51.8557
45.4463
48.6276
43.453
43.2255
38.9272
42.0016
44.1797
40.2652
41.7578
37.5555
37.7286
34.4991
39.3429
39.7008
39.3484
36.4762
34.6938
34.0411
42.1642
36.2127
39.2707
36.6716
34.1515
31.4224
42.2729
40.6748
31.3913
34.6878
30.2318
30.3698
27.8947
38.8559
34.3769
28.6756
29.7157
29.2502
27.4217
26.6983
33.3214
30.7514
26.6477
29.1527
28.2464
26.6141
26.4506
30.0096
27.128
54.0765
73.6349
71.4275
51.5775
46.0952
61.921
58.8773
51.7986
69.2507
64.5099
44.964
42.6349
57.3329
52.6773
46.3374
62.864
56.0186
41.585
37.8452
50.7202
44.3958
41.9302
54.0638
44.7595
36.5775
43.4326
42.2587
34.8559
36.9459
40.7831
32.6279
43.2619
40.6352
32.4834
27.3501
30.0936
30.98
27.6251
38.6675
33.9038
26.2632
24.1791
28.7469
27.1001
26.466
32.6347
29.1464
23.8073
23.1818
28.1495
26.3829
25.4191
28.1039
25.8568
23.0492
22.1766
76.7774
85.1724
84.2445
65.5903
62.5293
71.3125
68.5725
68.2683
82.0593
75.3704
60.841
54.8946
67.0536
59.1601
57.7619
71.3972
62.9802
52.4024
45.2214
55.5939
47.1697
44.9413
59.9673
47.6985
42.8334
34.0599
43.5812
33.3749
30.912
42.0114
31.2858
31.4676
26.266
30.5611
25.3925
26.5902
29.168
26.0825
25.2754
23.443
24.3996
22.5645
25.4203
25.4466
24.1779
23.1109
22.4595
22.114
21.1234
24.4212
23.878
23.0183
22.3051
21.5976
20.892
20.0227
55.9608
54.7073
48.9818
53.6796
47.467
49.1482
43.4825
49.8498
47.6133
44.7944
45.9274
43.3289
42.4575
40.6477
46.6323
43.9406
40.8184
42.625
40.2684
40.1172
38.0072
37.991
39.489
35.562
39.1977
34.7905
37.0728
34.3649
30.9342
34.3638
30.8284
33.606
31.0546
33.5475
31.4596
26.8353
29.7643
27.3665
30.49
29.2222
30.9529
30.363
24.3699
26.8819
26.0756
28.9921
28.8468
30.4373
31.247
23.4169
25.9807
25.9988
28.8363
28.7841
31.5029
32.1441
47.4802
49.3884
43.1851
45.8552
42.1422
43.3337
39.5664
41.6082
41.4383
37.6301
41.1196
38.8202
38.5615
36.2747
36.6743
36.531
33.633
38.1613
36.0607
35.5838
33.6559
33.8121
34.8117
33.1246
35.0608
33.3427
34.4468
33.1252
38.0412
32.9056
35.8815
33.5134
35.7227
32.8442
38.2892
28.0492
48.8637
38.8678
31.8425
31.3161
55.9107
41.7682
27.4161
36.8881
32.5998
31.4996
32.631
39.6117
35.8749
27.3443
31.4331
27.6408
32.9517
33.2781
34.9337
32.4022
44.2395
59.1047
55.6324
44.7178
40.5816
52.6495
47.7067
40.5575
54.0502
49.2242
39.6944
37.4977
46.1683
41.8766
36.2331
47.2987
41.3523
36.7421
34.4365
40.4536
36.3788
39.4818
49.6634
37.3037
38.3071
37.9825
212.431
35.7324
40.1428
63.8083
37.3011
173.676
36.2412
159.721
40.9488
38.4281
25.9586
24.2101
59.0916
40.8051
28.1143
27.4944
30.3135
23.8825
23.3043
38.136
33.5686
27.4968
27.6604
26.1172
23.173
22.3351
32.5857
31.0048
27.6794
27.569
58.943
67.7186
64.8445
55.2947
49.757
60.0668
54.1401
51.0416
62.7072
54.2559
47.9155
42.6732
51.3102
43.5927
41.8911
50.9843
42.9019
40.9782
36.3572
41.4268
35.7021
32.2045
39.6187
31.0481
34.9176
30.9929
33.6908
29.3299
25.8718
28.882
24.884
29.9559
27.9407
28.4339
26.8766
23.499
24.1068
22.5484
27.5501
27.0745
26.5794
25.7676
22.6392
22.1436
21.2421
27.0573
27.1233
25.5534
25.1519
21.8143
21.0269
20.1502
27.1106
27.0708
25.0103
24.5156
45.7336
47.8325
42.4829
50.6111
44.7655
47.5166
43.6961
42.0852
41.6149
40.2205
43.7815
42.537
43.3276
43.1375
39.5074
39.8192
38.1334
42.4875
41.8841
43.1423
42.6048
35.0489
37.3492
35.0658
41.4173
40.114
42.2354
41.3871
32.3722
34.4004
32.8778
40.0957
40.3657
41.2735
41.5661
31.2828
32.5853
32.7298
40.4142
40.8037
41.8986
43.513
31.5278
33.0703
34.3858
41.1604
41.8141
44.0232
45.0346
31.3564
34.7007
34.9935
41.8558
41.5244
45.1074
44.9382
41.3139
42.4233
39.236
45.0927
43.1906
43.4259
42.5327
38.8111
38.447
36.7204
42.9065
42.812
42.3399
42.2215
36.6909
36.1963
34.4613
42.8217
42.141
42.017
40.8474
34.9629
34.5395
52.1752
41.7933
41.2261
40.6331
42.9358
33.5467
53.3081
49.9703
41.1882
41.5256
43.5202
43.7455
33.5182
46.9618
40.4075
41.901
43.9275
43.7093
45.0647
35.6117
39.3503
37.5416
44.5867
45.7437
45.6492
46.3013
35.9458
37.0264
35.0631
45.8032
45.399
46.2339
45.4176
40.1272
51.0407
45.9376
44.6975
43.1299
50.6216
45.9574
37.5818
44.506
40.7406
42.8245
42.4427
44.9851
43.0709
34.9119
39.5714
36.2865
42.1779
40.847
42.6701
41.2402
54.367
35.2241
32.4723
40.5217
42.5747
40.7558
39.9192
51.5154
31.7673
30.2978
43.1674
43.4243
39.8608
40.0798
39.3841
29.9944
30.0137
43.3176
44.4863
40.3755
42.2137
35.7252
30.2518
30.9026
45.0453
45.6616
42.7301
43.5057
33.8721
31.017
30.7488
45.606
44.9975
43.5555
43.4055
47.5839
57.1503
51.085
52.8337
46.7081
55.6093
47.7371
41.2406
48.1997
41.3677
45.4527
42.9601
45.4594
41.2087
36.1577
39.6618
35.0213
42.4331
41.1535
40.7154
39.0365
32.0238
33.4647
30.2047
40.7081
40.0555
38.6422
38.1437
29.9072
29.6646
28.8561
40.0465
40.4804
38.4441
39.0393
29.7746
28.6844
28.1721
40.7724
42.0706
39.098
39.1332
30.368
28.0518
27.9575
42.3915
42.9736
39.3779
39.6371
30.2246
27.8693
27.2138
43.0014
42.9523
39.6457
39.0661
47.1415
49.527
47.3941
74.2399
71.7747
71.637
80.3815
45.7456
47.2125
47.3919
72.2557
80.477
81.2796
86.1617
45.6609
47.5182
47.2717
84.413
83.2162
87.8626
93.9182
44.5279
47.0155
46.6153
83.4065
88.6306
96.0101
101.695
45.211
46.6525
47.2145
91.4892
90.7548
103.167
104.267
45.7261
47.5207
48.906
91.5734
94.1072
104.032
100.818
46.6384
49.3376
49.9949
95.9726
94.3876
100.63
99.6263
45.8173
49.9931
49.303
95.1952
94.3734
99.5504
100.968
47.2311
46.4009
47.05
71.4181
81.9102
68.2368
82.2798
47.3673
47.0221
47.2407
82.8021
87.0245
83.5221
88.9764
47.0661
47.1449
45.8676
89.0146
97.2152
92.0157
104.38
46.3942
45.4612
46.5964
99.8772
106.234
108.378
117.378
47.1611
47.0571
47.609
107.78
109.115
118.958
120.09
49.315
47.9718
50.0962
108.708
103.799
118.978
110.218
50.6121
50.7084
51.2547
102.208
100.488
106.732
102.371
49.6548
51.1288
49.8911
100.307
100.696
101.91
102.35
47.5776
53.3545
49.6792
68.0637
82.0746
75.8621
81.5119
47.3692
48.8949
47.6089
83.3788
89.0003
82.0267
86.8256
45.8124
47.365
46.4709
92.0781
104.553
88.896
98.7141
46.1867
46.0901
45.723
108.569
117.399
101.705
108.48
47.2799
45.8145
46.3495
119.237
121.117
109.838
111.294
49.7281
46.7217
48.2024
119.892
110.572
110.594
104.548
50.8545
48.6842
49.2078
106.957
102.485
102.601
101.255
49.5858
49.2058
48.5396
102.079
102.061
101.157
102.385
50.1999
58.5773
50.0034
81.5135
81.1616
79.2052
72.3996
47.4167
48.0951
45.1956
81.1756
85.9344
72.9944
81.9198
46.4002
44.9806
43.8606
87.444
95.2486
83.4551
83.7841
45.9869
43.6677
43.5917
97.9012
104.016
85.5194
91.553
46.6592
44.1088
44.6057
105.309
106.417
93.6523
92.8676
48.0145
44.6994
44.7366
106.004
101.5
94.0283
95.8075
48.7207
45.113
45.2328
101.118
100.326
97.2986
95.8337
48.1458
45.2874
44.0489
100.382
102.191
96.8827
96.2239
36.4227
34.5595
35.7089
34.041
34.5263
34.3142
38.1385
44.5214
32.8192
44.6059
37.0637
35.5531
33.2557
161.795
67.246
47.1041
56.9993
185.544
43.2048
71.7229
206.736
34.1393
34.9218
34.7113
33.9019
34.4071
33.3708
34.2868
36.8315
34.0286
34.5104
37.3054
34.275
38.518
35.9075
45.4997
37.7994
33.6622
48.176
33.5548
168.31
37.4109
67.6115
188.711
52.5886
67.9244
71.6579
212.249
47.4473
37.5292
32.0567
34.219
31.2585
35.2427
32.1028
35.952
67.1884
47.527
58.0512
171.505
47.0271
70.2898
157.332
64.308
44.281
56.3879
84.366
46.441
54.3287
106.762
38.4463
33.5566
33.3781
37.5576
32.9816
38.6644
37.4509
38.0176
31.6452
32.8808
36.2333
32.3564
36.5441
37.1303
67.1792
172.852
53.2191
74.1196
69.9568
159.607
52.7509
64.6753
87.742
48.4451
71.1303
55.2195
110.285
51.951
41.4779
64.1497
38.1308
187.426
38.4493
201.645
41.567
35.5207
38.7075
37.2224
37.1291
37.1354
36.6989
35.3117
34.448
34.0772
35.0915
31.809
35.64
33.2923
33.5224
38.7732
38.7339
57.4874
34.5384
205.287
34.8408
36.0503
41.7727
187.56
83.1495
39.8339
203.188
42.4202
38.6503
34.4782
35.7048
34.9134
33.8212
35.4141
34.1756
34.0683
33.7494
31.3535
33.0128
32.6442
32.952
32.7118
33.5492
38.9682
64.6171
34.7707
108.883
35.5081
147.3
38.5504
31.0177
32.5178
29.3546
30.2545
31.098
32.1114
28.913
30.0651
28.9153
27.9628
26.9016
29.8955
29.3285
27.7948
41.7887
173.397
85.5679
40.0569
160.251
42.2605
39.9296
40.6106
108.109
82.9958
38.8802
140.78
40.196
39.5928
31.2971
30.1271
32.4177
29.817
32.1071
29.0711
31.836
30.5528
27.4604
30.8038
29.1233
29.9893
28.173
31.2776
164.608
190.253
161.603
110.353
99.4362
114.654
105.179
132.267
140.558
129.1
89.4082
80.3341
95.3128
84.9174
111.831
121.612
115.949
71.0908
64.7934
77.3802
71.7622
113.233
114.708
116.394
60.2704
55.1925
68.4052
62.1792
108.781
118.235
116.954
51.9136
48.77
56.9389
53.5213
94.4941
110.371
99.4976
46.9723
43.0986
51.2984
46.5593
87.7377
92.4838
90.521
39.3088
35.249
41.4293
36.899
80.6435
89.9612
85.3516
33.963
27.8653
35.1737
27.6807
169.023
183.857
167.948
97.3177
100.957
96.549
91.8341
151.872
270.55
278.095
165.587
161.005
160.978
244.259
102.108
182.333
202.385
117.84
106.131
108.269
204.694
97.659
183.123
206.631
96.7498
95.5345
98.6593
202.922
81.3529
152.62
174.437
83.3735
76.6279
87.4533
170.217
73.2359
184.052
178.072
69.5496
69.8864
72.8733
184.846
75.5754
171.337
179.802
71.7236
71.6168
76.0399
175.699
64.855
141.004
151.122
65.845
60.7667
69.8071
145.194
52.0338
147.618
147.325
51.6893
50.8486
52.812
149.708
88.0346
96.1502
81.7172
30.5971
25.3488
31.328
25.6818
192.395
220.423
183.823
118.227
96.7316
117.705
99.1481
141.219
268.51
301.869
169.324
141.435
169.922
261.272
85.9006
213.496
194.512
101.192
94.6213
96.9439
184.573
67.1223
181.967
173.013
77.6699
73.4529
69.2269
173.118
65.1074
175.763
171.041
67.7035
67.3174
64.9024
166.716
66.9438
165.51
149.665
67.4825
66.9888
67.5643
142.334
57.6354
160.038
139.764
63.7648
61.761
60.2978
146.366
57.1359
151.766
154.199
59.9522
59.6319
56.7432
151.401
53.0493
146.597
142.986
54.0136
52.62
54.8572
142.732
77.4902
82.6765
70.9883
31.7535
26.8125
32.6693
28.1505
140.817
157.427
151.655
89.4522
78.8582
82.7423
81.3054
104.46
186.208
212.269
123.481
100.495
123.455
198.939
88.4273
187.963
203.431
79.3349
79.1254
89.4309
203.937
85.0587
182.231
193.8
80.0818
78.8196
86.2588
186.581
70.6939
166.388
167.862
71.3648
69.0464
74.3436
160.327
64.935
157.821
152.93
65.8144
66.8857
65.0482
153.413
62.5609
124.042
138.609
68.3626
63.561
65.2838
128.805
51.9649
130.681
120.566
51.8379
51.3644
52.6861
120.83
53.2607
129.304
121.339
52.5713
52.6294
53.2308
119.788
71.9866
79.5348
71.2469
33.9439
30.9106
32.549
28.1073
170.633
191.468
191.741
102.888
99.4086
111.351
112.699
154.8
268.474
302.37
158.691
147.406
163.609
280.229
119.6
205.915
222.818
114.883
107.454
126.083
210.846
99.5697
193.839
197.023
93.7551
91.9859
102.913
195.625
90.3174
170.059
185.199
87.7389
85.6885
91.7347
176.58
65.5671
132.941
137.147
69.9703
62.9794
74.0697
129.559
50.5489
129.63
125.159
52.6298
51.0031
52.536
125.76
47.8902
124.043
125.68
49.2831
49.2705
48.2814
125.356
46.3687
122.015
123.525
49.2112
48.7602
46.8045
122.613
67.9594
73.1823
65.7259
29.5606
26.2007
29.4833
27.2187
196.262
233.906
203.351
125.706
111.329
124.021
112.256
158.697
187.535
167.611
101.275
91.8969
99.5866
95.3367
131.965
152.34
130.634
82.3262
78.3779
85.7384
80.5077
100.284
114.355
100.397
74.02
63.4423
69.4369
61.7074
82.4308
91.945
82.8086
53.6068
44.5528
53.4736
45.6216
78.4122
80.9195