/*--------------------------------*- C++ -*----------------------------------*\
  =========                 |
  \\      /  F ield         | OpenFOAM: The Open Source CFD Toolbox
   \\    /   O peration     | Website:  https://openfoam.org
    \\  /    A nd           | Version:  10
     \\/     M anipulation  |
\*---------------------------------------------------------------------------*/
FoamFile
{
    format      ascii;
    class       volScalarField;
    location    "3.2";
    object      p;
}
// * * * * * * * * * * * * * * * * * * * * * * * * * * * * * * * * * * * * * //

dimensions      [0 2 -2 0 0 0 0];

internalField   nonuniform List<scalar> 
12920
(
-1.84695e+06
-1.80489e+06
-1.85993e+06
-1.7321e+06
-1.64632e+06
-1.50723e+06
-1.40655e+06
-1.28052e+06
-1.17309e+06
-1.05714e+06
-950961
-841324
-737666
-633160
-532173
-431182
-332812
-234820
-135807
-38251
-2.02167e+06
-1.90439e+06
-1.88871e+06
-1.74028e+06
-1.64339e+06
-1.50357e+06
-1.40284e+06
-1.27624e+06
-1.16866e+06
-1.05355e+06
-948066
-838632
-735385
-631061
-530441
-429701
-331663
-234043
-135263
-37875
-2.18627e+06
-1.93309e+06
-1.91808e+06
-1.72309e+06
-1.64511e+06
-1.49871e+06
-1.39698e+06
-1.27046e+06
-1.16429e+06
-1.04871e+06
-942695
-833702
-730729
-627017
-526969
-426759
-329294
-232298
-134022
-37312.9
-2.4955e+06
-2.1011e+06
-1.99459e+06
-1.76149e+06
-1.64843e+06
-1.5005e+06
-1.39006e+06
-1.2631e+06
-1.1544e+06
-1.03917e+06
-933774
-825844
-723781
-621142
-521856
-422582
-325907
-229778
-132272
-36479.6
-2.45106e+06
-2.06123e+06
-1.96813e+06
-1.75318e+06
-1.64581e+06
-1.49514e+06
-1.37959e+06
-1.25182e+06
-1.14168e+06
-1.02677e+06
-921672
-815163
-714268
-613058
-514851
-416770
-321198
-226288
-129875
-35358.2
-2.58503e+06
-2.15403e+06
-2.0189e+06
-1.77175e+06
-1.63814e+06
-1.48037e+06
-1.36015e+06
-1.23394e+06
-1.1213e+06
-1.00918e+06
-905111
-801407
-702115
-603255
-506362
-409850
-315625
-222167
-127010
-34012.5
-2.37164e+06
-2.07646e+06
-1.93616e+06
-1.71823e+06
-1.59491e+06
-1.44108e+06
-1.32582e+06
-1.20138e+06
-1.09523e+06
-985179
-885157
-783761
-687696
-590844
-495803
-401260
-308788
-217210
-123655
-32557.4
-2.46095e+06
-2.01717e+06
-1.87473e+06
-1.65275e+06
-1.53484e+06
-1.39128e+06
-1.31699e+06
-1.19735e+06
-1.09119e+06
-987345
-888141
-790274
-695368
-601375
-483858
-391804
-301390
-211720
-120003
-30958.5
-2.31319e+06
-1.86676e+06
-1.71076e+06
-1.55363e+06
-1.44804e+06
-1.35497e+06
-1.27687e+06
-1.16769e+06
-1.06626e+06
-969313
-874283
-780545
-688731
-597891
-494453
-381114
-292986
-205652
-115904
-29193.1
-1.95411e+06
-1.65118e+06
-1.55131e+06
-1.42323e+06
-1.36242e+06
-1.28379e+06
-1.20893e+06
-1.11424e+06
-1.022e+06
-931514
-841979
-753651
-666356
-579484
-480098
-369989
-284218
-199218
-111604
-27207.3
-1.79512e+06
-1.4742e+06
-1.44735e+06
-1.31598e+06
-1.26105e+06
-1.1977e+06
-1.13659e+06
-1.0568e+06
-974682
-891914
-808969
-725799
-641960
-559077
-465212
-358408
-275135
-192546
-107199
-25219.6
-1.17542e+06
-1.19085e+06
-1.2196e+06
-1.15604e+06
-1.14934e+06
-1.10795e+06
-1.06856e+06
-1.00012e+06
-927810
-852939
-776233
-698546
-619863
-541078
-449310
-346775
-266132
-185909
-102744
-23251.7
-1.01331e+06
-1.04166e+06
-1.14725e+06
-1.06304e+06
-1.06838e+06
-1.00709e+06
-988814
-929643
-867169
-799480
-729593
-656976
-583181
-508419
-410636
-334184
-256985
-179175
-98484.4
-21361.3
-798945
-924127
-1.03305e+06
-979726
-995057
-946738
-909916
-854843
-801610
-738754
-676380
-607827
-539059
-467968
-396852
-322906
-248469
-172982
-94639.1
-19782.8
-816012
-868419
-984185
-937427
-941286
-898012
-866227
-817389
-769017
-711591
-652538
-588174
-522400
-454053
-384706
-313044
-240913
-167481
-91177.7
-18252.2
-1.03055e+06
-873132
-969921
-904777
-900788
-858195
-830502
-782843
-739892
-684980
-628993
-568880
-507188
-441323
-374460
-304704
-234493
-162755
-88251
-17071.8
-1.01723e+06
-819475
-910224
-861857
-863638
-824888
-799318
-756268
-715824
-664213
-612000
-553724
-494422
-430922
-365943
-297767
-229079
-158787
-85664.4
-16031.2
-763701
-740999
-831212
-813161
-826919
-794525
-773854
-734988
-697615
-647849
-598819
-542505
-485136
-423038
-359485
-292625
-225177
-155818
-83855.6
-15239.2
-663493
-679260
-794162
-787619
-803721
-776724
-759998
-722923
-686832
-639374
-590883
-535874
-479317
-418084
-355008
-288974
-222136
-153629
-82608.7
-14811.3
-829601
-660139
-763954
-760012
-784151
-764552
-749983
-715532
-680692
-634425
-586731
-532412
-476061
-415249
-352751
-287141
-220839
-152613
-82064.9
-14391
-1.94873e+06
-1.82482e+06
-1.86297e+06
-1.73299e+06
-1.64726e+06
-1.50702e+06
-1.40644e+06
-1.28023e+06
-1.17329e+06
-1.05729e+06
-951102
-841443
-737746
-633216
-532217
-431203
-332833
-234843
-135825
-38234
-2.06834e+06
-1.92179e+06
-1.89229e+06
-1.74127e+06
-1.64448e+06
-1.50245e+06
-1.40249e+06
-1.2756e+06
-1.16913e+06
-1.05369e+06
-948124
-838666
-735434
-631079
-530463
-429709
-331676
-234081
-135279
-37905.6
-2.26661e+06
-1.91938e+06
-1.91912e+06
-1.72321e+06
-1.6446e+06
-1.49739e+06
-1.39818e+06
-1.27033e+06
-1.16459e+06
-1.04872e+06
-942848
-833752
-730809
-627049
-526998
-426768
-329302
-232325
-134037
-37372.2
-2.50123e+06
-2.09777e+06
-1.99342e+06
-1.76149e+06
-1.64864e+06
-1.49977e+06
-1.39016e+06
-1.26264e+06
-1.15465e+06
-1.03923e+06
-933960
-825914
-723883
-621175
-521914
-422599
-325917
-229814
-132288
-36536.2
-2.55493e+06
-2.07542e+06
-1.97132e+06
-1.75239e+06
-1.64615e+06
-1.49364e+06
-1.37918e+06
-1.25121e+06
-1.14177e+06
-1.02683e+06
-921840
-815215
-714342
-613078
-514911
-416792
-321205
-226318
-129867
-35373.1
-2.58633e+06
-2.15208e+06
-2.01801e+06
-1.7714e+06
-1.63707e+06
-1.47862e+06
-1.35888e+06
-1.23293e+06
-1.12145e+06
-1.00928e+06
-905280
-801442
-702172
-603271
-506380
-409851
-315611
-222195
-127010
-34041
-2.41408e+06
-2.0828e+06
-1.94022e+06
-1.71799e+06
-1.59464e+06
-1.44222e+06
-1.32666e+06
-1.20152e+06
-1.09545e+06
-985336
-885362
-783843
-687762
-590862
-495819
-401251
-308788
-217226
-123657
-32568.7
-2.43302e+06
-2.00795e+06
-1.8731e+06
-1.65069e+06
-1.53612e+06
-1.39054e+06
-1.31867e+06
-1.19794e+06
-1.09135e+06
-987403
-888100
-790202
-695226
-601155
-483778
-391798
-301395
-211752
-119958
-30990.2
-2.13478e+06
-1.83305e+06
-1.71075e+06
-1.55104e+06
-1.44879e+06
-1.35588e+06
-1.27798e+06
-1.1687e+06
-1.06678e+06
-969464
-874272
-780470
-688596
-597683
-494417
-381091
-292985
-205703
-115898
-29278.9
-1.91759e+06
-1.65452e+06
-1.5563e+06
-1.42517e+06
-1.36424e+06
-1.28328e+06
-1.20891e+06
-1.11437e+06
-1.02201e+06
-931512
-841973
-753604
-666207
-579331
-480117
-369996
-284226
-199242
-111597
-27219.4
-1.73609e+06
-1.46143e+06
-1.44439e+06
-1.31416e+06
-1.26392e+06
-1.19712e+06
-1.13748e+06
-1.05719e+06
-974777
-891885
-808902
-725853
-642295
-559575
-465419
-358433
-275141
-192573
-107214
-25298.5
-1.15908e+06
-1.19646e+06
-1.22395e+06
-1.15685e+06
-1.15397e+06
-1.10929e+06
-1.06907e+06
-1.00041e+06
-927994
-853011
-776296
-698558
-619967
-541235
-449448
-346819
-266117
-185928
-102715
-23371.4
-1.14949e+06
-1.08051e+06
-1.1511e+06
-1.06325e+06
-1.07102e+06
-1.00669e+06
-988711
-929467
-867035
-799486
-729556
-656937
-583112
-508357
-410594
-334190
-256973
-179173
-98429.1
-21477.3
-847074
-944410
-1.03665e+06
-980246
-997170
-946437
-909978
-854683
-801839
-738979
-676315
-607745
-538945
-467895
-396845
-322901
-248465
-172992
-94556.3
-19837.6
-906078
-897537
-984819
-936375
-942200
-897534
-866475
-817183
-768955
-711458
-652441
-587874
-522250
-454009
-384712
-313043
-240914
-167504
-91160.3
-18376.4
-1.04426e+06
-876710
-969621
-903142
-901813
-858016
-830911
-782757
-739332
-684365
-628936
-568665
-507126
-441284
-374467
-304687
-234503
-162776
-88229.1
-17164.9
-1.10898e+06
-851837
-913529
-861963
-864223
-825280
-800201
-756851
-716058
-664267
-611971
-553923
-494579
-430961
-365942
-297779
-229093
-158796
-85643.3
-16139.3
-795294
-744726
-832947
-813702
-827110
-794793
-774576
-735192
-697757
-648258
-599039
-542672
-485231
-423051
-359497
-292615
-225116
-155824
-83840.6
-15342.9
-739897
-692456
-801531
-787208
-804233
-776628
-760291
-722959
-686836
-639483
-591087
-536023
-479383
-418052
-355009
-288963
-222154
-153630
-82603.5
-14858.2
-761416
-664946
-759275
-757664
-784266
-764367
-750033
-715492
-680657
-634416
-586722
-532381
-476031
-415228
-352751
-287148
-220851
-152613
-82062.1
-14405.1
-2.14199e+06
-1.84578e+06
-1.87025e+06
-1.73502e+06
-1.64885e+06
-1.50592e+06
-1.40668e+06
-1.28024e+06
-1.17379e+06
-1.05763e+06
-951397
-841637
-737866
-633308
-532290
-431259
-332865
-234892
-135865
-38280
-2.10688e+06
-1.93495e+06
-1.89746e+06
-1.74203e+06
-1.64511e+06
-1.50053e+06
-1.4023e+06
-1.27453e+06
-1.16981e+06
-1.05374e+06
-948301
-838686
-735493
-631079
-530475
-429674
-331654
-234093
-135254
-37907.2
-2.20541e+06
-1.96786e+06
-1.9143e+06
-1.73063e+06
-1.64158e+06
-1.49623e+06
-1.39928e+06
-1.26964e+06
-1.16526e+06
-1.04879e+06
-943145
-833848
-730958
-627099
-527065
-426783
-329320
-232376
-134057
-37423.5
-2.50143e+06
-2.10952e+06
-1.99018e+06
-1.76407e+06
-1.64846e+06
-1.49796e+06
-1.39026e+06
-1.26181e+06
-1.15518e+06
-1.03932e+06
-934292
-826031
-724056
-621247
-522010
-422626
-325938
-229873
-132285
-36461.6
-2.58802e+06
-2.07059e+06
-1.97049e+06
-1.74959e+06
-1.64484e+06
-1.49005e+06
-1.37913e+06
-1.25034e+06
-1.14239e+06
-1.02696e+06
-922134
-815289
-714476
-613126
-514997
-416812
-321217
-226358
-129815
-35340.9
-2.65027e+06
-2.14738e+06
-2.01556e+06
-1.76841e+06
-1.63583e+06
-1.47547e+06
-1.35829e+06
-1.23204e+06
-1.12189e+06
-1.00946e+06
-905558
-801452
-702244
-603256
-506424
-409841
-315583
-222209
-126954
-34025.1
-2.3726e+06
-2.06917e+06
-1.93866e+06
-1.71492e+06
-1.59428e+06
-1.44196e+06
-1.32682e+06
-1.20145e+06
-1.09608e+06
-985656
-885720
-783971
-687844
-590900
-495863
-401244
-308766
-217239
-123576
-32555.7
-2.32018e+06
-2.00254e+06
-1.8606e+06
-1.64646e+06
-1.53715e+06
-1.38993e+06
-1.31917e+06
-1.19833e+06
-1.09179e+06
-987579
-888118
-790123
-694970
-600833
-483782
-391800
-301387
-211815
-119940
-30999.1
-2.16023e+06
-1.83245e+06
-1.72072e+06
-1.54904e+06
-1.45041e+06
-1.35726e+06
-1.28024e+06
-1.17033e+06
-1.06768e+06
-969754
-874324
-780396
-688290
-597375
-494322
-381154
-292998
-205788
-115909
-29304.4
-1.86081e+06
-1.6408e+06
-1.55415e+06
-1.42199e+06
-1.36353e+06
-1.28163e+06
-1.20953e+06
-1.115e+06
-1.02221e+06
-931500
-842010
-753517
-666014
-579122
-480179
-370098
-284241
-199294
-111564
-27374.4
-1.76209e+06
-1.45939e+06
-1.4399e+06
-1.30915e+06
-1.26233e+06
-1.19732e+06
-1.13957e+06
-1.05797e+06
-975043
-890999
-808638
-725621
-642735
-560085
-465695
-358567
-275146
-192565
-106990
-25464.8
-1.15507e+06
-1.18654e+06
-1.22288e+06
-1.15619e+06
-1.15872e+06
-1.11071e+06
-1.07031e+06
-1.00111e+06
-928383
-853225
-776450
-698650
-620219
-541526
-449700
-346938
-266089
-185939
-102781
-23591.3
-1.1682e+06
-1.09873e+06
-1.15099e+06
-1.06133e+06
-1.07455e+06
-1.00631e+06
-988555
-929406
-867094
-799772
-729639
-656960
-583088
-508327
-410579
-334198
-256944
-179189
-98411.3
-21672.7
-968621
-970337
-1.04682e+06
-981337
-999661
-945583
-909729
-854216
-801941
-739138
-676290
-607631
-538789
-467767
-396821
-322883
-248448
-173001
-94386.3
-19913
-894171
-916543
-985605
-933469
-944035
-897037
-866583
-816666
-768593
-711089
-652081
-587576
-522083
-453915
-384701
-313019
-240906
-167513
-91022.4
-18526.3
-1.18514e+06
-894696
-983477
-901194
-903542
-857570
-831541
-782502
-738828
-683946
-629006
-568548
-507084
-441208
-374485
-304674
-234506
-162784
-88094.6
-17230.3
-1.10426e+06
-850231
-918663
-860407
-864576
-824450
-801645
-756968
-716208
-664299
-612119
-554015
-494678
-430956
-365966
-297778
-229109
-158807
-85574.5
-16285.2
-831865
-760922
-831326
-812072
-826470
-794074
-775257
-735411
-698023
-648463
-599240
-542762
-485298
-423040
-359511
-292601
-225102
-155803
-83794.7
-15487.8
-745742
-690559
-794093
-785358
-803605
-776448
-760546
-722928
-687089
-639566
-591177
-536036
-479315
-417970
-354969
-288946
-222186
-153707
-82560
-14931.2
-692935
-652780
-754141
-756880
-784149
-764315
-750104
-715458
-680607
-634389
-586686
-532330
-475974
-415176
-352762
-287145
-220872
-152615
-82054.7
-14434.9
-2.21236e+06
-1.89163e+06
-1.87545e+06
-1.73638e+06
-1.64967e+06
-1.50443e+06
-1.40717e+06
-1.2804e+06
-1.17439e+06
-1.05808e+06
-951785
-841874
-738046
-633432
-532419
-431330
-332921
-234962
-135896
-38352.2
-2.12517e+06
-1.94952e+06
-1.89694e+06
-1.7445e+06
-1.64557e+06
-1.50123e+06
-1.40139e+06
-1.27322e+06
-1.17057e+06
-1.05376e+06
-948474
-838666
-735553
-631052
-530463
-429595
-331608
-234112
-135224
-37917.2
-2.25063e+06
-1.97759e+06
-1.91527e+06
-1.73651e+06
-1.63976e+06
-1.49731e+06
-1.3985e+06
-1.26831e+06
-1.16615e+06
-1.04888e+06
-943545
-833933
-731139
-627145
-527153
-426797
-329342
-232446
-134044
-37350.5
-2.56718e+06
-2.10267e+06
-1.98437e+06
-1.76644e+06
-1.64739e+06
-1.4971e+06
-1.38948e+06
-1.26048e+06
-1.15604e+06
-1.03942e+06
-934804
-826154
-724278
-621304
-522122
-422650
-325961
-229946
-132224
-36401.3
-2.46747e+06
-2.07983e+06
-1.96768e+06
-1.75197e+06
-1.64386e+06
-1.48688e+06
-1.37905e+06
-1.24934e+06
-1.14334e+06
-1.02709e+06
-922533
-815361
-714651
-613168
-515096
-416830
-321224
-226395
-129741
-35357.6
-2.74156e+06
-2.14189e+06
-2.01358e+06
-1.76728e+06
-1.63638e+06
-1.47183e+06
-1.35841e+06
-1.23101e+06
-1.12269e+06
-1.00956e+06
-905963
-801463
-702369
-603257
-506476
-409808
-315554
-222218
-126844
-34062.9
-2.39611e+06
-2.06674e+06
-1.93313e+06
-1.712e+06
-1.59423e+06
-1.43982e+06
-1.32733e+06
-1.20135e+06
-1.09717e+06
-986071
-886156
-784105
-687967
-590931
-495910
-401216
-308758
-217285
-123473
-32592
-2.38056e+06
-2.00788e+06
-1.8564e+06
-1.6422e+06
-1.53954e+06
-1.38996e+06
-1.31928e+06
-1.19889e+06
-1.0924e+06
-987837
-888254
-790059
-694782
-600530
-483878
-391842
-301396
-211905
-119904
-31072.7
-2.03643e+06
-1.81282e+06
-1.72505e+06
-1.54599e+06
-1.45255e+06
-1.35862e+06
-1.28286e+06
-1.17166e+06
-1.06849e+06
-969982
-874270
-780232
-687826
-597042
-494230
-381158
-293041
-205906
-115927
-29416.3
-1.89405e+06
-1.64174e+06
-1.56029e+06
-1.42146e+06
-1.36447e+06
-1.28153e+06
-1.21194e+06
-1.11599e+06
-1.02246e+06
-931536
-842043
-753523
-665885
-579015
-480339
-370220
-284255
-199350
-111294
-27607.4
-1.67002e+06
-1.46166e+06
-1.42763e+06
-1.30561e+06
-1.25983e+06
-1.19787e+06
-1.14202e+06
-1.05894e+06
-975404
-892279
-808506
-725932
-643118
-560383
-465989
-358724
-275141
-192567
-106914
-25775.9
-1.21756e+06
-1.19603e+06
-1.22179e+06
-1.15941e+06
-1.16153e+06
-1.11182e+06
-1.07187e+06
-1.00189e+06
-928851
-853557
-776664
-698852
-620507
-541807
-450009
-347074
-266045
-185941
-102726
-23930.9
-1.29916e+06
-1.12175e+06
-1.14722e+06
-1.06403e+06
-1.07709e+06
-1.00551e+06
-988593
-929785
-867491
-800268
-729820
-657014
-583143
-508308
-410519
-334192
-256875
-179205
-98384.9
-21914
-1.042e+06
-970924
-1.05639e+06
-982971
-1.0028e+06
-944301
-909774
-853955
-802274
-739359
-676297
-607512
-538616
-467602
-396781
-322856
-248420
-172998
-94158.8
-19999.6
-815027
-924821
-985203
-932989
-946234
-896470
-866795
-816196
-768102
-710836
-651872
-587381
-521911
-453758
-384657
-312983
-240887
-167496
-90816.6
-18637.6
-1.14671e+06
-918498
-987120
-897902
-905772
-856923
-832391
-782332
-738765
-683783
-629152
-568467
-507072
-441138
-374483
-304651
-234500
-162773
-87891.2
-17293.9
-1.20445e+06
-883537
-927839
-859280
-865748
-824421
-802856
-757154
-716404
-664296
-612284
-554031
-494733
-430945
-365997
-297778
-229115
-158824
-85446.9
-16458
-879613
-767988
-832627
-810535
-826911
-794048
-776397
-735556
-698261
-648536
-599402
-542774
-485351
-423020
-359533
-292575
-225100
-155837
-83733
-15729.4
-621340
-677541
-787278
-782926
-803169
-776451
-760788
-722986
-687202
-639558
-591127
-535884
-479161
-417853
-354923
-288898
-222215
-153747
-82523.5
-15063
-592176
-643912
-748570
-754808
-783960
-764027
-750074
-715408
-680679
-634391
-586656
-532228
-475927
-415165
-352766
-287149
-220910
-152662
-82044.6
-14495.6
-2.2528e+06
-1.89526e+06
-1.87668e+06
-1.73713e+06
-1.64987e+06
-1.50304e+06
-1.40788e+06
-1.28049e+06
-1.175e+06
-1.0583e+06
-952098
-841947
-738124
-633420
-532413
-431287
-332913
-235047
-135954
-38359.2
-2.32531e+06
-1.96358e+06
-1.89936e+06
-1.74632e+06
-1.64578e+06
-1.50201e+06
-1.40112e+06
-1.27104e+06
-1.17156e+06
-1.05383e+06
-948636
-838703
-735698
-631101
-530587
-429609
-331625
-234154
-135189
-37918.9
-2.20606e+06
-1.96963e+06
-1.91572e+06
-1.73869e+06
-1.63808e+06
-1.49792e+06
-1.39802e+06
-1.26619e+06
-1.16726e+06
-1.04881e+06
-943998
-833940
-731322
-627175
-527258
-426791
-329355
-232529
-134010
-37367.7
-2.64189e+06
-2.08947e+06
-1.98587e+06
-1.76726e+06
-1.64662e+06
-1.49683e+06
-1.3882e+06
-1.25908e+06
-1.15696e+06
-1.0393e+06
-935450
-826142
-724493
-621319
-522230
-422653
-325976
-230025
-132194
-36483.5
-2.39667e+06
-2.07775e+06
-1.96395e+06
-1.75389e+06
-1.64209e+06
-1.4866e+06
-1.37641e+06
-1.24817e+06
-1.14477e+06
-1.02702e+06
-922960
-815304
-714813
-613165
-515185
-416825
-321226
-226450
-129690
-35468.8
-2.76273e+06
-2.12539e+06
-2.00812e+06
-1.76908e+06
-1.63567e+06
-1.46941e+06
-1.357e+06
-1.22989e+06
-1.12353e+06
-1.00957e+06
-906463
-801458
-702536
-603258
-506544
-409720
-315526
-222257
-126752
-34199.7
-2.34554e+06
-2.05703e+06
-1.93172e+06
-1.70906e+06
-1.59508e+06
-1.43806e+06
-1.32688e+06
-1.20111e+06
-1.09853e+06
-986503
-886636
-784198
-688094
-590929
-495993
-401215
-308752
-217356
-123376
-32708.1
-2.40122e+06
-2.00846e+06
-1.85347e+06
-1.64053e+06
-1.53881e+06
-1.38962e+06
-1.31992e+06
-1.19876e+06
-1.09293e+06
-988163
-888498
-790169
-694707
-600391
-484090
-391892
-301401
-212007
-119841
-31246.5
-2.08466e+06
-1.80804e+06
-1.7273e+06
-1.54549e+06
-1.45212e+06
-1.36024e+06
-1.28381e+06
-1.17249e+06
-1.06898e+06
-970019
-874206
-780001
-687532
-596688
-494257
-381282
-293078
-206039
-115763
-29611.6
-1.84794e+06
-1.63358e+06
-1.55777e+06
-1.42102e+06
-1.36262e+06
-1.2827e+06
-1.21444e+06
-1.11683e+06
-1.02264e+06
-931511
-842003
-753498
-665844
-578962
-480573
-370419
-284248
-199444
-111195
-27925.4
-1.61584e+06
-1.45276e+06
-1.42665e+06
-1.30237e+06
-1.25971e+06
-1.19865e+06
-1.14377e+06
-1.05973e+06
-975632
-892295
-809232
-726118
-643279
-560510
-466364
-358964
-275117
-192573
-106811
-26187.4
-1.26358e+06
-1.1878e+06
-1.22202e+06
-1.16006e+06
-1.16062e+06
-1.11286e+06
-1.07327e+06
-1.00251e+06
-929187
-853805
-776857
-699072
-620753
-541973
-450336
-347271
-266011
-185979
-102589
-24313.6
-1.22105e+06
-1.12996e+06
-1.14427e+06
-1.06396e+06
-1.08005e+06
-1.00394e+06
-988654
-930302
-867774
-800768
-729820
-656995
-582927
-508235
-410428
-334154
-256818
-179232
-98153.3
-22147.9
-1.11541e+06
-957567
-1.06659e+06
-981900
-1.00529e+06
-942452
-909982
-853585
-802550
-739489
-676317
-607376
-538456
-467425
-396748
-322822
-248386
-173013
-94007.6
-20127.4
-941449
-930459
-991351
-932029
-947987
-895591
-867166
-815769
-768028
-710671
-651821
-587239
-521772
-453601
-384633
-312935
-240867
-167510
-90615.7
-18764.8
-1.16287e+06
-919148
-987959
-895328
-907890
-856065
-833236
-782055
-738983
-683594
-629434
-568359
-507037
-441066
-374512
-304603
-234493
-162785
-87690.1
-17445.7
-1.08036e+06
-868273
-930213
-857331
-866886
-823902
-803825
-757114
-716702
-664216
-612404
-553983
-494763
-430912
-366039
-297767
-229122
-158861
-85285.9
-16657.1
-786493
-764393
-830459
-807371
-826912
-793762
-777036
-735450
-698435
-648482
-599497
-542727
-485392
-422993
-359573
-292547
-225107
-155890
-83644
-16039.9
-666462
-675182
-787163
-781267
-802797
-775928
-760932
-722856
-687199
-639411
-591082
-535745
-479116
-417851
-354989
-288935
-222253
-153808
-82473
-15291.2
-388581
-625562
-744204
-752194
-783617
-763605
-749989
-715259
-680646
-634294
-586593
-532171
-475865
-415098
-352827
-287165
-220928
-152708
-82019.7
-14588.7
-864298
-899549
-839184
-931518
-864329
-899443
-839142
-775536
-818045
-755625
-842043
-775545
-817976
-755610
-829332
-862787
-804127
-890848
-829152
-862995
-804280
-748499
-784512
-725284
-808435
-748474
-784636
-725388
-1.19628e+06
-1.2271e+06
-1.15211e+06
-1.27744e+06
-1.1971e+06
-1.22749e+06
-1.15229e+06
-1.09249e+06
-1.12792e+06
-1.05686e+06
-1.16828e+06
-1.09285e+06
-1.12806e+06
-1.05691e+06
-994858
-1.03346e+06
-964250
-1.06656e+06
-995092
-1.03352e+06
-964264
-899282
-941313
-872859
-969416
-899397
-941301
-872860
-805348
-850208
-782935
-874290
-805415
-850208
-782917
-713093
-760671
-694479
-780508
-713087
-760618
-694373
-622258
-672558
-606513
-688656
-622086
-672391
-606371
-532081
-584442
-518274
-597747
-532077
-584287
-518206
-1.13781e+06
-1.15727e+06
-1.09286e+06
-1.20871e+06
-1.1378e+06
-1.15676e+06
-1.09291e+06
-1.04482e+06
-1.07148e+06
-1.0077e+06
-1.1143e+06
-1.04486e+06
-1.07156e+06
-1.00777e+06
-954048
-986461
-922921
-1.02198e+06
-954061
-986506
-922935
-864239
-901804
-838383
-931514
-864239
-901760
-838440
-775612
-817273
-753744
-841971
-775600
-817325
-753843
-688139
-732610
-668989
-753619
-688025
-732660
-669057
-601120
-647797
-584864
-666250
-601102
-647882
-584977
-514243
-564113
-501916
-579393
-514262
-564242
-502103
-1.07711e+06
-1.08705e+06
-1.03247e+06
-1.137e+06
-1.07747e+06
-1.08749e+06
-1.03277e+06
-995337
-1.01415e+06
-958391
-1.05705e+06
-995427
-1.01435e+06
-958498
-912608
-939471
-881973
-974737
-912630
-939585
-882009
-829667
-862619
-803929
-891894
-829634
-862639
-803956
-746625
-784360
-725216
-808928
-746709
-784386
-725228
-662975
-705390
-645427
-725830
-663099
-705393
-645490
-579631
-625399
-565391
-642188
-579907
-625496
-565593
-497626
-545520
-486000
-559422
-497847
-545697
-486139
-1.01786e+06
-1.02113e+06
-974836
-1.06874e+06
-1.01808e+06
-1.02097e+06
-974682
-946200
-958321
-910113
-1.00028e+06
-946286
-958179
-910107
-871850
-892855
-841836
-927922
-871911
-892806
-841895
-795481
-823464
-770688
-852978
-795522
-823394
-770693
-718074
-751500
-697454
-776264
-718094
-751481
-697484
-639603
-677496
-622450
-698548
-639647
-677492
-622449
-560758
-602368
-546826
-619926
-560881
-602348
-546851
-481577
-526479
-471047
-541175
-481683
-526480
-471135
-1.1976e+06
-1.22776e+06
-1.15245e+06
-1.27925e+06
-1.19909e+06
-1.22856e+06
-1.15329e+06
-1.09311e+06
-1.12818e+06
-1.05697e+06
-1.16992e+06
-1.09396e+06
-1.12879e+06
-1.05723e+06
-995236
-1.03355e+06
-964274
-1.06745e+06
-995732
-1.03372e+06
-964312
-899438
-941295
-872863
-969696
-899644
-941297
-872893
-805430
-850209
-782905
-874334
-805557
-850217
-782865
-713052
-760594
-694305
-780437
-712936
-760512
-694062
-622009
-672301
-606278
-688385
-621777
-671973
-605942
-532049
-584190
-518167
-597457
-532028
-583915
-518151
-1.13787e+06
-1.15709e+06
-1.09302e+06
-1.20897e+06
-1.13839e+06
-1.1575e+06
-1.09355e+06
-1.0449e+06
-1.07164e+06
-1.00782e+06
-1.1148e+06
-1.0451e+06
-1.07206e+06
-1.00804e+06
-954064
-986548
-922958
-1.02215e+06
-954068
-986735
-923149
-864243
-901734
-838509
-931509
-864278
-902103
-839103
-775596
-817388
-753923
-841994
-775556
-817891
-753597
-687983
-732687
-669116
-753543
-687862
-732601
-669317
-601049
-647979
-585088
-666060
-600856
-648289
-585485
-514238
-564357
-502137
-579164
-514262
-564694
-502362
-1.07768e+06
-1.08788e+06
-1.03296e+06
-1.13889e+06
-1.07846e+06
-1.08887e+06
-1.0337e+06
-995478
-1.01449e+06
-958578
-1.05775e+06
-995710
-1.01506e+06
-958900
-912655
-939652
-882041
-974967
-912832
-939910
-882179
-829614
-862658
-803986
-892337
-829297
-862752
-804095
-746783
-784410
-725245
-808512
-746570
-784491
-725286
-663170
-705404
-645534
-725761
-663403
-705448
-645715
-580085
-625557
-565688
-642631
-580542
-625785
-565987
-497892
-545784
-486177
-559977
-498173
-546066
-486434
-1.01824e+06
-1.02128e+06
-974812
-1.06976e+06
-1.01885e+06
-1.02096e+06
-974771
-946366
-958227
-910193
-1.00092e+06
-946705
-958084
-910286
-871957
-892871
-842013
-928273
-872151
-892924
-842289
-795561
-823423
-770759
-853161
-795718
-823501
-770929
-718110
-751516
-697529
-776410
-718179
-751616
-697672
-639680
-677509
-622465
-698620
-639833
-677562
-622534
-560949
-602357
-546883
-620146
-561183
-602388
-547000
-481721
-526500
-471158
-541450
-481973
-526568
-471345
-1.19967e+06
-1.22913e+06
-1.15366e+06
-1.28222e+06
-1.20103e+06
-1.2309e+06
-1.15485e+06
-1.09425e+06
-1.12906e+06
-1.05733e+06
-1.17137e+06
-1.09506e+06
-1.12994e+06
-1.0577e+06
-995906
-1.03379e+06
-964330
-1.06832e+06
-996401
-1.03403e+06
-964421
-899679
-941302
-872910
-969960
-899794
-941342
-872946
-805572
-850226
-782851
-874309
-805632
-850246
-782831
-712869
-760483
-693985
-780294
-712667
-760417
-693770
-621701
-671865
-605850
-687959
-621504
-671598
-605642
-531970
-583840
-518107
-597134
-531994
-583669
-518172
-1.13867e+06
-1.15795e+06
-1.0938e+06
-1.21116e+06
-1.13968e+06
-1.15926e+06
-1.09468e+06
-1.04518e+06
-1.07225e+06
-1.00813e+06
-1.11573e+06
-1.04547e+06
-1.07292e+06
-1.00844e+06
-954065
-986806
-923200
-1.0224e+06
-954101
-987048
-923333
-899655
-909100
-921581
-931479
-899708
-909105
-921461
-811954
-819762
-833830
-842029
-811882
-819772
-833904
-687824
-732518
-669384
-753508
-687740
-732565
-669610
-600803
-648385
-585588
-665905
-600692
-648669
-585853
-514225
-564782
-502369
-579034
-514328
-564990
-502593
-1.07876e+06
-1.08942e+06
-1.03397e+06
-1.14135e+06
-1.07973e+06
-1.09056e+06
-1.03482e+06
-995808
-1.01528e+06
-959022
-1.0587e+06
-996142
-1.01594e+06
-959417
-912855
-940009
-882231
-975312
-913008
-940331
-882467
-862352
-870373
-882617
-887646
-862452
-864598
-882586
-779420
-788163
-800487
-806683
-779853
-786841
-800157
-663474
-705458
-645784
-725722
-663712
-705575
-645994
-580664
-625866
-566082
-643014
-580940
-626097
-566329
-498209
-546157
-486477
-560328
-498473
-546399
-486753
-1.01908e+06
-1.02142e+06
-974923
-1.0713e+06
-1.01982e+06
-1.0212e+06
-975179
-946841
-958150
-910409
-1.00169e+06
-947265
-958304
-910787
-872230
-893045
-842478
-928737
-872513
-893332
-842989
-795774
-823597
-771029
-853468
-795963
-823897
-771324
-718208
-751689
-697753
-776603
-718348
-751888
-697995
-639897
-677599
-622585
-698793
-640097
-677719
-622801
-561263
-602426
-547073
-620437
-561483
-602592
-547317
-482031
-526614
-471380
-541743
-482350
-526760
-471674
-1.20144e+06
-1.23166e+06
-1.15524e+06
-1.28356e+06
-1.20236e+06
-1.23324e+06
-1.15623e+06
-1.0953e+06
-1.13022e+06
-1.05782e+06
-1.17235e+06
-1.09595e+06
-1.13096e+06
-1.05812e+06
-996528
-1.03412e+06
-964454
-1.0689e+06
-996839
-1.03433e+06
-964509
-899795
-941358
-872944
-970048
-899912
-941361
-872899
-805623
-850243
-782827
-874218
-805593
-850202
-782777
-712571
-760400
-693727
-780075
-712446
-760314
-693640
-621440
-671548
-605592
-687588
-621288
-671452
-605491
-531890
-583628
-518108
-596795
-531952
-583546
-518255
-1.14004e+06
-1.1599e+06
-1.09499e+06
-1.21382e+06
-1.141e+06
-1.16146e+06
-1.09586e+06
-1.04556e+06
-1.07316e+06
-1.00854e+06
-1.11666e+06
-1.0458e+06
-1.07378e+06
-1.00878e+06
-954125
-987130
-923344
-1.02261e+06
-954141
-987300
-923334
-864322
-902117
-839111
-931529
-864286
-902035
-838721
-775569
-817875
-753433
-842022
-775573
-817567
-754094
-687727
-732722
-669705
-753517
-687698
-732954
-669832
-600668
-648739
-585903
-665846
-600617
-648865
-585983
-514271
-565045
-502564
-578973
-514447
-565111
-502762
-1.08005e+06
-1.09113e+06
-1.03509e+06
-1.1434e+06
-1.08093e+06
-1.09203e+06
-1.03581e+06
-996253
-1.01616e+06
-959545
-1.05958e+06
-996510
-1.01672e+06
-959858
-913039
-940439
-882561
-975597
-913102
-940700
-882764
-829307
-863088
-804351
-892210
-829909
-863289
-804525
-746565
-784702
-725460
-809138
-746970
-784865
-725598
-663817
-705642
-646060
-726127
-663945
-705785
-646250
-581006
-626164
-566394
-643253
-581130
-626368
-566534
-498474
-546463
-486770
-560491
-498698
-546593
-487034
-1.02006e+06
-1.02163e+06
-975381
-1.07287e+06
-1.02071e+06
-1.02166e+06
-975806
-947401
-958458
-910999
-1.00239e+06
-947735
-958868
-911550
-872613
-893502
-843209
-929128
-872846
-893865
-843720
-796030
-824035
-771455
-853762
-796200
-824376
-771775
-718408
-751980
-698102
-776819
-718563
-752191
-698340
-640165
-677779
-622912
-699014
-640368
-677942
-623117
-561547
-602687
-547432
-620719
-561696
-602852
-547709
-482399
-526828
-471726
-541948
-482728
-527022
-472064
-1.20257e+06
-1.23365e+06
-1.15646e+06
-1.28434e+06
-1.20293e+06
-1.23404e+06
-1.15666e+06
-1.09614e+06
-1.13113e+06
-1.05819e+06
-1.17276e+06
-1.09659e+06
-1.13125e+06
-1.05821e+06
-996871
-1.03437e+06
-964505
-1.06939e+06
-996992
-1.03433e+06
-964389
-899986
-941342
-872871
-970139
-900275
-941195
-872765
-805550
-850176
-782746
-874452
-805522
-850069
-782701
-712455
-760288
-693623
-780005
-712589
-760250
-693642
-621213
-671436
-605472
-687643
-621143
-671429
-605462
-531890
-583528
-518179
-596620
-531974
-583490
-518202
-1.14124e+06
-1.16195e+06
-1.09609e+06
-1.21537e+06
-1.14145e+06
-1.16257e+06
-1.09628e+06
-1.04585e+06
-1.07394e+06
-1.00883e+06
-1.11695e+06
-1.04583e+06
-1.07405e+06
-1.00879e+06
-954131
-987330
-923333
-1.02257e+06
-954007
-987246
-923220
-864263
-902091
-838707
-931376
-864153
-902058
-838736
-775552
-817553
-754057
-841901
-775492
-817568
-753886
-687693
-732940
-669858
-753461
-687753
-732775
-669992
-600606
-648892
-585995
-665889
-600600
-649032
-586017
-514377
-565120
-502702
-578941
-514419
-565120
-502720
-1.08116e+06
-1.0923e+06
-1.03599e+06
-1.14424e+06
-1.08133e+06
-1.09264e+06
-1.03606e+06
-996565
-1.01686e+06
-959926
-1.05983e+06
-996523
-1.01689e+06
-959890
-913120
-940756
-882806
-975551
-913033
-940697
-882762
-830009
-863331
-804572
-892299
-830183
-863305
-804637
-746930
-784906
-725623
-809373
-746752
-784979
-725667
-663969
-705829
-646288
-725937
-664102
-705893
-646422
-581146
-626402
-566560
-643419
-581176
-626487
-566590
-498659
-546616
-487014
-560527
-498710
-546639
-487081
-1.02087e+06
-1.02198e+06
-975997
-1.07383e+06
-1.0209e+06
-1.0223e+06
-975844
-947808
-959060
-911746
-1.0025e+06
-947775
-958799
-911460
-872896
-893989
-843866
-929137
-872869
-893886
-843750
-796241
-824493
-771868
-853776
-796273
-824534
-771684
-718613
-752257
-698387
-776892
-718716
-752141
-698197
-640407
-677985
-623163
-699185
-640513
-677962