/*--------------------------------*- C++ -*----------------------------------*\
  =========                 |
  \\      /  F ield         | OpenFOAM: The Open Source CFD Toolbox
   \\    /   O peration     | Website:  https://openfoam.org
    \\  /    A nd           | Version:  10
     \\/     M anipulation  |
\*---------------------------------------------------------------------------*/
FoamFile
{
    format      ascii;
    class       surfaceScalarField;
    location    "3.2";
    object      phi_0;
}
// * * * * * * * * * * * * * * * * * * * * * * * * * * * * * * * * * * * * * //

dimensions      [0 3 -1 0 0 0 0];

internalField   nonuniform List<scalar> 
38556
(
523.576
712.016
-2121.88
897.735
886.165
-1260.32
953.935
445.522
-501.722
753.422
238.39
-37.8763
463.794
131.301
158.327
409.827
68.3002
-14.3331
396.266
-45.383
58.9439
439.541
-126.736
83.4608
504.769
-209.689
144.462
573.765
-184.483
115.487
644.137
-170.712
100.34
708.628
-143.12
78.6297
769.007
-125.993
65.6145
828.467
-102.486
43.0255
883.378
-88.0658
33.155
935.707
-68.7483
16.4189
987.712
-60.7086
8.70344
1031.86
-48.8286
4.68538
1089.2
-54.8741
-2.47203
-43.6074
0.40794
328.725
1208.1
477.541
791.216
432.432
-8.75889
823.357
442.824
-29.4419
943.577
192.264
-74.0946
1042.76
108.173
-76.0595
1221.06
55.0662
-165.06
1056.25
-3.13572
122.564
818.71
-48.4648
159.265
586.898
-166.89
189.013
533.105
-186.958
56.2681
554.813
-209.903
17.4825
585.297
-175.939
2.33488
619.663
-158.431
-1.92769
649.703
-123.931
-8.59488
679.436
-107.232
-10.5662
707.909
-81.0437
-16.1775
736.712
-71.5106
-18.0015
762.805
-55.0024
-19.9189
786.469
-50.5813
-27.9567
-37.6703
-21.108
-2123.15
747.602
1723.45
-543.091
283.261
-1430.89
351.078
10.3122
-461.658
513.219
20.3571
9.76586
591.695
-162.722
192.419
678.389
-121.922
90.2938
610.266
-188.473
253.461
597.454
-150.205
114.553
588.242
-232.679
75.0007
606.378
-234.638
29.5437
618.411
-256.541
34.6057
625.813
-209.605
26.2626
631.556
-186.848
22.6742
637.948
-144.222
13.899
647.295
-127.011
10.4319
659.679
-105.576
12.1477
672.995
-98.14
13.3137
687.015
-85.134
16.1115
702.082
-79.6721
14.0234
-57.4138
9.36484
-1634.34
166.658
-409.154
-565.12
-365.049
-420.908
502.972
-591.883
-465.897
717.9
-341.56
146.988
577.114
-334.737
312.801
520.124
-200.239
135.307
516.853
-287.294
102.092
561.564
-210.48
15.5639
618.094
-307.915
18.7057
652.362
-276.627
7.72098
667.165
-295.64
24.2959
667.59
-230.627
20.5972
655.111
-203.336
28.9669
639.24
-149.432
21.0813
629.184
-133.785
16.8304
624.887
-112.079
10.8008
626.234
-107.783
8.29603
631.344
-98.2232
7.97865
641.225
-94.4592
4.90627
-70.9263
4.34949
572.794
1764.03
1448.86
770.353
-671.822
109.215
1180.33
-590.405
-411.456
1666.1
-452.02
-375.308
1697.27
-347.889
-18.0235
1479.92
-116.054
133.171
1030.71
-152.495
314.409
820.859
-135.677
135.047
744.798
-290.785
58.9315
721.772
-273.985
20.3838
708.712
-299.566
16.985
703.485
-229.44
4.04006
684.612
-197.072
12.6093
659.78
-135.534
10.9341
635.824
-124.246
14.4167
620.581
-106.088
9.25218
615.977
-107.973
4.7943
617.778
-103.153
3.1281
626.399
-102.131
-0.948959
-76.394
-3.38935
-267.744
1034.32
-755.263
104.954
-654.607
-389.913
673.987
-589.765
-569.674
880.689
-386.053
-272.669
827.839
-171.13
-123.908
747.1
48.7368
-84.0521
653.024
-81.2072
22.7885
610.696
-96.2075
2.85938
603.573
-301.246
17.5824
598.143
-277.057
8.50236
603.144
-309.818
5.2505
609.554
-225.873
-9.9766
614.547
-195.58
-6.48457
605.909
-125.862
-1.03463
592.997
-115.651
4.31717
587.513
-102.214
1.60959
590.077
-109.034
-1.50227
598.197
-110.381
-0.892397
611.222
-110.779
-4.37698
-81.3904
-5.06331
1786.43
-1915.07
25.7838
739.787
-435.811
827.851
972.267
-352.495
-469.75
909.456
-199.969
-123.272
865.591
-53.1142
-74.1518
834.859
116.46
-36.9909
815.386
0.894533
43.3268
-48.1459
-2.31149
-55.4985
777.617
-35.2627
71.0777
-26.0934
-39.0876
-29.0729
696.377
-54.0745
66.3683
-84.9394
-58.882
-88.4772
651.246
-76.0093
48.1753
-67.3526
-74.1715
-62.568
616.479
-74.4166
25.4973
-80.7376
-69.5702
-75.8239
594.388
-61.6491
4.55957
-47.9791
-55.5782
-43.1354
575.227
-43.3612
-5.49776
-43.5534
-41.0721
-42.9344
571.645
-30.5754
-8.61073
-25.6512
-30.308
-27.1348
578.304
-117.075
-5.23515
591.045
-108.254
-6.7011
608.513
-124.259
-2.24277
624.281
-124.804
-1.34459
637.51
-122.042
-1.96666
-87.6519
-1.3751
1322.4
-1739.93
2906.53
645.564
116.494
124.528
581.101
-176.946
-111.086
723.372
-279.426
-62.8138
839.889
-287.793
118.162
237.906
-43.7815
85.2675
223.865
232.721
218.859
16.7015
-37.9425
22.7546
217.236
19.1996
2.36446
-194.39
193.643
-43.2234
8.7072
-199.082
188.467
-50.1891
6.72977
-174.095
170.748
-79.7172
7.05468
-171.793
166.277
-73.1135
4.21263
-159.958
157.088
-64.3346
5.55524
-154.822
146.795
-38.2564
2.92276
-140.702
138.378
-27.2291
-1.02144
583.24
-29.4155
-18.8376
-139.827
-144.342
-135.678
-139.293
-29.0674
-31.4387
-32.4168
624.474
-129.492
-19.9947
657.794
-145.813
-11.7669
672.985
-136.442
-3.55345
675.168
-124.538
0.313179
-82.8573
-3.78547
1589.61
564.669
-1393.3
1220.96
601.791
-116.649
826.957
139.597
77.46
640.232
-201.392
108.69
146.688
-265.349
98.1069
115.151
153.819
104.024
164.072
-69.9756
8.8095
0.609296
-52.416
49.8862
-3.28423
5.2048
-47.8568
16.9449
48.8273
-20.5441
2.62864
-55.6148
17.9569
57.9075
-22.5177
2.26811
-60.7151
20.6674
60.441
-22.0942
1.70088
-58.6469
16.4317
57.1929
-14.9224
-0.0553922
-52.2998
15.3773
50.5017
-14.5009
0.921623
-45.4323
8.86904
43.2995
-8.31844
1.58218
-38.6989
5.53742
37.6955
-4.24058
-0.293387
-38.1163
155.956
-25.356
-5.74211
-38.9862
-38.1346
-39.0361
703.439
-148.486
-23.0495
-161.841
-172.35
-159.508
-167.697
727.322
-152.995
-16.7002
737.325
-140.788
-5.65635
728.255
-118.365
2.89666
-64.2453
-8.21763
1163.13
743.472
-994.035
1089.73
503.06
172.132
1110.44
195.935
-77.0467
1078.91
50.9415
-220.806
208.62
-30.0965
16.5091
186.945
224.365
207.218
73.4502
203.358
-48.7198
-19.4688
21.47
-51.901
51.1863
-19.4719
-1.28339
27.8636
-51.7598
50.7837
-26.6461
-0.241439
27.9222
-41.9356
39.4403
-25.3144
-0.112502
22.7416
-37.7501
38.4395
-22.8515
-0.579447
16.1841
-44.0693
46.2596
-18.3193
-0.0550939
11.8792
-49.265
49.063
-11.874
0.196796
5.94309
-48.0878
47.4113
-5.32863
0.0620013
2.23232
-44.351
43.6789
-1.42662
-0.133536
-44.0399
24.1884
184.769
-24.1308
-4.34664
-46.3995
-43.8423
-46.1981
752.708
-148.542
-6.03342
-186.503
-193.44
-180.352
-186.324
751.147
-143.122
-8.31135
751.095
-124.635
-16.101
735.48
-90.5939
-12.1562
-22.3235
-26.493
137.077
-998.306
456.915
485.602
-542.609
697.143
576.226
-211.6
316.911
561.686
-87.6969
153.178
92.8161
-117.296
265.616
90.5291
99.0131
100.911
46.1846
85.2308
-34.495
-4.10421
16.0327
-27.6933
26.9122
-15.532
0.280484
20.3315
-33.1758
36.0847
-22.9203
-0.320102
26.2346
-44.5933
46.6748
-28.1755
-0.14059
25.8316
-51.1288
51.5282
-25.9127
-0.318309
25.4726
-51.8724
51.7846
-25.5692
0.184457
15.5967
-48.7221
47.0421
-15.7605
1.84374
5.9222
-44.7773
45.0989
-6.45701
0.213268
1.95468
-47.1918
47.6916
-2.7329
0.278397
-48.0952
25.2683
187.773
-27.9919
6.00958
-48.3994
-47.3244
-47.2396
651.222
-136.462
19.0923
-178.373
-169.089
-172.371
-162.56
622.483
-120.366
5.98156
617.329
-97.5354
-21.9448
622.938
-58.8704
-37.3326
17.73
-40.8898
2179.31
19.3757
331.155
1855.06
-863.504
645.136
1100.81
-342.581
885.237
895.274
-125.901
243.739
186.998
-292.131
263.478
203.868
199.135
216.631
60.6948
203.427
-81.0868
3.96267
30.1775
-59.76
61.7646
-31.7301
-0.452002
29.3215
-66.7415
66.8611
-29.7458
0.304706
30.028
-65.0657
64.5163
-29.911
0.432337
24.5227
-60.671
58.5407
-24.1642
1.7718
23.665
-48.6729
45.3285
-21.6905
1.36985
13.5374
-40.1752
39.4925
-12.8054
-0.0493716
8.59525
-39.1221
39.2681
-9.0308
0.289577
7.28432
-39.6035
39.5466
-7.83068
0.60321
-38.5666
30.7039
150.769
-31.3663
3.08439
-38.297
-38.48
-37.8471
560.662
-127.243
6.56245
-144.444
-147.362
-141.284
-143.353
548.52
-103.303
-4.92099
550.275
-85.638
-13.6527
570.276
-47.6716
-31.1992
25.6557
-27.5256
1848.29
-973.614
-1668.34
1808.26
-359.442
-464.034
1590.38
-112.33
-12.3676
1456.45
-7.23645
15.2648
1305.9
-330.235
188.653
323.14
-606.855
52.1512
118.103
181.756
116.726
179.247
315.626
314.169
311.837
41.8106
313.599
-160.211
4.73224
41.2493
41.0144
40.9448
34.1605
-302.148
289.59
-133.746
7.61708
34.1121
35.3512
35.063
29.7909
-282.229
275.222
-114.891
3.84832
29.3051
29.7762
29.1774
20.4246
-251.103
220.364
-63.382
14.5633
19.6087
20.1366
19.3876
14.8414
-196.473
175.86
-50.8308
13.4174
14.2939
14.8984
13.9928
10.4528
-153.118
145.783
-37.6196
3.98532
10.231
10.2331
10.0525
8.93358
-144.683
145.681
-36.6885
0.806334
8.64152
8.81944
8.49003
8.16736
-141.633
142.018
-33.7327
0.631434
8.27419
8.08676
8.18835
557.357
-124.648
4.59035
29.4834
32.9261
28.3291
31.7723
-139.406
-145.645
-133.476
-141.283
550.172
-123.734
3.67602
545.487
-101.51
2.89281
542.494
-83.5159
0.870609
557.403
-46.8528
-15.7275
14.6032
-12.5382
1783.13
-2052.58
-1361.14
2140.81
-300.585
-416.535
1865.44
45.4236
117.614
1769.44
76.85
11.9207
1529.25
-215.269
125.226
1352
-409.254
-20.3557
1226.3
-416.949
2.71691
144.555
132.204
139.574
123.596
1123.6
-429.106
33.398
122.452
132.238
116.062
127.657
984.611
-266.781
85.2096
93.4087
72.1308
88.5869
66.4378
847.987
-216.14
119.235
52.8083
64.9875
51.6371
64.0965
731.075
-79.8713
63.8738
37.1871
31.3234
34.8112
29.5871
659.208
-115.061
33.9069
32.4027
45.0506
32.0204
43.5481
619.571
-95.8153
12.8408
31.2346
31.4596
29.758
30.1589
597.871
-124.808
7.13208
31.0047
39.6042
30.2827
38.4848
584.079
-115.431
4.57481
571.743
-116.403
5.00495
562.549
-97.6696
5.35316
550.169
-77.6012
6.46485
554.144
-47.9462
-2.88097
-3.77479
0.304484
1549.42
-414.157
-1034.44
1963.96
-420.564
-294.556
1955.69
-176.649
230.337
1916
-60.2287
176.775
1622.41
-92.2289
170.546
1410.26
-227.035
29.9293
1276.79
-258.397
-25.0817
1189.04
-264.737
-76.6154
1092.02
-130.674
-39.0938
956.122
-101.808
21.5708
806.85
0.235797
69.1646
704.68
-44.8659
31.9752
652.315
-47.3821
3.93186
617.957
-85.6221
-4.82859
599.105
-92.6984
-3.87981
584.635
-101.37
-0.563572
572.321
-86.741
1.3861
558.549
-66.1848
2.35553
552.203
-44.1956
2.59493
-15.3815
4.75457
461.029
-1199.2
-1469.34
1125.71
-476.964
-608.279
1326.85
-221.346
-156.441
1424.6
-33.7588
-124.22
1286.1
43.2514
3.02035
1123.22
-45.1785
-18.9834
920.456
-100.46
44.8299
806.833
-131.407
-19.7074
740.585
-27.0094
-37.4175
696.581
-27.3192
-30.4842
681.466
18.3824
-3.03206
668.74
-19.3115
-12.8278
664.649
-31.0215
-12.2697
653.243
-60.2024
-14.0138
638.076
-72.5562
-4.97524
618.209
-81.3517
-0.151724
602.505
-75.5821
4.54487
590.818
-56.4984
2.0005
585.432
-40.8904
2.08071
-21.0635
1.99263
872.8
-2066.86
-2128.67
1374.76
-753.989
-224.934
1735.42
-337.516
-244.487
1942.11
17.41
-257.861
1841.1
214.438
-70.1768
1535.31
204.789
55.819
1002.55
168.132
264.166
736.094
39.0445
96.0091
691.26
36.8512
-19.0261
675.219
6.24802
-17.5267
696.621
12.4536
-15.4734
711.389
-17.8704
-16.2091
732.165
-35.0553
-16.7416
741.564
-61.7841
-7.81787
732.979
-66.2919
2.32059
699.136
-62.9402
15.4325
654.297
-46.0625
15.3188
624.388
-27.2321
0.643132
608.362
-18.4923
-6.37263
-7.4478
-10.0417
1234.37
-1971.07
338.283
1106.91
-791.126
164.599
1522.04
-340.145
-412.5
1752.08
72.5391
-285.171
1623.74
348.155
-5.3769
1322.67
359.492
146.371
967.674
331.664
191.462
807.16
164.343
35.2147
780.669
85.218
-21.8754
779.403
36.4878
-28.9739
802.891
8.18672
-19.2211
822.239
-19.6503
-17.5684
841.378
-42.6036
-11.5903
849.091
-61.0093
-8.48791
845.384
-57.7435
-4.84137
815.588
-37.0241
3.88036
761.186
-4.17027
12.5095
717.737
14.7529
1.46422
692.565
17.3988
-10.7196
16.2443
-16.5098
1736.01
668.57
254.025
925.168
-12.5461
32.2634
990.056
-123.688
-281.345
1046.38
99.3413
-83.131
1021.21
300.059
73.2705
961.682
329.399
89.621
918.937
274.751
99.6592
869.014
188.5
25.7663
843.854
124.276
-13.8982
821.357
96.759
-37.7745
815.752
67.0036
-53.2122
807.555
52.0866
-63.5393
814.717
11.2748
-61.0408
831.476
-22.2995
-55.4688
848.028
-37.9057
-36.3894
852.44
-21.6021
-19.8342
843.914
6.39795
-2.04218
828.461
24.7246
5.48086
804.306
37.6235
3.93049
37.7205
-7.29928
1722.03
-3281
2199.55
-490.072
1624.05
451.814
1288.81
434.585
1196.83
392.031
1226.82
299.412
1270.16
231.408
1297.74
160.922
1310.21
111.809
1325.47
81.4958
1330.96
61.5128
1331.95
51.1011
1294.56
48.6661
1230.81
41.4466
1172.46
20.4507
1136.49
14.3636
1123.91
18.9812
1126.85
21.7778
1140.19
24.2837
25.05
629.036
-415.08
-2749.82
474.652
57.0642
-1163
631.3
-4.38926
-653.981
562.56
60.307
-29.4434
431.351
51.0229
238.513
370.737
5.13621
41.1451
325.667
-85.3713
189.385
385.929
-144.354
167.553
482.977
-164.575
211.988
565.926
-126.783
159.322
643.798
-112.015
134.482
712.815
-89.4413
99.054
774.788
-77.2545
80.8955
832.126
-63.4873
49.1752
881.932
-54.2245
37.574
927.056
-45.255
16.5491
969.582
-39.5789
5.757
1009.3
-31.7041
-3.33001
1049.25
-24.3745
-18.042
-14.5257
-10.2319
613.62
424.239
77.7687
474.536
-92.2905
279.68
247.155
182.412
11.138
299.534
79.939
-146.106
357.738
25.5526
-108.793
444.134
-64.2596
-182.06
432.728
-114.924
163.523
403.89
-107.453
151.203
413.537
-156.464
171.256
439.501
-133.052
36.5726
480.896
-142.87
6.94333
517.025
-111.361
-11.8752
555.241
-102.77
-14.6274
585.736
-79.8465
-22.7311
614.17
-69.991
-23.2334
637.585
-56.002
-28.8458
658.84
-50.0431
-28.7922
677.324
-39.588
-30.5183
692.54
-35.3588
-32.1891
-23.0844
-22.1646
887.197
-437.275
-2968.87
-556.644
166.046
-245.382
-19.4513
-51.536
-764.902
-16.5143
7.14397
79.6241
185.781
-193.629
209.305
251.375
-142.912
103.351
319.877
-232.205
302.239
365.804
-153.273
114.445
411.892
-215.206
87.6542
445.201
-169.381
32.5646
479.197
-180.595
38.3336
501.052
-131.617
24.6639
522.55
-123.368
21.7752
538.786
-93.514
11.3301
556.155
-86.4394
9.51174
571.98
-69.4575
9.7779
586.749
-63.2715
11.7737
599.878
-50.797
14.1917
609.805
-42.2666
11.0036
-23.2748
4.25319
-239.789
-458.565
202.353
-249.408
-219.732
-25.5114
24.8781
-483.956
-307.763
195.759
-213.036
196.287
230.113
-269.126
353.944
242.25
-151.719
131.978
309.832
-292.996
95.3013
353.555
-202.931
21.4988
421.657
-289.086
24.4835
454.935
-205.489
10.5512
485.83
-216.209
29.0159
498.479
-144.315
20.6465
509.946
-135.364
29.4956
514.44
-96.5461
19.619
521.515
-93.0666
16.3826
528.43
-75.4847
9.91285
536.071
-71.0181
8.40156
544.235
-58.3942
7.41169
551.964
-48.4548
3.36618
-23.7531
-0.0621346
-215.588
-964.292
2370.18
265.51
-693.561
101.946
495.818
-583.634
-542.086
671.716
-367.394
-396.848
676.322
-297.667
5.91244
631.382
-97.0597
123.452
551.693
-232.437
333.539
525.003
-177.892
136.699
508.954
-295.248
81.1426
514.728
-214.007
23.1278
521.527
-227.466
21.4427
524.642
-147.768
4.37919
523.847
-136.402
14.4418
519.833
-92.6706
11.0723
518.248
-91.9422
14.8778
518.99
-76.1612
9.18664
522.777
-76.035
6.02381
528.636
-64.8824
3.75712
536.008
-55.5179
-1.25762
-25.202
-7.00846
152.573
-1535.88
-993.635
483.853
-801.952
-612.803
432.444
-614.247
-487.651
462.168
-427.399
-242.388
378.878
-282.711
-55.5749
359.687
-91.7921
-70.1291
399.634
-288.397
38.8017
392.29
-180.082
12.3946
418.413
-325.171
21.3818
429.247
-224.343
8.00447
450.807
-248.933
5.15722
460.476
-158.237
-9.17651
471.57
-149.64
-4.34056
476.215
-97.4794
-0.871002
482.248
-98.562
4.904
490.133
-84.8612
2.42469
498.686
-86.8121
0.721204
509.074
-76.6826
0.52053
519.463
-66.1703
-4.11411
-29.1206
-7.32872
832.08
-1427.24
540.176
956.796
-319.987
221.169
731.328
-309.911
-548.618
653.893
-320.104
-153.132
562.034
-214.024
-50.9799
498.324
-32.7242
-32.3484
494.513
-46.0226
45.2089
-88.0993
-53.8426
-98.5044
484.757
-51.3773
81.5915
-38.5772
-53.6728
-37.2121
472.238
-65.6312
72.7502
-92.6046
-68.4262
-92.3725
472.883
-67.1092
56.8446
-53.9201
-62.9915
-49.6354
471.562
-61.0143
28.4748
-67.4024
-57.8403
-64.3327
470.533
-46.3266
6.68249
-35.9926
-42.8609
-34.1517
470.457
-36.4359
-5.14978
-39.2087
-35.5413
-38.7254
478.144
-27.9762
-7.56468
-25.6135
-27.4569
-25.1661
490.487
-112.841
-3.2989
503.554
-100.515
-4.11358
517.571
-104.094
1.02217
528.636
-91.6447
2.55195
537.336
-77.3436
0.507215
-31.8394
-3.1329
142.669
-1449.53
2575.3
138.643
-107.866
-83.5663
361.246
-309.001
-334.599
484.094
-422.067
-83.6989
609.42
-356.205
135.017
171.419
-40.5218
77.6646
158.076
155.02
140.504
14.5884
-32.4594
17.6739
-10.9685
152.604
-20.0961
3.856
-20.6805
-130.236
134.486
-57.829
22.8821
-14.6445
-144.964
137.911
-60.4849
16.5509
-12.8724
-127.602
129.174
-72.1323
16.3236
-5.91942
-133.181
129.07
-59.1673
8.18397
-6.31375
-124.846
124.96
-48.0515
7.92472
-1.84111
-127.003
124.081
-33.227
1.55466
3.12172
-122.765
123.301
-28.1722
-3.46209
519.184
-32.5304
-18.1828
-125.633
-129.803
-120.135
-124.611
-33.5038
-33.185
-33.2799
542.029
-126.602
-16.7527
556.008
-124.021
-5.81839
561.545
-104.658
3.92273
558.609
-78.5973
4.50275
-24.2988
-6.69185
1439.07
-527.943
3220.81
675.407
-301.904
841.048
560.821
-342.403
225.448
390.746
-363.635
220.333
121.08
-346.718
118.704
70.8113
108.716
60.0553
-17.9514
136.211
-49.2565
11.5549
-12.7339
3.93501
-44.3033
42.1627
-0.759019
11.6986
-10.0781
-42.4642
15.4216
42.915
-16.613
10.8187
-7.36809
-46.8085
16.63
47.7812
-18.0897
7.855
-4.25972
-49.0023
17.7049
48.4195
-17.6665
4.80419
-1.9457
-45.4774
14.2164
43.7907
-13.2738
2.68984
-2.53186
-39.854
11.5933
38.771
-10.9629
2.98442
-2.30321
-37.0143
7.58321
36.2022
-6.59117
2.12326
0.990993
-35.1774
6.56944
34.7885
-5.91741
-1.25406
-35.6014
8.59215
144.723
-32.8946
-9.38912
-36.7409
-35.0224
-36.1974
611.512
-148.238
-16.4255
-148.677
-156.522
-142.363
-148.938
614.057
-134.386
-8.88047
610.164
-108.219
1.79683
588.737
-62.0129
7.73932
-2.61751
-11.6179
2440.9
-280.169
-898.791
1759.01
-152.714
704.829
1026.36
-126.325
439.525
697.612
-189.282
-66.4095
132.737
-175.262
101.103
111.6
109.624
87.6007
22.6737
60.7821
136.827
-60.0127
-27.5331
1.08779
14.405
-38.7349
39.3007
-14.8289
-1.22968
-1.33349
22.0181
-40.7575
40.9224
-22.6951
1.84561
-1.24947
23.3676
-40.2138
39.6754
-23.1291
1.54945
0.693043
18.6753
-38.7369
39.0209
-19.2923
-0.360058
-0.992134
13.7661
-41.1078
41.6437
-14.6413
1.33144
-0.958002
10.0629
-42.0093
41.8475
-10.0593
1.11618
-0.668691
5.52134
-41.1521
41.0268
-5.40143
0.674001
0.91743
5.66334
-41.0949
41.1855
-5.50374
-1.16767
-41.5786
5.41642
35.0543
169.965
-35.932
-5.50925
-43.6491
-40.9041
-42.8629
652.53
-142.812
-2.44623
-167.197
-172.518
-158.771
-163.057
638.98
-121.376
-7.77103
621.259
-89.6128
-16.9861
586.143
-27.6444
-11.4087
27.2986
-29.2754
-908.555
-1635.68
952.176
-201.367
-401.486
238.726
76.0846
-220.011
133.146
138.687
-228.726
130.019
71.5839
-257.111
205.444
74.8066
66.8345
67.4831
-0.329566
73.216
68.0486
-69.9973
0.646074
-1.97281
18.5339
-26.2469
27.7116
-19.7729
1.74704
-0.777679
22.4852
-33.8463
35.2633
-24.4653
1.34076
-1.70264
24.4922
-38.5486
39.3549
-25.8689
2.27303
-1.54395
22.3017
-40.7389
40.8989
-23.3728
2.45502
-2.78622
17.9322
-41.4729
41.4299
-18.3399
3.23694
-3.58046
10.647
-41.4307
41.5044
-10.5051
3.36478
-0.702388
6.38883
-42.0029
42.3122
-6.74323
0.747465
-1.0628
6.13763
-43.4685
43.737
-6.52324
1.17995
-42.9568
-8.11557
35.014
165.995
-32.2617
8.46373
-42.6008
-41.891
-41.6468
581.658
-120.084
19.5964
-159.238
-150.795
-150.134
-144.724
563.107
-93.7886
-3.05441
547.823
-65.9726
-30.3013
529.647
-7.55022
-39.2512
42.4586
-42.0904
281.272
-598.777
284.467
551.256
-549.062
522.727
561.242
-210.584
865.824
492.062
-143.228
227.421
164.054
-377.725
217.88
179.671
149.06
165.489
-4.91175
94.1399
180.461
-104.979
-0.656494
-2.10212
34.2643
-52.1305
53.9578
-35.5539
1.56441
-3.66948
29.1676
-55.9493
55.4251
-29.1316
4.15773
-3.906
27.7691
-52.115
50.8472
-27.3229
4.72753
-5.4939
22.6189
-46.4587
44.464
-21.4585
6.32814
-3.74027
17.7019
-39.412
38.3033
-16.7352
3.88221
-0.626217
10.3339
-36.5952
36.3731
-10.3122
0.826476
-0.929002
7.6038
-36.5726
36.7146
-7.86007
1.04327
-1.37856
7.18864
-37.0032
37.0174
-7.29284
1.46854
-35.9231
-4.83055
30.4896
138.868
-29.1043
5.84729
-35.3215
-35.2605
-34.7653
503.375
-106.626
8.91959
-132.232
-132.341
-126.844
-127.772
494.647
-78.9108
-11.0707
494.593
-59.6971
-19.8741
499.411
-10.8093
-32.7582
38.7171
-29.6523
1443.85
-377.226
1033.89
939.23
-196.984
-311.497
857.676
-169.421
28.0238
883.016
-130.031
-23.2722
966.596
-423.541
150.888
247.665
-546.725
25.0871
123.816
170.868
127.555
171.757
242.848
229.439
226.437
36.3065
-13.6137
241.431
-125.374
5.46933
34.5429
35.6128
33.2901
27.305
-18.9998
-226.705
215.15
-96.6541
20.4493
27.411
25.8823
26.1615
23.9687
-14.0881
-208.975
197.146
-85.626
19.3924
23.161
22.9253
22.096
16.6401
-28.1077
-169.753
151.536
-52.2792
34.0852
16.2391
15.9628
15.677
12.9118
-20.4193
-144.994
139.195
-44.4899
21.4805
12.0954
12.5121
11.7088
9.2845
-5.89932
-128.211
126.963
-35.433
6.28586
9.04618
9.09724
8.86668
8.09286
-1.42139
-127.625
129.078
-32.8402
1.48766
7.68704
7.97439
7.56665
7.53974
-1.22213
-124.924
125.375
-30.748
1.5019
7.55001
7.46294
7.46501
484.086
-105.381
6.5459
25.9825
28.7954
25.1366
27.8931
-122.046
-127.233
-117.126
-122.064
479.492
-101.605
3.24948
479.583
-77.251
1.14182
482.861
-59.9061
-2.19861
495.263
-19.5857
-19.3532
24.3685
-14.9426
1412.08
-666.437
1472.77
1384.55
-223.371
-362.608
1182.9
-218.47
368.308
1174.12
-166.199
56.8693
1080.56
-321.263
116.513
958.839
-393.255
-52.1095
878.034
-286.011
4.06807
105.973
87.2571
97.9706
74.2637
794.007
-290.094
47.9122
85.2187
101.085
77.006
96.297
702.979
-125.06
103.973
62.3345
43.3333
53.9813
37.6746
631.006
-130.245
129.229
41.2517
55.7621
39.6305
55.5794
572.845
-74.7097
77.4214
32.3929
28.394
30.9638
27.5732
532.722
-111.742
40.0146
31.3529
42.1022
30.9229
41.3784
511.31
-90.5837
16.0648
27.4311
27.9065
26.3668
27.0677
498.032
-113.601
8.65894
27.9622
35.4793
27.2
34.7105
490.272
-98.7034
5.6567
483.346
-95.5997
5.92507
481.783
-75.5854
5.25086
480.034
-56.9741
5.2814
490.775
-27.9726
-5.23517
6.48176
0.0664023
1623.74
-740.14
-1201.81
1797.62
-473.358
-218.446
1622.15
-227.322
414.66
1549.55
-77.8814
161.058
1260.44
-93.7355
232.128
1058.82
-216.929
55.2183
920.638
-183.846
10.9361
805.566
-197.907
-53.7302
725.599
-66.1715
-18.0158
656.543
-76.0897
36.472
606.483
-24.115
68.6302
561.786
-68.4094
33.3403
533.532
-66.0097
7.61176
512.471
-94.445
-2.92279
501.123
-89.0458
-2.18988
494.117
-89.779
0.621322
489.95
-72.4685
2.43609
485.605
-52.5859
2.31285
489.361
-30.8709
1.73709
-5.22811
5.29703
1327.07
-1389.77
2520.25
1263.87
-690.322
-328.115
1088.17
-276.297
68.2268
1060.85
-3.81274
-170.965
901.804
44.023
24.3068
764.765
-89.4888
-9.38416
663.555
-95.3444
57.5392
600.024
-133.459
-20.6247
577.203
-48.9127
-31.8553
558.191
-66.8013
-20.7606
564.321
-33.1776
-0.0995768
557.872
-64.5074
-10.2803
555.138
-65.904
-9.64174
544.48
-86.8541
-10.9465
535.527
-82.6631
-2.40542
525.809
-81.5539
1.34165
519.216
-66.3328
5.00231
512.762
-46.2454
2.11436
512.201
-29.9896
1.7602
-10.3512
1.49417
810.018
-2102.62
-1482.27
1405.35
-957.893
-552.691
1431.45
-414.488
-132.4
1389.82
-33.052
-186.988
1143.3
149.721
70.6437
913.306
81.7781
114.545
735.672
70.775
275.68
640.757
-25.8562
83.3217
609.434
-21.952
-14.663
596.556
-48.8121
-22.6387
611.958
-43.8162
-20.2366
614.593
-62.7659
-20.5857
619.142
-69.9843
-17.2095
614.9
-82.869
-7.5616
606.693
-76.8285
4.69372
591.278
-66.4619
15.7547
570.648
-45.1322
14.749
552.309
-27.8347
0.570766
540.745
-17.7153
-7.08243
-5.21137
-12.579
815.788
-1304.07
-1367.82
1027.16
-556.779
-447.882
1227.53
-308.06
-719.297
1240.61
-35.142
-296.17
1046.99
247.575
90.3971
882.431
213.76
178.944
780.999
180.655
183.014
721.206
55.232
13.919
711.868
0.126345
-34.6151
709.678
-31.2329
-44.3635
724.566
-43.9114
-34.0137
729.764
-55.1228
-30.4103
734.111
-66.4088
-19.5123
729.431
-74.0032
-12.6737
715.875
-65.6011
-2.51322
692.65
-46.0499
6.69314
662.99
-16.4517
13.4895
638.65
-2.3714
0.340491
622.533
1.74895
-14.0663
4.89389
-21.5023
154.074
271.988
-51.2237
297.519
11.4573
-679.418
593.667
-131.132
-754.422
679.653
9.99434
-214.253
813.253
190.353
-3.10699
827.572
200.654
88.4085
865.801
155.748
86.3371
855.271
98.0285
-6.50072
850.669
55.1697
-64.3398
838.405
41.7741
-98.517
834.78
23.8136
-117.312
827.159
16.1045
-127.146
827.831
-17.299
-110.823
828.839
-48.3774
-82.1021
823.939
-56.7754
-40.3152
811.686
-39.3139
-14.3174
796.369
-7.11161
3.93508
783.713
10.3887
5.37689
769.211
21.9187
-1.73772
24.1799
-18.5478
499.854
-1515.28
662.707
-641.467
934.157
49.232
998.549
380.187
1116.22
464.714
1204.92
411.362
1270.89
321.19
1306.69
223.145
1322.14
151.529
1339.93
105.487
1347.74
77.5141
1351.79
63.1556
1324.06
59.0922
1270.65
46.4794
1206.2
28.1252
1157.11
24.1404
1133.99
34.9903
1128.23
37.9292
1137.09
37.3356
37.4417
1133
-2332.22
-3596.58
458.038
-489.576
1.5288
435.411
-133.618
-497.735
339.355
10.1882
56.4245
237.498
12.7473
327.622
208.51
-32.5163
102.65
255.688
-95.5731
237.78
351.61
-97.9753
169.606
474.227
-97.3526
186.724
565.758
-64.8657
132.655
645.883
-57.1054
111.463
711.81
-44.0726
77.2001
768.067
-37.7012
62.3397
817.211
-31.9811
32.0116
858.464
-26.116
22.4373
894.176
-22.3471
3.18392
921.67
-17.3217
-4.41469
939.152
-9.96652
-10.8456
948.707
-6.33443
-21.2622
-2.88433
-14.2355
622.959
-2504.73
-869.431
407.246
-563.816
569.633
-14.5446
31.4017
267.909
-33.8423
3.2855
-119.906
-22.6762
-44.6626
-62.5488
18.0425
-97.5464
-157.748
135.879
-141.791
91.9048
204.441
-88.593
73.2581
307.568
-118.881
89.657
356.989
-82.7678
5.05375
409.662
-95.318
-7.5175
445.357
-69.5173
-22.1259
482.26
-68.1143
-21.1172
508.526
-52.34
-28.638
533.07
-47.3725
-26.5203
550.781
-38.7625
-30.142
566.081
-34.6004
-26.813
577.892
-27.0564
-25.2392
586.528
-23.3922
-23.7673
-13.2568
-17.5983
631.02
-861.847
-2915.72
-156.765
-160.924
139.511
-426.831
-89.117
-374.317
-348.419
-50.6147
55.1123
-67.7371
-210.549
94.5098
-37.9156
-127.715
103.699
135.39
-228.451
215.593
207.84
-119.849
73.2514
288.458
-174.385
62.5407
329.034
-111.085
20.305
373.336
-127.504
26.2177
399.55
-84.4176
13.3499
426.912
-86.7702
13.0689
444.997
-63.6156
4.52084
463.547
-61.6392
5.22873
477.679
-47.5719
4.45502
490.39
-42.7759
7.23824
500.144
-31.3979
8.77884
505.758
-23.313
5.31069
-8.48891
-2.75488
-657.581
11.0256
1312.66
-541.189
-255.403
-47.4246
-314.704
-434.253
-189.111
-188.743
-171.605
191.317
-7.67015
-280.857
243.178
37.7333
-141.791
100.65
152.052
-307.147
59.6787
201.053
-166.087
18.7364
281.43
-246.925
16.6457
314.032
-141.237
8.10206
356.17
-161.62
20.9934
375.199
-94.9694
12.1701
398.17
-99.8744
19.6284
410.796
-67.8804
11.2584
425.207
-70.0366
10.3688
435.868
-53.7547
5.43444
445.662
-49.7979
5.62911
453.438
-36.4592
4.69768
457.874
-25.3933
1.0102
-4.97945
-5.31321
-134.925
-791.653
129.262
141.722
-631.885
201.781
103.187
-539.566
-398.238
101.731
-312.776
-254.221
125.487
-306.947
8.2458
149.485
-125.729
83.392
252.555
-305.854
229.176
303.065
-166.025
86.1251
343.335
-267.549
61.4975
366.229
-155.41
14.4069
387.584
-178.397
16.8655
397.432
-102.459
2.02096
407.456
-106.341
10.8843
413.012
-69.2549
6.89076
421.208
-73.635
10.2796
428.387
-57.2936
5.54659
436.25
-56.1876
4.5502
443.162
-42.4053
2.79135
448.17
-29.7705
-1.88781
-3.99147
-10.1147
248.63
-1823.84
-711.452
466.063
-841.716
-620.404
212.915
-597.671
-176.399
197.306
-426.285
-113.27
147.595
-330.441
17.6299
147.457
-160.514
-35.2052
237.236
-384.86
28.0284
238.349
-165.543
10.7997
286.237
-306.151
12.0961
306.369
-170.322
2.78363
338.437
-207.403
2.09507
352.914
-119.143
-6.96908
370.539
-125.888
-2.41892
380.553
-79.1585
-0.981299
393.038
-85.0559
3.83979
405.617
-69.5334
2.08575
416.889
-68.4397
1.70169
427.586
-53.948
1.36595
435.367
-38.785
-2.88089
-5.15665
-9.6503
43.7603
-2001.03
518.087
583.167
-533.463
-626.49
471.481
-385.27
-649.333
419.607
-389.842
-137.701
326.851
-272.164
-16.501
234.013
-80.1762
-19.849
255.627
-72.91
23.1131
-112.657
-81.6499
-117.162
273.397
-50.0858
58.7943
-32.3825
-47.2481
-30.799
314.305
-69.0473
43.0395
-89.8423
-70.4845
-87.9746
341.637
-54.6171
43.8573
-41.9579
-50.3533
-37.7369
362.516
-52.1211
18.0639
-58.8591
-50.0054
-56.8869
373.291
-37.2043
6.47447
-29.765
-34.8712
-27.8689
383.651
-32.9736
-3.97719
-36.4169
-32.3117
-35.7188
396.356
-25.4046
-4.00075
-23.4756
-24.5804
-21.9662
410.831
-102.37
-0.46063
422.842
-85.261
-0.396113
434.705
-82.2927
3.01202
444.039
-65.0224
4.29244
450.484
-45.7705
1.04741
-4.44466
-6.19003
184.48
-1440.35
2249.02
251.705
-656.419
-27.8341
180.215
-511.222
-137.158
234.232
-500.743
-26.8151
369.777
-365.089
92.3979
99.1768
-26.2289
46.9468
84.4079
83.2877
67.726
18.238
-23.4287
17.1395
-11.7604
83.2764
-49.1915
3.94223
-22.6404
-61.6977
75.6609
-61.241
19.8324
-15.9036
-94.1537
91.6777
-64.0317
13.364
-14.9498
-86.5892
93.8587
-60.8554
13.9186
-7.27037
-102.123
100.45
-49.6834
6.50543
-6.78683
-98.4096
101.17
-39.4263
6.24864
-0.0127748
-105.526
104.659
-31.344
-0.7493
3.90234
-104.747
106.156
-27.4765
-3.23936
442.408
-32.3638
-8.46736
-108.36
-112.898
-101.146
-105.33
-32.3174
-31.5736
-30.5049
455.184
-108.062
-6.72844
462.462
-96.7055
1.3162
465.31
-71.6949
7.74728
461.175
-41.285
4.1525
4.52915
-10.4611
429.352
-1382.87
2423.65
353.883
-805.706
1065.8
263.57
-501.736
306.275
172.616
-427.072
237.615
79.515
-361.305
66.852
38.8522
68.2142
34.1026
-11.8468
88.1586
-34.0268
11.001
-11.8622
8.25591
-30.7336
27.6969
-3.04704
9.69002
-10.8706
-27.6402
16.4387
28.6033
-16.7216
10.1903
-7.52345
-33.2745
16.0511
33.8328
-16.0595
6.9736
-5.07296
-33.9272
15.0204
33.6047
-14.5707
4.9457
-3.20983
-33.3579
12.2319
32.6803
-11.5347
3.19028
-2.90928
-31.3817
9.71435
31.007
-9.19526
2.76492
-1.0453
-31.2721
7.57884
30.9398
-6.90064
0.699418
1.7501
-31.0018
7.16503
30.8023
-6.94397
-1.77175
-31.5202
8.44839
126.122
-34.4719
-6.07794
-32.5827
-30.6173
-31.6645
506.667
-130.147
-0.675237
-127.415
-132.941
-118.251
-121.724
501.876
-103.09
2.29486
493.086
-67.6838
6.57585
474.102
-21.5259
6.96477
22.2757
-13.8896
1435.38
-636.29
-632.004
999.032
-236.655
572.128
608.307
-192.023
520.537
338.902
-220.907
-3.16899
71.9087
-238.638
89.451
51.526
61.2856
43.1669
18.38
54.5923
77.5668
-65.6034
-13.027
-1.9513
11.7253