/*--------------------------------*- C++ -*----------------------------------*\
  =========                 |
  \\      /  F ield         | OpenFOAM: The Open Source CFD Toolbox
   \\    /   O peration     | Website:  https://openfoam.org
    \\  /    A nd           | Version:  10
     \\/     M anipulation  |
\*---------------------------------------------------------------------------*/
FoamFile
{
    format      ascii;
    class       volVectorField;
    location    "3.2";
    object      U;
}
// * * * * * * * * * * * * * * * * * * * * * * * * * * * * * * * * * * * * * //

dimensions      [0 1 -1 0 0 0 0];

internalField   nonuniform List<vector> 
12920
(
(157.484 8.97138 -64.0174)
(-17.3377 84.8934 -36.0999)
(142.471 32.5188 -13.2279)
(40.4293 9.50222 0.742987)
(64.9827 -4.19304 6.20687)
(1.05349 -7.21157 -0.707961)
(35.7576 -15.454 0.0877742)
(10.8783 -20.1668 1.64785)
(35.6189 -20.3134 3.89605)
(29.1731 -16.0847 3.27123)
(45.6798 -13.5605 2.87805)
(46.0949 -11.5451 2.33512)
(56.8476 -10.469 1.98037)
(59.7743 -9.10192 1.30889)
(68.0226 -8.35297 1.02185)
(71.7499 -7.75861 0.459997)
(78.0238 -7.32254 0.268003)
(82.3509 -6.72429 0.304942)
(87.5696 -8.22654 0.224358)
(93.8437 -6.14613 0.120083)
(60.0155 182.298 -70.8493)
(-11.7587 92.1128 -7.60282)
(100.049 65.917 3.87525)
(46.8362 39.8336 0.95476)
(92.6692 33.6207 -1.85367)
(87.0688 22.0778 -6.39538)
(110.504 7.80324 1.04294)
(68.9766 -4.18764 4.54126)
(54.0679 -21.0735 6.57187)
(27.6148 -20.793 2.05288)
(39.3221 -20.8595 0.745504)
(34.6715 -17.3474 0.294187)
(43.56 -15.0388 0.15595)
(43.0946 -11.6543 -0.0482095)
(48.7812 -9.51126 -0.137967)
(50.0083 -6.20224 -0.359494)
(54.0066 -4.99713 -0.455529)
(55.9175 -3.15281 -0.496908)
(59.914 -2.83237 -0.975075)
(60.7167 -2.59639 -0.776088)
(-162.679 136.882 167.538)
(-249.445 47.0595 -52.8043)
(86.359 42.0219 -5.8477)
(-18.4361 11.0536 -0.0234204)
(62.6441 -9.7795 4.52489)
(30.6995 -9.31167 2.07176)
(57.4083 -7.68952 7.17537)
(32.0636 -3.84794 4.02066)
(45.8176 -13.1613 2.34809)
(35.5398 -17.3682 0.916778)
(45.9699 -21.6973 1.07582)
(40.6384 -18.4016 0.942282)
(45.8629 -17.0997 0.816007)
(43.2318 -13.5438 0.537864)
(46.3797 -12.2954 0.392695)
(46.0008 -10.2964 0.474134)
(48.3756 -9.54252 0.511829)
(48.7761 -7.99022 0.624428)
(51.8567 -7.36504 0.581286)
(51.7759 -5.00777 0.464146)
(-70.1654 -24.283 14.3533)
(-256.557 7.25877 -25.2032)
(67.6368 -31.563 -19.1043)
(14.0807 -3.61274 2.40712)
(70.2879 -17.5552 9.26268)
(13.7842 -11.5894 4.99919)
(45.1176 -29.225 3.78001)
(24.1229 -25.8044 0.498274)
(46.9348 -33.4242 0.447245)
(40.1698 -29.9467 0.159314)
(50.7068 -30.3154 0.653231)
(45.7268 -24.2689 0.660709)
(49.3323 -21.0117 0.986534)
(44.5862 -15.9814 0.796679)
(45.4731 -13.665 0.602599)
(43.3356 -11.2936 0.395349)
(44.1545 -10.4778 0.291905)
(43.6347 -9.31405 0.292281)
(45.8203 -8.77099 0.212722)
(45.5424 -6.60067 0.240721)
(188.361 80.635 -58.9506)
(-34.6681 -52.2116 0.156226)
(113.606 -64.7465 -14.564)
(104.35 -51.9664 -15.0118)
(169.203 -46.1516 -2.84819)
(140.039 -23.999 3.6604)
(111.365 -27.7897 10.4898)
(60.6825 -15.9277 4.21857)
(62.0773 -29.2171 1.59509)
(50.2357 -26.5257 0.612251)
(54.6017 -30.0331 0.45474)
(49.9573 -22.9516 0.0901681)
(52.3906 -20.5998 0.389894)
(47.4926 -14.6664 0.388751)
(46.8404 -13.72 0.495599)
(43.3904 -11.6068 0.31599)
(43.3558 -11.4806 0.137795)
(42.4189 -10.6339 0.0905692)
(44.3937 -10.3465 -0.0274446)
(44.0446 -7.74073 -0.0535234)
(47.8882 268.706 -36.0471)
(-143.928 -64.6329 -15.3932)
(77.0414 -63.3338 -24.672)
(33.857 -42.8643 -12.691)
(84.5982 -23.7561 -7.09821)
(46.818 3.0998 -3.74025)
(57.7663 -0.808484 -0.0693271)
(35.8194 -9.9859 -0.375127)
(45.5909 -29.7532 0.469733)
(37.4009 -29.7249 0.308165)
(43.1663 -31.2139 0.163273)
(39.9882 -24.4347 -0.391119)
(43.8584 -19.9647 -0.315021)
(41.8448 -13.4827 -0.0520357)
(41.7693 -11.987 0.152491)
(39.8066 -10.3369 0.034019)
(40.394 -10.7398 -0.10127)
(40.2519 -10.4615 -0.0595496)
(42.7792 -10.3854 -0.159598)
(42.6668 -7.71544 -0.135676)
(378.011 -22.6982 -55.333)
(-30.1441 -40.5667 5.60417)
(134.482 -38.4374 -25.9126)
(41.0818 -25.062 -7.2893)
(88.0447 -7.79004 -4.00249)
(52.7075 4.76994 -1.68603)
(69.6531 -15.6112 1.04965)
(57.1021 -8.3939 2.06979)
(57.758 -32.7533 2.06672)
(44.7605 -27.3194 1.54053)
(46.3338 -32.9796 0.858705)
(40.1183 -22.274 0.148941)
(40.776 -20.6694 -0.192246)
(37.4418 -12.4001 -0.323909)
(39.2962 -11.9475 -0.217797)
(39.3963 -10.8073 -0.277647)
(41.6974 -11.6805 -0.156504)
(42.7786 -12.1058 -0.13346)
(45.7604 -12.1124 -0.127862)
(45.1201 -8.79073 -0.0208718)
(276.898 -361.087 94.8383)
(-32.0012 -37.9028 17.7239)
(77.5807 -36.5062 1.12498)
(9.42181 -17.7492 -0.978128)
(77.5449 -7.71631 3.5036)
(57.9166 13.6018 2.40187)
(79.3452 12.3864 -0.632657)
(57.3943 -10.9396 -0.246012)
(61.145 -11.2554 0.148514)
(49.2642 -27.6569 0.676496)
(49.9099 -23.5014 0.651473)
(44.3638 -21.1033 0.912928)
(42.3306 -10.5511 0.689573)
(37.1714 -6.71319 0.117324)
(38.0404 -12.5108 -0.505511)
(41.5061 -11.8105 -0.685317)
(46.552 -14.0561 -0.535965)
(48.0904 -13.5054 -0.273441)
(50.5295 -12.7623 -0.11066)
(48.1319 -9.01371 -0.0868307)
(248.559 -13.5297 -107.518)
(55.1524 48.152 -14.9175)
(116.106 2.99515 2.47959)
(11.7626 -41.639 0.806937)
(66.1195 -48.6155 2.13295)
(29.0336 -25.3276 0.278686)
(65.6962 -0.0328649 2.78803)
(58.5296 -27.856 0.661322)
(72.3681 -27.1946 0.658895)
(78.5466 -29.8719 0.689491)
(74.6019 -19.7784 -0.0567345)
(64.1167 -19.3183 0.461591)
(53.0118 -8.58421 0.811304)
(42.6663 -2.41193 -0.1055)
(45.0117 -6.19669 -0.573239)
(50.3335 -15.2517 -0.699782)
(53.9009 -16.0422 -0.632278)
(54.9982 -14.5226 -0.305894)
(56.9454 -12.6233 -0.0357369)
(52.6256 -7.85671 -0.193715)
(184.225 166.107 -83.9828)
(33.5474 78.5492 -15.8048)
(128.314 20.2144 -19.4691)
(63.1953 0.477211 -15.0373)
(99.5935 -7.37409 -4.40408)
(52.4768 -25.0512 -2.85936)
(62.5305 -37.0047 -0.0539199)
(63.5926 -47.4213 -0.336586)
(45.5587 -43.899 -0.18785)
(42.0587 -37.9094 -0.252785)
(53.9346 -28.7334 -0.0889859)
(60.7369 -19.2222 0.060698)
(58.6202 -8.94231 -0.07502)
(52.4599 -2.81092 -0.110919)
(54.9829 -10.7121 -0.654618)
(57.5415 -15.8763 -0.0471784)
(57.3005 -15.6828 -0.178373)
(56.6743 -14.4685 -0.404394)
(58.2953 -11.633 -0.435368)
(52.9163 -5.37565 -0.849298)
(63.4216 -152.996 73.2774)
(-75.2038 -26.3798 33.7749)
(78.8587 -5.97958 15.2533)
(-0.095676 -6.02716 4.11465)
(61.4102 -4.59655 10.6956)
(-1.45337 -19.0249 -1.4615)
(22.7413 -22.7655 0.120392)
(35.8968 -35.3803 -0.215521)
(55.0584 -46.1054 -0.232574)
(64.6712 -43.8258 -0.28099)
(65.2654 -42.793 -0.103825)
(59.0039 -26.8588 0.743438)
(53.8353 -10.4774 0.0315149)
(58.2425 -3.81676 0.105583)
(58.5511 -11.6834 0.647936)
(49.0953 -15.0702 0.85444)
(45.4571 -13.9963 0.512999)
(42.747 -11.2538 -0.516664)
(45.3652 -7.04641 -1.2091)
(43.2485 0.612681 -1.38576)
(269.338 -63.1233 -63.7078)
(174.732 -105.221 3.84408)
(162.879 -36.9276 26.0941)
(45.7216 -13.6487 11.0181)
(90.3825 -24.2966 11.1662)
(49.0379 -31.8192 -0.199541)
(79.851 -55.4398 -0.436752)
(89.6142 -50.0619 -0.236095)
(86.4411 -50.0778 -0.0572238)
(78.5765 -41.0136 0.65643)
(57.7369 -38.4661 0.444146)
(45.9608 -22.5937 -0.0596197)
(44.9381 -15.4235 0.0970408)
(45.4182 -13.4237 0.242936)
(43.3886 -13.1433 0.285996)
(39.0753 -13.4595 0.287333)
(36.973 -11.168 0.0291654)
(36.4242 -9.09646 -0.284817)
(38.2496 -5.30174 -1.04183)
(39.8601 2.61698 -0.904945)
(216.836 64.1554 -161.545)
(91.3063 -63.4963 -52.6489)
(203.864 -44.492 -19.0453)
(111.105 -20.4336 -1.79788)
(134.726 -39.2362 7.42704)
(104.376 -72.9582 2.77033)
(115.289 -70.3029 -0.507387)
(102.179 -60.5133 -0.602856)
(96.0819 -50.3382 -0.583018)
(77.1284 -31.2474 0.886187)
(58.5066 -22.5865 1.31577)
(40.5924 -17.1387 0.41585)
(40.7656 -15.2761 0.0320376)
(38.8129 -14.5323 0.0202998)
(38.101 -13.8896 0.185128)
(37.8115 -13.4258 0.158267)
(36.6351 -10.6025 0.157983)
(36.5147 -8.83075 0.132606)
(36.7364 -4.79835 -0.476237)
(39.016 2.20614 -0.352635)
(172.681 -287.712 -22.9089)
(153.365 -24.9568 -25.3325)
(220.297 16.9369 -8.67706)
(149.336 13.7973 -3.01072)
(164.603 -31.9296 3.7261)
(119.597 -55.4574 -0.166713)
(117.174 -52.0844 -0.179152)
(99.2641 -53.7975 0.350387)
(92.5833 -30.6007 2.03598)
(73.1975 -26.2516 3.79436)
(62.7558 -10.8934 1.81521)
(50.3113 -15.8932 0.99877)
(47.0633 -12.3425 0.316481)
(42.6922 -15.1198 0.165885)
(42.0432 -13.0476 0.105698)
(40.0745 -12.8073 0.132981)
(39.0403 -10.8024 0.17146)
(37.9022 -8.71823 0.264823)
(37.1395 -5.13666 -0.0360638)
(38.1938 0.446485 0.0389736)
(142.257 -84.9957 -64.506)
(116.059 -49.947 -22.4567)
(210.498 -23.0499 -1.29242)
(170.552 -8.11328 4.72364)
(175.121 -17.2841 4.74825)
(127.165 -32.7327 0.374566)
(122.674 -37.2782 -2.1007)
(104.029 -38.3934 -3.64102)
(101.665 -27.8215 -2.40673)
(85.7427 -21.6051 0.0603539)
(72.8286 -6.75491 2.42325)
(55.9257 -9.69944 0.991657)
(51.1601 -8.7839 0.0141891)
(45.3781 -11.9545 -0.269873)
(43.7781 -11.5474 -0.207765)
(41.6099 -11.7631 -0.0687456)
(40.3637 -9.7525 0.00293421)
(38.8372 -7.57931 0.0713972)
(38.147 -4.94656 0.108345)
(36.9681 -1.29373 0.197456)
(50.0598 -24.4366 -99.1205)
(-8.03395 -45.9849 -21.5296)
(141.503 -27.8129 -2.27987)
(108.827 -12.5224 -0.680212)
(136.357 -7.54636 0.711233)
(97.9064 -19.065 -1.00243)
(93.9616 -20.5629 1.09174)
(62.4915 -19.2104 -0.755528)
(66.3823 -2.26482 -1.62989)
(50.8655 -1.58317 -1.46632)
(55.1673 4.19459 -0.240134)
(48.6302 -0.352208 -0.575684)
(51.4214 -1.81071 -0.563284)
(48.0826 -6.60988 -0.639792)
(48.4231 -8.35699 -0.25041)
(45.213 -9.68345 -0.0601786)
(43.8319 -8.55556 0.134798)
(41.7827 -6.38093 0.0619055)
(41.9925 -4.3901 0.0727921)
(40.1196 -2.01856 0.100676)
(143.489 -261.328 -59.0068)
(18.2449 -69.5256 -7.80142)
(172.021 -31.242 -12.4472)
(161.106 -4.59801 -12.9747)
(189.481 7.17912 -7.73999)
(157.759 4.71239 -2.01809)
(119.96 -5.11454 8.5301)
(54.67 -12.065 3.29716)
(60.6125 -6.30708 -0.571718)
(47.2039 -6.13454 -0.525822)
(54.9995 -3.21548 -0.499534)
(52.083 -4.85287 -0.485549)
(56.9526 -5.26158 -0.584407)
(56.5885 -6.71093 -0.339528)
(58.0704 -7.27605 0.0358009)
(55.1066 -7.53212 0.529539)
(50.661 -7.32399 0.539708)
(45.7504 -5.53553 0.0277678)
(45.0875 -4.18413 -0.213299)
(41.847 -2.41652 -0.279115)
(255.835 -203.004 111.991)
(25.3161 -110.244 33.7988)
(153.121 -53.2278 -4.50538)
(139.436 -2.5992 -10.913)
(176.611 27.4366 -4.47792)
(130.377 31.0189 2.23883)
(105.96 34.4224 6.31288)
(61.93 16.3279 1.42083)
(68.6121 10.8923 -0.467806)
(57.9514 5.28635 -0.6693)
(65.8501 3.84778 -0.391062)
(63.4094 0.13491 -0.342246)
(68.3742 -2.77812 -0.2393)
(67.5613 -6.68273 -0.208745)
(69.0435 -6.95117 -0.199995)
(67.0516 -5.88876 0.069059)
(62.4798 -2.55267 0.392244)
(55.8409 -0.416389 0.110283)
(54.1328 0.117224 -0.301989)
(50.0691 0.729575 -0.470072)
(327.956 -155.945 -85.2113)
(30.4461 -63.4356 15.4719)
(118.286 -32.1804 1.27798)
(67.6824 5.36674 -0.0704627)
(111.914 32.7979 3.26301)
(72.9025 34.9067 3.01576)
(90.1302 27.6662 3.56206)
(67.7271 13.7886 1.41709)
(75.5913 3.84582 0.279388)
(63.9783 0.141913 -0.344042)
(68.7245 -3.58795 -0.842862)
(63.3414 -4.91439 -1.27852)
(65.7987 -6.68019 -1.43383)
(64.8645 -6.38917 -1.60328)
(68.4083 -5.28225 -1.26887)
(68.2781 -2.09895 -0.789945)
(68.7165 1.39514 -0.170567)
(66.4026 3.00376 0.166504)
(66.071 3.1378 0.262877)
(60.8056 2.34444 -0.0280958)
(231.475 209.568 -195.56)
(160.943 55.8129 -39.9926)
(211.583 2.51401 24.1289)
(109.388 11.5878 19.7208)
(121.46 24.0938 14.0244)
(99.6449 29.0147 9.47746)
(117.396 26.3747 7.08039)
(111.264 23.153 4.88416)
(118.491 20.2799 3.2972)
(115.187 18.6 2.29925)
(119.091 16.4523 1.66789)
(116.815 14.8841 1.43822)
(118.062 8.62914 1.37878)
(109.67 1.68124 1.23514)
(104.476 -2.67923 0.548332)
(97.9993 -2.57767 0.289345)
(96.4076 -0.389409 0.325804)
(95.2823 1.73843 0.409075)
(97.4551 4.23757 0.575563)
(97.2025 5.0938 0.638851)
(232.362 -213.278 -36.423)
(-62.4719 -12.2109 -61.4236)
(109.137 -23.5527 -26.1593)
(7.50182 -11.4431 -3.70531)
(59.8116 -7.97101 6.65643)
(-0.550869 -1.15316 -0.519793)
(29.3711 -6.89775 4.64283)
(3.05502 -13.9315 5.10621)
(32.4673 -14.1595 7.78238)
(27.8843 -10.5244 6.05166)
(45.3255 -8.49283 5.20843)
(46.3591 -6.85173 3.97655)
(57.4154 -6.05499 3.28644)
(60.3652 -5.34879 2.15173)
(68.1762 -4.9801 1.64821)
(71.3205 -4.49697 0.87498)
(76.7284 -4.02971 0.431635)
(80.0128 -3.37964 0.0886539)
(85.3943 -2.07775 -0.403443)
(88.0552 -0.687008 -0.0558174)
(174.453 165.72 92.9776)
(-30.0466 21.7706 8.8206)
(61.5406 32.6008 -5.10531)
(-31.5998 24.6253 -6.26078)
(44.4574 21.2815 -4.00255)
(-1.74489 3.58519 -7.01277)
(44.898 -9.15073 8.28404)
(9.51993 -14.3129 7.78301)
(29.9325 -18.4543 8.65564)
(16.5165 -14.8998 2.44831)
(31.4873 -14.1798 0.696421)
(27.4864 -11.2864 -0.116506)
(36.9578 -9.6829 -0.314493)
(36.6646 -7.58667 -0.640701)
(42.2966 -6.09857 -0.70379)
(43.3035 -4.75295 -0.953117)
(46.5292 -4.05976 -1.00619)
(47.6801 -3.09588 -1.10305)
(50.879 -2.90081 -1.26698)
(50.7838 -2.22531 -0.877151)
(458.57 20.492 -15.0821)
(-238.731 0.527365 -32.6109)
(71.5377 24.5828 -36.5906)
(-93.4366 3.69739 3.39002)
(36.7217 -12.7487 10.1671)
(-25.2864 -11.8736 4.83302)
(28.502 -13.4395 13.3969)
(2.76722 -7.17322 5.22698)
(28.3559 -13.6885 3.85187)
(17.4072 -12.384 1.50755)
(31.5623 -14.9565 1.74626)
(26.8611 -11.5025 1.18065)
(34.3982 -11.2879 1.02872)
(32.6059 -8.76005 0.591328)
(36.9326 -8.22059 0.457338)
(36.9823 -6.70245 0.502362)
(39.6598 -6.15947 0.559447)
(40.0348 -4.93649 0.673415)
(42.9379 -4.23642 0.552666)
(42.0216 -2.44733 0.351646)
(79.2114 -99.789 -51.0397)
(-155.142 33.4226 -2.95124)
(36.4344 -24.2699 -16.4306)
(-56.306 1.64682 9.64586)
(37.4007 -21.7311 15.7829)
(-24.1217 -13.7177 5.71259)
(26.9966 -32.3586 4.67191)
(0.216686 -23.0787 0.802706)
(28.8685 -29.5117 1.20959)
(18.5597 -21.8759 0.523277)
(32.5185 -21.8157 1.34126)
(27.2573 -15.4727 1.00457)
(33.6218 -14.0425 1.3601)
(30.8898 -10.5213 0.922019)
(33.8619 -9.57491 0.763544)
(33.0999 -7.63 0.474379)
(34.8459 -6.86673 0.377788)
(34.6523 -5.49157 0.356415)
(37.1171 -4.41486 0.196905)
(36.1551 -2.3196 0.156759)
(65.8691 12.6554 151.105)
(-103.582 -44.399 12.3639)
(73.916 -52.9539 -19.2208)
(3.35957 -30.0997 -16.3176)
(74.199 -28.1945 0.331822)
(31.5833 -11.78 5.57785)
(49.2624 -26.0347 14.586)
(25.9376 -17.2164 6.5747)
(37.304 -29.3876 3.39898)
(27.3272 -20.2237 1.11475)
(35.7812 -22.5652 0.981893)
(30.9873 -14.2986 0.259049)
(35.2624 -13.8554 0.649492)
(32.0659 -9.4042 0.509092)
(33.885 -9.59964 0.678321)
(32.4743 -7.91903 0.429625)
(33.6717 -7.72639 0.244277)
(33.1866 -6.48425 0.170285)
(35.516 -5.50223 -0.0394602)
(34.5885 -2.58443 -0.150272)
(52.8326 -146.691 -14.571)
(-69.0846 -84.5857 -15.9622)
(68.13 -73.2573 -22.351)
(-9.87536 -45.8363 -10.9764)
(46.0593 -30.6867 -4.01184)
(-5.53585 -5.40047 -4.05314)
(32.0499 -20.048 1.45653)
(10.3845 -18.1581 0.18317)
(26.7276 -30.6493 1.10056)
(18.7672 -23.874 0.496685)
(27.546 -24.1753 0.366833)
(24.6963 -16.469 -0.342693)
(28.947 -14.4098 -0.167502)
(27.7574 -9.96407 -0.0165254)
(29.5415 -9.54806 0.207089)
(29.5064 -7.97478 0.0999129)
(30.9169 -8.07194 -0.015672)
(31.1365 -6.95089 -0.00565102)
(33.7476 -5.91357 -0.172751)
(33.0613 -2.64397 -0.190474)
(138.066 -136.556 66.7742)
(12.6156 -55.6843 53.9281)
(108.55 -36.1515 -11.9082)
(14.1034 -32.5197 -4.42454)
(63.1723 -22.2486 -2.65129)
(16.0447 -12.3183 -1.01107)
(38.6895 -39.1747 2.51658)
(23.1083 -16.7295 3.74037)
(32.6449 -36.9423 3.40127)
(24.2973 -22.4564 2.50183)
(30.645 -27.7294 1.35446)
(26.3096 -16.4348 0.287483)
(29.4048 -16.8604 -0.177763)
(27.4816 -10.0948 -0.346712)
(30.2512 -10.9117 -0.188676)
(30.5787 -9.65677 -0.253139)
(32.7383 -9.89552 -0.0194464)
(33.2654 -8.87056 0.0389752)
(35.8012 -7.67825 -0.029298)
(34.744 -3.41609 -0.0351394)
(114.642 -186.984 68.601)
(-116.297 -7.37419 -13.4509)
(61.2186 -31.1602 -16.6812)
(-20.9114 -32.5094 -3.74245)
(60.1951 -21.5403 6.92714)
(28.3398 2.57218 4.33927)
(53.929 -1.61041 0.760438)
(31.8767 -17.3817 3.72361)
(39.8636 -16.3387 2.75101)
(31.3386 -24.7837 2.63813)
(34.3572 -18.078 1.31684)
(30.6111 -14.7753 1.25529)
(31.9351 -8.28457 0.376201)
(30.6141 -6.32627 -0.549071)
(32.1154 -12.675 -0.991368)
(34.3945 -11.4075 -0.917939)
(36.9628 -11.7993 -0.41579)
(37.055 -10.1194 0.00767724)
(38.9412 -8.24518 0.137136)
(36.06 -3.23503 -0.118904)
(343.433 -106.567 16.0649)
(-23.7693 -14.3634 -3.89479)
(99.5405 -37.1484 3.8233)
(-22.2927 -52.0024 6.41858)
(50.8303 -47.3553 5.90018)
(20.6629 -18.4832 2.84423)
(52.5716 0.608036 8.82992)
(49.308 -21.3928 7.03448)
(56.9852 -22.397 5.03192)
(59.6095 -24.4339 2.95419)
(53.3045 -17.5062 1.5144)
(44.6097 -13.8606 1.76597)
(40.3593 -6.56764 1.44667)
(37.6976 -5.23213 -0.736208)
(39.9907 -8.18986 -1.53878)
(42.3156 -15.1004 -1.10842)
(43.3086 -13.938 -0.708072)
(42.6705 -11.567 -0.138152)
(43.5108 -7.97606 0.299345)
(37.8083 -1.91887 -0.327752)
(306.273 20.2612 3.15675)
(153.087 -49.3362 24.456)
(144.638 -36.4064 12.555)
(29.1286 -22.7865 -3.98018)
(58.2928 -24.3295 3.33373)
(26.1605 -25.3898 -4.57541)
(43.6184 -26.7119 -0.371787)
(46.4223 -38.665 1.12387)
(45.188 -39.6669 0.896979)
(43.6383 -32.2909 -0.373109)
(48.2287 -24.1543 0.768998)
(49.1377 -17.1904 0.69577)
(47.7322 -9.14814 0.427415)
(47.8284 -9.47119 -0.710374)
(49.8141 -15.3763 -0.995045)
(47.6729 -16.0173 -0.409126)
(46.87 -14.0828 -0.494494)
(44.4124 -10.9159 -0.874255)
(44.2777 -5.02019 -0.508764)
(36.7221 1.2368 -1.16114)
(-29.2655 -177.455 4.96041)
(-164.074 -11.2203 17.1144)
(40.051 -10.3823 6.42695)
(-75.9669 -27.6658 5.49465)
(44.8267 -18.4773 10.9541)
(-9.18591 -30.6304 0.0979744)
(23.3543 -32.2496 1.67026)
(36.6367 -39.8059 0.770393)
(44.2017 -42.8275 1.29741)
(47.8668 -39.3299 1.04464)
(49.4304 -31.6623 1.88336)
(48.7233 -18.3117 2.414)
(49.565 -11.4497 0.45492)
(51.8926 -10.943 0.759254)
(48.5574 -14.6676 1.31017)
(40.9544 -13.7938 0.722869)
(39.4274 -11.2479 -0.0117542)
(36.6743 -7.82421 -1.23293)
(37.2902 -0.996936 -1.74932)
(32.3821 3.94232 -1.75645)
(81.2627 -141.13 35.6742)
(-35.6322 -91.3135 37.3339)
(111.25 -31.7297 44.7672)
(-19.5438 -26.5152 10.2713)
(73.9142 -40.7865 12.2929)
(42.8569 -44.2389 0.061521)
(67.7478 -61.7065 1.55972)
(71.6807 -50.2179 2.61526)
(65.1165 -47.0657 2.82716)
(55.5595 -37.8097 3.83122)
(44.653 -29.6949 2.54181)
(40.7469 -18.1465 0.489294)
(40.9743 -13.5538 0.650651)
(41.4694 -12.6186 0.918325)
(38.1394 -12.4616 0.809947)
(32.9281 -11.4499 0.278665)
(31.3829 -8.57132 -0.395101)
(30.9541 -6.18904 -0.779951)
(32.2955 -0.736632 -1.42064)
(31.3636 4.24628 -1.16114)
(225.789 24.587 26.1519)
(-0.813765 -34.3243 15.5133)
(128.352 -20.6721 14.2086)
(29.7739 -10.9072 1.41974)
(99.8403 -42.6303 8.49492)
(69.9187 -64.9458 1.65811)
(86.6549 -56.8292 1.12782)
(71.1818 -44.9329 3.07431)
(66.3721 -38.1859 2.70259)
(44.85 -25.5645 5.36702)
(40.3918 -20.2252 3.55575)
(32.3312 -15.7224 1.0359)
(34.0735 -13.7872 0.219698)
(32.0428 -13.1452 0.205185)
(30.5146 -12.0195 0.179469)
(30.3629 -11.2851 0.149321)
(29.5778 -8.27652 0.0909507)
(30.0221 -6.50835 -0.0201852)
(30.9594 -1.64636 -0.784891)
(32.0841 3.19929 -0.517582)
(176.301 -119.454 2.14496)
(90.2421 -24.2059 -4.24176)
(153.241 -22.0111 19.8398)
(75.478 -22.9881 4.85298)
(118.257 -49.1786 6.48284)
(75.0422 -52.337 -1.4746)
(82.2135 -34.6187 0.295111)
(63.7437 -37.8559 2.15061)
(61.2884 -16.1453 4.72175)
(47.1532 -18.8724 5.88809)
(44.6289 -10.6846 3.41338)
(36.0106 -15.405 1.77079)
(35.4597 -11.1283 0.7037)
(32.0989 -13.6799 0.392025)
(32.1545 -11.0012 0.273793)
(30.6927 -10.4866 0.281706)
(30.2719 -8.24368 0.268526)
(30.0612 -6.29063 0.279718)
(30.5225 -2.7185 -0.179166)
(31.8172 1.40194 0.101761)
(162.127 8.71422 -60.8504)
(125.209 -34.9291 -12.7029)
(182.704 -34.7543 17.413)
(131.155 -18.0896 8.4783)
(140.523 -22.6763 9.39543)
(88.711 -33.1295 2.26642)
(90.0456 -28.7492 0.242323)
(64.9271 -26.45 -2.54642)
(63.5281 -12.4659 -0.711548)
(49.6918 -10.8394 1.59429)
(47.9686 -5.95007 3.12025)
(39.7702 -9.49052 1.54393)
(38.0549 -8.97455 0.346627)
(34.154 -11.1324 -0.117433)
(33.3292 -10.2224 -0.0959506)
(31.9145 -9.90223 0.0319099)
(31.4765 -7.87511 0.113963)
(30.7845 -5.86359 0.139494)
(31.1602 -3.32512 0.126185)
(31.0629 -0.322188 0.350632)
(192.007 -113.289 30.6176)
(43.8936 -60.7124 -29.4592)
(134.636 -25.2855 -6.97308)
(70.1042 -4.64196 -9.4206)
(102.631 -2.69358 -0.491388)
(53.6805 -17.0425 -0.709456)
(65.7997 -14.2367 2.63626)
(37.9479 -17.7684 -0.759768)
(48.6602 -3.53441 -1.5343)
(35.0172 -6.23707 -1.13692)
(42.7226 -0.759258 0.103874)
(37.0342 -5.7772 -0.480322)
(40.3233 -5.81043 -0.421846)
(36.8011 -9.24638 -0.49128)
(37.4696 -8.96394 -0.135635)
(35.1651 -9.21601 0.0563816)
(34.9604 -7.57007 0.238039)
(33.5668 -5.36312 0.118637)
(34.1673 -3.33082 0.115588)
(32.9349 -0.934873 0.183916)
(111.178 -214.161 -131.21)
(36.3967 -101.652 -18.7334)
(160.063 -45.5418 -7.10852)
(110.438 -6.60423 -8.17879)
(130.647 2.50405 1.67465)
(76.3847 -7.54106 5.97317)
(75.3299 -10.3709 12.9441)
(44.0397 -13.8353 4.69975)
(51.7241 -8.97221 -0.608117)
(39.1516 -9.64878 -0.87321)
(46.9639 -7.66686 -0.744439)
(42.8702 -9.05279 -0.732611)
(46.4569 -8.92954 -0.694384)
(44.0465 -9.53081 -0.293223)
(44.8699 -8.72289 0.147599)
(42.5483 -8.05723 0.707186)
(41.1933 -6.46568 0.713532)
(38.0847 -4.49405 0.0631046)
(37.9653 -3.06155 -0.267783)
(35.1469 -1.34782 -0.392191)
(147.055 -201.11 -46.7029)
(22.4588 -105.361 -15.0536)
(139.907 -52.1014 -31.0461)
(94.6751 -10.4243 -13.433)
(121.028 19.4208 3.20813)
(68.9447 18.5548 8.78804)
(77.7418 19.9148 9.13699)
(51.5627 6.14163 1.49064)
(61.4413 2.50278 -1.16741)
(51.0544 -1.98836 -1.50578)
(58.5799 -2.69931 -1.11018)
(54.7846 -4.92556 -1.02527)
(58.2805 -6.33767 -0.665569)
(55.9465 -8.11181 -0.488651)
(56.4758 -7.64118 -0.200722)
(53.4001 -6.08509 0.233344)
(51.178 -3.22465 0.607679)
(47.1428 -1.56253 0.0795768)
(46.6758 -0.846924 -0.516154)
(43.27 0.0917513 -0.740537)
(64.8511 -64.6622 43.984)
(-81.2204 -20.0278 -20.3456)
(87.8783 -26.203 -26.1162)
(17.2061 -5.11496 -6.94727)
(88.1726 20.9873 2.08508)
(53.7722 18.7508 4.14174)
(81.6374 12.1104 4.506)
(65.216 2.30144 0.72114)
(75.1939 -4.38635 -1.4137)
(65.749 -5.85057 -2.68802)
(70.4151 -7.52887 -3.39239)
(65.5002 -7.36667 -3.81315)
(67.6008 -7.9917 -3.52363)
(65.7766 -7.56808 -2.88217)
(67.0225 -6.15829 -1.67984)
(64.8755 -3.7066 -0.811374)
(63.9438 -0.484112 0.0448943)
(61.5392 0.830434 0.283778)
(61.8636 0.957058 0.0690814)
(57.8997 0.671532 -0.488548)
(132.912 81.4352 -44.6642)
(-22.9489 14.4619 -7.29206)
(116.116 -3.84962 9.13829)
(62.1351 4.23988 15.0942)
(109.019 14.459 17.3193)
(95.6596 19.5086 14.6284)
(116.726 18.0791 11.5489)
(112.108 16.4714 8.09114)
(119.488 14.6782 5.69348)
(116.649 13.5653 4.22744)
(120.59 11.7236 3.24291)
(118.722 10.1318 2.63057)
(120.151 4.24403 2.50007)
(113.463 -2.37421 2.09952)
(108.647 -5.58154 1.12532)
(100.634 -4.53422 0.862412)
(97.9519 -1.19622 1.19617)
(95.7866 1.04951 1.33401)
(97.2477 3.27467 1.37025)
(96.8038 4.03526 1.38145)
(341.753 -324.204 -88.7472)
(-69.883 -82.1685 -6.20217)
(98.0447 -33.7705 -27.3148)
(-21.5653 -9.67238 1.59864)
(44.4931 -3.72423 12.4364)
(-24.5431 1.33106 3.34079)
(21.0338 -3.60454 10.4349)
(-2.66535 -6.79698 8.21535)
(31.0582 -5.65673 9.33275)
(27.5266 -3.32635 6.82251)
(45.5801 -2.13386 5.64885)
(46.4918 -1.68013 4.01143)
(57.0801 -1.46381 3.25485)
(59.3501 -1.54336 1.82738)
(66.2108 -1.33955 1.40809)
(68.5689 -1.14065 0.467234)
(72.8964 -0.624559 0.0492263)
(74.2452 0.329381 -0.319856)
(77.1033 0.918771 -1.02706)
(76.2031 1.04769 -0.688434)
(177.839 -151.441 -64.5231)
(-30.6611 -21.3868 21.6401)
(46.7562 13.8905 9.00742)
(-70.8616 13.9522 -4.68213)
(18.9501 9.3953 -4.27027)
(-54.1405 -5.81209 -7.86943)
(13.5642 -14.5363 4.5717)
(-19.5108 -12.2371 4.10939)
(18.3374 -13.5925 5.35325)
(6.65047 -9.67353 0.527497)
(24.5228 -9.49909 -0.151657)
(20.004 -7.32625 -0.850041)
(29.9176 -6.30999 -0.854745)
(28.933 -5.054 -1.18044)
(34.4053 -4.08473 -1.14933)
(34.7739 -3.50313 -1.36685)
(37.5184 -2.99744 -1.30355)
(37.937 -2.42307 -1.30984)
(40.5021 -2.22738 -1.27968)
(39.7469 -1.5519 -0.794616)
(190.8 -216.494 -159.84)
(-103.678 -40.0769 24.7995)
(26.7073 14.5314 -25.2049)
(-126.65 -1.33939 5.18254)
(14.1234 -12.7975 5.36416)
(-64.9988 -9.85932 4.438)
(11.0881 -14.0535 11.0472)
(-17.5437 -5.26748 3.76942)
(16.4217 -10.8194 3.42732)
(4.31888 -7.278 1.15255)
(21.0183 -10.0285 1.42243)
(15.8959 -6.99618 0.806696)
(24.7368 -7.67406 0.751925)
(22.8389 -5.74414 0.325498)
(27.6598 -5.66995 0.31357)
(27.4599 -4.48341 0.282612)
(30.0708 -4.11409 0.391505)
(30.0729 -3.08976 0.481003)
(32.6353 -2.51366 0.350801)
(31.2343 -1.14481 0.105441)
(34.1991 32.1909 65.1424)
(-185.752 10.4961 -2.93033)
(7.1381 -21.6014 -10.7205)
(-107.581 -1.92944 9.03884)
(13.4991 -25.6641 12.2115)
(-51.2834 -12.9113 4.82151)
(12.7803 -30.7472 3.22616)
(-18.0638 -17.8024 0.80209)
(16.0395 -24.14 1.09604)
(2.85045 -15.034 0.431696)
(19.5836 -15.985 1.14114)
(13.7948 -10.3253 0.684024)
(21.9953 -10.2199 1.05915)
(19.7554 -7.4396 0.66486)
(23.8817 -7.09805 0.578758)
(23.4606 -5.41096 0.328255)
(25.6506 -4.772 0.303808)
(25.4313 -3.42778 0.262557)
(27.8136 -2.32312 0.105609)
(26.3456 -0.625675 -0.0450112)
(118.43 7.75559 56.0847)
(-110.616 -34.2206 2.57573)
(54.0777 -44.5775 -21.6667)
(-59.7848 -20.1931 -14.3576)
(26.2519 -26.7356 -0.386069)
(-33.3105 -10.4669 3.31733)
(16.8291 -30.9938 12.0091)
(-2.19983 -14.6988 4.49782)
(20.3472 -26.3042 3.38673)
(10.6427 -13.7864 0.886322)
(22.2817 -17.3149 0.892971)
(17.2579 -9.23707 0.11896)
(23.1215 -10.4353 0.560377)
(20.5068 -6.58245 0.39436)
(23.6687 -7.39213 0.554187)
(22.8969 -5.72242 0.323554)
(24.78 -5.54288 0.242036)
(24.4192 -4.13104 0.157899)
(26.8325 -2.94451 -0.0626659)
(25.4149 -0.444742 -0.254112)
(85.8724 -114.8 -46.5494)
(-62.1907 -79.6506 -35.9788)
(53.1477 -71.4204 -17.1526)
(-42.8694 -43.5233 -8.55901)
(25.985 -34.6342 -1.09401)
(-33.6399 -11.2316 -3.27091)
(16.9047 -30.5677 1.40155)
(-7.72812 -17.9418 0.4399)
(13.3284 -28.1168 0.976618)
(5.04852 -18.0734 0.347444)
(16.0652 -19.4136 0.273504)
(13.1478 -11.989 -0.288673)
(18.4761 -11.6208 -0.0934636)
(17.5498 -7.83362 -0.0130049)
(20.1624 -7.9899 0.219465)
(20.6174 -6.29436 0.116697)
(22.5196 -6.2284 0.0817962)
(22.7789 -4.75891 0.052153)
(25.4008 -3.31569 -0.112097)
(24.2803 -0.395709 -0.233234)
(46.2631 -224.271 1.00981)
(-36.525 -67.6822 -31.4415)
(84.033 -36.9377 -32.3201)
(-15.6143 -34.5076 -9.09779)
(45.2619 -27.9174 -2.06625)
(-14.224 -18.1768 -1.44623)
(15.1442 -49.0562 1.44915)
(-2.68537 -13.9773 3.02461)
(15.2081 -35.7125 2.79444)
(9.14267 -16.9646 2.39798)
(18.9257 -24.0311 1.19032)
(15.5795 -12.7245 0.448607)
(20.2107 -14.7508 -0.115883)
(18.8436 -8.368 -0.166338)
(22.1242 -9.69714 -0.0264839)
(22.39 -8.20616 -0.0617755)
(24.4354 -8.03354 0.118358)
(24.635 -6.48647 0.203033)
(27.1179 -4.76883 0.0641226)
(25.75 -0.745094 -0.116273)
(95.7697 -181.605 76.3166)
(-62.5509 -38.427 -0.840106)
(46.835 -45.022 -11.0903)
(-52.3672 -43.5942 -2.62677)
(43.2724 -26.0808 5.56147)
(-4.36446 0.0639029 2.37735)
(26.5331 -14.5979 1.58805)
(5.23786 -17.8047 3.71082)
(19.8475 -19.1643 2.57588)
(15.6241 -19.8852 2.45198)
(22.1409 -14.4855 1.20279)
(20.3532 -11.064 1.07937)
(23.5894 -7.24337 -0.0407006)
(23.5449 -5.58628 -0.616645)
(24.7528 -11.7308 -0.458774)
(26.0016 -9.74068 -0.403814)
(27.5985 -9.26808 -0.0347677)
(27.2946 -7.15913 0.35138)
(29.0209 -4.83986 0.266481)
(26.1371 -0.243174 -0.237544)
(144.131 -127.439 110.006)
(-74.8892 -86.9414 46.69)
(67.9048 -58.6483 12.1542)
(-54.5406 -59.6299 9.44659)
(36.2119 -44.9546 4.47056)
(1.28224 -10.3715 2.45108)
(29.5031 -4.04944 7.93263)
(25.6917 -23.1429 6.9637)
(35.15 -21.1653 4.7459)
(35.4819 -20.2114 3.25038)
(34.5447 -14.9254 2.07528)
(31.5233 -11.1454 1.81881)
(31.5433 -7.04103 0.567671)
(31.2233 -6.75333 -1.17073)
(32.7112 -8.59177 -1.17913)
(31.9764 -13.0227 -0.216795)
(32.3021 -10.9863 0.00825793)
(30.8183 -7.90312 0.326132)
(31.4835 -3.89204 0.406402)
(26.4859 0.911666 -0.368846)
(212.768 -74.5797 -90.3713)
(45.3283 -63.4493 27.8709)
(106.614 -39.1882 22.7144)
(-19.3654 -26.7386 -1.49498)
(36.353 -30.1828 3.65198)
(-2.38989 -26.9283 -2.70355)
(24.2987 -24.1148 1.969)
(29.1514 -34.3047 2.11577)
(32.6941 -33.0542 1.28318)
(34.8077 -26.667 0.524178)
(37.6341 -20.5896 1.29104)
(38.6225 -15.4803 0.847796)
(39.3593 -11.5142 0.0549456)
(40.6722 -13.4034 -1.18664)
(39.9476 -16.2876 -0.514778)
(36.1494 -14.4612 0.226202)
(35.127 -10.7519 -0.126321)
(31.7562 -6.4409 -0.463511)
(31.2441 -0.870916 -0.381338)
(25.1087 3.24106 -0.90541)
(-35.5132 -151.593 20.6903)
(-162.675 -21.0021 -9.19468)
(13.6955 -21.7626 -0.327518)
(-89.216 -34.2098 2.63111)
(27.7895 -25.3412 4.38806)
(-20.6954 -35.7183 1.86318)
(13.4664 -36.5136 2.65898)
(25.5144 -38.4499 2.06939)
(30.7905 -36.8381 2.08446)
(35.1079 -33.9086 3.93156)
(39.2077 -26.0302 -1.67692)
(42.2363 -17.0834 1.67821)
(42.9769 -12.3507 0.482968)
(43.6574 -13.3605 0.817809)
(39.1805 -14.8885 1.43444)
(32.1588 -12.2379 0.882075)
(30.7206 -8.2614 -0.207162)
(27.8437 -4.75556 -1.15279)
(27.5534 1.47633 -1.4091)
(23.0572 4.19577 -1.33995)
(94.7849 -182.668 -7.21645)
(-102.075 -84.2247 8.53712)
(92.6738 -36.4091 28.7434)
(-54.8537 -36.0045 9.40508)
(59.4582 -48.278 7.33133)
(18.3737 -53.2287 0.0163143)
(43.7164 -60.6054 1.48835)
(41.9923 -42.6771 3.13281)
(38.8761 -37.9454 3.85602)
(35.2081 -30.8755 4.46049)
(34.2742 -22.7359 2.21167)
(34.4105 -15.6113 0.685176)
(35.4388 -12.9736 0.668504)
(35.6391 -12.5173 0.891049)
(32.0191 -11.8476 1.05448)
(26.3074 -9.80063 0.497463)
(24.8808 -6.5905 -0.456219)
(24.2 -4.17026 -0.762247)
(24.9836 0.999018 -1.10877)
(23.4031 3.85442 -0.921804)
(120.467 84.7259 90.4115)
(-82.9877 -24.4068 -19.8472)
(106.199 -27.6047 -11.512)
(-8.48018 -18.0581 -1.76566)
(80.7745 -47.6599 4.5009)
(36.1817 -64.2461 0.236951)
(56.593 -46.5464 0.815535)
(37.2039 -35.9564 3.78772)
(38.1665 -28.9257 3.90684)
(25.4355 -21.9443 5.44177)
(28.7967 -17.5366 2.99987)
(25.3311 -14.4302 0.890969)
(27.9905 -12.5518 0.146401)
(25.9218 -12.0866 0.214687)
(23.7906 -10.5382 0.333515)
(23.7402 -9.84535 0.139726)
(23.2324 -6.72449 0.0203237)
(23.6833 -5.01018 -0.102037)
(24.7599 -0.273502 -0.658594)
(24.9634 2.64586 -0.409778)