/*--------------------------------*- C++ -*----------------------------------*\
  =========                 |
  \\      /  F ield         | OpenFOAM: The Open Source CFD Toolbox
   \\    /   O peration     | Website:  https://openfoam.org
    \\  /    A nd           | Version:  10
     \\/     M anipulation  |
\*---------------------------------------------------------------------------*/
FoamFile
{
    format      ascii;
    class       volVectorField;
    location    "3.2";
    object      U_0;
}
// * * * * * * * * * * * * * * * * * * * * * * * * * * * * * * * * * * * * * //

dimensions      [0 1 -1 0 0 0 0];

internalField   nonuniform List<vector> 
12920
(
(167.954 7.67127 -78.3981)
(-7.00029 81.4831 -38.6759)
(156.818 31.1774 -12.963)
(59.278 9.27904 0.845833)
(85.5938 -3.67391 6.12521)
(21.4858 -6.72175 -0.698573)
(55.1971 -15.0492 0.0923245)
(30.1399 -19.7455 1.71165)
(54.0904 -19.8463 3.8716)
(47.178 -15.6751 3.25326)
(63.1921 -13.2233 2.86201)
(63.1472 -11.2597 2.31925)
(73.504 -10.2248 1.96648)
(76.0767 -8.89275 1.29913)
(84.0182 -8.18574 1.01193)
(87.4708 -7.62355 0.45376)
(93.5017 -7.21933 0.264535)
(97.8952 -6.67222 0.300948)
(103.093 -8.18629 0.220621)
(108.562 -6.10441 0.124865)
(72.4257 169.722 -82.4411)
(7.02338 88.5679 -10.8568)
(118.12 63.6392 3.62929)
(68.4789 41.5706 0.766372)
(114.36 34.4326 -2.0702)
(108.154 23.1894 -6.26758)
(130.335 8.69805 1.18831)
(87.7796 -3.36228 4.71076)
(72.1748 -20.2111 6.49252)
(45.3634 -19.9037 2.01562)
(56.6497 -20.0198 0.735737)
(51.5712 -16.5741 0.29057)
(60.066 -14.3541 0.151023)
(59.2457 -11.057 -0.0495855)
(64.6584 -9.0018 -0.140996)
(65.6174 -5.78342 -0.361053)
(69.3669 -4.67298 -0.45753)
(71.3619 -2.92843 -0.507651)
(75.3202 -2.68959 -0.981424)
(75.3159 -2.5269 -0.774488)
(-142.264 108.117 165.9)
(-231.566 36.0793 -50.747)
(103.299 35.273 -5.93851)
(4.51161 10.153 -0.10733)
(82.787 -9.37555 4.4493)
(51.6954 -8.16875 2.25138)
(76.9516 -5.81387 7.00286)
(51.268 -2.09704 4.05919)
(64.123 -11.5313 2.30242)
(53.3533 -15.8282 0.91793)
(63.2412 -20.266 1.05941)
(57.4118 -17.11 0.938656)
(62.2252 -15.9798 0.803829)
(59.225 -12.5855 0.531162)
(62.1032 -11.5004 0.388373)
(61.4513 -9.64783 0.474376)
(63.5985 -9.03063 0.511994)
(64.0782 -7.62571 0.620092)
(67.1452 -7.12456 0.579005)
(66.2222 -4.88853 0.459832)
(-34.0435 -25.7697 18.9445)
(-219.366 -1.01984 -23.8451)
(95.0359 -32.5698 -18.8042)
(42.8259 -3.42764 2.66159)
(92.9815 -15.7942 9.33431)
(34.8037 -9.75446 5.09809)
(64.8026 -26.7232 3.70021)
(43.2337 -23.3747 0.552112)
(65.2136 -31.0379 0.407186)
(57.7747 -27.6985 0.154857)
(67.7623 -28.2727 0.635013)
(62.2738 -22.4542 0.658391)
(65.4624 -19.4523 0.978693)
(60.3752 -14.6489 0.793556)
(60.9985 -12.5616 0.593736)
(58.6023 -10.4034 0.39346)
(59.1896 -9.7776 0.29121)
(58.7562 -8.81064 0.286614)
(60.9411 -8.44313 0.210668)
(59.7856 -6.45119 0.240457)
(204.73 62.1208 -65.204)
(4.08624 -53.0905 -3.23492)
(141.317 -62.9828 -15.16)
(132.023 -49.6426 -14.8842)
(193.334 -43.0157 -2.5913)
(161.405 -20.191 4.20445)
(130.792 -24.0804 10.5452)
(79.6232 -12.5156 4.253)
(80.1775 -26.0123 1.56525)
(67.6687 -23.5624 0.603738)
(71.4354 -27.3818 0.433323)
(66.2947 -20.613 0.0872898)
(68.2781 -18.6212 0.385829)
(63.0387 -12.9936 0.3912)
(62.1394 -12.3452 0.487235)
(58.4365 -10.4936 0.31222)
(58.1743 -10.6116 0.13809)
(57.3209 -10.0043 0.0856219)
(59.299 -9.93728 -0.0252652)
(58.0204 -7.556 -0.0464463)
(65.7113 279.84 -44.7203)
(-102.822 -59.5991 -16.2278)
(107.016 -57.1468 -24.6793)
(64.1634 -36.9756 -12.6875)
(108.927 -17.1299 -6.92842)
(68.8829 9.42174 -3.38722)
(77.6656 4.7145 0.159458)
(54.6315 -5.19751 -0.170966)
(63.3948 -25.5339 0.45853)
(54.3282 -25.9162 0.29626)
(59.5029 -27.9246 0.137621)
(55.8784 -21.5597 -0.398768)
(59.3778 -17.5583 -0.319773)
(57.1002 -11.4729 -0.0491301)
(56.796 -10.3235 0.152699)
(54.5772 -9.00568 0.0346228)
(54.9427 -9.70486 -0.0987064)
(54.9062 -9.71889 -0.06484)
(57.4343 -9.9046 -0.158839)
(56.3239 -7.51023 -0.130576)
(395.331 -5.01139 -66.8351)
(-14.0654 -25.7065 4.16833)
(162.846 -24.0591 -27.631)
(66.3193 -13.0276 -7.04055)
(110.496 2.42123 -3.9468)
(73.6046 13.5593 -1.81045)
(88.8144 -8.04321 0.948807)
(75.1196 -1.85205 2.06869)
(74.7724 -27.3539 2.04235)
(61.0467 -22.672 1.51542)
(62.0657 -28.9932 0.822278)
(55.4521 -18.8538 0.129273)
(55.8 -17.7994 -0.20516)
(52.2924 -10.0538 -0.326819)
(53.956 -10.0329 -0.217217)
(53.8323 -9.28714 -0.275009)
(55.9475 -10.5113 -0.154733)
(57.1529 -11.2612 -0.136073)
(60.1064 -11.5727 -0.126505)
(58.4109 -8.56337 -0.0121815)
(304.655 -367.92 108.89)
(4.33733 -17.1137 17.7761)
(105.007 -17.0778 1.22466)
(34.9183 -2.49374 -0.660827)
(98.5454 5.63649 3.33742)
(77.9919 24.9973 2.50127)
(96.2552 18.4084 -0.721463)
(74.8476 -5.88856 -0.303025)
(77.3653 -6.88442 0.119242)
(64.6999 -24.6575 0.663333)
(65.0414 -21.0838 0.654296)
(59.1579 -19.4238 0.916144)
(56.8727 -9.41585 0.697352)
(51.4584 -6.23116 0.131609)
(52.3869 -10.3912 -0.496182)
(55.5934 -10.1548 -0.681166)
(60.4662 -12.771 -0.534443)
(62.1337 -12.574 -0.277294)
(64.5271 -12.1679 -0.098592)
(61.0113 -8.76161 -0.0812693)
(280.854 33.9806 -78.4991)
(96.3622 77.9305 -6.40539)
(141.842 28.1824 2.8703)
(30.2038 -23.2645 1.08578)
(85.1324 -34.2456 2.03472)
(44.6283 -15.8071 0.274446)
(80.7563 9.34853 2.70962)
(74.9058 -21.0753 0.595903)
(87.8374 -21.4457 0.639531)
(93.3592 -25.2031 0.666603)
(89.0526 -16.1223 -0.0633989)
(78.2399 -16.6923 0.469403)
(66.9153 -6.67549 0.809149)
(56.6607 -1.27239 -0.0850773)
(58.8312 -5.90643 -0.562937)
(64.0813 -13.4701 -0.697648)
(67.4192 -14.6578 -0.630561)
(68.6807 -13.5192 -0.31239)
(70.5863 -11.9824 -0.0302028)
(65.0566 -7.56589 -0.195719)
(200.411 201.643 -79.4992)
(58.468 108.262 -15.6088)
(147.653 41.2007 -20.4638)
(76.9569 19.7977 -15.4692)
(114.814 8.17192 -4.51717)
(66.2257 -11.8084 -2.76121)
(75.6934 -25.98 -0.0455936)
(77.9545 -38.1703 -0.334838)
(59.6893 -36.1239 -0.181548)
(55.9114 -31.2353 -0.255819)
(67.9321 -22.9974 -0.0961227)
(74.3165 -14.4721 0.0612909)
(71.9701 -4.73486 -0.0584367)
(65.746 0.442076 -0.115406)
(68.0786 -8.48421 -0.65554)
(70.7174 -14.0618 -0.0493813)
(70.4113 -14.2646 -0.180515)
(69.969 -13.437 -0.411438)
(71.5749 -10.9586 -0.433717)
(64.8945 -5.05595 -0.842427)
(89.8416 -96.1687 95.2166)
(-44.7206 13.1205 36.4037)
(93.4817 22.3073 15.3236)
(13.1837 16.2566 4.07964)
(74.0838 12.9404 10.2826)
(9.27939 -4.46436 -1.31606)
(32.83 -10.4586 0.11223)
(47.9398 -25.8309 -0.234816)
(67.2603 -38.1952 -0.239575)
(77.0384 -37.3136 -0.281736)
(77.8071 -37.2331 -0.0967923)
(71.5444 -22.1361 0.751394)
(66.6544 -6.56438 0.00146555)
(70.9104 -0.633936 0.0452763)
(71.1299 -9.26508 0.627222)
(61.8193 -13.2251 0.851242)
(58.1495 -12.5636 0.5081)
(55.6591 -10.2172 -0.529092)
(58.2717 -6.34282 -1.21402)
(54.7999 0.925938 -1.38495)
(261.774 15.9232 -46.3654)
(170.142 -65.9679 4.64434)
(162.882 -9.51405 26.2896)
(47.9737 7.32706 10.8361)
(96.209 -8.87603 10.5106)
(55.0994 -18.6371 -0.361508)
(88.1826 -44.5878 -0.460164)
(99.9513 -40.8695 -0.245912)
(97.3102 -42.4346 -0.07539)
(89.7426 -34.5624 0.653874)
(69.1632 -33.0542 0.43259)
(57.8376 -17.9766 -0.0643648)
(56.9835 -11.6703 0.093687)
(57.4673 -10.4036 0.234482)
(55.3238 -10.7488 0.275829)
(51.466 -11.6084 0.282991)
(49.2205 -9.74479 0.0295727)
(48.9498 -8.06036 -0.294454)
(50.7694 -4.61902 -1.03929)
(50.964 2.91037 -0.908871)
(208.119 92.5118 -183.912)
(71.7877 -44.9098 -57.6173)
(200.935 -28.717 -18.7097)
(112.982 -5.7946 -1.1474)
(138.126 -27.2769 7.34423)
(110.69 -63.1292 2.83406)
(121.184 -61.2207 -0.432777)
(110.948 -52.3143 -0.541489)
(105.649 -43.3541 -0.545883)
(87.1669 -25.2216 0.922138)
(68.9578 -17.5364 1.33617)
(51.5734 -12.912 0.423744)
(51.9553 -11.6498 0.0484244)
(50.2011 -11.5212 0.0385214)
(49.8199 -11.5109 0.192046)
(49.5066 -11.6138 0.159809)
(48.447 -9.23697 0.160763)
(48.6511 -7.83969 0.12983)
(48.8618 -4.16649 -0.467606)
(49.6829 2.46461 -0.357528)
(165.295 -287.142 -24.397)
(134.446 -4.88325 -28.4834)
(213.61 30.3549 -8.91066)
(148.366 23.4985 -2.73711)
(166.057 -23.6246 3.59275)
(124.233 -47.8711 -0.173108)
(123.534 -44.9104 -0.173592)
(106.83 -47.3964 0.425702)
(100.885 -24.764 2.0704)
(82.2798 -21.3159 3.77944)
(72.4297 -6.75485 1.81293)
(60.4896 -12.4045 1.00273)
(57.6096 -9.35967 0.329213)
(53.4679 -12.5939 0.17679)
(53.0883 -11.0581 0.107029)
(51.3648 -11.1998 0.135349)
(50.4685 -9.57245 0.173764)
(49.6672 -7.82325 0.262883)
(48.8982 -4.57325 -0.0218696)
(48.4701 0.669044 0.0408942)
(137.458 -107.817 -84.6003)
(103.306 -48.1308 -26.0139)
(206.005 -18.2906 -0.738493)
(170.861 -2.69892 5.20952)
(177.063 -10.9814 4.60032)
(130.918 -26.8559 0.306187)
(128.329 -31.6086 -2.20947)
(111.06 -33.1864 -3.63017)
(109.526 -23.1086 -2.35883)
(94.2563 -17.4635 0.140019)
(81.9114 -3.14272 2.45639)
(65.6184 -6.78576 1.01755)
(61.2505 -6.36424 0.0172214)
(55.8004 -9.93009 -0.265763)
(54.5017 -9.8428 -0.207464)
(52.5474 -10.3811 -0.066267)
(51.4479 -8.68226 0.00470441)
(50.2801 -6.80059 0.0687325)
(49.5799 -4.46325 0.116496)
(46.8857 -1.10959 0.194353)
(57.3045 -35.9891 -83.63)
(-2.46893 -46.2751 -20.7243)
(139.779 -24.2932 -1.91788)
(111.886 -8.13289 -0.275096)
(139.722 -2.62929 0.62293)
(101.935 -14.4394 -0.993304)
(99.1836 -15.8715 1.03668)
(68.7848 -14.7992 -0.770932)
(73.6953 1.78458 -1.57733)
(58.9443 1.88046 -1.3892)
(63.9228 7.23533 -0.2147)
(57.7888 2.14994 -0.544998)
(61.1244 0.266642 -0.557937)
(58.142 -4.91442 -0.63327)
(58.8146 -6.94434 -0.248341)
(55.8236 -8.53715 -0.054337)
(54.6312 -7.65403 0.134175)
(52.9515 -5.72137 0.0585596)
(53.1513 -3.9858 0.080864)
(49.7433 -1.86791 0.0978122)
(146.2 -233.448 -75.7673)
(27.4486 -61.9855 -12.8022)
(172.282 -23.349 -13.1717)
(164.182 1.05879 -13.0613)
(193.115 11.9101 -7.7062)
(161.265 8.57499 -1.75855)
(124.053 -1.43112 8.48647)
(60.296 -8.78618 3.15769)
(67.5184 -3.23859 -0.625484)
(54.8733 -3.45444 -0.523915)
(63.4268 -0.944233 -0.499776)
(60.9642 -2.90287 -0.50886)
(66.3458 -3.61101 -0.600095)
(66.3699 -5.33811 -0.340683)
(68.2016 -6.14641 0.043107)
(65.4455 -6.62527 0.534683)
(61.1934 -6.61741 0.535224)
(56.6747 -5.01101 0.0224501)
(56.0084 -3.86742 -0.207876)
(51.2133 -2.29898 -0.284827)
(259.64 -197.984 116.157)
(21.7285 -104.528 32.6814)
(152.706 -46.5723 -5.21658)
(141.222 1.88449 -11.007)
(179.115 31.3397 -4.37111)
(133.051 34.1781 2.43284)
(110 36.9852 6.19761)
(67.2976 18.4566 1.34508)
(75.2648 12.9218 -0.500991)
(65.2955 7.05283 -0.721522)
(73.9416 5.41199 -0.417451)
(72.0243 1.44186 -0.361108)
(77.5377 -1.68343 -0.247787)
(77.1403 -5.73341 -0.206927)
(78.9857 -6.12558 -0.198861)
(77.2223 -5.19746 0.077092)
(72.8225 -1.99828 0.4013)
(66.5816 -0.0210934 0.106305)
(64.8688 0.337166 -0.29984)
(59.2631 0.797825 -0.478175)
(319.687 -166.133 -68.6885)
(24.6035 -60.9553 16.1772)
(115.906 -29.5867 0.133186)
(68.2451 8.41978 0.00813852)
(114.402 35.6611 3.28674)
(76.0591 36.686 3.05692)
(94.7031 28.9955 3.51535)
(73.0964 14.8831 1.38784)
(82.0915 4.90266 0.269022)
(71.1139 1.0864 -0.360397)
(76.6336 -2.72857 -0.867777)
(71.7413 -4.16549 -1.2948)
(74.7749 -6.01474 -1.43972)
(74.2751 -5.79835 -1.59588)
(78.2426 -4.7441 -1.26305)
(78.3659 -1.6352 -0.779024)
(79.0062 1.75224 -0.162618)
(77.0424 3.25445 0.168)
(76.6844 3.26703 0.266859)
(69.8495 2.37547 -0.0319577)
(245.108 199.708 -186.08)
(177.214 50.9424 -34.8293)
(210.036 2.72659 26.4423)
(107.878 13.4316 20.1198)
(122.907 25.5125 13.9409)
(102.804 29.8142 9.46021)
(122.042 26.9644 7.03724)
(116.729 23.6204 4.85269)
(124.97 20.6882 3.27566)
(122.364 18.9603 2.2835)
(126.983 16.7456 1.65986)
(125.228 15.1108 1.44189)
(126.955 8.7227 1.38462)
(118.875 1.74307 1.23075)
(114.113 -2.55442 0.539282)
(107.955 -2.41992 0.286443)
(106.627 -0.251282 0.325411)
(105.878 1.84934 0.410352)
(108.04 4.30869 0.578812)
(106.249 5.12971 0.639831)
(244.651 -216.702 -82.8004)
(-50.2893 -12.7294 -68.9005)
(123.602 -24.7049 -27.1852)
(26.8637 -11.4002 -3.97149)
(80.6992 -7.37171 6.35383)
(20.0115 -0.5187 -0.337686)
(48.7811 -6.41939 4.62704)
(22.3911 -13.4424 5.19188)
(50.974 -13.6794 7.70956)
(45.9193 -10.1082 5.99463)
(62.8586 -8.14551 5.15243)
(63.4282 -6.56051 3.93714)
(74.0752 -5.81202 3.25531)
(76.6664 -5.14205 2.12739)
(84.1642 -4.81256 1.62717)
(87.032 -4.35835 0.85871)
(92.1921 -3.92217 0.418861)
(95.5523 -3.30307 0.0672634)
(100.892 -2.0133 -0.415086)
(102.741 -0.647371 -0.0483131)
(190.596 156.415 66.4851)
(-8.9993 19.6718 1.86242)
(80.5782 30.416 -6.68128)
(-9.96298 26.6649 -6.66937)
(65.7901 22.2082 -4.34459)
(19.0146 4.79125 -6.53994)
(64.2715 -8.24149 8.38713)
(28.5468 -13.2896 8.09387)
(48.1636 -17.4974 8.49385)
(34.3149 -13.9668 2.4043)
(48.8283 -13.3302 0.660511)
(44.3865 -10.5115 -0.122504)
(53.4597 -9.00487 -0.328532)
(52.8092 -6.99598 -0.643189)
(58.1637 -5.60216 -0.710543)
(58.8901 -4.3491 -0.950275)
(61.8668 -3.74425 -1.00787)
(63.0944 -2.8806 -1.12069)
(66.2708 -2.7615 -1.27158)
(65.3623 -2.15627 -0.866309)
(440.883 -11.9233 -23.9924)
(-226.81 -8.24827 -40.7461)
(88.5314 18.5445 -36.362)
(-70.6769 3.08535 1.93796)
(56.4663 -12.1264 10.33)
(-4.40028 -10.7561 5.28039)
(47.689 -11.634 13.0362)
(22.0303 -5.45822 5.42129)
(46.6137 -12.0128 3.72718)
(35.2271 -10.8041 1.51377)
(48.8323 -13.5175 1.69)
(43.6507 -10.2169 1.16888)
(50.7678 -10.1797 0.996686)
(48.6085 -7.81403 0.579847)
(52.6598 -7.43418 0.444454)
(52.4303 -6.05867 0.501716)
(54.8714 -5.6516 0.557042)
(55.3235 -4.57286 0.659193)
(58.2155 -3.99575 0.548691)
(56.4544 -2.33388 0.352744)
(112.955 -124.194 -40.6291)
(-117.085 23.4915 -2.30031)
(63.6324 -25.5355 -15.4844)
(-27.7497 1.72817 9.59796)
(59.925 -20.047 15.7945)
(-2.73771 -11.9438 6.11577)
(46.755 -29.7636 4.53599)
(19.3327 -20.6272 1.01321)
(47.0764 -27.0763 1.09738)
(36.1393 -19.6032 0.514188)
(49.5478 -19.7606 1.27792)
(43.8003 -13.6635 0.98919)
(49.7532 -12.4963 1.32859)
(46.6804 -9.21318 0.911878)
(49.3866 -8.48223 0.742173)
(48.3616 -6.73806 0.469906)
(49.8775 -6.16297 0.374371)
(49.7715 -4.98323 0.3396)
(52.2337 -4.07743 0.197448)
(50.388 -2.1622 0.184557)
(100.875 6.23579 142.972)
(-58.5823 -45.3135 10.3549)
(101.784 -50.9867 -19.5777)
(29.9908 -27.5595 -15.7252)
(96.7117 -24.8492 0.57042)
(53.0955 -8.17044 6.51388)
(68.9508 -22.3709 14.6885)
(44.9427 -13.7787 6.78006)
(55.3662 -26.1188 3.30402)
(44.7441 -17.2168 1.09936)
(52.5854 -19.8851 0.921868)
(47.2795 -11.9648 0.247405)
(51.1375 -11.876 0.628066)
(47.6098 -7.7502 0.506383)
(49.1793 -8.2284 0.659635)
(47.5108 -6.80174 0.425345)
(48.4771 -6.85195 0.243236)
(48.0814 -5.84668 0.157812)
(50.421 -5.08197 -0.02325)
(48.5511 -2.3896 -0.116591)
(82.7112 -125.065 -35.6961)
(-24.662 -79.8203 -17.6629)
(99.2613 -67.6173 -22.1704)
(19.9285 -40.1554 -10.5676)
(70.0547 -24.2179 -3.73416)
(16.5184 0.559676 -3.25933)
(51.9083 -14.5838 1.75102)
(29.1373 -13.3427 0.538171)
(44.4442 -26.336 1.03882)
(35.6991 -20.022 0.476099)
(43.8658 -20.8644 0.307096)
(40.5505 -13.6062 -0.348755)
(44.4197 -12.023 -0.183606)
(42.9671 -7.96493 -0.0122642)
(44.5446 -7.8864 0.200771)
(44.2718 -6.63852 0.102558)
(45.459 -7.03093 -0.00722657)
(45.7913 -6.19758 -0.0134208)
(48.3988 -5.4238 -0.158085)
(46.7069 -2.42926 -0.161153)
(163.235 -109.854 56.3923)
(47.0611 -39.3042 53.9475)
(137.862 -21.4543 -13.5632)
(40.0839 -20.5302 -3.79303)
(85.4076 -12.3951 -2.65035)
(36.8616 -3.78668 -1.12117)
(57.82 -31.8448 2.3743)
(41.0838 -10.2925 3.77222)
(49.6477 -31.4685 3.30959)
(40.5932 -17.7693 2.44309)
(46.379 -23.7181 1.2747)
(41.6381 -13.0223 0.252214)
(44.4111 -13.9932 -0.201979)
(42.3183 -7.74531 -0.352204)
(44.8981 -9.00255 -0.19298)
(45.0049 -8.13423 -0.247091)
(46.9703 -8.71846 -0.0123702)
(47.6218 -8.01652 0.0346413)
(50.1426 -7.12743 -0.00692694)
(48.0251 -3.17922 -0.000342958)
(131.285 -157.64 82.2592)
(-79.6536 14.1154 -12.8456)
(87.8571 -10.9416 -14.8153)
(4.54536 -17.3302 -2.89472)
(80.9391 -8.42566 6.66899)
(48.2379 13.8405 4.5377)
(70.6084 4.31652 0.328975)
(49.2474 -12.4459 3.56714)
(56.0365 -12.0733 2.65312)
(46.8299 -21.7523 2.58089)
(49.5181 -15.6408 1.32111)
(45.3953 -13.1098 1.26793)
(46.468 -7.15681 0.42141)
(44.8756 -5.81436 -0.47761)
(46.4509 -10.5479 -0.975914)
(48.4489 -9.74263 -0.909527)
(50.8409 -10.5115 -0.412035)
(51.0774 -9.17807 -0.00621069)
(52.9385 -7.64378 0.158722)
(48.9332 -2.97452 -0.0951606)
(321.425 -77.0709 28.2028)
(1.9919 14.1012 2.06972)
(122.689 -11.89 1.86116)
(-4.11194 -33.6297 6.94112)
(69.8547 -32.931 5.59175)
(35.9499 -8.75932 2.71703)
(67.2448 9.77883 8.39299)
(65.5026 -14.3785 6.58386)
(72.1574 -16.6276 4.83507)
(74.2763 -19.8482 2.86474)
(67.5665 -13.8863 1.48917)
(58.6396 -11.1547 1.77251)
(54.2268 -4.63736 1.50028)
(51.4837 -3.92615 -0.667827)
(53.7311 -7.84152 -1.51713)
(56.0419 -13.2983 -1.10949)
(56.7912 -12.5483 -0.706244)
(56.3288 -10.5575 -0.15776)
(57.1425 -7.3246 0.308641)
(50.2399 -1.62418 -0.316927)
(334.463 43.8581 24.943)
(176.062 -24.7807 27.9876)
(163.032 -14.9526 12.5581)
(42.9776 -3.2074 -4.3492)
(73.5152 -8.90423 3.20249)
(40.1435 -12.0479 -3.90149)
(56.5718 -15.4459 -0.254644)
(60.4116 -29.4449 1.05582)
(59.0259 -31.9178 0.881449)
(57.3062 -25.6912 -0.367343)
(61.748 -18.6231 0.774713)
(62.4058 -12.5186 0.714221)
(60.8899 -5.14074 0.491725)
(60.9894 -6.33025 -0.659563)
(62.8447 -13.1548 -1.00064)
(60.838 -14.1929 -0.42115)
(59.9641 -12.6455 -0.499375)
(57.7054 -9.86267 -0.89217)
(57.5346 -4.32674 -0.498836)
(48.6966 1.54731 -1.15231)
(-12.3309 -107.056 11.4198)
(-139.977 28.9532 19.9862)
(53.1105 18.0092 6.84935)
(-63.4189 -5.4222 6.03438)
(57.2062 -1.13798 10.5652)
(1.49471 -16.2628 0.238286)
(33.5421 -20.3678 1.3)
(48.5677 -30.3994 0.648206)
(56.3363 -35.0513 1.26374)
(60.122 -32.8532 1.07141)
(61.7816 -26.0567 1.97293)
(61.2988 -13.7212 2.37472)
(62.1899 -7.70272 0.330162)
(64.4072 -7.89584 0.602995)
(61.0999 -12.2451 1.24735)
(53.688 -11.9353 0.703591)
(52.1158 -9.80677 -0.0186296)
(49.58 -6.76698 -1.25147)
(50.1682 -0.283967 -1.72084)
(43.9184 4.23441 -1.75584)
(66.2102 -92.1333 44.2429)
(-46.2326 -53.844 39.4456)
(112.722 -6.0998 45.0119)
(-17.2451 -5.89963 10.0622)
(79.8263 -25.3665 10.9421)
(49.002 -31.0857 -0.386654)
(75.8869 -50.8441 1.40357)
(81.8719 -41.1763 2.46978)
(75.7808 -39.4928 2.75541)
(66.6592 -31.5067 3.81362)
(56.1234 -24.3069 2.47614)
(52.4474 -13.6007 0.475666)
(52.8095 -9.83796 0.610325)
(53.3583 -9.60094 0.859846)
(50.0379 -10.0501 0.771295)
(45.3336 -9.59217 0.263251)
(43.6355 -7.14352 -0.394073)
(43.4782 -5.14582 -0.797397)
(44.8007 -0.0498465 -1.41924)
(42.4518 4.52767 -1.17305)
(220.869 35.2067 12.6979)
(-12.3131 -12.9726 6.10033)
(126.304 -4.66485 14.2863)
(32.269 3.46952 2.08063)
(103.512 -30.4746 7.8131)
(76.6263 -54.7325 1.79342)
(92.6262 -47.5979 1.33353)
(79.8888 -36.8218 3.25787)
(75.7718 -31.2632 2.82324)
(54.8805 -19.6457 5.39905)
(50.9123 -15.2183 3.5953)
(43.3052 -11.5002 1.05777)
(45.2262 -10.1741 0.260925)
(43.3966 -10.1218 0.246043)
(42.2314 -9.62872 0.189297)
(42.0528 -9.47003 0.152808)
(41.3895 -6.91398 0.0980288)
(42.1589 -5.51742 -0.0271136)
(43.078 -1.01589 -0.759958)
(42.7415 3.45436 -0.527474)
(150.362 -108.331 -38.8391)
(69.0331 -10.499 -11.658)
(147.371 -9.46671 18.4799)
(74.5074 -13.4296 4.76426)
(119.925 -40.0871 5.84789)
(79.8956 -44.35 -1.43661)
(88.6928 -27.1599 0.32985)
(71.3528 -31.4046 2.31886)
(69.7572 -10.3521 4.74106)
(56.2575 -14.057 5.88484)
(54.3733 -6.54449 3.41796)
(46.2071 -11.9217 1.79473)
(46.0046 -8.12162 0.731022)
(42.8675 -11.1495 0.42067)
(43.1965 -9.01202 0.278232)
(41.979 -8.88013 0.288252)
(41.6939 -7.01216 0.273838)
(41.8306 -5.399 0.275819)
(42.2813 -2.16441 -0.133386)
(42.0841 1.62086 0.117672)
(161.093 -9.68851 -64.462)
(116.805 -34.0851 -18.881)
(178.838 -31.0665 18.3798)
(131.391 -12.798 9.31956)
(142.459 -16.184 9.03585)
(92.7618 -27.0125 2.33045)
(95.757 -22.9034 0.113597)
(71.7928 -21.1049 -2.46961)
(71.3455 -7.68126 -0.629733)
(58.2306 -6.73718 1.72715)
(57.1794 -2.40773 3.21639)
(49.471 -6.58482 1.61272)
(48.1487 -6.54891 0.3684)
(44.5639 -9.10522 -0.103405)
(44.0449 -8.51264 -0.0955612)
(42.8448 -8.51918 0.0392917)
(42.5552 -6.80578 0.117733)
(42.2286 -5.08783 0.13486)
(42.5951 -2.84944 0.16453)
(40.9789 -0.142412 0.352792)
(194.619 -141.759 9.48943)
(46.2522 -60.6155 -32.8654)
(132.239 -21.4482 -9.40577)
(72.5656 -0.248616 -8.90246)
(105.739 2.25618 -0.748171)
(57.6831 -12.3816 -0.618079)
(71.1747 -9.48159 2.51278)
(44.2599 -13.4452 -0.737901)
(56.0081 0.432366 -1.41988)
(43.0864 -2.82856 -0.999287)
(51.4644 2.25766 0.110292)
(46.1877 -3.30566 -0.429523)
(50.001 -3.73357 -0.411022)
(46.8382 -7.5311 -0.475056)
(47.8497 -7.53922 -0.136171)
(45.7736 -8.06718 0.0646822)
(45.7499 -6.66493 0.238259)
(44.7347 -4.70509 0.113574)
(45.323 -2.92797 0.153045)
(42.5577 -0.785759 0.19475)
(130.36 -206.845 -137.057)
(52.3112 -97.1156 -21.5883)
(162.226 -37.6001 -8.10843)
(113.025 -0.928361 -7.92384)
(133.749 7.14913 1.78487)
(79.9328 -3.7618 6.30501)
(80.0783 -6.61529 12.6895)
(49.8259 -10.5928 4.51406)
(58.6701 -5.97287 -0.695713)
(46.8271 -7.0469 -0.871611)
(55.3642 -5.44338 -0.765866)
(51.7243 -7.13672 -0.765369)
(55.8264 -7.28896 -0.721359)
(53.7925 -8.16424 -0.291671)
(54.9894 -7.58758 0.153099)
(52.9076 -7.13901 0.714423)
(51.7446 -5.75013 0.707538)
(49.0172 -3.96858 0.0550176)
(48.8844 -2.74751 -0.245531)
(44.5093 -1.23161 -0.400089)
(151.626 -187.034 -55.0285)
(22.2675 -100.322 -16.484)
(139.329 -46.9654 -31.0128)
(95.6186 -6.1829 -12.8756)
(123.305 23.2678 3.65703)
(72.0311 21.4767 9.03894)
(82.3462 22.497 8.92537)
(57.006 8.2685 1.36299)
(68.1104 4.55081 -1.24481)
(58.3841 -0.224075 -1.5852)
(66.6635 -1.14568 -1.165)
(63.3783 -3.60543 -1.05573)
(67.4104 -5.20537 -0.680714)
(65.4723 -7.15863 -0.482969)
(66.3885 -6.81244 -0.198957)
(63.5586 -5.39226 0.246414)
(61.5517 -2.68506 0.616607)
(57.8957 -1.17207 0.0742225)
(57.4173 -0.63025 -0.503765)
(52.4546 0.164618 -0.755293)
(71.9358 -74.7917 43.0542)
(-80.2355 -18.3934 -20.3077)
(85.2055 -23.6095 -26.0696)
(17.8136 -2.30074 -6.44803)
(90.8068 23.6406 2.25226)
(57.1445 20.4408 4.23318)
(86.3744 13.4773 4.41375)
(70.6703 3.45791 0.676489)
(81.7026 -3.28939 -1.47065)
(72.8838 -4.86691 -2.72611)
(78.3204 -6.63911 -3.43625)
(73.9051 -6.59426 -3.83493)
(76.5668 -7.31219 -3.51939)
(75.1573 -6.9776 -2.857)
(76.7988 -5.62852 -1.66028)
(74.9111 -3.24853 -0.792529)
(74.215 -0.136564 0.0489655)
(72.164 1.07673 0.272841)
(72.4726 1.08348 0.0787863)
(66.9548 0.70922 -0.497441)
(141.74 79.5604 -17.4482)
(-18.9378 13.98 -3.77069)
(114.546 -2.10147 11.4422)
(61.5118 6.0581 15.8239)
(110.728 15.7263 17.4389)
(98.9685 20.2599 14.6981)
(121.389 18.6735 11.5024)
(117.555 16.9419 8.04915)
(125.93 15.0936 5.66259)
(123.794 13.9304 4.20724)
(128.458 12.0225 3.235)
(127.125 10.3577 2.63496)
(129.054 4.3455 2.51436)
(122.713 -2.29045 2.09868)
(118.28 -5.43777 1.1109)
(110.57 -4.35973 0.863996)
(108.156 -1.04802 1.19671)
(106.37 1.16008 1.33382)
(107.823 3.34171 1.37421)
(105.845 4.06981 1.38178)
(358.436 -340.101 -137.35)
(-49.9441 -83.2774 -17.6517)
(113.712 -34.5199 -29.6828)
(-1.66587 -9.46819 1.1727)
(65.3816 -3.00935 12.1279)
(-3.82601 1.98757 3.72355)
(40.3699 -3.0874 10.3533)
(16.7607 -6.19984 8.26168)
(49.5736 -5.17989 9.21015)
(45.5899 -2.89583 6.72506)
(63.1251 -1.79307 5.55354)
(63.5651 -1.38336 3.95568)
(73.7372 -1.22773 3.20808)
(75.6387 -1.33419 1.79511)
(82.1906 -1.16986 1.37504)
(84.271 -0.994911 0.443997)
(88.3392 -0.507721 0.0302792)
(89.749 0.409492 -0.354291)
(92.5485 0.9729 -1.04604)
(90.84 1.08247 -0.688949)
(197.192 -143.765 -63.253)
(-6.16111 -24.7155 17.7103)
(67 12.5263 8.05962)
(-48.9817 15.4863 -5.24089)
(40.3372 10.4277 -4.65538)
(-33.6265 -4.58511 -7.65265)
(32.7409 -13.6241 4.60597)
(-0.28816 -11.0879 4.54684)
(36.5485 -12.6188 5.14777)
(24.5069 -8.72099 0.536917)
(41.8635 -8.65093 -0.202773)
(36.9104 -6.54915 -0.846923)
(46.41 -5.6391 -0.873734)
(45.0676 -4.46728 -1.1785)
(50.255 -3.59771 -1.15498)
(50.3352 -3.10256 -1.35454)
(52.8321 -2.68433 -1.30118)
(53.3224 -2.2112 -1.33066)
(55.8819 -2.08637 -1.27917)
(54.3053 -1.48071 -0.769511)
(217.935 -246.98 -166.389)
(-82.8078 -48.1588 13.3088)
(47.715 9.201 -24.8774)
(-105.085 -1.92711 2.57647)
(34.8153 -12.0727 5.80899)
(-44.5503 -8.70948 4.48443)
(30.2396 -12.2482 10.8949)
(1.8163 -3.56721 4.17325)
(34.5958 -9.11813 3.22895)
(22.1641 -5.69231 1.16703)
(38.2743 -8.59462 1.33075)
(32.6948 -5.72012 0.79515)
(41.1016 -6.57663 0.705635)
(38.84 -4.80587 0.314949)
(43.3752 -4.89183 0.292366)
(42.8944 -3.84293 0.282167)
(45.2614 -3.61004 0.386901)
(45.3401 -2.72821 0.458111)
(47.9037 -2.27186 0.353809)
(45.6539 -1.02762 0.148519)
(63.8623 5.88297 52.4247)
(-150.903 4.49257 -2.84597)
(35.3826 -23.229 -8.76415)
(-80.1367 -1.08181 8.54527)
(36.5054 -24.0493 12.2836)
(-29.8726 -10.9499 5.2866)
(32.5374 -28.0383 3.19384)
(1.06297 -15.3374 1.19482)
(34.1454 -21.6675 0.904664)
(20.4256 -12.7576 0.432702)
(36.5856 -13.9284 1.02909)
(30.3403 -8.52394 0.666114)
(38.1205 -8.67997 1.00912)
(35.5476 -6.13804 0.653633)
(39.4037 -6.00945 0.549965)
(38.7195 -4.52125 0.324608)
(40.6665 -4.06927 0.298371)
(40.5384 -2.91656 0.238223)
(42.9338 -1.97739 0.125249)
(40.5553 -0.463301 0.0239047)
(134.155 -17.2752 65.3327)
(-64.5101 -34.706 3.05426)
(81.6575 -42.6945 -21.2309)
(-34.0253 -17.3101 -14.2661)
(48.024 -23.3691 -0.131113)
(-11.7435 -6.91578 4.4782)
(36.433 -27.248 12.0095)
(16.8521 -11.2527 4.82537)
(38.329 -22.9784 3.19702)
(28.0605 -10.7688 0.878714)
(39.058 -14.6227 0.803256)
(33.5396 -6.90522 0.111039)
(38.9817 -8.4566 0.523554)
(36.0473 -4.93068 0.388929)
(38.9599 -6.01911 0.530576)
(37.9335 -4.60276 0.322363)
(39.5768 -4.66277 0.241884)
(39.3153 -3.48703 0.144666)
(41.7426 -2.51631 -0.0290764)
(39.3522 -0.254788 -0.200889)
(126.447 -86.9915 -81.6983)
(-11.2218 -74.4605 -37.29)
(84.8186 -66.0285 -16.7134)
(-13.3092 -37.88 -7.9322)
(49.8559 -28.3731 -1.12593)
(-11.6538 -5.58302 -2.21317)
(36.6075 -25.1013 1.48283)
(10.9694 -13.1428 0.781915)
(30.9582 -23.7566 0.840286)
(21.972 -14.2202 0.347874)
(32.3681 -16.1008 0.188006)
(28.9916 -9.13938 -0.283505)
(33.9318 -9.24245 -0.116225)
(32.7476 -5.8395 -0.00416883)
(35.1556 -6.32834 0.208676)
(35.3821 -4.95589 0.126525)
(37.0544 -5.18144 0.0940806)
(37.4316 -4.00039 0.0489445)
(40.0549 -2.8187 -0.0726815)
(37.9037 -0.183695 -0.181155)
(66.1609 -197.686 -12.4481)
(-5.65975 -50.9915 -33.1842)
(112.534 -21.5148 -32.6246)
(10.5571 -22.4566 -8.10965)
(67.2483 -18.2902 -2.0965)
(6.53301 -9.86734 -1.08568)
(34.1848 -41.7647 1.33156)
(15.2533 -7.62707 3.11397)
(32.169 -30.1982 2.60509)
(25.4531 -12.2853 2.31815)
(34.6586 -20.0068 1.08751)
(30.9141 -9.3221 0.404508)
(35.2147 -11.8743 -0.144728)
(33.6775 -6.01396 -0.170108)
(36.764 -7.78607 -0.032528)
(36.8127 -6.68282 -0.0483895)
(38.6514 -6.85602 0.127522)
(38.9851 -5.6322 0.194368)
(41.4644 -4.2149 0.111051)
(39.008 -0.512926 -0.0614964)
(116.818 -164.48 83.4604)
(-28.8985 -17.9567 -2.5974)
(73.8069 -25.8025 -8.77125)
(-28.0249 -28.658 -1.65673)
(63.5894 -13.0989 5.12133)
(15.3643 11.2115 2.48934)
(42.9753 -8.91468 1.50554)
(22.44 -13.0723 3.68767)
(35.9502 -14.971 2.44372)
(31.1666 -16.8687 2.39539)
(37.2928 -12.0536 1.20731)
(35.1368 -9.40199 1.0986)
(38.1191 -6.10001 0.0292134)
(37.7942 -5.05756 -0.5305)
(39.0783 -9.59894 -0.453142)
(40.0385 -8.07546 -0.396816)
(41.4601 -7.97697 -0.0292365)
(41.3119 -6.22168 0.327434)
(43.0267 -4.23952 0.289629)
(38.9997 0.00752384 -0.19674)
(162.033 -94.0708 129.202)
(-43.3875 -60.2271 50.4341)
(90.5702 -33.8725 8.83819)
(-35.3452 -41.4059 10.0843)
(55.2419 -30.4008 4.02753)
(16.3557 -0.370449 2.33413)
(43.8835 5.11309 7.09185)
(41.6278 -16.1267 6.57464)
(50.0868 -15.3918 4.53905)
(49.9903 -15.6932 3.17278)
(48.7158 -11.3209 2.07772)
(45.5126 -8.43641 1.84778)
(45.343 -5.06269 0.656192)
(44.9065 -5.40495 -1.09924)
(46.4243 -8.23644 -1.13749)
(45.6957 -11.2193 -0.209774)
(45.7734 -9.59162 0.00853588)
(44.4674 -6.8932 0.293053)
(45.1172 -3.23512 0.411767)
(38.9168 1.18786 -0.341451)
(236.003 -46.4006 -88.3406)
(63.2811 -35.4378 33.2299)
(124.691 -16.4251 22.8857)
(-5.89168 -7.04817 -1.73308)
(51.6214 -14.6816 3.63923)
(11.4854 -13.5773 -2.19871)
(36.9187 -12.585 1.65402)
(42.9186 -25.0381 1.93755)
(46.2681 -25.3335 1.26129)
(48.2114 -20.1344 0.55704)
(50.9249 -15.1584 1.33397)
(51.78 -10.905 0.867383)
(52.4398 -7.6842 0.104008)
(53.7644 -10.3443 -1.1631)
(52.9406 -14.0753 -0.531325)
(49.3219 -12.627 0.208929)
(48.2151 -9.30617 -0.126652)
(45.0296 -5.37605 -0.488772)
(44.4931 -0.167608 -0.335994)
(37.0866 3.53098 -0.905221)
(-15.5338 -87.1705 43.2682)
(-135.142 18.7145 -7.91306)
(26.8717 6.40473 1.97502)
(-76.8614 -12.0425 3.4958)
(39.9175 -8.22731 4.55422)
(-10.3457 -21.6043 1.64042)
(23.6582 -25.073 2.19896)
(37.3543 -29.2087 1.89137)
(42.8419 -29.1771 2.00945)
(47.2484 -26.897 4.32082)
(51.6422 -20.0347 -0.507541)
(54.802 -12.6488 1.53337)
(55.5298 -8.65487 0.3712)
(56.1357 -10.341 0.71434)
(51.7233 -12.4695 1.36644)
(44.9092 -10.3727 0.853184)
(43.4025 -6.81014 -0.210024)
(40.7457 -3.69449 -1.17092)
(40.4205 2.1744 -1.36517)
(34.5751 4.47382 -1.35187)
(70.2813 -110.574 7.64445)
(-112.372 -48.7901 8.81749)
(93.4516 -11.3517 29.2845)
(-52.6071 -15.3815 8.73666)
(65.2409 -32.9656 6.07274)
(24.6322 -40.1054 -0.175374)
(51.7497 -49.7393 1.24126)
(52.0133 -33.7526 2.97022)
(49.4549 -30.4628 3.77908)
(46.2716 -24.6181 4.39652)
(45.6608 -17.4155 2.14006)
(45.9813 -11.1401 0.64513)
(47.1314 -9.27102 0.604021)
(47.4242 -9.49212 0.823962)
(43.8892 -9.41576 1.00284)
(38.7375 -7.93174 0.478826)
(37.134 -5.16017 -0.452115)
(36.7142 -3.12669 -0.781858)
(37.4773 1.67037 -1.09638)
(34.4873 4.1241 -0.944275)
(116.262 109.644 72.0386)
(-97.8713 -5.39729 -29.3845)
(104.659 -12.763 -10.9322)
(-6.3186 -3.79418 -1.35147)
(84.2291 -35.219 3.72856)
(42.9521 -53.905 0.467684)
(62.4129 -37.2626 0.943668)
(45.7687 -27.9697 3.90267)
(47.4877 -22.0295 3.97639)
(35.5749 -16.1339 5.40943)
(39.3324 -12.5251 3.00695)
(36.3187 -10.2095 0.904531)
(39.1141 -8.92655 0.166638)
(37.2663 -9.04102 0.251939)
(35.5147 -8.13035 0.349753)
(35.4301 -8.02666 0.148323)
(35.0396 -5.36478 0.0351784)
(35.821 -4.0188 -0.113755)
(36.8714 0.362157 -0.626318)
(35.6089 2.90049 -0.412537)
(146.277 -118.485 136.193)
(15.4848 -27.4121 -25.9175)
(130.324 -23.0317 6.34607)
(39.3614 -20.2282 -0.550476)