/*--------------------------------*- C++ -*----------------------------------*\
  =========                 |
  \\      /  F ield         | OpenFOAM: The Open Source CFD Toolbox
   \\    /   O peration     | Website:  https://openfoam.org
    \\  /    A nd           | Version:  10
     \\/     M anipulation  |
\*---------------------------------------------------------------------------*/
FoamFile
{
    format      ascii;
    class       volScalarField;
    location    "1.7";
    object      k_0;
}
// * * * * * * * * * * * * * * * * * * * * * * * * * * * * * * * * * * * * * //

dimensions      [0 2 -2 0 0 0 0];

internalField   nonuniform List<scalar> 
12920
(
848.166
1877.77
1838.16
1539.63
1144.38
763.814
534.959
360.754
227.012
151.938
117.978
101.882
89.8099
77.4732
68.4225
66.5466
66.89
69.3634
74.1798
72.8084
568.319
1393.84
1477.25
1043.51
741.049
524.261
386.983
299.084
237.531
205.143
176.171
157.793
143.55
131.165
119.351
104.495
93.3868
81.1094
72.8419
63.0259
161.902
1313.87
1536.23
1107.67
720.812
494.643
359.876
300.366
243.846
207.101
173.876
157.915
143.905
128.121
110.765
89.4814
74.8112
60.649
53.7826
42.3379
396.235
981.417
1481.88
1249.36
801.834
498.741
334.644
260.357
190.736
142.558
98.4146
80.1142
75.6083
74.7678
71.5599
59.4647
46.6068
34.7277
22.9867
12.3811
572.021
2704.69
2677.01
1489.72
859.05
561.748
395.395
297.875
211.4
141.153
79.5152
43.1965
27.4175
24.6336
22.7912
18.0399
12.1136
6.49771
3.22491
1.70615
2050.19
2821.98
2344.22
1529.86
984.195
679.443
466.133
355.041
255.373
167.192
81.8385
30.8454
11.6984
6.36482
4.03353
2.52571
1.39304
0.608902
0.217227
0.0838873
3460.42
3174.98
1911.72
1378.22
936.309
618.59
419.67
304.214
196.386
99.0676
30.0879
9.4917
11.8579
13.3514
12.1198
8.62992
6.11881
3.5751
1.64856
0.430889
10617
9493.28
4435.75
2191.72
1446.39
1051.94
623.754
370.091
219.78
106.811
34.568
12.8847
15.5674
35.9996
73.5677
44.0937
26.5995
15.2489
7.89691
2.60026
3882.3
4239.4
3456.86
2287.21
1699.6
979.704
594.88
280.897
156.652
107.416
83.9711
45.8585
31.4367
57.2594
118.711
111.615
55.7892
28.9296
15.5838
5.82865
1344.65
2502.49
2427.58
1933.61
1505.85
921.867
524.117
187.278
105.248
116.409
116.616
131.922
126.503
54.5603
135.719
157.397
72.5586
36.4071
20.3472
7.77796
723.879
896.169
1295.63
1274.03
1009.87
617.531
359.875
164.848
122.508
90.4768
78.2689
74.3424
61.0306
61.7484
84.4205
136.568
58.7463
35.834
24.104
9.5703
1597.12
2019.39
1507.48
1222.54
756.76
354.222
190.778
109.916
137.107
155.082
136.839
128.244
155.648
147.827
177.154
97.4089
51.4297
37.6991
27.6703
11.6225
1552.92
2433.98
2079.01
1598.41
977.087
725.643
390.782
258.263
242.279
201.741
159.635
140.145
129.207
74.4572
85.1013
66.3333
53.3994
45.8937
41.9407
30.2021
1129.1
1504.82
1445.56
1187.92
892.285
760.719
587.52
484.137
385.352
287.503
211.784
148.35
109.959
84.1983
67.724
57.5648
54.3158
52.6034
51.0311
44.3439
224.243
905.926
1442.7
1008.46
744.21
594.397
501.309
394.11
299.849
219.804
158.325
117.184
91.4519
73.9064
63.3788
60.9827
62.4957
64.2014
62.8555
48.9947
405.329
819.925
1485.32
1119.95
772.477
620.152
481.196
409.067
301.228
229.022
165.093
127.711
101.557
79.0896
59.1318
40.8283
28.7801
23.2523
24.068
23.7623
1080.43
2071.22
1594.23
1024.18
678.018
542.724
419.778
364.347
275.221
228.801
182.069
146.483
108.086
72.7561
44.4677
25.7931
15.6534
11.879
11.8237
13.0717
1108.84
2405.11
1736.41
1125.14
806.011
695.588
481.351
371.915
282.474
233.546
193.509
176.093
151.033
124.794
99.1972
76.8679
58.7797
41.6086
30.4425
18.96
364.74
1814.54
1502.67
678.513
440.401
421.706
386.679
331.815
258.619
210.716
172.49
141.192
111.97
86.2445
69.1887
57.5713
48.3876
35.0121
24.013
11.7908
573.052
1568.85
1226.1
449.289
178.08
145.08
172.124
189.549
185.656
168.565
141.174
117.301
96.8573
78.2779
60.8145
42.4288
25.899
13.2942
6.16725
2.11388
2754.68
3740.78
3460.54
3005.21
2549.28
1854.62
1284.64
834.08
527.443
352.386
260.617
216.791
188.983
172.548
164.703
156.117
150.161
140.753
132.162
109.632
2466.13
3932.49
3945.52
2497.38
1945.42
1332.06
970.488
751.203
584.994
509.304
439.675
404.104
370.897
343.897
309.13
265.772
216.336
160.253
111.863
93.3434
768.331
3273.38
3914.9
2831.68
1852.89
1228.19
890.21
746.278
596.367
519.946
444.266
408.986
369.303
326.98
273.134
203.789
144.425
93.9554
63.9982
41.8788
450.429
2262.63
3653.31
3254.13
2057.14
1236.48
821.561
651.057
462.269
353.442
256.504
228.422
214.66
197.891
162.447
114.792
69.9106
36.5604
17.4549
6.75178
1834.92
5644.48
5654.85
3531.8
2079.55
1355.52
923.959
717.624
463.346
285.461
143.259
81.7821
54.015
46.4472
36.9896
23.3773
12.0437
4.78227
1.6896
0.582778
1769.18
5018.18
4476.92
3521.97
2231.04
1648.96
1071.93
848.126
539.248
302.182
122.357
46.194
17.6641
8.58192
4.87176
2.98523
1.72211
0.758799
0.244538
0.0574446
5631.57
4593.26
4630.66
3475.6
2285.29
1567.58
1071.73
729.326
397.391
169.533
58.8342
22.1572
22.3126
20.5952
20.2674
18.7001
14.3876
7.20046
2.77394
0.649678
5272.56
7407.06
6318.89
4967.26
3625.4
2655.34
1832.77
1240.44
734.075
347.496
110.808
79.9951
78.0015
100.422
124.448
94.4411
60.5361
31.1326
13.9159
3.99421
7666.32
7366.26
7233.17
5295.38
3907.89
2973.52
2162.24
1376.46
839.788
581.144
464.613
334.99
231.616
245.751
280.11
242.963
138.112
71.0773
33.3299
10.8261
2517.54
7418.72
6071.53
4433.74
3363.52
2840.41
2098.05
1232.92
746.709
695.458
644.69
629.475
564.903
380.956
398.836
353.41
179.739
93.6329
51.1822
18.3932
3169.18
3831.08
3434.75
3048.44
2075.67
1722.22
1300.12
981.352
825.396
641.599
516.397
430.848
389.693
379.256
340.233
331.722
162.774
89.7527
57.1955
22.6927
6296.51
6866.34
4296.49
2957.81
1579.03
1316.18
1045.08
826.001
811.965
784.977
687.416
640.738
652.023
617.464
433.321
225.233
117.49
82.5666
61.4255
24.9368
7109.93
5494.77
4915.62
3646.16
2122.11
1700.44
1259.99
1093.58
890.609
726.706
577.501
524.04
456.922
314.122
220.557
159.26
122.833
91.3089
71.3435
38.2477
909.715
3860.91
3731.82
2946.2
2098.32
1806.9
1402.57
1169.72
874.226
666.89
491.42
357.841
270.787
196.425
145.833
123.96
118.885
107.334
97.0941
74.2807
1223.99
1951.12
3762.23
2392.72
1845.78
1475.3
1228.38
959.843
694.477
519.938
376.794
296.101
242.108
207.427
192.171
194.616
195.026
182.918
159.254
95.6856
2933.38
2386.46
3415.4
2555.56
1838.75
1470.12
1127.31
943.434
667.958
537.756
394.49
309.417
246.901
195.174
155.768
112.396
79.841
54.4257
49.7133
37.7947
7546.4
6986.66
3848.87
2262.87
1658.51
1431.28
1020.95
888.73
629.637
515.122
378.276
280.439
182.49
106.898
57.858
30.2181
16.1648
10.49
10.2848
12.3039
6044.38
6311.32
3612.92
2415.71
1723.3
1737.25
1206.51
974.229
649.336
570.404
449.273
391.438
317.353
249.243
175.014
117.219
77.733
47.9781
32.8084
18.7459
952.046
4320.01
2093.58
1113.87
979.246
1054.05
924.412
799.06
584.556
487.649
370.543
301.841
226.646
168.338
118.471
83.7437
57.4828
35.1521
20.001
7.64069
584.881
2089.68
1650.88
697.161
414.313
395.78
382.341
384.031
368.068
327.126
276.638
235.873
193.058
146.765
99.1405
59.3766
31.2817
14.0771
5.61372
1.60094
2942.53
4751.41
4026.56
3297.65
2867.66
2183.48
1503.45
960.21
602.408
402.686
303.298
254.171
224.216
203.575
191.111
179.484
167.834
148.64
131.274
103.421
6481.85
6144.11
5339.87
3508.09
2624.32
1838.95
1287.26
996.888
770.675
676.497
587.604
547.768
501.391
463.01
407.265
334.896
249.016
162.532
94.5425
77.5548
2572.1
4246.1
5058.93
3829.69
2479.28
1621.65
1194.29
985.873
795.282
697.411
602.758
555.946
494.722
429.534
337.893
230.827
127.774
55.8133
24.7233
19.1686
2538.12
3576.96
5124.39
4500.62
2775.27
1648.42
1133.59
890.687
643.415
519.619
407.939
371.778
325.286
266.07
183.286
104.019
47.6979
18.1133
6.04729
2.6689
8118.22
7545.94
7091.4
4720.19
2727.95
1691.11
1174.42
887.261
579.326
393.864
237.674
169.112
112.046
72.8233
41.0624
19.1364
7.32004
2.28666
0.636456
0.254603
4849.04
6000.68
5410.47
4255.29
2779.52
1916.65
1324.81
1014.05
622.691
367.736
174.337
90.9039
38.676
14.963
5.48815
2.42539
1.40856
0.735289
0.279154
0.0678593
14213.4
7396.96
6137.7
4343.96
2953.79
1983.99
1403.79
944.191
511.162
235.783
113.681
47.3514
31.8367
17.4424
15.9522
16.2033
15.2943
9.50578
4.84018
1.56423
5216.76
7071.26
7061.88
6326.22
4561.31
3230.77
2324.28
1551.71
852.459
441.712
173.692
146.661
108.159
113.191
120.321
110.952
88.3972
51.8053
29.1418
13.2176
14891
9156.56
8114.56
6114.61
4550.33
3528.19
2709.59
1766.92
1140.2
788.922
606.391
462.737
373.846
356.785
320.192
310.223
227.196
143.098
81.2732
38.7711
13067.2
9990.55
7991.16
5263.49
3994.25
3336.54
2499.32
1630.73
1235.43
1016.51
901.502
826.272
714.73
600.998
620.653
497.465
321.058
211.774
130.386
61.3148
13517.6
9217.08
5815.61
4175.52
3083.35
2585.42
2114.8
1702.04
1319.71
1043.45
682.863
530.726
563.416
628.578
590.247
548.898
352.05
230.023
139.196
65.4635
16470.6
8809.85
5360.86
3558.85
2441.83
2104.63
1804.73
1429.24
1248.11
1086.87
927.993
837.794
788.923
730.452
577.742
429.105
307.918
212.065
123.942
53.9689
6218.25
6826.12
6310.15
4349.46
2771.77
2162.15
1785.47
1541.52
1174.52
958.491
759.69
682.113
577.127
445.884
391.77
347.894
299.505
217.264
135.068
58.5266
4201.28
6153.49
5343.91
3684.53
2737.62
2172.79
1732.04
1350.6
1029.6
800.01
648.103
529.998
447.768
375.056
323.551
303.318
283.678
233.161
204.084
144.532
7282.83
5769.67
5228.26
3116.01
2447.04
1779.35
1508.3
1111.56
844.869
651.729
536.722
455.972
405.366
360.237
332.215
313.688
281.375
226.29
192.135
112.137
11788.5
6582.56
5023.09
3123.78
2336.89
1703.82
1347.95
1033.32
752.366
579.647
454.34
363.593
317.653
262.857
227.892
171.929
128.327
82.9914
59.6813
28.6187
16536.7
13535.6
5318.19
2741.71
2149.19
1664.79
1251.91
990.674
690.917
517.705
358.662
239.415
157.908
97.3386
62.9084
36.5522
22.3822
13.4766
8.7727
6.17949
25367.2
13727.7
4638.49
2462.67
2087.6
1816.66
1313.72
1102.53
768.738
623.8
458.729
345.002
223.689
130.853
68.9264
36.969
22.3407
13.7423
11.4886
7.33549
4429.77
5453.09
2739.12
1557.95
1422.89
1322.17
1094.64
904.946
671.26
533.267
391.759
290.317
196.93
131.404
84.8414
53.4469
31.9413
15.8735
6.6882
1.90199
1328.62
2689.99
1874.62
926.982
689.533
590.563
528.286
473.325
415.971
351.417
291.658
236.066
184.772
133.339
88.5458
52.334
26.7786
11.4164
4.1566
1.09052
8414.66
7640.94
4607.4
3241.65
2832.23
2213.39
1497.99
924.56
573.391
389.546
302.936
258.959
230.747
209.292
196.46
189.681
181.155
162.85
153.214
131.837
7462.27
9181.45
6922.03
4177.6
3183.15
2131.43
1530.21
1211.91
970.89
869.926
769.079
720.709
662.373
603.432
531.093
429.392
336.028
258.944
208.192
186.049
5473.19
7499.86
7121.29
4468.19
3012.54
1880.34
1479.84
1202.97
1014.79
897.029
799.772
734.43
652.913
553.668
438.733
303.32
190.639
117.524
88.3993
92.729
4902.91
6917.82
7884.05
5878.59
3423.92
1926.22
1420.45
1096.62
852.556
719.449
605.005
552.069
466.333
359.218
238.592
132.826
67.2278
33.4455
24.1689
27.1189
8765.11
9745.88
9441.38
5891.07
3364.94
1920.55
1419.57
1027
736.868
548.101
397.708
317.033
230.675
150.35
85.9982
44.0243
23.3994
12.2396
7.79293
7.5403
17445.8
8193.89
7469.51
4999.39
3322.16
2094.38
1556.13
1139.57
743.33
496.53
290.902
206.626
115.365
61.8364
29.8143
16.1743
11.2156
8.32503
5.14622
2.85662
19818.1
10636.8
7744.65
4969.22
3520.55
2232.19
1659.67
1060.03
634.524
350.862
207.088
101.427
60.5436
31.433
29.0662
30.3807
37.1297
39.1582
38.1591
27.0128
20107.3
9093.04
8584.52
6954.78
5146.05
3471.22
2544.67
1610.87
890.402
494.447
263.935
211.075
118.596
107.042
130.435
132.884
130.151
115.179
106.048
92.356
17754.8
11050.1
9296.33
6471.93
5005.37
3764.81
2871.76
1918.42
1238.79
892.323
637.022
509.62
443.217
390.042
318.388
339.374
269.369
206.297
169.309
147.473
21065.4
14997.2
10283.1
5820.52
4527.17
3572.84
2660.3
1946.4
1546.11
1248.46
1059.94
903.97
804.763
775.512
741.473
580.696
432.413
316.426
237.538
180.091
16941.9
12065
7554.08
4748.78
3906.87
3189.35
2612.1
2127.41
1689.98
1371.05
1048.75
822.85
825.827
871.024
876.389
717.884
518.586
357.763
254.919
189.07
15099.5
9891.36
6319.35
4049.27
3163.1
2671.48
2335.73
1876.44
1590.16
1333.46
1118.97
970.742
861.518
842.892
811.161
656.807
490.838
324.658
217.402
161.739
14838.8
9452.77
7543.18
4594.24
3435.44
2482.16
2154.96
1801.55
1344.58
1092.16
867.974
766.928
662.638
597.713
635.547
589.705
468.676
314.115
210.712
130.284
23773.4
8852.61
6447.86
4134.74
3364.92
2347.61
2004.96
1421.3
1147.51
891.054
780.221
691.601
646.157
619.07
608.472
585.056
517.295
403.574
337.62
203.279
20441.3
8506.82
6412.96
3843.47
2978.05
1946.19
1766.7
1199.36
978.799
758.503
690.36
612.331
587.321
553.623
539.124
506.938
440.502
338.262
249.512
117.177
16286.8
9773.5
6149.15
3773.89
2778.51
1827.15
1523.27
1035.52
828.128
616.209
539.172
443.747
416.4
354.343
317.19
245.413
186.053
125.047
88.4591
54.2162
33804.6
20630.4
7566.65
3468.77
2576.3
1770.39
1389.94
963.736
704.434
482.986
361.212
259.239
216.374
167.65
140.168
103.237
79.2205
59.0387
45.1695
30.3462
37834.4
10158.2
4741.22
2797.58
2406.66
1767.96
1411.28
1055.03
793.895
592.942
430.898
302.852
203.71
145.894
110.138
83.2403
60.2092
39.5196
24.7599
19.339
17286
9167.1
3824.57
2163.99
1825.4
1409.3
1198.95
880.394
685.507
509.478
371.273
259.119
177.523
124.149
87.2444
62.5245
44.1401
29.8989
20.5448
14.9287
1361.96
2465.22
1616.72
1071.06
851.069
636.855
544.709
449.068
387.163
315.488
261.515
205.086
155.727
109.706
71.5023
41.3721
20.9031
9.21207
3.60591
0.999583
4672.26
7277.25
4889.13
2924.58
2433.05
1743.36
1028.28
597.966
399.181
309.151
262.645
230.481
210.883
197.972
192.962
191.377
189.047
187.275
192.651
188.43
11219.6
12187.1
9044.58
4562.49
3983.49
2162.12
1982.3
1436.65
1391.26
1181.16
1137.46
1007.05
952.759
828.098
761.711
644.913
599.516
551.551
538.068
505.656
7263.03
10176.8
9338.83
4929.86
3934.5
2070.98
2006.83
1475.03
1435.2
1194.47
1159.88
1010.79
934.228
759.706
679.442
556.325
507.628
461.323
455.151
442.653
20656.7
11026.2
11765.7
6394.79
4295.69
2127.32
1951.85
1357.5
1278.04
1028.49
982.032
845.422
739.671
570.304
480.528
382.481
330.175
288.847
289.565
292.299
12172.5
13413.2
12790.8
6194.06
4176.36
2092.28
1880.77
1221.61
1104.2
793.733
731.625
576.553
509.142
387.887
337.546
272.291
245.176
201.215
180.159
181.751
17433.2
10454
10337
5287.97
4290.44
2241.55
2030.25
1343.59
1076.75
743.078
571.166
455.835
340.579
268.327
210.011
179.98
169.227
152.629
122.347
105.47
22450.1
11592.5
10148.1
5329
4544.66
2421.5
2030.34
1248.49
907.819
573.071
401.837
260.729
218.942
176.765
182.557
188.277
219.958
251.636
268.396
260.924
18823.1
10302.8
10916.6
6818.96
6137.42
3682.47
2753.76
1670.8
1058.82
637.013
478.642
338.069
274.643
239.088
302.754
298.92
304.141
327.218
345.044
368.869
31613.4
13323.7
10839.4
6640.62
5738.39
3925.42
3089.32
2074.03
1429.56
1057.32
771.872
660.667
557.534
468.662
441.793
425.285
373.819
364.851
372.939
398.644
35396.8
21294.4
12526
6302.89
5240.85
3781.92
3039.51
2381.12
1953.58
1544.05
1211.11
1004.22
984.678
920.351
817.145
657.64
510.126
436.383
410.347
411.92
22607.6
15514.7
9469.6
5497.45
4930.09
3639.54
3105.87
2605.67
2175.08
1758.87
1413.69
1094.66
1035.53
1106.74
1103.64
813.251
598.129
472.738
426.622
421.521
28814.3
11741.9
7176.68
5183.13
3874.61
3069.88
2828.89
2373.42
2032.27
1656.63
1361.62
1134.08
1016.56
1041.77
1031.02
788.115
571.339
449.876
409.864
408.716
18176.5
10949.3
8500.56
5199.58
4472.07
2826.52
2606.53
2036.7
1606.17
1251.98
1055.16
923.623
877.108
873.289
903.786
740.477
584.475
474.144
439.013
441.35
36138.4
13666.4
7391
5182.33
4237.63
2670.58
2586.73
1575.4
1440.86
1025.13
1031.03
916.797
952.006
928.028
930.631
854.335
765.963
649.56
586.137
464.033
34855.4
13096.3
8246.54
5033.29
3750.53
2365.69
2313.69
1367.27
1268.04
914.001
925.208
809.569
835.482
783.171
781.018
689.932
609.849
493.205
422.456
337.973
19963.7
10334.8
7614.52
4854.85
3490.21
2237.13
1916.64
1125.28
1056.89
716.092
720.012
569.018
570.183
478.09
461.415
385.84
366.049
321.807
301.521
290.41
28884.7
13627.6
7293.94
4450.41
3286.85
2160.26
1736.45
1021.66
847.985
519.265
488.608
379.898
389.977
351.883
355.818
326.244
310.626
273.004
255.179
258.449
16751.3
10008.8
5856.23
3944
3038.67
2106.89
1726.84
1087.52
942.667
578.714
533.564
407.652
417.876
380.315
381.949
351.612
336.342
296.007
261.862
260.666
15398.5
8664.44
5505.93
3221.98
2532.6
1682.42
1464.07
892.958
812.486
501.642
469.019
341.753
334.166
298.821
300.373
291.739
284.363
262.011
246.299
238.015
4241.51
3892.36
1903.49
1341.11
933.643
608.748
472.731
361.585
295.407
229.224
182.404
139.126
105.109
75.2593
51.1086
32.6789
19.6523
10.9211
6.03617
3.37326
923.193
1050.86
784.394
1192.67
1063.24
1266.83
955.88
847.028
716.888
617.153
1027.21
925.642
862.308
782.805
760.637
1070.2
948.182
1287.91
995.65
1281.35
1122.76
556.785
908.363
817.393
888.795
722.165
1071.99
944.822
360.05
559.827
276.115
1606.59
1300.32
1709.55
1250.44
168.686
207.224
110.153
1110.18
762.582
1050.2
624.492
115.672
108.723
118.026
686.213
534.951
611.335
604.413
93.8788
119.803
122.115
492.821
426.01
592.665
566.294
60.0915
124.306
132.968
398.005
308.482
561.891
551.235
30.4327
133.268
119.567
271.258
196.629
543.55
481.784
49.3131
93.4646
49.2761
188.481
199.209
418.078
284.193
62.4996
50.6366
69.5498
212.964
228.752
283.78
303.258
250.915
442.682
213.577
1599.52
1161.27
1196.77
878.346
106.029
172.438
127.734
980.803
594.813
771.576
683.87
115.728
123.616
109.021
589.742
597.296
665.318
577.143
115.852
101.73
79.6969
588.647
559.847
546.471
461.596
127.51
73.2436
61.3029
555.452
553.256
431.264
368.773
132.034
59.367
60.3145
552.594
527.859
357.647
353.506
59.7876
63.6331
83.1164
504.043
344.447
359.194
390.847
61.1257
88.3459
57.7681
314.373
314.165
392.446
337.239
199.344
231.235
107.91
919.271
781.163
698.456
610.043
126.809
97.391
97.9844
726.393
685.751
605.652
620.389
95.0564
104.006
138.187
667.776
554.627
620.93
636.843
80.5776
144.337
145.825
524.283
448.741
638.464
608.738
75.8426
139.842
123.895
424.223
369.588
588.319
545.126
62.3113
124.542
142.675
356.811
320.847
543.823
558.047
61.1615
150.517
151.608
312.797
303.895
564.722
560.209
55.0491
145.181
150.742
298.575
282.177
547.012
522.668
111.362
249.906
141.54
763.428
656.256
948.854
871.066
127.337
144.435
165.507
650.903
671.765
870.478
834.833
153.834
164.798
145.105
681.473
690.847
800.843
694.857
146.701
138.66
118.478
685.89
628.626
667.169
564.814
126.665
111.544
103.025
603.614
565.367
537.786
498.97
150.473
103.464
105.685
566.205
587.026
497.581
486.996
153.648
105.107
86.0696
592.086
578.831
478.482
402.453
164.206
61.0381
28.4745
562.964
528.406
363.902
202.827
1602.34
2216.01
1557.24
2629.34
1948.76
2577.11
1862.94
951.619
1317.86
802.398
1707.36
1245.77
1625.78
1212.68
632.681
771.752
715.155
1093.86
810.008
1138.81
965.376
498.474
694.471
652.947
750.162
631.8
924.033
842.784
370.806
644.599
622.582
584.314
469.783
822.84
765.374
244.119
610.65
537.992
443.261
355.148
741.504
645.11
234.751
480.816
341.852
343.786
334.493
603.317
506.254
250.11
335.112
351.388
334.87
299.972
498.368
524.351
1458.86
1630.51
1145.32
2453.45
1780.34
2139.41
1680.17
765.736
1022.87
867.505
1563.51
1197.13
1571.9
1297.83
713.524
822.383
697.163
1136.81
988.445
1209.05
998.212
652.654
660.785
564.936
949.034
867.086
956.284
770.776
633.646
530.738
459.881
849.008
806.907
716.234
617.783
592.446
447.488
443.757
790.667
719.284
610.353
629.08
418.244
449.225
471.493
687.041
581.385
644.32
658.532
355.849
470.079
390.196
552.511
533.93
651.349
575.161
1047.46
1011.01
812.607
1936.62
1652.03
1620.18
1365.05
873.468
794.993
779.55
1564.03
1306.89
1315.68
1189.72
678.695
767.626
747.489
1214.31
990.488
1145.32
1027.9
547.29
741.18
692.369
946.969
743.186
995.898
890.961
446.492
669.14
618.339
682.915
566.237
855.601
775.945
396.223
613.67
616.758
544.665
523.509
760.355
728.15
383.822
618.902
606.71
529.618
563.544
718.762
681.796
346.732
594.553
546.747
567.422
551.779
671.287
603.135
844.453
1213.3
1046.99
1635.76
1346.47
1717.71
1459.82
813.833
1036.78
961.542
1296.86
1187.68
1420.75
1250.4
796.876
916.332
794.851
1151.15
1052.87
1180.87
1019.44
714.321
764.321
648.411
1020.66
910.661
982.092
833.255
641.953
618.004
573.085
876.647
809.1
795.311
733.443
650.554
571
553.689
798.548
775.099
727.179
685.089
632.364
542.632
460.751
765.716
724.686
665.813
575.736
555.634
425.146
249.856
710.292
624.947
544.413
386.376
2002.21
2620.46
1885.16
2838.44
2107.63
2693.83
2004.3
1299.33
1672.4
1308.55
1888
1384.29
1853.97
1525.11
849.283
1225.5
1028.57
1219.63
932.285
1424.52
1186.8
658.383
982.652
889.757
869.572
697.943
1130.24
999.117
486.285
865.675
795.251
634.494
512.454
960.017
846.537
383.729
767.552
668.104
496.565
441.779
809.85
721.064
359.597
631.557
554.43
431.371
400.529
703.183
679.68
304.94
549.694
564.784
387.295
300.717
678.852
656.318
1819.68
2260.09
1810.49
2606.6
1998.19
2548.99
2136.4
1306.29
1704.11
1408.73
1864.04
1564.32
2023.87
1693.03
1061.19
1313.69
1084.28
1474.01
1249.84
1589.69
1342.88
1061.94
979.164
1033.81
1078.57
995.135
1037.37
1104.32
939.981
882.927
905.676
948.474
886.678
925.657
962.274
746.148
622.202
676.997
891.582
802.175
794.748
834.239
624.142
697.374
710.176
781.386
741.44
842.191
844.789
583.795
701.489
621.546
733.626
710.482
836.605
791.887
1795.4
1799.6
1520.87
2498.29
2138.06
2226.36
1909.75
1417.94
1462.59
1305.27
2030.65
1703.54
1830.27
1606.65
1080.23
1251.4
1109.25
1598.93
1347.38
1533.82
1337.3
1040.95
957.996
1038.88
1121.28
971.533
943.834
1124.87
662.24
629.501
732.7
566.543
676.917
515.618
727.879
539.139
797.468
753.177
700.103
738.114
911.11
833.457
624.021
740.668
700.347
768.05
817.338
814.446
793.029
600.759
690.828
614.667
816.9
786.424
795.225
763.7
1487.13
1860.62
1568.58
2215.64
1849.78
2201.44
1845.76
1293.12
1520.98
1324.86
1772.45
1571.72
1772.78
1507.91
1125.25
1248.09
1075.52
1506.68
1326.46
1415.31
1213.82
964.698
1036.36
878.513
1271.55
1116.52
1167.15
985.678
852.138
838.534
771.298
1071.13
966.026
940.442
855.863
802.413
763.299
712.264
939.081
865.985
841.317
764.957
743.574
690.552
599.87
843.191
808.876
738.924
658.896
639.077
569.756
418.798
807.914
766.386
636.191
558.512
2136.53
2726.77
2064.73
3010.8
2238.3
2925.89
2311.34
1401.38
1921.53
1586.43
2016.6
1487.43
2170.7
1817.48
957.589
1482.74
1237.03
1345.97
1074.74
1712.11
1432.94
703.267
1176.45
1028.41
990.721
755.944
1349.78
1127.83
523.546
983.248
856.012
700.789
616.442
1063.46
910.392
455.687
818.07
739.611
595.689
521.133
877.012
838.96
407.428
728.212
714.856
504.159
453.712
837.184
802.854
298.201
710.145
661.629
424.334
340.888
774.567
675.81
2074.49
2648.75
2235.41
2911.91
2369.58
2985.86
2569.82
1640.35
2119.88
1783.37
2242.49
1917.88
2448.87
2113.32
1310.25
1679.12
1423.41
1817.13
1532.88
2005.67
1709.01
1102.17
1350.88
1127.68
1447.14
1223.1
1614.57
1384.56
941.327
1048.08
911.262
1157.88
995.348
1307.65
1103.01
819.507
890.906
875.33
956.487
913.804
1049.34
986.512
780.554
878.308
885.803
915.546
899.389
994.864
1037.12
731.815
881.245
851.693
877.54
771.959
1037.51
1016.06
2238.82
2353.53
2022.7
2962.88
2572.32
2726.11
2381.18
1794.68
1938.16
1700.95
2455.55
2127.1
2289.09
2033.58
1430.62
1624.42
1413.92
2020.52
1726.34
1948.82
1683.4
1140.46
1352.21
1182.48
1638.36
1404.87
1599.64
1383.41
855.459
1128.78
990.869
1321.64
1095.55
1318.27
1135.16
808.282
952.758
862.285
1035.18
957.673
1079.37
958.1
869.073
841.62
832.662
966.031
1027.14
944.945
974.563
847.673
841.972
829.812
1036.92
1040.18
997.086
1025.98
1958.65
2301.72
1929.45
2689.64
2312.71
2602.89
2205.25
1659.9
1847.38
1561.31
2221
1972.38
2090.36
1746.05
1393.98
1464.78
1255.35
1891.39
1636.22
1648.14
1411.66
1167.07
1205.72
1015.65
1552.88
1340.08
1340.91
1126.16
1002.47
969.239
879.4
1281.9
1126.57
1078.03
973.772
885.232
862.561
779.932
1077.18
968.634
945.984
860.156
838.684
754.082
683.862
951.442
960.527
840.861
813.917
821.694
665.626
608.699
974.4
986.435
809.57
807.892
2294.79
3038.74
2432.74
3391.96
2521.13
3434.03
2860.25
1559.13
2292.15
1941.38
2352.78
1955.25
2734.89
2449.81
1150.19
1836.72
1535.97
1866.99
1520.15
2356.27
2005.71
816.73
1440.73
1187.96
1438.41
1275.55
1890.13
1602.94
688.963
1118.4
963.743
1256.76
1107.36
1532.78
1385.26
575.239
933.912
907.019
1073.05
969.428
1366.67
1353.9
499.144
902.758
845.618
949.245
846.128
1328.45
1186.51
391.177
811.642
704.849
828.059
756.211
1143.62
1025.38
2507.97
3128.36
2719.14
3461.56
2975.12
3535.78
3211.32
2056.78
2599.49
2269.03
2861.53
2594.56
3108.87
2839.56
1642.78
2158.9
1836.78
2493.56
2135.97
2734.25
2396.28
1284.35
1732.82
1474.68
2015.16
1701.26
2277.52
1973.79
1039.59
1391.33
1160.95
1618.33
1444.66
1875.1
1570.74
980.601
1100.02
1046.85
1422.96
1437.26
1502.48
1500.06
949.468
1064.4
1106.92
1431.36
1304.85
1536.45
1510.57
805.765
1103
1059.76
1262.88
1133.68
1482.9
1385.03
2720.6
2871.42
2535.36
3529.65
3215.24
3308.13
3049.62
2283.47
2443.4
2186.53
3117.53
2856.31
2965.26
2741.67
1857.22
2097.25
1806.05
2753.48
2426.01
2649.99
2323.12
1501.49
1711.85
1474.38
2313.55
2018.82
2215.94
1961.18
1163.16
1404.22
1199.61
1916.99
1583.26
1884.35
1627.88
1020.23
1136.77
1018.56
1498.57
1466.24
1552.4
1469.68
1099.67
1012.12
1047.81
1505.92
1516.6
1467.87
1461.84
1091.79
1068.06
1083.35
1504.32
1427.65
1467.3
1431.99
2466.81
2724.37
2326.31
3285.73
2983.05
3151.28
2747.4
2117.2
2197.11
1839.99
2886.19
2645.03
2553.4
2241.99
1750.18
1744.92
1495.41
2559.64
2230.28
2166
1883.13
1424.47
1412.86
1191.11
2120.83
1881.59
1746.74
1579.86
1189.2
1143.16
1034.04
1813.52
1603.47
1538.33
1415.19
1030.07
1000.72
918.397
1539.96
1472.63
1353.26
1304.98
1029.29
902.037
887.191
1452.6
1427.8
1292.06
1280.17
1045.36
885.037
884.327
1428.21
1401.01
1269.51
1265.19
1023.61
948.527
930.249
974.286
959.84
1003.35
990.623
1069.79
1039.05
979.505
1124.87
996.635
1117.18
983.226
1011.58
899.595
877.676
695.107
944.308
961.431
810.769
1125.66
1136.73
1143.45
1236.54
1091.8
1171.43
1186.15
1085.46
1020.95
1101.53
1102.63
1054.24
1049.07
1142.85
1142.85
1186.39
1264.94
1189.11
1191.78
1032.58
1213.62
1088.62
737.878
1105.9
1081.24
1035.47
858.41
1160.09
920.159
865.266
858.345
879.858
871.413
903.198
901.904
897.495
863.401
660.628
625.727
838.426
920.92
571.662
872.994
811.103
624.196
584.678
821.352
858.743
566.694
989.878
990.361
993.79
1065.39
962.586
1016.49
1033.43
963.997
905.731
959.891
970.572
934.562
939.205
1001.69
963.487
664.147
1056.95
803.428
990.596
613.876
1021.36
928.834
623.978
955.146
784.329
905.427
603.232
985.567
920.431
853.513
801.664
654.459
883.09
774.665
813.033
1076.84
1047.1
1031.34
1141.76
1000.62
1128.17
1097.84
1015.5
893.869
990.187
1005.09
947.375
952.969
1051.81
1137.22
1198.67
1230.33
1288.42
1046.55
1208.53
1232.76
1013.53
714.129
1118.75
1046.01
857.099
893.459
1144.8
1155.03
1211.77
1284.52
1228.77
1207.22
1163.55
1231.19
1091.85
1063.47
1103.67
1175.8
1024.67
1113.81
1170.12
613.22
578.141
595.008
477.995
629.879
462.439
569.175
844.386
844.566
872.367
961.022
799.702
895.631
921.169
802.387
728.903
842.545
857.955
763.267
761.571
887.467
719.614
607.492
813.631
951.519
547.97
794.041
872.9
658.326
514.284
740.327
752.085
488.869
609.66
801.524
903.921
1015.72
1038.23
1025.11
961.217
972.15
977.317
854.991
900.144
870.505
983.331
807.581
934.322
922.743
494.663
668.105
536.658
1015.72
976.976
1101.04
1082.37
287.021
419.68
314.112
799.156
631.605
952.889
728.9
164.921
232.623
178.027
511.868
395.099
562.316
460.426
70.7717
139.818
109.142
230.188
140.73
369.303
270.487
17.0357
77.1568
51.7945
69.1733
47.1323
178.403
129.275
12.8458
34.9924
33.4628
44.6165
43.4152
106.062
104.329
28.5581
37.8473
57.0181
48.4695
70.2986
111.064
141.293
29.1792
69.6479
78.3222
81.9699
82.3671
153.877
180.906
867.778
988.733
829.982
1674.73
1591.56
1740.77
1687.71
765.09
508.708
575.165
813.546
741.31
812.281
463.027
373.628
219.442
237.79
449.56
384.067
441.377
179.306
298.133
139.251
121.885
304.263
272.292
307.378
115.735
289.712
104.5
110.722
226.797
215.97
290.744
110.296
276.853
78.4147
107.062
181.626
166.105
284.587
103.489
173.773
35.6708
86.1496
103.239
85.5267
228.552
63.1422
125.871
34.9763
36.4407
82.5315
89.521
115.749
40.8494
162.547
64.0294
58.8269
136.482
149.876
149.757
66.1652
87.802
134.75
118.532
228.762
208.197
272.881
284.676
756.096
854.037
684.236
1600.42
1563.36
1416.47
1254.59
611.608
418.361
504.583
731.801
667.45
698.03
392.863
343.514
141.866
175.143
447.833
378.313
400.722
137.484
283.658
107.157
105.241
279.126
287.539
277.701
106.38
296.13
116.121
112.213
312.671
311.805
297.769
112.09
282.021
118.974
107.908
311.811
316.461
281.745
108.091
309.108
133.904
115.856
335.971
337.012
298.192
121.423
307.389
111.681
127.965
309.988
261.823
317.345
125.426
190.335
55.5312
79.7934
166.221
179.668
196.069
64.5974
126.638
124.438
124.938
290.976
310.079
295.506
329.985
496.38
528.77
390.934
953.747
814.373
872.757
700.738
361.377
292.61
319.046
464.657
422.853
409.754
247.926
273.153
141.918
137.968
294.077
293.505
270.52
123.026
276.178
114.714
102.716
318.725
312.28
289.378
96.1947
263.348
87.4419
95.3577
248.211
236.743
263.144
99.1242
260.527
77.2383
105.73
194.917
186.998
261.871
105.858
235.726
71.0197
99.1547
167.045
157.1
241.28
96.9087
227.103
60.9972
96.1122
119.041
116.073
225.737
98.4539
178.836
64.7086
89.2873
107.321
108.218
189.763
84.6286
90.1139
157.226
92.6995
201.467
256.702
291.029
281.66
300.92
371.675
335.65
748.489
762.103
769.517
808.63
320.21
149.149
186.727
300.232
284.302
311.979
151.06
381.263
111.776
129.753
290.99
310.103
363.304
134.953
431.974
144.846
156.391
375.965
392.85
425.531
159.323
413.327
154.786
159.386
412.266
410.157
425.892
155.426
343.984
129.2
132.912
364.09
346.404
358.082
127.176
352.848
132.741
127.468
344.182
353.805
342.911
132.383
378.425
157.512
146.98
393.938
397.032
378.646
146.843
321.639
151.297
128.11
372.342
371.021
337.867
126.647
97.0893
99.6406
68.2513
326.758
279.192
209.045
192.91
289.646
410.509
262.253
713.152
721.794
736.969
766.084
251.942
256.74
266.178
718.533
705.039
765.998
726.519
226.966
245.742
203.921
656.318
604.379
666.194
582.729
180.876
182.346
168.042
537.777
480.36
514.72
439.481
148.636
141.188
119.374
426.899