/*--------------------------------*- C++ -*----------------------------------*\
  =========                 |
  \\      /  F ield         | OpenFOAM: The Open Source CFD Toolbox
   \\    /   O peration     | Website:  https://openfoam.org
    \\  /    A nd           | Version:  10
     \\/     M anipulation  |
\*---------------------------------------------------------------------------*/
FoamFile
{
    format      ascii;
    class       volScalarField;
    location    "1.7";
    object      nut;
}
// * * * * * * * * * * * * * * * * * * * * * * * * * * * * * * * * * * * * * //

dimensions      [0 2 -1 0 0 0 0];

internalField   nonuniform List<scalar> 
12920
(
2.06274
7.55
6.27662
8.78391
5.21931
4.49174
2.96724
2.47993
1.53015
1.14817
0.856457
0.770334
0.658929
0.576809
0.498641
0.483754
0.478606
0.493437
0.516763
0.469448
1.06576
8.33712
7.84386
7.24751
5.42654
5.15196
3.11771
3.01129
2.03442
1.97145
1.58923
1.5169
1.35222
1.28664
1.16531
1.03803
0.921127
0.790489
0.665991
0.511946
0.206202
7.98063
7.80737
7.47875
5.41083
4.99864
3.21362
3.5395
2.3702
2.31294
1.75384
1.68095
1.45581
1.32739
1.11639
0.910464
0.740285
0.572451
0.479982
0.369143
0.663761
5.61878
6.72324
7.92714
6.37173
5.02207
3.29521
3.4856
2.08807
1.84468
1.13232
0.953577
0.84479
0.846019
0.783777
0.653357
0.506339
0.388143
0.269494
0.171715
1.52199
11.4749
11.5427
8.73493
6.58666
5.32558
4.05808
3.87494
2.45725
2.08874
1.06378
0.675134
0.406341
0.38927
0.347835
0.287131
0.196539
0.11449
0.0603917
0.033414
6.40931
11.7323
9.02759
8.80934
5.39619
5.8659
3.6739
3.60347
2.52499
1.92022
1.11483
0.592388
0.270875
0.160291
0.105778
0.0672155
0.0367215
0.0152573
0.00516169
0.00180104
8.85423
12.8624
7.88825
8.3356
5.9965
5.60001
4.60574
3.91782
3.02806
2.2436
0.957388
0.553127
0.713906
0.820989
0.503328
0.325832
0.181452
0.0934244
0.0392758
0.00895791
10.4341
18.3717
11.5481
10.6023
6.29663
5.97166
1.66417
1.34636
0.924869
0.733563
0.331309
0.264633
0.286717
0.52661
1.70234
0.901295
0.520995
0.284933
0.148158
0.0481258
12.0903
14.2657
13.1756
10.7332
7.81475
2.38352
0.685902
0.42824
0.286819
0.25583
0.220966
0.144648
0.142756
0.297006
0.96619
1.84569
0.924631
0.473551
0.256365
0.0991443
4.19834
8.10094
11.0113
9.84214
8.69887
2.56891
0.608643
0.293902
0.200457
0.209069
0.212458
0.236171
0.219331
0.142121
0.761424
1.73699
0.970647
0.514631
0.302499
0.126668
2.30896
5.80901
8.00478
7.96187
7.12826
2.63214
0.601233
0.262934
0.217362
0.168601
0.140596
0.1307
0.0967678
0.0863568
0.254074
1.17915
0.65663
0.477439
0.356204
0.157468
3.71364
10.2968
8.74526
7.80122
6.14133
2.0971
0.762165
0.340428
0.353777
0.366352
0.328948
0.326182
0.365109
0.308134
0.633253
0.807863
0.486254
0.437597
0.389518
0.196875
4.47205
10.9497
10.1997
8.94875
7.0035
6.04331
2.1137
1.80072
1.56436
1.59503
1.07727
1.01835
0.834014
0.509741
0.900231
0.608035
0.47161
0.422088
0.400958
0.338948
7.50278
8.57825
8.4822
7.69168
6.67654
6.16799
5.42687
4.93071
4.40254
3.80642
2.67464
2.06753
1.39394
1.09672
0.776265
0.597782
0.524281
0.491968
0.448846
0.392471
0.786777
2.79047
7.6403
7.09844
6.10466
5.45979
5.01765
4.45307
3.65136
3.33112
2.14714
1.86707
1.3795
1.18855
0.964819
0.901322
0.846103
0.828549
0.748661
0.568293
0.905124
5.44132
8.55089
7.49336
6.23096
5.57801
4.91286
4.53454
3.55773
3.40016
2.22874
2.36124
1.71565
1.62753
1.12916
0.807995
0.523517
0.392087
0.354922
0.308056
2.58182
5.41213
8.98347
7.17803
5.16688
5.23746
3.97256
4.28024
3.35473
3.39414
2.64425
2.7175
1.75857
1.39585
0.77993
0.480487
0.272524
0.198614
0.179173
0.168422
1.87503
10.7681
6.73885
7.55581
4.28942
5.88817
2.93996
3.56604
2.48415
3.15804
2.15211
2.34471
1.72544
1.50199
1.08809
0.850011
0.632152
0.460503
0.343338
0.221055
0.838589
9.30121
6.3295
5.90048
2.68611
4.59191
3.20515
4.08809
2.54514
2.89631
1.82124
1.75666
1.22537
1.02374
0.772136
0.663418
0.54947
0.422248
0.314302
0.171103
2.0516
5.42749
3.87581
2.66665
0.82556
1.16402
1.06893
1.76529
1.32946
1.45121
1.04804
0.969635
0.763457
0.678062
0.538558
0.438548
0.303397
0.190987
0.0962705
0.034401
5.57198
16.0898
31.0191
30.5934
28.2727
24.2147
19.0671
16.2894
10.7285
8.39927
5.79906
4.97608
4.15183
3.8478
3.59919
3.44142
3.25266
2.99747
2.76578
2.07758
8.61561
30.996
40.6845
30.9791
29.7119
23.3131
20.3664
18.488
16.6532
15.8392
14.8486
14.3977
13.9036
13.4675
12.5749
11.0278
9.0284
6.17155
3.69865
2.40408
1.21123
19.1563
32.8359
35.7995
32.3744
25.0243
20.8994
19.1536
17.0538
16.3247
15.3946
14.9084
14.0865
13.1041
11.5685
9.02019
6.43427
3.15833
1.87189
1.12633
1.9659
15.2809
31.0208
38.562
34.903
25.6661
19.7051
17.4135
14.0408
12.26
10.5432
10.4939
10.2532
9.57283
8.07446
5.85429
3.2913
1.53047
0.76748
0.388159
12.6157
38.9785
47.035
44.6689
35.5126
27.4275
21.2456
18.5972
12.9447
9.06574
5.80139
4.33128
3.39221
3.07202
2.53749
1.7716
0.995592
0.469317
0.194977
0.124536
6.79137
33.7227
37.6438
39.9229
31.9582
27.4813
20.8371
18.4861
12.8195
7.97434
4.51029
2.65631
1.40693
0.856092
0.5549
0.3398
0.208763
0.118678
0.0592528
0.0145342
12.1282
27.3304
38.5881
41.2386
35.6523
29.4082
23.603
16.5059
9.83937
5.65486
3.33526
1.82985
1.84493
1.67426
1.63642
1.5118
1.17736
0.667537
0.3492
0.115871
13.2359
27.7767
33.3363
40.9276
40.1155
38.2327
26.9395
18.3156
12.9812
8.21652
4.46714
3.9734
4.11734
4.99899
5.81893
4.552
3.07238
1.79055
1.04481
0.509585
33.1986
40.3053
51.639
48.3503
42.9286
32.4581
23.9744
15.8592
12.7118
13.5063
11.8798
8.58663
6.24463
8.16909
9.71082
9.25213
5.93182
3.55114
1.97307
1.06052
7.13253
47.4893
50.9383
45.8543
37.7908
29.3001
20.5433
11.7014
11.3546
15.5536
15.9336
16.2657
14.3771
8.05123
8.39972
10.1383
6.70917
4.18672
2.73404
1.61078
12.1669
26.6299
27.1789
29.8992
23.4925
18.8855
13.2936
10.4982
12.6114
13.6486
11.7409
9.81349
8.67582
8.36143
6.81604
7.5867
5.3649
3.72255
2.91889
1.94292
20.5173
47.5081
38.2975
32.2404
20.9688
18.4796
14.8575
13.7218
15.832
17.6576
17.0692
17.105
17.2886
15.6755
11.1457
5.85169
4.1971
3.45636
3.06029
2.11561
20.3909
33.397
42.3664
39.7438
29.0077
29.1832
20.7579
20.1902
19.526
18.3158
16.5455
16.066
14.7199
10.3366
6.99036
5.35305
4.87093
3.93633
3.13927
1.90987
5.73102
32.1847
37.7917
34.5853
30.5341
29.6066
25.7963
23.074
19.0442
16.0873
13.139
10.7565
8.8044
6.62442
4.97846
4.45943
4.5206
4.28291
3.99346
3.3395
3.73918
15.4325
39.0852
31.9035
30.3534
26.535
23.5412
19.7192
15.5187
13.4373
11.0834
10.1347
9.02589
8.34818
7.95484
8.20013
8.20689
7.7399
6.86328
4.61532
6.09379
17.5977
29.8234
36.3849
32.4419
27.0877
22.7932
20.0101
15.6773
14.205
12.2395
11.2038
10.1691
8.96089
7.80348
6.20227
4.79897
3.47007
3.13201
2.43118
14.1658
43.0579
45.4968
33.2298
28.2598
24.5311
19.6892
19.2864
16.2866
14.463
12.1141
9.85378
7.35171
4.94364
3.14625
1.89994
1.14988
0.787885
0.659087
0.826017
11.4529
39.1117
40.2082
29.8139
25.3285
20.4206
16.7359
15.1154
13.7163
14.5252
12.909
11.6144
9.66006
7.55195
5.25388
3.3332
2.36919
1.64667
1.40045
1.06274
1.42018
21.3125
21.6428
16.8565
20.3512
22.016
19.7572
18.0409
14.4616
13.1313
10.6267
9.20934
7.25996
5.52726
3.96532
2.9082
2.1359
1.56913
1.12309
0.665362
1.25826
22.4682
12.9442
9.47664
5.37883
7.53002
7.40533
10.7057
8.1039
8.77422
6.21235
5.85465
4.49962
3.68506
2.52585
1.73397
1.00162
0.514261
0.217539
0.0656065
6.73592
22.0745
28.4004
32.0918
29.9397
26.2315
21.8295
17.4734
12.3349
9.9586
7.08837
6.2013
5.25897
4.87844
4.5304
4.31858
4.04886
3.64964
3.23271
2.48935
13.754
47.5853
56.9496
50.0453
42.843
34.8905
28.3453
25.7852
23.5996
22.8745
21.4309
20.6753
19.5423
18.4085
16.4916
13.6976
10.3882
7.11302
4.44272
3.48406
5.97743
25.141
49.2454
53.2244
47.8641
38.6645
32.5553
29.5042
26.5841
24.9912
23.1617
21.9359
20.2229
18.0384
14.6046
10.4904
6.3074
2.57095
1.1277
0.869957
6.58968
30.2072
49.368
54.746
50.5984
40.7063
32.7295
28.7946
23.1545
20.5528
17.6085
16.8301
15.1611
12.7073
9.23004
6.05712
2.86229
1.21688
0.472169
0.348386
33.4223
50.429
58.407
61.5342
51.7902
41.6751
33.1487
28.2272
20.3064
15.5971
11.0688
8.82624
6.45162
4.65117
3.04181
1.7301
0.767561
0.350971
0.115058
0.0508976
29.2259
43.1819
47.5842
55.108
49.3769
42.2216
34.0848
28.6664
19.7321
13.4029
8.30706
5.12015
2.67532
1.33055
0.625966
0.334158
0.220927
0.13189
0.0552247
0.0145899
36.2814
40.4947
51.0546
56.2624
52.9968
44.7702
36.6312
27.094
16.6316
10.0668
6.17499
3.38924
2.45512
1.50003
1.38751
1.39327
1.30281
0.878897
0.517994
0.226733
12.1353
41.683
53.3959
60.2583
57.1867
53.5517
44.1583
31.9115
22.0444
13.8717
7.80697
6.90353
5.60839
5.69646
5.74819
5.32228
4.32029
2.81605
1.8455
1.06474
28.5274
59.5433
67.7803
64.9599
59.1253
51.348
43.3131
31.0651
25.9014
22.8395
18.5572
14.1719
10.7512
11.0586
11.0543
11.312
8.8027
6.26388
4.14326
2.3946
42.5062
61.7955
71.1358
64.4775
56.0593
47.6603
36.0325
23.4745
26.4662
27.2129
25.5103
23.627
20.4769
15.8253
14.0919
13.6791
10.5573
8.02013
5.80422
3.36875
36.3022
57.9132
57.4357
53.7811
45.7094
38.6438
31.0234
26.452
27.7047
28.0804
9.64027
8.12291
9.99038
12.9196
12.7472
12.1234
10.2056
8.17263
6.08508
3.54282
65.6087
67.5584
61.5118
53.4414
43.5807
38.3495
33.0385
29.4963
29.3859
28.8374
26.2409
23.2616
19.826
16.9166
13.1447
10.6186
9.20131
7.5941
5.65358
3.16759
29.9002
51.9572
60.6369
59.3434
49.0569
45.8132
39.1176
35.6748
31.7392
28.4687
24.7972
22.2781
18.7368
14.0995
12.1747
11.4254
10.7363
8.08596
5.05344
3.06104
19.1926
57.1054
62.3612
54.5664
49.367
44.5438
39.9066
34.2075
29.2654
25.0396
21.7946
18.8727
16.3519
13.7812
11.7153
11.0273
10.4966
8.8928
7.91244
5.91165
21.5799
42.2114
63.8563
52.6769
48.008
39.9479
35.9265
29.2476
24.8214
21.7646
19.4345
17.8043
16.3266
14.7595
13.5514
12.6003
11.2156
9.07559
7.88986
5.17609
36.0734
37.4666
54.6169
54.0233
47.7522
38.907
33.3655
27.8681
23.1308
19.97
17.7948
15.4089
14.1314
11.9434
10.392
7.91893
6.07164
4.26316
3.22203
1.73899
45.3127
56.9933
60.3084
48.2483
42.9312
36.1868
31.2452
27.3994
22.5915
18.4297
14.6341
10.7289
7.70195
5.08062
3.41703
2.12838
1.40724
0.957742
0.678097
0.499608
55.2067
56.1865
54.2407
41.5826
38.4631
34.4743
27.2954
25.9512
22.4345
19.9869
16.4594
12.9452
9.18968
5.86036
3.51809
1.8134
1.13718
0.767497
0.684108
0.551791
18.2889
39.2621
35.2028
28.5077
30.5439
31.0437
28.1144
24.9569
20.5464
17.3717
14.0239
11.2073
8.26896
5.94431
4.17616
2.98036
2.10268
1.34713
0.739512
0.332511
2.44962
19.1905
15.7614
14.9017
10.3185
13.6213
12.2732
12.1872
10.3245
10.4237
7.39443
6.86442
5.23449
4.38612
2.97727
2.04443
1.08994
0.511108
0.189283
0.0491636
27.2764
41.8148
28.7592
31.9826
29.753
26.3823
20.4619
15.3388
10.7959
8.72222
6.80596
5.96374
5.19276
4.72315
4.45765
4.46063
4.44861
4.2105
4.04918
3.52306
22.5132
54.7098
66.163
58.3859
46.9539
38.0175
30.8252
28.6167
25.8315
24.8928
22.5754
21.6395
20.1344
18.6473
16.5113
13.4211
10.4145
7.96494
6.39001
5.89052
11.6531
57.4238
67.495
66.3915
54.3665
43.999
37.0054
33.7304
30.0021
27.777
25.2202
23.4303
21.1197
18.1872
14.4048
9.92156
6.26185
4.00871
3.13699
3.32547
10.8143
52.9817
65.6653
68.9284
58.1785
46.7463
37.6864
33.1243
26.7481
23.9345
19.8239
18.4026
15.7537
12.4752
8.53269
5.151
2.9981
1.67517
1.21906
1.28284
32.8359
64.3943
69.4182
69.8919
58.8698
47.3119
37.6677
31.4716
23.6714
19.3322
13.8977
11.2514
8.40248
5.90576
3.73718
2.212
1.32862
0.775218
0.505335
0.465591
52.5928
57.1762
64.3841
67.3423
58.44
48.0246
38.8711
32.2569
23.2071
17.5478
11.0818
8.04353
4.88025
2.93913
1.67789
1.03836
0.770589
0.593128
0.396658
0.2241
48.42
58.8022
64.302
67.4508
61.2893
50.5784
41.2865
30.9523
20.6142
13.6298
8.3717
4.76591
3.06363
1.85182
1.70964
1.765
2.01674
1.98776
1.87485
1.34207
51.1813
57.59
68.5637
73.587
68.2891
59.6127
50.537
37.3867
25.6883
16.3648
9.91569
8.01876
5.16965
4.7623
5.26124
5.51937
5.40655
4.75332
4.30682
3.57255
75.2908
71.0471
78.1531
76.2379
69.2091
60.4475
46.2413
40.1434
31.4173
24.6954
18.9632
14.9186
12.3799
11.2141
9.94735
11.3265
9.77059
7.83161
6.42454
5.41477
70.9946
79.1726
81.5932
75.0779
66.5564
57.7074
47.1984
37.9509
34.7355
30.2527
26.6261
23.2065
20.4374
14.723
14.9801
15.3192
12.9939
10.4709
8.4079
6.40667
59.7799
76.367
77.9396
69.3106
60.9865
53.1004
45.5519
40.2984
36.5091
32.0884
15.5443
12.5245
14.7207
14.3698
11.3401
14.1861
12.5101
10.3337
8.62225
6.62545
70.6514
81.7886
78.7743
67.1437
57.8044
51.8629
46.0531
40.1973
35.9582
31.9133
27.612
22.522
17.8561
14.9572
14.6719
14.1081
11.5865
9.03435
7.23534
5.66375
43.5537
71.6497
76.7295
70.679
61.0897
54.0881
47.9643
41.3019
34.7283
29.5035
24.5898
21.0722
17.8152
15.4108
16.4751
14.9137
11.2071
7.63069
5.60884
4.57797
62.8618
67.8903
75.7464
66.8309
59.9328
51.516
45.5164
38.3489
32.68
28.0764
24.7349
22.2939
20.4876
19.0842
17.5515
15.386
12.709
9.71303
7.98275
5.28483
59.952
68.9965
72.64
63.6742
56.3064
45.9382
41.9514
33.5172
29.6022
25.4808
23.5086
21.1151
19.9292
18.1248
16.5702
14.8818
12.6952
9.88472
7.68702
4.31345
66.5171
57.5936
65.2057
61.6759
54.6903
43.7046
37.7855
30.1681
26.0654
21.5435
19.513
16.3209
15.0932
12.5237
10.843
8.30597
6.27067
4.29717
3.12999
2.04086
76.0727
65.337
60.739
56.8081
51.1551
42.1858
35.8012
29.1
23.2935
17.6834
13.8055
10.0056
8.05716
6.04932
4.86101
3.57145
2.74518
2.1034
1.73436
1.28921
71.8634
59.8106
58.9261
48.2311
46.2391
39.9149
34.2558
29.4536
24.1833
19.5121
15.2464
11.3363
7.74582
5.51638
4.15378
3.19541
2.42511
1.7121
1.18349
0.946218
52.0722
53.0986
42.8538
36.3038
35.8383
33.6044
30.3366
25.2182
20.6598
16.7229
13.1613
10.0997
7.31678
5.43509
4.02315
3.04292
2.26119
1.61542
1.13167
0.788487
4.19832
24.0095
14.5025
18.4448
14.3684
14.1598
13.0831
11.8825
10.2593
8.81035
7.17063
6.42702
4.98807
4.1569
2.68857
1.72447
0.851384
0.396735
0.161996
0.04536
11.5689
25.1917
13.9767
11.9874
10.2531
11.1489
6.72625
5.79958
3.71523
3.63726
2.84596
2.82132
2.51984
2.60754
2.59027
2.77009
2.77914
2.77826
2.79456
2.5144
14.7808
64.9866
65.9213
60.23
44.282
35.2898
26.0337
26.08
21.8365
21.8767
20.262
19.0476
17.9508
16.249
14.9517
12.8646
11.7939
10.7777
10.4231
10.0879
13.8321
51.0951
73.8195
70.5252
51.2557
41.3859
34.142
31.5999
27.4719
25.2215
22.91
21.0239
18.986
15.9715
14.07
11.5907
10.2897
9.36498
9.26653
9.35728
63.8282
62.8686
78.2651
74.9044
56.3912
44.1837
34.935
30.4202
25.2971
22.3747
19.976
17.9335
15.4463
12.2702
10.2599
8.21531
7.00491
6.01014
5.90566
6.09448
29.81
76.1815
82.1728
76.5065
57.8223
44.9266
35.2465
29.0593
23.1882
18.7977
15.9714
13.2511
11.3674
8.94544
7.62614
6.16552
5.43789
4.27224
3.69001
3.58856
68.0244
42.3554
76.7155
73.3107
56.0793
44.4514
36.2964
29.9111
22.9645
17.6788
13.2781
10.9717
8.43467
6.78226
5.40926
4.59838
4.17302
3.47757
2.62866
2.08332
67.8104
70.8285
76.3707
75.4478
53.7394
47.3682
38.9514
29.5106
21.4461
15.337
10.7558
7.56783
6.33166
5.26534
5.24679
5.33706
5.83246
6.14399
6.19339
5.362
50.6605
64.7796
70.7615
80.3408
60.2978
53.1124
47.5173
34.8677
23.068
15.6553
11.2695
8.61845
6.85896
6.18657
8.00424
8.26142
8.35084
8.45396
8.51346
8.37019
78.7233
80.3569
84.9018
68.5982
67.195
59.3239
45.6672
37.7285
26.2094
20.1047
15.0213
13.0126
11.221
9.70567
9.53938
11.2697
10.3003
9.86165
9.62671
9.60573
119.91
98.1591
88.8165
58.8794
68.6205
58.7391
48.4561
37.6682
30.285
24.9203
20.3298
17.0175
16.8818
16.2333
15.2061
15.0255
12.7641
11.1427
10.4329
10.1081
79.5789
83.3834
83.9542
50.3978
64.7977
57.2692
49.2218
39.6753
32.4097
27.378
22.1519
17.1151
16.1653
17.5099
17.2039
16.5494
13.6926
11.6218
10.6243
10.2792
61.5396
69.6054
83.8205
33.824
60.4359
54.3834
47.7452
37.6854
31.5979
26.4241
21.8565
17.9355
16.1981
16.7166
17.5019
15.837
12.8777
10.8837
10.0486
9.82813
61.3478
56.9349
83.1464
49.1811
61.4851
43.887
45.6109
38.0841
30.3102
25.0883
20.9389
18.6008
17.3129
16.9916
17.497
14.8631
12.1992
10.3249
9.51333
9.04438
95.9045
74.2117
79.4851
41.6851
59.9172
33.9895
42.7312
29.8578
30.9562
26.2223
23.735
21.9949
20.8037
19.7336
18.0832
16.0821
14.0015
11.8933
10.6141
8.4551
87.6076
34.7933
64.8938
35.6573
55.1788
27.0438
39.4798
32.921
28.712
24.4798
22.6599
20.6147
19.4313
17.8223
16.2706
14.1308
12.0848
9.77743
8.24946
6.42352
42.9529
50.2523
65.6584
52.8851
54.7344
29.6222
35.7787
26.149
24.3228
19.9436
18.3298
15.7249
14.4362
12.278
10.9964
8.99446
7.95532
6.75565
6.10467
5.70341
50.8388
66.3214
64.6054
42.7968
46.4809
30.29
33.7264
25.9225
20.1781
14.9289
12.7757
10.6561
9.9085
8.8896
8.2329
7.33518
6.56092
5.62775
5.15547
5.08265
31.1525
62.3593
34.0939
44.594
29.8871
38.6018
33.2156
26.794
21.08
15.3634
12.6234
10.2636
9.57724
8.83161
8.38853
7.66477
7.0492
6.05417
5.27356
5.08639
38.2838
57.0284
28.6707
40.0142
22.4541
31.4742
22.4325
21.3998
16.4905
12.8556
10.5298
8.34345
7.5069
6.89239
6.66477
6.55428
6.30358
5.77308
5.25713
4.64964
4.5202
15.0071
6.15096
11.5022
5.63548
13.8663
4.82337
10.6751
3.63949
5.73376
2.50844
2.65196
1.53585
1.2975
0.791091
0.543999
0.310078
0.178
0.100318
0.0569713
25.9485
27.1044
9.94512
30.4706
27.9789
30.926
8.22006
24.1501
8.947
8.84235
27.165
24.7449
7.31872
8.85545
10.7613
27.9777
25.3509
32.0981
10.5664
31.9666
27.6704
8.36334
24.1926
21.0979
9.08736
8.18296
25.9719
21.3843
0.49576
0.608527
0.34862
13.9368
12.6388
14.4118
11.0892
0.303229
0.307427
0.20752
10.9586
8.86385
9.30589
7.08211
0.266003
0.204438
0.218357
9.06132
9.99983
8.35118
11.7227
0.250415
0.224764
0.23896
10.0593
9.49332
12.1663
12.7513
0.181099
0.243628
0.254531
9.0424
7.16098
12.8887
12.9992
0.136042
0.25178
0.220341
6.22316
4.7252
12.8257
10.9147
0.267521
0.178117
0.150041
5.0386
6.46803
8.81516
5.01721
0.283075
0.173907
0.273668
7.01489
8.23655
4.97777
6.49031
0.336869
0.607762
0.313764
13.4381
10.1955
9.77929
8.05371
0.202983
0.263149
0.217219
8.65699
6.92272
7.29434
8.3586
0.208183
0.218684
0.199369
8.2615
11.5128
9.39338
10.7935
0.210854
0.183991
0.137829
11.9084
12.2703
10.521
9.40259
0.230084
0.125075
0.100602
12.3863
12.8371
8.87482
7.69073
0.230898
0.0950373
0.0892312
12.9356
12.3102
7.48701
7.54993
0.13163
0.0919834
0.114435
11.5153
6.49035
7.68851
8.29182
0.209731
0.121014
0.10069
5.57236
5.6062
8.2374
5.82326
0.312903
0.625128
0.303312
7.90468
7.36705
7.23774
7.57859
0.215497
0.275865
0.240511
7.07428
8.32913
7.89357
9.38389
0.178558
0.241741
0.293256
9.22973
10.1888
10.0571
12.2039
0.145748
0.304093
0.309573
10.0567
9.15255
12.6884
13.0022
0.134656
0.301007
0.281132
8.72772
7.62911
12.7996
12.4916
0.101671
0.285704
0.317145
7.33299
6.4238
12.6563
13.1141
0.0870058
0.325131
0.293032
6.19463
5.98927
13.2359
12.6708
0.0771438
0.274215
0.244749
5.88089
5.38325
12.235
12.5334
0.352058
0.874102
0.494573
9.40438
9.5373
12.3243
14.0523
0.343479
0.476789
0.461578
9.93864
11.5418
14.6394
15.1213
0.366646
0.464354
0.450221
12.1772
13.6228
14.845
14.5493
0.348972
0.453822
0.381073
13.886
13.6525
14.3872
13.4812
0.3202
0.358513
0.334548
13.4158
13.4881
13.1772
13.1476
0.36442
0.334147
0.325689
13.7304
14.4208
13.2541
13.3198
0.325208
0.312361
0.254373
14.5144
13.81
13.1549
11.4404
0.285729
0.182794
0.0877869
13.4004
13.1179
10.4508
5.95862
18.4808
21.9454
14.9656
39.3563
31.2294
34.3973
23.9374
12.6007
12.5307
9.83102
27.64
23.4328
20.7941
21.0467
13.5447
11.5208
15.3116
22.9733
21.7781
22.724
24.7072
12.5472
15.7668
16.2784
21.0648
18.6048
24.6544
23.9674
9.6096
16.3714
16.2665
17.4586
14.2161
23.6778
22.4394
6.23088
15.9767
13.7023
13.2762
10.1197
21.7919
18.7784
7.65516
11.653
7.11838
9.80616
10.3027
17.2535
12.9566
9.08309
6.83507
7.71657
10.5257
10.5679
12.4798
12.3866
13.8839
15.8315
11.5738
32.4038
22.7315
28.1274
22.7379
9.5998
10.538
11.6431
19.9535
20.9221
21.7392
23.2698
15.1566
12.7989
14.4692
22.7372
24.9685
24.2301
24.6665
15.8648
14.1792
12.7798
24.9172
24.1462
24.3041
15.739
16.2399
12.0914
10.5558
23.8604
22.9788
14.2215
12.1348
15.2907
10.2848
10.2841
22.5986
20.6587
12.2919
13.4148
9.23652
10.4097
10.8812
19.6191
15.5645
13.9738
15.2238
7.08994
10.7997
7.78395
14.4139
12.631
15.3339
13.7734
10.966
12.3834
11.1924
26.2913
22.9833
25.6685
23.665
11.6855
11.3603
12.846
22.2291
23.3022
23.4369
24.0834
13.8012
13.5616
15.7844
24.0081
23.9785
24.5348
25.4395
12.3571
16.2961
16.4875
24.1755
15.5518
25.552
24.0218
10.1858
16.2368
15.7021
13.9892
11.3455
23.1758
20.8597
8.89682
15.7361
15.791
10.9899
10.7546
20.1809
18.1466
8.47937
15.7042
14.8025
10.9735
12.2517
17.4592
15.7873
7.23358
14.3333
13.5131
12.5448
12.8175
15.4409
14.2233
13.468
18.8385
18.8347
28.5176
25.899
33.4285
31.9976
15.1898
19.3349
19.3569
25.697
26.0908
31.768
30.0615
17.4023
18.9571
18.483
26.3277
26.7439
29.2975
27.8164
17.3346
18.2769
17.1738
26.6612
25.3806
27.2992
25.1908
16.946
16.8209
16.6304
24.7729
23.1427
24.5576
23.182
17.3911
16.6961
16.4494
22.6894
20.8338
22.8597
21.0071
16.1896
16.1622
13.9111
20.0967
18.0011
20.2697
17.114
14.3053
12.8383
7.53182
17.3563
15.1885
15.9281
11.1477
34.5244
38.0922
27.0493
42.0847
41.7291
46.3864
36.934
26.7588
24.1293
25.1187
38.8178
32.9719
35.2384
33.9829
23.7585
26.3113
27.0575
31.0573
26.4644
33.3574
30.4485
19.8496
26.7512
25.5283
25.0328
20.9769
29.4674
26.9072
15.0642
25.0823
23.4208
19.4712
15.9079
26.0839
23.5321
11.0677
22.6805
19.5929
15.1501
12.7039
22.6469
19.9653
10.9417
18.2101
14.3487
12.3522
11.7414
18.9961
14.4833
10.6899
13.8968
12.2247
11.5106
10.1125
13.3975
13.7917
25.9865
32.3755
26.8409
44.8775
36.605
43.0334
38.4309
25.1343
25.9831
27.2758
35.2001
34.4253
37.6035
36.2067
27.5042
27.9135
27.4574
33.9604
31.3942
35.5497
32.7022
28.5502
26.8245
27.4026
28.9481
26.8771
28.3811
29.3438
24.935
25.0755
24.6256
26.6251
24.028
26.0413
25.6797
21.4868
9.83481
12.9494
23.9643
21.7286
10.6973
15.4087
16.8191
13.9503
15.9104
20.9599
18.1331
16.4145
17.963
13.324
16.1136
14.8071
16.0812
13.6739
18.0471
14.1806
27.1527
30.4154
27.9042
42.5753
38.6129
42.077
38.6308
27.275
27.5664
27.7342
37.8361
36.25
37.8048
35.7908
26.7998
27.9438
28.0734
35.5315
32.5349
35.076
32.6848
16.5097
17.1507
26.4662
25.4986
21.9929
3.63634
28.108
7.01367
8.95984
12.4834
2.38612
11.4402
2.20645
7.69076
9.21304
20.169
17.5641
8.43891
11.6014
20.0336
16.7861
12.441
16.7933
15.1338
12.8203
15.0924
16.0525
14.6975
13.6833
14.8342
13.6648
14.7941
13.401
14.389
13.1702
29.8447
37.8231
35.4318
43.5558
39.4343
46.7518
42.4229
29.3653
34.9694
32.6873
38.5107
36.1941
41.18
37.1605
29.0982
31.7733
29.8342
35.3944
32.8475
35.7885
32.4253
27.0371
29.2027
26.7189
32.0639
29.0876
31.4401
27.9538
24.0042
25.9726
24.1625
27.8784
24.2677
26.8851
24.0024
20.7258
23.6675
21.3202
23.0085
19.3622
23.1271
20.0703
17.5519
20.4748
17.1876
18.319
16.1525
19.1497
16.2625
14.7138
16.0336
11.6745
15.655
13.6203
15.4587
13.3949
42.9881
48.4006
39.4823
43.0391
42.2414
49.7874
40.9272
33.6782
37.8334
35.148
39.3842
30.9827
38.7618
32.6946
26.2165
34.0235
30.2262
27.9945
22.624
30.8084
26.4551
20.5183
29.1147
26.2823
21.2272
17.0826
25.3167
21.9858
15.6379
25.376
22.6745
15.782
13.7003
20.8993
18.1635
12.7734
21.7915
19.4233
13.2967
11.8347
17.5523
16.694
11.5528
18.628
13.8355
11.4234
10.3699
16.5364
15.7657
9.63437
13.4615
14.0271
9.86651
8.34475
15.3437
13.8899
39.3614
45.8675
41.1405
49.4806
41.2264
49.7483
43.0333
35.7123
40.1124
37.5152
39.162
33.4858
41.0775
35.4154
31.3025
36.4439
32.9636
31.7555
27.8504
33.8404
30.1182
27.519
31.6171
16.6495
26.7107
23.457
28.9791
24.8641
24.0121
14.8533
13.8474
22.3785
19.5166
23.2418
19.4447
21.0902
14.576
16.9429
18.7628
17.7559
18.6086
17.4233
16.3528
17.5142
17.3978
17.6636
16.2009
17.5129
16.3931
14.0793
16.7745
12.4767
16.2929
15.1877
16.0697
15.0318
41.2882
45.0158
40.9331
49.6701
43.1254
48.6684
41.7877
37.6029
39.8666
36.9676
41.2047
35.5967
39.8599
34.8376
32.9523
35.9283
32.8671
34.0364
30.3122
33.3635
29.8588
17.8245
32.0061
28.0855
29.2442
24.9485
28.7899
25.4642
12.611
26.4624
21.8261
23.1696
18.9358
24.2323
20.3363
13.9459
20.4374
17.043
17.9178
16.4227
19.0291
16.365
15.166
16.2824
14.7805
16.5201
16.5643
16.0455
16.1802
11.9775
13.5745
11.5767
16.1178
15.0684
16.4189
16.9332
41.3741
48.5388
43.3638
48.7553
41.2669
48.9492
41.3938
37.0312
41.8944
37.392
39.3451
34.4907
39.6006
34.2459
32.8239
35.8735
32.0994
33.0576
29.3895
32.4023
28.0526
28.8303
31.037
27.3117
28.3047
24.9447
26.9306
23.1638
23.8413
26.1916
23.1312
23.829
20.4083
22.1183
19.5642
18.8296
22.253
19.2736
19.2592
16.8888
18.9464
17.1449
16.0154
18.4344
15.9762
16.4889
16.2884
16.6889
15.8328
12.5649
15.3643
13.9884
16.4383
16.746
15.7174
15.7208
40.6281
48.4621
39.4847
28.6221
28.7673
30.7259
34.7988
28.8952
37.1926
31.0263
22.6211
25.5833
33.9754
28.6816
21.4353
29.2667
24.9083
23.9498
20.1684
27.2188
22.3117
16.0372
23.668
20.126
19.0978
16.0117
20.7605
17.0776
13.4056
19.0447
16.6317
15.6033
14.3845
16.2448
14.9399
11.5911
16.2244
15.955
14.0876
12.9031
14.9793
15.9757
10.1928
15.9246
15.2606
12.672
11.7217
16.0147
15.2185
8.46727
14.8229
13.4606
11.4614
10.7686
14.8448
13.7275
39.8727
49.2596
41.7205
27.6187
36.4698
30.5187
38.1984
31.9254
39.5731
33.8299
34.6624
29.6333
36.203
30.9946
26.1157
32.2224
28.3376
27.9949
22.5178
28.9282
22.5304
21.4398
27.132
23.5164
20.858
17.0211
20.6837
16.8965
17.6004
22.138
18.4427
16.1131
14.621
15.9264
13.6678
16.7771
17.4867
16.5612
14.6678
16.232
13.5147
15.5056
16.5764
16.89
17.7004
16.6564
16.2744
16.6668
17.911
14.7903
17.755
17.45
15.9585
14.8338
17.9039
17.3914
41.7905
47.9691
40.2113
32.0309
38.1423
29.9251
36.7307
33.9988
38.2352
33.3529
36.1972
31.0889
35.0615
30.8388
28.5318
31.9279
28.0308
29.0324
22.643
29.2983
23.7908
23.6241
26.8818
23.4218
20.801
17.1054
22.181
18.7114
18.1952
22.2689
18.7619
16.1449
13.6685
17.833
15.4959
15.877
17.6514
15.8564
13.394
15.1495
15.1177
16.0026
17.3576
15.8161
16.4807
16.3363
17.9269
16.6018
17.6845
17.5903
16.8023
17.3893
18.0551
17.8467
17.9563
18.1229
39.5993
47.4049
39.6204
29.3025
36.2707
26.4818
24.7379
32.9704
37.8565
32.4538
34.6623
30.4943
27.2429
29.2732
27.6308
30.6543
26.5214
29.2051
24.19
27.6367
24.4055
22.9101
25.4265
21.853
22.6529
19.2603
23.101
20.1591
18.8579
20.9004
18.7097
18.4261
16.3891
19.3862
18.0898
16.353
18.1682
16.7561
16.0369
16.6703
17.549
16.9295
16.496
16.422
15.9795
16.889
17.5598
16.7693
16.9701
17.1294
15.945
16.0605
17.7606
17.8707
16.9011
16.9337
27.5159
26.3912
25.3173
27.2116
26.1062
27.7987
26.5354
25.8116
27.3057
17.9175
25.9994
25.8196
29.2848
4.97719
21.9377
21.465
12.6929
2.86993
23.3784
19.9968
3.12947
29.6734
30.0503
29.611
31.203
29.321
30.6418
30.2357
28.5245
27.8913
28.7888
27.9467
28.6041
27.4057
29.091
26.8308
26.6045
31.5474
17.4208
30.7206
5.01131
29.3098
22.6598
2.94455
23.3407
10.6066
20.563
3.20712
25.8379
24.2446
24.6251
23.0816
24.8267
23.4933
25.4397
23.7572
18.1649
20.2401
8.05912
2.72349
19.3407
18.8995
2.56985
17.6701
18.704
7.91617
5.32282
18.7982
18.1464
3.78161
25.5668
27.1774
26.3584
26.8978
26.4677
26.4339
25.9406
24.7754
25.022
25.5434
24.3576
25.7442
24.1692
25.0922
18.609
2.79382
21.843
6.88331
19.4048
2.7134
20.77
18.0915
5.26673
20.0661
7.345
18.5202
3.83147
20.1355
11.0602
12.7552
14.1362
2.80261
17.0319
3.11956
8.76157
26.7529
27.0632
27.4941
29.9173
25.6914
29.1285
29.0974
23.1414
21.0588
26.5317
26.1759
23.4682
19.9956
27.7588
17.0527
26.1844
19.638
31.187
4.0422
29.6454
25.3462
11.2035
2.93591
13.4621
14.5354
3.2893
8.79239
18.3604
27.9765
31.2773
31.623
30.8972
30.662
30.2268
29.6336
23.9026
26.9033
22.9172
29.4087
20.4526
28.7065
26.2868
6.69317
8.00065
9.88651
3.77931
10.4699
2.40727
6.35973
16.5254
19.3381
23.0667
24.7208
17.9471
18.0292
23.3522
15.4476
15.7166
22.0811
20.965
16.8466
14.22
22.1753
6.87444
2.70848
8.31435
12.3921
2.632
7.58242
11.0181
6.43942
3.83674
7.59118
9.46143
2.764
6.12056
9.94912
16.5829
25.2602
20.5142
24.3347
18.2618
23.7119
18.5846
15.3682
20.9906
15.5248
22.8702
14.0258
22.3701
17.0893
1.65381
1.65456
1.51083
8.93173
9.8336
8.88784
10.4659
1.11828
1.31384
1.06938
8.47933
7.21103
9.65201
7.75593
0.896084
0.857078
0.809425
6.76874
5.91801
6.89162
6.95578
0.598156
0.787824
0.674687
4.02019
2.96111
6.50766
5.18348
0.32388
0.506176
0.385683
2.21248
1.99828
3.96216
3.09317
0.266971
0.361145
0.392466
2.17678
2.24521
2.96511
3.58119
0.432371
0.449729
0.656629
2.44812
3.33166
4.18713
5.21722
0.37039
0.841261
0.852515
3.63621
4.18476
5.51643
6.70205
1.95577
2.4147
1.83821
10.9052
12.0548
11.1383
12.7831
3.89267
0.631724
0.662058
3.50517
3.56638
3.51147
0.544961
2.30692
0.374325
0.351702
2.50999
2.33874
2.46475
0.299649
3.20207
0.273349
0.230833
2.67483
2.49579
3.03455
0.227988
3.83621
0.264923
0.254834
2.54949
2.4991
3.73426
0.261759
3.83887
0.217442
0.25204
2.37306
2.22845
3.92458
0.241546
2.19363
0.129499
0.200044
1.45407
1.22928
3.04794
0.153979
2.10676
0.174515
0.135212
1.56494
1.85401
1.6284
0.168365
3.28073
0.324638
0.287082
2.96848
3.27513
2.99055
0.321902
0.69211
1.01049
0.825697
7.2026
7.51793
6.70383
8.35286
1.80901
2.59921
1.79577
10.6513
11.9426
9.32615
9.25646
3.04342
0.485095
0.609732
3.276
3.34543
3.11954
0.482873
2.33934
0.252066
0.280674
2.4336
2.45948
2.27548
0.24372
3.28389
0.198972
0.201043
3.04989
3.40497
2.99682
0.200002
3.68125
0.209328
0.197289
3.96387
3.99755
3.67317
0.194613
3.64251
0.216168
0.182495
4.12115
4.22466
3.60462
0.181162
4.12575
0.237391
0.190982
4.56819
4.58249
3.94154
0.19992
4.02001
0.195599
0.211209
3.94005
3.03794
4.27907
0.206209
1.75664
0.168158
0.144676
1.49254
1.74542
2.07001
0.140173
0.73104
0.554177
0.609104
5.05088
7.67115
4.03028
5.66885
1.6958
2.57282
1.67181
7.14275
6.44249
6.85989
6.24561
2.03082
0.467623
0.612902
2.38496
2.2647
2.15492
0.467394
1.9933
0.229332
0.25582
1.88643
2.07302
1.81822
0.225686
3.00053
0.210625
0.194845
3.13156
3.32729
2.87303
0.184527
3.39984
0.161111
0.179963
3.01636
2.94575
3.36645
0.185289
3.31618
0.138289
0.197279
2.46831
2.36608
3.34841
0.198087
2.89578
0.122992
0.187281
2.04201
1.89327
2.99312
0.182316
2.61487
0.093028
0.173038
1.37107
1.33481
2.6038
0.172762
1.91812
0.0874186
0.143719
1.23842
1.239
2.02775
0.13053
0.351482
0.474384
0.335653
2.84706
3.5765
4.78902
4.15076
1.9414
2.15991
2.00984
7.54733
8.50108
8.2526
9.17653
2.61562
0.520507
0.760679
2.09586
2.23709
2.22445
0.510802
4.36117
0.332412
0.39091
3.14212
3.51251
3.9901
0.392296
5.05249
0.360739
0.415522
4.42403
4.63221
4.97584
0.419525
5.06743
0.364888
0.421343
4.95862
4.9802
5.13214
0.412022
4.6981
0.315782
0.362392
4.67017
4.53009
4.74694
0.350367
5.07142
0.335207
0.359307