/*--------------------------------*- C++ -*----------------------------------*\
  =========                 |
  \\      /  F ield         | OpenFOAM: The Open Source CFD Toolbox
   \\    /   O peration     | Website:  https://openfoam.org
    \\  /    A nd           | Version:  10
     \\/     M anipulation  |
\*---------------------------------------------------------------------------*/
FoamFile
{
    format      ascii;
    class       volScalarField;
    location    "1.7";
    object      omega;
}
// * * * * * * * * * * * * * * * * * * * * * * * * * * * * * * * * * * * * * //

dimensions      [0 0 -1 0 0 0 0];

internalField   nonuniform List<scalar> 
12920
(
129.687
192.964
190.918
174.728
150.64
123.069
102.995
84.5787
67.0934
54.8895
48.3677
44.9473
42.2005
39.1951
36.8345
36.3261
36.4197
37.0869
38.3529
37.9967
106.158
166.25
171.152
143.848
121.221
101.96
87.5995
77.0109
68.6302
63.7799
59.1047
55.9371
53.3529
50.9993
48.6483
45.5201
43.0327
40.1043
38.0055
35.3521
56.6606
161.41
174.536
148.204
119.555
99.0379
84.4758
77.1758
69.5365
64.0835
58.7186
55.9587
53.4187
50.4041
46.8659
42.1232
38.5158
34.6791
32.657
28.9748
88.6405
139.503
171.42
157.398
126.095
99.4473
81.4605
71.8522
61.4995
53.1681
44.1759
39.8575
38.7204
38.5046
37.6695
34.3388
30.4005
26.2418
21.3498
15.6688
106.503
231.587
230.399
171.873
130.516
105.542
88.5464
76.8551
64.7453
52.9054
39.7082
29.2671
23.3168
22.1014
21.2588
18.9135
15.4986
11.351
7.99677
5.81653
201.629
236.555
215.603
174.173
139.7
116.073
96.1414
83.9063
71.1612
57.5788
40.2842
24.7315
15.2307
11.2344
8.94331
7.07697
5.25578
3.47479
2.07545
1.28974
261.951
250.915
194.701
165.316
136.259
110.753
91.2241
77.6685
62.4038
44.3222
24.426
13.7192
15.3342
16.2712
15.5025
13.0815
11.0151
8.41975
5.71753
2.92306
458.835
433.874
296.578
208.472
169.355
144.428
222.429
171.332
132.032
92.0437
52.3628
31.9685
35.1394
53.436
38.1943
29.5695
22.9664
17.389
12.5137
7.18065
277.46
289.94
261.816
212.965
183.582
278.762
434.44
298.531
222.938
184.608
163.223
120.622
99.8697
134.784
97.0357
47.0454
33.2606
23.9512
17.5789
10.7508
163.29
222.762
219.403
195.812
172.801
270.408
407.784
243.758
182.736
192.184
192.36
204.588
200.34
131.569
103.754
55.8668
37.9315
26.8688
20.0867
12.4191
119.809
133.306
160.286
158.945
141.511
221.317
337.903
228.695
197.151
169.442
157.612
153.588
139.152
139.968
81.8294
52.0392
34.1307
26.6565
21.8625
13.7758
177.961
200.108
172.895
155.699
122.5
167.619
246.025
186.744
208.567
221.82
208.366
201.714
222.222
216.567
118.539
43.9496
31.9347
27.3414
23.4241
15.1811
175.481
219.692
203.041
178.033
139.195
119.955
176.057
143.125
138.626
126.498
112.525
105.433
101.234
76.8491
41.0793
36.2678
32.5404
30.167
28.8385
24.4723
149.631
172.742
169.307
153.479
133.017
122.82
107.936
97.9805
87.4147
75.5051
64.804
54.2374
46.6952
40.8608
36.646
33.7858
32.8185
32.297
31.8107
29.6533
66.683
134.03
169.139
141.412
121.48
108.566
99.703
88.4025
77.1094
66.0197
56.0312
48.2048
42.5845
38.2822
35.4509
34.7743
35.2031
35.6802
35.3043
31.1695
89.6519
127.509
171.619
149.024
123.765
110.893
97.6825
90.0643
77.2864
67.3897
57.2163
50.3233
44.8757
39.6018
34.2425
28.4535
23.8892
21.4728
21.8462
21.707
146.371
202.66
177.8
142.51
115.951
103.74
91.2358
84.9988
73.8748
67.3572
60.086
53.8952
46.2956
37.9831
29.6946
22.6156
17.6181
15.3478
15.312
16.0999
148.282
218.385
185.559
149.369
126.423
117.444
97.6982
85.8771
74.842
68.0521
61.945
59.0917
54.7257
49.7454
44.3512
39.0416
34.1404
28.7241
24.5695
19.3899
85.0446
189.687
172.619
115.994
93.45
91.4451
87.5651
81.1154
71.612
64.6404
58.4841
52.9128
47.1202
41.3543
37.0402
33.7877
30.9758
26.349
21.8212
15.2907
106.599
176.379
155.926
94.3884
59.4241
53.6363
58.4221
61.3079
60.675
57.8148
52.9094
48.2289
43.825
39.3981
34.7263
29.0059
22.6619
16.2363
11.0586
6.47435
93.4869
108.942
104.782
97.6457
89.934
76.7085
63.842
51.4422
40.9075
33.4368
28.7552
26.2262
24.4865
23.3975
22.8595
22.2557
21.827
21.1322
20.4771
18.6502
215.346
125.474
96.2852
80.3842
65.4336
57.1738
47.7157
40.683
35.1455
32.155
29.6099
28.0636
26.6744
25.5412
24.6005
24.1321
24.0178
24.12
24.7093
29.1514
203.387
144.126
118.373
79.2386
57.3067
49.1227
42.6061
38.9522
34.9677
31.8488
28.8571
27.4305
26.2213
24.973
23.6543
22.6675
22.5437
24.0023
26.8774
27.0423
148.744
144.991
116.423
84.1761
59.095
48.2659
41.7259
37.4151
32.9745
28.8871
24.3698
21.7884
20.9504
20.6986
20.1721
19.6953
19.8435
19.5699
16.7243
10.8057
153.532
143.446
119.201
79.4129
58.7283
49.4549
43.4877
38.5928
35.853
31.5906
24.8086
18.966
15.9709
15.1526
14.6284
13.2723
10.929
7.81961
5.86852
4.72362
119.899
147.832
118.752
88.3003
69.9628
60.1275
51.4944
45.9152
42.1645
38.0759
27.3238
17.526
12.6375
10.0766
8.30967
7.0128
5.93345
4.86647
4.18128
4.00232
264.846
165.969
119.317
84.2972
64.1676
53.45
45.454
44.2168
40.4457
30.1118
17.7094
12.141
12.0972
12.3044
12.4086
12.4016
12.281
10.8697
8.02997
5.67933
199.799
265.776
187.772
120.649
90.2067
69.4258
67.9715
67.7329
56.5989
42.3637
24.8593
20.0908
18.8992
20.0722
21.4223
20.8027
19.7857
17.4962
13.4329
7.92175
227.025
181.947
138.874
109.471
90.8892
91.4055
90.1404
87.2297
66.196
42.9921
38.9775
38.9551
37.0643
30.0344
28.8498
26.3497
23.4075
20.1475
17.0304
10.305
140.084
154.264
118.899
96.3282
88.9513
96.9273
102.468
106.458
65.6032
44.6621
40.3949
38.6201
39.2654
47.3162
47.4246
35.0201
26.9715
22.5066
18.8531
11.5213
106.986
136.856
125.387
101.437
88.2468
91.2381
97.9677
93.3454
65.3895
47.0438
44.0044
43.8541
44.8276
45.2813
49.8949
43.9248
30.6469
24.2848
19.7089
11.7678
160.233
143.35
111.492
91.1006
74.9497
71.169
70.2556
60.0183
51.1401
44.3825
40.2526
37.3789
37.632
39.3553
39.1068
38.9009
28.242
23.9817
20.1472
11.8662
284.521
163.063
115.299
91.4955
72.9396
58.2108
60.6455
54.0811
45.5784
39.6851
34.9001
32.6052
31.0691
30.5328
31.6492
29.8528
25.2757
23.2447
22.7859
20.113
125.86
118.156
98.342
84.4898
68.4411
60.8172
54.2376
50.6114
45.8698
41.4601
37.4298
33.3013
30.7948
29.686
29.3091
27.7811
26.2902
25.0751
24.3358
22.2682
138.047
127.412
95.8056
74.5929
60.6369
55.4598
52.1074
48.6373
44.7562
38.7306
34.0252
29.2396
26.834
24.8457
24.1346
23.7092
23.7526
23.654
23.2463
20.8167
186.538
141.315
113.626
70.0837
56.5592
54.1634
49.3559
47.0884
42.5842
37.8742
32.248
27.6448
24.2985
21.8047
19.9983
18.1722
16.7007
15.7359
15.9211
15.5815
384.184
136.484
84.9334
67.9556
58.6909
58.374
51.7861
46.0575
38.639
35.6117
31.2277
28.4929
24.8795
21.7065
18.4799
15.9952
14.136
13.3379
13.4637
13.9045
221.566
161.276
90.4144
79.057
67.8895
75.4264
72.2568
62.658
47.3369
39.2617
34.7783
33.6827
32.843
33.0406
33.0275
32.7258
31.0047
26.1191
22.8585
17.5653
118.311
168.908
97.536
62.063
47.8559
47.6574
46.697
44.2761
40.4105
37.1409
34.8751
32.7938
31.252
30.5109
29.9437
28.8751
27.0107
22.5216
17.8637
10.7382
43.0774
81.4246
72.3724
47.0308
36.256
35.4358
34.829
34.9059
34.1727
32.2161
29.6259
27.3562
24.7491
21.5788
17.7354
13.7253
9.96233
6.68301
4.22028
2.25374
96.622
122.78
113.027
102.286
95.3848
83.232
69.0652
55.1949
43.718
35.7436
31.0206
28.3974
26.6716
25.4142
24.624
23.8632
23.0757
21.7162
20.4082
18.1143
217.322
129.181
93.4318
69.8791
61.2279
52.7585
45.4881
38.7196
32.6826
29.5852
27.4242
26.496
25.6613
25.1629
24.7221
24.5022
24.0596
22.9013
21.4044
21.5843
144.215
113.682
102.32
72.0008
51.882
41.9974
36.7017
33.422
29.9229
27.9132
26.0298
25.3505
24.4786
23.8443
23.1997
22.1127
19.6411
16.0935
14.6436
15.0328
244.172
117.581
103.141
82.0546
54.9785
40.5688
34.6616
30.9611
27.8327
25.3226
23.1973
22.1142
21.4877
20.9945
19.9446
17.2882
14.1282
10.8211
8.3989
7.0253
184.85
148.149
120.663
76.8843
52.8242
40.6331
35.4419
31.457
28.583
25.3165
21.5396
19.2227
17.4376
15.7358
13.5853
10.8547
8.52179
6.59099
5.60278
5.03813
137.649
139.039
113.527
77.2256
56.3605
45.4593
38.8922
35.4091
31.6401
27.5445
21.0875
17.8454
14.5461
11.3301
8.83468
7.30514
6.42434
5.6337
5.1219
4.71311
310.422
184.627
119.695
77.1265
55.7749
44.4105
38.337
34.872
30.787
23.4927
18.4448
14.0125
12.9869
11.644
11.5149
11.6598
11.7958
10.9051
9.43597
6.98179
169.807
169.246
130.919
104.623
79.6999
60.3463
52.642
48.5717
38.7022
31.8458
22.2616
21.1995
19.2418
19.8526
20.9612
20.8869
20.5376
18.5043
15.9009
12.505
302.664
152.122
119.176
93.9656
76.87
68.7154
62.5786
56.9916
44.0714
34.5219
32.5976
32.6091
34.7307
32.2401
29.0006
27.4676
25.8705
22.9429
19.7357
16.2898
240.941
159.655
111.829
81.2508
71.2069
70.0797
69.6423
69.7015
46.6623
37.3304
35.2925
34.9244
34.8811
37.9595
43.466
36.5046
30.5215
26.5065
22.5789
18.309
214.622
157.368
100.454
77.3606
67.3542
66.8399
68.1385
64.2444
47.6616
37.1849
70.7724
65.2305
56.2574
48.6346
46.292
45.2061
34.6766
28.2759
22.9968
18.5854
250.826
128.382
86.5436
66.1372
55.902
54.8826
54.5651
48.3939
42.441
37.6759
35.349
35.9611
39.7319
43.1453
44.0398
40.647
33.5728
28.045
22.0516
17.1528
179.429
131.148
103.422
72.9902
56.3735
47.1274
45.6055
43.1746
36.9914
33.682
30.636
30.6184
30.8395
31.7198
32.2152
30.4908
27.9476
26.1721
24.358
18.3316
183.504
106.969
85.1427
67.0521
55.3334
48.6226
43.3347
39.4256
35.1653
31.9458
29.7378
28.0898
27.3929
27.2252
27.6157
27.4974
27.0438
26.2719
25.8431
24.2131
231.371
113.465
81.4603
58.9464
50.8664
44.4374
41.9641
37.9915
34.0415
29.9539
27.6204
25.6107
24.8291
24.4066
24.5106
24.9058
25.1267
24.9917
24.42
21.7706
263.483
174.648
91.6218
57.6674
48.8385
43.7098
40.3449
37.0476
32.5213
29.0399
25.5425
23.6085
22.486
22.0214
21.9593
21.7631
21.2163
19.5603
18.6312
16.5706
364.233
240.923
88.9936
56.7374
50.0072
45.9624
40.0205
36.1507
30.5813
28.1111
24.5362
22.3667
20.559
19.2291
18.4902
17.2688
16.0102
14.1766
13.0367
12.4211
406.022
243.84
86.7805
59.4948
54.1483
52.6822
48.1067
42.4966
34.2601
31.2231
27.8802
26.69
24.4152
22.4458
19.7276
17.2259
15.8132
14.0194
13.5332
11.8109
183.113
137.76
78.3677
54.6717
46.339
42.4654
38.8711
36.2484
32.6689
30.715
27.9601
25.9511
23.8783
22.1826
20.3989
18.0251
15.2914
11.024
8.00188
5.79553
64.9255
92.3828
77.1209
54.2314
46.7727
43.2861
40.9402
38.7521
36.3285
33.3908
30.4195
27.3673
24.2122
20.5681
16.761
12.8857
9.21741
6.01838
3.63149
1.86008
163.393
155.7
120.905
101.414
94.7938
83.8
68.9399
54.1605
42.6522
35.1556
31.0021
28.6636
27.0572
25.7687
24.9662
24.5317
23.974
22.7305
22.0478
20.4519
169.552
157.35
104.681
71.3957
67.79
56.13
49.7317
42.423
37.6307
34.9845
34.0966
33.3319
32.9262
32.3946
32.2175
32.0716
32.3603
32.6084
32.6819
31.6638
123.415
129.913
105.343
67.4717
55.5447
42.8006
40.0243
35.6919
33.8533
32.3219
31.7399
31.376
30.9569
30.5016
30.55
30.7107
30.6265
29.5028
28.3306
27.9948
171.24
129.257
119.418
85.0962
58.9601
41.2754
37.7344
33.1487
31.9319
30.1085
30.5677
30.0483
29.6695
28.8936
28.1065
25.9639
22.6126
20.1488
19.9809
21.2631
157.302
150.624
135.344
84.31
57.3136
40.6522
37.7174
32.6643
31.1885
28.4054
28.682
28.2464
27.5518
25.5831
23.1627
20.058
17.7749
15.9568
15.5871
16.351
274.137
142.452
115.954
74.2414
56.934
43.6617
40.0673
35.3693
32.1073
28.3686
26.3304
25.7701
23.7445
21.1633
17.8863
15.6876
14.6663
14.1628
13.1167
12.9008
236.595
181.149
120.476
73.6224
57.5118
44.2091
40.2078
34.2717
30.8202
25.7834
24.768
21.351
19.8399
17.046
17.0629
17.2594
18.4636
19.7759
20.4456
20.2875
361.1
157.652
124.716
94.3309
75.3393
57.7354
50.3811
43.0283
34.6854
30.2077
26.6229
26.2784
22.9466
22.4773
24.8168
24.1097
24.1208
24.2958
24.6817
25.929
235.264
154.064
118.567
84.6971
72.3142
62.3499
55.7201
47.7922
39.4552
36.1118
33.5527
34.1402
35.7704
34.7883
32.0471
29.9926
27.6158
26.4056
26.4159
27.2925
236.247
186.458
124.839
77.0898
67.9263
61.9354
56.5013
51.2739
44.5066
41.2498
39.7785
38.9394
39.3602
43.6411
46.9061
37.9905
33.3379
30.2867
28.3224
28.1748
172.349
155.541
96.2724
68.2402
63.9838
59.9612
57.285
52.7486
46.3179
42.7445
67.4046
65.6087
56.0584
54.0719
58.4961
44.9666
37.5441
32.2465
29.1196
28.6019
188.403
119.911
79.6083
60.006
54.5838
51.5252
50.6673
46.6608
44.2254
41.7957
40.5199
43.0751
48.2455
53.9969
54.4515
43.1554
37.7303
32.0381
28.7974
28.6336
239.755
130.692
97.5089
64.7001
56.1603
45.7995
44.904
43.6142
38.7208
37.0396
35.3069
36.4119
37.2301
38.8194
38.5745
37.29
36.0629
33.1579
29.974
28.6225
377.999
129.612
84.4195
61.5674
56.0571
45.4173
44.0313
37.0007
35.1142
31.7235
31.5427
31.0186
31.5374
32.4302
34.6577
35.9756
36.6631
36.4874
35.7283
32.7507
349.344
122.622
87.7779
60.113
52.7773
42.2762
42.1347
35.7651
33.0758
29.7617
29.363
28.9921
29.4676
30.5413
32.5388
34.0935
34.7798
34.3426
32.2508
27.3789
243.841
171.434
94.2616
60.9968
50.7383
41.7364
40.3017
34.2945
31.7779
28.5999
27.636
27.187
27.5929
28.3068
29.2928
29.6196
29.7942
29.2581
28.4425
26.7522
429.621
308.039
124.832
60.9848
50.339
41.9142
38.8187
33.1207
30.257
27.3413
26.1946
25.9465
26.8916
27.7664
28.9046
29.0131
28.9966
28.2223
26.2185
23.7235
500.205
177.557
80.7996
58.0276
51.9834
44.293
41.1855
35.811
32.8365
30.4071
28.2999
26.7826
26.3849
26.5446
26.6174
26.1806
24.9855
23.2729
21.1041
20.6119
309.139
171.5
89.26
59.6093
50.7516
41.8655
39.4772
34.9013
33.1907
30.4931
28.2546
25.725
24.3409
22.9269
21.7776
20.6467
19.6347
18.6405
18.3073
19.1017
65.7352
88.439
71.6197
58.2937
51.9634
44.9506
41.5717
37.746
35.048
31.6378
28.8047
25.5084
22.2278
18.6565
15.0618
11.457
8.14368
5.40623
3.38238
1.78084
121.753
151.949
124.546
96.3268
87.86
74.3719
57.1178
43.5566
35.5878
31.3185
28.8669
27.0416
25.8664
25.0621
24.743
24.6411
24.4906
24.3756
24.723
24.4507
193.565
185.796
130.888
75.6034
85.5461
61.1945
68.4148
54.9762
59.7097
53.8726
56.0247
52.7484
52.9613
50.8458
50.8272
50.0119
50.6938
51.0251
51.4727
49.9877
130.878
141.576
121.251
69.8354
73.1046
49.9606
57.7164
46.5516
52.1229
47.2223
50.5027
47.9513
49.0945
47.4684
48.1831
47.8761
49.1998
49.1112
48.9693
47.1619
324.255
158.838
147.945
84.9548
76.0025
48.1012
55.7391
44.5143
50.4092
45.8429
49.0477
47.0398
47.8095
46.4074
46.7537
46.4592
47.025
47.933
48.9002
47.8527
170.407
173.062
154.048
80.7715
72.1162
46.5194
53.1982
41.9371
47.4828
42.104
45.688
43.4075
44.6921
43.2625
44.1567
44.0522
44.9785
47.0061
48.7351
50.5669
211.505
149.675
133.644
72.0061
74.1244
50.41
55.7633
44.7924
46.7499
41.9139
42.9189
41.4619
40.3065
39.4798
38.7277
39.0324
40.4486
43.8119
46.5076
50.6038
239.214
163.768
132.485
70.5946
75.0834
51.1887
51.8861
42.2784
42.1631
37.2929
37.2608
34.4114
34.5001
33.4967
34.6873
35.1522
37.5647
40.8024
43.1924
48.5593
263.465
141.262
135.191
84.8409
88.0834
65.1663
57.9594
47.8466
45.9349
40.7012
42.5222
39.2413
40.1054
38.6575
37.6692
36.0412
36.2771
38.5518
40.371
43.9231
328.147
165.029
127.262
80.1787
81.7214
66.196
62.4851
54.954
54.6108
52.6187
51.466
50.8134
49.7274
48.333
46.3356
37.6145
36.1704
36.8617
38.592
41.3527
283.738
212.836
138.107
77.8713
75.7888
64.2319
62.7425
63.194
64.5515
62.0104
59.6494
59.1075
58.4399
56.8092
53.8436
43.6521
39.8566
39.0407
39.1939
40.6074
219.994
177.444
110.915
72.764
75.475
63.2907
63.0147
65.6821
67.1883
64.316
63.8772
64.0427
64.2299
63.3635
61.5789
49.0133
43.5835
40.56
40.0196
40.8636
288.608
130.65
84.7908
73.4399
63.6323
56.4179
59.1606
62.9909
64.3873
62.7785
62.3882
63.3456
62.9172
62.4322
58.9864
49.6337
44.2675
41.2193
40.6496
41.4367
219.29
128.483
100.73
69.6804
71.9895
52.773
57.0831
53.4203
53.0377
49.9188
50.4638
49.6969
50.7124
51.4049
51.4476
49.7066
47.8404
45.825
46.0184
48.648
375.242
163.629
92.0742
73.7185
70.0132
52.3562
60.2498
42.7156
46.3593
38.9734
43.2595
41.4902
45.5613
46.8069
51.2632
52.9773
54.5866
54.4997
55.1417
54.8074
393.43
172.059
105.58
77.6393
67.4022
53.1109
58.2815
41.4703
43.9709
37.1969
40.6597
39.0983
42.8253
43.7628
47.8433
48.7025
50.3708
50.354
51.1466
52.5259
282.625
150.133
106.866
77.7893
63.4515
53.4498
53.3059
40.2618
43.2906
35.8106
39.1374
36.0497
39.3632
38.8003
41.835
42.7675
45.8766
47.4891
49.2533
50.7718
340.98
207.55
109.787
79.0425
63.3934
52.421
51.3616
39.435
41.9288
34.7435
38.1343
35.5423
39.2185
39.4333
43.0598
44.3207
47.1967
48.3714
49.3568
50.7074
244.041
150.807
99.0316
79.8148
65.9982
54.5324
51.454
40.5413
44.6456
37.5872
42.1763
39.5829
43.4801
42.8928
45.3669
45.7147
47.5638
48.7582
49.5284
51.112
246.618
148.451
118.068
80.2344
71.9799
53.2825
54.5446
41.6316
47.7555
38.9321
44.4863
40.8523
44.4151
43.2137
44.9373
44.3707
44.9896
45.2707
46.7427
51.0849
116.005
111.128
77.7125
65.2299
54.4259
43.9475
38.7278
33.8704
30.6144
26.9678
24.0565
21.0097
18.2614
15.4524
12.7339
10.1824
7.89627
5.88639
4.37619
3.27145
35.5375
38.7708
78.8226
39.1221
37.9677
40.9843
116.163
35.021
80.0702
69.6556
37.7783
37.3775
117.702
88.2818
70.6308
38.243
37.3882
40.1348
94.1101
40.096
40.5717
66.4907
37.5245
38.683
97.6661
88.0734
41.2612
44.1366
337.985
421.446
295.979
115.434
103.455
119.145
113.609
231.342
256.41
186.945
102.027
86.2477
113.9
88.3002
191.571
185.728
193.512
75.8842
53.5043
73.0753
51.4559
172.583
194.963
196.838
48.9327
44.7245
48.6359
44.3224
138.077
198.595
205.397
43.8537
43.0046
43.5023
42.3035
98.262
205.627
194.77
43.5291
41.6247
42.2853
44.136
125.083
172.202
125.036
37.3714
30.7475
47.5997
56.5443
140.817
126.75
148.547
30.2938
27.7596
56.8803
46.6298
282.149
374.767
260.311
119.902
114.762
123.064
109.572
183.412
233.901
201.312
114.477
85.8328
106.076
81.4093
191.62
198.041
185.991
71.1509
51.7642
70.5997
53.4556
191.729
179.671
159.044
49.3652
45.5594
51.9683
49.1954
201.139
152.469
139.474
44.7675
43.0006
48.7093
47.9864
204.672
137.249
138.334
42.6231
42.8162
47.784
46.7681
137.728
142.088
162.39
43.7389
53.1417
46.6301
47.0243
139.26
167.421
135.382
56.3705
55.908
47.5649
57.8849
251.488
270.859
185.032
116.79
106.195
96.5987
80.2623
200.582
175.782
176.317
102.574
81.9577
76.446
65.9306
173.671
181.654
209.389
72.1767
54.4878
61.5817
52.0143
159.92
214
215.105
52.1761
49.0778
50.1808
46.7679
155.135
210.646
198.267
48.6471
48.4242
45.9254
43.5438
140.605
198.783
212.76
48.6183
49.9158
42.8573
42.4123
139.301
218.528
219.319
50.4164
50.6743
42.5341
44.1235
132.157
214.62
218.692
50.6879
52.4898
44.6541
41.6696
187.968
281.582
211.912
81.2431
68.5787
77.0221
61.8524
200.998
214.068
229.152
65.2393
57.979
59.3349
55.1038
220.925
228.661
214.564
55.7534
50.5751
53.8518
47.745
215.745
209.745
193.88
49.2879
46.0224
46.3696
41.9108
200.469
188.122
180.795
44.9754
41.8334
40.8059
37.9239
218.497
181.18
183.114
41.1466
40.5984
37.504
36.5542
220.79
182.613
165.25
40.6983
41.8771
36.3674
35.325
228.25
139.161
95.0481
41.9804
40.2835
35.027
34.4054
87.0743
101.067
104.64
66.6137
62.6327
75.1578
78.2339
75.691
106.12
81.7358
61.9433
53.244
78.6541
57.6446
46.7303
66.9245
46.6397
47.6808
37.2147
50.1133
39.0437
39.6101
43.9859
40.0351
35.5919
33.8851
37.4431
35.1081
38.5174
39.2934
38.1894
33.3797
33.0039
34.6935
34.0526
39.1965
38.1448
39.2594
33.3401
35.0931
33.9793
34.3409
30.6315
41.337
47.9933
35.0207
32.4507
34.9665
39.0478
27.5361
48.9391
45.4674
31.7864
28.4128
39.886
42.2808
105.755
103.191
99.2625
76.0329
78.7366
76.1461
73.8723
79.7144
97.1966
74.2672
78.8007
57.1996
72.2038
55.7353
47.0059
64.1411
48.177
49.9696
39.5618
49.8956
40.4905
41.0804
46.6229
44.2629
38.0605
35.8672
39.3664
48.9672
38.9358
43.9549
43.5663
35.5332
35.057
50.3514
50.8367
38.6937
43.4937
43.0806
34.9337
34.7841
49.5802
46.7996
45.3247
43.0618
43.2489
34.9959
37.3422
46.0092
43.1972
50.09
43.4572
50.1681
38.3199
42.2103
42.4335
41.7548
95.55
81.5538
72.4419
73.6839
71.7966
63.1007
57.6139
74.5582
69.7812
60.561
70.2447
56.0762
56.065
49.3691
49.2157
56.5057
47.2438
50.6036
41.3469
46.6579
40.3808
44.3194
45.3884
41.9544
39.2002
47.7807
38.9544
37.0712
43.8026
41.1762
39.301
48.7975
49.8303
36.8926
37.1364
44.4702
38.9039
38.9396
49.4722
48.5679
37.6022
40.0262
45.1912
39.2983
40.9052
48.1463
45.9341
41.0697
43.099
47.9964
41.4168
40.4455
45.1935
43.0554
43.395
42.4409
62.5391
64.3589
55.479
57.3174
51.9113
51.3492
45.5452
53.4256
53.5204
49.5916
50.3896
45.4685
44.6527
41.5467
45.6937
48.261
42.9943
43.6781
39.3352
40.2561
36.6452
41.1879
41.8183
37.766
38.2592
35.869
35.9739
33.0841
37.8135
36.7335
34.4356
35.3703
34.911
32.3766
31.6199
37.3166
34.1664
33.6517
35.1348
37.1326
31.7849
32.6127
39.0189
33.568
33.2353
38.0343
40.2083
32.85
33.7288
38.8684
33.2694
33.5464
40.884
41.2511
34.2894
34.9059
58.1798
69.0264
70.0201
56.7655
50.5829
58.2709
54.351
48.6158
69.5934
52.1088
48.6572
42.0127
52.6357
44.8771
35.7633
46.5774
37.9892
39.2979
35.234
42.7031
38.9576
33.1036
36.7002
34.8031
34.7159
33.2302
38.3283
37.0937
32.2473
34.4607
33.9065
32.5345
32.2033
36.7678
35.9503
34.6615
33.802
34.0847
32.7505
34.7568
35.7433
36.0986
32.8545
34.6716
38.6093
34.8851
34.1215
36.9958
40.9686
28.5659
39.5126
42.4413
33.6448
29.7995
42.1508
44.1298
70.3156
69.8359
67.3859
58.2537
54.6328
59.1948
55.515
51.959
65.4847
51.6292
52.9593
45.4322
53.7556
46.7647
38.5622
47.0693
39.5164
43.3982
39.797
44.7346
41.0728
37.1848
36.4752
37.7175
37.237
37.0131
36.5253
37.6257
37.6484
35.1602
36.7388
35.58
36.8524
35.4994
37.4326
34.6964
63.1628
52.1803
37.1807
36.8979
74.1612
54.0787
37.0917
49.8922
44.5847
37.2602
40.017
51.2545
47.0185
42.2534
43.5013
41.9841
41.1643
45.1852
46.3697
47.1221
66.0341
59.1269
54.4487
58.6233
55.3018
52.882
49.4074
51.9911
53.004
47.0479
53.6154
47.0112
48.392
44.8972
40.3524
44.7728
39.5017
45.0294
41.4315
43.7402
40.928
63.0414
55.8241
39.2572
44.0014
44.171
258.788
40.0238
94.3547
70.1836
58.6549
216.894
59.1202
202.106
94.6018
58.3932
39.467
42.7837
82.7675
63.5245
45.4236
49.5903
50.1098
44.0106
46.1941
59.8297
54.1687
50.6919
53.9488
43.9251
46.4951
45.0546
53.5553
51.2437
55.2744
56.1646
49.7653
49.1373
44.2043
50.8149
46.874
47.0339
43.4608
43.9982
43.4361
40.4926
45.9974
43.4163
43.0117
40.5582
38.65
39.24
36.0513
42.5645
40.3867
39.5249
37.4463
35.6722
35.4908
32.888
39.6635
38.3838
37.1328
35.2715
35.4535
32.2787
31.9076
38.4132
39.7756
34.9791
35.6573
38.6501
32.2298
33.4147
40.7781
44.6924
36.3724
38.1418
42.3182
33.7358
34.9911
46.0069
50.0761
38.6192
40.615
43.5681
35.6477
36.1199
51.6246
54.1154
41.2718
41.824
49.7488
56.5096
52.3388
58.8371
52.9961
58.874
56.4759
41.6379
50.7909
45.1335
51.1954
48.0583
55.9925
55.6083
36.5312
43.5785
40.9074
48.1259
47.5253
55.595
54.1759
34.2431
40.3827
39.0973
46.6728
44.2847
53.322
51.3165
33.4771
38.7176
37.7393
44.4304
45.0282
50.9111
50.1663
35.6596
37.5336
38.0627
44.8098
44.0536
50.0108
50.2851
35.2853
39.0727
42.9338
44.1395
43.7945
50.6554
50.9771
31.0192
43.8336
44.4062
43.041
40.9007
50.5335
48.7116
52.7206
57.6963
54.2689
58.9192
57.4683
59.9652
59.6905
45.9252
52.7945
47.5462
57.2502
57.2919
59.6058
59.7125
41.8451
46.0931
43.1913
57.2447
55.0526
59.3116
56.7723
40.0224
42.7399
67.6747
54.1891
52.1578
55.7417
55.6967
39.1826
70.4922
65.7194
51.7613
51.0379
56.2715
56.7388
38.8411
61.0323
51.6236
51.0187
51.4998
56.4094
56.6656
42.4301
50.116
48.2887
51.8696
52.6917
56.8672
57.7508
46.0884
48.2069
50.6339
52.5234
50.9087
57.8693
58.4233
54.1653
52.2508
49.3936
59.6075
59.6327
55.9974
56.9916
47.7469
48.6023
46.0244
59.5968
59.805
57.4484
58.4208
43.4376
45.2292
43.0366
59.4157
56.9881
58.4632
56.4252
63.9339
42.2651
42.1026
56.0609
56.325
55.6075
54.3603
67.7382
42.6466
45.3616
57.0518
57.8671
54.4291
55.8458
57.902
46.5752
50.5585
57.7924
58.3733
56.7555
58.6307
53.9465
51.672
55.3292
58.5541
59.3941
58.9897
60.322
54.1511
56.9384
58.7952
59.7777
60.1754
60.8137
60.6681
47.3139
47.3674
44.4545
55.1169
56.0446
53.1429
53.2447
44.8234
44.0649
41.743
56.4635
57.2242
52.7626
51.0104
42.4789
40.8188
39.1269
57.2611
55.7203
50.9015
50.3719
40.4832
38.8622
37.2018
54.9096
53.7609
49.8359
48.6622
42.0237
37.0097
38.0254
53.8319
55.2359
48.7847
49.8208
46.9975
38.7643
40.5026
55.9736
57.4355
49.9759
50.23
52.3892
40.9472
42.9017
57.7917
59.051
50.4463
51.4593
56.4777
43.4334
43.6244
59.3568
58.9789
51.5558
51.398
56.4682
62.7658
61.5978
75.7355
69.0861
77.4167
78.9225
54.033
61.6139
62.6088
69.9743
75.7862
80.0397
84.5632
53.7035
62.8032
61.7117
77.3905
74.6847
85.6173
88.8228
51.0193
60.9208
59.0997
74.8148
78.648
89.9524
92.6662
51.4595
58.8081
58.0443
79.6899
76.1055
93.1321
91.5021
49.6834
57.6602
56.9452
75.4433
74.3039
90.0364
83.6201
49.019
56.785
55.5113
74.1872
71.66
81.8847
77.1141
46.2559
54.8463
52.4389
71.6951
69.497
76.2455
73.8825
62.8774
63.4108
65.1491
77.126
80.6841
76.0243
83.4637
64.4605
65.6831
67.1339
82.0174
86.6112
85.1655
90.5261
62.9536
67.0681
64.8816
88.0391
93.6593
93.3401
104.903
59.9735
63.9296
62.7688
95.3795
98.6303
108.582
115.136
59.1599
62.9079
63.0201
99.0951
97.4752
116.046
113.357
58.5549
62.9883
63.3372
95.6934
87.3374
109.669
95.4346
57.3972
63.1675
62.3835
84.7789
79.2355
90.9523
83.3601
54.5855
62.0065
60.6998
78.2108
75.5118
81.9003
78.6616
65.0886
59.8103
63.0549
76.06
83.6624
74.4509
82.4219
67.2353
63.9252
65.6252
85.3948
90.778
83.888
87.8946
65.1632
65.7641
64.5126
93.6543
105.669
89.3745
96.4046
63.6184
63.7635
63.0297
109.663
116.319
98.6083
103.367
63.9975
63.1373
64.0309
117.031
114.271
104.202
103.64
64.4025
64.5076
64.4107
110.398
95.5185
101.328
90.6442
63.523
64.1715
63.7145
90.984
83.6522
87.2939
81.7789
62.1884
63.6918
62.4069
82.4095
79.0924
80.8825
78.2381
62.2893
57.4114
58.6575
75.256
81.6701
73.8325
75.5668
64.2725
57.9926
56.7405
82.6342
85.8191
73.7981
76.0383
63.4233
56.9879
56.4583
86.6552
91.1031
77.67
76.6725
62.2646
55.635
54.5892
92.4836
96.4003
75.0189
77.5614
63.1609
54.7913
55.356
97.1066
96.5719
78.4267
77.5203
63.1491
55.1712
54.8989
94.7968
87.2029
76.3071
76.2673
62.5166
55.0256
55.5793
84.9458
80.4634
76.1558
74.7203
61.1248
55.5627
55.0915
79.6179
77.6321
74.3172
73.8353
37.1787
35.9078
36.7134
35.7657
36.7449
36.0614
37.301
41.444
38.0483
54.6135
43.2691
38.6002
38.1524
197.057
46.0917
41.8906
69.0894
241.746
40.3866
48.0438
258.408
37.9228
37.8071
38.5912
39.618
37.2105
38.2205
39.2164
38.03
36.5683
38.2327
39.4244
36.825
38.2475
39.2626
42.5831
44.6085
40.1049
68.2252
38.8025
205.582
41.3985
48.0081
250.058
47.3368
101.835
50.3094
267.001
44.8675
37.9001
35.0845
37.1307
35.3938
37.0341
35.456
37.9119
49.3512
42.6261
81.9084
229.359
43.311
48.6795
216.973
49.3496
43.2898
78.7432
109.638
43.6417
47.2497
149.592
38.6729
36.4009
37.6667
39.5729
36.3266
38.4151
39.7999
38.8649
36.1588
37.5454
39.8075
36.261
38.8135
39.8831
51.7047
237.236
48.3357
116.602
50.9914
225.791
49.1084
51.2731
118.311
47.546
106.679
48.8184
157.124
48.8861
83.2478
66.8598
56.6956
233.116
51.8561
247.715
92.7932
40.2587
38.7015
37.5053
38.164
38.9521
38.7465
37.7306
43.8811
42.4269
37.3131
38.3874
40.3634
47.6439
37.8885
66.6888
45.7994
62.6318
41.3463
258.237
40.7848
48.647
90.4752
242.697
83.0352
71.9102
259.863
101.597
62.3263
41.2954
38.7497
40.6393
39.7802
39.3909
38.5001
41.5586
45.6783
39.5224
48.1458
39.9864
50.0859
38.8012
44.5138
91.5064
72.1588
60.067
126.321
60.0841
181.278
89.3596
51.0478
43.6401
37.7863
38.8552
44.5103
49.6453
39.4163
51.8822
46.3008
38.1105
40.8664
45.2431
53.4781
39.977
104.582
223.845
97.6944
76.7078
207.782
104.658
79.1186
102.102
133.785
97.3314
79.371
176.499
99.4618
80.4419
54.4653
40.1932
50.5832
42.1014
52.6057
40.9709
52.5473
55.579
42.8308
56.0024
42.9609
57.5041
41.7267
53.941
198.08
230.201
206.317
113.599
99.5439
124.071
103.74
150.884
182.45
157.844
94.509
87.635
99.2201
94.4199
114.373
135.835
118.831
75.6496
66.9813
81.8102
66.3196
74.923
105.309
93.0427
57.4058
47.639
56.7449
52.0943
36.7592
78.2299
64.0955
31.3524
23.6371
44.9501
41.7608
31.9203
52.6833
51.5189
20.4639
19.3041
35.7006
29.0849
47.5938
54.7902
67.25
19.7531
21.0746
26.4711
27.037
48.1085
74.3258
78.8185
22.5196
19.6955
27.8483
26.9792
262.355
280.043
256.578
153.404
131.966
156.273
132.159
197.13
401.744
427.181
231.728
207.445
231.18
383.282
162.215
263.861
274.67
180.226
164.805
179.969
238.514
93.0359
210.191
196.649
114.027
109.43
101.303
191.623
75.173
182.085
187.428
88.7128
86.1262
77.5173
187.067
71.8342
157.73
184.304
76.1307
74.2229
72.168
181.202
79.7484
106.383
165.326
71.0169
69.6833
74.9153
141.539
59.4734
105.342
107.525
52.551
48.1278
70.8586
113.844
49.4276
142.53
136.617
45.7963
45.6607
49.9222
144.887
83.4522
103.383
96.9623
31.7524
27.7352
40.6599
34.1276
244.892
260.27
232.964
150.651
131.403
152.168
136.193
203.14
364.327
400.112
224.116
201.93
224.478
353.05
148.022
212.155
235.728
184.126
155.634
176.796
208.853
85.9033
184.386
182.729
91.2799
83.9614
92.3322
183.716
80.3426
191.948
188.693
78.7738
77.9438
80.89
188.593
77.3622
194.293
185.047
75.5538
74.737
78.1127
185.201
74.6578
206.117
191.728
73.3316
73.3549
75.4278
196.278
76.3819
188.237
201.494
78.6725
86.8108
73.9988
199.485
106.59
132.735
159.111
104.173
102.244
94.7526
143.16
100.223
99.3487
99.5482
57.524
40.4349
73.0571
58.0973
198.423
204.795
176.091
133.71
126.646
127.216
112.178
177.878
304.691
318.158
194.844
186.677
189.94
280.464
136.203
212.194
209.221
155.161
140.637
147.934
197.566
92.2913
190.778
180.525
101.317
93.7446
100.656
174.701
77.2749
166.583
173.949
82.4151
80.5137
78.0426
177.357
78.2848
156.568
183.179
79.0206
78.9653
77.9309
183.288
81.2321
150.112
177.374
81.7302
83.0941
80.402
175.35
86.5306
139.114
174.624
86.7425
86.9062
86.2816
176.739
93.2121
143.284
168.31
86.5151
87.2238
93.4407
163.86
84.5437
111.673
85.748
70.6081
71.4602
61.1022
67.9558
154.494
171.699
163.166
99.1275
89.6548
93.1989
88.1391
122.097
217.533
243.399
143.131
126.913
140.203
218.923
86.9949
188.318
202.897
92.0102
87.686
90.6365
206.922
85.2077
214.372
222.752
84.4901
84.3876
85.1868
224.83
81.4974
221.609
224.875
82.8998
82.166
82.8669
222.065
73.1858
202.467
205.352
77.9896
76.436
75.4403
200.872
69.3982
205.219
201.102
71.9424
71.8007
69.5568
204.943
69.6528
223.549
215.946
72.8675
73.1229
69.5637
215.845
61.0862
219.094
201.608
72.9626
70.3901
66.1635
200.453
87.7548
88.9004
73.5768
50.5068
59.3916
45.4807
47.9321
151.572
180.446
144.227
100.873
83.0892
103.025
80.3537
141.363
142.703
145.302
71.5278
65.7325
68.3655
64.9145
134.173
139.613
127.179
60.5354
56.7065
60.9625
54.7449
119.778
120.263
115.45
52.7797
49.486
52.0394
50.5747
108.579
105.824
97.3061
46.1469
43.7705
47.8925
44.3105
103.719