/*--------------------------------*- C++ -*----------------------------------*\
  =========                 |
  \\      /  F ield         | OpenFOAM: The Open Source CFD Toolbox
   \\    /   O peration     | Website:  https://openfoam.org
    \\  /    A nd           | Version:  10
     \\/     M anipulation  |
\*---------------------------------------------------------------------------*/
FoamFile
{
    format      ascii;
    class       volScalarField;
    location    "1.7";
    object      turbidity;
}
// * * * * * * * * * * * * * * * * * * * * * * * * * * * * * * * * * * * * * //

dimensions      [0 0 0 0 0 0 0];

internalField   nonuniform List<scalar> 
12920
(
-0.0495629
-0.0743659
-0.0750863
-0.0903839
-0.0965848
-0.108165
-0.125069
-0.158053
-0.206712
-0.260504
-0.305384
-0.339587
-0.364917
-0.381082
-0.384642
-0.370043
-0.34486
-0.309771
-0.270849
-0.243385
-0.0488143
-0.102348
-0.0945694
-0.130457
-0.143867
-0.1601
-0.18172
-0.210606
-0.24573
-0.279724
-0.311704
-0.335454
-0.351252
-0.355587
-0.349168
-0.335329
-0.312621
-0.287146
-0.271407
-0.276515
-0.0250327
-0.0755011
-0.0818664
-0.125976
-0.158877
-0.186419
-0.213715
-0.241766
-0.274671
-0.306283
-0.336566
-0.356212
-0.370923
-0.379549
-0.38466
-0.384148
-0.377308
-0.374337
-0.382549
-0.395917
-0.0384178
-0.0508632
-0.0695819
-0.108496
-0.150424
-0.199604
-0.244164
-0.285765
-0.329547
-0.372004
-0.41106
-0.435769
-0.448167
-0.452714
-0.459238
-0.471015
-0.483382
-0.499277
-0.530965
-0.570933
-0.0275556
-0.0364075
-0.0427953
-0.0804662
-0.121219
-0.170068
-0.212874
-0.255492
-0.297876
-0.34824
-0.405427
-0.466702
-0.517898
-0.549724
-0.571435
-0.592653
-0.621187
-0.659476
-0.698445
-0.727122
-0.0309069
-0.0431702
-0.0509185
-0.0644729
-0.0876415
-0.124427
-0.166704
-0.210707
-0.252286
-0.302124
-0.367907
-0.451998
-0.519558
-0.574384
-0.617486
-0.651252
-0.678601
-0.708109
-0.744141
-0.777721
-0.052255
-0.0619752
-0.0627616
-0.0846355
-0.119667
-0.162045
-0.209684
-0.249397
-0.289384
-0.346289
-0.389653
-0.418544
-0.373318
-0.35991
-0.372891
-0.397517
-0.426595
-0.473906
-0.540433
-0.62346
-0.0628986
-0.0821908
-0.076331
-0.0741193
-0.0882542
-0.115271
-0.132517
-0.150561
-0.180339
-0.222841
-0.280173
-0.240065
-0.164315
-0.101762
-0.110678
-0.162754
-0.215622
-0.269139
-0.32577
-0.391494
-0.046252
-0.0720873
-0.0652859
-0.0689895
-0.0822744
-0.0926438
-0.106725
-0.122722
-0.151629
-0.174668
-0.181204
-0.172261
-0.130689
-0.0763124
-0.0495249
-0.102069
-0.168487
-0.228671
-0.279971
-0.327227
-0.0472269
-0.0625911
-0.0694834
-0.0841758
-0.0987665
-0.0959503
-0.0966441
-0.105819
-0.123084
-0.130729
-0.119341
-0.102908
-0.0917282
-0.0818981
-0.0656105
-0.102178
-0.164158
-0.225646
-0.276751
-0.322669
-0.0140324
-0.0380143
-0.0718826
-0.103762
-0.123714
-0.119342
-0.114591
-0.113865
-0.113492
-0.103703
-0.0925343
-0.0877781
-0.08796
-0.0836687
-0.0813986
-0.120514
-0.180503
-0.235343
-0.284408
-0.33229
-0.0148106
-0.0279569
-0.0553864
-0.0974253
-0.134134
-0.131051
-0.125359
-0.112744
-0.101206
-0.0936577
-0.092317
-0.10479
-0.11294
-0.105805
-0.0909758
-0.130554
-0.183594
-0.243445
-0.307551
-0.369435
-0.0174391
-0.0327777
-0.0462763
-0.0725031
-0.107872
-0.133966
-0.133201
-0.124726
-0.118311
-0.121943
-0.139838
-0.158328
-0.160272
-0.135429
-0.138489
-0.172586
-0.222568
-0.278958
-0.333576
-0.391563
-0.0393792
-0.0597828
-0.072002
-0.0922878
-0.110817
-0.123019
-0.139038
-0.157462
-0.176909
-0.212717
-0.251413
-0.296535
-0.324788
-0.332903
-0.324029
-0.335925
-0.352333
-0.360487
-0.375861
-0.404606
-0.0221464
-0.0595027
-0.069751
-0.0991467
-0.12149
-0.139995
-0.156251
-0.177854
-0.203208
-0.240667
-0.283298
-0.322246
-0.346396
-0.350927
-0.344039
-0.324483
-0.29771
-0.280727
-0.291655
-0.326153
-0.0227905
-0.0494497
-0.0572417
-0.083675
-0.103749
-0.125872
-0.151187
-0.17275
-0.203825
-0.237487
-0.276632
-0.300695
-0.307225
-0.290046
-0.264216
-0.239347
-0.222187
-0.216452
-0.233584
-0.283745
-0.0485937
-0.0401132
-0.0524804
-0.0766763
-0.101077
-0.127511
-0.159472
-0.188758
-0.219695
-0.240708
-0.260796
-0.271682
-0.289984
-0.303439
-0.303597
-0.293133
-0.283041
-0.287276
-0.315034
-0.364128
-0.0125019
-0.0376085
-0.0521215
-0.0647093
-0.0772577
-0.0888053
-0.106988
-0.139296
-0.187195
-0.232036
-0.263213
-0.279938
-0.296298
-0.312772
-0.330747
-0.346989
-0.364006
-0.387307
-0.417117
-0.454191
-0.00958027
-0.0317268
-0.0596827
-0.089121
-0.112975
-0.129915
-0.153134
-0.180529
-0.213017
-0.243483
-0.270869
-0.298243
-0.327183
-0.357315
-0.386235
-0.413971
-0.44319
-0.482268
-0.532541
-0.589061
-0.0158933
-0.0433651
-0.0661762
-0.0845954
-0.101178
-0.121462
-0.145264
-0.172155
-0.198254
-0.2229
-0.24649
-0.271676
-0.300497
-0.336021
-0.380479
-0.437709
-0.508021
-0.586508
-0.660921
-0.720698
-0.0995446
-0.0487702
-0.0384648
-0.0385561
-0.036335
-0.0327871
-0.0300318
-0.0325165
-0.0452487
-0.0683703
-0.096511
-0.116588
-0.124626
-0.117419
-0.100537
-0.0822331
-0.0658055
-0.0524437
-0.0432197
-0.0381105
-0.0704279
-0.0435023
-0.0249978
-0.0433045
-0.0313425
-0.0322478
-0.029219
-0.0312589
-0.0379931
-0.0449264
-0.0504715
-0.0525272
-0.0512858
-0.0477661
-0.0441121
-0.0415311
-0.0416866
-0.0477433
-0.0640852
-0.0844781
-0.0374002
-0.0365835
-0.0285117
-0.0267578
-0.0242704
-0.0285908
-0.0337216
-0.0391214
-0.0514883
-0.0628769
-0.0726261
-0.075806
-0.0756009
-0.0739575
-0.0740422
-0.078906
-0.0919641
-0.119387
-0.161748
-0.197649
-0.0117008
-0.0228253
-0.0170785
-0.0182569
-0.0246412
-0.0437612
-0.0674546
-0.0861835
-0.10892
-0.124707
-0.137147
-0.137174
-0.133974
-0.13175
-0.138753
-0.162139
-0.208923
-0.264586
-0.299711
-0.291897
-0.0150074
-0.0103227
-0.00909756
-0.0144453
-0.0232797
-0.0378107
-0.0591692
-0.0826631
-0.118004
-0.153147
-0.189609
-0.208873
-0.224058
-0.239566
-0.25992
-0.28105
-0.295824
-0.289227
-0.256364
-0.21261
-0.00396556
-0.0062346
-0.00855356
-0.0141278
-0.0275
-0.0409273
-0.0620829
-0.0819765
-0.114544
-0.155309
-0.188685
-0.20271
-0.217147
-0.242033
-0.262378
-0.268394
-0.256737
-0.232354
-0.201833
-0.163073
-0.0252691
-0.0232105
-0.0140151
-0.0184801
-0.030952
-0.0448173
-0.0635353
-0.100329
-0.138807
-0.156161
-0.115059
-0.108479
-0.101153
-0.120458
-0.120847
-0.123386
-0.121955
-0.118454
-0.109133
-0.0897187
-0.0108042
-0.0362738
-0.0244436
-0.0157475
-0.0181205
-0.0289758
-0.0389117
-0.073234
-0.108157
-0.141004
-0.131179
-0.0771801
-0.0560787
-0.0423107
-0.0375478
-0.0499906
-0.0667697
-0.0797103
-0.0855367
-0.0789421
-0.0113624
-0.0302044
-0.0162656
-0.0166435
-0.0218401
-0.0274124
-0.0356886
-0.0713866
-0.0991212
-0.0880495
-0.0940714
-0.107139
-0.0889838
-0.0543728
-0.036365
-0.0400374
-0.053058
-0.0645102
-0.0696248
-0.0655083
-0.00646089
-0.0227383
-0.0244898
-0.0275242
-0.0379137
-0.0399543
-0.0505192
-0.0847044
-0.0972842
-0.0782116
-0.0550239
-0.0395677
-0.0459939
-0.0617958
-0.0530192
-0.0528105
-0.0630468
-0.0676183
-0.063988
-0.0554353
-0.0020064
-0.011935
-0.0320289
-0.0484642
-0.0615574
-0.0677008
-0.0805841
-0.0953621
-0.0940818
-0.0884804
-0.0870864
-0.0852909
-0.0838753
-0.0803527
-0.0740963
-0.0718715
-0.0811235
-0.0840049
-0.0769279
-0.0617281
-0.00382542
-0.00842762
-0.0170517
-0.0351605
-0.0594867
-0.0597035
-0.0700807
-0.0780239
-0.0608675
-0.0319808
-0.0203063
-0.0224751
-0.0287184
-0.0379853
-0.0608754
-0.0788085
-0.0918794
-0.0978102
-0.0928256
-0.0774949
-0.00953018
-0.00901024
-0.00968495
-0.0148615
-0.0277593
-0.0221331
-0.0295212
-0.0300064
-0.0234555
-0.0266268
-0.0358006
-0.0443009
-0.0525986
-0.0646531
-0.084393
-0.0980679
-0.116008
-0.138553
-0.166416
-0.182111
-0.00974223
-0.0166871
-0.0160992
-0.0155126
-0.0173865
-0.016104
-0.0196598
-0.0281703
-0.043335
-0.0657341
-0.0933168
-0.121289
-0.144015
-0.16379
-0.174394
-0.183673
-0.188445
-0.191083
-0.196741
-0.200296
-0.00853947
-0.0132571
-0.011588
-0.0200472
-0.0170753
-0.0210131
-0.0293012
-0.0443203
-0.0650582
-0.082671
-0.101717
-0.108381
-0.113128
-0.108498
-0.101775
-0.0861748
-0.0782569
-0.0758037
-0.0802005
-0.0852081
-0.00630855
-0.0105062
-0.00908884
-0.0109991
-0.0138756
-0.0180864
-0.0274289
-0.0369127
-0.0522479
-0.0542268
-0.0553491
-0.0459407
-0.0424629
-0.0404861
-0.0416438
-0.0425884
-0.0448488
-0.0481082
-0.0537355
-0.060671
-0.0278224
-0.00706906
-0.00870185
-0.0124073
-0.0189706
-0.0241544
-0.0335523
-0.0318848
-0.0352242
-0.0351373
-0.0356807
-0.0346495
-0.0349509
-0.0366428
-0.0404823
-0.0468878
-0.0559287
-0.0670319
-0.0773104
-0.0913
-0.0135521
-0.010117
-0.00981768
-0.0130012
-0.0188218
-0.0283133
-0.0506369
-0.0607598
-0.0628377
-0.0482895
-0.0428186
-0.0415937
-0.0452524
-0.0551597
-0.0757817
-0.107136
-0.145889
-0.18476
-0.221002
-0.244436
-0.0052617
-0.0114899
-0.0212285
-0.0225281
-0.0205014
-0.0203248
-0.0289601
-0.0371818
-0.0518979
-0.0605777
-0.0783802
-0.0934035
-0.114541
-0.13709
-0.165642
-0.198741
-0.239989
-0.28152
-0.312485
-0.314891
-0.00841809
-0.0260687
-0.0342948
-0.0313453
-0.039157
-0.0475528
-0.063373
-0.0691525
-0.078168
-0.0808493
-0.0849554
-0.0858783
-0.0946131
-0.118122
-0.170223
-0.239447
-0.304261
-0.337628
-0.328144
-0.286363
-0.0325458
-0.0388827
-0.0339762
-0.0342453
-0.0345827
-0.0332683
-0.0305297
-0.0291667
-0.0332183
-0.043371
-0.0561624
-0.0645038
-0.0658918
-0.06042
-0.0520307
-0.043558
-0.0367952
-0.0327305
-0.0319964
-0.0334071
-0.034662
-0.0334955
-0.0235039
-0.0243055
-0.0215282
-0.0212273
-0.0217621
-0.0230559
-0.0253495
-0.0271147
-0.0281592
-0.0283928
-0.0285646
-0.0288151
-0.0299205
-0.0327051
-0.0383503
-0.0468559
-0.0577634
-0.0693147
-0.0140325
-0.0158341
-0.0173428
-0.01756
-0.0165307
-0.0175866
-0.0207902
-0.0245395
-0.0305505
-0.0350035
-0.0383027
-0.0395525
-0.0409095
-0.0431788
-0.0478387
-0.0553619
-0.0668808
-0.0810916
-0.0964631
-0.107106
-0.010082
-0.00913023
-0.00907021
-0.0113887
-0.0154098
-0.0234403
-0.0356331
-0.0457511
-0.0586279
-0.0654146
-0.0694437
-0.0681435
-0.0681233
-0.0702539
-0.077606
-0.0909798
-0.113419
-0.134101
-0.135697
-0.109213
-0.00431581
-0.0053
-0.00639179
-0.00962421
-0.0155296
-0.025965
-0.041176
-0.0556597
-0.0758522
-0.0903333
-0.101523
-0.103894
-0.109446
-0.119891
-0.133855
-0.142481
-0.140549
-0.121465
-0.0920937
-0.0624573
-0.0020252
-0.00440639
-0.00556062
-0.00923084
-0.0168017
-0.0274141
-0.041604
-0.0569308
-0.0790521
-0.0967689
-0.0993334
-0.0888582
-0.0908662
-0.105645
-0.120288
-0.122488
-0.110443
-0.0891276
-0.0655837
-0.0426805
-0.0235317
-0.0169965
-0.0102887
-0.0122254
-0.018743
-0.0283604
-0.038829
-0.0634279
-0.0873098
-0.0824118
-0.0495787
-0.0421874
-0.0421825
-0.0564831
-0.060142
-0.0607027
-0.0570708
-0.049925
-0.0390507
-0.0259149
-0.00580916
-0.0111972
-0.00832386
-0.00786455
-0.0109312
-0.0182493
-0.0234705
-0.0423665
-0.0673423
-0.0871102
-0.0658565
-0.0388673
-0.0316451
-0.0311952
-0.0350225
-0.0395344
-0.0436081
-0.0447731
-0.0413323
-0.0322876
-0.0126262
-0.012907
-0.0106764
-0.0115918
-0.0155229
-0.0189653
-0.0235711
-0.0406722
-0.0495
-0.0571227
-0.0648743
-0.0657252
-0.0571869
-0.039525
-0.029415
-0.0358642
-0.0405456
-0.041085
-0.0372543
-0.0294675
-0.0116836
-0.0193078
-0.0170385
-0.0166123
-0.0210808
-0.0237047
-0.0328083
-0.0543769
-0.0430441
-0.0302427
-0.0287255
-0.0340227
-0.0411818
-0.0473723
-0.0446436
-0.0466359
-0.0511578
-0.0504064
-0.0427709
-0.0315446
-0.00553051
-0.0170287
-0.022682
-0.0256614
-0.0305519
-0.0328653
-0.0423993
-0.0486125
-0.0375916
-0.0330733
-0.038415
-0.0425908
-0.0443558
-0.0469058
-0.053661
-0.0620226
-0.0667348
-0.0640837
-0.0531799
-0.0379887
-0.00751561
-0.0103055
-0.0129336
-0.020121
-0.0274821
-0.0279556
-0.0343332
-0.0386921
-0.0300187
-0.0205043
-0.0180915
-0.0233047
-0.0322891
-0.0399604
-0.0546407
-0.0701493
-0.0744794
-0.0705556
-0.058598
-0.0430801
-0.00655021
-0.00690961
-0.00762773
-0.0108146
-0.0148954
-0.0125134
-0.013526
-0.0133522
-0.0149894
-0.0199422
-0.027572
-0.0376409
-0.048971
-0.0587451
-0.0699277
-0.0772393
-0.0840814
-0.0918815
-0.101784
-0.0975727
-0.00995583
-0.0112544
-0.00819686
-0.0087454
-0.0106043
-0.0127207
-0.0143804
-0.0211504
-0.0281208
-0.039631
-0.0531648
-0.0696598
-0.0845526
-0.100567
-0.111332
-0.11722
-0.118457
-0.119533
-0.122328
-0.121625
-0.00916615
-0.0109583
-0.00886636
-0.011281
-0.013888
-0.0196972
-0.0227985
-0.031877
-0.0394816
-0.0458295
-0.0539996
-0.0591413
-0.0669545
-0.0723259
-0.0778058
-0.0795567
-0.0806246
-0.0809741
-0.0814526
-0.078195
-0.00629055
-0.00735431
-0.00741101
-0.00992758
-0.013715
-0.0173527
-0.0244813
-0.0292278
-0.034591
-0.0344547
-0.0369489
-0.0376194
-0.0413702
-0.0429398
-0.0456065
-0.04621
-0.0475663
-0.0495209
-0.0526497
-0.0564266
-0.0133329
-0.00730726
-0.00747528
-0.00933437
-0.0123645
-0.0148109
-0.0199013
-0.0222755
-0.0261738
-0.028179
-0.0307703
-0.0332542
-0.0361557
-0.0397763
-0.0443713
-0.0514816
-0.0599728
-0.0714603
-0.0860143
-0.102075
-0.0172229
-0.0096155
-0.0081344
-0.00987545
-0.014344
-0.0189223
-0.0287456
-0.0286145
-0.0289953
-0.0281285
-0.0311448
-0.0368154
-0.0454146
-0.0580887
-0.0735034
-0.090501
-0.109045
-0.127215
-0.146411
-0.161106
-0.00641227
-0.00760591
-0.00951723
-0.01078
-0.0136691
-0.0168421
-0.0219516
-0.0262333
-0.0327576
-0.0401142
-0.0517924
-0.0658795
-0.0848273
-0.106339
-0.130131
-0.152948
-0.173097
-0.182252
-0.177614
-0.151492
-0.010176
-0.0206693
-0.0208444
-0.0153569
-0.017733
-0.0229011
-0.0330161
-0.0352119
-0.0397594
-0.0410812
-0.0449227
-0.0508542
-0.065588
-0.0927734
-0.135504
-0.18486
-0.221575
-0.224244
-0.191857
-0.14354
-0.039854
-0.03625
-0.0253673
-0.0232322
-0.0253613
-0.0267502
-0.026083
-0.0253489
-0.027483
-0.0325499
-0.0379007
-0.0399478
-0.038388
-0.0342017
-0.029763
-0.0258279
-0.0229244
-0.0210531
-0.0204451
-0.0207873
-0.0111874
-0.0213088
-0.0195328
-0.0189169
-0.0186474
-0.0189624
-0.0196986
-0.0202943
-0.0212931
-0.0219468
-0.0224555
-0.0225259
-0.0224801
-0.0223855
-0.0226741
-0.023328
-0.0241846
-0.0250291
-0.026892
-0.0302147
-0.00417236
-0.011973
-0.0134104
-0.0132671
-0.0133418
-0.0147661
-0.0171479
-0.0191022
-0.0216711
-0.0231599
-0.0245476
-0.025592
-0.0270626
-0.0286792
-0.0307836
-0.0326024
-0.0339665
-0.033905
-0.033971
-0.0344788
-0.00261222
-0.0051188
-0.00612993
-0.00851506
-0.0119463
-0.0171579
-0.024115
-0.028521
-0.0339255
-0.0352545
-0.0361071
-0.0356469
-0.0370168
-0.0393591
-0.0429738
-0.0467011
-0.0508959
-0.0498105
-0.0411086
-0.0267567
-0.00122723
-0.00278726
-0.00464043
-0.00802905
-0.0132771
-0.0207238
-0.0307173
-0.0374719
-0.0464182
-0.0498087
-0.0521528
-0.0522133
-0.0558139
-0.0613205
-0.0662531
-0.0656197
-0.0582313
-0.0441151
-0.0288467
-0.0166237
-0.00373511
-0.00498477
-0.00619682
-0.0100076
-0.0160205
-0.0236895
-0.0336972
-0.0418811
-0.0519698
-0.0537577
-0.0477965
-0.0398469
-0.0396039
-0.0436975
-0.0480247
-0.0469215
-0.0397191
-0.028933
-0.0184927
-0.0102217
-0.0134854
-0.0106248
-0.0072479
-0.0105256
-0.0166274
-0.0248468
-0.0330372
-0.046087
-0.0540632
-0.0441413
-0.0269778
-0.0225213
-0.0225012
-0.0280615
-0.0288149
-0.0279432
-0.0248584
-0.0198896
-0.0139897
-0.00827536
-0.0103536
-0.00527041
-0.00495763
-0.00732737
-0.0113534
-0.0179469
-0.0214488
-0.0362238
-0.0518365
-0.0576703
-0.0369857
-0.0241026
-0.0231584
-0.0295387
-0.0292941
-0.0286486
-0.0271787
-0.0241221
-0.0192303
-0.0130284
-0.00782245
-0.00866963
-0.00823763
-0.0104536
-0.0139372
-0.0171069
-0.0202632
-0.0282187
-0.0423758
-0.0534752
-0.0576202
-0.0527709
-0.0381668
-0.0226341
-0.0205146
-0.0214232
-0.0199621
-0.0172363
-0.0141725
-0.00982932
-0.0100254
-0.0154124
-0.0134663
-0.0129905
-0.0152075
-0.0170849
-0.0221069
-0.0269065
-0.0267156
-0.0311195
-0.0413803
-0.0541489
-0.0562384
-0.0514924
-0.0391562
-0.0341823
-0.030099
-0.0222113
-0.0151238
-0.00940813
-0.00747703
-0.0146361
-0.0148312
-0.015788
-0.0166863
-0.0174653
-0.0210137
-0.0210535
-0.0194747
-0.0204962
-0.0240027
-0.0324362
-0.0464619
-0.0482346
-0.0502174
-0.0483059
-0.0420975
-0.031209
-0.0204477
-0.0119636
-0.00417482
-0.00868642
-0.0100709
-0.0134268
-0.0146331
-0.0156902
-0.017734
-0.0184373
-0.0167164
-0.0170659
-0.0222682
-0.0350674
-0.049764
-0.0560128
-0.0584426
-0.0515712
-0.0462594
-0.0361652
-0.0252016
-0.016069
-0.00626232
-0.00543739
-0.0058034
-0.00845814
-0.0103797
-0.0112594
-0.0119874
-0.0141009
-0.0177452
-0.0232552
-0.0306884
-0.0398706
-0.0489567
-0.0557678
-0.0549153
-0.0574957
-0.0583018
-0.0581829
-0.0570567
-0.0456732
-0.0160119
-0.0083595
-0.00698958
-0.00816964
-0.0100219
-0.0136359
-0.0154399
-0.0216668
-0.0265929
-0.0343694
-0.0417717
-0.0519337
-0.0607945
-0.0706952
-0.0763708
-0.0778205
-0.0765814
-0.0756633
-0.0757132
-0.0715786
-0.010183
-0.00718384
-0.00803873
-0.0118273
-0.0152754
-0.0201495
-0.0207187
-0.0264345
-0.0308511
-0.0356082
-0.0419002
-0.0474285
-0.05404
-0.0583023
-0.0613944
-0.0610701
-0.05993
-0.057608
-0.053735
-0.0456707
-0.00508385
-0.00597311
-0.00651106
-0.0121734
-0.0173372
-0.0210876
-0.0239766
-0.0270204
-0.0301597
-0.032021
-0.0353846
-0.0365463
-0.0393083
-0.0394109
-0.0401119
-0.0386785
-0.0374354
-0.0360825
-0.0360876
-0.0386626
-0.0130415
-0.0108857
-0.00872738
-0.0116676
-0.015926
-0.0186724
-0.022652
-0.0259379
-0.0295598
-0.0332768
-0.0362751
-0.0393049
-0.0409837
-0.0421801
-0.0414549
-0.0401444
-0.0388119
-0.039621
-0.0449672
-0.054637
-0.014525
-0.00659254
-0.00927134
-0.0114926
-0.0154507
-0.0179962
-0.0221517
-0.0254453
-0.0297284
-0.0359998
-0.042506
-0.0507125
-0.0584164
-0.0644245
-0.0673549
-0.0663812
-0.0626195
-0.0590035
-0.0633736
-0.0705741
-0.0136239
-0.00945512
-0.00904511
-0.0110851
-0.0159281
-0.020182
-0.0246098
-0.0291715
-0.0346788
-0.041742
-0.0510251
-0.0620002
-0.0751429
-0.0882409
-0.10037
-0.107004
-0.106185
-0.0945041
-0.0759082
-0.0524466
-0.00828044
-0.0144142
-0.0128207
-0.0101274
-0.0122192
-0.0165848
-0.0222823
-0.024327
-0.0276168
-0.0301857
-0.0355192
-0.0445535
-0.0605624
-0.0845147
-0.11552
-0.144915
-0.159278
-0.148302
-0.116633
-0.0802115
-0.00767667
-0.0106807
-0.00903795
-0.0105488
-0.0146349
-0.0165844
-0.0163731
-0.0173685
-0.0201183
-0.0220765
-0.0225082
-0.0209798
-0.0188483
-0.0168086
-0.015074
-0.0135514
-0.012234
-0.0112154
-0.0106807
-0.0105632
-0.00942924
-0.0178595
-0.01618
-0.0159935
-0.0155604
-0.01539
-0.0161125
-0.0170185
-0.0177268
-0.0176921
-0.0171517
-0.0160731
-0.0145886
-0.012905
-0.0112592
-0.00986829
-0.00891667
-0.00857601
-0.00937106
-0.0105504
-0.00217689
-0.00525275
-0.00843737
-0.0110613
-0.0128575
-0.0146399
-0.0162055
-0.017253
-0.0180359
-0.0180627
-0.0177065
-0.0167896
-0.0155812
-0.0141047
-0.0126128
-0.0110962
-0.00953834
-0.0079524
-0.00701979
-0.00675137
-0.00399501
-0.00489103
-0.00714087
-0.00962686
-0.0125837
-0.0155748
-0.0179511
-0.0191578
-0.0202663
-0.0199968
-0.0197511
-0.0188822
-0.0182413
-0.0173658
-0.0167906
-0.0157512
-0.0139535
-0.0105481
-0.00685981
-0.00410791
-0.00113498
-0.00321638
-0.00545272
-0.0092404
-0.0135225
-0.0175808
-0.0210228
-0.0225697
-0.0241486
-0.023978
-0.0239083
-0.0232596
-0.0238457
-0.0242772
-0.0236846
-0.0208123
-0.0162427
-0.0107757
-0.00629781
-0.00350831
-0.00358497
-0.0053641
-0.00694127
-0.0111767
-0.0157866
-0.0198519
-0.0236997
-0.0247941
-0.0255009
-0.0230427
-0.0192143
-0.0163337
-0.0153223
-0.0147019
-0.0137439
-0.0117077
-0.00886547
-0.00586296
-0.00341015
-0.00181309
-0.00677379
-0.00593499
-0.00770801
-0.0130631
-0.0178048
-0.0220488
-0.0246254
-0.026146
-0.0233171
-0.0179379
-0.0114089
-0.00916402
-0.00741662
-0.00789218
-0.00697683
-0.00612817
-0.00504564
-0.00370221
-0.00241619
-0.00129106
-0.00475167
-0.00388779
-0.0067518
-0.010695
-0.0149798
-0.0197724
-0.0219859
-0.0284512
-0.0266285
-0.0258472
-0.0145837
-0.0095552
-0.00869483
-0.0101866
-0.00765362
-0.00738093
-0.00680731
-0.005388
-0.00366894
-0.00199676
-0.0128708
-0.00566592
-0.00838332
-0.0122459
-0.0163046
-0.0193766
-0.0213452
-0.027518
-0.0312992
-0.0350642
-0.0316038
-0.0212014
-0.010562
-0.00950159
-0.00619559
-0.00291427
-0.00251096
-0.00218831
-0.00169071
-0.000949844
-0.0183363
-0.0189279
-0.0123006
-0.0132064
-0.0158457
-0.0182193
-0.0207539
-0.0240537
-0.028853
-0.0367331
-0.0467804
-0.0500991
-0.0422915
-0.0257774
-0.00927896
-0.0039228
-0.00209555
-0.00127949
-0.000917577
-0.000573772
-0.016399
-0.0153884
-0.0128167
-0.0133353
-0.0151328
-0.0162331
-0.0177121
-0.019865
-0.023175
-0.0282499
-0.0380591
-0.0475729
-0.0451111
-0.043142
-0.0287773
-0.0100251
-0.00474676
-0.00206609
-0.00109104
-0.000583376
-0.0129408
-0.0101945
-0.0100071
-0.0117971
-0.0141006
-0.0148778
-0.0157384
-0.0168972
-0.0197701
-0.0256162
-0.0338691
-0.0405877
-0.0403633
-0.0393792
-0.029966
-0.0111784
-0.00712302
-0.00405268
-0.00234174
-0.0013518
-0.00420518
-0.00563037
-0.006478
-0.00903925
-0.0120944
-0.0156002
-0.0166349
-0.0197867
-0.0222905
-0.023639
-0.02516
-0.0274354
-0.0299592
-0.0315363
-0.0258704
-0.0224319
-0.0191798
-0.0165375
-0.0140608
-0.00893751
-0.0250595
-0.00781333
-0.00758225
-0.0101488
-0.0136074
-0.0183579
-0.021182
-0.0262667
-0.0290392
-0.033931
-0.0366756
-0.0413861
-0.0432469
-0.0449355
-0.0416274
-0.0374122
-0.0342989
-0.0325757
-0.0320826
-0.0265575
-0.0160537
-0.00522727
-0.00719569
-0.0135518
-0.0180809
-0.0221253
-0.0236523
-0.026976
-0.0297266
-0.0310394
-0.0332581
-0.0327508
-0.0333694
-0.0309814
-0.0286223
-0.0250404
-0.0222279
-0.0191206
-0.0167586
-0.012877
-0.0029585
-0.00360611
-0.00610764
-0.014447
-0.0203324
-0.023873
-0.0255084
-0.0277437
-0.028665
-0.0287692
-0.0280837
-0.0261475
-0.0241943
-0.0213672
-0.0187957
-0.0161523
-0.0141423
-0.0127105
-0.0121717
-0.0124561
-0.00223639
-0.00510442
-0.00989782
-0.0169005
-0.0222062
-0.0260557
-0.0294153
-0.0335002
-0.0353347
-0.0389312
-0.039375
-0.0411682
-0.0395438
-0.0378761
-0.0333705
-0.0284107
-0.0227688
-0.0183536
-0.0164023
-0.0171668
-0.00412641
-0.00624113
-0.0108122
-0.0165838
-0.022301
-0.0271725
-0.0314125
-0.0363902
-0.0406336
-0.0459837
-0.0502772
-0.0546315
-0.0575022
-0.0581653
-0.0552233
-0.0485037
-0.0387387
-0.0284119
-0.0211948
-0.0177827
-0.0114597
-0.0104905
-0.00928282
-0.0126858
-0.0196348
-0.0261813
-0.0312905
-0.03529
-0.0398158
-0.0445055
-0.0506297
-0.0573277
-0.0651769
-0.0719224
-0.0762108
-0.0745352
-0.0659012
-0.0511379
-0.0345354
-0.0203933
-0.0206132
-0.0177125
-0.00973855
-0.00718701
-0.0105405
-0.0166282
-0.0208928
-0.0235255
-0.0268088
-0.0310515
-0.0376393
-0.0470134
-0.0601288
-0.0758446
-0.0922154
-0.103179
-0.102731
-0.088558
-0.0657204
-0.0431334
-0.0283323
-0.0302402
-0.0324362
-0.0288382
-0.0339929
-0.0215709
-0.0239119
-0.0323257
-0.0337341
-0.0369631
-0.0366606
-0.0458133
-0.0249454
-0.0286503
-0.0368168
-0.0267833
-0.0226866
-0.0216715
-0.0235829
-0.0187097
-0.0197479
-0.0417273
-0.0221877
-0.0232979
-0.0244879
-0.0276488
-0.0206187
-0.0253241
-0.118404
-0.0928001
-0.100507
-0.101545
-0.116373
-0.0885863
-0.0980778
-0.142756
-0.105017
-0.122756
-0.121582
-0.140033
-0.101373
-0.116272
-0.170366
-0.128593
-0.139964
-0.148973
-0.163569
-0.123201
-0.13382
-0.179946
-0.140456
-0.132579
-0.164319
-0.160891
-0.131498
-0.110268
-0.17729
-0.12827
-0.114853
-0.159843
-0.154142
-0.100754
-0.0764482
-0.14553
-0.110962
-0.102515
-0.149972
-0.129228
-0.0717921
-0.0726956
-0.0882313
-0.0998851
-0.0883617
-0.115749
-0.0722571
-0.0762551
-0.0793405
-0.0533188
-0.0832614
-0.0662174
-0.0608442
-0.0407564
-0.0771349
-0.0645868
-0.101711
-0.103847
-0.10875
-0.0939508
-0.0985608
-0.102021
-0.106464
-0.119163
-0.11078
-0.114772
-0.101192
-0.113732
-0.108134
-0.113743
-0.130681
-0.11492
-0.111602
-0.118875
-0.126655
-0.115012
-0.114319
-0.123274
-0.109414
-0.101347
-0.125128
-0.110206
-0.112773
-0.106276
-0.106791
-0.0985684
-0.0919735
-0.103034
-0.0790572
-0.103936
-0.0973311
-0.0937825
-0.0905384
-0.0868683
-0.0719558
-0.0621133
-0.0952135
-0.0888198
-0.0849358
-0.0854379
-0.080695
-0.0631698
-0.0699312
-0.0866009
-0.079672
-0.0696866
-0.0790681
-0.0745184
-0.0704861
-0.0651027
-0.0775134
-0.0733761
-0.113265
-0.124247
-0.116747
-0.112825
-0.111389
-0.122313
-0.117874
-0.114405
-0.113774
-0.105879
-0.111989
-0.114765
-0.116032
-0.109981
-0.106792
-0.103388
-0.096627
-0.115109
-0.111821
-0.10713
-0.0955068
-0.0949242
-0.0947307
-0.0907868
-0.109552
-0.101668
-0.0910415
-0.0794716
-0.0881993
-0.0904692
-0.0951387
-0.0991513
-0.0934187
-0.0767194
-0.0681991
-0.0879258
-0.0983476
-0.106292
-0.0921674
-0.0896628
-0.0638702
-0.0505229
-0.0852812
-0.107154
-0.105923
-0.0889254
-0.0859315
-0.0476337
-0.047076
-0.0783917
-0.104104
-0.0958826
-0.0845541
-0.0798418
-0.0488185
-0.0594281
-0.116034
-0.129407
-0.120828
-0.121092
-0.11417
-0.124544
-0.113838
-0.103761
-0.117935
-0.109983
-0.111285
-0.101364
-0.109067
-0.0967027
-0.0951557
-0.107587
-0.102532
-0.0973657
-0.0840374
-0.0933144
-0.0833518
-0.0915919
-0.10245
-0.10969
-0.079648
-0.0705216
-0.0813237
-0.0806296
-0.100753
-0.114334
-0.131031
-0.0686029
-0.0585512
-0.0807977
-0.0759832
-0.112523
-0.136729
-0.146176
-0.0538413
-0.0431158
-0.0736737
-0.068633
-0.109075
-0.145534
-0.130563
-0.0416976
-0.0440851
-0.0678792
-0.0709161
-0.0943028
-0.120542
-0.0967489
-0.0461362
-0.0550821
-0.0730711
-0.0779127
-0.0575577
-0.0397214
-0.0715003
-0.0348245
-0.047467
-0.038689
-0.0559418
-0.0958594
-0.0818857
-0.0990877
-0.0525174
-0.0596627
-0.0614958
-0.0600819
-0.0909103
-0.0990628
-0.0813797
-0.0611384
-0.063302
-0.0547469
-0.0410131
-0.0909097
-0.0731709
-0.0528513
-0.0657786
-0.072801
-0.0381915
-0.0342746
-0.105126
-0.0481578
-0.040948
-0.0740828
-0.0756329
-0.0342503
-0.037017
-0.0982015
-0.0412717
-0.054298
-0.0747878
-0.0689268
-0.0386453
-0.0457736
-0.0620616
-0.0609963
-0.0707805
-0.0645952
-0.0492762
-0.0487236
-0.0550625
-0.0387395
-0.0701904
-0.0610336
-0.0436785
-0.0320589
-0.0554191
-0.0510591
-0.0765896
-0.0700282
-0.0886618
-0.0456679
-0.0584766
-0.0542062
-0.0601291
-0.0977616
-0.0922224
-0.0939404
-0.0627158
-0.0585686
-0.0601725
-0.0507406
-0.0841505
-0.0920461
-0.0867301
-0.0529657
-0.0385058
-0.0460837
-0.037364
-0.0605781
-0.0863461
-0.0863945
-0.0354446
-0.0306561
-0.0370056
-0.0397781
-0.0418917
-0.0866077
-0.0856518
-0.0301916
-0.0313792
-0.0415467
-0.0460544
-0.0416412
-0.0846084
-0.080124
-0.0324638
-0.0373635
-0.0468416
-0.0474542
-0.059588
-0.0782999
-0.0724778
-0.0396154
-0.0467369
-0.0472372
-0.0469509
-0.0601189
-0.0707822
-0.0688532
-0.0483975
-0.0489902
-0.0472564
-0.0512299
-0.093147
-0.0847069
-0.0949724
-0.05984
-0.0609589
-0.0612691
-0.0589141
-0.0957123
-0.095358
-0.0892012
-0.0602289
-0.0512544
-0.0573715
-0.0493602
-0.08928
-0.0843114
-0.0621916
-0.0472654
-0.0406953
-0.0457839
-0.0349206
-0.0874319
-0.0538552
-0.0353685
-0.040792
-0.0455294
-0.0317619
-0.0252045
-0.0857125
-0.0321596
-0.0269217
-0.0475628
-0.0520751
-0.0240871
-0.0238709
-0.084318
-0.0261538
-0.0278267
-0.0530063
-0.0548344
-0.0246846
-0.0288985
-0.08148
-0.0291596
-0.0353993
-0.0550639
-0.0556231
-0.0306595
-0.0364513
-0.0767889
-0.0382471
-0.0518101
-0.0560802
-0.0587314
-0.0386299
-0.0473877
-0.0789665
-0.0422468
-0.0353649
-0.0499305
-0.0496896
-0.0295513
-0.0230867
-0.0672262
-0.0305608
-0.0213682
-0.0481259
-0.0399428
-0.0211873
-0.0166956
-0.0384927
-0.0197993
-0.0181628
-0.0364519
-0.0265197
-0.015889
-0.0156449
-0.0212904
-0.0188533
-0.0240305
-0.023909
-0.0194969
-0.0164021
-0.0205565
-0.0213222
-0.026321
-0.0330299
-0.019162
-0.0210518
-0.0223206
-0.0289243
-0.0269564
-0.035227
-0.0417683
-0.0225032
-0.028313
-0.0317703
-0.0410926
-0.0352802
-0.0441421
-0.0533039
-0.0304269
-0.0365016
-0.0440757
-0.0519853
-0.049075
-0.0572031
-0.067787
-0.0386232
-0.0466883
-0.0543487
-0.0602394
-0.0352259
-0.0292816
-0.0489258
-0.0227193
-0.0273571
-0.0264306
-0.032148
-0.0474346
-0.0539339
-0.0494692
-0.029992
-0.0398446
-0.0325092
-0.0301876
-0.0540967
-0.0446923
-0.0346055
-0.0451161
-0.0559344
-0.0301608
-0.0328234
-0.0639472
-0.0330841
-0.0330123
-0.0592645
-0.0642752
-0.0343804
-0.0414805
-0.0664588
-0.0340949
-0.0390571
-0.0638798
-0.0613939
-0.0444494
-0.0524518
-0.0604991
-0.040924
-0.0468804
-0.058935
-0.050141
-0.0541172
-0.0555473
-0.04459
-0.0489556
-0.0531619
-0.0455305
-0.0303031
-0.0553233
-0.0531683
-0.0294905
-0.0532085
-0.0489489
-0.026718
-0.0226213
-0.0517097
-0.0424912
-0.0505969
-0.0394623
-0.0489676
-0.0275388
-0.0316304
-0.0275105
-0.0267626
-0.0479941
-0.0491165
-0.0405701
-0.0315846
-0.0280513
-0.0258232
-0.0222445
-0.0321385
-0.0367978
-0.0304912
-0.0273745
-0.0279663
-0.0214248
-0.0208443
-0.0249922
-0.0290296
-0.028663
-0.0277429
-0.0275724
-0.0275443
-0.0253763
-0.0268694
-0.0295702
-0.0269228
-0.0298485
-0.0272769
-0.031489
-0.0259473
-0.0393379
-0.0376796
-0.0387298
-0.0483907
-0.0520486
-0.0305607
-0.0378459
-0.0463047
-0.0389039
-0.040399
-0.0521276
-0.0508691
-0.0399567
-0.0427055
-0.047357
-0.041322
-0.0464317
-0.0500435
-0.0464521
-0.0428675
-0.0438705
-0.0489615
-0.0430907
-0.0470344
-0.0277903
-0.0259903
-0.0274312
-0.0251444
-0.0407964
-0.0462387
-0.0400173
-0.025007
-0.0217109
-0.024272
-0.0214302
-0.032953
-0.0371943
-0.0289959
-0.0209862
-0.0207367
-0.0205463
-0.0188485
-0.0290834
-0.0340405
-0.034538
-0.0269591
-0.0346979
-0.0290593
-0.0285038
-0.0324079
-0.0397572
-0.0362682
-0.0352548
-0.0368493
-0.0368745
-0.0316259
-0.0441381
-0.02445
-0.0291927
-0.0291259
-0.0352164
-0.0277527
-0.0372244
-0.0458495
-0.0309464
-0.0360975
-0.0375819
-0.0413381
-0.0404431
-0.0463717
-0.0517461
-0.0379408
-0.0454312
-0.0417973
-0.0441389
-0.0470807
-0.048555
-0.0393652
-0.0184409
-0.0170287
-0.0228369
-0.0223377
-0.014958
-0.0137502
-0.0327288
-0.0161135
-0.0138091
-0.0216574
-0.019095
-0.0134046
-0.0130941
-0.022376
-0.0134651
-0.014066
-0.0182709
-0.0168268
-0.0133738
-0.0156891
-0.0179209
-0.0149658
-0.0195822
-0.01684
-0.0188499
-0.0171291
-0.0234565
-0.0214191
-0.0216593
-0.0297292
-0.0203075
-0.0274082
-0.0262151
-0.0361442
-0.0300477
-0.0330678
-0.043245
-0.0306094
-0.0410549
-0.0397935
-0.0498449
-0.0381146
-0.0462764
-0.0536856
-0.0441737
-0.0501546
-0.0526593
-0.0589983
-0.0466439
-0.055694
-0.0603564
-0.0511104
-0.0525239
-0.0604098
-0.0629339
-0.0250422
-0.0220092
-0.0275152
-0.0202081
-0.0249532
-0.020377
-0.0235558
-0.0382504
-0.0279718
-0.028621
-0.0291862
-0.0392707
-0.0248889
-0.0301583
-0.0505187
-0.0295968
-0.0342394
-0.0420053
-0.0467298
-0.0320691
-0.0383699
-0.0579437
-0.0363861
-0.0451061
-0.0485041
-0.0497052