/*--------------------------------*- C++ -*----------------------------------*\
  =========                 |
  \\      /  F ield         | OpenFOAM: The Open Source CFD Toolbox
   \\    /   O peration     | Website:  https://openfoam.org
    \\  /    A nd           | Version:  10
     \\/     M anipulation  |
\*---------------------------------------------------------------------------*/
FoamFile
{
    format      ascii;
    class       volScalarField;
    location    "9.9";
    object      k;
}
// * * * * * * * * * * * * * * * * * * * * * * * * * * * * * * * * * * * * * //

dimensions      [0 2 -2 0 0 0 0];

internalField   nonuniform List<scalar> 
12920
(
950.495
1804.28
1652.49
1326.47
890.105
664.286
534.61
454.078
347.85
249.379
184.322
148.806
127.266
112.612
103.587
96.6492
93.1358
90.0386
88.3004
83.127
843.581
1503.53
1509.73
1530.49
1330.56
1161.89
885.582
684.964
487.821
325.675
224.735
183.764
168.76
164.081
163.009
163.671
165.978
167.697
170.461
170.29
222.194
622.908
1041.22
1170.23
997.621
660.318
424.11
322.111
246.225
214.737
187.857
179.472
172.027
169.663
168.343
165.482
164.133
160.497
158.858
154.052
427.39
1118.29
1154.51
1023.21
702.194
485.819
350.023
274.602
216.639
186.403
164.381
153.943
144.729
139.274
135.528
131.071
128.622
125.072
123.952
120.823
3522.28
2184.26
1514.64
1046.05
837.583
662.371
575.77
451.711
358.61
268.306
211.996
170.847
143.335
130.534
122.573
116.771
113.887
111.401
110.762
109.102
2048.4
1510.34
1550.96
1395.42
1110.31
998.049
876.827
843.045
770.665
611.098
410.11
254.074
165.645
128.797
113.848
106.014
102.07
100.701
100.917
101.294
46.1615
794.003
1240.85
1171.06
1004.25
943.197
848.131
788.904
699.396
589.655
436.886
272.72
171.414
129.866
112.848
102.698
96.1615
91.8429
90.5194
90.1493
66.147
743.962
1603.17
1649.17
1288.79
1039.28
613.922
459.561
423.139
361.89
311.772
238.685
123.559
86.5119
153.023
131.495
113.97
98.4136
92.0255
85.0979
154.084
1020.06
1339.12
1430.21
1204.99
622.123
314.394
203.123
258.426
276.069
253.875
227.982
113.791
78.3649
114.146
159.037
135.029
113.694
101.973
87.6251
124.352
2118.39
1961.48
1450.56
1065.99
532.102
253.7
189.798
205.516
208.079
183.803
120.827
68.3168
61.3774
111.936
143.089
130.612
120.769
112.305
94.1937
220.378
1704.08
1782.35
1603.08
1125.61
562.344
230.598
136.384
149.456
139.299
105.115
82.2412
77.5043
75.2636
126.456
183.231
156.288
138.282
125.697
99.9351
1470.53
2400.24
2069
1383.74
900.345
440.681
214.501
131.079
122.638
148.915
160.479
97.4951
84.3463
86.9862
154.101
202.282
174.883
141.164
113.689
89.4476
3056.82
2090.57
1772.28
1348.62
958.255
731.042
404.194
251.688
209.072
168.826
129.183
112.975
113.645
112.959
169.185
144.797
122.7
102.502
89.3086
79.8313
5670.67
4482.02
2179.68
1100.42
816.747
658.192
475.794
359.503
277.114
234.573
206.27
185.866
165.325
145.149
127.184
112.269
101.944
94.3915
91.0188
83.8507
1806.76
1527.37
1196.3
1002.65
886.178
736.774
541.734
450.681
368.193
316.451
261.47
221.383
187.748
159.322
135.861
119.225
108.914
104.165
102.888
98.707
111.986
408.439
934.492
1082.37
1049.13
946.554
706.779
569.778
454.18
374.744
299.11
246.92
207.727
180.532
156.902
140.357
128.863
120.377
117.482
110.927
764.421
1433.04
1618.74
1513.74
1174.08
901.208
651.775
520.995
410.322
329.279
259.231
212.411
181.349
162.059
147.139
136.668
130.334
123.446
120.297
112.379
2741.02
2663.22
1452.91
1195.31
966.264
793.64
608.823
493.854
379.185
291.878
227.161
189.994
166.754
150.96
137.877
127.58
121.745
115.949
113.661
108.425
904.765
1333.77
1107.75
831.953
720.812
631.338
499.041
397.129
306.555
250.187
209.737
190.306
173.488
156.567
139.91
125.101
114.073
106.215
103.975
102.503
611.302
805.489
678.356
496.532
436.69
406.013
343.763
280.37
223.178
181.498
155.202
139.187
128.03
116.22
104.751
92.7014
84.2302
72.6063
64.5841
52.6952
157.788
2964.31
3029.71
2345.75
1657.06
1304.96
996.503
754.983
519.765
388.894
325.793
295.664
265.855
239.856
217.586
202.328
194.243
190.679
189.973
184.923
1722.85
5024.99
3804.72
3392.31
2544.72
2224.44
1740.87
1443.09
898.106
616.204
508.669
494.369
480.135
474.346
470.208
471.834
477.468
482.256
485.155
485.194
566.191
1725.27
2224.56
2759.29
1947.28
1465.3
949.142
817.581
648.072
592.427
537.308
520.238
501.104
489.621
481.614
471.474
467.991
459.435
456.421
448.806
879.639
2845.17
3009.54
2581.75
1673.87
1242.85
900.861
728.512
585.578
523.317
464.779
445.851
427.093
416.539
404.472
389.698
380.989
371.118
367.299
359.122
8182.15
7317.33
4211.44
2782.37
2286.45
1802.33
1468.71
1164.29
900.137
677.316
502.892
435.634
393.375
379.897
361.812
345.677
338.141
332.976
331.708
327.629
1772.87
3168.09
3187.23
3253.83
2903.03
2647.66
2208.19
2065.68
1769.14
1369.95
827.808
493.38
381.193
341.205
317.11
301.438
293.973
293.758
295.887
299.972
536.124
2610.57
3320.15
3044.41
2603.64
2454.32
2139.07
2010.49
1777.38
1496.86
1023.9
581.32
389.063
324.159
297.028
278.02
265.889
261.586
262.224
266.69
625.538
3121.93
4954.13
4640.98
3265.09
2573.86
2054.87
1861.13
1677.47
1503.87
1284.19
870.454
468.437
363.839
340.237
299.494
272.171
255.408
249.166
245.092
5936.28
5114.54
4653.46
4055.16
2811.83
2078.55
1637.35
1504.48
1479.79
1421.97
1339.32
1122.68
772.019
395.348
350.019
333.94
297.46
271.089
259.33
244.273
512.926
4928.45
4841.32
3598.36
2500.07
1785.25
1345.93
1163.45
1078.33
1014.52
858.16
587.35
403.165
363.38
347.517
328.447
316.118
300.033
283.235
261.421
1037.45
4264.44
4232.69
3552.94
2469.97
1782.94
1184.39
919.508
793.289
673.751
517.789
432.739
375.598
334.713
348.789
383.584
370.664
353.209
316.32
270.648
8782.17
5562.29
4481.78
2965.58
1990.92
1456.93
1122.09
940.121
841.863
804.825
722.211
538.604
480.209
453.817
443.598
422.842
389.272
329.278
276.109
242.741
5732.53
5272.79
4427.59
3019.71
2174.38
1708.2
1244.43
979.114
815.154
673.329
548.975
486.888
455.187
417.483
388.368
343.127
298.323
262.193
241.147
228.379
13914.6
5595.67
2537.87
2411.68
1984.72
1654.38
1199.89
937.787
746.231
635.044
558.404
501.522
443.014
387.269
344.151
308.242
281.234
263.117
253.773
240.326
14653.1
5856.73
2723.16
2653.74
2099.36
1860.75
1377.77
1195.47
958.848
817.31
682.078
587.644
502.035
428.329
369.672
332.49
310.665
298.379
293.366
280.251
3436.07
2610.79
3205.46
3199.09
2851.76
2400.82
1798.82
1457.68
1149.29
947.278
771.299
651.821
557.987
487.991
429.313
390.136
365.309
346.826
339.117
321.228
3740.14
3554.17
3976.68
3775.97
2896.92
2215.77
1613.96
1316.55
1030.07
844.858
678.494
574.503
500.981
450.434
411.179
384.829
369.447
355.87
349.023
331.264
5200.73
6332.08
3711.93
2873.05
2169.63
1886.29
1441.55
1200.13
916.968
739.845
599.686
523.159
469.516
429.993
395.916
369.817
353.329
341.313
337.227
327.93
5066.61
4058.25
2932.11
2237.11
1529.02
1319.09
992.216
840.233
683.471
622.812
562.762
534.73
495.361
460.356
418.955
380.242
348.885
325.6
318.147
315.597
921.481
1358.93
1261.51
1206.69
1042.94
910.395
730.926
570.92
433.865
358.282
320.962
304.396
287.888
268.071
245.523
222.006
202.527
177.59
152.825
122.093
2439.97
4389.92
3396.51
2441.94
1684.56
1236.45
932.531
695.536
521.215
453.308
416.467
389.765
354.434
320.003
292.234
269.433
254.211
238.465
232.885
220.387
7853.76
9453.71
5452.03
3931.64
2768.62
2307.53
1695.46
1423.13
1038.47
914.451
812.196
785.513
745.847
730.419
721.342
724.185
732.227
735.178
729.463
712.403
4265.72
5099.9
4019.91
3699.68
2383.19
1734.81
1220.67
1045.4
890.75
839.762
786.684
767.566
740.229
724.529
711.327
697.678
690.289
676.106
669.474
654.58
16344.3
6657.43
4665.07
3375.16
2314.41
1606.66
1209.25
976.838
838.71
773.972
714.936
686.138
652.733
627.497
605.731
583.863
568.913
554.135
546.28
534.115
25741.9
13369.9
5960.69
3779.9
3107.31
2281.06
1768.29
1340.59
1033.27
855.881
721.019
662.71
605.757
570.336
539.067
516.605
504.007
494.795
490.256
483.096
5025.87
5931.62
5075.75
4686.47
3907.63
3333.43
2604.14
2197.11
1697.09
1258.04
883.511
689.976
584.954
520.207
478.498
455.743
445.152
442.506
443.135
444.765
4210.31
5239.57
5510.11
4618.2
3806.96
3261.94
2677.36
2342.15
1932.1
1538.07
1086.93
747.098
574.951
485.674
439.098
413.307
399.911
397.623
399.063
403.541
13953.2
9582.77
7784.85
6468.31
4433.31
3411.96
2784.03
2463
2102.54
1924.93
1679.89
1238.69
738.657
524.39
450.113
407.471
385.727
376.295
374.383
373.046
11098.8
7811.78
7394.25
5715.49
3686.33
2916.53
2429.45
2128.68
1940.92
1838.58
1750.9
1497.42
930.444
569.439
473.936
435.739
397.747
380.348
374.252
365.372
1479.98
6851.67
6864.67
4842.44
3218.73
2465.14
1952.91
1596.55
1391.19
1246.47
997.3
734.094
609.828
538.885
488.883
463.42
437.988
411.063
397.539
377.287
7870.8
6718.25
5963.45
4400.13
3052.05
2356.46
1699.13
1316.23
1086.41
911.604
537.892
460.949
429.829
435.711
480.751
531.956
509.024
461.032
421.147
381.856
16270.9
7199.82
5554.04
3589.53
2593.7
2045.8
1690.57
1388.94
1199.59
1065.51
901.651
761.341
690.005
632.654
590.179
546.684
493.29
430.852
387.319
363.205
3918.98
8306.09
6329.68
3857.37
2817.9
2199.78
1721.99
1356.16
1113.21
945.298
810.751
726.145
652.623
580.592
511.082
452.876
405.964
374.171
357.104
350.688
12147.5
8538.03
4512.58
3421.88
2698.76
2229.15
1635.04
1296.1
1073.43
921.723
808.957
713.833
622.803
543.634
481.693
434.439
401.604
381.104
369.199
358.682
31188.3
7316.93
4748.66
4036.11
3095.52
2664.65
1924.69
1598.99
1270.72
1072.86
902.572
778.917
672.534
586.693
521.545
476.89
447.791
428.622
418.746
397.999
10053.2
6085.36
5469.89
4950.2
3948.48
3190.38
2312.67
1833.65
1440.19
1190.66
985.739
844.571
732.775
648.713
584.43
541.357
510.777
487.474
475.722
449.902
8485.66
6282
5689.22
5005.63
3709.9
2775.65
2036.25
1667.06
1332.45
1109.39
917.657
791.043
696.284
630.446
582.346
550.147
528.148
509.62
499.398
476.71
8575.52
6282.47
4957.94
3685.33
2791.32
2286.56
1763.57
1481.29
1187.31
1004.93
847.925
753.28
674.739
620.911
578.401
549.433
529.724
515.265
508.557
494.247
8644.44
5849.91
4024.59
3337.12
2243.48
1795.05
1314.42
1136.63
955.554
883.866
795.475
744.369
684.174
640.453
594.11
555.618
525.031
501.911
493.31
483.829
2125.3
1422.21
1429.89
1409.38
1274.46
1060.34
829.677
639.323
502.774
426.373
381.085
348.598
319.909
292.425
267.676
239.785
213.644
184.848
166.302
145.45
4337.77
5645.76
3524.88
2152.6
1445.88
969.415
742.323
596.339
514.857
480.943
447.556
414.967
378.017
342.289
318.999
297.264
284.681
264.4
254.506
231.264
16246.5
19406.5
7797.42
4084.97
2904.74
2100.65
1659.35
1433.25
1246.08
1209.57
1140.51
1123.06
1081.43
1066.38
1050.42
1050.66
1054.43
1051.05
1036.52
1004.47
21614.5
10103
6139.1
3952.9
2690.62
1805.77
1466.3
1228.8
1146.16
1082.44
1058.61
1037.7
1020.63
1005.62
993.263
975.348
963.792
941.484
929.412
905.343
13571.4
8036.29
6000.86
3871.32
2820.21
1794.52
1485.3
1179.3
1097.54
1009.34
971.092
935.046
903.276
868.753
843.094
812.804
793.394
772.634
760.22
746.901
25491.1
16375.4
7686.95
4500.22
3776.03
2407.23
1940.47
1397.86
1199.09
1032.77
948.917
883.312
831.226
784.921
751.741
723.976
708.691
695.091
686.819
679.613
8611.22
7891.75
6957.35
5540.08
4730.19
3512.98
2737.45
2043.86
1580.51
1214.96
1001.11
873.599
787.375
718.961
676.23
648.27
636.672
631.425
630.546
632.09
5366.48
6530.49
7271.17
5669.72
4796.98
3608.47
2926.53
2289.82
1827.95
1392.06
1081.74
869.042
747.352
663.202
617.067
590.729
580.267
579.11
580.49
584.668
7195.49
8516.41
9976.17
7658.19
5400.01
3889.69
3215.69
2678.14
2160.44
1890.39
1546.25
1132.71
836.652
659.017
601.45
566.042
553.344
549.253
548.858
547.48
12652.2
10881.5
10026.5
6641.18
4389.98
3509.28
2939.19
2452.41
2091.57
1910.4
1686.83
1308.75
898.983
705.092
616.399
583.533
555.806
547.902
544.138
535.409
10327.5
10931.1
9063.25
5480.83
3759.14
2890.78
2328.64
1859.39
1543.47
1294.17
1023
858.588
782.563
716.762
660.283
640.411
603.045
577.409
565.785
544.665
11378.1
9523.04
7413.68
4764.72
3498.91
2687.66
2029.41
1597.69
1302.17
1094.68
833.268
670.775
638.987
654.644
691.706
722.565
664.838
608.528
577.247
546.995
16679.3
8871.48
6466.19
4012.5
3139
2466.24
2076.85
1700.03
1430.28
1233.85
1059.42
949.856
876.128
814.496
761.228
697.213
628.611
576.522
549.401
537.669
12331.4
13692.9
8398.95
4664.96
3551.65
2644.7
2103.17
1619.27
1355.85
1174.13
1038.21
933.516
832.684
739.723
654.155
591.487
552.722
530.919
522.76
525.821
12268.8
11142.9
6738.74
4209.03
3523.73
2662.88
2016.66
1599.47
1376.9
1179.58
1049.9
916.966
807.535
711.9
642.502
590.216
557.763
538.75
527.966
525.104
14522.5
7622.29
6730.13
4731.24
4058.28
3121.31
2371.4
1911.31
1564.15
1310.55
1127.35
975.46
859.686
765.157
698.267
649.614
617.617
595.069
580.007
559.894
22208.5
10210.8
8104.4
6124.3
4883.31
3578.41
2689.86
2110.56
1728.08
1423.53
1216.68
1048.65
933.269
838.156
775.726
728.543
695.749
669.082
651.915
623.19
11745.3
9611.04
7971.99
5603.81
4313.51
3031.96
2396.89
1978.06
1655.68
1371.64
1171.14
1018.21
917.528
839.542
790.772
754.245
729.944
708.656
694.064
671.185
9232.27
7338.25
6191.53
3995.05
3262.63
2514.78
2094.27
1788.88
1520.34
1293.59
1124.21
1000.43
912.294
847.768
804.487
774.627
755.262
739.605
729.243
713.537
7162.26
6809.74
4756.71
3238.34
2421.6
1929.45
1536.31
1403.6
1245.65
1161.5
1055.89
973.289
900.708
846.035
798.758
763.545
740.645
723.169
715.79
704.913
819.459
1211.41
1421.01
1369.82
1234.03
999.279
784.493
616.939
510.271
439.313
386.981
338.872
300.06
265.216
238.758
213.376
195.678
177.849
170.057
157.662
6060.42
7971.51
3460.53
1690.54
1140.74
748.576
624.827
538.123
490.584
453.184
419.372
385.375
356.077
329.444
306.128
276.484
249.766
222.597
209.252
190.15
51379.7
33290.3
12010
4868.22
3327.13
2028.99
1834.5
1460.37
1527.72
1413.02
1487.65
1437.01
1459.15
1424.18
1410.43
1371.24
1366.29
1350.78
1338.29
1298.43
23565.2
13445.7
7959.13
4561.33
3251.34
2019.42
1804.38
1410.1
1419.75
1266.8
1321.84
1255.42
1291.09
1253.04
1257.31
1222.97
1212.57
1176.44
1161.34
1132.21
11226.1
9730.12
7428.72
4854.73
3392.35
2118.71
1806.49
1398.8
1358.62
1197.5
1214.22
1142.41
1149.26
1091.42
1077.31
1031.12
1016.09
985.87
972.788
963.171
18003.3
12731
8824.02
5689.13
4463.29
2558.42
2204.83
1467.86
1419.28
1172.24
1171.89
1066.33
1064.59
993.1
981.315
940.037
932.181
909.852
901.854
897.533
35988.2
9922.66
8562.56
6071.01
5519.29
3393.91
2863.76
1812.97
1586.57
1226.3
1161.38
1037.59
1008.88
931.707
903.921
868.497
861.049
850.578
848.57
853.012
15949.7
9099.04
9184.64
6366.94
5747.01
3586.46
3122.14
2041.44
1742.73
1256.29
1147.62
980.251
950.187
868.369
849.963
813.602
812.435
806.041
807.098
811.691
14046.6
11825.4
12474.5
7968.82
6279.43
3941.86
3440.55
2588.41
2064.37
1622.34
1346.49
1147.08
1030
908.485
833.097
800.372
786.288
780.534
778.205
776.906
17523.6
12496.5
11844.7
6866.58
5059.05
3797.48
3283.77
2583.02
2095.53
1741.36
1434.57
1228.38
1107.99
999.213
916.286
808.747
790.185
777.075
774.323
765.006
29803.4
15598.7
11080.5
5906.29
4372.75
3156.78
2630.78
2098.02
1684.5
1348.07
1147.34
1080.87
1105.06
1079.32
986.208
865.688
827.218
805.252
795.988
774.479
51869.2
12798.8
8899.48
5194.04
4097.5
2930.53
2353.45
1904.31
1568.47
1308.77
1143.81
1023.94
1039.52
1082.52
1055.18
933.943
864.642
820.109
801.849
779.91
30270.2
11004.2
7481.15
4754.57
3804.82
2853.71
2496.54
2024.85
1701.26
1468.99
1315.04
1230.88
1210.2
1172.39
1077.75
887.742
820.523
788.786
780.749
782.817
38260.7
15939.4
9962.62
5179.92
4572.09
3096.75
2462.85
1854.94
1635.69
1430.74
1324.06
1202.49
1110.26
1004.32
852.676
791.602
764.587
757.904
758.496
778.177
13948.1
10742
8701.26
4763.51
4707.72
2943.09
2389.93
1833.6
1648.88
1386.95
1283.8
1103.76
1013.51
903.992
847.572
791.901
771.493
756.473
752.66
762.861
21855.9
10395.8
8178.25
5205.79
4998.91
3194.93
2811.94
2059.42
1826.36
1482.75
1342.94
1157.13
1061.49
960.122
906.563
859.383
834.171
811.599
792.807
784.213
27699.4
11848
9489.76
5998.61
5502
3446.44
3013.28
2206.59
1997.34
1579.62
1447.19
1231.68
1154.06
1040.92
1001.02
946.669
923.157
892.637
870.257
849.131
29312.6
13008.2
9496.09
5629.64
4844.3
2997.47
2778.97
2156.17
1985.06
1558.06
1429.41
1224.31
1158.03
1060.83
1030.74
987.477
970.235
946.055
928.129
914.316
26765
9402.4
7288.4
4293.99
3852.97
2614.17
2553.6
2025.06
1903.82
1526.09
1424.37
1235.05
1181.63
1092.75
1069.79
1033.44
1024.07
1004.78
991.458
981.569
15170.9
8886.83
6476.01
3015.9
2884.93
2030.4
2049.07
1732.91
1697.24
1466.19
1390.88
1221.66
1172.04
1094.44
1070.48
1040.68
1033.56
1020.14
1013.1
1005.16
1337.39
1704.81
1597.95
1239.03
994.562
787.199
645.453
540.68
458.311
377.896
312.124
259.804
227.871
205.26
191.97
179.758
172.79
163.181
158.924
149.703
1070.35
916.015
585.818
1288.11
1079.08
1039.04
761.429
789.736
525.905
469.014
1011.54
855.291
690.88
580.08
592.979
1016.45
895.171
1045.17
761.417
1150.89
1021.36
472.762
853.273
755.664
693.494
582.515
983.32
895.43
197.291
286.022
218.782
1297.37
1274.65
1183.42
1126.71
247.26
223.608
258.855
1274.28
1291.53
1110.16
1103.68
276.968
258.375
229.067
1290.81
1267.57
1098.75
1052.43
256.966
230.56
271.516
1255.94
1203.33
1048.86
1036.05
237.333
274.084
220.981
1175.56
1046.15
1010.15
850.674
133.184
177.036
97.6999
976.836
687.491
768.529
459.74
96.6312
81.7943
61.4417
617.503
372.344
387.923
313.021
50.2892
61.3661
54.9986
325.232
295.473
306.796
303.709
188.114
229.471
149.085
1088.64
1023.17
959.481
835.449
206.113
144.636
150.409
1000.75
963.762
797.762
723.42
199.12
153.402
149.65
950.935
911.224
705.137
637.133
201.227
141.719
107.287
904.406
826.078
605.036
483.533
140.57
94.6897
71.4274
774.095
592.086
443.438
366.394
77.4879
67.1071
63.2907
521.519
359.129
351.799
324.363
60.8179
63.9798
68.6373
336.447
310.528
317.612
295.904
56.2133
68.839
55.3434
306.731
303.853
287.989
273.596
141.298
231.707
140.251
947.747
814.477
923.301
808.778
146.063
128.238
123.282
777.863
707.383
774.005
709.23
146.213
129.791
145.673
690.006
623.796
699.369
677.226
113.683
148.444
145.166
594.003
491.105
669.719
610.85
85.8132
134.27
95.1356
460.5
397.915
575.085
461.986
77.8872
88.1361
83.9195
383.633
346.173
438.416
409.554
75.9682
84.6424
86.6646
335.212
306.342
404.457
391.849
57.3858
86.8953
76.8517
299.013
280.554
387.198
382.092
137.761
312.553
177.91
878.892
804.031
885.629
809.518
119.946
168.786
148.95
778.893
717.895
782.469
748.244
141.585
146.057
142.193
709.456
701.663
738.274
703.654
162.277
140.009
130.311
701.903
678.707
688.624
630.149
112.462
125.846
99.3232
650.344
506.028
600.301
490.373
84.424
90.6536
78.2817
464.385
416.213
454.43
397.755
86.434
78.2704
79.0707
410.152
398.364
389.393
373.749
78.2137
79.6355
64.2675
394.017
385.878
367.841
354.331
1515.67
1465.73
1312.36
2260.37
2050.72
1966.97
1711.17
1491.38
1282.91
1246.12
2010.2
1900.35
1653.02
1533.73
1435.14
1234.24
1185.01
1864.04
1781.02
1501.7
1426.92
1370.23
1178.55
1140.35
1769.26
1720.87
1408.33
1300.38
1200.16
1105.24
934.294
1688.54
1537.35
1242.05
1020.67
856.869
849.113
526.054
1448.85
1148.66
923.215
650.169
450.858
454.054
375.01
950.659
591.316
602.72
522.842
338.398
365.054
346.738
535.458
450.234
504.657
464
1199.1
1197.22
986.878
1827.87
1575.42
1616.86
1319.55
1097.46
937.964
834.721
1511.6
1371.68
1248.98
1083.74
1027.64
808.205
721.005
1335.01
1244.44
1038.42
907.58
915.3
685.671
545.318
1213.55
1055.07
868.729
620.128
660.323
501.562
421.365
984.348
769.982
563.721
487.888
425.411
406.553
374.379
706.483
585.994
477.405
450.303
370.404
364.881
336.123
565.513
514.088
441.844
420.353
345.398
327.414
303.137
499.851
463.313
415.875
404.485
966.796
1158.75
970.94
1595.89
1302.39
1581.87
1334.04
819.558
929.04
841.39
1234.53
1071.53
1278.05
1136.13
706.823
822.23
777.414
1025.74
895.3
1096.48
996.786
552.636
763.459
687.758
859.799
630.746
965.974
852.257
448.783
649.142
535.528
581.506
502.12
809.978
707.49
388.76
512.441
478.283
483.178
436.769
686.599
638.899
342.524
470.664
450.904
425.673
408.76
625.089
587.633
310.052
444.374
427.607
407.984
404.9
576.686
550.152
973.691
1169
1001.28
1576.53
1348.64
1615.86
1377.81
858.686
956.447
889.588
1297.63
1165.54
1303.92
1171.16
811.459
868.138
813.066
1129.79
1043
1129.64
1031.39
756.972
795.207
719.806
1016.79
910.754
1000.49
888.263
576.758
684.026
565.856
865.589
739.557
844.916
730.871
488.843
530.974
473.201
713.146
659.229
704.122
644.498
460.312
461.974
436.997
644.729
605.084
627.658
581.458
433.671
428.482
401.198
593.3
559.808
567.191
525.671
2180.66
2097.47
1809.8
2828.51
2481.91
2405.27
2046.91
1986.44
1743.17
1597.43
2391.86
2142.99
1954.89
1730.65
1850.16
1558.63
1469.31
2074.02
1945.26
1670.41
1519.4
1786.02
1444.26
1310.84
1921.39
1804.84
1468.51
1262.88
1593.08
1245.68
1009.23
1747.66
1516.49
1185.67
965.181
1138.72
914.535
682.477
1388.79
997.832
905.192
784.449
622.285
642.995
563.375
885.973
708.682
757.857
684.724
478.606
543.694
495.032
664.241
571.739
663.8
604.032
1668.41
1721.85
1405.24
2244.73
1894.66
1974.87
1626.69
1434.07
1329.3
1147.79
1800.96
1572.92
1537.15
1314.39
1284.23
1097.64
956.151
1511.45
1346.64
1252.45
1089.73
1040.73
1198.71
1071.93
1267.55
1014.48
1213.12
1100.57
784.583
923.316
810.303
1003
754.379
931.228
837.337
630.025
468.29
461.376
821.938
752.547
570.486
579.057
554.538
458.29
449.367
734.083
678.725
584.167
589.491
494.612
447.628
437.292
661.656
607.787
589.027
576.794
1389.25
1692.43
1429.28
1951.78
1616
1969.47
1681.51
1137
1368.86
1210.44
1529.79
1309.77
1606.25
1400.6
946.025
1165.49
1051.58
1248
1090.5
1342.63
1195.23
918.095
800.941
927.469
948.576
871.861
737.562
977.505
714.807
507.23
716.299
449.801
679.581
420.584
753.205
433.782
734.923
683.459
559.471
553.463
873.287
813.927
432.072
668.114
626.467
560.673
578.94
796.902
751.969
435.985
614.509
582.471
583.015
580.981
739.226
703.025
1445.31
1738.22
1474.08
1983.68
1699.12
2046.23
1714.21
1240.71
1391.87
1239.11
1625.47
1428.74
1610.22
1409.86
1097.26
1192.3
1083.02
1374.07
1233.63
1352.27
1220.66
947.212
1048.53
927.616
1189.86
1054.94
1177.31
1047.22
785.718
884.17
778.064
1014.06
921.285
1008.26
918.242
705.925
752.939
691.612
899.246
840.391
894.208
825.846
645.744
673.164
621.713
822.749
772.971
803.762
741.473
593.251
606.113
558.42
758.089
711.688
722.384
663.089
2556.83
2494.54
2113.38
3210.76
2712.35
2728.89
2299.02
2168.4
2013.17
1763.84
2562.3
2194.31
2175.35
1855.65
1944.1
1696.17
1520.71
2099.1
1866.22
1765.52
1515.74
1755.29
1460.67
1240.57
1791.35
1553.97
1435.94
1224.05
1433.69
1165.83
970.47
1481.58
1282.56
1172.75
1069.14
982.85
922.941
826.688
1214.68
1075.23
1051.64
1026.35
746.073
803.737
737.661
1037
942.567
1021.12
985.333
611.793
717.136
651.255
909.363
821.982
965.29
888.539
1959.8
2051.06
1695.6
2554.91
2151.16
2279.07
1914.75
1611.39
1602.51
1368.81
2033.89
1731.08
1814.37
1557.17
1358.55
1303.49
1131.99
1644.34
1401.54
1481.39
1281.45
1084.9
1084.36
876.863
1327.07
1146.47
1224.99
1086.69
886.763
815.645
692.649
1105.88
1026.98
1045.4
947.104
798.429
669.885
651.079
1014.12
1003.84
925.531
911.187
733.455
653.074
657.298
1006.38
989.598
923.641
954.563
656.74
656.643
636.53
973.471
901.732
953.481
916.948
1687.49
2058.56
1762.61
2267.11
1917.33
2345.42
2025.27
1367
1682.03
1462.18
1820.02
1567.3
1926.66
1672.09
1136.83
1400.82
1244.35
1493.45
1300.83
1603.67
1421.58
892.027
1197.65
1067.9
1247.38
1112.92
1368.82
1242.77
703.929
1031.36
945.504
1071.8
966.423
1211.27
1134.37
636.748
923.07
864.82
939.112
914.324
1114.96
1086.41
651.608
849.373
809.245
925.752
961.036
1086.08
1074.37
643.493
797.256
756.496
962.281
933.159
1064.61
1016.4
1780
2149.99
1787.32
2383.76
2039.24
2467.55
1990.69
1488.46
1676.89
1465.68
1938.96
1689.91
1867.54
1648.43
1280.41
1406.19
1271.27
1625.75
1453.96
1593.1
1450.19
1098.14
1225.76
1096.33
1401.63
1272.28
1401.6
1285.8
971.57
1058.85
972.264
1240.89
1167.67
1256.93
1180.93
892.575
947.796
877.479
1150.03
1117.79
1155.43
1088.53
829.164
854.766
790.933
1111.98
1083.53
1067.57
1006.23
763.478
771.06
705.68
1069.59
1011.22
983.486
909.883
2749.79
2805.36
2363.8
3595.03
2966.86
3126.7
2637.84
2196.59
2232.1
1890.09
2738.82
2317.11
2477.84
2071.29
1830.44
1792.36
1519.61
2192.45
1861.9
1954.11
1635.14
1499.83
1436.07
1238.81
1735.2
1526.58
1546.99
1382.1
1277.22
1196.99
1122.27
1473.36
1395.69
1354.48
1315.54
1135.6
1113.33
1114.36
1368.43
1328.53
1316.85
1350.93
1031.2
1115.88
1088.62
1311.93
1253.64
1356.89
1322.46
915.359
1068.03
985.698
1217.39
1147.67
1299.07
1202.68
2221.21
2362.02
1997.82
2944.43
2505.12
2677.39
2293.96
1777.96
1895.33
1631.29
2358.49
1983.16
2176.57
1882.02
1424.05
1551.71
1340.14
1872.39
1577.99
1793.12
1554.89
1181.29
1282.07
1152.3
1499.78
1354.32
1490.36
1359.45
1087.52
1115.52
1026.83
1327.83
1286
1325.51
1241.06
1094.5
1008.65
1012.86
1285.98
1335.28
1227.91
1269.38
1096.72
1034.89
1074.27
1352.14
1333.82
1304.65
1332.91
1000.88
1071.42
1023.1
1312.04
1221.79
1321.31
1245.28
2004.38
2453.61
2121.04
2661.68
2299.52
2781.5
2407.71
1645.72
2015.57
1751.79
2184.64
1899.42
2282.09
1993.3
1364.61
1681.49
1490.79
1814.24
1584.34
1916.83
1706.27
1181.23
1436.17
1312.43
1520.97
1389.13
1647.38
1519.17
1047.53
1282.93
1210.39
1353.91
1259.99
1489.48
1412.11
1018.73
1193.72
1180.98
1242.92
1277.35
1397.85
1414.75
1083.14
1187.35
1182.94
1312.32
1345.05
1428.61
1419.56
1042.05
1172.52
1117.09
1336.34
1271.25
1405.4
1329.4
2133.09
2577.88
2057.2
2822.99
2409.8
2865.26
2262.54
1766.91
1932.85
1719.8
2281.01
2002.4
2143.61
1932.95
1522.87
1666.65
1518.69
1931.3
1733.32
1883.5
1712.29
1344.01
1470.06
1361.74
1676.7
1551.68
1669.11
1564.96
1246.7
1335.98
1261.38
1523.51
1451.08
1547.16
1463.86
1211.64
1236.19
1173.38
1437.52
1440.88
1442.42
1384.03
1186.86
1154.36
1095.24
1443.83
1416.58
1370.47
1308.26
1108.28
1071.91
996.761
1399.57
1320.5
1283.9
1200.26
971.232
1140.47
875.099
1076.29
946.646
1149.32
899.942
918.245
960.245
813.844
951.625
887.287
996.963
782.7
814.094
716.392
685.076
468.468
795.983
731.34
577.51
1063.69
1280.24
1222.38
1147.91
1219.59
1125.03
1085.59
994.667
1077.57
1152
953.599
1151.62
925.63
1018.78
957.595
989.224
1069.49
954.548
1032.51
822.252
1003.93
861.884
535.754
855.445
852.552
783.234
638.025
925.904
741.885
855.136
673.03
808.324
708.889
866.81
709.413
647.68
660.672
485.45
413.368
623.835
679.305
380.061
624.271
586.58
469.486
426.67
600.801
615.581
394.875
817.28
1006.08
950.333
898.362
938.785
866.309
853.161
777.759
829.514
898.984
788.702
880.393
747.48
817.28
697.261
474.244
802.327
634.234
731.363
429.422
762.56
669.348
449.362
714.746
601.079
656.912
429.203
734.639
853.848
676.865
760.049
501.046
812.562
584.017
798.76
972.331
966.607
978.62
1062.58
925.37
1014.9
1021.93
927.814
838.712
937.985
936.467
881.735
884.521
979.561
972.479
990.897
953.777
1073.44
790.58
1026.99
1024.71
909.815
556.296
846.059
918.277
640.001
855.453
969.335
1018.81
1106.64
1107.79
1106.64
1061.52
1063.94
1064.81
974.868
978.088
980.641
1063.13
932.288
1020.72
1022.04
685.571
480.396
623.311
417.83
650.354
410.195
654.446
809.891
799.157
814.669
895.561
763.831
845.095
858.737
780.348
709.501
782.181
802.184
734.588
753.965
827.898
768.176
499.866
641.879
872.276
463.763
809.061
829.428
733.951
446.309
595.993
755.003
443.512
698.782
790.217
858.428
938.555
942.625
949.639
893.446
903.414
907.935
827.993
848.347
847.539
920.807
799.889
873.768
876.736
495.883
581.854
489.424
1116.03
1201.59
1108.18
1163.3
446.916
457.194
440.063
1226.15
1219.77
1176.67
1174.67
387.389
417.378
398.513
1192.01
1124.66
1150.32
1089.82
341.354
389.057
376.124
1052.62
939.549
1060.18
1011.09
284.131
348.145
306.23
813.94
665.267
901.756
749.299
178.06
260.08
226.974
477.947
307.827
600.701
481.235
91.875
186.45
135.337
242.171
242.44
359.506
288.229
68.7403
108.688
82.6613
241.728
252.793
253.583
268.93
481.832
581.092
472.167
1187.93
1131.54
1122.4
1073.15
530.482
228.175
298.145
525.408
552.051
500.052
244.518
671.28
215.604
222.69
653.555
686.562
634.216
233.75
776.117
267.522
276.363
752.904
765.308
759.376
285.433
729.747
271.876
278.797
776.903
764.582
756.289
268.594
746.254
248.79
286.515
705.03
683.269
745.487
291.957
586.603
210.439
261.279
578.762
515.95
662.639
230.308
270.42
111.504
116.596
240.801
227.199
330.428
103.434
156.703
69.0227
64.3793
154.967
146.449
158.426
62.1373
98.75
116.896
97.1485
261.29
274.082
262.444
272.578
423.402
529.927
401.361
1043.93
985.658
1031.12
933.577
466.321
209.163
249.777
451.915
487.757
440.485
204.744
494.727
194.533
174.339
543.476
555.774
493.134
174.843
487.757
201.51
180.095
568.512
558.777
494.021
178.979
442.603
213.167
173.501
561.407
564.966
466.041
163.679
301.827
168.949
120.9
495.567
456.802
336.046
109.612
201.968
103.256
85.8878
320.912
270.944
223.463
77.4437
156.372
62.8839
60.9134
180.241
166.881
161.224
59.708
161.192
63.4936
62.4198
159.943
163.158
159.205
64.2023
90.2932
107.395
82.0584
250.118
263.036
231.825
235.918
407.866
542.137
397.895
1058.49
927.501
1028.22
908.663
401.576
178.515
231.204
400.364
402.176
398.752
179.486
385.71
136.739
134.296
396.573
395.994
389.478
132.359
394.889
149.861
141.302
405.07
402.842
394.305
144.846
355.623
130.991
142.226
365.634
344.288
372.534
135.853
278.019
97.4259
111.784
279.697
260.96
296.697
103.528
228.892
79.7492
88.9259
218.86
210.551
236.929
86.6965
210.23
77.2453
83.441
197.116
194.041
213.745
82.9403
198.109
74.3343
81.0261
182.559
179.234
199.732
80.7216
99.8725
149.892
131.26
264.988
270.703
322.919
348.431
352.626
490.378
430.607
867.888
809.878
871.406
804.19
357.678
170.368
220.348
359.635
361.02
359.978
175.474
358.206
123.413
135.906
360.712
351.265
360.123
130.338
367.143
129.602
121.688
360.52
376.311
353.907
124.893
419.541
156.698
141.291
412.076
423.986
404.481
149.293
423.582
152.354
160.701
421.048
395.18
434.92
157.946
250.34
89.3078
106.663
265.757
244.121
283.346
93.7788
221.131
84.811
82.2613
225.68
226.147
221.165
82.2943
227.918
87.4907
85.2404
228.946
229.404
226.915
86.3166
130.785
138.213
117.822
336.376
352.218
308.92
317.639
304.588
399.894
305.116
702.745
686.776
701.266
696.027
225.884
264.487
225.89
640.313
608.883
626.363
539.68
191.034
187.634
152.997
575.938
527.72
451.764
387.398
147.602
127.683
110.822
470.201
411.292
323.125
290.69
118.027
105.908
101.458
359.814
331.941
268.24
266.515
112.862