/*--------------------------------*- C++ -*----------------------------------*\
  =========                 |
  \\      /  F ield         | OpenFOAM: The Open Source CFD Toolbox
   \\    /   O peration     | Website:  https://openfoam.org
    \\  /    A nd           | Version:  10
     \\/     M anipulation  |
\*---------------------------------------------------------------------------*/
FoamFile
{
    format      ascii;
    class       volScalarField;
    location    "9.9";
    object      omega;
}
// * * * * * * * * * * * * * * * * * * * * * * * * * * * * * * * * * * * * * //

dimensions      [0 0 -1 0 0 0 0];

internalField   nonuniform List<scalar> 
12920
(
134.521
189.825
181.459
162.62
133.012
114.802
103.073
94.9793
83.0715
70.3006
60.452
54.3309
50.2515
47.2718
45.341
43.7975
42.998
42.2757
41.8641
40.6135
123.523
173.325
173.698
174.933
163.068
152.269
132.88
116.719
98.455
80.3725
66.7568
60.3875
57.8773
57.0696
56.8835
56.9975
57.3967
57.6909
58.1593
58.1246
63.9633
111.452
144.62
153.084
141.128
114.644
91.8325
79.9958
69.9334
65.2916
61.0706
59.6868
58.4404
58.0331
57.8049
57.3062
57.0702
56.4313
56.1401
55.2772
92.1269
147.785
151.239
142.772
118.153
98.2061
83.3187
73.7968
65.5393
60.8015
57.1052
55.267
53.591
52.5744
51.8601
50.9973
50.5181
49.8154
49.59
48.955
263.687
207.411
173.139
144.095
128.874
114.642
106.798
94.5869
84.1725
72.8538
64.7756
58.1757
53.3133
50.8891
49.3168
48.1348
47.5373
47.0153
46.8789
46.5215
198.275
175.068
176.71
166.897
148.638
140.849
132.104
129.506
123.777
110.02
90.0647
70.8708
57.263
50.5337
47.5236
45.8632
45.0058
44.7043
44.7515
44.8308
31.4023
127.545
157.311
152.435
141.192
136.979
129.924
125.242
117.877
108.146
92.9826
73.4073
58.2444
50.7374
47.31
45.1365
43.6792
42.6894
42.3825
42.2945
39.2371
123.933
179.701
181.428
159.72
143.559
221.116
191.4
183.353
169.471
157.341
137.462
98.7053
82.8733
55.1118
51.0767
47.5456
44.1827
42.7296
41.0902
60.157
142.335
163.306
168.741
154.75
222.223
316.102
254.814
286.896
296.361
284.127
268.85
189.965
157.139
95.318
56.1826
51.7628
47.4865
44.9707
41.6892
50.9702
205.668
197.12
169.613
145.506
205.627
284.378
245.77
255.875
257.672
241.458
195.247
146.955
139.817
94.3056
53.2785
50.9184
48.9573
47.1983
43.2141
68.5779
185.268
188.943
178.864
149.531
211.324
270.727
208.09
217.993
210.219
182.637
161.749
157.141
154.798
100.262
60.2954
55.6806
52.3773
49.9278
44.5077
177.829
219.034
202.995
165.908
133.72
187.078
261.226
204.123
197.625
217.831
225.624
175.319
163.841
166.398
110.676
63.375
58.9085
52.905
47.468
42.1103
245.677
203.011
187.534
163.618
137.889
120.411
179.249
141.373
128.892
115.753
101.255
94.7792
95.0678
94.7512
57.9574
53.6102
49.3361
45.0849
42.0832
39.7914
329.441
299.611
205.819
147.104
127.306
114.276
97.1285
84.4083
74.1187
68.2011
63.9724
60.7279
57.2733
53.6613
50.2272
47.1898
44.9699
43.2741
42.493
40.7825
159.63
171.246
153.433
141.262
132.919
120.996
103.676
94.5408
85.4518
79.2088
71.9986
66.252
61.0132
56.2036
51.9036
48.6268
46.4833
45.4653
45.1862
44.2545
44.5461
89.4355
136.338
146.827
144.557
137.117
118.348
106.281
94.906
86.1959
77.0104
69.9726
64.1838
59.8355
55.7852
52.7657
50.5609
48.8716
48.2808
46.9116
118.129
169.407
179.602
173.562
152.635
133.645
113.667
101.631
90.203
80.7926
71.6843
64.8972
59.9719
56.6975
54.0276
52.0729
50.8533
49.49
48.8534
47.2129
235.998
229.132
169.673
154.183
138.634
125.545
109.937
98.9712
86.6985
76.0446
67.0919
61.3737
57.5047
54.7153
52.2925
50.3071
49.1473
47.9632
47.4869
46.3761
129.524
162.362
147.981
128.415
119.796
112.064
99.5653
88.7691
77.9721
70.4342
64.4933
61.439
58.6524
55.7086
52.663
49.7996
47.5598
45.9022
45.4227
45.0979
105.863
126.993
116.004
99.2241
93.1963
89.8432
82.6265
74.5804
66.5258
59.9973
55.4974
52.566
50.4155
48.0242
45.585
42.8807
40.8705
37.9365
35.7725
32.3222
23.2489
97.82
98.3969
86.4827
72.6326
64.4098
56.2588
48.9223
40.5814
35.1227
32.1737
30.65
29.0564
27.5915
26.2782
25.3414
24.8344
24.6072
24.5616
24.2303
126.683
140.327
110.378
91.5769
78.5589
73.8856
70.1816
69.2543
67.6209
57.6953
43.0709
35.4165
31.7444
30.0422
29.2965
29.0521
29.0747
29.1651
29.252
29.3835
103.965
128.235
121.685
96.8574
82.159
66.4993
52.0823
42.0969
36.4881
33.512
31.2889
29.7198
28.4903
27.7621
27.5423
27.2601
27.2335
27.149
27.1583
27.1419
130.094
127.781
93.5286
77.9906
63.8295
50.8911
43.5845
37.9959
35.4299
33.0244
31.5804
29.5248
27.6242
25.9125
25.0335
24.4347
24.1936
23.958
23.8787
23.7218
309.559
136.397
96.7409
77.8334
67.8657
58.9725
55.0656
48.9759
46.5519
42.0963
39.5459
34.1088
29.6301
25.9528
24.1677
23.3164
23.0748
22.9783
22.9721
22.9197
145.588
137.905
117.109
98.2531
80.6697
72.6678
67.1437
67.0765
66.686
66.4058
64.0313
51.5984
36.43
27.3488
23.2902
21.9247
21.5228
21.5127
21.6236
22.0237
121.869
124.895
110.227
90.9729
77.4901
68.9562
65.6804
65.2071
65.6138
67.1897
66.9124
59.3695
39.9645
27.7381
23.1171
21.5974
20.9983
20.82
20.8374
21.0385
135.853
148.695
128.543
100.143
78.7246
66.7205
72.5808
69.9475
67.3855
67.8595
70.868
72.9194
70.4209
36.8299
24.2225
22.9134
22.1555
21.6192
21.4953
21.2291
333.463
228.685
129.008
95.6734
74.6724
73.5325
69.2002
62.3048
61.7866
63.2522
65.9262
69.7251
77.783
49.9212
26.3135
24.6206
24.3002
23.5053
23.1687
22.4252
141.249
135.76
113.253
90.4667
73.2815
71.4527
64.0513
51.4885
47.9408
46.9089
49.9891
55.6726
44.5473
31.6697
28.2899
28.6837
28.2321
27.097
26.2234
24.05
146.239
131.862
114.445
96.8829
76.3673
72.9625
62.1239
48.437
39.8673
35.1155
36.3274
38.3211
36.2183
33.6031
31.9013
30.5721
30.2012
29.4206
28.0188
24.3102
284.861
129.19
99.7407
77.9888
64.3425
63.8258
62.0845
55.1722
49.3776
45.5464
46.2747
46.6588
35.9221
31.9707
28.9178
27.1444
27.376
27.1083
25.895
22.3175
245.447
141.813
106.375
76.8816
62.7697
53.369
56.2725
51.5455
48.6698
47.6164
44.8077
38.1677
32.3514
29.2652
25.3168
24.5841
23.9067
22.6722
21.1123
19.8718
292.629
197.189
124.674
86.4499
69.7686
59.8505
48.0469
41.8734
37.957
35.5719
33.5925
31.6126
29.6067
27.4923
25.3697
23.4793
22.1551
21.264
20.6382
19.9311
365.617
184.201
123.249
108.15
91.9566
74.5381
56.7593
46.5607
40.2219
36.8747
34.0832
31.851
30.0886
28.586
26.6997
24.7784
23.2557
22.4297
22.2005
21.8224
183.295
113.103
104.244
98.3412
85.3596
73.2844
60.6477
52.4849
46.3299
41.6525
37.4306
33.9124
31.2435
29.1084
27.6815
26.4392
25.4343
24.5874
24.2734
23.6352
329.352
162.127
112.148
92.312
76.0417
65.4426
56.5949
50.5088
45.4007
40.5404
35.9639
31.8558
28.9642
27.219
26.1732
25.378
25.0428
24.6492
24.4567
23.9129
167.379
171.895
110.591
94.0588
80.3769
66.83
57.9163
51.873
46.7094
41.3935
36.2935
31.6503
28.4771
26.7098
25.7873
25.1664
24.8493
24.542
24.3821
23.9596
211.633
143.306
117.157
109.896
94.7886
76.5453
63.8963
54.5317
46.6587
40.3789
35.3978
32.4909
30.8151
29.8339
29.0265
28.0903
27.1295
26.1628
25.5277
24.5958
51.9104
65.6217
63.3767
62.0388
57.6399
53.8119
48.1844
42.5504
37.0841
33.7162
31.9296
31.0991
30.2406
29.1761
27.9176
26.5462
25.3508
23.7292
22.0036
19.6731
88.2913
117.884
104.149
88.2282
73.222
62.667
54.3912
46.9498
40.6633
37.947
36.3841
35.188
33.5459
31.868
30.4539
29.2415
28.4049
27.5131
27.1917
26.4514
276.087
161.652
100.354
76.5381
63.2298
58.5329
55.0045
53.7628
49.1968
42.2694
36.2232
33.2811
31.824
31.5054
31.5163
31.7231
32.1089
32.2494
32.2003
31.7855
228.416
154.149
102.753
76.4646
58.8059
47.8463
39.5208
35.0905
31.8534
30.1486
28.6651
27.896
27.2989
27.1621
27.2074
27.2029
27.2487
27.1976
27.1709
27.0212
380.245
160.215
88.1097
62.949
50.5844
40.9918
36.4329
32.6042
30.6921
28.9891
27.6618
26.4185
25.2783
24.4661
24.0826
23.7603
23.6185
23.4398
23.368
23.2436
437.852
218.223
93.7102
66.7344
58.7697
49.3391
45.3574
39.8228
36.7604
33.0251
30.3171
27.5876
25.272
23.647
22.8421
22.4209
22.3135
22.2395
22.2263
22.193
203.318
158.873
110.776
87.3792
69.8957
61.4073
55.0493
52.8656
50.4917
47.1431
41.9897
33.9283
27.3109
23.4924
21.8355
21.2071
21.0727
21.0943
21.201
21.4755
206.781
139.116
102.723
80.4106
66.9985
59.2622
54.9304
54.2538
53.7877
53.4863
50.7137
40.2535
28.8928
23.3919
21.5522
20.8549
20.6407
20.621
20.6787
20.8794
467.607
288.747
138.229
97.801
72.4698
60.1688
56.6148
56.1392
56.159
59.3768
64.3309
68.7535
55.6025
27.6389
23.4809
22.3626
21.7358
21.3297
21.2062
20.9947
250.507
173.695
132.283
92.5473
65.2683
57.3287
53.2933
51.5458
52.4709
55.8983
62.5957
70.0326
70.4022
31.6377
24.6538
25.5182
24.5331
23.4345
22.9147
21.9666
118.871
145.633
118.985
82.5332
61.9256
54.0022
47.6735
42.1305
40.8575
41.9672
45.1798
43.8133
33.1901
27.4051
27.5989
30.6482
28.7872
26.5015
25.2583
23.3919
244.849
137.486
106.798
82.1139
61.561
53.4604
44.9152
38.558
34.0299
32.4021
84.0146
58.2031
45.6484
37.9334
33.8062
32.3742
30.143
27.478
25.5975
23.3534
289.176
127.705
92.0384
64.2799
52.1934
47.8747
46.0755
42.7771
40.2977
38.7404
38.1676
34.9916
30.375
28.7816
28.0665
27.6874
26.6409
25.009
23.4184
21.9642
154.607
179.663
122.668
70.5174
54.4064
45.596
42.587
39.9982
38.0718
37.023
33.9883
30.1615
27.3645
25.7178
24.4006
23.3878
22.46
21.5324
20.7856
20.476
206.847
177.149
104.96
72.7574
58.1932
49.0452
40.0954
35.2922
32.4096
30.2873
28.6262
27.0104
25.4574
23.9384
22.7054
21.6794
20.9855
20.5458
20.2063
20.0834
508.833
154.305
109.874
93.6499
75.1126
60.4238
45.8848
39.3774
34.3096
31.4987
29.135
27.4107
25.9208
24.61
23.3911
22.3952
21.7255
21.3749
21.2488
21.0209
216.108
130.825
110.291
98.011
80.5679
64.9695
51.4062
44.022
38.3304
34.5097
31.1431
28.7256
26.8711
25.4874
24.5195
23.7969
23.2936
22.9025
22.7316
22.3547
194.463
152.337
109.303
84.444
66.6079
55.171
46.9575
42.3417
37.7896
34.0067
30.3334
27.7199
25.8861
24.7841
24.1441
23.7359
23.5665
23.3698
23.2609
22.979
254.173
126.113
94.8853
75.6188
62.5667
53.4848
46.7206
42.6634
38.0762
34.2765
30.5512
27.9516
26.165
25.1324
24.5904
24.2974
24.1954
24.0956
24.0356
23.8543
202.861
125.937
107.187
93.7611
73.198
59.21
48.701
43.0509
37.872
34.7876
32.0725
30.6464
29.4761
28.7197
28.0159
27.3339
26.7664
26.2319
25.9189
25.5702
81.2304
67.1803
67.489
66.9978
63.6907
58.0485
51.312
45.0206
39.9313
36.7881
34.7884
33.2735
31.873
30.4708
29.1492
27.5831
26.0304
24.2097
22.9634
21.4808
112.87
132.868
106.037
82.7944
67.8058
55.4696
48.5139
43.5125
40.4516
39.0991
37.7146
36.3015
34.6445
32.9641
31.8237
30.72
30.061
28.968
28.4198
27.089
362.231
280.283
123.768
70.5809
60.4352
52.0532
50.0796
47.4159
45.193
42.863
41.8846
42.0798
42.8186
43.6674
44.2694
44.7493
45.0062
44.9577
44.6539
43.5916
415.886
174.193
95.8868
64.553
54.0127
42.3947
39.6701
35.4655
35.2242
34.0389
34.2698
34.326
34.8062
35.2737
35.819
35.9743
36.0661
35.8443
35.6639
35.2043
234.142
135.828
88.8055
59.6437
51.3921
39.8939
38.4144
33.738
33.5862
31.9447
31.9023
31.289
31.3365
31.1941
31.275
31.0975
31.0291
30.8131
30.6948
30.643
352.477
237.754
104.268
64.9345
60.0775
46.2341
44.4512
37.4382
36.028
32.8912
32.0994
30.7025
30.2116
29.6968
29.7058
29.5313
29.5583
29.4781
29.4591
29.5155
207.544
139.1
104.696
80.014
69.9542
57.8208
53.0821
47.0219
43.5401
38.6295
35.6777
32.3563
30.2256
29.0793
28.8686
28.5734
28.616
28.6405
28.7328
28.9795
170.036
121.59
104.183
78.7011
69.7362
57.8319
54.3767
49.6849
47.5003
43.3808
39.8225
34.0437
30.5002
28.8894
28.7753
28.513
28.5778
28.6183
28.7333
28.9311
213.411
168.141
133.198
98.11
77.0894
61.9763
57.1888
55.0022
52.7368
54.6871
56.2064
53.331
37.7489
30.9435
32.6869
30.7613
29.9312
29.4778
29.3454
29.2923
198.491
166.492
138.756
91.4042
66.1211
57.5214
53.5685
52.2059
51.8381
54.9249
59.515
59.4985
43.1247
33.6327
34.5985
35.246
32.7954
31.3377
30.6044
30.1296
258.467
180.852
122.081
77.9163
60.3215
52.0441
46.6803
43.8528
42.7022
42.372
41.2494
38.0329
35.9874
36.2074
38.2657
39.0344
35.5516
33.2559
32.1576
31.1968
219.812
144.934
103.643
70.9155
57.7081
49.8401
43.1893
40.0933
37.6541
36.1201
57.5696
55.4121
47.4774
43.3488
42.4405
40.0652
36.2059
33.3794
32.0888
31.2872
235.068
135.149
93.0707
60.114
52.9378
46.7456
44.7688
42.9586
40.8412
39.3781
37.7602
36.2956
36.613
37.2742
38.0733
36.2926
33.1749
31.3413
30.7376
30.6925
243.229
247.994
145.25
74.2567
58.6857
47.4378
43.3651
39.3958
37.3737
36.2224
34.5296
33.4296
32.9545
32.5632
32.2573
30.2024
29.317
29.1866
29.2659
29.7035
175.587
182.836
115.8
68.6865
60.1221
48.1346
41.8392
36.7657
34.9576
32.7599
31.9803
30.6889
29.8477
28.8559
28.4197
27.9831
27.9883
28.0876
28.2405
28.7326
221.573
127.947
109.545
80.5322
70.5875
55.6163
46.6278
40.9199
37.0189
34.2594
32.574
31.1398
30.1167
29.145
28.619
28.3216
28.3322
28.4029
28.399
28.6137
260.338
145.597
119.241
94.6467
77.9087
60.9419
51.3151
44.5166
40.3996
36.8406
34.5127
32.6197
31.4336
30.467
30.0246
29.7169
29.6953
29.6727
29.5744
29.5942
164.806
142.827
111.789
79.2721
65.8571
53.0935
48.2982
43.5779
40.3497
36.8609
34.2983
32.3427
31.273
30.5285
30.3951
30.3582
30.4779
30.5697
30.5721
30.6878
161.595
124.064
95.5255
67.0034
60.2892
51.2
48.1057
44.4049
41.2996
38.1677
35.6585
33.7852
32.8039
32.0775
32.0193
32.039
32.2402
32.4146
32.4603
32.5788
144.901
128.365
99.973
74.3885
63.655
54.3362
48.6801
45.5276
42.5487
40.7231
39.1345
37.995
37.0177
36.2297
35.8541
35.6902
35.7726
35.9319
36.034
36.2408
51.5515
61.9052
67.251
66.0542
62.6624
56.3432
49.8894
44.2368
40.2415
37.3434
35.0482
32.794
30.8573
29.009
27.5226
26.0173
24.9145
23.7534
23.2288
22.3672
138.125
157.955
104.964
73.2512
60.1749
48.7579
44.5296
41.3592
39.4886
37.9474
36.4973
34.9808
33.6203
32.3361
31.1655
29.6117
28.1407
26.5645
25.7564
24.5525
615.835
405.327
175.626
80.9225
71.2322
53.5546
56.8013
49.058
54.917
53.2896
57.9416
57.8104
60.1915
60.2827
61.0587
60.6427
60.5235
59.9509
59.6686
58.687
339.658
186.683
108.549
71.0383
64.6716
48.4396
49.7045
41.4452
45.6607
42.4142
46.318
45.5368
48.0996
48.0369
49.2134
49.0602
49.3464
48.9403
48.7859
48.2841
187.352
139.15
100.862
70.8216
62.3718
48.6016
48.7342
40.5316
43.3949
39.9057
43.1412
42.3209
44.3663
43.9857
44.647
44.2806
44.4439
44.1607
44.077
44.003
253.521
172.544
110.69
75.5454
70.1375
50.3529
53.2847
40.9747
43.8881
38.7984
42.1001
40.9133
43.1627
42.6219
43.3516
42.9445
43.2577
43.0719
43.1169
43.1407
449.932
140.249
108.554
78.7246
77.842
57.4039
58.8129
46.5594
46.2386
40.6813
42.3457
41.6323
43.3137
42.7476
42.7198
42.1984
42.3286
42.3281
42.4497
42.7661
244.268
126.801
112.655
80.0913
79.8342
58.1818
59.9615
48.1668
47.9986
41.4457
42.9775
41.324
43.474
42.8299
43.0635
42.3483
42.603
42.5589
42.7542
43.013
204.394
151.415
138.037
95.1789
86.9427
64.526
63.7984
56.6858
54.1947
50.1242
50.0613
48.9862
49.9088
49.4149
47.9986
45.2456
44.247
43.9115
43.8624
43.8638
240.246
157.374
136.733
86.0911
74.6676
61.8764
62.2577
59.9703
57.9626
55.9584
55.3128
55.0482
55.7536
56.4613
56.5523
49.1943
46.8319
45.7078
45.4912
45.2349
368.148
210.927
132.919
76.5923
69.2023
57.3443
56.2421
57.1602
55.3618
53.2045
53.4612
56.964
60.4947
61.2423
59.6066
51.5311
48.7125
47.5308
47.1402
46.5299
529.498
168.882
109.583
69.1929
66.5855
54.6916
52.9523
55.1552
54.2792
52.0347
54.3355
58.4215
63.6212
63.663
61.0518
52.2699
49.2346
47.8246
47.2372
46.6481
355.939
155.733
99.6045
66.5885
64.2
54.6032
56.782
56.6065
55.0135
54.1095
55.1137
57.5488
59.8713
60.6593
58.8239
50.1028
47.2167
46.0301
45.6223
45.6517
425.439
236.293
147.166
74.4616
74.5772
57.4938
53.2623
46.4878
47.583
46.7131
48.8088
49.664
51.335
51.3986
47.2883
44.8617
43.982
43.8232
43.7728
44.3525
187.511
166.843
127.8
70.2797
79.0421
53.1501
51.081
43.9983
44.2567
41.785
43.2507
42.3755
43.2661
42.8629
42.9597
42.5016
42.5763
42.6033
42.7005
43.3612
271.401
150.702
115.742
75.972
79.694
55.863
57.2369
47.6092
46.8869
43.3022
43.6862
42.5864
42.9454
42.5314
42.7063
42.7064
42.9775
43.1637
43.1958
43.4583
274.487
145.009
124.087
83.7604
81.8051
58.9408
59.4813
50.1711
50.5983
46.1761
46.4836
44.5132
44.8351
44.0373
44.3941
44.2601
44.5921
44.6196
44.5931
44.5823
283.293
159.498
117.065
74.1388
72.8545
54.6249
58.6913
50.2667
51.8416
47.1012
47.2794
45.033
45.2521
44.4986
44.9345
44.9878
45.4317
45.5985
45.6777
45.8317
299.304
130.045
101.793
65.9666
70.822
54.9534
61.0396
53.1382
55.1722
50.5325
50.7247
48.2245
48.18
47.086
47.3835
47.2925
47.7243
47.8815
47.947
48.1172
214.031
147.621
120.458
67.7679
78.2509
60.5523
67.1878
59.0105
61.6733
57.4704
57.8704
55.3279
54.971
53.6078
53.536
53.2452
53.5105
53.7071
53.8602
54.2261
65.5772
73.695
71.3267
62.7845
56.1995
49.9917
45.264
41.4305
38.1359
34.6219
31.4583
28.7023
26.882
25.5156
24.6765
23.8788
23.411
22.75
22.4507
21.7881
44.4513
33.6882
79.481
41.7129
41.7857
35.6759
79.682
45.2307
78.185
59.6111
41.4976
39.084
80.2974
68.074
85.8079
36.0816
35.4852
34.4003
86.3215
36.7399
35.8293
65.056
35.3604
34.4941
87.7939
74.8353
35.6289
35.0045
251.106
301.87
263.982
83.657
70.2513
80.2644
63.8374
280.612
266.871
287.343
68.8965
67.5812
60.8554
58.4135
296.83
287.047
270.293
67.657
68.4859
58.6749
59.736
285.846
271.249
294.34
68.9672
70.6207
59.3274
58.0122
274.453
295.571
263.865
71.2864
73.6123
58.6871
66.1066
204.318
235.723
175.259
74.9665
78.1487
67.9706
65.8264
174.444
160.448
139.755
80.1841
76.9183
60.7788
40.2788
126.559
139.725
132.268
58.9997
32.0767
36.3372
31.1063
244.647
270.125
217.643
76.3106
61.1075
74.6877
58.0767
256.272
214.339
218.698
57.9027
53.6224
54.5347
46.2824
251.965
220.821
217.988
53.3537
52.1122
44.3366
40.2138
252.712
212.014
184.267
51.2329
51.0079
39.3109
38.6575
210.717
173.153
150.617
52.2997
57.9089
39.313
42.338
156.367
146.059
142.039
58.4153
52.6944
42.7719
41.3698
139.109
142.876
147.916
48.8561
37.6299
40.0355
36.5669
133.76
148.096
132.647
35.5308
31.3507
35.7936
33.7308
211.772
271.288
210.972
74.7477
58.0465
73.7378
60.9707
215.572
201.673
198.002
54.6453
46.5591
59.1084
52.8408
215.48
203.323
215.271
44.4507
39.9935
50.3801
45.9937
189.908
217.264
214.423
39.0574
38.3943
45.3608
44.3204
165.168
205.889
173.316
38.8753
41.3861
44.3183
44.9259
157.525
167.084
163.414
41.649
40.4101
44.8065
40.5522
155.533
164.178
166.106
39.4201
36.9712
39.3084
37.0003
135.096
166.319
156.282
36.4804
34.4277
36.5688
33.9885
209.419
315.052
238.077
73.9233
63.6501
82.4084
68.0193
195.344
231.891
217.774
62.1089
57.0407
64.5333
59.7243
212.361
215.698
212.81
54.5422
50.2052
58.7571
57.4211
227.03
211.178
203.686
49.7771
49.7902
57.4778
58.3811
187.994
200.211
177.457
50.3381
51.6117
58.7202
58.1964
163.875
169.657
157.858
51.2689
42.6623
56.6015
43.9025
165.886
157.896
158.63
40.3316
36.4467
40.6895
35.4857
157.646
159.203
142.859
35.7714
33.2722
34.6295
31.185
63.2296
66.8064
56.4978
55.0821
52.7975
51.8574
46.7129
61.6989
54.3381
52.5581
52.7316
53.2843
45.8466
45.3076
62.7464
52.7366
53.6599
53.6369
55.5446
45.4947
46.8597
65.1846
53.6215
54.3291
56.5989
60.778
47.6288
51.1842
68.5933
55.6528
63.3035
62.3955
67.2051
52.9207
57.9888
74.4615
65.183
62.297
68.8838
76.1685
58.066
47.5975
68.9734
56.2979
35.9426
75.2368
44.6609
41.8139
29.2788
28.8584
32.415
28.6171
34.4851
24.6931
27.4821
25.5922
53.8521
62.3219
50.9297
49.8202
44.2424
47.3442
41.0068
48.2126
48.2079
41.468
43.1522
41.6699
39.4772
35.5382
47.2016
39.7226
36.0899
41.5748
42.0215
34.4631
32.45
48.2384
35.4503
36.3482
42.5114
45.2481
32.7854
50.8008
55.3752
37.2945
39.4281
46.424
47.9682
51.4398
46.7401
48.773
39.5481
37.6173
47.093
38.2403
44.4044
39.0027
33.5473
36.4475
33.4692
34.988
28.4168
37.6287
34.3988
28.8444
32.7917
31.797
27.4201
26.0286
33.4428
32.0178
50.9934
61.6113
54.0503
47.2321
41.1765
48.0224
44.0176
41.7844
52.7091
47.868
39.7534
35.7022
43.3502
40.4833
35.8449
45.8363
41.9234
34.4925
32.0606
39.3474
37.05
35.643
41.3592
40.6999
32.0984
50.3949
36.6742
36.1383
38.2061
40.7777
41.2352
50.757
47.3762
36.0771
35.3861
37.0562
40.9203
36.4074
45.456
41.4455
34.6172
31.8348
34.0728
35.2366
33.1207
40.1824
36.5854
31.16
29.878
32.5274
32.7301
31.3611
35.4921
33.1231
29.6141
28.8117
56.2979
64.1413
58.0965
48.288
44.994
47.8312
44.7546
51.2628
56.027
53.2352
44.4834
42.479
43.9892
43.2433
45.8889
52.6577
52.0312
41.5945
39.9305
43.0538
42.8915
45.7052
52.119
53.0629
39.7552
39.6356
42.9337
42.843
47.2664
53.3083
52.126
39.6443
38.3226
42.4913
38.811
38.034
49.6876
38.295
36.797
31.7408
36.5001
30.6756
32.551
35.6552
31.3403
30.6636
28.8874
29.3961
27.1261
30.6268
30.6151
28.4894
28.5621
28.0063
26.7052
25.5554
51.556
49.6591
45.465
52.6708
51.4036
47.9987
45.4015
52.1218
44.7967
44.3982
51.3137
51.2495
45.0254
44.5068
54.6629
44.5756
46.0404
51.4583
53.6853
44.5485
45.4886
60.747
46.8983
50.3595
55.0596
59.7327
45.9876
46.7988
68.0684
51.8269
54.8497
61.427
64.753
46.8172
44.6962
73.9482
54.2181
42.9468
64.5967
54.7983
42.9226
36.2372
38.7635
38.135
28.5768
47.1436
32.8611
34.44
31.6278
24.6343
27.2566
25.8519
30.8456
28.6007
31.3427
31.0068
43.0187
45.0224
39.6365
45.9918
43.0308
42.847
39.3515
40.9184
38.3145
34.949
42.4961
41.5215
38.5238
36.3978
41.4428
34.0454
32.5247
41.4217
41.5908
35.8231
34.6974
39.0377
42.5347
37.3513
41.6185
38.5837
42.1147
37.337
41.6192
45.6208
42.1773
43.8303
41.871
43.804
42.3249
35.8124
53.3982
43.2956
37.8065
34.0784
61.9091
47.8655
28.1525
41.1726
36.5285
33.2238
31.9908
45.3216
40.5186
26.3135
35.2431
33.2471
31.9007
31.6573
39.4449
38.0532
39.7987
45.7936
42.4903
42.6831
39.4477
43.7832
41.8302
35.0482
41.8973
39.332
38.6518
36.3867
41.3266
39.2406
32.1063
38.3763
36.4363
35.7457
34.3724
38.6167
37.1553
41.7798
62.8723
32.6249
38.859
36.6016
229.04
33.1199
48.2572
78.4062
42.0188
193.519
42.2464
182.755
48.1508
48.0439
33.8382
31.7101
67.8255
52.0918
34.7701
34.5392
39.5933
31.1989
30.1771
49.0319
42.9495
34.5588
34.5907
34.4229
29.9567
29.2223
41.5724
39.1726
34.5898
34.3741
43.2143
45.3918
42.8535
44.0002
42.2056
43.8572
41.4054
41.024
42.1664
41.4755
41.7904
40.1621
40.5915
39.3451
38.9261
41.2386
40.9835
39.6683
38.5763
38.9829
38.4159
38.3396
40.9482
40.4247
38.2561
37.1053
38.1453
36.8394
36.3232
39.8689
36.1827
36.6768
35.0383
36.175
33.9472
31.1741
34.3307
29.8378
34.4919
33.5379
33.1785
31.4831
29.0275
28.8654
27.0723
33.4407
33.3705
31.164
30.5912
28.3712
26.7369
25.7263
33.3739
33.4072
30.463
29.8799
52.4058
48.6828
46.6031
59.3358
58.3339
54.5306
54.6581
51.7377
46.2822
45.5937
57.5276
55.9576
54.4749
53.1524
53.7444
45.5571
46.0294
55.8091
55.4956
52.7812
51.4757
58.4044
46.2576
46.0795
55.3049
54.8978
51.0031
49.8779
60.6168
45.7595
43.0844
54.9352
54.0057
49.8225
50.0824
48.548
41.6436
37.3252
52.9088
50.3074
50.598
52.5695
34.5467
36.4265
35.6096
50.0721
50.3869
53.1125
53.978
32.1529
35.5629
35.0672
50.231
49.7491
53.9895
53.4791
44.298
43.3798
40.6337
52.7302
52.8867
49.4081
49.9361
42.8574
39.9879
38.2395
52.7618
51.6327
49.9936
49.4488
42.4678
37.7156
36.2776
51.2628
49.5336
48.8522
46.6018
41.6452
36.6157
54.4916
49.0008
48.0066
46.0306
47.881
38.9712
55.9436
54.8573
48.0486
48.7512
48.8977
50.944
36.1374
52.9344
46.4838
49.5653
52.918
51.5365
55.9325
36.1367
45.089
42.4497
53.69
54.7578
56.895
57.6526
35.7718
41.9054
40.7795
54.7822
54.253
57.5434
56.6353
40.7135
44.4611
43.0719
49.1904
50.0419
51.4444
52.4019
38.2277
42.5964
40.6344
50.1248
49.5724
52.0897
50.6814
36.0354
40.0889
38.6252
48.9771
46.691
50.3903
48.7877
55.7717
38.1584
37.139
46.1271
47.9579
48.3116
47.9222
57.102
36.9566
36.5729
49.0133
51.3883
48.1415
49.3693
49.1183
36.5204
37.2287
52.0169
56.4669
50.2408
53.8889
44.0877
37.5646
38.3073
57.4409
58.1147
54.6448
55.694
41.6265
38.4294
38.1118
57.9998
57.0227
55.78
55.4807
43.3956
44.707
42.2118
52.3254
52.5606
51.8779
48.2751
41.289
41.2628
39.8021
52.0608
50.5324
46.9768
45.9203
39.7537
39.4838
38.9782
50.3243
49.2844
46.1561
46.3907
38.1495
38.6665
37.3591
48.885
48.5859
46.0645
46.0453
36.5564
36.8294
35.3433
48.8059
49.8833
46.4221
47.4318
36.3996
34.8731
33.9525
50.6391
53.0763
47.5464
48.4337
37.1696
33.8641
33.7854
53.6462
54.5436
48.7882
49.5404
37.1296
33.749
33.08
54.637
54.4602
49.5221
49.271
61.0847
57.8816
58.7176
72.7463
70.3154
69.7235
70.7326
58.2243
58.5027
56.8506
67.9942
66.3638
69.9611
67.3336
56.6845
56.3379
54.7461
65.5959
62.6319
66.5898
66.1053
55.1706
54.2504
53.8177
60.8778
61.1368
66.1735
67.7861
55.4492
54.1958
55.9967
61.7309
64.6998
68.7461
71.5657
55.3823
56.797
59.0481
65.2283
68.2648
72.1186
72.9385
56.6306
59.659
60.4859
68.8839
69.7361
73.0669
72.9283
55.9265
60.4602
59.6205
69.2734
68.4872
72.7698
71.159
57.2598
53.1198
54.8049
68.0553
69.8507
65.8354
68.2431
55.8276
55.0013
54.5645
69.347
67.1572
68.1379
67.4917
53.6861
54.0839
52.256
66.7899
68.0328
68.207
72.753
52.997
51.7853
53.0678
68.5559
70.68
74.0265
77.3293
55.7768
54.1287
56.8992
71.6328
74.2204
78.5591
80.6798
59.7897
58.1051
62.6027
74.5476
74.3872
80.2267
77.6556
61.2901
63.3155
63.6058
74.1719
73.5341
76.6938
74.6728
60.347
63.386
62.0291
73.3149
71.7315
74.2509
72.0514
54.9435
55.7676
57.1614
65.6321
68.283
68.4326
69.4031
54.7503
56.8406
55.5232
68.1881
67.6567
68.7397
67.2818
52.4817
55.2818
54.1572
68.4131
73.075
67.3949
70.052
53.2874
53.8729
54.2636
74.3896
77.5913
71.0653
73.1474
57.2639
54.7914
56.8362
78.801
80.9053
73.9024
75.4241
62.9324
57.8969
60.4498
80.3792
77.6422
75.2916
74.0371
63.8766
61.0377
61.7542
76.6718
74.6878
73.7038
73.1811
62.3205
61.7832
61.1461
74.2909
72.2903
73.078
71.6524
57.1914
56.0406
51.4515
69.3552
68.9648
67.1118
61.1524
55.1644
50.1244
49.6005
68.0622
66.5896
60.111
60.2211
54.3347
50.0907
50.422
66.5044
68.0379
60.8084
60.5265
54.5971
50.1329
50.7419
68.7626
70.5303
60.5747
61.8691
56.8611
51.3662
52.6745
71.2253
72.6496
62.8738
64.1937
59.3867
52.8445
53.9853
72.6826
72.2794
64.592
66.0915
60.6035
54.4172
55.2872
72.2722
72.2387
66.7087
67.4327
60.1646
55.2704
54.9683
72.2147
71.0635
67.4602
66.6886
41.6878
43.5537
42.0545
43.5493
40.8846
42.9842
42.54
47.7468
34.5993
55.7614
39.0316
40.0978
35.397
175.923
63.4582
52.3317
74.4898
198.875
49.2556
65.3375
218.453
39.1642
41.5057
41.7465
38.1436
41.8095
37.579
38.9988
41.3714
42.5335
41.8804
40.6099
42.3327
41.8904
40.3196
48.9982
40.2794
36.3201
58.7224
35.9886
183.553
41.8064
62.7346
213.372
50.9612
76.0453
64.4147
230.483
48.9182
40.6302
45.6969
40.0941
42.5529
41.2389
43.4733
39.1212
58.0596
51.735
75.7582
186.86
49.7074
62.7647
177.375
53.7588
43.6144
69.6179
86.1815
47.2861
46.8896
125.13
40.7951
42.4707
40.972
40.3746
42.1494
41.5641
39.8175
39.791
40.3515
40.2065
37.8766
41.4927
38.3374
39.0085
57.8089
200.756
50.6335
81.0113
61.9498
189.133
49.6264
54.2867
91.5586
44.9264
76.6348
47.565
132.703
48.0675
46.1006
82.9233
41.4342
204.268
39.934
215.384
47.6705
34.3287
33.7451
35.8168
35.8467
33.9298
33.8603
35.569
35.006
34.757
35.635
35.1686
34.3771
35.4287
35.3566
42.4949
40.2554
63.0211
34.776
224.699
33.8355
38.9897
47.1033
214.477
80.8998
44.11
224.837
48.7956
42.3987
34.8331
36.0225
35.2934
36.3764
34.3399
35.7096
35.5372
35.5335
35.2387
36.3913
36.0774
35.9373
35.4569
36.0467
47.9694
77.105
42.2549
111.805
42.6114
170.853
47.27
35.8037
35.013
35.2037
35.0011
35.1875
35.6605
34.8121
35.796
35.1263
34.9505
34.1225
35.2066
35.7315
34.5371
49.7015
203.263
87.3282
45.121
191.306
49.451
45.908
49.4366
112.202
86.5972
46.5733
168.183
48.9008
46.5764
36.3271
35.0459
36.6215
35.4473
36.1639
34.8502
36.8327
36.3611
34.2628
37.0577
35.2455
36.3589
34.5976
36.9658
198.945
215.279
197.527
121.938
100.913
117.396
96.5051
188.536
190.786
186.993
92.324
88.0447
88.6059
85.3873
175.371
181.989
177.841
84.3348
81.6015
82.6991
81.1229
164.619
175.724
172.712
82.077
84.2273
80.9621
82.2464
150.178
166.02
155.606
85.8766
86.808
86.1878
88.6558
118.502
143.433
134.085
86.3852
84.2641
88.6848
87.6228
85.3067
121.304
103.235
78.2727
60.8632
86.3824
83.028
73.9094
92.7078
81.0139
46.5952
32.2496
66.7308
42.3008
195.666
214.968
193.799
125.682
98.2913
125.493
97.8803
143.199
270.054
308.016
171.582
139.726
170.914
279.105
108.103
262.375
266.258
105.621
103.445
110.684
272.788
111.018
291.814
296.641
105.514
106.738
109.258
301.484
116.548
293.972
297.733
109.751
111.653
115.62
292.415
110.87
281.11
302.282
116.101
116.64
112.161
304.825
110.81
257.638
287.605
122.208
122.332
111.457
269.202
102.093
188.269
191.66
115.229
108.61
107.435
180.64
61.6627
147.712
142.799
83.3199
71.6831
70.8621
140.566
88.537
96.4016
87.8227
33.7269
27.2061
34.8306
29.2896
183.55
205.085
178.55
116.936
92.4706
116.988
91.9583
128.312
258.154
282.144
157.928
130.026
157.214
255.441
90.0735
248.945
235.403
96.7638
93.629
94.3744
235.792
84.0797
253.275
239.385
92.5133
92.4453
84.7945
238.632
75.5356
260.572
234.859
88.8366
86.5089
78.6297
227.919
67.8877
231.502
195.58
79.8621
79.5875
68.1237
186.316
67.336
180.496
164.903
79.1307
77.0653
68.309
156.549
66.493
141.212
139.092
66.7345
65.3208
66.8255
137.837
60.2883
142.301
141.103
60.0323
58.8471
61.9368
143.042
84.6394
92.3612
80.697
36.361
31.3341
38.2663
34.8373
179.91
207.481
177.748
120.182
92.9124
117.184
90.0812
126.034
238.197
271.012
156.32
126.102
156.851
238.827
84.6133
208.405
206.402
88.9403
83.7856
89.6685
204.977
76.2456
218.249
211.988
77.4054
76.3322
77.3085
214.599
70.943
203.834
212.49
71.7108
69.8311
72.5185
207.624
67.3165
175.874
188.295
66.7079
67.1191
67.4
181.268
70.829
159.336
168.228
71.1071
70.971
70.7925
166.142
66.7626
156.865
163.014
67.1696
65.4389
68.0037
162.512
63.8695
153.826
160.626
62.0453
61.931
64.2583
160.317
89.087
109.161
102.135
40.0278
35.0131
39.1453
33.5178
167.357
197.351
184.874
103.375
88.6639
104.219
97.3264
130.199
232.865
264.679
146.884
125.16
150.021
236.287
98.5597
197.987
208.005
99.1106
96.563
101.896
203.5
88.2582
203.185
196.771
85.4764
82.4201
91.0045
199.473
86.1801
223.383
212.218
80.9857
81.0993
86.5249
218.199
88.9354
219.358
226.005
81.1471
80.6024
87.9695
223.91
83.6066
168.15
183.348
73.8908
71.8894
86.6483
172.221
67.1341
164.331
161.803
68.2349
66.6618
70.298
161.847
60.2416
166.864
164.726
63.2839
62.1718
61.219
165.734
101.916
104.797
96.7223
37.2153
31.0127
37.0761
30.958
155.551
178.286
155.753
99.6158
82.2465
97.592
78.4929
133.953
144.948
133.905
70.3804
65.0559
69.3985
66.2842
123.151
122.04
110.165
62.7337
61.6773
62.278
58.7357
108.224
100.624
93.7559
60.0889
58.8534
55.7945
53.5131
96.8212
91.7232
89.8087
57.0756
54.5713
51.509
49.5791
94.7427
91.5734
91.8505