/*--------------------------------*- C++ -*----------------------------------*\
  =========                 |
  \\      /  F ield         | OpenFOAM: The Open Source CFD Toolbox
   \\    /   O peration     | Website:  https://openfoam.org
    \\  /    A nd           | Version:  10
     \\/     M anipulation  |
\*---------------------------------------------------------------------------*/
FoamFile
{
    format      ascii;
    class       volScalarField;
    location    "9.9";
    object      omega_0;
}
// * * * * * * * * * * * * * * * * * * * * * * * * * * * * * * * * * * * * * //

dimensions      [0 0 -1 0 0 0 0];

internalField   nonuniform List<scalar> 
12920
(
131.984
190.45
181.922
163.049
133.168
114.835
103.202
95.078
83.0946
70.2843
60.4507
54.344
50.2691
47.29
45.3608
43.8175
43.0215
42.2973
41.8843
40.6275
117.588
173.893
174.39
175.644
163.686
152.735
133.246
116.894
98.559
80.3867
66.7599
60.412
57.9069
57.0986
56.9129
57.0254
57.4237
57.7158
58.1794
58.1398
62.5343
111.842
145.557
153.821
141.602
114.864
91.9704
80.0759
69.9953
65.3287
61.111
59.7194
58.4767
58.0645
57.8337
57.3294
57.0912
56.4488
56.155
55.2861
90.9168
146.689
151.222
143.124
118.328
98.2759
83.339
73.8094
65.5396
60.8073
57.121
55.2864
53.6119
52.598
51.8806
51.0146
50.5346
49.8305
49.6031
48.9644
265.665
206.86
173.07
144.205
128.894
114.694
106.755
94.5386
84.0227
72.7714
64.7169
58.1488
53.3152
50.903
49.3337
48.1506
47.5536
47.0304
46.8927
46.5315
195.829
177.148
178.077
167.451
148.906
141.02
132.358
129.721
123.939
109.963
89.9547
70.7661
57.2173
50.5321
47.5345
45.8775
45.0235
44.723
44.7691
44.8452
32.3639
129.576
157.72
152.476
141.281
137.204
130.172
125.421
117.992
108.163
92.8913
73.2808
58.1915
50.73
47.316
45.1465
43.6913
42.7035
42.3983
42.3095
42.5548
126.187
181.076
182.011
159.593
143.586
221.614
191.89
183.509
169.516
157.416
137.32
98.4163
82.9039
55.1381
51.0896
47.552
44.1899
42.7413
41.1018
64.9025
141.82
163.631
169.064
154.949
222.37
316.477
255.77
287.446
296.745
284.389
268.67
189.968
156.598
95.4778
56.209
51.7808
47.4914
44.9739
41.6943
52.4787
206.072
197.024
169.662
145.645
205.86
285.118
246.173
256.444
258.419
241.497
194.732
146.7
140.076
94.3825
53.2892
50.9447
48.9773
47.2052
43.2103
70.1115
186.493
189.883
179.452
149.697
211.481
271.028
208.171
218.226
210.188
182.617
161.938
157.441
155.041
100.365
60.3113
55.6903
52.3894
49.9302
44.4998
184.245
219.894
203.476
166.19
133.835
187.211
261.617
204.305
197.993
218.277
225.559
174.756
164.084
166.656
110.793
63.4172
58.9287
52.9021
47.4554
42.1053
242.043
202.489
187.641
163.722
137.939
120.432
179.439
141.451
129.015
115.796
101.288
94.8967
95.1926
94.8465
57.9952
53.6378
49.3464
45.0862
42.0838
39.7961
322.107
301.802
202.929
146.547
127.368
114.302
97.1244
84.3793
74.1047
68.1974
63.988
60.7459
57.2898
53.6732
50.2348
47.1966
44.979
43.2847
42.5023
40.7893
131.469
169.061
153.038
141.532
133.262
121.103
103.693
94.5401
85.4507
79.1978
71.989
66.2462
61.0094
56.1989
51.9021
48.6305
46.4937
45.4822
45.2036
44.2683
39.5125
88.9734
136.676
147.151
144.869
137.205
118.296
106.261
94.9087
86.1863
77.0057
69.9717
64.187
59.8391
55.7912
52.775
50.5715
48.8859
48.2956
46.9236
116.024
170.14
180.09
173.831
152.656
133.595
113.642
101.617
90.2024
80.7801
71.6715
64.8946
59.9768
56.7071
54.0393
52.0875
50.8688
49.5037
48.8659
47.2201
235.14
228.09
169.61
154.413
138.846
125.634
109.992
98.9787
86.6802
76.0091
67.0667
61.3668
57.5054
54.7177
52.2968
50.3165
49.1604
47.9761
47.4988
46.384
124.329
162.274
147.712
128.385
120.037
112.234
99.6464
88.7932
77.9736
70.4312
64.4949
61.4464
58.6506
55.6972
52.6532
49.792
47.5584
45.9106
45.4381
45.1106
103.005
127.689
115.986
99.2218
93.3397
89.9608
82.6868
74.5949
66.5242
60.0013
55.5181
52.5962
50.4446
48.0421
45.5935
42.8863
40.8717
37.9284
35.758
32.3185
24.7099
98.6345
98.7694
86.7044
72.7593
64.4766
56.2875
48.9012
40.5551
35.1205
32.1981
30.6726
29.0701
27.5969
26.2823
25.3466
24.8439
24.6184
24.5728
24.2389
120.672
141.438
110.782
91.9486
78.7873
74.0846
70.4156
69.5051
67.8361
57.7038
43.0276
35.4039
31.7466
30.0496
29.3057
29.0617
29.0837
29.173
29.2586
29.3885
104.502
129.157
122.61
97.1702
82.45
66.6524
52.1652
42.1394
36.5151
33.5314
31.3016
29.729
28.4989
27.7726
27.5516
27.2683
27.2408
27.1555
27.1637
27.1463
128.622
128.248
93.8984
78.1532
63.8948
50.8954
43.5852
38.0143
35.4471
33.0439
31.5881
29.527
27.6203
25.9121
25.0358
24.4384
24.1974
23.9617
23.8816
23.7249
300.997
135.29
96.8966
77.7843
67.8912
58.9754
55.0554
48.9606
46.5257
42.0834
39.5
34.0695
29.598
25.94
24.167
23.3205
23.0802
22.9835
22.9762
22.9235
143.041
138.332
117.705
98.5984
80.8157
72.7436
67.2655
67.1876
66.8194
66.5145
64.0598
51.4516
36.3209
27.3042
23.2794
21.9253
21.5278
21.5185
21.6299
22.0307
120.445
125.451
110.15
90.9479
77.5104
69.0204
65.7725
65.3164
65.746
67.3129
66.99
59.2739
39.79
27.6731
23.1013
21.5956
21.0006
20.8246
20.8422
21.0443
133.109
148.153
128.523
100.136
78.6898
66.7133
72.6695
70.0718
67.5434
68.029
71.0355
73.0416
70.3661
36.5115
24.1911
22.9068
22.1535
21.6212
21.4989
21.2338
334.909
227.709
128.615
95.6859
74.6893
73.5517
69.2213
62.4953
61.9902
63.4529
66.1335
69.9433
78.1396
49.1194
26.2922
24.6162
24.2956
23.5028
23.1684
22.4278
137.422
135.84
113.313
90.6156
73.3787
71.544
64.0826
51.5691
48.1047
47.0622
50.2511
55.8679
44.3837
31.6139
28.298
28.6936
28.2342
27.0944
26.219
24.0437
147.587
132.411
114.99
97.1282
76.4504
73.0079
62.0815
48.4492
39.853
35.1279
36.3719
38.3556
36.2103
33.6133
31.9247
30.5885
30.2097
29.4231
28.0066
24.2935
299.984
129.822
99.9889
78.0604
64.4369
63.932
62.1405
55.2587
49.3873
45.6069
46.3658
46.6618
35.8789
31.9804
28.9307
27.151
27.384
27.1165
25.8882
22.3028
250.222
140.829
106.268
76.8155
62.8055
53.3668
56.308
51.6179
48.7814
47.7087
44.8657
38.1619
32.3439
29.268
25.3169
24.5878
23.9109
22.6711
21.106
19.8699
313.033
197.345
123.899
86.2444
69.7809
59.8314
48.0461
41.8823
37.9736
35.5931
33.6083
31.6232
29.6117
27.4923
25.3665
23.4782
22.1552
21.2646
20.6378
19.9317
372.598
182.138
123.535
108.648
92.153
74.5325
56.6867
46.5201
40.2123
36.871
34.084
31.8522
30.0923
28.5873
26.6964
24.775
23.2547
22.4332
22.2053
21.8274
162.059
112.264
104.698
98.7262
85.4878
73.2944
60.623
52.4613
46.3204
41.6485
37.4256
33.9086
31.2414
29.109
27.6845
26.4421
25.4366
24.5914
24.2778
23.6395
314.941
161.536
112.392
92.4861
76.1002
65.4532
56.6033
50.5146
45.4089
40.5365
35.9499
31.8435
28.9581
27.2195
26.1771
25.3839
25.0496
24.6548
24.4614
23.9159
178.66
173.59
110.555
94.4187
80.5405
66.9045
57.9589
51.91
46.7329
41.3941
36.2683
31.6285
28.4668
26.707
25.7892
25.1697
24.8531
24.5464
24.3867
23.963
208.573
141.771
117.489
110.332
94.9437
76.5702
63.8989
54.5325
46.6448
40.3587
35.3804
32.4852
30.8153
29.8368
29.0282
28.086
27.1226
26.1567
25.522
24.5942
49.7385
65.6195
63.5002
62.2008
57.7503
53.8753
48.208
42.5369
37.0646
33.7166
31.9485
31.1217
30.2588
29.1884
27.9246
26.5522
25.3523
23.7208
21.9869
19.6646
87.6975
117.717
104.518
88.4369
73.3348
62.7039
54.393
46.9264
40.6642
37.9704
36.4179
35.2097
33.5573
31.8721
30.4581
29.2453
28.41
27.5206
27.201
26.4597
278.121
162.466
100.466
76.942
63.4365
58.6988
55.1828
53.9087
49.2618
42.2646
36.2137
33.2789
31.8312
31.5141
31.5256
31.7314
32.1141
32.2497
32.1968
31.7767
221.785
154.47
103.421
76.749
58.9747
47.9397
39.5713
35.1237
31.8738
30.1634
28.6727
27.9031
27.3059
27.1683
27.2121
27.2062
27.2504
27.1978
27.1683
27.0172
379.582
155.335
88.3123
63.0935
50.6189
41.0107
36.4396
32.6198
30.7015
29.0004
27.664
26.4177
25.274
24.4645
24.0808
23.7585
23.6163
23.4369
23.3637
23.2391
462.231
215.488
93.5197
66.7163
58.7661
49.3305
45.333
39.8043
36.7314
33.0069
30.2948
27.5686
25.2562
23.6382
22.8385
22.4193
22.3124
22.2375
22.2228
22.1891
201.935
161.256
111.428
87.6609
70.0354
61.4748
55.125
52.9114
50.5329
47.1429
41.9306
33.8576
27.2629
23.4691
21.8267
21.2036
21.0714
21.0928
21.1991
21.4736
209.859
136.836
102.62
80.46
67.0278
59.3219
55.004
54.3245
53.8661
53.5321
50.6846
40.1287
28.805
23.3586
21.5404
20.8496
20.6379
20.6187
20.6759
20.8767
481.916
283.247
137.02
97.8775
72.4928
60.1872
56.6647
56.2014
56.2847
59.524
64.532
68.8792
55.1961
27.4934
23.4646
22.3543
21.7302
21.3252
21.2014
20.9899
254.601
172.857
132.928
92.723
65.2952
57.3372
53.2974
51.6664
52.6258
56.0975
62.8486
70.3196
70.1946
31.372
24.6399
25.5105
24.5258
23.4274
22.9073
21.9589
118.298
146.742
119.043
82.5996
61.9562
54.0232
47.6927
42.1989
40.9703
42.103
45.3154
43.8263
33.091
27.3857
27.6061
30.6504
28.7769
26.4909
25.2471
23.3811
252.425
137.902
107.268
82.3131
61.6184
53.4685
44.9024
38.5556
34.0229
32.392
83.8446
58.3236
45.7614
37.9783
33.8353
32.3774
30.1333
27.4625
25.5797
23.3404
279.934
128.4
92.2441
64.3244
52.2241
47.9151
46.1027
42.8256
40.3248
38.7809
38.2024
34.9682
30.3714
28.7919
28.0754
27.689
26.6391
24.9984
23.4037
21.954
159.496
180.352
121.675
70.3021
54.4033
45.5806
42.6051
40.0436
38.1335
37.0713
34.0082
30.1608
27.3648
25.7203
24.4
23.3868
22.4558
21.5254
20.7775
20.4699
211.385
175.593
104.454
72.6592
58.1829
49.0002
40.0909
35.291
32.4191
30.2955
28.6314
27.0115
25.4549
23.9334
22.6996
21.6748
20.9815
20.5415
20.201
20.0786
490.937
151.207
110.067
94.0636
75.2379
60.4128
45.8545
39.3474
34.2995
31.4904
29.1303
27.4069
25.9163
24.6047
23.3848
22.3901
21.722
21.3725
21.2459
21.0173
203.077
130.615
110.765
98.3956
80.744
64.9853
51.3868
44.002
38.3209
34.4989
31.1336
28.7172
26.864
25.4827
24.5157
23.7939
23.2908
22.8998
22.728
22.3504
202.479
153.303
109.588
84.6211
66.6741
55.1796
46.9644
42.3458
37.7877
33.9942
30.3173
27.7064
25.8769
24.7795
24.1417
23.7349
23.5656
23.3675
23.2571
22.9741
245.659
125.933
95.2463
75.8321
62.6423
53.5239
46.7441
42.6716
38.0719
34.2587
30.5284
27.9322
26.152
25.1244
24.5856
24.2942
24.193
24.0923
24.031
23.8489
193.99
126.833
107.725
94.0175
73.2243
59.1826
48.6841
43.0352
37.8565
34.7712
32.059
30.6365
29.4687
28.7128
28.0086
27.3257
26.7568
26.2222
25.909
25.5611
81.1768
67.1562
67.626
67.1282
63.7877
58.0909
51.3129
45.0006
39.9212
36.7954
34.8044
33.29
31.8867
30.4817
29.1558
27.5837
26.0252
24.2019
22.9564
21.4797
108.943
131.878
106.34
82.9539
67.8757
55.4838
48.4997
43.5314
40.4883
39.1354
37.7469
36.3178
34.6569
32.9741
31.834
30.7295
30.0683
28.9727
28.4231
27.0901
345.894
284.965
123.553
70.8809
60.5789
52.1986
50.1867
47.5046
45.2324
42.8892
41.9182
42.1174
42.8643
43.7093
44.3087
44.7819
45.0329
44.9781
44.6607
43.5834
430.307
174.921
96.2342
64.748
54.1211
42.4646
39.7112
35.5125
35.2553
34.074
34.2944
34.3528
34.8291
35.2955
35.8384
35.9904
36.0781
35.851
35.6643
35.2034
234.255
134.794
89.0132
59.7664
51.4345
39.9295
38.4317
33.7742
33.6052
31.9739
31.919
31.3049
31.3489
31.2031
31.2817
31.102
31.0324
30.8138
30.6929
30.6427
376.893
238.081
103.74
64.9353
60.0788
46.2483
44.4301
37.4489
36.0295
32.9063
32.1034
30.7085
30.2141
29.6995
29.7104
29.5353
29.5626
29.4801
29.4584
29.5159
202.66
140.562
105.164
80.3058
70.1074
57.922
53.1419
47.0477
43.5405
38.6251
35.6631
32.3404
30.2131
29.0747
28.8702
28.5768
28.6203
28.6434
28.7336
28.9814
157.381
121.332
104.407
78.8379
69.812
57.9266
54.4351
49.7308
47.522
43.3769
39.7774
33.9968
30.4692
28.8768
28.7752
28.5165
28.5829
28.6222
28.7352
28.9327
211.2
165.317
133.361
98.4356
77.2449
62.0753
57.2734
55.0477
52.8054
54.7555
56.2628
53.244
37.576
30.8961
32.6829
30.7612
29.9323
29.4778
29.3435
29.2906
195.807
167.887
139.771
91.6902
66.2022
57.5742
53.5944
52.2847
51.9346
55.0496
59.6507
59.4862
42.8826
33.5695
34.5616
35.2421
32.7923
31.3319
30.5971
30.1225
258.15
181.246
122.28
77.9919
60.3589
52.0708
46.7146
43.898
42.7535
42.4148
41.2501
37.9922
35.9429
36.1598
38.2378
39.0291
35.5408
33.2436
32.1443
31.1842
222.608
144.227
103.819
70.9863
57.7517
49.8518
43.1831
40.0804
37.6417
36.102
57.5866
55.5218
47.517
43.3338
42.4282
40.058
36.1901
33.3606
32.073
31.2754
236.684
135.073
93.2005
60.1187
52.9743
46.77
44.7889
42.9781
40.849
39.3812
37.7541
36.2864
36.6004
37.2505
38.0602
36.289
33.164
31.3294
30.7313
30.6874
269.713
252.18
143.788
74.0161
58.6821
47.4238
43.3756
39.4241
37.3988
36.2381
34.5345
33.4318
32.9543
32.5557
32.2556
30.1988
29.3137
29.1857
29.2643
29.7014
183.652
183.705
114.766
68.4796
60.1057
48.1111
41.8511
36.7725
34.9721
32.7694
31.9866
30.6892
29.8429
28.8475
28.4141
27.979
27.9875
28.087
28.2384
28.7305
216.058
127.172
109.687
80.8733
70.6716
55.6573
46.6336
40.9169
37.0191
34.2564
32.5717
31.1359
30.1102
29.1373
28.6124
28.3174
28.3302
28.4001
28.3928
28.6086
270.011
147.076
119.919
95.0784
78.0532
60.9964
51.329
44.5263
40.403
36.8372
34.5075
32.6131
31.4261
30.4598
30.0187
29.7116
29.6913
29.6677
29.5657
29.5859
160.842
143.965
112.37
79.524
65.9593
53.1421
48.3254
43.5963
40.3497
36.8507
34.2845
32.3296
31.2625
30.5207
30.3905
30.3547
30.4753
30.5653
30.5643
30.6801
161.887
124.988
95.9877
67.2065
60.3519
51.2583
48.1298
44.4174
41.2917
38.1496
35.6379
33.7649
32.7898
32.0669
32.0141
32.0362
32.2398
32.412
32.4539
32.5714
148.246
129.382
100.406
74.5302
63.6614
54.3344
48.6714
45.5138
42.5326
40.7027
39.1179
37.9752
37.0011
36.2134
35.8445
35.6861
35.7719
35.9303
36.0298
36.2299
51.8618
61.7926
67.3597
66.1829
62.7471
56.373
49.8844
44.2286
40.2453
37.3518
35.0558
32.7979
30.8595
29.0098
27.522
26.0154
24.9124
23.7524
23.2292
22.3688
138.862
157.034
105.1
73.238
60.2014
48.7737
44.5436
41.399
39.5271
37.9787
36.5196
34.9957
33.6302
32.343
31.1669
29.6067
28.1322
26.5549
25.7475
24.5442
601.359
419.548
178.088
80.2177
71.7131
53.2693
57.0843
49.0842
55.1894
53.5332
58.2493
58.1181
60.5079
60.5975
61.3728
60.9524
60.8312
60.2493
59.9646
58.9736
320.937
187.286
109.276
70.2296
64.9815
48.0317
49.9053
41.3581
45.8529
42.5076
46.5184
45.7181
48.316
48.2505
49.4346
49.2783
49.5647
49.1548
49.0012
48.4953
184.088
138.509
101.449
70.256
62.6428
48.3264
48.9098
40.4599
43.5571
39.976
43.3154
42.4795
44.5579
44.1728
44.8392
44.469
44.633
44.3468
44.2636
44.1868
255.302
172.659
110.847
75.3801
70.3001
50.1524
53.396
40.9436
44.0211
38.8591
42.2449
41.0485
43.3359
42.7955
43.533
43.1239
43.4397
43.2519
43.2982
43.3197
457.649
139.065
109.107
78.8257
78.0669
57.5214
58.9536
46.6654
46.3639
40.7672
42.4766
41.7817
43.4891
42.9225
42.8939
42.3696
42.5013
42.5006
42.6243
42.9417
249.197
126.337
112.705
80.0886
79.9867
58.3017
60.0332
48.2885
48.0971
41.5309
43.0852
41.4493
43.6319
42.9949
43.2333
42.517
42.7747
42.7305
42.9289
43.1886
202.717
151.875
138.283
95.4882
87.0611
64.7714
63.9939
56.8027
54.3036
50.2011
50.1359
49.0689
50.0491
49.5466
48.1934
45.4271
44.4256
44.0886
44.0421
44.0432
240.833
158.816
137.477
86.3546
74.8461
62.0341
62.406
60.1176
58.1013
56.0631
55.405
55.1518
55.9144
56.6265
56.7385
49.397
47.0223
45.8922
45.6783
45.4214
377.388
211.432
132.587
76.6336
69.2112
57.466
56.394
57.3156
55.4943
53.3056
53.57
57.1266
60.6927
61.4308
59.7974
51.7439
48.9106
47.7243
47.3361
46.7225
527.853
167.351
109.356
69.3111
66.659
54.7663
53.0434
55.2846
54.4079
52.1328
54.4334
58.5496
63.8164
63.8547
61.2486
52.4859
49.435
48.0194
47.4334
46.8409
346.611
155.623
99.3906
66.7977
64.2358
54.6628
56.9121
56.7625
55.1583
54.2433
55.2648
57.7182
60.0532
60.8398
59.0149
50.3132
47.4088
46.2164
45.8084
45.8397
422.645
232.882
145.596
74.4652
74.6227
57.6343
53.3927
46.5886
47.7124
46.8451
48.9601
49.818
51.4851
51.5418
47.4848
45.0421
44.1575
43.9969
43.9492
44.5346
187.818
165.951
126.921
70.2826
79.1764
53.2536
51.232
44.1397
44.4291
41.9385
43.4256
42.543
43.4413
43.0345
43.134
42.6713
42.746
42.7718
42.8714
43.5375
280.107
149.109
115.918
75.9797
79.9479
56.0418
57.4834
47.7949
47.0836
43.4724
43.8656
42.7584
43.122
42.7055
42.8809
42.8799
43.1518
43.337
43.371
43.6345
277.224
145.498
125.427
84.0772
82.1971
59.1538
59.7254
50.3746
50.8144
46.3664
46.6821
44.6995
45.026
44.2227
44.5822
44.4459
44.779
44.8038
44.7789
44.767
280.199
161.598
118.081
74.2664
73.2285
54.7906
58.9727
50.4797
52.0711
47.2979
47.4809
45.2203
45.4429
44.685
45.1237
45.1764
45.6224
45.7873
45.869
46.0238
301.116
130.623
102.782
65.817
71.2231
55.1358
61.3358
53.3754
55.4189
50.7502
50.9443
48.4293
48.385
47.2851
47.584
47.4918
47.9255
48.0807
48.149
48.3214
211.787
149.902
121.898
67.825
78.6821
60.8335
67.522
59.2941
61.9668
57.7369
58.1321
55.5725
55.2119
53.8414
53.7692
53.4762
53.7445
53.9396
54.0979
54.4679
66.0394
73.8462
71.4493
62.8617
56.2224
50.0057
45.2736
41.4418
38.1381
34.6166
31.4474
28.6938
26.8759
25.512
24.6738
23.8763
23.4082
22.7464
22.4466
21.7814
44.5835
33.6978
79.5454
41.7779
41.8122
35.6403
79.7473
45.3129
78.2263
59.6521
41.5183
39.0642
80.4312
68.2816
85.5781
36.1016
35.5065
34.3697
86.344
36.7387
35.8285
65.1032
35.3825
34.5028
87.8595
74.9942
35.6304
35.0098
252.241
302.689
264.513
83.7422
70.4988
80.32
63.9307
281.225
267.404
288.126
69.1789
67.8408
60.9939
58.6436
297.273
287.815
271.041
67.9158
68.7162
58.922
59.9591
286.195
272.055
295.187
69.1958
70.8341
59.5198
58.2207
274.477
296.278
262.931
71.5116
73.8541
58.9267
66.4409
203.163
234.465
174.484
75.2213
78.419
68.2515
65.8089
173.816
159.826
139.881
80.5172
76.3143
60.5503
40.0296
126.791
139.899
132.417
57.948
31.951
36.1989
31.0998
245.015
270.588
217.824
76.3715
61.1752
74.6832
58.1002
256.866
214.477
218.943
57.994
53.7961
54.5588
46.2893
252.612
221.023
218.065
53.5376
52.2547
44.3421
40.2253
252.8
211.965
184.006
51.3722
51.2076
39.3306
38.7111
210.279
172.951
150.676
52.5544
58.1645
39.3943
42.4226
155.954
146.185
142.35
58.623
52.6231
42.8342
41.3408
139.291
143.257
148.232
48.7184
37.5234
40.0013
36.5506
133.927
148.381
132.764
35.4688
31.3451
35.7867
33.7464
211.821
271.604
211.014
74.7102
58.0635
73.7154
61.0285
215.87
201.641
198.236
54.6648
46.5479
59.1787
52.8222
215.563
203.717
215.522
44.437
39.9907
50.357
46.0072
189.86
217.471
214.165
39.0643
38.4336
45.3803
44.3525
165.306
205.315
172.885
38.9366
41.4443
44.356
44.969
157.82
166.943
163.647
41.6896
40.393
44.8327
40.5209
155.791
164.468
166.378
39.4042
36.9727
39.2926
37.0125
135.209
166.581
156.39
36.4896
34.4509
36.5855
34.0029
209.775
315.068
238.428
73.9777
63.7396
82.4711
68.107
195.604
232.178
218.049
62.2151
57.0461
64.6298
59.8441
212.77
216.001
213.168
54.5357
50.2546
58.8802
57.5349
227.127
211.543
204.016
49.836
49.8686
57.5973
58.5189
187.06
200.583
177.368
50.43
51.6599
58.8526
58.2915
164.079
169.677
158.089
51.2804
42.575
56.6267
43.8103
166.159
158.136
158.847
40.2787
36.4497
40.6277
35.4779
157.728
159.383
142.884
35.782
33.2876
34.6307
31.1866
63.3912
66.8321
56.5782
55.0952
52.9238
51.8767
46.789
61.906
54.4613
52.7616
52.8741
53.4451
45.9508
45.4582
62.9489
52.9538
53.8624
53.8065
55.7359
45.6565
47.0368
65.3894
53.8138
54.552
56.806
61.0088
47.8141
51.4144
68.8144
55.9121
63.6349
62.6364
67.4528
53.174
58.2218
74.8247
65.4609
62.2111
69.1461
76.3936
58.242
47.3908
68.0143
56.0218
35.7222
75.2801
44.0213
41.5597
29.1734
28.7566
32.2939
28.6169
34.1133
24.6456
27.4249
25.5916
53.9059
62.3139
50.9416
49.8366
44.2932
47.3294
41.0105
48.367
48.2229
41.4722
43.2249
41.7884
39.4823
35.5422
47.3495
39.7262
36.1072
41.7009
42.1628
34.4687
32.4703
48.461
35.4772
36.3931
42.66
45.4231
32.8063
50.7605
55.6181
37.3584
39.4886
46.6082
48.1004
51.415
46.7446
48.6668
39.5936
37.5953
47.1594
38.1225
44.4184
39.0305
33.45
36.421
33.4602
34.8628
28.3689
37.6579
34.4271
28.8463
32.7909
31.8197
27.3938
26.0295
33.469
32.0446
51.003
61.5995
54.0962
47.2131
41.1798
48.0227
44.0535
41.7715
52.7655
47.8592
39.7548
35.6926
43.3885
40.489
35.8474
45.8221
41.9408
34.4853
32.0684
39.3514
37.0711
35.6676
41.3832
40.7392
32.1056
50.318
36.6985
36.1658
38.251
40.8212
41.2733
50.6998
47.3942
36.1053
35.3967
37.0488
40.9332
36.38
45.4988
41.5068
34.6127
31.8334
34.0779
35.2234
33.1317
40.2391
36.623
31.1645
29.8921
32.5524
32.745
31.3798
35.5242
33.1511
29.6296
28.827
56.3717
64.1765
58.1555
48.3177
45.044
47.8486
44.7868
51.2812
56.1018
53.3525
44.541
42.5102
44.0405
43.3338
45.9395
52.7745
52.145
41.6232
39.9755
43.1464
42.9765
45.7833
52.2339
53.2011
39.8038
39.687
43.0189
42.9282
47.3158
53.4362
52.2007
39.6929
38.3222
42.5675
38.8106
37.9618
49.6734
38.2253
36.7644
31.7189
36.4761
30.6528
32.5548
35.6072
31.3364
30.6536
28.8963
29.3816
27.1286
30.6453
30.6165
28.5009
28.5731
28.0211
26.7098
25.5631
51.6667
49.6819
45.5391
52.6838
51.4873
48.0317
45.4639
52.2659
44.8937
44.5332
51.4011
51.3514
45.0963
44.5923
54.8451
44.7207
46.2054
51.5711
53.8242
44.637
45.5886
60.982
47.0723
50.5698
55.2139
59.9266
46.0871
46.8823
68.333
52.0519
55.0206
61.6332
64.8997
46.8917
44.6862
74.0561
54.3196
42.7544
64.7065
54.5273
42.8689
36.1334
38.2995
37.9296
28.4996
46.8215
32.7096
34.3458
31.5802
24.5989
27.2145
25.8507
30.7514
28.5617
31.3016
30.9744
43.0688
45.0119
39.6377
46.0167
43.0721
42.8393
39.3433
41.0243
38.3162
34.9509
42.5444
41.5835
38.5133
36.3878
41.5722
34.0499
32.5456
41.487
41.6606
35.8165
34.6954
39.0801
42.6772
37.4388
41.7339
38.6514
42.2291
37.4079
41.6198
45.752
42.1941
43.9174
41.8976
43.8887
42.3149
35.7115
53.458
43.3732
37.7686
34.0211
62.0874
47.9647
28.1171
41.243
36.5727
33.1706
31.953
45.3916
40.5354
26.3151
35.2795
33.2776
31.8649
31.6247
39.4524
38.057
39.799
45.7989
42.5219
42.6719
39.4375
43.7879
41.8457
35.0382
41.9291
39.3375
38.6369
36.3695
41.3364
39.235
32.118
38.3809
36.4543
35.7314
34.3603
38.6116
37.1541
41.7962
62.5898
32.6242
38.8487
36.584
229.364
33.1164
48.3787
78.2776
42.075
193.704
42.3212
182.906
48.2539
48.1759
33.84
31.7158
68.0584
52.2256
34.7753
34.5417
39.65
31.2082
30.1918
49.1269
42.976
34.5589
34.5806
34.4528
29.972
29.2354
41.5876
39.178
34.5777
34.3586
43.2572
45.4022
42.878
44.0148
42.2291
43.8546
41.4143
41.0525
42.2087
41.5561
41.8122
40.1728
40.6143
39.3928
38.9647
41.3196
41.0549
39.6781
38.5866
39.0251
38.4417
38.3782
41.0177
40.4918
38.2652
37.1076
38.1682
36.8554
36.3158
39.9243
36.1775
36.6765
35.0286
36.1824
33.934
31.1626
34.3114
29.8235
34.4814
33.5279
33.1626
31.471
29.0363
28.8567
27.0755
33.4301
33.3559
31.1516
30.5771
28.384
26.7413
25.7322
33.3581
33.392
30.4471
29.864
52.4842
48.7237
46.6647
59.4266
58.4506
54.6328
54.776
51.8273
46.348
45.6643
57.6373
56.062
54.5895
53.248
53.8581
45.6294
46.1041
55.9133
55.5877
52.8728
51.5448
58.545
46.3276
46.1194
55.3907
54.961
51.0617
49.9139
60.6712
45.788
43.0446
54.9868
54.0189
49.857
50.128
48.2932
41.5797
37.2441
52.9099
50.3309
50.6565
52.6553
34.4517
36.3593
35.5621
50.1289
50.4577
53.206
54.0703
32.0984
35.5152
35.012
50.3017
49.8127
54.0772
53.5615
44.3397
43.3778
40.628
52.8278
52.9896
49.4608
50.0042
42.9071
39.9792
38.2303
52.8619
51.7187
50.0624
49.5197
42.5169
37.7091
36.2795
51.3457
49.5915
48.9204
46.6478
41.6524
36.5999
54.4614
49.0501
48.0411
46.0667
47.896
38.9404
55.957
54.9495
48.0825
48.7951
48.9226
50.9799
36.089
53.0254
46.5332
49.6236
53.0074
51.5782
56.0218
36.0911
45.1167
42.4349
53.7868
54.851
56.9828
57.7438
35.7154
41.8833
40.7491
54.8708
54.3344
57.6319
56.7183
40.7054
44.4711
43.0881
49.2298
50.1054
51.5089
52.4909
38.213
42.6054
40.6293
50.1898
49.6428
52.1734
50.7582
36.029
40.0842
38.6203
49.0453
46.7362
50.4677
48.8479
55.7614
38.1525
37.1332
46.1633
47.9771
48.3667
47.9768
57.177
36.9528
36.5743
49.0422
51.4286
48.1992
49.4381
49.1826
36.5221
37.2247
52.0617
56.5583
50.3191
53.9859
44.0808
37.5568
38.2866
57.5309
58.2066
54.7442
55.7914
41.5987
38.4054
38.077
58.0896
57.1084
55.8735
55.5704
43.4197
44.7058
42.2213
52.3983
52.6572
51.9145
48.3428
41.2979
41.2847
39.8438
52.1511
50.613
47.0438
45.9932
39.7588
39.5182
38.9958
50.4045
49.3553
46.229
46.4668
38.1455
38.6815
37.3683
48.9515
48.6523
46.1387
46.1233
36.547
36.832
35.3328
48.8762
49.9667
46.5039
47.5224
36.3885
34.8621
33.9422
50.7306
53.1727
47.6357
48.5215
37.1487
33.853
33.7667
53.7444
54.6388
48.8743
49.6236
37.0973
33.7278
33.048
54.7288
54.5505
49.6013
49.3494
61.244
58.0364
58.8887
72.6276
70.2923
69.8597
70.9426
58.3655
58.6683
56.9926
68.206
66.6563
70.2076
67.6388
56.8015
56.4741
54.8577
65.9016
62.7672
66.8971
66.4109
55.2644
54.3547
53.9196
61.1526
61.3761
66.4906
68.1297
55.5439
54.3055
56.1443
62.0246
64.9302
69.1065
71.9845
55.5295
56.9583
59.2296
65.5634
68.6796
72.566
73.4329
56.7942
59.8506
60.6756
69.3628
70.1689
73.5661
73.4176
56.0833
60.6452
59.7971
69.749
68.9119
73.2556
71.6369
57.4188
53.2232
54.9356
68.1821
70.089
66.0614
68.5464
55.9646
55.1331
54.6961
69.614
67.479
68.4702
67.8796
53.7936
54.2116
52.3604
67.1199
68.376
68.6082
73.2196
53.0984
51.8809
53.1505
68.9091
71.0583
74.5127
77.8591
55.9227
54.2211
57.0095
72.0298
74.6832
79.103
81.2606
59.9777
58.2323
62.7842
75.0398
74.9124
80.8144
78.2358
61.4834
63.5113
63.8025
74.6935
74.0365
77.253
75.1822
60.5241
63.577
62.2076
73.813
72.2138
74.7515
72.5429
55.0703
55.8852
57.3166
65.8651
68.6212
68.8332
69.8712
54.8827
56.9905
55.6653
68.5548
68.0719
69.2172
67.7649
52.5877
55.4234
54.2843
68.8391
73.5734
67.8748
70.5647
53.3756
53.9965
54.3957
74.9108
78.1567
71.585
73.698
57.3773
54.9306
56.9949
79.3782
81.5071
74.4594
76.0118
63.1136
58.0665
60.6325
80.9808
78.2261
75.8781
74.6073
64.073
61.2267
61.9431
77.2339
75.2025
74.2567
73.7115
62.5004
61.9689
61.3263
74.7968
72.7823
73.6027
72.1782
57.3539
56.12
51.5618
69.7573
69.4812
67.6767
61.6879
55.3093
50.2312
49.7178
68.572
67.0868
60.6107
60.7187
54.4706
50.2136
50.5535
66.9956
68.5369
61.3079
61.0121
54.7408
50.2639
50.8793
69.2618
71.0539
61.0109
62.3554
57.0274
51.5099
52.8207
71.757
73.2085
63.3422
64.6929
59.5639
52.9906
54.133
73.2406
72.8252
65.0561
66.6065
60.786
54.5709
55.4427
72.8091
72.762
67.2006
67.9404
60.3411
55.4269
55.123
72.7314
71.5736
67.9387
67.1968
41.6937
43.6895
42.0721
43.6375
40.9212
43.0804
42.5244
47.495
34.6364
55.7538
39.0215
40.0621
35.4095
176.085
63.1792
52.1704
74.5142
199.291
49.1373
65.0685
218.846
39.1874
41.5979
41.805
38.1771
41.8936
37.6303
39.0085
41.3581
42.5857
41.9177
40.579
42.3952
41.8605
40.299
48.7086
40.2633
36.3268
58.5893
35.9889
183.691
41.732
62.4542
213.644
50.8446
75.9971
64.1711
230.777
48.7939
40.6401
45.8095
40.1131
42.5859
41.2739
43.5425
39.1194
57.924
51.584
75.823
187.283
49.5857
62.5714
177.811
53.6892
43.5894
69.6587
86.4476
47.2193
46.8693
125.373
40.7831
42.5214
40.9862
40.3482
42.1957
41.542
39.7977
39.7857
40.3524
40.2061
37.8591
41.522
38.3259
38.9927
57.7084
201.013
50.5353
81.229
61.8013
189.383
49.5516
54.226
91.9353
44.9277
76.872
47.5526
132.853
48.0321
46.1357
82.6565
41.471
204.494
39.9429
215.644
47.7479
34.3284
33.7522
35.8368
35.8609
33.9359
33.8642
35.5827
35.0131
34.7736
35.6553
35.183
34.386
35.4453
35.3702
42.5001
40.2312
62.9254
34.7677
225.014
33.8278
38.9615
47.1381
214.699
80.8832
44.1465
225.096
48.8746
42.3983
34.8281
36.029
35.2866
36.375
34.3385
35.7158
35.5288
35.5362
35.2455
36.3942
36.0759
35.9492
35.463
36.0413
48.0974
76.951
42.3461
112.206
42.7002
170.875
47.4587
35.8361
35.0375
35.2255
35.0168
35.2174
35.6859
34.8283
35.8303
35.1593
34.9679
34.1318
35.2377
35.7689
34.5506
49.8274
203.42
87.4226
45.1866
191.406
49.5594
45.9953
49.5752
112.595
86.6933
46.7053
168.176
49.11
46.6846
36.3567
35.0547
36.6337
35.4516
36.185
34.8606
36.8545
36.3941
34.2716
37.0922
35.2512
36.3978
34.6077
36.9933
199.627
215.845
198.066
122.119
101.242
117.612
96.8318
188.819
191.163
187.169
92.6208
88.2654
88.9746
85.6781
175.48
182.028
177.878
84.5048
81.7961
82.8986
81.3079
164.704
175.762
172.683
82.2685
84.4471
81.1628
82.4767
150.241
165.845
155.347
86.0444
86.938
86.4565
88.8066
118.174
143.229
133.992
86.4703
84.3036
88.8112
87.7131
85.2591
120.975
102.857
78.138
60.3844
86.4945
82.8794
73.9719
92.5708
81.0555
46.2877
32.0752
66.034
41.9602
195.914
215.365
194.108
125.929
98.4171
125.724
97.9825
143.473
271.422
308.636
171.691
140.144
170.982
279.752
108.458
263.38
266.686
106.239
103.981
111.045
273.204
111.33
292.347
297.127
105.921
107.096
109.566
302.011
116.813
294.295
298.045
110.09
111.985
115.937
292.91
111.105
281.267
302.988
116.421
117.006
112.335
305.241
111.074
256.78
287.247
122.568
122.635
111.738
268.003
101.884
188.59
191.019
115.04
108.416
107.599
180.117
61.3156
147.533
142.693
82.6861
71.0886
70.2909
140.716
88.5665
96.5091
87.8609
33.6908
27.1908
34.8311
29.2602
183.893
205.24
178.71
117.104
92.5696
117.106
91.9958
128.572
258.745
282.966
158.224
130.33
157.47
256.05
90.2173
249.487
235.63
96.9546
93.849
94.5331
236.077
84.2278
253.746
239.759
92.7903
92.7189
84.9546
238.996
75.5266
261.103
235.127
88.9851
86.6297
78.6563
228
68.0279
231.536
195.339
80.0131
79.796
68.2234
186.178
67.4254
180.021
164.75
79.2587
77.0917
68.4312
156.362
66.5398
141.179
139.166
66.7404
65.34
66.9222
138.028
60.2994
142.644
141.452
60.0106
58.8587
61.9334
143.338
84.6452
92.4207
80.7119
36.37
31.3147
38.2908
34.8514
179.991
207.725
177.886
120.338
92.9106
117.261
90.0807
126.061
238.468
271.336
156.338
126.182
156.868
239.058
84.6543
208.53
206.388
89.009
83.8266
89.7456
205.033
76.2563
218.441
212.238
77.4338
76.3537
77.3298
214.816
70.9255
203.777
212.529
71.6936
69.8228
72.5013
207.605
67.3982
175.9
188.235
66.775
67.2283
67.4471
181.284
70.8559
159.575
168.481
71.1779
71.0278
70.839
166.426
66.7491
157.154
163.303
67.146
65.4141
67.976
162.786
63.9077
154.055
160.892
62.0656
61.9617
64.2677
160.575
89.1569
109.28
102.23
40.0543
35.0341
39.1616
33.5169
167.478
197.415
184.871
103.512
88.7452
104.269
97.4286
130.346
233.276
265.008
147.01
125.379
149.993
236.634
98.7795
198.089
208.335
99.3551
96.7705
102.071
203.619
88.3503
203.579
197.04
85.4133
82.3955
91.0395
199.872
86.3025
223.759
212.704
81.0659
81.1631
86.6507
218.771
89.0197
218.757
226.185
81.1882
80.5533
88.1409
223.932
83.3593
167.971
182.735
73.7544
71.799
86.5533
171.95
67.0812
164.613
162.042
68.2138
66.6661
70.1927
162.099
60.2767
167.107
164.99
63.3167
62.2078
61.2437
165.967
101.975
104.88
96.7657
37.2213
30.9861
37.0772
30.9222
155.674
178.49
155.925
99.7853
82.367
97.6955
78.6363
134.054
145.023
133.942
70.4802
65.1773
69.506
66.3671
123.215
122.074
110.16
62.8617
61.7645
62.3743
58.8186
108.256
100.596
93.7481
60.1672
58.9388
55.8399
53.5446
96.8899
91.7721
89.9052
57.1474
54.6022
51.5567
49.6103
94.8705
91.6678
91.9672
50.9632