/*--------------------------------*- C++ -*----------------------------------*\
  =========                 |
  \\      /  F ield         | OpenFOAM: The Open Source CFD Toolbox
   \\    /   O peration     | Website:  https://openfoam.org
    \\  /    A nd           | Version:  10
     \\/     M anipulation  |
\*---------------------------------------------------------------------------*/
FoamFile
{
    format      ascii;
    class       volScalarField;
    location    "9.9";
    object      p;
}
// * * * * * * * * * * * * * * * * * * * * * * * * * * * * * * * * * * * * * //

dimensions      [0 2 -2 0 0 0 0];

internalField   nonuniform List<scalar> 
12920
(
-349091
-15211.2
-172226
-79813.3
-107003
-75842.1
-93511.6
-70267.6
-80591.6
-64894.9
-66314.3
-56211.6
-53595.6
-46453.2
-42041.4
-35798.5
-30802.6
-24745
-21894.6
-19354.5
-97320.9
-8692.7
-146986
-72809.5
-107958
-74971.9
-92359.8
-70769.4
-81095.9
-65963.3
-66813.3
-56753
-54148.5
-46800.7
-42434.7
-36074.3
-30975.6
-24574
-21162.4
-17706.8
-316603
-38871.3
-101192
-58854.6
-97958.3
-69903
-91751
-70982.1
-80167.2
-65381.6
-66219.7
-56540.6
-54248.3
-46940.1
-42708.3
-36173.4
-31019.7
-24100.3
-20140.3
-16048.2
-41095
-36032
-98534.8
-57055.4
-87426
-66748.4
-83315.4
-68118.9
-76396.8
-65486.1
-66955.2
-58315
-55700.2
-48591.1
-43959
-37206
-31638.7
-24257.4
-19653
-14805.3
-187201
-23983.6
-35982.6
-34041.2
-72373
-58078
-80824.9
-65770.5
-77654.8
-67338
-69497.6
-61041.5
-57853.8
-50632.7
-45777.4
-38452.4
-32567.5
-24521.4
-19481.1
-14388.7
-462875
-7863.34
-95274.5
-47992.1
-77148.8
-60710.6
-78737.1
-69389.6
-77770.2
-71002.2
-72187.9
-65622.7
-61175.3
-54536.2
-48198.5
-40748.6
-33913.8
-25312.5
-19518.2
-14072.7
-166927
-10231.3
-57764.6
-43393.7
-80575.4
-65346.4
-83114.7
-74039.5
-81740.1
-74141.2
-75628.2
-69643.3
-65831.2
-58398.5
-51346.8
-42944.7
-35839.4
-26568
-20293.3
-14370
-215055
3511.83
-64207.6
-44458.1
-83964.6
-73087.2
-85721.8
-82585
-86063.9
-84116.5
-83278.9
-77440.9
-71155.4
-63176.4
-54058
-46032.9
-37932.5
-28389.7
-21387.5
-15273.9
-90352.5
-21507.7
-94832
-61244.2
-104946
-89015.1
-91719.9
-91886.5
-93137.9
-91442.9
-89207.5
-84384.8
-76518.8
-67675.7
-60271
-48837.3
-40619.3
-30297.3
-22903.2
-16398.2
4185.83
-21719.7
-109075
-77473.1
-120964
-105288
-106509
-107160
-106304
-103861
-99296.6
-91880
-83299.4
-74108.5
-64308.6
-52704.4
-43332.5
-32446.7
-24273.4
-17446.2
64843.5
-124956
-156371
-118050
-152719
-129183
-127940
-125732
-121011
-115558
-109020
-100579
-90395.6
-79967.2
-68673.8
-55712.3
-45398
-34091.9
-25289.6
-17874.8
-140709
-262341
-196442
-156032
-177667
-153368
-150940
-147060
-139615
-130559
-120799
-109658
-97894.2
-86168.5
-73231.2
-58363.9
-47371.6
-34917.8
-25271.5
-17054
-241813
-252094
-251914
-196018
-212808
-186202
-180116
-167315
-156645
-144156
-130710
-116746
-103424
-90213.6
-74035.9
-61419
-49393.4
-36283.2
-25770.3
-16618.2
-221259
-277299
-296588
-243102
-245334
-214455
-203424
-181915
-168963
-150523
-135998
-119676
-105510
-90746.5
-77486.2
-63875.7
-51295.7
-37557.3
-26328
-16430.4
-626679
-332945
-373138
-283168
-281261
-235043
-221412
-196675
-179794
-160008
-143207
-125746
-110164
-94693.1
-80306.5
-66017.2
-52777.3
-38563.9
-26828.5
-16559.1
-569330
-399984
-436368
-336284
-309359
-256883
-235685
-204170
-186352
-165027
-148642
-129929
-114134
-97593
-82686.1
-67682.8
-54023.6
-39476.6
-27466.9
-16918.8
-773673
-437046
-454695
-348319
-327948
-273417
-249836
-215349
-194103
-169422
-152349
-133384
-116795
-99662.1
-84089
-68632.3
-54741.6
-40094.2
-27950.8
-17228.1
-427362
-432365
-446330
-359411
-342988
-284841
-260495
-223105
-200730
-173900
-154665
-134742
-118152
-100762
-85190.3
-69504.4
-55341.7
-40536.9
-28413.3
-17556.1
-727954
-510878
-468167
-379559
-352841
-295249
-268215
-229973
-205899
-178141
-157798
-136447
-118848
-101577
-86021.3
-70481.7
-56135.3
-41209.7
-28978.6
-18024.2
-742389
-486879
-470061
-381185
-357513
-298501
-271877
-233091
-208356
-180279
-159216
-137592
-119690
-101988
-86504.5
-70963.7
-56587.3
-41791.7
-29793.9
-19241.9
-404029
-14383.4
-164819
-80564.7
-107994
-76394.4
-93791.9
-70328.9
-80709.3
-64754
-66215.1
-56216.4
-53641.7
-46482.1
-42058
-35796.5
-30790.5
-24730.8
-21875.1
-19315.7
-180302
-52450.7
-142579
-74123.6
-110514
-76083.6
-92309.7
-70963.5
-81349.5
-65879.2
-66744.3
-56823.5
-54182.6
-46884.1
-42484.7
-36115.2
-30987
-24590.8
-21163.5
-17356.6
-292520
-34618.5
-102339
-58906.5
-98096.7
-70445.6
-91939
-70372.7
-80009.5
-65651.5
-66205.8
-56694.2
-54251.2
-46949
-42714.7
-36186.7
-30999.1
-24093.9
-20097.1
-15403.2
-10112.4
-23367.9
-98990
-54354.7
-89319
-66457.4
-84367.2
-67809.9
-76732.5
-65855.5
-67039.2
-58421.2
-55701.2
-48549.2
-43916.5
-37169.7
-31587.4
-24239.4
-19596.1
-13957.1
-101210
-16996.1
-33919.3
-32187.7
-71348.6
-58739.7
-80525.9
-66194.2
-77558.1
-67594.2
-69433.3
-61089.3
-57815.7
-50574.2
-45717.4
-38419.9
-32508.5
-24490.9
-19350.1
-13420.6
-352979
-13405.9
-91655.5
-47016
-77135.7
-60824.3
-78810.7
-69488.3
-77854.5
-71155.1
-72225.4
-65586.1
-61044.5
-54360.9
-48123.2
-40724.1
-33858
-25274.3
-19385.7
-13173.5
-216363
-6707.04
-56595.4
-43060.4
-80170.2
-64948
-83080.3
-73673.6
-81469.4
-73863.6
-75977.8
-69869.1
-65585.1
-58173.6
-51213.8
-42897.5
-35743.4
-26476.9
-20131.1
-13498.7
-154338
-9162.03
-66057.4
-44935.5
-83621.7
-72724.4
-85569.4
-82314.2
-85518.1
-83836.5
-82809
-77037.9
-70780.8
-62988.1
-53874.6
-45918.4
-37869.6
-28285.8
-21223
-14470.3
-106539
-20760.3
-90584.6
-61089.1
-104502
-88482.3
-90837.5
-91510.6
-93192.9
-91522.2
-89360.6
-84287.2
-76600
-67748.2
-60224.1
-48724.9
-40550
-30232.9
-22708.8
-15579.7
102142
-29084.6
-113634
-79764.3
-121187
-105252
-106689
-107321
-106488
-103929
-99375.5
-92146
-83260.8
-74113.8
-64092.9
-52629
-43284.7
-32373.2
-24063.9
-16585.5
87140.2
-119968
-158768
-121012
-152754
-129480
-128053
-125846
-121243
-115978
-109145
-100279
-90103.7
-79910
-68756.9
-55692.8
-45365.7
-34051
-25084
-16911.7
-208100
-261621
-201749
-158758
-177493
-153795
-150838
-146966
-139608
-130773
-120932
-109621
-97916.3
-86195.4
-73269.7
-58327.3
-47320.8
-34894.9
-25135.7
-16361.6
-287578
-247326
-252306
-197453
-212654
-186663
-180675
-167661
-157022
-144287
-130806
-116949
-103686
-90511.3
-74121.8
-61459.2
-49406.1
-36254.8
-25656.2
-15945.8
-162076
-270707
-297450
-242500
-245923
-214951
-203719
-182171
-169044
-150691
-136152
-119863
-105717
-90880.1
-77504.2
-63823.4
-51279.2
-37538.1
-26261
-15794.8
-429798
-335131
-367956
-280861
-280616
-235258
-221510
-196627
-179751
-159950
-143178
-125711
-110214
-94745.8
-80327.9
-66006.2
-52749.5
-38552.1
-26766.2
-15959.8
-708078
-420652
-432868
-335983
-310267
-257378
-236268
-205041
-187154
-165048
-148468
-129783
-114000
-97542
-82665.2
-67705.9
-54024.8
-39450.3
-27315.7
-16241.3
-733521
-442612
-448163
-348325
-328180
-273267
-249774
-215276
-194350
-169961
-152313
-133243
-116628
-99583.6
-84082.7
-68623.3
-54680.3
-40065.6
-27777.7
-16549.8
-455090
-435385
-440797
-358749
-343139
-284394
-260403
-222733
-200506
-174032
-154879
-134761
-118028
-100665
-85145.7
-69526
-55357.1
-40522.6
-28195.4
-16922.3
-737054
-512908
-468385
-380003
-353181
-295012
-268182
-229794
-205753
-178021
-157678
-136435
-118925
-101559
-86013.3
-70480.9
-56123.2
-41208.6
-28877.6
-17550.9
-679631
-493578
-466353
-381508
-357685
-298348
-271904
-233025
-208324
-180231
-159165
-137528
-119615
-101968
-86421.5
-70941.4
-56591.2
-41795.5
-29725.7
-19006.1
-273781
-39145.5
-162425
-79984.4
-110468
-76853.3
-94191.3
-70422.4
-81062.2
-64667.4
-66061.4
-56132.1
-53668.3
-46496.6
-42087.8
-35789
-30754.9
-24705.7
-21831.7
-19116.7
-196032
-64282.3
-144198
-75872.9
-110589
-77105.8
-91949
-70988.9
-81526.4
-65867.4
-66497.4
-56888
-54325.9
-47029.1
-42527.5
-36128.9
-30938.1
-24537.2
-21081.4
-16725.7
-285719
-39281
-108171
-58862.4
-98835.8
-70563.7
-92387.6
-69677.2
-81053.1
-66157.3
-66486
-56987
-54145.5
-46960.7
-42730.9
-36202.5
-30926.6
-24024.6
-20036.3
-14451.9
-116623
-16712.1
-107163
-54359.9
-88056.9
-67035.7
-84617.3
-67162.4
-78421.2
-66810.7
-67607
-58798.4
-55551.3
-48505.3
-43820.3
-37094.8
-31479.1
-24189.6
-19475.9
-12592.6
102214
14262
-28288.9
-27261.6
-72755.3
-58811.9
-81016.5
-66307.4
-77776.3
-67676.6
-69664
-61190.6
-57701.8
-50439.7
-45557.9
-38325.1
-32368.6
-24421.4
-19123.9
-11948.7
-202469
8125.9
-88231.7
-45504.6
-77038.4
-61063.3
-78615.8
-69734.5
-77612.2
-71186.2
-72078.1
-65523
-60737.4
-54115.1
-48005.4
-40671.5
-33750.7
-25202
-19174.2
-11806.8
-223500
6488.99
-55264
-42738.2
-79656.4
-65475.8
-82878.3
-73177.4
-80925.6
-73313
-76008.8
-69765.9
-65116.4
-57727.4
-51011.3
-42809.3
-35607.6
-26355.3
-19919.6
-12235.9
-170239
-2437.7
-57126.9
-44111.9
-82722.9
-71926.8
-84806.1
-81672.1
-84758.7
-82871.6
-82055.9
-76420.9
-70271.7
-62693.3
-53621.4
-45661.6
-37698.9
-28163.5
-21059.8
-13254.5
-57843.2
-34589.8
-88414.1
-62551.5
-104494
-87113.6
-89063
-90807.3
-92911
-91415.1
-89135
-84151.6
-76287.2
-67829
-60221.6
-48564.2
-40409.9
-30124.5
-22496.4
-14382
9487.48
-54138.2
-115098
-82517.2
-120757
-104975
-106147
-107689
-106905
-104127
-99697
-92013.2
-83180.4
-74172.4
-64170.3
-52557.1
-43131.5
-32222.8
-23851.7
-15314
5445.1
-137357
-166672
-124336
-152687
-129796
-128241
-126439
-121740
-116034
-109540
-99939
-89828.4
-79744
-68848.5
-55720.8
-45384
-33918.7
-24797.1
-15599.9
-359754
-272215
-211413
-161622
-177823
-154347
-150422
-146856
-139679
-130921
-120901
-109652
-97939.5
-86244.8
-73438
-58280.9
-47263
-34888.4
-25048.9
-15300.4
-158524
-231918
-251077
-198984
-211937
-187130
-181169
-168229
-157492
-144502
-131049
-117352
-104111
-90841.4
-74218
-61516.6
-49249.6
-36215.5
-25533.9
-14922.4
-186210
-263396
-290521
-241814
-244949
-215549
-203591
-182564
-169044
-150883
-136280
-120108
-105926
-90979.4
-77526.3
-63775.9
-51176.3
-37487.2
-26148.7
-14771.3
-649619
-328487
-377255
-281278
-280107
-235565
-221275
-196559
-179716
-159873
-143147
-125728
-110324
-94789.7
-80338.3
-66001.7
-52706.1
-38502.9
-26666
-14937.5
-680238
-440520
-435292
-336013
-311543
-258029
-237706
-205663
-187417
-165045
-148318
-129600
-113908
-97478.8
-82670.9
-67723.4
-54004
-39378.7
-27107.6
-15199.7
-684302
-465075
-443323
-348130
-329193
-273407
-250444
-215346
-194531
-170093
-152289
-133069
-116488
-99509.6
-84083.4
-68657.6
-54597
-39923.4
-27564.8
-15593.6
-663206
-457434
-447825
-357615
-343842
-283756
-259831
-222315
-200310
-173965
-154951
-134762
-117946
-100599
-85124
-69558.9
-55368.6
-40555.5
-28147.5
-16147.9
-767780
-508497
-466460
-379752
-353996
-294621
-268126
-229578
-205705
-178093
-157672
-136427
-118924
-101510
-85986.7
-70464.7
-56105.6
-41210.1
-28808
-16940.2
-737125
-490450
-463584
-382100
-357781
-297868
-271906
-232800
-208216
-180101
-159107
-137454
-119597
-101968
-86411.5
-70936.9
-56579
-41768.8
-29620
-18620.7
-333358
-55065.6
-161613
-83308.6
-109040
-78526.8
-95371.1
-70422.5
-81657
-64596.8
-65780.7
-56104.4
-53711.2
-46522.5
-42078
-35782.6
-30754.5
-24707.7
-21811.9
-18134.6
-432987
-88058.5
-154243
-81157.5
-108322
-78216.6
-92145.5
-71502.3
-82774.7
-65804.6
-66148.2
-57059.3
-54822.4
-47294.4
-42607.2
-36174.4
-30830.8
-24321.2
-20941
-15815.1
-248631
-40748.5
-106005
-59181.2
-96613
-71165.6
-90626
-69670.2
-80195.6
-67297.3
-68104.6
-57344.4
-54032
-46928.5
-42761.6
-36207.1
-30844.3
-23850.3
-20081.3
-12901.1
-118286
-39125.1
-110505
-56062.8
-86777.8
-66853.1
-83953.2
-67487
-77896.6
-66937
-69133.7
-59498
-55518.9
-48466.5
-43697.6
-36970.9
-31342.3
-24049.6
-19381.1
-10966.3
221057
34844.6
-18587.8
-24710.8
-73610.2
-58619.5
-81532.8
-65941.8
-78074.7
-67422
-70755.9
-61723.8
-57654.9
-50289.4
-45329.6
-38131.8
-32191
-24262.1
-18935.9
-10358.1
-41533.5
20294.5
-80956.2
-44453.7
-77438
-61059.6
-78507.7
-69933.6
-77215.3
-70812.5
-72341.4
-65639.3
-60423
-53824.5
-47776.5
-40499
-33603.8
-25072.4
-19037.1
-10333
-307978
5523.28
-64627.5
-42888.5
-79404.8
-66172.8
-82886.2
-72802.4
-80375.5
-73014.1
-75944.9
-69556.7
-64560.7
-57151.1
-50716.4
-42653.2
-35459.2
-26223.6
-19780.5
-10843.8
-73529.6
-23830.9
-64382.3
-46415
-81919.4
-71268.3
-83707.7
-80860.9
-84197.1
-82184.9
-81300.4
-75903.5
-69881.2
-62357
-53181.1
-45470.1
-37549.5
-28019.7
-20985.8
-11851.3
-59103.5
-44013.6
-85312.2
-63681.2
-104230
-86013
-87387
-90062.2
-92385.1
-90935.9
-88761.2
-83827.9
-76293.6
-67866.2
-60249.8
-48307.1
-40212.5
-29853.9
-22395.8
-12915.6
-118789
-99326.7
-117507
-86960.1
-120988
-104903
-105673
-108068
-107252
-104326
-99704.3
-91853.2
-83122.4
-74274
-64381.5
-52424.8
-42925
-31972.9
-23733.8
-13664.5
-29061.8
-140851
-163775
-124871
-152411
-130064
-128390
-126873
-122233
-117800
-109603
-99808
-89689.4
-79622.1
-69076.3
-55688.1
-45286.7
-33803
-24646.1
-13989.7
-401962
-282561
-215431
-162956
-177860
-155036
-150283
-146674
-139709
-130998
-121027
-109680
-97899.1
-86309
-73653.3
-58316.8
-47246.9
-34815.7
-25058.4
-13849.3
-100733
-211245
-248064
-199359
-211006
-187629
-181382
-169021
-157930
-144791
-131395
-117760
-104485
-91051.1
-74284.2
-61496.5
-49125.1
-36093.9
-25437.7
-13591.1
-112254
-254780
-290894
-242221
-244349
-216090
-203617
-182632
-169028
-151000
-136419
-120303
-106153
-91052.3
-77564.9
-63752
-51107.2
-37334.4
-26018.7
-13514.5
-549838
-339548
-376386
-281790
-279815
-235516
-221204
-196221
-179711
-159779
-143354
-125935
-110496
-94827.1
-80368
-66009.3
-52649.7
-38413
-26552.6
-13638.9
-526469
-432771
-430997
-334728
-312694
-258174
-238304
-205922
-187849
-165021
-148369
-129585
-113944
-97459.2
-82709.6
-67735.7
-53985.7
-39267.4
-27025.1
-13886.6
-924207
-504177
-451977
-349173
-329975
-273275
-251052
-215352
-194841
-170206
-152331
-133000
-116461
-99534.8
-84156.2
-68728.8
-54619.4
-39880.3
-27552.2
-14339.9
-601683
-460919
-446551
-358921
-344588
-283119
-260163
-222141
-200336
-173967
-154962
-134696
-117907
-100610
-85187.6
-69619.1
-55400.6
-40600.6
-28249.2
-15007.5
-650404
-482241
-462250
-379741
-354811
-294513
-268155
-229433
-205506
-178016
-157539
-136391
-118867
-101423
-85912.4
-70427.8
-56080.6
-41207.4
-28776.4
-15901.2
-632690
-479520
-458200
-383916
-357964
-297641
-271905
-232645
-208188
-180069
-159097
-137429
-119641
-101994
-86437.5
-70945.4
-56558.4
-41723.5
-29493.7
-18131.9
-488215
-77700.4
-163568
-85973.7
-107027
-80170.9
-93605.3
-70193.7
-83056.4
-64645.3
-65484.7
-56029.2
-53714.9
-46535.6
-42110.3
-35784.1
-30803.2
-24762.5
-21791.7
-16807.4
-474383
-65924.9
-163590
-82710
-107349
-78843.8
-92116.2
-71735.8
-81823.5
-65486.4
-65870.8
-57419.6
-55277.5
-47492.6
-42631.8
-36164.5
-30660.9
-24049.3
-20664.9
-13457.6
-351892
-55304
-106329
-59838.1
-94569.7
-71308.1
-89665.8
-70182.7
-80536.8
-66805.5
-68500.9
-57924.6
-54752.3
-46795.7
-42907.9
-36230.2
-30809.2
-23520.1
-19931.3
-11921.3
-328139
-51560
-119157
-57051.2
-85837.9
-67069.3
-83448.6
-67854.5
-78202.7
-67200.9
-69561
-59888.3
-55847.8
-48412.9
-43623.6
-36744.2
-31221.2
-23757.8
-19113.7
-10228.1
201680
48268.6
-18209.6
-23491.6
-73680.7
-59096.7
-81642.1
-66388.6
-77804.8
-67534.2
-70713.9
-61760.3
-57671.9
-50211
-45251.7
-37861.5
-32082.7
-23948.3
-18633.3
-9700.88
70398.6
47384.7
-77456
-41477.6
-77822.3
-60980
-79198.7
-69865.7
-76969.5
-70887.8
-71987.4
-65297.8
-60109.1
-53504.1
-47551.9
-40300.4
-33528.2
-24786.9
-18789.2
-9723.16
-89558
20346.3
-60028.5
-40952.4
-79575.7
-65596.9
-83806.6
-71854.3
-80152
-72787.3
-75761.2
-68971.1
-64029.6
-56467.8
-50527.4
-42495.9
-35410.2
-25960.5
-19530.6
-10142.1
-26996.6
-18955.3
-62396.6
-47034.2
-80612
-70560.6
-82547
-80644.4
-84015.6
-82004.3
-81197.5
-75964.6
-69859.9
-62080.4
-52392
-45353.5
-37370.7
-27717.7
-20736.4
-10963.5
-18076.7
-48499.8
-87437.3
-64928.8
-104340
-85736.9
-86374.5
-89740.7
-92071.2
-90589.1
-88477.6
-83672.7
-76335.6
-67860.3
-60429.4
-47870.2
-40212.5
-29453.2
-22091.9
-11561.2
-175129
-123075
-116657
-89081.5
-120475
-104763
-105431
-108097
-107224
-104270
-99591.6
-91979.6
-83045.9
-74360
-64615.3
-52414.5
-42785.3
-31745.2
-23459.5
-11875.1
-236209
-166979
-171135
-124371
-152751
-129554
-127835
-126747
-122398
-117363
-109971
-100290
-89930.4
-80067.7
-69537.6
-55812.8
-45201.7
-33595
-24482.1
-12094.6
-559810
-297659
-217092
-162691
-177913
-155562
-150348
-146501
-139603
-131007
-121123
-109642
-97888.7
-86367.2
-73872.2
-58413.4
-47218.2
-34620.8
-24957.3
-12188.2
-196926
-203343
-253133
-199704
-210986
-187060
-181883
-169849
-158266
-145150
-131808
-118044
-104749
-91097.6
-74318.9
-61495.3
-49034.9
-35818.2
-25249.1
-12211.8
-190668
-264308
-288737
-240548
-243345
-214849
-203638
-181619
-169838
-150990
-137103
-120516
-106573
-91132.1
-77638.1
-63719.1
-51073.1
-37013.3
-25771.1
-12340.4
-358745
-329416
-374777
-279871
-280993
-233920
-222494
-195307
-180108
-159425
-143752
-126065
-110739
-94826.1
-80412.8
-66006.4
-52643.2
-38202.9
-26350.6
-12278.7
-506961
-438231
-429471
-334921
-314066
-257885
-238914
-205739
-188081
-164779
-148491
-129555
-114023
-97471.3
-82820.6
-67781.1
-54026.6
-39148.6
-26952.4
-12392.7
-948831
-509633
-452243
-350158
-330655
-272526
-252712
-215047
-195342
-170127
-152411
-132912
-116508
-99594
-84256.4
-68799.4
-54682.2
-39843.5
-27578.6
-12773.8
-591240
-459524
-448956
-360077
-343832
-282383
-261046
-221983
-200393
-173914
-154918
-134576
-117845
-100608
-85251.3
-69708.1
-55444.1
-40601.1
-28294.5
-13359.6
-679365
-481954
-464653
-380487
-356248
-294441
-267965
-229398
-205112
-177973
-157341
-136404
-118805
-101335
-85852.9
-70403.8
-56069.9
-41222.6
-28736.4
-14024.1
-600994
-473819
-458394
-384919
-357718
-297395
-271879
-232532
-208177
-180055
-159110
-137489
-119658
-102020
-86445.6
-70936
-56532.8
-41670.9
-29381
-17379.3
-101145
-113550
-108609
-104310
-101230
-114324
-108943
-94158.4
-106833
-101390
-99767.8
-94006.2
-107111
-101088
-111305
-127128
-120467
-116740
-111582
-127253
-120558
-103112
-117897
-110054
-109740
-102840
-117959
-110038
-90863.2
-100793
-102759
-91143.3
-90538.8
-100680
-102769
-91874.2
-103104
-103065
-91691.1
-92017.9
-103085
-103206
-91049.3
-102859
-101424
-93213.2
-91049.6
-102981
-101494
-89132.5
-100695
-97998.7
-91539.6
-89239.3
-100780
-98161.5
-85093.8
-96836
-92213.3
-89354.2
-85115.1
-96972.2
-92219
-78136.4
-90188.1
-84110.7
-84351.1
-78497.9
-90347.5
-84090.2
-68971.1
-81741.6
-74757.4
-76641.9
-69000.5
-81714.2
-74778
-61903.6
-72558
-65726.3
-67715.1
-61733.5
-72556.2
-65703.6
-107024
-121217
-121086
-106647
-107175
-121099
-121169
-106716
-120409
-117927
-107267
-106832
-120531
-118065
-104646
-116951
-113752
-106412
-104697
-117072
-113867
-100722
-112485
-107915
-103916
-100824
-112623
-108123
-93769.8
-106150
-100637
-99362
-94083.6
-106323
-100445
-85648
-98210.2
-91100.4
-92123.2
-85629
-98192.9
-90909.6
-76383
-88624.6
-81124.2
-83281.3
-76389.2
-88449
-80958.1
-67235.8
-78632.2
-70952
-74108
-67271.2
-78544.9
-70913.4
-126540
-144378
-142806
-127924
-126579
-144307
-142916
-122297
-141545
-136750
-125784
-122446
-141600
-136806
-117003
-134754
-128620
-121164
-117247
-134903
-128987
-110811
-126558
-120200
-115830
-110982
-126894
-120398
-102913
-117820
-109981
-109112
-102773
-117984
-110092
-93032.4
-107116
-98701.8
-100366
-92819.4
-107227
-98816.3
-82511.7
-95861.4
-87434.5
-90189.5
-82474.7
-95955.5
-87489.1
-72354.6
-84565.3
-75862.6
-79936.9
-72344.2
-84609.9
-75937.9
-148579
-169639
-163969
-150842
-148549
-169809
-164163
-141791
-162079
-154789
-147004
-141757
-162236
-154992
-133005
-152883
-144231
-139591
-133085
-153110
-144403
-123464
-141789
-132153
-130714
-123601
-141890
-132224
-112603
-129459
-119042
-120912
-112586
-129471
-119107
-100904
-116279
-106256
-109614
-100899
-116338
-106306
-89166.9
-103535
-93486.9
-97900.7
-89166.5
-103570
-93463.6
-77411.1
-90649.9
-80737.1
-86179.9
-77396.8
-90708.1
-80826.3
-90268.3
-100671
-102772
-89393.1
-89532.1
-99838.3
-102836
-91998.1
-103088
-103282
-91027.6
-91848.2
-103208
-103597
-91014.6
-103051
-101540
-93031.7
-90987.9
-103325
-101687
-89252.2
-100817
-98191.3
-91526.4
-89238.2
-100938
-98312.2
-85042.3
-96988.3
-92283
-89306.8
-84910.6
-97087.2
-92393
-78387.2
-90398.5
-84047.3
-84235
-77976.7
-90342
-83864.1
-69083.4
-81670.2
-74789.8
-76350.4
-69349.8
-81526.2
-74846.6
-61698.6
-72563.3
-65625
-67782.3
-61739.4
-72618
-65826.6
-107237
-121162
-121260
-106181
-107482
-120980
-121790
-106907
-120633
-118169
-107580
-107238
-121171
-118622
-104720
-117167
-113985
-106791
-104894
-117600
-114645
-100837
-112757
-108258
-104055
-101025
-113962
-108791
-94179.7
-106441
-100386
-99580.3
-94191.4
-106909
-100045
-85604.1
-98131
-90823.9
-92070.7
-85497.7
-97994.9
-90571.3
-76394.3
-88366.9
-80881.2
-83197.3
-76422.4
-88116.4
-80695.9
-67267.7
-78481.6
-70858.6
-74152.5
-67440.1
-78303.7
-70894.5
-126648
-144346
-142927
-128046
-127137
-143905
-142912
-122524
-141609
-136817
-126279
-122879
-141580
-136835
-117386
-134927
-129068
-121601
-117931
-134973
-129216
-111055
-126978
-120461
-116937
-111188
-127124
-120516
-102716
-118022
-110120
-109232
-102038
-117980
-110094
-92727.9
-107279
-98850.8
-99956.5
-92491.4
-107310
-98859.6
-82442.1
-95979
-87499.4
-89884.8
-82284.2
-95957.5
-87465.7
-72291.7
-84619.8
-75921.1
-79800.8
-72323.6
-84593.1
-76017.4
-148508
-169949
-164260
-150435
-148428
-169991
-164587
-141760
-162326
-155109
-146889
-141765
-162648
-155527
-133131
-153249
-144489
-139665
-133247
-153584
-144770
-123634
-141942
-132250
-130903
-123654
-142119
-132352
-112595
-129486
-119151
-120925
-112605
-129564
-119295
-100914
-116380
-106340
-109646
-100955
-116532
-106495
-89175.8
-103608
-93522.3
-97944.7
-89213.6
-103762
-93737.4
-77392
-90789.4
-80864.2
-86241.3
-77501.9
-90993.6
-81093.4
-89252.6
-99717.4
-102871
-87571.7
-88581.8
-98900.4
-102957
-91720.4
-103270
-103704
-90252.2
-91390.6
-103429
-103933
-90906.5
-103417
-101741
-92526.1
-90622.2
-103601
-101832
-89108.5
-100986
-98358.2
-91066.4
-88877
-101039
-98345.5
-84960.7
-97119.4
-92314.9
-88854.8
-85045.7
-97033.4
-92086.3
-77874.3
-90272.5
-83810.6
-83928.9
-77904.4
-90071
-83748.8
-69435.3
-81499.2
-74871.6
-76260.3
-69226.2
-81478.7
-74950.2
-61707.2
-72646.1
-65814.9
-67874.6
-61897.6
-72739.1
-66128.9
-107582
-121166
-122011
-105609
-107861
-121033
-122586
-107362
-121379
-118790
-107995
-107680
-121887
-119231
-104978
-117765
-114800
-107195
-105186
-118210
-115419
-106768
-103303
-107450
-104196
-106537
-103392
-107598
-100393
-98081.8
-102190
-99796.3
-100253
-98134.9
-102409
-85466
-98057
-90488.9
-91872
-85403.5
-97936.3
-90371.7
-76434.9
-88035.8
-80671.8
-83138.7
-76474.5
-87903.1
-80625.3
-67385.3
-78269.7
-70833.3
-74238
-67674.3
-78221.6
-71053.1
-127330
-143891
-142911
-128201
-127785
-143581
-142870
-123017
-141561
-136832
-126808
-123386
-141477
-136825
-117928
-134984
-129228
-122134
-118488
-135012
-129333
-117774
-114501
-120037
-114392
-118209
-113469
-119800
-109262
-107806
-112051
-109846
-109817
-108462
-111522
-92431.4
-107283
-98828.8
-99786.5
-92338.8
-107222
-98724.4
-82220.8
-95919.5
-87440.6
-89720.9
-82079.1
-95817.2
-87415.7
-72273.2
-84577.3
-75980.3
-79625.4
-72517.1
-84579.3
-76151.6
-148400
-170144
-164718
-150184
-148275
-169911
-164932
-141760
-162801
-155685
-146725
-141733
-163161
-156121
-133267
-153707
-144851
-139705
-133317
-154001
-144979
-123640
-142160
-132392
-130971
-123695
-142234
-132518
-112600
-129604
-119351
-120959
-112645
-129746
-119526
-100956
-116599
-106574
-109674
-100934
-116795
-106762
-89218
-103849
-93839.3
-97907.6
-89243.3
-104031
-93928.6
-77489.3
-91066.8
-81108.9
-86287.6
-77716
-91160.8
-81279.4
-88394.7
-98962.6
-102976
-86337.6
-88140.4
-98589.5
-102952
-91273.8
-103455
-103961
-89786.5
-91145.7
-103408
-103874
-90519.5
-103616
-101821
-92105.7
-90358.4
-103497
-101694
-88812.4
-101012
-98295
-90686
-88702.4
-100881
-98165.4
-84989
-96960.9
-92041.9
-88529.8
-84515.1
-96814.3
-91949.9
-78039.9
-90030.6
-83755.4
-83670.6
-78101
-90029.4
-83793.8
-69175.7
-81482.9
-74968.4
-76297.1
-69330
-81480.8
-75002.6
-61882.5
-72765.5
-66115.2
-67849.3
-62290.1
-72805.7
-66488.5
-107928
-121231
-122714
-105332
-107975
-120685
-122763
-107749
-121989
-119335
-108131
-107794
-122034
-119479
-105214
-118317
-115527
-107265
-105181
-118461
-115392
-101158
-114917
-109264
-104289
-101029
-114173
-109395
-94006.4
-107311
-99928.2
-99605.6
-94034.4
-107427
-100731
-85388.1
-97854.1
-90345.6
-91932.1
-85372.3
-98163.8
-90525.9
-76486
-87843.7
-80599.9
-83079
-76507.6
-87994
-80808
-67606.4
-78231.2
-70992.5
-74337.3
-68069.5
-78493.9
-71512.6
-127853
-143663
-142842
-127954
-127825
-143502
-142706
-123474
-141441
-136831
-126843
-123604
-141315
-136820
-118771
-135033
-129397
-122387
-118780
-135059
-129475
-111607
-127338
-120691
-117388
-112057
-127433
-120870
-101869
-118125
-110069
-109924
-102897
-118308
-110100
-92322.9
-107220
-98706.6
-100236
-92399.7
-107208
-98682.7
-82052.6
-95799.8
-87420.5
-89829.2
-82357.9
-95791.1
-87437.9
-72468.5
-84598.2
-76058.7
-79962.4
-73082.2
-84668.8
-76523.2
-148223
-170047
-165003
-150260
-148060
-169235
-165024
-141724
-163305
-156266
-146536
-141653
-163443
-156251
-133339
-154083
-145012
-139659
-133347
-154044
-144991
-123767
-142256
-132567
-131018
-123866
-142265
-132624
-112673
-129801
-119603
-121121
-112686
-129885
-119759
-100927
-116864
-106828
-109657
-100914
-116965
-106888
-89255.8
-104081
-93963
-97889.5
-89290.2
-104089
-94039.4
-77675.1
-91170.7
-81236.2
-86359.1
-78151.5
-91139.3
-81537.6
-88074.4
-98772.1
-102912
-86387.7
-88666.9
-98172.9
-102783
-91101.6
-103348
-103809
-89961.7
-91168.9
-103175
-103736
-90299.9
-103426
-101645
-92504.5
-90689.6
-103381
-101763
-88627.6
-100833
-98155.8
-90799
-88733.8
-100979
-98178.7
-84376.2
-96802.3
-91923.7
-88549.9
-84373.4
-96810.9
-91881.3
-78057.4
-90011.2
-83831.3
-83323.8
-77804
-89864
-83725.6
-69364.9
-81486.8
-75000.4
-76224.6
-69476.1
-81411.9
-75001.5
-62126
-72802.3
-66433.2
-67902.6
-62537.2
-72787.3
-66678.9
-107939
-120544
-122643
-104864
-107778
-119344
-122204
-107764
-121967
-119484
-107925
-107721
-121631
-119453
-105156
-118467
-115367
-107213
-105288
-118441
-115432
-101026
-114131
-109409
-104429
-101074
-114140
-109403
-94074.7
-107458
-100763
-99572.1
-94082.8
-107413
-100695
-85357.8
-98209.2
-90637.7
-91949.6
-85312.4
-98187.6
-90753.3
-76505.7
-88121.7
-80911.4
-83010.9
-76544.6
-88249.6
-81038.3
-67996.4
-78587.2
-71487.9
-74402.4
-68343.7
-78707.5
-71894.2
-127696
-143513
-142638
-126558
-127210
-142475
-142392
-123608
-141259
-136794
-126408
-123569
-141102
-136646
-118763
-135038
-129468
-122381
-118842
-134908
-129456
-112098
-127428
-120843
-117374
-112105
-127461
-120751
-102913
-118302
-110091
-109976
-102937
-118168
-110064
-92493.9
-107198
-98680.4
-100324
-92603.4
-107173
-98663.8
-82464.8
-95796.9
-87441.1
-90032.4
-82593.3
-95779.4
-87483.2
-73058.4
-84691
-76427.5
-80198.9
-73439.3
-84736.9
-76744.5
-148009
-169217
-165161
-149668
-147905
-168523
-165123
-141611
-163509
-156246
-146382
-141415
-163201
-155669
-133330
-153982
-145043
-139387
-133292
-153573
-145154
-123860
-142293
-132658
-131004
-123791
-142207
-132516
-112675
-129932
-119839
-121014
-112635
-129906
-119870
-100913
-116993
-106906
-109592
-100891
-116903
-106803
-89288.2
-104093
-94060.5
-97852.2
-89303.7
-103953
-94072.1
-78046
-91119.7
-81356.3
-86371.1
-78301.6
-91016.1
-81513.2
-105666
-102309
-103893
-101256
-105359
-102421
-104159
-109729
-110663
-111392
-112341
-109417
-110690
-109989
-108489
-106349
-110109
-108489
-107956
-106849
-109834
-106872
-104262
-103470
-107774
-103452
-107716
-106823
-105742
-101283
-102426
-104091
-102463
-104218
-105603
-109867
-112245
-111169
-111656
-110856
-110093
-109826
-108601
-108487
-106656
-110498
-106943
-109793
-108328
-98061.5
-96207.3
-95816.5
-94120.7
-98039.6
-96260.3
-95717.6
-102899
-104499
-104850
-106778
-102470
-104980
-104848
-100269
-97873.8
-103050
-101299
-100227
-97526.9
-103177
-100444
-99818.7
-98062
-102374
-98123.3
-102468
-100414
-98092.4
-94080
-96188.5
-95866.3
-96244.9
-95725.5
-98139.2
-102972
-106788
-104759
-105063
-105060
-104875
-102699
-100263
-101205
-97891.8
-103083
-97507.2
-103179
-100283
-115763
-112986
-114136
-111583
-116157
-112958
-113695
-121700
-123587
-125074
-127124
-121710
-123589
-125067
-119465
-117277
-122820
-120421
-119535
-117120
-122796
-117834
-114294
-115065
-120401
-113185
-119883
-118542
-115810
-111577
-113343
-114358
-112901
-113703
-116474
-121761
-127164
-123804
-125208
-123658
-125109
-121924
-119520
-120446
-117407
-122929
-117145
-122830
-119728
-106728
-105735
-104718
-103053
-107311
-107062
-104258
-112004
-114865
-115305
-117816
-112328
-114572
-115233
-109384
-107286
-112667
-110013
-109733
-107057
-112600
-109276
-109895
-107907
-112182
-108490
-111556
-109903
-106768
-103042
-105709
-104535
-107040
-104238
-107237
-112018
-117824
-114928
-115377
-114586
-115252
-112378
-109362
-110007
-107181
-112677
-107018
-112601
-109661
-79933.7
-86125.6
-86513.3
-85617.7
-79868.4
-85815.5
-86282.4
-82396
-86800.5
-87170.8
-82557
-82376.4
-86614.5
-86974.3
-82781.9
-88624.5
-87923.4
-85931.6
-82569.8
-88289.8
-87841.9
-82841.9
-86565.1
-86257.2
-84077.1
-82875.3
-86612.7
-86287.9
-79269.9
-85051.5
-83450.6
-83079.2
-78830.5
-84963.3
-83252.9
-72210.2
-80041.8
-77541.9
-77185.9
-71939.5
-79686.5
-77282.7
-65703
-72880.6
-68807.5
-71031.3
-65590.7
-72685.8
-68655.4
-58274.5
-63899
-60094.7
-63105.8
-58249.3
-63811.1
-60125.9
-91634.1
-93397.9
-100655
-88866.2
-91528
-93256.4
-100674
-93949.5
-89633.6
-92225.8
-91752.5
-89484.1
-92231
-94040.8
-95250.8
-91222.4
-95112.3
-91857.6
-91220.6
-95128.2
-95219.9
-95718.7
-91837.7
-95988.9
-93173.8
-91851.8
-96046.2
-95669.7
-93666.5
-90016.4
-94342.1
-91473.8
-90029.8
-94357.2
-93641.4
-90522.8
-87454.1
-91547.8
-89254
-87466.1
-91586.9
-90459.8
-84665.7
-81852.6
-86395.9
-84402.6
-81913.7
-86391
-84651.1
-76009.5
-73448.3
-78402.6
-76534.5
-73450.8
-78406.6
-76008.1
-67337
-65104.4
-69252.8
-67677.6
-65146.5
-69259.5
-67322.8
-54236.2
-61430.9
-56703.1
-60238.6
-54294
-61511.5
-56770.2
-109914
-114081
-121253
-105226
-110008
-114061
-121357
-111785
-106589