/*--------------------------------*- C++ -*----------------------------------*\
  =========                 |
  \\      /  F ield         | OpenFOAM: The Open Source CFD Toolbox
   \\    /   O peration     | Website:  https://openfoam.org
    \\  /    A nd           | Version:  10
     \\/     M anipulation  |
\*---------------------------------------------------------------------------*/
FoamFile
{
    format      ascii;
    class       surfaceScalarField;
    location    "9.9";
    object      phi;
}
// * * * * * * * * * * * * * * * * * * * * * * * * * * * * * * * * * * * * * //

dimensions      [0 3 -1 0 0 0 0];

internalField   nonuniform List<scalar> 
38556
(
-1393.86
215.823
-1437.65
-241.019
104.904
-1257.74
188.902
219.768
-649.688
471.293
22.0713
-304.462
639.421
-11.3701
-156.758
821.219
-88.7387
-93.0597
848.412
-138.62
111.428
889.25
-164.37
123.531
818.188
-147.4
218.463
790.125
-139.638
167.701
764.743
-117.655
143.037
779.03
-126.829
112.541
795.686
-116.566
99.9101
820.284
-111.011
86.4129
839.094
-103.547
84.7373
857.232
-94.739
76.6006
874.593
-85.4669
68.1058
895.339
-85.1046
64.3587
929.355
-77.1453
43.1289
-64.7592
32.2173
-539.235
-360.164
-2374.34
-321.56
-323.795
211.023
90.9673
-108.645
-84.1143
325.045
-102.938
-109.069
552.119
-135.281
-103.163
747.601
-159.904
-124.316
835.188
-191.034
-35.1732
902.589
-185.485
-46.2852
804.02
-139.763
90.932
686.03
-115.284
93.6357
575.5
-101.337
94.2132
548.578
-135.205
35.2977
562.192
-140.846
10.6657
585.6
-130.188
-4.2308
607.02
-115.351
-9.61515
629.376
-93.2632
-23.8323
649.299
-71.4043
-33.9858
662.131
-59.8158
-38.12
673.434
-39.0817
-49.3669
-22.5919
-55.3501
273.255
-2449.1
-984.335
669.262
-936.568
216.766
575.751
-280.993
265.858
623.393
-210.814
60.2349
528.089
-142.325
102.348
478.707
-145.353
34.8302
368.6
-173.126
92.199
328.395
-125.702
-19.578
320.471
-129.949
-1.89079
339.88
-109.398
-25.2944
385.614
-139.273
-7.79833
427.429
-160.623
-16.3966
466.579
-169.581
-10.4158
500.049
-144.017
-19.64
525.266
-118.295
-22.2735
547.116
-86.2941
-28.8189
569.085
-62.8047
-30.5688
585.467
-46.6875
-29.5101
600.104
-22.4728
-31.2465
-3.46653
-34.9665
-235.515
668.479
-1095.26
-102.369
-602.506
-467.207
366.784
-403.176
-346.971
322.468
-235.346
68.8476
331.085
-233.678
82.7357
293.338
-138.824
31.2177
295.653
-205.79
30.3493
292.253
-98.8905
-23.4115
324.923
-163.815
1.19723
345.046
-121.571
-7.94998
383.273
-189.312
11.8112
416.55
-203.86
9.96099
445.364
-210.795
12.3999
466.205
-165.977
1.11789
478.565
-127.527
-3.12741
483.858
-84.6383
-6.9491
490.731
-62.0353
-7.64225
493.599
-42.3158
-7.24002
497.646
-16.7238
-9.79591
2.25594
-16.7571
-484.297
126.705
-782.667
216.071
-688.737
-614.138
568.287
-484.446
-270.946
415.361
-151.34
68.9208
462.068
-276.189
-4.19607
415.563
-92.8647
0.544908
468.596
-245.963
-12.8589
481.064
-74.6892
-36.6692
498.623
-149.862
-31.5132
489.965
-68.3226
-44.5908
466.818
-158.942
-7.22179
451.65
-205.818
17.1258
453.732
-245.896
33.0194
457.356
-175.382
5.78121
460.779
-131.67
0.718986
465.277
-87.38
-1.75543
477.059
-71.7944
-2.02336
487.369
-50.5768
-2.04861
497.466
-23.038
-3.78286
1.2316
-12.5467
384.977
-2617.87
-3127.11
433.334
-1227.75
490.659
707.431
-780.721
22.1777
853.263
-284.038
-13.1344
890.658
-323.913
10.3294
950.294
-121.71
-30.7907
990.109
-271.135
-14.6429
1042.31
-70.3745
-56.5172
1053.52
-110.5
-50.5726
1039.96
-8.52928
-46.2301
876.203
-43.7763
48.5902
667.775
-102.209
104.819
533.462
-204.425
92.8429
459.202
-129.353
28.2315
431.109
-106.013
2.43557
424.62
-77.484
-3.40699
429.703
-71.4204
-5.45706
443.035
-58.2515
-5.65702
466.693
-38.6752
-8.02115
-11.1495
-12.075
1206.02
-1992.61
779.339
971.354
-1563.53
570.444
690.198
-820.899
321.333
737.254
-493.05
161.956
825.302
-503.204
91.2431
871.74
-179.962
11.8145
945.976
-85.7323
21.5594
-99.1648
-86.2475
-95.7862
1026.22
-52.6519
-18.4603
-17.0243
-48.1189
-14.3598
1066.52
-44.2852
14.0627
-41.2717
-41.3896
-37.9194
1083.87
-24.0167
18.9935
-1.15883
-19.8602
0.167057
957.094
-3.47539
80.4272
5.0474
-2.84317
3.83932
715.665
10.437
106.496
8.72227
7.52612
6.03733
518.802
-23.6585
114.318
-37.7926
-23.6283
-36.8002
448.132
-30.5905
48.8024
-24.5378
-29.2923
-23.0642
426.461
-90.5723
6.23022
422.263
-74.2223
0.936495
426.149
-75.6717
0.364826
436.949
-68.5583
-0.492464
460.494
-59.9355
-2.28493
-27.7268
-7.05867
2168.14
-1868.99
4808.28
1350.27
-1561.22
815.558
1102.64
-793.981
220.715
1045.44
-411.477
-24.377
983.897
-396.701
-44.9552
247.611
-44.1102
-66.3286
246.447
245.589
243.519
-13.7767
-41.4208
-13.5947
245.828
-79.117
-4.83211
-244.832
261.952
-61.9689
-7.80368
-289.172
287.924
-39.6303
-3.40689
-293.561
303.248
-38.6876
4.98332
-318.176
312.073
-17.9981
20.6253
-301.695
273.344
5.73311
33.0549
-240.569
188.913
6.00843
21.9884
-156.848
134.031
-12.5411
4.76758
490.592
-9.01893
4.68626
-129.128
-147.98
-126.627
-140.889
-10.773
-10.5511
-10.8838
486.344
-66.8479
-3.12603
482.593
-68.1152
-3.80516
488.356
-72.5405
-1.78154
499.686
-70.853
-0.412154
-41.9169
-1.39735
2326.85
-308.572
1807.8
1552.6
-769.782
-17.1888
1001.18
-318.239
75.6842
918.977
-236.04
-93.2361
181.123
-213.82
-12.3218
177.959
194.707
194.629
195.982
-51.6849
-7.28477
15.7412
-53.419
51.4067
-14.0236
0.294649
-51.1941
19.0112
51.7424
-18.6882
-0.871192
-61.4441
13.3081
62.9326
-13.7159
-1.08064
-71.254
15.0644
72.7068
-16.3217
-0.195443
-78.9224
16.068
79.6807
-18.9454
2.11905
-83.1897
10.3152
82.2978
-12.5729
3.14956
-74.286
-0.973153
66.8002
4.86454
3.59441
-51.2976
-6.18552
46.0562
10.6726
0.754413
-40.3655
150.211
2.15958
-1.64444
-40.0271
-40.0273
-39.3249
572.132
-35.7807
-10.4564
-149.008
-152.88
-142.836
-148.02
565.098
-46.8134
-14.2678
566.737
-59.523
-14.6565
570.791
-70.0746
-4.83219
-47.6384
-3.18401
593.583
668.934
-134.975
610.883
230.409
-1017.49
761.984
94.0231
-563.363
761.513
-115.83
-119.74
161.43
-109.233
-22.8766
173.392
166.042
178.939
48.09
166.362
-47.0723
-5.95017
10.643
-39.0458
40.1739
-11.4052
-0.365843
14.1524
-39.8915
39.2509
-11.9184
-1.59339
12.7435
-37.8021
37.5024
-11.637
-0.806887
15.9723
-35.252
34.9371
-14.016
-1.64137
13.742
-36.0864
36.4122
-9.3405
-4.7273
-0.655026
-33.139
32.124
4.35417
-2.68415
-15.1127
-32.6939
34.5912
13.5026
-0.287195
-8.33715
-42.4229
43.9644
5.88441
0.911203
-45.7372
-2.50852
180.363
0.0604898
2.75111
-45.6658
-44.3956
-44.8675
716.97
-26.167
0.391773
-180.27
-190.58
-172.071
-184.055
694.048
-16.2583
-7.63253
675.149
-28.5131
-12.1108
656.329
-49.8607
-1.39416
-34.3652
-10.1397
758.214
1519.92
253.559
781.955
284.694
-78.0255
837.099
48.0981
-9.2183
798.574
-51.2039
-26.1012
167.904
-21.8887
18.3793
175.134
171.486
178.327
31.421
176.877
-33.4038
-6.99062
7.34096
-37.9357
37.8925
-7.96925
0.671496
5.4075
-36.7101
36.3636
-4.38297
-0.678049
6.4431
-34.3081
33.026
-4.19081
-0.970175
5.84496
-28.6621
27.4862
-3.63469
-1.0344
3.95094
-25.499
25.6066
-3.81091
-0.247609
-0.309804
-29.0538
31.0191
-3.03504
1.37957
-1.16439
-37.2323
39.1935
-1.80687
1.01006
1.05581
-44.1217
45.6388
-3.20306
0.630174
-49.2347
11.6399
198.106
-21.4115
3.89153
-47.6816
-48.3944
-46.9155
759.07
-30.1453
-13.2313
-197.471
-178.332
-191.299
-174.758
750.77
-0.026905
-7.93115
725.568
1.34034
-4.65163
676.759
-10.2089
9.15752
-4.1641
-8.34141
-453.829
2142.82
2269.48
231.161
56.3057
-456.602
646.753
-20.6557
-346.838
604.984
49.5469
-58.9827
135.176
13.8551
-19.2071
158.631
136.045
158.595
27.0031
146.079
-30.2851
-7.62122
3.59546
-39.6674
41.5462
-6.00183
0.527539
3.08445
-43.6585
44.8778
-5.1794
0.875684
-1.15926
-44.3968
43.7227
1.03509
0.798267
-1.42295
-42.1803
42.3692
1.67442
-0.440413
1.79103
-46.2085
47.8043
-1.10141
-2.28535
9.7776
-47.2329
46.2881
-8.47344
-0.359333
7.9942
-42.9006
41.9249
-7.82891
0.810342
6.55109
-39.4421
38.9934
-6.41073
0.308298
-38.1375
23.2054
152.053
-22.6802
-3.8609
-36.1549
-38.3189
-36.1062
613.919
-28.0457
-33.0396
-152.566
-140.891
-150.881
-138.641
630.112
-1.21138
-15.0084
617.703
11.7576
1.99164
584.166
16.6109
6.71678
14.3659
-3.77619
615.467
2119.23
-1391.75
847.264
411.632
-587.123
767.096
380.96
-321.447
707.684
339.416
-230.457
704.714
143.316
-126.49
163.165
-88.4023
-80.0838
34.1294
80.6867
36.4299
79.1993
164.693
156.042
158.854
8.44553
167.411
-29.4149
-4.60582
5.24206
9.59287
6.49509
7.60266
-152.964
148.047
-25.2159
-2.70194
8.76707
7.73214
8.73276
3.65259
-159.554
168.812
-24.6452
0.567732
3.67125
3.63817
3.8582
2.02129
-167.689
169.407
-19.7023
5.30809
4.15622
2.2185
4.28019
3.65138
-168.703
160.438
-16.911
7.92461
4.93353
3.68932
4.97788
1.85761
-146.792
139.165
-12.7333
10.0545
2.76376
2.29282
3.3908
3.12847
-135.404
132.854
-18.3472
4.42672
4.97169
3.38605
4.9842
4.75897
-128.932
127.925
-19.9944
0.371024
5.87479
4.46444
5.5319
481.554
-42.4967
-10.9645
17.1283
15.373
12.6528
10.469
-125.443
-121.786
-120.053
-116.434
493.328
-31.6096
-8.20983
494.617
0.803772
-3.30445
491.108
15.4473
-0.180339
486.667
21.9009
-0.84904
17.0931
-7.33196
2487.62
1992.68
-2205.49
2230.11
668.909
0.240259
1299.2
747.525
564.338
985.45
532.431
120.737
804.964
280.604
43.1967
637.508
110.591
-31.5373
570.84
85.9261
-0.806337
9.4102
-19.2083
9.56456
-18.2186
504.664
-59.0476
2.41611
20.3491
38.9153
23.0391
40.5047
485.742
-54.9256
17.6191
20.2003
7.12194
20.7045
8.20129
471.388
-107.234
20.364
22.1552
27.4294
23.3936
28.246
478.52
-95.8442
25.1862
17.6051
13.5679
18.2158
14.1371
483.359
-103.982
20.924
18.238
21.3652
18.0297
20.5864
486.05
-84.4598
18.8178
17.3378
15.8354
15.6601
14.1174
485.623
-75.0882
14.5011
17.0805
15.4568
14.8215
13.656
478.074
-42.9534
8.00516
465.991
-19.7576
0.230818
459.223
10.3554
-2.78379
458.259
22.4808
-6.0689
463.442
25.6358
-8.91774
19.7097
-12.5911
399.918
485.125
-2137.98
722.759
539.274
-193.206
877.668
321.892
270.724
1010.04
367.729
32.3271
937.157
227.264
126.227
826.163
183.606
37.9786
720.682
130.12
61.2873
615.274
64.1964
-17.8366
564.7
17.9239
-22.2755
539.419
-54.2974
-27.6553
535.507
-80.9577
-10.9743
535.237
-101.049
-2.6635
532.957
-86.0045
3.82506
521.467
-74.1334
10.5346
505.203
-40.3475
13.6585
490.081
-13.5457
8.90996
483.779
12.6982
3.95964
486.567
22.9807
-3.28855
497.095
24.1816
-9.0733
20.3445
-14.8775
493.987
724.466
506.237
560.938
483.378
-11.0555
802.188
246.501
-165.859
1007.77
282.219
-120.076
994.608
272.632
-32.2008
976.001
254.363
-52.1491
885.898
232.608
-12.385
825.595
155.419
-30.9196
759.046
94.7651
-10.2922
703.286
27.2812
-25.8184
655.094
-31.1064
-1.6599
619.804
-61.2571
-4.5019
591.195
-55.7967
-1.59874
570.795
-47.2255
-6.50761
560.211
-30.9063
1.14291
554.368
-10.4909
2.78803
553.982
10.8176
2.26643
555.627
22.0801
-0.743865
560.108
24.4734
-4.77339
23.1376
-11.9979
-690.322
-902.195
-322.241
90.5822
108.051
-405.577
505.807
306.759
-475.483
687.41
348.212
-247.596
721.343
331.552
-92.8527
762.749
284.276
-71.3192
748.244
248.18
-1.0661
734.954
186.866
-18.1573
705.57
121.081
3.0683
672.811
64.7974
-4.75708
620.077
12.5733
9.05478
576.65
-21.294
3.46364
549.341
-29.5596
1.07211
533.957
-28.099
-3.7434
530.292
-24.075
-3.16608
537.267
-13.6223
-3.84363
553.379
-2.43822
-2.85557
568.509
10.6331
-3.68276
580.297
16.5667
-3.88192
19.629
-8.10501
-257.85
442.113
2.48283
130.423
392.327
-672.549
526.705
220.282
-309.806
640.417
249.418
-14.9177
691.055
209.05
71.8633
751.52
244.877
-21.0667
761.555
223.759
14.3867
776.248
194.107
-21.934
758.639
135.702
2.98791
729.639
94.1261
-0.329094
668.228
47.2049
26.7794
610.585
22.3567
13.9927
575.708
4.69773
0.619304
558.952
-8.87651
-2.46646
556.845
-20.5595
-1.40858
561.512
-21.2002
2.91126
574.147
-20.4939
5.42072
590.95
-10.1897
4.02013
605.471
0.657722
1.38792
10.5488
-3.66923
1243.55
927.605
-1257.15
1428.97
476.663
-269.755
1195.77
278.398
175.084
1090.87
147.087
207.229
880.473
138.322
281.126
831.911
156.288
137.151
781.923
146.093
127.654
777.232
133.233
65.5653
759.434
99.6151
53.8856
747.778
81.2698
24.512
726.224
57.3577
11.4004
712.081
43.3918
-6.89206
704.077
22.589
-9.88648
699.778
3.06494
-7.64272
696.739
-20.074
2.55333
691.599
-29.0267
12.966
685.436
-32.111
17.781
681.819
-26.2742
19.7016
681.072
-14.0528
15.4569
1.24749
3.52286
889.922
-3770.31
1031.17
335.418
890.077
419.488
864.365
172.799
828.102
174.585
896.278
88.1114
930.766
111.605
979.052
84.9464
1001.83
76.8329
1031.87
51.2293
1053.98
35.2493
1086.7
10.6765
1110.7
-1.40863
1117.59
-3.83289
1095.57
1.95102
1055.45
11.0938
1013.63
9.70965
987.366
-0.0125594
963.786
9.52656
10.9252
1107.13
-170.587
632.468
185.96
-180.185
-156.386
123.274
-123.025
-463.977
279.47
-200.581
-260.077
407.318
-154.864
-129.741
567.323
-166.365
-86.6992
649.494
-153.066
182.323
731.407
-123.89
165.508
737.792
-87.1267
299.205
769.509
-82.6301
218.613
780.839
-69.1918
200.899
808.065
-74.6628
159.978
825.995
-68.8827
150.863
849.172
-65.6277
128.863
867.326
-57.336
123.919
889.138
-50.7548
105.544
917.545
-41.5936
81.2918
956.162
-42.6455
68.3874
1004.51
-35.3351
30.1116
-24.5997
17.7689
-1561.4
826.326
-192.19
-775.206
-557.585
-197.773
-59.0251
-474.909
-448.411
98.3886
-378.063
-88.9995
313.949
-328.577
-145.011
413.339
-271.07
-119.001
476.16
-229.928
-21.1318
524.867
-165.411
-53.4708
516.712
-105.458
117.418
503.274
-77.0817
101.525
493.721
-72.4911
107.065
503.04
-88.3299
39.6457
521.492
-89.2136
12.5446
545.722
-79.0906
-14.9988
567.853
-63.6379
-25.4433
589.835
-48.5076
-48.0617
609.089
-32.4236
-62.4095
622.15
-26.1684
-67.6584
628.872
-12.7394
-78.6849
-4.22952
-83.9834
621.573
-107.023
2498.35
558.96
-561.168
282.961
371.437
-412.639
391.112
340.538
-354.318
67.3882
282.665
-285.32
116.965
239.486
-230.734
37.6731
233.823
-225.341
93.2745
217.862
-143.101
-25.9263
243.057
-140.488
7.94422
263.576
-102.246
-20.6499
311.981
-122.988
-5.70644
351.28
-126.59
-17.4354
392.235
-127.812
-12.7725
424.007
-102.454
-28.0487
447.86
-79.803
-29.9621
465.174
-57.4716
-37.1685
480.171
-40.0464
-37.9431
489.563
-28.866
-36.2044
494.864
-11.9791
-37.3078
-0.835166
-45.4437
1184.34
-105.265
3525.97
289.616
-233.638
99.9833
186.192
-358.278
-297.907
99.0023
-295.616
97.3355
209.679
-326.754
13.4929
156.46
-188.257
41.9599
204.989
-260.449
16.9287
194.998
-125.02
-31.5018
234.857
-184.339
5.18999
250.297
-118.283
-7.3521
290.187
-174.992
23.9258
324.967
-166.105
14.6951
359.065
-165.496
15.9865
380.792
-121.533
-1.52951
395.357
-90.5998
-6.89599
401.557
-59.384
-11.2357
407.244
-41.7258
-11.6507
409.073
-26.7077
-11.2268
409.888
-8.79903
-13.7907
2.25309
-25.3261
-676.107
-361.362
-571.036
149.954
-166.28
-1507.56
383.189
-342.62
-519.839
310.312
-211.204
57.386
368.522
-372.235
-16.9249
315.941
-148.392
13.2611
345.429
-298.68
-4.11764
327.36
-99.7631
-43.8565
328.687
-193.602
-23.5777
310.856
-102.705
-42.3387
315.036
-192.118
5.72386
329.55
-190.487
26.9936
356.085
-199.032
40.0205
369.427
-136.169
7.07511
377.612
-99.2057
1.13976
381.902
-62.6154
-2.81455
388.993
-48.2228
-2.61734
393.537
-30.3207
-2.97923
398.123
-11.722
-5.44576
2.2949
-19.912
33.3605
-1364.84
-720.876
496.126
-587.141
448.755
613.733
-580.682
142.633
693.007
-316.53
12.9167
665.763
-375.698
41.0369
664.534
-143.928
-34.0255
664.232
-298.826
-14.1954
652.861
-75.229
-69.6797
617.909
-153.1
-56.1232
572.799
-53.702
-50.1223
493.223
-126.886
62.934
431.509
-142.723
118.77
406.407
-180.629
99.5414
377.829
-113.84
34.4813
364.115
-88.7335
5.67671
360.013
-59.3879
-2.5326
363.205
-51.7642
-5.10677
370.253
-37.4806
-5.54545
381.795
-22.6798
-8.60478
-4.98764
-17.5321
395.604
-1502.4
341.165
522.353
-815.261
671.814
551.32
-527.02
238.704
596.832
-376.521
176.436
659.903
-422.914
75.3885
650.284
-120.055
-2.43991
686.358
-77.96
16.187
-88.6069
-76.8921
-86.0677
714.395
-38.0617
-36.7187
-8.19042
-33.1025
-5.65272
716.043
-39.2214
6.21316
-36.01
-37.421
-34.2461
705.633
-18.2016
6.65245
0.575009
-15.2105
1.88586
602.938
-9.18001
85.1744
-2.68217
-10.731
-6.34575
472.417
-4.41426
118.711
-1.81978
-10.569
-7.61352
403.95
-25.0361
126.007
-35.5863
-28.8872
-34.3416
377.864
-27.5452
55.7644
-21.5668
-26.0444
-19.5601
363.814
-79.6133
11.1605
361.104
-59.499
3.75714
364.146
-57.0238
2.58274
371.179
-46.1236
1.1176
384.468
-36.2985
-1.95533
-12.626
-12.8634
1005.94
-1192.97
3319.14
965.703
-477.635
518.171
928.813
-256.225
-13.1908
870.623
-235.184
-107.524
807.345
-325.63
-78.9613
202.459
-32.5362
-83.3777
202.887
187.185
188.775
-6.39225
-32.2572
-5.78245
5.72585
198.502
-68.5298
-11.1983
9.52314
-192.094
202.915
-46.8765
-11.5287
4.27924
-223.457
220.294
-33.5745
-6.76356
-5.29547
-226.465
235.932
-24.5327
2.16008
-28.8046
-253.286
252.235
-5.88223
26.5571
-52.5698
-252.812
238.805
5.19995
56.9628
-44.5047
-221.019
173.933
5.15269
61.4022
-12.3134
-141.336
120.405
-12.8588
18.5579
416.941
-10.3521
12.3526
-115.052
-124.656
-108.169
-114.618
-10.297
-11.0554
-10.021
414.372
-60.2031
0.147465
409.196
-55.8202
0.167425
412.131
-52.7756
1.93474
417.261
-44.2955
2.45513
-17.2692
-6.03851
1507.42
-1209.32
-1116.66
986.257
-243.733
270.076
796.825
28.6662
-19.775
720.001
-104.396
-147.201
158.337
-179.263
-48.7448
157.973
147.305
146.441
15.4406
179.954
-45.9631
-23.6303
2.04713
14.0455
-50.3039
49.4103
-12.5781
-2.62095
2.97223
-47.9082
15.375
47.5775
-14.8225
-3.19415
2.49103
-52.9584
10.6883
53.2686
-10.7373
-2.75224
0.993395
-57.9532
10.3768
58.8455
-11.0318
-1.23064
-1.91784
-66.2448
7.08987
67.1796
-7.77961
1.67272
-6.35771
-69.9958
1.39762
69.2574
-1.25011
6.94866
-7.01007
-65.8121
-4.40896
60.8701
7.65853
8.70248
-7.83997
-42.6186
-3.08956
38.7987
6.00955
8.73986
-35.4492
2.39841
129.726
-1.58782
-1.99248
-34.9578
-34.4708
-34.0182
487.374
-35.3752
-10.0703
-129.183
-134.832
-122.085
-126.488
476.819
-49.4344
-10.0988
471.942
-53.3057
-9.24853
469.672
-48.4596
1.60177
-18.183
-6.21444
1354.34
-896.216
-1348.59
864.13
214.561
-985.581
718.89
249.598
-639.055
682.61
-4.6884
-183.167
143.462
-50.077
-48.4236
154.772
135.145
145.592
7.40204
44.4538
148.58
-43.1202
-13.853
0.66086
10.6849
-37.0884
39.0363
-12.2935
-1.00011
3.53573
13.2903
-37.0685
36.2956
-12.2624
-3.79065
3.35033
11.4458
-35.1422
35.075
-10.7475
-3.98144
5.79055
10.9627
-35.2642
35.2873
-9.98337
-6.793
11.2711
7.97202
-34.6219
33.9924
-6.68253
-11.9311
5.66813
-2.35313
-30.4083
29.4812
3.09585
-5.48381
-1.2888
-10.2282
-30.2613
31.9609
7.78886
2.02854
-2.46519
-4.81855
-37.3485
38.3642
3.64449
2.62349
-39.7101
-4.13691
0.135707
157.708
-0.00496635
4.32114
-40.3563
-38.6689
-39.2876
600.407
-3.11325
-4.0538
-156.329
-168.266
-147.401
-156.229
567.338
-18.3626
-5.6352
544.647
-37.9406
-4.78536
527.12
-35.6319
3.30599
-9.75334
-14.4326
1094.41
376.43
-330.939
756.458
462.091
12.3941
714.425
233.955
48.4575
631.488
57.2266
-5.079
139.264
19.2994
30.2209
146.526
128.397
136.084
9.74333
26.2482
148.246
-29.286
-15.6877
-0.82484
9.5147
-35.3794
36.5744
-10.0984
0.213604
0.78324
8.82562
-33.7919
33.2259
-8.28483
-0.757972
1.96139
7.47695
-30.6663
29.6164
-6.20691
-2.18155
2.90672
6.13555
-26.6575
25.7903
-5.03098
-3.1441
1.32176
4.23186
-24.3584
24.5565
-4.07475
-1.67705
-2.82671
0.652438
-27.6979
29.4676
-2.45907
2.86358
-2.47992
-1.01303
-35.0885
36.8468
-0.887978
2.62263
-1.68847
-0.0855377
-41.1022
42.2118
-1.11063
1.77498
-44.5515
-4.79462
3.10925
178.094
-6.37492
3.75013
-43.2435
-43.6388
-42.3499
636.279
8.96493
-9.02077
-175.423
-160.877
-163.898
-152.371
601.913
7.37268
0.699563
564.986
-7.14824
1.48352
532.663
-2.90886
8.75794
7.52437
-15.1123
-52.4572
1263.71
2685.15
313.964
-32.8544
-328.078
481.055
37.9683
-317.943
433.952
41.5729
3.77432
110.468
-13.5683
-21.3658
130.68
104.052
123.778
9.61046
28.8229
122.6
-39.9403
-10.6254
-2.67179
8.57659
-36.0192
38.4215
-10.989
2.68183
-2.45473
7.92162
-39.1
39.2673
-8.30447
2.67034
-1.59521
3.1992
-38.9275
38.696
-2.8812
1.50868
1.46454
2.73627
-37.866
37.87
-2.56699
-1.63777
3.21466
4.71248
-37.808
37.6636
-5.02302
-2.75972
-1.93694
6.7551
-35.9602
35.5606
-7.01924
2.60061
-2.21857
4.58888
-35.1607
35.2946
-4.79963
2.29549
-0.344164
3.21798
-35.7088
35.9766
-3.40132
0.2597
-36.2264
6.29412
8.52938
142.607
-10.3862
-7.69781
-34.1018
-35.532
-33.4863
523.587
1.99834
-25.6226
-140.679
-127.931
-133.652
-121.776
515.977
6.74077
-6.7659
495.66
11.351
3.80941
474.472
17.3429
7.65328
17.6044
-10.2501
475.228
1673.82
524.36
599.177
302.233
-1046.16
690.399
308.668
-683.37
575.91
192.047
-266.442
576.962
5.86307
-146.973
123.098
-185.825
-69.0456
46.9768
86.7897
50.1604
88.1208
126.616
112.709
117.278
9.19461
3.63824
124.23
-32.0455
-5.48731
7.1188
9.11663
7.33267
7.15383
1.9951
-106.549
104.847
-27.9324
-2.78382
8.0994
7.1253
8.04457
4.26197
-2.73849
-116.225
121.552
-25.0267
3.78641
4.83027
4.46651
5.09283
3.63345
-9.01548
-118.176
119.83
-22.1103
10.6845
5.46196
3.99089
5.7009
4.45471
-12.9992
-121.488
118.101
-18.9338
15.2192
5.50524
4.5758
5.56503
3.34918
-14.7111
-112.071
110.989
-15.3155
15.1436
4.54039
3.46067
4.61509
3.05751
-6.27557
-111.401
111.611
-14.3457
6.0642
4.22394
2.98755
4.07808
2.74469
-0.0236403
-109.542
110.784
-13.1274
-0.78101
3.8303
2.53041
3.5847
410.319
-18.4865
-11.1606
7.65736
5.64687
5.36201
3.47973
-109.249
-103.739
-103.147
-97.6469
417.639
-9.44981
-4.08141
414.458
7.99213
-1.37528
411.307
14.0832
0.238591
411.189
18.5637
-1.9521
15.7532
-12.2334
791.428
2356.11
-1314.59
570.964
690.032
-167.094
794.987
506.289
142.694
712.632
287.942
107.198
640.333
87.5358
33.8224
471.247
-27.3171
-20.9589
431.603
25.2162
8.99427
15.5495
-12.5102
13.9834
-12.3958
374.744
-98.5794
5.12867
30.13
44.953
32.076
45.567
372.471
-59.5139
19.754
21.3459
8.77514
21.0525
8.4787
364.456
-100.554
24.4082
23.6802
28.5139
23.7436
28.5866
375.705
-74.7293
31.0179
16.6548
12.5118
16.3882
12.0939
380.988
-76.3484
25.799
15.6455
18.0783
15.1428
17.3239
385.805
-50.7694
22.979
11.7654
10.3202
10.5998
9.1055
387.091
-40.679
15.6965
10.6095
9.62859
9.24717
8.71281
384.521
-16.7363
8.82448
379.988
-4.62895
-0.0565294
377.851
10.5482
-3.20288
378.752
14.7727
-7.65925
385.187
13.5106
-10.3003
10.4712
-16.76
689.01
1968.25
-1335.16
441.597
694.659
49.581
709.117
175.153
334.339
742.208
236.191
50.9873
699.373
86.1364
170.461
603.812
75.4131
30.8099
558.918
55.6169
75.7805
475.785
-9.62779
-23.6558
439.18
-30.6267
-14.5576
413.548
-79.051
-23.5255
407.969
-77.1467
-2.97841
407.119
-79.9024
1.74017
407.4
-56.347
9.12171
402.744
-39.0794
13.5913
398.62
-13.2117
14.2574
394.331
-0.723756
9.29393
394.394
10.3197
4.12588
398.302
12.2987
-4.72261
405.056
8.94764
-11.2647
6.33942
-20.0029
426.877
1414.48
-2331.18
803.212
668.994
-361.727
804.425
165.851
-157.77
910.571
173.183
-163.213
820.922
155.61
-12.0261
762.254
141.848
-59.9157
668.505
127.738
9.24282
601.993
55.1887
-29.2233
546.261
18.464
-3.65145
505.377
-41.3586
-22.6269
477.499
-55.2025
4.27468
458.919
-62.7185
-3.10611
444.258
-45.673
2.3884
434.048
-31.5036
-3.87372
432.253
-13.9305
3.65755
432.514
-2.16071
3.96366
435.527
6.65009
2.92257
439.424
9.31091
-1.65238
443.656
6.79496
-6.85337
5.42492
-17.9522
610.071
-170.039
-1766.41
701.902
200.324
-28.7366
550.812
136.74
-295.282
562.343
156.531
-242.474
522.497
164.835
-62.2316
543.271
138.818
-89.063
546.87
118.467
4.6058
543.784
65.068
-24.9498
530.785
26.0507
8.48082
505.542
-14.4184
-6.45475
478.294
-30.208
11.3085
454.833
-38.2673
2.47388
438.393
-30.0857
1.9246
429.306
-23.039
-3.12145
430.054
-16.3779
-1.46652
437.041
-10.4819
-2.50945
448.542
-6.50501
-1.20106
458.848
-1.76014
-2.9178
467.052
-0.760588
-4.53008
2.09798
-13.5307
1819.12
194.799
3119.65
782.846
434.634
129.414
413.235
230.362
-33.8171
422.673
169.531
-37.3564
467.23
108.297
83.844
521.755
116.991
-53.766
555.048
86.798
12.7627
573.7
59.4747
-34.9922
567.859
28.8997
5.98005
548.75
8.06191
-3.70069
524.002
-1.39309
22.7126
499.145
-6.61179
7.1937
479.231
-10.7895
1.23703
469.082
-12.7125
-2.64348
468.591
-16.2965
-0.999229
474.186
-16.8171
3.65097
484.205
-17.5284
6.42589
495.312
-12.8949
4.04741
504.299
-8.68743
0.328059
-1.3057
-9.1718
997.705
620.575
-2549.73
1109.05
563.935
-510.402
947.355
364.052
203.09
898.065
223.722
202.329
730.086
197.764
359.639
681.067
173.535
129.627
636.36
125.805
133.355
630.884
91.9046
38.6116
623.857
51.5722
38.2397
620.034
35.0645
1.33305
612.302
19.6357
-1.89697
604.552
14.7149
-20.4688
596.067
6.57387
-18.7647
590.157
3.18968
-17.6347
587.329
-5.07799
-5.83693
587.995
-10.5629
6.04495
589.589
-15.4105
14.0691
592.017
-12.3412
16.7198
593.23
-8.14476
13.7017
-1.23012
-1.99828
343.141
-2141.17
621.775
620.719
724.562
680.752
826.293
294.791
834.651
363.992
896.584
199.712
915.658
218.336
949.171
143.339
954.374
123.202
963.551
77.1161
964.048
54.3881
968.488
20.952
970.727
2.92564
973.196
-3.112
967.438
2.63061
957.686
10.2828
936.123
15.8621
912.405
11.3646
891.124
22.6624
16.0897
-513.347
-409.297
2063.2
-286.652
-470.938
87.8575
-40.5275
-240.084
-470.017
53.0838
-266.723
-86.9659
232.618
-196.265
-113.01
350.228
-155.232
-49.0784
456.846
-117.871
193.576
556.878
-61.3285
126.805
619.972
-24.6931
260.803
693.315
-31.8721
177.142
739.881
-27.7631
182.096
786.982
-38.875
151.752
819.608
-34.2823
152.518
856.543
-31.8047
123.733
887.144
-23.5439
116.862
922.152
-18.9123
89.4491
971.216
-9.27635
41.5042
1022.33
-4.75168
22.0276
1047.38
8.71312
-3.65214
12.3144
-11.1443
-1677.35
-1080.55
1818.36
-817.064
-950.635
-578.365
-164.523
-611.326
-729.711
-36.4718
-430.387
-53.3861
142.702
-354.736
-165.714
197.633
-257.429
-71.7354
263.554
-198.103
-6.82194
292.255
-112.111
-31.3896
326.804
-58.2383
116.415
359.79
-35.4523
72.1194
399.968
-36.7531
75.8774
430.092
-52.4238
23.0703
458.239
-53.2012
3.31666
483.238
-46.2482
-25.5544
504.848
-32.5083
-38.0893
523.765
-21.9244
-63.9663
540.794
-9.03815
-79.6765
553.853
-6.11009
-79.3591
558.435
3.38751
-77.9412
5.09352
-81.5954
-120.624
-2045.34
2893.9
-1.3158
-988.254
201.272
92.2329
-483.761
169.998
30.4522
-385.682
84.4638
51.2549
-315.302
56.728
4.82867
-225.446
52.1168
86.3153
-223.434
37.1189
81.479
-121.378
-11.8231
167.378
-122.818
-13.3748
196.27
-77.8613
-7.13296
242.628
-97.7737
8.95611
276.711
-95.1569
-8.78537
315.928
-95.3893
-9.80157
342.187
-74.3533
-26.2022
362.736
-56.7746
-26.2451
376.2
-40.4417
-32.1149
387.164
-27.0513
-30.8941
393.345
-19.1024
-29.3927
393.782
-5.75164
-28.6057
0.281085
-39.9595
1155.54
-2069.01
586.707
169.632
-618.381
716.017
28.0221
-436.965
-203.093
-28.9359
-339.44
108.052
34.7576
-341.513
-23.9898
3.48607
-192.778
40.5632
83.0911
-271.932
-14.1781
50.5808
-113.453
-6.9165
138.961
-183.772
-22.2367
164.037
-101.477
-8.81186
211.32
-150.5
29.3691
242.985
-128.485
16.3585
278.78
-128.766
13.569
298.138
-91.2138
-4.02776
311.87
-69.4241
-7.97845
317.521
-45.9751
-11.3528
322.12
-32.1535
-11.1478
323.031
-20.3054
-10.9344
321.584
-6.93101
-11.1647
1.26868
-24.918
1075.55
-1138.38
-1582.45
298.519
-465.592
-883.318
326.511
-396.632
-588.164
158.389
-229.172
115.241
242.77
-384.554
-58.2654
175.889
-143.493
30.8573
219.96
-311.413
-8.70709
189.486
-93.6167
-33.2186
204.42
-209.392
-12.8919
194.343
-107.887
-25.851
214.247
-184.135
19.4548
234.757
-150.74
28.7381
269.464
-156.314
32.8606
286.558
-104.551
3.31829
297.374
-78.9824
-0.117638
301.7
-49.4247
-3.69097
306.801
-37.5158
-2.35587
309.092
-22.6061
-2.96965
310.351
-9.14316
-4.49266
1.23591
-20.099
-172.182
-1678.94
-147.804
152.47
-782.376
440.886
431.085
-635.967
103.353
481.606
-316.917
50.141
458.58
-373.411
52.92
430.008
-127.901
-21.0465
423.667
-310.234
-9.03311
377.296
-62.8424
-54.0835
331.952
-177.601
-42.5702
287.312
-72.152
-41.2172
265.828
-153.813
54.0961
273.613
-129.912
90.1565
294.737
-145.607
67.7115
294.21
-91.6275
22.0839
292.373
-74.6937
3.22525
290.28
-48.4068
-1.45745
292.445
-41.0029
-3.78427
296.381
-27.9284
-4.159
301.781
-16.8411
-6.30743
-3.19601
-17.1302
1008.35
-1009.9
2031.24
621.404
-374.281
650.67
431.337
-366.245
159.049
451.492
-309.712
149.076
489.127
-372.931
37.2731
437.66
-75.7244
-3.14943
454.323
-74.657
7.80021
-84.4698
-74.9908
-84.3918
441.276
-27.1242
-34.9146
-1.41292
-23.246
0.18344
415.818
-37.6583
0.496274
-34.98
-37.7226
-36.0658
375.462
-14.2466
-0.138945
1.19722
-13.1123
1.15747
318.903
-17.3955
60.0823
-14.5535
-20.1184
-20.0942
285.89
-16.8225
86.6819
-12.6756
-20.5597
-14.812
293.304
-28.4168
87.8998
-30.1115
-28.11
-28.2755
298.015
-23.1388
36.3462
-16.8606
-21.7055
-15.2156
295.622
-68.9495
7.80971
294.881
-47.5443
3.63486
297.209
-43.8302
3.08239
301.517
-32.2209
1.10252
308.463
-24.4487
-1.29408
-6.21486
-14.7587
2775.43
-11.3262
-2459.73
1475.8
467.327
976.192
961.176
38.0799
97.1047
750.05
-172.496
-33.6157
643.691
-291.582
-53.9508
152.161
-24.1976
-55.2577
154.591
135.952
138.975
0.672761
-21.5034
3.19538
8.67102
144.364
-62.8511
-12.6791
12.5574
-131.838
138.802
-35.1037
-11.542
8.53782
-155.258
148.409
-29.4018
-9.94553
1.36911
-150.409
155.431
-15.7417
-4.89605
-23.0795
-167.854
162.028
-4.63387
16.1437
-58.67
-159.653
142.945
1.55809
56.9979
-67.6761
-135.437
114.554
-2.73831
62.8806
-19.6263
-106.111
96.2271
-11.9523
18.3235
339.147
-10.4537
12.8825
-94.9079
-99.0681
-86.6894
-88.7421
-9.55021
-10.4642
-8.75065
337.646
-49.1634
3.2674
331.976
-41.26
3.26669
333.445
-35.316
3.56146
334.401
-26.3786
3.42848
-5.11234
-10.5389
600.992
-830.08
-917.785
706.543
266.566
365.286
647.313
105.439
-27.9048
551.164
-109.897
-113.65
119.5
-186.963
-50.5134
118.963
105.208
104.642
25.6783
138.612
-41.6608
-27.3263
2.42791
13.2606
-39.6531
38.9234
-12.238
-2.72082
3.90191
-37.0281
12.6064
36.4475
-12.1229
-3.80485
3.52232
-40.268
9.21779
40.0066
-8.9203
-3.55848
2.84966
-42.9125
7.04089
43.3177
-7.08317
-3.21254
0.202765
-47.8889
3.10577
47.7806
-2.45044
-0.749746
-6.87971
-47.7712
-1.58176
46.2283
3.02199
6.98234
-14.8172
-38.9942
-4.88456
35.0701
7.97585
15.6501
-8.46462
-31.2753
-0.922313
30.1433
2.86782
7.65111
-29.4669
1.83604
107.182
-3.46677
-1.1226
-29.1147
-28.3343
-27.9668
389.213
-31.9301
-3.14508
-106.453
-110.171
-97.4482
-99.2995
378.859
-40.8101
-0.194923
373.67
-37.4813
-1.89411
370.794
-26.8397
4.93895
-1.55235
-10.7474
1767.07
-1141.54
-698.55
1130.17
157.732
-239.846
730.588
201.96
-335.99
580.237
-29.9609
-112.753
113.665
-65.174
-39.1428
124.054
100.528
110.921
14.0725
43.2251
116.143