/*--------------------------------*- C++ -*----------------------------------*\
  =========                 |
  \\      /  F ield         | OpenFOAM: The Open Source CFD Toolbox
   \\    /   O peration     | Website:  https://openfoam.org
    \\  /    A nd           | Version:  10
     \\/     M anipulation  |
\*---------------------------------------------------------------------------*/
FoamFile
{
    format      ascii;
    class       volScalarField;
    location    "9.9";
    object      turbidity;
}
// * * * * * * * * * * * * * * * * * * * * * * * * * * * * * * * * * * * * * //

dimensions      [0 0 0 0 0 0 0];

internalField   nonuniform List<scalar> 
12920
(
-0.0281878
-0.0294454
-0.0419401
-0.053369
-0.071255
-0.0898475
-0.109467
-0.131469
-0.159019
-0.194686
-0.233238
-0.269521
-0.30042
-0.3261
-0.347226
-0.364568
-0.378971
-0.391285
-0.402505
-0.413908
-0.027024
-0.0470692
-0.0581415
-0.0612193
-0.069583
-0.0805304
-0.101628
-0.125561
-0.152932
-0.193215
-0.246113
-0.297036
-0.334781
-0.357228
-0.368177
-0.368873
-0.364377
-0.359648
-0.353894
-0.35454
-0.0212689
-0.0366891
-0.0529536
-0.073416
-0.0939384
-0.123692
-0.161475
-0.199761
-0.241433
-0.275045
-0.311524
-0.340845
-0.368033
-0.385346
-0.396411
-0.401354
-0.403679
-0.40621
-0.408475
-0.416876
-0.0136973
-0.0467873
-0.0734324
-0.105704
-0.139927
-0.176029
-0.208199
-0.234859
-0.263981
-0.294206
-0.326453
-0.363797
-0.404061
-0.441952
-0.472873
-0.497789
-0.518868
-0.538033
-0.5547
-0.57243
-0.054878
-0.0496968
-0.0749277
-0.106368
-0.134929
-0.161131
-0.180885
-0.202679
-0.22516
-0.253068
-0.284203
-0.324778
-0.375394
-0.427681
-0.471915
-0.508613
-0.539492
-0.568286
-0.594888
-0.618929
-0.0512068
-0.0535845
-0.0654658
-0.0806732
-0.0957634
-0.109196
-0.119495
-0.129079
-0.141122
-0.160814
-0.192206
-0.241343
-0.306817
-0.375839
-0.428679
-0.466233
-0.495299
-0.524826
-0.556324
-0.589952
-0.013575
-0.0455055
-0.073319
-0.0890359
-0.098584
-0.107366
-0.11425
-0.124897
-0.13839
-0.157329
-0.180784
-0.214664
-0.257662
-0.307771
-0.343181
-0.369239
-0.393149
-0.424449
-0.465529
-0.517787
-0.00967893
-0.0370009
-0.0603023
-0.074744
-0.0865025
-0.0935293
-0.0896973
-0.0857529
-0.0860621
-0.0891725
-0.102114
-0.119037
-0.132095
-0.160165
-0.160082
-0.181786
-0.20807
-0.241073
-0.281372
-0.331182
-0.00831997
-0.0279396
-0.0486583
-0.070797
-0.0934771
-0.0906943
-0.0846542
-0.0737798
-0.0658882
-0.0606228
-0.0582918
-0.0556571
-0.0657591
-0.113308
-0.126164
-0.126159
-0.146834
-0.174678
-0.210372
-0.251822
-0.0119726
-0.037027
-0.0590723
-0.0891823
-0.112782
-0.108498
-0.101769
-0.0907293
-0.0839755
-0.0850791
-0.0783306
-0.0759781
-0.0937867
-0.109667
-0.11076
-0.127594
-0.145114
-0.166903
-0.196136
-0.230211
-0.0219049
-0.0673431
-0.0749821
-0.0893499
-0.112725
-0.111867
-0.11251
-0.108931
-0.103529
-0.0999213
-0.0992341
-0.0992277
-0.099926
-0.0999777
-0.110002
-0.131084
-0.152895
-0.178255
-0.208793
-0.243756
-0.0363247
-0.052579
-0.0594775
-0.0846041
-0.115778
-0.115315
-0.115333
-0.110935
-0.104728
-0.098352
-0.0921185
-0.0888572
-0.101135
-0.120531
-0.14258
-0.153643
-0.177591
-0.208447
-0.246446
-0.288817
-0.0376335
-0.0455556
-0.0518004
-0.0670944
-0.0940298
-0.123622
-0.128563
-0.137374
-0.142623
-0.143204
-0.14696
-0.160679
-0.189835
-0.21196
-0.246962
-0.262494
-0.281965
-0.314007
-0.356229
-0.402188
-0.0315677
-0.0471599
-0.0619441
-0.0794698
-0.10388
-0.132983
-0.175446
-0.216477
-0.254953
-0.288761
-0.32169
-0.353625
-0.385046
-0.414577
-0.440167
-0.460037
-0.473767
-0.488784
-0.512871
-0.548203
-0.0145336
-0.0375115
-0.0566456
-0.073982
-0.0931265
-0.121729
-0.158701
-0.191929
-0.223938
-0.254274
-0.289854
-0.326256
-0.362749
-0.399061
-0.435426
-0.468286
-0.493912
-0.51084
-0.525267
-0.544831
-0.00958353
-0.023302
-0.0405895
-0.0608002
-0.0829241
-0.10606
-0.133513
-0.157834
-0.184429
-0.212406
-0.247997
-0.285371
-0.323475
-0.359467
-0.396081
-0.430366
-0.461872
-0.489118
-0.512492
-0.535542
-0.0222769
-0.038053
-0.0486414
-0.0674099
-0.0920989
-0.116776
-0.144791
-0.170467
-0.199903
-0.232552
-0.271192
-0.311939
-0.350957
-0.385361
-0.417006
-0.444773
-0.470306
-0.495788
-0.522779
-0.552015
-0.0284209
-0.0395503
-0.0608768
-0.0817813
-0.103126
-0.125168
-0.148489
-0.171084
-0.198161
-0.231347
-0.272058
-0.31706
-0.359887
-0.397604
-0.431507
-0.46267
-0.491767
-0.519444
-0.546781
-0.574979
-0.0111759
-0.0244887
-0.0426499
-0.0672494
-0.0956295
-0.125589
-0.152802
-0.179785
-0.209525
-0.243217
-0.278209
-0.308589
-0.3358
-0.362233
-0.388036
-0.415818
-0.447917
-0.484204
-0.522975
-0.560942
-0.0211057
-0.0419771
-0.0668859
-0.0937694
-0.116357
-0.136868
-0.156312
-0.176648
-0.19817
-0.220543
-0.241725
-0.260303
-0.275081
-0.288057
-0.301865
-0.317254
-0.335846
-0.359107
-0.387897
-0.422438
-0.00104796
-0.00340957
-0.00515193
-0.00833703
-0.015472
-0.0268337
-0.0478117
-0.0686475
-0.0900039
-0.103532
-0.111863
-0.11791
-0.125663
-0.134727
-0.145111
-0.153586
-0.158897
-0.160177
-0.154352
-0.14623
-0.00768503
-0.0113497
-0.0112213
-0.0104091
-0.0156455
-0.0212844
-0.0300454
-0.0427381
-0.0671978
-0.0847146
-0.0868985
-0.0749007
-0.0601944
-0.0468609
-0.0376998
-0.0314133
-0.0276064
-0.0258231
-0.0256053
-0.0266378
-0.00482786
-0.0172209
-0.0214488
-0.0196523
-0.0335979
-0.0398177
-0.0508886
-0.0462515
-0.0509516
-0.0537481
-0.0555821
-0.0512921
-0.0442175
-0.0359195
-0.0294152
-0.0250474
-0.0227111
-0.0221482
-0.0230902
-0.0255774
-0.00186421
-0.0141953
-0.0161723
-0.0235307
-0.038002
-0.0413387
-0.0537532
-0.0644921
-0.079141
-0.0878658
-0.0947952
-0.0887796
-0.075945
-0.0577476
-0.04505
-0.0377918
-0.0343299
-0.0334766
-0.0344722
-0.03771
-0.00617827
-0.00797503
-0.0111486
-0.0173699
-0.0224476
-0.0323589
-0.0429994
-0.0582806
-0.0735611
-0.0880893
-0.103135
-0.107159
-0.0963505
-0.0716992
-0.0550151
-0.0477907
-0.046607
-0.0485969
-0.051954
-0.056974
-0.00680312
-0.0126294
-0.0103536
-0.0113868
-0.013191
-0.0159578
-0.0212597
-0.0324806
-0.0483735
-0.0716523
-0.101807
-0.12146
-0.113742
-0.083746
-0.0555849
-0.0427793
-0.0400019
-0.0425093
-0.04781
-0.0561265
-0.0107051
-0.0246055
-0.0240647
-0.020457
-0.0165776
-0.0130484
-0.0155833
-0.0225917
-0.0356707
-0.0564728
-0.0833286
-0.105558
-0.101435
-0.0751244
-0.0499144
-0.0398555
-0.0394749
-0.044277
-0.0515834
-0.0614601
-0.0107943
-0.0203491
-0.0124753
-0.00758751
-0.00714713
-0.00834063
-0.0092076
-0.0128219
-0.0200141
-0.0346192
-0.0586594
-0.0826099
-0.092157
-0.0660546
-0.0290522
-0.0266146
-0.03008
-0.0369812
-0.0465303
-0.0572199
-0.0089184
-0.0072488
-0.00657544
-0.00719786
-0.00866983
-0.00875217
-0.00883632
-0.00974865
-0.0124996
-0.0171322
-0.0268913
-0.0422344
-0.06247
-0.0863888
-0.0426766
-0.0252744
-0.0261354
-0.0305111
-0.0377811
-0.0473173
-0.00446722
-0.00482544
-0.00754859
-0.0127631
-0.0152302
-0.0152686
-0.0144842
-0.013776
-0.0196928
-0.0336457
-0.0502881
-0.0658924
-0.0905128
-0.0978123
-0.0732533
-0.0547049
-0.0471659
-0.04308
-0.042665
-0.0442044
-0.00944484
-0.0138567
-0.0149844
-0.0156531
-0.017608
-0.0176999
-0.0230949
-0.0232404
-0.023337
-0.029446
-0.0481901
-0.0727255
-0.076213
-0.0722492
-0.060422
-0.0585419
-0.0620066
-0.0629339
-0.0624762
-0.0582886
-0.030735
-0.0123942
-0.00946473
-0.0112678
-0.0203036
-0.0233745
-0.0343925
-0.0441299
-0.0433085
-0.0383112
-0.052355
-0.0763005
-0.08173
-0.0613247
-0.0442789
-0.0550534
-0.0643464
-0.071386
-0.0726048
-0.0666371
-0.0110106
-0.00889411
-0.00619855
-0.00740583
-0.013208
-0.0222537
-0.0272359
-0.0422928
-0.0637603
-0.0853339
-0.0995629
-0.0992173
-0.080236
-0.0598946
-0.0514728
-0.0552658
-0.0599376
-0.0625984
-0.0622418
-0.0603398
-0.00752031
-0.0259691
-0.0286745
-0.0198566
-0.0245861
-0.0307765
-0.0432804
-0.0551526
-0.0700874
-0.0783112
-0.08331
-0.082922
-0.0817849
-0.0787799
-0.0723887
-0.0649638
-0.0607054
-0.0594378
-0.0605429
-0.0639564
-0.00813371
-0.0121307
-0.0221119
-0.0237293
-0.0325854
-0.0348147
-0.0348358
-0.0286317
-0.0273083
-0.028372
-0.0327566
-0.0394709
-0.0506455
-0.0629587
-0.0700775
-0.0683988
-0.0625862
-0.0598936
-0.0631353
-0.0711703
-0.00256549
-0.0029152
-0.00455292
-0.00712917
-0.0102676
-0.0135791
-0.0164813
-0.0174944
-0.0183418
-0.0197066
-0.0218384
-0.0240832
-0.0271243
-0.0313858
-0.038124
-0.0443989
-0.0489255
-0.0542654
-0.0632014
-0.0766419
-0.00886479
-0.00529081
-0.0064889
-0.0084753
-0.0109032
-0.0129752
-0.0156593
-0.017239
-0.0218488
-0.0263493
-0.031828
-0.0328826
-0.0331798
-0.0357086
-0.0405086
-0.0469739
-0.0553105
-0.0663607
-0.0812538
-0.100354
-0.00330447
-0.00754595
-0.017755
-0.0233357
-0.0286629
-0.0260197
-0.0295446
-0.0356306
-0.0470226
-0.0557506
-0.0603653
-0.0552137
-0.0477129
-0.0469772
-0.0537037
-0.0661017
-0.0805994
-0.0961978
-0.112086
-0.128179
-0.00202541
-0.00410923
-0.0141564
-0.0286813
-0.0446815
-0.0544982
-0.0645535
-0.0702579
-0.0730223
-0.0678635
-0.0581155
-0.0481276
-0.0444552
-0.0478132
-0.0584185
-0.0734584
-0.0887223
-0.103298
-0.113735
-0.120041
-0.00686824
-0.018811
-0.0290962
-0.0314544
-0.0398917
-0.0490774
-0.0609552
-0.0707233
-0.0779787
-0.0790097
-0.0740622
-0.0636638
-0.0528596
-0.0447784
-0.041395
-0.0415914
-0.0429641
-0.0493572
-0.0668696
-0.089094
-0.00336938
-0.00360826
-0.00507164
-0.00787083
-0.014532
-0.0233708
-0.0368693
-0.0482275
-0.0578103
-0.0604612
-0.0617375
-0.0638179
-0.0687885
-0.0748834
-0.0813789
-0.0857112
-0.0868395
-0.0848778
-0.0781232
-0.0702702
-0.0115899
-0.00569755
-0.00697506
-0.00922935
-0.0146272
-0.0194739
-0.0270288
-0.0346411
-0.0438538
-0.044644
-0.0385277
-0.029529
-0.0231309
-0.0196132
-0.0182206
-0.0180491
-0.0187381
-0.0201555
-0.0222942
-0.0241851
-0.00599503
-0.00799818
-0.00971184
-0.0121435
-0.0218678
-0.0247741
-0.0282785
-0.0254831
-0.0247919
-0.0222704
-0.020017
-0.0171796
-0.0149328
-0.0135119
-0.0131212
-0.0135444
-0.0146087
-0.0161892
-0.018194
-0.0205224
-0.00637485
-0.00622773
-0.00759006
-0.013679
-0.0232695
-0.0306324
-0.0386472
-0.0407459
-0.0423082
-0.0390046
-0.0357176
-0.0289259
-0.0227873
-0.0180576
-0.0160268
-0.0156487
-0.0162564
-0.0174301
-0.0189092
-0.0205891
-0.0129029
-0.00709113
-0.00835684
-0.013048
-0.0190615
-0.0292271
-0.0374549
-0.0439346
-0.0483048
-0.0477889
-0.047396
-0.0405612
-0.0318492
-0.0237326
-0.0204809
-0.0199506
-0.0206744
-0.0217583
-0.0228132
-0.023813
-0.00885218
-0.00782505
-0.0062627
-0.00715965
-0.00939557
-0.0153585
-0.0232683
-0.0344787
-0.0459407
-0.0558814
-0.0630649
-0.0589882
-0.0444955
-0.0306329
-0.0242242
-0.0231125
-0.0241487
-0.0257716
-0.0273655
-0.0288427
-0.00637315
-0.015067
-0.00934408
-0.00741783
-0.00746608
-0.0108836
-0.0164915
-0.0262304
-0.0376162
-0.0494888
-0.0580571
-0.0576518
-0.0440294
-0.0307511
-0.0251376
-0.0250703
-0.0268937
-0.0289928
-0.0305519
-0.031432
-0.0136408
-0.0131784
-0.00671609
-0.00440726
-0.0051106
-0.00841409
-0.0105057
-0.017193
-0.0263594
-0.036701
-0.0480459
-0.0611432
-0.0562409
-0.0290474
-0.0167098
-0.0186697
-0.0219294
-0.0253814
-0.0282557
-0.0298362
-0.00493731
-0.00556593
-0.00344974
-0.00366275
-0.0050537
-0.00603749
-0.00810215
-0.0129159
-0.0197842
-0.0279509
-0.0350703
-0.0442754
-0.0573233
-0.0334755
-0.011364
-0.0133911
-0.0161363
-0.0192331
-0.0224863
-0.0250266
-0.00455329
-0.00368362
-0.00392004
-0.00593762
-0.00738921
-0.00786278
-0.00907186
-0.0134435
-0.0218755
-0.0333353
-0.0471756
-0.0548109
-0.0461689
-0.0288226
-0.0212581
-0.0207869
-0.0197791
-0.0200969
-0.0210489
-0.0219058
-0.0222636
-0.00687502
-0.0057928
-0.00652594
-0.00776956
-0.00819112
-0.0101901
-0.0121512
-0.0146066
-0.0191793
-0.0258933
-0.0311716
-0.0328988
-0.0362599
-0.0419965
-0.0341708
-0.031142
-0.0287438
-0.0268099
-0.0249864
-0.0123485
-0.00470018
-0.00404396
-0.00538253
-0.00937817
-0.0116696
-0.0165788
-0.0219972
-0.0257237
-0.0336168
-0.0435278
-0.0430768
-0.0320356
-0.028485
-0.0347801
-0.0315672
-0.0328338
-0.0334891
-0.0324643
-0.0305579
-0.00221087
-0.00428425
-0.00417894
-0.0050569
-0.00849969
-0.0132361
-0.0171705
-0.0288203
-0.0414782
-0.0506693
-0.0500549
-0.0401869
-0.0299679
-0.0262426
-0.0259674
-0.028657
-0.0312577
-0.0331283
-0.0343125
-0.0352842
-0.00282943
-0.0100872
-0.0103859
-0.00915415
-0.011391
-0.0135699
-0.0200241
-0.0244939
-0.0290566
-0.0304646
-0.0305803
-0.0292915
-0.0285028
-0.0282058
-0.0284986
-0.0295007
-0.0312124
-0.0332272
-0.0353448
-0.0375445
-0.00396018
-0.00710301
-0.00961578
-0.0109484
-0.0140358
-0.0130143
-0.0134804
-0.013312
-0.0143111
-0.0154748
-0.0173895
-0.0197172
-0.0226578
-0.0255806
-0.0279119
-0.0297306
-0.0317276
-0.0342509
-0.0370641
-0.0395735
-0.000955984
-0.00149784
-0.00214363
-0.00325877
-0.00450038
-0.00633114
-0.00828744
-0.00985231
-0.0111552
-0.0125268
-0.0142133
-0.0162339
-0.0187213
-0.0216699
-0.0252042
-0.0291353
-0.0333868
-0.0379089
-0.0425324
-0.0467562
-0.00153317
-0.00238005
-0.00363897
-0.00503783
-0.00616414
-0.00779316
-0.00954337
-0.0113359
-0.0131863
-0.0148215
-0.0168424
-0.0192035
-0.0223204
-0.0261502
-0.0306172
-0.0356385
-0.0411427
-0.0469811
-0.0529353
-0.0586079
-0.00174876
-0.00757096
-0.01269
-0.0138087
-0.0156552
-0.0167638
-0.0197483
-0.0217699
-0.0234166
-0.0232386
-0.0231274
-0.0231321
-0.0251393
-0.02916
-0.0346569
-0.0409521
-0.0474608
-0.0536474
-0.0591751
-0.0638402
-0.00225366
-0.0100931
-0.0166241
-0.0229485
-0.0308064
-0.0326021
-0.0332997
-0.0295351
-0.0259039
-0.0207411
-0.0175105
-0.0165859
-0.0180446
-0.0215053
-0.0266452
-0.0331235
-0.0399263
-0.0460392
-0.0503185
-0.0523929
-0.00655899
-0.0130983
-0.0185059
-0.0210481
-0.0274347
-0.0334427
-0.0401167
-0.0443018
-0.0448945
-0.0402443
-0.0326035
-0.0242348
-0.0176799
-0.0138482
-0.0127042
-0.0139776
-0.0176003
-0.0236651
-0.0319181
-0.0400491
-0.00277837
-0.00277795
-0.00462663
-0.00812138
-0.0141003
-0.0184943
-0.0264868
-0.0300477
-0.0338263
-0.0343644
-0.0360264
-0.038621
-0.0424166
-0.0456437
-0.0479134
-0.0476911
-0.0438607
-0.0391445
-0.0344806
-0.0307181
-0.00565064
-0.00585963
-0.00714366
-0.00988931
-0.0142699
-0.017011
-0.0217573
-0.0237233
-0.025705
-0.022745
-0.0194621
-0.0170021
-0.0165389
-0.0169297
-0.0176918
-0.0182157
-0.0185731
-0.0186769
-0.0187269
-0.0186465
-0.00726687
-0.00541988
-0.00829917
-0.0122251
-0.0174913
-0.0162221
-0.0160485
-0.0136093
-0.0124765
-0.0112593
-0.0106487
-0.0103603
-0.0105251
-0.0109544
-0.0116158
-0.0123545
-0.0131355
-0.0138712
-0.0145403
-0.0150479
-0.00214114
-0.00389488
-0.00657522
-0.0125821
-0.0188364
-0.0207946
-0.0217391
-0.0187044
-0.0172757
-0.0146262
-0.0133637
-0.0116958
-0.0108741
-0.0105559
-0.0107285
-0.0110666
-0.0114422
-0.0117848
-0.0120938
-0.012427
-0.00412486
-0.0048006
-0.00784427
-0.0133189
-0.0188812
-0.0242532
-0.0259494
-0.0237087
-0.0223558
-0.0192438
-0.0182868
-0.0156078
-0.0137726
-0.0125184
-0.0122374
-0.0121636
-0.0120816
-0.0119141
-0.0117111
-0.0116158
-0.00443121
-0.00450821
-0.0050889
-0.00734394
-0.0109503
-0.0176045
-0.0234526
-0.0264449
-0.0282293
-0.0278071
-0.0277541
-0.0232431
-0.0180627
-0.0150441
-0.0140219
-0.0136957
-0.0134076
-0.0130092
-0.0125423
-0.0122102
-0.0037532
-0.00633148
-0.00518293
-0.00592455
-0.00894002
-0.0147002
-0.0206874
-0.0258347
-0.0291481
-0.0304642
-0.0299628
-0.0253193
-0.0190023
-0.0156655
-0.0144909
-0.0141395
-0.0137448
-0.0131335
-0.0123681
-0.0117484
-0.00152297
-0.00535127
-0.00326294
-0.00338106
-0.00587011
-0.0113664
-0.0146157
-0.0228382
-0.0300356
-0.03834
-0.0443811
-0.0419838
-0.0259481
-0.0149894
-0.0122424
-0.0125899
-0.012694
-0.0125403
-0.0120676
-0.0114236
-0.001924
-0.00282104
-0.00211142
-0.00268919
-0.00471028
-0.00697014
-0.0110736
-0.0184066
-0.0266068
-0.0364093
-0.0453357
-0.0453526
-0.028618
-0.0116511
-0.0103763
-0.0107856
-0.0111143
-0.0113073
-0.0114243
-0.0112549
-0.00481157
-0.00285571
-0.00258278
-0.00352661
-0.00515195
-0.00621129
-0.00871437
-0.0131695
-0.0161858
-0.0187078
-0.0214109
-0.0185864
-0.0118064
-0.00933145
-0.0106367
-0.0123839
-0.0124574
-0.0122731
-0.0120662
-0.0119867
-0.00933632
-0.00407522
-0.00345628
-0.00386951
-0.00549046
-0.00632671
-0.00838466
-0.010106
-0.0111239
-0.0128408
-0.015559
-0.0182374
-0.0197076
-0.0197226
-0.0168027
-0.0161937
-0.016419
-0.0161506
-0.0157655
-0.0156887
-0.00455564
-0.00279763
-0.00275289
-0.00446114
-0.00740929
-0.00935124
-0.0124588
-0.0162825
-0.0178754
-0.0193379
-0.019405
-0.0187371
-0.0198302
-0.0212078
-0.0178052
-0.0191569
-0.0208489
-0.0218999
-0.0224574
-0.0230016
-0.00418784
-0.00464807
-0.00331555
-0.00388878
-0.00652686
-0.00938956
-0.0117437
-0.0167662
-0.0197376
-0.0205026
-0.0188609
-0.0166462
-0.0157306
-0.0162776
-0.0192843
-0.0216468
-0.023903
-0.0259969
-0.027863
-0.0294506
-0.00226729
-0.00559041
-0.00510858
-0.00565378
-0.00744217
-0.00897448
-0.011874
-0.0131646
-0.014413
-0.0151321
-0.0157506
-0.016325
-0.0171755
-0.0181711
-0.0192306
-0.0202479
-0.0212757
-0.0222174
-0.0231277
-0.0240059
-0.00205176
-0.00516151
-0.00526512
-0.00651656
-0.00785284
-0.0081748
-0.00941656
-0.010154
-0.0112578
-0.0124443
-0.013899
-0.0153778
-0.016885
-0.0182285
-0.0192729
-0.019991
-0.0204207
-0.020623
-0.0206164
-0.0204643
-0.00248269
-0.00247254
-0.00279183
-0.00340579
-0.00474817
-0.00649527
-0.00792449
-0.00912022
-0.010395
-0.0118987
-0.0135654
-0.0153287
-0.0171256
-0.0188553
-0.020435
-0.0217107
-0.0226451
-0.0232769
-0.0236941
-0.0238961
-0.00125866
-0.0048804
-0.00624772
-0.00643805
-0.00692022
-0.00785036
-0.0088093
-0.00990579
-0.0113352
-0.0130137
-0.0149918
-0.017037
-0.0191152
-0.0210887
-0.0229139
-0.024473
-0.0257942
-0.0269049
-0.0279195
-0.0288816
-0.00113242
-0.00689249
-0.0108838
-0.0118854
-0.0125035
-0.0122847
-0.0126519
-0.0126577
-0.0133336
-0.0142409
-0.0158653
-0.0177564
-0.0199906
-0.0222239
-0.0243433
-0.026082
-0.0273947
-0.0282256
-0.028914
-0.0297437
-0.00190088
-0.00983547
-0.015901
-0.0189708
-0.0217547
-0.0194104
-0.0179032
-0.0151228
-0.0132537
-0.0123619
-0.012845
-0.0143164
-0.0164231
-0.0187282
-0.0209344
-0.0226935
-0.0237479
-0.0238239
-0.0229907
-0.021737
-0.00162924
-0.00815245
-0.0140211
-0.0189819
-0.024574
-0.028766
-0.031491
-0.0305179
-0.0264899
-0.0203714
-0.0148604
-0.0111169
-0.00959065
-0.00986348
-0.0114486
-0.0139338
-0.0168774
-0.0197882
-0.0222326
-0.0236148
-0.00159853
-0.00356357
-0.00574672
-0.00937758
-0.0121751
-0.0135886
-0.0171994
-0.0178519
-0.0199646
-0.0207785
-0.0222081
-0.0233613
-0.024324
-0.0240883
-0.022728
-0.0200078
-0.0171241
-0.0151004
-0.0138001
-0.0129662
-0.0108792
-0.00837915
-0.00715793
-0.00906879
-0.0111519
-0.0121611
-0.0137363
-0.0137183
-0.0143368
-0.013774
-0.0138803
-0.0139267
-0.0141082
-0.0138837
-0.0133706
-0.0125106
-0.0115978
-0.0108746
-0.0105074
-0.0104825
-0.00268766
-0.00554771
-0.00775591
-0.00943431
-0.0102556
-0.00929885
-0.00910654
-0.00890804
-0.00894328
-0.00897053
-0.00902334
-0.0090656
-0.0091472
-0.00921783
-0.00933028
-0.0094726
-0.00971874
-0.0100684
-0.0105063
-0.0110248
-0.000991884
-0.00402029
-0.00725821
-0.00988561
-0.0101262
-0.0095592
-0.0088355
-0.00816133
-0.00799569
-0.00781758
-0.00784212
-0.0078461
-0.00796693
-0.00817661
-0.00848985
-0.00888111
-0.00932509
-0.00979233
-0.0102579
-0.0106986
-0.00148523
-0.00350574
-0.00772119
-0.0110155
-0.0117974
-0.0110965
-0.0100683
-0.00876658
-0.0085097
-0.00812552
-0.00818308
-0.00792064
-0.00785105
-0.00784092
-0.00804541
-0.00834694
-0.00873028
-0.00916563
-0.00961947
-0.0100504
-0.00803225
-0.00428024
-0.00589352
-0.00835132
-0.0108284
-0.0115769
-0.0112773
-0.0101974
-0.00990027
-0.00959055
-0.00962891
-0.00872202
-0.00798923
-0.00768225
-0.00774059
-0.00801258
-0.00839977
-0.00886759
-0.00937822
-0.00988604
-0.00419285
-0.00568023
-0.00494758
-0.00666521
-0.0094251
-0.0111907
-0.0111714
-0.010652
-0.0103027
-0.0103774
-0.0100017
-0.00901923
-0.00798468
-0.00766602
-0.00769173
-0.0079671
-0.00835987
-0.0088417
-0.00939807
-0.00997078
-0.00325158
-0.00329098
-0.00290858
-0.00419075
-0.00678386
-0.00963895
-0.010547
-0.0120404
-0.0122566
-0.0138993
-0.014415
-0.0124859
-0.00862196
-0.00728256
-0.00760678
-0.00796469
-0.00837053
-0.00884014
-0.00933923
-0.00984511
-0.00285694
-0.00175979
-0.00197523
-0.00334274
-0.00529166
-0.00714207
-0.00903594
-0.0106378
-0.0116879
-0.0121621
-0.0132834
-0.0114516
-0.00832257
-0.00712978
-0.00672433
-0.00802902
-0.00850095
-0.00895492
-0.00939283
-0.00978814
-0.0052417
-0.00237855
-0.00238086
-0.00371049
-0.00519919
-0.00594498
-0.00697696
-0.00738686
-0.00707091
-0.00701696
-0.00724368
-0.00764677
-0.00844231
-0.00907281
-0.0085679
-0.00943155
-0.00979056
-0.0102159
-0.0106317
-0.0110004
-0.0147803
-0.00312014
-0.00288272
-0.00410505
-0.00571228
-0.00659624
-0.00766256
-0.0082814
-0.00871984
-0.009123
-0.00949239
-0.00954467
-0.0099984
-0.0110912
-0.0116787
-0.0119017
-0.0120081
-0.0121896
-0.0124061
-0.0126498
-0.00481443
-0.00170877
-0.0025874
-0.00465342
-0.0065398
-0.00796404
-0.00899858
-0.00962577
-0.0100131
-0.0108116
-0.0112827
-0.0110949
-0.0112982
-0.0124209
-0.0140712
-0.0147516
-0.0148108
-0.0145152
-0.0140391
-0.0136726
-0.00440941
-0.00225194
-0.00204557
-0.00425268
-0.00639152
-0.00803093
-0.00864998
-0.00986318
-0.0105196
-0.0109597
-0.0113116
-0.0117658
-0.0125158
-0.0136467
-0.0141791
-0.0147528
-0.0149053
-0.0146925
-0.014316
-0.0141295
-0.00109952
-0.0037332
-0.00404319
-0.00562875
-0.00716417
-0.00831078
-0.00926386
-0.0100414
-0.010579
-0.0110739
-0.0113618
-0.0115583
-0.0116924
-0.0117614
-0.0118202
-0.0117472
-0.01165
-0.0114798
-0.0113557
-0.011466
-0.00375844
-0.0037984
-0.00439092
-0.00608099
-0.00726351
-0.00829798
-0.00922768
-0.00994156
-0.0105966
-0.011102
-0.0114655
-0.0116607
-0.0117318
-0.0116639
-0.0114657
-0.0111902
-0.0108858
-0.0106076
-0.0104068
-0.0103984
-0.00389517
-0.00382269
-0.00384849
-0.00513537
-0.00646866
-0.00779319
-0.00892714
-0.00996776
-0.0108131
-0.011481
-0.0119657
-0.0122706
-0.0124577
-0.0125049
-0.0124813
-0.012334
-0.0121157
-0.0118741
-0.0116772
-0.0116392
-0.00439263
-0.00893057
-0.00802986
-0.00689934
-0.00706376
-0.00800812
-0.00918076
-0.0102472
-0.011212
-0.0119355
-0.0125857
-0.013064
-0.0135002
-0.0138261
-0.0140832
-0.0141978
-0.0142049
-0.014115
-0.0139843
-0.0139889
-0.0109972
-0.0114951
-0.0111511
-0.00919983
-0.00872403
-0.00877962
-0.00953255
-0.0102838
-0.0111708
-0.0118285
-0.0125255
-0.0130812
-0.013747
-0.0143871
-0.0151029
-0.0157292
-0.0163093
-0.0167476
-0.0171062
-0.0174848
-0.00847233
-0.0153953
-0.0161204
-0.0140048
-0.0134069
-0.0114891
-0.0105127
-0.0101022
-0.0104465
-0.0110413
-0.0115779
-0.0119034
-0.0121382
-0.0124101
-0.012937
-0.0137498
-0.0148805
-0.0162427
-0.0178629
-0.0195707
-0.00206926
-0.00999588
-0.0169399
-0.0204611
-0.0225899
-0.0214537
-0.0189851
-0.0148831
-0.0117197
-0.00989524
-0.00973207
-0.0104761
-0.0114227
-0.0121401
-0.0125261
-0.0126209
-0.0125146
-0.0122527
-0.0119744
-0.011734
-0.0437645
-0.0220122
-0.028728
-0.0236825
-0.0281022
-0.0150868
-0.0174899
-0.0542023
-0.0309471
-0.0363271
-0.0293286
-0.029036
-0.0181622
-0.0191848
-0.0240733
-0.0279162
-0.0341208
-0.0150772
-0.017377
-0.0210674
-0.0212564
-0.0302173
-0.0358121
-0.037135
-0.0180932
-0.0198638
-0.0212559
-0.0211989
-0.0762696
-0.0900212
-0.0855134
-0.0764937
-0.061363
-0.0809947
-0.0594861
-0.067605
-0.083469
-0.0770807
-0.0564507
-0.0459956
-0.0527577
-0.0394143
-0.0616284
-0.0757631
-0.0765339
-0.0442437
-0.0419688
-0.0378508
-0.0378519
-0.0588264
-0.0772359
-0.074605
-0.0418694
-0.0427926
-0.038319
-0.0423595
-0.0562806
-0.0727106
-0.0688311
-0.0434762
-0.0475487
-0.0442189
-0.0509948
-0.058778
-0.0693081
-0.0809931
-0.0494587
-0.0586232
-0.0551633
-0.0762294
-0.100599
-0.0879818
-0.108913
-0.064821
-0.09492
-0.0857944
-0.111108
-0.129424
-0.112437
-0.111403
-0.105769
-0.113172
-0.115162
-0.1147
-0.0933723
-0.1066
-0.102095
-0.0915715
-0.0677072
-0.100642
-0.0893813
-0.0846777
-0.100728
-0.0984858
-0.0606078
-0.0459649
-0.0843854
-0.0673865
-0.085154
-0.0980967
-0.0978199
-0.0439581
-0.0429849
-0.0619093
-0.0547511
-0.0805792
-0.0979187
-0.0973501
-0.0439333
-0.0510345
-0.0570747
-0.0749109
-0.0747466
-0.0967282
-0.0956135
-0.0538268
-0.0629633
-0.0824673
-0.0969579
-0.0878672
-0.0960508
-0.0994524
-0.0675173
-0.0876981
-0.0995808
-0.105811
-0.107975
-0.100434
-0.101019
-0.0955381
-0.112776
-0.107243
-0.108846
-0.107679
-0.100675
-0.0994219
-0.115014
-0.11409
-0.108699
-0.107539
-0.11006
-0.113817
-0.112783
-0.107313
-0.101363
-0.108468
-0.108151
-0.104964
-0.1121
-0.108961
-0.0971621
-0.0785898
-0.107514
-0.102599
-0.10037
-0.107518
-0.102592
-0.0712713
-0.0575935
-0.0987918
-0.0812561
-0.0994172
-0.101057
-0.0966191
-0.0581724
-0.0739995
-0.0768089
-0.0759883
-0.0990887
-0.0950164
-0.0915983
-0.0816991
-0.0968876
-0.0793546
-0.0910935
-0.0998332
-0.0917789
-0.097215
-0.0993226
-0.103044
-0.0939964
-0.101505
-0.0999233
-0.100025
-0.109072
-0.103506
-0.103464
-0.103436
-0.105563
-0.100601
-0.11204
-0.119807
-0.10318
-0.102143
-0.104731
-0.0968965
-0.112094
-0.121663
-0.124817
-0.111393
-0.108917
-0.119297
-0.12227
-0.106352
-0.125933
-0.122986
-0.107518
-0.101207
-0.122434
-0.116783
-0.0998719
-0.120461
-0.112402
-0.0984926
-0.08607
-0.11403
-0.106016
-0.0937535
-0.111322
-0.109027
-0.0813282
-0.0756815
-0.105224
-0.104321
-0.0886496
-0.108735
-0.106122
-0.0774351
-0.0871951
-0.105057
-0.108185
-0.0966447
-0.107775
-0.126272
-0.0905731
-0.101693
-0.112509
-0.12999
-0.115916
-0.13822
-0.166804
-0.105041
-0.109099
-0.136473
-0.142677
-0.131221
-0.174684
-0.186061
-0.107764
-0.0955069
-0.140272
-0.123822
-0.00935063
-0.0105762
-0.011499
-0.00891105
-0.0104895
-0.0103783
-0.0119453
-0.0116748
-0.0120017
-0.015186
-0.011492
-0.0154187
-0.0129849
-0.0181933
-0.0156779
-0.0169576
-0.0249315
-0.0169196
-0.0219031
-0.0205862
-0.0295534
-0.0238149
-0.0283859
-0.0389415
-0.0236887
-0.0286973
-0.0330122
-0.0434593
-0.0380774
-0.0418266
-0.0498457
-0.0303538
-0.0373176
-0.0465426
-0.0543423
-0.0559865
-0.0540329
-0.0738772
-0.0410541
-0.0554038
-0.0568279
-0.0615966
-0.0845886
-0.0820804
-0.0972947
-0.0601268
-0.0546949
-0.0603336
-0.0452793
-0.0649307
-0.0966868
-0.0840132
-0.045166
-0.0217536
-0.0390613
-0.026107
-0.0134631
-0.0183544
-0.0183846
-0.0137035
-0.0133884
-0.0161511
-0.0171015
-0.017466
-0.0187298
-0.0206962
-0.0141832
-0.0192565
-0.0171402
-0.0176328
-0.0295248
-0.0219327
-0.0294176
-0.0216856
-0.0307184
-0.0183324
-0.0232276
-0.046463
-0.0335338
-0.0511318
-0.034232
-0.0455284
-0.0258956
-0.0349683
-0.0612603
-0.058758
-0.0805796
-0.0491948
-0.0580013
-0.0381718
-0.0463193
-0.0843451
-0.085195
-0.0912813
-0.0599665
-0.0605959
-0.0475748
-0.046912
-0.0990746
-0.0912102
-0.0878918
-0.0581833
-0.0446725
-0.0458141
-0.0438734
-0.0884084
-0.0868524
-0.0865811
-0.0400499
-0.03099
-0.044206
-0.0481876
-0.023077
-0.0256839
-0.0332205
-0.0189065
-0.020394
-0.0216773
-0.0246065
-0.0231955
-0.0365218
-0.0377359
-0.0202803
-0.0188503
-0.0251951
-0.0259986
-0.0268887
-0.0352616
-0.0337183
-0.0186917
-0.0210581
-0.0263237
-0.0293918
-0.0420095
-0.0354974
-0.0467723
-0.0228372
-0.029237
-0.0313622
-0.038775
-0.0684522
-0.0522328
-0.0702288
-0.0313515
-0.0363888
-0.04115
-0.0445311
-0.0768167
-0.0750369
-0.0792654
-0.0374367
-0.0385304
-0.0440086
-0.0385385
-0.0729437
-0.0775021
-0.0658142
-0.0385902
-0.0397762
-0.0364282
-0.0325062
-0.0728069
-0.0607872
-0.0475345
-0.0407446
-0.0455111
-0.03229
-0.0348722
-0.0417028
-0.0323534
-0.0359845
-0.0253394
-0.0270133
-0.0265459
-0.0327931
-0.0459059
-0.0387421
-0.0455052
-0.0275868
-0.0290612
-0.0363693
-0.0446059
-0.0375153
-0.0486575
-0.0569914
-0.0298518
-0.0344157
-0.0478741
-0.055794
-0.0474395
-0.0612767
-0.0735407
-0.0368096
-0.0454647
-0.0589482
-0.0650154
-0.0706009
-0.07804
-0.0894979
-0.0482248
-0.0523441
-0.066264
-0.0654055
-0.0833069
-0.0929106
-0.0942312
-0.0516739
-0.0438427
-0.0629729
-0.0513757
-0.0675109
-0.0895066
-0.0674904
-0.0406049
-0.0339347
-0.0471357
-0.0384366
-0.0475573
-0.060871
-0.0509863
-0.0331312
-0.034844
-0.0368738
-0.0356039
-0.011444
-0.0082367
-0.0115802
-0.00911943
-0.0142581
-0.00890361
-0.0130602
-0.017946
-0.0131638
-0.019301
-0.0163821
-0.0232485
-0.0146966
-0.0196567
-0.0258343
-0.0218123
-0.0306849
-0.0258321
-0.0342723
-0.0213312
-0.0266415
-0.0335036
-0.0340231
-0.0443029
-0.0372515
-0.0452174
-0.0285976
-0.0350521
-0.0409954
-0.0474468
-0.0544885
-0.0473005
-0.0505387
-0.0369584
-0.0373323
-0.0555078
-0.055819
-0.0538524
-0.0507515
-0.0446361
-0.0351561
-0.0239512
-0.0431273
-0.0501072
-0.0327871
-0.0387257
-0.0187591
-0.0198253
-0.0115739
-0.0151134
-0.0275348
-0.0181607
-0.0145152
-0.0104033
-0.0103825
-0.00950361
-0.0118934
-0.00937772
-0.0110737
-0.00938042
-0.0126411
-0.00938705
-0.0112083
-0.0194825
-0.0117561
-0.0143732
-0.0139705
-0.0176749
-0.0116433
-0.0125231
-0.0301712
-0.015493
-0.0200251
-0.0188136
-0.0223514
-0.0128348
-0.0141872
-0.0299603
-0.0367017
-0.0305039
-0.0313531
-0.0337676
-0.0342149
-0.0274222
-0.040202
-0.0502062
-0.0441759
-0.0432066
-0.0472662
-0.0456341
-0.0380008
-0.0500065
-0.0374039
-0.0370665
-0.0273057
-0.019405
-0.0195825
-0.0198611
-0.0324899
-0.0363704
-0.0358822
-0.0167854
-0.0118121
-0.0199644
-0.0206097
-0.0223742
-0.0365558
-0.0406646
-0.0110917
-0.0104952
-0.0208048
-0.0209718
-0.0117366
-0.013499
-0.017972
-0.0100055
-0.0118347
-0.0133385
-0.0178181
-0.0138264
-0.0190106
-0.0207261
-0.0122339
-0.0128792
-0.0188159
-0.0202826
-0.0177545
-0.0214362
-0.0258877
-0.0131048
-0.0142732
-0.0205004
-0.0209334
-0.0186776
-0.0206639
-0.0189879
-0.0177232
-0.0201629
-0.0185279
-0.0179733
-0.0220463
-0.0276349
-0.0240357
-0.0220801
-0.0252269
-0.0233422
-0.0211977
-0.0325702
-0.0361156
-0.0309517
-0.0206049
-0.0224717
-0.0212937
-0.0228121
-0.0350288
-0.0294469
-0.0279276
-0.0230505
-0.0246637
-0.0237191
-0.0266648
-0.0413176
-0.0285552
-0.0332956
-0.0250614
-0.0255162
-0.0274467
-0.0284771
-0.0207923
-0.0169972
-0.0228284
-0.0158711
-0.0202226
-0.0166066
-0.0226422
-0.024717
-0.0258731
-0.0333077
-0.0214928
-0.0238728
-0.0252765
-0.0298771
-0.0310945
-0.0364474
-0.0445221
-0.0243197
-0.0250799
-0.0311342
-0.0328605
-0.0414646
-0.0472861
-0.0529658
-0.0252266
-0.0250475
-0.0329546
-0.0316625
-0.0447102
-0.0535639
-0.0511584
-0.02473
-0.0229595
-0.0304455
-0.0259025
-0.0346799
-0.0479691
-0.036753
-0.0223497
-0.0222032
-0.0242481
-0.0213386
-0.0282028
-0.0331747
-0.0275372