/*--------------------------------*- C++ -*----------------------------------*\
  =========                 |
  \\      /  F ield         | OpenFOAM: The Open Source CFD Toolbox
   \\    /   O peration     | Website:  https://openfoam.org
    \\  /    A nd           | Version:  10
     \\/     M anipulation  |
\*---------------------------------------------------------------------------*/
FoamFile
{
    format      ascii;
    class       volScalarField;
    location    "9.9";
    object      turbidity_0;
}
// * * * * * * * * * * * * * * * * * * * * * * * * * * * * * * * * * * * * * //

dimensions      [0 0 0 0 0 0 0];

internalField   nonuniform List<scalar> 
12920
(
-0.0269852
-0.0295775
-0.0419127
-0.0531938
-0.071104
-0.0897232
-0.109312
-0.131363
-0.159028
-0.194773
-0.233315
-0.269504
-0.30032
-0.32594
-0.34703
-0.364352
-0.378744
-0.391056
-0.402282
-0.413697
-0.0253088
-0.0466115
-0.0578041
-0.0608306
-0.0692023
-0.0801745
-0.101271
-0.125266
-0.152683
-0.193174
-0.246203
-0.296998
-0.334598
-0.356936
-0.367806
-0.368485
-0.363996
-0.35929
-0.353605
-0.354375
-0.0203593
-0.0361004
-0.0525802
-0.0730281
-0.0935718
-0.123354
-0.161172
-0.199511
-0.241156
-0.274836
-0.311268
-0.340595
-0.36771
-0.384983
-0.396005
-0.400958
-0.403293
-0.405844
-0.408181
-0.416723
-0.0136962
-0.0464458
-0.0733286
-0.105429
-0.139659
-0.175801
-0.207988
-0.234651
-0.263781
-0.294036
-0.326332
-0.36374
-0.404015
-0.441834
-0.472688
-0.497571
-0.518618
-0.537769
-0.554459
-0.572257
-0.0538817
-0.0496413
-0.0749273
-0.106279
-0.134878
-0.160958
-0.180882
-0.202596
-0.225223
-0.253122
-0.284327
-0.325
-0.375685
-0.427834
-0.471931
-0.50854
-0.53936
-0.568128
-0.594711
-0.618783
-0.0497579
-0.0532974
-0.0649483
-0.0803586
-0.0955026
-0.108996
-0.119248
-0.128885
-0.140974
-0.160813
-0.192369
-0.241758
-0.307388
-0.376247
-0.428843
-0.466236
-0.495241
-0.524753
-0.556261
-0.589884
-0.0138813
-0.0460428
-0.0735524
-0.088884
-0.0983455
-0.10706
-0.114081
-0.124751
-0.138358
-0.157307
-0.180813
-0.214812
-0.258097
-0.308148
-0.343337
-0.369248
-0.393138
-0.424477
-0.465633
-0.517918
-0.0107231
-0.0379051
-0.0605953
-0.074621
-0.0862561
-0.0932913
-0.0895146
-0.0856994
-0.0860689
-0.0893243
-0.102522
-0.119262
-0.132353
-0.160572
-0.159902
-0.181587
-0.207925
-0.240998
-0.281372
-0.331247
-0.00876212
-0.0281779
-0.0487208
-0.0707614
-0.0933187
-0.0905474
-0.0844875
-0.0736151
-0.0657759
-0.0605205
-0.0581775
-0.0555606
-0.0664448
-0.114105
-0.126036
-0.125882
-0.146607
-0.174546
-0.210314
-0.251822
-0.011889
-0.0374947
-0.0594037
-0.0893063
-0.112674
-0.108333
-0.101635
-0.0905958
-0.0839044
-0.0850253
-0.0782195
-0.0760739
-0.0941756
-0.10976
-0.110685
-0.127378
-0.144879
-0.16673
-0.196025
-0.23018
-0.0221803
-0.0676625
-0.0746407
-0.0891422
-0.112591
-0.111795
-0.112506
-0.108897
-0.103486
-0.0999346
-0.0992618
-0.0992729
-0.099964
-0.100005
-0.109989
-0.130925
-0.152742
-0.178148
-0.20873
-0.243749
-0.0378264
-0.0523737
-0.05937
-0.0845239
-0.115693
-0.115245
-0.115285
-0.110885
-0.104666
-0.0982971
-0.092048
-0.0889182
-0.101377
-0.120689
-0.142507
-0.153399
-0.177416
-0.208339
-0.246418
-0.288823
-0.0372025
-0.0455615
-0.0516866
-0.0670916
-0.0941039
-0.12368
-0.128609
-0.137365
-0.142471
-0.143035
-0.146804
-0.160718
-0.189906
-0.211881
-0.246508
-0.262045
-0.281669
-0.313851
-0.356188
-0.402207
-0.031792
-0.047454
-0.0621742
-0.079497
-0.103885
-0.133026
-0.175516
-0.216485
-0.254885
-0.288673
-0.321569
-0.353493
-0.384893
-0.414392
-0.439923
-0.459726
-0.473423
-0.488526
-0.512745
-0.548185
-0.0129402
-0.0372284
-0.0563649
-0.0737401
-0.0929696
-0.121755
-0.158797
-0.191971
-0.223929
-0.254299
-0.289872
-0.326252
-0.362714
-0.399013
-0.435343
-0.468133
-0.493669
-0.510546
-0.525003
-0.544647
-0.00924254
-0.0228307
-0.0403416
-0.0606911
-0.0828945
-0.106083
-0.133536
-0.157827
-0.184399
-0.212437
-0.247994
-0.285353
-0.323428
-0.359413
-0.395989
-0.430251
-0.461718
-0.488921
-0.512292
-0.53539
-0.0208316
-0.0379837
-0.0485978
-0.067445
-0.0921555
-0.116845
-0.144783
-0.170454
-0.19987
-0.232549
-0.271219
-0.311947
-0.350907
-0.385262
-0.416866
-0.444598
-0.470108
-0.495609
-0.52263
-0.551921
-0.0283901
-0.0395032
-0.0607724
-0.0816271
-0.102983
-0.125072
-0.148368
-0.170999
-0.198086
-0.231359
-0.272162
-0.317168
-0.359916
-0.397568
-0.43142
-0.462542
-0.491616
-0.519277
-0.546615
-0.574853
-0.0108038
-0.0243441
-0.0426206
-0.067291
-0.0957376
-0.125634
-0.152785
-0.17975
-0.209528
-0.24326
-0.278246
-0.30857
-0.335749
-0.362157
-0.387937
-0.415768
-0.447939
-0.484272
-0.523047
-0.56096
-0.020324
-0.0420371
-0.0670603
-0.0938381
-0.116316
-0.136753
-0.156181
-0.176528
-0.198079
-0.220463
-0.241628
-0.260159
-0.274886
-0.287865
-0.301678
-0.317095
-0.335743
-0.359083
-0.387971
-0.422606
-0.00110295
-0.00343087
-0.00514922
-0.00833993
-0.0155133
-0.0269505
-0.0479638
-0.0688244
-0.0900503
-0.103454
-0.111677
-0.117728
-0.12553
-0.134662
-0.145068
-0.153533
-0.1588
-0.160016
-0.154117
-0.145947
-0.00768409
-0.0112255
-0.0111663
-0.0103431
-0.0155463
-0.0212258
-0.0300242
-0.0428555
-0.0673287
-0.0847367
-0.0866639
-0.0746715
-0.0600203
-0.0467495
-0.0376215
-0.0313617
-0.0275761
-0.0258111
-0.0256085
-0.0266547
-0.00507606
-0.0173296
-0.0213679
-0.0195492
-0.033538
-0.0397895
-0.0507252
-0.0461898
-0.0508928
-0.0537068
-0.0554997
-0.0511837
-0.044095
-0.0358233
-0.0293456
-0.0250026
-0.0226864
-0.0221406
-0.0231003
-0.0256058
-0.0020669
-0.0144765
-0.0162692
-0.0234587
-0.0379772
-0.0412948
-0.0537673
-0.0645627
-0.0792133
-0.0879117
-0.094747
-0.0886339
-0.0757149
-0.0575771
-0.0449408
-0.0377282
-0.0342961
-0.033465
-0.0344818
-0.0377429
-0.0060809
-0.00798698
-0.0111881
-0.0172927
-0.0225463
-0.0324736
-0.0431931
-0.0584453
-0.0737671
-0.0882504
-0.10323
-0.107056
-0.096027
-0.0714536
-0.0548859
-0.0477452
-0.0466059
-0.0486176
-0.0519846
-0.0570229
-0.00694567
-0.0121208
-0.0101399
-0.0113441
-0.0131744
-0.0160025
-0.0213628
-0.0326389
-0.0486202
-0.0719681
-0.102105
-0.121442
-0.11336
-0.0833607
-0.0553682
-0.0426926
-0.0399844
-0.0425277
-0.0478509
-0.0561942
-0.0106278
-0.0245204
-0.0238618
-0.0202925
-0.016461
-0.0129947
-0.0156079
-0.0226991
-0.0358594
-0.0567447
-0.0835642
-0.105608
-0.1011
-0.0747376
-0.0497241
-0.0397936
-0.0394789
-0.0443185
-0.0516412
-0.0615391
-0.0107901
-0.0204008
-0.0121427
-0.00751038
-0.00713292
-0.00835882
-0.00923618
-0.0128948
-0.0201675
-0.0349168
-0.0589963
-0.0828078
-0.0920068
-0.065528
-0.0289083
-0.0265969
-0.0301132
-0.0370442
-0.046615
-0.0573071
-0.00879821
-0.00721464
-0.00649869
-0.00720511
-0.0086681
-0.00874717
-0.00883514
-0.00976849
-0.0125506
-0.0172229
-0.0271283
-0.0425563
-0.0629307
-0.0863262
-0.0423617
-0.0252072
-0.026124
-0.0305409
-0.0378444
-0.0474059
-0.00438725
-0.00486137
-0.00764086
-0.0128593
-0.0152665
-0.015266
-0.0144353
-0.0137767
-0.0197691
-0.0337892
-0.0503963
-0.0661126
-0.0908473
-0.0977025
-0.073105
-0.0546134
-0.0470724
-0.0430203
-0.0426456
-0.044222
-0.00955766
-0.0139823
-0.0150329
-0.0156662
-0.0175951
-0.0176982
-0.0230505
-0.0232196
-0.0233294
-0.0295531
-0.0484438
-0.0728128
-0.0760977
-0.0721642
-0.0604818
-0.0586291
-0.0620503
-0.0629432
-0.0624422
-0.0582505
-0.0313096
-0.0124388
-0.00946797
-0.0112832
-0.0203897
-0.0234247
-0.0342454
-0.0440102
-0.0430432
-0.0383426
-0.052598
-0.0765072
-0.0815698
-0.0610255
-0.0442844
-0.0551611
-0.0644478
-0.0714526
-0.0725929
-0.0665842
-0.0112424
-0.00896436
-0.00619207
-0.0074326
-0.0132806
-0.0223332
-0.0273178
-0.0424199
-0.0639054
-0.0854161
-0.0995581
-0.0990325
-0.0799316
-0.0597286
-0.0514664
-0.055297
-0.0599765
-0.0626186
-0.0622356
-0.060325
-0.00778426
-0.0263558
-0.0284263
-0.0196121
-0.0245853
-0.0308601
-0.0434003
-0.0553099
-0.0701954
-0.0783988
-0.0833108
-0.0828804
-0.0817014
-0.0786769
-0.0722823
-0.0649048
-0.0606748
-0.0594312
-0.0605561
-0.0639905
-0.00851509
-0.0120186
-0.021943
-0.0237446
-0.0325728
-0.0347762
-0.0346772
-0.0285748
-0.0273073
-0.0284029
-0.0328125
-0.0395521
-0.0507427
-0.0630165
-0.0700453
-0.0683151
-0.0625046
-0.059875
-0.0631681
-0.0712474
-0.00224246
-0.00281279
-0.00454706
-0.00711945
-0.0103031
-0.0136199
-0.016512
-0.0175127
-0.0183526
-0.0197183
-0.0218474
-0.0240934
-0.0271461
-0.0314216
-0.0381748
-0.0444321
-0.0489431
-0.0543113
-0.063283
-0.0767703
-0.00878709
-0.00528005
-0.00652877
-0.00851958
-0.0109395
-0.0130053
-0.0156867
-0.0172592
-0.0218893
-0.0263872
-0.0318203
-0.0328545
-0.0331657
-0.035726
-0.0405456
-0.0470258
-0.0553809
-0.066462
-0.0813949
-0.100542
-0.00365756
-0.00770087
-0.0179467
-0.0234339
-0.0286584
-0.026037
-0.0295788
-0.0357309
-0.0471568
-0.0558515
-0.0603018
-0.0550869
-0.0476343
-0.046971
-0.053766
-0.0661933
-0.0806894
-0.0963148
-0.112233
-0.128347
-0.00200485
-0.00406723
-0.0142739
-0.0288244
-0.0447224
-0.0545121
-0.0645242
-0.0702243
-0.0729223
-0.0677126
-0.0579426
-0.0480174
-0.0444208
-0.0478631
-0.0585328
-0.0735533
-0.0887878
-0.103333
-0.11374
-0.120071
-0.00709844
-0.0189268
-0.0290016
-0.0312902
-0.0397505
-0.049062
-0.0609514
-0.0707259
-0.0779379
-0.0788909
-0.0738523
-0.0634231
-0.0526502
-0.0446229
-0.0413178
-0.0415334
-0.0429343
-0.0494784
-0.0671288
-0.0894119
-0.00332587
-0.00358048
-0.00506504
-0.00786492
-0.0145419
-0.0234285
-0.0369444
-0.0482784
-0.0577287
-0.0603151
-0.0615663
-0.0637032
-0.0687274
-0.0748647
-0.0813618
-0.08567
-0.0867552
-0.084742
-0.0779432
-0.0700849
-0.011921
-0.00562925
-0.00693235
-0.0092001
-0.0145809
-0.019465
-0.0270537
-0.0347071
-0.0438727
-0.044583
-0.0383939
-0.0294367
-0.0230768
-0.0195886
-0.0182111
-0.0180493
-0.0187463
-0.0201736
-0.0223132
-0.0242023
-0.00595307
-0.00797541
-0.00964206
-0.0121257
-0.0218398
-0.0247397
-0.0281936
-0.025445
-0.0247474
-0.0222382
-0.0199778
-0.0171453
-0.0149066
-0.0134976
-0.0131161
-0.0135464
-0.0146166
-0.0162021
-0.0182115
-0.0205441
-0.00612479
-0.00620736
-0.00759194
-0.0136627
-0.0232968
-0.0306346
-0.0386552
-0.0407462
-0.0422942
-0.0389811
-0.0356479
-0.0288524
-0.0227185
-0.018022
-0.0160096
-0.0156434
-0.0162583
-0.0174369
-0.0189198
-0.0206034
-0.0134195
-0.00700296
-0.00838509
-0.013095
-0.0191528
-0.0293105
-0.0375721
-0.0439921
-0.0483374
-0.0477838
-0.0473315
-0.0404432
-0.0317189
-0.0236689
-0.0204558
-0.0199448
-0.0206764
-0.0217635
-0.02282
-0.0238234
-0.00881969
-0.00766091
-0.00620627
-0.00716445
-0.00942804
-0.0154214
-0.0233762
-0.0345898
-0.0460685
-0.0559765
-0.0630701
-0.0588223
-0.0442817
-0.0305165
-0.0241825
-0.0231045
-0.024153
-0.0257801
-0.027376
-0.0288563
-0.0067444
-0.0151119
-0.00923108
-0.00737529
-0.00747056
-0.010919
-0.0165658
-0.0263252
-0.0377344
-0.0495905
-0.0580855
-0.057535
-0.0438129
-0.0306379
-0.0251115
-0.0250753
-0.026908
-0.0290072
-0.0305633
-0.0314424
-0.013927
-0.0130808
-0.00653529
-0.00436913
-0.00512065
-0.00845452
-0.0105573
-0.0172763
-0.0264799
-0.0368383
-0.0482068
-0.0612408
-0.055906
-0.0287748
-0.0166946
-0.0186884
-0.0219561
-0.0254081
-0.0282771
-0.0298499
-0.00496616
-0.00549576
-0.00341979
-0.00366193
-0.00505938
-0.00605328
-0.0081378
-0.0129855
-0.01987
-0.028036
-0.0351494
-0.0444947
-0.0573647
-0.0329684
-0.0113263
-0.0134022
-0.0161543
-0.0192558
-0.0225108
-0.0250473
-0.00431663
-0.00365325
-0.00393554
-0.00597148
-0.00740632
-0.00787047
-0.00908652
-0.0135097
-0.021986
-0.0334958
-0.047347
-0.0548462
-0.0459604
-0.0286464
-0.021224
-0.020761
-0.0197641
-0.0200942
-0.0210535
-0.0219155
-0.023011
-0.00680384
-0.00578758
-0.00653413
-0.00777334
-0.00819223
-0.0101931
-0.0121458
-0.0146252
-0.0192262
-0.0259721
-0.0311928
-0.0328931
-0.0363079
-0.0420647
-0.0341465
-0.031112
-0.0287201
-0.0267872
-0.0249744
-0.0111913
-0.0046988
-0.00404228
-0.00539103
-0.00940513
-0.0116919
-0.0165906
-0.022007
-0.0257391
-0.0336857
-0.0435646
-0.042957
-0.0319111
-0.0284966
-0.0348437
-0.0315801
-0.0328443
-0.0334912
-0.0324509
-0.0305466
-0.00230815
-0.00438926
-0.00418556
-0.00507306
-0.00853408
-0.0132817
-0.0172236
-0.0288975
-0.0415622
-0.050693
-0.0499837
-0.0400592
-0.0298884
-0.0262293
-0.0259798
-0.0286743
-0.0312749
-0.0331406
-0.0343212
-0.0352935
-0.00290713
-0.0103627
-0.0103579
-0.00912067
-0.011408
-0.0135938
-0.0200636
-0.0245471
-0.0290832
-0.0304802
-0.0305658
-0.0292701
-0.028479
-0.0281902
-0.0284928
-0.0295067
-0.0312232
-0.033241
-0.0353604
-0.0375627
-0.00378904
-0.00705873
-0.00953733
-0.0109589
-0.0140053
-0.0129915
-0.0134495
-0.0133158
-0.0143218
-0.0154886
-0.0174059
-0.0197356
-0.0226744
-0.0255908
-0.0279147
-0.0297346
-0.0317373
-0.0342679
-0.0370856
-0.0395967
-0.000854478
-0.00141221
-0.0021375
-0.003244
-0.00451308
-0.00634969
-0.00830568
-0.00986739
-0.0111651
-0.0125345
-0.0142216
-0.0162446
-0.0187352
-0.0216876
-0.0252257
-0.0291599
-0.0334145
-0.0379405
-0.0425668
-0.0467931
-0.00157546
-0.00239078
-0.00365291
-0.00504925
-0.00617628
-0.00780737
-0.00955769
-0.0113489
-0.0131926
-0.0148258
-0.016848
-0.0192165
-0.0223401
-0.0261753
-0.0306462
-0.0356716
-0.0411796
-0.0470222
-0.0529799
-0.0586574
-0.00157466
-0.00758135
-0.0127085
-0.0138203
-0.0156541
-0.0167845
-0.0197704
-0.021788
-0.0234256
-0.0232399
-0.0231131
-0.0231309
-0.0251574
-0.029194
-0.0347014
-0.0410008
-0.0475093
-0.0536948
-0.0592226
-0.063887
-0.00221955
-0.0100966
-0.0166566
-0.0229782
-0.0307819
-0.0325644
-0.0332229
-0.0294732
-0.025826
-0.0206845
-0.0174738
-0.0165766
-0.0180602
-0.0215417
-0.026699
-0.0331855
-0.039985
-0.0460849
-0.0503467
-0.0524161
-0.00673296
-0.0130652
-0.0183848
-0.0210158
-0.0274231
-0.0334722
-0.0401432
-0.044305
-0.0448225
-0.0401025
-0.0324257
-0.0240748
-0.0175662
-0.0137838
-0.0126834
-0.0139937
-0.0176531
-0.0237582
-0.0320327
-0.0401575
-0.00254447
-0.0027425
-0.00459846
-0.00810238
-0.0141031
-0.0185012
-0.0264691
-0.0300227
-0.0337287
-0.0342794
-0.0359528
-0.0385832
-0.0423914
-0.0456207
-0.047872
-0.0476191
-0.0437662
-0.0390519
-0.0344034
-0.03066
-0.00516563
-0.00582852
-0.00711202
-0.00985687
-0.0142534
-0.0170122
-0.0217786
-0.0237395
-0.0256752
-0.0227059
-0.0194205
-0.0169869
-0.016539
-0.0169355
-0.0176938
-0.0182143
-0.0185671
-0.0186696
-0.0187211
-0.0186455
-0.00744432
-0.00541402
-0.00829996
-0.0122071
-0.0174815
-0.016197
-0.0160175
-0.0136008
-0.0124668
-0.0112553
-0.0106427
-0.0103579
-0.0105252
-0.010957
-0.0116199
-0.0123595
-0.0131402
-0.0138759
-0.0145443
-0.0150514
-0.00211961
-0.00385212
-0.00654566
-0.0125614
-0.0188406
-0.0207745
-0.0217233
-0.0186974
-0.0172616
-0.0146192
-0.0133405
-0.0116803
-0.0108633
-0.0105524
-0.0107277
-0.0110674
-0.0114436
-0.0117864
-0.0120954
-0.0124286
-0.00437976
-0.00482217
-0.00789909
-0.0133538
-0.0189472
-0.0242696
-0.0259709
-0.0237041
-0.0223354
-0.0192296
-0.0182477
-0.0155734
-0.0137464
-0.0125098
-0.0122342
-0.0121623
-0.0120805
-0.0119132
-0.0117103
-0.0116155
-0.00444648
-0.00446125
-0.0050848
-0.00735711
-0.0109813
-0.0176421
-0.0234945
-0.0264647
-0.0282374
-0.0278083
-0.0277104
-0.023167
-0.0180101
-0.0150255
-0.0140168
-0.0136941
-0.0134064
-0.0130079
-0.0125409
-0.012209
-0.00348809
-0.00622571
-0.00517746
-0.00593649
-0.00897666
-0.0147348
-0.0207392
-0.0258651
-0.0291624
-0.0304662
-0.0299124
-0.0252431
-0.0189412
-0.0156452
-0.0144873
-0.0141384
-0.013743
-0.0131311
-0.0123653
-0.0117458
-0.00160649
-0.00529044
-0.00321567
-0.00338511
-0.00590105
-0.0114138
-0.0146663
-0.0228923
-0.0300913
-0.0383981
-0.0443979
-0.0418477
-0.0257252
-0.0149351
-0.012243
-0.0125923
-0.0126946
-0.0125391
-0.0120651
-0.0114206
-0.00197456
-0.00280003
-0.00210291
-0.00269136
-0.00472168
-0.00699584
-0.0111235
-0.0184792
-0.0267039
-0.0365245
-0.0453993
-0.0452729
-0.0282999
-0.0115716
-0.0103832
-0.0107873
-0.0111151
-0.0113078
-0.0114239
-0.011254
-0.00486041
-0.00282514
-0.00258038
-0.00353501
-0.00516281
-0.00622265
-0.00873951
-0.0132222
-0.0162437
-0.0187858
-0.0214769
-0.0185424
-0.0117506
-0.00932364
-0.0106444
-0.0123853
-0.0124557
-0.0122703
-0.0120641
-0.0119865
-0.0101333
-0.00397047
-0.00345023
-0.00387166
-0.00549659
-0.00632674
-0.00838498
-0.0100976
-0.0111233
-0.0128478
-0.0155625
-0.0182389
-0.0197081
-0.0197153
-0.0167883
-0.0161943
-0.0164172
-0.0161474
-0.0157623
-0.0156897
-0.00439794
-0.00278781
-0.00275111
-0.00446811
-0.00742307
-0.00936401
-0.0124769
-0.0162882
-0.0178706
-0.0193312
-0.019387
-0.0187256
-0.0198422
-0.0212168
-0.0178003
-0.0191673
-0.0208571
-0.0219045
-0.0224606
-0.0230083
-0.00462207
-0.00466164
-0.00328077
-0.00389578
-0.00654775
-0.00941074
-0.011764
-0.0167873
-0.0197469
-0.0204898
-0.0188341
-0.0166264
-0.015726
-0.0162815
-0.0192937
-0.0216571
-0.0239129
-0.026007
-0.0278739
-0.0294625
-0.00248247
-0.0057133
-0.00509789
-0.00565472
-0.00745265
-0.00898593
-0.0118818
-0.0131747
-0.0144143
-0.0151326
-0.0157468
-0.0163226
-0.0171746
-0.0181726
-0.0192335
-0.0202521
-0.0212798
-0.0222217
-0.0231322
-0.0240111
-0.00188004
-0.00512064
-0.00526804
-0.00651615
-0.00783946
-0.0081752
-0.00941415
-0.0101588
-0.0112627
-0.0124499
-0.0139043
-0.0153831
-0.0168894
-0.0182319
-0.0192751
-0.0199924
-0.0204216
-0.0206241
-0.0206175
-0.0204658
-0.00251899
-0.0024344
-0.00277953
-0.00339069
-0.00475409
-0.00650385
-0.0079314
-0.00912587
-0.0104003
-0.0119042
-0.0135709
-0.0153347
-0.0171319
-0.0188618
-0.0204408
-0.0217154
-0.0226483
-0.0232796
-0.0236968
-0.0239
-0.00122332
-0.00488467
-0.00624566
-0.00644385
-0.00692423
-0.00785431
-0.00881251
-0.00990812
-0.0113391
-0.0130203
-0.0149995
-0.0170457
-0.0191238
-0.0210971
-0.0229214
-0.0244795
-0.0257997
-0.02691
-0.0279254
-0.0288902
-0.00117591
-0.00689387
-0.010873
-0.0118785
-0.012492
-0.0122801
-0.0126446
-0.0126556
-0.0133354
-0.0142481
-0.015874
-0.0177685
-0.0200037
-0.0222368
-0.0243551
-0.0260911
-0.0274005
-0.0282303
-0.0289199
-0.0297525
-0.00207197
-0.00991665
-0.0159279
-0.0189752
-0.0217202
-0.0193921
-0.0178612
-0.0150891
-0.0132232
-0.0123481
-0.0128475
-0.0143299
-0.016442
-0.0187487
-0.0209535
-0.0227082
-0.0237545
-0.0238208
-0.0229805
-0.0217283
-0.0017301
-0.008128
-0.0140101
-0.0190078
-0.0246037
-0.0287972
-0.0314877
-0.0304632
-0.0263848
-0.0202555
-0.0147655
-0.0110609
-0.00956958
-0.00986704
-0.0114696
-0.0139657
-0.0169138
-0.0198223
-0.0222567
-0.0236262
-0.00156589
-0.00351681
-0.0057144
-0.00936445
-0.0121714
-0.0135792
-0.0171845
-0.0178385
-0.0199259
-0.0207585
-0.0221867
-0.0233422
-0.0242974
-0.0240546
-0.0226822
-0.0199596
-0.0170927
-0.0150815
-0.0137897
-0.0129604
-0.010581
-0.00838153
-0.00714139
-0.00905718
-0.0111508
-0.0121626
-0.0137464
-0.0137207
-0.0143314
-0.0137688
-0.0138748
-0.0139248
-0.0141035
-0.013877
-0.0133602
-0.0125
-0.0115894
-0.0108698
-0.0105051
-0.0104819
-0.00241059
-0.00555176
-0.00774868
-0.00942346
-0.0102606
-0.00929424
-0.00910629
-0.00890843
-0.00894426
-0.00897087
-0.00902401
-0.00906621
-0.00914795
-0.00921828
-0.00933038
-0.00947247
-0.00971855
-0.0100684
-0.0105063
-0.0110248
-0.000956283
-0.00401434
-0.00724157
-0.00987493
-0.0101205
-0.00955232
-0.00883277
-0.00816074
-0.00799498
-0.007817
-0.00784135
-0.00784549
-0.00796663
-0.00817673
-0.00849005
-0.00888124
-0.00932521
-0.00979238
-0.0102579
-0.0106987
-0.00142082
-0.00352614
-0.00775296
-0.0110177
-0.011804
-0.011088
-0.0100653
-0.00876563
-0.00850646
-0.00812437
-0.00818033
-0.00791836
-0.0078492
-0.00784092
-0.00804556
-0.00834701
-0.00873034
-0.00916561
-0.00961938
-0.0100505
-0.00792512
-0.00425854
-0.00589769
-0.00835865
-0.0108357
-0.0115776
-0.0112781
-0.0101976
-0.00989952
-0.00959003
-0.00962241
-0.00871169
-0.00798378
-0.00768113
-0.00774051
-0.00801252
-0.00839972
-0.0088675
-0.00937809
-0.009886
-0.00426933
-0.00569024
-0.00495707
-0.00667687
-0.00944062
-0.0111923
-0.0111754
-0.0106524
-0.0103021
-0.0103775
-0.00999195
-0.00900922
-0.00797697
-0.00766409
-0.00769141
-0.00796685
-0.00835961
-0.00884163
-0.00939804
-0.0099708
-0.00332145
-0.00326005
-0.00290715
-0.00420037
-0.00680115
-0.00964849
-0.0105552
-0.0120422
-0.0122567
-0.0139007
-0.0144035
-0.0124383
-0.00859387
-0.00727619
-0.00760664
-0.00796442
-0.00837044
-0.00884015
-0.00933934
-0.00984515
-0.00282895
-0.0017524
-0.00197452
-0.0033447
-0.00529579
-0.00714685
-0.00904688
-0.0106524
-0.0117064
-0.0121767
-0.0132868
-0.0114123
-0.00829999
-0.00712361
-0.00672403
-0.0080293
-0.00850067
-0.00895499
-0.00939297
-0.0097883
-0.0053046
-0.00233647
-0.00238084
-0.00371793
-0.00520477
-0.00594637
-0.0069799
-0.0073902
-0.00707228
-0.00701786
-0.00724396
-0.00764737
-0.00844471
-0.00907358
-0.00856613
-0.00943108
-0.00979015
-0.0102159
-0.010632
-0.0110008
-0.0145767
-0.00307652
-0.00288082
-0.00410972
-0.00571607
-0.0065945
-0.00766004
-0.00827799
-0.00871639
-0.00911852
-0.00948737
-0.00954172
-0.0100003
-0.0110945
-0.0116789
-0.0119004
-0.0120074
-0.0121895
-0.0124063
-0.0126501
-0.00458474
-0.00169856
-0.00259079
-0.00465997
-0.00654474
-0.00796373
-0.00899947
-0.00962525
-0.0100144
-0.0108135
-0.0112823
-0.0110926
-0.0112994
-0.0124246
-0.0140733
-0.0147512
-0.0148105
-0.0145149
-0.0140389
-0.0136723
-0.00430662
-0.00218403
-0.00204263
-0.00426948
-0.00640146
-0.00803533
-0.00865164
-0.00986161
-0.0105192
-0.0109577
-0.0113107
-0.0117658
-0.0125176
-0.0136495
-0.0141794
-0.0147528
-0.0149053
-0.0146924
-0.0143158
-0.0141292
-0.00110367
-0.00375281
-0.00405108
-0.00564117
-0.00717108
-0.00831442
-0.00926483
-0.0100418
-0.0105782
-0.0110731
-0.0113607
-0.0115573
-0.0116913
-0.0117608
-0.0118196
-0.0117472
-0.0116499
-0.0114796
-0.0113554
-0.0114657
-0.00390496
-0.00378383
-0.0043906
-0.0060814
-0.00726292
-0.00829808
-0.00922758
-0.00994197
-0.0105965
-0.0111018
-0.0114651
-0.0116603
-0.011731
-0.0116629
-0.0114648
-0.0111894
-0.0108853
-0.0106073
-0.0104066
-0.0103982
-0.00395889
-0.00382175
-0.00383994
-0.00512769
-0.00646839
-0.00779245
-0.0089276
-0.00996834
-0.0108134
-0.011481
-0.0119655
-0.0122704
-0.0124573
-0.0125047
-0.0124806
-0.0123333
-0.012115
-0.0118738
-0.0116769
-0.0116388
-0.00432486
-0.00895913
-0.00803791
-0.00690467
-0.00706348
-0.00800702
-0.00918077
-0.0102471
-0.0112122
-0.0119358
-0.0125856
-0.0130642
-0.0135002
-0.0138261
-0.014083
-0.0141976
-0.0142043
-0.0141146
-0.0139838
-0.0139884
-0.0108431
-0.0115259
-0.0111601
-0.0092008
-0.00872137
-0.00877759
-0.00953126
-0.0102841
-0.0111713
-0.0118294
-0.012526
-0.013082
-0.0137478
-0.0143878
-0.0151037
-0.0157298
-0.0163094
-0.016748
-0.0171065
-0.0174849
-0.00836697
-0.0154284
-0.0161249
-0.0139938
-0.0133771
-0.011472
-0.0104961
-0.0100949
-0.0104456
-0.0110435
-0.0115802
-0.0119047
-0.0121389
-0.0124107
-0.0129379
-0.0137512
-0.0148818
-0.0162446
-0.0178657
-0.0195736
-0.00210254
-0.0100133
-0.0169561
-0.0204711
-0.0225855
-0.0214305
-0.0189317
-0.0148278
-0.0116746
-0.00987461
-0.00972889
-0.0104817
-0.0114292
-0.0121447
-0.0125286
-0.0126213
-0.0125126
-0.0122489
-0.0119689
-0.011731
-0.0439466
-0.0221044
-0.028828
-0.0237938
-0.0282234
-0.0151148
-0.0175137
-0.0542831
-0.0310406
-0.0363673
-0.0294348
-0.0290188
-0.0181815
-0.0191845
-0.0241507
-0.0279522
-0.0341414
-0.0150951
-0.0173877
-0.0210475
-0.0212327
-0.0302611
-0.0358141
-0.0370525
-0.0181023
-0.0198706
-0.0212315
-0.0211804
-0.0761006
-0.089818
-0.0853023
-0.076351
-0.0612307
-0.0806745
-0.0591751
-0.0674901
-0.0832526
-0.0768808
-0.0563505
-0.0460351
-0.0524936
-0.0393018
-0.0615272
-0.0755881
-0.0764434
-0.0443
-0.0420785
-0.037785
-0.0378327
-0.05872
-0.0771424
-0.0744685
-0.0419859
-0.0429182
-0.0383096
-0.0423806
-0.0561692
-0.0725837
-0.0687975
-0.0436184
-0.0477299
-0.0442393
-0.0511412
-0.0590884
-0.0693833
-0.0813905
-0.0496496
-0.0589287
-0.0554021
-0.076763
-0.101482
-0.0884787
-0.10925
-0.0653112
-0.095688
-0.0863919
-0.111463
-0.129502
-0.112629
-0.111331
-0.106395
-0.11307
-0.115361
-0.114613
-0.0932431
-0.106491
-0.101983
-0.0913108
-0.0674521
-0.100489
-0.0891446
-0.0845783
-0.100631
-0.0984372
-0.0603664
-0.0458506
-0.0841524
-0.0671826
-0.0851223
-0.0980635
-0.097835
-0.043891
-0.0429962
-0.0617486
-0.0548477
-0.0804661
-0.097939
-0.097351
-0.0439729
-0.0511111
-0.0572682
-0.0752482
-0.0747838
-0.0967255
-0.095655
-0.0538952
-0.0631281
-0.0827665
-0.0970597
-0.0882199
-0.0961271
-0.0995562
-0.067737
-0.0881371
-0.0996762
-0.105894
-0.108163
-0.100518
-0.10104
-0.095985
-0.11298
-0.107306
-0.108844
-0.107617
-0.100687
-0.0994273
-0.115117
-0.114022
-0.108685
-0.107518
-0.110032
-0.113821
-0.112794
-0.107293
-0.101234
-0.108452
-0.108128
-0.104918
-0.112103
-0.108932
-0.096984
-0.0783148
-0.107481
-0.102483
-0.100369
-0.10748
-0.102549
-0.0710146
-0.0575993
-0.0986044
-0.0810767
-0.0994429
-0.101018
-0.0965748
-0.0582879
-0.0743386
-0.0767201
-0.076203
-0.0991292
-0.094972
-0.0916285
-0.0820178
-0.0970044
-0.079621
-0.0912797
-0.0998769
-0.0918608
-0.0973838
-0.0994063
-0.103072
-0.0941544
-0.101605
-0.0999514
-0.100195
-0.109207
-0.10352
-0.103451
-0.103509
-0.105534
-0.100626
-0.112157
-0.11987
-0.103164
-0.102125
-0.104665
-0.0967428
-0.112057
-0.121685
-0.124819
-0.111343
-0.108828
-0.119334
-0.122241
-0.10629
-0.125893
-0.122731
-0.107406
-0.101067
-0.122356
-0.116499
-0.099814
-0.120224
-0.1122
-0.0983397
-0.0858538
-0.113765
-0.105769
-0.0936861
-0.111178
-0.108783
-0.0811582
-0.0757888
-0.105033
-0.104075
-0.0886485
-0.10854
-0.10592
-0.0776067
-0.0873661
-0.104876
-0.108084
-0.0968723
-0.107757
-0.126548
-0.0907393
-0.101846
-0.112542
-0.130097
-0.116109
-0.138593
-0.166957
-0.105162
-0.109065
-0.136593
-0.142524
-0.131278
-0.174813
-0.185989
-0.107669
-0.095312
-0.14007
-0.123545
-0.00936204
-0.0105365
-0.0114817
-0.00891967
-0.0105226
-0.010356
-0.0119553
-0.0117188
-0.0119944
-0.0152136
-0.0115361
-0.0154792
-0.0130107
-0.0182602
-0.0157501
-0.0169985
-0.0250159
-0.0169867
-0.0219708
-0.0206667
-0.0296735
-0.0240134
-0.0284792
-0.0390086
-0.0237581
-0.0287692
-0.0331412
-0.0435808
-0.0383885
-0.0418738
-0.0499855
-0.0304511
-0.0375169
-0.0466501
-0.0544525
-0.0563343
-0.0542455
-0.0743584
-0.041322
-0.055703
-0.0569586
-0.0616209
-0.084884
-0.0825755
-0.0973775
-0.0603626
-0.0542313
-0.0602375
-0.0449448
-0.064396
-0.0966121
-0.0837395
-0.0446238
-0.0215094
-0.0387526
-0.0259569
-0.0134483
-0.0182908
-0.0183315
-0.0136797
-0.013399
-0.0161361
-0.0170677
-0.0175222
-0.0186896
-0.0207039
-0.0142145
-0.0193434
-0.0171092
-0.0176441
-0.0296581
-0.0219675
-0.0295629
-0.0217886
-0.0308644
-0.0183653
-0.0233328
-0.046588
-0.0337223
-0.0514385
-0.03439
-0.045699
-0.0260194
-0.0351192
-0.0614228
-0.0590811
-0.0807663
-0.0493554
-0.0581158
-0.0383181
-0.0463865
-0.0847124
-0.0853168
-0.0912389
-0.0600635
-0.0605311
-0.0475866
-0.0468148
-0.0990638
-0.0911206
-0.087757
-0.0580312
-0.0444036
-0.0457116
-0.0438382
-0.0881964
-0.0867387
-0.0865733
-0.039812
-0.0308759
-0.0442023
-0.0482578
-0.0230548
-0.0256095
-0.0331766
-0.0189202
-0.0203883
-0.021683
-0.0246072
-0.0231734
-0.0364712
-0.0375167
-0.02026
-0.0188274
-0.0251889
-0.0259838
-0.0269639
-0.0350754
-0.0337411
-0.0186844
-0.0211122
-0.0263133
-0.0294263
-0.0422265
-0.0355717
-0.0469854
-0.0229059
-0.0293375
-0.031411
-0.0388302
-0.0686146
-0.0524804
-0.0704532
-0.0314483
-0.0364415
-0.0411879
-0.0444693
-0.0767336
-0.075179
-0.0791459
-0.0374681
-0.0385119
-0.0439075
-0.0383971
-0.0728315
-0.0773148
-0.0655225
-0.0385717
-0.0397974
-0.0363025
-0.0324639
-0.0728206
-0.0604972
-0.0473534
-0.0407848
-0.0456033
-0.032277
-0.0349355
-0.0415634
-0.0324058
-0.0360345
-0.0253477
-0.0270122
-0.0266212
-0.032866
-0.0456583
-0.0388069
-0.0455016
-0.02758
-0.0290607
-0.0364375
-0.0446254
-0.0374758
-0.0486697
-0.056969
-0.0298627
-0.0344742
-0.0479123
-0.0558271
-0.0476384
-0.0612946
-0.07351
-0.036884
-0.0455553
-0.0589813
-0.0649922
-0.0708738
-0.0780547
-0.0895314
-0.048301
-0.0523093
-0.0662391
-0.0652953
-0.0832358
-0.0929404
-0.0940562
-0.0515849
-0.0436705
-0.0628293
-0.051168
-0.0672038
-0.0892349
-0.0671844
-0.0404444
-0.033866
-0.0469555
-0.0383396
-0.0474097
-0.0606204
-0.0509037
-0.033097
-0.0348968
-0.0368143
-0.0356095
-0.0115054
-0.00826102
-0.0116303
-0.00916095
-0.0143249
-0.00893503
-0.0131172
-0.0180254
-0.0132222
-0.0193858
-0.0164563
-0.0233385
-0.0147601
-0.0197408
-0.0259192
-0.0219086
-0.0308184
-0.0259386
-0.0343914
-0.0214246
-0.026767
-0.0335719
-0.0341672
-0.0444514
-0.0373756
-0.0453154
-0.0287358
-0.0352069
-0.0411604
-0.0475817
-0.0545807
-0.0473847
-0.0505738
-0.0370928
-0.0373096
-0.0556901
-0.0558933
-0.0537384
-0.0507597
-0.0443934
-0.0350727
-0.0237637
-0.0426067
-0.0498923
-0.0324921
-0.038388
-0.0185041
-0.0196445
-0.0114988
-0.0149539
-0.0272912
-0.0180655
-0.0143554
-0.010391
-0.010338
-0.00950181
-0.0119464
-0.00938369
-0.0110856
-0.00940007
-0.0126921
-0.00939614
-0.011216
-0.019582
-0.0117746
-0.0144126
-0.014029
-0.0177483
-0.0116498
-0.0125322
-0.0303184
-0.0155404
-0.0201079
-0.0188924
-0.0224527
-0.0128472
-0.0142085
-0.0301086
-0.0368745
-0.0306635
-0.0315072
-0.0339417
-0.0343827
-0.0275592
-0.0403225
-0.0503549
-0.0443531
-0.0433735
-0.0474177
-0.0457724
-0.0381469
-0.0498576
-0.0374022
-0.0369932
-0.0272461
-0.0192862
-0.0195769
-0.0198543
-0.0322725
-0.0362997
-0.0358735
-0.0166753
-0.0117666
-0.0199618
-0.0206163
-0.0222996
-0.036571
-0.040727
-0.0110636
-0.0104906
-0.0208097
-0.0209604
-0.0117314
-0.013498
-0.0179651
-0.0100079
-0.0118293
-0.0133569
-0.0178291
-0.0138389
-0.0189967
-0.0207065
-0.0122252
-0.0128725
-0.0188163
-0.0202634
-0.0177933
-0.0214314
-0.0259205
-0.0131021
-0.0142823
-0.0204783
-0.0209138
-0.0186795
-0.0207193
-0.0189985
-0.0177507
-0.0201771
-0.0185555
-0.0179723
-0.0220534
-0.027709
-0.0240506
-0.0221243
-0.0252359
-0.0233875
-0.0212059
-0.0325607
-0.0360071
-0.0308435
-0.0206112
-0.0224806
-0.0212836
-0.0228348
-0.0350616
-0.02936
-0.0279247
-0.0230623
-0.024678
-0.0237494
-0.0266971
-0.0414015
-0.0285795
-0.0333804
-0.0250728
-0.0255104
-0.0274745
-0.0284854
-0.0208048
-0.0170592
-0.0228859
-0.0159056
-0.020258
-0.0166693
-0.0226941
-0.024722
-0.0259352
-0.0333526
-0.0215194
-0.0238744
-0.0253204
-0.0298967
-0.0311559
-0.036502
-0.0445718
-0.0243153
-0.0250674
-0.0311506
-0.0328528
-0.0415241
-0.0473343
-0.0529875
-0.0252115
-0.0250188
-0.0329376
-0.0316148
-0.0446314
-0.0535629
-0.051065
-0.0246966
-0.0229167
-0.0303899
-0.0258317
-0.0345325
-0.0478344
-0.0366012
-0.0223144
-0.0222098
-0.0241864
-0.0213116
-0.0281806
-0.0330418