/*--------------------------------*- C++ -*----------------------------------*\
  =========                 |
  \\      /  F ield         | OpenFOAM: The Open Source CFD Toolbox
   \\    /   O peration     | Website:  https://openfoam.org
    \\  /    A nd           | Version:  10
     \\/     M anipulation  |
\*---------------------------------------------------------------------------*/
FoamFile
{
    format      ascii;
    class       volScalarField;
    location    "8.2";
    object      k;
}
// * * * * * * * * * * * * * * * * * * * * * * * * * * * * * * * * * * * * * //

dimensions      [0 2 -2 0 0 0 0];

internalField   nonuniform List<scalar> 
12920
(
243.97
743.585
1236.11
1447.22
1371.4
1017.16
531.329
285.727
194.399
165.163
148.771
138.831
130.062
123.631
114.562
103.17
88.8504
72.2169
59.5924
49.0458
2712.08
1356.29
1332.4
1030.96
843.224
559.747
343.945
278.55
274.191
271.735
245.898
219.059
201.829
188.608
174.288
155.925
136.335
126.385
126.153
129.485
712.053
1879.7
1731.48
963.473
600.884
448.008
396.653
395.834
388.342
357.159
314.543
282.927
251.281
225.56
201.963
180.819
169.215
165.602
165.755
164.924
733.557
2197.04
2016.8
1046.15
722.022
577.914
498.779
462.843
413.452
384.086
345.318
318.551
288.205
260.786
236.006
214.503
202.041
194.216
191.695
184.839
387.004
497.59
809.855
839.174
742.569
648.566
546.933
500.037
433.896
392.499
349.188
321.502
295.358
275.282
258.393
242.545
233.611
222.737
217.226
202.568
974.108
905.392
924.252
857.743
710.753
568.503
490.278
433.561
378.583
352.422
323.175
305.157
284.863
268.215
253.979
241.09
234.635
222.394
213.855
194.42
293.252
1019.48
1212.04
1141.25
847.761
691.359
571.068
488.793
416.515
360.43
316.815
289.08
267.643
251.794
235.986
226.312
219.526
205.464
183.805
157.454
2477.71
1979.33
1464.86
1212.65
839.689
679.546
389.593
272.446
257.226
207.854
191.764
169.54
158.733
148.155
220.602
200.841
178.428
151.573
130.068
120.553
1806.89
2583.79
2040.87
1563.65
1107
476.021
248.779
194.072
177.009
127.438
104.444
91.521
82.9406
78.8399
128.999
159.431
128.253
107.187
96.8444
95.7857
868.181
2076.38
2286.82
2222.99
1681.44
677.403
193.912
168.539
182.776
130.54
102.298
88.2012
73.4759
62.9901
89.7721
106.055
95.6043
92.5478
91.5944
91.926
377.794
2138.22
2435.58
2732.23
2570.13
1566.13
730.629
278.691
94.105
86.4451
78.2392
64.6527
51.3743
43.7149
68.4257
110.77
104.283
102.393
102.482
101.545
3692.03
3627
3191.34
2761.34
2324.5
1587.85
905.028
275.22
68.637
43.3469
40.2947
49.5502
55.3898
57.5448
96.881
124.779
109.57
100.226
96.8982
94.3968
3875.32
3285.03
2179.11
1481.47
1244.28
754.781
408.224
233.533
170.617
110.907
95.1426
87.0659
80.0559
74.8914
120.053
107.466
99.5831
93.7115
89.0074
84.8967
9652.22
3517.05
1746.02
1075.84
722.375
509.41
375.892
362.279
310.554
266.521
216.098
189.495
165.827
153.061
138.632
123.217
108.337
95.7894
87.8513
79.3782
4470.7
2380.7
1283.76
803.878
620.764
542.355
437.648
457.945
448.447
459.514
436.481
381.004
285.39
232.884
204.107
172.944
139.978
111.324
93.7426
78.1832
2671.95
3042.39
1768.13
1024.93
649.803
548.772
484.289
479.326
462.825
459.247
432.98
395.063
335.11
288.869
245.7
209.245
173.139
136.027
110.388
87.0198
3779.8
4215.16
2305.04
837.341
508.809
438.607
428.925
419.292
395.03
365.252
330.019
295.36
258.53
228.921
201.688
171.209
143.622
119.453
105.54
89.9221
1986.32
3461.51
2059.81
990.162
622.791
446.339
344.761
299.43
262.461
238.78
210.101
181.16
153.498
133.517
123.435
118.779
114.93
107.176
102.178
97.7277
2592.3
2195.08
1607.77
1136.67
797.078
628.13
466.485
365.702
273.602
237.885
208.136
192.693
171.033
145.996
120.23
102.937
95.2715
93.9178
94.5564
96.9228
1557.51
703.807
609.475
569.969
438.617
370.287
329.534
297.875
236.311
186.364
157.507
148.197
137.611
127.802
116.695
102.086
89.8625
81.205
78.2563
71.577
688.594
2601.46
3028.49
2829.87
2363.69
1600.7
930.962
583.743
451.59
394.556
346.387
301.235
260.835
229.437
204.153
179.154
152.426
135.844
131.377
136.307
4756.42
3955.65
3944.55
2369.56
1252.2
879.417
659.961
686.459
691.689
674.627
601.031
571.016
557.123
559.299
556.093
530.438
469.596
433.662
427.858
419.681
1872.2
4186.14
4322.33
2439.3
1443.79
1148.68
1057.05
1086.31
1029.89
948.74
843.677
786.059
722.12
680.977
630.996
581.913
547.827
530.402
525.12
507.773
782.054
3784.12
3968.06
2759.43
1930.43
1475.08
1290.5
1202.24
1079.34
1016.91
924.91
869.707
801.527
750.835
697.016
650.374
619.683
597.154
586.19
552.935
1006.16
2410.39
2563.88
2325.58
1966.94
1683.19
1411.46
1309.87
1147.29
1068.85
967.589
906.787
840.847
794.236
750.506
713.211
688.47
658.299
638.826
591.16
1954.46
3001.72
2682.38
2138.73
1802.48
1474.35
1287.18
1154.72
1019.34
965.462
893.432
851.318
801.074
763.985
729.635
700.732
680.163
646.976
616.364
570.283
607.346
2335.71
2786.52
2723.82
2069.43
1810.87
1471.36
1256.66
1063.63
944.817
852.069
794.004
743.469
706.015
667.38
640.733
617.457
572.951
516.826
468.988
12553.2
5621.51
3469.7
2859.79
1884.43
1688.96
1339.27
1125.22
939.139
767.733
692.284
624.951
587.878
547.34
540.912
512.579
468.323
410.546
374.096
362.025
4767.94
6783.2
4515.7
4055.54
2404.62
1533.3
1245.92
1132.94
871.523
667.341
558.595
495.623
452.321
422.171
395.511
358.572
314.93
287.996
283.7
291.564
9174.64
7446.24
5561.02
4855.44
3203.15
1968.1
956.754
916.363
811.134
608.054
484.555
407.484
346.026
302.412
260.643
247.742
248.213
254.843
266.727
286.599
6275.79
8398.71
6876.61
6290.16
5510.17
4448.21
2404.7
1641.47
549.962
445.294
364.231
274.6
218.824
194.544
206.416
262.176
272.804
284.904
295.621
305.776
5582.49
9849.9
7758.73
6085.91
4932.05
4439.83
2683.89
1676.37
465.316
319.351
292.306
279.36
271.091
268.16
280.36
293.261
280.565
276.159
276.953
280.253
17766.1
8015.64
4836.67
3247.79
2137.97
1502.65
1270.16
930.097
556.667
403.176
353.296
326.66
311.834
294.057
307.763
289.245
276.471
268.172
260.222
256.368
16296.5
8371.46
4266.89
2356.24
1459.37
1265.5
981.135
948.635
727.063
647.317
538.617
494.348
443.591
412.535
377.188
340.534
305.776
275.68
255.856
238.902
10347.9
5232.7
3031.05
1810.88
1587.95
1411.3
1222.76
1241.6
1131.98
1097.95
979.95
885.845
733.337
637.89
555.076
476.91
389.882
313.601
267.3
232.422
4932.92
6544.89
3298.19
2068.76
1412.02
1374.81
1263.12
1288.22
1218.13
1187.62
1077.84
1011.06
885.047
798.813
690.136
588.958
481.104
376.824
309.322
256.097
7301.18
6069.61
2440.81
1410.47
1204.95
1144.57
1125.67
1103.76
1000.3
944.875
825.556
760.784
666.983
614.668
551.625
486.726
412.785
348.647
311.345
271.465
6414.3
4590.4
2468.53
2071.5
1426.6
1128.47
862.595
780.319
664.703
623.84
536.843
482.253
413.094
384.506
372.145
367.24
349.274
321.34
306.781
293.573
6579.34
5381
3200.35
2906
2031.55
1481.4
1037.23
853.868
663.278
608.78
546.328
523.934
463.062
399.566
330.003
294.995
283.85
285.066
294.11
306.736
2765.54
1800.74
1590.07
1398.7
1019.04
829.379
695.85
572.375
437.864
374.808
341.005
311.896
280.908
252.562
224.91
203.948
184.394
177.962
174.448
155.353
4160.91
3856.97
3703.81
3206.26
2483.54
1707.15
1114.48
763.099
576.184
461.408
379.613
316.124
271.359
241.128
225.658
214.022
203.337
194.66
194.004
196.424
6830.82
5821.15
4622.41
2757.04
1813.19
1506.14
1239.04
1165.34
988.996
897.03
802.593
775.673
755.148
749.152
734.176
700.326
661.995
635.886
625.94
608.038
11386.2
6099.8
5280.07
3379.93
2398.77
2006.46
1747.28
1610.45
1386.84
1255.85
1123.42
1047.76
972.876
921.109
867.786
818.429
781.99
748.363
730.217
693.942
3441.69
4138.43
4600.55
3812.93
2732.32
2066.7
1837.2
1655.06
1470.05
1357.47
1230.5
1146.72
1060.9
995.832
936.29
884.26
847.775
808.426
782.99
727.951
2404.04
4447.99
4141.63
3379.38
2795.32
2275.71
1946.44
1757.41
1544.48
1416.69
1283.24
1193.22
1108.49
1044.7
988.768
938.927
902.037
855.664
825.22
762.048
6406.62
5751.88
4440.74
2949.1
2584.08
2065.65
1816.36
1603.83
1410.08
1308.49
1200.81
1130.79
1060.59
1006.93
959.827
917.022
882.813
836.218
804.605
751.577
2499.23
5779.42
4570.83
3600.9
2851.89
2411
1935.94
1628.49
1373.37
1226.11
1111.87
1038.37
972.106
921.366
871.462
830.021
790.952
737.319
695.648
651.711
10745
7731.15
5110.23
3738.94
2720.09
2334.96
1941.43
1548.8
1260.67
1042.05
947.487
859.233
809.639
752.69
697.014
654.773
609.015
564.598
541.942
526.895
12733.6
8277.8
5387.83
4347.22
2740.13
2102.39
1864.5
1516.79
1128.54
883.13
757.256
674.872
621.031
577.613
521.716
462.601
436.816
427.244
429.213
441.722
17604.3
10364.7
6682.2
5194.19
3106.04
1968.5
1472.08
1266.75
1001.07
759.965
612.482
513.187
444.721
399.006
352.571
352.211
364.444
384.034
401.449
427.41
29797.9
14669.5
8976.5
6663.94
4247.44
3349.59
2265.73
1379.29
765.878
616.874
371.853
247.4
257.192
269.884
305.079
374.503
394.345
411.437
423.397
438.693
7870.28
10835
9451.89
6348.48
3814.81
3333.22
2570.65
1392.68
675.591
505.246
436.818
390.355
373.864
368.682
380.768
401.38
398.408
399.46
402.013
409.38
18340.4
10440.1
5721.67
3362.86
2209.52
1621.35
1423.84
1140.89
704.372
553.988
489.338
458.402
437.456
416.867
419.684
400.734
387.638
378.065
371.383
371.624
7935.08
10309.1
6278.51
2863.4
2083.45
1726.33
1328.29
1201.16
890.227
806.479
677.111
629.547
567.665
526.837
480.676
438.689
403.577
375.678
356.509
343.087
18757.1
7216.23
3950.55
2503.71
2298.49
1874.46
1676.32
1549.64
1314.15
1227.81
1049.08
940.006
809.33
723.029
631.283
545.484
468.814
405.561
365.254
334.199
32485.9
7362.68
3940.28
2529.66
2223.07
1925.06
1757.44
1655.33
1449.71
1357.2
1185.38
1080.39
942.235
843.81
738.619
640.881
546.157
461.529
407.132
360.498
13424.5
6693.33
3023.28
2030.97
1987.72
1611.93
1569.22
1392.14
1223.6
1116.29
981.444
901.999
804.792
744.28
671.037
600.757
526.977
462.391
422.378
384.512
4084.21
5810.15
3849.93
2792.17
2011.52
1500.99
1233.79
1078.86
931.261
863.784
757.291
704.445
634.164
604.328
569.733
535.577
493.552
457.517
437.103
424.225
37873.3
12053.5
5944.88
4072.87
2486.67
1760.07
1234.92
1048.65
849.512
802.221
724.193
692.326
615.231
565.791
512.439
484.507
463.408
454.893
448.497
445.354
3034.37
3799.15
2872.94
1860.89
1187.61
906.872
713.437
577.355
482.679
424.946
374.137
334.211
303.367
276.399
253.268
242.477
237.341
231.504
217.539
170.08
6070.96
4379.68
3980.81
3246.36
2432.98
1674.03
1145.64
805.702
596.471
449.93
357.657
298.151
269.573
251.932
248.744
242.817
238.041
229.232
228.623
227.311
9522.93
6434.95
5171.26
3189.68
2622.99
2082.69
1796.19
1521.78
1256.45
1121.08
1030.01
995.445
966.152
937.785
904.556
863.192
834.396
811.78
800.549
784.497
16628.7
6710.86
6407.74
4077.19
3292.7
2597.08
2331.98
1992.48
1732.97
1538.43
1402.74
1295.03
1213.73
1138.81
1079.54
1021.02
981.129
938.406
911.839
868.957
7908.23
6403.25
6307.59
4794.49
3500.1
2489.88
2339.75
2011.64
1831.89
1648.63
1513.81
1391.25
1300.29
1215.22
1151.53
1088.95
1045.01
991.554
954.903
888.922
6293.36
7048.57
5889.76
4337.03
3634.15
2737.26
2461.18
2138.56
1919.25
1717.6
1574.02
1445.68
1353.63
1268.51
1204.25
1140.28
1092.53
1032.72
993.037
920.401
8375.65
7227.05
6271.42
3705.8
3293.6
2482.03
2296.27
1961.15
1757.89
1591.8
1471.01
1370.13
1290.48
1220.35
1163.76
1107.24
1063.14
1009.49
976.421
916.811
10828.3
7577.76
6405.78
4323.82
3629.15
2841.29
2359.23
1930.91
1652.57
1471.72
1347.3
1254.65
1176.9
1110.19
1048.26
993.892
946.697
893.933
861.358
818.089
10273.6
7403.02
6316.26
4206.7
3475.41
2793.39
2345.58
1828.8
1493.47
1253.86
1145.7
1042.47
980.835
910.071
831.083
782.461
744.257
713.236
699.581
684.299
18714.9
10138.3
6697.66
4490.77
3184.79
2591.96
2292.99
1737.05
1291.09
1026.92
893.721
798.063
738.897
686.278
619.16
572.868
567.291
569.751
579.85
594.82
17278.4
10285.5
7752.23
5243.45
3102.74
2183.31
1859.71
1480.59
1111.78
842.814
676.127
566.326
504.726
472.062
443.2
476.706
499.408
524.977
548.568
575.492
15020.7
14174.2
10014.9
6158.51
3342.71
2243.35
1558.79
1279.82
905.347
712.409
469.653
336.211
337.213
366.68
418.312
504.317
526.035
545.034
560.08
579.635
9433.6
11754.5
10032.4
5695.21
3017.95
2044.54
1572.38
1203.37
814.665
627.996
526.867
467.264
454.167
457.957
477.901
516.289
519.977
525.675
531.941
545.684
20198.2
11334.2
6541.03
3525.95
2486.97
1778.78
1595.07
1232.84
806.569
669.584
596.857
563.078
538.3
515.963
524.818
509.05
498.15
491.483
490.051
494.982
9129.75
11711.6
7228.56
3453.68
2767.43
2075.7
1650.18
1360.42
1046.16
923.031
795.837
733.82
668.424
618.643
569.727
529.156
498.506
475.487
460.62
455.424
19996.9
8900.02
4711.87
3229.7
2885.81
2190.72
2097.05
1704.34
1445.19
1271.53
1092.59
971.661
856.835
769.044
679.805
601.383
538.813
490.667
459.96
440.416
49354.3
9410.61
4595.33
3125.13
2863.33
2221.89
2163.44
1831.31
1621.5
1423.09
1252.54
1105.31
977.166
867.29
767.894
677.225
600.427
537.295
496.57
465.388
32686.1
12399.4
4051.85
2768.8
2496.95
1865.88
1891.54
1521.32
1393.71
1202.84
1092.55
983.906
896.592
818.857
745.183
673.133
610.553
558.65
525.096
498.643
12710.7
9351.84
5377.72
3341.83
2476.25
1702.12
1550.14
1263.28
1156.69
1029.01
938.78
864.028
801.02
750.271
704.269
657.023
617.626
586.93
570.521
565.366
16564.4
12280.3
8171.26
4624.32
2835.99
1812.18
1386.68
1157.92
1025.37
943.511
870.377
811.366
744.385
697.382
658.261
633.796
616.392
606.38
596.826
594.088
5706.01
5003.22
3405.83
1973.22
1164.28
819.479
655.495
548.155
480.285
412.029
358.579
320.165
297.452
274.81
260.974
252.589
243.964
221.189
189.858
158.034
3818.56
4231.9
3765.94
2831.9
2035.56
1411.02
980.597
687.633
483.544
359.379
299.428
270.634
260.099
249.796
248.876
240.604
235.131
225.444
225.301
221.02
25877.7
7839.48
5474.73
3795.36
3296.4
2366.2
2342.85
1722.89
1608.85
1324.45
1319.63
1227.2
1210.48
1135.59
1107.69
1050.75
1034.92
1013.02
1005.74
1001.36
12576.1
8860.12
7805.71
4950.35
4143.74
2910.02
2899.97
2237.07
2118.92
1778.97
1712.21
1529.22
1473.1
1354.35
1306.69
1231.49
1196.38
1146.63
1117.57
1080.55
8388.45
8193.06
8955.62
5520.06
4307.91
2745.69
2858.47
2246.38
2206.68
1879.07
1805.65
1611.05
1550.29
1429.92
1378.15
1298.76
1255.42
1191.17
1148.94
1084.64
36596
12341.4
8243.42
5230.75
4540.52
3032.82
3003.71
2420.07
2305.7
1965.11
1872.1
1678.11
1609.83
1490.77
1433.16
1352.09
1301.47
1231.18
1186.22
1113.34
12770.9
8681.61
7790.47
4235.58
4169.3
2780.64
2826.28
2225.27
2106.2
1821.22
1738.24
1592.76
1527.41
1438.3
1381.65
1312.77
1266.78
1209.92
1175.74
1116.49
22081.5
10710.2
8602.2
4888.76
4511.14
3131.88
2834.54
2188.18
1954.39
1709.72
1607.16
1480.79
1407.96
1317.43
1249.98
1186.36
1138.66
1088.87
1061.25
1022.73
7460.14
9244.66
8061.81
4592.3
4378.99
3137.47
2689.77
2064.4
1747.46
1499.11
1398.08
1281.12
1215.18
1130.71
1013.19
958.477
926.558
904.816
895.907
884.895
12347.9
11905.3
8515.16
4769.79
3698.21
2977.21
2679.82
1939.72
1502.81
1229.06
1099.63
991.597
934.276
873.629
801.556
751.636
753.134
761.815
776.973
793.272
15875.8
10158.9
9118.96
5227.87
3273.31
2414.34
2194.51
1733.1
1307.05
984.325
782.228
669.217
657.763
652.133
637.98
673.066
688.178
715.705
742.325
770.339
11658.8
12362.6
11211
5733.22
3025.13
2021.46
1720.34
1481.72
1137.26
839.79
611.445
476.798
516.031
586.755
636.514
699.22
710.141
727.996
744.65
768.795
11847.2
12700.2
11108
5371.31
3089.95
2000.23
1764.98
1434.88
1061.15
810.517
669.903
609.14
636.699
655.501
674.594
693.899
697.272
702.769
711.915
731.905
17859.5
11095.3
7187.44
4521.58
3031.15
2356.89
1924.84
1405.91
1047.83
863.585
799.618
740.734
721.392
687.73
691.31
672.147
659.885
657.762
659.176
671.357
32589.8
15887
7836.64
4396.78
3626.67
2560.38
2355.7
1561.54
1366.04
1078.53
998.96
879.421
827.322
756.892
711.117
668.681
645.141
625.799
618.088
622.576
30618
12383
5741.37
4625.89
3436.79
2809.57
2598.77
1866.26
1655
1343.75
1206.92
1049.2
957.774
857.902
779.851
708.548
662.032
626.099
605.569
600.897
35110.7
10262.6
5365.41
4276.38
3418.34
2628.08
2628.78
1963.84
1870.61
1491.73
1389.21
1164.01
1077.79
936.66
859.262
768.131
713.131
664.431
637.552
625.303
24520
11098.8
4996.76
4162.68
2928.19
2361.66
2247.27
1655.89
1622.09
1298.47
1256.15
1078.61
1028.64
913.238
860.598
782.92
741.143
698.364
673.797
660.958
38396.7
14761.7
6771.52
4439.59
3003.09
2048.24
1932.1
1444.73
1444.4
1179.09
1161.94
1013.88
987.502
892.299
864.432
804.676
783.915
756.211
747.891
750.459
20853
11900.6
9547.93
4932.69
3238.11
1865.89
1675.6
1256.81
1267.73
1051.23
1053.6
922.692
908.933
836.008
833.862
809.069
807.705
786.468
780.707
795.402
8075.61
3987.47
3281.15
1857.04
1039.71
719.324
584.119
496.143
422.24
346.005
303.861
268.566
254.415
227.72
214.323
192.481
175.433
161.16
154.598
148.564
643.27
649.402
451.476
823.587
696.859
714.998
486.144
535.021
398.06
314.72
662.788
577.836
424.31
347.955
426.654
515.489
453.547
693.472
478.012
611.068
526.193
269.164
429.76
374.136
410.51
307.096
495.824
429.641
190.778
180.604
166.754
965.864
1006.36
807.941
858.969
188.405
179.817
192.409
980.49
834.154
861.684
814.213
134.237
190.714
148.745
771.075
620.885
776.271
612.919
107.279
133.319
108.617
585.032
503.658
564.434
467.469
91.9375
103.933
93.0131
484.046
441.481
446.087
396.275
83.2496
90.2974
80.3747
428.298
396.746
382.094
341.703
77.8981
77.6318
71.1287
389.407
369.765
330.969
303.41
62.6467
69.5266
55.3327
363.827
356.918
295.615
271.258
149.741
300.793
177.615
748.662
766.885
926.429
990.615
184.864
159.913
113.53
789.872
764.868
957.655
558.873
143.972
113.726
105.12
732.509
589.461
524.594
455.228
106.919
100.298
90.67
545.262
453.47
434.451
380.682
91.155
87.3725
76.8225
432.162
379.855
360.545
300.213
76.9277
72.0144
58.8892
364.31
320.187
281.579
234.748
65.3411
55.375
47.5676
307.794
276.638
222.606
194.063
51.399
45.3645
32.9084
267.333
248.006
186.448
168.44
281.173
984.268
332.644
1810.17
1413.04
2263.63
1488.11
99.5832
336.304
86.8171
1430.53
544.096
1586.25
544.486
88.6785
66.5264
44.6081
471.288
401.873
394.234
273.537
80.8918
41.9225
46.0026
388.022
346.446
262.638
258.727
68.7259
49.1568
56.0735
328.182
271.026
257.239
245.563
54.2049
56.2692
54.687
253.387
210.528
239.961
224.305
45.2729
54.2695
53.7883
199.988
177.722
221.491
217.498
32.9309
53.5115
46.7763
172.764
162.657
216.567
217.694
292.976
591.847
151.348
1870.46
1455.61
1521.47
1008.39
82.5306
118.209
107.407
1462.79
490.748
808.92
570.573
47.9499
103.393
62.3987
390.62
275.973
491.817
334.249
39.6393
56.7351
47.1549
259.374
242.706
309.705
270.686
46.6159
48.4043
49.1171
241.733
241.55
266.73
260.643
54.4284
50.0529
50.5225
240.887
237.318
262.242
261.353
57.5375
51.5181
52.606
237.156
236.643
260.41
254.579
49.1376
52.6974
41.3306
235.96
232.583
251.674
244.073
1180.61
1041.78
1008.31
1728.21
1538.53
1501.15
1338.73
941.253
994.839
907.151
1443.94
1162.11
1281.25
1088.2
705.99
858.039
680.85
1078.19
885.024
1014.97
813.93
578.386
630.543
526.041
839.682
738.874
761.499
645.467
509.855
502.217
445.886
716.766
655.618
617.103
547.689
459.735
429.728
385.332
638.182
595.538
527.914
477.305
428.21
373.627
343.174
586.321
554.186
464.217
429.52
404.212
334.497
304.605
545.584
520.701
419.579
388.479
912.414
1168.63
1164.36
1356.39
1242.96
1459.46
1294.41
853.086
1087.75
647.396
1198.53
1030.64
1164.78
834.615
654.49
603.064
516.118
966.007
781.693
773.414
646.976
508.539
492.553
424.458
731.965
618.531
620.156
479.175
425.074
398.825
327.123
589.056
514.986
434.779
340.747
359.319
306.864
258.534
493.822
439.959
323.461
295.781
312.314
246.332
217.913
425.705
389.463
288.9
271.815
278.604
210.549
190.919
379.133
354.845
267.62
259.019
1735.05
3276.71
1814.88
2515.28
2015.39
3567.8
2668.19
629.139
1815.01
620.014
1534.97
800.412
2185.17
744.616
462.312
469.02
338.006
722.578
597.99
636.513
496.423
388.469
324.973
309.739
577.443
442.71
475.768
424.552
294.414
303.235
280.112
396.979
294.773
404.417
354.617
229.135
272.238
253.939
272.196
247.887
342.921
324.031
198.642
251.066
247.12
247.649
249.337
322.304
320.657
184.67
246.403
245.881
250.357
254.263
320.86
323.885
1750.39
2042.12
1154.37
2989.95
2124.94
2287.7
1304.82
568.973
942.253
641.615
1600.32
723.306
1159.84
783.106
338.216
552.869
385.668
632.503
490.01
682.902
516.071
296.343
362.672
319.899
466.151
421.472
492.707
441.613
282.631
314.316
303.865
407.706
374.917
430.258
409.723
271.939
305.397
302.01
367.212
353.563
409.032
399.214
269.072
300.881
292.556
351.704
347.214
395.656
383.158
262.026
290.18
277.526
346.243
341.998
380.175
366.404
1623.1
1623.39
1420.44
2190.82
1821.44
1923.43
1617.99
1215.35
1350.47
1128.64
1687.06
1343.67
1515.69
1223.13
929.179
1050.03
844.126
1251.37
1039.1
1133.01
915.182
779.999
791.302
673.071
990.949
883.886
860.427
735.424
692.774
643.71
571.276
859.466
786.189
703.587
624.239
630.734
550.799
499.459
767.043
720.116
602.639
552.057
586.697
486.288
451.388
709.089
669.264
539.756
507.61
549.931
441.406
409.867
658.758
626.188
498.44
469.753
1324.52
1467.74
1277.07
1769.04
1520.09
1492.03
1331.01
1071.36
1178.62
879.243
1430.68
1167.49
1256.48
986.223
810.422
815.087
679.52
1084.4
877.091
916.146
757.355
706.216
716.073
724.91
783.725
684.205
738.958
748.154
564.078
584.449
578.415
632.11
548.221
602.93
595.733
458.876
309.915
303.729
554.931
502.444
344.595
343.274
409.08
299.899
288.259
489.974
460.54
342.274
344.031
374.701
285.511
280.027
452.455
432.643
345.934
352.113
1726.9
3135.84
2455.29
1613.99
1358.05
1778.64
1414.28
842.481
1812.81
776.977
1259.69
946.889
1251.73
875.555
633.25
680.706
538.711
871.811
719.044
792.354
641.845
551.392
559
568.968
639.417
531.233
507.682
601.123
306.201
327.638
379.349
275.936
336.877
236.479
352.677
251.7
362.098
344.437
293.647
307.554
417.197
401.689
267.252
343.095
342.5
313.621
332.317
401.628
407.07
276.355
343.1
346.419
338.349
353.109
409.668
416.804
1806.94
2048.42
1317.83
1633.16
1309.63
1760.76
1390.9
762.222
1191.3
812.571
1188.32
863.654
1259.28
879.401
530.689
712.312
549.637
781.072
631.02
783.473
637.406
453.332
526.844
472.517
600.094
528.745
613.515
551.287
398.839
460.286
437.466
506.732
458.712
536.331
509.629
375.861
436.514
424.83
449.061
434.444
507.067
492.18
369.474
421.025
407.86
433.34
433.024
487.626
475.089
364.461
405.166
390.234
433.535
432.378
472.066
457.239
1879.53
2015.4
1677.42
2586.9
2048.17
2281.36
1872.39
1384.48
1565.71
1253.49
1888.01
1529.78
1738.88
1384.2
1075.37
1160.45
938.067
1439.15
1215.73
1285.57
1043.95
918.678
882.029
753.564
1165.86
1058.57
980.546
836.216
817.347
720.848
639.525
1032.98
946.75
800.475
713.601
750.271
617.856
568.746
927.435
879.991
693.853
660.197
697.07
557.248
527.17
868.299
820.543
654.381
633.478
651.784
518.517
490.576
808.925
767.481
626.521
599.731
1578.76
1534.07
1366.79
2114.18
1775.36
1715.3
1520.61
1198.46
1288.9
1020.33
1659.32
1334.63
1436.6
1175.14
898.127
948.269
779.512
1239.16
996.234
1092.98
875.529
711.364
737.953
555.335
931.173
777.906
813.62
645.523
589.27
495.819
392.056
738.508
645.41
592.089
476.203
515.935
376.019
360.942
624.473
594.812
454.121
442.854
479.156
360.254
367.904
593.113
584.859
454.267
494.465
453.565
371.526
379.847
580.713
564.048
502.458
512.804
1367.74
1609.79
1357.34
1658.07
1497.19
1636.31
1465.47
980.648
1241.47
910.108
1411.42
1136.74
1370.3
1070.02
743.741
827.661
672.159
1055.59
845.617
987.777
796.335
533.94
638.306
547.013
789.374
625.235
746.415
627.449
353.424
515.671
447.749
569.745
452.257
594.123
523.863
332.502
435.256
421.333
432.051
429.008
513.7
518.748
359.51
422.337
431.865
444.128
493.711
530.536
557.753
382.025
435.304
442.586
503.867
518.51
563.158
568.715
1307.41
1777.4
1416.72
1691.98
1456.47
1976.34
1542.18
896.891
1278.64
900.62
1354.96
1052
1383.57
1016.8
661.348
807.081
664.917
971.712
791.048
936.601
797.112
550.131
640.943
575.723
743.713
639.455
764.96
690.969
476.968
560.541
532.957
613.45
559.869
675.135
643.674
454.289
530.438
514.933
552.464
556.476
638.337
624.503
456.839
510.716
498.713
563.989
578.268
621.285
610.855
457.133
495.836
480.486
580.708
578.857
606.454
589.409
2103.23
2367.8
1945.65
3022.87
2385.01
2729.87
2251.69
1590.17
1808.04
1449.21
2207.52
1871.71
2104.14
1732.95
1278.94
1350.83
1103.38
1786.29
1555.19
1634.79
1372.65
1124.98
1037.2
887.883
1501.25
1408.04
1302.16
1146.86
1010.39
851.453
763.61
1384.51
1285.41
1110.37
1026.27
945.473
745.293
722.367
1270.07
1229.08
1017.46
1037.05
884.97
719.704
702.168
1221.85
1167.32
1041.18
1028.85
829.855
695.78
668.101
1159.16
1097.49
1024.76
986.417
1851.85
1782.29
1592.93
2548.92
2167.54
2125.46
1917.63
1404.1
1512.29
1257.25
2039.85
1695.35
1835.31
1580
1053.7
1171.39
932.405
1594.15
1318.68
1482.26
1199.87
822.863
862.735
684.603
1242.56
1070.26
1114.87
918.971
688.192
631.502
514.607
1029.12
939.189
868.683
761.538
653.784
494.643
500.411
930.984
972.219
755.963
839.605
655.678
522.848
575.641
990.148
994.334
888.367
948.893
633.411
583.93
590.143
992.29
956.55
954.628
934.815
1563.02
1702.08
1538.13
2073.31
1875.03
2067.65
1861.26
1221.64
1447.01
1159.61
1796.46
1553.53
1771.27
1518
905.082
1076.9
866.912
1457.5
1180.2
1431.27
1177.55
665.841
809.727
679.019
1097.67
907.353
1105.83
963.96
494.624
645.033
574.248
856.995
752.056
929.516
864.193
490.083
566.079
585.851
748.156
837.36
863.826
937.169
576.662
603.947
635.58
887.892
952.931
965.324
993.67
596.79
640.906
642.813
959.787
941.656
996.823
977.035
1535.07
2058.81
1610.16
2117.94
1880.89
2487.75
2015.27
1140.48
1444.02
1089.48
1779.34
1508.17
1796.21
1462.06
864.145
1014.9
871.316
1430.4
1193.04
1398.03
1248.94
696.786
833.234
757.324
1123.73
1001.86
1164.17
1105.67
614.968
742.015
708.056
973.073
920.671
1076.3
1044.39
625.67
700.881
688.835
919.988
977.891
1011.92
1013.3
653.252
685.993
675.416
990.861
1003.91
1002.08
994.375
650.992
670.164
652.009
1004.23
980.712
978.493
946.067
667.062
677.557
611.137
664.046
646.326
699.496
630.088
674.663
687.217
593.499
669.973
652.097
711.685
562.796
624.973
565.867
519.349
376.308
608.122
578.58
448.379
725.151
804.469
776.401
786.989
758.667
768.414
741.763
684.739
681.609
734.698
659.464
718.201
646.051
699.764
693.099
688.284
753.653
650.86
733.263
573.54
710.037
642.447
383.032
610.759
568.502
593.46
458.945
660.183
534.988
558.763
495.615
551.66
520.543
576.219
509.077
503.716
527.674
353.745
329.768
494.392
538.238
293.794
469.659
437.958
327.19
286.875
462.817
445.159
281.892
577.306
648.604
631.661
622.257
618.405
610.227
588.238
547.127
565.663
603.543
530.105
590.876
520.293
557.64
514.563
334.345
566.445
379.834
551.11
298.513
527.599
480.064
293.036
469.674
360.995
455.583
285.588
494.802
483.161
489.101
429.512
333.333
482.279
406.547
412.597
543.914
536.388
496.803
550.81
513.25
570.256
529.475
508.833
447.824
476.771
479.738
483.22
467.953
506.311
584.245
663.939
640.589
657.947
537.636
631.39
619.4
510.014
345.468
557.924
491.185
425.97
433.671
558.503
573.34
582.426
628.863
584.764
601.045
558.675
599.655
535.791
503.918
517.892
556.972
491.844
532.982
562.044
275.059
288.111
276.654
215.898
301.661
203.239
254.583
392.621
411.836
407.997
452.986
379.271
427.478
429.062
366.456
331.257
389.708
392.976
353.279
344.386
409.404
323.764
285.045
359.807
430.915
244.836
371.283
381.854
293.138
229.812
323.424
324.684
215.161
275.105
346.468
412.592
475.006
474.261
469.094
448.875
449.475
436.837
385.59
411.522
384.81
447.262
363.259
428.631
407.904
286.768
377.412
316.818
731.453
800.264
727.111
806.478
269.865
292.123
267.743
781.206
731.349
783.6
722.013
228.46
241.237
218.674
666.804
610.234
645.051
581.287
198.811
195.41
179.098
542.199
501.972
523.212
482.09
175.422
168.717
158.94
465.69
448.524
453.752
429.731
161.898
150.075
143.277
418.49
402.998
405.367
387.796
150.235
139.265
134.508
385.651
379.002
375.94
365.449
131.265
131.809
112.249
360.685
381.592
353.142
369.641
367.993
507.923
322.764
794.789
769.586
910.445
729.27
416.029
207.068
228.011
399.604
448.379
386.427
190.686
553.322
194.437
188.865
541.453
541.72
536.631
198.317
473.494
161.546
193.959
463.07
427.07
512.103
182.284
332.826
120.36
132.438
338.399
320.933
356.309
123.71
269.919
99.0015
104.42
259.731
250.136
280.795
100.05
236.999
88.8363
90.1778
224.53
220.043
243.362
88.0488
214.389
80.9375
81.2373
201.926
200.14
218.16
79.911
200.183
77.5276
76.0119
190.767
188.975
202.599
74.9633
114.197
114.748
87.1723
286.541
298.053
252.465
255.237
373.536
883.289
520.468
1140.09
781.59
1433.77
989.716
326.264
147.87
194.614
350.314
347.214
351.824
143.089
423.934
180.995
145.918
453.49
477.742
396.832
160.798
409.739
176.11
166.533
476.151
454.033
429.586
159.584
303.43
120.444
123.517
343.502
318.463
323.718
115.263
249.924
98.3214
99.477
269.547
258.44
260.758
95.6253
207.92
84.5254
84.656
229.435
219.646
218.867
80.4841
168.406
70.4585
67.9692
191.771
184.079
176.798
64.7573
140.856
60.8856
56.4947
163.903
159.658
146.255
54.0301
71.3427
70.0386
52.6944
195.571
203.064
155.265
161.73
1150.78
1771
1433.52
2598.44
2235.91
2775.62
2450.45
861.15
495.326
788.653
915.263
745.949
1045.8
535.923
880.733
193.879
324.722
950.568
692.091
1159.48
233.582
194.715
92.6441
75.6625
255.555
244.295
212.721
72.136
187.529
84.854
70.6455
226.406
222.305
186.297
71.4295
178.237
75.792
70.2658
202.942
195.283
183.079
68.9256
146.819
60.8955
60.7191
164.442
154.563
154.671
57.9548
122.74
49.2468
51.0906
129.501
123.478
127.636
49.2611
107.821
42.059
44.5569
108.468
105.255
110.467
43.1527
52.3972
83.4521
69.6169
152.082
162.254
184.126
199.698
1317.3
1488.73
1021.3
2369.06
2003.25
2135.13
1633.65
857.957
603.822
833.809
1097.09
864.521
1008.92
539.665
380.656
192.308
163.038
946.407
689.8
537.238
119.353
192.416
61.1393
77.6776
194.283
164.432
214.395
72.298
120.271
40.4975
50.5678
115.684
109.785
135.871
43.7577
114.825
41.6696
39.476
113.384
117.708
112.941
39.8297
135.486
52.2047
45.909
134.213
138.552
130.751
48.6245
148.714
56.3064
55.0081
143.697
144.997
146.261
56.4777
151.994
57.296
59.1297
146.451
145.732
152.444
59.0051
77.8455
93.107
70.5303
211.807
223.574
209.873
216.235
273.267
299.237
173.774
775.164
749.344
523.009
596.306
215.627
185.072
183.652
669.334
557.817
657.295
580.225
138.59
167.269
123.59
423.978
356.124
487.91
384.172
101.408
107.225
103.674
291.581
271.119
335.426
309.94
93.0805
98.0857
81.9881
253.889
243.757
287.243
254.879
84.0142
77.4222
75.4547
232.335
226.783
237.327
229.352
77.9101