/*--------------------------------*- C++ -*----------------------------------*\
  =========                 |
  \\      /  F ield         | OpenFOAM: The Open Source CFD Toolbox
   \\    /   O peration     | Website:  https://openfoam.org
    \\  /    A nd           | Version:  10
     \\/     M anipulation  |
\*---------------------------------------------------------------------------*/
FoamFile
{
    format      ascii;
    class       volScalarField;
    location    "8.2";
    object      nut;
}
// * * * * * * * * * * * * * * * * * * * * * * * * * * * * * * * * * * * * * //

dimensions      [0 2 -1 0 0 0 0];

internalField   nonuniform List<scalar> 
12920
(
1.6179
6.13622
5.57448
8.51657
6.02963
5.71606
2.61252
1.77125
1.18228
1.12087
0.964918
0.928707
0.858938
0.844525
0.781753
0.718904
0.623054
0.526883
0.461703
0.373363
8.07892
5.46454
7.51669
7.20521
4.79632
4.74354
2.23055
2.61218
2.35182
2.72615
2.26513
2.08569
1.82158
1.70324
1.53337
1.39105
1.24863
1.24528
1.27764
1.24235
1.36258
8.58599
7.03315
6.98431
3.72033
4.72378
2.80855
3.6561
3.17653
3.30539
2.76232
2.60714
2.26469
2.07876
1.87253
1.74105
1.71222
1.79766
1.79782
1.66802
1.41228
10.4352
9.21898
7.28963
5.29607
5.39405
4.41194
4.82557
3.81499
3.99776
3.27457
3.18575
2.81681
2.63169
2.40133
2.25879
2.17396
2.16361
2.09848
1.89389
0.573854
4.71787
4.26971
6.49331
5.35901
5.71153
4.62
5.01725
3.81609
3.79894
3.20208
3.13521
2.87518
2.79622
2.65705
2.57098
2.50879
2.44582
2.33335
2.01171
2.65323
6.76281
4.2034
6.56896
4.70745
5.35154
4.37505
4.67271
3.96659
4.1327
3.51981
3.44901
3.16763
3.02663
2.85887
2.73477
2.67185
2.53719
2.34708
1.92505
0.686052
7.15494
5.80355
7.57078
5.50086
5.90028
5.16527
4.96179
4.58092
4.26154
3.69904
3.5092
3.1845
3.08891
2.89366
2.78032
2.69576
2.49926
2.13274
1.70204
8.27441
10.0152
5.98086
7.81499
4.86359
5.85128
1.88555
1.85171
1.79989
1.6192
1.2962
1.15811
1.01228
0.946387
3.30193
2.89107
2.55169
2.18826
1.84033
1.61726
2.77575
11.3905
7.36688
8.90107
6.2235
2.45058
0.617762
0.591626
0.613796
0.466326
0.385617
0.345025
0.310126
0.288779
0.985639
2.83449
2.20832
1.90466
1.62487
1.42734
2.29435
10.2417
9.19609
10.5881
7.50906
2.19336
0.777171
0.576842
0.495151
0.40356
0.368249
0.338515
0.295742
0.265007
0.810072
2.10624
1.80488
1.65026
1.44455
1.24969
0.986689
10.5137
9.71065
11.7222
9.22942
2.43239
0.660675
0.746861
0.283262
0.289054
0.282648
0.254973
0.218218
0.193781
0.605271
2.0578
1.80248
1.68149
1.54179
1.34774
6.88807
13.5031
12.3622
11.8046
7.91578
2.29443
0.719108
0.558378
0.169945
0.13824
0.143742
0.190003
0.230198
0.245435
0.81751
2.49614
2.05603
1.90318
1.69327
1.46771
9.92206
8.54298
10.5076
8.6611
6.85492
6.1902
1.36767
1.046
1.10195
1.16771
1.00225
0.974186
0.80619
0.767902
2.45919
2.32696
2.24012
2.05576
1.76751
1.49042
22.2482
13.2012
9.40951
7.36414
4.93344
5.06777
2.63494
4.26918
3.94672
3.66026
3.29768
3.0888
2.89007
2.77696
2.64324
2.49244
2.2454
2.02784
1.71776
1.44357
14.8011
10.9464
7.97886
6.07216
4.52047
5.21864
3.49394
4.79472
4.74481
4.80465
4.68333
4.38119
3.42248
3.03905
2.82187
2.5044
2.08867
1.8644
1.62163
1.3833
8.01869
12.3359
9.37488
7.15861
5.70932
5.25017
4.13976
4.90792
4.23522
4.80576
4.02651
3.92312
3.14382
2.83849
2.44781
2.25837
1.94767
1.75109
1.52354
1.30788
8.30654
14.3798
10.0417
6.50419
5.06008
4.697
4.41789
4.59338
4.20105
4.28969
3.43017
3.30688
2.66072
2.4529
2.1329
1.89171
1.68001
1.65194
1.55664
1.41761
4.65855
12.8422
9.27363
7.03907
5.5893
4.73687
4.1647
3.88274
3.55764
3.46826
2.63541
2.45712
1.83196
1.65996
1.49079
1.50803
1.54165
1.66903
1.60481
1.4781
7.14995
8.56459
8.61796
7.55352
6.33452
5.62137
4.845
4.29171
3.71323
3.46235
2.68609
2.63148
1.98053
1.72296
1.34596
1.21033
1.17353
1.28566
1.31052
1.28384
4.07068
2.35086
3.24029
5.36543
2.97977
4.22311
2.25166
2.5304
1.64496
1.52687
1.2299
1.30196
1.16017
1.11048
0.97358
0.850995
0.704389
0.602579
0.521717
0.435594
1.66589
19.7939
24.443
29.7836
27.255
22.491
13.6246
11.0892
8.43063
8.19985
6.68057
5.82377
4.83519
4.14814
3.58454
3.08118
2.63458
2.48638
2.71427
2.92776
24.0911
35.3168
41.8476
26.9068
14.9993
12.1295
11.1142
14.0275
17.0464
18.5783
17.897
17.6314
17.392
17.3458
16.8494
15.6077
13.9698
13.4654
14.1826
14.5381
5.29023
30.9517
43.1556
31.5836
20.541
17.5962
17.9969
21.1257
22.9181
23.1717
22.0343
21.2751
20.0641
19.2421
18.0172
16.9749
16.4892
16.6903
17.0408
16.9378
1.39211
21.917
32.52
38.17
33.3061
26.9642
25.14
25.1992
24.4674
24.2807
23.2285
22.606
21.5839
20.8941
19.8695
19.0623
18.469
18.2719
18.2776
17.9038
1.60593
22.2357
27.5106
33.5665
32.4671
30.4972
27.2869
26.8965
25.1808
24.764
23.718
23.1861
22.3553
21.7668
21.0591
20.4765
20.0033
19.4832
19.1244
18.205
4.98954
25.1995
29.6892
29.3598
28.6633
26.844
25.8118
25.0626
24.0138
23.8888
23.1784
22.7242
22.0052
21.4476
20.8468
20.3336
19.9538
19.2716
18.4239
17.3068
1.23278
19.3138
26.0269
33.1227
30.2407
30.7635
28.7318
26.8343
25.0791
23.665
22.5916
21.8097
21.082
20.5051
19.7261
19.3019
18.8737
17.6749
16.0433
15.2558
38.916
30.5628
25.7226
29.0755
24.1227
28.251
22.3385
23.0658
21.9538
19.9587
18.623
17.6495
16.9452
16.1888
17.9796
17.1264
15.8513
14.1859
13.5658
14.2108
19.9267
40.092
32.787
37.2223
27.1627
17.0509
18.699
21.8699
20.4327
17.8497
16.3277
15.3671
14.6425
14.0453
14.2655
14.2606
12.7007
12.0806
12.5068
13.0409
35.0008
44.3114
45.6975
47.8758
35.9565
14.3907
11.5183
19.5831
19.5406
16.6481
15.3438
13.9045
12.6734
11.8217
11.3305
11.5685
11.5309
11.6643
11.9544
12.5163
20.5272
51.6194
51.9579
52.6738
46.8427
25.006
14.4917
9.51629
14.0989
13.7655
11.7832
9.18027
8.07782
8.03737
9.27443
11.8017
11.9055
12.1627
12.4228
12.7451
11.5889
54.4372
56.0777
50.4409
39.6017
24.6034
14.4727
9.07226
11.5806
9.66413
10.1475
10.3935
10.7226
11.0161
11.5766
12.1943
11.6898
11.7026
12.0984
12.5254
32.4615
58.9481
50.1522
35.1381
21.834
15.99
10.8464
11.5999
14.7917
12.9302
12.8709
12.2046
11.5893
11.1283
12.8285
12.3885
12.1959
12.178
12.073
12.1959
46.7564
38.2124
48.6577
32.9215
21.7614
21.3578
19.9507
21.9025
20.5954
19.433
17.5574
16.3933
15.4592
14.9232
14.2377
13.4111
12.5118
11.9323
11.6006
11.6356
30.4623
45.3982
39.1523
26.6344
26.8028
24.7417
24.4611
25.7838
25.0036
24.0231
21.639
19.6591
17.0285
16.5538
16.0177
14.7005
12.7348
11.4819
10.9417
11.0872
11.8991
47.2752
39.9369
26.3167
20.2324
21.7397
22.3442
23.9223
23.7965
23.3818
21.6619
20.6389
18.6308
17.7514
16.345
15.0571
12.9967
11.4686
10.672
10.9153
22.0846
27.3482
23.2436
17.764
18.6901
20.2052
21.003
21.7002
20.2855
19.6049
17.5498
16.6825
15.1662
14.6215
13.7372
12.8623
11.8088
11.4963
11.5597
11.9188
21.5254
23.1589
19.3223
25.4788
23.1647
22.0238
18.451
18.2028
16.162
15.9147
14.2128
13.233
11.7312
11.24
11.2116
11.66
12.0412
12.4106
12.7424
12.9971
7.61275
32.4086
26.0593
32.3168
30.5565
25.7687
21.7836
20.3139
17.7859
17.0443
15.8251
15.2378
13.46
11.6809
9.841
9.33687
9.72315
10.5638
11.528
12.6332
5.40667
10.6062
13.1391
20.991
17.9179
16.1677
14.0014
13.4287
8.83938
8.96296
8.10445
8.2914
7.14512
6.51064
5.67773
5.24459
4.59825
4.32802
3.77203
3.19141
8.09576
34.8199
32.5947
31.6962
27.9406
23.2003
18.7606
15.5201
12.0201
10.4482
8.1135
6.85987
5.96253
5.68358
5.71668
5.87756
5.72553
5.6206
5.52038
5.18302
21.2426
51.6651
56.3849
40.9866
29.6693
27.7775
26.5225
28.1527
27.2361
26.4075
25.3125
25.1875
25.1955
25.1784
24.8353
23.942
23.1099
22.8982
23.1267
22.7945
30.7314
38.1247
52.7895
50.9716
41.3319
37.6034
36.8317
37.7705
36.5454
35.293
33.4452
32.051
30.5419
29.4584
28.3665
27.4525
26.9658
26.6175
26.4396
25.5996
10.8971
23.4736
37.5738
54.24
52
45.1972
42.8602
41.1559
39.2475
37.8355
35.9895
34.5567
33.0509
31.8571
30.6899
29.6756
28.9064
28.2007
27.7254
26.5005
10.9359
34.1911
44.6943
51.7604
52.5106
48.8231
45.1185
43.0044
40.4029
38.8544
37.1123
35.7979
34.4323
33.2876
32.1585
31.1111
30.2222
29.1574
28.4104
26.8145
23.7884
44.4199
52.6973
50.5329
50.5009
46.7468
44.3708
41.8072
39.5204
38.1208
36.6066
35.3952
34.0902
32.957
31.8585
30.8332
29.9567
28.6913
27.7338
26.2043
8.06394
38.8069
47.1096
52.2964
51.0851
49.8893
46.0272
42.6489
39.4116
37.2479
35.3739
34.0051
32.6073
31.455
30.1535
29.1134
28.0421
26.4562
25.2021
24.3372
48.5181
45.3067
43.2443
50.1757
47.3328
48.8748
43.08
40.1045
36.7476
33.4228
31.5814
29.8612
28.6573
27.2295
26.2101
25.0554
23.739
22.5953
22.3926
22.5373
45.8533
52.5605
51.0996
56.3192
45.9967
39.5408
39.5092
37.9692
33.7821
29.6847
27.4381
25.6684
24.3487
23.073
21.5133
19.753
19.2275
19.3264
19.7964
20.4252
32.9797
55.7903
57.3557
62.3204
47.306
34.9292
30.5247
34.3508
30.9257
26.6471
23.4317
20.7539
19.0618
17.8039
16.0681
15.7925
16.5414
17.4213
18.1333
19.1861
46.4472
62.4337
66.402
68.7732
50.1804
30.5158
19.879
12.632
25.3288
17.7131
6.34744
5.05878
8.37527
11.0465
13.3919
16.2834
17.1855
17.9041
18.3994
19.1003
31.0873
65.5864
67.6351
66.2072
44.5978
25.0272
16.634
11.9566
18.859
18.7968
17.1296
15.755
15.9332
16.2926
16.8399
17.7305
17.8941
18.2103
18.5401
18.9851
62.326
68.9266
66.1163
49.4203
34.0367
31.2842
21.6707
18.8412
23.712
21.146
20.2907
19.5025
19.0036
18.5017
19.1205
18.782
18.5823
18.4524
18.3657
18.444
36.2167
56.7511
68.0558
50.6197
40.6156
38.4454
33.981
34.2185
30.1074
28.5204
25.7567
24.449
23.1454
22.1514
20.9615
19.8215
18.8866
18.2681
17.8725
17.6904
76.1464
69.6003
60.1603
47.5785
46.3793
41.6266
40.8864
39.4096
36.0974
33.7039
29.8514
27.2763
25.0081
23.9771
22.5704
20.7855
19.121
18.07
17.5347
17.2655
51.2897
60.6591
58.5476
44.3513
41.5035
39.3328
39.0451
38.0165
35.3876
33.5941
30.5123
28.5717
26.1831
24.8118
23.0831
21.3845
19.5192
18.3033
17.6799
17.446
40.3195
61.9384
46.1397
37.8007
39.4442
36.1953
36.2186
34.0827
31.3267
29.346
26.8328
25.3508
23.5891
22.6698
21.4357
20.4022
19.4091
18.9092
18.6393
18.4283
8.25496
45.6976
43.3442
44.6549
40.044
35.2412
31.7453
29.8528
27.3163
26.0343
23.7792
22.4007
20.7635
20.2812
19.9777
19.9442
19.707
19.5018
19.2743
19.1356
48.6063
50.4879
50.3675
48.4701
40.9133
34.9051
29.5365
27.4671
24.6236
23.977
22.8096
22.0542
20.1415
18.9117
17.7998
17.6157
17.6221
17.7796
17.7243
17.8022
4.14295
16.7319
30.0715
24.2031
19.3443
16.9051
14.8908
13.2752
11.2191
11.4329
10.4759
10.2543
9.25866
8.95619
8.2384
8.07152
7.24231
6.38777
5.04955
3.66252
15.2409
35.9821
33.3839
31.8945
27.6522
22.9586
19.0028
15.9368
11.8152
8.89057
7.30894
6.26834
6.27166
6.66456
7.17787
7.50474
7.56207
7.24391
6.95326
6.26058
35.9058
57.5305
60.7699
49.9681
43.2124
40.3172
37.2138
34.7766
30.8799
29.2399
28.3828
28.5156
28.5019
28.2861
27.8434
27.0906
26.584
26.0908
25.8244
25.2234
51.1833
48.1633
58.631
61.8563
54.9824
50.514
47.9634
45.6192
42.3799
39.9651
37.8178
36.1262
34.7401
33.5218
32.5459
31.5582
30.8535
29.9969
29.3926
28.221
29.5517
34.8655
46.2948
63.2543
61.904
55.5188
52.5346
49.0025
46.0985
43.77
41.3661
39.3479
37.6813
36.1638
34.9255
33.6889
32.7009
31.5187
30.6212
28.9342
14.4713
42.7639
52.2479
60.1323
62.0825
58.2071
54.2446
51.1407
47.7541
45.244
42.959
40.9771
39.3129
37.7453
36.3801
34.998
33.8129
32.3622
31.3038
29.3562
15.952
48.1603
60.7435
62.907
62.1943
57.8585
54.0975
50.1416
47.0772
44.7044
42.5971
40.7645
39.0671
37.4911
36.0599
34.645
33.4161
31.9076
30.8927
29.1302
32.0901
51.9047
60.6184
64.6417
62.8399
60.0859
54.7325
50.405
46.0244
43.425
40.845
39.0003
37.0582
35.4579
33.873
32.4418
31.0981
29.6141
28.6614
27.5184
32.5833
58.0295
64.8319
65.4637
62.1596
59.8784
54.0427
48.4334
43.2684
39.4614
36.9867
34.7498
33.0324
31.1486
27.8237
27.1762
26.4162
25.7582
25.5534
25.1546
56.8327
69.6056
68.4718
67.5529
59.6061
55.1112
51.9238
45.1296
38.6688
33.4649
30.6394
28.1638
26.444
24.7463
21.9332
20.6268
21.3712
21.8502
22.3235
22.8142
53.1334
65.7627
67.3595
69.7085
55.3588
47.6785
44.7321
40.4068
33.6517
28.1929
24.0118
20.8292
18.7038
17.3657
15.6284
16.9945
18.5446
19.7282
20.6436
21.6035
50.2529
72.4001
75.9703
73.5173
52.3563
33.1393
26.4718
24.4899
28.8762
23.8672
10.5128
8.77128
11.005
12.5517
14.1927
17.5696
19.0553
19.986
20.6152
21.3591
47.5939
73.1162
76.8065
70.0421
47.8887
34.8201
25.6581
20.7752
25.6964
21.7736
18.7882
16.9129
16.4494
16.5624
16.8456
18.9215
19.8141
20.2685
20.5394
20.9697
47.697
73.5285
75.7277
57.8274
46.4073
42.1016
35.1109
22.8172
25.9712
23.0363
21.8216
21.104
20.5815
19.9331
20.2753
20.5263
20.4115
20.1948
20.1014
20.1037
32.1771
74.2864
76.9053
61.4954
53.1118
48.9587
40.1438
39.4978
33.0972
31.7998
28.5394
27.351
25.5241
24.1741
22.796
21.6197
20.6933
19.9579
19.4434
19.1665
46.6066
74.3507
71.4602
60.6229
57.9304
51.536
49.1089
44.9229
40.7045
36.829
33.2341
30.3884
28.1634
26.3175
24.3962
22.592
21.1285
20.0474
19.3215
18.724
99.1888
50.1813
70.2777
58.6261
55.5707
50.2863
48.5948
44.7415
40.9476
37.6538
34.3693
31.6835
29.2587
27.2579
25.2678
23.4511
21.8442
20.6463
19.8411
19.1092
72.1472
72.1776
63.0098
52.9644
51.4559
45.1669
44.3677
39.8557
36.8475
33.7086
31.2545
29.2252
27.4099
25.9568
24.528
23.2546
22.1466
21.2522
20.5868
19.9361
46.0492
66.7095
63.4287
55.2038
48.2356
41.753
38.6308
35.018
32.5046
30.3555
28.1737
26.5664
25.188
24.29
23.5642
22.8191
22.1031
21.3607
20.8252
20.5054
53.1359
67.8001
62.0551
54.1214
44.6438
37.5743
31.9008
29.5425
27.375
26.5299
25.3473
24.1891
22.7597
21.7177
20.9242
20.3051
19.7443
19.1176
18.6254
18.4697
14.1356
30.8776
32.6889
24.8912
19.1367
15.2297
14.3608
10.9725
11.8642
9.62615
9.83578
8.82309
9.03414
8.65837
8.63569
8.03662
6.82606
5.32952
4.00812
3.18214
10.4786
34.4211
19.0579
29.8102
14.1532
21.0675
9.72579
11.0688
5.68761
5.95976
4.69697
6.16174
5.92954
7.26736
7.15248
7.5872
7.25498
6.92982
5.79648
4.47489
61.0123
50.365
60.6642
43.0364
46.622
44.0285
37.6691
33.0995
28.7786
26.8941
26.2984
26.3554
25.8902
25.3862
24.879
24.1496
23.7321
23.1538
22.7746
22.3604
37.7586
58.6107
55.5906
56.4017
58.1489
53.4104
48.2679
44.1087
39.9179
37.114
35.1151
33.3692
32.1818
30.8301
30.024
29.0278
28.2928
27.3451
26.6419
25.7511
29.6746
45.0705
54.1898
66.703
60.6984
57.8179
51.8376
48.9721
44.2471
41.6753
38.8444
36.6517
35.0828
33.4367
32.3181
31.0101
29.99
28.6551
27.6204
26.1945
63.2112
54.9873
57.9855
66.1211
63.2226
58.5891
52.9683
50.1616
45.7893
42.8573
40.381
38.1843
36.6057
34.9111
33.6237
32.1642
30.9543
29.4407
28.2975
26.621
25.4376
56.3307
67.6806
67.8279
54.6493
60.1073
52.8106
50.3445
45.7387
42.9323
40.4596
38.3765
36.6086
34.8931
33.4294
31.9255
30.667
29.2215
28.1606
26.676
48.6617
58.8434
58.6743
70.0019
63.6395
60.866
53.6096
49.2148
43.9276
41.3369
38.3818
36.4194
34.3326
32.6848
31.1344
29.7008
28.4464
27.1858
26.3403
25.3309
19.8081
65.8173
74.2556
72.2889
57.7003
61.0351
54.0549
47.4745
40.6175
37.0551
33.8967
31.734
29.6986
27.9892
25.0427
24.8968
24.3851
23.8615
23.534
23.1985
26.1302
78.5113
76.7489
69.7632
62.7763
58.5879
51.2193
41.3442
33.2202
28.0199
25.0389
22.7663
21.2613
19.8648
18.3586
19.4929
20.324
20.6098
20.9279
21.263
35.3311
70.461
73.1535
73.6219
56.7145
51.2187
44.3019
33.9932
26.2977
21.1135
17.3327
14.6229
13.9519
13.7476
14.1643
17.3031
18.4194
19.1695
19.7798
20.4185
20.7941
75.094
82.1688
75.189
51.6679
42.072
35.2007
28.5014
22.0834
18.3007
13.7075
10.531
10.6451
12.0253
13.9081
17.7099
18.7715
19.2799
19.6737
20.2502
28.5275
74.7142
82.319
69.2728
40.9704
40.0411
34.0803
26.7468
20.4172
16.5247
14.1217
13.0076
13.3818
13.7886
15.0267
18.2426
19.01
19.1944
19.3502
19.7779
55.214
79.6678
77.9345
33.2183
47.0256
22.7412
34.093
27.4131
22.3708
20.3106
18.9475
18.338
17.7206
17.1434
18.8219
19.2122
18.9896
18.7792
18.6568
18.819
78.5486
83.9883
77.7866
51.9423
55.6639
34.5357
26.0238
37.2787
27.4973
30.5841
27.3809
25.6593
23.6537
22.1306
20.8556
19.7822
18.9312
18.2562
17.8497
17.8411
86.1102
78.8682
58.5828
41.3963
60.4438
30.446
43.6178
44.986
39.0454
35.2402
31.4443
28.5915
26.0114
23.847
21.9093
20.3192
19.0792
18.1389
17.5317
17.3407
80.9794
79.0239
74.9226
34.366
59.039
35.7391
48.8042
45.0515
39.6948
35.8485
32.3787
29.2521
26.9041
24.5253
22.6885
21.0165
19.7295
18.6915
17.9583
17.6177
47.7923
72.9719
69.1595
33.8677
53.5965
27.4218
44.084
36.6502
35.7425
32.6853
29.9263
27.6646
25.823
23.9454
22.5657
21.1864
20.1855
19.3024
18.7113
18.4547
85.8562
63.418
71.3026
30.382
48.8365
23.0983
38.1137
33.9961
31.5347
29.3553
27.1237
25.5238
24.1867
22.8631
21.9537
20.9455
20.3472
19.7628
19.4656
19.429
47.8316
67.2216
70.1037
52.3736
44.5164
26.4907
31.0771
28.6365
26.302
24.9591
23.1979
21.8765
20.6458
19.5638
18.8846
18.2672
17.7968
17.3352
17.1411
17.2821
14.1121
14.2696
27.6591
17.0622
13.9173
15.0363
9.42152
12.4896
8.49839
10.4361
7.67541
9.19902
6.65956
6.3829
4.60326
3.8118
2.83227
2.3507
1.9889
1.65763
24.2213
22.5412
6.34943
28.627
25.4814
24.5544
6.30261
21.3291
5.5387
5.95545
24.5044
22.0218
5.62298
6.8142
7.2694
19.434
16.9632
24.8099
7.40037
22.377
18.5133
5.13556
15.7464
13.6273
6.49571
5.97389
17.0937
14.9267
0.56783
0.751304
0.58993
12.2053
16.3101
10.3536
15.2799
0.638527
0.577826
0.52176
16.7307
16.4091
16.2214
16.4207
0.495916
0.511639
0.43959
15.8152
14.1022
15.8523
13.5944
0.402634
0.42263
0.393431
13.6803
12.6766
13.2065
12.5204
0.352314
0.383051
0.359226
12.3289
11.7687
12.289
11.5835
0.319023
0.351112
0.322262
11.564
11.1707
11.3535
10.6678
0.292742
0.31221
0.28968
11.0124
10.7422
10.4918
10.0318
0.222985
0.280529
0.230118
10.6009
10.9775
9.88141
9.80486
0.553051
0.679387
0.748716
7.5887
13.3194
6.94977
7.20088
0.511857
0.623329
0.367044
15.0653
15.9696
7.81873
12.0192
0.420839
0.365325
0.342636
15.4018
13.2562
12.0959
11.542
0.375681
0.330972
0.315086
12.8936
12.2357
11.3485
10.8193
0.345317
0.308385
0.287602
11.9986
11.2068
10.3968
9.0352
0.305977
0.274929
0.240704
10.9346
10.141
8.6174
7.71468
0.273485
0.231353
0.209311
9.93598
9.4298
7.52764
7.16702
0.221795
0.200675
0.147435
9.25441
9.20157
7.04283
6.95453
0.709539
0.680183
0.527525
10.5308
7.43639
11.7471
7.14517
0.280721
0.621357
0.192647
7.78203
10.1854
7.67558
7.60876
0.291761
0.166173
0.135762
10.7223
10.5342
8.77561
7.31609
0.285853
0.132886
0.161478
10.5093
10.0732
7.20138
7.951
0.265521
0.179043
0.21636
9.63689
8.27034
8.09861
8.13107
0.226461
0.222434
0.226433
7.87518
7.04634
8.08831
7.97963
0.200216
0.229044
0.231102
6.88491
6.67128
8.02321
8.24057
0.144503
0.231143
0.200883
6.6276
6.75374
8.28396
8.63667
0.566758
0.666147
0.264206
9.39661
7.07727
8.10175
6.29491
0.183713
0.223437
0.267341
7.44305
8.65517
7.09167
11.372
0.146208
0.308373
0.24185
8.88381
7.21357
10.9095
9.15388
0.136274
0.268811
0.219988
7.01036
7.3808
8.79267
8.51264
0.173485
0.253756
0.211348
7.56778
8.00217
8.59051
8.81018
0.220216
0.232659
0.203319
8.12355
8.42363
8.83305
8.70521
0.242337
0.225103
0.214112
8.55082
8.79297
8.60838
8.42426
0.209066
0.226978
0.166352
8.79341
9.0361
8.28765
8.38002
21.6502
15.7605
20.2098
34.4578
35.3674
30.7586
33.0184
21.0864
21.1093
20.866
34.7108
32.1931
33.077
30.8341
18.3277
20.1083
17.5539
31.1843
28.1981
29.6537
26.4023
16.646
17.0678
16.0781
27.4319
25.7579
25.6072
23.6917
15.5766
15.7627
14.8239
25.3552
24.1538
23.1323
21.5537
14.7998
14.5196
13.6594
23.7896
22.865
21.0754
19.8341
14.1888
13.4378
12.8396
22.6135
21.7564
19.5058
18.5722
13.8214
12.6432
12.0655
21.4897
20.8336
18.2771
17.3944
17.7766
10.0229
8.96579
25.4404
30.4439
17.5395
14.152
20.2725
9.25955
15.6451
31.306
29.9508
16.3031
25.1377
17.1125
15.7978
14.9788
28.8353
25.699
24.8066
22.8567
15.6806
14.7378
13.4634
24.9218
22.8703
22.1391
11.7916
14.2637
12.7134
10.7181
22.1873
20.2967
10.3526
8.72547
12.9228
10.2174
9.29386
19.7574
18.4605
8.91532
10.4187
12.0378
9.12269
8.80892
18.135
17.2358
10.7972
11.4921
11.3595
8.70416
8.39393
16.9437
16.2779
11.6217
11.858
9.97681
17.9581
9.67458
19.9547
13.2516
22.3741
13.1689
12.6397
9.61344
7.97896
11.1139
19.3343
9.89623
11.7792
13.8207
10.574
10.1315
23.026
21.5158
15.5007
17.7615
12.5753
10.0214
10.5924
18.8899
11.5607
17.55
16.1216
9.7029
10.583
10.188
10.0283
7.45888
15.2149
13.3163
8.21545
10.0472
9.83793
7.09252
7.88404
12.9991
13.0615
8.02021
9.90602
10.2153
8.47088
10.0495
13.3317
14.0736
8.11847
10.2945
10.4853
10.4586
11.4302
14.2678
14.7686
9.2748
11.4617
6.42921
17.1672
10.6619
13.7055
10.1726
9.32296
7.04813
12.9029
10.0716
13.8548
11.7698
19.7821
9.89644
13.582
11.5516
16.8249
17.2117
20.7859
17.2249
10.0169
11.2988
10.9858
16.9
16.3362
17.0681
17.397
10.342
11.0832
11.163
15.9586
15.0412
17.3042
16.9893
10.5987
11.2129
11.0524
14.9011
14.9345
16.9738
16.7293
10.9982
10.9936
10.7742
15.0707
15.37
16.6538
16.4266
10.9325
10.6872
10.4636
15.4355
15.4779
16.3646
16.1392
38.8994
35.4606
36.3977
49.8084
45.8882
45.7796
42.9016
34.9008
36.0662
33.1082
44.2936
39.7892
41.4655
36.6086
30.5025
31.8113
28.304
38.3347
34.2902
34.9866
30.7255
27.8686
27.4071
25.2145
33.3413
31.1869
29.5867
26.79
26.064
24.5807
22.8118
30.6393
28.778
25.9906
23.8172
24.6255
22.289
20.9539
28.2992
26.9963
23.1951
21.6045
23.3614
20.597
19.5823
26.6432
25.3511
21.1771
20.0271
22.2475
19.267
18.3021
25.009
23.9715
19.6943
18.7028
33.9942
19.9987
17.1249
42.2958
41.0717
29.5258
30.7193
32.1629
20.607
27.5925
39.9831
35.5029
32.4485
31.5896
27.5248
26.9775
24.5228
33.9169
29.7519
30.2602
26.6932
25.6598
25.838
25.8458
27.8471
24.8245
26.9299
26.9969
20.752
22.678
21.3682
24.2183
20.4479
23.3941
21.7307
19.4053
7.05168
10.2165
21.3748
19.8207
8.13615
11.3586
18.1081
10.8773
11.9709
19.3999
18.3294
11.9278
12.8446
17.0867
12.1748
12.5528
18.0303
17.3457
13.055
13.5232
13.0484
20.8893
13.2351
22.5878
22.6472
19.7988
17.2229
22.1056
10.7616
13.8393
21.263
30.2312
15.6269
20.7785
23.2056
17.5693
19.7593
29.0208
25.6559
23.8509
23.0406
11.5427
12.2776
21.1519
12.7118
16.1759
2.67091
21.7785
4.37322
5.63929
8.10458
1.82113
7.06329
1.72656
4.9581
7.40663
13.3513
13.7149
6.40853
9.47011
14.7526
15.0264
10.5409
14.0438
14.8511
10.3137
12.0347
15.2004
15.7017
12.1633
15.0601
15.5899
12.4546
13.4089
15.8706
16.334
12.3921
14.4015
12.1663
21.5035
20.5055
20.4427
18.7483
15.9602
14.0479
21.2438
18.593
22.4511
21.2399
27.1897
19.1607
22.5742
17.4822
24.6706
22.4263
25.6344
21.4912
17.7062
17.6796
18.8449
21.8452
19.6911
21.9804
20.9091
15.9213
18.7129
18.2761
18.8543
17.2603
20.6412
19.9558
15.7989
18.2531
17.9827
17.0385
16.8156
19.8982
19.5883
16.2231
17.925
17.6788
16.8351
16.9511
19.5328
19.2002
16.3419
17.6311
17.3507
17.0042
17.0562
19.1402
18.8241
46.8869
47.7702
43.6063
52.3826
45.224
48.0249
40.432
40.2381
41.868
36.5112
43.1844
37.2269
38.0905
31.737
34.423
34.7959
30.3705
35.333
30.7435
29.8387
25.4985
31.2285
29.1961
26.3067
29.9116
27.4068
24.4027
21.5239
28.649
25.4771
23.2389
26.7477
24.6302
20.6826
18.4804
26.8143
22.5904
20.917
24.2662
22.9009
17.8341
16.5166
25.09
20.4799
19.3456
22.5709
21.2687
16.2713
15.6608
23.7281
19.0257
18.1149
21.0338
20.1832
15.4775
14.9441
41.9009
33.1443
33.9179
45.7856
38.6537
38.148
33.6055
35.337
34.6379
31.4986
36.3989
30.2872
31.7389
26.1072
29.3559
30.0195
26.4376
28.4618
24.5423
24.7289
22.0678
25.0026
24.95
11.9595
23.4865
20.5278
21.1759
16.9255
21.495
10.6136
9.74913
19.6241
17.2225
15.4469
12.6145
19.1503
10.2129
11.9306
16.4902
14.9807
12.1028
11.125
17.6444
12.2108
12.7794
14.7688
14.3984
11.168
11.8634
16.777
12.9575
13.424
14.2839
14.0222
12.0481
12.4731
28.2273
22.5979
20.3284
35.2065
32.4707
32.7959
27.3809
30.3289
17.5191
22.8805
30.8517
25.1337
25.3663
23.3965
25.4724
25.5856
22.9938
23.7357
21.3037
21.9059
19.0756
12.0483
22.3036
18.8101
20.55
16.2446
18.5357
16.2646
8.66912
17.4835
15.3125
14.7095
11.8845
15.4081
13.6175
10.5058
15.0785
14.9722
11.3912
10.6575
13.2291
12.8093
12.2135
15.0237
15.3843
10.8175
11.77
12.9538
13.4841
13.3828
15.5327
15.9803
12.0137
12.5637
13.6152
13.9204
22.6439
23.0163
20.1126
34.1075
28.4103
27.8219
24.4898
24.1883
23.008
27.2385
26.5835
23.0505
27.3886
23.394
22.3861
25.601
21.5689
21.5747
18.5681
21.6971
18.8995
19.6078
21.7995
20.6778
17.9482
16.1413
18.5471
17.4359
17.1791
20.383
19.6514
15.539
14.251
17.131
16.497
16.4878
19.6099
19.3059
13.9865
13.7534
16.5183
16.2823
16.5144
19.2422
18.8813
13.842
14.1168
16.2345
15.9396
16.6469
18.815
18.5335
14.1756
14.2825
15.9003
15.7295
43.4649
46.4792
38.1214
47.2134
39.2877
42.4233
34.1776
35.1273
35.7149
29.4119
37.1061
31.2814
31.9159
26.2299
28.8008
27.5999
23.2937
29.6824
25.814
24.6431
20.0241
25.6522
22.1674
19.3207
25.1545
23.1675
18.7899
16.1986
23.0757
18.5414
16.6173
22.6639
20.9529
15.6252
14.4785
21.5606
16.1855
15.4823
20.7422
19.7979
14.434
15.0298
20.0747
15.3532
14.9244
19.5861
18.5987
15.1204
14.9792
19.139
14.7777
14.3751
18.4586
17.8999
14.9001
14.6587
36.2922
37.3095
31.2645
37.2738
32.4752
28.4494
27.6505
28.0277
29.3584
24.3502
30.3758
25.0389
26.0384
21.8414
22.2082
22.9295
19.7328
23.3751
18.4223
20.1861
15.1672
18.1793
18.8697
15.5393
17.1105
14.4148
13.7846
11.0811
15.1861
14.3258
11.6439
13.8196
12.6888
10.4505
9.31567
13.9808
11.0262
10.5583
12.6892
13.7371
9.42772
11.1949
13.8247
10.8548
11.8201
14.105
14.296
12.0957
13.322
13.5854
12.0068
12.4292
14.2695
14.168
13.4519
13.6876
30.3329
33.2313
28.7491
20.0462
26.6083
22.0127
25.453
23.4795
26.9658
22.018
25.0754
21.1505
23.9679
20.4412
19.0481
20.6574
17.407
19.5747
14.7632
19.2228
15.3603
14.9534
16.6547
14.4608
13.4293
10.8508
14.3149
12.3843
11.0995
13.7591
12.2955
10.2418
9.16734
11.9647
11.3076
10.2655
12.0798
12.2923
9.3038
11.1445
11.469
13.0475
11.796
12.5794
13.2225
12.0757
13.3816
13.6146
14.2388
12.5399
13.345
13.6387
13.5316
13.8171
14.3091
14.4585
28.6438
33.255
25.8347
23.631
25.5269
16.5749
13.3793
21.7373
27.4389
22.1181
24.0053
20.3953
15.1017
15.8507
17.3206
20.6854
18.1948
19.3806
15.9583
16.8573
12.8173
14.6316
17.8369
16.7043
15.013
13.334
17.0233
15.2359
13.1146
16.4127
15.8308
12.9841
12.4739
16.3475
14.0811
13.2008
15.8407
15.6334
12.6263
13.8992
15.7188
15.5826
13.7339
15.5761
15.3241
14.1877
14.514
15.5069
15.2835
13.922
15.2706
15.1631
14.5356
14.5868
15.1958
15.1046
24.181
25.0339
22.4072
25.0937
23.5848
26.0115
22.8589
21.0286
24.7747
12.6414
15.8707
22.3614
25.6485
3.76885
17.1743
17.2457
8.1508
2.1131
19.2245
15.4028
2.32913
26.153
28.5093
27.5662
27.7082
27.5054
27.6177
26.3419
24.5721
25.5103
26.5194
23.3377
26.5049
23.1513
24.7941
21.2445
18.2504
26.5353
12.2902
26.2171
3.73698
23.4361
17.2867
2.12321
17.579
7.92419
15.4541
2.34638
19.7829
19.8991
21.9762
19.0064
21.9418
19.6395
22.6315
19.2893
13.7303
16.0105
5.00483
1.97912
15.1096
14.4364
1.88844
13.2524
14.3331
5.12667
4.07022
14.4126
13.6751
2.67254
20.9289
24.5725
23.5942
22.096
23.695
21.9623
21.0193
20.0413
22.1674
22.7659
19.423
22.8893
19.4163
20.1142
13.7423
1.9847
16.2623
5.23287
14.4753
1.89538
15.2899
13.2692
4.13698
14.6829
5.74152
13.7558
2.64201
14.6759
7.64186
8.77384
9.60377
2.00045
12.0582
2.26078
5.8382
19.1722
20.3019
18.9706
20.8908
18.909
21.538
20.144
15.9787
14.3138
18.1427
17.4425
16.6893
13.2792
18.9993
11.9348
13.2147
12.8709
23.3583
2.89977
22.4726
17.4151
7.80804
2.04259
8.93254
9.91877
2.31946
6.01774
12.5215
19.8334
21.8925
22.8938
21.46
22.4117
20.9796
20.9559
16.389
17.9492
15.2338
20.1788
13.5946
19.6723
17.9993
4.16142
4.97041
5.91307
2.70249
6.29477
1.69081
4.24684
10.4284
12.5073
14.8003
16.0517
11.2402
11.5196
15.0588
9.83191
9.81744
14.1417
13.9117
10.4356
9.40138
14.4009
4.65909
1.85634
5.89157
8.56958
1.76089
5.18242
7.69408
4.5413
2.97767
5.52466
7.10376
1.83652
4.74659
7.14837
10.8378
16.5045
13.4246
16.0965
11.8593
15.5069
12.3079
10.2832
14.3741
11.18
15.4034
9.93444
14.8428
11.601
1.89791
1.81371
1.99589
7.33824
10.2592
7.6268
10.2664
1.84326
1.91717
1.83616
12.0725
12.0932
11.6322
11.94
1.69576
1.74336
1.65984
11.2741
11.0599
11.5246
10.9671
1.4051
1.5467
1.35593
10.2006
9.5087
10.3467
9.92253
1.2363
1.20603
1.17031
8.82207
8.77852
9.57314
9.34851
1.0683
1.12194
1.06253
8.32027
8.1076
9.08152
8.88296
0.975658
0.999705
0.967006
7.76624
7.7954
8.73338
8.63066
0.817833
0.930884
0.773665
7.45501
8.69845
8.43036
10.4037
1.50719
2.52828
2.01444
6.30991
8.14555
6.76912
7.12841
3.29482
0.550422
0.550051
2.67565
3.615
2.55958
0.455745
5.84046
0.596391
0.49491
5.54001
5.73286
5.54721
0.527824
5.3499
0.559841
0.576996
5.19041
4.9837
5.63873
0.548398
4.4249
0.427872
0.449243
4.31446
4.2299
4.52429
0.42962
4.02756
0.357179
0.392142
3.44298
3.33963
4.11258
0.36989
3.76469
0.327499
0.348952
3.1103
3.0899
3.80251
0.335679
3.57663
0.295933
0.314582
2.90878
2.9106
3.59831
0.303145
3.45135
0.276037
0.28724
2.84674
2.83792
3.46577
0.27729
0.867884
0.919914
0.718716
7.34196
8.03378
7.54977
8.98169
1.51205
2.19833
1.5148
7.65977
6.35778
9.31704
7.48629
2.5748
0.576806
0.716757
2.4508
2.95793
2.28336
0.586094
5.07908
0.562586
0.565789
5.19683
5.51881
4.65391
0.553245
4.91961
0.478751
0.481669
5.45339
5.21255
5.13215
0.458329
4.17645
0.39187
0.385186
4.33488
4.27825
4.23648
0.372353
3.90639
0.360641
0.348498
4.08056
4.00458
3.98374
0.341862
3.51869
0.32778
0.317743
3.76297
3.66817
3.62668
0.307182
3.13583
0.287491
0.272494
3.40858
3.33878
3.21066
0.264789
2.87464
0.258497
0.240655
3.14531
3.12323
2.91306
0.234358
0.666932
0.632428
0.485081
6.53971
7.87662
5.67622
7.24405
1.7374
2.50028
1.89759
13.0304
12.7404
13.214
12.361
2.43335
0.58192
0.668023
3.00488
2.27059
3.25568
0.587255
5.75671
0.495288
0.870014
4.69731
5.28665
4.745
0.588414
2.87369
0.29054
0.224337
3.44701
3.36644
3.08012
0.225579
3.03524
0.287374
0.241802
3.39466
3.4422
2.93697
0.248877
3.12178
0.280355
0.26072
3.32543
3.27906
3.13716
0.260574
2.84929
0.24487
0.24199
2.97483
2.89111
2.91752
0.235033
2.66287
0.212992
0.218046
2.6639
2.62217
2.69246
0.213376
2.54179
0.186761
0.196299
2.49158
2.47574
2.559
0.190334
0.45784
0.727085
0.594352
5.63958
7.41249
6.44111
7.93819
1.86557
2.39641
1.7298
11.4756
9.64584
10.2688
8.20365
2.52069
0.598897
0.705732
3.1526
2.42268
2.94956
0.595777
3.86269
0.377602
0.335368
4.47425
4.93596
3.77881
0.245104
2.77374
0.164782
0.19935
2.9121
2.5035
3.07258
0.203234
2.15713
0.130723
0.178141
1.92671
1.90864
2.33174
0.151219
2.24693
0.150023
0.146223
2.16801
2.27583
2.17747
0.146388
2.73263
0.202084
0.176228
2.669
2.78042
2.63232
0.185025
3.0738
0.233524
0.227419
3.00273
3.04331
3.01916
0.231484
3.11449
0.240845
0.251234
3.09413
3.0767
3.1375
0.244172
0.638373
0.829686
0.619047
6.75706
7.95188
6.17969
7.11379
1.05289
1.44555
0.637183
5.75715