/*--------------------------------*- C++ -*----------------------------------*\
  =========                 |
  \\      /  F ield         | OpenFOAM: The Open Source CFD Toolbox
   \\    /   O peration     | Website:  https://openfoam.org
    \\  /    A nd           | Version:  10
     \\/     M anipulation  |
\*---------------------------------------------------------------------------*/
FoamFile
{
    format      ascii;
    class       volScalarField;
    location    "8.2";
    object      omega;
}
// * * * * * * * * * * * * * * * * * * * * * * * * * * * * * * * * * * * * * //

dimensions      [0 0 -1 0 0 0 0];

internalField   nonuniform List<scalar> 
12920
(
69.4131
121.18
157.088
169.93
165.226
141.617
102.069
74.9096
61.9939
57.2409
54.3453
52.4993
50.8198
49.5411
47.6788
45.2351
41.959
37.8173
34.3542
31.1814
231.468
164.063
162.32
143.085
129.272
104.971
82.3427
74.374
73.868
73.5051
69.842
65.9149
63.2682
61.1495
58.7703
55.5706
51.9713
50.072
50.0373
50.6994
119.969
194.125
185.263
137.948
109.078
94.2627
88.8314
88.7626
87.8666
84.1854
78.9985
74.908
70.5854
66.8633
63.2607
59.862
57.9293
57.322
57.3508
57.2045
120.812
210.542
200.33
143.512
119.573
107.139
99.5644
95.9147
90.6262
87.3298
82.7924
79.5048
75.6132
71.9129
68.4086
65.2199
63.308
62.0772
61.674
60.5586
86.7956
98.6939
127.053
129.237
121.501
113.554
104.266
99.6634
92.8104
88.251
83.234
79.8619
76.5475
73.8985
71.5986
69.3702
68.0852
66.4824
65.6547
63.3968
136.171
133.878
135.533
130.575
118.76
106.231
98.6467
92.7858
86.6948
83.6377
80.0879
77.8173
75.1821
72.9503
70.9884
69.1667
68.2364
66.4287
65.1392
62.1056
74.7835
142.486
155.66
150.744
129.699
117.174
106.504
98.5114
90.9239
84.5772
79.2896
75.7393
72.877
70.6855
68.4317
67.0186
66.0032
63.8416
60.367
55.8778
221.77
197.632
170.497
155.17
129.005
116.136
176.085
147.132
142.912
128.369
123.333
115.937
112.211
108.409
66.1805
63.1337
59.4886
54.8157
50.7823
48.901
187.937
226.836
200.837
175.67
148.071
194.248
281.236
248.1
236.93
200.985
181.995
170.395
162.236
158.156
101.157
56.2468
50.4327
46.1043
43.8276
43.5914
127.632
202.738
212.765
209.951
182.362
231.5
248.783
231.78
241.04
203.507
180.263
167.383
152.741
141.427
84.4188
45.8758
43.554
42.8564
42.6325
42.7027
69.941
203.375
219.563
233.081
226.243
352.861
483.536
295.035
172.844
165.68
157.655
143.281
127.765
117.869
73.7268
46.9
45.5017
45.0852
45.1023
44.8876
271.754
268.604
251.328
233.921
214.646
355.251
534.577
291.601
147.24
117.327
113.127
125.497
132.729
135.275
87.7438
49.7737
46.6367
44.6014
43.8542
43.2793
269.007
255.395
207.384
171.049
156.692
121.932
178.916
136.001
116.298
93.8436
86.9224
83.1207
79.6998
77.0949
48.818
46.1831
44.4544
43.1204
42.0223
41.0397
433.842
266.42
185.559
146.092
119.603
100.52
86.4223
84.8591
78.5875
72.8148
65.5303
61.3491
57.3782
55.118
52.4478
49.4361
46.3525
43.5865
41.7422
39.6785
302.053
217.487
159.646
126.56
111.094
103.927
93.3878
95.5104
94.5131
95.6396
93.1988
86.9636
75.2306
67.9615
63.6222
58.5443
52.6654
46.9668
43.1049
39.3715
234.614
246.628
188.603
143.175
113.814
104.525
98.1898
97.6637
95.9564
95.5617
92.7594
88.5501
81.5346
75.6767
69.7949
64.4002
58.5702
51.9094
46.7677
41.5307
286.237
293.131
213.379
128.739
100.554
93.3801
92.3358
91.2817
88.571
85.1466
80.9238
76.5438
71.6081
67.3774
63.2324
58.2447
53.3451
48.6551
45.7412
42.2241
203.601
263.821
202.754
140.667
111.426
94.2265
82.7816
77.1181
72.1919
68.8471
64.5666
59.9366
55.1647
51.4508
49.4801
48.5421
47.7449
46.1035
45.0189
44.0305
221.995
208.137
179.049
150.482
125.831
111.74
96.2818
85.2112
73.683
68.7061
64.2877
61.8492
58.2566
53.8044
48.8199
45.1813
43.4769
43.1704
43.316
43.853
176.34
117.967
109.729
106.23
93.2116
85.7099
80.9422
76.934
68.4757
60.7999
55.926
54.2584
52.2804
50.3758
48.1303
45.0072
42.2297
40.1509
39.4171
37.6931
47.9233
90.9279
98.3324
95.0144
86.7252
71.1708
54.1632
42.9379
37.8484
35.3956
33.1608
30.9194
28.7689
26.9817
25.4478
23.8315
21.9814
20.7617
20.4298
20.817
179.784
112.005
90.8148
88.0654
83.4836
72.5024
59.38
48.9366
40.5768
36.3126
33.5829
32.3862
32.0333
32.2441
33.0037
33.6783
33.6149
32.2056
30.1679
28.8676
159.607
135.248
100.157
77.2331
70.2882
65.2803
58.7349
51.4213
44.9381
40.9438
38.2893
36.9473
35.9906
35.39
35.0219
34.2808
33.2234
31.779
30.8154
29.9787
164.904
157.915
122.019
72.2932
57.9602
54.7051
51.3326
47.7094
44.1136
41.8816
39.8179
38.4725
37.1354
35.9352
35.0797
34.1184
33.5525
32.6816
32.0714
30.8837
134.83
108.402
93.1958
69.2827
60.5826
55.1918
51.7268
48.7002
45.562
43.1616
40.7955
39.109
37.6129
36.4885
35.6381
34.8307
34.4178
33.788
33.4037
32.4724
132.094
119.118
90.3488
72.8455
62.8845
54.923
49.8679
46.0732
42.4482
40.4149
38.5458
37.4631
36.4038
35.6211
34.9999
34.4617
34.0868
33.5714
33.4545
32.9513
126.999
120.935
107.063
82.2341
68.4319
58.864
51.21
46.8303
42.4111
39.9247
37.7162
36.406
35.2656
34.4313
33.8324
33.1953
32.7152
32.4161
32.2145
30.7417
315.363
183.933
134.889
98.3574
78.1185
59.7842
59.9536
48.783
42.778
38.4661
37.1737
35.4091
34.6928
33.8097
30.0848
29.9292
29.5448
28.9403
27.5764
25.4753
132.203
169.191
137.729
104.746
88.5262
83.6138
66.6304
51.8037
42.6533
37.3867
34.2116
32.2521
30.8909
30.0579
27.7249
25.1443
24.7963
23.8394
22.6836
22.3577
208.832
168.043
121.692
101.417
89.0839
97.9456
83.0636
46.7936
41.5101
36.5238
31.5799
29.3059
27.3034
25.581
23.0036
21.4153
21.5259
21.848
22.3121
22.8981
225.981
162.705
132.35
119.417
117.631
142.143
154.04
172.491
39.0074
32.3486
30.9111
29.912
27.0894
24.205
22.2565
22.2151
22.9141
23.4244
23.7967
23.9916
147.068
180.94
138.357
120.654
124.541
165.863
185.444
184.78
40.0003
33.045
28.8057
26.8783
25.2822
24.3425
24.2177
24.049
24.0008
23.5981
22.8916
22.3747
486.862
135.978
96.4399
92.4292
97.9192
90.3484
117.104
62.7784
37.6336
31.1809
27.4492
26.7652
26.9071
26.4243
23.9906
23.348
22.6692
22.0211
21.5541
21.0208
279.894
146.684
87.6919
71.5714
67.062
59.2524
49.178
43.3118
35.3022
33.3102
30.6775
30.1555
28.6943
27.644
26.4922
25.392
24.439
23.1037
22.0555
20.532
256.803
115.262
77.417
67.9903
59.2459
57.0412
49.9881
48.1545
45.2728
45.704
45.2862
45.0604
43.0654
38.5343
34.6539
32.4418
30.6154
27.3127
24.4294
20.9631
211.728
112.522
82.5849
78.6103
69.7899
63.2393
56.5302
53.8503
51.1896
50.7926
49.7574
48.9883
47.5045
45
42.223
39.1151
37.0175
32.8569
28.9845
23.4622
234.9
145.716
105.01
79.4006
64.4701
56.6474
53.5958
50.8643
49.311
48.1958
47.0407
45.6036
43.9783
42.0385
40.1556
37.8413
34.9557
30.3268
26.9336
22.7762
265.153
152.762
127.755
81.3029
61.585
51.2387
46.7506
42.868
41.1275
39.1989
37.7717
36.4433
35.2132
34.2087
33.1928
31.4959
29.0067
25.8923
24.0757
22.5876
287.837
166.036
122.81
89.9224
66.4851
57.4884
47.6153
42.0337
37.2923
35.7175
34.523
34.3839
34.4029
34.2068
33.5335
31.5947
29.1932
26.9853
25.5127
24.2802
91.6045
75.0354
70.9427
66.6332
56.8726
51.2985
47.0334
42.6234
37.2808
34.5095
32.9244
31.4832
29.8738
28.3191
26.7226
25.4447
24.1974
23.7767
23.538
22.2017
112.366
110.769
108.776
101.156
88.8862
73.583
59.4054
49.1684
42.7485
38.2606
34.7036
31.6678
29.3418
27.6619
26.7627
26.0621
25.4013
24.8589
24.8214
24.9805
157.865
112.671
81.9796
67.2668
61.1134
54.2215
46.7166
41.3935
36.312
33.9688
31.7073
30.7959
29.9716
29.7537
29.5618
29.2509
28.6455
27.7701
27.0657
26.6748
336.019
159.996
100.021
66.3099
58.0367
53.3586
47.4396
42.6377
37.9485
35.5835
33.5899
32.6904
31.8538
31.2681
30.592
29.8126
28.9994
28.1154
27.6183
27.1075
178.457
176.302
122.44
70.2974
52.5448
45.7262
42.8649
40.2144
37.4559
35.8783
34.1906
33.1839
32.0989
31.2593
30.508
29.7975
29.3283
28.6669
28.2409
27.4694
178.755
130.092
92.6657
65.2889
53.2334
46.6112
43.1407
40.8659
38.2271
36.4614
34.5771
33.3322
32.1932
31.3841
30.7467
30.1798
29.8469
29.3464
29.0464
28.4192
189.695
129.489
84.2687
58.3601
51.169
44.1881
40.9359
38.3624
35.6798
34.325
32.8031
31.9474
31.1113
30.5528
30.1278
29.7414
29.4697
29.1454
29.0117
28.6814
161.376
134.56
97.0254
68.8557
55.8263
48.327
42.0608
38.1836
34.8468
32.9177
31.4319
30.5357
29.8125
29.2916
28.9009
28.5099
28.2058
27.8695
27.6027
26.7784
204.238
170.64
118.171
74.5169
57.4673
47.7742
45.0656
38.619
34.306
31.1778
30.0014
28.7743
28.2524
27.6424
26.5933
26.133
25.6546
24.9873
24.2018
23.3788
219.23
157.491
105.438
77.1889
59.5724
53.1702
47.1916
39.9478
33.4065
29.7503
27.5987
26.292
25.5057
25.0342
24.2509
23.4193
22.7183
22.1067
21.6814
21.6263
279.664
185.78
116.505
83.3465
65.6584
56.3567
48.226
36.877
32.3703
28.5196
26.139
24.7272
23.3305
22.4111
21.9423
22.3024
22.0322
22.044
22.1388
22.2771
459.933
234.962
135.184
96.8974
84.6434
91.7935
113.976
109.19
30.2374
26.2988
58.5832
48.905
30.7084
24.4317
22.7809
22.9991
22.9464
22.98
23.0115
22.9678
139.332
165.203
139.748
95.8881
85.5381
106.454
140.749
116.478
31.2157
26.8793
25.5007
24.7765
23.4645
22.6288
22.6111
22.6378
22.2648
21.936
21.6835
21.5633
294.265
151.467
86.5394
68.0461
64.9159
51.8266
65.7037
42.3203
29.7053
26.1982
24.1163
23.5047
23.0196
22.5313
21.9494
21.3361
20.8606
20.4886
20.2215
20.1488
146.122
151.021
92.2554
56.5669
51.2969
44.9035
39.0892
35.1026
29.5683
28.2772
26.2887
25.7494
24.526
23.7835
22.9314
22.132
21.3684
20.5646
19.9474
19.394
224.824
103.681
65.6671
52.6228
49.5585
45.0305
40.9995
39.3213
36.4057
36.4294
35.1433
34.4623
32.3627
30.1549
27.9695
26.2435
24.5183
22.4439
20.8303
19.3565
495.415
110.158
67.3004
57.0369
53.5634
48.9429
45.0104
43.5425
40.9665
40.4
38.8493
37.8133
35.9863
34.0084
31.9982
29.9694
27.9804
25.2156
23.0279
20.6637
234.24
108.064
65.5245
53.7283
50.3932
44.5343
43.3263
40.8459
39.0594
38.0388
36.5763
35.5807
34.1172
32.8313
31.3047
29.4458
27.151
24.4533
22.6606
20.8654
160.587
127.144
88.8224
62.5277
50.2328
42.5921
38.8654
36.1394
34.0917
33.1787
31.8468
31.4475
30.5422
29.7975
28.5185
26.8538
25.0445
23.4603
22.678
22.1695
538.025
207.509
118.03
84.0286
60.779
50.4245
41.8101
38.1785
34.4999
33.4579
31.7495
31.3919
30.5454
29.9176
28.7891
27.5042
26.2971
25.5851
25.3041
25.0169
96.0327
108.94
95.5369
76.8865
61.3931
53.645
47.6072
42.819
39.1633
36.7505
34.4805
32.5866
31.0404
29.6233
28.3566
27.7468
27.452
27.1073
26.2663
23.2085
136.862
118.292
112.804
101.784
87.9849
72.9153
60.2878
50.5562
43.4987
37.7775
33.6834
30.7587
29.2522
28.2818
28.1042
27.7655
27.4877
26.9751
26.9424
26.869
191.268
111.853
85.0957
63.8344
60.6999
51.6576
48.2666
43.7586
40.6883
38.3409
36.2899
34.9088
33.8978
33.1536
32.4873
31.8631
31.3872
31.1137
30.9997
31.1019
324.886
139.335
109.289
65.914
59.8865
51.4132
48.6199
43.6764
40.8913
38.4943
37.0921
35.8474
34.9375
33.9722
33.1697
32.3536
31.7995
31.2835
31.0227
30.7912
213.148
183.656
136.248
75.797
56.5407
44.8476
44.5374
41.0518
39.7387
37.6658
36.5954
35.3577
34.5075
33.6031
32.971
32.3237
31.9567
31.4592
31.1844
30.7222
257.512
164.825
112.727
72.1247
58.5374
47.0262
45.3719
41.8171
40.1903
37.9632
36.6399
35.2802
34.4322
33.6071
33.1018
32.5812
32.3112
31.9111
31.7226
31.3528
269.296
150.062
103.244
58.9092
52.9567
42.8983
42.4469
39.1122
37.3406
35.6073
34.533
33.6109
33.0324
32.5504
32.2728
31.9598
31.8151
31.6381
31.6068
31.4729
337.434
145.994
105.674
66.889
57.7522
47.2872
43.1047
38.3079
35.9064
33.891
32.9856
32.1701
31.7583
31.3099
30.9468
30.6362
30.4423
30.1861
30.0529
29.7288
189.816
127.573
97.4253
64.26
55.9111
46.6511
43.4023
37.7592
34.5163
31.7742
30.976
29.9993
29.6931
29.2171
29.8696
28.7921
28.1743
27.6897
27.3772
27.2037
237.048
145.654
97.8164
66.4779
53.4306
47.0316
44.1608
38.4904
33.3884
30.6864
29.169
28.3365
27.9419
27.7326
28.2293
27.773
26.5446
26.0753
25.9748
26.0723
228.124
156.403
115.087
75.2197
56.0479
45.7924
41.5744
36.642
33.0378
29.8945
28.158
27.189
26.9852
27.1836
28.3586
28.0506
26.93
26.6105
26.5733
26.6388
214.197
195.776
131.826
83.7695
63.8454
59.1996
58.8849
41.1967
31.3527
29.1074
44.6742
38.3308
30.6419
29.2137
29.4738
28.704
27.6057
27.2707
27.1683
27.1376
138.088
160.765
130.619
81.3113
63.0202
58.7173
61.2822
42.3878
31.7034
28.842
28.0424
27.6277
27.61
27.6504
28.3695
27.2859
26.2427
25.9356
25.8985
26.0225
281.707
154.147
86.3756
60.9737
53.5901
42.2497
45.4294
39.0463
31.0562
29.0665
27.3517
26.6811
26.1545
25.8847
25.8846
24.7999
24.4054
24.3371
24.379
24.6214
162.566
157.655
93.993
56.1617
52.1057
42.397
41.1066
34.4428
31.6088
29.0263
27.8856
26.8297
26.188
25.5912
24.9924
24.4756
24.0902
23.8244
23.6903
23.7615
214.904
119.703
65.937
53.2752
49.8151
42.5085
42.702
37.9393
35.5045
34.5252
32.8756
31.9748
30.4237
29.2218
27.8651
26.6193
25.5017
24.4753
23.8056
23.5215
497.579
132.621
65.3882
53.3061
51.5259
44.1848
44.52
40.9308
39.5995
37.7939
36.4437
34.8859
33.3975
31.818
30.3902
28.8782
27.4867
26.0238
25.0274
24.3541
364.395
171.79
64.3051
52.2766
48.526
41.3109
42.6333
38.1706
37.8237
35.6834
34.9567
33.6664
32.7105
31.5469
30.3809
28.9462
27.5688
26.2868
25.5064
25.0121
276.025
140.188
84.7836
60.5362
51.3365
40.7664
40.1269
36.075
35.5854
33.8988
33.3211
32.5234
31.8017
30.888
29.8872
28.7926
27.943
27.4771
27.3957
27.5716
232.583
181.125
131.678
85.4435
63.5247
48.2292
43.4685
39.1952
37.4565
35.5641
34.338
33.5427
32.7063
32.1112
31.4593
31.2136
31.2187
31.7184
32.0436
32.1655
133.207
126.76
104.189
79.2737
60.8401
51.0192
45.6448
41.7461
39.0775
36.1879
33.7553
31.8902
30.7335
29.5379
28.7839
28.3147
27.8199
26.4739
24.5246
22.3842
113.398
116.41
109.666
94.9978
80.4791
66.9763
55.8118
46.7178
39.1659
33.7647
30.8224
29.305
28.7308
28.1574
28.1038
27.6315
27.3115
26.7433
26.7376
26.4835
351.562
127.034
90.2465
71.5016
70.7048
53.7426
62.1956
52.0518
55.9043
49.2468
50.1791
46.5636
46.7543
44.7326
44.5229
43.51
43.6085
43.7515
44.1605
44.7828
209.63
151.169
118.798
73.7971
70.9613
54.484
60.0807
50.7171
53.082
47.9325
48.7598
45.8273
45.7741
43.9294
43.5214
42.4247
42.2858
41.9317
41.948
41.9612
198.102
181.783
156.58
82.7558
67.3127
47.4885
55.1427
45.8705
49.8717
45.0883
46.4842
43.9556
44.1894
42.765
42.6433
41.8818
41.8613
41.5694
41.5974
41.4072
578.948
224.441
130.657
79.1087
71.818
51.7642
56.7076
48.2454
50.3545
45.8524
46.3608
43.9477
43.9776
42.7018
42.6236
42.0371
42.045
41.819
41.9196
41.8217
308.129
154.119
115.106
62.4459
65.3905
46.2613
53.5173
44.2008
46.0485
42.4209
42.9625
41.5036
41.7226
41.2201
41.3305
41.1197
41.3076
41.4052
41.7512
41.8539
372.622
182.013
123.874
69.8375
70.8858
51.4553
52.8737
44.4619
44.4912
41.3607
41.8729
40.6593
41.0096
40.3072
40.1478
39.9436
40.0284
40.0528
40.2901
40.3748
173.855
140.459
108.27
63.5271
67.0882
51.4044
49.7599
43.4845
43.0222
40.4564
41.2454
40.3707
40.917
40.3983
40.4585
38.498
37.9969
37.9195
38.0687
38.1445
170.902
151.638
110.948
65.0649
58.9108
50.8161
52.3205
46.9165
45.2376
43.8639
43.9168
43.5555
43.9425
43.9788
43.661
38.5594
37.0563
36.9637
37.1262
37.3077
198.022
144.178
123.853
71.0098
57.7155
47.1378
49.5354
50.9837
49.702
46.6206
45.1301
45.765
47.1451
47.4363
45.0412
38.8985
37.3616
37.3357
37.5294
37.7275
198.842
164.628
136.438
76.2507
58.5495
48.0476
48.8723
51.9877
51.4984
45.8883
44.6067
45.2756
48.476
48.7935
45.7659
39.4819
37.8309
37.7594
37.85
37.9647
163.262
169.983
134.938
77.5385
65.2655
49.9545
51.789
53.6468
51.9731
49.0488
47.4378
46.8294
47.5796
47.5394
44.8929
38.0373
36.6793
36.6133
36.7912
37.0062
246.385
139.269
92.224
78.688
62.0513
53.5352
56.4583
49.5227
46.8391
42.5189
42.2017
40.3935
40.7093
40.1163
36.729
34.9855
34.7498
35.026
35.3318
35.6744
346.195
189.157
100.745
69.301
65.153
49.5668
59.1647
40.0735
42.0533
35.2646
36.4838
34.273
34.9765
34.2012
34.0971
33.8021
34.0781
34.2787
34.6273
34.8955
272.59
157.009
77.3523
75.018
56.8592
51.7649
54.076
41.4854
42.3865
38.1313
38.3828
36.6962
36.8213
35.9752
35.5944
34.8709
34.6992
34.517
34.5413
34.6523
329.46
129.868
71.6127
67.9426
57.8997
48.3775
53.8638
43.591
47.1249
41.6119
42.905
39.7924
40.0605
38.1915
37.8721
36.5489
36.1453
35.5473
35.5017
35.4928
267.828
147.553
72.2499
74.7255
54.634
49.9634
50.9771
41.3885
45.3825
39.7265
41.9748
38.9889
39.8344
38.1384
38.1374
36.9538
36.7166
36.1801
36.0102
35.8151
447.222
195.095
94.9688
76.0096
61.4929
48.0161
50.6931
41.1075
45.8035
40.166
42.8387
39.7229
40.8283
39.0278
39.3752
38.4176
38.527
38.2644
38.4212
38.6257
268.163
164.663
136.197
83.9787
72.7398
50.7551
53.9175
43.8885
48.199
42.1183
45.4178
42.1773
44.0252
42.7323
44.1558
44.2907
45.3848
45.3683
45.546
46.0245
152.717
112.838
102.195
76.9941
57.513
47.8391
43.0971
39.7244
36.6305
33.1547
31.06
29.1951
28.4096
26.876
26.0671
24.6964
23.5773
22.6078
22.1472
21.7122
26.558
27.9964
71.105
28.7696
27.3478
29.119
77.1338
25.0841
71.8688
52.8457
27.0477
26.2393
75.4601
51.0632
58.6918
26.5252
26.7371
27.9514
64.5929
27.3078
28.4225
52.4118
27.2927
27.455
63.197
51.4064
29.0062
28.7833
246.211
240.387
230.462
79.1347
61.7015
78.0345
56.2157
244.62
239.221
247.335
58.6044
50.8348
53.1203
49.5846
206.45
246.204
217.135
48.7552
44.0276
48.9689
45.0863
184.663
205.644
185.722
42.7646
39.7312
42.7393
37.3365
170.963
181.688
171.897
39.261
37.5131
36.2998
34.2101
162.686
169.367
159.771
37.0372
35.5165
33.6545
32.0312
157.383
157.015
150.311
35.3609
34.4218
31.5454
30.2449
141.069
148.599
132.372
34.3204
32.5135
29.9163
27.6657
218.527
310.943
237.226
98.6549
57.5764
133.304
137.569
242.466
223.296
190.015
52.43
47.8953
122.482
46.4983
213.663
190.185
182.666
47.5599
44.4667
43.3697
39.441
184.272
178.439
169.702
42.2892
37.0614
38.2826
35.1853
170.174
166.592
156.178
36.0177
33.8951
34.6784
33.2271
156.29
151.187
136.731
33.3172
31.5735
32.6756
30.4288
144.045
132.599
122.903
30.9777
29.3366
29.5719
27.0773
127.596
120.029
102.098
28.8871
26.9526
26.4735
24.2202
299.723
557.884
325.62
171.893
190.017
192.696
208.267
177.308
324.807
163.855
183.824
53.4191
206.662
63.9637
167.809
144.657
118.906
43.9539
38.1492
44.9238
37.3884
160.298
115.367
120.905
36.9218
34.3927
36.4705
32.5402
147.735
124.946
133.48
34.0548
32.7709
31.7634
30.2007
131.226
133.73
131.881
32.1753
29.8776
29.6677
28.1098
119.945
131.387
130.806
29.0473
26.6398
27.6062
26.3936
102.155
130.459
121.817
26.0674
24.084
26.143
25.2058
304.505
430.68
217.167
199.057
205.673
187.796
160.191
160.531
192.726
185.271
196.531
56.1495
109.14
48.9298
123.389
181.371
140.852
43.9699
38.2575
45.0815
36.5145
112.217
134.141
122.621
36.9987
32.8834
35.2231
31.7981
121.697
124.109
125.064
31.9425
30.1856
31.0494
29.5843
131.564
126.145
126.749
29.6529
28.1729
29.6887
30.0226
135.27
127.94
129.299
27.7348
26.9128
30.2507
30.2197
124.815
129.379
114.361
26.8337
25.7393
30.3674
29.1256
54.5311
66.1005
49.892
50.1544
43.5013
48.8042
40.5449
44.638
47.1281
43.4752
41.599
36.098
38.7354
35.2922
38.5203
42.671
38.7863
34.5748
31.386
34.2272
30.828
34.7462
36.9434
32.7179
30.6097
28.6853
29.7377
27.2444
32.7322
31.8612
30.0789
28.269
27.1434
26.6771
25.4105
31.0636
29.5964
28.2101
26.8261
26.0459
25.0489
24.0649
30.1794
27.8042
26.7278
25.9279
25.4723
23.7989
23.1271
29.2454
26.4566
25.246
25.3881
24.9933
22.9566
22.3336
51.3266
114.242
129.867
53.3164
40.8277
83.2097
91.4651
42.081
117.474
41.3802
38.2844
34.411
71.4453
33.2018
38.2462
38.1739
34.4564
33.5009
30.4172
31.1778
28.3058
32.431
33.4211
31.5267
29.3704
27.0451
28.0118
40.6369
29.8012
31.3706
30.5206
26.5492
25.3728
41.997
39.052
27.8051
30.0335
27.8177
24.9943
23.8324
36.2815
28.3895
25.9445
27.0021
24.7378
23.4742
22.5962
26.7569
23.6523
24.526
24.1895
22.7449
22.376
21.7992
23.0277
21.8434
173.908
182.464
187.592
126.049
152.087
159.461
182.123
48.3803
188.799
60.4901
138.113
35.7108
179.786
41.0369
33.4508
41.0533
33.3618
31.381
27.7931
32.7039
27.9495
30.8914
32.428
29.2418
27.0127
38.2945
27.1093
26.3344
30.3429
28.6531
27.4942
39.5857
39.5197
26.5803
26.6303
27.8907
27.0959
25.8122
38.3779
31.4416
26.3803
24.8081
24.7677
25.3448
24.1911
29.2353
24.8109
24.1757
22.7844
22.7469
23.9353
23.45
23.9379
22.2449
22.4883
21.9306
188.725
178.169
156.949
161.651
170.915
146.253
92.0584
51.9981
106.302
44.7734
150.322
37.8711
64.0393
35.7799
34.1756
40.706
33.3864
32.5489
28.4696
32.8541
28.1871
29.5843
32.0982
29.1193
27.5829
25.7998
27.4481
25.3844
27.3285
28.3597
27.2208
25.5478
24.926
24.8644
24.1165
25.6578
27.2363
27.3252
24.6433
23.6743
24.0978
23.8632
24.4651
27.3687
27.1534
23.3369
22.5904
23.7577
23.3254
23.9677
27.152
26.5231
22.4316
22.0959
23.2315
22.7028
41.7255
45.7802
39.0256
43.9849
39.6929
42.015
37.7139
34.8231
37.4443
34.0894
38.0881
33.7698
36.5531
33.411
30.4624
33.0081
29.8236
32.6432
30.3032
32.384
29.7857
27.9885
28.8722
26.6938
29.7213
28.3415
29.0815
27.4515
26.5797
26.1876
25.043
28.0511
27.3191
27.0708
26.2096
25.613
24.7116
23.8361
27.1047
26.6747
25.9813
25.5528
25.1139
23.6096
23.0509
26.6142
26.3998
25.4877
25.3461
24.7188
22.9099
22.3946
26.3408
26.1222
25.3089
25.1168
38.9631
73.392
74.5741
41.8255
37.0106
50.5331
43.328
33.3104
57.1952
31.8653
35.7822
32.8844
38.2731
31.2199
29.4433
30.2136
27.7098
31.9723
29.4801
30.2757
28.3726
27.5223
27.7139
28.0475
28.1439
27.5617
27.44
27.7126
27.1819
25.7717
27.069
26.1005
26.8106
25.7727
27.4144
23.647
43.9491
29.7293
25.9619
25.3494
42.3535
30.2216
22.591
27.5712
24.08
25.2566
25.1258
28.6954
26.7841
21.9294
23.451
22.3079
25.0941
24.9424
26.4982
26.0377
132.345
146.196
170.815
71.4542
59.9655
89.8358
82.116
33.3036
157.508
36.578
46.5812
31.3216
60.0696
32.1053
27.2887
31.1651
27.2637
30.0409
28.0265
30.3332
27.8572
47.7698
45.53
26.8991
31.7964
32.8411
190.079
27.6016
70.0173
58.0991
46.8067
151.519
47.6941
136.966
71.1313
33.9831
27.1209
25.114
45.8213
32.4763
28.2795
26.7322
25.3537
24.4304
23.0622
30.4081
27.6131
26.4222
25.9252
22.7204
22.7821
22.2208
27.1667
26.334
25.813
25.5175
144.831
121.421
72.3905
75.9487
62.9915
65.4849
46.1299
34.9241
54.5667
34.1566
48.4845
32.0411
40.9408
32.3431
27.6967
31.5543
27.6042
30.4952
28.1375
30.5633
28.3332
25.603
26.9528
25.074
27.4703
26.852
27.912
26.3659
25.0506
24.5973
23.9365
26.8762
26.5761
25.9835
25.5379
23.7904
23.9145
23.6244
26.3557
25.8357
25.4831
25.1262
22.7745
23.4882
23.0706
25.7402
25.5455
24.9645
24.744
22.3022
22.9803
22.491
25.4958
25.3501
24.6635
24.2901
40.0864
42.1895
38.4673
49.1823
45.2894
47.5037
46.3095
34.4071
37.3964
34.3317
43.7196
41.0933
45.6513
43.6149
31.24
33.3503
30.8875
40.7309
39.5445
43.0838
40.9415
29.4179
30.2105
28.6453
38.9769
38.6241
40.1819
38.8505
28.5296
28.294
27.5195
38.6193
38.4386
38.7028
38.614
27.9803
27.3504
27.1906
38.2191
38.4261
38.906
39.9718
27.7828
27.2095
27.2502
38.4698
38.5798
40.2169
40.45
27.4689
27.2535
27.0814
38.4583
38.0258
40.4794
40.1315
37.6783
46.2845
40.2969
46.1757
45.9299
44.9644
45.2489
33.9153
37.2107
32.3927
45.5871
44.0657
45.2631
45.0119
30.5945
31.5884
29.4849
43.5377
40.5925
44.1984
39.6745
28.4516
29.5773
46.4346
39.6471
37.8953
38.422
38.139
27.4143
46.7153
40.2144
37.6326
37.4747
38.3306
37.7506
26.9413
36.8181
30.2536
37.8695
39.7053
37.522
39.8071
27.1562
29.5028
28.7889
40.16
40.6198
40.6759
41.68
27.035
28.6727
28.2961
40.655
40.2254
41.7044
41.1129
48.4544
71.2363
60.0654
47.0956
46.1091
49.8939
48.0857
32.3337
47.0363
32.8481
45.7485
45.2276
47.3241
45.7343
29.1979
31.5789
29.2322
44.4728
39.6935
45.0919
41.7463
44.3167
28.6189
29.0808
38.4123
38.4888
40.269
38.5777
40.7681
29.4947
29.2407
38.7332
38.0543
38.559
38.4698
31.6492
28.8659
28.1411
37.9285
40.254
38.8312
40.4978
29.4355
28.1113
28.0718
41.0565
41.9466
40.9561
41.3637
28.5459
28.025
27.6958
41.941
41.2706
41.3625
40.8548
49.9143
57.072
43.9342
49.6072
47.7244
52.6811
49.529
32.8766
40.15
33.0643
47.2389
45.6389
47.4035
43.4644
29.5428
31.5254
29.817
45.0395
42.6026
43.1671
42.1765
28.0568
29.4018
27.8425
41.4366
39.616
41.2441
39.6292
27.7644
27.5004
27.1205
39.478
39.2863
39.4102
39.0175
27.5531
27.0495
26.6723
39.4997
40.4609
38.6443
38.3546
27.6631
26.5415
26.4131
40.7449
40.963
38.2694
38.323
27.4605
26.3533
25.9253
40.9654
40.5291
38.1411
37.4715
48.389
50.9432
51.0383
64.0256
60.7062
64.3484
65.8822
45.2688
50.6242
49.2729
59.4921
59.8344
65.9276
66.0677
44.4065
48.9433
47.3681
60.1801
60.2461
66.3384
68.5498
43.8549
46.7896
45.9549
59.6813
60.7767
69.301
70.8002
43.7861
45.9217
45.9528
61.0887
61.3473
71.0627
70.8827
43.8518
46.047
46.6577
61.2311
62.0812
70.4901
68.9997
44.0838
46.8763
47.0485
62.3837
62.7636
68.8597
68.6849
43.3594
47.083
46.4761
62.7981
61.3126
68.7749
67.2924
51.0261
47.7703
50.9501
63.7126
66.7445
63.4861
69.3526
50.0969
51.5112
51.6321
67.1536
67.7086
70.4846
72.3395
47.4466
51.0866
47.2516
68.1985
71.5807
73.43
79.1097
45.2638
45.7207
44.0563
72.6199
74.2471
80.8778
82.9316
45.3172
44.0814
44.1955
74.4683
74.017
83.1238
81.7481
46.763
44.8609
47.3952
73.3682
70.7731
80.1851
74.9992
47.428
48.1676
48.7003
70.1982
69.5534
73.4451
71.2274
46.6245
48.6331
47.4804
69.539
67.5148
70.966
68.2964
51.5287
51.2191
53.5018
65.2563
70.4677
67.6384
73.1253
52.0299
53.6611
52.6664
71.6425
73.4514
73.9015
74.2619
47.5157
52.1313
49.8024
74.4587
79.9418
74.4572
76.6623
44.5277
48.6185
46.9558
81.7369
83.621
77.2505
77.8374
44.5627
46.8805
46.7039
83.6763
82.0364
77.6886
76.4257
47.7407
46.8615
47.6601
80.414
75.1369
75.3183
71.8275
48.8864
48.0107
48.0682
73.5269
71.2122
70.9034
69.7863
47.5915
48.0259
47.1316
70.9295
68.1513
69.6636
67.5752
53.5917
56.1162
54.8568
67.6116
73.6826
76.1319
77.8099
52.4666
52.6269
49.2575
74.1229
73.9467
73.2626
70.003
49.8913
49.0635
47.8881
73.8058
74.76
69.8106
69.6009
47.6221
46.7141
45.337
74.8503
75.1357
66.1009
66.5914
46.8918
45.2098
44.7266
74.9436
73.8078
65.8391
66.1155
47.3963
44.2457
44.0617
72.8631
70.3557
64.3762
65.0279
47.5651
44.0413
44.0755
69.8395
69.1682
64.6213
65.0622
46.7599
43.886
42.9997
69.0877
67.2329
64.3922
62.6343
27.5862
27.0656
27.2741
26.4627
27.4044
26.8917
27.5643
32.0832
27.7386
46.9486
31.818
29.1617
27.7476
149.328
36.3899
32.8121
63.7175
178.084
31.6327
37.5632
192.509
27.7273
28.2178
28.1649
28.4027
27.5825
27.8233
28.159
27.8665
26.719
27.7042
28.2575
27.0969
27.9056
28.223
32.6249
32.7748
28.4019
52.9575
27.9688
153.477
30.2967
37.1642
180.403
34.7438
71.7427
38.4014
195.597
33.3713
26.885
25.4259
26.0762
25.142
26.5049
25.4609
26.3917
36.6865
32.9579
70.6808
166.623
32.7203
37.2833
155.575
35.4395
30.5556
63.8212
70.4816
32.112
32.5526
105.477
27.5841
26.3955
26.7719
28.1615
26.0986
27.7852
27.9857
27.3
25.5177
26.5108
27.2926
25.8145
26.7967
27.7237
37.4437
168.461
34.8317
72.5861
38.0726
157.496
34.5064
36.1787
70.8333
31.9877
62.8745
33.1193
108.095
33.7152
63.2255
55.7454
44.7232
166.629
39.996
179.826
70.6719
28.3699
26.4206
26.188
26.3661
27.1432
26.4767
26.2845
31.8445
31.2863
26.2789
27.504
28.9539
35.2396
26.6489
48.9532
32.9303
49.7704
28.1676
185.406
28.0959
35.5669
65.3191
169.133
62.4598
49.5207
183.651
72.0654
44.6037
28.9078
26.6039
27.4686
27.249
26.8183
26.6295
28.6151
32.6921
28.0747
33.9963
27.6019
36.1794
27.093
31.2258
66.0973
57.9652
46.7868
79.8884
47.9225
120.202
59.9466
37.6492
32.9277
27.5668
28.2204
33.7424
37.1087
28.4925
37.2721
33.7417
27.5573
28.248
33.8532
36.6315
28.4291
69.4908
153.552
61.0715
50.2842
139.041
71.6428
49.6295
64.5493
77.1787
58.5419
45.7059
117.157
57.9584
48.4681
38.0697
28.7804
35.3279
29.1427
37.8499
28.9854
35.4925
37.4969
28.6295
34.4196
29.0367
36.5657
28.8781
35.161
151.097
173.258
158.736
99.6768
78.0044
95.3363
78.5552
146.406
152.372
145.817
64.7095
60.4759
67.3649
60.4699
134.725
138.375
131.744
59.1447
55.1754
55.9718
53.003
125.634
124.538
119.238
53.1535
52.7908
50.5679
48.5854
118.034
115.716
112.33
52.787
51.0933
47.3985
45.9679
113.37
109.137
106.654
50.2976
49.7062
44.6365
43.6561
109.217
105.138
103.342
49.6574
48.6187
43.0464
42.343
102.034
102.291
94.3304
48.3816
43.869
41.8893
35.5299
170.884
200.897
160.225
125.959
94.4793
134.5
102.305
126.268
257.064
269.56
149.348
124.033
150.972
246.567
94.7395
248.462
245.031
97.7349
94.4939
96.7389
251.058
88.5052
226.414
248.208
89.2164
85.6933
90.8189
240.493
75.2166
195.507
204.998
78.4338
75.8725
78.7548
198.161
67.018
177.292
182.092
75.4379
74.8994
68.2771
178.251
62.9531
167.961
169.259
72.1893
71.2137
64.0004
167.25
59.9416
160.337
160.662
69.4197
68.7625
60.6285
159.344
58.0015
156.944
155.415
67.0125
66.5893
58.4573
154.333
95.201
95.4517
83.1376
39.0279
37.1
33.44
28.4175
172.212
264.337
203.613
148.841
122.934
153.887
132.204
126.714
217.169
249.178
142.939
117.384
154.082
213.65
83.4668
240.039
215.725
87.2627
86.5662
85.2685
226.392
83.2869
236.452
230.097
87.3128
87.1037
83.7049
225.011
72.6526
195.521
197.974
79.2414
74.4377
76.4121
191.277
63.9781
176.728
177.765
66.0565
64.5361
65.4556
174.289
59.0902
163.839
163.968
60.9718
59.8788
60.3492
159.855
53.7038
149.575
146.885
56.2611
55.1337
55.0659
143.377
48.9994
139.031
133.924
52.1102
51.1196
50.2068
130.962
75.2017
74.5616
64.6355
29.9052
25.7806
27.3536
22.326
303.248
375.06
337.723
199.413
175.497
210.051
198.241
353.895
395.372
501.433
304.593
328.526
321.225
411.102
152.993
242.73
318.141
202.364
130.913
244.358
265.012
67.7579
171.54
154.72
74.1382
72.5678
69.0628
151.249
61.7837
164.152
149.756
66.6948
64.5823
63.4318
150.61
57.0948
155.16
149.409
61.0273
59.5545
58.3581
147.979
51.5283
139.057
138.897
55.2777
53.4614
53.0146
135.711
46.0931
125.1
127.441
48.6135
47.0901
47.405
125.135
42.4194
115.605
119.014
43.5338
42.5145
43.1681
117.122
64.4694
81.4469
74.3569
26.9668
21.8893
28.5861
25.1566
323.168
343.606
283.606
206.443
207.68
207.924
199.137
340.366
433.843
511.939
347.996
356.844
342.058
410.016
98.5468
240.288
223.958
211.523
139.75
142.171
191.85
69.3707
139.279
157.194
66.7157
65.681
69.7767
151.682
55.7553
113.408
126.667
60.0423
57.5198
58.2703
117.861
51.1031
115.028
111.995
52.2987
51.721
51.8677
112.499
49.5807
128.827
120.809
50.286
49.8313
49.6713
124.337
48.3813
133.83
132.262
47.8554
47.6445
48.4443
134.02
48.8021
134.973
137.099
47.3318
47.3664
48.5878
136.951
78.6039
85.9913
74.8141
31.346
28.1159
33.9618
30.3966
146.358
153.78
117.542
134.644
122.215
96.9377
76.1545
130.799
121.212
120.749
77.6546
61.9041
63.7904
53.9425
104.859
115.345
99.2289
50.9955
46.2015
49.4066
42.1007
89.7551
92.3088
90.7937
41.7659
38.0641
38.5011
36.9786
85.9505
88.3021
80.7599
35.6675
34.5857
36.1629
33.5719
81.6378