/*--------------------------------*- C++ -*----------------------------------*\
  =========                 |
  \\      /  F ield         | OpenFOAM: The Open Source CFD Toolbox
   \\    /   O peration     | Website:  https://openfoam.org
    \\  /    A nd           | Version:  10
     \\/     M anipulation  |
\*---------------------------------------------------------------------------*/
FoamFile
{
    format      ascii;
    class       volScalarField;
    location    "8.2";
    object      p;
}
// * * * * * * * * * * * * * * * * * * * * * * * * * * * * * * * * * * * * * //

dimensions      [0 2 -2 0 0 0 0];

internalField   nonuniform List<scalar> 
12920
(
1.24963e+06
1.31723e+06
1.09565e+06
1.07578e+06
971136
942306
858003
811190
739606
683032
616104
555481
490573
427616
362504
298618
233119
170528
113587
59264
1.31289e+06
1.29768e+06
1.07319e+06
1.07041e+06
967331
943833
859320
814338
740307
684005
615941
555087
489496
426525
361560
298021
232930
169749
112088
56343.3
1.27298e+06
1.2938e+06
1.10051e+06
1.07912e+06
972708
944046
857724
812514
739098
683077
615369
554387
488795
425970
361123
297547
232397
168679
110610
54686.3
1.23451e+06
1.21144e+06
1.09527e+06
1.08382e+06
985229
945826
861493
816454
742639
685205
616513
554954
489071
425872
360766
296734
231263
167399
109541
53945.1
1.27627e+06
1.22596e+06
1.08731e+06
1.09005e+06
974458
942538
851881
811248
740674
683806
616174
554710
489102
425747
360437
296089
230367
166376
108484
53492.7
1.19283e+06
1.19055e+06
1.05191e+06
1.07719e+06
982307
947359
864029
814965
743940
685328
618153
555292
489842
425703
360017
295205
229268
164830
106871
52200.1
1.14589e+06
1.21828e+06
1.07918e+06
1.08912e+06
979973
949029
866244
812207
741195
683072
617358
554679
489895
425839
359936
294784
228400
163278
104704
49693.4
1.09026e+06
1.20383e+06
1.09303e+06
1.09577e+06
994357
951371
894354
829282
759619
695642
631481
568072
504425
440668
360466
294183
227700
161719
102058
45180.8
1.20726e+06
1.26537e+06
1.10521e+06
1.09637e+06
981977
959124
894756
831145
764391
700666
637051
573628
510355
447348
375379
294450
227029
160163
99230.6
41754.8
1.32513e+06
1.33257e+06
1.15092e+06
1.09154e+06
977891
944415
886112
821040
760257
697448
634458
571544
509089
446934
376296
294651
225874
157489
96293
41645.2
1.17008e+06
1.30423e+06
1.10565e+06
1.06518e+06
956297
931960
874601
817495
756256
694454
632274
570160
507926
446084
375515
293492
223964
154955
95734.6
41350.9
1.29544e+06
1.29021e+06
1.10428e+06
1.05904e+06
955123
925068
869970
810673
752541
691957
630609
569221
507345
445364
375143
290274
221219
155050
95074.4
39177.4
1.07631e+06
1.22867e+06
1.05121e+06
1.02672e+06
933964
905665
851724
802601
741637
681692
621357
561366
499354
436446
353961
286235
220999
154855
94844.4
37545.3
975135
1.07387e+06
979638
996043
927460
903070
828944
786759
719619
664559
599831
540870
476161
414440
349192
285977
221325
155864
95446
37420.4
954459
1.04162e+06
997537
996416
930474
907958
830512
788676
718361
663217
597250
537775
473747
411278
348039
286156
222224
157062
96883.6
38517.9
1.06022e+06
1.05846e+06
961336
992811
922269
909906
828126
790903
716316
664027
595765
537153
471594
410500
346776
285466
222104
157959
98190.6
40702.9
1.25354e+06
1.11289e+06
1.00897e+06
1.0015e+06
936152
916744
834990
795562
717328
664386
594266
535887
469948
409066
345419
283981
221331
157920
98865.3
41161.1
1.2581e+06
1.1563e+06
991824
1.01939e+06
927589
917468
833729
794093
715653
662891
592417
534837
469010
408849
345038
284088
221245
158096
99500.1
42401.3
952173
1.14172e+06
960888
1.04239e+06
925352
908669
825434
788260
711498
659044
588484
532014
467278
407815
344513
283653
220760
158236
101457
46567.7
984284
1.11712e+06
956190
1.04929e+06
927815
907254
819276
783012
708405
657766
589612
532864
467765
407963
344025
282232
219168
158026
103573
54185.9
1.39272e+06
1.34475e+06
1.09948e+06
1.07732e+06
971644
942563
858070
811498
739332
682877
616222
555779
490917
428002
362740
298696
232984
169717
112464
56739.1
1.32427e+06
1.30232e+06
1.07646e+06
1.07026e+06
966329
943547
858652
814095
739917
684034
616040
555262
489683
426670
361600
297965
232801
169255
111081
53786
1.31968e+06
1.28985e+06
1.10413e+06
1.07958e+06
973727
943722
857709
812397
739017
683135
615420
554434
488877
426012
361091
297449
232255
168265
109463
51818.8
1.15706e+06
1.20493e+06
1.09848e+06
1.08366e+06
986837
946190
861744
815881
742467
685150
616551
554950
489124
425905
360760
296685
231179
166993
108191
50832.6
1.33668e+06
1.23453e+06
1.08792e+06
1.09109e+06
976250
942580
852208
811550
740674
683707
616160
554690
489153
425783
360475
296076
230301
165854
107202
50352.6
1.05553e+06
1.17557e+06
1.05695e+06
1.07749e+06
983053
946923
864096
814670
744263
685247
618164
555284
489881
425723
360081
295235
229229
164339
105565
49298
1.22084e+06
1.22292e+06
1.09086e+06
1.09092e+06
980329
947961
865553
812192
741191
683062
617369
554655
489934
425942
360041
294913
228486
163040
103779
47032.9
1.13219e+06
1.21333e+06
1.09283e+06
1.09529e+06
993895
949708
892957
828493
759694
695761
631443
567993
504345
440654
360947
294474
227913
161615
101331
42991.9
1.22701e+06
1.27451e+06
1.1062e+06
1.09452e+06
978136
956514
893780
830262
764247
700533
637098
573710
510453
447573
376263
294874
227175
160202
98766.7
40025
1.38664e+06
1.34107e+06
1.15426e+06
1.09242e+06
978753
943084
885050
822096
760546
697550
634413
571496
509037
447136
377157
295316
226427
157704
96136.8
39683.6
1.31941e+06
1.3052e+06
1.11039e+06
1.06544e+06
955160
931308
873549
818151
756086
694298
632059
569974
507718
446202
376465
294052
224176
155418
95439.9
39264.6
1.40049e+06
1.28608e+06
1.10463e+06
1.05803e+06
954642
923582
867167
811355
752289
691433
630256
568930
507265
445453
375628
290276
221494
155206
94916.1
37583.1
1.10493e+06
1.2287e+06
1.0488e+06
1.02426e+06
935709
903928
850679
802380
741409
681774
621295
561143
499197
436315
353915
286804
221234
155095
94977.3
36055.2
1.01092e+06
1.06917e+06
981572
995328
928455
901324
829076
786805
720065
664666
600017
540931
476412
414750
349478
286020
221264
155868
95520
35843.4
1.00163e+06
1.04794e+06
1.00229e+06
993788
929312
907694
831214
788766
718960
663444
597626
537992
473868
411547
348307
286032
222027
156815
96508.7
36661.8
949325
1.04601e+06
966531
991541
921246
910152
828606
791027
716966
664164
596009
537263
471718
410551
346743
285706
222123
157660
97498.3
38615.9
1.14434e+06
1.0955e+06
1.00256e+06
999879
933631
915983
835449
795757
717955
664336
594367
535794
469896
408872
345211
283645
220894
157383
98130.8
39069.9
1.29507e+06
1.15076e+06
994322
1.01527e+06
926217
916877
832800
793993
716097
662474
592421
534522
468849
408568
344904
283881
220961
157680
98773.8
40402.3
1.02853e+06
1.1448e+06
961441
1.04066e+06
924569
910113
826003
789022
712275
659041
589114
532332
467623
407921
344524
283435
220525
157901
100992
45135.5
975083
1.13051e+06
952916
1.04873e+06
927540
907331
819230
783000
708436
657914
589743
532901
467847
408102
344162
282286
218948
157668
103158
53505.3
1.49295e+06
1.39099e+06
1.09629e+06
1.07792e+06
973046
943057
858790
812112
739179
682897
616460
556257
491383
428392
362843
298690
232802
168665
110495
52815
1.35243e+06
1.30945e+06
1.0818e+06
1.07368e+06
967026
943507
858885
813834
739705
684086
616181
555468
489838
426679
361572
297853
232709
168578
109619
49943.4
1.29726e+06
1.29542e+06
1.11282e+06
1.08288e+06
974771
943864
857875
812030
738907
683122
615419
554436
488874
425899
360903
297213
231984
167622
108006
47987.9
1.24944e+06
1.22016e+06
1.10269e+06
1.08521e+06
988805
947013
862099
815214
742537
684968
616571
554839
489133
425900
360696
296575
231028
166436
106700
46848.7
1.13321e+06
1.22101e+06
1.08504e+06
1.09095e+06
977909
943115
852869
811396
740759
683472
616106
554578
489129
425798
360481
296044
230207
165292
105651
46343.5
1.08549e+06
1.15517e+06
1.05348e+06
1.07725e+06
982980
945006
864199
814189
744270
685100
618119
555234
489890
425749
360195
295321
229243
163946
104264
45446.3
1.26406e+06
1.20194e+06
1.09298e+06
1.09077e+06
980968
945638
864150
811922
741227
682976
617309
554667
490005
426138
360224
295176
228673
162883
102734
43411.2
1.1905e+06
1.21004e+06
1.09597e+06
1.09412e+06
992481
947131
890584
827275
759799
696219
631667
568215
504551
441201
361471
294894
228147
161514
100708
39980.3
1.26639e+06
1.2836e+06
1.10981e+06
1.09294e+06
977166
952513
891063
828371
763972
700467
637221
573905
510704
448017
377578
295289
227569
160364
98631.6
37694.1
1.46553e+06
1.34481e+06
1.1519e+06
1.09322e+06
981409
942537
884217
822983
760852
697821
634451
571277
509054
447409
377992
296040
227113
158408
96461.5
37088.2
1.13314e+06
1.29853e+06
1.11661e+06
1.06692e+06
957202
932280
874864
817681
755313
691810
631498
569306
507493
446409
377315
294538
224953
156110
95570.8
36597.7
1.35996e+06
1.27576e+06
1.10643e+06
1.05828e+06
957890
924790
865891
810169
751125
690522
629590
568358
507074
445475
376101
290505
222233
155897
95041.2
35593.6
1.16975e+06
1.22038e+06
1.04758e+06
1.02386e+06
938623
902653
851147
801032
741326
681948
621190
560794
498725
436088
353820
287126
221427
155500
95187.7
34895.5
953583
1.0563e+06
985284
995114
928978
900848
829740
786496
720413
664630
599906
540961
476280
414831
349650
286027
221194
155967
95537.3
34829.8
984882
1.03615e+06
1.005e+06
993040
930744
906004
830034
788962
720331
663726
598349
538348
474116
411786
348372
285719
221630
156520
96208.9
35261.4
840221
1.06437e+06
968600
992938
921143
908274
829461
791017
718095
664270
596425
537382
471921
410845
346933
285809
221901
157140
96735
36230.3
1.05632e+06
1.08147e+06
998811
997470
934234
912232
832831
796238
719897
664280
594480
535704
469915
408669
345001
283382
220340
156664
97233.1
36698.6
1.23542e+06
1.13555e+06
995138
1.01169e+06
927760
914005
830016
794389
717011
661678
592429
534233
468766
408237
344724
283540
220457
157092
98234.8
37765.6
880630
1.18703e+06
962846
1.04028e+06
923294
912362
825924
791069
713107
659115
590265
533003
468009
408017
344553
283225
220260
157488
100080
42790.9
1.00385e+06
1.16167e+06
952960
1.04704e+06
927094
907488
819217
782971
708938
657885
589861
532910
468081
408266
344254
282344
218798
157283
102515
52247.2
1.46767e+06
1.40037e+06
1.09796e+06
1.07906e+06
974459
943021
859073
812287
738922
682681
616701
556684
491649
428521
362713
298480
232570
167688
108668
48772.3
1.46853e+06
1.31531e+06
1.08565e+06
1.07713e+06
969153
943234
859263
813656
739501
684125
616275
555626
489892
426575
361272
297714
232617
168112
108198
45318.3
1.37782e+06
1.2962e+06
1.1162e+06
1.08538e+06
977066
944467
858840
811752
738808
683201
615320
554452
488656
425436
360594
296870
231678
167137
106835
43515.6
1.15828e+06
1.21154e+06
1.10249e+06
1.08536e+06
991116
946985
863686
814604
742715
684705
616496
554555
488857
425575
360514
296384
230844
166098
105579
42357.5
1.01116e+06
1.20411e+06
1.07959e+06
1.08814e+06
978718
942974
855635
810959
740657
682976
615942
554109
488901
425565
360388
295963
230110
165043
104548
41777
976987
1.14883e+06
1.06027e+06
1.07718e+06
984938
943451
865499
813134
744174
684533
617964
555003
489839
425720
360295
295428
229306
163878
103318
41132.4
1.23784e+06
1.19678e+06
1.09628e+06
1.09094e+06
981250
941370
863311
811211
741304
682627
617074
554478
489818
426136
360455
295401
228785
162838
102009
39780.4
1.20812e+06
1.21682e+06
1.09718e+06
1.09359e+06
989513
943702
888167
825655
759720
696055
631785
568376
504698
441710
361748
295257
228247
161385
100173
37560.4
1.42295e+06
1.29793e+06
1.11973e+06
1.08892e+06
976571
950400
888264
827569
763795
700540
637389
574203
511043
448503
378155
295705
227547
160185
98392.5
35954.1
1.45152e+06
1.3437e+06
1.15405e+06
1.09279e+06
981156
942777
883843
823062
760768
697822
634737
571507
509206
447619
378313
296519
227221
158759
96742.9
35178
1.16029e+06
1.25746e+06
1.11793e+06
1.06583e+06
957938
932142
875332
816511
754740
693271
630883
568882
507544
446541
377560
295025
225411
156851
95585.5
34602.9
1.18217e+06
1.24212e+06
1.10406e+06
1.05658e+06
958021
925013
866174
808994
749988
689813
629275
568155
506846
445304
376133
290871
222558
156005
95015.2
34151.1
1.12723e+06
1.19368e+06
1.04456e+06
1.02442e+06
939093
903618
851575
801323
741395
681775
620969
559968
498249
435675
353713
287455
221472
155404
94967
33804.7
900510
1.03893e+06
986041
993904
930484
899660
830515
786507
720807
664756
600103
540634
476232
414618
349820
286041
221029
155790
95344.3
33815.8
1.08664e+06
1.04422e+06
1.00927e+06
992228
931105
905123
830974
787961
720602
663984
598736
538546
474245
411964
348470
285544
221405
156309
95994.6
34214.1
855430
1.05313e+06
972941
990818
920759
905500
828459
790998
719542
664050
596872
537389
472220
411037
347048
285601
221544
156826
96417.4
34945.6
941198
1.06703e+06
1.00187e+06
995122
932726
909289
831514
794357
720266
663472
594731
535620
469981
408636
344951
283259
219968
156092
96762.4
35291.3
1.09687e+06
1.11507e+06
996128
1.00838e+06
928752
911315
828816
792446
716940
660709
592451
534041
468804
407957
344620
283247
220063
156590
97702.9
36076.1
1.03208e+06
1.14835e+06
967258
1.03565e+06
925829
912307
826633
790374
713367
659110
591798
533447
468518
407999
344608
283081
220098
157151
99148.2
39710.2
872792
1.15421e+06
950161
1.04307e+06
925443
908077
819447
783073
709191
657746
589808
532828
468216
408387
344525
282551
218810
156939
101659
49950.7
1.46849e+06
1.40996e+06
1.10631e+06
1.08079e+06
976109
942688
859549
812536
738886
682066
616421
556550
491072
428102
362444
298339
232490
167372
108232
46274.8
1.39557e+06
1.31846e+06
1.09227e+06
1.08125e+06
970648
943391
859470
813703
739706
684112
616249
555680
489891
426518
361359
297825
232567
167780
107309
42822.1
1.33869e+06
1.2845e+06
1.11785e+06
1.08958e+06
978710
945330
858953
811734
738841
683199
615263
554292
488551
425381
360556
296828
231619
166943
106127
40641.2
1.15028e+06
1.21065e+06
1.10479e+06
1.0855e+06
991748
947397
863527
814510
742308
684774
616404
554563
488793
425474
360468
296333
230775
165969
105003
39608.1
1.04103e+06
1.23403e+06
1.08461e+06
1.08689e+06
979677
943028
856738
811075
740000
683080
615854
554179
488896
425530
360401
295984
230078
164956
103941
39054.7
1.06245e+06
1.1329e+06
1.0658e+06
1.07757e+06
982894
943711
865399
813277
743825
684397
617946
554961
489871
425724
360411
295518
229292
163740
102761
38401.7
1.36962e+06
1.19749e+06
1.10556e+06
1.09198e+06
981116
940034
862792
810943
741511
682391
616613
554229
489418
426028
360596
295453
228731
162781
101495
37172
1.18345e+06
1.22266e+06
1.09826e+06
1.09385e+06
988229
941990
886753
825553
759703
695872
631889
568309
504770
441669
361940
295340
228197
161472
99786.3
35119
1.3853e+06
1.30261e+06
1.12193e+06
1.0882e+06
976666
948998
887389
827473
763696
700578
637418
574249
511159
448634
378402
295996
227476
160283
98188.7
33665.2
1.4924e+06
1.34018e+06
1.15513e+06
1.09225e+06
981523
942701
883401
822721
760785
697968
634986
571828
509344
447751
378204
296733
227111
158904
96687.6
33013.8
1.08714e+06
1.25501e+06
1.11675e+06
1.06501e+06
956279
933300
875933
815514
754711
693250
631274
569354
507608
446558
377442
295269
225511
157298
95594.5
32455.1
1.19374e+06
1.23446e+06
1.10172e+06
1.0552e+06
957208
925857
866736
808036
749642
689850
629327
568071
506582
445110
375979
291154
222891
156311
95030.4
31773.8
968133
1.16553e+06
1.04527e+06
1.02718e+06
939845
904698
851522
802594
741578
681991
620657
559591
497596
435240
353653
287845
221710
155607
94861.1
31377.2
837572
1.0313e+06
983557
991559
931511
899440
831036
786505
721190
664979
600385
540567
476372
414614
350103
286266
220982
155866
95309.5
31459.4
980404
1.0336e+06
1.01347e+06
991580
930724
904756
831681
787723
720983
664050
599059
538595
474407
412129
348637
285432
221237
156464
95921.4
31768
940644
1.04895e+06
976539
989478
919284
904520
828423
790436
720045
663955
597191
537367
472498
410978
347160
285327
221236
156992
96441.4
32317.1
1.00619e+06
1.06388e+06
1.00379e+06
994255
929937
907754
832380
793319
720182
663362
594963
535408
470179
408548
345106
283198
219864
156169
96598.6
32569.9
997318
1.10589e+06
996274
1.00635e+06
927910
909911
828718
791329
716105
660548
592608
533653
468834
407818
344579
283042
219800
156521
97423.9
33688.5
1.07048e+06
1.15134e+06
971016
1.03179e+06
928265
912258
827146
789748
713579
659256
592079
533428
468599
407901
344604
282921
219756
156957
99032.4
38565.6
899367
1.16898e+06
954719
1.03931e+06
925749
908571
819673
783631
709394
657259
589832
532504
468529
408709
345143
282919
219034
156761
100851
47020.1
650239
692970
647944
697834
650399
691998
647536
586837
632459
587175
634632
586965
632171
587085
646748
691094
645198
690799
645973
690428
644679
587088
629859
583415
630938
587150
629415
583183
847623
886996
838593
894427
847133
886844
838980
780062
823477
776845
830604
779947
823859
776949
715733
761389
713639
764286
715721
761473
713887
652195
698293
650639
700545
652306
698363
650640
588560
635091
587478
637074
588766
635088
587494
525396
572014
524760
573680
525578
572037
524768
462375
509379
462382
510416
462585
509405
462471
399183
447084
399560
447489
399694
447235
400018
836105
877320
829983
885609
836878
876680
830491
775631
815464
772524
821719
775894
816254
772644
712975
757281
710618
760472
713103
757301
710538
650100
695189
648436
697500
650077
695162
648377
587114
632808
586001
634421
587073
632705
585868
524558
570521
523723
571518
524511
570414
523562
462361
508229
461738
509050
462396
508091
461728
399821
446340
399326
447056
400218
446401
399750
830942
870319
824055
873908
829833
868891
824591
771907
809615
767395
818066
772209
810350
767706
709818
752801
707666
756191
709616
752732
707259
647849
692561
646269
694339
647743
692182
646021
585595
630977
584662
632141
585449
630756
584463
523409
569376
522732
570062
523232
569182
522638
461467
507342
460792
507781
461484
507284
460825
399241
445473
398079
446158
399666
445545
398403
824573
865325
825418
868368
824670
864272
825730
767288
810968
766101
811315
767454
811498
765977
706860
751032
705053
752435
706564
750652
704526
645717
689781
644302
691618
645478
689596
644113
584320
629351
583509
630388
584140
629141
583348
522616
568394
522403
569033
522518
568433
522325
460580
506937
459672
507294
460603
507109
459673
397901
444648
396609
445428
398226
444529
396689
846721
886335
839064
892030
844771
885805
839074
779936
823964
777011
828809
779831
824208
777163
715741
761537
713953
764040
715716
761751
714062
652396
698412
650656
700462
652620
698570
650758
588853
635104
587505
637180
589107
635182
587538
525668
572046
524781
573828
525952
572064
524839
462691
509426
462526
510608
463065
509518
462713
400130
447319
400385
447873
400903
447577
401088
837123
876295
830576
884524
837670
876647
831061
776005
816394
772646
822841
776361
816672
772511
713175
757265
710508
760829
713393
757068
710506
650083
695168
648356
697757
650182
695559
648232
587047
632649
585799
634429
586902
632518
585045
524486
570326
523466
571348
524418
569679
523102
462441
508013
461740
509040
462576
507767
461802
400534
446443
400043
447345
401095
446589
400573
829848
867859
824426
874970
830793
868153
823161
772148
810466
767698
817945
771387
809987
766899
709523
752605
707051
755519
709319
751798
706332
647676
691989
645884
694601
647155
691329
645393
585378
630623
584338
631653
584241
630089
583692
523146
569068
522587
569236
522840
568538
522379
461501
507253
460842
507526
461570
507128
460870
399938
445582
398637
446358
400426
445678
399038
824560
863414
825656
866371
823405
862551
824209
767375
811459
765852
810598
766480
809958
765059
706387
750416
704297
751464
705697
749549
703823
645337
689480
644028
690761
644842
689201
643819
584030
629069
583227
629768
583536
628761
582932
522470
568427
522256
568508
522266
568214
521857
460608
507160
459589
507132
460572
506976
459166
398479
444478
396867
445488
398761
444265
396857
844141
885476
839067
889040
843004
885162
839005
779798
824216
777198
827619
779553
824168
777203
715671
761789
714085
763845
715510
761738
714070
652655
698608
650799
700523
652652
698559
650984
589159
635211
587544
637390
589329
635419
587711
526013
572074
524867
574175
526152
572257
524995
463153
509558
462777
511021
463360
509704
462938
401151
447656
401341
448457
401333
447866
401470
837768
876442
831463
884038
837915
877128
832434
776383
816819
772432
823074
776341
817677
772243
713432
756995
710306
760808
713393
756791
709986
681967
681891
697477
697872
681733
681963
697661
617444
618447
633724
634485
617571
618445
633703
524414
569718
523011
571400
524525
569569
523050
462625
507728
461833
509163
462757
507793
461926
401326
446638
400791
447574
401453
446757
400941
830961
867880
823036
875555
831020
868620
823315
771079
809856
766480
816646
770343
809390
765363
709018
751462
706076
754838
708516
750565
705362
676311
677450
692435
689737
677182
674050
691844
614823
615831
630839
631058
615003
616050
630523
522759
568335
522303
569128
522747
568151
522146
461600
507080
460867
507516
461683
506962
460798
400647
445692
399213
446518
400801
445659
399131
823099
861741
823629
866381
822650
860776
821841
766067
809460
764776
809171
764954
808366
764119
705440
749341
703820
750211
704733
748932
703908
644662
689150
643769
689917
644291
689007
643688
583356
628689
582855
629283
583126
628533
582676
522182
568147
521740
568172
521957
567888
521321
460540
506849
459072
506897
460373
506437
458720
398887
444167
396916
445354
398760
443888
396706
842887
884906
838957
887702
842675
884624
838746
779482
824143
777175
827487
779408
824035
777155
715528
761705
714082
763698
715686
761768
714189
652640
698577
651084
700579
652697
698744
651247
589374
635533
587792
637431
589530
635758
588018
526178
572343
525039
574258
526331
572560
525179
463411
509759
462978
511147
463645
509899
463111
401510
447925
401584
448619
401739
448055
401567
837850
877063
832423
883415
837491
877524
831956
776310
817792
772188
822790
776240
817440
771999
713393
756737
710069
760769
713520
756662
709975
650469
694496
647633
697928
650603
694565
647713
587073
632067
584664
634965
587377
632106
585217
524570
569372
523100
571779
524705
569820
523252
462791
507831
461950
509327
462896
507931
462010
401573
446785
401061
447726
401536
446833
400992
830913
868451
823504
875770
830108
869107
823099
770203
809381
765106
815798
770018
809135
764766
708559
750350
705172
754658
708411
750055
705049
646249
690255
644647
693139
646624
690206
644657
583836
629427
583217
631186
584596
629543
583455
522786
568160
522105
569281
522897
568251
522040
461701
506930
460762
507610
461739
506840
460690
400916
445631
399188
446559
400805
445518
399009
822654
860413
821458
866539
821878
860397
820766
764687
808132
764109
808358
764250
807600
763995
704558
748871
704035
749646
704497
748870
703952
644266
689006
643720
689807
644270
689120
643647
583093
628486
582648
629323
583150
628472
582455
521885
567796
521225
568112
521761
567485
520969
460304
506267
458635
506661
460200
505751
458488
398798
443773
396732
445139
398693
443410
396637
842579
884507
838700
887189
842200
884849
838696
779440
824015
777165
827426
779553
823904
777229
715747
761779
714229
763722
715693
761721
714227
652740
698773
651276
700591
652819
698754
651329
589555
635776
588060
637384
589509
635764
588113
526378
572589
525246
574253
526578
572546
525266
463748
509912
463180
511238
463932
509906
463262
401984
448079
401735
448716
402326
448124
401653
837391
877649
831838
883632
837482
877836
832219
776236
817254
771934
822627
776277
817404
771936
713560
756671
710057
760771
713568
756726
710248
650625
694634
647802
697988
650701
694761
647949
587442
632190
585288
634997
587465
632282
585325
524755
569863
523288
571785
524715
569824
523194
462942
507943
462028
509308
462994
507862
462047
401657
446842
401115
447786
401587
446868
401058
829953
869305
823102
876152
830312
869609
823875
769999
808919
764781
815508
770092
809379
765077
708525
750093
705136
754943
708791
750411
705387
646738
690276
644701
693428
646926
690425
644772
584688
629576
583503
631383
584764
629612
583448
522917
568259
522015
569326
522808
568145
521874
461742
506790
460677
507506
461736
506646
460664
400900
445497
399141
446563
400833
445496
399081
821793
860276
820759
867042
822372
860239
820521
764190
807659
764081
808303
764328
807668
764067
704554
748968
703913
749752
704701
748903
703567
644289
689171
643703
689911
644314
689099
643537
583172
628529
582366
629283
583058
628418
582036
521718
567430
520907
567920
521565
567128
520615
460182
505638
458435
506426
460179
505380
458296
398824
443340
396750
445104
398728
443235
396783
665991
666245
649698
650303
665842
666314
649755
680469
695991
678521
691321
680473
695943
677319
664802
648848
663634
648096
664864
648829
663455
682004
697881
682002
697514
681998
697698
681740
665997
650339
666367
649722
666327
649744
665831
680456
690851
695814
678109
695891
677233
680167
664697
647855
648608
663187
648710
663223
664516
601457
602751
585868
586810
601685
602733
585626
617245
633113
616660
632806
617117
633133
617439
601691
585914
601499
588332
601523
585879
603458
617454
634534
618614
633797
618510
633719
617655
601458
586854
602896
585875
602799
585631
601720
617212
632631
632974
616600
633061
617325
617072
601653
588509
585804
601409
585918
603336
601465
661330
662321
646267
645994
661899
660700
645855
676801
692036
675796
690858
676834
691918
675600
661369
645792
660717
644986
661514
645555
660514
676013
689294
676551
691754
673565
691569
676409
660976
645590
661446
645515
660271
645548
660983
676603
690634
691385
675203
691710
675398
676187
661124
644797
645136
660122
645325
660309
660805
599755
601048
584356
588174
599438
602469
584515
613901
630258
614180
629629
614322
629958
613939
598045
583297
598837
583223
598666
582785
598601
614709
630717
615655
630240
615931
630282
614603
599695
588472
600988
584181
602287
584526
599314
613747
629457
629690
613812
629741
613816
613820
597902
583170
583031
598540
582714
598520
598304
866373
892809
863470
894014
865624
892573
862970
791986
828808
789647
828918
792069
828034
789495
727247
758535
724159
759568
727198
758520
724186
662684
695186
660737
695610
662801
695200
660799
598984
631817
597483
631440
599054
631827
597520
535836
568360
534161
568019
535927
568352
534192
472091
504677
470739
504405
472203
504711
470814
409292
441226
407043
440671
409315
441315
407049
916273
952444
910303
958514
916238
951501
909909
874518
878327
893196
894520
878298
892932
874530
810630
813524
828119
831056
813439
828089
810655
746675
747619
763969
764363
747628
763946
746703
683329
684147
700743
700604
684142
700714
683340
619483
620576
636756
637047
620602
636762
619464
556336
557353
573389
573636
557377
573398
556321
493347
494219
510278
510363
494248
510292
493319
430611
431148
447546
447370
431200
447574
430554
343455
376711
341863
375674
343626
377151
341965
906589
938863
902016
943622
906280
938379
901826
866475
868735
882890
885782
868845
882629
866381
802910
805996
817399
821157
806110
817558
802858
743467
744401
759099
760304
744450
759154
743430
680931
681540
696693
697449
681540
696691
680938
618096
618566
633910
634444
618557
633896
618108
555471
555758
571192
571539
555754
571181
555487
493195
493410
508823
509077
493399
508804
493211
431166
431245
446794
446946
431282
446800
431151
343391
375898
343129
376637
343515
376274
343323
894163
927270
892163
931941
894439
926482
891566
858108
859759
873409
874525
859166
873231
858560
801433
803283
815122
817631
803425
815247
801149
739500
740701
754656
756260
740669
754650
739558
678238
678903
693764
694434
678890
693716
678274
616191
616617
631829
632250
616577
631802
616220
554212
554534
569869
570138
554505
569842
554246
492090
492377
507647
507892
492349
507626
492103
430320
430524
445853
446097
430553
445866
430293
342822
374778
341622
375896
343035
375066
341868
890339
924942
889209
925066
889604
924709
888420
854855
855634
869384
869893
855423
869277
855076
796704
796550
811422
810806
796735
811551
796582
736551
737162
752324
752540
737131
752313
736575
675489
676363
691314
691893
676308
691278
675526
614457
614970
630245
630572
614939
630209
614479
553241
553541
569090
569185
553507
569063
553260
491370
491569
507426
507335
491564
507412
491369
429258
429562
445282
445376
429589
445289
429222
339631
373132
339574
375327
339655
373183
339575
828824
850473
826886
851539
828918
850318
827265
771063
799493
769793
803005
771168
799322
769903
709672
738601
709384
741519
709289
738515
709410
649487
679236
649645
681658
649625
679362
649756
588870
618734
589298
621332
588795
618708
589230
528245
559225
528661
561351
528175
559163
528452
465139
497389
465154
499335
465050
497291
465093
402117
433729
402041
436402
402021
433726
401798
864201
891072
861204
892142
862145
889904
858805
792357
826568
789550
827899
792404
825191
789574
727113
758575
724138
759738
726916
758618
724044
663114
695242
661006
695934
663325
695364
661235
599194
631869
597578
631532
599236
631937
597615
536107
568414
534321
568049
536218
568512
534489
472417
504791
470980
504375
472546
504934
471133
409726
441506
407548
440820
409711
441793
407610
915105
949545
908394
954933
913888
948313
907574
873500
877466
892003
893424
873884
876893
891772
810369
812853
827781
829820
810464
812599
827605
746602
747673
763839
764180
746615
747666
763797
683280
684188
700533
700502
683284
684207
700480
619700
620796
636826
637123
619634
620881
636861
556549
557564
573475
573744
556482
557650
573514
493625
494459
510408
510497
493539
494560
510464
431217
431608
447804
447667
431039
431794
447907
344308
377816
342617
376985
344489
378500
342761
905056
937586
900830
943583
904590
938091
900619
865944
868571
881961
885027
866151
868321
881928
804264
806788
818677
822404
803910
807071
819076
743863
744747
759496
760644
743805
744807
759563
681060
681607
696782
697615
680982
681657
696877
617916
618515
633826
634411
617984
618497
633800
555225
555707
571063
571461
555319
555672
570968
493111
493402
508689
509034
493130
493416
508648
431549
431607
446916
447210
431432
431741
446984
344072
376834
343896
377662
344256
377395
344134
893670
925957
890398
932778
894336
927530
890765