/*--------------------------------*- C++ -*----------------------------------*\
  =========                 |
  \\      /  F ield         | OpenFOAM: The Open Source CFD Toolbox
   \\    /   O peration     | Website:  https://openfoam.org
    \\  /    A nd           | Version:  10
     \\/     M anipulation  |
\*---------------------------------------------------------------------------*/
FoamFile
{
    format      ascii;
    class       surfaceScalarField;
    location    "8.2";
    object      phi_0;
}
// * * * * * * * * * * * * * * * * * * * * * * * * * * * * * * * * * * * * * //

dimensions      [0 3 -1 0 0 0 0];

internalField   nonuniform List<scalar> 
38556
(
259.503
98.5521
1107.09
823.25
-346.386
-217.362
998.246
153.978
-328.975
1219.67
250.286
-471.713
1239.01
425.661
-444.997
1308.22
375.656
-444.868
1213.75
313.444
-218.976
1141.15
163.76
-91.1554
1049.91
64.5716
26.6663
1024.02
19.2716
6.61767
1020.54
20.7736
-17.2937
1030.64
32.7556
-42.8574
1037.39
46.3872
-53.1294
1052.23
64.8347
-79.6759
1064.72
71.2081
-83.7039
1067.75
68.9957
-72.0229
1040.58
61.6174
-34.446
964.381
64.1495
12.0473
866.555
50.509
47.317
25.0249
39.1138
-370.21
1016.38
-1126.82
-53.7216
-712.48
49.6062
716.141
-400.325
-215.56
958.909
-112.28
119.799
1032.84
127.178
224.547
1080.73
195.757
132.015
946.337
186.201
261.635
855.531
111.902
142.663
780.139
71.1188
68.845
763.838
59.4457
-23.8729
772.478
53.557
-41.4233
800.405
61.9122
-57.0836
830.324
65.9886
-49.52
860.256
72.7187
-37.8163
874.68
66.5888
-9.80481
865.99
64.5365
13.149
820.682
61.9037
45.0218
761.211
66.6929
56.9274
714.291
49.9851
47.4433
12.1132
53.5455
599.47
1132.55
2652.62
231.51
-592.943
248.422
614.924
-572.095
-211.644
718.859
-408.56
192.346
856.775
-219.963
209.225
939.776
-44.375
157.132
912.684
42.2504
171.042
893.879
76.4587
54.2483
850.427
77.5633
37.0071
840.672
75.5835
-6.38263
829.778
67.9827
-3.53191
831.612
70.0934
-10.015
830.543
69.0341
-1.97677
827.642
74.4576
1.16226
810.521
71.7759
11.9337
778.542
76.4235
20.092
731.245
78.8502
30.3507
694.453
77.5979
25.8871
672.946
54.1554
17.3367
10.7735
33.0338
-12.2176
1198.57
-51.0163
229.373
-345.491
-489.043
653.768
-151.912
-844.578
646.573
-230.548
-170.817
633.702
-151.212
-55.8805
641.492
-77.9828
25.8172
678.866
-38.3054
43.1825
717.821
29.2578
8.24577
745.519
34.2027
15.663
762.602
69.8087
-11.3085
767.812
66.633
-3.85985
769.341
81.0238
-12.4595
763.807
79.4714
-4.90355
755.316
88.3493
-5.40104
738.455
84.4599
4.17717
721.197
87.0519
6.62987
702.403
83.2638
14.3801
687.201
77.8551
14.9444
671.117
59.0617
11.1784
18.8361
26.5277
325.794
613.818
-55.8037
470.215
-231.289
-258.624
432.246
-286.267
172.324
446.925
-211.966
-33.2614
613.652
-323.6
5.66073
670.542
-127.233
-7.64019
746.814
-150.015
35.437
798.792
-11.5213
-11.1984
811.496
12.2321
9.26661
816.532
73.8872
-9.1152
800.485
79.9334
2.74746
785.072
102.154
-5.71807
765.43
99.3516
-0.237738
749.889
107.44
-3.55004
733.28
100.374
0.695397
720.943
98.5649
0.823626
710.769
90.4655
2.9723
701.851
82.7799
3.99349
693.097
63.9035
3.91234
23.3623
25.7978
112.653
-330.66
-2573.85
382.014
-191.591
-309.058
624.254
-459.165
-69.3426
683.006
-284.202
13.4844
638.299
-356.293
77.4011
608.249
-128.811
31.6285
640.003
-227.816
46.0479
637.908
-17.5937
8.16699
658.234
-17.2667
9.17277
665.062
74.6077
-7.54902
670.529
76.693
-2.22661
671.059
109.811
-8.18615
671.367
102.968
-3.92418
673.087
109.232
-3.5127
673.65
101.131
-1.3199
675.434
97.644
-0.863125
677.626
88.5813
-0.307478
680.594
77.0511
2.76092
685.513
46.8783
12.1059
8.49805
35.6938
398.423
822.977
-2409.35
840.17
-40.351
-592.987
750.999
-370.339
0.345178
818.478
-275.173
-76.5084
738.385
-365.138
88.9377
680.042
-57.5846
-12.8835
650.006
-41.8934
11.2837
-61.1713
-44.5626
-61.4367
642.837
-10.2038
-12.7327
9.34495
-6.67533
9.84168
635.771
14.2934
-12.9756
-10.4541
11.2381
-12.3021
634.568
23.2299
-11.9472
21.2164
22.4976
20.8145
635.211
30.1015
-7.49187
13.1467
28.1062
12.1869
629.158
32.4782
-4.72819
28.6143
31.703
27.7968
624.766
33.3942
-3.4602
23.6428
32.0538
21.73
618.683
32.833
-2.95973
27.7403
31.6368
26.0636
618.939
97.6397
3.23533
621.956
94.7862
-0.159052
629.609
81.0285
-0.10034
640.177
60.5558
5.92728
634.326
28.9564
23.7731
2.2115
43.8796
593.818
-774.612
218.894
1346.65
-515.27
-277.914
1220.66
-437.541
193.194
1174.12
-302.03
73.3997
876.196
-287.974
220.757
170.982
27.791
48.4586
171.034
164.875
165.278
54.8989
-15.3755
30.6691
126.008
-6.29418
9.37423
-92.4082
88.0853
-3.64276
-2.23798
-103.056
100.246
19.9291
-2.82513
-99.3452
104.058
19.1031
-0.586355
-117.093
114.886
33.9772
-1.66808
-118.238
118.121
33.6331
-1.03842
-126.821
124.869
36.2871
-0.941068
-129.639
127.512
35.1552
-0.195055
498.108
29.0894
-11.3939
-130.088
-120.722
-121.979
-107.963
17.5659
27.9866
17.0341
517.902
83.1627
-8.16984
527.732
71.3174
-0.119589
520.807
50.2138
17.2678
493.452
28.0364
28.2744
2.10542
40.9769
1577.54
253.97
-2897.54
1956.74
-219.048
-675.42
1577.28
-203.245
145.166
1406.76
-17.9815
-113.528
169.257
60.7723
263.064
164.701
229.941
231.05
143.168
20.6588
33.2213
-8.26892
-40.1158
38.3349
11.2684
-1.21858
-34.1376
-3.59425
32.8358
6.67985
-1.78381
-29.5825
-4.31202
28.6505
5.7519
-0.507822
-27.7312
-4.6369
27.6303
4.70103
0.0367695
-26.7721
-7.83771
26.2854
8.33115
-0.00674898
-25.6442
-8.39502
25.2607
8.92887
-0.150384
-25.6418
-8.38044
25.3996
8.67529
-0.0525934
-26.3855
-7.85714
26.3064
8.06382
-0.127569
-27.4834
105.491
29.0287
0.31393
-26.6649
-26.5657
-25.0305
402.63
71.6927
-3.03464
-106.557
-97.3539
-97.5611
-86.6534
408.077
60.3587
5.51251
405.833
41.4876
10.9694
406.572
10.4376
16.8601
-16.0217
33.4117
1226.31
2341.49
-702.623
1244.57
269.635
-506.944
1505.2
210.61
-674.48
1550.44
422.954
-486.18
227.985
618.838
-193.09
291.361
323.092
343.03
-43.4876
151.31
102.683
17.4794
-4.46549
-23.0687
20.5345
5.03958
1.96012
-3.82067
-27.2799
31.2527
1.8934
-2.04554
-7.96322
-38.8435
39.4694
8.1209
-0.783624
-8.26607
-35.0839
32.9329
9.9691
0.44796
-8.55469
-28.103
27.2723
9.45598
-0.0705907
-8.41701
-25.3493
25.0245
9.00648
-0.264611
-7.23912
-23.9996
23.678
7.59559
-0.0348635
-6.3233
-22.3203
22.0828
6.50038
0.0603811
-21.1001
-22.9698
81.2784
21.9856
0.0848723
-19.979
-20.0641
-19.2358
338.227
53.6614
-8.01468
-80.1112
-81.4526
-74.6136
-76.0037
375.58
37.868
-14.8619
420.948
3.68084
-7.56187
454.387
-22.6552
-0.3459
-35.8963
28.2214
376.906
2132.92
-1056.52
1137.39
549.479
-1040.33
1540.48
463.307
-655.782
1915.27
541.614
-493.455
481.269
767.07
-229.983
532.9
471.337
511.519
-182.809
495.608
203.553
-35.0827
-18.5167
-104.575
81.9575
21.6341
19.5003
8.62865
-27.1888
31.1114
-3.75408
-8.79725
-7.18141
-34.5168
32.5099
8.09798
1.09031
-11.7224
-28.943
28.3495
11.7251
0.590844
-11.6417
-25.9774
25.1655
11.9162
0.537417
-10.7219
-22.8284
22.2065
11.1583
0.18543
-8.99729
-20.476
20.0671
9.40585
0.000336887
-6.87825
-19.5768
19.8084
6.91741
-0.270703
-20.989
-19.4387
87.5467
17.0979
-2.71101
-20.8577
-20.388
-20.2603
390.292
26.8203
-11.5862
-90.4061
-92.8934
-83.8949
-84.6706
431.204
2.0187
-5.06303
462.745
-25.0424
-2.8172
482.068
-42.2447
0.266726
-41.394
25.2109
787.443
2490.96
-2950.13
1097.29
632.54
-392.91
1520.66
634.108
-594.166
1914.19
530.925
-382.84
520.621
802.457
-92.9388
456.233
499.058
495.828
-185.417
542.094
150.59
13.3539
-29.2312
-118.16
95.3837
26.1747
25.833
-18.781
-36.8417
39.443
24.3633
-8.18369
-13.4615
-40.652
38.1322
14.8254
1.15583
-10.9424
-31.4146
30.1402
10.7283
1.48849
-12.6935
-25.8279
25.1026
12.4733
0.945567
-12.7181
-22.5992
21.9368
12.9768
0.403675
-11.1124
-19.936
20.0963
11.3508
-0.398758
-7.76783
-20.8381
21.5507
7.80359
-0.748353
-22.3922
-13.7347
99.6179
4.11297
-2.30978
-22.775
-21.2768
-21.2424
363.767
5.56067
9.71355
-96.0748
-92.5777
-84.1893
-79.3791
378.622
-23.2255
10.3889
387.393
-43.5717
9.758
391.096
-55.7407
9.79355
-49.1342
27.8741
-1533.42
1529.95
386.967
-430.727
446.139
-916.294
413.766
425.506
-635.891
604.224
421.793
-81.3263
691.813
671.204
43.6654
138.752
411.971
222.829
-135.749
-85.8397
-155.315
-108.177
117.596
170.454
115.291
-37.5868
118.182
130.945
44.1818
-44.1688
-33.3519
-39.4494
-35.6208
-89.6144
87.0072
139.809
-2.49452
-31.1205
-36.3819
-31.5842
-20.1431
-86.8055
85.1796
72.9672
6.37617
-18.4607
-20.2647
-18.849
-10.7367
-56.551
43.0756
52.858
7.48403
-11.8079
-11.9838
-12.3382
-8.93492
-44.6117
49.2964
37.2642
-0.866826
-10.7979
-10.0748
-11.2744
-10.4121
-44.9805
54.6327
33.3101
-0.520424
-10.9284
-10.4385
-10.6628
-9.4548
-61.4649
74.0587
22.1292
1.60467
-9.5691
-8.50871
-8.79503
-5.06918
-71.2515
78.3634
9.53391
4.14088
-6.25101
-3.75562
-5.71088
256.743
12.8002
4.06887
-0.900725
-14.7041
1.55083
-12.9696
-73.5798
-60.3633
-60.7748
-51.8701
279.921
-17.0758
-0.541696
300.243
-42.2713
-1.27645
323.495
-66.1492
-0.674593
334.035
-72.6233
6.3423
-61.6505
27.7283
-404.738
421.024
-1340.65
-253.472
595.308
-300.436
457.887
512.304
-798.157
435.14
508.665
-64.1254
439.013
651.181
16.1501
291.424
471.855
87.7043
220.174
777.853
43.6083
-157.04
-212.679
-166.084
-214.408
135.955
400.693
31.2377
-114.088
-65.6817
-103.483
-64.4587
146.154
432.385
-52.3399
-86.0704
-103.923
-90.9542
-109.297
145.465
238.346
-39.4886
-55.2995
-42.8995
-56.2699
-43.6995
193.659
220.344
-59.407
-43.8397
-59.7625
-46.2773
-59.2522
229.608
118.036
-35.1493
-29.4001
-31.945
-27.5597
-29.9296
266.178
84.033
-28.4265
-15.1366
-32.4453
-13.7844
-30.8104
294.025
18.2484
-16.5648
-2.28667
-14.4305
-0.313482
-12.5007
315.51
3.81528
-12.4995
333.876
-23.4402
-12.0014
343.505
-48.9881
-2.91314
341.724
-69.7879
5.4203
332.977
-78.8661
14.9894
-64.537
29.8962
378.152
557.695
1381.02
102.319
719.377
151.765
29.7386
777.625
-192.741
-49.5432
501.856
86.0907
122.465
537.982
-58.8098
106.289
414.275
73.757
324.458
573.976
-14.2916
368.613
385.492
-28.9544
468.046
376.343
-43.3902
546.032
246.964
-86.6032
626.204
218.771
-78.5993
668.955
139.262
-63.9781
651.059
113.899
-11.9695
601.725
74.7116
-7.12961
565.452
54.3941
-14.3055
542.629
14.1515
-14.7685
500.078
-13.8168
7.37892
439.829
-30.4742
20.9362
374.23
-45.7776
32.5106
-48.5636
40.126
-713.551
354.479
2141.57
-262.943
877.387
-608.619
157.359
760.077
-402.754
230.608
455.63
-27.0223
341.402
329.239
97.9491
425.187
276.683
53.8056
537.934
393.678
67.5508
644.74
283.128
-4.44186
705.844
305.569
9.66941
775.029
212.334
-34.555
808.86
196.852
-11.9123
839.513
137.489
-28.8803
842.327
122.536
-11.4498
830.044
100.132
-13.1384
788.399
84.4363
11.6031
744.973
47.4341
10.1433
683.332
22.5926
25.2308
599.344
14.8006
38.7139
498.813
5.84644
48.9069
-12.6373
57.7901
1657.2
1280.76
514.101
1184.9
1442.22
-92.5279
446.671
1295.77
202.538
164.962
502.847
234.492
118.543
198.696
176.963
186.411
148.272
60.542
385.32
178.806
15.9622
498.987
164.851
4.61029
596.414
179.874
28.268
673.016
132.743
2.98877
716.165
122.474
31.2285
747.187
90.0342
16.4328
754.68
84.4733
30.5695
756.295
71.4366
27.0803
743.078
63.9851
33.6688
709.943
48.9672
31.6013
635.778
53.5899
43.1676
546.658
62.4406
41.4801
456.813
55.4427
40.2493
20.1165
45.5817
6.9169
1825.44
1395.76
202.763
1139.97
106.397
72.519
1066.35
359.668
32.6444
388.286
154.435
81.697
84.9223
64.7208
100.734
105.036
24.1999
250.658
14.0424
14.8401
336.256
61.309
17.9438
432.49
44.5335
39.1069
505.204
36.3985
23.63
554.95
26.9309
45.7978
593.626
14.7511
36.6077
611.297
19.9482
46.8543
621.354
19.3858
41.9936
616.14
28.1338
41.0652
588.977
41.5622
34.5676
525.151
83.3663
34.0502
464.017
97.9894
25.585
424.73
77.7824
16.9471
34.4698
24.7822
-1470.27
-377.6
-96.1676
-232.572
514.208
-611.934
160.935
551.277
121.564
274.358
322.492
-47.6278
239.29
204.775
-84.7848
263.039
189.749
-108.462
264.64
95.9156
-83.4745
305.151
111.159
-90.3608
379.181
35.0436
-64.5404
461.054
12.503
-57.9769
537.995
-40.5692
-9.44069
601.628
-41.173
-7.70876
639.727
-37.9261
19.7745
660.461
-28.6738
27.3258
651.605
-17.15
54.1393
610.857
14.843
67.4665
548.582
66.8049
78.8368
491.848
92.0931
62.6302
443.705
87.4793
38.4463
49.4244
16.9225
-407.8
628.504
-83.2112
189.618
231.199
236.867
461.846
91.8444
559.624
106.997
737.757
11.6157
776.2
57.4732
870.792
16.5675
855.637
50.1992
850.804
17.336
800.022
10.212
787.087
-28.2374
783.5
-34.339
801.342
-46.5162
817.881
-33.6897
848.797
-16.0724
888.838
26.764
934
46.9306
966.634
54.8452
61.379
332.978
-46.3049
2168.76
561.234
-493.435
47.8173
978.409
-332.525
-413.624
1115.91
-176.945
-432.265
1052.49
79.3417
-460.919
1011.47
34.2102
-438.062
910.675
65.5766
-183.758
900.422
19.941
-100.844
887.621
35.9041
3.5629
888.761
33.682
-28.2039
866.938
46.103
-41.5744
841.725
51.6336
-69.2782
792.677
59.3109
-63.3919
739.911
54.0666
-80.9766
689.992
33.4698
-67.2546
660.473
15.7381
-58.2414
649.421
1.98642
-25.3806
642.212
4.65628
14.5995
637.783
3.07872
48.6682
-1.79946
56.0284
-540.696
487.812
-1236.19
-312.016
-685.548
13.039
217.14
-654.408
-422.832
415.453
-341.845
86.3857
644.492
-81.8028
156.652
687.866
-10.3227
133.175
685.83
55.4031
273.844
678.014
52.5116
117.909
661.805
58.1929
62.7643
653.313
60.8519
-42.5505
645.89
60.9872
-48.8841
641.501
63.3189
-64.3806
633.896
61.0541
-43.6574
625.573
58.2591
-33.6862
612.832
42.6111
-6.20428
596.238
35.5088
9.97222
573.224
27.5582
42.4638
552.234
27.7167
54.8566
535.699
13.579
53.4782
-1.7763
70.8105
215.118
-256.123
4162.38
67.5885
-604.932
315.335
252.062
-623.703
-426.822
401.864
-431.273
131.973
636.971
-248.107
140.422
700.445
-55.9184
139.253
704.576
35.7733
186.541
690.89
74.5035
45.9422
663.049
75.6864
47.355
651.733
77.8158
-12.031
638.698
71.8078
-1.31747
631.176
74.2307
-13.4045
621.087
69.5688
-0.402901
608.682
71.01
0.81627
588.91
60.6529
13.6644
565.165
59.7405
19.6052
537.019
54.2789
31.7754
514.032
47.5504
29.0406
496.285
22.2744
26.3887
-1.08649
51.5112
1631.28
-1333.58
-239.703
1327.56
-488.071
-302.176
683.617
-174.531
-649.811
584.091
-250.282
-252.283
524
-116.967
-126.929
518.093
-38.8397
14.6451
557.823
-6.28255
45.5076
575.84
59.4543
5.27826
592.104
53.4059
21.6789
590.203
82.8366
-14.4279
585.178
73.9801
-1.00701
575.152
85.6827
-13.8852
563.416
79.1751
-2.77466
549.824
83.1532
-3.95222
534.109
74.5535
5.99169
520.452
72.5649
7.46187
508.332
64.69
16.0891
498.405
54.6149
17.8071
483.325
28.6447
19.8884
0.80396
43.7234
0.699152
161.123
3208.16
45.0603
-210.83
-580.227
375.557
-221.781
-110.921
286.141
-139.171
-54.9573
476.848
-233.423
-68.5898
494.902
-54.4355
-10.0972
575.5
-96.2097
44.7662
603.472
29.5551
-9.27183
611.134
36.3302
18.6804
604.867
90.2904
-10.3022
589.081
86.3364
6.1773
571.884
103.76
-6.59818
554.483
95.1852
1.1533
538.901
98.6306
-3.44556
525.091
87.2722
1.78621
515.15
81.7232
1.60662
507.648
70.9642
4.2008
501.905
57.9261
6.42509
492.818
28.8556
12.7884
0.997672
42.5159
957.967
-180.326
197.586
532.577
-16.1107
-78.3864
558.465
-221.897
-95.1152
521.733
-103.333
14.3784
508.395
-216.298
73.6135
464.261
-25.2636
46.5907
515.861
-151.397
49.6345
497.512
50.3862
5.68474
511.865
18.6484
12.5011
498.351
107.98
-11.7246
493.512
90.8659
-1.91667
483.262
114.775
-8.95088
478.725
98.5686
-2.77117
476.346
100.598
-3.10098
474.916
87.8193
-0.437651
475.011
81.0808
-0.315166
478.111
67.4472
0.109212
484.605
48.4522
5.74119
488.16
15.8881
21.5185
-3.96064
52.9498
1699.07
215.924
1024.47
1122.86
326.867
-359.75
629.917
44.4349
226.952
589.208
-1.48656
-137.646
542.197
-176.794
96.445
456.286
59.2489
-11.4855
451.027
-30.5371
26.0376
-51.6041
-29.8587
-48.8916
436.09
9.73443
-10.7704
19.2733
12.9743
21.3788
438.065
15.0667
-11.2408
-7.38571
14.5283
-7.27052
435.265
26.3033
-10.1633
27.95
26.3459
28.3967
439.41
29.1227
-4.83972
13.5538
28.3972
12.9945
433.609
32.0003
-3.79269
28.4492
31.5142
27.6766
431.633
30.9524
-2.32362
19.9338
30.0733
18.4485
426.343
30.4088
-2.35969
23.2334
29.5334
22.1121
428.555
84.3003
4.54268
433.202
76.8541
-0.579875
440.077
59.5745
0.897439
448.818
35.766
9.87292
445.962
8.35606
34.1603
-0.312929
59.1171
886.305
-467.381
-3040.26
877.648
-25.0283
82.638
821.625
-39.3887
333.04
758.691
20.5705
114.278
629.704
-54.2209
227.171
125.092
35.5292
40.7239
125.808
113.278
113.874
61.8803
48.969
72.2569
-18.8176
93.7083
2.77805
16.8858
6.70254
-63.7979
66.1224
6.96322
-6.25579
6.39723
-79.0567
73.8555
20.8074
-6.93677
4.19667
-71.7481
76.5661
22.2908
-5.00212
3.72325
-88.615
85.8312
31.9155
-3.73222
2.11768
-88.6764
88.2447
32.0754
-1.76108
1.04287
-95.5061
92.6553
33.5344
-0.774064
0.0439062
-95.7974
94.0882
31.8747
0.199392
342.038
26.3504
-11.9954
-94.6635
-85.0104
-81.5236
-73.7977
13.7129
25.219
12.5766
352.299
66.6402
-8.21675
356.289
53.9399
1.52475
357.362
31.7173
20.243
345.471
13.1758
35.3464
1.29274
52.3053
1013.93
-268.132
-643.529
844.297
-75.5235
-455.293
774.94
-21.8706
197.005
635.007
176.868
-129.892
122.436
207.418
223
109.576
98.1214
83.2993
-60.4507
135.968
28.7873
53.6607
-5.47003
-7.11803
-36.3605
33.8139
9.11355
6.02113
1.75082
-24.6249
-3.61212
22.7324
5.01605
-1.26217
1.20949
-20.3165
-4.31625
19.9553
4.6626
-1.19463
0.55892
-18.6955
-5.20146
18.5364
5.37769
-0.576068
0.487727
-18.2483
-7.35994
18.0674
7.5699
-0.516868
0.410131
-17.8071
-7.61873
17.5891
7.83594
-0.409353
0.256865
-18.3024
-7.69024
18.2293
7.78786
-0.281407
0.367108
-19.0559
-7.21448
18.993
7.28681
-0.376551
-19.7541
1.17154
74.7826
26.3579
-1.51425
-18.6174
-18.592
-17.4839
269.685
58.1677
-1.18593
-74.7434
-67.4096
-63.5534
-57.3547
281.876
43.6094
3.65235
290.469
24.8491
9.2442
293.566
5.61065
21.3284
-9.80417
43.8367
1204.58
1752.99
-1675.62
1142.33
186.047
-706.274
1030.85
206.15
-791.014
909.981
383.57
-572.015
166.768
483.183
-208.111
196.478
127.142
158.85
14.3295
-64.8809
148.691
110.405
-41.7767
-9.68088
-9.67814
-29.3116
26.9082
12.7797
8.98266
0.0700882
-3.32962
-24.3512
25.1784
1.42494
1.00735
0.702796
-4.61307
-26.5122
26.0826
4.76969
-0.429896
-0.681037
-6.24054
-22.7137
21.8172
7.13999
0.678062
0.161318
-7.14349
-19.1945
18.6664
7.66845
-0.158218
0.49806
-6.95442
-17.1867
16.8761
7.27826
-0.511348
0.116707
-6.24555
-15.9139
15.8603
6.37353
-0.191163
0.127377
-5.5983
-15.6443
15.7414
5.57725
-0.203447
-15.5808
0.723745
-20.6032
61.9128
18.8997
-1.41645
-15.1185
-14.601
-14.2162
251.148
38.0339
-10.0799
-60.7298
-62.8128
-51.9625
-53.4439
281.467
16.2178
-17.7893
310.301
-2.14046
-9.40698
325.077
-15.8902
6.37948
-20.7628
41.8621
655.751
1228.24
-1505.9
995.675
128.383
-1322.59
1003.98
369.704
-827.64
1053.16
442.184
-601.255
267.628
552.405
-279.842
304.116
217.422
244.635
57.5651
-142.552
306.265
132.965
-86.6147
-16.3957
-30.1463
-80.1126
84.6184
33.7972
8.23895
-11.8351
9.06506
-76.6388
59.6478
-2.52549
22.2866
-6.05193
-4.36913
-31.6322
28.3501
5.9385
7.76464
-1.99781
-8.98546
-23.6359
22.7854
9.58088
2.25297
-1.80989
-9.42536
-20.2265
19.6295
9.75901
2.07326
-0.174626
-8.77875
-18.0128
17.6595
9.25419
0.0524273
0.580905
-7.42859
-16.6641
16.438
7.83456
-0.760784
0.910478
-5.83358
-16.0844
16.1842
5.84327
-1.02002
-16.6889
3.89918
-16.4686
68.3957
13.2517
-4.69508
-16.4407
-15.7566
-15.4966
281.65
11.2401
-10.7465
-69.0609
-68.4476
-59.5839
-58.6039
309.376
-4.26555
-12.3061
331.35
-23.6387
-3.29259
338.446
-28.5688
5.84964
-23.2894
38.0658
1028.99
913.223
-1001.06
1018.14
334.025
-587.695
998.706
577.308
-782.339
1048.57
495.943
-486.466
292.648
703.042
-245.662
302.08
226.259
229.672
-8.21299
-120.665
353.334
108.312
-40.1208
-51.5859
-29.2796
-104.037
110.868
26.5615
47.4733
-19.6644
-17.7796
-89.8842
69.6072
23.9582
33.7628
-7.77787
-13.8571
-35.3074
31.1459
15.7045
10.092
-4.34025
-12.0986
-23.6077
22.2827
12.9141
4.84978
-2.18398
-11.5534
-18.7887
18.1477
12.1306
2.24776
-0.517416
-10.6957
-16.0623
15.8617
10.9762
0.437476
0.908591
-8.36916
-15.0966
15.2818
8.20376
-0.928299
1.23692
-5.37673
-15.3775
15.7408
4.9674
-1.19086
-15.6816
1.77485
-7.87552
68.6006
-2.0873
-1.12293
-15.1187
-14.5784
-13.9109
224.588
2.2902
8.0379
-63.4311
-55.4071
-51.895
-43.2295
246.086
-21.1223
5.74721
262.005
-34.1428
4.34318
269.859
-38.1693
11.5395
-29.2246
33.5835
-747.752
-972.064
-1120.74
-519.115
274.161
-1085.07
-108.432
440.273
-909.538
-31.1172
441.389
-104.088
150.446
651.15
-86.0057
79.3757
288.764
280.974
-97.2239
-81.0116
-80.038
-60.0935
16.9159
25.8063
-0.195039
-37.253
-81.7855
104.514
135.69
76.3571
-40.9611
-35.9737
-41.2112
-34.4409
-36.223
-40.0055
26.6266
113.636
62.7194
-29.7584
-33.4548
-29.0996
-20.5219
-12.8218
-36.3413
33.423
78.4107
17.5965
-19.5343
-20.5828
-19.6281
-14.0766
-7.99381
-15.804
16.7679
54.8448
7.46874
-13.3801
-14.3174
-13.5094
-11.3879
0.840646
-21.374
26.3834
40.8475
-0.485513
-11.6851
-11.4895
-11.6495
-9.22713
-0.877796
-20.8213
27.4394
28.9938
1.94627
-9.37403
-8.98056
-9.09873
-5.50246
-1.73673
-29.8446
38.007
13.8112
3.34966
-6.66438
-5.0739
-6.34582
-1.60536
-4.78157
-32.9706
41.4778
2.81582
4.14453
-3.94845
-1.42459
-3.70751
130.62
8.68094
5.54313
3.34586
-11.4466
3.53292
-10.9326
-38.2988
-31.1104
-31.0342
-24.8315
145.968
-17.3584
3.75947
162.479
-36.3214
-2.5886
187.059
-53.2477
-6.15014
200.861
-54.195
8.56526
-41.3049
23.1835
-872.276
-1273.15
-664.057
-304.429
366.534
-960.657
-2.79475
517.691
-1177.21
2.79507
502.605
-130.932
136.93
631.915
-98.7501
-17.1974
390.613
139.984
7.93534
707.576
31.6858
-156.67
-206.068
-158.321
-199.726
-0.61943
285.731
18.8142
-81.6254
-56.7191
-70.5844
-55.8236
34.4381
366.133
-60.6997
-89.0512
-106.027
-91.7378
-106.014
50.1027
176.187
-47.1856
-51.7144
-40.9209
-50.4712
-41.0476
78.3403
174.217
-56.9846
-45.3697
-56.788
-46.4049
-56.3141
97.53
82.5915
-36.7871
-24.0279
-27.287
-22.6158
-26.2125
114.899
61.436
-26.3375
-12.0958
-28.8351
-11.7692
-28.194
128.926
7.4221
-16.9549
0.69506
-11.8298
1.24492
-11.1694
139.232
-2.18737
-11.9377
152.383
-30.4275
-12.0827
165.161
-47.9736
-4.03926
176.905
-61.5937
2.0213
182.37
-63.3153
18.6446
-48.8385
20.777
22.3717
1068.48
-77.1591
-154.984
655.842
39.8136
-284.243
747.743
-293.534
-214.56
442.202
76.8099
-64.8225
519.204
-95.8352
-60.4846
347.19
112.842
128.617
523.419
-19.2378
123.892
282.367
-20.8658
243.637
285.487
-82.4893
280.248
154.505
-101.532
323.529
135.781
-83.4448
340.02
71.1822
-69.0596
346.103
61.4616
-18.0785
331.69
23.2308
-8.52532
313.372
9.60387
-7.77926
292.404
-17.8709
-6.35759
266.585
-30.7517
15.9762
238.19
-40.6568
28.395
207.495
-44.7058
44.5959
-42.7853
34.9729
-1032.49
880.982
4439.14
-533.672
718.339
-1169.94
-286.221
609.642
-512.105
-161.064
292.54
-2.51653
81.7467
320.221
54.12
124.726
265.024
92.9921
324.544
363.064
28.0888
391.158
217.93
-6.61939
448.278
234.824
3.2121
483.009
129.675
-44.4564
500.22
121.755
-15.097
505.451
67.5715
-30.5005
497.84
64.9501
-7.32701
483.615
39.5939
-15.2771
462.636
32.0829
10.1033
436.097
5.69468
13.1171
395.079
2.04933
33.4471
345.65
-1.20488
48.6914
290.864
-7.99557
66.9829
-15.5958
61.3707
-641.644
974.049
645.684
-378.147
660.142
-297.828
-309.762
785.484
-41.6905
-263.552
263.004
217.818
-28.3124
191.235
70.7088
1.26221
198.898
97.0935
184.75
199.481
-3.94279
239.825
150.649
16.8168
348.114
144.375
10.429
393.691
86.9888
0.097749
436.82
79.4488
30.4057
454.66
50.4049
15.7591
465.395
51.9299
32.8544
464.201
39.121
28.7475
455.882
37.2755
36.7949
431.193
29.2537
32.7315
382.732
40.657
53.0209
327.078
43.2236
52.7058
272.111
31.4156
55.805
5.51563
48.3554
-1640.66
1304.77
1128.71
-772.006
440.479
-542.59
-357.957
601.675
129.429
-247.735
208.642
98.576
-56.7386
63.2614
1.69918
-21.8905
160.079
28.1708
119.667
61.6816
11.0819
175.284
87.4304
25.5451
286.721
48.7578
23.2872
343.251
29.6394
24.449
394.221
25.4894
48.7873
420.995
22.2948
37.9436
435.846
33.9643
49.9686
435.698
36.5361
44.7262
422.692
45.5113
45.8359
392.837
55.0222
38.6538
348.954
75.6024
42.9885
312.763
74.5706
30.4283
289.099
51.2131
20.8144
10.3312
30.6552
-818.959
-14.5041
2397.03
-351.94
366.082
-1004.56
101.332
359.817
-89.8503
157.587
230.098
-125.339
141.329
166.041
-171.306
159.627
172.073
-138.753
175.554
82.3647
-120.086
203.762
75.5668
-106.705
275.598
-5.40872
-82.2097
330
-18.9621
-63.7778
387.721
-34.5933
-7.0788
425.614
-15.0082
-8.29745
453.316
0.492613
25.543
466.388
24.8869
25.9033
467.445
41.6963
56.8971
451.621
76.1604
62.1524
429.498
100.347
76.2153
409.944
107.972
48.7817
388.911
89.2818
21.4108
34.608
10.5478
-1492.98
-859.367
-533.824
-403.46
190.036
-127.176
431.656
80.3221
545.601
159.093
707.97
21.3181
714.164
133.645
766.993
39.3049
719.533
92.2511
698.149
19.7583
655.46
18.3072
644.588
-32.3738
633.008
-22.2659
636.852
-25.474
646.887
-2.0283
676.842
30.1324
734.572
69.3811
818.107
71.3675
891.581
70.6538
93.0629
694.7
-1014.99
-632.28
871.059
-766.304
637.761
1104.81
-465.416
-181.956
1189.14
-311.924
-204.675
1035.88
-43.1399
-264.515
962.461
-77.8693
-286.776
851.04
0.771071
-73.1086
830.09
-7.12579
-72.7677
799.709
34.7418
-0.798571
777.634
40.9748
-47.1034
727.916
53.7162
-45.5728
673.551
53.1171
-68.0302
597.832
48.4288
-36.1016
529.133
33.515
-45.7928
484.587
10.3924
-33.1008
458.481
-1.77401
-30.3613
457.535
-11.7818
-12.6532
471.098
-9.71758
10.754
491.51
-11.2621
39.5177
-7.78129
65.7287
-166.313
-293.532
-1228.29
-157.152
-736.494
-25.9308
-23.3439
-639.718
-382.339
118.308
-374.107
6.91717
367.491
-132.626
-3.04533
404.691
-58.2859
76.3916
505.905
13.3768
160.025
522.771
34.5861
59.3308
530.082
52.3653
37.8293
514.239
58.9772
-44.7097
496.846
58.0668
-35.8416
474.111
56.7656
-45.2945
453.263
49.7872
-24.1673
429.226
43.2976
-19.4315
405.572
25.8035
2.03853
383.875
20.1733
9.72123
373.529
12.2704
28.7574
371.776
10.9941
35.898
368.857
0.576226
44.5589
-4.82835
66.5051
731.371
-309.386
1576.19
274.027
-571.229
607.415
151.648
-597.496
-346.666
210.926
-408.116
106.703
412.345
-224.972
31.3495
439.584
-42.9462
96.6753
498.547
26.577
114.378
490.237
63.5298
25.3083
486.642
64.5494
38.766
473.934
71.4334
-11.7794
462.391
65.8284
2.46446
446.729
68.6554
-9.63254
431.576
60.8949
3.64272
411.248
59.4633
4.97807
388.778
47.6834
14.2543
366.344
44.9591
17.2534
349.519
37.0293
23.8416
338.761
29.2608
21.5317
328.32
8.63371
28.7726
-3.58795
48.6434
2129.54
-364.515
1436.1
1537.72
-322.399
40.8169
775.863
-145.116
-340.336
547.584
-223.206
-208.914
399.016
-85.6289
-117.705
357.129
-14.9357
28.5214
413.14
3.79152
12.2828
407.914
65.701
8.3324
430.765
51.9553
11.4217
413.523
82.304
-8.05703
408.717
68.8064
0.821134
390.043
80.0921
-6.64779
376.951
69.8316
1.38004
359.125
71.7588
1.57881
344.28
61.2079
7.31193
331.308
57.4053
7.98784
324.09
48.0489
12.2869
321.838
36.628
12.6922
313.586
12.932
23.8424
-3.63237
41.1512
147.444
-64.3318
4137.27
215.332
-88.4254
-882.09
380.892
-127.493
-294.103
229.741
-84.3067
-42.7063
329.381
-154.047
-99.8113
295.246
-2.52121
11.6231
407.639
-65.4446
1.60914
412.752
56.7642
-5.44802
429.777
42.1002
11.5102
413.468
91.7381
-3.42696
402.491
79.141
6.81921
381.6
95.401
-1.01578
366.386
82.2823
3.91691
349.085
84.6965
0.917501
337.458
71.2171
3.40348
328.528
65.2309
2.71129
324.32
53.1361
3.32198
324.648
38.5309
4.1939
320.419
10.7458
19.2039
-4.85496
41.873
-418.327
-491.168
1061.83
24.0092
36.0726
-645.221
328.541
-164.734
-362.407
292.665
-31.0449
-3.00728
352.859
-132.22
-8.40591
288.172
39.1682
69.5882
376.089
-109.361
5.63348
331.41
94.2109
12.9175
349.938
31.3132
4.76
319.784
114.519
-4.35157
314.243
84.2703
-1.5048
298.311
106.141
-3.75859
294.42
84.3722
-0.970511
290.535
86.6536
-1.17306
289.711
72.0287
-0.424641
289.881
64.8589
-0.113116
295.481
48.9164
-1.27149
307.671
29.9228
2.15963
313.62
3.37423
22.9409
-4.98731
47.9022
427.643
-26.4538
3030.02
568.632
248.625
-713.292
489.819
72.5762
68.4557
380.333
58.2576
-117.461
376.236
-83.7897
52.1118
224.672
150.887
28.3595
263.128
-23.6016
9.1649
-42.8392
-23.6184
-40.8853
239.36
20.4983
3.99948
29.0948
23.4007
30.2149
257.004
15.1139
-14.4001
-5.95701
14.1833
-6.5119
251.902
27.4674
-4.38071
29.5066
28.0331
28.8306
259.597
26.9238
-2.92785
11.6852
25.6405
10.4139
252.938
30.302
-1.0081
25.8687
29.5393
24.3051
252.089
28.057
0.135725
14.8728
26.9759
12.8567
245.797
27.736
0.165727
18.5002
26.8761
17.3077
249.593
69.6347
3.14079
253.818
61.5346
-1.48113
259.828
43.9196
-0.115273
270.859
23.3103
5.4542
272.474
4.96037
30.9587
1.40298
45.0228
512.409
585.61
-2388.99
695.072
348.819
-200.219
624.137
184.35
292.201
544.12
155.482
97.0705
472.186
28.5042
186.81
81.6749
63.6925
53.6639
82.3885
68.4005
68.469
86.4986
68.128
90.8812
-18.9705
55.4631
6.83377
14.7469
4.90542
-32.9441
37.0046
13.1243
-1.59179
7.34434
-46.6596
41.6166
19.8768
-7.06417
7.10842
-38.6989
41.3474
23.9962
-6.28576
3.48506
-51.3275
48.3445
29.6646
-3.24278
1.43759
-49.5813
50.3332
29.9987
-1.88617
0.296456
-56.5582
54.441
30.3671
-0.489451
-0.270555
-55.9205
55.453
28.78
-0.305888
175.7
23.4205
-2.87669
-54.2349
-48.545
-39.9617
-37.2553
9.75954
22.609
9.02378
180.479
54.1906
-5.65142
181.915
42.5942
1.41347
191.275
22.605
11.5887
189.614
10.8808
31.087
1.56912
27.3358
-97.6836
748.726
-2797.32
113.5
379.814
-697.472
412.955
228.115
-146.215
215.08
301.288
-77.8225
46.9841
215.342
129.805
30.5684
26.6009
17.2832
-53.1634
63.1455
59.2888
41.4056
-7.72051
-9.37209
-21.458
19.8903
11.9726
6.68767
-0.159821
-13.7296
-3.51582
12.6174
4.22098
0.56679
0.992972
-12.1798
-4.11854
12.1601
4.02059
-0.875366
0.515779
-10.6822
-5.11612
10.6534
5.12656
-0.49742
0.428776
-10.9337
-6.83568
10.8707
6.91291
-0.442983
0.222168
-10.4954
-6.97025
10.4132
7.06778
-0.237452
0.20382
-11.149
-7.02388
11.1789
7.05446
-0.264259
0.235131
-11.6812
-6.57705
11.6874
6.57284
-0.23712
-11.7565
1.60455
40.8845
24.0402
-0.836512
-10.7988
-10.1882
-9.5287
138.026
47.4704
2.48261
-38.8947
-36.0616
-31.2938
-28.7242
144.476
34.6479
5.14889
149.66
18.7672
7.89694
156.225
6.54256
19.1016
-4.82136
18.4942
843.683
1347.07
-2082.6
785.855
99.0714
-367.703
730.66
149.215
-656.918
521.203
340.618
-401.888
61.5729
392.976
-86.9299
83.7537
33.3029
43.7585
32.9291
-62.7962
35.8245
79.9093
-24.2938
-9.22435
-11.1844
-8.93364
11.2902
10.7494
7.30284
-2.99435
-3.43447
-16.5683
17.6387
2.14662
3.2118
-0.60342
-3.31245
-18.1292
17.7453
3.42789
0.871935
-0.797168
-5.06188
-15.2122
14.5286
5.6539
0.888847
-12.3386
-0.0563159
-6.0873
11.8729
6.4722
0.137199
-10.3873
0.348402
-5.95645
6.16481