/*--------------------------------*- C++ -*----------------------------------*\
  =========                 |
  \\      /  F ield         | OpenFOAM: The Open Source CFD Toolbox
   \\    /   O peration     | Website:  https://openfoam.org
    \\  /    A nd           | Version:  10
     \\/     M anipulation  |
\*---------------------------------------------------------------------------*/
FoamFile
{
    format      ascii;
    class       volVectorField;
    location    "8.2";
    object      U_0;
}
// * * * * * * * * * * * * * * * * * * * * * * * * * * * * * * * * * * * * * //

dimensions      [0 1 -1 0 0 0 0];

internalField   nonuniform List<vector> 
12920
(
(28.6773 -41.9588 -103.581)
(-23.3878 -25.4596 0.888549)
(97.5463 2.93973 1.59415)
(63.2098 12.7789 -14.2369)
(117.735 30.7758 -15.9659)
(94.9731 32.5188 -17.2499)
(113.471 35.3253 -9.66335)
(91.4829 24.3803 -3.48362)
(91.2258 10.8823 1.43341)
(79.903 2.16041 0.784265)
(83.7256 1.31113 -0.199501)
(82.1101 1.54066 -1.11521)
(84.5408 2.6514 -1.35419)
(84.1853 5.12717 -2.48317)
(86.6954 7.21565 -3.22765)
(87.3571 7.71103 -3.03418)
(87.1237 7.60962 -1.83812)
(83.2336 7.57359 -0.104164)
(74.6735 5.74687 1.39337)
(66.8013 3.14304 0.512642)
(19.509 61.3066 -33.0285)
(-158.048 -44.0252 -1.99764)
(78.586 18.8847 0.82018)
(31.1239 32.3766 2.59846)
(101.156 49.9795 4.21245)
(73.0426 41.2102 2.69002)
(91.2945 26.534 7.53606)
(62.265 8.38007 5.5053)
(65.6133 1.32556 2.38319)
(54.4806 0.875142 -0.49674)
(59.5803 1.83857 -1.32137)
(58.7229 4.14108 -1.826)
(63.5691 5.60159 -1.82501)
(65.2809 6.888 -1.40565)
(68.7119 6.21955 -0.395228)
(68.7733 5.52814 0.484649)
(66.7814 4.43062 1.55772)
(60.9383 5.07177 2.0044)
(57.8541 4.07959 1.39447)
(54.9073 1.07361 0.915716)
(172.428 86.6165 41.1296)
(-90.6475 -113.272 13.6532)
(89.147 -103.844 -0.0385302)
(7.7591 -59.2286 8.20799)
(85.1095 -29.1044 8.0702)
(54.8083 -6.37086 6.32754)
(83.2924 6.35583 5.87039)
(64.5846 10.4555 2.36327)
(71.0999 10.3498 1.18218)
(62.7672 8.77943 -0.039875)
(65.933 7.05301 -0.134763)
(63.3293 6.5844 -0.252011)
(65.0891 6.09986 -0.0790932)
(64.2558 6.33866 0.0751772)
(64.0562 6.01751 0.429002)
(61.545 6.50146 0.759031)
(57.5209 7.27348 1.05227)
(53.2504 7.6299 0.788651)
(53.123 5.25501 0.25401)
(52.2952 0.906137 0.225288)
(61.0817 105.251 -9.32057)
(-78.5444 -48.8901 -27.541)
(99.1844 -28.3267 -30.6545)
(10.3519 -29.0641 -3.90438)
(71.5593 -16.0914 0.369833)
(24.8226 -6.78633 1.51825)
(61.0838 -1.55024 1.38613)
(43.5237 2.57193 0.253689)
(60.1592 3.2925 0.251095)
(54.1189 4.51938 -0.303605)
(60.1469 4.61763 -0.195014)
(57.6404 5.67375 -0.382549)
(59.2346 6.05738 -0.202702)
(57.5931 6.99979 -0.208996)
(57.0797 6.8636 0.118807)
(54.903 7.37563 0.22645)
(53.5034 7.19694 0.449147)
(52.0604 6.81733 0.379063)
(53.2427 4.79916 0.0339388)
(52.2179 0.872807 -0.102244)
(80.4536 119.585 -39.8715)
(-34.9491 -36.9641 2.42587)
(99.0194 -16.4619 10.2798)
(-19.2005 -22.0838 0.405848)
(71.2707 -25.1405 1.48445)
(25.4039 -14.6425 -0.0648795)
(65.2428 -13.0074 0.823144)
(52.9442 -1.06936 -0.135985)
(66.3387 -0.092024 0.202932)
(60.7688 5.81201 -0.244829)
(64.0003 5.64728 0.0308344)
(60.1104 8.01461 -0.149686)
(59.9918 7.64922 -0.01803)
(57.2747 8.73092 -0.0900827)
(56.4672 8.20487 0.0157077)
(54.5982 8.3855 0.016652)
(53.9032 7.98758 0.0479805)
(53.4102 7.52237 -0.0212496)
(54.876 6.14884 -0.216167)
(55.0297 2.64016 -0.157574)
(108.623 -66.0768 -181.472)
(-65.5592 -43.6171 -27.6733)
(105.94 -62.8969 -6.28226)
(11.559 -34.3047 0.195522)
(77.6183 -42.281 2.75105)
(23.1037 -14.7578 1.19944)
(58.8321 -18.491 1.21045)
(38.7827 -4.3981 0.472157)
(52.0345 -0.84105 0.422796)
(46.6155 5.54466 -0.121073)
(50.7799 7.37879 -0.0629094)
(49.1098 9.77581 -0.227635)
(50.2685 9.8821 -0.140928)
(49.7232 10.4844 -0.114536)
(50.1468 9.63641 -0.0711476)
(50.0999 9.25831 -0.0478894)
(50.1876 8.30054 -0.0579385)
(51.001 7.49244 -0.11563)
(53.3724 5.51021 -0.0369113)
(55.459 1.63501 0.261848)
(62.5912 50.6069 -97.0506)
(1.59993 11.4093 -31.7521)
(109.277 -30.3947 -5.397)
(29.9434 -30.1627 -1.54672)
(83.6344 -40.216 2.65817)
(38.5121 -16.9442 0.178538)
(56.6079 -33.7 0.0341321)
(41.9882 -4.18037 -0.693113)
(49.8669 -8.09023 -0.796547)
(44.5451 4.46083 -0.528549)
(48.0324 3.8092 -0.382919)
(45.5206 8.58418 -0.214321)
(46.7576 7.69544 -0.15179)
(44.9757 8.80761 -0.11017)
(45.1508 8.23005 0.0796825)
(45.2742 8.17759 -0.0193668)
(45.4985 7.55889 -0.0734044)
(47.0892 6.35005 -0.0504807)
(50.0769 2.64566 0.405002)
(49.5422 -0.690677 0.586075)
(86.1445 44.4478 66.9485)
(56.5165 -34.2221 -19.8177)
(149.032 -49.5723 0.794002)
(78.5777 -33.6434 1.61526)
(102.587 -37.026 6.92684)
(44.8218 -1.08652 1.28296)
(52.0619 -4.92447 0.447524)
(21.2593 -4.85271 0.0821585)
(29.3569 9.02909 0.0879429)
(26.6211 7.45398 0.311531)
(32.9108 13.6613 -0.0105905)
(32.6918 13.3048 -0.0372287)
(35.7326 15.2385 -0.123401)
(36.1728 15.1929 -0.0575498)
(33.613 9.0409 -0.0820042)
(35.7893 8.22943 -0.22185)
(36.929 6.68043 -0.0680816)
(37.4765 4.10004 0.394583)
(38.2369 1.65638 0.604121)
(36.6344 -0.344262 0.533626)
(180.962 -122.251 -89.981)
(123.698 -56.4887 -32.9475)
(186.729 -49.5502 -4.19164)
(108.89 -40.46 -5.80007)
(112.5 -37.4924 9.1243)
(26.1318 10.8077 0.133683)
(46.7722 12.8875 0.211892)
(37.6569 4.06805 -0.783101)
(32.4923 6.65208 -0.168584)
(30.7135 6.49175 0.093831)
(29.198 12.0727 0.0559174)
(27.9548 13.4339 -0.0504662)
(28.1797 13.6305 -0.0120232)
(29.3267 12.8925 -0.0445436)
(29.0508 13.2324 0.247467)
(26.4437 6.02496 0.0916671)
(27.6738 5.4286 0.230366)
(27.1885 3.92867 0.315297)
(29.3359 1.96615 0.183651)
(31.6645 -0.546493 0.339251)
(178.526 233.497 30.9017)
(13.3973 21.1729 1.10866)
(148.653 9.68656 -16.3486)
(114.211 22.6484 -16.5938)
(141.358 36.8345 -8.57743)
(45.8952 20.17 4.72041)
(19.8666 6.15045 2.20827)
(33.1155 1.37007 -0.988902)
(47.1646 8.81188 -0.316447)
(39.0641 11.3986 0.174217)
(30.6455 11.4417 -0.0649169)
(27.89 11.4097 -0.140317)
(26.4475 9.7982 -0.0503897)
(24.7667 8.37965 0.0396804)
(22.47 7.3602 0.196361)
(21.3744 5.6899 0.0494697)
(23.1304 4.0687 -0.257496)
(26.5338 1.72068 -0.358208)
(32.4102 -1.20482 -0.323034)
(37.1636 -2.83844 0.13404)
(73.7674 132.546 -70.9833)
(-10.743 5.40469 -27.5658)
(143.754 7.06106 -18.4783)
(132.857 34.2659 -16.2991)
(193.785 65.0974 -11.0927)
(174.057 79.5392 -2.0991)
(136.458 25.2144 14.8395)
(31.6458 -17.1417 -3.82697)
(39.0538 6.68602 0.300186)
(32.5009 15.2344 0.162117)
(28.4914 15.9171 0.13917)
(24.9143 15.0166 0.0456216)
(22.5807 12.4644 0.00107958)
(22.0241 8.93387 -0.0988606)
(23.5219 5.24113 -0.154606)
(24.6045 2.22323 -0.0850349)
(27.4147 1.05561 -0.0972902)
(30.9757 -2.0188 -0.0305313)
(35.4374 -4.03139 -0.263049)
(38.9235 -4.46164 0.0407568)
(150.276 264.219 -170.897)
(5.03623 60.6349 -8.44955)
(141.156 54.4393 -13.6039)
(135.902 50.924 -10.6389)
(195.732 76.3221 -2.30192)
(197.13 59.7901 2.2891)
(161.475 36.1101 15.7677)
(44.5864 30.6463 -3.74912)
(48.0576 18.3733 0.289754)
(35.5304 12.8636 0.541182)
(28.6512 16.9635 0.3592)
(24.9463 18.1634 0.150823)
(22.247 16.2109 -0.166393)
(23.5752 10.9367 -0.311304)
(26.303 3.95217 -0.191773)
(23.3361 0.451784 0.495983)
(25.3459 -1.927 0.570938)
(25.6595 -3.79238 0.378077)
(28.5193 -5.10714 0.0843635)
(30.722 -4.77265 0.254258)
(-67.4532 208.255 12.1896)
(-210.616 32.8644 -26.2283)
(77.1871 34.3622 -15.3436)
(-8.62321 23.9784 -3.36919)
(93.2905 62.2206 3.34177)
(27.1332 28.8964 6.44484)
(48.1205 61.6466 3.044)
(26.2541 55.4238 -2.06554)
(27.5923 29.6369 0.358924)
(12.7914 16.5106 0.678129)
(14.594 14.5071 -0.033387)
(14.0965 13.2614 -0.0409142)
(19.0161 11.5205 0.309494)
(19.9101 6.13118 0.425391)
(16.0783 0.317846 0.298561)
(18.7956 -1.90253 0.266865)
(19.0067 -3.81546 0.099893)
(20.8365 -5.67433 0.102308)
(23.9479 -6.59786 0.149174)
(26.3176 -5.88419 0.296162)
(89.3744 23.7333 -15.0082)
(-170.408 -0.521371 20.1)
(93.8163 5.53483 -12.6909)
(-8.72201 28.7415 -1.02662)
(69.4595 57.015 2.88922)
(6.09564 38.6942 1.76653)
(32.8667 82.3145 1.35125)
(2.74072 30.0472 0.958274)
(17.67 43.1143 -1.5586)
(6.32247 17.1452 -1.33562)
(15.645 19.7185 -1.81892)
(13.1045 7.4016 -1.10026)
(18.8911 6.07798 -0.765923)
(18.6333 -0.753025 -0.320393)
(21.6602 -0.649744 -0.237552)
(21.8823 -2.87353 -0.336572)
(23.6098 -5.08422 -0.0996501)
(22.7452 -7.2991 0.122891)
(24.8523 -7.81202 0.289625)
(25.2143 -6.52124 0.369489)
(125.13 29.0959 83.4335)
(-64.1535 75.3167 5.66039)
(82.2677 68.7447 -1.74041)
(-62.4634 47.4342 2.35699)
(53.8894 60.004 -1.26354)
(-25.8142 42.0629 1.16722)
(40.3792 62.4662 -0.0731206)
(12.8998 38.854 -0.532186)
(37.9241 35.4777 -0.999941)
(33.8608 22.2064 -2.70165)
(46.9466 18.7593 -2.91711)
(50.2556 10.5034 -2.2937)
(52.785 7.01881 -0.335446)
(47.5295 2.2828 0.0319672)
(43.2802 -0.325226 -0.5235)
(40.8509 -2.74807 -0.692705)
(38.669 -4.66658 0.0721218)
(32.9366 -6.13178 0.444641)
(30.2272 -7.177 0.5869)
(26.0063 -5.8741 0.551043)
(-42.4378 30.3761 -46.4388)
(-127.369 22.9019 -15.1375)
(74.8451 41.382 -11.3629)
(-23.2026 28.624 -1.79313)
(60.8907 28.2269 4.16641)
(4.49851 26.7512 2.03623)
(55.1936 42.5553 2.53488)
(37.2844 29.327 0.127223)
(60.5447 33.0224 0.417152)
(56.3511 21.6668 -0.882465)
(67.024 20.4599 -0.425896)
(66.0383 13.3402 -0.953615)
(69.8897 12.3242 -0.481173)
(67.8921 10.0657 -0.489874)
(66.0953 8.96776 0.257414)
(60.349 3.91105 0.30406)
(56.866 1.07981 0.68259)
(48.4002 -0.0166909 1.0426)
(43.0589 -1.67087 1.17167)
(33.8237 -2.91558 0.897015)
(203.788 17.5328 -40.8421)
(102.785 114.378 -30.2797)
(115.28 102.209 3.61128)
(-14.8012 44.4319 6.80338)
(49.0732 25.6062 8.60454)
(-17.8424 16.9229 1.74504)
(45.7679 28.6442 1.09578)
(20.4414 20.497 0.21808)
(51.9885 22.3629 0.928446)
(45.434 15.6619 0.192084)
(58.9758 14.5056 0.886467)
(57.0373 10.3245 0.570159)
(61.5929 9.15685 0.938282)
(59.812 7.55335 0.89769)
(60.3542 6.16831 1.12195)
(57.8067 4.06118 1.04393)
(53.3437 2.44047 1.32337)
(43.3283 2.63744 1.18844)
(38.8265 2.74162 0.91883)
(31.2011 0.328971 0.688323)
(70.2442 170.043 49.1395)
(-49.6636 154.941 29.0709)
(80.7995 136.873 21.6977)
(-36.9417 40.98 7.89275)
(47.9027 -3.25863 5.07805)
(-19.7788 0.133371 0.725992)
(37.102 -1.7814 0.580724)
(8.13154 5.22585 0.838847)
(38.4651 7.70161 1.34103)
(30.0601 5.90358 0.906488)
(44.3557 6.01935 1.41981)
(42.1647 4.50627 1.2131)
(48.1235 5.29828 1.49096)
(46.7994 4.95917 1.45443)
(48.38 5.15323 1.39814)
(46.4223 4.71216 1.2006)
(42.4594 7.36539 1.01874)
(34.4658 9.24195 0.672576)
(33.5058 8.0512 0.231965)
(31.7263 3.7646 0.141271)
(-74.2158 148.605 -86.5996)
(-135.787 74.211 -10.4486)
(83.282 62.7856 2.96004)
(-15.1023 29.7071 0.5025)
(54.5197 11.7628 -1.11205)
(0.170613 10.9528 -2.95141)
(39.0162 -2.39113 -2.66956)
(8.5169 1.05541 -2.84813)
(34.5461 -3.35508 -2.12656)
(25.262 -2.47487 -1.93996)
(42.1158 -3.71813 -0.359916)
(41.8574 -3.55427 -0.12979)
(50.3955 -3.34536 0.62611)
(50.1229 -2.85621 0.959623)
(52.5464 -1.05916 1.83621)
(48.8516 2.27898 2.50773)
(44.0127 8.21042 2.71442)
(37.3163 9.69612 2.3134)
(36.0816 7.86923 1.402)
(33.0656 4.07951 0.369315)
(46.2789 -156.095 16.2302)
(-106.62 33.2103 16.8192)
(89.0137 48.3344 9.62287)
(-4.44793 30.002 2.17453)
(73.127 23.9042 1.70761)
(41.2671 21.5868 -0.492645)
(77.5319 16.0536 0.39153)
(63.9842 17.1591 -0.0445418)
(79.3895 8.48479 0.90225)
(68.7948 3.88847 0.613981)
(70.6449 -4.73355 0.21023)
(62.447 -5.21933 -0.891746)
(64.5465 -4.80605 -1.43899)
(63.1498 -3.60797 -2.12931)
(66.0225 -3.25992 -2.19582)
(66.6735 -0.703898 -2.06562)
(71.0868 3.97479 -0.559942)
(74.9793 8.09245 0.739994)
(82.5386 9.74619 1.53883)
(84.7049 7.99529 1.64426)
(89.027 -48.306 166.16)
(-59.4739 -63.9748 -19.6521)
(102.806 -48.015 -27.3248)
(55.7643 -29.5907 -22.4156)
(106.209 -5.67377 -19.6384)
(69.5104 -1.55196 -18.1618)
(81.6953 7.00311 -7.9489)
(64.1071 3.98786 -3.66976)
(72.7362 5.75564 0.506876)
(67.6205 4.42473 -0.343205)
(70.321 5.16571 -1.0108)
(65.8243 5.47384 -1.94901)
(64.2677 6.30437 -2.4169)
(57.383 5.60533 -3.39288)
(53.7838 3.06615 -3.1835)
(48.6611 0.887936 -2.66023)
(48.0226 -0.370639 -1.09834)
(47.4989 -0.243969 0.463998)
(49.2683 -0.182578 1.2823)
(49.9141 -0.618973 0.896547)
(23.3467 57.0641 -39.0075)
(-198.554 -41.046 1.05464)
(54.9392 -25.1451 -12.1165)
(-22.9587 -10.9141 6.89108)
(70.0602 15.5658 11.8436)
(29.2402 6.11073 7.6941)
(62.733 4.51637 12.525)
(41.6278 -0.897067 5.74706)
(53.9846 0.508076 2.78407)
(44.6668 1.75558 -1.38035)
(49.4375 3.24013 -1.86895)
(45.7733 4.00721 -2.47602)
(47.5257 4.47331 -1.84148)
(45.3593 4.15973 -1.36464)
(45.5189 2.71911 -0.28308)
(43.5349 1.64572 0.556803)
(42.1142 0.593525 1.88359)
(40.0347 0.993628 2.10206)
(40.7204 0.387932 1.47538)
(40.495 -0.619873 1.37676)
(110.163 -20.5786 161.238)
(-94.723 -111.449 -1.37071)
(63.9425 -109.831 -12.3575)
(-20.2566 -61.0858 7.6539)
(67.6763 -36.0384 8.23348)
(30.8295 -11.3416 6.41588)
(64.1872 2.79023 7.64029)
(44.3925 8.08768 2.03878)
(53.9827 8.68879 1.67361)
(45.1779 8.20959 -0.387048)
(48.8722 7.12837 -0.0723844)
(45.1535 6.93516 -0.432743)
(46.403 6.16346 -6.4244e-05)
(44.2685 6.09033 0.0743759)
(43.7422 4.69203 0.554569)
(41.2039 4.56339 0.832543)
(39.2167 4.24395 1.2627)
(36.6878 3.94369 0.917853)
(37.3959 1.67208 0.262471)
(37.0748 -0.351984 0.612258)
(197.579 -91.8436 -27.9494)
(95.9183 -50.8089 -17.7182)
(102.093 -31.4605 -30.6456)
(10.768 -31.6755 -8.56248)
(62.4688 -14.2575 -3.41471)
(14.9216 -3.96255 0.857578)
(51.6015 0.616973 1.9904)
(31.4649 4.3835 0.0789186)
(47.636 4.48636 0.744157)
(39.0772 5.55028 -0.566122)
(44.3838 5.34428 -0.070994)
(40.3567 6.15951 -0.556921)
(41.5526 6.08837 -0.119313)
(39.1346 6.566 -0.152276)
(38.7149 5.94744 0.239714)
(36.7889 5.96601 0.283021)
(36.032 5.31322 0.598969)
(35.054 4.49353 0.463899)
(36.4809 1.99887 -0.0312253)
(36.105 -0.210346 0.247288)
(91.3746 -137.506 84.4319)
(-113.987 -60.9093 -8.916)
(101.29 -19.9875 5.99137)
(-30.7749 -23.0435 -2.07176)
(62.297 -20.0534 -0.150567)
(10.9034 -9.57958 -0.366554)
(51.8772 -8.76933 1.97768)
(35.4898 2.50179 -0.268547)
(48.8597 2.00419 0.778738)
(41.3997 7.43904 -0.462346)
(44.9917 6.43129 0.19351)
(40.5916 8.47437 -0.277637)
(41.0094 7.55691 0.0260552)
(38.2785 8.1199 -0.128704)
(37.8309 7.14662 0.0751949)
(36.2097 6.89879 0.0408924)
(35.804 6.15638 0.110075)
(35.255 5.19243 -0.00624765)
(36.9976 2.83173 -0.292874)
(37.4307 0.227265 0.210212)
(266.357 85.4082 -32.0428)
(-44.8172 -19.677 7.57694)
(105.892 -44.0975 5.3729)
(-3.53127 -19.217 2.33127)
(67.7183 -29.9965 3.88828)
(10.5274 -6.10363 1.49134)
(49.0296 -12.4094 2.04219)
(27.2404 0.473228 0.240505)
(40.3322 2.05292 0.661038)
(32.8122 7.51397 -0.437957)
(36.1256 7.99877 -0.0719862)
(33.1996 9.67579 -0.36253)
(33.9357 9.11991 -0.108006)
(32.8131 9.30517 -0.116698)
(33.1404 8.07368 0.00216948)
(32.7059 7.39129 -0.00971994)
(32.8184 6.23403 -0.0156534)
(33.352 4.84686 -0.0092226)
(36.0852 1.79341 0.0610041)
(37.8014 -0.457133 0.717665)
(245.738 -94.196 -90.7533)
(65.4512 20.3731 -10.315)
(106.997 -1.99118 11.4182)
(7.44344 -9.09159 -2.8758)
(67.9822 -24.1337 4.39942)
(18.5318 -4.68082 -0.894398)
(40.245 -24.7051 0.457996)
(24.6194 5.2765 -0.740534)
(33.5392 -2.05422 -0.742486)
(27.8448 9.14297 -0.448469)
(31.6911 6.01537 -0.271909)
(29.1087 9.70345 -0.149314)
(30.6193 7.62801 -0.0722663)
(28.8896 8.34585 -0.0369637)
(29.2731 7.13118 0.262063)
(29.3327 6.7432 0.0699747)
(29.6583 5.41407 0.0799337)
(30.4152 3.30333 0.251637)
(33.1922 0.196001 0.644743)
(33.7619 -1.13155 1.09299)
(176.872 92.847 -38.3234)
(0.603446 31.1953 6.92941)
(118.485 3.65057 13.9302)
(28.8213 -0.818725 5.02853)
(75.4713 -16.3525 9.73525)
(24.8609 11.6847 1.25743)
(39.0454 -3.72319 2.28201)
(16.322 -0.507484 -1.11725)
(22.2274 6.7991 -0.921947)
(19.5996 7.59735 -0.559539)
(24.5676 12.0668 -0.568301)
(24.1326 12.5952 -0.37892)
(26.1609 13.5412 -0.248774)
(25.7024 13.5415 -0.0329788)
(22.1598 7.63758 -0.413207)
(23.5335 6.14652 -0.194394)
(23.56 4.55911 0.157419)
(23.7787 2.14648 0.784492)
(25.643 0.456929 0.879656)
(25.7182 -0.377528 1.12513)
(166.669 -120.341 -49.3636)
(-5.60533 -18.4886 -11.8383)
(108.155 -18.2012 13.9115)
(23.7594 -4.20407 -3.63802)
(56.1962 -10.0014 10.3293)
(28.193 8.49469 8.2209)
(43.8024 8.84546 3.31867)
(26.6727 3.68823 -1.4974)
(22.9841 5.38611 -0.806112)
(20.9122 6.86917 -0.39935)
(20.318 10.8516 -0.299025)
(19.7147 11.632 -0.234165)
(20.4613 12.0713 -0.132648)
(21.4127 11.5628 -0.145416)
(19.8733 12.1643 0.265887)
(17.1463 4.78656 -0.0244477)
(18.5331 4.04988 0.340698)
(18.5165 2.26606 0.520986)
(21.2221 0.892962 0.458514)
(22.8832 -0.537937 1.04057)
(147.883 105.756 -93.0983)
(38.3029 12.5932 -39.5298)
(115.886 12.1589 -35.5086)
(52.4272 27.2879 -22.4017)
(80.5308 36.883 -6.89833)
(40.8305 29.9274 -4.75742)
(31.0275 13.2989 5.79595)
(28.8164 0.330946 0.76404)
(31.2217 4.90827 -0.224552)
(25.4611 7.45575 0.43639)
(21.3743 9.09353 -0.228802)
(19.2906 9.03142 -0.450159)
(18.2088 8.0708 -0.170669)
(18.1377 7.20121 -0.0347711)
(17.0076 6.23768 0.218729)
(15.7327 4.32585 -0.15205)
(17.3481 2.27079 -0.33111)
(19.2498 0.485496 -0.114862)
(23.2487 -0.914587 0.0586902)
(25.7733 -1.61595 0.771839)
(100.227 137.637 -8.27484)
(8.94855 -2.11695 -58.7429)
(110.456 5.19458 -31.8787)
(58.3096 21.1768 -22.7716)
(101.225 37.257 -8.26401)
(93.1584 51.101 -11.1917)
(113.349 47.2587 7.73905)
(92.822 -16.6776 10.7154)
(35.2642 4.01863 4.13614)
(26.9455 11.1996 1.19799)
(22.8473 12.5514 1.01755)
(20.0365 11.9408 -0.110043)
(18.8401 10.0509 -0.581479)
(18.4996 7.46852 -0.563287)
(18.2982 4.19041 -0.188926)
(17.5115 0.414834 -0.286724)
(19.3484 -0.687075 -0.128788)
(21.262 -2.50844 0.171324)
(24.5403 -2.99557 -0.03014)
(26.4962 -2.69 0.579751)
(177.506 67.4275 -31.7892)
(26.8155 7.62818 -27.4547)
(114.171 39.6379 -34.5604)
(59.3213 40.2016 -19.309)
(104.47 59.0832 -5.24919)
(107.073 36.6857 -1.90121)
(159.351 36.9937 31.944)
(111.807 29.3859 16.8151)
(39.8923 19.7952 5.47713)
(26.2083 16.2425 2.59951)
(21.0719 15.8216 1.19051)
(18.3045 14.8524 0.166581)
(17.4581 11.2911 -0.612886)
(17.8917 6.5793 -0.687475)
(17.9422 1.40329 0.0995972)
(13.9927 -0.28561 0.434775)
(16.203 -2.03632 0.600726)
(16.5222 -3.05876 0.506763)
(19.6584 -3.43471 0.352261)
(21.469 -2.86511 0.852685)
(92.12 35.4388 15.8596)
(-209.546 29.5962 -46.1588)
(54.2618 37.5176 -35.2547)
(-71.1504 27.5131 -3.15894)
(54.5772 59.1527 0.176414)
(-28.0693 8.97359 10.2938)
(47.0121 60.62 12.7148)
(6.92758 48.9277 8.19282)
(14.2837 29.8341 2.18707)
(2.16834 18.8383 1.21089)
(8.12843 15.5299 -0.193601)
(6.11679 11.5412 0.0187164)
(10.7081 7.11145 0.295747)
(10.567 2.83666 0.674182)
(7.90051 -0.497139 0.11059)
(10.5737 -1.94351 0.151286)
(10.7089 -3.36823 0.0301215)
(11.9749 -4.52702 0.0566901)
(14.9252 -4.71713 0.453543)
(16.9591 -3.82283 0.798344)
(-27.7754 -269.231 -63.656)
(-149.157 -17.4433 -47.1235)
(65.8093 6.26384 -46.7935)
(-56.9059 29.1028 -5.00924)
(52.7228 55.1307 -1.94747)
(-26.1888 30.0792 4.40364)
(16.0675 77.0956 1.5529)
(-13.3895 19.0935 1.25714)
(7.25774 38.9329 -2.3991)
(-3.02411 13.3062 -1.90472)
(7.09474 17.9787 -2.51672)
(4.0685 5.94878 -1.51247)
(9.11516 5.3339 -1.05672)
(8.34198 -0.825423 -0.632387)
(10.7176 -0.508122 -0.417697)
(10.4921 -3.02598 -0.415366)
(11.7129 -4.48612 -0.105372)
(11.4915 -5.97697 0.208888)
(14.3003 -6.04847 0.723802)
(15.3183 -4.57877 0.784883)
(86.4217 -8.02423 -15.6037)
(-73.1286 48.0701 2.90725)
(41.6114 67.8677 -12.9144)
(-85.0519 47.0015 4.38161)
(43.1748 58.6936 -4.0111)
(-46.8203 33.6388 3.87751)
(28.7082 54.8388 -0.848673)
(-3.89912 26.5125 -0.802054)
(22.4466 25.885 -2.30682)
(14.4709 12.9982 -3.73926)
(24.3042 10.584 -3.17016)
(22.1178 4.49635 -2.62483)
(25.3455 2.58854 -0.605887)
(23.4306 -0.373126 -0.255281)
(22.738 -1.7923 -0.437064)
(20.602 -3.97893 -0.490471)
(19.4228 -5.11281 0.359164)
(16.5949 -5.9435 0.866769)
(17.0438 -6.00937 1.30441)
(15.8045 -4.79413 1.15062)
(-39.7656 139.907 130.54)
(-156.987 29.6696 -51.7863)
(39.5121 38.1306 -19.171)
(-77.1977 16.6995 0.843811)
(46.2351 25.7378 3.61895)
(-21.3545 21.7375 3.18371)
(39.6768 38.4865 2.56932)
(15.1976 20.0674 -0.170786)
(39.391 24.1248 0.709486)
(30.3625 10.996 -1.47699)
(40.023 11.1942 -0.305639)
(35.653 4.63847 -1.13896)
(38.6833 5.29098 -0.260282)
(35.1829 2.70023 -0.48225)
(35.1988 2.03179 0.605732)
(31.9161 -0.785464 0.617578)
(29.9941 -1.65877 1.23041)
(24.868 -2.22418 1.64248)
(23.8012 -2.67118 1.88604)
(20.4134 -2.79867 1.7392)
(-2.76579 15.35 49.0662)
(-124.427 73.6658 15.8524)
(51.8395 65.2245 7.10565)
(-92.9189 19.0421 10.3829)
(45.0304 25.251 5.05486)
(-37.4803 18.4717 2.76563)
(34.7187 27.6226 0.231308)
(-0.246721 15.9651 0.556266)
(33.0322 16.5629 1.45044)
(20.8381 8.57744 0.370267)
(34.9432 7.89995 1.60012)
(30.3655 4.03474 0.836884)
(35.5175 3.76095 1.48028)
(33.1243 1.96634 1.29696)
(34.2334 1.7369 1.53817)
(31.9692 0.584576 1.39145)
(29.521 0.981605 1.92597)
(23.6331 1.40817 1.68544)
(22.5535 1.06161 1.4145)
(19.2561 -0.487719 1.33637)
(-100.709 158.792 93.0511)
(-216.67 41.5055 -22.0684)
(50.2564 74.0195 6.31296)
(-85.9664 14.3382 3.032)
(40.51 -3.52411 0.712402)
(-35.405 7.94835 1.23095)
(29.4467 3.39605 0.380383)
(-3.48851 6.54712 1.15955)
(28.0217 6.03215 1.84008)
(16.7021 3.09296 1.31239)
(31.351 3.456 2.26143)
(27.2559 2.27839 1.64808)
(33.2452 3.63764 2.17363)
(30.7393 3.48285 1.92771)
(31.9863 4.02506 1.91359)
(28.9885 4.06651 1.54858)
(26.4127 6.19474 1.47444)
(21.7429 6.58079 0.874562)
(22.5246 5.02985 0.303163)
(21.9243 1.74807 0.582073)
(45.6824 59.8832 129.162)
(-155.823 41.3033 -41.1842)
(82.2673 32.6153 5.33602)
(-24.4988 17.4892 -5.02988)
(47.1185 7.99095 -5.14753)
(-8.50674 12.5372 -4.79247)
(32.9564 1.97171 -3.90664)
(1.20496 4.3555 -3.69849)
(27.7815 -0.942766 -2.7449)
(15.6438 -0.495888 -2.31546)
(30.8963 -1.22798 0.109035)
(27.1835 -0.162884 -0.103366)
(34.4833 0.837073 1.15778)
(32.7159 2.11796 1.26804)
(35.3085 3.72059 2.41075)
(33.1655 5.58842 2.74349)
(31.7949 7.78168 3.2543)
(29.2129 7.65573 2.17463)
(30.4904 5.54053 0.922821)
(29.6025 1.63531 0.118303)
(-50.5246 -31.7567 -11.6414)
(-199.85 34.3869 -1.07605)
(84.9467 38.5386 6.0788)
(-8.23238 22.7357 3.88473)
(72.3235 19.6002 6.86806)
(39.5668 16.0586 1.47327)
(73.8683 8.62427 4.37089)
(55.7954 6.46602 1.56973)
(68.0756 -2.18603 3.34572)
(53.9862 -4.60779 1.12245)
(56.7178 -6.05198 0.766653)
(48.9368 -3.42871 -1.26367)
(51.2528 -1.06022 -1.25192)
(47.9878 2.10862 -1.52196)
(50.1744 3.76672 -0.517269)
(49.987 8.54789 0.578012)
(54.9444 11.1243 2.32589)
(61.407 13.3523 2.54863)
(73.5229 12.5767 2.35143)
(78.9595 7.82844 2.58456)
(129.212 -119.852 53.3178)
(-46.4639 -117.953 28.6369)
(119.759 -72.7868 -10.3437)
(68.0436 -44.2794 -12.2575)
(107.579 -15.7811 -15.9362)
(64.678 -10.9859 -16.0092)
(76.9573 -0.294358 -6.39759)
(57.6235 -0.148451 -4.03656)
(65.7243 4.82073 -0.305587)
(58.0159 5.33824 -1.79028)
(59.0139 6.58028 -1.96852)
(51.0289 6.44109 -2.94745)
(47.7582 5.3835 -1.94507)
(38.1874 3.13683 -2.46375)
(35.3433 0.514946 -1.99424)
(31.3967 -0.914647 -1.97568)
(30.926 -1.88483 -1.22299)
(31.6325 -1.64268 -0.137693)
(35.1697 -1.7148 0.653743)
(38.1801 -1.64518 1.10268)
(30.6016 -75.1085 -63.189)
(-134.809 -50.2288 -3.6981)
(39.3317 -25.8926 -20.1705)
(-54.9499 -21.7254 2.92048)
(50.5732 1.84021 2.79263)
(2.34121 -6.5031 3.95509)
(46.4097 -1.81784 9.0428)
(26.3449 -2.31797 3.59715)
(43.0017 1.03977 1.96734)
(32.7171 2.3624 -1.84686)
(37.569 3.30303 -1.82572)
(31.9313 3.25788 -2.25331)
(32.9181 3.05932 -1.31855)
(29.3287 2.3228 -1.07349)
(28.7888 0.584307 -0.139051)
(26.1773 -0.0636715 0.22351)
(25.3185 -0.719959 1.29978)
(24.7654 -0.403665 1.55754)
(26.8532 -0.778663 1.22761)
(27.4523 -0.987184 1.67579)
(164.506 -65.701 130.782)
(-44.8221 -114.37 23.5298)
(58.9413 -104.154 -14.9752)
(-35.9431 -56.7878 6.16058)
(52.2411 -32.4706 4.08868)
(7.89525 -9.41628 5.4881)
(46.4366 1.66015 6.96823)
(25.6725 6.15086 1.62103)
(39.0089 7.0186 1.81758)
(29.6702 7.20557 -0.513622)
(34.3619 6.37632 -0.0222946)
(29.7045 6.25541 -0.508368)
(30.9664 5.18796 -0.0257871)
(28.0583 4.80737 -0.094181)
(27.5343 3.32556 0.421242)
(25.0677 3.09628 0.599504)
(24.0366 2.44572 1.02336)
(22.6869 2.03037 0.79957)
(24.2422 0.347431 0.57662)
(24.1514 -0.611703 1.00512)
(253.278 3.92677 48.7066)
(127.316 -35.0215 3.54896)
(115.622 -32.5353 -17.2643)
(14.1392 -31.4592 -8.81028)
(54.2351 -13.1496 -4.54062)
(3.43215 -3.0596 1.02484)
(41.16 0.202441 1.82792)
(18.0681 4.00711 0.0728006)
(35.2517 3.89303 0.922766)
(24.7519 5.2037 -0.613435)
(30.5094 4.84261 -0.00852294)
(25.5199 5.63 -0.572436)
(26.9822 5.26926 -0.125656)
(24.195 5.51424 -0.135256)
(24.0505 4.71456 0.178671)
(22.3068 4.48926 0.235928)
(21.9312 3.68439 0.494661)
(21.2929 2.7657 0.429082)
(23.3066 0.670705 0.354562)
(23.1131 -0.481905 0.684307)
(104.359 -82.2503 151.659)
(-88.5304 -45.2968 -28.2523)
(101.659 -13.8539 -12.659)
(-31.5985 -19.0239 -1.75375)
(53.3471 -14.4623 -2.80046)
(-2.70794 -5.63061 0.0265997)
(39.5771 -6.27514 1.72242)
(19.8763 4.25302 -0.395304)
(34.3798 2.35686 0.788333)
(25.5227 7.63584 -0.449966)
(29.9899 5.85439 0.197447)
(25.2193 7.84395 -0.326846)
(26.2655 6.4627 0.0106176)
(23.4996 6.87845 -0.113803)
(23.4196 5.7214 0.056372)
(22.0219 5.36458 0.0545411)
(21.8436 4.46425 0.113808)
(21.3981 3.33286 0.0802558)
(23.5751 1.05659 0.110091)
(23.8708 -0.481683 0.656633)
(21.967 -6.48527 76.2148)
(-102.765 -8.18723 -11.4336)
(82.9652 -30.9098 -10.627)
(-22.0383 -11.544 0.431378)
(56.4198 -21.4432 1.28246)
(-2.49392 -0.818036 2.22881)
(39.3139 -9.2369 1.43444)
(14.9923 3.07225 -0.0343373)
(28.8413 2.5797 0.413201)
(19.6672 7.68227 -0.454258)
(23.2936 7.0663 -0.109648)
(19.737 8.61083 -0.305467)
(20.7113 7.57568 -0.0825497)
(19.4005 7.72985 -0.0851993)
(19.8066 6.30744 0.00614813)
(19.3025 5.65476 0.0270499)
(19.4599 4.37953 0.0188446)
(19.859 2.82501 0.123127)
(22.7268 0.182882 0.415359)
(23.8735 -0.89726 1.02681)
(87.3589 -60.1932 144.172)
(-13.4334 12.0137 -34.3508)
(99.547 -2.84004 7.25469)
(-11.1833 -2.25251 -5.89543)
(56.9457 -15.2093 3.2491)
(1.64552 3.12479 -0.89236)
(27.9358 -19.8895 0.49244)
(10.8861 10.1814 -0.22871)
(21.3728 -0.333121 -0.574801)
(15.1364 10.2959 -0.324709)
(19.4332 5.55249 -0.266572)
(16.5779 9.0719 -0.120088)
(18.3159 6.38746 -0.0616596)
(16.5012 7.23713 -0.0213009)
(17.0318 5.73655 0.265474)
(16.9673 5.26868 0.0485293)
(17.164 3.60316 0.0808568)
(17.4732 1.66968 0.276251)
(20.1761 -0.346362 0.839427)
(20.7809 -0.851116 1.23508)
(77.7538 55.7952 -99.2033)
(-5.01326 32.112 1.92451)
(101.339 9.71449 14.6575)
(7.123 5.96765 3.82519)
(61.7389 -7.64366 8.31512)
(10.3714 18.6931 0.613047)
(27.2493 -2.98786 1.41626)
(7.90104 3.79002 -1.08711)
(13.8419 6.14845 -1.14013)
(10.9269 8.41688 -0.954218)
(14.9453 10.9717 -0.343411)
(14.2358 11.8709 -0.0998425)
(15.9259 12.2017 0.123359)
(15.2242 12.3339 0.396811)
(12.0238 6.22431 -0.0669863)
(12.9122 4.62939 -0.101106)
(12.4436 3.24681 0.125442)
(12.6039 1.41272 0.614759)
(15.0246 0.389874 1.04618)
(15.3428 -0.11135 1.02499)
(62.5319 62.4429 -20.434)
(-93.2908 48.8539 -23.2669)
(78.8555 19.783 -1.68323)
(-12.6851 15.8185 -8.44862)
(34.2994 1.2472 5.11344)
(3.71813 22.2034 6.36995)
(24.2929 12.9591 3.71374)
(15.4867 3.40524 -0.383501)
(14.6223 4.67569 -0.627299)
(12.8833 6.51004 -0.265146)
(13.0217 9.88979 -0.147736)
(12.4507 10.4336 0.00306911)
(13.2123 10.8812 0.0742692)
(13.7648 10.3974 0.129621)
(11.3949 11.0136 0.169344)
(8.35987 3.78873 0.240998)
(9.56106 3.17853 0.28392)
(9.64196 1.57291 0.438553)
(12.6002 0.66872 0.824527)
(13.4515 -0.357461 0.886357)
(103.768 144.219 -45.3112)
(-6.71977 23.7738 -22.364)
(95.9812 19.2347 -31.8)
(16.1528 27.7857 -21.1625)
(48.6966 28.4103 -7.81675)
(2.62662 20.4031 -5.33747)
(11.1209 12.4803 5.09171)
(20.262 1.77828 2.38206)
(21.1544 3.16193 0.536776)
(17.2182 5.63971 0.409359)
(14.2572 7.29586 -0.138143)
(12.472 7.23897 -0.375588)
(11.7552 6.91 -0.3145)
(11.7994 6.25798 -0.207127)
(10.2546 5.40459 -0.0964505)
(8.07999 3.46573 -0.0495605)
(9.26528 1.66512 -0.309862)
(10.3833 0.506879 0.0122808)
(13.7057 -0.334426 0.515219)
(14.9926 -0.86306 0.856025)
(306.209 -16.0094 -245.535)
(25.7432 -42.3775 -53.9415)
(102.651 -9.4726 -29.1234)
(13.4832 13.5462 -22.1921)
(50.5196 26.683 -12.4252)
(25.1905 29.5079 -12.8025)
(38.1791 19.4701 1.6469)
(34.2265 -12.6308 26.1648)
(26.7467 4.40254 6.39928)
(20.9233 8.79075 -2.68065)
(17.6786 10.792 1.58505)
(14.1325 9.74783 -0.0148108)
(12.3183 8.1039 -0.594585)
(11.9441 6.03959 -0.584495)
(11.0173 3.13153 -0.446395)
(9.14692 -0.289269 -0.0506228)
(10.2097 -0.85016 -0.0243413)
(11.3535 -1.88088 0.113029)
(14.2639 -1.79024 0.392278)
(15.2895 -1.40603 0.706386)
(254.336 -25.9211 -43.8013)
(98.8621 -7.45855 -17.978)
(118.255 27.9931 -26.2442)
(14.6562 36.6099 -16.9902)
(50.6997 56.38 -11.4266)
(15.446 14.9838 -7.40415)
(45.7344 4.15447 21.581)
(40.4895 27.9381 33.4267)
(27.1699 19.8816 8.39763)
(17.8227 16.885 2.86897)
(13.6767 15.1003 0.971996)
(11.242 12.5633 0.108099)
(10.5555 8.30542 -0.537604)
(10.7598 4.42003 -0.512777)
(9.87973 0.725745 -0.0205388)
(5.40914 -0.26464 0.656887)
(7.42561 -1.60991 0.458232)
(7.7623 -2.16722 0.363452)
(10.9875 -2.07237 0.672133)
(11.9737 -1.61177 0.634867)
(160.022 -50.351 -70.1423)
(-110.077 5.09391 -38.5656)
(46.1426 28.7783 -37.8466)
(-91.5644 29.9239 -3.65372)
(29.8651 57.5188 -5.56599)
(-65.1357 -4.44423 10.779)
(6.87386 55.7112 11.8482)
(-11.7448 41.4285 10.3544)
(5.56606 30.5673 2.55719)
(-4.64294 19.7192 0.944245)
(2.17119 15.4012 -0.0654612)
(-0.606192 10.0993 0.206462)
(3.63601 5.58686 0.471733)
(2.89904 1.8749 0.581631)
(0.130193 -0.254087 0.256875)
(2.63625 -1.54559 0.129835)
(2.78737 -2.54526 -0.0489761)
(4.07719 -3.30031 -0.0808428)
(7.0625 -3.16998 0.529888)
(8.37498 -2.51015 0.494322)
(211.187 -313.242 3.48272)
(17.8 -52.6631 -37.2125)
(67.7727 4.40514 -42.6182)
(-62.9698 27.2519 -5.47294)
(40.8962 48.836 -4.66163)
(-44.2617 21.7502 5.34522)
(4.99761 70.8493 0.751617)
(-24.176 11.7191 0.686291)
(-0.557092 36.2135 -2.0345)
(-11.3448 10.3938 -1.69196)
(-0.630476 16.9118 -1.92674)
(-4.55147 4.82176 -1.22002)
(0.4911 5.33764 -0.9303)
(-0.717198 -0.644392 -0.66197)
(1.62683 0.0229701 -0.399227)
(1.35728 -2.53772 -0.38771)
(2.50948 -3.42695 -0.125153)
(2.82733 -4.50292 0.105465)