/*--------------------------------*- C++ -*----------------------------------*\
  =========                 |
  \\      /  F ield         | OpenFOAM: The Open Source CFD Toolbox
   \\    /   O peration     | Website:  https://openfoam.org
    \\  /    A nd           | Version:  10
     \\/     M anipulation  |
\*---------------------------------------------------------------------------*/
FoamFile
{
    format      ascii;
    class       volScalarField;
    location    "2.9";
    object      k;
}
// * * * * * * * * * * * * * * * * * * * * * * * * * * * * * * * * * * * * * //

dimensions      [0 2 -2 0 0 0 0];

internalField   nonuniform List<scalar> 
12920
(
2848.12
1580.13
959.108
674.853
475.244
360.77
280.613
235.23
197.268
176.315
157.784
146.878
138.232
134.566
129.847
122.052
114.72
101.327
92.6556
82.6238
2054.26
2326.46
1401.65
872.608
676.299
465.385
354.107
299.329
254.185
237.292
221.223
215.846
208.999
202.317
188.185
167.803
150.794
142.653
141.428
144.01
2452.12
3086.44
2006.76
1329.28
906.751
603.797
415.767
324.234
261.003
225.677
192.515
170.829
153.29
142.492
136.19
134.051
134.381
136.826
141.601
141.513
3714.53
6275.76
2917.47
1767.28
1090.47
721.098
484.199
351.636
268.372
224.942
191.467
170.851
155.761
145.466
137.046
131.212
128.884
126.202
123.364
113.445
1083.21
2512.05
2570.85
2253.15
1385.58
890.944
593.217
411.937
300.02
237.873
204.739
186.282
172.424
161.507
152.287
146.733
144.328
140.669
133.942
110.685
2789.89
3382.08
2692.92
1978.71
1340.99
964.572
663.587
496.254
374.315
294.184
239.929
203.68
182.916
167.355
157.396
150.326
146.746
138.749
129.946
103.023
2324.31
3008.23
2035.6
1247.81
959.046
783.889
598.615
463.169
362.944
292.878
243.544
206.356
189.552
178.605
164.92
154.043
148.586
138.087
126.865
93.9659
2111.2
1719.11
1295.83
1112.8
951.849
859.727
545.642
325.635
227.757
165.385
152.316
139.705
134.938
128.122
201.243
166.803
154.227
142.552
128.097
87.3765
3320.18
2766.18
1908.44
1337.99
875.528
396.957
252.225
150.049
125.814
93.3343
96.5395
103.934
102.992
94.2101
144.806
170.503
151.3
142.349
124.919
80.3277
7405.52
4513.59
1762.68
1198.41
1056.51
716.674
294.681
134.705
131.763
105.813
117.337
107.01
92.6782
82.9753
115.509
153.426
136.128
129.627
117.159
82.1317
10862.6
3846.89
1621.93
839.06
425.587
224.764
161.447
107.093
103.707
110.043
93.5593
80.3638
75.668
71.2493
88.765
144.624
125.692
118.699
109.403
91.2578
4269.85
4962.74
2653.49
1385.42
917.233
491.4
223.923
124.953
82.1283
69.3756
73.7167
77.0157
66.8318
49.6638
75.5694
125.274
117.82
114.836
109.945
104.414
2938.28
3223.82
1983.62
1067.45
665.706
558.706
311.937
172.943
144.793
129.27
114.142
95.3812
73.8106
59.4248
93.6717
93.8252
97.6728
103.286
105.67
103.936
4042.53
2803.58
1898.16
1399.99
935.089
705.998
473.551
333.328
243.436
193.801
159.649
132.336
109.428
92.105
80.7307
74.9232
74.6619
77.2557
87.06
89.5934
1832.56
2470.36
2705.53
2193.66
1130.83
647.252
413.333
333.911
251.435
209.549
163.224
133.973
111.02
94.0664
81.6532
73.2443
67.2729
63.4615
63.5697
63.7746
16285.5
5253.02
1910.91
1082.76
711.727
532.127
404.025
367.734
296.859
241.171
172.156
132.762
108.034
94.4594
84.4322
76.6467
71.2582
66.1259
63.0694
59.8281
4644.85
2530.16
1430.95
768.097
554.477
437.878
379.447
347.165
302.203
258.16
190.966
143.079
114.427
100.896
93.2902
85.171
80.1389
73.5478
70.0054
61.4476
1572.53
2057.03
1575.92
877.396
500.579
344.558
288.696
266.564
247.573
230.513
192.517
157.564
130.917
116.81
109.493
101.921
95.992
89.837
87.5481
80.2448
3641.69
3203.65
1917.76
953.799
477.63
344.234
294.804
257.89
224.27
207.513
178.141
154.848
135.727
124.373
116.799
111.062
108.327
102.765
100.977
91.4945
2342
2005.18
1779.69
1185.68
679.965
501.394
407.155
303.717
219.67
173.581
141.974
124.983
113.176
103.688
97.6578
90.5388
85.6926
78.7383
75.2706
66.7098
1918.42
2048.48
1438.76
936.047
717.05
629.838
545.928
475.994
409.957
378.961
354.63
345.347
332.471
314.81
292.291
264.305
239.88
218.115
211.053
197.897
3989.71
5328.2
3395.71
2068.94
1692.86
1131.84
901.917
773.13
670.587
637.804
595.1
586.98
570.169
559.749
536.648
507.951
476.841
454.37
450.291
460.449
4239.97
7277.39
4667.78
2995.96
2063.38
1427.8
995.59
821.674
676.85
610.342
535.088
496.617
454.739
434.136
416.896
413.254
416.13
427.832
435.081
426.492
17714.8
15049
5273.21
3503.07
2099.36
1599.6
1029.33
848.679
670.532
607.843
527.709
488.273
448.498
424.74
401.515
388.363
382.31
379.781
376.703
350.839
13255.7
10855.1
5097.69
4077.85
2245.49
1808.05
1188.08
940.963
707.159
630.824
550.703
514.582
475.498
450.366
427.142
413.596
407.36
397.191
378.576
318.315
4388.66
6651.62
5463.65
3855.42
2463.87
2029.37
1436.13
1226.24
935.662
773.822
633.224
545.921
493.033
454.621
428.569
409.492
398.477
374.177
349.512
279.595
4592.74
5521.65
3757.33
2862.19
2225.99
1930.97
1448.37
1165.68
912.43
754.151
628.126
536.358
487.796
453.754
427.265
407.035
391.189
357.813
326.58
239.782
5146.06
5065.12
3574.86
2910.41
2337.6
2077.91
1655.63
1281.16
899.553
675.008
563.836
502.057
469.844
439.464
436.65
409.372
391.172
356.289
316.562
211.783
11939.5
9165.6
5441.23
3332.46
1923.91
1459.27
1359.03
1076.53
770.849
607.432
536.885
504.905
468.409
426.814
393.454
396.614
384.848
357.488
300.926
198.206
10507.9
11211.4
6459.52
4007.45
2356.72
1917.37
1324.61
918.941
735.799
616.028
562.732
483.847
405.268
344.346
315.542
370.33
367.969
349.791
297.005
216.583
17342.7
6674.26
2967.57
1731.87
1005.47
1150.09
1094.85
757.238
605.745
558.947
481.712
389.859
341.329
320.491
303.434
322.419
321.146
316.606
294.86
268.662
16975.2
7109.26
4122.11
3141.43
1517.07
1321.58
973.379
827.432
548.784
470.851
452.188
410.548
344.339
269.761
258.159
281.611
290.05
301.746
305.049
308.182
5003.73
7277.84
4498.58
2356.34
1357.54
1300.6
942.978
771.951
590.88
505.729
414.235
344.842
268.528
231.114
244.673
249.427
261.841
281.349
299.373
305.517
7374.52
5008.25
3960.82
2955.47
1820.06
1641.17
1100.54
816.659
600.774
488.249
406.495
341.435
288.396
249.018
226.588
218.033
219.602
231.324
257.906
262.225
4241.22
6512.71
4375.76
3359.38
1883.32
1458.91
962.772
815.831
608.089
512.661
408.508
348.919
293.719
255.685
226.104
206.835
195.314
187.18
187.003
187.466
10013.8
9920.49
4233.86
2249.42
1580.63
1264.83
967.898
856.769
654.468
552.39
412.531
345.129
288.1
257.964
230.932
212.939
199.316
188.446
180.541
175.039
11516.3
6875.95
3266.42
1799.23
1337.45
1041.46
915.477
833.525
693.202
616.295
439.727
360.075
301.926
274.98
249.558
228.783
214.058
199.539
191.771
174.202
1993.47
5512.54
3571.44
1953.65
1116.55
891.763
754.826
721.305
645.505
604.617
485.124
418.236
355.149
324.827
298.476
276.947
260.253
243.448
236.69
219.706
6887.04
6050.39
3024.58
1837.86
1035.81
964.934
814.197
710.925
594.664
553.314
474.163
424.445
371.365
355.245
340.893
331.526
321.192
301.959
291.216
257.887
3562.02
3439.66
2717.4
1539.52
981.365
858.804
761.008
647.467
527.029
422.835
347.439
303.442
272.561
251.899
237.81
218.902
203.403
184.723
175.437
151.602
1420.71
1962.4
1570.84
1017.88
849.723
778.691
704.299
613.269
521.335
467.044
425.699
396.316
366.61
334.81
303.063
269.931
248.993
237.534
233.013
216.754
3076.71
6107.59
4165.01
2579.34
2084.13
1475
1224.45
1069.32
929.495
888.036
822.194
811.713
783.562
769.179
738.201
715.025
693.235
680.822
674.368
661.679
11929.5
8846.51
5950.79
3675.47
2594.51
1742.67
1334.07
1088.28
928.496
844.636
767.929
734.865
697.867
681.455
660.242
647.955
638.117
627.076
612.97
575.349
19377.5
9983.83
5746.85
3911.6
2673.9
1940.4
1400.73
1158.16
953.71
854.68
759.802
711.95
667.111
637.149
607.063
585.226
568.458
549.954
530.118
478.634
16964.6
9167.46
6094.26
4097.67
2708.34
2094.02
1514.51
1222.96
993.982
877.934
776.558
719.23
668.024
632.356
598.553
571.973
551.729
520.695
487.191
414.685
11810.2
8706.7
7102.61
4533.07
3069.15
2420.96
1768.49
1472.04
1158.73
979.625
827.883
732.434
664.776
615.711
577.333
542.999
516.542
470.501
434.793
354.255
12543.8
12661.5
7165.08
4267.63
3079.43
2364.09
1770.82
1402.66
1125.33
937.315
796.981
703.062
645.356
601.343
562.846
526.43
490.152
434.719
392.585
295.052
15142.9
9278.37
6508.85
4325.82
3151.75
2571.72
2135.14
1587.54
1150.33
900.506
761.928
674.166
622.419
578.986
551.488
517.612
477.143
417.324
360.54
256.827
11043.4
11488
7326.24
4004.52
2461.64
2038.33
1961.78
1437.67
1052.26
854.803
734.309
661.944
603.768
553.446
510.993
497.991
469.323
409.656
336.339
254.397
14934.4
13244.2
7161.71
4624.56
2719.76
2202.54
1653.34
1257.68
1004.5
852.841
734.323
608.254
503.574
443.947
438.819
465.93
455.499
415.181
347.147
303.129
18800.5
8796.46
4240.14
2349.33
1615.17
1618.05
1511
1087.55
879.31
795.315
516.074
394.793
400.137
404.372
409.139
416.546
421.173
415.296
394.326
390.717
18127.5
7433.72
4691.86
3002.35
1908.37
1649.24
1438.66
1117.53
816.951
703.075
626.955
536.778
444.606
374.462
356.18
375.38
399.253
418.199
430.711
443.019
4622.87
6576.42
5291.82
2874.17
1981.9
1679.51
1387.68
1124.62
825.977
685.522
545.368
452.409
368.183
333.182
341.013
350.379
374.062
403.171
426.713
438.954
9159.49
6710.49
4797.32
3234.99
2297.87
1872.07
1353.81
1001.72
768.729
617.198
511.866
434.191
378.277
339.499
322.113
319.111
325.171
345.824
373.925
384.513
25085.8
8388.68
4789.01
3351.42
2249.43
1604.09
1240.87
975.809
752.143
615.823
509.265
437.902
379.551
338.31
309.538
292.533
285.267
285.039
289.876
300.78
10952
8325.4
4340.66
2508.99
2039.85
1472.92
1228.93
1001.36
776.898
641.215
514.15
442.244
382.63
343.399
311.932
290.723
276.373
266.509
262.061
260.485
13987.2
7790.44
3859.27
2203.31
1745.49
1314.01
1172.66
1014.53
828.133
722.37
560.528
485.358
414.089
372.227
335.006
307.846
288.53
271.185
261.499
243.65
16419.1
7983.27
3986.44
2247.12
1589.56
1283.94
1088.9
1016.35
876.406
803.609
654.523
572.984
487.558
441.486
401.751
373.188
351.478
331.037
320.367
296.789
21518.5
6389.78
3727.64
2263.15
1540.34
1373.85
1098.31
987.496
820.036
768.009
666.797
613.368
542.675
510.869
475.852
454.491
431.258
403.562
382.029
332.208
2296.73
2548.4
2433.35
1809.29
1360.89
1191.79
1050.27
870.239
671.208
508.357
409.142
360.084
329.767
305.108
284.698
259.256
240.874
215.606
202.553
170.762
650.222
1614.59
1489.4
1007.43
878.307
813.082
752.824
652.694
558.435
488.117
436.95
386.983
344.514
303.331
275.373
252.152
241.285
225.174
216.799
195.724
7764.71
6573.41
4137.95
2865.84
2347.53
1691.91
1511
1297.13
1169.82
1098.92
1027.76
1008.35
974.487
958.991
934.548
911.814
890.795
867.15
846.647
801.467
20876.8
10435.8
6483.53
4139.18
3007.82
1951.21
1626.24
1286.96
1162.47
1047.78
991.52
952.354
925.846
902.554
877.974
848.423
822.789
786.159
754.293
699.28
18912.4
9173.6
6608.76
4212.88
3123.92
2110.69
1707.77
1359.27
1189.97
1049.97
970.435
910.296
870.452
829.457
795.254
757.945
726.934
686.521
649.497
588.433
34776.8
9423.62
6688.65
4227.57
3194.99
2222.07
1814.28
1416.07
1234.24
1066.54
973.592
897.095
848.369
799.571
759.749
715.851
677.608
623.855
573.506
502.328
21314.5
11219.7
8857.38
5457.94
3715.54
2611.49
2040.29
1637.89
1348.69
1135.45
992.97
889.364
822.759
762.824
714.67
662.205
615.488
551.2
498.796
419.092
33339.2
20047
9993.52
5257.57
3751.48
2603.9
2035.72
1578.73
1302.06
1085.17
948.881
849.11
792.256
735.744
683.995
624.276
564.455
490.073
429.695
340.872
22635.2
13993.3
8865.58
5358.2
3891.57
2918.09
2382.94
1738.1
1313.96
1052.97
906.199
808.143
747.044
694.687
655.52
597.297
529.771
448.447
378.361
301.981
8928.62
13199.7
9288.22
4600.71
2878.69
2425.6
2276.71
1605.15
1226.83
1007
863.899
770.521
702.028
650.007
603.042
569.846
513.423
437.648
371.43
320.665
18394
13123.6
8240.41
4859.39
3047.43
2407.31
1876.7
1466.18
1182.46
1000.54
840.573
677.407
568.925
535.837
539.435
544.029
516.584
467.992
426.172
416.039
18101
10313.2
5240.55
2919.47
2075.46
1962.09
1769.26
1313.18
1085.27
953.266
676.459
497.893
461.188
477.24
496.018
516.797
523.335
520.687
518.471
525.888
22612.6
8974.23
5346.63
3145.95
2342.32
1967.92
1764.72
1302.77
1007.68
856.896
720.208
593.669
501.066
457.02
446.558
489.262
521.219
546.928
567.816
584.439
7894.24
8090.23
6137.19
3421.27
2507.21
1967.31
1651.52
1336.45
977.974
793.956
630.703
524.862
452.391
423.73
447.08
463.817
498.081
532.264
558.927
573.915
13933.3
7895.66
5716.26
3517.37
2789.51
2017.5
1592.81
1153.27
914.803
722.931
608.154
521.164
469.372
433.168
424.212
425.614
439.096
464.649
491.115
506.914
26893.5
8427.48
5507.98
3435.67
2597.16
1769.69
1515.3
1105.01
885.051
708.618
605.701
521.035
465.48
422.46
398.199
384.9
383.919
387.363
398.699
416.752
14860.5
9052.75
5001.01
2907.39
2465.31
1662.92
1483.98
1108.8
902.058
726.232
616.608
530.193
473.411
425.193
394.969
371.726
359.889
352.078
350.86
353.161
14615.3
10608.9
5055.48
2719.67
2174.37
1561.51
1429.27
1135.74
960.807
795.165
667.739
577.685
510.555
456.311
416.769
383.924
363.8
344.993
333.93
321.396
23872.3
11802.4
4861.81
2504.8
2083.38
1571.77
1420.33
1231.24
1076.57
930.411
787.998
681.038
597.897
538.695
495.978
460.047
436.937
414.319
400.966
381.539
14981.7
7722.02
4445.01
2480.9
1920.91
1575.6
1300.51
1154.34
1002.66
932.391
828.134
760.346
680.679
630.017
580.482
545.607
510.742
477.799
443.598
404.484
3973.45
2648.11
2261.71
1799.92
1544.96
1322.06
1114.17
867.78
641.464
485.107
401.426
356.356
325.404
295.415
269.665
240.734
224.782
200.28
187.152
153.6
2860.93
1933.2
1240.05
1008.7
911.349
810.26
709.15
605.284
512.22
426.355
352.516
299.741
266.665
246.74
235.432
220.14
209.243
190.879
181.989
163.565
16541.5
7776.79
4537.14
3477.46
2763.34
1978.96
1955.72
1520.9
1523.29
1307.15
1306.37
1221
1230.28
1188.2
1182.15
1134.97
1117.14
1063.95
1035.13
963.639
21450.2
10987
7248.59
4841.83
3568.95
2308.95
2085.45
1545.2
1523.91
1304.72
1311.37
1220.15
1223.23
1166.24
1147.35
1082.66
1050.26
979.582
937.968
874.031
15033.9
11170
7842.49
5028.97
3786.85
2440.9
2199.11
1620.95
1555.12
1307.1
1280.87
1171.82
1152.88
1078.77
1047.36
976.973
936.918
868.06
820.724
760.939
17627.9
11941
7582.25
4889.66
3887.47
2503.75
2317.5
1681.7
1603.49
1321.19
1278.07
1147.21
1120.27
1036.83
999.393
920.099
865.832
781.475
719.723
655.107
26519.6
11018.3
10228.6
6090.3
4623.37
2871.2
2579.98
1899.82
1687.39
1377.92
1270.58
1131.34
1076.9
989.889
933.886
851.123
780.535
689.314
617.812
548.817
20981.8
14782.9
10837.6
5813.55
4743.58
2899.98
2550.86
1870.64
1631.24
1333.29
1225.1
1088.96
1045.82
957.075
889.858
792.039
703.213
596.953
517.991
454.327
26910.2
16430.8
10828.5
6176.98
5049.83
3306.96
2736.36
1979.72
1581.62
1283.87
1142.04
1025.67
961.985
892.312
855.49
748.362
643.11
537.687
468.519
426.267
23306.7
17101.4
11245.8
5281.53
3596.91
2867.07
2629.96
1828.67
1466.78
1216.02
1066.4
961.521
893.927
835.723
787.583
723.552
630.481
544.512
498.329
476.167
17731.1
14072.4
9850.02
5225.17
3797.32
2760.23
2232.01
1751.29
1437.13
1183.49
970.977
791.423
748.812
743.8
730.134
712.171
666.533
629.451
616.68
619.402
23728.5
11158
6510.41
3725.51
2758.42
2361.4
2061.29
1612.89
1364.98
1121.09
865.317
645.352
635.663
684.256
689.775
715.56
717.79
720.623
734.148
748.294
17118.6
9627.77
6047.77
3873.11
3057.73
2426.95
2188.44
1559.95
1263.25
1034.54
835.434
697.314
669.994
656.252
650.369
710.201
731.875
762.798
791.281
809.386
22420.8
10812.6
7394.47
4171.82
3482.2
2554.88
2003.6
1554.98
1210.68
957.405
808.33
684.956
641.47
609.445
665.022
676.251
711.666
746.111
772.268
789.78
26208.3
9065.06
6836.15
4315.67
3678.92
2377.33
2117.1
1499.13
1217.45
950.985
826.014
714.621
668.265
626.606
621.77
622.155
642.601
664.592
689.163
711.16
16931.2
9802.14
6950.45
4071.73
3424.31
2217.09
2046.66
1376.89
1162.57
907.135
812.772
698.495
649.497
596.583
578.365
564.804
567.585
573.045
588.039
613.605
11582.1
10937.2
6336.95
3905.69
3238.2
2091.97
1976.63
1359.36
1197.23
916.293
838.64
706.66
664.187
591.463
569.377
536.609
530.587
520.075
521.265
528.269
12354.6
13025.4
6824.07
3511.11
2974.72
1990.62
1910.02
1360.69
1256.47
952.322
892.201
743.835
704.37
616.395
584.509
535.935
518.768
493.365
482.066
477.241
16429.7
10796.1
6268.29
3103.61
2993.75
1945.7
1997.77
1510.68
1448.37
1115.57
1039.57
851.241
808.234
703.826
672.427
612.003
594.196
562.558
551.409
542.086
24098.9
10938.1
5903.79
2822.01
2718.02
1739.67
1657.98
1269.59
1323.71
1121.81
1106.41
950.423
905.951
783.086
736.346
655.657
620.328
575.763
555.14
551.01
2032.79
3057.74
2124.06
1765.9
1510.04
1181.14
842.566
576.086
449.49
378.911
334.189
289.574
253.778
216.831
189.063
161.583
143.552
123.303
115.693
99.6737
765.934
816.439
601.829
967.524
857.063
933.453
691.15
639.119
532.368
420.314
817.432
698.681
605.412
462.877
583.774
716.617
661.781
915.813
657.206
842.607
752.725
413.148
639.29
570.353
571.605
459.396
718.581
621.243
145.621
238.556
143.518
1071.56
962.473
987.597
848.801
141.784
138.157
128.83
918.908
735.783
798.559
677.829
95.0601
125.811
99.4741
664.383
541.687
643.236
535.839
94.5154
97.0452
110.085
514.22
471.98
519.215
501.498
101.853
114.055
114.04
463.551
451.922
494.211
460.857
104.07
111.029
100.067
446.696
427.285
446.526
402.495
95.9528
97.5214
89.584
418.568
391.475
388.758
348.932
76.0353
87.4216
65.9121
381.357
359.814
336.52
301.574
148.889
260.033
134.528
1014.44
848.998
1003.16
773.4
131.67
118.687
115.106
782.701
667.6
689.494
574.493
109.299
119.29
122.286
637.678
544.655
556.21
526.492
115.891
118.991
111.334
530.209
509.63
518.562
475.668
111.304
105.804
90.2829
498.415
451.268
451.23
379.199
95.0668
85.8791
78.612
433.013
380.104
357.43
309.946
85.2274
77.6424
73.7793
364.818
322.851
299.871
282.125
64.1685
72.7952
50.0114
309.927
281.154
278.62
255.817
114.841
175.319
131.903
904.814
713.899
819.754
747.255
102.89
123.525
91.2824
640.385
533.162
684.639
497.914
110.523
83.6887
74.0317
516.559
492.121
460.851
407.593
98.7755
72.8246
73.0864
485.712
446.786
400.288
393.329
83.3566
74.1368
77.3181
426.207
367.25
390.558
375.293
76.5372
77.691
75.9596
350.055
314.454
368.146
336.507
72.3311
72.6989
63.3587
307.771
294.175
322.396
274.936
47.8107
56.8908
34.7118
286.838
253.829
255.219
224.81
133.957
267.221
134.984
695.854
755.691
652.34
730.178
90.6337
120.202
88.1224
708.939
500.349
689.341
499.796
70.3489
86.5267
78.2582
459.356
400.258
464.902
408.379
71.2646
78.8432
79.0645
393.253
389.164
402.605
376.883
77.2066
77.9235
69.2955
387.068
369.029
359.233
318.074
70.4328
66.1573
58.5624
359.316
318.706
304.586
259.665
55.4948
54.5672
42.038
302.73
250.129
240.777
200.777
34.5814
39.999
29.8684
232.811
214.693
191.703
187.162
1141.38
1249.71
1000.9
1843.72
1491.35
1632.94
1304.99
846.699
940.005
790.522
1374.61
1075.63
1229.12
1025.61
638.284
746.261
628.463
996.83
846.094
965.56
832.575
549.586
608.307
573.211
805.851
717.042
803.729
728.716
513.062
560.59
516.593
694.767
644.555
704.275
633.347
478.724
499.642
449.209
630.299
590.201
609.703
543.716
437.444
433.451
389.095
576.469
538.779
524.12
474.183
397.65
375.521
334.571
527.271
499.012
460.558
432.648
993.73
1254.12
895.786
1593.77
1268.49
1507.92
1144.99
775.097
806.889
670.464
1192.12
1004.33
1060.1
894.466
633.33
645.403
601.697
950.349
831.262
856.549
779.282
578.952
592.154
534.345
805.489
728.574
766.785
619.818
505.037
504.154
419.635
700.297
613.924
563.457
447.604
423.019
394.801
338.751
585.267
506.777
416.417
360.246
358.33
327.442
311.578
484.998
434.354
357.333
367.119
311.325
308.476
286.024
421.664
406.861
369.121
374.367
837.701
1008.98
876.461
1421.64
1106.43
1362.76
1137.13
628.551
796.588
591.006
1019.44
855.807
1033.47
810.387
567.31
550.238
487.876
820.304
748.193
764.08
681.54
507.967
478.838
464.655
738.165
598.679
666.258
622.673
410.019
458.264
431.635
546.634
442.579
604.238
545.435
348.33
421.177
380.995
419.459
391.018
526.405
466.294
328.488
364.966
311.891
391.528
392.503
446.232
388.306
287.216
292.38
259.131
387.832
378.492
372.588
348.985
906.714
976.176
916.972
1333.33
1172.93
1362.11
1216.95
594.012
829.276
606.658
1061.22
811.16
1084.42
842.244
480.037
559.321
484.163
760.047
670.659
771.67
659.096
458.407
475.712
438.277
654.465
611.326
640.969
569.781
423.112
416.567
367.852
593.288
534.239
538.19
471.415
362.438
352.675
300.377
514.232
448.683
451.252
383.798
286.957
279.408
237.715
426.673
366.998
361.349
320.224
248.506
228.952
218.751
352.865
335.815
312.068
301.689
1563.85
1716.51
1376.53
2207.07
1711.96
1922.84
1546.77
1130.4
1296.57
1081.55
1569.53
1262.59
1455.03
1216.77
896.665
1019.41
883.328
1187
1018.65
1152.28
1006.13
758.917
851.905
767.266
972.23
862.416
967.152
859.489
677.495
739.874
661.296
833.144
762.081
825.025
726.478
618.229
635.689
565.639
743.412
692.111
695.79
617.873
564.764
545.394
495.878
676.394
635.834
597.878
556.2
523.504
483.237
457.736
624.367
593.3
547.363
530.746
1334.84
1564.81
1209.08
1819.48
1502.27
1718.77
1376.47
1060.6
1125.52
954.528
1418.48
1199.99
1293.72
1111.56
881.242
913.998
829.048
1140.66
1003.99
1065.57
960.569
862.178
826.131
847.614
894.869
821.943
865.385
889.97
692.693
702.999
708.969
764.831
669.109
730.493
736.782
525.756
389.791
358.269
661.659
571.737
435.436
412.184
454.803
361.3
382.807
550.994
514.991
416.426
438.558
432.921
386.506
396.836
509.803
510.242
445.674
466.854
1175.03
1462.5
1200.22
1710.2
1348.24
1705.03
1357.17
917.566
1093.41
869.865
1260.57
1079.67
1246.44
1024.81
799.946
822.593
734.426
1035.74
936.204
975.311
869.524
772.446
748.677
758.367
831.983
733.119
704.159
805.288
589.725
467.348
606.184
404.046
573.201
361.753
625.636
393.865
548.796
483.652
444.976
437.145
592.769
519.004
407.081
462.91
406.774
441.406
452.152
499.499
456.919
400.48
392.888
370.568
454.625
465.722
448.715
433.846
1232.63
1482.62
1279.26
1683.4
1379.59
1719.18
1418.09
869.042
1146.3
901.193
1259.35
1017.27
1289.74
1037.69
721.937
825.462
704.485
962.917
850.945
954.23
814.38
648.84
683.499
601.664
822.749
733.684
783.234
673.25
558.989
567.409
496.12
701.215
609.752
634.013
551.594
467.099
474.611
404.448
582.147
506.811
526.672
455.338
387.175
381.904
342.807
486.073
442.245
435.809
404.404
357.409
335.163
323.293
433.9
420.964
398.062
387.658
1749.26
1981.72
1595.78
2505.41
1889.73
2202.13
1776.84
1301.73
1500.2
1257.2
1740.76
1449.69
1668.19
1412.22
1054.54
1192.53
1042.07
1377.11
1190.73
1346.4
1172.71
894.052
1000.39
885.699
1137.37
1019.62
1119.32
980.127
789.827
849.264
745.357
989.279
910.29
938.291
823.518
717.799
713.497
635.528
888.096
835.347
791.391
733.754
661.482
616.869
579.872
820.309
779.467
724.186
702.112
616.709
572.147
555.02
765.541
722.965
694.961
670.528
1553.12
1771.98
1428.56
2101.98
1743.58
1971.62
1621.82
1242.55
1345.61
1161.08
1644.72
1406.06
1538.06
1347.45
1040.22
1113.48
1000.29
1342.08
1168.45
1291.05
1130.23
882.359
971.629
777.541
1115.03
968.16
1078.74
904.61
715.852
698.094
526.472
920.078
781.833
834.66
648.376
587.824
490.364
441.867
743.025
679.095
603.397
551.877
539.555
443
463.467
673.596
666.893
558.598
597.013
535.429
471.491
490.535
664.506
653.283
604.547
609.708
1400.41
1782.85
1404.61
1960.76
1588.8
2037.77
1579.41
1130.89
1293.51
1073.17
1505.03
1321.18
1467.56
1250.71
977.847
1022.92
909.57
1266.75
1109.95
1196.69
1043
753.472
878.502
776.41
1060.57
885.814
993.952
851.211
528.022
738.839
633.575
818.614
644.89
804.86
682.438
460.379
603.354
530.182
602.912
556.907
651.457
605.208
473.14
512.611
477.456
563.643
597.704
601.878
594.655
488.461
471.016
456.509
603.199
604.099
591.357
575.107
1423.93
1798.59
1457.51
2047.32
1589.53
2071.71
1591.01
1062.46
1329.81
1074.97
1464.78
1227.83
1460.33
1204.81
889.09
991.323
846.647
1172.04
1020.16
1126.84
962.809
755.79
811.883
693.772
970.971
831.572
913.448
781.174
622.505
653.661
568.937
788.661
678.405
743.362
652.428
519.861
543.156
473.994
650.237
604.086
626.026
572.505
464.077
456.092
427.997
597.102
582.616
561.678
541.761
443.993
422.258
411.042
577.878
563.098
535.794
525.291
1981.34
2325.08
1884.82
3217.03
2538.31
2935.02
2511.47
1539.14
1770.4
1507.52
2350.13
2090.97
2378.26
2111.55
1272.41
1440.1
1250.93
2016.62
1816.46
2038.5
1789.96
1096.03
1191.33
1040.41
1733.3
1638.57
1710.72
1540.41
984.962
996.412
878.57
1609.96
1531.19
1492.2
1377.59
908.414
847.671
805.648
1491.55
1448.72
1359.04
1403.19
850.907
799.922
780.012
1433.24
1382.89
1401.18
1368.32
784.917
771.872
738.555
1359.13
1266.7
1354.45
1284.14
1855.38
2086.57
1732.37
2870.64
2507.08
2677.3
2397.36
1504.65
1647.8
1451.14
2385.61
2124.97
2310.98
2091.67
1244.23
1389.14
1201.8
2039.66
1775.79
1996.2
1723.73
1021.87
1140.1
952.77
1695.05
1502.83
1637
1404.47
828.608
882.269
691.708
1445.93
1299.37
1326.82
1116.56
747.201
647.955
615.537
1276.81
1341.07
1088.82
1188.85
747.245
633.4
681.422
1364.74
1348.59
1262.97
1309.43
721.691
687.116
679.854
1338.08
1263.2
1304.59
1230.58
1695.44
2165.27
1679.73
2620.63
2340.73
2749.64
2285.84
1424.83
1567.37
1348.23
2263.86
2063.57
2177.61
1964.93
1181.34
1290.44
1114.55
1970.47
1699.81
1889.33
1624.04
933.46
1056.6
896.408
1613.08
1379.38
1543.45
1346.95
686.39
847.108
720.647
1303.83
1106.83
1293.26
1162.85
617.55
692.12
667.759
1081.9
1186.55
1155.07
1253.98
680.212
672.55
673.559
1260.93
1306.53
1288.16
1281.74
673.149
670
645.696
1300.43
1223.05
1274.25
1201.65
1686.6
2214.2
1669.66
2818.01
2269.87
2802.15
2152.12
1320.52
1535.23
1278.74
2143.96
1914.48
2004.83
1777.06
1091.76
1204.8
1030.18
1858.35
1602
1728.54
1522.02
880.449
975.187
841.49
1524.87
1347.91
1449.96
1348.15
722.873
805.37
710.957
1303.22
1192.8
1329.06
1222.58
671.158
685.194
639.343
1189.93
1270.92
1199.54
1181.88
661.149
631.442
612.03
1280.42
1262.51
1185.73
1151.01
633.867
605.997
590.121
1255.8
1194.06
1145.68
1082.4
825.183
796.853
749.257
799.469
788.297
833.422
781.363
852.474
834.756
772.934
853.059
811.776
876.741
761.715
791.572
695.967
695.17
488.748
760.843
711.757
609.774
898.388
932.732
932.266
963.416
900.458
928.307
930.433
859.42
829.749
895.82
841.462
866.24
812.393
889.987
887.535
889.987
953.26
893.515
916.231
792.03
920.237
826.404
509.841
792.259
802.859
743.711
634.348
865.53
648.528
670.96
591.872
661.003
629.231
695.561
607.638
580.92
637.941
476.313
418.309
585.106
643.943
361.206
518.427
493.817
439.042
356.11
533.05
483.455
342.562
717.135
792.444
777.802
791.469
755.313
764.557
741.881
669.567
680.62
738.041
644.359
717.776
624.587
692.375
602.308
433.429
720.932
544.149
671.185
377.843
654.761
537.902
362.475
545.567
500.989
499.781
355.171
595.297
717.905
667.844
644.23
467.172
689.287
568.248
667.219
759.908
734.468
700.488
762.402
716.015
781.409
742.929
731.825
665.96
682.429
696.13
692.425
700.661
720.918
818.586
869.112
876.105
891.782
749.725
851.264
860.873
759.596
483.967
772.689
747.394
595.659
704.221
804.953
800.847
804.261
864.144
815.463
824.65
781.158
837.251
769.094
726.317
762.486
785.427
733.185
755.145
802.419
564.82
429.099
525.612
350.378
547.517
349.491
540.736
637.549
638.194
616.237
669.606
611.367
668.459
642.748
610.501
564.862
592.866
590.685
587.29
585.028
616.058
615.317
417.207
510.181
694.593
373.256
656.866
646.778
586.255
364.33
469.199
580.749
360.515
559.395
610.133
661.583
695.869
721.913
684.576
696.547
665.313
682.926
630.546
607.354
615.255
651.763
601.486
635.426
647.425
395.47
496.836
393.954
948.049
984.742
920.281
947.391
270.656
338.591
281.426
939.197
805.905
898.954
765.631
187.372
227.146
193.144
668.483
573.979
620.105
542.681
161.145
165.728
156.473
479.939
422.706
458.756
427.367
142.238
152.139
153.571
395.64
381.63
406.868
401.271
137.786
153.454
153.294
367.814
357.324
390.143
384.019
131.185
151.109
147.769
352.762
347.847
371.576
361.755
109.317
142.585
122.566
335.351
354.92
340.512
351.93
340.72
468.891
362.207
832.054
884.702
917.347
891.161
386.237
175.891
216.533
416.37
435.928
369.784
173.135
440.34
148.656
148.267
478.576
473.144
440.309
148.846
322.2
109.039
127.816
365.798
324.592
365.218
112.422
262.561
91.5918
90.4769
253.91
244.376
262.343
90.6907
277.616
96.9806
99.6389
244.477
251.838
273.652
102.172
280.657
104.193
109.76
268.8
272.045
284.168
109.302
257.057
99.8085
104.04
266.863
262.487
265.119
100.7
229.519
90.8112
93.5812
246.246
241.91
235.852
90.4391
111.185
132.223
98.4876
307.606
327.252
275.678
291.661
486.71
601.541
428.784
1030.02
939.9
1035.71
969.916
404.611
219.982
288.601
441.366
416.005
428.802
208.866
344.242
130.517
120.935
380.555
376.052
345.558
119.378
355.605
129.751
132.88
365.698
354.429
359.441
132.918
312.558
106.248
114.779
296.57
297.962
313.456
114.425
299.319
117.04
116.996
307.833
304.065
308.279
115.596
246.453
102.344
100.967
274.158
262.221
259.667
96.1444
209.384
90.2403
87.0809
233.763
225.481
216.86
85.0999
182.676
80.1228
78.1443
201.147
195.358
187.166
75.8361
86.1131
102.311
75.8275
239.493
263.135
225.668
251.072
232.32
256.309
240.377
782.385
838.68
653.852
706.048
377.475
138.073
134.351
369.988
405.045
322.263
127.428
284.065
104.384
104.205
322.32
303.998
303.204
99.8399
248.819
106.005
90.5036
286.167
287.394
251.169
90.164
236.136
108.477
90.0341
289.786
284.51
240.272
88.9239
214.752
89.789
81.8045
245.692
235.811
218.014
80.659
201.915
78.305
77.1725
207.944
202.166
203.939
76.6893
190.988
74.6793
75.6255
192.053
189.296
195.911
74.0357
164.008
69.0053
68.9772
179.05
172.85
175.876
64.2159
78.626
85.281
81.4053
219.495
247.955
207.55
232.325
357.233
516.979
398.875
735.387
616.779
708.2
601.315
294.324
171.023
232.927
315.503
312.507
306.373
176.054
319.08
114.679
121.738
344.246
329.444
326.309
113.023
213.799
76.6328
80.7153
227.435
212.454
226.371
76.115
201.568
69.3306
71.0238
193.794
193.903
200.794
71.2047
209.195
75.7459
75.7814
206.012
209.406
209.16
76.3645
191.341
76.0814
73.7905
208.429
203.462
197.185
71.3659
152.281
63.6179
60.5913
177.241
167.665
161.833
57.2567
108.183
43.9812
42.9253
131.822
119.075
116.996
39.172
72.5083
67.5853
62.6959
186.98
211.416
168.084
181.868
223.582
347.712
220.731
515.471
524.051
575.456
561.471
161.513
193.535
185.369
471.864
445.958
496.318
419.671
138.187
164.537
130.763
398.701
389.056
403.315
374.357
124.773
126.775
124.601
361.633
339.909
346.675
296.817
106.718
115.367
98.9329
301.766
284.055
265.853
250.42
85.3093
89.8571
84.6311
253.783
224.394