/*--------------------------------*- C++ -*----------------------------------*\
  =========                 |
  \\      /  F ield         | OpenFOAM: The Open Source CFD Toolbox
   \\    /   O peration     | Website:  https://openfoam.org
    \\  /    A nd           | Version:  10
     \\/     M anipulation  |
\*---------------------------------------------------------------------------*/
FoamFile
{
    format      ascii;
    class       volScalarField;
    location    "2.9";
    object      nut;
}
// * * * * * * * * * * * * * * * * * * * * * * * * * * * * * * * * * * * * * //

dimensions      [0 2 -1 0 0 0 0];

internalField   nonuniform List<scalar> 
12920
(
5.6153
8.945
4.22533
5.82322
3.55581
4.26051
2.14731
2.01803
1.3173
1.18991
0.938104
0.855957
0.744106
0.704674
0.634873
0.581993
0.527758
0.466812
0.431479
0.374636
5.3716
10.815
8.37134
6.61986
5.83641
4.8415
3.69337
3.88332
2.49776
2.60983
1.99982
1.9839
1.73272
1.65928
1.44942
1.27208
1.0915
1.03279
1.03205
1.02449
11.2077
12.5057
10.0498
8.17912
6.75893
5.5179
3.71644
4.0427
2.63048
2.81925
1.93673
1.82156
1.45107
1.35899
1.2207
1.20653
1.16636
1.2057
1.26571
1.26079
6.13996
17.7687
12.119
9.44041
7.34955
6.03386
3.6434
3.62459
2.37236
2.44554
1.88269
1.84602
1.57305
1.51319
1.35946
1.30923
1.22747
1.20617
1.17186
1.07994
2.22501
11.1927
9.27187
10.622
6.88029
6.62509
3.78228
3.74278
2.45056
2.53123
2.00625
2.08905
1.80229
1.76875
1.58079
1.54023
1.43523
1.40429
1.31686
1.09423
6.31174
11.7189
11.6005
9.94232
7.34227
6.96318
4.17214
3.81945
2.81609
2.59029
2.15903
2.13281
1.92663
1.86423
1.70373
1.63494
1.51497
1.44166
1.33361
1.04112
4.58817
12.1815
8.40315
7.92056
4.9182
6.28503
4.07708
4.83465
3.34028
3.37201
2.61845
2.47446
2.12317
2.04629
1.76727
1.65637
1.52147
1.43913
1.30226
0.952781
4.23988
8.10954
5.43073
7.48929
5.06665
6.57203
1.61484
1.15033
0.910179
0.845928
0.838616
0.817471
0.722393
0.641599
2.03223
1.66901
1.53396
1.46702
1.30197
0.903606
6.41993
10.0686
5.33028
6.32499
4.08238
1.48547
0.464581
0.29407
0.257069
0.2247
0.262411
0.274323
0.243997
0.209669
0.616604
1.56351
1.43137
1.47565
1.30243
0.888538
7.31558
9.13054
3.52287
3.77314
4.09214
1.51037
0.353326
0.203853
0.234772
0.214913
0.257979
0.227164
0.19105
0.161915
0.42911
1.3144
1.23257
1.32709
1.23792
0.929269
16.0171
14.2554
5.75937
6.53129
2.92228
1.6878
0.499242
0.242959
0.228131
0.225689
0.181743
0.155827
0.143614
0.133192
0.376038
1.48797
1.29517
1.28973
1.20538
1.03488
9.27701
15.5984
9.43856
8.2792
4.53025
1.48881
0.32047
0.201902
0.166985
0.151329
0.157652
0.168964
0.152113
0.120818
0.426101
1.61476
1.39938
1.31266
1.21284
1.12113
7.18495
12.7336
6.73535
7.31459
3.19009
4.2123
1.01371
1.01389
0.718881
0.79552
0.612274
0.547626
0.399177
0.351316
1.28333
1.26585
1.27127
1.22939
1.17287
1.06482
7.2721
11.8418
8.3394
8.3921
5.22975
5.96641
3.60997
3.92857
2.59202
2.46753
1.82717
1.6404
1.31003
1.19115
1.04344
1.02702
1.00441
0.993932
1.03135
0.926226
2.01439
11.0357
7.93139
10.5262
5.04567
5.7287
2.94201
4.09945
2.4381
2.59859
1.80399
1.66038
1.3343
1.21852
1.07459
1.01874
0.929971
0.885315
0.865526
0.749653
16.1558
16.84
7.06857
7.39995
4.08365
5.1783
3.16572
4.30388
2.6833
2.73699
1.70096
1.54957
1.21695
1.19567
1.04731
1.01157
0.914632
0.868863
0.817037
0.724258
13.1126
11.3639
7.09337
6.22974
3.63114
4.69628
3.04168
4.18069
2.50054
2.5199
1.62156
1.42367
1.16307
1.20591
1.11843
1.09116
1.00803
0.954533
0.900512
0.760001
2.90901
7.58442
4.81704
6.66187
2.94266
4.17061
2.07781
2.48587
1.76193
1.81147
1.41542
1.30867
1.12407
1.16155
1.10581
1.10121
1.02469
0.986193
0.954057
0.830236
10.459
12.6289
7.1879
6.9479
2.91556
4.16772
2.24092
2.84878
1.72845
1.80736
1.36504
1.27362
1.0736
1.04078
0.976757
0.972589
0.948444
0.934669
0.935749
0.849007
2.88423
10.027
5.37016
5.47056
2.45392
2.30503
1.6791
1.48165
1.06792
0.950022
0.767583
0.705606
0.61699
0.563754
0.510426
0.469969
0.43406
0.399283
0.381678
0.335027
5.00446
19.6158
18.1937
16.5182
14.2922
14.0654
12.1417
12.2408
8.31514
8.12792
6.50168
6.33657
5.56548
5.1402
4.46166
3.9811
3.48335
3.16906
3.10371
2.842
17.606
42.6486
39.4133
31.104
28.9745
21.8614
19.5886
18.7365
18.1587
18.1866
17.7945
17.7888
17.5876
17.4537
16.9413
16.0868
15.0205
14.0376
13.848
14.301
10.2679
49.1667
44.9961
37.3893
32.0399
26.492
21.2079
20.503
19.038
18.7631
17.3432
16.6105
15.396
14.8244
14.2753
14.2055
14.4234
14.9788
15.3824
15.4175
35.622
50.7479
38.0056
33.5314
25.2813
23.1853
17.4292
17.1913
16.2437
17.1572
16.5734
16.3998
15.6183
15.1269
14.4491
14.1178
13.8849
13.802
13.7932
13.513
30.2036
37.0943
28.7613
31.3721
23.1094
22.8613
18.5747
17.4577
15.6042
16.5809
16.2848
16.6872
16.2992
16.0208
15.5514
15.2792
15.0631
14.6925
14.0855
12.5318
9.78575
47.8182
48.914
39.3302
27.3278
25.1819
22.3456
22.3839
19.8045
18.5798
17.254
16.8978
16.8039
16.2875
15.7207
15.1941
14.8402
14.1252
13.4818
11.547
15.4315
37.011
31.6068
30.3642
29.6762
30.1963
26.703
23.7271
21.3218
19.6246
18.511
17.278
16.809
16.197
15.4563
14.8322
14.4008
13.6093
12.7497
10.0029
20.0929
37.4151
32.0729
33.0484
32.6059
33.6216
25.3406
21.0911
18.069
16.5971
16.2724
16.2812
15.863
15.1251
15.6581
14.585
14.0882
13.3876
12.2124
8.84146
55.0274
49.312
44.4608
36.8097
26.6813
21.623
20.9937
19.6376
16.0455
15.1901
16.1954
16.4345
15.6653
14.4583
13.4601
13.3702
13.3796
13.3013
11.5957
8.58744
35.5847
53.9048
33.0897
23.5899
25.5243
15.1552
13.0055
16.5124
16.9094
15.9694
16.6822
15.0523
12.8771
10.9581
10.0663
11.8264
12.2332
12.8484
11.5504
9.81826
54.0392
43.5134
25.6197
22.378
18.1851
20.1545
17.4834
16.1436
16.4016
15.411
12.9351
11.0315
10.129
10.0011
10.5204
12.3013
12.3031
12.5092
12.1464
12.1636
51.067
37.6517
32.6739
23.0497
16.4578
11.3799
11.7929
15.4852
13.724
13.3164
13.404
12.851
11.5086
9.97696
11.5752
12.8621
12.6689
12.915
13.0275
13.2974
11.0816
45.44
43.8276
30.1255
19.5604
21.0858
15.0829
14.3213
14.7664
14.9773
13.7075
12.1439
10.2653
9.54841
11.8074
12.0516
12.3781
12.7199
13.145
12.9255
21.1362
38.7167
41.1235
35.5812
24.8948
25.8344
20.2898
18.8669
17.0657
15.5263
14.3707
12.9739
11.8352
10.9998
10.6942
10.8093
11
11.4835
12.2059
11.3996
17.402
24.9487
27.5702
25.6647
22.5522
23.8598
20.5914
20.3445
17.8065
16.3568
14.4384
13.5098
12.4301
11.7255
11.0707
10.6959
10.4258
10.011
9.78841
9.20428
16.8753
45.9906
36.7097
29.9104
26.0466
24.9248
22.7936
21.3195
18.3444
16.2447
13.6882
12.9365
12.1682
11.9299
11.3464
10.9247
10.4901
10.1417
9.72999
9.42292
44.2192
46.4583
38.4812
29.6181
26.7085
22.6465
21.9507
20.2954
17.5435
15.6974
11.681
11.0119
11.5566
12.2744
12.0346
11.5015
11.0341
10.5476
10.252
9.56671
4.63372
20.8963
30.1212
24.5541
19.2251
18.6075
17.7397
17.7677
16.3251
15.273
12.5152
11.967
12.2832
13.0092
12.8769
12.4278
11.9716
11.4765
11.2217
10.5731
12.5936
26.1423
21.4992
20.742
17.0915
20.1482
19.3633
18.1761
16.6109
16.2479
14.6018
13.5948
12.5333
12.6394
12.6343
12.5583
12.3142
11.9139
11.7237
11.0713
5.45093
19.1857
19.7764
20.3787
10.0965
12.9238
9.29236
9.70595
7.41639
7.29012
5.93375
5.59
4.76324
4.43942
4.02208
3.72422
3.39075
3.10581
2.9428
2.53342
7.21898
20.0955
20.382
17.9043
16.3419
15.6416
14.8805
13.8948
11.0262
10.4366
8.07774
7.52361
6.39003
5.73862
4.95285
4.38275
4.01094
3.85499
3.78148
3.34146
10.3323
50.8702
53.4068
45.3984
40.8827
33.5783
30.6161
28.6627
26.9236
26.2288
25.2445
25.107
24.7604
24.5844
24.0038
23.3523
22.6398
22.0915
21.8364
21.451
40.7725
61.088
60.4144
55.2474
48.6809
40.7661
35.2234
32.4491
30.1339
28.8979
27.3457
26.4755
25.4152
24.8231
24.1143
23.6975
23.4433
23.1844
22.8577
21.9632
43.7686
67.7089
61.7839
54.5553
45.2193
39.104
32.713
31.2664
29.5044
29.014
27.6826
26.8464
25.7559
24.8278
23.8192
22.9974
22.3758
21.7326
21.2274
20.133
50.8276
31.9663
53.2503
52.1736
42.3149
38.7125
33.2513
31.2221
29.2909
29.0361
27.9287
27.2027
26.1402
25.1718
24.1192
23.1231
22.3248
21.1692
20.1509
18.1933
34.2288
52.1845
66.0098
58.5976
47.3554
42.4431
37.7823
35.4762
32.2213
30.4492
28.7056
27.5078
26.3469
25.0691
23.8082
22.5364
21.5191
19.9049
18.8089
16.203
43.9756
61.1843
62.7758
54.6614
51.2919
46.5928
41.0421
36.5636
33.2231
30.8584
28.8228
27.1196
25.7816
24.4559
23.0828
21.8073
20.5586
18.808
17.3509
13.7227
46.9561
57.1885
57.4937
54.042
52.0857
49.8993
43.6019
36.0909
31.3135
28.9311
27.3836
25.8514
24.5316
23.0789
21.5958
20.7414
19.7367
18.0056
15.9317
12.144
43.8629
69.9147
65.2659
56.7323
47.0623
42.0774
40.1149
33.9772
28.7627
27.3217
26.3775
24.7613
22.8812
20.9558
18.8617
18.6302
18.843
17.5711
15.0158
12.5957
43.4818
67.1037
53.3291
52.9613
45.6317
38.2049
33.5047
30.7312
28.3138
26.8514
24.5267
19.9889
16.1608
14.0785
13.8513
16.3994
17.8606
17.7866
15.8332
15.0735
56.724
62.5452
53.2707
44.6031
38.1426
36.1603
32.479
29.8291
27.983
26.489
7.35191
6.51215
10.4827
13.5384
14.6855
16.1338
17.4789
18.2736
18.1396
18.7116
63.8784
61.8729
55.2222
44.7342
34.537
31.1379
30.1809
29.1412
25.831
23.9556
22.1901
19.9872
17.661
15.9502
15.8635
16.7317
17.9699
18.947
19.5731
20.1004
17.6948
53.9532
57.9561
48.8592
39.0724
37.3795
28.9019
28.4477
26.389
24.2472
21.6053
18.9201
16.836
16.0216
17.0162
17.5066
18.3782
19.076
19.6485
19.6737
35.0803
47.3479
56.935
51.7859
42.9309
40.7926
34.1805
31.1673
27.3692
24.5401
21.9113
20.0919
18.5191
17.6118
17.2423
17.2906
17.488
18.0409
18.4219
17.9866
40.3982
44.2104
51.229
48.138
41.2522
38.6971
34.7757
31.2951
27.3584
24.5112
22.1463
20.6077
19.1395
18.0159
17.1804
16.636
16.3264
16.1951
16.0439
15.7723
42.378
62.5751
60.3833
47.1207
43.8807
38.298
35.4582
31.2482
27.1631
23.9394
21.6186
20.4121
19.2061
18.2016
17.1948
16.3857
15.7889
15.2845
14.9838
14.6619
70.3258
61.7843
55.2573
45.6011
41.4363
35.0732
33.2524
29.7964
25.7582
23.1809
20.0057
19.7815
19.4201
18.7555
17.7059
16.6948
15.9283
15.1616
14.705
13.7911
24.531
38.7347
45.1549
38.8271
33.9638
31.204
29.2435
28.2153
25.7366
24.2141
21.4375
20.9671
20.2291
19.4676
18.436
17.4619
16.68
15.8968
15.432
14.4973
38.6418
46.4574
37.4503
34.502
29.6467
29.515
25.7868
25.0337
23.2647
23.2987
22.0523
21.1482
19.705
18.8201
17.7757
16.9945
16.2092
15.4343
14.9181
13.8276
7.08026
20.1771
19.8788
23.8972
14.3316
18.1318
12.9559
13.4135
9.68902
9.00765
7.21787
6.91506
5.97837
5.58252
4.99097
4.54906
4.10084
3.6588
3.38093
2.82773
1.50475
12.3702
21.6501
17.8191
16.6203
15.9847
15.3836
14.3335
11.1756
9.419
7.57186
6.36352
5.44268
4.72446
4.33788
4.02498
3.88057
3.61814
3.49155
2.98481
16.0577
53.5693
57.0316
49.2973
43.7508
37.3829
33.9375
31.1083
28.6868
27.5362
26.3392
26.2677
26.0064
26.0138
25.7595
25.3067
24.7869
24.138
23.5818
22.3093
73.614
66.9863
68.8246
64.574
55.7328
46.4937
40.4218
36.2935
33.53
31.8242
30.3252
29.5571
28.7643
28.1266
27.3925
26.574
25.8757
25.0034
24.2669
23.0436
65.7552
76.2815
78.2697
67.9853
56.9122
47.8661
41.262
37.8395
35.0013
33.1709
31.4313
30.2132
29.0353
27.8769
26.7663
25.6087
24.6997
23.6892
22.8731
21.4207
59.2859
66.6369
70.8494
66.437
55.3535
48.0852
42.2807
38.7787
36.0515
34.1155
32.1899
30.6698
29.2272
27.7927
26.4276
24.968
23.7524
22.2734
21.0675
19.0985
59.8691
60.9153
69.2168
71.9347
59.9682
52.1935
45.8899
41.995
38.1751
35.4113
32.9744
30.965
29.1901
27.4365
25.7825
24.0032
22.4257
20.4891
19.034
16.452
73.327
71.0452
72.503
68.9371
61.7325
53.9485
47.4695
42.8069
38.2972
35.3496
32.1957
30.1435
28.2329
26.5223
24.8368
23.016
21.0527
18.784
16.9053
13.7791
48.4125
71.4507
71.7043
67.8034
62.382
56.8224
50.74
43.3262
37.4084
33.4123
30.3044
27.7722
26.0602
24.4199
22.1934
21.5067
19.8172
17.5441
15.3067
12.6991
23.5848
83.7722
78.8475
68.5141
56.8969
51.9067
48.7172
40.172
34.5057
30.5483
27.4125
24.6925
22.7129
21.1343
19.3179
19.3315
18.9972
17.3974
15.3631
13.7369
48.8048
77.8836
71.0644
66.5132
56.2422
49.8578
43.3638
36.9293
32.3307
29.3612
25.1191
19.9393
16.5036
15.507
15.7727
18.0875
19.0869
18.5514
17.4807
17.4069
36.0021
71.7643
68.0638
55.9775
48.4918
44.9579
41.1335
35.6026
31.2911
28.4891
12.2796
10.6128
12.697
14.2167
14.8948
17.5549
19.5015
20.3714
20.6505
21.0318
59.0059
67.7891
66.1748
56.8187
49.0775
44.5229
41.4728
35.2538
29.9451
26.7386
23.521
20.2032
17.3795
15.7459
14.8641
17.6887
19.8771
21.1865
21.9548
22.4233
24.1258
57.6144
67.494
60.1116
51.5434
46.7005
38.4452
35.4536
30.3696
26.1722
22.7071
19.6202
17.4434
16.4194
17.5695
18.9589
20.276
21.246
21.8317
22.0094
23.3702
58.5527
67.5943
61.7881
54.5524
48.9134
41.3509
36.5982
31.063
27.9344
24.2663
22.4394
20.5299
19.6768
19.3712
19.4258
19.6884
20.0559
20.4399
20.375
62.7157
59.9219
67.6601
60.3844
53.1478
46.1388
41.6976
35.9282
31.3542
27.8929
25.0454
22.9383
21.1768
19.822
18.9386
18.3829
18.2154
18.03
18.123
18.1141
50.0019
72.1785
67.9963
57.0618
52.7724
44.729
41.0215
35.2514
30.9494
27.5375
24.9534
22.9849
21.2615
19.7291
18.5763
17.6373
17.0407
16.5571
16.2986
15.9374
31.4078
69.2801
63.386
53.5799
48.4551
41.5489
38.6212
34.2003
30.2627
27.4263
24.8461
23.3225
21.7447
20.0844
18.7205
17.5137
16.6767
15.8456
15.2941
14.5017
66.9712
65.1748
58.1028
46.9465
41.6301
37.579
35.1259
33.5011
30.6475
28.5376
26.0489
24.2081
22.3414
20.581
19.1782
17.9683
17.0971
16.2891
15.7534
15.0204
35.0402
57.2651
49.8523
40.1172
32.3581
30.4424
26.6253
27.1057
25.8546
26.0715
24.5462
23.0771
21.0216
19.383
17.8452
16.7561
15.7534
14.8325
13.5475
12.6251
15.4093
17.2524
16.519
22.5899
15.5766
17.84
13.0147
11.3892
8.53162
7.47204
6.62855
6.36751
5.62732
5.03992
4.3743
3.7732
3.34325
2.86618
2.63363
2.22783
6.09203
16.3574
8.09483
17.8091
8.68262
15.7039
6.81812
7.79048
4.60707
4.448
3.14814
2.99528
2.51793
2.54081
2.38361
2.35241
2.16382
2.01515
1.91878
1.65259
58.7567
27.5357
56.4769
34.4741
41.1226
36.3206
30.8348
28.5118
25.5453
24.511
22.4874
23.1363
21.1967
22.4567
20.3298
20.4674
18.8181
18.426
17.8613
15.8642
63.5685
72.643
75.0431
63.4239
54.7268
45.8147
37.5697
33.7801
30.1321
28.9658
27.1838
26.7564
25.7622
25.2315
23.3669
23.3423
21.0526
21.0551
20.5752
18.734
64.4106
57.5539
83.0666
44.4002
56.8785
48.0048
39.3867
35.5457
31.5842
29.8627
27.8837
26.9659
25.7397
24.7338
23.1924
22.4694
20.5076
20.3658
19.5475
17.6149
64.6532
47.5613
81.5166
63
55.2246
48.7883
36.99
37.4787
31.7517
31.1424
28.3004
27.3425
25.6937
24.5172
22.6149
21.7305
19.3443
18.9992
17.7666
15.9469
62.8064
64.9592
76.3146
58.9404
58.687
51.1326
40.327
39.2704
33.5913
31.9326
28.4423
27.2751
25.0077
24.008
21.8995
20.6839
17.9438
16.8921
15.5487
13.4226
42.8082
77.6416
70.8621
70.961
45.0765
52.4236
34.221
41.0191
33.7609
32.2277
28.8573
26.8007
24.9802
23.3426
20.4781
19.353
16.0715
14.8008
13.2435
11.6549
58.0643
87.4131
81.5675
75.7758
49.7384
52.6364
46.7804
41.2541
33.6871
29.5681
25.9161
23.8168
22.0984
20.8354
19.4665
17.1967
14.7364
13.662
12.5346
11.6699
55.5061
88.5628
58.0666
61.3353
33.7671
50.4263
44.6164
35.1305
28.8913
24.4267
21.3418
19.3001
18.0554
17.0987
16.4345
17.1623
14.8919
14.5608
13.662
13.3384
46.011
83.3535
62.4893
71.2214
38.7853
46.8518
39.606
31.0379
26.1498
22.5415
18.8954
15.2391
14.0737
14.1607
14.8561
17.0749
16.0377
16.6104
16.6646
16.4556
58.3122
75.0345
44.3028
52.7706
28.0114
42.1395
38.1573
29.2016
24.8574
22.2251
17.2855
12.8892
11.9873
12.9754
14.0479
17.3072
17.6825
18.7028
19.2207
18.7197
54.2476
72.6588
68.5062
59.4297
48.3021
44.8444
37.8499
28.9171
23.8747
20.3243
16.8656
14.0933
13.2141
12.9191
13.6081
17.6299
17.9299
18.8711
19.4455
18.369
79.5686
69.1707
40.6524
60.0129
27.5833
41.8296
37.372
32.7181
25.8382
21.9355
18.3471
16.1439
14.9347
14.4263
16.7777
16.7589
17.4095
17.8913
18.2757
16.9533
79.5472
67.8828
56.7984
64.0992
38.7486
48.2167
31.1578
35.0562
24.4128
25.1821
17.8807
18.5728
15.567
16.5251
15.4995
16.6254
15.783
16.3344
16.4409
15.1009
57.4211
72.739
52.2427
62.4997
30.8053
44.8809
23.7573
34.3589
19.5539
25.8422
17.0177
18.7399
15.0741
15.7469
14.6871
15.3599
14.7038
15.2972
15.157
13.7231
72.4433
77.4821
69.7491
45.5552
33.177
44.2957
24.9835
33.8881
18.7741
25.3335
15.6163
18.2667
13.822
14.9991
13.036
13.9349
12.8154
13.4829
13.1261
12.1681
52.5127
78.6646
55.849
53.8682
29.0221
41.5659
23.0234
33.6102
17.9812
25.7878
15.2452
17.8463
13.5446
14.3871
12.5919
13.1591
12.0936
12.7006
12.3867
11.4875
45.1564
71.4296
38.5407
48.0316
26.1827
38.6963
22.1864
33.3184
18.7453
22.2124
15.4948
16.438
13.2972
13.645
12.1986
12.5354
11.6495
11.9136
11.6796
11.0276
79.4368
61.4123
44.3654
39.8344
19.3247
28.9277
14.9159
22.8446
14.9084
18.2662
13.7213
13.9934
11.5746
10.9179
9.71313
9.22727
8.4921
8.34908
8.20912
8.25555
3.59516
14.7837
11.137
20.5765
6.89036
7.1822
4.21492
3.79211
2.84212
2.97961
2.47647
2.3099
1.88751
1.64761
1.3851
1.20549
1.05545
0.937346
0.898012
0.802678
25.4627
25.9412
8.85621
29.6963
26.8095
28.2239
8.74873
21.1398
7.81475
6.97528
25.4861
21.3683
7.75079
7.36912
8.61362
24.3048
22.6535
28.811
7.89807
27.5024
24.8178
6.15901
21.9464
20.0754
6.77678
6.51838
23.7651
21.1222
0.281099
0.380093
0.22645
14.0201
15.3445
11.647
12.8561
0.27982
0.227106
0.225618
15.1338
13.371
13.1042
13.1634
0.215606
0.222914
0.198587
12.4218
11.375
12.82
11.6512
0.252337
0.207604
0.262667
11.3027
12.0546
11.9019
13.2531
0.272025
0.272229
0.259798
12.2906
12.8061
13.3902
13.0102
0.250358
0.247336
0.214276
12.8766
12.6396
12.7144
11.7232
0.21431
0.206441
0.183668
12.4648
11.8491
11.4123
10.4129
0.161429
0.177515
0.125789
11.5997
11.3837
10.0713
9.26308
0.209417
0.382011
0.213863
8.52194
12.1019
8.79298
11.5905
0.22722
0.202456
0.226997
12.4231
13.3635
11.7419
13.0556
0.212692
0.243052
0.245103
13.3305
12.222
13.3601
13.0302
0.253584
0.235089
0.216685
12.3125
13.2091
12.6989
11.4686
0.239405
0.205639
0.176402
13.1909
12.4457
10.9024
9.62351
0.198114
0.167666
0.152125
12.0653
10.923
9.25987
8.50632
0.169804
0.148487
0.136969
10.5682
9.51701
8.326
8.04814
0.119605
0.133718
0.0901445
9.15897
8.60163
7.98083
7.42412
0.267983
0.3366
0.22516
12.1099
12.3891
10.7614
12.4064
0.22322
0.215467
0.179259
12.105
12.4561
12.0263
10.5066
0.233639
0.170793
0.157267
12.5974
12.2484
10.3382
10.0187
0.193278
0.154298
0.150968
11.8856
10.6793
9.94604
10.1
0.161526
0.151422
0.156961
10.2501
9.38557
10.1499
10.0515
0.1464
0.158068
0.158034
9.12348
8.61122
9.96327
9.44485
0.134807
0.152476
0.138234
8.50553
8.32387
9.18078
8.25205
0.0913365
0.125582
0.0853897
8.14219
7.28577
7.78505
8.19559
0.205694
0.376057
0.252918
7.63621
11.515
6.65971
9.40076
0.175553
0.242451
0.209537
11.7597
10.3
9.97268
9.98223
0.153109
0.210086
0.212617
10.1415
9.92095
10.0441
10.4402
0.153493
0.216756
0.21409
9.88564
10.126
10.6326
10.5599
0.168232
0.208082
0.186973
10.1862
10.1054
10.2552
9.56821
0.159133
0.176694
0.153885
9.9778
9.31439
9.27495
8.22459
0.131804
0.141822
0.113819
9.00522
8.03782
7.75458
6.94775
0.0936257
0.10851
0.0839499
7.7079
8.26375
6.78756
7.45716
20.1481
17.6003
17.2561
35.8453
32.6068
31.1719
29.1267
17.0019
17.3264
16.8584
31.0437
26.9386
28.4738
26.3271
15.1282
16.3478
15.3297
25.9721
25.0644
25.567
24.6432
15.9896
15.6447
16.9341
24.9493
24.8458
24.7468
24.7142
16.4588
17.0087
16.3723
24.6719
23.8759
24.3517
22.4742
15.9152
15.9647
14.5933
23.5218
22.3004
21.6639
19.2214
14.768
14.1415
12.7443
21.8505
20.445
18.4652
16.4195
13.5856
12.2837
10.7839
19.9964
18.8556
15.8269
14.4144
16.2844
13.7977
15.4834
29.3537
28.0572
27.8509
26.7788
17.0904
15.644
16.8997
27.6853
26.5166
26.6179
26.4757
15.8165
17.1387
16.5549
25.9329
24.7702
26.228
24.7794
16.7761
16.2131
14.3677
24.7704
24.1227
24.252
14.0451
15.5877
13.5421
11.6203
23.4441
20.6573
12.3699
9.81699
13.3947
11.1046
9.90825
19.6117
16.6877
9.34596
8.85962
11.4175
9.66258
9.51784
15.8776
14.0244
9.16356
10.9577
9.92698
9.52586
8.94315
13.5603
13.0286
11.471
12.4266
16.4933
15.6208
16.436
28.7582
27.5144
27.6201
27.4047
16.3295
15.846
14.1918
26.9068
26.0037
26.4197
24.1452
15.7822
13.9853
13.5304
25.6874
24.2219
23.6522
22.4584
13.6291
13.4325
13.4406
23.8822
13.6198
22.1738
21.0469
11.4309
13.3984
13.0036
11.9068
9.48631
20.5179
18.998
10.2321
12.8212
12.0479
9.29888
10.1958
18.5547
17.226
10.1398
11.7085
10.5458
10.8172
12.7529
16.7701
15.4039
8.98514
10.0553
10.2688
13.0612
13.1519
15.0296
15.0165
15.6109
9.38175
13.2935
25.5955
26.9037
17.5604
24.8463
13.9196
13.6259
13.6345
26.1203
23.8312
24.5186
23.5099
13.3759
13.6161
13.8339
23.3118
22.1521
22.9929
22.2121
13.4255
14.0024
13.757
21.8809
21.0494
21.966
20.7556
13.0647
13.3759
12.4597
20.6546
19.3355
20.1454
18.6288
11.9114
12.0816
10.7523
18.8571
17.2583
18.0083
16.17
10.3071
10.1937
9.30747
16.7023
15.2802
15.5928
14.6734
10.3945
9.17546
9.62408
14.9999
15.061
14.5478
14.8452
35.6765
35.0641
32.3159
47.5524
41.4647
42.9204
38.3348
29.7085
31.4496
28.8826
39.5561
35.1784
36.987
33.4824
27.5598
28.08
26.948
34.0689
31.4755
32.4885
30.3139
26.6961
26.8865
26.2424
30.7555
28.7247
29.7484
27.6283
25.1939
25.702
23.3758
28.0274
25.9981
26.7224
23.6398
23.3631
22.4598
19.8019
25.4363
23.8575
22.6068
19.8535
21.3998
19.0146
16.9858
23.3748
22.0088
19.1432
17.6141
19.7798
16.4332
15.1738
21.6435
20.7746
17.2954
16.7705
31.3237
31.842
30.0377
41.8708
37.6292
40.1645
36.4571
28.999
29.6807
28.885
36.443
33.2943
35.4056
32.6901
26.9807
28.4619
26.6989
32.3385
30.2312
31.8502
29.6943
27.3554
26.6842
26.8368
28.4103
26.2178
28.0512
28.3336
18.9381
23.475
21.1869
25.1531
19.517
23.9231
20.8883
16.9544
6.82597
7.91424
20.1552
17.2936
7.71344
9.77982
14.4665
8.60386
11.1726
16.6547
15.5607
10.6002
12.6961
13.7436
11.8051
13.0008
15.4114
15.6379
13.1756
14.263
30.5548
31.6352
30.4681
39.773
36.4417
39.7722
36.4073
28.4488
29.3718
26.7944
35.2501
32.3413
34.9088
31.2749
26.2325
26.1757
24.6795
31.5005
29.3789
30.307
28.0913
18.7458
14.9729
25.0609
23.0625
21.4097
3.14641
26.4388
12.8776
6.68212
15.1867
2.04734
14.3998
1.96233
13.3674
9.40718
19.5675
18.1281
7.61037
10.9519
20.4329
18.6053
13.1104
17.6595
16.3102
11.9542
13.9602
18.0751
16.7468
13.82
15.9635
15.7282
14.2835
14.7381
16.4388
15.7858
30.1038
20.0743
28.3029
39.6766
36.364
25.401
35.5346
26.4916
27.7923
26.1953
34.8383
31.0312
34.3913
31.1585
24.329
25.4954
24.2052
30.0005
27.6145
29.9189
27.1387
22.7228
23.8247
22.2791
26.9923
24.8114
26.4048
24.1217
20.5446
21.6027
19.8798
23.972
21.5678
23.2524
20.961
18.2365
19.2107
17.3213
20.8321
18.7317
20.2243
18.3246
16.2335
16.7418
15.812
18.1238
16.7083
17.7823
16.7092
15.755
15.6694
15.7617
16.4031
15.7483
16.5051
16.1875
42.073
44.1736
38.9347
47.3053
39.5799
43.1837
35.8618
35.7328
37.4571
33.6678
37.6542
32.8092
34.1417
29.8342
31.3888
32.5835
30.0562
31.2141
27.273
28.6009
25.6259
28.1949
29.3769
27.0021
26.3057
23.7125
24.8303
22.2341
25.2518
26.0585
22.9675
22.8654
20.9073
21.3254
18.6034
23.174
21.9541
19.2701
20.4725
19.3586
17.7619
16.0323
21.4584
18.6197
17.3412
19.011
18.1406
15.7585
15.3053
20.4262
17.1078
16.7966
17.9247
17.4442
15.2227
15.0935
38.2963
41.7496
37.1377
42.3871
35.2229
41.0303
33.7362
33.3796
35.8319
32.5582
33.5458
29.4087
32.0141
28.1713
29.9899
31.631
29.5866
28.2412
25.7494
27.256
25.5594
26.4122
28.5221
14.6142
25.0129
22.2342
24.842
20.1557
21.129
12.9148
10.6048
21.1619
17.898
18.408
14.5499
17.1067
10.4765
11.1528
16.8663
14.7839
13.6681
12.0506
15.5985
11.6484
13.0847
14.5489
14.3937
12.0421
12.7957
15.8158
13.4583
14.3736
14.4118
14.6243
13.0188
13.5617
36.9981
41.2786
36.9694
40.6545
33.4019
40.4278
33.3437
32.2148
35.2951
31.284
31.6502
27.7935
31.3257
26.9808
29.286
30.223
27.9121
26.896
25.2726
25.8985
23.7885
14.0047
27.298
24.5697
24.6088
19.935
23.1781
20.5316
10.3329
23.4934
20.7177
18.2914
14.6882
19.5097
16.718
12.1121
19.973
17.9417
13.8631
12.3419
15.8653
14.0126
13.9778
17.378
16.09
12.3177
12.9377
13.7592
13.4273
14.679
15.8133
15.2438
13.0993
13.4952
13.3469
13.1454
36.9743
28.3535
36.4612
40.4414
33.48
33.9201
34.3251
31.0706
35.1654
31.5392
31.3791
26.8332
32.6751
28.438
27.392
30.1242
26.9159
25.6742
23.1155
26.6005
22.9266
24.4115
26.1356
23.7174
22.4599
19.9072
22.1282
19.5493
20.9771
22.7739
20.3545
18.9711
16.3905
18.5393
16.2978
17.9954
19.6323
17.7721
15.6296
14.0535
15.7841
14.5323
16.0254
17.2148
16.1296
13.791
13.3335
14.1867
13.576
15.1775
15.9324
15.6637
13.2244
13.0302
13.4753
13.4646
37.0033
40.5486
33.249
17.6515
19.0863
21.1978
17.5309
30.4328
31.6219
27.6072
20.099
19.4256
17.8261
17.8382
25.3358
26.4748
23.4323
19.2292
19.3121
18.1156
14.8271
22.101
22.5503
19.9746
19.4517
17.8011
14.333
13.4179
19.6958
19.1499
16.843
17.2576
16.5129
13.4643
13.0995
18.3659
16.2281
15.2572
16.1257
15.5387
13.043
13.9981
17.3185
15.1446
14.8854
15.2753
14.8845
14.0971
13.9816
16.6866
14.8084
14.6791
14.6399
14.1502
13.8865
13.4066
32.6243
38.2682
31.0722
17.1209
16.8648
18.4418
16.242
27.2394
29.5467
26.1598
17.2236
17.4936
16.462
15.8621
23.3611
25.1766
23.0662
16.7733
13.3998
14.3683
11.4375
19.8544
22.4605
18.9081
12.8215
11.7428
10.8464
9.44966
16.067
17.4108
13.7262
11.6509
11.8621
9.11127
8.87291
14.0883
12.7884
11.6092
11.7914
13.0794
9.35475
11.0762
14.1504
11.8474
12.7851
13.535
13.6906
12.1032
13.0926
14.3006
12.9717
13.4151
13.6431
13.2571
13.1185
12.8773
30.7575
37.9668
30.6945
16.2289
16.1157
18.8399
16.5135
25.837
28.866
25.0828
16.4189
15.7097
16.635
16.5084
22.7967
24.0924
21.5383
14.1971
11.2636
15.4284
12.1664
18.7049
20.8179
18.178
10.6827
9.29861
11.4845
10.5733
13.7949
17.2336
14.7163
8.9431
8.62336
10.4139
10.6859
11.7519
14.0371
13.1479
9.28093
11.0432
10.7412
12.2606
12.831
13.1282
13.0953
12.074
13.0514
12.7871
12.9966
13.3171
13.0454
12.9448
13.0702
12.7785
12.9555
12.5932
30.8566
38.2845
32.1505
18.9342
16.9765
23.6703
22.5672
24.903
30.4634
26.3595
17.0203
16.5786
20.8771
15.3005
21.1204
24.6727
21.3761
16.6991
13.3614
15.9404
17.3563
17.7298
20.5791
18.1402
12.6076
11.9442
16.6132
14.754
14.6412
17.2811
15.328
11.9348
11.4172
14.2831
13.3389
13.308
14.9036
13.9228
11.4835
12.7128
13.141
12.715
12.9995
13.6555
13.1886
12.8876
12.9009
12.6738
12.4845
12.8231
13.1136
13.1885
12.8581
12.4723
12.4578
12.2801
25.5101
26.2326
22.9738
26.3116
24.894
27.3529
22.9579
23.1648
26.4615
16.1523
23.5832
24.4709
27.6502
4.38758
16.8884
16.4834
11.0782
2.41293
20.3115
13.0424
2.71994
28.1092
29.3764
29.0395
29.6025
28.8485
29.2648
28.4721
25.9851
26.7522
28.0674
23.887
27.9617
23.1811
26.5347
23.3746
23.7793
29.1305
16.4493
28.5284
4.39785
26.1229
16.589
2.4544
16.3779
10.9119
12.6716
2.76338
20.6604
17.1661
22.331
16.6299
21.3014
17.9279
22.5922
15.9907
9.11296
14.1354
7.06443
2.06063
12.2796
10.9897
1.82191
7.91434
10.1105
6.74363
3.88984
10.779
8.01175
2.94588
18.9757
25.4672
24.1139
21.7575
24.1145
21.0062
19.8382
17.201
21.3676
22.7091
16.8782
22.7023
16.0525
18.1543
8.88527
2.26289
14.0278
7.12962
10.7316
2.13415
12.1881
7.8643
3.97539
10.4957
7.01139
8.09478
2.94443
11.0067
15.0569
10.6471
16.2679
2.3735
18.1155
2.67744
13.9528
25.0282
24.7257
23.8901
25.9477
23.8567
26.3338
25.3955
23.3448
21.3179
23.3242
23.816
22.5783
21.9075
24.6525
19.4644
23.3265
15.5563
28.1483
3.42586
27.5006
23.7333
15.5441
2.42498
10.1417
17.422
2.74988
14.4167
19.5834
25.9953
27.0434
27.9457
26.7918
27.4367
26.387
26.726
24.1392
24.552
23.2562
25.8628
22.5591
25.5172
24.9606
12.9101
5.87729
13.5453
2.95677
13.854
2.22134
12.6547
19.8397
20.2795
21.2628
22.9541
19.4389
20.7645
22.1361
19.1273
18.1816
20.6439
20.7709
18.7423
18.5226
21.4211
13.1507
2.25196
6.14281
16.1409
2.17956
13.7274
15.1499
13.1779
3.24911
5.70727
14.2955
2.38183
12.9381
14.525
20.276
23.5703
21.8873
22.7744
21.3019
22.6464
20.7419
19.4838
21.1245
19.1173
21.9032
18.8362
21.8464
19.8106
1.24809
1.55664
1.2797
8.42385
10.8525
8.36076
10.5627
1.02436
1.25621
1.0872
11.7144
11.247
11.437
10.7465
0.799177
0.901429
0.820167
10.0414
9.31768
9.60737
8.85326
0.855402
0.864848
0.863091
8.63778
8.28718
8.31022
8.93355
0.809803
0.842799
0.872139
8.26192
8.69686
9.13277
9.44169
0.764049
0.86959
0.818104
8.80982
8.7204
9.40561
9.41302
0.676064
0.745608
0.71053
8.82363
8.91272
9.16472
9.00445
0.535863
0.676392
0.556685
8.67268
11.0241
8.55184
10.3318
1.22093
1.63312
1.1235
7.91205
10.291
8.03676
9.2991
3.10718
0.341006
0.414233
2.82619
3.58488
2.51349
0.297275
4.85875
0.283561
0.257878
5.31798
5.46248
4.67013
0.258336
3.8036
0.224712
0.234351
4.44185
4.04815
4.27447
0.212169
3.74769
0.224975
0.210451
3.31609
3.24457
3.53661
0.223072
4.27812
0.25926
0.264856
3.46137
3.69006
4.19192
0.270236
4.39664
0.262925
0.27471
4.16839
4.32062
4.43919
0.266639
4.12656
0.228208
0.23298
4.36183
4.37559
4.22578
0.222048
3.84997
0.196213
0.200573
4.23914
4.2499
3.91141
0.190398
0.468594
0.516274
0.376813
8.44334
10.3701
7.41461
8.73325
1.03212
1.44192
1.02345
7.5458
8.25134
7.68201
8.7309
2.69611
0.275582
0.368044
2.53932
2.85134
2.41836
0.277047
4.10872
0.208121
0.192783
4.00794
4.3341
3.74762
0.197282
4.86889
0.236833
0.242537
4.8063
4.74337
4.85921
0.246846
4.44053
0.221796
0.225627
4.10669
4.26853
4.41269
0.227244
4.35268
0.256911
0.240658
4.54245
4.51671
4.43745
0.238736
3.85425
0.215875
0.206483
4.21069
4.09628
3.96879
0.196346
3.53128
0.184844
0.174875
3.82535
3.75547
3.59241
0.168863
3.23313
0.153352
0.147302
3.48827
3.42735
3.28434
0.140695
0.322338
0.381522
0.285431
6.47754
7.91189
5.98914
7.68075
1.25132
1.80391
0.886467
10.0592
10.9621
8.3242
9.18084
3.77737
0.374984
0.431367
2.9164
3.60673
2.80016
0.299676
3.34529
0.227395
0.224746
3.71697
3.80263
3.40961
0.209271
3.50408
0.234207
0.197155
4.09692
4.19364
3.44868
0.198935
3.19506
0.217713
0.191905
4.02104
3.83444
3.30172
0.184457
3.05581
0.17365
0.161463
3.29599
3.26048
2.99834
0.158609
3.17472
0.151729
0.150577
3.13748
3.14903
3.13101
0.149106
3.10642
0.140654
0.144377
3.19224
3.17536
3.16925
0.141696
2.70611
0.129146
0.133426
3.00135
2.89005
2.90167
0.125371
0.343641
0.423329
0.434459
5.88603
8.17055
6.6427
9.28618
0.936539
1.46408
0.963623
5.89071
5.85953
5.57721
5.49619
2.16126
0.24399
0.331176
2.08159
2.39983
1.98176
0.248291
3.6429
0.195199
0.198458
3.90079
3.82985
3.57131
0.194116
2.97938
0.161321
0.169942
2.98932
2.93003
2.996
0.168645
3.09941
0.151032
0.166905
2.84801
2.86394
3.06023
0.168258
3.34598
0.162519
0.180884
3.11544
3.1813
3.3128
0.183675
3.29253
0.168647
0.179117
3.29723
3.26107
3.31851
0.174192
2.86516
0.146408
0.148416
3.03474
2.91744
2.97075
0.141661
2.3477
0.109306
0.109833
2.59861
2.45052
2.46671
0.102358
0.421099
0.404496