/*--------------------------------*- C++ -*----------------------------------*\
  =========                 |
  \\      /  F ield         | OpenFOAM: The Open Source CFD Toolbox
   \\    /   O peration     | Website:  https://openfoam.org
    \\  /    A nd           | Version:  10
     \\/     M anipulation  |
\*---------------------------------------------------------------------------*/
FoamFile
{
    format      ascii;
    class       volScalarField;
    location    "2.9";
    object      omega_0;
}
// * * * * * * * * * * * * * * * * * * * * * * * * * * * * * * * * * * * * * //

dimensions      [0 0 -1 0 0 0 0];

internalField   nonuniform List<scalar> 
12920
(
231.449
176.309
138.098
116.058
97.2835
84.7555
74.7075
68.3785
62.605
59.1862
55.9965
54.037
52.4422
51.7393
50.8039
49.2376
47.7079
44.8152
42.8584
40.5013
205.231
215.066
168.006
132.039
115.918
96.1555
83.8488
77.1114
71.0711
68.6786
66.3217
65.508
64.4496
63.3725
61.0543
57.6138
54.6482
53.2005
52.9986
53.4964
216.906
246.011
199.793
162.616
134.176
109.397
90.7831
80.2108
71.9729
66.9123
61.7842
58.1885
55.127
53.1607
51.9923
51.599
51.6702
52.1524
53.0432
53.0097
293.537
353.61
240.464
187.164
146.752
119.413
97.8449
83.4175
72.9229
66.7758
61.6102
58.2013
55.5817
53.7166
52.1465
51.0328
50.5844
50.0492
49.4749
47.419
145.943
225.977
229.568
212.732
165.423
132.578
108.195
90.1417
76.9723
68.6074
63.713
60.7977
58.5048
56.624
54.9896
53.9887
53.5458
52.8489
51.5428
46.8093
221.464
261.488
233.114
199.811
164.257
138.693
114.773
99.1453
86.0863
76.3147
68.9519
63.5609
60.2523
57.6409
55.9074
54.6487
53.9919
52.4824
50.7641
45.1596
212.174
249.607
202.059
157.704
138.265
124.77
108.913
95.7722
84.8244
76.2244
69.505
63.996
61.3564
59.5532
57.2252
55.3197
54.333
52.3583
50.1543
43.1123
198.894
184.596
159.416
148.669
138.113
131.03
208.225
160.348
134.169
114.654
110.128
105.443
103.602
100.933
63.1849
57.5403
55.3607
53.1963
50.3881
41.5442
266.343
228.213
193.77
162.517
131.287
176.883
285.427
219.413
199.026
172.607
175.746
182.101
181.057
173.075
107.26
58.1698
54.831
53.1689
49.7424
39.8176
374.698
280.703
176.457
153.196
145.475
238.845
303.202
206.333
204.474
183.421
193.337
184.335
171.764
162.525
95.8041
55.2073
51.9921
50.7322
48.1856
40.2884
448.442
263.976
176.948
128.084
91.4174
132.849
227.265
184.312
181.981
187.18
172.407
159.954
155.269
150.619
83.9766
53.5848
49.9329
48.5345
46.5635
42.5418
326.282
322.322
224.939
164.158
134.572
197.15
265.202
198.559
161.165
148.646
153.457
156.654
145.712
125.274
77.6342
49.9113
48.3802
47.7529
46.7078
45.5323
247.398
253.883
194.67
144.401
114.666
105.217
156.919
117.147
107.228
101.341
95.1839
86.9841
76.4481
68.6267
43.1512
43.2006
44.0817
45.31
45.8069
45.4291
294.688
237.743
195.07
167.136
136.493
118.354
96.8356
81.2263
69.4534
61.9956
56.2725
51.2217
46.5727
42.7306
40.0138
38.5627
38.5065
39.1833
41.5953
42.1668
175.314
226.813
236.698
208.159
148.317
112.702
90.3527
81.3977
70.6136
64.4432
56.8743
51.5255
46.9113
43.1791
40.2344
38.1114
36.5272
35.4884
35.5241
35.5787
574.282
302.017
191.685
146.095
118.504
102.812
89.6221
85.5022
76.7934
69.1096
58.3531
51.2597
46.2668
43.2765
40.9209
38.9911
37.5984
36.2193
35.3764
34.4594
302.201
221.335
168.161
123.209
104.915
93.3017
86.869
83.1116
77.5382
71.5526
61.4837
53.2032
47.6108
44.735
43.0236
41.1057
39.8751
38.1977
37.2599
34.907
196.906
204.514
176.481
131.602
99.3652
82.587
75.711
72.7866
70.1816
67.6731
61.7609
55.8537
50.9278
48.1368
46.6123
44.9656
43.6389
42.2218
41.6788
39.8976
283.545
255.246
195.219
137.126
96.9366
82.5799
76.4544
71.489
66.7082
64.1642
59.4254
55.404
51.8874
49.6798
48.147
46.9524
46.368
45.1578
44.7567
42.571
190.854
200.63
189.51
153.275
115.827
99.8999
89.9281
77.4514
65.8551
58.5995
53.0474
49.8125
47.4119
45.3874
44.0495
42.4078
41.2513
39.5387
38.6554
36.3796
82.8411
80.9212
67.6162
54.5226
47.811
44.8535
41.7108
38.9088
36.0951
34.7159
33.5959
33.1582
32.5232
31.6314
30.4633
28.9569
27.5828
26.3146
25.8931
25.0794
138.769
125.8
86.6443
66.7206
58.5074
51.833
46.0607
41.2857
36.9458
35.0916
33.4644
33.0176
32.4354
32.0828
31.6895
31.592
31.771
32.3926
32.5342
32.2023
144.893
149.171
104.136
80.3077
64.4124
53.8933
46.8991
40.0542
35.535
32.5271
30.8592
29.9098
29.5518
29.3027
29.2209
29.1069
28.8638
28.5717
28.2937
27.668
402.373
303.319
138.777
104.386
82.8299
68.8832
58.9897
49.2986
41.2273
35.3969
31.8274
29.7727
28.7237
28.0899
27.8021
27.5238
27.5494
27.5303
27.3216
25.9595
356.549
293.54
177.087
129.855
97.0324
79.0013
63.908
53.8526
45.266
38.0039
33.7918
30.8299
29.1759
28.1201
27.4784
27.0834
27.0591
27.0482
26.8881
25.3984
195.332
139.621
111.896
98.6512
90.6299
80.7836
64.2889
54.7787
47.246
41.6346
36.6748
32.2908
29.3367
27.9205
27.2746
26.9653
26.8657
26.4995
25.9312
24.2125
187.732
149.905
119.148
94.4829
75.0204
63.9687
54.2399
49.1331
42.8078
38.4422
33.9423
31.0486
29.0297
28.0287
27.659
27.4577
27.1771
26.2966
25.62
23.9722
195.185
135.509
111.567
88.1866
71.6657
61.8284
65.3334
60.7608
49.7806
40.6344
34.6523
30.8472
29.6363
29.0718
27.901
28.0803
27.7754
26.6153
25.9267
23.9518
225.095
178.436
121.135
89.8206
71.6905
67.308
64.853
54.8622
48.0581
39.9537
33.1472
30.7364
29.9195
29.5356
29.2531
29.6737
28.7563
26.8732
25.9521
23.0722
157.979
211.07
182.477
131.54
91.581
88.1343
79.5314
55.4763
43.5251
38.56
33.7348
32.1533
31.4846
31.4477
31.3788
31.3364
30.0707
27.2133
25.7065
22.0476
250.698
153.385
115.738
76.8927
55.0698
57.1534
62.7081
46.8114
36.9197
36.3342
37.2547
35.3472
33.7211
32.0692
28.8542
26.2315
26.1143
25.3108
24.2726
22.0849
314.85
157.551
126.721
116.672
91.8964
89.2877
75.1085
53.2244
39.9251
35.3832
33.7585
31.9663
29.938
27.0411
22.3049
21.9082
22.9089
23.3752
23.4251
23.1858
124.385
162.75
100.847
78.0867
69.3987
61.6283
62.5178
53.8572
39.9898
33.7626
30.2258
28.407
26.1635
24.2035
20.726
20.7055
21.1698
22.1346
22.7897
23.6515
204.229
129.096
96.3674
83.1015
73.1893
63.5465
54.2103
43.2444
35.1828
31.4457
28.2937
26.3222
24.3711
22.6386
21.1888
20.1759
19.9742
20.156
21.151
23.0179
245.884
223.187
158.3
117.875
82.949
60.1893
46.6786
40.0785
34.1525
31.3468
28.2969
25.8275
23.6279
21.8057
20.4232
19.3388
18.7389
18.7053
19.1181
20.3779
171.269
215.115
92.774
74.9241
60.5293
50.7307
42.4712
40.2115
35.6975
34.0154
30.1293
26.665
23.6657
21.6187
20.3524
19.4941
19.0047
18.5861
18.5627
18.58
205.143
148.073
84.8912
60.7143
50.0764
46.0329
41.7519
41.1268
39.5738
39.3186
37.6763
32.6606
26.0841
22.3848
20.7341
19.8933
19.4034
18.9217
18.71
18.2127
124.804
150.388
118.008
79.3399
57.998
47.9451
42.5763
40.644
39.6041
39.6547
38.805
34.9146
28.8675
24.9481
23.1758
22.2864
21.7427
21.217
21.0979
20.7847
182.195
177.224
140.706
88.3511
60.4209
47.8636
42.0527
39.1102
35.8012
34.0649
32.493
31.237
29.6336
28.1083
26.9867
26.4074
26.0893
25.3458
24.8387
23.2831
101.08
104.677
92.9064
69.5056
55.8189
52.3867
49.2585
45.3442
40.8413
36.5726
33.1798
31.0369
29.4294
28.299
27.4934
26.3683
25.4116
24.217
23.5969
21.9262
68.8283
79.2104
70.7964
56.8559
52.068
49.8604
47.388
44.1613
40.6961
38.5245
36.7875
35.4946
34.1311
32.605
31.0076
29.2595
28.1161
27.4724
27.209
26.234
109.824
120.809
78.5113
56.9837
51.0671
43.9983
40.0304
37.3463
34.5549
33.8858
32.5934
32.3498
31.66
31.2975
30.764
30.6314
30.6348
30.8338
30.8966
30.8563
195.894
146.079
99.4125
66.7631
53.3567
42.7746
37.8718
33.5421
30.8168
29.2377
28.0949
27.7721
27.4746
27.4681
27.3945
27.356
27.2313
27.0566
26.8252
26.2009
377.342
147.66
93.2435
71.7907
59.12
49.6144
42.7969
37.0215
32.3095
29.4525
27.4488
26.5261
25.9113
25.6742
25.4987
25.46
25.4168
25.3147
24.9788
23.7724
325.622
184.573
107.468
78.3378
63.9565
54.0455
45.5225
39.1397
33.9125
30.2229
27.8016
26.4438
25.5641
25.1324
24.8288
24.749
24.7263
24.6065
24.1824
22.792
319.809
167.794
107.911
77.6052
64.9609
57.1133
46.82
41.4943
35.9597
32.1637
28.8333
26.6248
25.237
24.5695
24.2606
24.106
24.0148
23.644
23.1204
21.8644
285.074
206.359
113.74
78.0794
60.0059
50.7391
43.1465
38.3683
33.8809
30.3803
27.6562
25.9306
25.0406
24.5998
24.3956
24.1506
23.8499
23.118
22.6308
21.5028
320.318
163.458
113.77
80.3726
60.6132
51.5626
48.9841
43.9718
36.7359
31.1125
27.8288
26.0868
25.3848
25.0993
25.5461
24.9631
24.1794
23.181
22.6344
21.1466
165.083
165.324
111.657
70.2308
52.15
48.4147
48.9801
42.3103
36.5756
31.2662
27.8416
26.7445
26.4011
26.4222
27.1028
26.7269
24.9036
23.3139
22.3983
20.1919
199.161
200.445
133.804
86.9559
59.3172
55.3323
49.2314
40.8989
35.484
31.7594
29.9341
30.4276
31.1698
31.5581
31.7043
28.4031
25.4932
23.3379
21.9212
20.1094
258.227
139.25
79.263
52.4244
42.2812
44.8489
46.5762
36.4269
31.4281
30.0397
69.9616
60.6309
38.2033
29.8921
27.8888
25.8247
24.0973
22.7282
21.7404
20.888
246.93
120.551
85.1412
67.1307
55.1576
52.8514
47.5932
38.2569
31.6145
29.3665
28.2739
26.8717
25.1857
23.4869
22.4679
22.448
22.2296
22.0825
22.0162
22.0531
102.319
122.653
90.6065
58.5932
50.6999
44.8833
44.7054
39.5185
31.2895
28.2769
25.2495
23.9181
21.8734
20.7997
20.0492
20.0265
20.3683
21.1505
21.7321
22.3261
214.014
141.694
84.2068
62.4814
53.5546
45.8939
39.5911
32.127
28.0856
25.1543
23.3662
21.614
20.4296
19.2799
18.6866
18.4636
18.6038
19.1829
20.314
21.3902
516.774
184.411
92.8457
69.337
54.3693
41.3691
35.6614
31.1698
27.4953
25.1253
22.9979
21.2499
19.8315
18.7797
18.0198
17.5886
17.479
17.6077
18.0788
19.0798
165.62
131.892
71.5978
53.2025
46.429
38.461
34.6641
32.0555
28.608
26.783
23.7763
21.6588
19.9194
18.8665
18.1436
17.7463
17.5093
17.4421
17.4961
17.7727
200.757
126.252
69.6951
48.2897
42.1279
37.4879
35.2949
34.0822
32.1802
31.1788
28.0064
24.5142
21.3089
19.8421
18.9221
18.4428
18.1186
17.8904
17.7873
17.6721
323.664
147.34
87.9873
57.7686
46.7874
41.1695
37.2607
36.0533
34.0837
33.2093
30.5231
27.3038
24.0856
22.6743
21.7944
21.3761
21.077
20.8291
20.7653
20.4761
332.874
136.738
99.5054
65.5286
51.944
46.562
42.5996
39.4378
35.2319
32.9536
30.2332
29.0043
27.5445
27.1543
26.7814
26.7543
26.6133
26.1475
25.6061
24.0141
78.6949
88.8044
87.8865
75.6701
65.9129
61.721
57.8591
52.5481
46.0553
40.0771
36.0048
33.8239
32.3779
31.1411
30.074
28.69
27.6483
26.1542
25.348
23.261
45.8536
72.3576
68.8274
56.5113
52.8964
50.939
48.9981
45.5656
42.129
39.3847
37.266
35.0575
33.0645
31.0191
29.5576
28.2893
27.6739
26.7321
26.2295
24.9141
205.461
117.358
72.9144
58.2854
53.7403
45.3364
44.5638
41.7494
40.8104
39.9328
39.0312
38.3932
37.4693
36.8609
36.2762
36.0292
35.9385
35.9257
35.9035
35.7274
292.347
158.451
95.0931
64.359
54.0527
42.012
40.2344
35.478
34.6736
32.9353
32.7017
32.2286
32.1916
32.0927
32.0534
31.9279
31.7971
31.4395
31.0795
30.3405
287.336
121.106
84.8856
62.1347
54.9183
44.1205
41.37
35.921
33.9856
31.652
30.8718
30.1305
29.9791
29.7557
29.7116
29.5974
29.4291
28.9757
28.388
27.4647
437.549
141.23
87.6187
63.5821
57.6905
46.2056
42.8864
36.5046
34.2173
31.2559
30.2389
29.2498
29.0272
28.7709
28.7499
28.6724
28.5272
28.0041
27.2152
26.2983
337.731
183.443
128.448
76.0953
61.9979
50.0616
44.4437
38.9913
35.3133
32.052
30.1021
28.7155
28.1828
27.802
27.7188
27.5889
27.4444
26.8977
26.1994
25.472
427.009
283.719
136.957
76.1298
60.72
48.2566
42.8691
36.877
33.9894
30.6908
29.4632
28.1638
28.0565
27.7381
27.5378
27.1224
26.8087
26.0858
25.4123
24.7374
299.011
198.1
124.43
79.4027
62.4728
51.3513
46.9619
40.0953
35.1286
31.5059
29.9088
29.1028
28.6747
28.4551
29.5281
27.7678
26.7269
25.5554
24.7116
23.7769
118.564
159.289
117.456
66.8513
50.5019
46.7455
46.8085
39.9385
35.5533
32.9596
31.5213
31.209
30.9137
30.7587
31.2129
29.4666
27.0175
25.1481
24.1694
23.343
225.366
168.801
116.166
73.0301
54.0737
48.2153
43.2591
39.7104
36.5802
34.081
33.4586
33.9702
34.4741
34.5581
34.1953
30.0631
27.0534
25.2196
24.3744
23.9023
217.533
142.899
76.4912
51.9962
42.7546
43.7163
43.0204
36.8859
34.6962
33.4885
55.1616
46.9043
36.3336
33.5886
33.3087
29.4309
26.8291
25.5568
25.1061
25.0088
320.588
132.511
80.9082
55.4087
47.6883
44.1353
42.5393
36.9255
33.6572
32.0568
30.6306
29.3912
28.8366
29.0344
30.0504
27.6613
26.2238
25.8178
25.8657
26.0698
156.398
140.843
90.249
56.7003
48.5616
42.0768
40.924
37.7052
32.2001
30.3408
27.7799
26.7549
25.9404
25.8132
25.4485
24.4708
24.5703
25.0579
25.6056
26.0805
223.109
134.744
84.5516
56.9322
51.1098
41.2413
38.4948
31.4958
29.4374
25.8738
25.055
23.2205
22.8588
22.0121
21.898
21.9101
22.3042
23.1725
24.0308
24.8813
378.133
140.308
81.0787
56.7951
48.7684
38.321
36.3177
30.7336
28.2167
25.3953
24.1765
22.7073
21.974
21.3075
21.0225
20.9361
21.0748
21.4845
22.0003
23.0083
186.489
126.48
73.597
50.9646
46.6748
37.1813
36.1618
31.4406
29.1307
26.3559
24.6958
23.0554
22.2577
21.5455
21.2575
21.0738
21.1173
21.264
21.5265
22.1597
193.647
153.513
79.439
50.7285
44.8407
37.5892
37.009
33.206
31.7395
28.9772
26.8544
24.7518
23.4683
22.7121
22.2578
21.9179
21.8126
21.7714
21.8332
22.1642
323.743
180.926
82.9873
53.2877
50.0437
41.8253
40.4301
36.7434
35.115
32.5808
30.2237
28.1098
26.749
26.1677
25.858
25.6008
25.5547
25.4333
25.4504
25.4
210.562
135.049
89.0729
61.8905
59.396
51.7331
48.8093
42.5308
38.7378
35.731
33.7202
32.9389
32.3806
32.5053
32.5302
32.5612
32.4166
32.0009
31.1828
29.8427
116.982
91.799
84.8556
75.8029
70.2811
64.9417
59.5147
52.4033
44.9983
39.1634
35.6796
33.6469
32.1564
30.6301
29.2569
27.6406
26.7083
25.2038
24.3583
22.0477
100.437
78.6238
62.6965
56.7019
53.9077
50.8238
47.5126
43.8766
40.3417
36.7883
33.4352
30.8302
29.0826
27.9774
27.3248
26.4156
25.7492
24.5971
24.0193
22.7721
284.853
129.196
80.9196
71.7628
67.6552
54.6604
63.7494
53.5861
59.8694
53.5304
56.4342
52.9411
54.4019
52.7455
53.5736
52.7159
53.2345
52.5976
52.8154
51.4417
254.001
147.885
97.5505
70.7826
65.6015
50.4978
55.7418
45.9057
50.755
45.2124
48.401
45.7549
47.6283
46.3601
47.2421
46.3241
46.4359
45.2226
44.8887
43.487
233.792
146.197
95.509
68.2361
66.9541
50.9489
56.0643
45.7764
49.4081
43.9263
46.0819
43.5951
44.9233
43.7431
44.4137
43.5979
43.6147
42.4726
42.0927
40.985
203.002
153.43
93.3803
69.055
69.2517
51.4279
56.3604
45.0219
48.2973
42.5707
44.6486
42.0898
43.5069
42.414
43.2565
42.4547
42.4382
41.0905
40.6097
39.6855
409.685
170.944
135.667
78.9737
78.4443
56.3324
59.573
48.5571
48.3914
43.2855
43.4968
41.5987
42.0974
41.3433
41.7586
41.2554
41.1613
40.0931
39.6956
39.0327
252.576
190.178
132.082
77.326
78.1483
55.4407
56.2943
45.7525
46.131
41.4911
42.5505
40.7383
41.9079
41.1011
41.3025
40.4895
40.3219
39.0013
38.593
37.7897
266.803
189.86
133.698
80.8014
83.2342
63.0934
58.4801
47.9314
46.8214
43.3093
43.9332
42.9492
43.4063
42.7142
44.034
40.8664
39.5183
37.7727
37.1606
36.289
273.136
193.531
131.021
74.884
65.0455
56.9065
58.7752
51.7822
50.4966
49.5727
49.7898
49.6677
49.3729
48.7556
47.8113
42.2419
39.0278
36.9376
36.5548
35.7748
224.98
169.477
124.977
73.3895
72.9796
58.8983
56.0551
56.1085
54.6985
52.3045
51.2518
51.836
53.1058
52.4322
49.047
41.784
38.7775
37.2899
37.0643
36.6363
267.234
147.56
92.2676
70.9924
58.9907
56.1302
53.7839
54.958
54.6768
50.2998
50.0054
50.0095
52.9586
52.6567
49.005
41.4187
38.7126
37.8151
37.845
37.7941
202.847
133.25
88.5272
65.3416
62.3459
54.1045
57.5198
53.6841
52.7224
50.7318
49.4222
49.4059
50.6272
50.7285
47.7047
40.3633
38.5499
38.3453
38.6626
39.0584
281.407
157.866
108.439
69.729
69.6824
55.9343
53.5158
47.5041
46.7382
43.577
43.9569
42.3625
42.8716
42.1815
39.7103
37.3638
37.427
37.9514
38.5356
39.2776
327.017
134.08
96.9483
67.532
68.2928
49.4083
54.0061
42.8365
42.6582
36.9294
37.9288
35.3097
36.1202
34.8754
35.054
34.8347
35.6298
36.3953
37.2153
38.4025
214.627
135.593
97.889
65.3799
65.8911
49.5367
53.045
40.1161
40.4332
35.153
36.0761
33.9851
34.5959
33.7176
33.9691
33.7482
34.1478
34.6429
35.2969
36.7467
163.333
142.095
91.0882
68.4485
64.006
47.3614
52.4955
40.1938
42.6288
36.2198
37.6119
34.5262
35.5893
34.0025
34.6339
33.9669
34.4939
34.5007
34.9442
35.8344
160.379
167.714
104.865
65.3132
63.6651
48.0286
52.4809
40.5441
44.3275
36.9669
39.1062
35.5654
36.9004
35.0321
35.4898
34.5476
34.844
34.6136
34.8381
35.4117
223.88
151.373
104.484
64.7761
72.4581
50.3591
58.1905
45.3846
49.7116
41.9732
44.0163
39.9071
41.2987
39.0166
39.578
38.3029
38.6968
38.2047
38.5604
38.9906
309.782
164.251
114.236
71.0806
84.378
60.1342
64.7169
48.8579
54.7283
47.0671
51.6833
48.3662
51.0399
48.9027
49.5195
47.7325
47.5097
46.0987
45.7473
45.6114
84.7078
98.5426
82.4138
75.1391
69.3912
61.2044
51.5686
42.6441
37.7324
34.676
32.5669
30.307
28.363
26.2109
24.4716
22.6224
21.3221
19.7621
19.1449
17.7699
30.0768
31.4931
68.0767
32.5819
31.9642
33.1104
79.1691
30.2266
68.2285
60.2366
32.0641
32.6868
78.2082
62.7532
67.5134
29.5052
29.237
31.7999
82.8799
30.6498
30.3514
67.2551
29.1552
28.4333
84.1354
70.5565
30.26
29.428
216.784
273.355
213.189
76.6337
62.8572
84.3474
65.7242
211.932
209.506
201.851
60.8115
55.1188
60.7678
51.5032
174.298
199.355
177.386
53.5397
47.6519
50.2248
45.9499
174.17
175.687
187.628
45.4928
39.1651
43.5719
37.8305
180.53
190.713
190.437
37.7261
35.3261
36.9136
35.4381
182.088
187.763
178.373
34.7152
33.8401
35.1374
34.3477
174.774
176.108
168.848
33.6074
33.0655
34.08
33.5287
155.392
166.786
144.596
32.8971
31.6249
33.4358
32.5851
216.355
286.155
205.149
98.7595
69.7658
97.6704
66.3804
204.555
193.306
191.791
62.7584
49.91
58.4793
43.9221
185.849
195.269
197.167
47.8387
44.568
41.6024
40.4635
192.356
194.444
188.074
43.0419
38.5785
40.9075
41.5089
188.005
183.277
169.406
37.7917
36.271
41.4089
39.396
173.899
165.28
158.323
35.8997
34.8091
38.5945
36.449
164.696
157.36
153.304
34.5331
33.9448
36.0331
35.0775
142.728
152.275
125.621
33.8627
32.7136
34.9381
34.4815
190.488
235.177
204.157
73.0875
57.5117
75.9846
59.9998
181.205
197.266
169.864
52.7727
42.7426
56.7979
47.2765
187.693
162.834
153.591
40.9856
40.2417
44.5048
40.7082
177.01
152.405
152.758
40.9538
41.8685
40.2756
38.9622
162.874
153.852
157.04
41.5896
39.1237
38.4992
37.3573
156.2
157.375
155.449
38.3691
36.5339
36.9708
35.6462
151.789
151.93
141.813
36.2062
35.3654
35.1334
33.3354
122.884
133.964
105.15
35.2581
34.8673
32.7992
27.411
205.926
290.54
206.668
90.8083
65.237
97.786
77.4685
169.064
194.517
167.277
60.0675
48.4552
68.9033
49.9675
149.567
165.565
157.514
45.2112
40.3632
46.2035
39.0793
150.886
157.956
158.412
39.8107
38.4588
37.845
35.6891
156.877
157.222
148.279
38.0269
36.537
35.0314
33.2476
149.602
144.67
136.268
36.0341
34.2351
32.8487
31.578
132.592
131.37
115.332
33.6383
31.1245
31.0549
28.8947
104.96
112.363
97.2535
30.2082
25.9648
28.2389
25.0885
56.6921
70.7592
57.7984
51.5301
45.7704
52.3118
44.7608
49.831
54.1444
46.9112
44.2948
39.9434
43.1518
38.9667
42.1696
45.6916
40.9624
38.3814
33.743
37.7752
33.7679
34.3602
38.8429
33.8395
32.2785
28.8595
32.4612
29.4824
31.1878
32.9606
31.565
28.1639
27.0079
28.9226
28.1888
30.0977
31.3106
30.7951
26.81
26.4805
28.1532
28.2984
29.6367
30.665
30.5497
26.3989
26.3673
28.397
28.8995
29.2868
30.5924
31.0565
26.3829
26.4775
29.1228
30.0404
60.7385
78.2215
57.5957
54.0715
45.1336
54.042
42.6609
45.3265
51.3997
39.6147
43.0145
37.8746
39.7585
33.7687
40.045
37.64
36.3968
36.6558
33.5585
32.6613
31.4857
34.5054
36.5812
37.2159
32.5137
30.1993
31.6556
44.1697
32.4088
37.2442
36.1094
29.8678
29.7185
45.5822
45.6059
31.5913
35.5539
34.2073
29.8456
30.3778
44.5513
40.7033
31.4043
33.9086
32.7556
30.5578
30.993
39.0249
33.5171
31.3925
32.4048
32.0082
31.1212
31.2568
32.1989
30.1637
50.7008
64.4404
53.1271
49.4773
40.1644
49.3123
41.3879
38.447
50.1408
41.5567
37.8454
32.897
39.0376
33.5301
35.9983
39.2913
36.0783
31.9365
30.927
32.2896
30.365
37.2951
35.6728
34.5889
30.95
44.0305
30.0688
29.6074
35.8701
34.2216
33.2128
45.9772
46.732
29.4729
28.7322
34.0655
32.8695
31.6395
45.1282
38.3991
28.3913
27.0835
32.4155
31.1869
29.5901
36.2279
30.7938
26.6225
25.2201
31.9926
29.0899
25.219
29.7143
28.8125
24.8015
23.2486
57.7501
80.3562
68.7932
51.9761
43.4404
57.9767
48.8518
42.5769
60.6637
44.4189
40.5125
33.9983
44.1094
35.7866
35.903
41.0297
34.9805
32.5842
30.2888
33.5361
29.6654
34.1667
33.9731
31.864
29.929
29.0622
29.1835
27.4562
32.4029
31.1566
29.5338
28.7446
27.6451
26.7248
25.3117
30.4443
29.2088
27.9438
27.2862
26.0102
25.0684
23.738
27.8462
27.4217
25.5382
25.5581
24.0239
23.1808
21.8229
23.898
24.9544
22.7236
23.5318
22.3047
21.4542
20.3265
43.8436
48.9294
42.5732
46.4976
41.2898
44.8243
40.3544
38.0479
41.2216
37.4509
39.6648
35.8884
39.3427
36.3375
32.5172
36.3064
32.7659
34.8363
32.3528
35.4651
33.187
28.4271
31.6729
29.2357
31.6011
30.0228
32.5085
31.1089
26.9006
28.7883
28.2961
29.7291
29.3155
30.8744
30.7337
26.4743
28.311
28.5754
29.2306
29.0145
30.7821
31.1273
26.4037
28.6948
29.2131
28.9427
28.8937
31.238
31.5853
26.4758
29.4281
30.1875
28.8516
28.5606
31.6564
31.6526
42.5671
49.0659
40.1824
43.4158
39.9246
42.7531
37.736
36.5736
37.872
33.0364
38.9243
36.0429
36.5276
34.0073
32.6615
32.1184
31.0745
35.2753
33.2115
33.4645
32.3673
31.5096
30.9555
31.5906
31.4973
31.3556
30.8476
31.4173
36.5146
29.9383
33.4453
30.3981
34.254
30.5221
35.2267
31.0175
57.0365
45.3034
32.8216
33.0626
56.3903
42.1504
31.4592
42.0149
34.2788
33.0867
33.1043
39.2889
34.5609
31.5245
32.7646
30.5632
33.0896
32.6333
33.8497
32.7536
38.4168
46.2404
39.3069
43.0104
36.9821
42.9012
37.233
32.2454
37.1612
32.4416
35.752
33.3882
35.6734
32.7637
30.5246
31.4169
29.7756
32.8886
31.8848
32.1833
30.9637
41.752
49.8677
30.2917
36.1139
34.3526
224.057
30.5094
45.9489
69.7399
40.0264
182.907
39.9102
168.979
46.9799
41.9174
28.0676
26.6937
58.4659
39.9363
29.0246
27.9056
31.0686
26.2265
24.9525
36.9401
32.4105
27.6444
27.2972
29.0142
24.625
23.5733
31.855
31.6264
27.3113
27.5015
40.824
52.0299
45.105
42.4101
37.8803
45.002
39.8686
32.7761
41.1557
34.3722
36.1055
32.7746
37.4624
33.2892
29.687
32.3601
29.101
32.0969
30.8236
31.8903
30.0061
28.5741
28.6933
27.0107
30.4919
29.5839
29.6645
27.9137
27.2232
26.2756
24.9616
29.2654
28.2804
27.2735
26.3162
25.6245
24.7161
23.3527
27.9548
27.063
26.0465
24.8512
23.8582
22.8177
21.6815
26.8273
26.4782
24.5134
24.208
22.6964
21.3952
20.5173
26.465
26.7467
24.1257
23.9623
41.5726
44.8995
40.9976
52.8751
47.6016
50.8796
49.4041
36.4278
40.0579
37.3421
46.0785
44.0487
48.7204
47.229
33.5905
36.6016
34.6729
43.9965
43.571
46.9817
45.6966
31.7132
34.0561
32.8041
43.153
42.9351
45.0189
44.0486
31.2823
32.5933
32.4565
43.2083
43.4949
43.9679
44.2499
30.9792
32.5037
32.9842
43.3369
43.1185
44.541
45.7622
30.8294
33.1335
33.4418
43.1188
42.9461
45.9476
45.8698
30.1904
33.4463
33.0407
42.687
41.4292
45.6484
44.4233
40.567
42.414
38.4604
49.426
49.3583
47.8855
47.94
37.2298
37.5533
35.6731
48.8948
47.708
47.919
47.7357
34.6902
35.2155
33.8184
47.4324
45.3194
47.2805
44.1968
33.4058
34.0806
53.2408
44.5461
43.5339
43.4184
44.894
33.8749
54.0658
49.6141
43.4718
43.6812
45.3512
44.5623
34.3632
46.7883
39.6223
44.0425
45.934
44.151
45.804
34.5932
38.0334
35.4329
46.2962
46.3301
46.3948
46.6619
33.8516
35.0496
34.1382
46.1062
44.6684
46.4415
44.9584
37.8466
43.2156
37.962
48.1263
47.4455
50.2711
47.2362
35.116
36.6283
34.3083
47.4347
47.4455
46.738
46.2819
33.4007
33.8539
32.5962
47.0137
43.8976
46.1427
43.7912
53.8994
32.1917
31.6189
43.0932
44.4532
42.8575
41.458
51.1252
31.4678
30.593
44.7679
43.9087
41.2564
40.82
38.0244
30.2183
29.5574
43.4984
45.1334
41.0497
43.1962
33.8659
29.5049
29.6845
45.769
46.2053
43.7494
44.2941
33.2903
29.7984
29.9599
46.0551
44.7669
44.3143
43.7557
38.4693
44.3546
39.9527
50.4614
47.3436
50.9636
46.2933
34.196
37.7893
34.0756
46.5739
45.6913
44.6308
42.3083
32.4663
32.9092
31.4531
45.5913
44.0832
42.3187
41.971
30.9711
31.0632
29.2539
43.1843
41.7453
41.2639
39.9517
29.6811
28.7079
27.9483
41.5463
41.3752
40.0995
40.0359
28.8927
27.6662
26.6725
41.5962
42.9896
39.6707
39.4031
28.9663
26.4956
26.5383
43.2994
43.7022
39.6051
39.918
29.2635
26.5067
26.2526
43.7053
43.2227
39.7784
39.0286
53.28
57.1018
56.376
86.7575
85.3761
88.7032
95.7256
50.2923
55.6744
54.3283
84.3002
89.1296
95.6686
97.3456
50.0004
54.1325
53.1637
91.0906
90.6531
98.0424
102.072
49.4031
52.618
51.9184
90.4718
93.39
103.375
106.481
49.8546
51.8747
52.0424
94.7298
94.054
106.985
106.543
49.3225
52.12
52.6968
93.9158
94.6076
105.574
101.548
49.0106
52.7081
52.3005
95.2992
94.2844
100.72
99.1972
46.925
52.0249
50.2168
94.2966
90.9808
98.886
97.2245
56.5468
54.2237
55.4414
89.5115
98.1981
88.6736
100.204
54.9593
55.4763
55.2264
98.1361
99.0281
100.593
102.15
53.0334
54.9271
51.9025
99.8914
105.711
103.895
113.626
51.3208
50.6161
50.3222
107.555
111.11
116.645
121.39
51.4762
50.6122
50.3237
111.606
110.959
121.912
120.112
52.9434
50.6067
52.9631
109.686
103.85
117.856
108.665
52.7127
53.3921
53.2177
102.139
99.8224
105.646
101.309
50.3708
52.8904
50.5916
99.4085
96.6873
100.753
96.8676
54.8315
56.7598
54.4313
84.3048
98.3993
88.515
96.52
54.9114
54.0318
53.5422
99.4489
101.949
97.0339
98.8902
51.6244
53.3641
51.5476
103.82
113.608
99.9863
105.417
49.8436
50.5836
49.194
116.689
121.066
107.305
110.394
49.6868
49.0497
48.8957
121.589
120.396
110.857
110.202
52.4926
49.2326
50.7163
118.036
108.774
108.889
103.553
52.9343
51.1529
51.3618
105.724
101.397
101.989
99.8811
50.4639
51.2878
49.806
100.796
97.076
99.6218
96.6715
54.3691
57.6288
51.7646
91.3638
95.3339
89.4074
83.5692
52.8286
50.2365
48.3292
95.3342
97.1038
82.9167
87.6519
51.5121
48.6561
48.0473
97.999
101.587
91.2368
89.057
49.536
47.2688
46.283
102.956
105.82
88.6951
92.7727
49.2912
46.5092
46.3018
106.375
105.812
94.5035
93.0537
50.3584
45.9113
45.8499
104.931
101.217
92.726
94.3531
50.7898
46.1794
46.345
100.596
99.1189
95.0087
93.5633
49.3607
46.1624
44.6887
98.9248
97.1284
93.3879
89.4599
32.3259
30.3736
32.6124
30.3794
31.6683
30.4678
34.0058
36.3448
31.5686
47.9662
36.2015
33.1031
31.6997
173.791
46.0687
42.1343
62.7697
202.47
37.3285
53.946
224.331
31.9477
31.751
32.104
32.554
31.2118
31.7288
32.6784
33.0426
31.0101
31.9181
35.2065
30.9791
35.0034
33.5347
37.3689
37.4544
32.7283
54.6258
32.0923
180.169
35.0993
48.9728
207.669
48.2498
73.6957
58.0375
229.672
41.73
37.7107
30.0371
35.5532
31.0192
35.0606
30.7722
37.9415
63.282
45.0509
67.5484
187.361
47.5567
58.0743
172.347
65.2902
48.7657
65.213
91.3918
49.3449
60.2496
116.284
37.7177
31.1054
32.2431
36.3392
31.307
36.3379
37.3475
38.8473
31.8394
32.4868
38.1366
31.5998
38.85
38.0874
67.3042
191.494
51.2723
76.4098
62.009
177.01
53.5948
68.151
91.0565
51.8891
71.5096
61.6074
120.528
53.9702
48.0668
62.4338
39.7169
196.828
38.156
212.392
48.0381
30.4006
29.7259
29.3427
29.401
30.0397
29.6939
29.2744
31.3908
31.2837
29.2806
29.2539
30.7018
32.0339
29.2653
42.605
37.2986
55.7085
31.7059
219.105
31.0029
36.3734
49.2557
199.48
75.6588
43.032
216.663
49.047
41.2287
30.845
29.7554
30.9395
30.4514
30.0768
29.6216
31.3505
31.9007
29.6064
32.8287
30.3877
32.5505
29.6145
32.1762
43.8854
73.0414
38.8925
118.934
39.6193
157.246
42.873
32.1873
31.5143
29.0062
29.198
31.496
32.245
29.0617
31.971
31.1009
28.7414
28.4604
31.3807
31.625
28.7823
46.9543
185.163
82.9145
43.1605
171.158
48.0301
42.8124
44.6302
112.453
82.2595
40.6973
151.305
43.3659
42.1184
32.6788
29.5489
33.0262
30.0806
32.7505
29.403
32.9654
32.4115
28.7711
32.2147
29.7754
31.9731
29.1078
32.7182
177.093
199.422
177.052
112.776
90.8494
110.552
89.9219
146.273
163.77
148.985
80.2185
71.6813
78.7025
71.3157
121.879
133.886
123.583
66.6067
61.6209
64.5891
61.2808
113.441
114.646
111.537
55.5334
51.0695
55.1365
47.8104
106.431
110.029
110.545
47.9158
43.9311
44.5624
42.5167
104.745
110.492
110.402
41.7813
41.0291
41.5052
40.8277
102.157
109.592
108.357
40.0061
39.0658
40.5797
40.2041
93.1834
106.436
98.5918
38.6911
32.2145
39.8468
34.0721
165.472
191.283
168.545
104.783
86.1699
113.596
95.4574
124.286
238.959
262.501
147.854
122.14
147.282
234.632
90.7251
218.029
217.293
90.3089
86.9726
94.3543
217.456
84.7383
185.792
200.268
82.4504
80.3452
85.4905
187.77
70.0458
171.27
169.556
76.7715
75.6478
74.102
169.854
64.9583
176.153
178.214
70.7653
68.4982
65.333
180.457
63.8777
182.216
186.936
64.557
63.1055
64.059
186.531
62.3318
178.198
181.848
61.2239
60.0815
62.7766
178.93
59.6435
169.965
172.487
58.1094
56.9932
60.3261
169.553
93.9025
102.516
88.4307
36.4566
31.5984
37.2124
33.4389
194.941
219.213
184.021
136.396
113.415
135.24
110.831
149.496
262.071
300.352
172.794
145.103
176.51
255.433
83.6328
203.548
195.773
94.6092
86.5514
91.8897
194.901
73.0311
202.563
205.67
76.058
74.6793
73.9595
205.485
70.4188
184.01
190.988
72.1697
69.7507
71.0561
190.892
68.7885
193.003
193.033
67.8136
67.3601
69.513
191.766
63.9439
180.3
179.045
65.1244
64.0272
65.4266
174.775
59.327
169.502
166.563
61.1319
60.068
60.3927
164.644
56.5414
159.661
157.759
57.6987
57.0344
57.0299
155.352
82.7744
90.0671
77.7186
37.0001
33.3129
37.6961
32.7279
135.577
141.781
137.575
77.0275
76.6978
78.5406
76.8747
99.8775
209.588
206.859
127.16
112.466
114.963
201.125
84.7128
182.246
181.651
86.4597
79.736
88.8507
178.009
71.0144
184.1
169.887
69.7943
68.5788
72.733
169.627
73.9952
185.754
169.391
72.2809
74.3703
72.8997
168.22
70.2557
168.981
161.489
74.529
72.2528
72.6568
160.352
63.6192
157.942
156.835
66.2837
64.202
65.1533
156.348
61.527
154.23
155.175
60.1986
59.6505
61.8595
153.438
60.6685
148.067
148.106
59.7026
59.8639
60.6588
142.525
79.2538
82.5294
80.5479
37.2804
30.3441
31.2156
25.0401
167.669
202.573
177.452
124.814
105.013
127.016
109.226
135.798
231.944
270.48
151.175
129.728
154.242
234.917
87.5242
189.881
196.311
88.1321
86.0199
91.1725
188.717
71.6813
155.859
159.85
75.9717
72.4436
75.4461
155.381
65.1014
148.637
150.34
68.1364
67.7851
65.6695
150.571
62.5814
155.506
155.451
66.2039
65.8855
63.2131
156.009
58.14
155.61
153.181
63.2647
62.4265
59.4625
150.567
53.1501
142.155
138.679
58.4436
57.4913
54.4965
134.768
46.078
117.975
116.496
50.733
48.5922
47.424
111.404
76.007
73.3395
70.7003
28.0089
24.0943
28.6373
24.4845
133.09
165.873
132.171
94.2723
84.2501
95.7966
81.8161
113.271
123.825
121.287
70.2898
60.6114
69.7142
63.1285
104.788
114.092
101.819
53.8792
48.5291
58.8212
48.7801
99.5532
100.248
99.4932
45.0208
42.5291
45.501
45.4644
92.0289
95.6457
88.5532
40.3293
38.5391
44.1302
39.9845
82.2237
84.3656
81.9252
37.6449