/*--------------------------------*- C++ -*----------------------------------*\
  =========                 |
  \\      /  F ield         | OpenFOAM: The Open Source CFD Toolbox
   \\    /   O peration     | Website:  https://openfoam.org
    \\  /    A nd           | Version:  10
     \\/     M anipulation  |
\*---------------------------------------------------------------------------*/
FoamFile
{
    format      ascii;
    class       volScalarField;
    location    "2.9";
    object      p;
}
// * * * * * * * * * * * * * * * * * * * * * * * * * * * * * * * * * * * * * //

dimensions      [0 2 -2 0 0 0 0];

internalField   nonuniform List<scalar> 
12920
(
-426653
-411843
-517493
-404707
-385524
-322144
-290774
-243030
-213456
-177614
-152447
-125765
-105091
-84576.9
-67706
-51460.1
-36699.3
-23041.5
-13550
2355.53
-536760
-490390
-567075
-419355
-401585
-320039
-289619
-238546
-209548
-173510
-149064
-122684
-102704
-82592.2
-66187.5
-50308.1
-35724.7
-22143
-12571.8
2894.01
-779379
-516303
-525472
-399446
-370875
-299399
-272398
-225055
-199528
-165044
-142454
-117076
-98189.5
-78712
-62923.5
-47580.6
-33474.7
-20365.5
-11064.5
3682.23
-836364
-556241
-516610
-390545
-359271
-286713
-254737
-209769
-183789
-152536
-131218
-108206
-90716.8
-72865.5
-58191.9
-43919.9
-30617.6
-18291
-9418.55
4209.7
-830988
-461329
-426467
-315359
-294100
-239899
-218947
-182001
-162649
-135662
-117799
-96995.3
-81742.1
-65361
-52205.1
-39220.8
-26990.2
-15682.2
-7608.71
4679.15
-864723
-419910
-407351
-272672
-268609
-212010
-189495
-158094
-138424
-116481
-100144
-83136.6
-69846.2
-56287.6
-44803.4
-33653.1
-22740.1
-12704
-5553.77
5271.31
-408031
-231110
-246110
-172157
-180993
-148213
-141860
-120623
-110975
-94119.4
-83104.3
-68603.4
-57938.1
-46353.5
-37039.8
-27612.3
-18160.9
-9592.23
-3564.6
5835.93
-214268
-102369
-170916
-109360
-132895
-105588
-110988
-99458.6
-90544.5
-79633.1
-69277.4
-58921.6
-49787.9
-40541.3
-27891.7
-21105.3
-13309
-6357.55
-1497.93
6446.48
377737
110313
-24003.7
-8816.48
-48670
-57039.4
-72781.3
-70205.3
-65830.6
-60038.8
-53615.3
-46637.3
-39787.6
-32806.1
-21249.9
-14168.3
-8697.84
-3450.11
437.183
7056.89
135546
121275
3085.26
31956.8
-6877.59
-16687.3
-30268.3
-35080.8
-35946.5
-34973
-32451.1
-29161.1
-25458.2
-21105.7
-14142.7
-7481.62
-3837.41
-57.3841
2618.25
7798.67
211801
157414
82093.8
93596.6
41426.7
24067.3
5297.78
-4329.89
-9215.09
-11802.8
-12890.7
-13169.8
-12061.6
-9881.64
-4961.28
-1322.52
559.917
3144.09
4660.48
8422.07
274417
206336
112972
117275
58362.2
51067.4
32522.5
21290.3
13242.4
7848.78
3708.84
1073.35
31.0384
261.65
2757.15
4833.49
5491.54
6794.39
6681.7
8951.76
277327
290668
161307
151402
99645.3
79674.7
54018.9
41041
30594.5
24069.1
18521.1
14222.3
11077.2
9021.94
8524.52
7921.88
9513.07
9863.81
8466.32
9424.6
211909
249422
149721
158296
94301.3
92433.4
61090.5
56963.5
40476.8
36101.1
27991.9
23656.2
18085.4
15377.1
12912.4
12268.4
12098.5
12329.7
10049.7
10168.8
92359.1
189943
117442
152961
103660
100638
80122
72129.9
55312.1
48389.7
37269
31212.5
24751.5
21156.7
17618.9
15376.9
14027.5
13037.3
11067.7
10914
111178
193733
147741
176704
106227
111925
82530.4
77722.5
59061.8
53122.8
40462.2
36064.8
28545.8
24971
20279.2
17938.3
15705.2
13956.5
11219.7
11321.5
89221.8
158598
157023
188636
123396
127559
97473.6
88609.1
67758.3
59075.7
45383.7
39880.7
31758
27414.3
22205.3
19434
16931.8
14549.6
11124.7
10709.4
416346
303394
204614
214342
138976
133481
99604.3
91632.6
68903.3
60763.7
47446.8
40416.6
31822.4
27327.9
22320.9
19375.6
16644.2
14517.4
10366.8
9647.92
421990
302965
207959
215219
146964
138443
103383
94970.7
72867.5
64416.8
50186.4
43181.4
34791.9
29749.1
24262.5
20562.4
17118.1
14181.3
8876.41
7741.77
47465.1
313788
210206
223251
154641
143185
105572
95140.5
74358.9
64952.1
51546.2
44435
36080.6
31074.2
25288
21379
17519.1
14263.9
7775.26
5690.86
-300464
-430319
-520392
-404305
-385594
-322052
-290743
-242925
-213407
-177571
-152419
-125759
-105080
-84592.9
-67709.5
-51442
-36695.9
-23031.1
-13487.1
2490.77
-743752
-507051
-567085
-419315
-401035
-320144
-289978
-238607
-209699
-173493
-149127
-122685
-102739
-82603.2
-66215.3
-50285.2
-35655.2
-22065.8
-12527.9
3058.81
-735348
-507971
-526494
-400353
-371556
-299862
-272846
-225145
-199789
-165068
-142559
-117067
-98220.3
-78670.6
-62890.8
-47547.6
-33425.4
-20284.9
-11022.6
4075.89
-836055
-554156
-513599
-388100
-360043
-286365
-255355
-209943
-184118
-152580
-131329
-108192
-90751.3
-72841.8
-58141.4
-43912
-30612.3
-18217.7
-9397.3
4635.92
-697249
-436298
-418415
-313150
-295082
-239854
-219434
-182162
-162902
-135803
-117887
-97019.2
-81796.3
-65349.8
-52191
-39213.1
-26992.6
-15630.7
-7617.23
5204.47
-774726
-408268
-402879
-272000
-269613
-211543
-190027
-158214
-138530
-116916
-100379
-83446.1
-69878
-56262
-44779.8
-33657.5
-22730.4
-12671.6
-5592.51
5830.31
-409312
-236675
-242460
-169361
-181048
-148368
-142079
-120669
-111486
-94107.6
-83289.3
-68547.9
-58042.7
-46418.3
-37064
-27601.6
-18131.7
-9577.46
-3572.26
6402.33
-108120
-96367.3
-165797
-108166
-133079
-105632
-111807
-99818.6
-90835.8
-79611
-69429.2
-58980.6
-49903.1
-40560.1
-27754.9
-21127.2
-13263.5
-6332.14
-1487.87
7039.22
225367
75571.2
-27709.3
-8483.6
-49399.4
-56849.9
-73315.5
-70372.1
-66075.6
-60182
-53719.6
-46666.5
-39889.2
-32828.3
-21061.4
-14050.9
-8677.34
-3529.41
485.226
7739.84
65013.2
78919.5
8771.34
33457
-9213.47
-16484.8
-30709.9
-35174.6
-35893.7
-34836.5
-32292.6
-29098.2
-25424.7
-21067.1
-13906.2
-7417.66
-4168.29
-147.838
2619.86
8580.2
247366
139781
83831.2
94565.7
41505.8
23789.6
4750.27
-4368.95
-9140.82
-11776
-12810.4
-13179.7
-12020
-9827.38
-4811.33
-1377.45
576.83
3204.2
4663.69
9203.21
224074
200555
108329
117264
56982.5
51124.6
32419
21370.2
13293.7
7777.42
3717.03
1135.97
109.487
315.734
2779.2
4892.93
5433.9
6773.75
6673.55
9732.05
455488
314341
167272
153225
98838.2
79953.3
54746.9
40961.7
31099.7
24228.5
18822.4
14516.6
11292.9
9155.63
8485.82
7773.57
9444.32
9796.86
8437.12
10164.7
263604
254173
145990
157729
92978.2
92752.2
61519.1
56930.2
40263.9
36189.4
27954.3
23661.2
18240.9
15446.6
12925.1
12278.1
12283
12222.1
9990.17
10792.6
132295
196820
120897
158177
102932
102119
80756.3
72460.3
55839
48105.4
37178.6
31250.1
24804.5
21262.1
17636.8
15379.4
14097.6
13104
11000.8
11484.5
35182.1
147117
141138
176306
104312
112069
82823.5
78511.4
59578.5
53154.8
40271.1
36036.1
28480.9
25043.2
20286.4
17972.7
15757.4
13957.5
11295.5
11993.5
125970
167625
154294
188833
122238
127490
97406.2
88268.5
67132.7
59047.1
45301.5
39820.5
31838.9
27476.9
22215.4
19421.7
16994.4
14560.7
11044
11605.7
429713
313831
209950
214210
138222
133250
98826.6
90581
68609.5
61051
47633.3
40799
31871.6
27418.9
22347.3
19419.5
16736.9
14573.5
10310.4
10187
489647
299506
208641
214940
146186
137958
102918
94992.2
72838.2
64477.3
50082.3
43087.1
34716.4
29731.4
24236
20535.1
17095.8
14178.8
8918.83
8011.36
114817
282953
213102
224794
154889
143488
105597
95495.6
74359.4
65004.9
51633.6
44337.8
35997.2
31051.8
25273.7
21379.2
17539.3
14265.2
7832.51
5787.18
-393780
-432465
-530539
-404721
-386396
-322280
-290819
-242824
-213370
-177523
-152431
-125734
-105090
-84526.6
-67729.4
-51475.4
-36653.6
-22941.5
-13413.7
2663.8
-725435
-507959
-564458
-418061
-399702
-320507
-290392
-238668
-209924
-173419
-149177
-122646
-102725
-82584.1
-66183.6
-50236.5
-35581
-21940.1
-12481.6
3437.29
-826161
-517442
-532711
-400929
-372786
-300608
-273605
-225445
-200285
-165167
-142769
-117040
-98267.1
-78630
-62875.6
-47529.7
-33391
-20222.4
-11059.1
4560.92
-653100
-530973
-513829
-384313
-361635
-286344
-256403
-210454
-184710
-152864
-131514
-108245
-90803.5
-72805.1
-58059.4
-43877.8
-30601
-18129.4
-9402.96
5206.61
-773381
-431590
-426723
-313281
-297218
-240239
-220346
-182717
-163363
-136092
-118066
-97138.6
-81873
-65321
-52160.9
-39195
-26942.1
-15537.1
-7621.24
5901.89
-731783
-377598
-398288
-270382
-269659
-211006
-190840
-158636
-138904
-117215
-100677
-83651.5
-69959.6
-56283
-44748.7
-33666.6
-22704.8
-12582
-5604.74
6571.6
-455466
-232460
-238064
-171683
-181424
-148596
-142827
-120820
-111967
-93929.5
-83318.2
-68406.1
-58229.9
-46535.6
-37087.1
-27571
-18089.5
-9518.8
-3577.44
7242.47
-122706
-87229.8
-159590
-108410
-133201
-105538
-112670
-100422
-91267.9
-79784.2
-69726.4
-59133
-49991.4
-40380.5
-27817.4
-21174.5
-13199.2
-6355.81
-1526.09
8026.35
106590
54794.6
-30102.4
-9299.34
-50038.5
-57098.6
-74333.7
-70788
-66523.2
-60394.4
-53816.9
-46770.7
-39882.2
-32726.3
-21008.9
-14040.4
-9020.83
-3463.31
442.68
8838.92
168996
79388.1
18291.8
36171.9
-11378
-16408.4
-30864.3
-35200.2
-35822.7
-34529.3
-32083.1
-29009.7
-25325.9
-20969.6
-13717.4
-7728.73
-4203.79
-130.367
2561.7
9723.27
316585
154871
92352.2
96701.6
42083.1
24020.1
4550.48
-4369.62
-9081.39
-12028.5
-12460
-13376
-12009.6
-9781.1
-4755.55
-1537.35
631.47
3243.35
4630.21
10357.4
284661
199129
108829
117987
54794
50674.4
32759.7
21395
13301.6
7812.11
3764.11
1214.36
206.197
331.699
2692.42
4956.55
5383.26
6764.82
6629.12
10832.6
451067
311812
166631
154194
97555.4
80124.2
55554.5
40507.3
31362
24263
19047.9
14811.9
11680.6
9345.74
7884.14
7538.25
9406.24
9719.37
8381.57
11241.4
367704
271578
148150
156402
90960
93181.3
62036.5
56890.5
40291.4
36317.6
28209.2
23696.1
18377.1
15499.5
12876.8
11836
12154.3
12080
9785.8
11871.9
-74565.3
164749
124635
160415
101283
104033
81497.4
72618.9
56659.3
47912.8
37450.7
31268.2
25108.2
21269
17728
15382.6
14211.8
13032.4
10504.5
12465.2
-160867
131091
134805
179037
101159
113906
82694.2
78605.5
60266
53205.5
40368.3
36049.1
28496.7
25087.9
20312.2
17982.6
15810.8
13702.9
10847
13009.7
129973
181656
153145
189976
121049
127825
96971.7
87772.5
67015.1
59101.6
44967.3
39799.8
31852.6
27516.8
22249.7
19476.5
17204.5
14787.5
10709.8
12783.9
327988
332331
205262
212995
135994
132455
97502.2
90497.5
68598.6
61294.2
47663.5
41150.1
32032.1
27639
22450.9
19528.8
16853.6
14641.9
10231.5
11164.6
300280
304988
202754
212931
144344
136633
102624
94839.1
72740.6
64532.5
50028.6
42932.7
34574.1
29685.7
24197.8
20496.3
17120.6
14274.7
8997.96
8463.4
137244
238989
206201
223221
153954
143222
105973
95890.5
74364.2
65025.6
51675.4
44206.1
35863
31011
25239.8
21363.3
17553.8
14285.5
7937.72
6148.39
-515175
-453894
-532593
-405812
-386647
-322457
-291028
-242799
-213363
-177497
-152509
-125785
-105195
-84585.8
-67735.5
-51476.8
-36671.8
-22847.5
-13349.2
3173.97
-811640
-511221
-565228
-414246
-397782
-321208
-291684
-239038
-210138
-173459
-149248
-122640
-102721
-82538.4
-66165.6
-50238.9
-35567.6
-21797.1
-12365.2
4139.28
-686519
-529856
-529641
-400880
-372531
-302115
-275314
-226109
-201078
-165161
-143163
-117023
-98347.3
-78630.8
-62910
-47501.4
-33388.7
-19977.7
-10799.3
5052.82
-578368
-535070
-504173
-380434
-360429
-286570
-257822
-211178
-185496
-153090
-131835
-108245
-91008.3
-72786.5
-57872.3
-43880.6
-30619.7
-17879
-9286.82
5829.3
-776268
-415393
-432169
-313007
-299428
-240581
-221603
-183439
-164004
-136382
-118269
-97249.5
-81900.1
-65344.8
-52113
-39180.7
-26957.7
-15311.9
-7550.82
6695.39
-437726
-341145
-386774
-267117
-269320
-210519
-192056
-159256
-139214
-117545
-100856
-83766.2
-70047.7
-56326.7
-44662.4
-33724.1
-22657.4
-12380.5
-5544.16
7481.96
-387693
-213719
-232756
-172647
-181534
-148676
-143843
-120675
-112333
-93915.6
-83398.9
-68423.7
-58296.5
-46435.4
-37030.5
-27498.4
-18044
-9381.11
-3575.86
8328.99
111426
-76230.8
-147786
-106965
-133036
-105524
-113230
-101368
-91584.6
-80059.7
-69895.2
-59347
-49966.6
-40241.1
-27901.2
-21212.3
-13304.9
-6261.7
-1633.11
9290.62
177976
64744.8
-29300.7
-9069.83
-50674.2
-58618.6
-74936.2
-71154.6
-66711.8
-60277
-53709.9
-46754.1
-39827.1
-32638.5
-20999.6
-14141.3
-8988.65
-3315.21
197.559
10247.8
184133
66765.7
23708.2
39153.1
-12790.1
-16211.9
-30977.9
-35244.7
-35904.6
-34626.1
-32083.8
-28938.2
-25199.5
-20883.5
-13628.6
-7958.58
-4034.55
-51.6163
2319.56
11108.9
307723
157623
98382.4
98279.3
42406.5
24635.7
4491.06
-4396.41
-9094.2
-10889.6
-12512.7
-13103
-11908.7
-9737.71
-4911.27
-1390.29
726.49
3331.53
4510.76
11690.7
184920
210506
105361
118037
51810.5
49782.5
32870.6
21309.4
13229
7807.87
3913.45
1385.81
405.388
428.856
2525.26
5027.81
5360.56
6809.19
6570.36
12095.7
516584
326582
173131
156953
96876.4
80931.8
55102.4
40288.5
30437.1
23687.8
18922.7
14845.2
11865.8
9145.23
7277.38
7227.27
9378.09
9701.98
8343.07
12554.9
370477
285525
145969
155555
88555.4
94314
61536.9
57158.7
40501.8
36595.7
28140.5
23755.3
18481.1
15479.6
12746.2
11060.1
11959.6
12078.1
9637.25
13194.4
-85202.9
142035
126915
162815
99460.8
105400
81975.1
72776.6
57211.5
47864.3
37597.1
31212
25352.8
21097.6
17755.5
15312.8
14205.7
12907.4
9637.55
13676.2
-228566
113615
127029
180214
97750
115006
83099
78670.1
61119.6
53158.5
40681.5
36012.8
28486.5
25002.6
20309.4
17933.9
15762.5
13366.2
10172
14289.7
197547
201759
154165
189413
119070
128309
96840.5
87394.2
67601.5
59096.8
44575.3
39739
31810.9
27465.5
22290
19504.8
17466.7
15168.5
10278.9
14006.1
445916
336728
206695
210757
133936
131773
96795.9
90331.1
68751.9
61294.4
47629.1
41255.3
32296.4
27828.2
22588.3
19587.6
16953.5
14799.8
10219.2
12376
378587
294471
201505
210531
142965
135346
102575
94393.7
72808.2
64484.4
50058.4
42305.1
34343.6
29645.9
24194
20505
17166
14385.3
9290.33
9142.73
181548
241168
216766
226671
154832
143541
106372
96072
74439.9
65044.1
51704.5
44153.1
35753.5
30949.1
25190.8
21328.5
17555.3
14327.7
8098.56
6910.34
-595537
-469318
-541391
-406016
-387004
-322597
-291376
-242761
-213458
-177615
-152675
-125830
-105267
-84584.2
-67775.2
-51526.1
-36667.3
-22737.1
-13362.7
4025.08
-687810
-516520
-561396
-411994
-396013
-321803
-292864
-239494
-210409
-173448
-149339
-122679
-102809
-82628.9
-66245
-50297.3
-35590.1
-21629
-12382.6
5260.5
-844037
-546049
-532614
-399844
-371977
-302416
-275169
-227512
-201754
-164856
-143983
-116951
-98631.1
-78636.3
-62966.8
-47528.7
-33374.1
-19518.8
-10315.8
5583.42
-529548
-534703
-502950
-376818
-358974
-286297
-258653
-211821
-186366
-153056
-132572
-107991
-91693.1
-72764.9
-57420.3
-43977
-30689.6
-17352
-9094.2
6717.37
-813897
-428366
-432541
-312369
-299703
-240706
-222774
-184279
-164624
-136829
-118415
-97414.1
-81920.1
-65507.5
-51993.5
-39240.1
-27008.6
-14884.5
-7330.79
7816.97
-466952
-308932
-387275
-266074
-266461
-210208
-193541
-159682
-139267
-118079
-100923
-84016.6
-70103.6
-56419.1
-44632.6
-33778.2
-22680.3
-11982.2
-5398.71
8704.63
-356943
-203433
-234424
-173801
-181591
-148603
-144834
-120669
-112659
-93981
-83616.9
-68512.6
-58349.6
-46372.8
-36989.1
-27457.9
-18104.5
-9127.04
-3482.25
9623.65
183802
-64546.7
-145929
-105766
-133905
-105649
-113260
-102639
-92159.6
-80615.8
-70267.4
-59828.3
-49966.4
-40241.2
-28252.4
-21209.9
-13258.7
-6043.82
-1550.28
10490.9
90693.4
60218.6
-33834.8
-9062.74
-52043.5
-58731.9
-75187.2
-71794
-66934.5
-60425.3
-53796
-46753.8
-39904.3
-32899.5
-21311.7
-14465
-8816.2
-2887.06
210.416
11227.2
141602
61693.5
29985.3
42806
-13742.8
-16184
-31012.3
-35285.1
-35958.6
-34755.5
-32144.8
-28874.1
-25082.2
-20833.2
-13567.7
-7953.55
-3777.56
279.133
2313.94
12053.1
330635
157966
103443
99722.4
42530.1
25546.7
4665.26
-4405.3
-9159.4
-11786.1
-12760.3
-12845
-11590.7
-9671.33
-5102.25
-1350.58
837.001
3545.02
4474.64
12653.6
212352
212275
104320
116781
51531.7
49220.1
32897.9
21049.3
13217.8
7752.94
4048.99
1717.89
653.388
586.713
1653.48
4699.68
5320.21
6949.84
6539.2
13221.7
398200
316432
170175
157929
96514.1
82024.8
54330.3
40237.1
29683.7
23798.1
18310.3
14819.9
11271.5
8971.7
7069.96
7019.02
9192.13
9737.45
8298.03
13768.4
397916
303259
141456
155676
86188.5
94839.2
60624.8
57644.7
40418.5
36943.6
27667.4
23896.6
18208.2
15412.6
12637.3
11315.9
11776.7
11975
9644.77
14416.8
-84881.1
139666
128769
165002
98506.4
105751
82042
72931.8
57038
48141.3
37331.2
31238.3
25130
21134.3
17638.2
15224.3
14048.7
12858.9
9877.8
14772
-135833
116577
125034
180524
95944.6
115989
82407.5
79013.7
60667.3
53369.8
40810.4
36056.9
28538.9
25025.1
20269.9
17869.1
15727.4
13706.1
10284
15244.9
90881.8
202574
151076
189383
117195
128512
96410.5
87862.6
67741.7
59260.5
44798.9
39706.2
31705.2
27452.2
22358.6
19526.1
17487.1
15282.2
10495.1
14786.3
515006
348670
203910
210656
131481
132026
96759.1
89924.2
69043.3
61033.7
47660.6
40909.1
32465
27788.4
22642.7
19587.3
17038.8
15073.6
10384.3
13502.8
320447
291379
197303
209575
142559
134363
102856
93623.8
73029.9
64278
50036.8
41082.4
33983.8
29711.6
24239.4
20525.7
17206.7
14577
9890.49
10116.7
226000
235675
219687
227491
155169
143616
106530
95929.5
74442.6
65096.1
51731.8
44126.9
35763.2
30961.3
25216.4
21332.9
17559.2
14379.6
8182.92
7929.26
-32881.8
-17527.8
-17877.3
-34547.4
-32881.5
-17460.1
-17893.3
-29876.5
-17701
-16804
-32050.7
-29846.1
-17710.1
-17064.8
-12496.7
3018.49
276.476
-12200.6
-12512.1
3018.5
319.714
-13610.4
-331.351
-1941.76
-12512.7
-13755.7
-256.758
-1858.92
-73064.6
-42158.2
-43775
-73044.6
-73253.8
-41981.3
-43740
-68728.6
-43716.3
-43767.6
-70323.7
-68909.7
-43663.1
-43747.5
-63690.7
-43195.9
-42047.7
-65972.7
-63798.6
-43137.7
-41888.8
-57132.7
-41114.8
-38902.3
-60122.6
-57250.9
-40932.8
-38745.5
-50455.8
-37630.2
-34777.3
-53646.9
-50153.6
-37541.2
-34789.7
-43034.4
-33467.9
-30387.8
-46644.5
-43032.6
-33488.6
-30369.3
-36138
-28973.3
-25476.8
-39874.4
-36104.3
-28969.3
-25467.2
-27656.1
-23967
-20070
-32831.6
-27592.6
-23950.2
-19986.9
-34489.8
-4769.93
-10298.4
-30331.6
-34589.3
-4754.7
-10312.9
-36065.1
-11648.8
-14772.6
-35157.4
-36063.3
-11627.2
-14711.9
-35442.4
-15455.7
-17099.4
-35894.1
-35359.4
-15400
-17090.2
-33295.7
-17407.5
-17584.4
-34881.1
-33169.2
-17350.5
-17645.8
-30053.1
-17620.9
-17263.8
-32345.7
-30011.4
-17630.7
-17240.6
-26515.7
-17016.7
-15799.7
-29126.8
-26499.1
-16975.1
-15767.3
-22323.7
-15297.5
-13350.6
-25442.8
-22314.9
-15258.9
-13320.1
-17341.4
-12609.6
-10031.9
-21084.8
-17234.7
-12577.4
-9935.92
-2613.55
24878.2
17249.7
4872.64
-2706.81
24781.6
17267.4
-8252.13
15212.7
9421.16
-4360.71
-8206.67
15231.7
9533.7
-11335
7947.08
3958.53
-9162.26
-11329.7
8024.43
3982.64
-12665.9
2866.1
416.374
-11784.9
-12677.1
2910.94
326.249
-13257.6
-321.783
-2086.57
-12850.7
-13258
-330.754
-2013.9
-12436.5
-2401.31
-2957.98
-13156.5
-12405.6
-2329.17
-2927.44
-10495.7
-2862.06
-2499.22
-12030
-10453.3
-2822.06
-2456.8
-7310.92
-2168.27
-1388.83
-9842
-7213.14
-2123.43
-1277.83
23639.8
47336.6
38899.2
32528.4
23616.3
47542.2
39070.3
14747.9
37745
28477.8
21349.9
14833.2
37746.7
28628
8724.53
27781.9
20335.3
13282.9
8692.59
27962.1
20464.8
4482.14
20804.1
15122.9
7789.16
4423.82
20990.7
15272.6
1313.82
15146.7
10637.3
3710.32
1340.29
15300.6
10815.4
-64.3214
11065
7884.75
1115.95
-17.5473
11185.2
7935.93
-76.512
8394.58
6231.58
86.5917
-47.6203
8452.95
6193.38
870.26
7207.49
6611.95
301.432
951.57
7175.79
6522.88
-73305.9
-42093.8
-43735.7
-73998.7
-73645.3
-41635
-43800
-68976
-43652.7
-43737.9
-70698.1
-69263.7
-43674.7
-43717.5
-63826.1
-43113.1
-41802.7
-66430.6
-63884
-43081.5
-41582.4
-57331.6
-40849
-38670.1
-60360.2
-57410
-40626.1
-38521.9
-50084.3
-37501.4
-34790
-53823.5
-49985.7
-37406.7
-34789.2
-43025.1
-33482.5
-30353.4
-46745
-42994.7
-33450.1
-30302.6
-36077.2
-28952.9
-25454.2
-39899.2
-36000.1
-28882.8
-25402.2
-27482.3
-23930.5
-19892.4
-32782.9
-27461
-23850.7
-19872.1
-34638.3
-5045.7
-10327.2
-30639.4
-34721.6
-4926.64
-10390.3
-36050.2
-11628.5
-14688.9
-35190.4
-35995.8
-11647.3
-14649.2
-35321.2
-15389.9
-17076.7
-35829.6
-35150.9
-15364.7
-16942.3
-33115.6
-17289.2
-17678.4
-34623.3
-32932.1
-16642.5
-17872.2
-29982.6
-17633.5
-17302.7
-32137.1
-29894.5
-17775.2
-17436.8
-26482.1
-16978.6
-15754.8
-29022.2
-26419.5
-16933.3
-15733.2
-22300.6
-15246.3
-13308.2
-25353.4
-22239.4
-15222.6
-13275.6
-17124.8
-12563.1
-9838.09
-20997.8
-17028.8
-12521.5
-9820.35
-2740.47
24741.9
17274.4
4600.87
-2790.51
24873.4
17281.4
-8188.91
15255.3
9575.28
-4368.94
-8142.78
15298.4
9673.21
-11326.9
8051.9
3982.8
-9092.02
-11232.3
8114.47
3976.47
-12680.8
2930.88
318.594
-11117.4
-12495.1
2996.6
288.432
-13352.3
-325.761
-1980.58
-12525.3
-13847.2
-322.112
-1932.9
-12400.8
-2299.46
-2917.47
-13145.5
-12396.8
-2247.39
-2891.82
-10439.8
-2809.42
-2443.89
-12008.4
-10410.2
-2784.65
-2437.44
-7136.53
-2110.7
-1208.56
-9791.94
-7114.11
-2097.91
-1157.95
23610.7
47331.1
39096.2
32834.8
23552
47838.6
39306.5
14861.6
37736.1
28686.6
21399.8
14918.8
37747.7
28758.6
8654.84
27972.9
20531.7
13317.5
8576.37
27960.4
20725.6
4415.37
21047.4
15331.2
7800.76
4430.04
21217.7
15516.2
1349.28
15397.3
10899.3
3749.94
1361.76
15743.3
11214.3
1.38259
11256.3
7961.13
1195.24
60.681
11573.9
8156.76
-38.8587
8490.21
6203.73
179.573
-47.0945
8697.41
6345.05
975.805
7167.34
6552.08
334.166
936.747
7256.55
6579.3
-73753.3
-41680.2
-43848.8
-74723.8
-74035
-41589.1
-44007.9
-69320.8
-43693.7
-43723.1
-71062.6
-69463.8
-43763.5
-43789.1
-63882.7
-43093
-41581.6
-66670.9
-63762.8
-43174.7
-41742.3
-57345.7
-40580.8
-38502.9
-60296.8
-57056.5
-40659.4
-38536.8
-49990.7
-37384.5
-34794.1
-53710
-49991.5
-37375.8
-34793.9
-42987.2
-33438.4
-30289
-46772.5
-42997
-33388.1
-30241.1
-35956.6
-28854.2
-25380.9
-39831
-35890.7
-28759.6
-25344.1
-27332.9
-23819.9
-19787.5
-32650.8
-27554.1
-23750.9
-19991.8
-34750.2
-5109.68
-10420.4
-30842.4
-34852.9
-5116.67
-10510.9
-35991.2
-11660.8
-14646.5
-35233.8
-36027.6
-11703
-14678.6
-35075
-15365.1
-16906.9
-35878.1
-35118
-15399.3
-16770.1
-28300.1
-34081.9
-28609.1
-34475.1
-28328
-34070.8
-28549.9
-26506.7
-31409.2
-27021.1
-32048.4
-26575.1
-31383.9
-26942.9
-26398.6
-17196
-15732.7
-28964
-26330.1
-17239.3
-15685.9
-22215.2
-15218.3
-13262.6
-25230.2
-22160
-15166.5
-13208.7
-16905.9
-12509.2
-9717.49
-20899.8
-17002.5
-12465.8
-9861.11
-2802.47
24841.7
17266.7
4560.11
-2854.17
24966.4
17182.8
-8133.83
15299.1
9692.23
-4386.66
-8137.89
15265.9
9695.57
-11261.4
8127.12
3987.78
-9079.04
-11218.9
8134.05
3987.04
-6136.27
-12812.1
-5997.47
-13903.5
-6535.53
-14366.2
-5838.04
-9070.67
-12137
-8587.95
-11731.1
-9089.95
-10976.4
-8453.39
-12398.4
-2244.53
-2881.93
-13405.9
-12335.1
-2151.53
-2811.45
-10400.4
-2777.16
-2445.28
-11956.9
-10359.4
-2708.65
-2450.77
-7063.7
-2101.75
-1108.98
-9751.3
-7243.57
-2109.4
-1203.18
23518.8
47790
39366.1
32939
23395.2
48475.3
39551.8
14907.3
37739.1
28724.6
21337.5
14788.5
37668.8
28533
8563.07
27893.9
20749.5
13241
8531.4
27688.5
20749.6
4439.65
21253.8
15556.6
7816.76
4488.54
21268.2
15614.8
1361.87
15851.8
11274
3863.8
1436.39
16080.2
11433.7
82.1975
11667.2
8205.38
1324.91
169.089
11987.1
8367.24
-58.1738
8765.64
6398.37
334.181
-23.5096
9111.47
6659.6
940.377
7306.93
6599.33
399.815
714.399
7564.87
6389.32
-74090.1
-41698
-44061.3
-74977.6
-74010.3
-41790.3
-44232.8
-69490.2
-43782.3
-43823.1
-71655.6
-69521.4
-43831.7
-43921.7
-63741.2
-43201.2
-41802.3
-66805.3
-63616.4
-43244.4
-41964.3
-57001.9
-40727.7
-38571.6
-60307.2
-56926.1
-40864.8
-38662.8
-49989.1
-37386.2
-34783.2
-53729.7
-49916.4
-37385.3
-34746.3
-43006.3
-33360.3
-30228.3
-46714.7
-43073.4
-33256.9
-30218.9
-35879.7
-28726.7
-25346.2
-39845.1
-35988.8
-28644.1
-25386.7
-27505.5
-23733.4
-19957.1
-32771
-27880.4
-23677.3
-20255.7
-34890.6
-5257.9
-10538.2
-30874.1
-35019.5
-5204.71
-10604.5
-36049.8
-11716.6
-14699.1
-35276.1
-36108
-11739.8
-14745.6
-35175.6
-15422.1
-16782.3
-35951.2
-35302.2
-15477.2
-16951.3
-32925.9
-16315.8
-17864.9
-34740.7
-33002.5
-17197
-17584.7
-29844.1
-17751.4
-17464.4
-32144.1
-29867
-17521.2
-17056.3
-26306.4
-16889
-15638.4
-28882.8
-26258.1
-16723.4
-15464.9
-22152.7
-15129
-13189.2
-25119.6
-22144.6
-14973.3
-13126.2
-16865.1
-12451.3
-9756.54
-20842.9
-16998.2
-12405.1
-9914.47
-2880.23
24959.9
17143.2
4533.11
-2966.62
25162
17024.2
-8149.65
15248.2
9677.85
-4410.2
-8184
15213.9
9634.41
-11149.8
8128.75
3968.24
-9144.75
-11284.2
8125.35
3901.02
-12428.2
2997.91
359.357
-11731
-12617.4
2950.37
428.235
-13830.8
-199.353
-1793.73
-12718.6
-13095.8
-89.1029
-1640.12
-12282.7
-2084.87
-2751.95
-12906.6
-12076.2
-1863.37
-2523.58
-10339.7
-2648.98
-2421.47
-11725.1
-10265.2
-2402.2
-2309.27
-7168.12
-2078.33
-1161.99
-9679.96
-7326.71
-1990.17
-1233.95
23339.6
48612.4
39503.5
32977.4
23146.5
48648.7
39347.7
14742.8
37687.1
28456.2
21144
14606.3
37546.9
28394.6
8518.25
27584.9
20729.1
13221.6
8464.86
27118.6
20741
4504.26
21249.8
15603.1
7767.5
4499
20852
15637.6
1489.68
16107.9
11472.2
4033.43
1689.65
15944
11826.5
215.579
12056.6
8409.65
1629.87
358.645
11940.8
8914.64
-0.784384
9195.36
6739.94
639.692
8.3358
9112.31
7234.03
695.838
7616.9
6396.96
542.217
377.48
7472.05
6491.21
-73991.3
-41990.8
-44288.9
-74984.3
-74459.8
-41536.1
-44381.8
-69483.2
-43865.7
-43948.5
-72098.1
-69615.2
-43949.2
-43987.1
-63548.6
-43248.7
-42005.9
-67233
-63759.8
-43291.2
-42031.7
-56862.9
-40883.2
-38678.6
-60703.7
-57028.4
-40921.5
-38680.7
-49806.8
-37372.9
-34734.6
-54039.7
-49924.5
-37353.5
-34696.4
-43029.7
-33224.1
-30204.6
-46977.5
-43192.9
-33177.3
-30186.8
-35932.8
-28615.5
-25401.7
-40192.4
-36117.9
-28573.4
-25416.3
-27816
-23660
-20198.5
-33130.1
-28084.3
-23651
-20592.2
-35052.8
-5283.02
-10616.1
-30548.9
-35094.6
-4772.66
-10603.2
-36122.4
-11742
-14752.3
-35326
-36145.3
-11727
-14754
-35330.8
-15488.6
-16976.8
-35989.4
-35391.2
-15506.8
-17036.7
-33008.6
-17236.9
-17553.4
-34801.3
-33003.2
-17293.7
-17526.4
-29878
-17498.8
-16967.9
-32130
-29866.6
-17473.8
-16888.4
-26231
-16678.8
-15403.6
-28847.7
-26183.3
-16600.5
-15309.9
-22142.6
-14859.4
-13109.8
-25031.2
-22134.5
-14755.9
-13059.9
-16897
-12395.8
-9822.02
-20831.2
-17167
-12359.7
-10179.4
-3002.49
25148.8
16987.6
5591.64
-3030.56
25977.5
16959.4
-8188.15
15207.2
9628.49
-4383.56
-8187.53
15199.2
9606.22
-11323.9
8116.93
3885.38
-9181.29
-11414.6
8077.68
3861.41
-12644.3
2941.42
426.994
-11866.1
-12685.3
2919.3
414.706
-12959.8
-85.3332
-1583.7
-12805.2
-12889
-94.4326
-1548.26
-12010
-1795.42
-2482.76
-12763.4
-11910
-1752.37
-2431.57
-10245
-2352.92
-2278.74
-11493.8
-10187.5
-2311.23
-2279.51
-7275.34
-1954.34
-1017.33
-9634.57
-7562.36
-1977.39
-1474.82
23064.1
48580.4
39317.7
33416.6
22966.5
48909.7
39205
14565.2
37438
28479.6
20996.1
14479.9
37306.4
28685.7
8448.65
26901.8
20646.3
13186.7
8411.62
26961.4
20393.6
4484.4
20801.5
15736.9
7722.72
4447.92
20700.6
15829
1807.15
15767.5
11835.6
4067.72
1852.62
15874.1
11802.8
382.225
12015.5
9012.47
1772.68
400.039
12293.3
9029.23
25.142
9092.9
7179.11
696.041
21.9647
9430.13
7094.43
432.282
7525.72
6489.05
581.096
101.716
7771.18
6361.31
-27867.6
-33461.1
-27491.7
-32855.9
-27933.7
-33430.9
-27411.6
-21694.7
-21950.2
-18503.4
-18241.3
-21983
-21621.5
-19564
-22279.2
-22360.5
-18306
-18774.2
-22344.9
-22417.8
-19777.3
-28263.1
-34471.8
-34142
-28517.5
-34085.5
-28510.3
-28255.5
-27829.9
-32855.8
-33469.8
-27428.4
-33436.3
-27385.2
-27854.2
-21687.5
-18235.5
-21835
-18478.9
-21593.5
-19570
-22029.1
-22280.6
-18769.1
-22300.9
-18301.7
-22361.7
-19772
-22333.2
-25982.9
-30569.5
-25517.2
-29858.1
-26068.9
-30538.8
-25442.1
-22512
-22176.2
-17293.9
-18359.9
-22239.7
-22317
-17491.6
-22711.4
-21915
-16674.6
-15405.2
-22373.1
-22018.4
-16829.2
-26484.8
-32037.4
-31384.5
-26957.6
-31374.2
-26919.1
-26514.5
-25960.1
-29847.9
-30523
-25469.9
-30522.8
-25425.1
-25999.2
-22490.1
-18334.9
-22115.2
-17276.2
-22296.4
-17474
-22154.6
-22724.7
-15359.8
-21902.7
-16637.9
-22018.9
-16794
-22283.4
-7284.67
-12743.6
-8171.9
-11784
-7526.68
-12437.2
-8004.36
-2804.24
-1817.12
1999.11
3035.24
-2665.57
-1882.55
2006.77
-3481.69
-3981.57
1138.76
278.197
-3380.62
-4046.24
1148.5
-6136.3
-13952.6
-12869.2
-6024.22
-14377.5
-5843.96
-6603.48
-7265.94
-11736.9
-12753.2
-8119.99
-12467.9
-7979.19
-7511.61
-2794.68
3034.87
-1799.78
1995.29
-1879.05
2005.95
-2644.48
-3467.09
292.445
-3933.59
1170.28
-4025.93
1158.56
-3340.8
-10124.9
-11872.9
-10308.4
-11441.8
-9834.82
-9145.25
-10747.8
-4980.35
-4481.4
-1006.84
-324.951
-4968.79
-4527.19
-1004.07
-5390.85
-5748.2
-1454.44
-1929.33
-5412.76
-5709.34
-1441.27
-9047.39
-11694.2
-12180.2
-8540.68
-10912.5
-8438.84
-9030.61
-10098.9
-11152.8
-11741.9
-10375.4
-9120.57
-10756.7
-9819.63
-4960.86
-300.071
-4433.07
-929.386
-4510.9
-978.508
-4904.65
-5366.55
-1902.4
-5680.56
-1360.48
-5690.99
-1410.73
-5328.01
-108472
-92295.1
-88493.1
-111219
-108528
-92631.4
-88678.4
-99196.3
-83124.1
-81435.9
-99639.3
-99282.5
-83344.6
-81602.8
-88783.5
-76857.6
-74094.5
-90666.3
-88813.7
-76861
-74259.3
-78953.4
-67690.3
-64981
-79625.2
-79029.8
-67775.1
-65012.9
-67692.7
-59581.5
-57125.2
-69292.4
-67671.5
-59655
-57337.8
-58375.9
-51590.9
-49335.1
-58941.6
-58398
-51753.6
-49402.4
-48638.9
-43930.2
-41198.8
-49832.9
-48648.3
-43961.7
-41240
-38862.6
-35884.8
-32905.7
-40582.1
-38966.8
-35952.9
-32958
-68718.2
-38967.1
-46965.5
-56733.1
-68456.3
-38875.9
-46803.1
-63833.7
-74403.2
-62310
-72911.2
-74449.3
-62453.3
-63789.9
-61276.9
-70999.6
-61479.8
-70203
-71021.7
-61480.2
-61276.9
-58082.6
-66449.1
-58431.5
-65835.7
-66453
-58449.6
-58062.6
-53144
-60544
-53938.6
-60047.8
-60535.5
-53922.1
-53185.5
-47540.3
-53861.5
-48261.1
-53583.2
-53886.3
-48294.4
-47543
-41415.1
-46755.8
-42394.5
-46667.8
-46733.1
-42380.6
-41445.7
-35499.7
-39750.3
-36421.6
-39824.9
-39756.8
-36444.8
-35496.5
-28912.7
-32421.5
-30042.8
-32816.8
-32420
-30045
-28917.3
-21895.7
-18560.5
-17209.8
-21177.1
-21918.5
-18523.6
-17205.4
-24802.6
1780.33
-9461.9
-16457.9
-24880.6
1923.03
-9176.9
-24165.5
-32463.9
-22352.8
-30471.8
-32464.4
-22561
-24246.6
-27905.9
-35664.9
-27235.6
-35119.2
-35701.3
-27221.2
-27925.7
-29018.4
-35763.6
-28936.5
-35920.6
-35736.2
-28928.7
-28991.7
-28626.3
-34580.9
-28936.6
-34950
-34555.4
-28908.6
-28659.5
-26902.9
-31678
-27448.4
-32429.8
-31661.2
-27430.7
-26921.9
-24358.3
-28346
-25070.4
-29162.9
-28345.9
-25065.5
-24361.8
-21152.1
-24488.6
-22010.2
-25460.7
-24496.2
-22010.1
-21149.9
-17113.4
-19913.7
-18220.3
-21107.4
-19914.6
-18219.1
-17118.5
-11806.5
-9537.66
-8398.46
-14021.8
-11834.1
-9439.34
-8448.3
11303.1
36456.3
24900.1
23958.7
11467.3
36752.7
24568.4
8353.81
2000.36
12619
5186.92
1911.96
12615.1