/*--------------------------------*- C++ -*----------------------------------*\
  =========                 |
  \\      /  F ield         | OpenFOAM: The Open Source CFD Toolbox
   \\    /   O peration     | Website:  https://openfoam.org
    \\  /    A nd           | Version:  10
     \\/     M anipulation  |
\*---------------------------------------------------------------------------*/
FoamFile
{
    format      ascii;
    class       surfaceScalarField;
    location    "2.9";
    object      phi;
}
// * * * * * * * * * * * * * * * * * * * * * * * * * * * * * * * * * * * * * //

dimensions      [0 3 -1 0 0 0 0];

internalField   nonuniform List<scalar> 
38556
(
850.174
-657.473
-3597.86
835.628
-398.599
413.145
630.184
-265.516
470.96
592.075
-328.576
366.684
496.275
-252.793
348.593
549.363
-253.259
200.171
627.177
-215.736
137.921
718.78
-187.012
95.4089
797.481
-148.462
69.7612
871.972
-120.509
46.0173
935.185
-96.1343
32.9216
1001.45
-78.7257
12.4647
1062.48
-65.2374
4.20738
1137.83
-59.7157
-15.64
1210.69
-54.3027
-18.5553
1269.46
-33.9893
-24.7818
1304.19
-15.9554
-18.7712
1314.1
-3.14839
-6.76694
1311.21
-3.51589
6.41172
-5.95452
16.1132
-633.882
626.924
832.683
-450.756
-220.331
-361.395
-366.469
-315.567
-34.2373
-196.867
-475.634
-22.5443
124.621
-524.674
-49.6064
246.082
-410.946
36.2255
389.648
-394.558
35.2571
466.598
-279.921
15.9601
540.55
-228.481
6.06667
593.764
-156.526
-17.1975
646.255
-122.802
-25.8228
691.65
-86.9048
-37.2165
733.503
-69.0178
-38.0724
771.266
-54.0416
-43.4365
804.047
-46.8721
-40.2116
835.635
-39.6528
-25.9252
857.555
-36.962
-0.912866
864.448
-31.4765
21.4345
862.835
-30.5249
28.6229
-22.2448
24.7271
-1141.88
482.697
-151.91
-383.118
-242.525
-736.573
43.7212
-334.975
-407.431
197.457
-513.908
-115.462
304.452
-568.216
-63.4533
369.059
-464.774
-10.7784
407.148
-474.46
41.8122
442.893
-324.822
9.15514
484.785
-288.258
17.8851
520.899
-192.85
0.21057
561.895
-172.309
8.51023
597.409
-130.75
8.33134
630.873
-122.474
19.9926
658.563
-102.596
20.8643
680.241
-94.9094
26.3601
697.167
-79.9092
23.33
709.227
-67.4009
18.379
713.787
-47.8739
11.8376
705.388
-20.4524
-1.6738
2.00359
-9.50124
-24.2045
1351.44
2309.07
439.336
12.774
-718.84
624.03
-396.482
-123.186
721.912
-566.121
-45.6695
649.497
-651.313
155.512
674.768
-556.792
66.746
647.346
-557.083
110.046
637.907
-382.724
67.3405
611.941
-325.77
63.4781
595.012
-204.906
28.9846
584.604
-186.976
25.0747
581.029
-141.134
13.9597
584.74
-141.464
15.2785
593.765
-124.525
12.9033
606.561
-123.503
15.7975
624.347
-110.827
13.1321
644.645
-103.174
15.4754
664.737
-79.9065
11.94
666.204
-26.8024
4.8834
12.7418
5.53932
1848.84
595.205
1879.71
1783.2
-426.056
504.465
1504.36
-425.933
308.297
1357.45
-522.984
103.773
1040.01
-535.454
201.581
906.226
-488.271
65.2595
769.235
-534.807
114.714
715.204
-385.669
56.9763
647.214
-337.176
79.3957
604.371
-198.663
36.601
573.332
-194.729
38.793
559.654
-140.886
13.4295
557.387
-152.688
13.4909
563.729
-135.831
4.96408
575.848
-139.861
4.23939
593.959
-127.441
-1.49745
616.073
-119.871
-5.41696
640.506
-92.5125
-11.8276
645.816
-22.1182
-9.99383
29.9574
0.372536
-1454.88
-1273.59
-1551.45
-482.904
-427.47
-970.56
421.015
-689.838
-640.013
861.451
-693.38
-270.041
968.794
-680.74
37.9425
967.168
-522.032
35.387
901.677
-556.056
86.7397
857.407
-355.627
14.2286
801.849
-306.297
24.6787
738.903
-152.133
16.4162
654.394
-146.945
36.7246
591.011
-97.7106
20.2085
558.385
-127.04
6.97763
547.439
-125.129
0.244532
554.33
-140.706
-6.04658
571.5
-136.678
-7.93317
591.02
-127.749
-11.642
609.692
-96.8583
-14.3258
618.479
-17.6812
-13.2241
38.6821
2.2876
571.11
-1126.64
-1686.91
951.757
-544.927
-263.189
941.143
-749.341
70.1168
922.018
-764.812
90.5563
829.208
-699.622
111.692
754.852
-445.632
-2.04475
685.175
-106.818
4.21092
-143.118
-103.144
-137.508
645.127
-86.9419
-6.31776
-78.4357
-77.3842
-66.4994
609.318
-58.4617
-2.28113
-82.4753
-50.1456
-77.1248
581.017
-33.2542
1.1104
-32.2425
-27.7788
-31.6674
549.461
-15.5329
1.12186
-41.0756
-17.4322
-42.4702
534.503
-14.1596
7.32016
-30.3602
-15.0119
-30.5406
533.739
-20.2976
1.29839
-43.6766
-20.7039
-42.897
545.435
-26.0108
-3.05508
-42.7664
-24.4874
-40.505
562.464
-155.114
-2.62004
579.714
-149.983
-3.94449
595.514
-138.087
-5.46292
609.425
-98.4836
-12.2856
616.763
-14.0933
-10.9253
41.0621
9.31069
-316.422
-2051.02
-1318.6
392.25
-1185.46
-68.1362
592.037
-1188.85
239.718
754.02
-961.922
35.1274
832.227
-834.433
56.6037
222.624
-117.182
-55.4377
213.849
216.695
205.766
-89.7831
-122.556
-87.3793
223.557
-96.7416
-11.0093
-202.44
203.796
-85.7707
-2.52729
-192.587
183.098
-53.7014
4.72949
-153.739
144.724
-31.7082
7.46908
-131.986
129.97
-14.7016
1.18461
-118.731
127.662
-20.0017
-3.08967
-127.789
137.976
-27.4177
-3.06682
-137.442
147.097
-33.8874
-1.77857
607.042
-34.457
-8.66287
-145.369
-156.481
-136.565
-146.523
-51.8182
-33.2995
-48.9812
613.204
-158.85
2.70517
612.759
-131.773
-5.86852
620.442
-86.1848
-19.9819
618.449
-3.19944
-8.901
52.5282
8.5815
2275.7
-1164.26
517.443
2002.77
-994.536
82.0062
1499.85
-741.782
55.8515
1209.23
-667.409
-3.88983
172.31
-601.843
171.859
201.003
206.644
224.822
160.816
-112.717
7.02872
21.5442
-44.785
42.8967
-20.0334
0.377419
-41.6312
17.3899
44.814
-20.1665
-0.406263
-43.5427
10.8421
44.0346
-12.1843
0.850263
-37.3647
3.01178
37.549
-3.85356
0.657498
-32.152
0.0177777
33.4512
-1.01811
-0.298834
-32.4131
2.85344
34.8854
-4.3442
-0.981597
-36.6261
5.72446
38.8484
-7.10509
-0.841659
-39.5066
7.01817
41.3394
-8.2715
-0.579493
-41.4736
174.995
-39.0798
-2.73788
-43.3801
-40.4706
-42.3099
678.927
-148.096
2.01518
-170.557
-185.993
-160.648
-174.497
640.328
-96.8442
3.66993
616.857
-52.5951
-10.1182
593.552
29.9354
-9.82971
83.7627
1.63172
2966.77
-2159.42
-3315.41
3419.19
-736.911
-710.047
2904.78
-306.778
79.4034
2185.13
-298.085
350.331
355.832
-274.033
418.187
315.764
398.515
369.019
102.68
326.213
-91.0262
17.9653
28.7483
-72.2984
67.8224
-22.1692
-2.10307
21.0052
-59.681
56.9949
-17.3504
-0.968818
12.8114
-51.7233
50.9268
-11.271
-0.743879
-1.63631
-46.6701
44.7711
3.04057
0.494763
-0.231884
-41.4372
41.4609
1.22826
-1.02004
4.98027
-42.7601
43.2017
-4.79812
-0.623763
7.45726
-43.7198
44.0385
-7.26611
-0.509815
8.98087
-45.681
46.7897
-9.30831
-0.781236
-49.0889
44.1636
198.719
-45.4197
-1.90938
-50.1665
-47.521
-48.777
739.035
-116.725
-11.2455
-196.029
-194.571
-184.786
-183.775
675.523
-36.9689
3.63666
623.512
4.29618
-4.88031
580.311
83.2528
-10.1163
123.437
-0.189309
1422.78
-1086.52
-5241.66
1503.18
-318.178
-499.138
1138.03
-198.595
256.969
810.175
-180.95
210.721
73.8426
-101.491
230.773
110.792
99.7575
122.467
74.3202
61.934
-61.3248
-1.08684
12.0754
-26.0838
27.051
-15.6322
2.58961
9.63984
-37.0139
39.0548
-13.3441
1.66338
6.84088
-40.8819
40.6815
-7.10882
0.468368
-3.96072
-44.0291
45.3317
2.19839
0.459794
-1.27303
-47.4498
47.8086
-0.449886
1.36413
4.95909
-47.585
47.4287
-5.36848
0.56574
7.64718
-48.1448
48.5342
-8.10298
0.066434
9.76128
-49.2431
49.011
-9.97389
0.444716
-45.45
47.8577
167.837
-44.0081
4.17472
-43.7029
-44.3397
-42.3687
602.248
-80.0098
-49.3925
-159.305
-136.97
-156.07
-137.226
592.418
7.34422
-34.4829
574.463
46.6232
-24.372
549.626
126.037
-17.9474
152.977
-5.83007
1693.12
-15.7668
2771.59
1740.77
-241.155
-124.677
1708.57
-165.939
-0.45531
1606.18
-132.353
53.7887
259.644
-13.4099
371.581
270.135
310.832
305.909
67.4651
237.725
-66.9603
21.4137
26.8694
-59.6265
58.9583
-25.3073
-0.893908
21.5135
-55.5074
53.7629
-18.808
-0.961039
9.79497
-45.9754
44.3157
-9.83725
1.70195
5.30041
-41.8966
42.1086
-6.87767
1.36532
5.93995
-42.7873
43.0665
-7.1676
0.948518
7.50815
-41.6618
41.4156
-7.73515
0.473261
8.65951
-39.6097
39.3437
-8.83572
0.442261
9.95795
-36.8101
36.0131
-9.50779
0.346878
-31.2802
36.075
121.789
-32.2784
-0.584297
-31.6773
-31.058
-30.9861
477.672
-60.7432
-41.516
-117.195
-112.499
-115.811
-109.918
516.37
4.75758
-36.1117
543.475
46.7317
-27.2129
554.526
136.259
-21.2741
160.367
-5.1991
1710.01
1758.75
-2476.5
1610.77
455.085
-597.006
1353.01
276.623
-184.794
1247.06
-21.9735
-4.435
1086.29
-2.34238
149.701
226.979
-256.48
89.007
84.0525
117.546
64.5714
100.968
222.189
221.906
215.556
23.8943
188.074
-50.9608
8.7984
14.8545
25.4278
16.8908
10.1862
-141.133
130.588
-32.9594
10.2602
6.08559
10.5973
6.37525
10.7708
-141.527
146.466
-42.1185
3.88791
6.18489
10.5133
5.82234
9.2156
-128.708
121.59
-23.9174
1.94038
5.66548
8.86233
5.35115
9.61751
-129.582
135.274
-34.7018
-1.37527
5.90356
9.2391
5.62538
9.5216
-129.408
129.535
-31.6919
0.0489622
6.43977
9.25194
6.30307
10.3386
-132.812
134.088
-35.599
0.304522
6.86268
10.1016
6.71509
9.87644
-126.365
121.564
-30.5815
2.91618
6.46318
9.72205
6.40424
434.535
-69.6047
1.84505
29.6345
14.3161
27.2836
11.5465
-116.182
-114.997
-109.301
-109.076
440.855
-61.099
-5.96445
476.475
-17.7198
-13.1425
522.685
18.2029
-17.6816
564.051
109.799
-14.9058
140.823
0.784173
530.368
1130.61
-449.827
787.786
271.3
-73.6331
902.681
122.624
39.1035
982.236
-110.327
8.79876
913.366
-15.6401
82.1676
833.993
-153.794
-23.3135
702.284
85.4614
64.2602
30.0167
-32.5683
24.3313
-39.7918
601.415
-139.224
34.0094
42.7455
59.304
43.5227
60.5119
541.438
-16.9815
30.77
37.9899
-11.4307
35.2002
-15.5707
523.41
-141.142
11.9728
32.8464
40.2026
33.6142
40.5327
520.524
-90.0565
0.387963
36.6705
11.8813
34.6503
9.35284
508.694
-140.7
7.87476
38.1654
35.3337
37.0924
34.0649
495.492
-95.6554
7.73345
36.2737
16.2181
34.1225
14.5089
474.522
-104.595
13.0102
33.5252
24.0318
32.1061
22.8922
457.497
-64.4039
11.8249
442.345
-53.3913
7.44428
451.294
-27.6758
1.00641
483.962
-12.4993
-1.96601
543.234
52.2002
-1.67224
88.9886
14.6657
2862.05
-757.331
1187.41
2700.44
-50.1962
483.111
2057.35
210.27
555.443
1707.41
68.4133
171.202
1131.87
288.621
271.28
868.165
59.1576
50.7485
720.943
183.061
49.6234
617.795
-30.0034
-6.07288
584.926
25.1536
-9.26653
550.415
-83.1424
-23.4879
534.895
-71.36
-3.1763
511.544
-109.26
-8.08926
494.191
-81.9872
3.68413
471.181
-81.7754
0.190171
450.428
-48.4513
4.80116
434.528
-41.9008
4.40908
429.07
-24.6991
2.48158
428.725
-19.0123
6.85739
467.103
2.1612
11.6615
26.6516
27.4249
2111.88
-844.041
-5609.54
340.676
389.164
1331.84
912.433
273.334
-634.822
638.974
233.976
107.897
620.671
246.61
60.3139
575.7
119.649
-15.521
619.433
156.904
-17.5764
616.145
35.247
-61.9618
632.607
51.9526
-43.2615
622.235
-27.5671
-45.2032
589.633
-30.7628
-7.99529
551.541
-66.1839
-4.98347
517.335
-58.1353
10.3534
492.19
-59.0518
2.42167
477.196
-36.92
3.46297
468.117
-32.5272
-0.294629
467.132
-24.3529
0.63893
466.82
-21.4937
2.79259
481.812
-16.3564
3.52634
-3.46947
13.3399
109.173
-300.798
-1284.56
309.406
501.112
-312.181
573.764
278.174
-269.197
520.288
320.695
-33.2427
543.642
224.298
-1.04258
526.141
164.121
-26.9706
613.953
119.151
-50.0591
642.046
40.9124
-33.758
710.055
3.84318
-19.8995
729.703
-25.0537
-22.1619
706.263
-22.4093
15.0867
642.994
-27.966
25.0511
563.124
-9.26016
30.9943
508.918
-12.2774
7.43157
485.847
-7.53629
-6.31207
473.23
-8.66022
-11.2497
470.294
-8.73752
-12.6793
469.744
-9.95281
-10.9912
480.112
-15.5359
-11.1886
-11.5162
-3.32068
1770.46
766.68
1899.76
1652.5
683.726
-64.6538
1113.02
623.801
193.856
867.256
531.949
34.5077
678.28
289.34
123.933
675.069
162.565
4.76658
744.402
21.7733
28.045
806.929
-29.5539
7.93889
850.398
-53.9201
14.2937
865.883
-44.5678
4.02995
833.058
-15.0588
25.4737
769.653
15.2258
20.2141
679.355
49.3741
31.6631
614.202
47.0924
5.78321
581.192
37.7355
-12.262
562.683
30.859
-21.01
556.353
19.7597
-22.1667
556.89
12.4592
-22.95
576.604
-9.70129
-25.5486
-14.9615
-15.1954
1756.73
2170.54
-1130.52
1635.44
572.727
232.291
1040.11
601.365
617.769
871.964
538.953
161.14
630.648
318.181
212.475
574.523
222.411
-3.72114
606.929
42.4263
-53.059
641.151
-6.3509
-57.4256
710.114
-75.7951
-47.0877
745.505
-42.3555
-37.6035
760.187
-17.2908
-12.45
752.775
23.467
-0.828876
734.595
46.3792
21.175
709.499
60.0888
12.0989
683.459
56.903
6.87287
661.725
54.9957
-2.40297
642.608
47.607
-8.72979
626.457
44.7466
-16.1368
617.974
32.7304
-33.9483
27.0682
-38.6435
742.995
-2898.64
1218.82
96.9043
1363.42
456.76
1462.51
439.864
1354.94
425.756
1337.94
239.403
1225.29
155.08
1133.62
85.3162
1040.44
17.3858
1007.79
-9.70164
994.575
-4.07739
1008.46
9.58431
1028.23
26.6087
1060.07
28.2514
1085.89
31.0755
1106.03
34.8589
1117.69
35.9444
1127.7
34.7406
1134.67
25.7622
30.1919
-89.6867
391.501
-933.262
470.136
-279.841
133.163
389.328
-142.474
694.243
431.8
-189.492
513.704
448.523
-109.568
441.438
535.438
-130.25
243.505
623.838
-110.953
160.475
719.356
-107.862
107.752
796.348
-88.6481
81.4172
870.696
-76.3063
47.976
930.167
-59.8653
33.3156
987.41
-49.0887
4.31056
1032.04
-38.4588
-1.95888
1074.56
-28.6042
-29.5599
1104.21
-16.5121
-31.6959
1117.47
-9.23188
-28.8126
1122.43
-8.14818
-15.5778
1124.1
-8.43988
0.00128409
1132.24
-14.7082
12.9776
-13.5017
26.2506
-830.724
621.385
1095.35
-579.681
-147.068
-745.21
-472.107
-219.689
-64.5966
-268.498
-341.507
-74.1376
41.7775
-358.093
-111.358
170.239
-260.989
38.5043
328.885
-262.715
28.3732
408.45
-177.135
5.66778
483.916
-153.266
-4.78074
532.912
-103.502
-38.998
578.224
-85.7905
-45.2102
613.783
-61.8738
-59.9904
645.035
-51.6434
-56.139
670.815
-41.6259
-56.1948
691.647
-35.9985
-41.5575
708.737
-29.107
-23.1404
723.031
-23.2476
-0.107173
732.657
-16.8521
20.221
735.688
-11.3156
22.1987
0.832205
14.8105
200.005
2310.72
1494.16
-269.146
331.47
-745.96
-164.373
-316.499
-415.394
-12.7472
-478.803
-129.793
123.13
-466.377
-91.0463
189.253
-335.291
-2.59901
275.724
-353.625
46.2514
323.686
-224.296
8.35396
382.742
-217.028
22.5907
422.926
-141.39
-2.08564
468.677
-132.317
9.28625
504.19
-93.9469
4.89066
537.823
-84.9154
19.6314
563.039
-63.4416
17.4644
582.001
-53.2569
24.6563
592.715
-37.3106
20.8194
596.304
-23.6067
15.1497
592.521
-9.37432
8.14258
576.326
7.26964
-4.06437
18.1282
-11.9966
641.357
2451.02
280.556
359.903
322.844
-428.761
196.433
-420.38
144.166
227.792
-550.931
-4.90101
296.142
-569.795
190.58
366.964
-417.411
78.0438
418.135
-426.859
132.109
440.71
-251.353
71.8229
454.532
-239.972
72.6008
457.518
-144.074
28.6824
466.728
-144.946
28.4926
474.94
-101.128
12.9297
488.259
-98.7675
15.811
501.262
-74.6219
11.081
515.006
-66.7046
15.5003
527.522
-47.8315
11.1372
537.698
-30.7917
12.4851
541.396
-10.8749
9.74185
529.939
20.7581
2.85201
33.676
4.64358
1710.44
997.786
4943.07
1141.9
-249.188
1645.04
748.571
-406.968
688.211
635.618
-532.515
198.31
542.03
-513.371
238.745
510.966
-389.584
68.4963
479.582
-417.399
136.637
465.171
-239.618
59.6521
452.303
-237.753
90.0449
440.677
-132.764
36.9174
440.689
-148.574
42.4099
443.492
-104.168
13.6658
453.881
-112.68
17.0148
466.989
-87.8274
5.06088
481.836
-83.2651
5.95334
497.088
-62.1151
-2.46579
509.504
-41.7502
-6.87486
512.465
-12.204
-13.4592
502.313
32.7719
-11.8551
47.7477
0.447814
-946.206
-1437.75
2108
-531.573
-758.286
-876.095
98.0741
-843.522
-833.107
359.154
-766.194
-297.441
523.876
-662.879
22.729
574.149
-423.722
19.2524
600.941
-453.014
95.563
581.233
-213.624
7.9423
549.331
-219.176
38.0035
511.593
-97.6653
19.0559
479.877
-121.398
41.2646
456.151
-81.2306
20.9973
446.048
-106.88
11.2811
447.23
-89.9926
1.2274
455.705
-94.3814
-3.40436
471.495
-78.0141
-7.82426
484.983
-55.4871
-11.3932
489.868
-15.8442
-15.5704
489.097
35.9964
-15.6781
53.5081
3.27064
-667.627
-1648.38
557.621
-56.2153
-958.865
-674.022
585.72
-872.09
-543.25
618.458
-736.295
27.9195
601.908
-596.72
62.083
504.386
-312.106
-16.1383
456.082
-84.1311
6.00774
-121.868
-82.168
-118.34
427.066
-55.5866
2.63606
-47.3517
-48.5085
-42.1145
416.905
-40.3983
3.32247
-68.3104
-38.894
-67.0156
406.461
-20.6057
5.9687
-26.3634
-19.0028
-26.1078
402.431
-17.7507
5.72173
-42.4649
-18.7533
-42.9997
410.254
-14.8526
8.21279
-30.1675
-14.9874
-29.938
424.624
-20.2626
1.74071
-41.2732
-20.0359
-40.121
442.076
-20.7006
-0.972283
-36.2693
-19.05
-33.5078
457.339
-113.586
1.32167
472.703
-95.1688
-2.15408
484.244
-66.3432
-6.14776
487.6
-18.0154
-13.4706
489.076
37.0209
-13.4253
58.8081
10.5293
-472.998
-1836.65
1072.82
-32.6882
-1174.15
-293.158
446.709
-1095.5
-16.2671
546.117
-813.431
12.8546
639.294
-675.716
42.4226
168.361
-90.3165
-66.9812
159.569
154.754
146.181
-62.6579
-81.9409
-55.2176
12.1115
162.007
-73.6992
-16.1896
2.37911
-133.994
135.94
-60.8224
0.910954
-6.53527
-129.26
123.931
-37.7131
9.17865
-7.00727
-105.036
109.906
-26.1901
7.72184
-1.11174
-105.06
108.148
-20.3764
0.649264
4.01092
-100.338
109.99
-24.4429
-4.07308
4.08686
-109.089
117.141
-28.1134
-4.28779
2.91171
-114.59
122.665
-29.5185
-2.16937
492.193
-27.0398
-1.1544
-119.336
-129.354
-111.584
-121.028
-42.3379
-24.4308
-38.1774
497.658
-106.364
8.43592
493.809
-61.4687
-6.894
490.077
-15.0189
-19.2467
482.601
48.3666
-12.7707
72.7727
7.81862
816.85
-1567.68
1134.31
756.727
-831.346
-200.678
810.487
-739.295
-354.115
681.057
-597.063
-90.8272
148.945
-496.951
111.479
144.977
140.088
128.661
-22.4062
155.271
-92.139
17.9031
-1.65389
16.8401
-41.4804
40.0732
-15.2816
1.50257
0.483602
-35.0602
12.8109
36.2792
-14.4676
-0.0459488
-2.27148
-34.094
7.46438
34.9373
-8.77318
2.737
-2.04635
-29.94
3.49996
30.8677
-4.50859
2.12728
0.575567
-28.3583
3.05857
30.0892
-4.53262
-0.832446
2.42487
-29.2775
5.19652
31.1204
-6.67905
-2.7852
2.07788
-31.7734
6.67698
33.5138
-8.20881
-2.28639
1.46148
-33.6244
6.99927
35.2409
-8.59607
-1.48119
-34.8813
4.44725
145.393
-33.3332
-2.43282
-36.7544
-33.7996
-35.679
529.75
-90.6259
12.0791
-137.826
-151.899
-127.591
-138.236
500.305
-31.9864
3.63241
475.711
12.0011
-12.5442
451.537
75.4856
-12.7748
97.0284
0.412103
2364.46
-1488.24
-3176.95
1838.23
-377.787
-637.374
1343.74
-268.196
102.792
1126.65
-307.762
278.123
253.586
-248.483
385.753
232.247
221.916
202.867
-34.3417
83.6737
258.227
-77.3409
23.3686
-2.63713
20.9189
-61.0098
58.2705
-17.7839
2.24152
-2.32654
14.4699
-48.4356
46.5518
-13.2238
2.96422
-0.24982
8.07252
-42.5083
41.4082
-7.47687
0.754192
-1.06761
2.17679
-38.5663
38.0506
-1.6549
1.0615
1.84893
4.81623
-36.9966
37.0449
-4.79568
-1.91775
1.83926
7.79296
-37.5882
37.9175
-7.80191
-2.15963
1.93928
9.44523
-38.8806
39.3773
-9.60225
-2.27901
1.99159
10.3164
-40.7366
41.2864
-10.7046
-2.15318
-41.7142
2.61082
39.0516
167.159
-39.5423
-2.62007
-42.9589
-40.4029
-41.5826
559.293
-51.95
1.72009
-160.136
-159.911
-145.097
-145.791
506.861
22.328
1.75487
466.076
54.1881
-6.28257
434.914
108.011
-11.4801
117.689
-0.681068
545.991
-306.867
-4643.39
628.168
-182.505
-776.597
632.763
-49.4382
33.6158
509.416
-126.04
152.345
101.127
-110.759
172.468
111.469
107.391
110.01
11.7916
73.2867
87.4427
-55.3154
-16.079
-3.2002
12.3198
-29.2083
31.0577
-13.9683
2.99937
-4.81311
9.64815
-37.8733
38.9445
-11.2266
5.32028
-1.89758
6.5038
-39.2737
39.0468
-6.69916
2.31981
-2.6238
2.97745
-39.4144
39.795
-3.77389
3.03959
-2.52212
5.41723
-41.0869
41.4106
-5.59
2.37123
-0.863813
7.83393
-42.0211
42.211
-7.74866
0.588653
0.132096
9.53579
-42.2461
42.1062
-9.30184
-0.226147
-0.909286
10.5905
-41.2338
40.8201
-10.2396
0.972126
-38.9038
-1.67446
37.8261
149.312
-32.3373
-2.43254
-37.5344
-37.6807
-36.5748
495.469
-27.054
-47.3624
-141.687
-127.482
-131.576
-121.651
467.677
49.2311
-33.5936
443.32
75.1168
-20.944
426.83
124.342
-17.7885
125.051
-5.34692
-126.49
-977.877
714.129
308.19
-427.227
-314.634
691.544
-107.359
-325.888
656.809
-75.5852
38.0688
174.903
-39.2128
322.039
172.174
146.985
140.743
-25.8975
52.0042
193.568
-56.862
12.0905
-3.88767
22.7671
-52.6362
52.6058
-22.4681
3.61909
-4.22006
15
-45.0021
42.6249
-13.9488
5.54614
-4.88319
7.09442
-38.3562
37.9121
-7.11596
5.34877
-3.2219
5.30606
-36.4808
36.5598
-5.60366
3.44048
-2.05325
6.16278
-36.399
36.5064
-6.37137
2.15445
-1.01139
7.25578
-35.4511
35.3129
-7.15418
1.04803
-0.977773
8.34493
-33.9386
33.6911
-8.1409
1.02127
-1.02785
8.58297
-31.5819
31.109
-8.12207
1.0399
-28.746
3.11398
26.7948
113.429
-24.2933
-5.6696
-28.4628
-28.2085
-27.9574
420.808
-30.9347
-46.0953
-108.792
-101.702
-104.282
-97.5714
434.594
35.0432
-35.7097
442.425
64.7425
-24.6697
447.972
117.546
-20.0254
117.861
-1.57635
3071.84
878.823
-694.839
1654.38
327.416
65.81
1020.25
326.63
15.3447
903.461
30.6906
6.07645
824.639
45.7633
143.546
169.643
-249.647
114.048
83.153
115.763
92.9825
120.611
161.87
156.373
148.85
21.2676
-26.1179
135.374
-32.7629
27.1215
12.4715
20.7001
11.5885
8.82469
-19.808
-90.925
94.1722
-33.2477
22.1454
5.33292
8.37119
5.13435
8.62235
-7.43577
-112.413
116.578
-29.7699
7.91992
4.30156
8.17175
4.02505
7.29799
-3.11959
-101.094
100.918
-23.1881
3.26664
4.49342
7.01823
4.40789
8.00224
1.45101
-109.87
112.83
-27.8259
-1.63959
4.70475
7.79728
4.55038
8.09463
-0.420966
-105.57
105.511
-26.9167
0.528884
5.47803
7.91923
5.37656
8.75559
-1.17014
-108.506
108.231
-28.1152
1.12257
5.66131
8.52608
5.4953
8.38481
-3.8642
-101.37
99.9684
-25.165
3.28601
5.38837
8.14756
5.22384
374.468
-47.4844
-5.78397
23.5192
6.99617
21.7884
4.85827
-97.9731
-95.6359
-92.6217
-90.2865
387.833
-40.5351
-9.72874
414.5
9.42273
-14.1894
443.163
34.5659
-16.168
469.395
91.1412
-14.7322
96.4081
6.74579
70.8014
1308.81
-649.956
238.79
328.534
-242.739
581.077
311.16
-287.713
589.356
23.9205
7.28972
594.575
32.7201
89.9921
496.796
-153.066
-22.1152
451.541
153.78
77.8274
2.84241
-56.5848
-8.44298
-59.9069
397.472
-158.184
27.7806
48.0148
61.0895
50.267
59.1108
395.743
4.18028
25.3394
25.8466
-20.5082
19.6567
-22.0155
391.844
-142.221
10.4222
34.3341
39.6117
34.8242
38.9008
399.278
-69.1343
-3.85967
30.2843
4.40867
29.1173
2.13785
391.178
-120.713
9.57187
34.0146
30.4068
33.3351
29.3586
386.77
-67.1822
6.85472
28.6208
9.25802
26.9095
7.68081
374.185
-82.8576
14.0883
28.5999
19.3557
27.6899
18.7184
370.194
-44.3261
12.6579
368.702
-37.742
6.14303
387.05
-11.5395
3.62034
417.076
3.45331
-0.878489
459.318
47.622
-0.395986
61.3873
21.8667
878.762
118.576
2096.2
704.455
289.115
696.837
1008
236.149
326.911
941.651
126.755
134.715
686.932
254.696
304.023
560.127
-26.7037
51.1911
533.844
175.585
54.1019
450.26
-76.1832
-4.49037
442.345
5.95413
-3.12464
407.25
-104.155
-26.4591
405.938
-69.415
-1.58405
390.3
-104.14
-9.02468
385.862
-65.0205
5.96119
371.659
-67.5035
-0.961208
363.2
-36.4311
5.36528
356.94
-32.1664
5.09364
360.41
-14.632
2.10412
370.781
-9.6084
9.54725
406.729
10.9089
12.4266
25.2465
32.172
425.129
-573.823
-1146.93
465.079
288.41
1292.6
411.658
160.525
-505.777
352.157
121.431
172.722
434.193
156.366
76.6083
386.962
8.06177
-3.05604
474.854
79.8948
-9.77778
458.228
-67.6582
-53.8607
479.872
-29.1811
-29.7706
461.259
-86.1084
-44.6369
445.607
-62.9726
1.21433
424.97
-83.8861
-4.60037
412.531
-54.7238
12.496
398.383
-51.8825
0.948589
390.71
-29.1672
3.87159
384.64
-25.0678
-1.32254
386.24
-15.6862
0.0930823
388.736
-11.8931
2.58089
405.629
-6.12274
3.66463
4.41441
15.0388
471.09
91.6541
-1984.66
498.573
334.612
-385.866
403.527
237.917
-251.543
364.738
168.332
-41.3552
445.589
93.7334
-19.2608
427.755
27.3124
-28.3867
515.713
-8.89738
-49.2254
518.977
-67.5513
-37.1293
559.456
-70.1686
-19.3909
550.697
-75.8754
-23.636
530.927
-54.6034
26.4873
491.275
-43.6826
24.5003
459.536
-24.1901
32.1994
431.103
-20.2846
4.2667
413.798
-12.0044
-6.1698
402.078
-11.3143
-13.2832
398.312
-9.66515
-14.9345
395.951
-8.6429
-11.8811
402.475
-10.0334
-13.8011
-6.84567
-4.94401
2742.37
362.686
4530.41
1480.65
738.055
793.626
808.149
629.023
475.253
616.286
350.552
44.1491
587.689
114.822
131.442
588.046
41.3362
-9.61421
644.803
-59.3797
21.7701
671.638
-69.7312
-16.716
689.978
-84.1925
9.97828
683.338
-63.8644
-1.3416
650.506
-28.2307
31.9329
606.469
-0.365898
20.9346
562.381
22.804
28.7567
528.325
21.145
-1.59081
505.359
15.6331
-16.9328
490.994
9.69731
-27.6574
486.096
1.24836
-28.1815
486.199
-3.1
-28.5958
496.146
-14.5265
-31.0033
-17.4959
-17.696
815.738
2163.1
-383.789
597.383
699.981
488.72
622.184
528.941
693.05
599.65
373.618
160.608
605.956
164.538
156.453
594.299
124.696
-75.4241
629.298
-20.8371
-126.601
652.829
-35.2854
-115.402
683.607
-95.9204
-66.1378
691.998
-63.122
-46.7363
692.213
-34.393
-6.5032
685.544
6.6961
-1.2224
679.455
27.5194
22.5493
667.549
40.841
4.30819
654.774
39.3228
-4.04158
642.908
37.1206
-17.9595
632.823
31.5765
-28.9736
624.936
28.6942
-40.0439
616.297
18.9124
-58.7485
10.2324
-61.3989
1707.95
-5316.18
1328.13
1176.7
1212.28
1101.55
1309.16
716.604
1295.89
603.56
1333.52
326.475
1276.54
191.227
1232.37
94.1944
1136.9
16.9354
1077.51
-13.4307
1030.33
8.71177
1020.47
26.1408
1030.02
44.5718
1055.14
43.9783
1078.18
47.3534
1100.14
50.0196
1114.52
53.1447
1126.48
51.469
1132.31
38.8442
45.3192
-396.587
41.6041
-1057.68
-67.7555
-131.338
-64.3304
206.252
-65.5394
485.774
327.811
-76.2249
468.37
451.385
-23.5285
341.393
560.809
-52.8298
186.911
639.033
-48.2396
130.49
726.647
-58.7448
78.8827
793.708
-48.2586
62.6148
858.935
-42.9944
25.7434
905.059
-29.2409
16.4324
941.308
-21.5295
-10.4094
959.42
-10.0035
-10.0673
965.57
-6.13712
-29.5723
959.507
1.11667
-26.7504
952.153
0.694235
-22.1522
946.152
-2.08917
-7.48719
948.188
-7.40132
5.3659
963.891
-10.272
7.54664
-0.177413
18.342
309.734
102.538
3842.23
-272.414
0.309394
-294.708
-446.496
-68.6732
112.619
-279.788
-232.754
-84.3162
-32.1919
-249.139
-133.343
105.403
-175.371
23.4506
265.147
-188.176
8.5658
341.16
-122.028
-7.0632
414.207
-113.891
-12.1954
456.165
-75.8383
-48.112
494.471
-66.1646
-46.5924
520.163
-46.9912
-60.2209
542.951
-40.0249
-48.9048
558.636
-31.5228
-46.4949
571.221
-26.9281
-26.0976
580.324
-20.4426
-11.1061
588.577
-14.3643
3.91442
595.658
-6.47964
12.2185
598.49
0.283191
8.8119
10.8184
5.5931
-205.412
521.141
-1197.57
-383.128
-199.605
-368.33
-256.781
-241.308
-369.107
-138.832
-401.298
-79.1975
2.98585
-370.1
-111.904
65.705
-253.296
12.6072
171.542
-282.27
34.5086
221.452
-169.673
6.08894
289.111
-179.866
20.9067
326.87
-112.9
-2.78301
371.869
-110.161
8.28428
401.749
-73.2692
1.28888
431.061
-65.1954
15.4897
450.831
-43.9456
10.1169
466.172
-34.3553
16.743
473.411
-19.3642
12.5015
474.469
-8.62193
8.34916
469.788
5.1617
1.18287
454.18
14.3729
-2.54658
20.9267
-11.1953
-581.781
855.921
1161.51
-538.083
-438.198
-233.865
-209.691
-429.442
3.90831
-133.389
-491.839
9.33776
78.8674
-485.846
94.0691
159.425
-320.969
65.159
254.148
-348.721
103.838
288.781
-183.696
51.2125
326.976
-201.772
56.3118
339.448
-113.973
17.2839
359.927
-124.457
22.309
371.792
-79.5809
7.37698
388.231
-77.5511
11.7275
400.067
-50.8703
6.17
412.032
-41.6579
10.8379
419.746
-22.0188
6.07754
423.67
-5.97322
5.91226
421.809
13.0922
3.67284
408.341
28.8772
1.81548
33.1477
2.79808
-346.308
261.698
4292.51
-158.724
-337.188
1356.45
175.09
-443.378
368.333
210.826
-497.602
168.337
261.643
-458.612
160.694
257.434
-302.62
54.3565
284.847
-347.744
108.247
287.177
-170.842
44.4689
310.454
-203.048
68.0432
314.295
-105.382
24.4857
332.152
-132.593
32.6888
342.432
-84.0089
7.81348
359.258
-92.7194
15.357
373.426
-62.741
2.76284
388.151
-55.3982
4.96892
398.285
-31.8324
-2.78645
403.361
-11.5948
-6.3286
398.905
16.1196
-12.0309
385.074
38.6701
-7.81727
42.8154
0.417108
-179.558
-866.294
323.347
-214.182
-451.546
-727.113
31.4907
-711.158
-810.999
146.55
-676.543
-233.559
283.77
-578.986
5.88234
334.113
-337.556
3.84603
398.049
-400.51
84.3931
388.371
-155.467
2.24543
381.458
-196.125
37.9936
361.398
-79.4455
13.1789
355.427
-118.605
33.2481
349.924
-72.1307
14.6216
352.54
-94.4356
10.3812
358.255
-67.9126
0.684659
367.567
-66.8844
-1.23018
379.228
-45.7688
-5.54934
386.513
-20.578
-9.69455
385.519
14.0187
-12.4759
379.571
40.8158
-11.8757
47.2587
2.68039
193.991
-1945.02
693.645
501.123
-578.24
-854.46
498.948
-644.419
-607.813
497.291
-627.101
-19.8658
439.053
-499.116
40.45
332.946
-233.462
-14.1248
304.828
-75.8459
9.78604
-112.538
-76.1776
-111.61
282.471
-37.6945
7.79942
-34.7201
-33.2812
-32.5772
289.109
-37.5261
7.37818
-65.146
-38.5842
-65.5629
291.964
-16.8404
7.16177
-24.9446
-16.4004
-25.3075
302.838
-20.1803
6.082
-43.794
-21.464
-44.4011
318.611
-14.5156
7.53483
-29.3934
-14.2893
-29.0272
336.271
-18.8424
2.38203
-38.3182
-18.3014
-37.2755
353.347
-15.6436
1.37924
-29.9398
-13.9952
-27.7611
366.924
-82.5455
3.40608
378.435
-58.2684
-1.16582
385.288
-27.1004
-6.47808
383.347
13.5327
-11.0431
377.726
44.2352
-11.2239
55.2512
7.39426
-176.329
-2144.1
-1648.54
-121.8
-682.479
-243.449
339.308
-842.471
-279.324
402.282
-696.255
19.0354
485.24
-573.073
33.422
122.419
-66.277
-49.5164
114.032
109.835
101.38
-44.2043
-61.2243
-41.6476
12.6666
112.304
-64.7003
-13.6968
-2.0576
-82.9956
89.7235
-47.3755
5.01079
-8.7716
-87.5388
87.4124
-36.1493
7.52125
-6.49598
-74.1795
84.1312
-26.1252
5.82919
0.120603
-82.3695
87.6336
-24.3893
-1.17567
4.02578
-81.0473
91.2455
-25.3029
-3.43672
4.39764
-89.8275
96.9727
-26.5081
-3.87727
1.93732
-93.1573
100.403
-23.94
-0.886675
390.655
-18.5634
4.32644
-95.606
-104.854
-87.2499
-95.8872
-32.1587
-15.6594
-28.702
394.769
-62.642
8.69517
387.876
-21.6525
-5.44901
377.783
19.2861
-14.9068
362.357
58.4798
-11.5892
69.9245
3.95767
600.471
-518.138
649.496
727.475
-399.374
-610.787
637.528
-603.436
-503.202
496.004
-531.505
-114.054
114.146
-422.257
51.0843
97.4566
106.343
87.637
-16.4848
121.918
-67.4004
9.83574
-1.00036
13.8278
-32.8781
31.3579
-11.563
0.255735
-0.860959
-25.3421
10.8316
26.4483
-12.2384
1.16161
-2.9824
-25.6814
6.93008
26.9276
-8.03047
2.83664
-1.75537
-23.8462
4.8469
25.2761
-5.93598
1.41458
1.59353
-24.3809
4.73152
26.0077
-6.16382
-1.788
3.12566
-25.1244
6.08566
26.719
-7.70922
-3.09667
2.48497
-26.8189
6.4683
28.3722
-8.10793
-2.39866
1.31847
-27.7874
5.9429
29.2058
-7.56166
-1.1181
-27.9626
1.34375
115.691
-23.6019
0.858273
-29.7078
-26.7401
-28.4444
405.07
-44.5686
12.2947
-106.855
-116.444
-96.2825
-103.778
379.55
7.6254
-0.12487
356.538
38.9171
-9.16365
332.239
80.4267
-10.422
85.7199
-1.33308
1492.75
555.196
-2160.47
981.799
41.2358
-567.03
757.745
-248.253
-28.3366
643.222
-289.657
150.798
161.222
-224.991
256.912
144.028
142.825
126.723
-27.0591
67.2176
168.626
-65.1864
17.6241
-5.0315
15.0054
-41.3942
40.2571
-13.443
4.60619
-3.67363
11.5447