/*--------------------------------*- C++ -*----------------------------------*\
  =========                 |
  \\      /  F ield         | OpenFOAM: The Open Source CFD Toolbox
   \\    /   O peration     | Website:  https://openfoam.org
    \\  /    A nd           | Version:  10
     \\/     M anipulation  |
\*---------------------------------------------------------------------------*/
FoamFile
{
    format      ascii;
    class       volScalarField;
    location    "2.9";
    object      turbidity;
}
// * * * * * * * * * * * * * * * * * * * * * * * * * * * * * * * * * * * * * //

dimensions      [0 0 0 0 0 0 0];

internalField   nonuniform List<scalar> 
12920
(
-0.0643289
-0.0695162
-0.0842657
-0.111018
-0.141422
-0.171373
-0.195992
-0.217252
-0.236081
-0.25258
-0.266759
-0.278019
-0.286212
-0.289628
-0.293043
-0.296891
-0.303872
-0.315154
-0.32982
-0.347283
-0.0343491
-0.0661817
-0.0966792
-0.130908
-0.154727
-0.185848
-0.214526
-0.240884
-0.264201
-0.276546
-0.283852
-0.287332
-0.293562
-0.304192
-0.324213
-0.352642
-0.383218
-0.409634
-0.43324
-0.452699
-0.0449455
-0.0487665
-0.069821
-0.102164
-0.129824
-0.164865
-0.198448
-0.236202
-0.274884
-0.312095
-0.346645
-0.375833
-0.399621
-0.4193
-0.4363
-0.452005
-0.466911
-0.480264
-0.488608
-0.493598
-0.0261548
-0.0398486
-0.0598095
-0.0849336
-0.111915
-0.141223
-0.170828
-0.209633
-0.253037
-0.299114
-0.339074
-0.371648
-0.395214
-0.412796
-0.426458
-0.440027
-0.456469
-0.479453
-0.510486
-0.544272
-0.010289
-0.0252307
-0.0456934
-0.0703272
-0.096558
-0.124491
-0.152329
-0.187547
-0.228435
-0.276135
-0.315849
-0.346107
-0.363314
-0.373717
-0.380363
-0.38756
-0.400067
-0.423001
-0.462063
-0.509878
-0.0224311
-0.0364624
-0.0549324
-0.074881
-0.0955847
-0.11602
-0.140287
-0.168571
-0.201302
-0.239349
-0.276673
-0.306949
-0.318847
-0.32005
-0.316829
-0.319808
-0.334728
-0.366795
-0.4188
-0.480716
-0.0231245
-0.05268
-0.0794504
-0.0994201
-0.116117
-0.132179
-0.147148
-0.171321
-0.199925
-0.235435
-0.258611
-0.268622
-0.254491
-0.238412
-0.230887
-0.238454
-0.261162
-0.302559
-0.367495
-0.442105
-0.0358153
-0.052274
-0.0694315
-0.0915873
-0.113324
-0.123858
-0.122991
-0.126415
-0.137863
-0.156638
-0.17377
-0.152665
-0.122929
-0.102527
-0.102285
-0.139421
-0.179139
-0.227147
-0.294859
-0.377348
-0.0151725
-0.030073
-0.0532871
-0.0853516
-0.121015
-0.125516
-0.123172
-0.118775
-0.120075
-0.134282
-0.133703
-0.111976
-0.0914416
-0.0787051
-0.0742824
-0.109574
-0.151864
-0.199487
-0.26377
-0.344767
-0.0196052
-0.0200291
-0.0256489
-0.048431
-0.0927411
-0.111889
-0.131426
-0.138395
-0.128646
-0.119534
-0.115981
-0.104138
-0.0913076
-0.0829483
-0.0916719
-0.128987
-0.162218
-0.202977
-0.259773
-0.331903
-0.0327375
-0.0461221
-0.0680053
-0.124629
-0.192082
-0.172316
-0.158065
-0.146039
-0.129613
-0.118381
-0.111856
-0.10369
-0.0993872
-0.102555
-0.130105
-0.156015
-0.183556
-0.217636
-0.264832
-0.323855
-0.0155365
-0.0320109
-0.0425821
-0.0603789
-0.0940258
-0.109629
-0.134039
-0.152704
-0.157474
-0.146123
-0.13846
-0.138196
-0.145425
-0.160494
-0.189789
-0.193514
-0.207296
-0.231934
-0.268349
-0.314736
-0.0203694
-0.048984
-0.0684614
-0.0981285
-0.126835
-0.153542
-0.155297
-0.164591
-0.188748
-0.198501
-0.222907
-0.240298
-0.269088
-0.285352
-0.352458
-0.353654
-0.330254
-0.316472
-0.318677
-0.339049
-0.0466651
-0.0575646
-0.0683922
-0.0818855
-0.102831
-0.131109
-0.171628
-0.223889
-0.273305
-0.318671
-0.362038
-0.4054
-0.450273
-0.496611
-0.536312
-0.560887
-0.549597
-0.510516
-0.465454
-0.445811
-0.0189758
-0.0308289
-0.0474356
-0.0695329
-0.0957397
-0.133166
-0.179302
-0.214365
-0.255509
-0.287436
-0.338322
-0.391206
-0.449386
-0.505421
-0.559384
-0.606171
-0.63964
-0.651032
-0.628725
-0.609417
-0.0440765
-0.0447653
-0.0580367
-0.0937886
-0.120601
-0.143749
-0.169555
-0.182536
-0.208254
-0.240971
-0.299967
-0.367302
-0.435931
-0.493197
-0.541896
-0.581192
-0.615794
-0.646401
-0.672989
-0.692811
-0.0209721
-0.0399402
-0.0698722
-0.106615
-0.13679
-0.160871
-0.174976
-0.189307
-0.208092
-0.233272
-0.271908
-0.327234
-0.393295
-0.445357
-0.475358
-0.498444
-0.522106
-0.549524
-0.583548
-0.619335
-0.0155997
-0.0330576
-0.0531983
-0.0928801
-0.136292
-0.171426
-0.19436
-0.21162
-0.227325
-0.246016
-0.273334
-0.315069
-0.364959
-0.403213
-0.419786
-0.425676
-0.432193
-0.439797
-0.451136
-0.476123
-0.0186653
-0.0324215
-0.0518725
-0.094553
-0.144808
-0.182692
-0.19685
-0.215341
-0.23657
-0.266441
-0.303608
-0.340767
-0.376516
-0.407142
-0.428204
-0.4354
-0.431516
-0.420988
-0.408992
-0.414702
-0.0290761
-0.0419335
-0.0585951
-0.0852479
-0.113216
-0.139224
-0.15757
-0.177388
-0.199663
-0.225985
-0.258843
-0.291693
-0.319655
-0.342041
-0.35877
-0.371527
-0.381697
-0.39109
-0.401206
-0.414315
-0.0162966
-0.0368324
-0.052076
-0.0688465
-0.0813757
-0.0825933
-0.0835247
-0.0836953
-0.0822124
-0.0767288
-0.0693171
-0.0586091
-0.0495122
-0.0432002
-0.0396539
-0.0382043
-0.0391561
-0.0437742
-0.0551039
-0.0705282
-0.00665099
-0.0150055
-0.0209831
-0.0299628
-0.0354035
-0.0475747
-0.0512219
-0.0484203
-0.0433726
-0.0391939
-0.037737
-0.0383615
-0.0420886
-0.048866
-0.0599233
-0.0755986
-0.0955994
-0.114939
-0.123698
-0.118692
-0.0105306
-0.011956
-0.0142042
-0.0201092
-0.0291206
-0.0356208
-0.0468529
-0.0452565
-0.0509533
-0.0573725
-0.0737302
-0.0916645
-0.111322
-0.12503
-0.132998
-0.131969
-0.12189
-0.107055
-0.0945154
-0.0920993
-0.0245289
-0.0190395
-0.0224393
-0.0275848
-0.042262
-0.0535356
-0.0705594
-0.0779752
-0.0831002
-0.0810313
-0.0841495
-0.0900845
-0.099464
-0.110676
-0.12294
-0.133954
-0.144979
-0.152376
-0.155057
-0.157269
-0.0140425
-0.0216022
-0.0314452
-0.0356328
-0.046932
-0.0542807
-0.0671896
-0.0804802
-0.0887571
-0.0827175
-0.0733757
-0.0611593
-0.0548113
-0.0525933
-0.0548337
-0.0606314
-0.0721558
-0.0894195
-0.113359
-0.140115
-0.00497424
-0.0122614
-0.0181819
-0.0248353
-0.0345814
-0.0392872
-0.04325
-0.0459643
-0.0531228
-0.0565688
-0.0532822
-0.0425444
-0.0319636
-0.0300653
-0.0344393
-0.0430705
-0.0560756
-0.0747407
-0.101791
-0.138423
-0.00867231
-0.028419
-0.0350509
-0.0330085
-0.031619
-0.027384
-0.0295048
-0.0332932
-0.0332034
-0.0309156
-0.025561
-0.0236252
-0.0219807
-0.0242289
-0.0300187
-0.038775
-0.0518864
-0.0724213
-0.105388
-0.153491
-0.0144948
-0.0218802
-0.0281755
-0.0247459
-0.0272195
-0.0253683
-0.0264702
-0.0366687
-0.0451884
-0.0377396
-0.0214304
-0.0143265
-0.014306
-0.0182595
-0.0295569
-0.0390763
-0.0511915
-0.0712319
-0.104876
-0.149513
-0.0101884
-0.0153906
-0.0196221
-0.027304
-0.0463811
-0.0479809
-0.0417895
-0.042148
-0.0633224
-0.0549246
-0.0196339
-0.0104878
-0.0114094
-0.0161676
-0.0288904
-0.0443322
-0.0534449
-0.0704416
-0.100605
-0.13494
-0.00299256
-0.00668602
-0.0170322
-0.031339
-0.0515539
-0.059145
-0.0699041
-0.0727575
-0.0650074
-0.063402
-0.0334006
-0.0220029
-0.0195998
-0.0265664
-0.0453227
-0.055294
-0.0595034
-0.0696539
-0.0914595
-0.115108
-0.00957994
-0.0225764
-0.0419074
-0.0658791
-0.0890715
-0.0660634
-0.0698924
-0.087723
-0.0791172
-0.077023
-0.07919
-0.0727205
-0.0682086
-0.0817895
-0.0847256
-0.0598002
-0.058869
-0.0645375
-0.078822
-0.0936668
-0.0116214
-0.0117977
-0.0259216
-0.0397303
-0.0666582
-0.0742512
-0.0812688
-0.0934547
-0.124005
-0.122437
-0.109766
-0.0920795
-0.0938897
-0.114775
-0.0803637
-0.0485267
-0.0487777
-0.0539662
-0.0639283
-0.0742852
-0.00304003
-0.00775957
-0.0136075
-0.0307749
-0.0543281
-0.054318
-0.0738127
-0.0977927
-0.0848296
-0.0665695
-0.0586493
-0.0744377
-0.10318
-0.120051
-0.0832452
-0.0670397
-0.0582059
-0.0569716
-0.0611927
-0.0708058
-0.00670143
-0.0073291
-0.00932686
-0.0134117
-0.0275265
-0.0275515
-0.0492269
-0.0523856
-0.0549674
-0.0585691
-0.0663303
-0.0808455
-0.0991261
-0.112772
-0.120376
-0.11866
-0.108931
-0.0988441
-0.0977576
-0.111799
-0.0150186
-0.0159472
-0.022462
-0.0224249
-0.0306887
-0.026819
-0.0392435
-0.0364891
-0.0435692
-0.0514591
-0.0601238
-0.0649245
-0.0725148
-0.0783367
-0.0886628
-0.0988883
-0.113796
-0.136126
-0.158921
-0.18329
-0.00257902
-0.0110335
-0.00885937
-0.0123724
-0.0187117
-0.0172855
-0.0243158
-0.0303725
-0.0425596
-0.0570928
-0.0708222
-0.0730344
-0.0683547
-0.0563951
-0.051798
-0.0505866
-0.0561741
-0.0657983
-0.0845442
-0.0992985
-0.00221774
-0.00485262
-0.0105233
-0.0132541
-0.0163561
-0.0208561
-0.026485
-0.0357323
-0.0508891
-0.0700763
-0.0959941
-0.101035
-0.0814739
-0.0508999
-0.0359004
-0.0324506
-0.0336002
-0.036118
-0.0392964
-0.045323
-0.00232629
-0.00741753
-0.0213143
-0.0324402
-0.045836
-0.0472888
-0.0494845
-0.0507046
-0.0612473
-0.075291
-0.0928685
-0.093774
-0.0795085
-0.0533291
-0.038765
-0.0346855
-0.0358264
-0.0394575
-0.0447031
-0.0507007
-0.00365357
-0.0167559
-0.0339367
-0.0432405
-0.0526087
-0.0345838
-0.0286069
-0.0285364
-0.0332265
-0.0424582
-0.0584446
-0.0712328
-0.0776698
-0.069868
-0.0586333
-0.0504702
-0.0483676
-0.0505433
-0.0558805
-0.0630451
-0.0114448
-0.0210195
-0.0400094
-0.0553986
-0.068249
-0.0732634
-0.0745264
-0.06558
-0.0485828
-0.0364494
-0.035677
-0.0452591
-0.0583387
-0.0677557
-0.0750464
-0.0826945
-0.0915125
-0.100608
-0.110876
-0.125428
-0.0145053
-0.0292682
-0.0426141
-0.0491317
-0.048165
-0.0425589
-0.0401751
-0.0389867
-0.0373778
-0.0338539
-0.0300207
-0.026148
-0.0237207
-0.0225588
-0.0224529
-0.0232054
-0.0249585
-0.0281738
-0.0327974
-0.038229
-0.00214614
-0.00813164
-0.0121423
-0.0157111
-0.0166342
-0.0197402
-0.019211
-0.0182561
-0.0179061
-0.0182945
-0.0197789
-0.0220714
-0.025385
-0.0297253
-0.0354108
-0.0424416
-0.0501933
-0.0569398
-0.060149
-0.0604605
-0.0062337
-0.00831573
-0.00981932
-0.0119255
-0.0148845
-0.0156299
-0.0183644
-0.0178097
-0.020372
-0.0234066
-0.029068
-0.034827
-0.0414911
-0.045808
-0.0483773
-0.0482682
-0.046898
-0.0461738
-0.0470536
-0.0490374
-0.0086579
-0.00822407
-0.010253
-0.0139481
-0.0216216
-0.0254825
-0.0317058
-0.0298852
-0.029919
-0.029418
-0.0324504
-0.0370669
-0.0429826
-0.049159
-0.0551449
-0.0594684
-0.0624913
-0.0642415
-0.0655179
-0.0669662
-0.0140382
-0.0166436
-0.0180651
-0.0192315
-0.0262572
-0.0310556
-0.0362796
-0.0369484
-0.0340589
-0.0281219
-0.0252444
-0.0248895
-0.0269716
-0.0306341
-0.0355403
-0.0414543
-0.0484852
-0.056607
-0.0663604
-0.0767847
-0.00493712
-0.00472046
-0.00816072
-0.0122997
-0.0167296
-0.0190406
-0.0211314
-0.0219104
-0.0217671
-0.0202623
-0.019208
-0.0195465
-0.0218966
-0.0261323
-0.0317439
-0.0387813
-0.04768
-0.0593268
-0.0752077
-0.0957816
-0.00483749
-0.00933087
-0.011913
-0.0137861
-0.0148411
-0.0158667
-0.0158351
-0.0157947
-0.0138727
-0.0136767
-0.0143321
-0.0166652
-0.0199802
-0.0245985
-0.0310012
-0.0396326
-0.0510087
-0.0664719
-0.0882094
-0.114817
-0.0141378
-0.010473
-0.0112738
-0.0120635
-0.0138541
-0.0144023
-0.0149598
-0.0159693
-0.0145291
-0.011854
-0.01195
-0.013581
-0.0163628
-0.0199871
-0.0290681
-0.0388458
-0.0518632
-0.0688212
-0.0901691
-0.109371
-0.00336748
-0.00801954
-0.0099434
-0.0132562
-0.0188177
-0.0186675
-0.0168209
-0.017869
-0.0185036
-0.0109004
-0.00872574
-0.0104433
-0.0143181
-0.0195416
-0.0266471
-0.0377487
-0.050798
-0.0671371
-0.0841859
-0.0927424
-0.00283115
-0.00551721
-0.0108907
-0.0160635
-0.0246424
-0.0264341
-0.0307689
-0.0289933
-0.0250474
-0.0151792
-0.00957875
-0.0117601
-0.0178478
-0.0252396
-0.0327744
-0.0380241
-0.0480457
-0.0609143
-0.0727601
-0.0761314
-0.00691678
-0.0103752
-0.019421
-0.0277892
-0.0297442
-0.0232504
-0.0259088
-0.0280829
-0.0215087
-0.0171416
-0.0164585
-0.0197019
-0.02885
-0.0401871
-0.0388288
-0.0350255
-0.0422889
-0.051549
-0.059489
-0.0614609
-0.00445393
-0.00623663
-0.0113268
-0.0203605
-0.0359433
-0.0357789
-0.0354328
-0.0321686
-0.0308705
-0.0286828
-0.0272821
-0.0330301
-0.0450791
-0.046014
-0.0303998
-0.0303649
-0.035999
-0.0424008
-0.0481234
-0.0509118
-0.00115308
-0.00250708
-0.0067404
-0.0146932
-0.0245128
-0.0238224
-0.0314255
-0.0316616
-0.0265873
-0.0270493
-0.032393
-0.0401397
-0.0443488
-0.0410648
-0.0336932
-0.0345785
-0.037441
-0.041422
-0.0456202
-0.049747
-0.0032576
-0.00262663
-0.00430725
-0.00764531
-0.0140358
-0.0149004
-0.021418
-0.0223149
-0.0246153
-0.0278203
-0.0319514
-0.0355146
-0.0389462
-0.0412881
-0.0430832
-0.0446369
-0.0464704
-0.0492611
-0.0541917
-0.0626696
-0.0138331
-0.00632999
-0.0056889
-0.00761506
-0.013356
-0.014888
-0.0189377
-0.0215698
-0.0244079
-0.0264413
-0.0281592
-0.0285597
-0.0308407
-0.0330438
-0.0373481
-0.0426209
-0.0498111
-0.0594595
-0.0709064
-0.0838824
-0.000973613
-0.00400902
-0.00507432
-0.00738325
-0.0109037
-0.0144834
-0.0187554
-0.0240345
-0.0277338
-0.0304366
-0.0300849
-0.0279922
-0.0266615
-0.0264483
-0.0284291
-0.0311741
-0.0350569
-0.0392839
-0.044922
-0.0502724
-0.0014853
-0.00347021
-0.00654605
-0.0105699
-0.0132303
-0.0176425
-0.0224307
-0.0280165
-0.0361733
-0.0406327
-0.0439089
-0.0375245
-0.0297929
-0.0259011
-0.0262042
-0.0280295
-0.0303045
-0.0326417
-0.0351402
-0.0378572
-0.00438694
-0.008093
-0.0138894
-0.019588
-0.0224994
-0.0210301
-0.0211116
-0.0220926
-0.027755
-0.0327167
-0.0370857
-0.0339171
-0.0296706
-0.0277034
-0.0290492
-0.031737
-0.0348611
-0.0380139
-0.0412138
-0.0437554
-0.0104406
-0.0151736
-0.0243638
-0.0217964
-0.017289
-0.0121383
-0.0126203
-0.0126954
-0.0140303
-0.0165914
-0.0211976
-0.0248026
-0.0274965
-0.0290571
-0.0320682
-0.0363352
-0.0413627
-0.046841
-0.0529076
-0.0590559
-0.00777263
-0.0133342
-0.0304798
-0.0408718
-0.0469762
-0.0467903
-0.0433324
-0.0349686
-0.025061
-0.0174855
-0.0145356
-0.0157141
-0.0191475
-0.0228046
-0.0269436
-0.0321219
-0.0387226
-0.0464955
-0.0558984
-0.0683269
-0.00681316
-0.0196744
-0.032529
-0.0307716
-0.0251793
-0.021273
-0.0205545
-0.0200633
-0.0191072
-0.0172872
-0.0159011
-0.0153438
-0.0158287
-0.0173144
-0.0196772
-0.0227387
-0.0261568
-0.0295682
-0.0327299
-0.0353957
-0.00663074
-0.00929608
-0.0108977
-0.0111459
-0.0109022
-0.0116373
-0.011902
-0.0125881
-0.0137945
-0.0154477
-0.0176776
-0.0205135
-0.0240539
-0.0280624
-0.0320954
-0.0352657
-0.0371459
-0.0375273
-0.0365176
-0.0350569
-0.011874
-0.0113561
-0.0099486
-0.00937606
-0.00965692
-0.00980977
-0.0109228
-0.0119099
-0.0137927
-0.0158551
-0.0184565
-0.0208529
-0.0233896
-0.0251365
-0.0264396
-0.0270152
-0.0272042
-0.0273081
-0.0274854
-0.0276528
-0.004939
-0.0064844
-0.00824002
-0.00984904
-0.0119658
-0.0121866
-0.0137357
-0.0133612
-0.0145783
-0.0161476
-0.0186927
-0.0214665
-0.0245408
-0.0273183
-0.0298025
-0.0314073
-0.0326105
-0.0335724
-0.0346334
-0.0356117
-0.0174401
-0.00948926
-0.00932515
-0.0118664
-0.0150294
-0.0157169
-0.0162774
-0.0151293
-0.014576
-0.0146267
-0.0161138
-0.0182612
-0.0211281
-0.0242775
-0.0278786
-0.0316664
-0.0358679
-0.0405172
-0.0457499
-0.0508545
-0.00563766
-0.00322267
-0.0050501
-0.00876578
-0.0105388
-0.0110581
-0.0114231
-0.0114991
-0.0123032
-0.0135934
-0.0159453
-0.0188472
-0.022568
-0.0266241
-0.0313635
-0.0366637
-0.0430731
-0.0510046
-0.0608336
-0.0713811
-0.00613613
-0.00620639
-0.00972164
-0.0113852
-0.0108461
-0.00999847
-0.00925102
-0.00995199
-0.0114576
-0.0137285
-0.0167989
-0.020331
-0.0246452
-0.0296421
-0.035499
-0.0420172
-0.0494607
-0.0584075
-0.0689589
-0.0776056
-0.010892
-0.00993996
-0.0103354
-0.0105755
-0.0106133
-0.0100494
-0.00954383
-0.00937514
-0.0102662
-0.012392
-0.0147455
-0.0170648
-0.0201802
-0.0245845
-0.0357594
-0.0427427
-0.0489938
-0.0553134
-0.0613339
-0.0622939
-0.00194263
-0.00628447
-0.00801586
-0.00979367
-0.0105581
-0.0102121
-0.00945447
-0.00895468
-0.00908581
-0.00994077
-0.0118786
-0.0140988
-0.0164937
-0.0191197
-0.0270699
-0.0408689
-0.0456847
-0.0484409
-0.0490749
-0.0450685
-0.00281525
-0.00401913
-0.00531798
-0.00916514
-0.0121123
-0.012261
-0.0130234
-0.0114271
-0.0091673
-0.00839811
-0.0107385
-0.0143716
-0.0175661
-0.019775
-0.0250309
-0.0381064
-0.0422932
-0.0434072
-0.0423499
-0.0390014
-0.00291283
-0.00525409
-0.00871385
-0.0121185
-0.0114473
-0.0113065
-0.0120329
-0.011212
-0.00989407
-0.0109464
-0.0145756
-0.0193886
-0.0221474
-0.0228507
-0.0246964
-0.034086
-0.0376075
-0.0389193
-0.0387335
-0.0377618
-0.00192607
-0.00357138
-0.00680202
-0.0107732
-0.0151512
-0.0152232
-0.0145965
-0.0136065
-0.0141477
-0.0162987
-0.020301
-0.0231861
-0.022594
-0.0208854
-0.0225742
-0.0290048
-0.0324099
-0.034673
-0.036161
-0.0373453
-0.000415771
-0.00171885
-0.00493909
-0.00879506
-0.0116392
-0.0127939
-0.0144746
-0.0164595
-0.0174252
-0.019345
-0.0207366
-0.0216917
-0.0218198
-0.0220707
-0.0254007
-0.0282164
-0.0312244
-0.0340906
-0.0367776
-0.039589
-0.00147555
-0.00170116
-0.00385959
-0.0065354
-0.00946758
-0.0112241
-0.0138718
-0.0157359
-0.0175986
-0.0194605
-0.0210969
-0.0232068
-0.0249426
-0.0275481
-0.0300661
-0.0332185
-0.0364609
-0.0403358
-0.044881
-0.0506833
-0.0027033
-0.0028101
-0.00406869
-0.00665501
-0.00985244
-0.0123316
-0.0140691
-0.0159961
-0.0176018
-0.0191757
-0.0209848
-0.0231476
-0.0259523
-0.0292981
-0.0331914
-0.0375741
-0.0422656
-0.0476212
-0.0533687
-0.0593771
-0.0014783
-0.00318242
-0.00547746
-0.00778153
-0.0103542
-0.0129414
-0.0149393
-0.0171011
-0.0184625
-0.0199398
-0.0212225
-0.0229873
-0.0253073
-0.0279682
-0.0309016
-0.033736
-0.0366244
-0.0391945
-0.0417657
-0.0438305
-0.00135186
-0.00275963
-0.00558818
-0.00911641
-0.011189
-0.0131426
-0.016003
-0.0178926
-0.0210491
-0.0221839
-0.0237593
-0.0242264
-0.0257876
-0.0282917
-0.0310237
-0.0337713
-0.0365051
-0.039194
-0.0418925
-0.0440718
-0.00669619
-0.0076135
-0.00860668
-0.010824
-0.0106575
-0.0101864
-0.0110472
-0.0124457
-0.0157182
-0.0183523
-0.0212146
-0.0232496
-0.0259796
-0.0293534
-0.0328111
-0.0362894
-0.0399042
-0.0437205
-0.0480052
-0.0522881
-0.0085581
-0.0121845
-0.0132621
-0.0104458
-0.010565
-0.0094036
-0.00978102
-0.00967249
-0.0107871
-0.0134681
-0.0172277
-0.0211239
-0.0250596
-0.0291203
-0.0333623
-0.0377761
-0.0423339
-0.0471775
-0.0521631
-0.0569032
-0.0136011
-0.0177241
-0.0297739
-0.0324005
-0.0329118
-0.0301397
-0.0252994
-0.0185061
-0.012575
-0.00913238
-0.00869217
-0.0101138
-0.0125683
-0.0156185
-0.01941
-0.0242525
-0.0303516
-0.0377146
-0.0465866
-0.0569868
-0.0212458
-0.0198182
-0.0213782
-0.0165907
-0.0149009
-0.0142169
-0.0136718
-0.0123653
-0.0114118
-0.0113582
-0.0127771
-0.0151574
-0.0176523
-0.0195516
-0.0207444
-0.0214044
-0.0217719
-0.0220442
-0.0222326
-0.0223137
-0.0139752
-0.00881753
-0.00975876
-0.00961637
-0.00984395
-0.010254
-0.0109303
-0.0121881
-0.0138709
-0.0158468
-0.0176348
-0.0190409
-0.0198791
-0.0201386
-0.0200057
-0.0194609
-0.018698
-0.0176807
-0.0165706
-0.0156796
-0.00756181
-0.00862122
-0.00949003
-0.00869949
-0.00865622
-0.00963299
-0.0109939
-0.0125102
-0.0140019
-0.0152517
-0.0163939
-0.0171802
-0.0178124
-0.0180084
-0.0179064
-0.0174003
-0.0165935
-0.0155949
-0.0145481
-0.0137295
-0.00233947
-0.00442427
-0.00741022
-0.00787254
-0.00824095
-0.00922467
-0.0106546
-0.0122223
-0.0140281
-0.0156645
-0.0173226
-0.018567
-0.0196219
-0.0201153
-0.0202461
-0.0198565
-0.019237
-0.0184635
-0.0177719
-0.0173634
-0.00303892
-0.00620943
-0.00732749
-0.00807324
-0.00864035
-0.00959844
-0.0110079
-0.012427
-0.0144658
-0.0163239
-0.0184243
-0.020078
-0.0216268
-0.0227122
-0.0236092
-0.0241883
-0.0246862
-0.0251197
-0.0256802
-0.0264989
-0.00337091
-0.00409948
-0.00662155
-0.00758569
-0.00798653
-0.00907713
-0.0110895
-0.0131051
-0.0158618
-0.0181836
-0.0205421
-0.0222213
-0.0235615
-0.0244532
-0.0251891
-0.0258951
-0.0266541
-0.0274535
-0.0285152
-0.029883
-0.00383341
-0.00893153
-0.0107768
-0.00946145
-0.00848705
-0.0094164
-0.0118793
-0.0144463
-0.0176561
-0.0200037
-0.0221343
-0.023435
-0.0239992
-0.0240978
-0.0237353
-0.0233677
-0.0229252
-0.0224931
-0.0224074
-0.0222585
-0.0104435
-0.0110626
-0.010004
-0.00985523
-0.00939136
-0.00950017
-0.0101453
-0.0132935
-0.0161844
-0.0190239
-0.0213145
-0.0232981
-0.0244901
-0.0246623
-0.0191576
-0.0174633
-0.0160729
-0.0149763
-0.0142769
-0.0133208
-0.00362775
-0.00639545
-0.00784888
-0.00920792
-0.00958984
-0.00960094
-0.00982228
-0.0112924
-0.0139741
-0.0160135
-0.0182445
-0.0206786
-0.0237549
-0.0255013
-0.0224088
-0.0133438
-0.0111572
-0.00944399
-0.00817058
-0.00702784
-0.0018231
-0.00395013
-0.00589053
-0.00863466
-0.00983046
-0.00994685
-0.00980917
-0.00980885
-0.0112436
-0.0135067
-0.015649
-0.018304
-0.0221931
-0.0257676
-0.0240193
-0.0163591
-0.0141306
-0.0119652
-0.00991715
-0.00853825
-0.00342131
-0.0045648
-0.00749143
-0.00941283
-0.0101639
-0.0103347
-0.0102641
-0.0101652
-0.0113391
-0.0130736
-0.0147442
-0.0167554
-0.0202206
-0.0248951
-0.0273245
-0.0218239
-0.0206085
-0.0189872
-0.0169716
-0.0158233
-0.0014872
-0.00374227
-0.00651073
-0.00863253
-0.0101725
-0.0111311
-0.0117978
-0.0121638
-0.0134068
-0.0148045
-0.0158729
-0.0170869
-0.0192108
-0.0223077
-0.0258249
-0.0230155
-0.0225238
-0.0212577
-0.0194169
-0.0181258
-0.00236744
-0.00357274
-0.00601975
-0.00814368
-0.0100737
-0.0123023
-0.0131864
-0.0161178
-0.0174718
-0.0192738
-0.0206031
-0.0216667
-0.0226402
-0.0236662
-0.0254607
-0.0262141
-0.0263595
-0.0263112
-0.0259138
-0.02611
-0.00215964
-0.00221236
-0.00472162
-0.00740813
-0.00999295
-0.0130372
-0.0154573
-0.018675
-0.0208329
-0.0235007
-0.0253145
-0.0276977
-0.0294592
-0.0316776
-0.033528
-0.0357097
-0.0374466
-0.0393418
-0.0408651
-0.0427791
-0.000979263
-0.0024992
-0.00499927
-0.00819585
-0.011394
-0.0146355
-0.0166797
-0.0197507
-0.0220551
-0.0247953
-0.0268136
-0.028938
-0.0306237
-0.0320577
-0.0333112
-0.0341198
-0.0348382
-0.0351937
-0.035588
-0.0359517
-0.000921075
-0.00350853
-0.00616783
-0.00920752
-0.0122489
-0.0151535
-0.0178065
-0.0207253
-0.0232724
-0.0259215
-0.0277837
-0.0295158
-0.0302313
-0.0304903
-0.0299263
-0.0287751
-0.02724
-0.025343
-0.0236903
-0.0226529
-0.000930306
-0.0031034
-0.00568621
-0.00863838
-0.0115317
-0.0142383
-0.0175657
-0.0204376
-0.0238127
-0.0269187
-0.0299261
-0.0330236
-0.0354615
-0.0375804
-0.0386962
-0.039375
-0.0391297
-0.0383213
-0.0370307
-0.0356496
-0.00264223
-0.00546883
-0.00556554
-0.00693156
-0.00806046
-0.00988714
-0.0126508
-0.0159026
-0.019704
-0.0235503
-0.0276947
-0.0320328
-0.0364813
-0.0408767
-0.0451188
-0.0491294
-0.0525568
-0.0552712
-0.0569823
-0.0575734
-0.0217537
-0.0116237
-0.00885978
-0.0080581
-0.00840381
-0.00787898
-0.00860934
-0.0113927
-0.014798
-0.0185135
-0.0218844
-0.0250587
-0.0282506
-0.0315942
-0.0353099
-0.0394801
-0.0441059
-0.0492841
-0.0547481
-0.0600663
-0.00577224
-0.01655
-0.0205766
-0.0193472
-0.0178667
-0.0138651
-0.00984241
-0.007365
-0.00775665
-0.00994979
-0.0129204
-0.0165007
-0.0203333
-0.024466
-0.0286559
-0.0329202
-0.0372365
-0.041592
-0.0462841
-0.0504446
-0.0100629
-0.0155635
-0.0139677
-0.00834665
-0.00919454
-0.00988996
-0.0118562
-0.0107263
-0.0139836
-0.0156893
-0.00995056
-0.0130081
-0.013063
-0.0174293
-0.0164111
-0.0267324
-0.0259722
-0.0111203
-0.0133181
-0.0157352
-0.0186617
-0.0183422
-0.0260232
-0.0284329
-0.014519
-0.0189189
-0.0200434
-0.0247149
-0.119425
-0.130902
-0.132161
-0.116898
-0.107043
-0.12556
-0.124939
-0.118781
-0.130958
-0.1237
-0.106325
-0.116085
-0.122847
-0.116914
-0.130224
-0.120938
-0.118463
-0.120325
-0.127887
-0.116161
-0.117893
-0.136748
-0.119945
-0.119834
-0.126176
-0.101232
-0.116657
-0.0929631
-0.118527
-0.117288
-0.107125
-0.0880443
-0.0539817
-0.083355
-0.0659915
-0.095659
-0.103694
-0.0936551
-0.0466387
-0.035537
-0.0628683
-0.0536577
-0.081399
-0.0904854
-0.082473
-0.0339802
-0.0317328
-0.0503891
-0.0437118
-0.0722348
-0.0805251
-0.0770266
-0.0315869
-0.0337839
-0.0431533
-0.0468072
-0.138574
-0.135373
-0.142178
-0.127898
-0.13538
-0.131021
-0.140009
-0.132077
-0.141691
-0.133753
-0.134375
-0.124393
-0.140136
-0.132127
-0.1201
-0.13009
-0.121165
-0.1209
-0.117018
-0.127418
-0.117638
-0.117945
-0.119186
-0.114665
-0.115575
-0.0982957
-0.116223
-0.112349
-0.107381
-0.112917
-0.106182
-0.0918721
-0.0790479
-0.110673
-0.104383
-0.0943023
-0.103669
-0.0972091
-0.0755194
-0.0626043
-0.102228
-0.0962027
-0.0844074
-0.0958419
-0.0945175
-0.0584328
-0.0515181
-0.0948253
-0.0970283
-0.0807682
-0.0948738
-0.0992861
-0.0515721
-0.057643
-0.0999208
-0.109734
-0.149212
-0.150762
-0.154714
-0.149086
-0.145448
-0.142504
-0.151954
-0.133752
-0.156344
-0.156063
-0.14357
-0.1345
-0.154625
-0.154745
-0.120333
-0.152992
-0.139124
-0.130665
-0.121038
-0.152057
-0.14189
-0.113612
-0.134779
-0.126203
-0.119013
-0.114237
-0.138995
-0.133762
-0.105722
-0.125009
-0.124744
-0.112634
-0.108315
-0.133103
-0.132912
-0.099722
-0.125332
-0.128594
-0.107429
-0.107096
-0.133249
-0.136087
-0.101137
-0.130417
-0.138826
-0.107784
-0.112976
-0.137928
-0.146043
-0.110292
-0.142304
-0.153107
-0.11555
-0.12251
-0.148825
-0.147186
-0.149432
-0.139602
-0.149145
-0.127182
-0.147011
-0.13386
-0.148319
-0.158037
-0.152669
-0.165866
-0.151931
-0.158832
-0.15353
-0.168118
-0.149385
-0.169884
-0.17525
-0.158195
-0.151755
-0.170811
-0.171538
-0.139431
-0.176732
-0.18343
-0.149433
-0.144483
-0.170912
-0.171857
-0.137745
-0.18729
-0.197339
-0.143471
-0.141801
-0.173982
-0.17984
-0.142709
-0.202365
-0.218691
-0.141904
-0.145909
-0.184338
-0.202028
-0.156541
-0.225064
-0.238162
-0.14862
-0.159008
-0.209075
-0.221535
-0.171327
-0.243044
-0.254528
-0.161908
-0.156874
-0.224733
-0.222311
-0.0409828
-0.0622211
-0.0645884
-0.0342539
-0.0327977
-0.0463286
-0.043455
-0.0565397
-0.0639968
-0.0685982
-0.0331358
-0.0320879
-0.04258
-0.0395137
-0.0623155
-0.0724533
-0.0752634
-0.03042
-0.0211757
-0.0373778
-0.0257901
-0.0259152
-0.0676083
-0.0351659
-0.0176067
-0.010786
-0.0212963
-0.012101
-0.0112915
-0.0282976
-0.018551
-0.00977897
-0.00934261
-0.0107743
-0.010199
-0.0107663
-0.0172963
-0.0160194
-0.0097759
-0.0122596
-0.010821
-0.0143392
-0.0146531
-0.0163569
-0.019976
-0.0134018
-0.0176034
-0.0159364
-0.0215264
-0.0221598
-0.0220294
-0.0299663
-0.0192179
-0.0244944
-0.023577
-0.0298932
-0.075038
-0.0755896
-0.0881547
-0.0613194
-0.0535308
-0.0634023
-0.0567103
-0.0646186
-0.0875924
-0.0717993
-0.0499918
-0.0411871
-0.0519659
-0.0371961
-0.0681517
-0.0656615
-0.0603025
-0.0381981
-0.0270019
-0.0330929
-0.0243208
-0.0391917
-0.062126
-0.0666591
-0.0229444
-0.0138385
-0.0223949
-0.0183246
-0.0237478
-0.0670805
-0.0625285
-0.0122741
-0.0111863
-0.0176801
-0.0176552
-0.0193713
-0.0596031
-0.0518359
-0.0117761
-0.0155577
-0.0183881
-0.0233307
-0.0239818
-0.051294
-0.0579555
-0.0173335
-0.0235873
-0.025844
-0.0353198
-0.0364607
-0.062878
-0.0801527
-0.0258564
-0.0325489
-0.038659
-0.0460564
-0.0855188
-0.0677314
-0.0830473
-0.0504833
-0.0437378
-0.0550531
-0.0445164
-0.0825421
-0.0942661
-0.116835
-0.0412702
-0.0329223
-0.0421138
-0.0397924
-0.0755273
-0.118187
-0.115043
-0.0302522
-0.0247132
-0.0392811
-0.0375067
-0.079741
-0.113422
-0.108209
-0.0238058
-0.0219827
-0.036877
-0.0345188
-0.0746005
-0.106219
-0.0984364
-0.0215776
-0.021819
-0.0337641
-0.0336069
-0.0682039
-0.0956053
-0.0920135
-0.0226439
-0.028148
-0.034905
-0.0437233
-0.0763427
-0.093673
-0.106512
-0.0310156
-0.0416466
-0.0477737
-0.0579074
-0.0965336
-0.11126
-0.107678
-0.0451392
-0.0511825
-0.0588929
-0.0515847
-0.0857721
-0.0831487
-0.101132
-0.0629526
-0.0498675
-0.0605125
-0.0517438
-0.120297
-0.107984
-0.115669
-0.04635
-0.0430167
-0.049054
-0.0433715
-0.124119
-0.114853
-0.103902
-0.0427836
-0.0408699
-0.0412918
-0.0351849
-0.113854
-0.0952386
-0.0724299
-0.0397675
-0.0356598
-0.034324
-0.0370684
-0.095799
-0.0687157
-0.0653601
-0.0346354
-0.0355901
-0.0394396
-0.048501
-0.0905416
-0.0687417
-0.0881592
-0.0377454
-0.0488537
-0.0530871
-0.0659307
-0.110342
-0.0979636
-0.119054
-0.0531287
-0.0611965
-0.0695246
-0.0724327
-0.106874
-0.122914
-0.112346
-0.0606963
-0.0495453
-0.0709015
-0.0593385
-0.0171179
-0.0235163
-0.0252917
-0.0154828
-0.0136748
-0.0179181
-0.0161487
-0.0193242
-0.0259767
-0.0269844
-0.0127564
-0.0104466
-0.0154034
-0.0122831
-0.0126992
-0.0258099
-0.0172758
-0.00985622
-0.00883469
-0.0110828
-0.00841082
-0.00871453
-0.0142033
-0.00915733
-0.00889562
-0.0100775
-0.00811281
-0.00899909
-0.00978281
-0.00880053
-0.0100747
-0.0106309
-0.0125228
-0.00970545
-0.0124801
-0.0131979
-0.0110585
-0.0150544
-0.0132483
-0.0155164
-0.0135106
-0.01651
-0.0181495
-0.0166172
-0.0216068
-0.0162819
-0.0185804
-0.0174192
-0.0198221
-0.0238827
-0.0233286
-0.0284575
-0.0193752
-0.0219747
-0.0205612
-0.0227601
-0.0299849
-0.0355825
-0.0362502
-0.0229282
-0.0177863
-0.0235931
-0.0176091
-0.0263828
-0.0335318
-0.0242854
-0.016448
-0.0126503
-0.015753
-0.011619
-0.0178975
-0.0218218
-0.0170369
-0.0114094
-0.00868621
-0.010736
-0.00960172
-0.010316
-0.0128189
-0.0155019
-0.011061
-0.0135943
-0.00982352
-0.011356
-0.0101495
-0.00957472
-0.0105256
-0.00902276
-0.0104878
-0.00952864
-0.00961628
-0.0161151
-0.016825
-0.0222971
-0.01415
-0.0174041
-0.0189707
-0.0229255
-0.0233779
-0.0247624
-0.0328944
-0.0183515
-0.0206856
-0.0238745
-0.0255457
-0.0305402
-0.035365
-0.0400356
-0.0213465
-0.0232352
-0.0257375
-0.0256916
-0.0288832
-0.0271012
-0.0295694
-0.0171608
-0.0144769
-0.0190193
-0.0152808
-0.0232127
-0.0295728
-0.0289257
-0.0136037
-0.0113504
-0.0147696
-0.014319
-0.0180996
-0.0284717
-0.0270879
-0.0108653
-0.0106152
-0.0143587
-0.0151615
-0.0161015
-0.0168985
-0.0203672
-0.0134253
-0.0202194
-0.0136866
-0.0159775
-0.0182836
-0.016753
-0.0206145
-0.0147719
-0.0210099
-0.0155908
-0.0174479
-0.0260378
-0.0303179
-0.0388878
-0.0206431
-0.0249229
-0.0261465
-0.0286295
-0.037746
-0.042043
-0.0476326
-0.0258329
-0.0270484
-0.0286586
-0.0266971
-0.0433082
-0.0471916
-0.0401223
-0.0270029
-0.0262699
-0.0257389
-0.0237534
-0.0329905
-0.0371861
-0.0361249
-0.022854
-0.016779
-0.0233324
-0.0175339
-0.0311614
-0.0344673
-0.0304353
-0.0159257
-0.0154383
-0.0172983
-0.0184866
-0.0293183
-0.0293835
-0.0266865
-0.0155563
-0.0164938
-0.0188204
-0.0206489
-0.0272055
-0.0264724
-0.0288601
-0.0171432
-0.0204352
-0.0219929
-0.0261726
-0.0306728
-0.030527
-0.0365333
-0.0219072
-0.0263643
-0.027345
-0.0296385
-0.042251
-0.0392611
-0.0456493
-0.027548
-0.0288816
-0.0301956
-0.0302341
-0.047703
-0.0469474
-0.0451511
-0.0284986
-0.0256249
-0.029707
-0.02694
-0.0372179
-0.0429938
-0.0358232
-0.0246128
-0.0228813
-0.0261944
-0.0247628
-0.00887308
-0.0106753
-0.0108353
-0.00931281
-0.00842578
-0.00915232
-0.00830613
-0.00903683
-0.0107518
-0.009599
-0.0085056
-0.00967397
-0.00813696
-0.00833118
-0.00956934
-0.00906413
-0.00825664
-0.0102017
-0.0119913
-0.00865394