/*--------------------------------*- C++ -*----------------------------------*\
  =========                 |
  \\      /  F ield         | OpenFOAM: The Open Source CFD Toolbox
   \\    /   O peration     | Website:  https://openfoam.org
    \\  /    A nd           | Version:  10
     \\/     M anipulation  |
\*---------------------------------------------------------------------------*/
FoamFile
{
    format      ascii;
    class       volVectorField;
    location    "2.9";
    object      U_0;
}
// * * * * * * * * * * * * * * * * * * * * * * * * * * * * * * * * * * * * * //

dimensions      [0 1 -1 0 0 0 0];

internalField   nonuniform List<vector> 
12920
(
(128.502 -153.05 -93.1478)
(19.2776 -118.594 2.24171)
(121.298 -62.2859 10.0559)
(47.3498 -44.0702 10.6806)
(74.6013 -23.7432 10.8151)
(43.9769 -21.3531 6.49777)
(73.377 -15.9076 4.55872)
(65.393 -15.0484 3.16481)
(84.6346 -13.5943 2.26386)
(83.9315 -12.9476 1.56319)
(95.2759 -12.5156 1.13669)
(97.5852 -11.6156 0.545406)
(106.103 -11.1354 0.17759)
(110.076 -10.4063 -0.292373)
(119.726 -9.50277 -0.434405)
(124.532 -4.911 -0.923195)
(130.856 -0.0589862 -0.847478)
(131.011 3.32646 -0.417658)
(130.56 4.3753 -0.153562)
(133.204 3.47361 0.092249)
(-12.5086 24.2559 -95.4344)
(-122.238 21.5668 -12.2267)
(41.8893 -6.78068 4.00742)
(-59.3129 -29.7698 0.126031)
(47.9855 -34.029 -0.77194)
(5.44914 -30.2623 1.07684)
(55.1428 -28.1537 1.1625)
(38.777 -21.6856 0.678125)
(62.2495 -15.36 0.352221)
(56.0427 -10.1783 -0.254062)
(68.425 -5.87065 -0.576135)
(67.4786 -3.33983 -0.929983)
(74.9752 -1.31968 -1.04314)
(76.0596 -1.07022 -1.37419)
(81.051 -0.976312 -1.49406)
(82.5094 -1.54606 -0.953585)
(86.9574 -2.80001 0.0775692)
(86.6103 -3.57104 0.804481)
(86.2047 -4.70166 1.15655)
(88.416 -4.38004 1.14347)
(-21.4041 20.4514 -51.6873)
(-116.288 -66.7159 -12.9451)
(60.4226 -37.0916 -9.37038)
(-8.86263 -61.3076 -3.77599)
(61.9697 -61.6493 -1.81333)
(22.8163 -46.4514 -0.588679)
(58.8205 -46.1127 1.13201)
(37.1006 -30.6967 0.310185)
(58.0498 -27.9334 0.433073)
(48.7865 -18.9887 0.0288732)
(60.8186 -17.1127 0.260859)
(58.206 -12.6122 0.35503)
(65.4143 -11.3433 0.722958)
(65.2958 -8.73487 0.83607)
(69.492 -7.53244 1.00298)
(69.5258 -5.65017 0.912121)
(72.4861 -3.9642 0.77014)
(71.6557 -2.19015 0.566799)
(71.4355 -0.867867 0.0163934)
(71.8082 0.348777 -0.171205)
(88.7608 88.2269 94.3148)
(-12.4209 22.1521 -41.4184)
(108.231 -17.7698 -10.9268)
(57.3821 -39.0417 -2.21321)
(90.7362 -51.775 4.43822)
(61.1075 -45.1854 2.36921)
(80.0681 -45.5409 3.18164)
(61.8231 -30.8638 2.2301)
(71.174 -25.8446 1.9514)
(59.4253 -16.3636 1.06987)
(64.2455 -14.4777 0.769048)
(58.448 -11.24 0.527282)
(61.568 -11.2497 0.501893)
(59.5942 -10.3211 0.485872)
(62.2098 -10.2731 0.577052)
(62.0705 -9.42833 0.496214)
(65.4466 -8.78242 0.603957)
(65.7882 -6.79953 0.501532)
(67.6325 -2.64204 0.259329)
(67.5377 0.309372 0.342089)
(358.972 186.659 115.146)
(152.493 -3.19607 12.2072)
(206.208 -30.4379 6.82924)
(136.582 -48.7463 3.01035)
(133.416 -56.921 5.7987)
(89.9244 -51.571 2.41423)
(93.0123 -55.6342 3.41925)
(70.3025 -37.4505 1.96895)
(75.4336 -33.6551 2.43075)
(60.6279 -19.8722 1.27188)
(63.6678 -19.4866 1.27272)
(56.1491 -13.981 0.495626)
(58.9966 -14.8362 0.381755)
(56.4176 -12.6833 0.150063)
(59.0748 -12.985 0.0949533)
(58.846 -11.5824 -0.0505618)
(62.4465 -10.9433 -0.21329)
(62.9268 -8.47245 -0.403104)
(65.5934 -2.09662 -0.330457)
(65.1332 2.42072 0.0801741)
(-16.6188 -97.8478 -99.7752)
(-148.79 -50.4635 -42.2512)
(76.5249 -42.014 -19.9849)
(50.5196 -40.5149 -11.2922)
(116.969 -43.1196 -0.144035)
(95.1885 -38.9331 1.6268)
(101.434 -44.5859 2.72645)
(86.8254 -33.4772 0.580986)
(87.7187 -27.335 0.645123)
(77.3019 -14.2162 0.302806)
(73.1367 -14.535 1.1294)
(61.293 -10.2237 0.516576)
(59.3788 -12.5121 0.118007)
(55.2831 -12.1219 -0.020803)
(56.5487 -13.1338 -0.257929)
(56.5944 -12.5373 -0.288609)
(59.9362 -11.9907 -0.44479)
(60.1704 -9.24619 -0.494565)
(62.108 -1.59212 -0.479159)
(62.7854 3.8044 0.120069)
(135.647 -10.5489 -111.202)
(35.5054 21.4925 -14.6402)
(147.991 -40.8644 15.0224)
(68.537 -65.0793 6.53174)
(106.656 -63.2535 5.42462)
(68.9139 -44.9948 0.423843)
(80.2819 -52.6864 0.152691)
(61.8583 -25.9934 -0.418239)
(67.6528 -26.0459 -0.420925)
(58.1049 -8.29905 -0.0950225)
(59.8523 -9.33722 -0.150351)
(53.4853 -4.23428 0.220008)
(55.5501 -9.57381 0.0444775)
(53.7908 -10.2351 -0.139074)
(57.01 -13.1568 -0.1532)
(57.2279 -13.3751 -0.164534)
(60.4865 -12.4945 -0.193191)
(60.0795 -9.35544 -0.438269)
(61.8721 -1.16225 -0.408152)
(62.2651 4.14127 0.372503)
(14.0758 -151.455 -40.1243)
(-39.3925 -83.291 4.73842)
(99.713 -86.8007 15.4953)
(39.112 -70.7987 3.19573)
(98.5662 -63.9093 2.68854)
(76.557 -30.6481 -1.70756)
(94.5792 -32.1436 -2.03142)
(80.2595 -35.4766 -0.367671)
(76.7873 -18.3164 0.692051)
(57.9831 -12.7044 1.39058)
(53.9525 -1.13812 0.161262)
(49.3738 -4.64645 -0.368082)
(54.4616 -6.96496 -0.363548)
(58.3446 -11.3047 -0.0852571)
(60.6256 -15.476 -0.236211)
(61.3902 -15.1037 0.0267722)
(62.3927 -14.0303 -0.154434)
(61.0476 -9.53728 -0.743401)
(62.7731 -0.746403 -0.338391)
(61.2584 4.27246 0.380202)
(183.035 -65.8717 -26.6937)
(141.837 -80.8133 -7.23844)
(200.281 -101.728 9.89106)
(104.238 -89.1306 3.09454)
(114.072 -75.8862 7.36241)
(45.8279 -42.9751 -1.0322)
(69.622 -24.897 0.292171)
(68.7598 -23.7992 -0.0351866)
(69.6802 -12.8415 0.56578)
(59.8919 -0.944284 0.165748)
(52.5231 3.1118 -0.262439)
(54.2338 -2.11107 -0.58936)
(60.7849 -7.51373 -0.449651)
(65.0525 -10.4404 -0.234502)
(68.7998 -13.9856 0.0913526)
(68.8369 -14.9847 0.0390226)
(67.0045 -11.3877 0.295305)
(61.2912 -7.06665 -0.410895)
(61.5951 1.06547 -0.374775)
(57.1375 6.42125 0.144556)
(292.678 -270.171 -214.504)
(281.419 -116.382 -69.575)
(361.656 -41.1854 1.08321)
(235.866 -34.1647 14.7348)
(173.891 -33.9388 14.2949)
(123.966 -31.7809 -0.821599)
(106.577 -37.6727 -0.0239535)
(91.1932 -27.2809 -0.960826)
(80.9283 -15.1574 -0.359677)
(72.0268 7.821 0.232928)
(65.9962 4.5108 -0.428685)
(68.7299 -4.45963 -0.254271)
(70.2292 -9.60106 -0.169605)
(73.9305 -13.1301 -0.360543)
(79.4872 -16.4371 -0.119218)
(75.4143 -13.1205 -0.29996)
(71.8462 -6.85511 0.105616)
(62.9679 -2.58247 -0.231071)
(60.9157 5.55321 -0.401179)
(54.8123 10.6005 0.116498)
(149.946 -151.216 -244.895)
(98.8122 -8.35017 -32.4894)
(178.897 11.6603 8.76388)
(57.8246 -4.32108 8.58552)
(81.5422 -4.52439 9.1162)
(-5.13922 -14.1667 0.86365)
(35.864 -10.6323 0.811167)
(58.9287 -10.1636 0.506686)
(63.7229 -4.46636 0.147349)
(70.773 9.37861 0.0746785)
(75.3886 4.19075 0.529523)
(75.24 -5.12287 0.264954)
(76.8438 -10.7307 0.0648529)
(78.3671 -14.4787 0.226173)
(67.8541 -18.5095 0.802058)
(59.3416 -8.81166 -1.53258)
(60.5685 0.947932 -1.14736)
(57.7349 4.49922 -0.908624)
(56.2953 11.6425 -0.660519)
(53.0547 14.2618 -0.0680378)
(174.757 -48.8212 97.8989)
(117.77 -27.7909 -16.8025)
(201.863 -28.2098 -0.732039)
(148.444 -13.3514 2.41003)
(144.274 -0.573861 13.7789)
(80.3611 -17.1648 1.4568)
(89.543 -38.4765 0.283874)
(84.77 -29.6169 -0.822891)
(70.1342 -11.5169 0.614005)
(65.858 -5.40026 0.514751)
(67.6897 -7.53107 0.385504)
(65.6859 -9.92385 0.200057)
(62.6055 -12.6003 0.19111)
(57.7992 -14.6072 0.104106)
(49.5344 -11.6816 0.118397)
(45.0929 -5.60038 -1.21967)
(50.0196 2.09826 -1.25543)
(53.0596 5.79855 -1.0352)
(54.4839 14.1115 -0.791653)
(55.4849 16.4531 -0.116767)
(231.48 83.3328 -32.8343)
(93.4716 16.6927 -11.9938)
(172.47 17.4854 -2.50114)
(97.5529 5.32443 1.21704)
(128.527 14.2281 5.45736)
(81.0263 -26.5036 2.77783)
(86.2867 -18.4959 -0.0630454)
(49.4669 -9.04314 0.470606)
(58.2862 -9.18682 0.228519)
(46.7409 -7.48092 0.18849)
(53.4257 -9.05147 -0.184358)
(49.844 -10.4468 -0.0214905)
(53.3159 -11.1752 -0.0387831)
(48.3016 -11.0575 0.333402)
(42.8333 -6.68304 0.263471)
(43.3338 -5.90467 -0.125716)
(45.006 0.185397 -0.442962)
(49.9483 4.2764 -0.679447)
(53.2209 13.5855 -0.549442)
(58.3433 15.713 0.0307148)
(117.18 253.059 13.9189)
(-11.3841 59.4441 9.58787)
(130.307 33.9579 9.00599)
(54.2692 -0.941832 1.18775)
(115.247 -9.21433 2.38738)
(68.8494 -21.2683 -0.617082)
(85.2701 11.3857 1.78218)
(54.2529 -18.4735 1.26602)
(59.4317 3.44876 1.02239)
(47.3029 -15.7137 0.512244)
(54.108 -6.0268 0.0343367)
(48.2203 -14.812 0.213589)
(51.127 -8.11382 0.319593)
(46.6065 -10.7356 0.433816)
(46.9584 -6.06602 0.413436)
(43.8326 -5.2546 0.293221)
(44.1717 -2.18889 0.0865743)
(45.8479 -0.0152417 -0.113127)
(49.4809 8.7501 -0.128987)
(57.8611 12.7282 0.508332)
(371.509 -37.2643 90.2554)
(237.535 -16.0192 46.6485)
(265.543 -14.0467 28.1367)
(164.331 -14.4122 11.0904)
(151.187 12.4617 8.92791)
(76.1186 -2.972 2.37176)
(89.3014 10.7579 1.80587)
(52.7848 -4.77305 0.00122856)
(64.6285 -0.575416 -0.29089)
(50.289 -9.75667 -0.958997)
(55.6653 -9.06871 -0.346926)
(49.1504 -12.061 -0.308126)
(50.6123 -9.4639 0.0288539)
(46.709 -9.03576 0.0122671)
(45.9017 -5.61607 0.133689)
(42.998 -4.67115 0.124176)
(43.1029 -2.53936 0.100566)
(42.0725 -1.70934 0.244187)
(42.534 1.84987 0.33267)
(49.7627 5.36364 1.02808)
(568.136 -115.481 -241.083)
(-163.833 17.5011 22.9723)
(192.196 63.5383 -28.9948)
(-1.43085 34.5076 0.519418)
(100.259 42.9047 0.443419)
(28.5352 17.5975 -0.984303)
(75.9632 24.3855 -0.414861)
(47.8745 3.5558 -1.82944)
(68.982 7.21923 -1.61608)
(56.4216 -4.7115 -1.78486)
(63.4867 -3.47259 -0.686655)
(53.1789 -9.2906 -0.292543)
(54.2564 -6.3268 0.250013)
(47.8486 -6.78485 0.119157)
(48.669 -3.38932 0.108705)
(45.7018 -3.05737 0.0080348)
(46.871 -1.74716 0.0438649)
(45.6728 -1.70246 0.0894409)
(46.2205 -1.12667 0.0992967)
(49.1795 0.0688928 0.593742)
(113.802 -63.261 -11.3561)
(-77.322 48.8507 -9.35589)
(133.653 -10.7265 -14.6154)
(-11.8794 12.314 -1.64964)
(91.9827 9.14618 -0.442754)
(20.5509 9.32119 -1.08428)
(74.3539 10.2019 -1.50477)
(47.5236 6.10275 -1.30769)
(74.2079 5.08825 -1.11227)
(66.0714 2.70407 -0.938299)
(75.1826 0.301843 0.141002)
(64.546 -3.23092 0.813258)
(60.9397 -4.63059 1.10461)
(50.1048 -4.73089 0.314909)
(49.6645 -3.46897 -0.251548)
(46.3845 -3.07862 -0.395851)
(47.2189 -2.73322 -0.408638)
(45.8014 -2.42272 -0.394254)
(46.4659 -2.20536 -0.428325)
(48.3881 -0.716642 0.0692995)
(169.45 57.7324 29.7855)
(129.799 96.4986 -27.112)
(183.72 78.6584 -0.116088)
(47.5419 57.8752 0.567326)
(97.0757 38.0818 3.8846)
(41.3959 23.0468 0.230244)
(82.791 12.5644 0.852936)
(66.7968 2.51623 0.161952)
(87.3139 -2.99028 0.448199)
(81.7017 -5.62427 0.441692)
(87.0077 -2.79909 0.924965)
(77.5704 -1.13158 0.895149)
(73.0543 3.75365 1.19326)
(61.2019 3.00446 0.353827)
(59.6723 2.65271 -0.365777)
(55.3921 1.84605 -0.615333)
(56.0018 1.31029 -0.621659)
(54.3355 0.529904 -0.682608)
(54.989 -1.22041 -0.871282)
(58.8985 -2.09673 -0.420622)
(169.832 102.726 -42.527)
(137.359 34.0265 2.55993)
(165.11 40.797 20.228)
(51.9635 44.0472 6.76186)
(98.0439 19.2923 7.87533)
(29.6029 8.91806 0.934584)
(74.2931 -7.29182 -0.998101)
(47.3057 -5.87199 -1.19969)
(74.0358 -6.75873 -1.46887)
(66.8364 -2.25785 -1.1758)
(77.7376 1.52051 -0.613991)
(72.5879 4.89975 -0.0775657)
(75.1018 6.80998 0.676756)
(70.1663 6.89911 0.550535)
(69.5933 5.28532 0.428394)
(65.5668 4.47465 0.188207)
(65.2519 2.60522 0.00346209)
(61.9185 1.76727 -0.262349)
(60.6561 -1.22695 -0.976159)
(61.1956 -1.78099 -1.07924)
(118.643 192.785 13.5489)
(33.4701 78.0344 -9.03664)
(175.259 76.3632 17.8523)
(115.752 64.186 15.6588)
(154.581 44.933 13.8386)
(121.044 35.7425 7.71166)
(134.805 15.3989 4.94633)
(110.639 5.50345 3.04845)
(109.056 -8.67193 0.62021)
(97.234 -6.30118 -0.26312)
(99.8239 -4.21875 -0.0499892)
(97.1896 0.0436386 0.175317)
(101.557 2.73464 0.617753)
(102.418 5.41193 0.67809)
(107.149 6.29617 0.735979)
(108.175 6.68476 0.853409)
(110.966 6.94792 0.885654)
(110.704 7.11495 0.876793)
(110.92 7.2176 0.591141)
(113.306 6.08917 0.679748)
(-23.9101 -29.4907 -81.9841)
(-15.1692 -74.2167 16.4742)
(96.4564 -39.1992 25.8904)
(24.8839 -26.2016 19.4971)
(67.1769 -9.69607 17.2139)
(42.1952 -11.1299 9.54619)
(72.5394 -9.2099 6.48706)
(65.6177 -10.4468 4.5461)
(84.5268 -9.98366 3.35372)
(83.8336 -9.45261 2.13657)
(95.1422 -8.42311 1.50542)
(96.7308 -6.93486 0.441901)
(104.187 -5.78043 0.149178)
(105.9 -3.43948 -1.00808)
(111.243 -1.02154 -1.06436)
(111.732 0.742379 -1.03305)
(113.425 1.13563 -0.647487)
(112.459 1.09129 -0.103782)
(111.581 -0.25003 0.750747)
(116.693 -1.37082 1.40706)
(37.6159 32.2803 -1.3687)
(-123.401 12.934 -33.3303)
(23.8585 -1.41327 -6.71473)
(-64.0247 -16.9849 -1.80826)
(38.1266 -16.4991 -3.01693)
(-2.27562 -15.0713 1.77389)
(49.4374 -13.4586 1.36923)
(32.9286 -10.3709 0.510313)
(57.0266 -7.00768 -0.0342994)
(50.3179 -4.80553 -1.12271)
(62.309 -2.69662 -1.55697)
(60.2753 -2.05846 -2.05846)
(66.9292 -1.27457 -2.04012)
(66.7634 -1.72964 -2.12416)
(70.6346 -1.81378 -1.75716)
(70.823 -2.17315 -1.0945)
(73.6416 -2.42571 -0.0772248)
(73.3819 -2.49162 1.02269)
(73.4856 -2.3367 1.1961)
(76.0747 -0.989489 1.08138)
(151.759 117.081 54.437)
(-77.5139 -30.6772 -36.3322)
(43.3563 -23.3625 -25.0939)
(-29.4369 -47.4885 -6.33628)
(47.5034 -46.4321 -4.08712)
(2.36617 -31.6497 -0.877998)
(46.7043 -34.3556 1.82401)
(24.1739 -21.3308 0.218331)
(48.4531 -21.1441 0.757824)
(38.7516 -13.6081 -0.0679043)
(51.9686 -12.769 0.334995)
(48.9596 -8.75208 0.322927)
(56.5164 -7.83325 0.864695)
(56.0397 -5.49531 0.882679)
(60.0964 -4.46018 1.15231)
(59.706 -2.864 0.984826)
(61.8314 -1.57453 0.750665)
(60.1358 -0.324484 0.466384)
(59.1875 0.6114 -0.195123)
(58.8429 1.48615 -0.326736)
(227.114 320.161 104.059)
(0.89243 90.0765 -19.3069)
(81.6749 -26.9533 3.28942)
(-2.97839 -44.3011 0.38785)
(58.8033 -45.3364 7.58212)
(24.3116 -32.5706 3.27149)
(57.9518 -32.7311 5.12429)
(39.4946 -19.6868 2.97382)
(55.4765 -18.2934 2.82913)
(44.6046 -11.256 1.18952)
(52.4254 -10.7198 1.12827)
(47.3799 -7.55849 0.602882)
(52.0078 -7.13021 0.686605)
(50.37 -5.5545 0.569482)
(53.4104 -4.86588 0.754949)
(52.9587 -3.52819 0.561548)
(55.6126 -2.2499 0.647663)
(54.7027 -0.732618 0.532622)
(54.5728 1.38812 0.107577)
(54.0192 2.40441 0.410898)
(349.617 201.326 75.052)
(83.1296 6.86363 46.2328)
(142.494 -24.6885 25.2037)
(43.8886 -40.0075 7.08568)
(84.2075 -46.8105 9.59912)
(41.1499 -36.0661 2.66581)
(64.8943 -42.0924 5.42883)
(41.7622 -21.9873 2.35811)
(55.5578 -23.7913 3.75522)
(42.5491 -12.4145 1.4663)
(50.1005 -14.5889 1.78539)
(43.9431 -9.34856 0.535235)
(48.6542 -10.1758 0.647931)
(46.6266 -7.20781 0.24679)
(50.0349 -6.83437 0.268373)
(49.5331 -4.66089 -0.0560368)
(52.8137 -2.77363 -0.224943)
(51.7144 -0.381979 -0.493102)
(51.7344 3.32117 -0.510249)
(51.0678 4.55456 0.242211)
(79.4118 -24.8146 62.946)
(-152.865 -26.9704 -25.2517)
(59.1813 -43.1952 -27.4053)
(-3.81544 -51.3661 -10.323)
(75.169 -48.3191 2.56409)
(48.078 -33.0522 1.78167)
(70.9298 -33.8111 3.87305)
(58.0689 -18.2611 0.311812)
(62.4077 -16.7581 1.2917)
(52.9079 -7.81959 0.671017)
(53.2723 -9.96604 1.59631)
(47.1065 -7.20157 0.759192)
(47.5164 -8.95706 0.405925)
(45.3163 -7.70966 0.0423719)
(47.0136 -7.76967 -0.205728)
(46.8716 -6.18605 -0.346783)
(50.0919 -4.306 -0.48187)
(49.2448 -0.776353 -0.611277)
(49.5779 3.85601 -0.645903)
(50.2098 5.21389 0.408328)
(31.8688 -145.942 -42.4976)
(-113.067 -66.53 -7.15391)
(113.605 -69.9441 -5.06802)
(26.8704 -68.144 2.95331)
(88.755 -54.1976 3.54045)
(41.5841 -31.0181 -0.712875)
(58.8401 -42.3649 -0.0581573)
(38.3014 -11.6294 -0.129206)
(48.6838 -18.5337 -0.176697)
(39.6416 -2.81691 0.310691)
(44.2865 -8.4288 0.157673)
(40.4237 -3.53839 0.469169)
(44.3508 -8.85361 0.00221345)
(43.6955 -7.33058 -0.165352)
(46.9752 -9.04574 -0.074891)
(46.7389 -7.77509 -0.139929)
(50.0251 -5.49265 -0.211853)
(48.7067 -1.07456 -0.532517)
(49.3991 3.90854 -0.509535)
(49.9392 5.65677 0.846149)
(0.141376 -85.0825 41.806)
(-101.769 -82.7347 -0.227803)
(90.3253 -82.8574 9.24819)
(15.5657 -62.1375 0.163442)
(82.5517 -51.2 1.77198)
(54.094 -16.0685 -2.85636)
(73.1705 -22.8943 -3.0949)
(53.1325 -22.8239 -0.240275)
(52.9618 -10.4974 1.19649)
(42.6174 -7.33173 1.13161)
(44.5082 -3.29181 -0.0334614)
(42.5927 -5.54437 -0.699641)
(46.7898 -7.23227 -0.742053)
(48.8347 -9.06813 -0.298302)
(49.4637 -11.0758 -0.357981)
(49.999 -9.57144 0.193752)
(51.1333 -6.44442 -0.26159)
(48.9415 -1.14819 -0.853357)
(49.3359 4.04941 -0.436381)
(48.2914 6.29085 0.788305)
(105.831 -170.699 1.86439)
(-17.9669 -97.5199 -7.84342)
(131.491 -91.0757 -8.504)
(38.1133 -68.4674 -3.91351)
(79.5341 -57.2436 5.74476)
(49.1186 -32.9629 3.22457)
(64.9578 -18.0267 0.546753)
(56.5571 -16.297 -0.337812)
(55.2313 -7.78479 1.35768)
(48.7906 -1.83679 1.16453)
(47.1158 -1.82738 -0.644588)
(48.5893 -6.50147 -1.70349)
(52.6432 -9.70794 -1.41375)
(55.5702 -10.9054 -0.932919)
(57.3273 -11.3949 -0.389599)
(53.7085 -9.81673 0.216765)
(52.8079 -4.61293 0.0795972)
(47.965 -0.283293 -0.497487)
(47.297 6.096 -0.461241)
(43.8718 8.48679 0.395471)
(327.94 -233.388 -100.817)
(159.145 -74.08 -16.3938)
(185.35 -49.3048 13.7471)
(96.2529 -39.3769 15.7036)
(107.376 -30.5423 16.9003)
(97.2213 -22.654 3.59726)
(93.2002 -26.6167 1.83345)
(74.3599 -17.502 1.72959)
(66.4339 -7.1768 0.302801)
(60.9138 1.61103 0.73812)
(59.2557 -3.52739 -1.11731)
(60.3994 -9.83999 -1.213)
(62.6581 -13.2866 -1.32937)
(65.7244 -15.4177 -1.31389)
(66.7816 -14.3756 -0.333756)
(57.4999 -6.57886 -0.520607)
(54.1433 -0.0106692 -0.0010776)
(47.6324 3.68279 -0.264456)
(45.403 9.53275 -0.524738)
(42.1604 11.2063 0.298218)
(73.5588 -9.01008 -130.402)
(-8.51147 37.304 -14.6339)
(119.758 23.9457 13.9611)
(9.69949 -2.04999 8.9183)
(72.3774 -1.62021 9.78572)
(16.6837 -16.4623 -3.06759)
(43.8374 -12.6274 1.79317)
(59.887 -10.3947 3.20353)
(61.2982 -5.05681 1.36144)
(62.8829 -0.552333 1.87797)
(66.2485 -5.68706 1.68836)
(67.1622 -10.2148 0.46317)
(67.1989 -13.4308 -0.112432)
(65.3836 -15.4044 0.651213)
(58.9303 -13.0305 -0.0434194)
(50.0962 -1.85951 -2.51449)
(48.7738 5.79642 -1.59341)
(44.9672 7.93614 -0.982555)
(43.2976 12.5668 -0.854169)
(42.314 12.4797 0.0259653)
(44.7095 -60.3127 80.5304)
(-75.1045 -40.7455 5.66697)
(112.696 -12.7639 -1.00036)
(26.4817 -4.54139 1.92139)
(79.9825 -5.72786 14.8735)
(61.407 -10.2658 1.1572)
(80.2522 -33.6718 2.7825)
(67.357 -19.8488 3.25565)
(59.2508 -6.64167 3.29746)
(57.1944 -4.69839 2.10134)
(57.418 -7.00298 1.35294)
(55.9082 -9.27488 0.702373)
(53.619 -11.5942 0.680504)
(49.6769 -12.1536 0.697878)
(45.455 -8.27608 -0.759123)
(40.5314 -1.1998 -2.08851)
(43.308 5.29704 -1.70801)
(43.6274 7.97509 -1.17061)
(44.0471 12.7949 -0.982248)
(45.3255 12.6126 0.124981)
(401.299 0.898168 -27.5862)
(114.305 2.00496 -9.76098)
(148.748 15.6026 -5.60268)
(49.864 7.49671 0.126217)
(107.311 15.2294 5.90623)
(50.5963 -29.3284 4.60846)
(67.4644 -12.2452 5.15201)
(31.7315 -6.9994 3.19682)
(46.8968 -5.85067 1.49215)
(37.2938 -5.80011 0.571494)
(44.9556 -6.75552 -0.0813153)
(40.2685 -8.1592 0.245527)
(43.3246 -8.56979 0.355371)
(38.8889 -8.7065 0.729747)
(36.3731 -4.27707 -0.216702)
(37.909 -3.41546 -0.503811)
(39.9651 2.66667 -0.678372)
(42.7272 5.62787 -0.816894)
(44.7881 11.0946 -0.745589)
(48.4669 10.9945 0.458458)
(100.677 136.997 11.0362)
(-95.5206 50.0897 -7.93609)
(112.5 42.9711 -7.867)
(1.28106 5.06858 -1.25684)
(90.9711 -2.51933 2.80937)
(28.0799 -16.7198 -0.988159)
(59.1204 21.285 3.9085)
(28.7552 -20.8353 1.34508)
(44.1348 5.5451 1.21604)
(33.0497 -15.6749 0.513758)
(42.0397 -2.98472 -0.104622)
(36.0042 -12.507 0.468795)
(40.0241 -4.71828 0.425227)
(35.9959 -8.39691 0.710916)
(37.6099 -3.53317 0.554166)
(35.8117 -3.22535 0.32339)
(37.6289 0.13002 0.053882)
(39.5415 1.78372 -0.158854)
(42.6072 7.44175 -0.158134)
(48.454 8.46233 1.22241)
(216.12 85.7579 47.7101)
(-52.1024 -2.18924 -10.8975)
(158.844 9.54504 20.5464)
(57.3754 3.61254 6.78222)
(106.5 13.3791 12.2309)
(32.5829 -7.0976 3.02953)
(71.2712 14.1258 2.87984)
(32.8161 -6.93027 -0.145573)
(51.0864 0.7154 -0.0730811)
(34.489 -10.1295 -1.24502)
(42.8534 -6.66501 -0.100852)
(36.0704 -10.1714 -0.320242)
(39.502 -6.67092 0.303021)
(36.174 -6.84234 0.0581105)
(36.577 -3.75048 0.274613)
(34.9191 -3.2435 0.23606)
(35.733 -1.08285 0.150396)
(35.7691 -0.583853 0.336187)
(37.3049 2.18947 0.46135)
(43.3082 4.06353 1.77036)
(158.417 -94.2227 -283.296)
(-20.7076 40.7023 51.2688)
(117.904 41.2313 -31.6706)
(-40.1295 25.4259 8.43263)
(85.5134 35.066 2.4077)
(2.30162 8.44776 -0.281329)
(64.0321 19.5601 -0.763862)
(29.645 -3.55317 -2.30042)
(55.4108 3.03709 -1.32968)
(38.7924 -9.65855 -1.81124)
(48.8974 -5.25961 -0.172636)
(38.8812 -10.0835 -0.160858)
(43.3311 -5.35437 0.531221)
(37.8633 -5.9538 0.13389)
(39.9413 -2.50985 0.17663)
(37.171 -2.32989 -0.00655376)
(38.7747 -0.8246 0.0553387)
(37.6341 -0.649527 0.131613)
(38.7916 0.0579551 0.0667514)
(41.7168 1.12789 1.03547)
(107.556 49.2973 -46.7484)
(-10.661 21.6564 -3.65461)
(110.981 -7.11047 -9.1386)
(-32.7555 1.08387 -0.530203)
(82.9214 -0.191703 -0.548214)
(8.09173 -1.56279 -1.21814)
(66.7903 -0.217315 -2.63203)
(34.4602 -4.61586 -1.75011)
(62.4104 -4.56317 -1.11925)
(47.647 -6.32041 -0.89597)
(57.8147 -5.71488 1.00006)
(46.8433 -6.27786 1.14968)
(48.5618 -4.73939 1.48985)
(41.8225 -3.97621 0.345523)
(42.4248 -2.5235 -0.250839)
(39.2224 -2.11728 -0.522131)
(40.2126 -1.69916 -0.521343)
(38.43 -1.33918 -0.467974)
(39.1082 -1.13321 -0.628716)
(40.6803 -0.28171 0.198448)
(382.411 32.8809 160.302)
(110.054 83.9421 29.5671)
(156.181 70.6251 22.7277)
(6.48319 38.8921 1.33154)
(88.3553 22.6552 5.47913)
(30.9776 9.26329 -0.304454)
(75.5086 1.34045 0.63655)
(53.5549 -5.82751 -0.393162)
(73.8232 -8.43377 0.44907)
(63.1163 -8.79042 0.14068)
(69.1457 -4.49817 1.32385)
(59.0778 -2.18568 1.10225)
(59.0615 0.82637 1.41988)
(51.9665 0.624809 0.177945)
(51.8416 0.799864 -0.589282)
(48.1342 0.354576 -1.02517)
(49.0145 0.0425343 -1.03171)
(47.3206 -0.246443 -1.08216)
(47.915 -1.07558 -1.29105)
(50.238 -1.56743 -0.412534)
(115.883 70.7079 10.0013)
(-26.9397 55.7771 14.7682)
(121.314 48.2182 31.2837)
(5.31175 27.0125 5.37664)
(90.5247 0.849327 8.59454)
(32.2488 -0.0986467 -1.88828)
(75.7445 -10.0211 -3.71556)
(50.5365 -7.04149 -3.42644)
(73.0337 -7.78017 -2.33184)
(62.3757 -3.37547 -1.7868)
(71.3556 0.163927 -0.482152)
(65.3307 3.1004 -0.0791087)
(68.999 4.40576 0.96226)
(65.3428 4.1118 0.392728)
(66.1284 2.75263 0.0943468)
(63.3621 1.82597 -0.415811)
(63.742 0.451409 -0.733943)
(61.5164 -0.243384 -1.04183)
(60.779 -2.3648 -1.70802)
(60.8252 -2.9247 -1.67307)
(328.235 220.652 -192.446)
(82.3813 67.8259 -7.50028)
(164.048 54.4788 22.7347)
(93.9598 48.4938 21.5126)
(145.059 33.0971 20.6913)
(118.65 25.7255 11.5273)
(136.332 7.50072 7.38273)
(119.741 0.294423 3.98503)
(119.735 -11.7163 0.725697)
(105.866 -9.48227 -0.498155)
(104.975 -6.72361 -0.185152)
(99.0134 -1.36316 0.481748)
(102.087 1.38244 1.44232)
(102.242 4.35819 1.5563)
(106.348 5.32148 1.74257)
(107.457 5.77891 1.94506)
(110.571 5.92069 2.0171)
(110.538 5.91815 1.89485)
(110.905 5.64564 1.50484)
(112.862 4.14458 1.87734)
(16.3264 5.06157 -66.5141)
(-80.0959 -34.5044 -18.5089)
(77.6554 -20.0322 20.3314)
(8.53906 -8.49346 21.8856)
(64.944 1.52981 17.2936)
(45.2953 -3.09739 9.55576)
(74.4108 -3.59922 6.23945)
(66.8211 -5.94211 4.12564)
(84.7485 -5.77118 3.17456)
(83.1164 -5.11861 1.70545)
(93.5328 -3.60244 1.12001)
(93.4001 -2.05119 -0.0900704)
(98.439 -0.155142 -0.321609)
(97.3247 1.12465 -1.31916)
(98.2325 2.31757 -1.51012)
(96.1211 2.35109 -1.32386)
(96.3516 1.63979 -0.545241)
(94.6122 -0.0549317 0.191659)
(94.6053 -1.14907 0.366542)
(100.339 -0.72731 0.944357)
(180.813 -65.4752 54.6916)
(-58.2912 2.8759 -28.2441)
(25.1179 3.38826 2.37361)
(-60.1348 -8.03166 -3.32828)
(31.6706 -7.12031 -5.25284)
(-8.27093 -6.34891 0.549263)
(44.2847 -5.5949 0.421331)
(26.0807 -4.7337 -0.31356)
(51.1374 -2.98636 -0.605505)
(42.8258 -2.3235 -1.96264)
(54.9342 -1.21276 -2.11133)
(51.346 -1.24907 -2.73648)
(57.5864 -0.891267 -2.45331)
(56.1128 -1.45094 -2.37181)
(59.3296 -1.55 -1.51581)
(58.5341 -1.77382 -0.691808)
(60.7378 -1.61227 0.158879)
(59.907 -1.12333 0.76399)
(60.1402 -0.55802 0.603107)
(62.5955 0.910445 0.456441)
(95.8566 80.9253 20.7041)
(-86.9175 5.51634 -34.466)
(38.5294 -2.805 -16.0269)
(-35.7899 -34.4796 -4.95242)
(36.8406 -34.9361 -4.87437)
(-10.2246 -22.8218 -0.48334)
(37.9453 -27.2671 1.05801)
(13.4047 -15.7308 -0.116286)
(40.3427 -17.1763 0.581626)
(29.1048 -10.3681 -0.249024)
(43.2748 -10.2011 0.204623)
(39.025 -6.40036 0.0824508)
(46.6074 -5.77042 0.679442)
(45.1998 -3.62702 0.559354)
(49.0749 -2.83175 0.855933)
(48.1202 -1.45586 0.706498)
(50.1242 -0.532044 0.497694)
(48.0536 0.464122 0.237994)
(47.3277 1.12722 -0.308065)
(47.0354 1.81233 -0.442094)
(65.3173 41.8254 29.5799)
(-128.81 -36.7457 -10.4298)
(46.4787 -28.0934 8.68424)
(-41.6181 -38.916 2.48418)
(40.6554 -36.0412 6.42052)
(0.804496 -23.4707 2.92442)
(43.3513 -25.199 4.57076)
(22.8224 -13.8694 2.2212)
(43.4086 -14.7154 2.43557)
(32.2202 -8.59485 0.754742)
(42.2368 -8.71338 0.973154)
(36.9889 -5.57352 0.350028)
(42.4952 -5.08726 0.536182)
(40.522 -3.28659 0.344343)
(43.655 -2.46226 0.580579)
(42.6693 -1.0519 0.386259)
(44.9003 0.0963904 0.386503)
(43.2104 1.24738 0.351696)
(42.7838 2.28401 -0.0200803)
(42.3107 2.67089 0.239843)
(94.6195 79.3082 250.822)
(-95.0542 -19.0422 91.9373)
(82.1297 -27.7664 21.8833)
(-11.0595 -34.868 7.93584)
(60.0656 -39.3522 7.57506)
(11.0346 -25.4323 2.16031)
(47.1886 -33.7328 4.79835)
(21.8619 -13.7113 1.74858)
(41.7878 -19.4507 3.08978)
(29.0577 -8.69544 1.15735)
(39.5023 -12.2775 1.46659)
(33.6115 -6.74801 0.396501)
(39.5652 -7.72677 0.634084)
(37.416 -4.39177 0.168789)
(41.1469 -3.91467 0.250462)
(40.2077 -1.53695 -0.107823)
(42.9038 0.232217 -0.258487)
(40.9311 2.15288 -0.480365)
(40.4213 4.01669 -0.523175)
(39.8034 4.24206 0.128343)
(120.161 1.47101 147.104)
(-91.2317 -12.4755 -13.2319)
(62.5611 -43.4085 -37.4788)
(-21.4552 -48.4563 -12.8801)
(55.3235 -43.1621 -0.437717)
(20.4247 -24.4282 0.502979)
(52.0636 -27.5029 3.19625)
(37.2971 -11.2273 -0.0151556)
(45.8693 -13.8039 1.41064)
(36.8352 -5.39944 0.739084)
(40.3461 -8.94804 1.44731)
(35.9592 -5.51709 0.725902)
(38.2047 -7.21989 0.406853)
(36.526 -5.18503 0.0376289)
(38.5928 -4.81902 -0.0439718)
(38.1642 -2.83275 -0.284704)
(40.8482 -0.59429 -0.391549)
(39.3171 1.95655 -0.535604)
(39.2002 4.29707 -0.689502)
(39.5497 4.5531 0.26631)
(102.675 -84.6049 73.1008)
(-8.03649 -30.6332 -43.6655)
(102.945 -44.8489 -36.9655)
(18.2745 -54.8337 -1.88937)
(75.3523 -42.6772 0.912462)
(22.6805 -22.0629 -0.632158)
(44.8207 -37.9815 -0.0179375)
(23.0819 -5.18807 0.422752)
(36.2605 -16.6428 0.140859)
(27.5534 -1.30058 0.326363)
(34.3432 -8.83974 0.223282)
(31.1434 -3.08792 0.373888)
(35.8133 -7.90844 0.037243)
(35.1005 -5.11402 0.063318)
(38.3958 -6.18009 0.173629)
(37.7472 -4.25715 0.0038801)
(40.6367 -1.56248 -0.219131)
(38.7834 1.78075 -0.487413)
(38.9993 4.38639 -0.684294)
(38.944 5.08558 0.576515)
(68.7541 -169.213 49.4967)
(-111.848 -35.6164 -10.5348)
(79.1952 -58.0149 -4.69277)
(0.958219 -51.6555 0.660054)
(70.5554 -41.717 1.74235)
(35.4367 -7.90708 -2.55717)
(55.0601 -19.751 -2.40745)
(34.0184 -14.5723 0.226867)
(37.8161 -9.51597 1.2099)
(31.9941 -5.63502 0.788707)
(36.1615 -4.93917 -0.181937)
(35.3179 -5.62392 -0.68579)
(39.1905 -6.70174 -0.643683)
(40.1868 -6.80201 -0.0937891)
(39.692 -7.54608 0.276546)
(40.0329 -5.36902 0.46067)
(41.0366 -1.90675 -0.197781)
(38.296 1.90436 -0.73333)
(38.0595 4.94903 -0.807452)
(36.48 6.22673 0.438963)
(89.1766 -197.032 0.51296)
(5.54276 -61.4917 -25.983)
(114.441 -69.1621 -23.6619)
(21.1305 -55.9301 -4.64291)
(62.2853 -46.3062 2.66771)
(36.5616 -21.5321 1.72502)
(50.9575 -12.798 -0.0194722)
(40.8504 -13.1967 0.47513)
(42.2499 -6.8443 1.74835)
(39.4174 -4.55214 0.912378)
(40.8047 -5.04879 -1.03286)
(41.7571 -8.34513 -2.04411)
(44.5737 -9.52007 -1.5369)
(46.0935 -9.13069 -0.681937)
(45.686 -7.55835 -0.0101051)
(41.1859 -4.88531 0.753815)
(40.8153 -0.168892 0.0844998)
(36.4867 2.7525 -0.464116)
(35.4345 7.16778 -0.847108)
(32.839 8.03973 0.185542)
(197.824 89.2706 -89.8709)
(61.4292 -9.93658 -36.296)
(123.692 -37.7968 6.69462)
(35.3342 -36.7087 9.59016)
(74.0487 -25.7837 12.2405)
(59.3428 -18.2005 3.41538)
(62.9058 -18.205 3.0733)
(56.9328 -12.771 2.31226)
(53.2695 -6.5873 1.18827)
(51.6444 -4.04333 0.480805)
(51.4582 -7.79762 -1.29884)
(52.0565 -12.2043 -1.72983)
(52.8617 -13.8456 -1.68299)
(53.8579 -13.5305 -1.18524)
(51.6322 -9.23472 0.0662452)
(42.1832 -1.5313 0.575757)
(40.3776 3.27931 0.237567)
(35.5213 5.81636 -0.247436)
(34.1122 9.41624 -0.739202)
(32.5351 9.39537 0.202773)
(104.397 73.934 -191.975)
(-15.0044 50.5337 -33.26)
(99.834 18.846 -2.73955)
(-5.35567 -1.63535 4.715)
(62.7201 -0.690244 4.88477)
(19.7754 -18.1517 -1.80238)
(41.5751 -12.9526 2.06482)
(53.122 -9.30793 3.65174)
(54.5107 -5.61793 1.95551)
(55.1516 -5.69914 -0.408586)
(59.1139 -9.42261 -0.10066)
(59.5229 -12.2698 -0.513334)
(56.1481 -13.2504 -0.20783)
(53.7084 -13.2244 0.426413)
(48.2129 -7.92572 -1.06676)
(39.0843 1.54162 -1.50496)
(37.3684 6.77903 -1.04523)
(34.4856 7.87045 -0.671286)
(33.7558 10.6124 -0.837445)
(33.5176 9.4618 0.113641)
(-11.8875 54.797 -1.9578)
(-64.119 -7.0071 -27.0667)
(74.4592 -6.58579 -24.9955)
(-23.7488 -4.17998 1.33715)
(51.7167 -11.2596 8.72938)
(25.9343 -21.6635 1.49427)
(55.1564 -32.6533 3.38167)
(52.3939 -11.4665 4.39975)
(50.5266 -4.54467 3.42835)
(49.5362 -4.4649 2.15222)
(49.3378 -6.75973 1.28985)
(47.5517 -8.67123 0.634952)
(45.6177 -10.2753 0.604249)
(43.0226 -9.66324 0.280243)
(40.0188 -5.23248 -1.29581)
(33.7275 0.799155 -1.55655)
(35.1848 5.62616 -1.21253)
(34.9648 7.17897 -0.825811)
(35.4089 10.0273 -0.857467)
(36.9101 8.79334 0.335919)
(242.399 85.1571 0.0820289)
(86.1922 15.5711 26.0909)
(126.732 15.963 8.34593)
(28.6241 6.16892 1.19452)
(91.1044 10.6741 4.42016)
(29.9674 -31.4482 4.69465)
(50.2706 -6.4194 5.1604)
(21.0782 -6.50861 3.50426)
(39.1523 -2.78023 0.998213)
(30.3875 -5.25124 0.282295)
(38.2915 -5.27368 -0.262016)
(32.9424 -7.02277 0.212844)
(36.1889 -6.79768 0.275847)
(32.3111 -7.07482 0.343468)
(30.5788 -2.65632 -0.714119)
(32.1352 -2.1379 -0.528193)
(33.5726 2.93508 -0.488579)
(35.1248 4.55099 -0.563438)
(36.6642 7.95649 -0.696321)
(39.4752 7.07743 0.762746)
(167.761 106.082 23.4498)
(-43.9831 30.3601 7.00307)
(94.6335 36.011 -13.8815)
(-25.0431 1.54318 1.10572)
(75.8565 -2.64111 2.36784)