/*--------------------------------*- C++ -*----------------------------------*\
  =========                 |
  \\      /  F ield         | OpenFOAM: The Open Source CFD Toolbox
   \\    /   O peration     | Website:  https://openfoam.org
    \\  /    A nd           | Version:  10
     \\/     M anipulation  |
\*---------------------------------------------------------------------------*/
FoamFile
{
    format      ascii;
    class       volScalarField;
    location    "7.5";
    object      k;
}
// * * * * * * * * * * * * * * * * * * * * * * * * * * * * * * * * * * * * * //

dimensions      [0 2 -2 0 0 0 0];

internalField   nonuniform List<scalar> 
12920
(
1262.05
1167.03
783.785
588.009
529.66
396.197
248.652
183.905
142.354
130.263
120.558
118.162
115.037
114.565
114.629
115.389
116.327
118.683
131.385
135.862
503.081
1212.87
970.591
766.596
678.602
557.796
435.085
369.928
304.171
265.368
234.973
213.697
196.3
184.094
176.472
173.623
174.351
181.119
189.314
186.251
704.119
973.627
1090.9
924.033
659.624
532.159
421.623
371.869
341.643
331.422
317.192
298.098
272.072
244.42
217.032
192.762
181.566
173.219
169.895
158.452
1763.13
1017.45
1018.85
897.056
663.68
512.993
447.968
429.897
431.359
429.684
414.022
391.28
362.211
323.036
272.493
221.813
191.064
165.233
152.873
127.301
98.9988
803.125
1099.5
1061.66
899.98
801.741
696.601
591.979
517.622
488.456
467.631
449.309
412.852
381.685
334.201
269.746
212.601
166.414
144.376
117.57
2660.37
1927.94
1467.79
1002.96
905.299
886.681
851.888
782.786
647.139
580.497
511.542
460.533
408.586
382.294
363.002
320.85
257.212
194.619
156.93
124
536.952
1243.89
1462.3
1359.87
1082.44
994.446
909.24
814.697
617.84
451.717
336.513
301.864
300.541
307.678
318.76
320.638
313.913
291.427
240.558
165.478
515.777
1080.72
1414.6
1455.5
1228.01
1060.6
678.157
412.304
343.217
213.492
147.082
145.099
170.379
181.091
296.067
280.059
266.109
228.293
188.824
143.648
3085.98
2541.73
1470.99
1297.03
979.206
513.608
419.293
202.447
165.062
129.379
91.0496
92.1568
103.158
102.998
165.583
211.689
183.58
154.903
139.152
122.031
4306.98
3148.47
2035.59
1587.55
988.505
420.327
150.15
108.682
104.821
106.236
98.7728
87.4428
69.4123
65.4963
111.209
153.033
145.266
134.229
128.81
121.549
9081.27
2556.32
2066.59
1435.3
942.69
433.249
172.634
124.187
145.883
145.328
108.768
104.9
104.372
66.5826
83.8463
123.198
113.061
110.449
111.642
116.018
2146.43
3274.62
2067.9
1348.73
964.154
540.488
253.699
124.252
131.248
116.613
123.87
126.391
129.882
115.225
139.492
152.463
127.904
116.483
114.44
115.218
304.168
2168.54
2184.93
1172.13
745.325
586.055
336.282
250.581
213.396
186.238
170.714
163.207
146.996
132.171
172.621
137.678
119.065
109.421
107.766
106.402
3555.44
5394.94
2826.4
1654.93
882.018
652.789
460.395
416.119
373.356
319.784
271.634
221.043
184.061
151.55
126.8
108.837
97.5802
90.1836
87.5701
85.979
2748.97
3571.49
3055.3
2571.37
1693.45
1165.86
678.631
472.166
354.379
278.723
215.217
172.007
143.074
123.536
109.545
98.8221
90.0298
82.7722
78.8485
74.6515
8948.07
4997.58
3099.43
2478.17
1799.3
1288.33
806.17
540.724
388.679
304.46
228.426
177.148
140.432
119.218
104.895
95.5297
87.9841
82.0645
78.943
74.5825
10669.4
5840.06
3033.16
2047.04
1245.8
756.827
536.016
440.276
346.181
288.077
229.679
188.004
149.807
124.808
107.95
97.3384
89.6841
84.5521
82.044
79.3576
4328.8
3216.92
2066.21
1133.77
685.86
550.542
446.742
402.802
324.354
278.847
226.106
192.129
163.006
142.962
125.971
114.135
104.589
97.9582
94.0665
92.3146
5270.35
3901.16
1716.82
850.833
561.79
451.364
343.86
289.947
238.039
210.787
187.97
175.253
162.593
156.937
150.596
144.726
136.952
128.729
120.276
113.477
533.337
1154.85
1074.83
629.776
328.058
303.23
325.603
302.143
241.051
198.266
157.013
126.701
109.117
99.1179
93.123
86.9549
82.7255
76.4919
73.1121
65.1457
1082.67
1409.54
1238.73
1157.95
999.072
699.193
536.683
435.77
389.063
355.007
333.003
320.658
310.634
305.657
305.08
307.068
312.686
318.872
333.517
325.709
1541.19
4163.74
2856.46
1900.49
1695.3
1400.22
1152.27
1035.68
880.847
806.685
707.168
650.805
590.353
560.568
534.714
527.705
532.448
563.626
602.616
598.837
729.795
2307.51
3048.9
2398.84
1687
1409.8
1148.78
1092.56
996.1
977.243
918.94
871.501
784.903
723.612
650.696
588.894
554.508
536.657
528.381
493.232
9044.7
3774.2
2872.26
2287.41
1632.69
1347.65
1194.15
1218.8
1214.16
1201.73
1127.14
1052.22
959.644
870.404
747.388
624.608
546.312
485.224
453.574
384.416
7679.11
5253.98
3414.74
2703.05
2168.63
2029.88
1697.53
1597.87
1448.29
1413.58
1324.99
1235.17
1127.21
1043.06
905.947
739.613
583.05
470.223
412.357
347.416
11845.6
7380.21
4059.41
2617.45
2350.45
2303.51
2119.31
2004.79
1750.65
1661.44
1470.51
1347.13
1208.49
1137.37
1045.4
901.244
704.767
535.46
439.146
364.335
2697.06
3511.49
3555.82
3294.75
2659.11
2559.53
2305.21
2062.99
1589.44
1193.62
924.197
863.905
866.119
877.279
868.083
848.468
820.75
758.417
616.734
451.97
1877.48
2845.88
3673.05
3646.69
2783.59
2502.4
2044.38
1682.46
1309.24
902.155
706.679
669.634
677.962
669.531
678.533
664.447
645.824
585.707
495.675
407.612
5238.66
4444.16
3717.6
3241.87
2248.65
1789.84
1662.91
1280.9
998.195
773.488
589.092
545.664
523.89
502
486.624
477.246
449.547
409.208
384.766
356.071
4088.38
5060.58
4161.36
3423.95
2170.37
1450.51
1003.94
813.028
694.344
602.727
520.289
433.419
359.606
333.731
336.391
361.22
366.186
364.569
362.216
356.05
8356.04
5673.12
4100.78
2856.3
1753.34
1396.4
940.964
813.697
766.18
678.399
549.441
503.655
450.4
317.397
275.019
309.293
310.668
319.947
342.14
364.304
4638.89
7326.97
4478.56
2821.26
1690.42
1533.84
1134.88
948.923
860.345
755.207
742.516
698.289
612.587
484.702
388.882
353.694
329.528
329.263
337.28
359.148
8619.35
9004.08
7097.28
2971.1
1438.1
1295.19
1071.65
1108.7
883.173
774.333
667.971
600.915
518.975
453.904
399.593
345.332
317.413
305.667
306.633
316.755
29082.4
18048.5
7369.47
3620.94
1797.32
1538.03
1136.66
1105.98
989.809
845.306
693.817
570.639
473.235
395.121
337.002
301.848
278.062
263.954
258.455
259.121
8772.79
10813.8
6288.94
4993.54
2560.29
2020.73
1167.86
1110.16
888.847
721.015
550.407
454.03
383.381
336.886
301.37
276.461
255.961
241.832
233.574
226.82
15306.9
10908.5
6236.17
5355.16
2867.2
2259.44
1362.05
1206.91
921.981
778.241
569.282
465.239
373.716
328.722
293.816
272.603
253.879
242.137
234.65
226.978
17267.3
7134.92
4186.26
3342.82
1535.83
1437.55
1128.06
1062.28
840.062
735.882
574.727
496.465
397.523
344.296
304.96
280.818
262.033
251.422
246.091
242.235
16996.4
5111.17
2918.03
1878
1317.13
1266.62
1053.21
963.975
770.515
693.301
569.681
512.004
443.422
400.691
358.678
330.63
308.014
293.813
286.11
283.485
15983.8
6355.98
2893.86
1998.14
1360.59
1111.01
802.926
710.203
574.266
539.486
486.999
469.764
445.764
435.896
418.264
405.788
389.573
375.404
360.378
350.708
971.792
1814.27
1310.21
667.638
409.804
500.366
577.701
538.069
429.102
350.368
274.075
228.038
201.741
192.397
187.78
184.488
182.508
178.141
173.695
158.717
3030.8
2129.27
1633.71
1364.76
1081.18
772.721
662.85
547.727
507.283
459.927
440.17
421.308
411.442
402.35
400.182
395.633
393.862
386.449
382.359
349.837
3277.33
5908.74
3912.78
2598.97
2257.78
1802.16
1545.12
1359.24
1211.06
1122.85
1032.1
984.852
930.65
903.266
874.349
857.718
855.677
862.935
863.466
825.536
2803.75
5113.35
5115.11
3473.08
2553.94
2135.8
1827.95
1669.76
1491.91
1399.52
1273.61
1192.07
1091.63
1017.6
937.588
867.206
817.855
769.627
736.84
667.467
13307.2
7277.82
4364.16
3200.98
2537.04
2266.52
2005.91
1896.04
1716.82
1586.99
1430.28
1313.28
1186.07
1070.66
948.323
835.664
749.126
666.726
611.948
532.331
16962.5
9830.56
5218.86
3671.83
2976.86
2736.82
2327.81
2169.53
1952.19
1809.66
1639.19
1497.33
1347.2
1206.89
1044.05
878.123
739.841
626.879
561.263
489.232
25043.4
12999.3
5815.53
3725.11
3263.27
3019.33
2598.06
2402.85
2120.59
1965.35
1758.6
1616.92
1466.29
1338.35
1182.58
1006.91
835.954
686.841
597.671
517.498
6388.77
7128.92
5563.84
4254.08
3490.73
3233.33
2714.3
2350.05
1890.87
1586.94
1373.66
1295.04
1224.84
1160.77
1088.31
1013.95
933.445
817.901
705.442
595.426
5158.59
4761.07
5212.58
4670.25
3424.21
3011.04
2621.79
2104.54
1674.99
1275.68
1104.96
1016.38
969.921
920.185
862.298
823.384
773.349
691.784
631.711
567.275
7346.17
6712.98
5311.07
3988.38
2749.47
2445
2302.36
1706.95
1334.23
1044.02
877.693
786.945
729.873
689.531
650.944
619.549
595.08
561.489
542.834
517.334
5534.71
6234.73
5357.73
3961.24
2496.85
1875.26
1524.99
1241.06
1031.71
861.204
714.768
586.433
502.415
479.195
484.853
519.688
530.22
531.048
529.45
520.917
14440.6
6555.25
4561.05
2980.74
2102.1
1747.43
1413.9
1204.43
1064.08
930.244
559.906
507.141
468.268
406.105
414.745
481.805
498.964
518.734
534.17
540.629
4787.54
7783.26
5056.66
2946.25
2109.81
1946.18
1767.19
1415.76
1211.22
1073.32
999.118
892.271
739.23
599.271
513.34
501.143
495.819
501.108
515.779
526.212
15877.4
11814.8
6024.74
2990.08
2048.85
1769.11
1610.06
1536.61
1218
1060.33
905.667
790.219
674.648
590.489
514.167
469.846
449.976
445.136
449.671
460.44
17606.8
11272.5
7299.01
3965
2270.18
1902.81
1566.82
1394.94
1198.21
989.742
837.914
697.093
596.224
513.015
455.791
419.022
395.314
384.456
382.969
387.077
45627.2
16102.6
6453.5
4280.82
2394.12
2073.56
1568.35
1383.58
1079.38
876.35
706.406
594.742
514.844
458.724
416.056
386.851
365.038
352.558
345.927
344.925
24498.7
10663.4
5947.71
4497.6
2610.74
2306.24
1654.03
1427.23
1083.91
898.652
708.533
600.725
510.686
457.395
414.841
388.251
366.7
355.113
347.578
344.865
19503.2
6723.24
4460.26
3001.12
2072.53
1834.19
1463.54
1255.06
991.323
861.705
710.909
624.205
531.312
477.517
432.174
405.037
384.712
375.206
370.682
370.546
12914.3
5603.26
4047.56
2473.68
2058.48
1662.73
1336.06
1132.56
928.829
832.358
724.23
667.171
600.067
555.298
509.312
479.697
454.883
441.066
434.348
434.36
6625.65
5895.57
4081.87
2337.3
1752.6
1350.22
1022.51
877.268
735.392
699.556
649.521
642.821
624.604
618.006
598.122
584.994
564.373
548.807
531.962
524.241
1533.4
2265.46
1264.14
895.521
779.734
801.182
720.488
596.962
498.18
419.275
345.21
294.631
264.52
248.151
240.273
230.597
225.22
213.964
206.743
188.155
3638.51
2731.65
1891.26
1380.69
1102.74
786.846
722.22
589.718
568.961
510.283
497.769
468.187
457.513
439.627
434.1
418.881
409.616
385.75
370.331
310.347
9067.66
9047.05
5124.78
3333.3
2747.48
2096.99
1865.45
1569.41
1456.36
1327.48
1268.13
1214.06
1179.18
1149.9
1126.25
1103.66
1090.97
1067.84
1035.7
957.307
11716.9
11919.8
9163.68
4616.89
3368.55
2610.97
2307.42
1971.12
1789.78
1612.63
1493.37
1384.45
1296.16
1211.86
1136.21
1060.62
1001.1
933.77
878.213
805.025
18100.7
10332.3
5788.57
3895.68
3373.29
2803.26
2528.04
2194.55
1981.4
1757.44
1600.5
1446.43
1318.95
1190.68
1077.37
968.821
881.862
794.531
729.533
658.751
9759
9320.94
6454.04
4345.58
3700.33
3107.44
2731.43
2408.58
2199.72
1969.81
1797.8
1605.46
1439.9
1266.7
1106.55
955.112
838.901
739.452
675.824
613.771
8143.78
9999.2
7276.06
4540.24
4000.78
3312.38
2871.12
2546.07
2296.02
2083.87
1898.37
1726.66
1562.96
1390.28
1217.22
1044.02
904.222
787.255
715.008
650.167
10971.6
9324.34
7185.11
4936.4
4178.52
3490.75
2854.83
2418.68
2044.16
1804.6
1646.05
1535.9
1421.15
1305.13
1189.87
1076.08
974.114
865.969
789.44
722.069
15699.1
7831.2
7088.26
5297.71
3971.62
3268.53
2801.52
2212.29
1823.51
1509.76
1366.4
1254.78
1172.25
1091.51
976.068
910.95
853.169
788.763
750.046
705.925
10302.2
9326.96
6694.09
4503.08
3085.76
2790.12
2563.48
1863.16
1500.55
1230.11
1077.14
965.056
890.735
836.919
781.521
742.686
723.326
699.542
686.131
665.929
3676.05
7801.25
6472.37
4303.33
2699.06
2143.52
1841.09
1496.92
1232.05
1021.39
847.182
701.611
629.581
622.688
641.013
684.28
691.129
690.087
685.232
671.221
14340.2
8605.73
5369.78
3344.65
2320.27
2003.91
1713.15
1449.53
1255.06
1090.9
778.957
602.133
532.418
541.58
593.155
674.411
688.785
698.18
700.455
694.033
12520.4
8839.33
5501.42
3236.36
2410.79
2160.64
2060.38
1632.68
1404.08
1246.6
1109.65
948.465
791.279
687.666
642.824
657.453
659.657
666.249
672.796
671.541
15482.1
10544.6
5614.21
3280.75
2511.7
2094.35
1918.25
1733.07
1398.55
1210.05
1034.4
891.922
772.317
687.813
620.85
588.878
579.191
579.607
585.721
593.543
17237.2
10197.9
7652.82
4150.16
2709.97
2154.63
1861.72
1557.07
1329.22
1077.6
935.103
783.388
691.087
608.761
561.025
528.241
511.729
507.078
508.884
517.691
27751.4
11575.2
6196.51
3843.06
2671.01
2141.32
1862.88
1487.69
1205.41
964.713
816.688
696.204
622.019
561.297
520.238
491.658
474.152
466.559
465.079
469.207
34181.2
10474.5
5833
3849.26
2861.15
2263.01
1854.64
1472.37
1185.8
961.012
809.406
697.637
621.399
564.596
525.48
498.283
480.027
471.309
467.675
470.239
19347.8
8733.64
4787.95
3212.23
2693.19
1993.51
1700.68
1323.89
1107.43
938.217
815.357
718.833
641.99
587.401
547.978
522.304
506.428
500.341
499.212
503.206
14190.2
7265.8
4758.3
3170.18
2553.64
1837.36
1540.7
1219.4
1063.61
940.158
862.237
797.87
741.138
690.442
648.12
617.623
596.196
585.291
582.105
585.948
3450.01
7796.18
4927.28
2826.4
1985.49
1397.42
1144.34
947.381
853.89
815.574
792.659
794.04
786.258
781.024
760.31
742.789
720.104
704.655
689.18
686.857
1749.39
2988.87
1791.63
1219.97
999.168
826.721
686.813
573.107
489.455
420.143
365.433
327.344
303.276
285.145
272.594
256.102
245.009
225.726
216.247
195.304
1581
2916.03
1987.14
1332.9
1013.61
737.622
693.497
573.351
555.076
487.757
474.759
433.676
420.095
392.09
382.179
355.052
338.071
297.883
276.11
218.43
24832.9
13377
7104.63
4259.04
3656.76
2528.21
2415.98
1868.41
1844.48
1595.02
1596.86
1483.98
1482.63
1424.59
1412.53
1364.63
1335.1
1264.98
1200.68
1115.28
63690
28955.8
15109.9
6157.3
4759.47
3234.52
3036.66
2350.89
2240.97
1893.42
1830.91
1643.47
1587.03
1457.5
1391.87
1290.06
1222.72
1129.99
1059.07
992.547
18310.5
14975.8
8589.23
4783.23
4634.75
3373.08
3230.84
2538.39
2395.08
2007.88
1897.22
1660.02
1551.78
1382.4
1277.52
1153.41
1066.09
970.278
901.407
843.59
12654.2
10668.1
8677
5345.58
5017.11
3737.37
3442.39
2780.54
2640.46
2243.75
2103.6
1801.09
1634.54
1409.32
1256.1
1103.92
1002.08
910.057
849.723
799.678
10222.8
10547.5
8735.56
5349.22
5159.34
3774.77
3452.86
2850.86
2681.91
2347.7
2196.79
1937.17
1751.02
1523.06
1341.82
1168.58
1051.17
954.884
895.342
846.417
10723
11877.4
9513.37
5875.38
5428.95
3953.77
3323.93
2720.52
2421.56
2133.93
2023.12
1834.49
1687.91
1510.69
1356.47
1211.36
1105.46
1013.22
961.413
917.689
20434
10907.4
9820.25
6100.05
5076.67
3812.5
3051.49
2407.18
2051.56
1774.11
1636.28
1494.24
1380.27
1263.7
1172.97
1075.21
1018.23
967.825
939.32
906.866
33195.7
13383.4
8539.19
5282.05
3768.9
3185.83
2811.31
2037.57
1684.58
1426.23
1274.8
1152.05
1071.45
1004.83
952.107
958.573
926.17
904.566
890.841
871.178
23882.3
13923.4
8680.58
5067.09
3342.19
2524.59
2148.36
1733.75
1412.85
1144.55
951.754
822.837
818.729
834.565
857.489
926.934
916.739
904.993
893.331
872.686
21176.1
10159.4
6565.92
4324.04
2807.69
2400.53
2005.75
1694.77
1441.91
1188.47
934.41
728.775
724.472
781.781
839.688
933.891
922.897
913.012
903.07
883.618
15298.4
11000.1
6591.03
3986.22
3037.06
2627.46
2371.04
1850.55
1598.2
1377.66
1167.8
981.841
898.394
853.908
849.682
898.321
882.805
874.086
870.097
858.786
19630.3
11653
6675.79
4360.87
3250.17
2821.92
2269.13
1972.83
1630.94
1393.03
1198.56
1029.53
919.866
838.305
830.688
790.746
780.381
777.589
780.681
785.136
22362.2
12059.4
8764.24
4762.71
3572.63
2709.33
2375.91
1978.28
1627.64
1335.62
1164.15
982.86
888.698
795.318
752.45
717.372
708.005
703.876
708.3
719.954
10278.8
12673.7
7179.17
4802.75
3315.65
2713.11
2330.99
1773.42
1482.45
1183.02
1042.77
894.215
824.2
747.646
709.234
677.53
665.958
659.782
662.056
671.033
33028.3
13675.3
6801.46
4661.57
3703.23
2641.26
2352.03
1734.31
1478.61
1167.41
1037.37
892.721
829.071
753.273
722.333
687.44
676.516
667.704
669.06
675.914
18567.8
10822.7
5700.72
4545.14
3390.65
2402.4
2168.89
1553.9
1402.41
1137.26
1045.62
904.514
849.143
774.44
748.29
716.188
709.64
703.271
706.533
715.57
13509.5
9954.27
6389.89
4257.92
3370.46
2204.11
2021.09
1470.68
1392.82
1167.65
1133.73
1013
976.926
889.985
861.584
818.236
807.2
795.864
798.847
808.099
1908.2
7415.71
6579.03
3686.08
2585.11
1579.89
1509.78
1121.77
1161.09
1032.37
1077.06
1025.9
1041.96
998.368
980.106
932.919
914.853
890.75
883.42
885.965
1814.2
2795.77
1936.77
1305.36
928.463
697.717
571.003
484.459
425.728
377.419
341.454
314.137
291.932
269.052
247.797
226.035
209.5
192.902
184.613
169.979
750.247
917.647
596.726
989.524
860.81
1024.93
702.528
615.801
531.369
461.271
819.357
706.284
630.107
514.154
624.074
1014.67
974.828
1057.07
735.383
1171.95
1093.85
503.242
960.349
900.925
666.062
566.336
1063.41
956.376
211.106
177.953
127.772
1310.46
1148.02
948.217
787.255
183.993
121.705
104.628
1087.27
928.862
738.728
618.596
136.135
103.393
99.9439
853.913
721.771
590.782
524.287
108.823
94.8395
90.9551
667.869
527.428
501.312
458.702
88.2687
92.5421
92.0618
491.407
468.638
447.772
410.708
102.973
88.7788
80.795
467.249
461.62
395.702
358.594
104.386
78.9463
77.2531
457.853
446.802
348.891
333.616
89.6622
76.9735
63.6165
440.932
441.181
330.516
327.804
111.376
163.095
127.306
803.046
707.73
737.27
702.732
103.807
128.849
140.394
672.277
596.843
692.142
675.87
108.264
145.415
148.012
582.147
536.834
670.828
631.574
99.1279
144.788
116.79
516.15
466.891
605.157
505.738
92.0061
110.652
100.324
452.346
400.343
477.262
421.066
73.2168
96.9682
86.1724
380.54
326.762
407.656
362.756
65.3134
80.8646
58.1132
312.929
291.943
340.371
258.643
59.5519
53.2239
34.562
289.535
298.792
239.1
207.405
123.759
196.082
107.628
719.762
693.448
720.897
705.511
139.625
100.88
104.607
681.071
668.15
681.77
650.739
148.992
107.4
101.704
664.217
623.398
640.339
584.407
115.249
98.9594
102.694
597.617
509.882
570.028
576.903
103.825
110.227
127.998
487.742
458.871
587.78
605.935
105.774
127.734
129.571
454.671
433.152
603.305
572.595
77.6475
130.912
125.387
417.094
316.063
554.249
464.951
36.8329
113.98
70.1276
282.759
221.605
430.085
346.899
129.041
316.63
185.999
768.094
779.024
884.414
995.042
130.381
182.975
178.304
767.999
744.166
1001.08
927.304
123.003
177.056
170.165
731.019
661.039
882.651
803.729
117.701
166.484
130.927
641.14
636.745
777.013
643.162
129.779
119.774
109.009
641.286
624.497
607.553
546.218
126.7
109.209
109.572
612.414
570.604
535.459
487.917
124.957
107.249
98.3767
550.625
467.113
470.162
419.733
70.5088
92.8333
68.0998
437.346
362.172
403.559
370.697
1367.28
1176.88
944.144
2179.56
1765.22
1622.82
1308.46
1075.3
886.109
743.539
1637.8
1358.57
1230.69
1038.33
835.293
708.099
620.406
1274.02
1056.59
985.679
849.939
624.378
592.782
536.584
987.309
846.998
810.995
719.564
553.219
520.64
471.587
816.061
751.494
691.693
614.726
530.443
453.85
411.068
734.225
696.088
590.835
535.934
508.57
399.971
381.927
684.184
656.54
522.466
499.908
493.13
378.305
368.976
647.932
636.021
495.688
488.993
856.33
921.839
837.281
1413.16
1212.29
1282.12
1153.3
716.589
819.818
784.012
1152.08
1003.98
1120.26
1031.93
628.105
772.078
712.478
962.064
843.996
1001.38
895.385
539.93
683.496
565.778
807.222
706.205
866.343
633.436
455.981
531.744
464.775
673.911
581.923
577.116
489.52
374.374
448.763
395.724
553.782
486.013
470.132
414.227
336.587
371.166
290.68
470.397
447.186
393.796
349.907
337.418
272.161
236.084
445.027
453.101
343.228
338.319
834.406
1034.01
884.636
1313.73
1159.68
1534.14
1280.98
777.921
846.496
785.095
1123.37
1032.57
1221.88
1095.73
705.78
765.908
696.557
1002.04
900.737
1058.54
964.389
576.352
680.732
682.268
873.95
659.377
945.557
918.036
511.057
689.088
693.929
610.22
547.742
908.928
866.044
470.887
687.065
638.963
537.938
495.765
843.801
747.904
348.005
613.303
509.817
472.641
401.917
708.281
590.009
249.752
473.555
379.433
384.573
349.766
555.546
473.549
984.196
1234.49
1212.32
1643.27
1396.26
1683.47
1622.97
884.181
1202.82
1072.03
1330.53
1186.98
1556.32
1336.32
775.867
1012.04
909.297
1142.82
1033.6
1257.7
1117.23
743.666
876.787
742.72
1010.24
968.675
1077.32
947.628
712.872
704.636
637.455
952.227
887.366
907.748
821.722
639.454
621.332
559.383
861.224
758.726
794.845
701.614
515.818
536.886
477.788
719.579
608.458
671.601
596.798
395.631
459.658
410.387
577.021
493.634
575.63
519.058
1842.3
1733.74
1400.21
2511.09
1980.59
1976.96
1604.77
1420.28
1318.05
1113.94
1837.1
1551.98
1513.24
1285.7
1111.23
1057.2
910.599
1468.15
1248.39
1220.93
1054.35
909.014
869.05
768.611
1189.44
1066.84
1007.72
889.317
806.428
737.788
653.928
1033.6
948.504
852.739
755.61
743.491
628.612
571.232
924.735
870.511
727.895
668.864
698.935
557.472
534.652
853.28
814.066
656.043
636.612
673.453
530.487
521.998
802.295
780.902
633.167
627.66
1305.43
1380.28
1237.17
1773.79
1520.57
1609.88
1438.59
1078.9
1199.69
1096.18
1445.72
1250.63
1390.09
1249.07
900.751
1060.57
943.621
1192.18
1034.97
1202.19
1070.74
871.906
823.842
871.707
909.483
829.122
869.766
917.028
676.455
680.72
688.906
752.675
647.899
716.204
720.566
517.647
446.666
406.37
674.641
608.438
487.229
451.208
480.806
392.755
369.94
596.46
583.869
451.6
469.517
485.562
368.755
370.383
584.163
594.746
477.494
501.947
1244.65
1661.66
1375.31
1648.25
1448.31
1919.85
1582.45
1099.31
1313.05
1174.47
1398.25
1259.78
1514.3
1355.54
954.341
1133.84
1034.99
1214.93
1093.96
1309.3
1198.91
952.76
856.846
944.286
971.326
904.081
815.593
1000.37
792.111
524.29
780.131
455.34
760.103
427.838
815.976
486.835
873.426
764.877
553.415
506.537
915.965
790.331
417.829
723.46
608.01
501.269
498.233
752.424
661.616
379.871
575.642
497.502
499.005
505.693
637.922
587.817
1485.43
1808.53
1705.09
1999.2
1667.28
2031.56
1836.27
1258.72
1620.47
1391.82
1591.93
1416.85
1732.14
1503.01
1098
1310.84
1166.33
1365.47
1244.46
1425.22
1275.82
1020.32
1125.7
996.579
1214.14
1126.05
1232.42
1101.13
922.692
955.711
863.259
1092.37
982.213
1058.18
948.506
779.694
833.613
734.019
941.929
816.852
912.494
805.531
629.719
702.541
625.796
779.12
687.234
773.744
698.776
517.745
604.16
544.196
662.831
604.58
677.381
622.312
2005.55
2035.87
1654.6
2711.18
2103.27
2213.86
1808.32
1583.14
1560.75
1327.93
1962.99
1692.72
1705.41
1452.4
1286.25
1261.54
1090.94
1612.63
1408.6
1380.53
1191.26
1111.22
1043.1
921.122
1356.13
1242.87
1137.71
1005.34
989.769
883.602
784.99
1207.09
1114.8
966.43
870.306
909.045
757.391
700.898
1087.97
1029.34
846.921
813.711
849.661
689.332
672.484
1009.35
962.224
809.276
802.028
811.938
669.408
662.185
946.726
912.506
799.471
790.234
1574.97
1675.27
1492.57
2041.51
1740.09
1880.55
1661.3
1293.16
1440.59
1289.33
1650.23
1417.16
1596.9
1412.63
1068.61
1239.41
1099.08
1347.17
1156.56
1350.25
1172.23
889.375
1055.04
804.067
1101.84
959.919
1115.61
927.216
733.018
734.136
579.444
916.963
807.373
864.139
699.463
639.448
543.584
490.779
781.39
751.232
661.194
627.004
621.767
491.514
515.132
752.405
761.4
637.841
684.391
631.259
524.68
548.693
763.727
768.712
696.167
721.663
1502.73
1987.09
1633.23
1908.63
1671.65
2169.93
1790.92
1302.58
1563.93
1401.6
1608.4
1433.66
1716.88
1540.24
1125.57
1354.32
1238.78
1374.71
1206.66
1487.37
1339.4
845.163
1208.38
1116.63
1153.51
967.486
1293.75
1156.33
638.717
1081.38
962.32
904.595
739.094
1107.82
963.134
536.228
919.476
796.53
697.169
651.352
920.258
834.35
538.02
762.383
684.026
658.387
694.81
818.707
785.307
551.171
664.129
621.052
703.698
722.874
776.584
758.436
1709.04
2099.09
1864.24
2253.05
1846.49
2331
1968.56
1455.93
1757.36
1530.36
1765.86
1579.05
1858.88
1634.39
1279.87
1454.19
1303.85
1524.03
1374.75
1560.93
1394.97
1147.01
1258.97
1125.34
1328.11
1189.06
1342.78
1197.27
990.515
1081.74
968.051
1141.17
1001.66
1151.41
1026.22
826.207
930.777
824.798
959.886
870.306
987.135
892.95
709.132
793.922
722.34
850.098
804.465
868.185
810.088
635.906
701.474
647.355
792.276
764.864
791.821
748.829
2179.19
2313.09
1895.19
3468.42
2763.32
2981.92
2550.33
1764.32
1787.31
1523.37
2626.94
2368.53
2417.04
2143.24
1479.6
1448.57
1246.25
2305.83
2073.26
2064.35
1819.48
1311.55
1188.52
1049.29
2034.03
1936.44
1749.72
1604.6
1180.01
1009.68
915.292
1921.15
1809.58
1566.35
1486.65
1092.18
894.632
875.292
1795.67
1732.95
1484.44
1564.79
1021.6
874.334
869.492
1728.04
1654.57
1574.43
1570.13
962.66
866.643
850.646
1650.07
1576.07
1568.13
1544.12
1828.91
1986.04
1751.5
2777.04
2484.36
2618.53
2411.6
1487.43
1682.14
1483.44
2366.75
2109.39
2325.53
2105.52
1204.42
1414.18
1211.56
2018.06
1756.47
2011.66
1743.75
995.201
1148.79
959.672
1681.17
1519.63
1658.95
1447.05
845.098
896.743
733.613
1475.36
1381.7
1378.67
1210.26
810.87
699.743
687.578
1379.5
1487.24
1201.19
1334.26
832.54
709.312
764.863
1529.9
1549
1423.99
1516.16
831.728
776.254
792.711
1550.17
1527.23
1525.08
1505.98
1761.9
2270.18
1882.11
2562.91
2408.24
2820.74
2519.65
1507.31
1804.99
1619.61
2332.33
2132.16
2435.68
2246.68
1248.88
1562.51
1393.79
2044.62
1788.86
2179.74
1959.87
998.534
1339.8
1181.83
1704.8
1483.23
1889.78
1690.55
766.512
1128.14
975.865
1411.15
1233
1626.75
1457.94
706.417
935.428
873.039
1218.99
1342.07
1433.72
1498.08
772.571
866.404
847.154
1430.29
1519.65
1540.15
1546.28
793.636
841.044
821.457
1528.31
1519.46
1547.17
1517.24
1934.33
2465.08
2043.14
2987.63
2560.83
3111.5
2554.8
1655.99
1932.85
1708.51
2465.79
2270.45
2422.91
2260.71
1431.61
1633.37
1457.11
2214.2
1999.12
2195.81
1992.63
1220.18
1401.35
1249.1
1931.93
1745.56
1923.7
1810.61
1021.52
1200.79
1070.6
1686.79
1529.82
1769.21
1626.89
912.244
1031
941.057
1506.34
1555.01
1590.85
1541.67
863.666
917.976
863.142
1562.46
1548.15
1534.79
1477.14
825.828
845.734
799.519
1547.2
1537.63
1471.31
1404.07
819.34
786.286
733.063
790.781
780.476
829.659
767.9
883.376
895.749
847.572
956.773
842.706
938.286
821.317
784.806
683.485
712.113
464.956
758.441
696.684
601.907
910.176
952.262
946.318
991.396
910.688
957.075
943.082
856.23
827.901
903.175
835.732
868.858
802.806
889.354
916.505
987.001
1004.91
942.25
973.94
840.127
946.784
823.027
497.899
789.84
814.153
734.732
625.792
867.91
633.539
647.181
573.622
647.486
608.404
680.536
597.386
576.951
625.676
478.98
399.297
575.871
632.294
348.037
524.979
504.151
460.168
399.479
531.235
502.944
347.826
707.185
787.789
779.8
785.348
749.445
753.428
737.867
661.878
677.637
741.57
651.923
712.123
623.421
691.994
610.242
433.312
724.303
579.001
668.076
383.82
667.559
556.259
407.068
574.86
546.464
527.607
374.679
615.636
891.077
727.626
807.089
509.702
849.64
622.028
846.09
1007.69
968.202
1000.39
1075.42
948.039
1030.05
1058.01
983.116
910.825
987.158
1023.19
927.873
961.01
1040.6
1006.6
1010.82
983.111
1091.04
859.614
1050.14
1051.46
944.362
546.422
840.116
943.257
656.474
896.228
994.484
1060.36
1127.9
1129.71
1147.43
1084.54
1107.16
1102.35
1031.35
1063.01
1037.22
1121.41
1003.95
1085.51
1069.45
777.028
502.795
733.505
444.099
747.769
430.961
751.718
918.78
894.976
943.549
1003.24
880.688
939.619
980.74
896.718
844.05
923.922
926.944
865.114
869.568
955.395
827.686
490.897
612.567
898.576
455.554
858.782
858.638
802.513
463.288
575.738
783.492
451.586
767.498
822.409
948.818
1037.65
1004.61
1030.26
976.776
1009.61
970.1
919.637
945.013
897.619
994.403
887.243
978.683
934.35
496.416
623.471
486.286
1152.85
1189.26
1118.02
1152.8
397.709
426.658
371.691
1151.68
1047.18
1120.21
1023.86
271.67
308.58
264.98
895.299
754.307
868.565
765.44
175.181
227.423
183.741
583.179
469.327
651.376
520.923
141.344
154.799
149.738
428.791
423.636
435.409
419.137
160.324
153.81
164.855
437.547
466.427
426.223
443.734
176.702
171.286
173.707
486.339
492.518
447.138
446.575
169.809
173.51
150.942
493.907
536.292
441.463
464.27
509.635
416.977
346.822
1045.67
1103.23
954.196
970.118
516.9
284.28
296.072
571.179
576.762
513.618
214.788
485.223
198.271
168.356
562.966
540.576
507.77
159.752
345.681
147.116
121.8
416.575
380.752
372.155
114.208
284.224
124.524
104.16
335.899
312.673
303.38
99.0124
233.993
85.8754
83.5083
224.051
218.118
232.49
84.0548
257.917
97.2415
94.8871
258.726
266.805
255.719
96.6536
255.598
103.345
98.3508
278.436
277.809
257.075
98.2822
247.929
101.438
97.4764
272.597
268.656
250.368
96.1165
142.531
142.301
112.979
369.563
394.633
314.213
332.798
294.947
427.181
295.304
903.591
779.085
886.296
742.094
333.558
122.08
150.462
312.184
343.659
305.003
124.299
324.938
105.883
109.456
334.536
321.232
330.391
108.682
335.349
107.408
111.5
303.92
305.477
323.069
118.418
321.933
102.268
125.041
291.796
281.215
338.891
120.286
268.236
97.9144
103.073
265.069
259.816
276.56
101.456
215.695
82.5865
88.0042
229.616
217.245
230.089
82.2386
161.958
66.9783
66.0143
183.6
177.402
173.041
61.8587
143.419
66.1123
55.4713
170.775
171.146
143.454
55.4561
98.3224
82.6477
63.5197
249.841
283.379
192.086
208.36
301.038
461.607
325.184
834.646
675.554
835.342
672.559
297.925
137.774
174.438
299.135
313.407
294.024
134.743
328.777
126.109
114.578
349.432
357.601
324.397
115.571
362.9
149.341
133.39
391.037
395.526
359.751
136.994
324.466
135.116
134.337
377.924
353.028
345.61
125.127
285.827
104.735
103.852
289.639
281.189
283.939
103.95
317.376
106.005
116.33
280.025
280.417
313.722
119.284
303.983
100.882
120.333
268.915
255.915
312.668
118.625
190.106
57.6614
90.0397
159.517
142.889
218.734
75.2607
58.8573
114.448
80.4261
190.693
194.697
243.386
236.086
402.767
544.01
436.732
870.59
730.697
917.515
808.036
318.727
187.12
264.098
333.589
312.914
338.073
199.611
388.108
124.773
137.421
338.674
355.243
356.646
139.352
451.977
131.008
158.124
387.824
385.274
451.445
158.843
411.843
115.014
152.085
336.511
333.035
423.809
148.374
388.696
129.786
139.965
361.322
372.683
393.324
137.722
321.95
124.046
115.217
356.024
346.402
324.702
114.708
318.571
130.318
122.985
344.002
339.112
324.712
122.595
261.19
103.452
108.637
285.26
267.211
273.031
100.391
91.2182
137.231
106.201
292.166
275.741
301.476
295.946
283.941
343.958
231.464
595.441
691.768
533.443
560.344
229.902
212.257
217.468
703.614
667.637
578.68
551.652
204.663
206.909
183.664
603.516
586.505
541.368
529.082
176.428
185.356
197.388
536.087
497.651
512.004
477.294
168.304
188.324
173.831
467.326
457.871
459.944
441.507
157.327
160.27
154.902
439.02
414.778
400.725
362.483
140.049
139.556