/*--------------------------------*- C++ -*----------------------------------*\
  =========                 |
  \\      /  F ield         | OpenFOAM: The Open Source CFD Toolbox
   \\    /   O peration     | Website:  https://openfoam.org
    \\  /    A nd           | Version:  10
     \\/     M anipulation  |
\*---------------------------------------------------------------------------*/
FoamFile
{
    format      ascii;
    class       volScalarField;
    location    "7.5";
    object      nut;
}
// * * * * * * * * * * * * * * * * * * * * * * * * * * * * * * * * * * * * * //

dimensions      [0 2 -1 0 0 0 0];

internalField   nonuniform List<scalar> 
12920
(
1.31737
2.21835
1.74721
2.93249
2.30464
3.11605
1.37561
1.42496
0.867345
0.937953
0.752081
0.784167
0.700882
0.705158
0.667807
0.659674
0.632979
0.629522
0.660786
0.591131
1.91483
5.89855
4.20355
6.20328
3.63126
5.30188
2.66675
3.09008
1.99985
2.02535
1.57344
1.52258
1.30583
1.2543
1.1654
1.15773
1.14443
1.17627
1.15583
1.0688
1.57627
5.81329
4.19583
5.93984
3.04154
3.3876
2.26093
2.47406
2.01438
2.20822
1.96095
1.96954
1.73444
1.62262
1.43461
1.33179
1.28757
1.30837
1.27472
1.16762
2.62057
3.86563
3.83167
6.30219
3.02674
3.32738
2.34094
2.75857
2.55681
2.91434
2.68017
2.69602
2.41184
2.20366
1.83886
1.55665
1.40507
1.33555
1.25682
1.05329
0.190183
2.86602
3.91117
5.12024
3.73024
3.93902
3.15704
3.0885
2.67919
2.88954
2.75974
2.84328
2.56877
2.44646
2.13844
1.79851
1.53076
1.37053
1.24039
1.01113
6.556
6.3154
5.73944
7.11223
4.40397
5.50963
4.28469
4.27695
3.35307
3.15432
2.75994
2.57666
2.30988
2.27566
2.21397
2.00678
1.67585
1.42337
1.24364
1.01387
1.32966
7.54598
6.73228
8.27001
5.1718
5.88879
4.81479
4.65142
3.42563
2.71278
2.08958
2.06024
2.09797
2.24317
2.33475
2.31187
2.14527
1.97642
1.61104
1.13551
0.760831
5.18262
5.85621
8.53769
6.65589
6.87335
1.86711
1.25313
0.980193
0.689859
0.519395
0.607432
0.72068
0.771821
2.67554
2.47866
2.20071
1.82843
1.46529
1.08397
4.78171
11.2814
8.25727
8.07629
7.02095
2.55612
0.729666
0.365557
0.271685
0.21967
0.177364
0.218227
0.24446
0.235766
0.750641
2.05494
1.775
1.49162
1.30921
1.0597
12.7808
12.5512
8.76603
8.93236
6.35485
2.3055
0.483075
0.313924
0.283411
0.284991
0.26029
0.230219
0.177016
0.155511
0.506861
1.4573
1.37311
1.27773
1.19652
1.03891
13.0416
7.5694
10.1864
8.47979
6.87989
2.32728
0.482246
0.309569
0.325822
0.284998
0.223108
0.198582
0.173379
0.121359
0.364834
1.12577
1.02399
0.975233
0.947875
0.906098
10.71
12.8664
10.2218
8.23535
6.67348
2.10921
0.452248
0.236682
0.238158
0.201074
0.190312
0.200786
0.236053
0.208931
0.563135
1.45961
1.2381
1.10415
1.01715
0.911606
0.725063
10.3465
10.5146
7.71274
5.53806
5.42887
1.61531
1.37721
1.01623
1.05667
0.875184
0.874783
0.715619
0.637295
1.83016
1.47128
1.29324
1.20578
1.14047
0.971217
6.35439
16.8231
9.52441
9.12848
6.05516
5.73788
4.08178
4.57657
3.6939
3.61541
2.8062
2.5332
2.04616
1.79271
1.47404
1.30331
1.16353
1.10098
1.0383
0.889793
4.32085
13.4085
12.3946
11.3611
8.74501
7.65868
4.7844
4.88218
3.50392
3.47424
2.56751
2.4252
1.91848
1.73781
1.48236
1.34046
1.18916
1.10328
1.01333
0.841874
21.6833
15.8489
12.473
11.1611
7.74841
6.92704
4.20745
4.1747
2.99446
3.0335
2.17687
2.0578
1.60337
1.53978
1.30973
1.24268
1.11841
1.07551
1.0014
0.84126
22.2875
17.2188
12.006
10.1548
6.38639
6.18585
4.01849
4.7103
3.15555
3.34828
2.24952
2.15348
1.62137
1.55209
1.32879
1.28044
1.16191
1.1393
1.07203
0.921028
10.6741
12.7139
9.50408
7.56729
4.9458
5.26303
3.69196
4.50347
2.85721
3.04219
2.10829
2.07021
1.64316
1.61091
1.38517
1.33271
1.20522
1.1769
1.10254
0.978794
15.7414
13.9229
5.30613
6.57245
3.72854
4.76588
2.87854
3.80986
2.16059
2.44818
1.78467
1.87264
1.55539
1.59014
1.44792
1.43207
1.3289
1.28476
1.1733
1.02166
1.11674
4.16771
2.70717
1.67966
0.830935
1.17129
1.48655
1.81844
1.34189
1.23533
0.938728
0.824451
0.695251
0.656731
0.599414
0.560377
0.51827
0.472425
0.432148
0.354792
1.56858
5.69864
7.61143
14.8766
12.8859
14.4022
8.71284
8.96611
6.7392
6.98735
5.83086
5.91359
5.31508
5.28506
5.05067
5.04343
4.90921
4.95691
4.91754
4.22523
6.69342
34.0482
34.4311
28.5724
28.847
26.7715
23.867
22.8804
20.5725
19.7909
17.7893
16.7537
15.3769
14.8393
14.335
14.4188
14.8121
15.75
16.6945
15.9217
1.20106
18.7249
28.1353
28.559
24.5208
23.117
20.6558
21.2885
20.572
21.1417
20.6281
20.1696
18.618
17.7393
16.4569
15.7497
15.7195
16.5851
17.0265
16.5228
29.3544
22.8938
23.5265
25.4493
22.6267
20.9198
19.7741
21.9173
23.7091
25.135
24.7998
23.733
22.1636
20.4971
17.9779
15.7861
15.1076
15.2784
15.4488
14.703
12.0962
31.3921
32.2055
31.7363
29.4259
28.4201
24.8389
24.8618
24.4405
26.4108
26.3183
25.5057
23.9929
22.8212
20.3091
17.3682
15.2804
14.5182
14.1837
13.8009
26.3374
45.7379
37.9058
32.2222
33.0783
33.3241
32.1297
30.9479
28.091
27.7029
25.4889
24.1449
22.6969
22.8923
22.2205
19.6958
16.1314
13.9879
13.3594
13.4653
13.4307
23.5294
26.2423
34.6144
35.7286
35.8643
34.1146
31.6359
26.0455
20.8292
18.011
18.6831
20.7344
21.9751
21.8362
21.0388
19.5706
17.9422
14.6897
12.3174
2.96341
15.1103
30.1843
40.7435
39.0369
37.1209
28.1723
24.9187
21.029
16.0889
14.7184
17.1593
19.0505
19.2566
20.6684
19.4062
18.1483
16.3769
13.9694
12.8435
19.5334
31.5523
34.9878
37.8054
34.127
27.7658
24.989
21.944
16.9185
14.1078
12.7021
16.0811
17.0516
16.6088
16.7451
16.9263
15.8528
14.6477
14.1856
13.9044
7.01734
38.7751
37.5335
38.3514
32.5902
24.3759
19.7746
18.1179
16.6161
15.8907
15.7555
14.3455
12.2197
11.8504
12.6028
13.8289
13.841
13.8342
13.9405
14.0468
24.6896
44.3122
41.862
32.1418
22.0539
18.3304
14.6284
16.0195
17.2007
15.8095
13.4787
12.5218
10.6253
8.12647
9.593
12.2557
12.2875
12.4641
13.2045
13.7761
14.6938
48.6974
46.2789
30.9446
19.4173
16.8845
13.1133
15.0601
15.9694
14.8515
14.4974
15.029
15.3394
12.7935
12.0021
13.1393
12.8933
13.1506
13.3761
13.75
12.3233
35.5052
39.1459
31.1636
18.0806
18.6763
15.5642
17.0995
17.3508
17.0366
16.9698
16.8001
15.4907
13.965
14.0194
13.1088
13.0776
13.1214
13.1809
13.3036
30.7823
38.2661
45.065
40.6732
25.7162
23.4344
19.805
20.8789
20.7101
19.4521
17.7311
16.4492
15.0644
13.9627
12.8831
12.6623
12.5438
12.4844
12.441
12.3879
36.014
46.6838
46.9298
43.3156
23.3437
19.439
15.9676
19.8033
19.0335
17.8737
16.0237
15.3649
14.5015
13.7621
13.06
12.6267
12.2155
11.9634
11.886
11.6466
44.6616
62.4876
45.3319
38.2669
21.3146
18.7655
15.5368
18.6897
18.3358
17.8739
15.034
14.3028
13.3108
13.204
12.8527
12.6519
12.2918
12.0935
11.9803
11.7394
39.2074
42.8654
29.9511
22.9094
13.3472
17.4328
17.8416
21.0515
19.2917
18.1193
15.3491
14.6217
13.2735
13.2176
13.2056
13.1004
12.8096
12.6158
12.541
12.3983
40.711
23.8997
21.2392
18.2047
17.3482
20.7404
20.9702
21.4492
19.0457
18.1076
16.0473
15.6874
15.0986
15.0307
14.6139
14.2437
13.8512
13.6008
13.4801
13.4366
47.3227
21.3696
21.6251
20.0921
22.4429
20.5328
17.3056
17.3397
15.4572
15.617
15.1235
15.2667
15.2451
15.3285
15.1198
14.9789
14.705
14.4785
14.159
14.0127
5.70122
11.9663
8.29359
3.56851
2.33676
4.4922
8.03669
11.4827
7.90386
7.49313
5.20954
4.71701
3.90704
3.85942
3.61421
3.58675
3.46232
3.40493
3.23143
2.76912
10.3205
13.8684
13.9527
17.1964
15.5421
15.613
12.0724
13.1372
10.0737
10.8795
8.86832
9.05801
8.08078
8.02837
7.56388
7.39796
6.9691
6.69579
6.30801
5.26739
12.0124
50.1803
49.0188
43.395
43.0702
39.5224
36.6568
34.2275
32.1106
30.6124
28.9209
27.867
26.6832
26.1014
25.5338
25.2194
25.1628
25.156
24.5937
23.1595
9.07419
36.6133
47.1203
46.7156
42.4156
40.3442
38.1062
37.3217
35.8733
34.9285
33.1897
31.742
29.9447
28.7135
27.3862
26.526
26.1144
25.6555
24.9668
23.1631
30.0626
42.2624
41.1048
41.4704
40.2127
39.9703
38.9829
40.137
39.8832
39.016
36.9898
34.8396
32.4057
30.0532
27.6186
25.8158
24.7414
23.8669
22.9328
21.3436
37.2901
49.7678
47.1081
46.9197
45.8681
45.1394
42.0228
42.2495
41.3916
41.2872
39.3593
37.266
34.7749
32.2921
29.1543
26.353
24.3169
22.8898
21.8976
20.5603
37.912
57.2421
53.3911
48.5863
50.3305
50.4816
47.4393
45.7677
42.6857
41.3318
38.7958
36.8464
34.8938
33.4874
31.0608
27.8365
24.8059
22.7928
21.862
20.907
17.2295
43.3124
48.1624
52.1714
52.7943
52.7116
48.9631
45.2674
39.5508
35.6411
33.7831
33.8865
33.7988
32.769
30.9989
28.9196
26.712
23.8988
21.6797
20.7879
13.3534
26.2174
46.3975
59.273
55.7158
52.7724
46.9055
40.8306
35.2323
30.3346
29.8661
31.1129
31.1032
29.8682
28.1951
26.6259
24.9534
22.7462
21.5847
21.089
20.4252
50.4321
56.7254
56.2733
50.8224
46.9802
43.8554
36.1258
30.198
26.9261
26.6513
27.5601
26.735
25.4799
24.0967
22.7529
22.1936
21.5101
21.33
20.9382
19.2374
48.8496
55.3644
55.2485
47.4836
41.3487
36.4796
32.2061
29.1269
27.1592
24.381
20.7008
18.1033
18.0012
18.2968
19.2545
19.9582
20.3607
20.6243
20.6953
35.6848
54.7109
55.8657
45.8793
37.021
33.007
29.7636
29.5885
28.6991
26.1041
6.76659
7.95991
10.951
12.394
15.1099
17.8895
18.5573
19.1978
19.6762
19.9697
11.1432
58.6596
60.1581
43.8476
33.8815
30.787
28.7799
29.1332
28.2202
26.0668
25.0987
24.6038
22.293
19.665
18.8221
19.152
19.1757
19.2995
19.5532
19.765
65.0328
56.5862
57.7266
45.3101
34.5053
34.8903
31.3291
31.8565
30.5167
29.2808
28.0481
26.1587
23.5727
21.3376
20.0328
19.3677
19.1928
19.1257
19.1717
19.2184
32.4602
53.5471
66.1478
57.7806
41.3587
38.7123
35.5013
34.815
32.7378
30.1289
27.7028
25.3299
23.0914
21.3435
19.9722
19.2684
18.783
18.4854
18.3843
18.2927
74.5535
77.1718
67.1784
52.9575
33.4537
34.1165
33.153
34.2137
30.9259
28.4398
26.0218
24.1398
22.39
20.9709
19.7935
18.9722
18.33
17.9021
17.6198
17.4622
88.682
75.587
60.4334
47.5972
30.9211
32.563
31.1477
32.8907
29.7626
27.3732
24.4927
23.0927
21.7198
20.8065
19.8424
19.1321
18.4841
18.0925
17.7988
17.6186
71.8107
58.6388
50.6436
35.8178
29.3978
34.502
33.4216
33.1157
29.0924
26.8154
24.1557
22.9702
21.6351
21.0024
20.2769
19.6722
19.1384
18.8433
18.6746
18.6166
38.8151
43.3186
47.1959
37.6011
37.4616
36.687
33.9994
31.4983
28.1034
26.3118
24.5623
23.8153
22.9944
22.3395
21.527
20.8932
20.3324
19.9993
19.8278
19.8349
32.3176
31.9868
33.3436
37.9923
34.5203
30.8083
26.8995
24.964
22.6631
22.1368
21.5296
21.5825
21.5381
21.442
21.0478
20.7452
20.3277
20.0177
19.6498
19.5284
4.33962
19.0302
14.7431
7.78734
7.64318
10.8408
12.3301
13.7112
9.62426
9.26832
6.68564
6.20738
5.2213
5.11724
4.76732
4.6448
4.44132
4.28111
4.02794
3.414
8.68115
29.3283
19.5386
20.8517
16.5661
15.7487
14.2294
13.6272
12.5291
12.674
11.1089
10.9817
9.81557
9.43443
8.78424
8.29054
7.68375
7.02444
6.43299
5.0662
33.4962
54.987
59.8572
54.2661
50.8614
45.6454
42.2911
38.6483
36.4898
34.3662
32.9663
31.7204
30.7501
29.8956
29.1598
28.3428
27.6392
26.6916
25.6994
23.9125
37.451
52.7288
61.0898
58.9696
54.5719
50.4364
47.5297
44.51
42.2014
39.713
37.6403
35.6528
33.9872
32.4415
31.0916
29.7006
28.5148
27.0359
25.7214
23.9914
74.3794
61.963
59.0571
55.5859
53.9058
51.9082
50.1371
48.3025
46.2132
43.3252
40.6286
37.78
35.2238
32.7217
30.5504
28.5833
26.9413
25.1814
23.7193
22.0352
44.803
61.9855
58.5451
58.3904
57.3886
55.3084
52.3567
50.7635
48.789
46.3471
43.5315
40.3355
37.2986
34.1668
31.1673
28.4879
26.3311
24.3533
22.9083
21.2761
11.1155
65.2078
62.7991
59.6383
60.7604
58.7886
55.0184
52.4837
49.518
46.9277
44.0521
41.2561
38.502
35.7499
32.6399
29.5655
27.0392
24.9662
23.6197
22.0756
32.501
65.7091
64.8922
63.7305
62.82
60.3392
55.1128
51.2103
46.2504
43.0283
40.8063
39.221
37.1123
34.7705
32.3427
29.9844
27.8371
25.6598
24.2834
23.1123
51.7525
53.4768
63.7711
68.7728
63.8168
59.5793
54.2226
47.8407
42.6342
38.6755
37.117
35.6116
33.7799
31.8007
28.1644
27.1663
25.995
24.6488
23.9336
23.0049
43.9932
64.4158
69.792
66.8146
58.5337
54.9764
50.8994
42.4338
37.2929
33.6503
31.6004
29.3998
27.4463
25.9364
23.8587
22.8613
23.1575
22.9012
22.7432
22.218
9.41632
37.4099
63.6617
64.5454
54.8009
48.7457
43.7938
37.8729
33.4824
30.0892
25.7434
21.6455
19.1161
18.9411
18.996
20.4821
21.5594
21.988
22.0903
21.8877
51.9062
53.4603
60.8549
55.6098
47.0961
43.456
39.9514
36.1342
32.8344
29.0493
13.384
11.9856
12.9521
14.9573
16.8429
19.4974
20.5967
21.1402
21.3497
21.5274
28.8624
57.6063
65.6052
54.3874
46.2106
42.6975
40.9528
37.0497
33.9922
31.236
28.9439
26.0114
22.6755
20.5898
19.2335
19.9876
20.5422
20.8402
21.0287
21.148
56.5084
68.0284
70.6
55.9772
47.8205
46.2495
42.3015
40.8355
36.9746
34.0563
30.8176
27.4341
24.4382
22.1607
20.3917
20.2485
20.1724
20.1532
20.188
20.3046
46.5009
68.1104
74.1106
65.2628
52.3519
48.6636
44.8501
42.483
38.401
34.5371
30.8679
27.5965
24.7734
22.6703
21.2278
20.2695
19.6605
19.3905
19.2417
19.2249
50.4114
85.1629
74.9983
59.214
47.7692
46.7646
44.2788
41.2911
36.6977
32.6323
29.2996
26.3704
24.0943
22.2543
20.8869
19.8805
19.1661
18.7267
18.4974
18.3661
100.063
80.9803
69.3571
55.9279
45.8237
45.894
42.5638
39.8734
34.9101
31.127
27.9649
25.6517
23.7312
22.1644
20.9224
19.9951
19.2915
18.8873
18.6422
18.532
57.5272
63.9557
64.1642
51.2813
47.6032
45.7947
41.8572
37.7132
33.0386
30.2032
27.4362
25.5441
23.772
22.4219
21.3168
20.5309
19.9819
19.7245
19.6244
19.6284
60.7542
61.9586
62.0049
53.1999
49.0805
43.7014
38.796
34.4726
30.9247
28.684
26.9504
25.6691
24.4705
23.3124
22.3386
21.6181
21.1154
20.8411
20.7517
20.8553
7.91508
27.4192
51.5829
46.2703
38.3363
32.7094
28.221
25.3915
23.1584
22.6411
22.1557
22.2241
22.03
21.8438
21.344
20.9565
20.5637
20.2955
20.043
20.0583
4.73751
28.3718
18.0129
19.5968
15.8339
16.121
12.4882
12.0918
9.08092
8.37346
6.81706
6.42343
5.72317
5.47262
5.05793
4.72873
4.42874
4.0935
3.8528
3.30048
6.13437
30.1942
10.0159
20.4994
6.1694
15.2512
5.71753
12.8231
5.58523
8.2955
5.22041
5.98066
4.63286
4.6445
4.02242
3.72357
3.28847
2.80995
2.45785
1.75104
59.4644
64.458
47.1523
55.6202
28.1532
44.9863
23.5256
36.6764
21.8848
30.2431
21.5433
25.6485
21.3293
22.885
20.6214
20.5602
19.0597
18.462
16.7379
14.7046
102.159
86.355
78.7625
68.0748
33.52
43.2253
27.4636
36.6415
25.3038
31.7444
24.4163
28.0077
23.7528
25.0214
22.4658
22.229
20.4423
20.0772
18.1418
16.1713
51.7825
72.5919
47.9241
63.2099
33.3188
55.9545
31.4317
42.612
29.4314
35.4006
27.6084
29.9637
25.1233
25.2803
22.3558
21.7154
19.5987
19.0726
17.1038
14.9038
24.6091
64.4355
46.3741
50.9197
35.5546
45.115
32.5384
39.6547
32.0851
36.4807
29.7494
30.5931
25.6427
24.9801
21.9816
21.1694
19.2723
18.9523
17.0263
14.4677
31.1955
68.7632
59.6361
67.1796
42.2044
55.8029
36.7778
44.5658
37.3209
39.8794
33.8113
32.8033
28.0562
25.9525
23.0976
21.7602
20.1302
19.5557
17.507
14.7435
42.9585
78.9579
72.968
69.8243
48.6762
61.0225
43.3684
44.3721
38.6155
39.7661
32.8885
31.4987
27.4679
26.4307
24.2653
22.8716
21.3484
21.041
19.1545
15.9353
83.1097
75.0437
65.1269
74.1883
46.2939
46.5851
53.8769
47.2263
41.2627
37.2662
34.2212
31.7517
29.4198
27.444
23.8437
22.9271
22.1231
21.6473
19.5297
15.9535
72.263
77.6186
76.3833
69.9874
57.7835
54.6193
48.6776
38.9493
33.3941
28.8392
25.7891
23.2624
21.6024
20.3515
19.6155
20.7603
20.9806
20.591
19.7307
16.2198
33.3524
67.1
47.9743
68.6403
42.6431
46.955
40.7202
32.8326
27.2308
22.9122
19.217
16.1719
15.4796
15.7742
16.9761
19.6564
20.2638
20.1685
19.2355
16.07
66.3889
55.3271
63.7366
38.7968
48.8504
42.9991
38.5541
31.9362
27.4104
23.7263
18.3288
14.2349
13.3465
14.4103
16.2372
19.2215
19.841
19.7915
18.7627
15.9976
51.7118
59.3537
66.4452
56.7184
49.2145
44.7029
41.7471
34.4434
30.247
26.6467
22.8965
19.2637
17.2569
16.2685
16.757
19.0259
19.4116
19.3066
18.6701
15.8536
48.7282
56.1151
69.9376
49.0112
50.4115
47.8265
43.2654
40.0438
34.4352
30.3807
26.1169
22.6458
19.9752
18.237
18.3752
18.4785
18.3866
18.2638
18.3047
16.0073
65.0949
44.0429
76.2735
57.0269
53.2411
49.8301
44.9144
42.033
36.3979
31.9491
27.6479
24.2688
21.6077
19.7266
18.5923
17.8728
17.5274
17.3413
17.3246
15.632
14.2982
63.4454
69.5845
56.2411
53.1893
41.3773
44.1187
40.8799
34.4044
29.9918
26.1408
23.2489
21.0958
19.4098
18.253
17.4828
17.0354
16.7501
16.7275
15.6747
105.769
52.4463
70.7212
48.5244
52.3868
49.8342
42.2838
38.4959
30.5408
28.4643
24.858
22.663
20.6366
19.2556
18.2075
17.5381
17.1208
16.9017
16.8762
15.7433
39.2102
78.7065
68.7039
44.5813
51.997
47.9127
38.3497
35.8095
30.1972
27.8742
24.5856
22.7563
20.8128
19.6094
18.6778
18.1546
17.8581
17.7346
17.7723
16.9054
36.2768
57.0389
65.1324
55.4077
48.9677
42.6889
31.3291
31.8621
24.9378
26.4973
22.9943
23.26
21.2111
20.6384
19.752
19.2045
18.8844
18.7655
18.8254
17.0237
7.34407
31.5336
38.0717
48.3105
35.712
29.5055
19.9386
22.6342
16.5235
20.8912
16.1699
19.7568
16.1344
17.7166
15.8221
16.3318
15.5701
16.3408
15.6132
13.7585
3.99973
15.1697
11.7531
20.2765
8.87805
14.6126
4.57249
5.5761
3.4521
3.64938
2.75742
2.75204
2.33257
2.24637
1.97944
1.84629
1.68536
1.59059
1.49527
1.27838
25.1655
25.2635
7.78015
30.3793
27.1623
27.8709
8.67239
21.6056
6.97827
7.14266
26.0487
22.8157
7.94496
8.35149
7.82676
26.3698
25.0952
28.9592
8.63733
30.7377
28.7357
6.5211
24.7545
23.9952
7.77321
7.70379
28.0593
25.9756
0.396427
0.461527
0.340149
16.0758
17.4542
15.4031
15.2914
0.310111
0.328046
0.279754
17.0095
14.1913
14.67
12.7267
0.230533
0.279026
0.283568
12.9782
11.2071
12.3981
12.0141
0.201961
0.270983
0.250432
10.6585
8.95486
11.8006
11.8804
0.204975
0.252645
0.247811
8.89076
11.2204
12.074
12.1832
0.246768
0.237618
0.209615
12.132
13.1832
11.9497
11.1829
0.241439
0.201498
0.186519
13.2935
13.1436
10.9504
10.6649
0.196621
0.182677
0.144503
13.0145
13.4095
10.605
11.0744
0.323103
0.430329
0.336379
13.698
14.0997
11.7829
12.5119
0.281349
0.330992
0.312714
13.7175
12.7672
12.6804
13.2503
0.290928
0.312179
0.289283
12.697
12.4814
13.3366
12.8529
0.261097
0.280092
0.237128
12.228
12.1365
12.3888
11.1658
0.242472
0.231108
0.213565
12.2338
11.804
11.0059
10.3823
0.189068
0.201051
0.165763
11.3799
10.0226
10.0301
8.4162
0.15887
0.154328
0.118922
9.66752
9.33383
7.82199
6.28087
0.134324
0.112791
0.0766907
9.34156
10.1889
6.19938
6.65506
0.311622
0.453248
0.252769
9.82275
11.7336
8.21026
10.4925
0.3228
0.241889
0.247153
12.234
13.4062
11.1228
12.3141
0.2979
0.2485
0.226507
13.5453
12.925
12.4491
11.8566
0.231902
0.215912
0.194901
12.4324
11.1622
11.5829
11.5692
0.206227
0.194336
0.202517
11.0498
10.7695
11.6705
11.7598
0.178967
0.203456
0.214393
10.5969
9.39605
11.7657
12.0124
0.133478
0.21951
0.215102
8.87014
6.69865
11.892
10.3202
0.0769495
0.194939
0.128298
6.22798
6.65165
9.58262
8.61431
0.240275
0.482963
0.31971
7.89711
10.3693
8.71129
11.7777
0.242119
0.319127
0.306836
11.1918
12.2576
12.4344
12.8205
0.214834
0.301517
0.295895
12.3282
11.7178
12.7435
12.5093
0.185801
0.294765
0.257682
11.441
11.3032
12.2091
11.2692
0.20065
0.243681
0.249293
11.3689
11.4742
11.1709
11.6468
0.226065
0.251566
0.25131
11.5909
12.3635
11.9135
11.9682
0.229258
0.240844
0.217977
12.3344
10.9826
11.8141
10.9227
0.128691
0.201273
0.141607
10.3111
9.17719
10.543
10.0547
22.9388
21.893
20.0376
38.0901
35.2033
35.6984
31.5933
18.2015
19.1583
16.7414
33.3625
28.5171
30.2815
27.1629
14.7143
16.3281
15.7595
27.1904
24.5373
26.5281
25.2883
12.467
15.5438
15.6198
23.8916
23.1849
24.9718
24.3875
15.242
15.7776
15.6478
23.6545
25.1771
24.1569
22.791
17.0303
15.3128
14.2605
25.4759
25.3608
22.1365
20.4004
16.7834
13.9606
13.5624
25.1345
24.3407
19.9772
19.3857
16.3897
13.4837
13.411
24.0533
23.6193
19.2961
19.2249
18.6956
16.9481
16.4513
32.9517
30.2847
28.4829
27.2655
16.7845
16.5672
16.9948
29.3108
27.0579
27.1207
26.5744
16.1613
17.0135
16.2277
26.5564
25.308
26.2386
24.5892
15.7411
15.7393
13.7955
24.9401
23.598
23.6867
12.6565
14.9225
13.3437
12.1437
23.0306
20.6692
11.3237
9.84487
12.6306
11.7146
10.0023
19.7858
17.5818
9.99771
10.0176
11.834
9.37068
7.95218
17.1464
16.8547
9.93387
10.3933
12.3328
7.91058
8.15719
16.9497
17.736
10.8148
12.1804
15.5253
13.0884
14.3599
25.9658
26.3915
24.9195
25.7676
17.1216
15.0108
16.1275
26.5847
26.5966
26.0501
26.1101
16.3127
16.2015
15.4516
26.3218
24.6834
25.8561
24.4732
13.8654
15.1182
14.8673
23.9088
12.6273
24.0074
23.0152
12.7626
14.8718
14.9501
11.3315
10.2463
22.7898
22.4038
11.2157
15.0408
15.0408
10.8322
11.6581
22.2105
20.7801
8.41572
14.7244
12.6748
11.555
11.4903
20.0211
17.8178
8.17904
11.8942
10.6026
11.7214
12.5276
17.2938
16.6496
14.3292
13.8637
15.4486
24.6141
25.6613
24.4611
26.4191
15.9715
16.0712
16.3661
25.95
25.8694
26.5585
26.2699
15.1935
16.1867
15.7604
25.5686
24.1261
25.7635
24.675
14.4993
15.4186
14.8788
23.6377
22.8621
24.323
24.2304
14.8282
14.7868
15.4387
22.8266
22.9653
24.0969
24.1682
15.5592
15.6309
15.4968
22.9171
21.8775
23.9708
22.6939
13.5255
15.1756
13.9369
21.1794
18.9856
22.0522
20.2373
11.1679
13.4461
12.1365
18.383
17.3201
19.6398
18.369
38.0301
38.9759
34.4783
46.046
43.5144
45.0271
39.7156
31.4318
33.1232
29.9321
41.6738
37.6234
38.322
34.9081
27.5215
29.2303
27.7328
36.4474
33.6875
33.9715
31.6043
26.3265
27.342
26.3504
33.0248
31.8408
30.9282
28.7582
27.4941
25.9458
24.1513
31.5477
30.3644
27.9535
25.3625
27.0486
23.4177
21.5482
29.919
28.5798
24.5151
22.4701
25.7943
21.109
20.4927
28.109
26.9391
22.0309
21.3889
24.8911
20.4046
20.2833
26.5992
25.9108
21.3002
21.1395
33.2474
31.9959
30.3294
42.8744
38.6689
39.2628
36.459
29.7331
30.0585
29.0926
37.4611
34.3555
35.7205
33.4337
27.6037
28.6321
26.596
33.4505
31.1106
32.666
30.1276
26.7218
26.623
26.734
28.8611
25.5008
28.1587
28.3068
19.1227
23.5272
20.5063
25.3018
19.2308
24.3022
20.5367
18.5111
7.8031
9.11022
21.9006
19.7888
8.7762
10.2965
17.8847
9.3985
10.7961
19.415
19.2095
10.9447
13.1515
18.756
11.4392
13.0766
19.2969
19.8499
13.873
15.506
29.5704
29.028
29.1397
38.2969
36.1137
38.4899
36.3975
29.1016
29.2273
28.822
35.5048
33.4796
35.8117
33.9806
26.7248
28.4478
26.8711
32.7615
30.3596
33.289
31.3066
18.9064
15.4171
26.236
23.28
22.3074
3.38575
27.6704
15.182
6.34678
16.6881
2.33851
16.3191
2.31887
15.3402
10.6731
23.6347
21.7775
9.02068
11.2296
25.183
22.6439
11.9431
20.9806
18.9964
11.8853
13.899
21.925
20.4785
13.4329
18.5595
17.8756
14.4984
15.6687
20.1325
19.3448
29.0377
27.4833
29.8485
38.51
36.5677
33.8241
38.0197
28.6332
29.7413
29.2226
35.9991
34.1565
37.3819
35.755
26.5799
28.5783
27.2486
33.4411
31.3802
34.7537
32.6454
25.2067
26.8997
26.6893
30.8298
29.4286
32.1609
30.9725
24.8365
26.4627
26.093
28.9394
27.2258
30.3546
28.5017
23.0567
25.7417
24.127
26.5109
24.0461
27.7907
25.5656
20.2024
23.422
21.5553
23.2853
21.5531
24.8087
22.9606
18.5323
20.9654
19.6056
21.1108
19.9609
22.4337
21.1619
44.2151
45.7702
40.1838
50.5275
42.7302
44.563
37.624
38.5088
38.7567
35.1664
40.9533
36.9531
35.9696
31.6011
34.3653
34.1275
31.4584
35.4283
31.7998
30.245
26.9072
32.1076
30.6955
28.2724
30.8545
28.6008
26.011
23.3355
29.9406
27.4031
24.7375
27.7046
25.5537
22.447
20.0118
27.939
23.8832
21.8214
24.9392
23.5922
19.2888
17.8441
26.27
21.4042
20.7927
23.0939
22.0666
17.6607
17.4316
25.353
20.7087
20.6311
21.7508
21.4222
17.3899
17.4761
39.1556
40.5832
37.1821
42.6654
36.5326
40.3367
35.0542
34.4962
36.2675
33.5493
34.9828
30.7413
33.7452
30.0837
30.8945
32.6994
30.1427
29.4028
26.3377
29.0434
26.4174
26.8569
28.4663
14.4813
25.4328
22.5089
25.263
20.0244
22.5622
13.2477
11.6356
21.5207
18.8137
18.6002
15.3046
19.4861
11.4386
11.7282
18.0168
16.3931
14.503
13.1814
18.8765
12.1727
13.911
16.2699
16.3545
13.2583
14.1679
19.4812
14.4769
15.8187
16.4203
16.8548
14.458
15.3295
36.9614
40.7716
37.5284
40.2264
35.1271
42.5956
36.668
33.636
36.7237
34.4562
33.8587
30.3895
35.3986
32.2236
30.4154
33.6745
31.5899
29.4178
26.9145
31.2284
28.8406
14.6342
30.9858
28.8305
25.8298
20.6855
28.0702
25.4054
11.7596
28.0658
25.6437
19.2789
15.9628
24.419
21.4763
12.5009
24.7719
22.134
15.1269
13.6771
20.523
18.1657
14.5014
21.4408
20.0521
13.6867
14.4008
17.7144
16.8576
15.9162
19.7027
18.9617
14.6241
15.3186
16.6583
16.3927
37.8432
37.7389
39.6423
43.3079
37.4366
44.5515
40.2737
34.7961
38.8735
36.8509
36.1599
32.9883
39.2317
36.308
31.8147
35.7145
33.3065
31.9694
29.3879
34.8126
31.5381
29.5646
32.753
31.1445
28.6379
26.0738
30.6937
27.999
26.824
30.3791
28.1051
25.1291
22.2754
26.8706
23.9208
23.4101
27.3329
25.0314
21.3417
19.045
23.0942
20.9621
21.0192
24.2825
22.4631
18.5399
17.4364
20.2702
18.7878
19.528
21.9634
20.7947
17.1614
16.6565
18.3787
17.6359
40.7637
42.6044
35.4576
27.3346
32.0089
28.0457
27.5246
34.9448
33.7932
29.4048
28.0476
26.5668
26.2651
22.7894
29.7817
28.0448
24.5011
25.2707
22.8971
21.7662
18.0641
26.6644
23.5381
20.9141
22.1616
20.4408
17.0537
14.9947
23.8311
20.0911
18.0022
19.7882
18.6671
14.5176
13.6814
22.0697
17.4872
16.7545
18.278
17.5538
13.7138
14.8468
20.6648
16.684
16.576
17.2172
16.6955
14.9731
14.9793
20.1689
16.5396
16.7287
16.4589
16.1182
14.9457
14.6128
34.3907
38.4457
33.0485
30.4138
26.7812
28.2677
25.7861
28.5873
31.768
28.123
25.5899
22.2456
24.8308
21.7636
23.846
26.9695
24.1526
21.0021
16.9054
20.2684
15.7622
20.127
23.0978
18.9821
15.8332
13.6716
14.5506
12.0255
16.8053
17.6612
14.4628
13.1743
12.267
11.3612
9.96979
15.4247
13.6886
12.7498
12.3365
13.8298
10.0327
11.86
15.7117
13.0391
14.0466
14.3848
14.6676
12.9257
14.1199
16.2429
14.3046
15.1399
14.6768
14.4918
14.2233
14.2388
33.1887
41.0242
34.8976
28.8561
26.0013
33.0048
27.2495
28.4918
33.6419
30.4866
25.046
22.0711
26.3213
23.8082
24.7376
29.4842
26.8658
20.624
16.1788
22.7496
18.9777
19.6497
26.0436
23.243
14.9578
12.3607
17.8548
15.3329
15.0576
22.2265
19.2825
11.6546
10.135
14.6322
13.0275
13.132
18.4056
16.7565
10.1657
11.9289
12.8947
13.9984
14.1993
16.5136
16.0119
12.9861
14.1495
14.5315
14.6569
15.1213
15.8868
15.8517
14.2418
14.2284
14.6364
14.3812
35.729
43.0494
38.7998
33.2588
27.8462
34.3547
31.1153
31.2663
37.6355
34.5273
26.9152
24.3284
29.6733
26.0935
27.4923
33.0676
29.8289
23.4907
20.0899
24.8093
22.7815
23.8825
28.882
26.0995
19.0134
16.5082
21.8248
19.4119
20.0814
24.9838
22.203
15.7986
14.223
18.5822
17.1322
17.6052
21.4121
19.5246
14.036
14.8588
16.5983
15.6305
16.4696
18.9005
17.6502
14.9309
14.7903
15.3145
14.8598
16.0359
17.2905
16.7912
14.7298
14.3669
14.6534
14.2752
24.2075
25.9146
21.8815
26.2597
23.655
27.2242
22.072
22.1058
25.8881
15.5937
23.4027
23.0634
27.2111
4.55551
15.3193
14.8536
10.1325
2.35497
17.9739
12.2708
2.70628
27.5662
29.9599
29.4569
29.7669
29.1215
29.3301
28.0694
24.7981
26.9327
28.3164
23.4602
28.0348
22.5674
25.5603
22.3848
23.7035
28.834
15.9593
28.1777
4.52539
24.808
15.3596
2.42524
15.8549
10.4424
12.4151
2.74652
18.8151
17.7796
22.5619
17.0765
22.2355
18.0184
23.2255
17.0207
9.53259
13.1417
6.36554
2.18074
11.7955
10.7888
2.05536
8.49153
10.5747
6.40916
4.42303
10.8083
9.10936
2.96609
19.5683
25.8654
24.9446
21.911
24.7848
20.9914
20.551
18.2298
22.6555
23.8293
18.427
23.6617
17.509
19.2998
9.88631
2.26143
14.3144
7.49981
11.0575
2.14934
13.1408
8.93415
4.59527
12.1467
7.62439
9.66778
3.02445
12.211
16.2927
10.0694
17.3668
2.47711
18.9668
2.80363
15.5848
27.0281
26.5177
25.9523
28.3472
25.6201
28.3444
27.8407
25.5253
23.4716
25.472
26.7946
24.3834
24.5019
27.2706
19.8784
23.7706
16.198
29.7048
3.66945
28.8505
24.931
16.9969
2.57302
10.477
19.4287
2.88739
16.2321
21.1196
28.2643
29.8401
30.4666
30.1195
29.6995
29.2634
29.2376
26.6233
28.0388
26.3903
29.4222
25.4954
28.626
27.6057
15.348
5.8813
16.0408
3.36874
16.1534
2.45593
14.9349
23.2937
22.866
24.4745
26.3306
22.4658
23.8105
25.9362
22.8112
21.6833
24.2584
25.1245
22.1051
22.2411
25.5637
15.552
2.43722
7.21538
18.4589
2.40115
15.8221
17.7044
15.6064
3.8096
6.77539
16.6673
2.65666
15.1421
17.0944
24.0126
27.4584
25.4558
27.4038
24.6875
26.9369
24.6089
23.3718
25.7915
23.0078
26.7151
22.6769
26.397
23.7883
1.4969
1.72322
1.42157
9.23579
11.9942
9.1204
11.7203
1.13937
1.2946
1.09244
13.0436
12.1335
12.8371
12.3433
0.833899
0.893516
0.783046
11.0625
9.95443
10.9459
10.0289
0.590539
0.715264
0.601376
8.15969
6.86865
8.66393
7.16547
0.560469
0.534037
0.589115
6.81331
7.4634
6.35132
7.048
0.673875
0.668012
0.727466
8.52317
9.64493
8.3098
9.59183
0.755107
0.754187
0.773327
10.4537
10.7141
10.0143
10.1852
0.706003
0.765294
0.671962
10.7799
13.3793
10.1517
12.8879
1.72745
2.29538
1.71626
9.87605
11.6232
9.57181
12.8157
3.88734
0.560353
0.527265
3.21483
3.99949
2.99105
0.376433
5.4519
0.356322
0.318572
5.59992
5.4244
5.59985
0.306681
3.83047
0.247843
0.236564
3.97948
3.69099
4.11153
0.229224
3.31958
0.218149
0.2258
3.46375
3.24756
3.4663
0.222746
3.10585
0.18264
0.198333
2.39049
2.48368
2.86787
0.211332
4.06886
0.235935
0.23954
3.78571
4.07161
3.93507
0.248967
4.16318
0.244359
0.237511
4.5045
4.52221
4.17484
0.238316
4.0777
0.230066
0.223841
4.45252
4.402
4.11018
0.221573
0.646173
0.660653
0.529306
9.61084
11.4141
8.74214
10.9358
1.47129
2.00582
1.32001
9.14835
10.9803
8.93148
10.1392
3.52472
0.358296
0.468924
2.46939
3.59593
2.45142
0.367821
4.20589
0.297972
0.30897
4.4134
4.29845
4.2359
0.293715
4.42584
0.289417
0.273444
4.11966
4.20865
4.21496
0.282383
4.26849
0.27197
0.284116
4.13674
4.01962
4.47578
0.274317
4.10485
0.257874
0.252189
4.06352
4.09426
4.06659
0.251123
3.64801
0.217136
0.218598
3.87412
3.74273
3.81443
0.203711
2.89515
0.168613
0.16115
3.30333
3.24708
3.02764
0.150446
2.79091
0.154892
0.130574
3.20518
3.2376
2.71913
0.129195
0.44656
0.373951
0.284058
7.42974
9.61407
5.9268
8.10155
1.31955
2.40713
1.41588
7.66319
7.69884
7.30554
6.88128
2.55251
0.358474
0.472467
2.18542
2.83665
2.11436
0.336349
4.23114
0.306355
0.290598
4.24814
4.4927
3.96393
0.29171
4.79937
0.319642
0.325007
4.91242
4.93288
4.76526
0.323626
4.2221
0.264413
0.284909
4.64997
4.36309
4.50887
0.260199
3.95492
0.216898
0.214601
3.88097
3.96843
3.78255
0.2116
4.12971
0.191692
0.203156
4.02795
3.93959
4.24799
0.201164
3.72173
0.166519
0.194215
3.395
3.18563
3.87685
0.190913
2.38209
0.112679
0.149425
2.01521
1.99322
2.64638
0.132116
0.257232
0.467899
0.347956
5.13456
7.01031
5.68669
7.07153
1.33615
1.99315
1.31994
6.925
6.72123
7.22045
7.27896
2.14752
0.330016
0.436364
2.02694
2.15773
2.03189
0.325554
3.97028
0.238076
0.231337
3.49452
3.85994
3.46657
0.233378
4.85558
0.233628
0.252397
4.3707
4.32831
4.81064
0.250965
4.48169
0.195096
0.235444
3.79499
3.79494
4.61428
0.228779
4.26237
0.197645
0.210462
4.24561
4.36024
4.32139
0.208701
3.72291
0.205502
0.200225
4.00387
3.93145
3.5358
0.215035
4.47306
0.240553
0.245881
4.49193
4.52963
4.48865
0.246332
3.84926
0.187015
0.21067
3.98657
3.75605
4.01517
0.192696
0.39163
0.574188
0.463154
6.71531
7.57659
7.0835