/*--------------------------------*- C++ -*----------------------------------*\
  =========                 |
  \\      /  F ield         | OpenFOAM: The Open Source CFD Toolbox
   \\    /   O peration     | Website:  https://openfoam.org
    \\  /    A nd           | Version:  10
     \\/     M anipulation  |
\*---------------------------------------------------------------------------*/
FoamFile
{
    format      ascii;
    class       volScalarField;
    location    "7.5";
    object      p;
}
// * * * * * * * * * * * * * * * * * * * * * * * * * * * * * * * * * * * * * //

dimensions      [0 2 -2 0 0 0 0];

internalField   nonuniform List<scalar> 
12920
(
-991365
-911428
-943344
-893940
-879097
-826992
-790377
-734139
-687216
-628411
-575746
-515977
-459901
-399621
-341364
-280776
-221261
-161305
-97360.1
-23659.4
-1.23191e+06
-1.00518e+06
-966688
-908937
-890928
-834414
-797494
-738712
-690629
-630911
-577526
-517239
-460664
-400273
-341771
-281016
-221491
-161668
-97848.7
-24283.7
-1.14768e+06
-999115
-1.02611e+06
-951376
-912794
-849147
-804280
-744539
-692811
-632741
-578969
-518687
-461673
-401213
-342502
-281664
-221824
-162274
-98453.9
-24906.6
-1.02187e+06
-1.02207e+06
-999267
-949743
-917860
-857805
-815369
-754411
-701689
-640636
-583406
-522072
-464001
-403231
-343991
-282813
-222683
-163139
-99202.6
-25521.7
-1.08662e+06
-983647
-1.02763e+06
-977428
-938778
-877994
-827860
-764614
-709870
-646112
-586653
-524426
-466335
-405196
-345552
-284175
-223746
-164136
-100007
-25923.4
-1.3225e+06
-1.03904e+06
-1.09448e+06
-1.00026e+06
-968037
-898147
-846164
-780632
-721273
-656328
-594303
-531533
-470093
-408242
-347679
-286007
-225283
-165293
-100658
-26176.1
-1.38153e+06
-1.1498e+06
-1.13893e+06
-1.06558e+06
-1.00461e+06
-928163
-865604
-794045
-731173
-664466
-601407
-536057
-473860
-411146
-349621
-288062
-226998
-166840
-101869
-26767
-1.61915e+06
-1.27099e+06
-1.22676e+06
-1.10858e+06
-1.04299e+06
-954280
-896936
-823644
-754212
-686686
-621617
-556143
-491494
-428126
-352288
-289998
-228895
-168504
-103058
-27197.4
-1.52872e+06
-1.36124e+06
-1.26863e+06
-1.14142e+06
-1.06958e+06
-988262
-922872
-846427
-773556
-704010
-636760
-570439
-504203
-439177
-367108
-292827
-230436
-170255
-104398
-27993.6
-1.76392e+06
-1.42576e+06
-1.30665e+06
-1.16472e+06
-1.08983e+06
-1.01247e+06
-940717
-861100
-785576
-713493
-644130
-576965
-511792
-446269
-373374
-294558
-232284
-171726
-105697
-28600.9
-1.98672e+06
-1.45613e+06
-1.35367e+06
-1.18179e+06
-1.10812e+06
-1.02686e+06
-953746
-872435
-794832
-720976
-650156
-584648
-517468
-449873
-376949
-297507
-234552
-173588
-107052
-29269.6
-1.66561e+06
-1.40446e+06
-1.32038e+06
-1.18163e+06
-1.11067e+06
-1.0309e+06
-962571
-881856
-802622
-728375
-658811
-590841
-523575
-456538
-380870
-302599
-237886
-175899
-108762
-30074.9
-1.54492e+06
-1.37332e+06
-1.32988e+06
-1.19027e+06
-1.11258e+06
-1.01286e+06
-962207
-881599
-806033
-733623
-662835
-592882
-523682
-455064
-373943
-306821
-242425
-178900
-110897
-31112.6
-1.72223e+06
-1.33606e+06
-1.30435e+06
-1.16757e+06
-1.11122e+06
-1.01213e+06
-945983
-866155
-796851
-723127
-654202
-583213
-514809
-446237
-379571
-311815
-245983
-181618
-112968
-32218.3
-1.14648e+06
-1.21868e+06
-1.22366e+06
-1.13394e+06
-1.08994e+06
-1.00052e+06
-942022
-863025
-798500
-726204
-659422
-588161
-520705
-451910
-384431
-316061
-249313
-184096
-114901
-33269.2
-1.54157e+06
-1.3158e+06
-1.30522e+06
-1.16641e+06
-1.10101e+06
-1.00701e+06
-944655
-866564
-800731
-729300
-662514
-592281
-525111
-455003
-388287
-319492
-252287
-186384
-116512
-34061.9
-1.26719e+06
-1.23361e+06
-1.21721e+06
-1.12737e+06
-1.07775e+06
-994470
-942417
-866866
-804035
-732728
-666369
-596423
-529282
-459968
-392594
-323113
-255110
-188312
-117696
-34672.4
-1.70217e+06
-1.34824e+06
-1.26574e+06
-1.14075e+06
-1.08361e+06
-999736
-941566
-866589
-803736
-732824
-667220
-597459
-530745
-461457
-394003
-324414
-256581
-189332
-118267
-34767.7
-1.21504e+06
-1.20193e+06
-1.20478e+06
-1.11144e+06
-1.07859e+06
-998163
-942284
-867724
-805780
-734315
-669022
-598750
-531949
-462319
-394731
-325074
-257290
-189606
-118187
-34623.7
-1.49091e+06
-1.23119e+06
-1.21837e+06
-1.13144e+06
-1.08113e+06
-996629
-938163
-866331
-804598
-733662
-668472
-598459
-531715
-462199
-394725
-325190
-257543
-189411
-117771
-34121.1
-885243
-999556
-957139
-898117
-880248
-827137
-790459
-734132
-687299
-628398
-575851
-515951
-459909
-399609
-341365
-280765
-221259
-161372
-97468.4
-23757.4
-1.17719e+06
-1.00309e+06
-965889
-908347
-890789
-834535
-797601
-738620
-690611
-630818
-577451
-517203
-460669
-400261
-341769
-281017
-221467
-161740
-97968.2
-24400.9
-1.10443e+06
-1.0148e+06
-1.02688e+06
-951545
-912889
-849271
-803815
-744588
-693165
-632930
-578975
-518622
-461661
-401177
-342488
-281652
-221821
-162367
-98598.9
-25021
-1.20152e+06
-1.05069e+06
-1.00523e+06
-950582
-918763
-857335
-816543
-754102
-701460
-640504
-583430
-522005
-463984
-403189
-343976
-282815
-222708
-163236
-99383.7
-25617.1
-971745
-988026
-1.02567e+06
-977772
-939619
-878300
-828058
-764583
-709925
-645989
-586673
-524629
-466343
-405158
-345552
-284268
-223792
-164257
-100235
-26091.5
-1.21825e+06
-1.0356e+06
-1.09188e+06
-1.00428e+06
-969831
-899256
-846878
-780684
-721225
-656233
-594211
-531268
-470071
-408182
-347693
-286070
-225314
-165397
-100910
-26360.3
-1.2838e+06
-1.1482e+06
-1.14566e+06
-1.06598e+06
-1.00525e+06
-927964
-864899
-793945
-730933
-664419
-601665
-536527
-473940
-411235
-349742
-288014
-226973
-166957
-102091
-26877.6
-1.61199e+06
-1.2447e+06
-1.22632e+06
-1.10705e+06
-1.04164e+06
-954072
-896723
-823505
-754130
-686673
-621558
-556199
-491455
-428090
-352025
-289890
-228843
-168576
-103281
-27350.5
-1.49947e+06
-1.34569e+06
-1.27204e+06
-1.14098e+06
-1.06928e+06
-988433
-923330
-845992
-773402
-703900
-636861
-570487
-504249
-439181
-366937
-292747
-230394
-170298
-104588
-28135.6
-1.63247e+06
-1.39327e+06
-1.30405e+06
-1.16391e+06
-1.08934e+06
-1.01248e+06
-941373
-861011
-785419
-713324
-643985
-576624
-511514
-445902
-372686
-294480
-232264
-171769
-105863
-28736.7
-1.87926e+06
-1.45188e+06
-1.35045e+06
-1.18069e+06
-1.10801e+06
-1.02682e+06
-954023
-872249
-794644
-720469
-649667
-584191
-517237
-450019
-376705
-297511
-234619
-173649
-107226
-29420.7
-1.66595e+06
-1.40265e+06
-1.32078e+06
-1.18121e+06
-1.11098e+06
-1.03163e+06
-963504
-881785
-802771
-728586
-659129
-590855
-523635
-456484
-380332
-302283
-237992
-176077
-108918
-30233.8
-1.48372e+06
-1.36352e+06
-1.3261e+06
-1.18756e+06
-1.11215e+06
-1.01295e+06
-962898
-881341
-806086
-733172
-662609
-592358
-523321
-454635
-373880
-306857
-242197
-178842
-111022
-31261
-1.71608e+06
-1.32029e+06
-1.29799e+06
-1.16827e+06
-1.10976e+06
-1.01035e+06
-946055
-865851
-796958
-723210
-654228
-583384
-514938
-446284
-379535
-311805
-245893
-181550
-113085
-32358.4
-1.24388e+06
-1.23348e+06
-1.22436e+06
-1.13425e+06
-1.08892e+06
-998985
-941609
-863175
-798315
-726343
-659173
-588468
-520669
-451951
-384195
-316010
-249254
-184042
-114980
-33342
-1.5635e+06
-1.32982e+06
-1.30781e+06
-1.16548e+06
-1.10136e+06
-1.0067e+06
-944586
-864923
-800457
-728270
-662385
-591624
-524776
-455039
-388248
-319432
-252185
-186304
-116569
-34116.9
-1.27198e+06
-1.24607e+06
-1.21638e+06
-1.12555e+06
-1.07697e+06
-993588
-942535
-866513
-803936
-732595
-666317
-596319
-529342
-459611
-392442
-322905
-255029
-188316
-117798
-34739.9
-1.57744e+06
-1.34354e+06
-1.2691e+06
-1.13965e+06
-1.08489e+06
-1.00024e+06
-941662
-866658
-803830
-732973
-667362
-597653
-530973
-461639
-394114
-324505
-256624
-189407
-118430
-34903.2
-1.13714e+06
-1.19472e+06
-1.20712e+06
-1.1115e+06
-1.07907e+06
-997461
-942596
-867765
-805972
-734495
-669226
-598896
-532103
-462448
-394846
-325170
-257353
-189688
-118324
-34698.6
-1.34068e+06
-1.21881e+06
-1.22156e+06
-1.12819e+06
-1.08201e+06
-995721
-938905
-866598
-804631
-733759
-668595
-598533
-531779
-462236
-394743
-325243
-257573
-189439
-117808
-34159.6
-715983
-934240
-940437
-892117
-879755
-826768
-790541
-733962
-687318
-628341
-575905
-515916
-459913
-399573
-341365
-280748
-221262
-161461
-97632.7
-23899.7
-1.06204e+06
-981235
-961692
-905460
-889905
-833858
-797468
-738523
-690588
-630685
-577393
-517119
-460645
-400223
-341771
-281006
-221463
-161858
-98191.9
-24596
-1.31959e+06
-1.03668e+06
-1.03048e+06
-951081
-912922
-849525
-803920
-744484
-693341
-632880
-578982
-518488
-461619
-401087
-342486
-281653
-221839
-162475
-98843.5
-25196.9
-1.18449e+06
-1.05898e+06
-1.00516e+06
-950116
-919649
-857052
-817113
-753995
-701543
-640561
-583464
-521797
-463915
-403086
-343920
-282759
-222751
-163386
-99645.1
-25772.2
-1.23353e+06
-1.0226e+06
-1.03097e+06
-980154
-940745
-878512
-828138
-764492
-709858
-645897
-586932
-524915
-466331
-405115
-345577
-284343
-223858
-164438
-100551
-26240.7
-1.24619e+06
-996868
-1.09261e+06
-1.00775e+06
-972102
-900149
-847456
-780587
-721069
-656056
-594137
-531493
-470032
-408412
-347696
-286082
-225301
-165555
-101300
-26572.4
-1.24052e+06
-1.13994e+06
-1.14728e+06
-1.06521e+06
-1.005e+06
-927594
-864251
-793616
-730608
-664304
-601738
-536651
-474197
-411147
-349704
-287948
-226891
-167053
-102419
-27078.2
-1.55797e+06
-1.22066e+06
-1.22303e+06
-1.10393e+06
-1.04011e+06
-953436
-896196
-823154
-754025
-686661
-621522
-556288
-491728
-428171
-351934
-289743
-228735
-168625
-103613
-27565.6
-1.4107e+06
-1.3185e+06
-1.27114e+06
-1.14038e+06
-1.0686e+06
-988619
-923476
-845428
-773248
-703791
-636901
-570423
-504307
-439244
-366744
-292723
-230326
-170350
-104852
-28259.6
-1.79973e+06
-1.3885e+06
-1.30521e+06
-1.16276e+06
-1.08822e+06
-1.01213e+06
-942062
-860777
-785081
-713024
-643700
-576385
-510864
-445128
-372003
-294467
-232220
-171834
-106093
-28860.1
-1.64829e+06
-1.41973e+06
-1.34738e+06
-1.17881e+06
-1.10686e+06
-1.02591e+06
-953708
-871675
-794204
-718047
-649146
-583494
-517408
-450674
-376324
-297512
-234655
-173750
-107444
-29514.6
-1.55199e+06
-1.37552e+06
-1.31816e+06
-1.17763e+06
-1.1105e+06
-1.03303e+06
-965325
-881552
-802586
-728738
-659372
-591250
-523791
-456295
-379487
-302145
-238023
-176215
-109170
-30385.7
-1.59597e+06
-1.36367e+06
-1.33299e+06
-1.18471e+06
-1.11195e+06
-1.01294e+06
-963844
-881431
-806200
-732877
-662255
-591792
-522915
-454272
-373762
-306670
-242004
-178801
-111232
-31410.9
-1.59779e+06
-1.33945e+06
-1.30738e+06
-1.16598e+06
-1.10823e+06
-1.00892e+06
-946144
-865390
-796929
-723204
-654317
-583486
-515175
-446327
-379492
-311747
-245727
-181480
-113257
-32396
-1.43706e+06
-1.24527e+06
-1.22511e+06
-1.13141e+06
-1.085e+06
-995889
-941358
-862883
-798230
-726421
-658819
-588624
-520437
-451921
-384020
-315936
-249127
-183952
-115067
-33343.1
-1.5546e+06
-1.33503e+06
-1.29863e+06
-1.16191e+06
-1.1004e+06
-1.00509e+06
-944540
-863937
-800211
-727571
-662140
-591416
-524507
-455092
-388192
-319361
-252052
-186174
-116591
-34085.5
-1.33878e+06
-1.24234e+06
-1.21146e+06
-1.12265e+06
-1.07534e+06
-992240
-942496
-865734
-803651
-732063
-666194
-596021
-529180
-459398
-392234
-322718
-254875
-188265
-117892
-34720.3
-1.61013e+06
-1.34507e+06
-1.26335e+06
-1.13799e+06
-1.08554e+06
-1.00029e+06
-941896
-866609
-803925
-732947
-667526
-597590
-531191
-461621
-394214
-324555
-256672
-189514
-118712
-35034.9
-1.19485e+06
-1.17811e+06
-1.19743e+06
-1.10998e+06
-1.07837e+06
-996645
-943234
-867866
-806353
-734720
-669469
-599050
-532289
-462566
-394965
-325256
-257398
-189795
-118550
-34806.9
-1.17465e+06
-1.18703e+06
-1.21401e+06
-1.12361e+06
-1.08088e+06
-995770
-939943
-866901
-804874
-733919
-668785
-598603
-531831
-462265
-394755
-325312
-257610
-189482
-117887
-34236.4
-692878
-957031
-946915
-892961
-880197
-826474
-790688
-733777
-687378
-628247
-575939
-515842
-459911
-399514
-341359
-280722
-221251
-161552
-97882.5
-24095.1
-894594
-958816
-958035
-903517
-889688
-833812
-797466
-738264
-690562
-630582
-577335
-517031
-460604
-400178
-341740
-280965
-221431
-161944
-98512.5
-24863.2
-1.26957e+06
-1.04803e+06
-1.0289e+06
-951329
-913102
-849118
-803808
-744262
-693403
-633062
-578985
-518334
-461597
-400986
-342509
-281677
-221809
-162549
-99168.5
-25453.1
-1.26074e+06
-1.07909e+06
-1.01022e+06
-951009
-920784
-857423
-817805
-753948
-701893
-640249
-583485
-521899
-463864
-403121
-343989
-282873
-222802
-163497
-99973.2
-25991.5
-1.23714e+06
-1.04894e+06
-1.03213e+06
-981526
-941563
-878697
-828172
-764367
-709589
-645765
-587020
-525177
-466337
-405210
-345611
-284336
-223922
-164613
-100867
-26378.4
-1.16755e+06
-1.02321e+06
-1.09983e+06
-1.01264e+06
-974465
-900954
-847954
-780468
-720922
-655935
-594433
-531520
-470383
-408379
-347736
-286092
-225318
-165724
-101670
-26790.6
-1.26778e+06
-1.13762e+06
-1.14941e+06
-1.06616e+06
-1.00483e+06
-927337
-863843
-793401
-730484
-664312
-601793
-536619
-474213
-411132
-349639
-287873
-226813
-167176
-102803
-27322.2
-1.40688e+06
-1.19594e+06
-1.22414e+06
-1.10296e+06
-1.0395e+06
-953089
-895793
-822808
-754018
-686647
-621498
-556263
-491824
-428169
-351819
-289653
-228627
-168703
-103964
-27796.7
-1.47496e+06
-1.29877e+06
-1.2695e+06
-1.13949e+06
-1.06805e+06
-988840
-923503
-845102
-773125
-703661
-636827
-570341
-504463
-439398
-366693
-292667
-230259
-170403
-105105
-28374.7
-1.65838e+06
-1.34018e+06
-1.29349e+06
-1.15972e+06
-1.08692e+06
-1.01172e+06
-942421
-860492
-784720
-712732
-643543
-576505
-510649
-444704
-371659
-294416
-232180
-171895
-106301
-28916.1
-1.6436e+06
-1.40956e+06
-1.34247e+06
-1.17782e+06
-1.10508e+06
-1.02489e+06
-953327
-871095
-793777
-718589
-649464
-583629
-517603
-450902
-375886
-297436
-234652
-173837
-107681
-29579.3
-1.57362e+06
-1.35385e+06
-1.32138e+06
-1.17366e+06
-1.10993e+06
-1.03469e+06
-966557
-881278
-802470
-728842
-659299
-591291
-523708
-456016
-378816
-301978
-238021
-176300
-109443
-30454.1
-1.61211e+06
-1.34866e+06
-1.32992e+06
-1.17857e+06
-1.11081e+06
-1.01246e+06
-963946
-881535
-805987
-732467
-661909
-591218
-522603
-453936
-373508
-306546
-241877
-178799
-111472
-31513.2
-1.51945e+06
-1.33029e+06
-1.30577e+06
-1.16003e+06
-1.10643e+06
-1.00758e+06
-946000
-864931
-796778
-723116
-654344
-583422
-515352
-446301
-379456
-311726
-245610
-181436
-113436
-32443.2
-1.46026e+06
-1.26016e+06
-1.22436e+06
-1.12963e+06
-1.0829e+06
-994585
-940886
-862420
-798146
-726418
-658609
-588690
-520259
-451756
-383908
-315851
-249011
-183867
-115182
-33348.2
-1.52857e+06
-1.33195e+06
-1.29972e+06
-1.15987e+06
-1.10037e+06
-1.00436e+06
-944264
-863682
-799955
-727509
-661797
-591331
-524330
-455077
-388087
-319256
-251934
-186122
-116662
-34045.5
-1.27871e+06
-1.23873e+06
-1.21541e+06
-1.12274e+06
-1.07299e+06
-991610
-942042
-864916
-803233
-731712
-666002
-595927
-529108
-459460
-392115
-322601
-254774
-188226
-117956
-34647.2
-1.61675e+06
-1.33874e+06
-1.2692e+06
-1.1354e+06
-1.08524e+06
-999864
-942071
-866309
-803967
-732793
-667935
-597599
-531380
-461618
-394319
-324627
-256692
-189578
-119019
-35162
-1.06732e+06
-1.1544e+06
-1.19687e+06
-1.11177e+06
-1.07726e+06
-996137
-943638
-867806
-806779
-734609
-669495
-598929
-532236
-462471
-394966
-325269
-257434
-189909
-118834
-34966.4
-1.25623e+06
-1.17324e+06
-1.21301e+06
-1.12061e+06
-1.07883e+06
-994745
-940141
-866596
-804893
-733807
-668733
-598553
-531837
-462257
-394767
-325297
-257578
-189557
-118069
-34344.3
-772931
-933659
-946825
-891921
-880028
-826389
-790707
-733685
-687401
-628188
-575955
-515765
-459904
-399429
-341358
-280691
-221242
-161639
-98103.2
-24243.6
-758746
-927174
-959110
-903020
-889044
-833729
-797529
-738180
-690605
-630425
-577230
-516951
-460501
-400134
-341636
-280853
-221376
-162017
-98849
-25102.5
-1.1899e+06
-1.02887e+06
-1.03026e+06
-949566
-913566
-848421
-804049
-743637
-693289
-632781
-578960
-518165
-461599
-400957
-342609
-281737
-221713
-162572
-99520.5
-25730.8
-1.23044e+06
-1.07133e+06
-1.01252e+06
-950890
-921128
-857595
-817821
-753929
-702174
-640061
-583531
-521892
-463904
-403084
-344063
-282895
-222890
-163642
-100301
-26223.8
-1.17438e+06
-1.04605e+06
-1.03121e+06
-981167
-941806
-878681
-828072
-764244
-709431
-645720
-587300
-525313
-466544
-405256
-345652
-284337
-223909
-164702
-101127
-26544.9
-1.12919e+06
-1.00946e+06
-1.10963e+06
-1.01414e+06
-975907
-901214
-848240
-780357
-720924
-655826
-594681
-531448
-470422
-408363
-347757
-286090
-225311
-165828
-101986
-26953.4
-1.4437e+06
-1.13838e+06
-1.15094e+06
-1.06634e+06
-1.00498e+06
-927229
-863618
-793198
-730245
-664235
-601601
-536592
-474094
-411137
-349623
-287833
-226773
-167271
-103110
-27507.6
-1.3699e+06
-1.1851e+06
-1.2252e+06
-1.10201e+06
-1.03918e+06
-952717
-895522
-822626
-753916
-686617
-621446
-556222
-491857
-428214
-351835
-289626
-228552
-168796
-104239
-27962.6
-1.49211e+06
-1.28616e+06
-1.27548e+06
-1.13922e+06
-1.06781e+06
-989103
-923281
-844943
-772956
-703536
-636676
-570316
-504699
-439593
-366764
-292708
-230212
-170477
-105384
-28547.4
-1.64936e+06
-1.31573e+06
-1.2947e+06
-1.15887e+06
-1.08655e+06
-1.01151e+06
-942428
-860287
-784453
-712566
-643627
-576767
-510823
-444743
-371535
-294429
-232133
-171949
-106552
-29030.9
-1.49819e+06
-1.38579e+06
-1.34166e+06
-1.17652e+06
-1.10451e+06
-1.02509e+06
-953348
-870831
-793480
-719803
-649990
-583431
-517546
-450728
-375511
-297384
-234611
-173893
-107936
-29697
-1.47969e+06
-1.33642e+06
-1.32288e+06
-1.17161e+06
-1.10865e+06
-1.03391e+06
-966531
-881075
-802498
-728947
-659166
-591088
-523611
-455785
-378375
-301883
-237979
-176378
-109706
-30542.6
-1.49675e+06
-1.33804e+06
-1.32849e+06
-1.17688e+06
-1.10868e+06
-1.01196e+06
-963282
-880609
-805423
-731935
-661298
-590853
-522321
-453710
-373436
-306568
-241838
-178826
-111700
-31546.8
-1.46924e+06
-1.33522e+06
-1.30222e+06
-1.15749e+06
-1.10469e+06
-1.0068e+06
-945883
-864687
-796719
-723157
-654384
-583241
-515383
-446225
-379441
-311735
-245546
-181429
-113630
-32529.7
-1.35499e+06
-1.25282e+06
-1.22183e+06
-1.12766e+06
-1.08084e+06
-993503
-940180
-862023
-798151
-726443
-658619
-588843
-520251
-451567
-383921
-315795
-248933
-183856
-115353
-33434.6
-1.52739e+06
-1.3308e+06
-1.29993e+06
-1.15957e+06
-1.09851e+06
-1.00431e+06
-943908
-863440
-799717
-727376
-661542
-591219
-524145
-455035
-387942
-319182
-251854
-186118
-116820
-34094.9
-1.26773e+06
-1.22015e+06
-1.21562e+06
-1.1212e+06
-1.07022e+06
-991145
-941532
-864557
-802973
-731600
-665859
-595975
-529016
-459525
-392021
-322536
-254715
-188224
-118125
-34638.4
-1.71555e+06
-1.32832e+06
-1.27933e+06
-1.13431e+06
-1.08468e+06
-1.00013e+06
-942410
-866167
-804110
-732745
-668094
-597644
-531467
-461705
-394336
-324626
-256674
-189625
-119322
-35244
-1.14283e+06
-1.1576e+06
-1.19528e+06
-1.11187e+06
-1.07648e+06
-995816
-943690
-867743
-806978
-734539
-669545
-598872
-532253
-462445
-395023
-325309
-257467
-190004
-119142
-35144
-1.07951e+06
-1.15323e+06
-1.21054e+06
-1.11797e+06
-1.07758e+06
-994380
-940262
-866406
-804928
-733718
-668711
-598502
-531832
-462230
-394780
-325271
-257552
-189623
-118264
-34458.2
-660807
-716430
-664868
-712795
-660631
-716050
-664809
-592892
-647517
-599262
-643561
-592957
-647718
-599263
-666697
-726314
-673427
-717682
-666790
-726321
-673547
-600922
-656573
-605929
-649361
-600728
-656580
-605839
-867372
-936717
-877303
-923204
-867088
-937060
-877275
-793346
-857828
-801256
-846171
-793197
-857762
-801194
-723000
-782894
-728989
-773453
-722931
-782814
-728947
-655195
-711484
-659684
-703914
-655276
-711429
-659626
-589206
-642676
-592032
-636825
-589271
-642593
-591964
-522951
-575486
-526513
-570497
-522858
-575342
-526242
-457585
-510237
-461178
-504252
-457674
-509986
-460896
-393211
-444735
-395099
-439188
-393125
-444421
-394686
-880774
-950406
-889696
-941134
-880727
-950706
-889678
-804066
-869711
-811561
-861051
-803990
-869682
-811501
-731153
-792700
-737206
-785478
-731050
-792606
-737008
-661210
-719146
-665830
-713382
-661134
-718855
-665592
-593520
-648615
-598222
-644047
-593274
-648344
-598037
-528082
-582128
-532863
-576725
-527882
-582066
-532653
-462657
-515978
-465544
-511660
-462516
-515811
-465500
-397065
-449017
-399788
-446068
-396624
-448986
-399581
-892577
-960565
-899621
-953872
-892483
-960751
-899581
-813826
-879430
-819839
-872329
-813719
-879375
-819943
-739109
-800597
-744579
-794724
-738913
-800664
-744591
-667431
-726308
-672649
-720634
-667184
-726283
-672791
-600255
-655689
-606281
-649850
-600316
-656172
-606227
-534397
-589393
-538777
-584382
-534258
-589343
-538727
-466604
-521943
-471690
-517315
-466515
-521929
-471849
-400788
-455056
-404606
-449914
-400739
-455177
-404539
-902144
-969772
-909572
-963030
-902170
-970208
-909684
-821895
-887160
-831577
-881823
-822067
-887121
-831399
-746642
-810726
-758186
-802796
-746829
-810471
-758008
-675535
-738083
-687071
-728533
-676002
-737754
-687150
-607773
-667241
-616624
-659031
-607841
-667277
-616916
-540448
-597103
-548363
-590842
-540429
-597208
-548549
-473319
-529012
-479974
-523548
-473342
-529054
-479810
-406026
-460893
-412460
-456509
-405895
-460603
-411900
-866889
-937242
-877242
-923338
-866422
-937648
-877120
-793079
-857717
-801151
-845548
-792797
-857541
-800985
-722918
-782768
-728921
-773258
-722860
-782593
-728793
-655323
-711395
-659596
-703808
-655370
-711233
-659483
-589290
-642554
-591932
-636898
-589278
-642432
-591867
-522848
-575289
-526079
-570448
-522899
-575188
-525722
-457660
-509841
-460748
-504296
-457708
-509384
-460211
-393006
-444263
-394405
-439227
-392908
-443735
-393910
-880704
-950855
-889629
-941826
-880603
-950851
-889311
-803939
-869629
-811430
-860846
-803715
-869296
-811070
-730996
-792526
-736889
-785176
-730776
-792148
-736334
-661081
-718702
-665473
-713109
-660874
-717587
-664980
-593178
-648193
-597914
-643760
-592938
-647709
-598377
-527749
-581912
-532540
-576411
-527256
-581778
-532296
-462366
-515727
-465502
-511010
-461787
-515665
-465703
-396303
-448988
-399435
-445310
-395671
-449128
-399165
-892409
-960968
-899576
-953664
-891958
-961322
-899510
-813645
-879317
-819883
-871828
-813333
-879050
-819600
-738787
-800636
-744586
-794321
-738183
-800471
-744553
-667042
-726271
-672948
-719137
-666694
-726287
-673332
-600251
-656344
-606196
-649192
-600902
-656524
-606011
-534174
-589305
-538744
-583856
-533996
-589191
-538947
-466608
-521988
-471925
-517313
-467162
-522262
-472049
-400670
-455203
-404458
-450538
-400537
-455204
-404244
-902211
-970878
-909744
-964650
-902358
-971547
-910028
-822004
-887074
-831368
-881624
-821746
-887045
-831591
-746872
-810461
-757972
-802630
-746959
-810613
-757939
-676156
-737662
-687172
-728716
-676429
-737503
-687172
-607893
-667307
-617066
-659342
-608230
-667363
-617236
-540448
-597287
-548575
-591157
-540621
-597389
-548119
-473339
-529042
-479744
-523769
-473291
-528671
-479466
-405712
-460457
-411595
-456354
-405248
-460032
-411050
-866304
-937854
-877084
-923361
-866061
-938076
-876985
-792737
-857482
-800920
-845154
-792580
-857323
-800714
-722870
-782525
-728731
-773138
-722847
-782319
-728559
-655377
-711164
-659441
-703691
-655346
-710992
-659306
-589255
-642395
-591870
-636853
-589174
-642286
-591908
-522900
-575183
-525658
-570367
-522972
-575247
-525615
-457731
-509255
-460042
-504416
-457849
-509175
-459814
-392806
-443565
-393714
-439359
-392854
-443312
-393610
-880558
-950939
-889181
-942296
-880402
-950698
-888798
-803622
-869163
-810942
-860559
-803342
-868762
-810594
-730683
-792023
-736203
-784802
-730448
-791698
-735844
-696471
-695497
-714447
-712938
-696685
-695425
-714243
-628181
-626586
-645140
-643637
-628170
-626526
-645117
-527140
-581684
-532271
-576451
-527069
-581631
-532237
-461618
-515702
-465808
-510646
-461257
-515772
-465941
-395401
-449202
-399035
-444752
-395173
-449277
-398853
-891804
-961812
-899449
-953308
-891353
-962730
-899246
-813210
-878946
-819509
-871219
-812845
-878653
-819284
-738076
-800411
-744541
-793871
-737736
-800254
-744496
-703549
-701718
-721582
-717487
-703677
-701549
-721431
-634537
-632068
-651147
-649636
-634414
-632172
-651214
-534015
-589169
-539015
-583344
-534069
-589161
-539122
-467325
-522338
-472055
-517599
-467642
-522396
-471962
-400423
-455173
-404030
-450913
-400247
-454991
-403581
-902389
-972103
-910111
-966265
-902403
-973142
-910228
-821659
-887002
-831618
-881343
-821462
-886881
-831536
-746976
-810677
-757924
-802489
-747015
-810718
-757842
-676463
-737438
-687123
-728810
-676433
-737229
-686816
-608316
-667348
-617211
-659329
-608347
-667094
-616891
-540637
-597362
-547923
-591317
-540571
-596923
-547383
-473261
-528497
-479378
-523749
-473109
-527939
-479086
-404993
-459904
-410823
-456090
-404531
-459550
-410572
-866034
-938208
-876953
-923236
-865966
-938217
-876866
-792554
-857275
-800644
-844957
-792456
-857149
-800457
-722852
-782254
-728513
-773003
-722811
-782085
-728392
-655328
-710952
-659266
-703569
-655268
-710861
-659230
-589143
-642258
-591917
-636730
-589084
-642272
-591992
-522998
-575272
-525649
-570327
-523147
-575391
-525827
-457887
-509202
-459803
-504651
-458047
-509368
-459914
-392785
-443304
-393503
-439552
-392983
-443422
-393691
-880354
-950739
-888684
-942378
-880228
-950611
-888455
-803257
-868635
-810489
-860327
-803040
-868368
-810221
-730394
-791607
-735769
-784507
-730256
-791362
-735930
-660590
-717029
-664878
-712586
-660583
-717853
-665099
-593035
-647807
-598497
-643590
-593259
-648060
-597945
-527080
-581674
-532200
-576694
-527221
-581409
-532110
-461210
-515749
-465930
-510755
-461228
-515681
-465841
-395042
-449256
-398700
-444697
-395109
-449145
-398558
-891236
-962975
-899197
-953268
-891044
-962886
-899126
-812736
-878576
-819230
-870862
-812478
-878442
-819168
-737669
-800214
-744482
-793540
-737924
-800153
-744486
-666715
-726299
-673545
-719739
-666912
-726327
-673587
-600841
-656567
-605920
-649850
-599940
-656586
-606018
-534057
-589214
-539130
-583394
-534017
-589268
-539069
-467646
-522392
-471901
-517562
-467551
-522335
-471698
-400095
-454904
-403369
-450782
-399913
-454654
-403147
-902384
-973622
-910196
-966571
-902242
-973780
-909986
-821424
-886789
-831426
-881120
-821427
-886483
-830912
-747027
-810688
-757786
-802476
-747074
-810393
-757508
-676417
-737131
-686644
-728919
-676328
-736740
-685976
-608300
-666944
-616732
-659206
-608090
-666300
-616233
-540523
-596712
-547253
-591111
-540422
-596167
-546938
-473044
-527817
-479014
-523623
-472873
-527556
-478843
-404319
-459468
-410375
-455829
-404113
-459282
-410302
-865971
-938281
-876850
-922836
-865785
-938056
-876795
-792432
-857121
-800412
-844723
-792192
-857052
-800298
-722781
-782045
-728361
-772733
-722618
-781946
-728291
-655234
-710845
-659245
-703350
-655064
-710813
-659297
-589054
-642302
-592036
-636478
-588972
-642394
-592183
-523179
-575451
-525902
-570267
-523204
-575608
-526101
-458085
-509447
-459986
-504754
-458151
-509652
-460149
-392944
-443492
-393647
-439666
-393164
-443620
-393871
-880203
-950645
-888419
-942089
-880133
-950481
-888344
-802986
-868321
-810150
-860193
-802853
-868223
-809975
-730225
-791291
-735938
-784315
-730155
-791107
-735895
-660622
-717901
-665172
-712538
-660728
-717945
-665326
-593330
-648155
-598022
-643771
-593509
-648375
-598109
-527296
-581475
-532132
-576941
-527508
-581631
-532282
-461288
-515689
-465817
-511020
-461436
-515798
-465798
-395042
-449114
-398435
-444859
-395234
-449068
-398484
-891033
-962710
-899112
-953306
-891006
-962224
-899018
-812420
-878423
-819181
-870778
-812264
-878370
-819188
-737940
-800150
-744507
-793308
-737902
-800087
-744501
-667012
-726374
-673648
-719871
-667182
-726428
-673796
-599977
-656617
-606018
-650189
-599970
-656674
-605997
-534018
-589261
-539045
-583482
-534091
-589232
-539043
-467504
-522283
-471632
-517573
-467403
-522229
-471484
-399769
-454582
-403011
-450612
-399775
-454443
-403104
-902172
-973645
-909910
-965979
-901955
-973161
-909722
-821473
-886416
-830794
-880963
-821578
-886204
-830463
-747095
-810286
-757383
-802504
-747076
-810039
-757071
-676297
-736612
-685807
-728961
-676281
-736296
-685404
-608045
-666113
-616101
-659087
-607998
-665779
-615766
-540421
-596071
-546889
-591078
-540482
-595868
-546735
-472829
-527505
-478807
-523622
-472763
-527405
-478706
-403980
-459230
-410202
-455715
-404053
-459104
-410315
-679208
-678132
-662087
-660742
-679367
-678057
-662003
-698697
-716268
-699620
-716227
-698844
-715968
-698869
-680896
-663558
-682516
-664415
-681052
-663421
-682119
-696378
-712860
-695275
-714149
-695350
-714126
-696406
-679120
-660681
-677920
-661898
-677985
-661931
-679122
-698610
-715937
-715917
-699281
-715822
-698867
-698522
-680781
-664319
-663367
-682332
-663329
-682029
-680819
-611584
-609633
-594817
-592881
-611492
-609576
-594964
-629361
-646409
-630485
-647091
-629376
-646332
-630133
-612463
-596217
-614371
-599231
-612406
-596544
-614034
-628148
-643589
-626507
-645017
-626497
-645070
-628088
-611577
-592906
-609623
-594851
-609572
-594981
-611477
-629349
-647003
-646328
-630681
-646296
-630032
-629361
-612529
-599332
-596282
-614516
-596619
-613962
-612443
-685694
-684430
-668172
-667155
-685789
-685040
-668166
-705056
-723623
-708303
-726337
-705296
-723463
-708377
-687571
-670439
-690662
-673500
-687654
-670481
-690757
-703556
-717176
-701556
-721338
-701582
-721316
-703548
-685687
-667182
-684384
-668334
-685096
-668248
-685822
-705041
-726339
-723505
-708400
-723416
-708412
-705261
-687598
-673537
-670617
-690811
-670538
-690807
-687751
-618046
-616096
-601923
-601312
-618101
-616437
-601745
-637511
-653787
-639682
-656606
-637418
-653880
-639683
-621308
-604392
-622795
-605855
-621099
-604476
-622731
-634533
-649668
-632221
-651315
-632187
-651264
-634528
-617969
-601335
-616065
-601740
-616346
-601719
-617965
-637490
-656597
-653920
-639626
-653924
-639663
-637361
-621263
-605805
-604207
-622693
-604425
-622688
-620973
-864309
-904348
-869834
-896927
-864291
-904336
-869490
-791825
-831910
-796815
-823699
-791831
-831685
-796797
-723618
-760575
-727647
-754198
-723603
-760494
-727660
-657201
-692140
-660419
-686709
-657224
-692101
-660453
-592706
-626074
-595419
-621563
-592672
-626059
-595432
-527580