/*--------------------------------*- C++ -*----------------------------------*\
  =========                 |
  \\      /  F ield         | OpenFOAM: The Open Source CFD Toolbox
   \\    /   O peration     | Website:  https://openfoam.org
    \\  /    A nd           | Version:  10
     \\/     M anipulation  |
\*---------------------------------------------------------------------------*/
FoamFile
{
    format      ascii;
    class       volScalarField;
    location    "7.5";
    object      turbidity_0;
}
// * * * * * * * * * * * * * * * * * * * * * * * * * * * * * * * * * * * * * //

dimensions      [0 0 0 0 0 0 0];

internalField   nonuniform List<scalar> 
12920
(
-0.0181276
-0.0296375
-0.0488387
-0.0663117
-0.0752282
-0.0871376
-0.111712
-0.136946
-0.169246
-0.195133
-0.220786
-0.238119
-0.251995
-0.259437
-0.264305
-0.267935
-0.273076
-0.274378
-0.272599
-0.275077
-0.0307274
-0.0565551
-0.0683824
-0.08482
-0.0936147
-0.107402
-0.12908
-0.151815
-0.182716
-0.211688
-0.236988
-0.258788
-0.278341
-0.297839
-0.318106
-0.339771
-0.362564
-0.385112
-0.405347
-0.420968
-0.0320386
-0.065288
-0.0799651
-0.0986027
-0.117332
-0.132358
-0.150903
-0.170002
-0.188753
-0.206306
-0.221679
-0.237415
-0.254303
-0.274633
-0.299528
-0.330355
-0.366572
-0.405172
-0.438516
-0.461312
-0.0155624
-0.0378997
-0.0696557
-0.0966828
-0.113667
-0.131136
-0.145311
-0.16227
-0.176361
-0.188472
-0.199365
-0.211331
-0.228076
-0.24948
-0.275927
-0.309533
-0.352622
-0.404606
-0.460206
-0.513046
-0.00649803
-0.0275125
-0.0492355
-0.0670967
-0.0821296
-0.0965746
-0.111103
-0.128852
-0.147216
-0.164775
-0.178308
-0.189495
-0.205752
-0.226524
-0.253353
-0.286988
-0.332236
-0.390745
-0.458154
-0.525449
-0.0756851
-0.0372447
-0.0511899
-0.0715734
-0.083177
-0.0918457
-0.102928
-0.114865
-0.131381
-0.148443
-0.167423
-0.186584
-0.205949
-0.225015
-0.244632
-0.270101
-0.302864
-0.348836
-0.410624
-0.48184
-0.0248942
-0.0418662
-0.0476712
-0.060776
-0.0752546
-0.0876503
-0.101191
-0.118789
-0.142617
-0.169439
-0.193203
-0.212281
-0.222601
-0.226635
-0.227415
-0.235396
-0.255044
-0.282272
-0.318052
-0.369462
-0.00880416
-0.0265911
-0.0446364
-0.0580655
-0.0752104
-0.0878626
-0.088866
-0.0927998
-0.105121
-0.121474
-0.135658
-0.13773
-0.130618
-0.119321
-0.116739
-0.152014
-0.195112
-0.246344
-0.302434
-0.36252
-0.0200842
-0.038799
-0.0533373
-0.0678139
-0.0985113
-0.100279
-0.100969
-0.105088
-0.10325
-0.110722
-0.120827
-0.116838
-0.106726
-0.0972124
-0.0925831
-0.130294
-0.185964
-0.242446
-0.298199
-0.346575
-0.0196741
-0.0347165
-0.0522638
-0.0689164
-0.0990022
-0.105047
-0.11392
-0.116555
-0.116707
-0.113363
-0.110871
-0.109678
-0.106776
-0.103619
-0.1043
-0.137933
-0.178064
-0.220135
-0.260068
-0.291991
-0.0612094
-0.0394066
-0.052794
-0.0745259
-0.0980722
-0.0980159
-0.100405
-0.101113
-0.0982028
-0.0938575
-0.0957385
-0.0969114
-0.0940754
-0.0947506
-0.111854
-0.159586
-0.191034
-0.218769
-0.244469
-0.26673
-0.0234203
-0.0365483
-0.0568504
-0.0784104
-0.0966485
-0.0949423
-0.0926906
-0.0877486
-0.0832779
-0.0821207
-0.0796048
-0.0830076
-0.0979192
-0.09888
-0.107844
-0.177751
-0.218818
-0.248296
-0.2687
-0.286227
-0.00911089
-0.0270073
-0.0579608
-0.0901425
-0.112401
-0.133995
-0.127212
-0.119235
-0.121221
-0.127654
-0.148362
-0.169826
-0.185417
-0.185662
-0.239239
-0.275475
-0.303857
-0.323401
-0.333408
-0.342648
-0.033021
-0.0368667
-0.0467037
-0.0698986
-0.100342
-0.126184
-0.150388
-0.172786
-0.192734
-0.223324
-0.260011
-0.311211
-0.359568
-0.409429
-0.451176
-0.490515
-0.517847
-0.531174
-0.52618
-0.514761
-0.0206648
-0.0411721
-0.0474009
-0.0585978
-0.0755015
-0.0947053
-0.125598
-0.16208
-0.200927
-0.247893
-0.310293
-0.38013
-0.445131
-0.499167
-0.54307
-0.581035
-0.612908
-0.638253
-0.652985
-0.656498
-0.0195428
-0.0257937
-0.0374705
-0.0511379
-0.065539
-0.0832549
-0.107577
-0.14159
-0.180961
-0.224574
-0.27864
-0.346161
-0.423575
-0.497019
-0.559029
-0.608451
-0.64864
-0.682236
-0.710163
-0.731083
-0.0366638
-0.0372595
-0.0461674
-0.0616163
-0.0827723
-0.112874
-0.139962
-0.16823
-0.197495
-0.230758
-0.272651
-0.323464
-0.387164
-0.461674
-0.537773
-0.602944
-0.656569
-0.700908
-0.7393
-0.770882
-0.0357405
-0.0545967
-0.070752
-0.0940106
-0.12044
-0.145828
-0.165929
-0.183576
-0.208087
-0.236591
-0.276309
-0.322549
-0.375287
-0.426938
-0.478309
-0.526406
-0.575556
-0.621955
-0.664127
-0.700469
-0.0343464
-0.0431484
-0.0629114
-0.101685
-0.131044
-0.161264
-0.189841
-0.215532
-0.242754
-0.272793
-0.306671
-0.337607
-0.367655
-0.392786
-0.416412
-0.439818
-0.467636
-0.500786
-0.537142
-0.570787
-0.00710492
-0.0148067
-0.023307
-0.0356115
-0.0515117
-0.0846663
-0.12838
-0.167015
-0.197611
-0.227311
-0.259563
-0.295915
-0.333438
-0.368741
-0.399859
-0.427263
-0.451857
-0.474423
-0.494977
-0.514078
-0.00682614
-0.0055942
-0.0147568
-0.00912983
-0.00540684
-0.00657684
-0.0113448
-0.0159509
-0.0226622
-0.0276891
-0.0338524
-0.0386595
-0.0434589
-0.0472664
-0.0507198
-0.0537926
-0.0568491
-0.0597654
-0.0648904
-0.072071
-0.0279933
-0.0100847
-0.00895066
-0.0098689
-0.0134273
-0.0173919
-0.0269394
-0.0339838
-0.0442871
-0.0547078
-0.0701799
-0.0857943
-0.102054
-0.115451
-0.125871
-0.130602
-0.129397
-0.12358
-0.121877
-0.131082
-0.0119983
-0.0217961
-0.0163633
-0.0254018
-0.0336517
-0.0415768
-0.0494652
-0.0527579
-0.0549593
-0.0556363
-0.0593902
-0.0661362
-0.078374
-0.0926207
-0.107613
-0.116528
-0.115786
-0.10393
-0.0927572
-0.0898201
-0.0108505
-0.0199755
-0.0170127
-0.0224608
-0.0301649
-0.0411205
-0.0453686
-0.0402647
-0.0322224
-0.0245187
-0.0243057
-0.0299052
-0.0403072
-0.0556993
-0.0771036
-0.0961342
-0.102773
-0.0957423
-0.0868187
-0.0854655
-0.00558591
-0.00584642
-0.00562981
-0.00709793
-0.0107652
-0.0169185
-0.0257924
-0.0304282
-0.0316299
-0.0256838
-0.0237573
-0.0254893
-0.0307613
-0.0391988
-0.055371
-0.0760956
-0.0919417
-0.0942611
-0.0906345
-0.0838
-0.0221196
-0.00570991
-0.0049965
-0.00535832
-0.0061805
-0.00844478
-0.0122627
-0.0166504
-0.0229328
-0.0277511
-0.0369977
-0.042487
-0.0462465
-0.045521
-0.0502072
-0.067354
-0.0944366
-0.113708
-0.11648
-0.102794
-0.0131981
-0.0135886
-0.0103904
-0.00664168
-0.00629288
-0.00844488
-0.0147808
-0.0242619
-0.0425409
-0.0637264
-0.0766626
-0.0719832
-0.0539688
-0.0389612
-0.0353284
-0.042205
-0.0573082
-0.0781876
-0.10811
-0.12864
-0.0121393
-0.015219
-0.00860508
-0.00596191
-0.00865759
-0.0123431
-0.0156541
-0.0263852
-0.0446285
-0.0722268
-0.0816325
-0.058571
-0.0316059
-0.0215157
-0.023741
-0.0333395
-0.0470718
-0.0646768
-0.0870537
-0.099922
-0.00548184
-0.0110552
-0.0128474
-0.00978552
-0.0153713
-0.0190775
-0.0226176
-0.0324944
-0.0536042
-0.0861106
-0.0969822
-0.0540337
-0.0235911
-0.0167614
-0.0187451
-0.0276613
-0.0368449
-0.0454848
-0.0531422
-0.0575354
-0.00234619
-0.0099033
-0.0127777
-0.0109736
-0.0176092
-0.0245313
-0.0360154
-0.0550781
-0.0783484
-0.0767475
-0.0609032
-0.0609274
-0.0659541
-0.0539664
-0.0370324
-0.0381819
-0.0381339
-0.0393341
-0.0400546
-0.040111
-0.00714558
-0.00899334
-0.0144377
-0.021335
-0.0396515
-0.0434258
-0.0545825
-0.0525056
-0.0449263
-0.0528169
-0.0702971
-0.078425
-0.0889088
-0.10248
-0.104778
-0.0865573
-0.0805756
-0.0734268
-0.0651279
-0.0588702
-0.00588816
-0.00780285
-0.0162565
-0.0236892
-0.0405245
-0.04713
-0.0570031
-0.0563561
-0.0592432
-0.0697876
-0.0716579
-0.0679877
-0.0550329
-0.0721156
-0.0894981
-0.0770722
-0.0785323
-0.0769637
-0.0745644
-0.072475
-0.00630173
-0.0115806
-0.0140398
-0.0256356
-0.0471156
-0.0503088
-0.0564289
-0.0599128
-0.0618435
-0.0606848
-0.0501158
-0.0415826
-0.0446618
-0.0548527
-0.0585989
-0.0601502
-0.0594937
-0.0602824
-0.0620468
-0.0635618
-0.0213272
-0.0163156
-0.0109847
-0.0144656
-0.0307137
-0.0350928
-0.0464729
-0.0427571
-0.0445782
-0.048388
-0.0564694
-0.0635348
-0.0718512
-0.0777758
-0.0832816
-0.0790755
-0.0733429
-0.0692623
-0.0676088
-0.0688372
-0.00989982
-0.0123971
-0.0117376
-0.017525
-0.0350063
-0.0447728
-0.0534484
-0.0451511
-0.051819
-0.0583756
-0.0664649
-0.0658127
-0.0627588
-0.0614603
-0.0616383
-0.0624579
-0.0658888
-0.0697817
-0.0744187
-0.0824609
-0.00735211
-0.00915319
-0.0129474
-0.0211497
-0.0355876
-0.0450154
-0.0546576
-0.0516075
-0.0568027
-0.0653493
-0.0857398
-0.0928102
-0.0939063
-0.08139
-0.0688214
-0.0586387
-0.0554517
-0.0558164
-0.0608739
-0.0717149
-0.0258763
-0.0182018
-0.0294833
-0.0396195
-0.0523664
-0.0460167
-0.0459863
-0.0361465
-0.0443881
-0.0554691
-0.0757908
-0.0868997
-0.0961191
-0.0862634
-0.0683524
-0.0539111
-0.0475871
-0.0459202
-0.0473181
-0.053498
-0.0643418
-0.0424726
-0.0406284
-0.0461351
-0.0471384
-0.0339791
-0.0296079
-0.0278081
-0.0358946
-0.0444514
-0.0558076
-0.0580862
-0.056503
-0.0488503
-0.0432365
-0.0400289
-0.0386777
-0.0380974
-0.037819
-0.0387431
-0.0284442
-0.0446995
-0.0420417
-0.0372825
-0.0321127
-0.0357734
-0.0445535
-0.0470203
-0.0558526
-0.0569151
-0.0577244
-0.0555649
-0.0527548
-0.0497425
-0.0473572
-0.045453
-0.0439677
-0.042561
-0.0411548
-0.0396593
-0.00170121
-0.00750519
-0.0131684
-0.0212937
-0.0358305
-0.0495948
-0.059617
-0.0701457
-0.0889571
-0.109899
-0.133411
-0.154271
-0.170984
-0.18053
-0.185056
-0.183915
-0.178896
-0.172306
-0.16857
-0.172062
-0.00527354
-0.00290585
-0.00444308
-0.00283295
-0.00404324
-0.00678108
-0.0105854
-0.0128852
-0.0159574
-0.0177397
-0.0199983
-0.0213793
-0.023215
-0.0245575
-0.0264661
-0.0289254
-0.0325783
-0.0373955
-0.044541
-0.0544104
-0.0196164
-0.00599951
-0.00532323
-0.0062554
-0.00938946
-0.0125061
-0.0167095
-0.020388
-0.0253131
-0.0300358
-0.0361584
-0.041274
-0.0463598
-0.0490777
-0.0507913
-0.0498278
-0.047923
-0.0470746
-0.0506476
-0.0592883
-0.0160273
-0.0149424
-0.00991463
-0.0107592
-0.012605
-0.015647
-0.0190167
-0.021331
-0.0242187
-0.0278702
-0.0327158
-0.0379874
-0.0431231
-0.0463622
-0.0480476
-0.0465057
-0.0425486
-0.038096
-0.0367233
-0.0374932
-0.00940943
-0.0147719
-0.0101291
-0.0110238
-0.0136738
-0.0154962
-0.0158242
-0.0142727
-0.0145425
-0.0169111
-0.0202594
-0.0243349
-0.0284055
-0.0323904
-0.0363043
-0.0382971
-0.036936
-0.0337791
-0.0324392
-0.0329504
-0.00848032
-0.00768838
-0.00460954
-0.00433351
-0.00589176
-0.00823163
-0.0110641
-0.0115962
-0.0121509
-0.0122928
-0.0136928
-0.0157786
-0.0186805
-0.0222084
-0.0268833
-0.0311898
-0.0336241
-0.0332684
-0.0330395
-0.0333349
-0.00883812
-0.00510452
-0.00277878
-0.00299236
-0.00392815
-0.00550411
-0.00780991
-0.00937766
-0.0120198
-0.0131484
-0.0152614
-0.0160353
-0.0174847
-0.0195292
-0.0239814
-0.0309412
-0.0391769
-0.0430564
-0.0426107
-0.0411081
-0.00602022
-0.00487538
-0.00303804
-0.00314805
-0.00473212
-0.00700352
-0.011888
-0.0163857
-0.0238123
-0.0293874
-0.0293519
-0.0237684
-0.0184911
-0.0179374
-0.0213297
-0.027369
-0.0353336
-0.0441948
-0.0542518
-0.05793
-0.0138895
-0.00874047
-0.00444384
-0.00460529
-0.00712081
-0.00984219
-0.0125839
-0.0193497
-0.0274138
-0.0343187
-0.0283783
-0.0162989
-0.0116774
-0.0130744
-0.0175285
-0.0223802
-0.028021
-0.0340345
-0.0406084
-0.0440491
-0.0056254
-0.00535419
-0.00541054
-0.00692478
-0.0111641
-0.0129584
-0.0148159
-0.0212383
-0.032636
-0.0368307
-0.0260387
-0.0130229
-0.00972121
-0.0101795
-0.013146
-0.0162774
-0.0192619
-0.0224063
-0.0261297
-0.0297698
-0.00184856
-0.00426627
-0.00625404
-0.00828032
-0.0125648
-0.0153743
-0.0192764
-0.026058
-0.0292096
-0.0259736
-0.0257402
-0.0285041
-0.0283361
-0.0230931
-0.0187506
-0.0189185
-0.0183128
-0.0188053
-0.0203241
-0.0226714
-0.0080186
-0.00549534
-0.0111251
-0.0184092
-0.0268602
-0.0293602
-0.0325285
-0.0266418
-0.0230526
-0.0278599
-0.0317845
-0.0369199
-0.0476613
-0.05568
-0.0512761
-0.0407689
-0.0376652
-0.0349716
-0.0331673
-0.0326329
-0.00204807
-0.0042498
-0.0113087
-0.0170239
-0.0262241
-0.0283817
-0.0314214
-0.0319572
-0.0343835
-0.0363188
-0.0319203
-0.0277076
-0.0332458
-0.0420884
-0.0421215
-0.0381188
-0.0403788
-0.0414405
-0.0414807
-0.040747
-0.00294684
-0.00532238
-0.00963258
-0.0165758
-0.0268479
-0.0249208
-0.0290293
-0.027966
-0.0247673
-0.0218748
-0.0196499
-0.0203825
-0.022651
-0.0253194
-0.0262318
-0.0282366
-0.0303859
-0.0321793
-0.0333088
-0.0335685
-0.00318317
-0.00383303
-0.00495583
-0.00866842
-0.0168862
-0.0154473
-0.0194261
-0.017773
-0.0187284
-0.0202969
-0.0222982
-0.024015
-0.0260961
-0.0274226
-0.0286989
-0.0288361
-0.0293757
-0.0302474
-0.0312854
-0.0324508
-0.0188281
-0.00735353
-0.00738507
-0.0121569
-0.0244217
-0.0203596
-0.0218537
-0.0187905
-0.0213095
-0.0225003
-0.0227972
-0.0220989
-0.0217542
-0.0221089
-0.0233779
-0.0250046
-0.0272064
-0.0295264
-0.0319728
-0.0348196
-0.0187213
-0.00930471
-0.0111904
-0.0160152
-0.0259066
-0.0246119
-0.0265836
-0.0236521
-0.0271882
-0.0294871
-0.0326863
-0.0299856
-0.0270258
-0.0233337
-0.02169
-0.0214365
-0.022529
-0.0240869
-0.0262154
-0.0289126
-0.0254518
-0.0129569
-0.0147299
-0.0227086
-0.0285242
-0.0188921
-0.0194535
-0.0198131
-0.025046
-0.0278557
-0.0314428
-0.0301377
-0.0284193
-0.023901
-0.0206597
-0.0192159
-0.0189671
-0.0192024
-0.0197663
-0.0207872
-0.0222706
-0.0228884
-0.0154568
-0.0194224
-0.0170168
-0.0139699
-0.0158229
-0.0188461
-0.0221689
-0.0237808
-0.02452
-0.023616
-0.0222088
-0.0207878
-0.0196583
-0.018807
-0.0182312
-0.017855
-0.0176738
-0.0176904
-0.00992686
-0.0246651
-0.0133095
-0.016086
-0.016944
-0.0200991
-0.0250795
-0.0282454
-0.0313387
-0.0331345
-0.034539
-0.0345236
-0.0341925
-0.0325346
-0.0310063
-0.0290203
-0.0274403
-0.0262721
-0.0258641
-0.0262111
-0.00236693
-0.00845943
-0.0140096
-0.0208415
-0.0293706
-0.030867
-0.035556
-0.0440487
-0.0587653
-0.0747054
-0.0912134
-0.103984
-0.112099
-0.114455
-0.112981
-0.10822
-0.101878
-0.0956975
-0.0916013
-0.0907291
-0.00300856
-0.00237064
-0.0026879
-0.00368056
-0.00550737
-0.0070537
-0.00897291
-0.00978164
-0.0109361
-0.0114689
-0.0126962
-0.013793
-0.0156359
-0.0178047
-0.0207817
-0.0246196
-0.0295571
-0.0358734
-0.0438701
-0.054387
-0.016566
-0.00604996
-0.00411994
-0.00505695
-0.0069626
-0.00917168
-0.0116964
-0.0135702
-0.015603
-0.0166565
-0.0182987
-0.0192089
-0.0205867
-0.0213922
-0.0225694
-0.0233982
-0.0246877
-0.0267638
-0.0299387
-0.0329788
-0.00815744
-0.00915488
-0.00638464
-0.00514751
-0.0060888
-0.00844287
-0.0110734
-0.013753
-0.016105
-0.0180967
-0.019708
-0.0206814
-0.0213908
-0.0213002
-0.0211737
-0.0205083
-0.0198279
-0.019448
-0.0197321
-0.0200672
-0.00723603
-0.00697353
-0.00494614
-0.0055821
-0.00665171
-0.00761379
-0.00900701
-0.0107325
-0.0121033
-0.0135328
-0.0143963
-0.0153986
-0.0163099
-0.0171874
-0.0180911
-0.0184448
-0.0182486
-0.0178089
-0.0176555
-0.0175758
-0.00091713
-0.00207238
-0.00230115
-0.00328882
-0.0046621
-0.00609796
-0.00732998
-0.00812397
-0.00866198
-0.00938398
-0.0102148
-0.0113966
-0.0127812
-0.0142959
-0.0160429
-0.0174219
-0.0182565
-0.0184458
-0.0184498
-0.0183311
-0.000325508
-0.00135682
-0.00181331
-0.00267518
-0.00383745
-0.00512306
-0.00617694
-0.0066257
-0.00735911
-0.00779555
-0.00876598
-0.009857
-0.0114827
-0.013448
-0.0159267
-0.0187012
-0.0214419
-0.023059
-0.0239731
-0.0245896
-0.00035563
-0.000844044
-0.00152513
-0.00254291
-0.00413117
-0.00569126
-0.00767086
-0.00866879
-0.0103358
-0.0112878
-0.011024
-0.0106241
-0.0114204
-0.0134252
-0.0161731
-0.0194471
-0.0230767
-0.0266395
-0.03009
-0.0312566
-0.00494362
-0.00263402
-0.0023518
-0.00407833
-0.00631642
-0.0076366
-0.00876727
-0.0102334
-0.0113352
-0.011085
-0.00906969
-0.0084473
-0.00971409
-0.0118338
-0.014992
-0.0176201
-0.0205155
-0.0233843
-0.0260775
-0.0276729
-0.00273036
-0.0034912
-0.00436308
-0.00633415
-0.00842643
-0.00886088
-0.00933131
-0.0119333
-0.0133294
-0.0110281
-0.00850132
-0.00786173
-0.00856587
-0.00983151
-0.011953
-0.014053
-0.0162932
-0.0186468
-0.0209749
-0.0227251
-0.000446195
-0.00196104
-0.0044482
-0.00733785
-0.00973764
-0.0102549
-0.0107154
-0.0120776
-0.0127845
-0.0142645
-0.0155683
-0.0157405
-0.0142297
-0.0122133
-0.0111044
-0.0130254
-0.0140842
-0.0155412
-0.0171473
-0.0184733
-0.0039319
-0.00281068
-0.00764569
-0.0134057
-0.01696
-0.0182633
-0.0182077
-0.0158365
-0.0171409
-0.0199788
-0.0231582
-0.0270953
-0.0297966
-0.0290914
-0.0246318
-0.0231662
-0.0224101
-0.0214609
-0.0205392
-0.0198123
-0.00196916
-0.00309044
-0.0088897
-0.0135725
-0.0176382
-0.0183772
-0.019119
-0.0187466
-0.0182813
-0.0183353
-0.0197003
-0.0223005
-0.0244966
-0.0259952
-0.0263268
-0.0244716
-0.0240063
-0.0226271
-0.0209988
-0.019599
-0.00231245
-0.00518624
-0.00909579
-0.0124735
-0.0159113
-0.0139542
-0.015414
-0.0142662
-0.0137524
-0.0140011
-0.0143126
-0.0150778
-0.015956
-0.0170754
-0.0165535
-0.0170711
-0.0173454
-0.0173004
-0.0171375
-0.0169956
-0.00224428
-0.00193914
-0.00474647
-0.00741002
-0.010222
-0.00974324
-0.0114647
-0.011646
-0.0123194
-0.0128678
-0.0135731
-0.0141241
-0.0147811
-0.0152443
-0.0157863
-0.0161451
-0.0166088
-0.0170731
-0.0175118
-0.0180413
-0.00521582
-0.00437342
-0.0056993
-0.00807962
-0.0120008
-0.0107197
-0.0118671
-0.011982
-0.0125681
-0.0126091
-0.0127001
-0.0127497
-0.013148
-0.0135811
-0.0142675
-0.0149274
-0.0156638
-0.0163177
-0.0169733
-0.017726
-0.0167729
-0.0074836
-0.00652766
-0.009763
-0.0145716
-0.0129152
-0.014042
-0.0138922
-0.0147732
-0.0143725
-0.0142985
-0.0133736
-0.0129563
-0.0126578
-0.0127775
-0.0129712
-0.0133117
-0.0135908
-0.0139653
-0.0144956
-0.0113491
-0.00861171
-0.00706254
-0.0111372
-0.0125369
-0.0114962
-0.0131106
-0.0143005
-0.0150911
-0.0149806
-0.0147074
-0.0138156
-0.0131338
-0.0124771
-0.0121504
-0.0120447
-0.0120173
-0.0120169
-0.0120773
-0.0122835
-0.0105877
-0.0140097
-0.00931642
-0.00994349
-0.0107099
-0.012972
-0.014911
-0.0168639
-0.0172969
-0.0176978
-0.0170418
-0.0163693
-0.015472
-0.0148352
-0.0144463
-0.0143176
-0.0143985
-0.0145866
-0.0148508
-0.0150205
-0.00168796
-0.00780459
-0.0097681
-0.0122772
-0.0156914
-0.0194686
-0.0233371
-0.0263321
-0.0293868
-0.0308469
-0.0316859
-0.0306585
-0.0292016
-0.0268667
-0.0248684
-0.0230661
-0.0219568
-0.0215182
-0.021917
-0.0228135
-0.00247946
-0.00617425
-0.0100115
-0.0147997
-0.0204519
-0.0229088
-0.0291515
-0.0371278
-0.0473945
-0.0568522
-0.0652072
-0.069561
-0.0705595
-0.0679775
-0.0638422
-0.058644
-0.0535707
-0.0493325
-0.0465119
-0.0452488
-0.000641996
-0.00178449
-0.00322477
-0.00451796
-0.00590026
-0.00703262
-0.00823651
-0.00906991
-0.0100863
-0.0111882
-0.0125106
-0.0140999
-0.0159316
-0.0180942
-0.0206198
-0.0236689
-0.0271445
-0.0312194
-0.0357817
-0.0409951
-0.0153615
-0.00550558
-0.00431482
-0.00554138
-0.00713622
-0.00822637
-0.00927825
-0.00975825
-0.0103934
-0.010692
-0.0112061
-0.0115559
-0.0120483
-0.0124593
-0.0130028
-0.0134848
-0.0140924
-0.0148296
-0.0157096
-0.0167056
-0.0269967
-0.0181249
-0.00869826
-0.00597657
-0.00699367
-0.00853278
-0.00975597
-0.0106014
-0.0112228
-0.0115519
-0.011871
-0.0119619
-0.0120462
-0.0119753
-0.0119843
-0.0119662
-0.0120492
-0.0122802
-0.0126785
-0.0131202
-0.00695366
-0.006235
-0.00418661
-0.0050299
-0.00644336
-0.00792659
-0.00882498
-0.009631
-0.0100901
-0.010575
-0.0109175
-0.011187
-0.0113736
-0.0114639
-0.0115623
-0.0116486
-0.0118029
-0.0120792
-0.0125316
-0.0129935
-0.00109079
-0.00203158
-0.00271317
-0.00411566
-0.00535329
-0.00656448
-0.00726221
-0.00814787
-0.00881098
-0.00957272
-0.0101798
-0.0106837
-0.0110781
-0.011333
-0.0115891
-0.0117734
-0.0119795
-0.0122294
-0.0126144
-0.0130221
-0.000374347
-0.000854044
-0.00156767
-0.00311676
-0.00425137
-0.00534178
-0.00609146
-0.00704991
-0.00793486
-0.00888482
-0.00975152
-0.0105558
-0.0112898
-0.0119098
-0.0124773
-0.0129579
-0.013397
-0.0136677
-0.0139176
-0.0141715
-0.000392082
-0.00116061
-0.00193933
-0.00305152
-0.00409579
-0.00498502
-0.00591381
-0.00685713
-0.00781661
-0.00874995
-0.00962452
-0.0105337
-0.0114456
-0.0123286
-0.0131918
-0.0139632
-0.014605
-0.0150974
-0.0155522
-0.0155629
-0.00176931
-0.00205474
-0.00288806
-0.00408376
-0.00498746
-0.00538883
-0.00573829
-0.00648195
-0.00703743
-0.00782049
-0.00873393
-0.00977083
-0.0107229
-0.0116408
-0.0123836
-0.0129129
-0.0133446
-0.0136654
-0.0139586
-0.0140723
-0.00443108
-0.00334038
-0.00438913
-0.00566422
-0.00629524
-0.00604478
-0.00592747
-0.00642184
-0.00680165
-0.00738522
-0.0081632
-0.00901056
-0.00985417
-0.0106753
-0.0115028
-0.0118054
-0.0121278
-0.012303
-0.0124444
-0.0125834
-0.00147102
-0.00176183
-0.00391371
-0.00669858
-0.00808424
-0.00803777
-0.00779005
-0.00855138
-0.00959542
-0.0101597
-0.010356
-0.010189
-0.0100188
-0.0101552
-0.0106373
-0.0109135
-0.0109958
-0.0110641
-0.0111888
-0.0113679
-0.00147113
-0.00114086
-0.00548626
-0.00955887
-0.0108699
-0.0118977
-0.0121649
-0.0126043
-0.0134488
-0.0144045
-0.0156306
-0.0162677
-0.0160629
-0.015369
-0.0132018
-0.0114034
-0.011044
-0.0108476
-0.0108826
-0.0110735
-0.000873805
-0.00178041
-0.00670827
-0.0100487
-0.0113294
-0.0119844
-0.0120049
-0.0125891
-0.0131404
-0.013522
-0.0139241
-0.0147965
-0.0157564
-0.0164789
-0.0133457
-0.0106758
-0.0104241
-0.0104316
-0.0107134
-0.0111392
-0.00114409
-0.00437697
-0.00744072
-0.00940384
-0.0102315
-0.0100394
-0.0104368
-0.0104651
-0.0103899
-0.0103741
-0.0102823
-0.0103168
-0.0102611
-0.0101119
-0.00953992
-0.00972542
-0.0100501
-0.0105221
-0.0111345
-0.0117985
-0.00120892
-0.00221849
-0.00504657
-0.0071146
-0.00839566
-0.00882456
-0.00933897
-0.00911679
-0.00912847
-0.00903238
-0.00902544
-0.00900724
-0.00906753
-0.00920938
-0.00947729
-0.00986254
-0.0103947
-0.0110606
-0.0118348
-0.012618
-0.00100022
-0.00433263
-0.00544334
-0.00687035
-0.0082249
-0.00876474
-0.00907671
-0.0088666
-0.00878691
-0.00862298
-0.00859164
-0.00857338
-0.00869419
-0.00890212
-0.00927345
-0.00976607
-0.0104051
-0.0111743
-0.0120663
-0.0129094
-0.0205128
-0.011179
-0.0062725
-0.00717332
-0.00879786
-0.00923052
-0.00943934
-0.00923629
-0.00906046
-0.00883364
-0.00871391
-0.00862073
-0.00865908
-0.00881904
-0.00914848
-0.0096312
-0.0102848
-0.0110847
-0.0120025
-0.0128258
-0.00890431
-0.00687966
-0.00608174
-0.00778352
-0.00912007
-0.00984787
-0.00978603
-0.00980618
-0.00950869
-0.0094216
-0.00922468
-0.00915754
-0.00911593
-0.00924572
-0.00950988
-0.00996024
-0.0105688
-0.0113323
-0.0121973
-0.0129465
-0.00608559
-0.00742547
-0.00712873
-0.00904186
-0.010963
-0.0120157
-0.0118368
-0.0120556
-0.0115537
-0.0115394
-0.0112202
-0.0111593
-0.0110573
-0.0110578
-0.011079
-0.0111762
-0.0113808
-0.0117157
-0.012207
-0.012686
-0.000506385
-0.00310337
-0.00667758
-0.0115482
-0.0154746
-0.017941
-0.0198812
-0.0204921
-0.0208678
-0.0198584
-0.0187433
-0.017285
-0.0164214
-0.0159773
-0.0160866
-0.0163954
-0.0167553
-0.0170064
-0.0171379
-0.0171171
-0.00266713
-0.00417596
-0.00673056
-0.0114064
-0.0166286
-0.0209854
-0.0264659
-0.0304632
-0.034903
-0.0365202
-0.0370355
-0.0344862
-0.0311419
-0.0268167
-0.0233932
-0.0207486
-0.0194986
-0.0194114
-0.0202517
-0.0215839
-0.0253733
-0.0259999
-0.03001
-0.0161863
-0.0177323
-0.0207709
-0.0238225
-0.0278447
-0.0314313
-0.0363193
-0.0181766
-0.0189046
-0.0248243
-0.0275551
-0.0310114
-0.0352314
-0.0322387
-0.0217025
-0.0242473
-0.0206165
-0.0210471
-0.0350399
-0.0309794
-0.0285987
-0.0252425
-0.028381
-0.0215873
-0.0242705
-0.105075
-0.115274
-0.120558
-0.0802042
-0.0736742
-0.0917271
-0.102588
-0.102525
-0.120585
-0.119774
-0.0751316
-0.0920475
-0.10892
-0.120539
-0.108082
-0.120016
-0.120689
-0.0985201
-0.109837
-0.122241
-0.124918
-0.11881
-0.120478
-0.118229
-0.113112
-0.119801
-0.124917
-0.120944
-0.119427
-0.117022
-0.113433
-0.120363
-0.106704
-0.118277
-0.107699
-0.109338
-0.112272
-0.108954
-0.0967506
-0.0639661
-0.104273
-0.0940412
-0.0993721
-0.107824
-0.103552
-0.0549815
-0.0379857
-0.0901755
-0.0751489
-0.0928995
-0.101647
-0.0950116
-0.0353577
-0.0341274
-0.0697432
-0.0549961
-0.116246
-0.108012
-0.10369
-0.0989832
-0.108853
-0.0995298
-0.0989762
-0.116788
-0.102616
-0.0988263
-0.113262
-0.119528
-0.0976513
-0.0909185
-0.114637
-0.0974959
-0.0943049
-0.120256
-0.120216
-0.0892126
-0.0899205
-0.111027
-0.093709
-0.0950858
-0.119595
-0.116497
-0.0923967
-0.100159
-0.110291
-0.0965822
-0.0998647
-0.114595
-0.109855
-0.102359
-0.105942
-0.107413
-0.0997231
-0.0976198
-0.10953
-0.108224
-0.106475
-0.106667
-0.104753
-0.0970688
-0.0976757
-0.106933
-0.0982365
-0.107006
-0.110789
-0.0981571
-0.0988554
-0.103546
-0.0936569
-0.0766636
-0.11294
-0.118645
-0.10099
-0.0961484
-0.0973348
-0.095719
-0.0982368
-0.0926469
-0.096784
-0.0993334
-0.0973621
-0.0958496
-0.0975644
-0.0888215
-0.0980934
-0.0999006
-0.0947002
-0.0955087
-0.095187
-0.086236
-0.0875807
-0.100374
-0.101212
-0.0945085
-0.0949781
-0.0915061
-0.0907435
-0.0997562
-0.100926
-0.0968948
-0.0975516
-0.0893717
-0.0845968
-0.101933
-0.104203
-0.0950048
-0.0920368
-0.0945752
-0.0846123
-0.0896666
-0.104217
-0.103305
-0.0921682
-0.0928376
-0.0939938
-0.0917621
-0.0943162
-0.103294
-0.106062
-0.0929583
-0.096296
-0.100287
-0.0938036
-0.0931673
-0.10826
-0.117333
-0.098165
-0.106569
-0.0888639
-0.0997646
-0.0918375
-0.09056
-0.0903826
-0.0955799
-0.0881399
-0.0840928
-0.0902106
-0.0916234
-0.0902065
-0.0888399
-0.0872409
-0.0898022
-0.0822688
-0.0913262
-0.0887234
-0.0888358
-0.0891362
-0.0893898
-0.0885896
-0.0803315
-0.0885484
-0.0978335
-0.0888318
-0.0863665
-0.0899912
-0.102292
-0.0807168
-0.101432
-0.123127
-0.0859665
-0.0886362
-0.105843
-0.116719
-0.0947705
-0.131067
-0.151901
-0.0901627
-0.090526
-0.118497
-0.118017
-0.10022
-0.153186
-0.151393
-0.0896673
-0.0935559
-0.116455
-0.119479
-0.0955309
-0.147244
-0.141605
-0.0963599
-0.10558
-0.121437
-0.129416
-0.0297598
-0.0319958
-0.0446894
-0.0201769
-0.0259537
-0.0280073
-0.0376797
-0.0447754
-0.050696
-0.0767772
-0.0293432
-0.0388327
-0.0405018
-0.0431944
-0.078648
-0.0835103
-0.091356
-0.0417621
-0.0472755
-0.0425882
-0.0377277
-0.0979969
-0.0904931
-0.0754944
-0.0480328
-0.0429352
-0.0357024
-0.0308519
-0.0678308
-0.0677911
-0.0525504
-0.0377345
-0.0226338
-0.0300561
-0.0292215
-0.0275908
-0.0511894
-0.0489075
-0.0189926
-0.0130221
-0.0290399
-0.027147
-0.0174937
-0.0473496
-0.0385006
-0.0120532
-0.0110579
-0.0260706
-0.0216701
-0.017133
-0.0349355
-0.0252963
-0.011247
-0.0130027
-0.0202014
-0.0168296
-0.0486769
-0.0372739
-0.0424472
-0.0321027
-0.039637
-0.0332292
-0.0342819
-0.0750533
-0.0425713
-0.0426446
-0.0412157
-0.0409339
-0.0333497
-0.0302243
-0.0784917
-0.0429658
-0.0473499
-0.0396227
-0.0345598
-0.0295231
-0.0296757
-0.0649153
-0.0509085
-0.06196
-0.0332345
-0.0317715
-0.0305897
-0.034628
-0.0589979
-0.0648109
-0.0746848
-0.0321118
-0.034453
-0.0362207
-0.0417534
-0.0659396
-0.0788543
-0.0905588
-0.0353097
-0.0362161
-0.0443199
-0.0533502
-0.0584195
-0.093916
-0.102377
-0.0357266
-0.0315427
-0.056313
-0.0618995
-0.038913
-0.104403
-0.105062
-0.0295474
-0.0234752
-0.0622291
-0.0586946
-0.0547222
-0.062872
-0.0676249
-0.044752
-0.0407704
-0.0478834
-0.0478062
-0.0459995
-0.0676387
-0.0704649
-0.0385801
-0.0327398
-0.0474848
-0.0460428
-0.0484977
-0.0726865
-0.0796014
-0.0316769
-0.0319154
-0.0456457
-0.0446695
-0.0671727
-0.0807269
-0.0780993
-0.0329599
-0.03641
-0.0440972
-0.0404943
-0.0763519
-0.0764189
-0.0717965
-0.0372674
-0.0401633
-0.0388599
-0.0341907
-0.0858531
-0.0694687
-0.0615004
-0.04216
-0.0512883
-0.033373
-0.035945
-0.0991971
-0.0614291
-0.0734792
-0.0550034
-0.0644048
-0.0385649
-0.0490913
-0.110486
-0.079845
-0.0973904
-0.0662166
-0.0673033
-0.0527116
-0.06156
-0.0584085
-0.0548371
-0.0500542
-0.0414921
-0.0399355
-0.0418367
-0.0366595
-0.0566688
-0.048314
-0.0502474
-0.0398513
-0.0411623
-0.0366287
-0.038224
-0.0679599
-0.0511742
-0.0584144
-0.0419198
-0.0436978
-0.0384574
-0.0391642
-0.071362
-0.0625537
-0.0702887
-0.0438418
-0.0415794
-0.0388775
-0.0347285
-0.0705426
-0.0712557
-0.0602803
-0.0399356
-0.0339546
-0.0329706
-0.028965
-0.0560442
-0.0539116
-0.043438
-0.0325621
-0.0334978
-0.0287047
-0.0303232
-0.0655316
-0.0444817
-0.0548555
-0.0355027
-0.0438866
-0.0313355
-0.0349649
-0.091504
-0.0603764
-0.0757946
-0.0468988
-0.0542965
-0.0362543
-0.0395121
-0.0191244
-0.0181832
-0.0230377
-0.0137675
-0.0175394
-0.0167037
-0.0187074
-0.0294443
-0.0256318
-0.0319979
-0.0187752
-0.0194922
-0.0183702
-0.0160481
-0.0370115
-0.0321695
-0.0288459
-0.0190693
-0.0165522
-0.0153718
-0.0143884
-0.0301022
-0.0273569
-0.0237296
-0.015362
-0.0117646
-0.0144137
-0.0149182
-0.0153034
-0.023041
-0.022283
-0.0105768
-0.00879768
-0.0150823
-0.0150219
-0.00998325
-0.0222004
-0.020893
-0.00856366
-0.00858591
-0.0148286
-0.0137421
-0.00985694
-0.0201126
-0.0170324
-0.00877497
-0.00965085
-0.0133298
-0.0121592
-0.011762
-0.0160587
-0.013981
-0.0100589
-0.0115344
-0.0118741
-0.0114033
-0.0238768
-0.0208471
-0.0221409
-0.0174614
-0.0181016
-0.0176779
-0.0164408
-0.0295601
-0.0216585
-0.0209014
-0.0175694
-0.0156779
-0.0160742
-0.0163432
-0.0266352
-0.0212655
-0.0244058
-0.0153558
-0.015727
-0.0168977
-0.0194395
-0.0220825
-0.0255048
-0.025579
-0.0206545
-0.0260156
-0.0206974
-0.0214042
-0.0261072
-0.0263308
-0.0286308
-0.0219121
-0.0299313
-0.0225526
-0.0249315
-0.0288753
-0.0384142
-0.045603
-0.0188804
-0.0178555
-0.0285311
-0.0308045
-0.0246807
-0.0478862
-0.0518141
-0.0172928
-0.0152794
-0.0312139
-0.0306542
-0.0186012
-0.0518672
-0.0482644
-0.0146174
-0.0130196
-0.0298701
-0.026245
-0.0288646
-0.0358294
-0.0361813
-0.0241743
-0.0194263
-0.0268903
-0.0242198
-0.0229122
-0.0355782
-0.0350192
-0.0185051
-0.0180095
-0.0234171
-0.0216347
-0.0263931
-0.0352236
-0.0355859
-0.0184451
-0.0205649
-0.0212969
-0.0207188
-0.026693
-0.0292171
-0.0305017
-0.0249069
-0.0312059
-0.0259424
-0.0261998
-0.0281049
-0.0326606
-0.031677
-0.0286052
-0.0317238
-0.0294966
-0.0275995
-0.0447224
-0.0288599
-0.0336579
-0.0295409
-0.0329126
-0.025393
-0.0287484
-0.0545151
-0.0362797
-0.0446534
-0.033764
-0.0347005
-0.0297506
-0.0320589
-0.0555674
-0.0471726
-0.0528456
-0.0344323
-0.0321473
-0.0326063
-0.0338708
-0.0320681
-0.0297817
-0.0295161
-0.024892
-0.0233495
-0.0237844
-0.0212013
-0.033498
-0.0295634
-0.0295156
-0.022886
-0.0217632
-0.0205825
-0.0190088
-0.0362984
-0.0301893
-0.0310489
-0.0214936
-0.0207481
-0.0188016
-0.0180039
-0.0334989
-0.0303419
-0.0255109
-0.0205112
-0.0203755
-0.0177805
-0.0175756
-0.0279615
-0.0243443
-0.0219292
-0.0207338
-0.0228863
-0.0177732
-0.0185689
-0.0311214
-0.0220039
-0.0239202
-0.0237867
-0.0263405
-0.0188905
-0.0197222
-0.0400305
-0.025002
-0.0279716
-0.0271001
-0.0288673
-0.020085
-0.0210374