/*--------------------------------*- C++ -*----------------------------------*\
  =========                 |
  \\      /  F ield         | OpenFOAM: The Open Source CFD Toolbox
   \\    /   O peration     | Website:  https://openfoam.org
    \\  /    A nd           | Version:  10
     \\/     M anipulation  |
\*---------------------------------------------------------------------------*/
FoamFile
{
    format      ascii;
    class       volVectorField;
    location    "7.5";
    object      U_0;
}
// * * * * * * * * * * * * * * * * * * * * * * * * * * * * * * * * * * * * * //

dimensions      [0 1 -1 0 0 0 0];

internalField   nonuniform List<vector> 
12920
(
(553.616 -92.344 -380.653)
(312.474 86.6087 -122.901)
(279.348 76.8422 -7.14091)
(114.031 49.9383 2.23475)
(137.72 38.1465 -4.39321)
(84.5548 21.5473 -5.37686)
(115.387 11.7876 -3.5913)
(88.7431 6.61952 -2.63839)
(106.626 1.57776 -1.13727)
(92.0792 1.43333 -1.09729)
(103.084 -0.00571336 -0.50723)
(97.3599 1.1719 -0.653951)
(104.714 1.36751 -0.530748)
(103.937 2.19929 -0.756929)
(109.303 2.03485 -0.816357)
(111.715 2.61686 -1.08114)
(116.94 1.61401 -0.852146)
(120.464 3.0959 -1.20902)
(127.294 0.24758 -2.73961)
(147.54 0.122908 -2.41914)
(55.4684 47.7183 107.978)
(2.82836 117.601 -1.32566)
(146.786 25.8609 6.06193)
(33.6783 19.8089 3.28891)
(124.548 11.565 -2.34769)
(72.0275 15.9635 -2.03919)
(112.033 9.45176 -1.93246)
(86.9173 12.3266 -1.86188)
(106.396 6.2807 -0.983578)
(94.2267 5.4679 -0.51624)
(105.24 -0.146767 0.356706)
(100.17 -2.18393 0.930043)
(106.065 -5.43848 1.54897)
(104.093 -6.13746 1.88122)
(106.75 -7.04049 2.09117)
(105.713 -7.81394 2.16528)
(106.714 -9.18083 2.10082)
(108.165 -9.9738 1.60876)
(116.312 -11.9581 1.22025)
(122.416 -10.0327 1.42033)
(150.677 -122.944 -96.5582)
(5.218 -20.5957 1.40961)
(164.523 15.3553 -5.88982)
(97.6446 25.5228 1.39232)
(142.147 24.147 2.16523)
(103.309 28.2104 2.29668)
(125.446 14.0476 2.16354)
(104.609 14.2536 1.58064)
(118.322 1.89375 1.59212)
(108.118 0.627713 1.16383)
(115.46 -6.29915 0.994999)
(110.046 -6.80552 0.608758)
(113.125 -9.65394 0.647809)
(109.644 -9.44073 0.683496)
(109.656 -10.0389 0.955478)
(105.162 -9.53629 1.09475)
(101.501 -11.6156 1.33293)
(95.0029 -11.9536 0.726083)
(96.2418 -11.8391 -0.0797028)
(96.3455 -7.3654 -0.482217)
(332.256 -164.331 -87.2627)
(120.037 -89.7898 8.60916)
(173.845 -18.5692 -0.996306)
(86.2689 10.4654 2.3332)
(144.471 4.58712 0.393115)
(104.164 10.8344 2.69708)
(130.627 0.30014 2.76578)
(110.766 3.83322 2.26945)
(119.489 -3.61808 1.35789)
(107.648 -1.74893 0.208193)
(111.883 -5.93476 -0.284823)
(106.797 -5.4913 -0.590953)
(109.85 -8.19652 -0.497333)
(108.331 -8.07046 -0.343381)
(109.331 -7.72666 0.219229)
(105.652 -6.75593 0.949631)
(99.8725 -6.63417 1.31208)
(90.9122 -6.71084 0.83539)
(89.992 -6.64263 0.220581)
(86.8891 -3.25449 -0.251891)
(393.339 128.928 124.559)
(130.522 56.8923 4.81029)
(174.486 31.9769 -1.56122)
(140.234 18.4549 -1.42564)
(164.875 5.36343 -0.820163)
(146.1 9.20879 -0.251975)
(156.968 -0.359069 0.531209)
(140.823 7.58892 0.993754)
(140.93 1.80655 1.273)
(125.49 4.77805 0.536355)
(124.663 -2.00225 -0.291987)
(117.139 -2.82921 -1.09603)
(118.349 -7.89804 -0.942009)
(116.015 -8.49267 -0.704209)
(116.25 -8.60444 -0.255767)
(112.87 -6.53111 0.496494)
(103.233 -5.03932 1.23574)
(90.1066 -4.84985 0.886857)
(86.8056 -3.0139 0.613969)
(83.7479 1.40915 0.164653)
(-67.5015 98.0511 10.2038)
(-174.704 78.3672 -25.6384)
(138.558 12.6862 -18.6019)
(65.0202 15.6518 0.587391)
(139.708 7.30424 -1.44615)
(115.597 13.2202 -1.34986)
(142.215 4.10167 -1.29017)
(136.298 9.36523 -1.66816)
(143.753 6.23674 -0.746151)
(139.469 9.11517 -0.386302)
(139.831 3.83241 0.418187)
(135.428 3.05848 0.499269)
(133.191 -2.29771 1.11045)
(126.206 -3.95184 0.69029)
(123.043 -4.07758 -0.30342)
(120.974 1.45276 -0.149978)
(115.097 7.73852 1.18744)
(102.353 6.30924 1.59247)
(94.318 2.28203 1.39327)
(87.8972 2.93186 0.587254)
(161.892 -72.2216 95.7176)
(72.2492 -36.7888 -1.49147)
(129.311 -52.6526 -21.2715)
(100.076 -17.9636 -10.2597)
(142.902 -19.6766 -6.12162)
(124.355 0.580338 -3.26264)
(138.62 -8.03594 -2.59318)
(131.675 11.1104 -1.88854)
(135.078 3.89194 -0.696293)
(124.078 9.26592 1.03146)
(117.254 -0.922942 3.00186)
(105.222 -0.10009 2.97476)
(102.411 -4.29616 1.2525)
(99.0868 -1.71244 0.110063)
(99.1525 -1.5556 -0.991582)
(101.587 0.449673 -1.76101)
(108.954 5.86095 -1.38581)
(111.728 8.73106 -0.708771)
(114.614 9.12639 0.102783)
(108.949 7.95064 0.466533)
(451.087 -289.61 100.571)
(148.954 -27.0694 26.2764)
(167.299 40.7424 7.49089)
(96.8878 24.4528 -1.14893)
(130.503 13.7757 -3.09173)
(108.108 30.0403 -4.55122)
(119.725 17.8508 -2.74982)
(114.575 6.26536 -0.701266)
(119.19 20.4301 -0.123532)
(106.295 14.4376 0.860587)
(96.4309 10.4079 0.994362)
(81.8017 -0.173451 0.763692)
(80.6597 -2.02404 0.130953)
(80.0698 -1.99392 -0.209135)
(80.1251 0.430806 -0.965699)
(82.072 1.26577 -1.85293)
(88.7235 3.82421 -1.92545)
(93.242 5.58859 -1.0336)
(97.137 8.63138 0.103948)
(96.7969 8.97544 0.413906)
(128.229 -193.298 -63.5253)
(36.7728 -57.9625 -14.3822)
(124.745 -5.64941 2.44955)
(47.6609 9.62473 -1.12478)
(93.5005 2.07169 0.367326)
(47.4795 19.4325 -1.61384)
(85.7788 34.6895 -0.376213)
(89.5032 15.4588 -0.459521)
(95.9822 23.1843 0.187086)
(95.0782 18.7361 -0.0353286)
(82.9762 17.5738 0.419024)
(71.3349 4.49813 0.260579)
(71.9352 0.327946 -0.0245013)
(74.5004 0.733827 -0.172309)
(76.0773 0.833998 0.0672928)
(75.0943 2.31256 -0.590598)
(75.2143 4.3124 -0.629915)
(75.9764 6.59176 -0.473146)
(78.288 9.7625 -0.218887)
(82.3885 8.96766 -0.0151738)
(91.5321 165.4 -124.876)
(46.574 27.2179 -40.8819)
(146.851 45.5195 -12.6282)
(73.4502 47.3613 -3.03448)
(101.623 51.8074 0.323844)
(42.2029 28.5937 -1.445)
(44.2952 22.7658 0.402894)
(55.8269 18.9867 0.0225885)
(60.1657 18.9981 0.171224)
(62.9229 14.0704 -0.10842)
(65.4075 8.60471 -0.0679439)
(65.6734 1.16214 -0.107424)
(67.3014 -3.60668 0.0376912)
(72.1678 -2.87706 0.0264413)
(75.8001 -0.996143 0.104857)
(75.7492 2.50919 0.0802338)
(76.1457 5.62678 0.016673)
(76.1099 7.45284 0.0299994)
(78.8 9.40374 -0.114149)
(83.4979 8.87567 -0.13704)
(80.9887 129.913 -183.521)
(-231.468 32.9849 -4.7885)
(88.2155 46.8922 -19.8593)
(14.0397 50.3036 -0.110067)
(85.6247 53.6338 2.78387)
(39.509 45.2771 -0.795824)
(52.5557 23.0953 0.673333)
(69.3404 8.93086 -0.657301)
(77.6447 10.1491 -0.607823)
(88.2278 14.5615 -0.31323)
(82.7474 14.6593 0.2366)
(89.5302 -1.33575 -0.0452342)
(103.068 -8.06437 0.41669)
(93.8036 -5.07348 1.05805)
(78.8569 -3.53536 0.552434)
(78.3182 -0.320494 0.568911)
(78.5036 2.90707 0.373574)
(81.188 5.85033 0.412579)
(85.6142 9.45631 0.00823996)
(91.6735 9.08819 -0.0769353)
(3.75104 144.901 98.1844)
(-44.8977 -49.2509 -19.8206)
(93.0522 -23.7285 -14.9862)
(63.9886 15.5624 -1.60468)
(108.183 35.8948 3.76353)
(81.8008 23.3714 0.0346274)
(90.614 11.6498 1.09584)
(88.6262 11.089 -0.352766)
(95.6564 4.57265 -0.0841109)
(99.5514 4.19442 0.687405)
(112.104 -3.02215 -0.0335189)
(108.596 -10.2647 0.416346)
(93.6647 -8.23486 -0.171159)
(95.0016 -0.584638 -0.577072)
(87.3458 1.22234 0.702742)
(76.5764 -2.15479 0.829518)
(74.7581 -0.801323 0.458048)
(76.1116 0.384988 0.156108)
(82.0615 5.59854 -0.16631)
(90.9808 7.4504 -0.119852)
(336.665 138.698 185.895)
(19.9094 49.0944 45.3831)
(111.575 45.6474 -14.175)
(39.1134 14.4476 -5.12895)
(93.6369 28.1783 3.33422)
(45.1114 -6.38945 2.84669)
(71.068 16.6218 -0.16099)
(65.0731 10.0106 -0.354067)
(75.2589 4.81948 0.0500149)
(62.811 4.89698 0.901041)
(69.7952 0.382486 0.434815)
(67.3417 -3.78362 0.151503)
(73.3957 -4.56861 -0.198348)
(73.9048 -2.67411 0.032402)
(71.392 -0.463051 0.251157)
(70.0237 -1.58851 0.221475)
(68.0301 0.149465 0.053903)
(67.0327 -0.0438804 -0.275033)
(70.0251 2.35467 -0.48279)
(79.3205 4.96556 -0.344561)
(-73.9964 -7.43398 179.277)
(-258.645 37.6895 -78.5997)
(133.486 54.6675 -52.7365)
(34.0546 25.6415 -10.8004)
(105.645 18.2731 -4.84536)
(64.461 -2.77399 -2.41342)
(82.1342 20.3081 1.71875)
(69.472 -8.25911 1.40975)
(80.7119 7.97073 0.644379)
(74.0125 -5.40529 0.280254)
(77.6505 1.58384 0.403975)
(70.3379 -6.25874 0.325338)
(70.5195 -0.82124 0.289689)
(65.7593 -4.37493 0.191298)
(65.9079 -0.456395 0.368314)
(63.6367 -0.229335 0.147135)
(63.056 2.05221 0.0780154)
(61.8027 1.91131 0.0127795)
(64.0412 2.994 -0.197709)
(70.6382 4.06649 -0.0764958)
(63.8945 -181.108 -7.71383)
(-20.2866 30.0593 -14.7509)
(133.769 34.4412 -20.858)
(89.9045 52.84 -13.7169)
(145.204 42.1852 -6.09712)
(106.567 17.0227 -0.606187)
(111.379 -2.03882 6.18941)
(77.0074 -12.7046 2.64827)
(80.0157 -4.39368 1.66846)
(66.4043 -6.8141 0.642332)
(66.3979 -1.1768 0.845251)
(56.7806 -4.73191 0.268542)
(57.9001 -1.30601 0.116494)
(55.3063 -2.40836 -0.016822)
(56.8421 0.285561 0.016059)
(56.6075 -0.156809 -0.0503841)
(57.5016 1.08019 0.021788)
(57.3308 0.93931 0.0534123)
(60.0717 1.68981 0.0129682)
(65.7708 2.80435 0.0545488)
(80.1261 23.4445 -126.114)
(20.0691 7.50641 -28.9837)
(163.743 16.4139 -10.9873)
(150.76 26.7803 -6.15679)
(184.68 19.1345 1.19999)
(162.513 6.85926 4.0982)
(150.09 18.4029 7.64927)
(106.834 3.38677 4.62351)
(100.486 11.0423 1.97541)
(81.7614 3.49626 0.855173)
(81.2524 7.8046 0.865737)
(68.5482 0.143757 0.67739)
(67.3484 0.626397 0.797223)
(59.9451 -3.3945 0.39054)
(60.9295 -1.13645 0.247283)
(58.7478 -1.19927 0.0950848)
(59.4747 0.587045 0.0673475)
(58.2867 0.778785 0.0698408)
(60.9726 1.72997 0.038057)
(66.1161 2.37223 0.0734839)
(223.055 -113.43 -179.801)
(121.089 2.96419 -40.1784)
(184.989 32.4865 -5.12678)
(137.344 38.5174 0.19427)
(144.389 25.9019 10.1208)
(83.878 11.2644 5.8799)
(99.0233 16.2726 5.53103)
(69.1861 7.80844 1.34667)
(83.5497 10.9441 0.550966)
(70.8371 5.92864 -0.0304213)
(78.8335 7.89852 0.329177)
(70.0337 4.58296 0.338734)
(71.4303 3.86342 0.72319)
(62.491 0.819921 0.623971)
(61.7829 0.7606 0.330098)
(57.8739 0.160536 0.082299)
(58.062 0.60988 -0.0488234)
(56.4327 0.746861 -0.0556283)
(58.9666 1.01406 -0.042774)
(64.1455 1.62223 0.0146343)
(146.58 80.7311 77.1432)
(73.3095 33.2271 24.1225)
(152.099 10.7622 30.8847)
(69.7322 0.445523 14.0992)
(100.178 0.365287 10.1701)
(58.8128 1.37802 3.47477)
(88.8755 9.32527 1.50914)
(68.0034 6.65073 -0.345027)
(84.5762 10.767 -0.488654)
(72.6635 7.25468 -0.684774)
(80.7358 9.08249 -0.111194)
(71.8567 5.91862 -0.0366493)
(74.3848 6.0148 0.188045)
(66.9132 3.75235 -0.0420187)
(67.2485 3.50775 -0.130376)
(63.3276 2.44792 -0.288669)
(63.5568 2.39075 -0.28163)
(61.6443 2.13586 -0.240696)
(64.114 1.81886 -0.207615)
(68.8748 1.78148 -0.183794)
(221.677 -215.755 -22.6891)
(138.352 -150.029 -7.29874)
(202.54 -63.8652 29.8264)
(57.9794 -7.00346 12.9537)
(100.246 -12.2589 3.85016)
(45.3847 -8.73979 1.64138)
(82.8644 1.86522 1.4629)
(57.7602 7.26979 0.452912)
(78.2462 10.7706 0.607232)
(63.4844 10.5347 0.240673)
(74.9375 10.5787 0.302973)
(67.2629 9.86987 0.0301404)
(73.6508 9.35041 -0.152015)
(69.416 8.26782 -0.454415)
(72.4809 6.83308 -0.677739)
(70.2743 5.53154 -0.885811)
(71.3757 4.13526 -0.973858)
(69.8387 3.55939 -0.933107)
(72.421 2.73018 -0.783769)
(76.8118 2.41424 -0.560913)
(231.962 -225.682 -64.5468)
(164.149 -92.0535 -65.4977)
(272.428 -70.1086 -33.3894)
(286.227 5.13256 0.305486)
(279.65 -0.788314 15.6103)
(178.383 -9.73163 16.0851)
(145.239 -8.88728 8.79337)
(110.873 2.68139 4.31617)
(115.565 6.01276 3.66688)
(102.78 8.28237 3.64002)
(104.962 7.90181 3.82228)
(95.6949 8.35222 3.43163)
(96.4545 8.70814 2.99965)
(92.2759 9.46228 2.442)
(94.6447 9.8492 2.01239)
(94.5127 10.0093 1.63625)
(97.1236 9.93323 1.28213)
(99.3672 9.4787 0.856602)
(105.548 7.85382 0.428076)
(113.915 6.06518 0.534982)
(192.654 -86.0819 -101.636)
(86.8337 -7.43255 108.92)
(162.78 33.367 50.7058)
(87.2379 32.1634 12.3278)
(127.911 29.9514 0.889545)
(61.3967 15.679 -5.54189)
(99.0919 7.29673 -4.29764)
(64.2602 5.00599 -4.13965)
(90.1782 0.0333674 -1.92856)
(74.7052 -0.127186 -1.87015)
(89.8951 -2.52535 -0.570087)
(84.3523 -2.80065 -0.532614)
(93.4511 -3.90441 0.128727)
(92.6588 -4.2029 -0.0282822)
(98.6908 -4.69316 0.0281548)
(100.579 -5.29549 -0.205435)
(106.056 -6.02839 0.330423)
(110.03 -4.97063 0.485074)
(116.282 -8.22093 -0.975174)
(128.317 -7.91205 -0.496762)
(44.8815 -127.607 72.8944)
(-22.8332 -1.80766 5.98691)
(122.248 -10.5854 4.90558)
(24.5443 2.7484 4.076)
(113.812 -5.04842 -2.3872)
(54.7021 0.627302 -0.959384)
(98.9181 -6.95802 -1.21815)
(69.0078 -1.83548 -1.18039)
(91.9785 -7.00376 -0.195464)
(77.7515 -4.09487 -0.0371448)
(90.1137 -6.82525 0.973084)
(83.9721 -5.27617 1.25415)
(90.6332 -6.33956 1.95048)
(88.3577 -5.5776 2.10643)
(91.7038 -6.15004 2.45167)
(90.9758 -6.65845 2.38437)
(92.883 -7.79016 2.19939)
(94.1397 -7.47544 1.26662)
(99.7575 -8.00383 0.360303)
(102.888 -5.90977 0.54475)
(209.673 120.765 18.3713)
(63.1869 -20.0511 44.5875)
(157.343 -0.615474 13.9991)
(93.5007 11.0491 6.7013)
(134.453 8.09385 3.84483)
(94.3214 11.983 3.34165)
(115.347 -0.909817 2.80125)
(90.0239 2.89483 1.97826)
(102.73 -5.83336 1.87803)
(88.378 -2.63851 1.15847)
(95.8155 -7.03401 1.20412)
(88.2406 -4.98316 0.72817)
(91.8264 -6.64875 1.00731)
(87.567 -5.4101 0.965575)
(88.4006 -6.08026 1.34535)
(84.7684 -6.16926 1.43457)
(83.5124 -8.01316 1.56737)
(80.3767 -8.09036 0.832871)
(82.2237 -7.32464 -0.220295)
(82.0626 -3.56622 -0.854113)
(187.258 -70.7237 -146.524)
(115.886 -46.5237 7.68129)
(163.564 -12.6002 4.3505)
(87.0285 12.4344 5.39864)
(136.105 7.2586 1.79861)
(90.576 12.1346 3.54824)
(116.328 1.12597 3.47019)
(92.0817 4.87844 2.27718)
(101.126 -3.38137 1.44397)
(86.4066 -0.720923 -0.106197)
(90.9888 -5.11334 -0.328726)
(84.1534 -3.30344 -0.657547)
(87.1581 -5.04342 -0.343002)
(84.1341 -3.49093 -0.0775603)
(85.0689 -3.26534 0.591226)
(81.6812 -2.64898 1.39146)
(79.4662 -3.46422 1.80419)
(74.4446 -3.61871 1.09837)
(74.9665 -3.00737 0.246493)
(73.9725 -0.94315 -0.455493)
(259.702 217.806 -39.1537)
(133.826 71.2046 -20.7006)
(164.966 35.8985 -3.04669)
(117.178 21.7191 -1.73269)
(144.243 8.65388 -0.653321)
(114.204 16.2453 -0.441056)
(127.461 5.7864 1.22954)
(105.547 13.978 1.21341)
(109.543 3.67897 1.63471)
(94.877 5.59102 0.398143)
(97.1276 -2.74607 -0.349575)
(89.9011 -2.25025 -1.16604)
(91.6043 -5.96626 -0.767359)
(88.1005 -4.51059 -0.596576)
(88.1853 -3.347 0.198972)
(83.4882 -1.21017 0.998041)
(79.0334 -1.28715 1.78233)
(71.9403 -1.54685 1.22599)
(71.7007 -0.292551 0.736898)
(71.6508 1.75132 0.213725)
(54.5122 70.2097 155.228)
(-76.1943 63.0732 -55.3497)
(122.512 20.0418 -24.9081)
(58.0844 21.2391 2.28531)
(125.02 15.093 -1.88224)
(90.4953 23.5734 -1.71828)
(115.517 12.4485 -1.11705)
(100.358 18.1206 -1.66486)
(106.652 9.48053 -0.237625)
(99.3144 9.31805 -0.118366)
(101.359 0.238117 0.950872)
(97.3857 -0.835716 0.736771)
(97.3808 -3.76274 1.19249)
(93.9262 -1.86203 0.390672)
(92.2076 0.850044 -0.294293)
(88.2046 5.8319 0.11034)
(84.8807 7.32445 1.74613)
(77.8835 5.53162 2.18262)
(75.8709 3.69511 1.83451)
(74.7341 3.22805 0.835051)
(127.443 205.347 107.72)
(120.438 58.2396 28.619)
(151.304 -22.3751 -0.504148)
(100.929 -5.14251 -1.72296)
(129.259 -5.85556 -3.74836)
(96.0199 15.3525 -3.33209)
(108.298 1.25351 -2.65497)
(94.3966 20.5327 -1.71331)
(98.7058 6.17246 0.370114)
(90.2286 9.55522 2.5001)
(90.9905 -0.93727 4.42501)
(86.5348 0.640499 3.54457)
(86.1536 -1.64459 1.48332)
(82.4157 1.39322 -0.393169)
(81.878 2.45126 -1.67602)
(81.7679 5.67791 -2.1945)
(83.0869 8.61302 -1.41371)
(82.1507 9.15634 -0.448586)
(83.7106 8.65014 0.879508)
(82.3561 6.70375 1.01676)
(270.726 -48.0118 162.976)
(40.043 18.8789 67.7285)
(139.184 44.9091 13.822)
(72.9132 24.7074 -1.63317)
(111.008 21.2279 -4.9487)
(78.7345 40.8883 -5.92937)
(93.3537 23.0454 -3.59724)
(84.4486 16.4099 -2.31738)
(89.4809 18.7224 -0.486682)
(80.4933 11.4771 2.54562)
(78.8208 6.60628 3.85584)
(73.3227 2.31704 1.77226)
(73.7908 1.58464 -0.316264)
(72.3529 2.2184 -1.2908)
(69.4221 3.09794 -2.08872)
(69.7023 4.09919 -2.60805)
(71.6455 5.65956 -2.09669)
(72.2488 6.38709 -0.662898)
(75.2595 8.13047 0.63719)
(77.9184 7.56171 0.803603)
(135.254 -229.865 85.258)
(-31.8978 6.8209 5.69774)
(109.707 4.85802 -5.16803)
(25.7849 7.85146 -2.37787)
(77.2411 5.68843 -0.905712)
(49.8344 25.6689 -3.52759)
(76.9139 32.0584 -4.18471)
(77.034 18.7667 -2.71337)
(78.433 19.7344 0.334872)
(73.4571 14.8261 2.45146)
(68.5236 11.7747 4.08596)
(65.9959 5.21355 1.1629)
(66.4807 2.76014 -0.705017)
(67.5248 2.79547 -1.19183)
(67.2062 2.21706 -0.795559)
(64.9491 3.00094 -1.2193)
(64.4021 4.68085 -0.919879)
(64.3892 5.95677 -0.476905)
(66.7025 7.94046 -0.174823)
(71.3271 7.07341 0.15644)
(257.559 -100.491 106.128)
(50.4 66.8691 -16.01)
(124.761 53.6204 -15.6096)
(43.3973 41.1451 -6.33715)
(78.5848 39.9683 -1.66238)
(43.1549 25.915 -3.79144)
(51.2855 23.6296 -1.73477)
(55.477 19.8324 -0.0734486)
(57.6455 17.2812 1.06878)
(57.7689 13.3264 0.537002)
(59.6697 7.98779 0.0483586)
(60.9813 1.52557 -0.137404)
(63.3943 -1.97555 0.16268)
(66.6374 -1.86833 0.183776)
(67.9439 -0.284246 0.382913)
(66.5689 2.76832 -0.0798712)
(66.4525 4.9823 -0.0533635)
(66.0251 5.94657 0.10431)
(68.5741 7.08303 -0.109111)
(72.9885 6.55968 -0.0999091)
(-93.607 90.1007 -28.3634)
(-169.658 50.8636 6.52024)
(41.5216 37.8308 -25.7215)
(-32.2673 37.6472 1.55712)
(60.2199 38.3957 3.00254)
(20.1364 34.9039 -0.793444)
(50.4462 25.3731 0.0682776)
(59.6573 11.8483 -0.102004)
(64.5985 11.8871 -0.60702)
(68.7675 11.1318 0.277005)
(71.944 5.92564 0.716582)
(78.9717 -2.05143 0.228396)
(82.3813 -2.68656 1.55949)
(76.0544 -2.45041 2.67603)
(71.527 -0.956723 1.52086)
(70.171 1.38532 0.417962)
(70.3131 3.88473 0.360321)
(71.6292 5.4134 0.434341)
(74.6993 7.31271 -0.044891)
(78.8606 6.57367 -0.0460971)
(89.8178 -91.4464 -35.5)
(-20.7585 -56.1666 -48.4503)
(72.8324 -28.223 -25.3316)
(13.3689 8.11382 -1.8354)
(76.0152 26.9983 4.94211)
(57.7489 15.2261 1.8308)
(81.3298 6.92882 3.21851)
(75.725 10.9876 0.404698)
(75.5162 6.24009 0.591325)
(79.0383 4.2334 1.56837)
(83.3245 -2.41971 0.797367)
(80.8741 -5.3724 1.21321)
(78.3491 -1.82753 -0.736383)
(76.3715 1.71934 0.225367)
(70.8298 1.21932 1.90893)
(65.964 -0.0350801 0.69915)
(65.8512 1.95456 0.291671)
(67.7782 3.47888 0.0352242)
(72.1654 6.38941 -0.328333)
(77.8459 6.46386 -0.108593)
(208.019 197.811 -28.2116)
(154.312 84.2998 -15.0509)
(150.258 39.4593 -1.14698)
(7.93457 14.3471 3.66669)
(80.4772 24.0883 6.54196)
(18.931 -16.2483 6.06376)
(54.174 14.2552 4.00391)
(44.5816 6.91582 3.28236)
(59.721 3.62793 1.74925)
(51.3813 2.34594 2.03166)
(59.4922 0.840004 1.1294)
(56.8299 -1.18066 0.314166)
(62.2361 -0.710002 -0.252578)
(61.0356 -0.396252 0.0710455)
(58.9649 0.616444 0.0284777)
(58.8767 -0.365847 0.0317796)
(58.6254 1.36764 -0.0989712)
(58.7299 1.33345 -0.369596)
(62.252 3.97225 -0.701353)
(69.1025 4.92479 -0.348055)
(586.24 201.691 -30.9717)
(131.619 115.12 -12.86)
(144.233 68.8965 -28.5087)
(19.6476 29.7499 -3.98167)
(84.2122 20.0468 -1.04099)
(28.4937 -3.18947 -2.41807)
(60.311 25.7202 3.58271)
(42.1345 -12.4724 2.21406)
(57.4213 8.15384 1.26335)
(48.7889 -8.69523 0.81978)
(56.0106 1.91776 0.902883)
(50.7233 -6.3385 0.639651)
(54.3698 0.638809 0.462905)
(51.769 -3.57073 0.347635)
(53.8352 0.588648 0.48585)
(53.0026 0.305431 0.181857)
(53.5002 1.99809 0.0825898)
(53.0242 1.7601 0.00401382)
(55.9725 2.98951 -0.293166)
(62.4153 3.63216 0.0482129)
(143.635 -264.23 81.2147)
(45.713 52.6914 -28.0671)
(123.211 52.4097 -16.7818)
(25.8491 35.4568 -11.243)
(94.0918 21.6183 2.76639)
(29.8101 -6.90837 3.0144)
(72.6952 -3.46136 9.97901)
(44.6376 -12.8782 2.76337)
(58.4647 -2.17007 2.72556)
(45.0815 -7.49361 0.87532)
(50.8028 -1.20903 1.32561)
(44.0927 -5.17928 0.353255)
(47.9671 -0.970423 0.321622)
(46.0212 -2.42969 0.081268)
(48.1023 0.278769 0.143386)
(48.0022 -0.34669 -0.00223577)
(49.1617 0.943805 0.0624339)
(49.1521 0.697827 0.113369)
(52.1911 1.59429 0.0227026)
(58.0749 2.35349 0.229627)
(37.9453 102.07 -87.6952)
(-81.3285 61.8373 -7.00464)
(101.687 40.5165 1.31551)
(57.8267 17.045 0.297571)
(115.018 4.85875 11.593)
(78.5935 -2.97374 8.83389)
(94.8936 9.72041 11.7598)
(65.1019 -2.34256 6.07541)
(72.8229 7.96012 3.34904)
(55.275 -1.81641 1.3792)
(61.1695 3.83614 1.48677)
(50.7943 -3.53154 0.919064)
(54.3603 -0.720403 1.09774)
(49.1201 -3.76117 0.469545)
(51.6989 -1.03223 0.357085)
(49.8931 -1.30102 0.127825)
(51.0352 0.312767 0.126867)
(49.9291 0.295312 0.169986)
(52.7753 1.14752 0.101906)
(58.0748 1.65369 0.257477)
(64.7568 -118.714 -85.8599)
(-84.8298 -17.6178 10.3211)
(117.465 3.56261 2.09098)
(28.9302 2.61606 11.1315)
(94.4525 7.73627 21.1655)
(31.7206 0.0737151 7.26482)
(74.2338 12.1096 8.01874)
(42.1713 3.11311 1.76165)
(64.5305 8.01493 1.13566)
(48.4404 1.47021 0.0931659)
(60.3139 4.07626 0.696401)
(50.8875 0.228922 0.467193)
(56.0608 1.22744 0.934381)
(50.2978 -0.629859 0.567023)
(52.4349 0.159416 0.340773)
(49.8876 -0.218079 -6.05057e-05)
(50.7768 0.297252 -0.107386)
(49.3324 0.345613 -0.0852355)
(52.0621 0.528309 -0.0814725)
(57.1526 1.00031 0.094585)
(125.953 95.4022 -65.0876)
(-110.822 -21.2101 40.9464)
(120.083 -27.4143 31.3862)
(10.8545 -14.3101 18.7885)
(82.9923 -6.33871 15.3873)
(35.1708 -2.2651 5.60826)
(74.4916 5.44075 3.15593)
(47.5639 1.29682 -0.131179)
(68.2606 5.69228 -0.374331)
(53.1074 1.23028 -0.896992)
(64.453 3.74909 -0.182767)
(55.7306 0.737097 -0.232215)
(61.5264 2.08046 -0.0538333)
(56.1816 0.590761 -0.379388)
(58.8185 1.20333 -0.418876)
(56.1205 0.680954 -0.588936)
(57.0099 0.944579 -0.516059)
(55.2404 0.854988 -0.407311)
(57.8056 0.760528 -0.39945)
(62.4661 0.891349 -0.246837)
(129.116 40.3727 63.3802)
(-133.089 -12.1777 48.8983)
(145.109 -4.36625 37.7884)
(10.4885 9.37852 9.40483)
(84.1697 -7.34175 8.15791)
(29.3357 -5.96212 5.31066)
(74.1251 1.49336 4.28855)
(45.8684 3.54036 1.14452)
(69.3609 5.22074 0.966477)
(54.0975 4.05117 -0.140888)
(67.5455 3.9235 -0.252014)
(60.6789 3.54269 -0.92369)
(68.4581 3.40632 -1.21276)
(65.401 3.05164 -1.65258)
(69.2728 2.49618 -1.83648)
(67.6392 2.19033 -2.019)
(68.7889 1.67701 -1.96094)
(67.2554 1.68217 -1.7833)
(69.7668 1.19598 -1.49387)
(73.9832 1.01311 -1.05704)
(180.652 -155.098 -54.1871)
(54.5998 3.84407 -71.08)
(151.461 11.5293 -52.5373)
(159.197 35.2515 -10.7904)
(180.651 -9.4901 28.6079)
(122.513 -14.1166 25.997)
(121.556 -8.60196 18.1732)
(99.2588 1.97167 9.43205)
(107.628 4.94818 7.69711)
(97.8613 6.32305 6.81714)
(103.253 5.33514 7.06523)
(97.2749 4.784 6.52791)
(100.435 4.32012 5.98052)
(97.9082 4.48757 4.9066)
(100.827 4.56302 4.07644)
(100.981 4.73188 3.17319)
(103.711 4.65826 2.37508)
(105.26 4.39926 1.55379)
(109.82 3.80157 1.03491)
(116.286 3.06898 1.2593)
(-3.31688 -10.0261 -151.421)
(-34.505 32.6806 -24.3637)
(172.181 30.9859 9.59873)
(56.0511 29.2333 2.60942)
(119.767 23.0656 2.75481)
(45.1054 9.24896 -4.49054)
(91.2948 0.407767 -2.33977)
(51.3739 0.571031 -2.83294)
(81.2184 -3.65796 -1.01187)
(62.947 -2.23701 -0.864049)
(79.9086 -4.14291 0.385864)
(73.0885 -3.57321 0.212412)
(82.9159 -4.37969 0.8421)
(81.6262 -4.34897 0.555897)
(88.0085 -4.95628 0.67101)
(89.6732 -5.1773 0.441999)
(94.9189 -5.59787 0.821056)
(98.9668 -4.52073 0.378822)
(105.052 -6.20318 -1.09067)
(112.79 -5.74712 -0.478959)
(29.2942 -20.257 69.4259)
(-18.8116 5.25891 -24.5791)
(114.995 -16.145 2.88157)
(18.2697 -2.09795 4.97083)
(104.662 -12.012 -0.533842)
(42.2529 -4.55372 0.315089)
(88.199 -11.866 -0.651985)
(54.0865 -4.97021 -0.63091)
(78.9088 -9.43311 -0.0301095)
(61.6904 -4.84078 0.0490678)
(75.1629 -6.95617 0.852308)
(67.2654 -4.40105 0.950126)
(74.4766 -5.16227 1.55646)
(71.4588 -4.03832 1.55998)
(75.3431 -4.62062 1.93128)
(74.8344 -4.86621 1.75034)
(77.4893 -5.65411 1.53397)
(78.3241 -5.04758 0.791059)
(82.5933 -5.27951 -0.146879)
(84.1846 -3.16993 -0.132785)
(107.228 -18.5687 62.7754)
(0.470718 -18.663 20.4193)
(144.839 -0.0680163 0.803169)
(77.8029 6.4951 3.12496)
(121.461 2.80583 2.11883)
(76.3286 6.79142 2.46597)
(99.953 -5.11629 2.01584)
(70.6203 1.29636 1.44859)
(85.6223 -6.67059 1.44446)
(68.716 -1.48363 0.748719)
(77.76 -5.56679 0.923436)
(68.8574 -2.47579 0.489024)
(73.3843 -4.16298 0.785955)
(68.6692 -2.75544 0.73276)
(70.3534 -3.75896 1.12096)
(67.6906 -4.0032 1.12207)
(68.043 -5.28149 1.14122)
(66.1497 -5.19617 0.481019)
(68.4006 -4.40007 -0.389653)
(68.2961 -1.61057 -0.992297)
(192.563 -13.8198 -134.487)
(96.399 -3.366 -12.5183)
(155.181 3.83483 -4.54045)
(66.7055 18.2415 3.35038)
(121.492 9.62512 1.61351)
(67.9949 13.8813 2.64612)
(97.5113 1.50564 2.74127)
(69.712 6.33083 1.60079)
(82.4501 -2.84073 1.11458)
(66.7806 0.84657 -0.337789)
(73.4404 -3.8555 -0.294824)
(65.6802 -1.07662 -0.637681)
(69.3356 -2.67915 -0.284027)
(65.4657 -0.739885 -0.141613)
(66.5995 -1.14393 0.413776)
(63.5769 -0.824775 0.967974)
(63.2135 -1.7322 1.3404)
(60.5543 -1.80229 0.803391)
(61.9985 -1.23619 0.0518933)
(62.1341 -0.019182 -0.457652)
(245.83 143.404 -131.809)
(96.2698 33.5594 -25.0927)
(153.246 25.4049 -8.20244)
(92.7896 23.51 -1.83596)
(125.26 11.5291 -0.639981)
(84.9477 20.6308 -0.266449)
(102.774 7.09196 1.23685)
(77.0939 15.6191 0.89271)
(85.6669 2.56696 1.39015)
(71.567 5.73847 0.299955)
(76.703 -2.7627 -0.237148)
(69.4628 -0.556327 -0.907188)
(72.1135 -3.55193 -0.523258)
(67.9307 -0.997912 -0.535758)
(67.856 -0.620208 0.0289198)
(63.6094 0.91922 0.557375)
(61.6952 0.189942 1.30103)
(57.7944 -0.0405477 0.958506)
(59.0893 0.711464 0.550181)
(60.5157 1.63757 0.137901)
(439.573 -265.335 -90.3891)
(-47.6446 -9.14586 -42.5976)
(119.978 19.9275 -28.6079)
(44.3863 28.8273 0.634149)
(109.319 21.6737 -2.66527)
(65.0458 29.7263 -1.72483)
(93.193 14.5284 -0.994441)
(72.4529 20.2222 -1.54941)
(80.7662 7.63183 -0.106495)
(72.3576 7.90187 -0.111825)
(76.1655 -1.21782 0.642163)
(72.47 -0.2992 0.328825)
(73.9233 -1.96495 0.790172)
(71.1884 1.47868 0.0712337)
(70.342 3.69991 -0.265155)
(66.2872 6.5256 -0.0232603)
(63.9898 6.3363 1.24666)
(60.0261 4.71374 1.72763)
(61.0539 3.56704 1.43044)
(62.6797 2.75476 0.677603)
(150.929 -50.4317 19.5012)
(52.8513 -10.9952 -11.8149)
(115.552 -28.3907 -13.3751)
(70.3419 3.32026 -3.24046)
(109.95 4.14795 -2.99985)
(68.2429 23.551 -3.05312)
(84.0705 3.26535 -1.88444)
(65.9717 23.9533 -1.54019)
(72.8309 4.56403 0.368246)
(65.2362 9.37304 2.12302)
(70.1711 -0.976792 3.56977)
(67.7995 2.26679 2.71886)
(69.4463 0.0275693 1.02965)
(66.2889 3.56067 -0.579264)
(65.6481 4.57104 -1.42865)
(64.061 7.21357 -1.69687)
(63.5999 8.45304 -1.13248)
(61.7068 7.90104 -0.390696)
(63.1716 6.96319 0.717354)
(65.189 5.10209 0.871898)
(177.618 42.5374 136.847)
(27.6879 46.251 54.8286)
(131.192 46.9604 10.8636)
(57.5031 26.7506 -0.773477)
(96.2719 26.7125 -4.39023)
(55.8487 46.3952 -5.4448)
(70.7802 22.2891 -4.17325)
(57.9108 21.1229 -2.30398)
(63.8121 14.7275 -0.358443)
(58.6692 10.4154 2.78208)
(62.7827 5.32694 3.40313)
(61.32 3.99268 1.44492)
(63.0567 3.18267 -0.475032)
(61.5095 4.07176 -1.39271)
(57.4299 4.16458 -1.67254)
(56.5973 5.1988 -2.04843)
(56.6728 5.8924 -1.51841)
(56.4266 6.06533 -0.348417)
(59.4738 6.99885 0.6039)
(63.6779 5.94471 0.770722)
(99.2477 -16.582 46.2564)
(-26.6009 27.6263 -14.3443)
(92.1141 3.80864 -15.3157)
(6.9776 7.98302 -1.95316)
(61.9272 9.23552 -2.58872)
(35.3584 32.2676 -3.13445)
(58.9582 31.2599 -4.7017)
(54.9185 18.9152 -2.01037)
(56.8783 16.6567 0.860861)
(54.4791 12.432 3.11604)
(56.2995 9.47833 3.33876)
(57.1471 5.44641 0.852526)
(58.4681 3.98491 -0.825332)
(58.9249 3.96341 -1.25869)
(57.493 2.96039 -0.800783)
(54.0432 3.26572 -0.643101)
(53.0912 4.69838 -0.618155)
(53.0337 5.26091 -0.227392)
(55.5665 6.50907 -0.0142332)
(60.3759 5.52218 0.290084)
(118.985 188.998 -47.6351)
(0.420891 85.9874 -43.3549)
(108.531 54.6465 -22.288)
(23.359 36.0104 -7.35207)
(62.4564 34.4929 -3.32666)
(28.5281 23.0409 -3.6802)
(41.8442 22.6373 -1.91702)
(45.8981 17.903 0.116252)
(48.229 14.4 1.16577)
(49.4896 10.9219 0.730337)
(52.3438 6.85004 -0.0942347)
(53.8129 2.01856 -0.180363)
(56.2308 -0.408708 0.200821)
(58.7191 -0.467536 0.317998)
(58.2915 0.489298 0.509521)
(55.6712 2.81834 0.453064)
(55.2921 4.32061 0.118311)
(54.942 4.77422 0.264938)
(57.6017 5.47375 0.0159359)
(61.8185 4.96136 0.033841)
(-83.1228 88.274 82.5025)
(-180.001 50.1379 -17.6913)
(22.1996 35.0791 -25.9598)
(-56.046 28.8211 -2.88388)
(35.4634 27.9902 -1.10577)
(-6.07027 23.3804 0.674332)
(33.1185 17.6312 1.45264)
(46.6588 11.5478 0.782923)
(52.3339 10.6042 -0.0576106)
(56.6704 7.3902 -0.431239)
(63.0866 4.2843 0.196478)
(68.2321 -1.47795 0.640539)
(66.8033 -0.393036 1.50563)
(64.3277 -0.588021 2.14392)
(61.4228 0.765937 1.45537)
(58.9899 2.23605 0.597757)
(58.7527 4.01649 0.423113)
(59.2238 4.5985 0.477559)
(61.8051 5.71 0.0940923)
(65.3273 4.83215 0.0921255)
(182.531 8.49582 205.503)
(1.89595 -25.2507 -32.6315)
(62.4675 -11.0071 -20.6488)
(-20.8421 10.7865 -2.07335)
(51.5313 22.2585 2.18495)
(22.5218 -1.37538 2.13442)
(54.6057 -4.01221 4.11761)
(55.7123 6.62009 1.62876)
(57.7685 5.46776 1.15997)
(60.4508 3.19072 1.60753)
(63.3024 -1.10899 1.1284)
(63.9898 -1.33761 0.480496)
(63.5454 1.36767 -0.30295)
(62.3738 2.13223 0.92708)
(59.1325 1.97257 1.73876)
(55.1408 1.23405 0.781577)
(55.315 3.21662 0.210507)
(56.6569 4.06346 0.13489)
(59.9713 5.63684 -0.204568)
(64.4073 5.15323 0.047053)
(83.6566 245.948 -28.4493)
(-42.0813 49.3919 -22.7473)
(71.9445 38.5477 18.3323)
(-37.0993 14.4288 8.00755)
(61.8934 18.0486 5.82798)
(-5.89011 -23.015 6.52772)
(34.9284 14.7643 4.93056)
(25.197 3.12678 3.86491)
(44.792 4.38652 2.09043)
(39.2837 1.46308 1.99853)
(48.9541 1.80399 0.880389)
(46.4589 0.250047 0.206427)
(51.9266 1.23784 -0.243924)
(50.3933 0.565068 0.204773)
(48.5762 1.23807 0.215873)
(48.9344 0.0208303 0.0249516)
(49.162 1.91839 -0.163832)
(49.4601 1.87145 -0.327326)
(52.6191 3.9892 -0.558141)
(58.0546 4.04213 -0.151882)
(88.3135 6.57433 -132.486)
(-38.0379 -7.49552 41.4142)
(86.3795 34.993 8.2975)
(-21.8067 12.7591 -2.13338)
(65.2804 11.5686 1.12788)
(2.77034 -7.55331 -1.12436)
(44.1813 27.4449 3.42331)
(22.6897 -16.0855 1.88756)
(41.7384 8.65116 1.13645)
(32.936 -9.9905 0.893199)
(42.5991 3.03474 0.5589)
(38.2001 -5.97457 0.520085)
(43.462 1.75382 0.199608)
(41.5778 -3.19187 0.256598)
(44.4209 1.00587 0.304758)
(44.0211 0.329464 0.117459)
(44.9335 1.9727 0.0119804)
(44.6099 1.55998 -0.033967)
(47.7081 2.76544 -0.22043)
(53.5485 2.91962 0.185071)