/*--------------------------------*- C++ -*----------------------------------*\
  =========                 |
  \\      /  F ield         | OpenFOAM: The Open Source CFD Toolbox
   \\    /   O peration     | Website:  https://openfoam.org
    \\  /    A nd           | Version:  10
     \\/     M anipulation  |
\*---------------------------------------------------------------------------*/
FoamFile
{
    format      ascii;
    class       volScalarField;
    location    "7.1";
    object      nut;
}
// * * * * * * * * * * * * * * * * * * * * * * * * * * * * * * * * * * * * * //

dimensions      [0 2 -1 0 0 0 0];

internalField   nonuniform List<scalar> 
12920
(
0.224148
2.77696
4.48889
5.64545
3.23132
4.91283
3.1898
3.86978
2.8657
2.69658
2.19957
1.8611
1.38413
1.15729
1.01321
0.833516
0.644279
0.505345
0.445795
0.434261
2.07342
5.3251
8.44326
6.94988
4.32001
4.99617
3.4676
4.3953
3.29962
3.38563
2.73938
2.39028
1.91165
1.61173
1.35939
1.22779
1.14947
1.18949
1.26544
1.39981
8.08553
9.94032
8.11895
7.36094
4.26426
4.84309
3.14794
3.56267
2.81964
3.11089
2.55318
2.50847
2.17227
2.10587
1.88574
1.68836
1.48752
1.42564
1.43428
1.41432
3.24568
13.3878
10.7463
9.62829
7.97013
7.72488
5.44734
4.98564
3.27458
3.5767
3.08593
3.18339
2.74028
2.67131
2.25716
1.9802
1.69655
1.53863
1.44283
1.36739
0.752824
10.0904
11.3552
11.3375
9.96512
8.82745
6.80549
6.2896
4.08778
3.83118
3.32816
3.53519
2.95759
2.77056
2.31678
2.03058
1.74041
1.54936
1.43716
1.3295
8.15332
15.6937
14.7008
13.1725
8.82255
8.33844
6.35032
6.74613
5.06598
4.2535
3.35058
3.17843
2.97766
2.88365
2.48342
2.17352
1.92937
1.78821
1.65903
1.46425
7.08454
13.3182
12.1226
9.64206
6.05031
7.26235
6.59198
7.21298
6.48473
5.77352
4.52222
3.191
2.56769
2.42813
2.26248
2.02066
1.82358
1.67296
1.56816
1.41024
2.17916
10.3019
9.1341
7.7938
6.64661
6.44147
2.63481
2.24735
2.00802
1.81465
1.39623
1.10138
0.942407
0.82824
2.57991
2.20946
1.96067
1.79028
1.68351
1.52694
5.88159
12.9428
9.42913
7.70121
6.06859
2.01343
0.857061
0.754591
0.753879
0.594351
0.457725
0.355018
0.272844
0.226118
0.759179
2.74227
2.34485
2.09037
1.91461
1.64395
8.89343
12.1177
6.77867
7.48465
6.08517
2.06158
0.687925
0.706098
0.775006
0.641917
0.502968
0.409169
0.311724
0.252757
0.845243
2.58116
2.24119
1.98136
1.84644
1.64514
16.0487
10.3046
8.32072
7.69779
7.04631
2.52813
0.794246
0.603584
0.555613
0.411773
0.327471
0.258145
0.201426
0.178406
0.575526
1.72738
1.62781
1.47942
1.44807
1.42412
9.39635
13.0016
8.55732
8.88119
7.60263
2.39529
0.595885
0.322499
0.398501
0.367569
0.313496
0.285432
0.225495
0.184372
0.523076
1.87191
1.58708
1.4121
1.39969
1.40015
3.40433
9.84289
7.80195
7.56453
7.18024
6.8606
2.61405
1.91144
1.30749
1.28474
1.14955
1.16475
0.978357
0.987487
2.81333
2.39859
1.97238
1.69478
1.61541
1.51183
0.300952
1.2958
1.96
7.05519
7.05993
6.91717
6.07281
5.16319
4.45827
3.83088
3.36244
2.96512
2.67454
2.47194
2.34193
2.26035
2.13773
1.83929
1.70334
1.53768
1.04054
3.91511
3.60609
7.52893
7.29384
6.35877
5.14675
4.30373
3.83212
3.44634
3.12909
2.84734
2.60295
2.40265
2.24574
2.12999
2.05817
1.89815
1.78387
1.62069
6.04361
10.6938
5.60507
8.03749
6.04658
6.31301
4.83065
3.91194
3.40935
3.10489
2.85916
2.67067
2.49535
2.36311
2.23752
2.14382
2.06994
2.01285
1.93881
1.82299
12.239
10.3172
8.41161
8.07348
7.13972
6.61973
5.39956
4.37874
3.59353
3.12398
2.79086
2.57608
2.40914
2.30657
2.2253
2.17278
2.13174
2.10392
2.08472
2.07357
5.9651
13.9834
11.7039
8.89197
6.9563
5.90604
4.92679
4.26489
3.71519
3.33298
2.9747
2.72463
2.52571
2.4042
2.32263
2.2821
2.26219
2.23489
2.22752
2.234
1.5565
10.0681
10.7104
7.96558
6.01443
5.1292
4.55455
4.18889
3.85283
3.60473
3.27384
3.0248
2.38081
2.26308
2.02813
1.98955
1.90084
1.85149
1.84908
1.87774
6.77274
8.32845
5.7165
6.23544
3.54487
4.22967
2.49405
2.93089
1.94695
1.80565
1.36801
1.22473
1.01492
0.897102
0.762221
0.672307
0.599972
0.553087
0.528395
0.47781
1.17129
4.51654
10.5267
16.8709
16.1059
17.7091
17.755
17.6311
15.3587
13.5618
10.7011
8.32628
5.76912
4.22528
3.10328
2.44519
2.32112
2.47036
2.59168
2.78324
9.36988
12.4231
24.5079
25.9871
16.6717
17.588
17.5381
20.324
21.1573
22.646
22.4162
21.0123
17.0109
12.2656
9.399
9.41336
11.0641
12.959
14.0514
14.3022
25.3439
26.9086
39.5392
28.4018
16.4396
14.0791
12.783
15.5767
17.2599
19.0466
18.8988
18.9427
17.7779
16.3228
14.4709
13.5071
13.4253
13.6589
13.9941
13.6269
17.8761
43.9728
45.827
39.3968
28.8947
26.3644
18.5095
17.2438
16.4047
18.5655
18.9654
19.1986
18.202
16.8543
15.2981
14.0591
13.5071
13.1779
12.6521
11.8642
18.3445
45.5543
44.5576
43.5735
35.6786
36.1927
30.6568
26.726
20.8046
19.3304
18.477
18.8037
18.3423
17.4149
16.025
14.8987
14.0777
13.3674
12.5531
11.5123
38.5966
53.9672
39.524
34.3797
25.5921
31.9044
32.7294
31.8136
27.5702
23.4017
18.6588
17.1045
17.4299
17.3107
16.6666
15.9415
15.3105
14.669
13.9765
12.047
28.6729
46.6946
33.7554
30.7494
30.1213
34.958
35.6826
35.2858
33.5421
29.9309
22.7885
14.4577
13.4498
15.4144
15.9209
15.6102
15.0425
14.3545
13.848
12.3528
4.59431
33.1135
32.14
35.943
31.685
34.9479
27.7934
28.7997
28.5732
25.0098
20.7131
15.479
14.028
14.091
16.2804
15.4395
14.852
14.2714
13.8339
12.4417
16.3992
49.4385
34.5418
34.6201
25.5167
23.8139
24.4388
26.0062
24.7245
21.2826
18.6722
16.0462
14.1153
13.1406
14.4881
16.3097
15.2992
14.6383
13.9575
12.2046
24.551
41.6402
41.6405
36.3918
28.7528
23.1576
21.0786
22.5514
22.3017
20.0523
18.5252
16.7225
14.8846
13.8673
14.8504
15.5999
14.4528
13.98
13.5381
12.2994
63.2543
36.4646
39.588
33.8223
26.4731
20.972
15.7467
17.6299
17.9754
16.3315
13.7082
11.3481
10.1997
9.955
10.3787
12.1554
11.9213
11.7578
11.9514
12.0442
27.9173
27.8097
36.8384
39.3087
32.8611
25.2683
18.2106
16.3798
17.9942
15.6841
15.0642
14.187
12.8244
11.434
11.7921
13.4712
12.1994
11.4754
11.6493
11.7759
26.642
20.896
26.1192
34.9623
33.6078
34.0531
24.5484
21.5813
20.3398
18.0368
16.4154
14.8832
13.9371
13.614
14.799
13.6979
12.7989
12.2133
12.2364
12.0703
4.5863
10.4115
16.5678
30.8649
36.8817
35.8886
30.9421
26.3266
21.6995
18.3099
16.3379
15.206
14.3076
13.7099
13.0523
12.681
12.4315
12.109
12.0282
11.7711
1.4069
14.535
25.8047
36.8136
35.65
31.7163
26.3882
22.9525
19.8549
18.1541
16.4772
15.4268
14.2541
13.4101
12.6778
12.2106
11.7958
11.6051
11.3946
11.2393
6.19368
33.49
31.3506
29.9098
21.7511
23.0558
21.702
20.4024
17.9979
17.0259
15.8115
15.0984
14.115
13.5517
12.9021
12.5791
12.2238
12.0601
11.8524
11.7784
28.2864
34.3745
24.6324
27.2037
24.3586
26.6576
20.5015
18.583
16.6356
16.7591
15.8784
15.0335
14.1852
13.7192
13.3457
13.193
13.1004
13.0747
13.0932
13.1091
43.8931
42.2362
33.4769
32.1233
23.9717
23.9706
20.1168
20.864
19.5319
18.4096
16.7898
15.6712
14.7399
14.2604
13.9635
13.8831
13.8885
13.9566
14.0345
14.2555
30.9375
37.2067
33.482
25.9632
16.7126
17.6251
17.1229
19.0513
18.8486
18.153
16.8424
15.9621
15.0246
14.4903
14.0737
13.9104
13.8474
13.8773
13.9955
14.1629
19.8648
19.7899
17.931
23.0135
18.9831
15.5509
13.7562
13.214
11.3045
11.4741
9.26782
8.98882
7.66292
6.99339
5.89685
5.16424
4.53439
4.12059
3.91894
3.55127
7.17379
7.40194
17.6421
18.7993
19.2578
19.7454
19.6237
18.9357
17.5716
16.1589
12.987
10.5179
7.80393
5.39397
4.03671
3.59072
3.61052
3.66191
3.73555
3.79694
26.355
21.3095
36.9617
36.8251
32.0195
34.2776
35.0901
36.523
35.7238
34.575
32.0577
29.3678
25.3464
20.3047
18.7758
18.8122
19.7685
19.7083
19.4841
19.1523
46.7364
43.8862
40.5602
39.9812
31.4806
31.0901
31.3518
34.3951
34.2092
33.9773
32.1252
30.2409
27.8896
25.5556
23.5612
22.3036
21.4419
20.7345
20.169
19.1725
28.0059
51.9024
53.8256
52.477
41.5715
38.0867
32.3392
33.8646
33.3238
33.7928
32.2271
30.4742
28.1662
26.0306
24.0338
22.294
20.7406
19.2505
18.0486
16.8472
38.2093
58.1829
62.0147
60.6632
52.1356
50.4498
43.0503
39.4004
35.3178
33.9968
32.1453
30.7704
28.7178
26.487
24.2157
22.2954
20.6325
19.1423
17.8457
16.4047
43.3638
59.026
57.5765
53.9132
47.9277
51.7575
48.5488
45.3027
40.0432
35.9024
32.0172
30.349
28.966
27.1576
25.2552
23.546
22.1077
20.6928
19.5426
17.2415
40.3764
58.9116
58.5589
54.1321
52.0465
53.9406
51.7886
49.1668
44.3503
38.862
32.1747
27.2706
27.3492
27.0259
25.5967
24.0357
22.6878
21.3283
20.3934
18.268
24.2855
63.4978
58.3636
57.5492
54.5827
53.1589
48.3362
45.672
41.7759
36.5172
31.1385
27.2449
25.9909
24.9655
23.9227
22.9165
22.0542
21.0332
20.1611
18.1795
34.9646
67.5594
58.9184
55.8515
49.8607
47.337
45.5326
42.1902
38.0024
33.8497
30.4449
27.3058
24.8513
23.1776
22.1684
21.6453
21.2393
20.5289
19.46
17.5587
48.6196
51.4643
51.2699
49.33
49.2508
44.0095
40.0213
37.3078
34.202
31.184
28.0831
25.4761
23.4094
21.8762
20.8004
19.5199
19.3785
19.3835
18.7309
17.4312
73.7569
51.5769
58.3584
51.5104
45.7607
39.5771
34.6357
33.4395
30.425
27.4202
7.54532
7.38524
10.2171
12.1283
13.5728
15.9946
16.1587
16.9418
17.2954
17.0563
46.359
50.9201
57.218
55.7596
48.8018
42.6764
36.4244
33.41
32.0021
27.8585
25.6235
23.3494
21.0105
18.7214
17.9257
17.6428
16.668
16.632
16.7636
16.9268
60.2831
40.1669
52.4506
56.9555
53.5429
52.204
43.7419
38.977
34.974
30.5394
27.3208
24.2793
21.9754
20.4483
19.3027
18.5382
17.8449
17.5481
17.4902
17.3573
36.2362
38.9444
42.0729
54.9121
57.1164
54.3641
47.062
41.1289
35.1837
30.575
26.8233
24.1738
21.8674
20.3471
19.2241
18.5889
18.1453
17.7626
17.6255
17.3635
11.314
44.6192
52.7783
59.0386
54.9176
48.8723
42.2016
37.3194
33.2
29.8749
26.6305
24.2207
21.9481
20.3726
19.1507
18.3994
17.7775
17.4113
17.2353
17.0174
8.87089
50.1701
54.0119
50.6957
42.1738
42.3476
37.6202
34.1403
30.3888
27.9084
25.2266
23.4175
21.5653
20.4414
19.3716
18.8102
18.2821
17.9691
17.8022
17.6689
22.6809
51.8902
46.2419
48.0191
42.3954
41.4504
34.4362
32.0857
28.9619
27.2131
24.6195
22.932
21.4371
20.6428
19.9971
19.7249
19.4996
19.4203
19.3879
19.366
46.3729
58.6407
49.3136
46.8047
39.6327
37.5744
33.6157
32.264
29.4376
27.4595
24.9273
23.2722
21.7585
20.9935
20.4672
20.3005
20.2445
20.2798
20.4077
20.7304
24.4171
55.8404
46.3721
38.111
30.8362
30.641
28.74
28.4019
26.3469
25.2871
23.3595
22.2439
20.809
19.958
19.221
18.9103
18.7147
18.6898
18.7841
19.0092
30.2706
35.6458
23.3097
24.6912
21.0016
17.7997
15.9242
15.0516
14.1829
13.3186
11.9299
11.2442
9.43443
8.60166
7.41961
6.67398
5.99241
5.39427
5.14185
4.65786
5.48846
10.4358
18.3372
19.7867
20.708
20.4988
19.9986
18.2863
16.829
15.2256
12.7711
10.2833
8.45432
6.56935
5.39234
4.86552
4.66587
4.38297
4.2594
3.80172
23.235
43.1959
42.6272
46.2703
45.0405
44.7363
44.3866
42.1211
39.6818
36.7096
33.9309
31.1113
28.3916
25.955
23.9957
22.0374
21.4026
20.4647
20.0215
19.4605
34.6676
47.9417
49.8456
51.7432
46.7484
45.7861
44.9096
43.9255
41.7361
38.8569
36.1202
32.9687
30.4273
27.964
25.9985
24.2342
22.6708
21.1515
20.0416
18.8901
31.4245
64.9607
66.4401
61.1199
51.5766
48.338
45.0084
44.0298
41.9599
39.2278
36.2606
32.856
30.0611
27.5112
25.1871
22.8233
20.5508
18.6342
17.3063
16.1933
41.9947
71.8602
76.0238
69.7168
62.0098
56.2538
50.8544
46.6882
43.1553
39.6646
36.5556
33.2582
30.2387
27.2466
24.5622
22.1892
20.1921
18.5014
17.197
15.8919
46.4137
62.9047
70.387
69.7008
63.9279
61.2238
56.3091
51.1861
46.0203
41.1896
37.3334
34.1314
31.2588
28.3484
25.8525
23.6774
22.0107
20.5235
19.4172
17.6014
23.009
69.3743
71.5092
69.0047
65.6837
63.3833
58.8666
53.952
47.9657
42.3603
37.4256
34.0734
31.7838
29.3568
26.9399
24.891
23.3092
21.8972
20.9327
19.0933
26.1423
78.2877
72.4738
69.8279
66.09
61.3876
57.1081
51.9855
46.3016
40.7538
36.0631
32.4746
29.7486
26.88
23.4422
23.1421
22.4501
21.4919
20.5786
18.8333
74.8616
70.6555
74.4583
68.3076
62.2872
58.6077
54.5038
47.3875
41.61
36.6359
32.6986
29.09
25.995
23.4241
20.7755
20.686
21.0785
20.6137
19.68
18.0812
79.651
59.0211
53.9661
65.7583
60.3147
53.8904
48.1892
40.9803
35.8276
32.3695
28.8252
25.8719
22.9296
20.9085
19.2818
19.3241
19.9284
19.8993
19.2652
17.8695
35.5169
70.9647
73.7373
64.2171
59.3132
51.9221
45.9391
39.0931
32.9374
28.882
13.5896
12.4874
14.1092
15.0047
16.2526
17.7587
18.3714
18.6627
18.5156
17.785
37.2642
68.9408
73.3009
67.5103
61.8005
55.041
49.4539
43.1805
36.6569
30.7165
26.7674
23.4442
20.0954
18.3884
17.8524
17.9775
18.0187
18.0399
18.0342
17.7507
52.8983
68.3073
72.9562
70.4859
66.3897
60.9623
53.4991
46.9693
40.572
34.2109
28.9675
24.2972
21.1025
19.2587
18.1918
18.3965
18.2506
18.0635
17.9944
17.814
36.0148
63.1197
66.915
71.9294
69.3593
62.0407
53.5952
46.4654
39.6892
33.8758
28.9227
25.2839
22.2674
20.3529
19.2826
18.6697
18.2239
17.9324
17.7652
17.5873
54.7744
62.0843
71.8051
71.9389
65.6703
55.8655
48.3928
42.2303
37.6396
32.7916
28.7048
25.3815
22.584
20.5645
19.2159
18.3233
17.7153
17.3131
17.1713
16.991
12.9215
60.0192
70.6469
66.0261
57.9496
51.3518
44.1914
38.8016
34.2833
30.421
26.9667
24.3606
22.1073
20.5637
19.3784
18.6733
18.1164
17.7667
17.6392
17.4922
40.2155
66.7298
65.5715
61.6015
55.0247
48.5205
41.3653
36.9564
32.6295
29.0716
25.6734
23.4434
21.7212
20.733
20.0194
19.6812
19.4552
19.2507
19.2535
19.2653
72.9009
67.8367
63.8373
55.3859
49.5929
43.3722
38.606
35.1763
31.5237
28.7654
25.7555
23.7401
22.021
21.1477
20.6155
20.4766
20.408
20.4355
20.6192
20.997
65.4882
61.012
53.483
43.2998
37.7824
35.0587
31.8724
30.4243
28.2571
26.9175
24.7309
23.1007
21.2482
20.1458
19.3099
19.0121
18.8437
18.8423
18.9709
19.3499
8.50043
19.0149
22.0819
23.7627
20.6172
18.1571
16.6552
15.59
13.0507
11.1827
9.65216
8.59562
7.64318
6.85025
6.09436
5.47002
4.91297
4.40437
4.05521
3.65891
6.64627
10.1629
18.9268
12.8715
17.8278
19.7855
14.9109
16.0699
10.5204
13.2283
7.73047
7.93689
5.9434
5.40636
4.18727
3.16404
2.52933
2.15816
2.03557
1.87416
45.9893
23.672
51.2641
36.4539
49.5314
46.6634
44.5004
39.3914
36.5913
32.8176
30.6102
27.6355
25.8154
23.7977
22.748
21.7097
21.1101
20.3544
19.9702
19.3326
65.7479
59.1485
49.1951
57.6375
54.3587
50.0157
47.8718
42.9854
40.2344
36.0118
33.727
30.2334
28.0739
25.5695
24.0239
22.4504
21.3796
20.279
19.5512
18.8832
85.1523
73.9731
53.9394
63.107
55.0905
51.9592
48.259
44.0869
41.1141
36.4963
33.5047
29.4699
26.843
24.0001
22.0274
20.1166
18.8618
17.7748
17.1102
16.6751
67.6944
79.09
81.4586
69.6529
63.5866
56.1948
51.8205
46.1949
42.4372
36.9052
33.4402
29.2143
26.4368
23.5158
21.5309
19.6815
18.4754
17.4338
16.7396
16.3461
33.7006
58.5933
73.1841
78.0186
69.0226
62.1384
56.7623
50.0071
44.6266
38.4957
34.5441
30.3737
27.573
24.7824
22.8334
20.973
19.6984
18.5206
17.7228
17.0988
31.137
71.7824
79.5024
76.3217
70.2754
65.313
59.8062
53.2302
46.1405
39.7477
34.7797
30.9397
28.2098
25.6855
23.8496
22.145
20.8579
19.6612
18.8132
18.0981
85.2367
80.4252
80.1915
66.8734
69.1022
63.4117
58.4281
51.4073
44.2015
37.7357
32.611
28.6489
25.7253
23.5532
21.8448
21.2807
20.3397
19.3461
18.5602
17.9819
110.575
64.7804
80.4945
36.9942
63.9933
60.3041
53.6167
44.1848
37.0857
31.1935
26.9064
23.7353
21.6926
20.2264
19.4191
19.9297
19.4977
18.6541
17.9959
17.5823
105.942
71.6127
74.2455
51.6186
61.7866
53.6772
45.5043
35.9348
30.2668
25.9019
22.4536
19.8416
19.2364
19.038
18.8405
19.3483
19.0608
18.4073
17.8644
17.4859
94.2925
51.5252
78.3096
37.8365
63.1646
53.8491
44.2016
33.6701
27.4694
23.4335
19.5459
16.8013
16.3744
17.4621
17.9321
18.4189
18.3536
18.0593
17.8214
17.6225
51.2017
49.9622
81.4379
60.9909
67.4407
59.565
51.2141
39.7632
30.993
24.6828
20.8037
18.7218
18.4783
18.3608
18.0015
18.0386
17.974
17.8676
17.8097
17.7561
72.0972
64.1406
82.8838
52.0399
70.6357
51.6831
53.749
45.3009
36.9306
29.5528
24.3452
20.943
19.1527
18.0513
18.0549
18.1556
18.0443
17.9833
17.895
17.8242
39.3248
55.3295
82.3152
80.4634
72.6034
61.8899
53.2464
44.4298
37.2314
30.1123
25.6561
22.1048
20.3514
19.0972
18.5899
18.1723
17.9379
17.7737
17.649
17.6109
44.99
74.1893
82.06
79.0066
68.3164
38.8217
47.1883
36.9435
35.2288
29.0524
25.5499
22.1813
20.4772
19.0281
18.3227
17.8017
17.5191
17.3413
17.2939
17.3847
65.7623
69.4993
81.6311
73.1696
62.7828
50.5392
42.7733
35.9535
31.9731
27.138
24.6597
21.8511
20.5663
19.2545
18.6823
18.2303
18.0314
17.8821
17.8625
18.0061
49.3908
46.2685
75.3081
46.4396
58.9695
35.4375
40.4605
32.7333
30.1677
25.6683
23.7429
21.5927
20.7632
19.8999
19.5896
19.3723
19.3037
19.2711
19.3305
19.5717
53.0179
73.823
68.416
35.1043
51.0983
31.9589
37.8309
32.887
29.9328
25.8309
23.9516
21.8666
21.1899
20.5024
20.3722
20.2998
20.3419
20.528
20.7503
21.2208
32.5116
34.0683
55.5515
22.6547
38.1846
32.8653
31.6425
29.1972
27.8243
25.1918
23.2309
20.9628
19.9801
19.0926
18.8149
18.6851
18.7168
18.8829
19.1304
19.6953
13.0774
7.86286
20.2822
14.9356
12.0853
17.6963
8.71239
10.8029
6.34951
6.67312
4.94454
4.75247
3.81218
3.4459
2.90488
2.60407
2.31177
2.16989
2.12547
2.28277
28.8581
26.9793
8.62588
33.0171
30.2844
28.5611
8.84356
26.0453
7.85517
8.31993
29.3989
27.1729
8.09338
9.27805
8.3353
27.3235
25.2952
28.9509
8.16669
30.4461
27.5273
7.09693
24.6518
22.6636
7.54271
8.04879
26.6277
24.1482
0.667646
0.706967
0.721927
16.8885
19.7799
15.7028
18.1692
0.766171
0.7504
0.823471
20.3376
20.3163
18.7293
19.0897
0.632554
0.823483
0.702574
19.7142
17.3965
18.7223
16.8595
0.495537
0.648093
0.53781
16.6815
15.0636
16.3112
15.179
0.387791
0.515948
0.442611
14.4189
12.7132
14.876
13.742
0.296556
0.417083
0.341105
12.1187
10.7504
13.3179
12.0321
0.233514
0.316289
0.261368
10.3952
9.70545
11.6392
10.8425
0.180767
0.24596
0.201335
9.56409
10.0618
10.621
11.0808
0.693458
0.753311
0.650724
14.9456
16.9559
11.9368
13.4683
0.770373
0.655588
0.630482
17.3846
17.8677
14.0626
14.4611
0.706345
0.616467
0.515553
17.6079
16.2052
14.2098
13.5149
0.525016
0.480743
0.408768
15.7584
14.847
13.2745
12.3363
0.434856
0.384133
0.322394
14.5811
13.5724
11.8644
10.5398
0.334648
0.301942
0.251678
13.1863
11.9816
10.1939
9.43631
0.264149
0.238545
0.211834
11.6127
10.9127
9.27792
9.14303
0.197618
0.208298
0.163459
10.7264
11.2009
9.13791
9.48048
0.572632
0.663378
0.376203
10.188
12.3062
10.7146
11.2965
0.583932
0.364008
0.449156
13.1525
14.0727
11.4101
13.1999
0.446839
0.459574
0.384595
13.8275
12.7904
13.5994
12.0577
0.347175
0.349572
0.296328
12.4919
11.5117
11.5144
11.0792
0.274132
0.290105
0.266592
11.045
9.73672
11.0558
10.5489
0.213856
0.25505
0.214074
9.38078
8.55216
10.3143
9.47261
0.181451
0.203808
0.171196
8.33713
8.07598
9.20761
8.26339
0.151661
0.160682
0.0947276
8.08966
8.6377
7.95002
7.43794
0.349472
0.679339
0.458393
11.3737
11.9282
11.9291
13.282
0.373424
0.40736
0.320738
11.9034
13.1892
13.0715
13.097
0.392089
0.326085
0.363271
13.8057
12.5763
13.4494
13.2672
0.317803
0.372869
0.35877
11.8742
11.3833
12.6264
11.4722
0.294896
0.350974
0.359119
11.4238
11.0367
11.4326
11.1418
0.236792
0.34841
0.31518
10.7979
9.94237
10.8738
10.215
0.192615
0.295049
0.265727
9.70202
8.89411
9.99861
9.81105
0.102906
0.25936
0.214018
8.62121
7.81605
9.80965
10.5795
25.6198
22.0465
23.7197
41.1649
39.7698
37.7544
36.7238
25.4836
24.1424
24.0718
39.2563
36.7297
36.2994
34.3439
22.0248
23.5551
21.3373
35.6025
32.4464
33.4755
30.8285
19.3923
20.6949
19.3284
31.5553
29.1444
30.1096
28.2114
16.6895
18.9294
17.494
28.2619
25.9025
27.5851
25.5892
14.5047
16.976
15.4487
25.1639
23.3305
24.9336
23.0841
13.291
15.0034
14.083
22.8362
21.7035
22.5619
21.3683
13.057
13.8545
13.8977
21.3989
20.8737
21.0785
20.679
22.2366
17.544
18.1166
36.1035
34.9607
32.0212
30.9796
22.6846
18.6333
18.8059
34.5848
32.9264
30.8041
29.2586
20.5772
18.4466
17.4644
32.1862
29.9325
28.5099
26.5499
18.8984
17.2013
15.3228
29.3073
27.2979
25.6929
13.9702
17.1998
14.5443
12.7474
26.6044
24.6584
12.7028
11.429
15.2992
12.3495
11.5888
24.0841
22.5005
11.6739
12.9766
14.072
11.4617
11.372
22.0439
20.9504
13.5066
14.5734
13.9319
11.3773
11.3197
20.6686
20.4156
14.805
15.1379
16.8673
16.9476
15.8061
30.1717
30.082
31.0247
29.0921
18.3178
15.7291
17.407
30.1109
28.8391
28.754
28.9935
16.6519
17.7347
15.9159
28.0706
25.8306
28.5619
25.7213
14.4637
15.3151
14.7254
25.2823
13.6038
24.9706
23.4051
11.8038
14.6277
13.8814
12.2696
10.2585
22.904
21.2099
10.3987
13.5618
12.4947
10.0959
10.5816
20.6276
18.8891
9.96071
12.1455
10.9374
10.982
11.8615
18.3148
16.4939
10.2034
10.5377
9.42866
12.0288
12.8347
15.8974
14.7604
16.5744
19.7883
18.6678
31.9934
29.9138
35.0035
33.0484
17.4702
18.2648
17.9833
29.4406
29.3795
32.3102
30.7528
16.427
18.1816
17.3745
29.1074
26.2994
30.2079
27.6962
15.0796
16.642
15.3488
25.4462
24.0781
26.6631
24.9401
14.4953
15.2755
14.6965
23.7233
22.3402
24.4492
22.9985
13.1408
14.3859
13.4979
21.8215
20.2371
22.4047
20.9079
11.7844
13.2455
12.8828
19.7232
18.1006
20.4819
19.5119
10.0451
12.8477
13.0295
17.5903
16.079
19.2663
18.7239
42.9803
41.7027
39.6842
52.5477
48.4259
49.0346
44.1467
39.1884
38.9515
36.4204
47.0173
42.9601
42.6583
38.7967
34.7668
35.4715
32.7577
41.602
37.9331
37.6577
34.6951
31.3293
32.0199
29.976
36.9089
34.0497
33.8866
31.5019
28.0389
29.2933
27.1833
33.1379
30.4705
30.6991
28.3257
25.3853
26.5062
24.5995
29.6889
27.4307
27.5661
25.303
23.5333
24.0511
22.7251
26.7523
24.8551
24.6125
22.8653
22.3517
22.3861
21.7195
24.3106
22.8565
22.4107
21.1974
37.9582
36.2288
34.4078
47.2679
42.5776
44.6818
40.2515
35.0401
33.9115
31.6605
41.1456
37.4423
38.7788
34.6979
31.8387
30.7878
28.4125
36.3809
33.7371
33.5409
30.7333
29.7716
30.4984
30.0863
32.4434
28.9423
31.6839
31.2732
24.3708
27.3577
24.8544
29.0231
24.0819
28.2612
25.1277
23.891
9.35226
12.351
26.5546
24.5827
10.5383
14.1314
22.1949
13.2619
14.9106
23.929
22.273
14.9029
16.0702
21.4102
15.2356
15.7396
21.8586
20.8901
16.3238
16.7884
33.7637
35.5528
33.1866
44.2916
40.418
45.9977
42.2763
31.3436
32.7572
32.0689
38.9883
34.6754
41.0664
37.0901
27.8159
31.3271
28.1349
33.4074
30.4066
35.5732
31.4664
21.1163
14.0119
26.7497
23.7298
22.7607
3.21029
28.0552
13.1264
7.12131
15.8814
2.27369
14.7695
2.23155
14.044
9.41023
22.0041
20.0836
8.73449
11.815
23.3803
20.8745
11.817
19.4582
17.4994
12.5622
13.8517
20.0406
18.0849
13.2851
16.8934
15.7756
14.1693
15.2741
17.6691
17.1324
33.9729
39.5901
37.1309
46.9674
43.2324
49.7351
46.1516
32.6139
36.2994
34.2605
42.0057
38.1842
44.7979
40.9055
28.7758
33.4653
30.4459
36.695
32.312
39.4327
35.014
26.1188
29.3899
27.268
31.1389
28.3224
33.649
30.2666
23.9386
26.66
24.7744
27.481
25.0783
29.1693
26.0688
21.5844
24.101
22.3391
24.2972
21.8605
25.1222
22.6914
19.2572
21.84
20.6488
21.1016
19.2905
22.0288
20.4199
17.1882
20.347
19.6079
18.878
18.0074
20.0705
19.1282
48.9416
49.9554
44.2023
54.547
47.2973
48.8206
41.1083
43.0519
42.5254
38.3415
45.4667
40.3298
39.1298
34.3895
37.7017
37.1389
34.0615
38.603
33.9429
33.0121
29.5367
33.6366
33.2247
30.7585
32.7961
29.4217
28.5705
25.8295
29.9009
29.9268
27.4787
28.4221
25.5867
24.9633
22.5859
26.7323
26.6791
24.2752
24.9036
22.952
21.8968
20.4607
23.9828
23.5688
21.8439
22.4151
20.9907
20.2001
19.5659
21.9307
21.4047
20.2884
20.6435
19.641
19.3461
18.6253
42.6196
45.9683
40.4811
46.8752
39.3446
44.9325
36.9735
36.9563
38.7376
34.2465
37.4275
32.9386
34.8901
30.1226
33.1107
33.0411
30.3868
31.6666
28.6391
28.9619
26.321
29.7148
28.9972
15.1586
27.7722
25.2056
25.568
21.6835
26.5399
13.9507
13.3914
24.3666
22.1017
20.5094
18.2474
23.6345
13.7998
15.524
21.3986
19.8452
17.7629
16.594
21.2939
15.8465
16.372
19.6447
19.2787
16.6133
17.2517
20.0325
16.539
16.9155
19.1311
18.5434
17.3898
17.4659
40.8582
48.3298
43.6126
45.5832
37.5276
50.0568
42.1199
34.2661
42.0358
37.0937
35.3034
30.0995
39.6496
33.1044
30.0573
35.3873
31.0853
28.8276
25.9985
31.2005
26.825
14.7692
30.02
27.0819
25.2422
21.4056
25.7132
22.9117
12.4046
26.1729
23.7036
20.2427
17.9008
22.1031
20.0361
13.7942
22.9404
20.1138
17.3434
16.0285
19.3724
18.0593
14.7702
19.3017
17.7465
16.0441
16.7484
17.9697
17.9298
15.8205
17.4797
17.1538
16.9161
17.1229
17.8883
17.5569
44.7499
52.1558
47.7046
51.8742
43.8839
54.8306
47.6228
38.3735
46.1358
41.6248
41.3977
34.6369
45.5159
39.4212
31.9564
39.9416
35.0541
32.6048
27.6141
37.2221
31.3096
27.6725
33.5724
29.784
26.3236
23.1235
29.6997
25.5497
24.2568
28.5614
25.1831
22.2426
20.1234
24.3389
21.4784
20.7948
24.1996
21.7109
19.5669
18.6101
20.8116
19.3379
18.6698
21.0479
19.5469
18.5108
18.3061
18.9899
18.2222
17.8061
19.2393
18.4069
18.2114
17.7145
17.9909
17.2994
46.0774
47.5107
39.5808
42.26
35.3347
33.2019
32.9294
38.8723
37.6313
32.9409
31.6033
29.5496
29.45
25.7949
32.3742
31.556
27.8374
26.2029
21.8864
24.4575
20.3171
27.8711
26.7742
23.9441
19.4384
18.8708
19.2182
17.188
24.3203
23.116
21.0487
17.084
16.6289
16.6294
15.6308
22.1113
20.5776
19.8537
15.2413
16.8143
15.5923
17.5935
20.5194
19.7529
19.3626
15.5803
16.8579
17.6088
17.56
19.4321
19.1753
18.5709
15.7559
16.667
17.4357
16.427
37.7978
43.4724
35.3026
29.0036
30.4219
26.3524
26.8755
31.5591
33.3285
28.8465
27.7486
25.0414
24.647
22.8082
26.8695
27.613
24.5634
23.5996
19.9165
21.4565
18.4897
23.2621
23.7521
20.7954
18.8511
17.0958
17.6728
16.5301
20.3756
19.8083
17.643
16.5516
15.446
16.0492
14.4991
19.2138
17.1123
16.468
15.3708
17.337
14.3506
16.0406
19.1568
16.7673
17.6686
18.0728
17.9245
17.5324
18.2032
18.5256
17.7853
17.7648
17.8095
17.1803
17.988
16.4549
35.7993
49.2045
40.5056
20.9186
26.6361
33.944
31.257
28.7924
37.9561
31.5128
24.6376
22.6479
28.1119
23.8758
24.2572
29.6796
25.1395
21.2494
18.2092
22.2355
18.3406
20.5099
23.9768
21.1941
17.4249
16.305
17.6014
16.3243
17.3728
20.4469
18.6545
15.9182
14.5305
16.0727
15.3569
16.074
18.2054
17.8533
14.3356
16.0217
15.4979
17.7767
17.3253
17.9881
18.2061
17.5113
18.1151
18.7301
18.1907
17.51
18.1681
17.7768
17.946
16.8787
17.9663
16.2816
42.3854
54.3979
46.4367
41.3838
33.6033
46.813
25.1717
32.9643
44.2232
37.8589
29.7289
24.3915
26.3911
23.9899
26.0046
35.6226
29.7712
22.937
18.4882
24.0321
16.5473
21.5919
28.2213
24.3531
17.7275
16.3759
17.5317
16.1531
19.0631
23.2707
20.8265
16.1473
15.4333
16.8773
14.1489
18.4278
20.265
19.0903
15.6972
18.213
15.1855
14.4828
18.4603
18.8068
18.1603
18.2485
17.637
15.4885
13.745
17.8466
17.9289
17.3162
17.4568
16.3229
14.7085
13.0043
27.6969
29.7003
25.8386
29.8544
27.3094
30.7838
26.1007
22.2784
28.4917
15.641
24.2434
24.8407
29.2545
4.54613
16.8142
18.0486
10.475
2.49163
20.2937
15.0797
2.75741
30.2851
33.0542
32.2097
31.9454
32.2524
31.8881
30.579
28.116
30.3276
31.2667
27.0435
31.3021
26.4726
28.6728
22.3878
24.2469
30.3696
15.7569
29.8325
4.588
25.9378
16.9357
2.57727
18.6698
10.6346
15.1839
2.84186
21.0082
23.7626
26.6744
23.1141
26.9169
23.4654
27.5521
23.5346
14.4972
17.0643
7.29342
2.36347
16.5657
14.6137
2.28279
14.3087
16.705
7.29298
5.21345
16.2324
15.6892
3.3348
24.7063
29.4585
28.5898
25.9698
28.6703
25.4754
25.1556
24.098
27.2935
27.8487
24.1814
27.9427
23.8759
24.5307
14.5931
2.44328
17.716
7.64974
14.7517
2.37287
17.1912
14.4909
5.32718
17.6316
8.04711
15.9195
3.4027
16.9976
17.3026
9.88845
17.3016
2.42119
19.4047
2.69946
15.304
27.0451
27.0557
26.6183
29.0742
25.7873
28.712
28.2527
25.3505
23.1987
25.9489
26.6357
24.3992
23.9553
27.4299
21.7499
23.8312
14.063
29.2488
3.52386
28.8982
24.6965
17.7483
2.53849
9.55711
18.6267
2.81939
15.7401
20.8347
27.9309
30.1467
29.9372
29.4622
29.6822
29.2201
28.3855
26.1153
27.3804
25.2665
28.4761
24.6392
28.2804
26.7125
12.4602
6.53064
12.9204
3.51969
13.7361
2.2925
11.6803
21.7852
22.1669
23.9928
25.8659
21.2185
22.8053
25.1093
20.8817
19.4588
23.3408
23.6266
20.337
19.9243
24.3782
13.5847
2.39248
7.25122
17.1887
2.35728
14.4853
16.0949
12.9179
3.92129
6.9894
14.4806
2.55551
12.1977
15.1452
22.3766
26.5257
24.0652
25.7671
23.4366
25.7022
22.9941
21.4472
24.1216
21.1091
24.9531
20.472
24.9161
22.0392
2.26079
2.35123
2.18692
10.2064
13.7992
9.74515
12.7801
2.24198
2.18728
2.19842
15.7638
16.5748
14.4357
15.0464
1.92728
2.01642
1.93913
16.6752
16.3236
14.8248
14.0217
1.60188
1.8567
1.7293
15.1313
14.0247
13.1544
12.4354
1.28986
1.52429
1.42507
12.2666
10.5473
11.4007
10.2496
1.076
1.27476
1.12149
8.38108
7.10912
9.10265
8.23788
0.91509
0.969193
0.858966
6.58707
6.63244
7.58413
7.4306
0.729057
0.801341
0.624242
6.13744
7.24671
6.83529
8.86855
2.01879
1.98096
1.93358
9.13754
11.8836
9.08374
11.9122
4.18403
0.695707
0.749366
3.37477
4.74347
2.93207
0.595401
6.6631
0.746257
0.755236
7.1676
7.39703
6.36033
0.801035
6.54536
0.704605
0.82107
6.97873
6.67883
6.75816
0.775968
5.59924
0.555336
0.628352
5.65714
5.39179
5.7886
0.588328
4.93995
0.432958
0.49696
4.52439
4.27992
5.08567
0.470237
4.1319
0.336335
0.384942
3.34119
3.12765
4.32353
0.357863
3.34754
0.260403
0.285904
2.5584
2.4437
3.51385
0.266788
3.01322
0.223675
0.225181
2.25705
2.21882
3.01058
0.218365
0.687368
0.84903
0.738316
7.16515
8.26282
8.53628
10.8009
1.92233
2.20581
2.02129
8.75804
11.054
8.44961
9.75893
4.04897
0.667164
0.705582
2.93389
4.25895
2.87495
0.671009
5.41826
0.731209
0.686413
5.62972
5.85828
5.31848
0.690121
5.35929
0.774626
0.709167
5.92114
5.84067
5.41964
0.710808
5.02749
0.58875
0.606102
5.41148
5.28628
5.08224
0.560328
4.77161
0.483107
0.475302
5.04222
4.97215
4.84332
0.455891
4.33609
0.384902
0.38614
4.63925
4.50645
4.45489
0.364036
3.82167
0.292593
0.296655
4.03325
3.89923
3.91801
0.278502
3.55527
0.240933
0.243605
3.60059
3.55218
3.58756
0.234137
0.75067
0.733216
0.617965
8.71852
11.3474
7.99781
10.4237
2.20869
2.79407
1.97555
8.05521
7.87231
8.45124
8.23271
2.36733
0.649658
0.811244
2.21862
2.67608
2.1546
0.585709
4.3387
0.605811
0.555728
4.35183
4.64924
3.93315
0.561282
4.27672
0.522444
0.521856
4.59761
4.49916
4.44777
0.487863
3.645
0.386833
0.380814
4.02916
3.93984
3.74158
0.353512
3.28332
0.309968
0.296097
3.6422
3.56003
3.3601
0.281017
2.95017
0.243635
0.235677
3.24315
3.16051
3.01788
0.224146
2.59751
0.1918
0.191886
2.873
2.81444
2.67893
0.182017
2.5898
0.178895
0.162679
2.87222
2.91409
2.54413
0.160204
0.502723
0.437668
0.333389
6.70771
8.99454
5.66652
7.36768
1.67328
2.50883
1.87937
8.9212
9.39812
9.03657
9.62644
2.98547
0.465416
0.582721
2.72901
2.94538
2.7217
0.480228
3.54743
0.321537
0.321789
3.50504
3.81531
3.33027
0.304777
4.95503
0.409364
0.351971
4.90343
4.90309
4.80369
0.370097
3.76641
0.343069
0.38402
3.79889
3.53568
4.11485
0.365004
3.74904
0.309792
0.346038
3.54688
3.54665
3.74522
0.342662
3.48061
0.269575
0.318035
3.34341
3.21929
3.59292
0.302289
3.10936
0.213535
0.259153
2.9348
2.8433
3.18282
0.246429
2.96701
0.170223
0.215411
2.56621
2.47883
2.9398
0.206579
0.346137
0.778023
0.642542
6.40964
8.12889
8.12819
10.5959
2.3246