/*--------------------------------*- C++ -*----------------------------------*\
  =========                 |
  \\      /  F ield         | OpenFOAM: The Open Source CFD Toolbox
   \\    /   O peration     | Website:  https://openfoam.org
    \\  /    A nd           | Version:  10
     \\/     M anipulation  |
\*---------------------------------------------------------------------------*/
FoamFile
{
    format      ascii;
    class       volScalarField;
    location    "7.1";
    object      omega_0;
}
// * * * * * * * * * * * * * * * * * * * * * * * * * * * * * * * * * * * * * //

dimensions      [0 0 -1 0 0 0 0];

internalField   nonuniform List<scalar> 
12920
(
34.3734
101.871
114.892
112.921
100.355
98.1127
96.6585
97.2594
95.1917
91.4789
88.9007
85.7059
80.0516
75.5421
70.392
59.716
47.3125
39.3789
36.0793
34.8809
164.536
176.276
170.237
137.431
109.11
99.5859
96.2491
96.0441
95.3258
94.0483
91.2154
86.5187
80.3934
73.0993
64.9115
56.937
51.6071
49.5106
49.4362
49.9324
282.512
217.484
197.604
144.338
123.638
110.54
99.0021
90.5739
84.0977
79.4175
74.6169
70.4807
67.0147
64.1732
61.249
57.3356
53.3434
49.7051
47.8525
45.0996
186.769
265.756
230.533
191.141
169.922
153.656
132.149
109.11
92.0099
82.9933
77.2296
72.2494
67.3341
62.4578
57.7814
52.9375
48.7214
44.6725
41.8012
38.7024
72.8064
202.145
229.023
228.483
198.305
175.581
149.804
129.688
107.759
91.6753
82.1214
75.2557
68.8396
62.4924
56.8055
51.9487
48.2426
44.8229
42.3638
38.6866
283.35
320.078
299.926
264.634
206.489
164.988
144.219
133.876
119.7
104.267
91.5974
79.5293
70.3663
63.5856
58.4789
54.6079
52.5017
51.1055
49.8901
45.4467
194.582
270.048
243.386
190.467
151.481
144.77
142.359
144.116
144.749
142.179
129.095
104.737
83.2457
69.1223
61.5431
56.7505
53.9928
51.881
50.853
47.6801
139.993
206.856
183.732
155.473
132.597
128.227
210.546
178.343
181.717
175.176
166.819
148.697
129.69
111.201
60.9499
56.3223
53.6419
51.8042
50.8127
47.4828
227.888
261.737
205.882
153.279
121.14
161.007
273.792
245.927
266.124
240.441
215.306
194.684
175.753
157.993
96.9101
60.5298
57.375
55.2289
53.6539
48.5259
260.838
235.298
199.963
146.934
120.84
164.185
220.138
224.33
246.896
236.042
221.41
207.659
184.949
166.64
106.132
64.5097
60.1222
56.3652
54.3238
49.024
321.121
202.218
176.995
153.951
140.949
202.914
254.667
202.18
189.387
173.983
165.27
158.81
151.801
150.523
97.3862
58.2857
56.1379
51.867
50.0209
46.807
407.558
246.737
186.12
177.804
163.002
248.264
345.785
227.17
213.759
188.679
167.321
159.683
148.782
139.892
86.2213
57.1367
53.0034
48.9391
47.5888
45.4636
202.103
199.765
155.383
151.079
143.343
136.676
209.012
169.766
154.645
143.183
128.004
113.306
98.4146
91.2058
55.8485
51.999
49.2724
46.8183
46.0897
44.4007
50.2606
83.7261
113.335
141.866
144.031
137.777
120.594
102.513
88.449
76.0365
66.7344
58.8497
53.0765
49.0589
46.4809
44.8659
44.2605
43.0804
42.711
41.7507
126.861
142.184
143.44
150.572
145.538
126.475
102.286
85.5127
76.1088
68.4498
62.1254
56.5177
51.6566
47.6761
44.5612
42.2646
40.8406
39.6383
39.0513
38.5574
245.821
213.192
170.312
160.844
149.784
125.277
95.5754
77.5461
67.6789
61.6527
56.7662
53.0181
49.5332
46.9009
44.4063
42.5432
41.0761
39.94
39.163
38.692
230.203
204.86
173.991
161.339
148.119
131.688
107.191
86.7957
71.2732
61.9741
55.3738
51.1111
47.8054
45.7717
44.1639
43.1207
42.3051
41.7522
41.3709
41.1455
202.77
282.548
234.373
176.453
138.064
117.166
97.7544
84.6632
73.7606
66.1237
59.0064
54.0339
50.1004
47.6953
46.0875
45.2875
44.8972
44.9034
44.984
45.3042
99.1355
229.408
215.157
157.835
119.377
101.985
90.615
83.3143
76.5937
71.5594
65.249
59.9515
55.1176
52.0306
50.0747
49.102
48.5192
48.3029
48.3873
48.4888
383.787
240.784
152.247
123.636
98.2489
83.9714
77.2421
74.1407
69.2651
64.8114
60.4892
56.8144
53.2679
49.701
46.0631
42.777
40.1586
38.3322
37.4022
34.9803
38.2437
45.8348
52.5965
57.2331
55.255
56.5983
56.742
56.2826
53.7895
50.4263
47.6486
44.9418
41.2952
36.4325
30.5281
24.6644
20.69
19.6692
19.6913
19.9576
201.834
152.249
123.123
90.0923
75.8994
67.3578
63.5158
58.1527
54.8992
52.0512
51.7223
52.7491
55.2647
55.8969
52.6708
42.1081
33.7064
28.6495
26.5099
25.9666
266.865
260.742
172.606
97.541
87.0955
81.385
73.1104
61.8253
53.4929
47.1139
43.1167
39.9849
38.5853
38.1964
37.8543
35.7013
31.4482
27.3666
24.7357
22.7124
228.543
250.619
149.443
104.072
96.3673
91.0835
83.6909
71.9999
59.9534
49.3567
42.9035
38.2547
35.3866
33.121
31.2692
28.6546
25.498
22.421
20.5668
19.1282
229.156
181.292
142.662
120.968
99.8504
88.9532
78.6751
73.3059
66.2092
55.8911
47.8782
40.6697
35.4267
31.1965
28.4111
25.9398
23.9974
22.178
21.2005
19.6544
284.563
193.195
157.871
148.326
122.237
93.1879
77.4158
70.2478
65.69
62.2627
58.0769
48.042
38.454
32.51
29.1476
27.0695
26.0464
25.5897
25.6369
25.2136
237.811
167.81
138.844
109.915
87.3003
79.2798
73.9034
74.181
75.2808
80.4155
82.9446
78.6529
57.5993
40.5801
32.9303
29.6014
28.1675
27.6117
27.6601
27.5971
174.265
153.788
112.95
85.6583
71.2074
63.3583
68.9605
61.3294
60.8079
60.9849
63.3937
61.7537
49.4369
37.9824
29.3727
27.768
26.9267
26.6885
26.6885
26.374
266.27
137.718
113.227
79.6759
66.6541
61.1651
59.1352
49.8402
48.5141
47.4583
45.2576
43.1128
39.2852
34.5562
29.0123
26.3503
26.3745
26.5147
26.5672
25.9201
250.029
167.266
136.025
87.5083
64.906
58.4679
50.9706
42.9639
41.8012
41.8194
40.2345
38.6856
36.2902
33.0852
29.4305
28.6515
28.5031
28.0418
27.6952
26.2631
305.12
161.649
105.621
91.2665
86.8705
84.933
76.5876
52.2836
40.115
36.3567
35.6738
36.2385
35.9458
34.3924
32.1114
31.0928
30.9759
29.8574
28.6496
26.1468
204.483
166.058
122.249
102.313
95.0049
98.3981
96.8726
81.1541
54.6463
44.7615
35.9509
32.2641
31.0266
30.3423
28.9293
28.9158
29.2765
28.4823
27.0798
25.1265
326.726
200.109
119.884
92.9897
80.5934
70.1753
74.7809
70.0835
60.6113
54.4482
44.7997
37.6093
31.2349
27.5914
24.1238
24.4315
24.4316
24.0552
23.634
23.2038
176.574
160.221
136.883
102.103
78.2876
65.3645
57.5052
50.7141
45.5434
39.7965
34.1604
29.1781
25.7047
23.4071
22.4212
21.8605
21.7041
21.5528
21.5846
21.8509
83.4196
151.075
127.046
96.5084
76.6158
59.4214
48.5284
41.5859
38.1876
34.0596
30.6882
27.4747
25.0706
23.1694
21.8331
20.8661
20.3661
19.9356
19.9046
20.0906
155.588
139.427
124.18
121.595
109.863
74.9642
50.149
39.0003
33.858
30.0217
27.3572
25.1958
23.6386
22.3797
21.3925
20.6103
20.081
19.6486
19.4735
19.463
230.473
171.065
139.631
122.843
100.982
78.97
62.7922
48.6604
37.7208
30.2994
26.178
24.0253
22.5843
21.6878
21.004
20.554
20.2276
20.015
19.9008
19.9452
329.809
249.715
133.93
99.903
81.4866
65.5156
53.5671
42.6937
35.7982
31.4551
28.1711
25.9306
24.2043
23.11
22.3682
21.9562
21.7219
21.6471
21.6639
21.7874
339.224
199.776
121.532
92.252
77.8254
63.7937
54.2623
46.4196
41.4107
38.6846
35.3607
32.722
30.1337
28.4044
27.1547
26.4051
25.8936
25.5056
25.2908
25.0046
208.411
91.5231
86.1155
73.8423
60.5931
49.4735
43.8492
42.1128
39.7098
37.6853
35.5069
33.5832
31.5881
29.5385
27.3281
25.3081
23.8176
22.8946
22.4317
21.0015
65.9296
65.0144
55.902
59.7899
61.5023
63.0515
62.6391
60.3353
55.8648
51.302
47.1808
42.9413
38.123
32.9184
28.381
25.0492
23.6465
23.1172
23.0346
22.816
175.623
164.237
116.925
78.2102
64.4604
60.252
54.8635
51.4217
47.5417
46.8044
46.2244
46.4879
46.2011
44.5623
40.2407
35.5466
32.4756
31.0057
30.6181
30.2809
313.529
343.377
258.08
115.558
74.4894
66.7322
57.544
50.585
44.3222
40.9442
38.3814
37.1487
36.2873
35.6006
34.3373
32.2832
29.821
27.6407
26.23
25.0037
143.295
218.606
145.122
86.0984
73.8612
67.7903
59.3836
51.9534
44.7069
39.962
36.3848
33.9347
32.0443
30.3391
28.6777
26.6948
24.7891
23.1303
22.0791
21.2758
256.726
155.718
113.212
90.2144
75.483
67.5139
59.3918
54.0757
48.0295
42.5195
37.7558
33.8206
30.7875
28.3017
26.5333
24.9787
23.8417
22.7998
22.1127
21.2593
344.87
148.99
115.289
96.9454
81.7152
70.5087
60.8266
55.6172
50.9344
46.7148
41.9093
36.1589
31.6298
28.7503
27.0689
25.9433
25.3788
24.9871
24.8385
24.2502
153.16
145.298
115.781
89.8638
73.9213
68.6587
62.4743
61.0923
59.9307
59.028
56.0284
47.6218
37.864
31.7246
28.8424
27.4588
26.8564
26.6066
26.5658
26.2803
228.945
122.571
92.1624
71.2368
59.371
56.3448
55.823
52.8842
52.19
50.1828
48.3395
42.4173
35.4323
30.372
28.1402
26.9665
26.4591
26.1919
26.0653
25.5474
391.859
130.152
93.603
63.4788
51.3193
48.2117
48.1573
43.9458
42.2637
39.73
37.0899
34.3319
31.353
28.7577
27.3489
27.5657
26.7425
26.3029
26.0192
25.1157
227.342
192.936
147.017
78.9432
52.8802
45.1281
41.2354
37.6745
36.7576
35.6487
34.8267
33.3171
31.426
29.7651
29.4804
30.7438
29.2552
27.87
27.0602
25.3546
324.877
130.587
97.4457
75.9478
68.686
62.2428
53.4101
41.3661
35.1333
32.4787
71.9398
59.0655
44.2227
37.9968
36.1692
34.7923
32.4899
29.6331
27.8869
25.8844
249.84
142.453
106.474
89.9488
79.6951
78.0349
72.7122
59.3926
43.6949
36.2347
31.1164
28.8095
28.2109
28.5531
30.087
31.0404
29.9246
28.0305
26.8502
25.4239
324.392
148.916
100.356
77.8615
66.6548
58.2207
57.9624
53.5399
46.414
40.4706
34.1638
30.1326
27.2348
26.1063
25.5485
25.0754
24.8448
24.422
24.289
24.0219
234.394
154.019
131.333
90.2901
65.8595
53.6414
47.4914
41.186
36.901
32.0077
28.2607
25.1387
23.3966
22.3407
22.0059
21.8911
21.9565
22.0675
22.2355
22.57
182.452
156.703
112.161
83.0799
62.5911
48.2676
40.3597
34.9819
32.1836
28.8456
26.37
24.1291
22.6666
21.6004
20.9636
20.5836
20.4784
20.5281
20.6501
21.0272
121.568
125.39
105.583
90.6148
73.3867
53.2337
39.3281
32.7253
29.096
26.3332
24.5385
23.046
22.061
21.2998
20.7969
20.4879
20.3251
20.3474
20.4094
20.6981
185.297
128.206
108.164
93.4089
74.2956
59.4612
45.6795
36.7277
30.3566
26.5103
24.2593
22.9143
22.0525
21.5268
21.1788
21.0113
20.9744
21.0381
21.1424
21.4788
339.637
140.632
94.347
74.562
62.3336
49.7237
41.7888
36.3165
32.2464
29.2998
26.9421
25.3844
24.3086
23.7353
23.3963
23.2961
23.2887
23.3836
23.5244
23.8283
218.978
130.126
90.5764
71.7572
60.3783
52.2154
46.2104
43.4745
40.4751
38.459
35.446
33.1524
31.0177
29.8394
29.0378
28.7095
28.4959
28.4066
28.2787
28.1859
193.354
117.827
92.4729
78.8442
66.8936
56.6066
50.7059
47.9453
45.1515
42.36
39.5296
36.891
34.4476
32.2274
30.1939
28.4391
27.1787
25.9986
25.402
23.7452
68.5563
73.9868
57.8317
63.6579
66.0209
65.4235
63.7324
58.1602
53.4322
48.3091
44.5092
40.2136
36.1258
31.6218
28.7589
27.226
26.6717
26.046
25.7805
25.0554
277.499
154.529
95.7033
68.6584
66.309
59.7909
56.9393
53.5012
51.2509
50.5497
49.5742
48.8249
47.6303
45.9168
44.4188
43.7178
43.8785
44.1722
44.1869
44.0006
133.464
258.634
195.263
88.0715
69.6601
60.3424
55.1825
49.666
46.2426
44.3018
43.0238
42.5202
41.9679
41.3734
40.7428
39.9099
39.145
38.392
37.8378
37.276
203.778
219.259
118.201
72.9425
66.3674
56.0484
52.7252
47.1999
44.1672
41.5043
39.7664
38.3903
37.2727
36.125
35.3374
34.5034
34.1173
33.6465
33.3672
33.3418
253.734
145.793
101.886
76.0472
68.54
57.7303
53.4286
48.1634
45.1229
41.7743
39.394
37.2844
35.8475
34.602
33.9679
33.379
33.154
32.8288
32.6223
32.8172
218.296
139.465
112.646
80.02
72.6773
60.7842
56.0046
50.401
46.9635
43.124
40.1952
37.3983
35.6895
34.6239
34.2712
33.9586
33.8612
33.5508
33.1961
33.2164
141.843
146.513
121.457
82.8615
73.029
64.3269
59.2551
55.7037
53.1986
49.493
45.8091
41.3902
38.2319
36.3198
35.4479
35.0681
34.9541
34.756
34.4622
34.4694
218.318
129.099
90.0052
67.6867
61.1018
55.6451
54.3033
51.5813
49.1972
46.0086
43.0608
39.4906
37.0202
35.8097
37.9491
35.8534
35.0784
34.4876
34.0741
34.1002
554.935
182.856
87.8317
59.7387
51.4261
48.6301
48.8601
46.0176
43.8285
41.6414
39.5953
38.1395
37.3226
37.2725
39.4005
38.6542
35.9791
34.7194
34.0902
34.1502
525.464
195.825
113.282
63.8798
51.2843
44.4486
42.4511
41.7929
41.5833
40.1296
39.4768
38.725
39.8801
41.3233
43.3058
41.5401
38.0419
35.907
34.7863
34.6107
250.913
116.407
85.4054
66.0376
61.3604
53.2507
47.2998
42.6946
40.345
38.7398
61.9613
56.768
49.0445
48.1323
47.9943
43.4804
39.3402
36.8251
35.6513
35.3024
186.332
131.248
94.0884
76.1217
69.9759
65.7402
60.5039
51.7035
44.2319
39.9915
37.6115
37.4405
40.6338
43.0829
44.476
40.683
37.5952
36.043
35.3422
35.1339
231.97
111.756
86.3702
68.1872
63.7717
54.942
54.32
49.7325
44.6452
40.6471
37.5605
36.8635
36.886
37.3663
36.6434
34.4325
33.9751
33.9458
34.0388
34.2274
233.57
141.972
114.85
76.9931
63.8093
51.4472
47.5031
40.8884
38.208
33.9387
32.1335
30.2281
30.2096
30.2069
30.4419
30.7421
31.2276
31.7344
32.1459
32.7776
259.61
158.255
114.008
77.7142
60.5247
46.2645
42.0939
36.8583
35.3918
32.3485
30.998
29.457
29.1255
28.944
29.0497
29.3475
29.7175
30.4059
30.7721
31.6292
163.243
142.164
105.665
76.115
62.7146
47.1335
40.1915
34.9042
33.3173
30.9221
30.3298
29.2843
29.1812
29.0097
29.1701
29.4222
29.755
30.358
30.6768
31.5395
345.814
114.546
94.8196
74.7112
64.5589
50.4722
43.2801
37.0645
34.3418
31.8386
31.1826
30.413
30.3263
30.1755
30.2566
30.4083
30.6544
31.163
31.4594
32.2835
216.041
143.706
85.7206
64.2796
58.379
46.7475
44.0673
39.9096
38.2408
35.6069
34.5588
33.5752
33.4718
33.397
33.4944
33.6262
33.7957
34.1866
34.4189
34.9903
240.932
129.222
81.3591
65.2228
60.0688
54.1727
52.1708
50.7466
48.7742
46.7288
44.0293
42.2188
40.9431
40.526
40.3399
40.422
40.4649
40.6625
40.6633
40.8617
121.665
105.305
85.3614
75.8019
65.6099
57.789
53.0371
49.6272
46.2662
42.8696
39.6627
36.799
34.3095
32.1452
30.3461
28.8956
27.7557
26.6108
25.749
24.2262
90.5286
80.2856
62.8128
68.0217
66.9236
63.0752
58.5819
51.044
46.7262
41.9848
38.9368
35.3998
32.5929
29.9853
28.8572
27.902
27.4083
26.3396
25.6694
23.9061
315.942
157.903
95.1667
83.4547
81.2789
63.1569
70.1256
59.2585
63.7498
58.4995
59.9028
56.9483
57.1163
56.4645
57.9472
59.1292
60.1127
59.8725
59.4331
59.2392
325.555
189.592
132.475
78.0383
80.4522
61.2192
64.9051
54.6646
56.9486
52.4701
53.484
51.3643
51.6268
51.0532
51.8179
51.9913
52.2057
51.7542
51.278
50.9604
389.556
210.092
117.819
82.198
76.5447
56.9111
60.3584
50.7276
52.9044
48.6554
49.4365
47.4516
47.6094
46.955
47.4407
47.4166
47.5732
47.0714
46.7744
46.7887
235.558
164.585
108.512
77.6315
76.5944
57.0887
59.113
50.5957
51.3947
47.7022
48.2046
46.7076
47.0199
46.4914
46.8108
46.6977
46.8066
46.4382
46.2148
46.3607
219.577
163.113
132.13
79.0368
79.1012
58.6425
60.7815
51.6485
51.2076
47.209
47.0159
45.8525
46.1941
46.109
46.6984
46.8793
47.1169
46.8025
46.4815
46.419
208.642
169.929
134.38
78.9514
82.3095
63.2824
62.2402
55.4456
53.8922
50.0373
49.2161
48.0208
48.5348
48.3872
48.1913
48.1583
48.2564
48.013
47.7767
47.7583
355.975
166.074
95.9586
73.904
70.1392
58.7499
57.8706
54.3628
52.684
50.4351
50.1986
50.1445
51.2408
51.6731
51.0946
48.6247
48.0172
47.4666
47.1194
47.1852
518.866
193.992
96.0029
72.7104
59.8756
54.2605
56.6253
54.8527
54.1457
53.9144
54.5235
55.7547
57.3129
58.4158
57.944
50.5744
48.4838
47.5098
47.2412
47.4075
472.611
198.912
97.3043
66.9275
58.8342
50.9638
52.7201
56.3269
57.785
57.4424
58.1647
60.5161
63.1876
63.7879
61.2058
52.0697
49.2665
48.0202
47.62
47.737
318.93
142.787
83.9329
76.9281
63.3471
55.6662
54.6577
57.5522
58.968
57.4232
59.4819
62.119
66.791
66.8904
62.7319
52.1624
49.3812
48.4011
48.1487
48.3136
226.89
130.519
96.3612
73.3875
71.8803
63.3696
62.6134
59.9194
58.9694
59.173
60.5533
62.567
64.6915
65.1136
61.3966
50.8648
48.5934
47.866
47.7767
48.085
264.448
133.515
85.978
75.2067
68.8658
60.0023
58.9087
54.4383
53.4728
52.0246
53.364
54.0036
55.2993
55.3101
48.8277
46.6646
46.3089
46.573
46.7257
47.373
258.196
157.232
114.32
75.0993
72.8895
54.9888
54.001
46.3358
46.0393
42.3658
43.1793
41.8588
42.8674
42.7045
43.0336
43.264
43.9699
44.5971
45.0564
46.1003
236.394
190.68
128.147
78.1375
65.916
51.7684
50.0843
44.088
44.6845
41.8095
42.4045
41.1988
41.6462
41.3474
41.6483
41.9434
42.4384
43.2571
43.5536
44.7563
331.154
176.901
114.1
75.6225
68.4934
50.4047
50.224
42.8889
44.5723
41.1339
42.5407
40.9216
41.755
41.2057
41.8003
41.8664
42.3559
42.9388
43.2243
44.3761
270.134
133.962
94.1436
75.4783
68.1887
52.3494
51.8579
44.6938
46.2373
42.7462
43.8577
42.245
42.8433
42.2274
42.596
42.5833
42.9146
43.4389
43.6638
44.819
168.634
162.092
104.107
78.2732
69.2078
52.9858
56.4205
47.6534
50.4429
45.8111
47.4244
45.4266
46.3477
45.5799
46.0495
45.85
46.1419
46.3763
46.5103
47.4096
188.88
154.836
92.493
77.4616
74.8056
61.2405
68.2544
59.7459
62.9249
57.7324
58.5662
55.8996
56.1413
54.9978
55.0307
54.6112
54.5791
54.5312
54.2912
55.0572
108.098
89.0649
77.8197
68.9501
61.9482
56.3768
51.4662
46.6804
42.7376
38.9877
35.9892
33.2691
31.1019
29.1444
27.4936
26.0735
24.9091
24.0539
23.5482
23.3756
35.046
34.0522
74.2799
38.033
37.6029
37.7341
89.6985
33.7634
74.4424
61.5561
37.4454
36.5757
89.4634
70.2476
72.2934
34.6275
31.4776
36.5837
92.6883
36.791
35.002
63.5401
30.7829
29.5279
91.6244
75.3709
34.6554
34.1483
233.038
226.338
229.15
68.5726
55.9908
58.898
49.423
266.452
238.75
262.151
54.2647
52.9315
47.9873
47.3557
247.881
262.085
247.791
53.1657
53.279
47.6244
48.2754
221.219
242.243
227.758
52.7991
51.1451
48.1973
46.8383
198.991
224.556
213.346
50.8683
49.9297
46.3265
44.846
179.187
208.507
191.433
49.29
46.9552
44.2808
41.9382
158.79
184.806
167.545
45.5158
41.5686
41.0099
37.7983
136.237
161.934
142.746
39.9635
34.9969
36.8824
32.7212
219.988
241.207
207.468
58.5918
49.0894
75.4042
59.2342
245.488
208.434
200.118
47.4776
46.3668
53.9102
45.0087
240.547
195.795
190.005
46.634
47.1558
43.8255
41.5615
224.021
188.25
186.658
47.0658
45.7389
41.1577
40.6477
211.978
185.252
180.239
45.2689
43.9802
40.7827
41.3571
191.282
178.145
171.258
43.5225
41.5796
41.4531
41.1273
170.518
168.801
163.252
40.7689
37.8655
40.7103
38.7857
144.825
162.612
144.537
37.0548
32.9392
38.1983
35.4716
201.386
310.466
221.188
89.2932
65.2131
106.97
90.7471
194.498
211.168
207.817
57.924
45.6968
85.4876
60.9445
177.723
204.588
183.455
44.0318
40.945
54.7661
48.4138
167.393
175.118
158.959
40.1477
38.6215
46.6692
39.9297
160.398
157.262
151.779
38.5655
38.8151
38.2971
35.7579
153.675
150.116
143.368
38.9149
39.0151
35.3681
34.772
150.09
141.93
135.539
38.9377
37.8647
34.6691
34.5989
141.412
133.311
107.75
37.3797
35.1668
34.6468
33.5912
244.559
371.463
278.494
112.787
93.8648
110.272
93.0795
214.99
255.535
221.461
88.5384
66.8625
88.2709
73.8968
198.038
223.424
225.952
59.776
51.913
69.9142
63.9302
169.233
223.742
204.474
50.1978
42.2454
62.3581
54.6859
161.713
198.709
188.143
40.1726
36.7686
51.4248
44.6816
150.426
182.557
168.423
36.1967
35.1791
42.9231
38.3763
141.838
162.187
149.275
34.9324
34.2308
37.1515
33.2681
109.272
146.942
134.188
34.0708
33.1422
32.4153
28.8512
51.2272
51.5821
44.6471
49.3431
45.0126
43.0063
39.3105
48.4941
43.4235
42.6143
44.3689
43.2689
38.7013
38.0546
48.0864
42.7325
43.0514
42.9202
41.2579
37.9392
37.3224
45.665
42.9231
41.6304
40.588
38.5948
36.9773
35.719
43.8744
41.168
39.7696
38.0148
36.0223
35.3007
33.9072
40.5996
39.248
37.1729
35.2569
32.8898
33.4175
31.7476
35.8618
36.3657
33.6427
31.977
29.6107
31.1691
29.3822
31.2594
32.8394
29.9833
28.887
26.9711
28.8555
27.3093
44.3224
64.7906
52.907
42.2873
38.7232
50.1829
42.7042
41.7184
48.4446
40.7967
37.9627
37.0617
40.252
35.8119
41.9746
39.7293
37.5529
36.938
36.3315
35.045
33.2795
40.6281
37.0737
37.1908
36.0087
35.2259
33.4061
47.7585
39.0995
37.5297
38.1108
34.9779
33.9339
48.8654
47.0462
36.9888
38.1035
37.5209
33.5015
31.9802
45.0562
39.8653
33.8038
37.0776
35.3462
31.4462
29.8285
38.2463
34.825
30.3095
34.7999
33.223
29.3632
27.8147
33.9931
32.4527
58.3251
92.3586
82.0903
57.3758
46.1272
73.271
63.5118
41.6529
77.365
55.3834
42.8473
36.5346
59.4422
45.4099
37.179
49.9851
43.4735
35.4128
33.0377
42.2039
36.751
35.5696
41.721
35.8549
32.5499
45.5921
35.2527
31.4783
36.1712
34.4531
32.1492
46.5105
46.4138
30.6385
29.133
36.1444
31.7751
31.1482
45.2511
41.0767
28.8857
28.5432
34.8023
31.0428
30.9571
39.5182
36.2676
28.5377
28.7935
33.113
31.0009
30.948
35.6254
34.0567
29.0238
29.5225
85.9348
92.4843
83.9704
77.9162
67.8186
72.7316
66.128
60.9072
79.7185
66.6858
63.7179
49.1274
62.8638
53.5095
46.6598
63.06
56.9275
45.3656
38.875
50.9139
45.2269
37.7437
54.9092
47.3978
37.1451
32.4053
43.2244
37.2895
32.8181
44.5451
38.8511
31.2397
28.9985
35.5468
31.671
31.2518
37.2815
33.5201
28.5729
27.8271
30.7124
28.366
30.4469
32.4905
29.5288
27.7098
27.6283
27.7778
26.3814
30.4144
28.9015
26.8135
27.7073
28.4911
26.2018
25.605
44.4942
42.1073
38.9877
48.081
45.4062
42.4964
40.957
42.7441
38.526
37.9283
44.9558
43.4143
40.8323
40.4378
40.3959
37.7572
36.9393
42.7778
40.8856
40.1981
39.1417
37.7185
36.5613
35.3195
40.3103
38.53
38.7287
37.5959
35.0684
34.9084
33.5382
37.9448
36.4268
37.2612
36.2592
32.1387
33.0702
31.5596
35.9147
34.6883
36.0181
35.6961
29.3532
31.067
29.6178
34.3259
33.6601
35.7202
35.8269
27.1508
29.2011
27.9457
33.4925
32.9644
35.8251
35.7511
38.2865
47.4652
41.1492
41.399
40.0666
44.2889
40.8165
36.9213
39.1656
35.5102
39.9097
39.6151
39.9238
38.1881
35.9989
34.8268
33.3314
39.4336
38.4354
37.7568
36.5902
35.7535
35.357
34.7438
35.8489
35.0281
35.5996
35.1027
37.7347
34.5344
36.5909
35.2035
36.4649
34.9152
37.9193
31.8805
55.2261
43.6116
36.2709
35.9738
62.1614
47.7208
30.1309
40.9688
36.3
36.0828
36.4908
45.5349
42.6645
28.4607
35.3294
33.5269
36.5654
36.4317
42.1842
41.2685
44.0231
68.328
59.1289
47.5601
42.4861
58.9507
51.8157
36.1278
55.3869
43.6613
41.1979
38.5307
49.3872
42.8868
33.0469
40.9804
36.0063
37.9024
36.2945
41.3233
37.7906
41.353
56.326
32.8415
39.5149
35.893
229.705
33.5554
49.6551
70.3924
41.0505
189.865
41.4679
177.733
49.3711
47.234
29.3429
29.1758
68.019
51.2625
34.1873
35.4785
38.9223
29.2271
29.757
48.7158
45.3051
36.24
38.5219
35.5997
30.0702
30.6302
44.7668
43.1739
39.1226
39.9564
63.2325
68.6438
62.366
62.4232
54.7954
61.2871
55.4378
46.8285
59.2838
50.7539
52.1108
44.7114
53.0558
46.9421
37.8172
48.4031
43.0642
42.8807
38.8626
45.2968
41.3392
32.1154
41.1577
35.962
37.7736
35.2719
40.0051
36.743
29.1706
34.4149
31.1366
34.7185
33.8199
35.8918
34.4626
28.2538
30.3187
28.4061
33.8224
34.8827
34.2034
33.8816
28.382
27.951
26.9625
35.4821
37.2396
33.9111
34.3805
29.4478
26.8879
26.4067
37.7084
38.7096
34.5298
34.4976
46.486
43.5919
42.6395
53.9589
52.411
50.0986
51.5041
44.4515
42.6311
42.3859
51.8964
50.872
51.8946
52.4939
42.1568
42.1775
41.1631
50.6355
50.1625
52.6015
52.166
40.0947
40.7527
39.7026
49.8877
49.7794
51.913
51.7891
38.4982
39.4357
38.7544
49.8213
50.5408
51.9787
53.0864
37.4481
38.6964
39.2047
50.6316
51.6544
53.766
56.0519
37.2784
39.5198
40.3335
51.9661
52.9615
56.6098
57.4545
37.0048
40.4816
40.4125
53.0473
52.9923
57.5579
57.2623
41.7906
44.5964
42.1995
49.1641
51.1657
50.0551
51.6149
41.7291
41.6434
40.5555
51.7111
52.7004
52.1114
53.2239
40.5548
40.217
38.7919
52.8495
51.9816
53.09
51.3357
39.6002
39.2653
61.3876
51.6304
51.42
50.7424
53.1629
38.8692
62.3613
57.3527
51.6049
52.5802
54.021
55.0604
39.3986
54.4416
47.7668
53.3462
56.566
55.3726
59.1441
41.1068
46.9493
46.369
57.3512
58.3726
60.3602
61.6032
41.1404
46.2523
45.3676
58.4573
57.9729
61.5307
60.365
43.5721
57.4003
51.4069
51.5509
52.3601
58.4166
56.2704
40.8454
49.4292
44.2849
52.693
53.4854
55.6348
54.3546
38.5828
43.0519
40.0151
53.3179
51.4451
54.1785
52.8634
61.0314
39.1253
37.5736
50.8016
53.0265
52.3855
52.0721
59.1043
37.3259
37.1281
53.8973
55.2333
52.3066
53.6314
49.9685
37.2982
39.9974
55.673
59.8451
54.651
58.4459
48.2766
41.1529
43.8466
61.104
62.3464
59.4147
60.7957
46.8325
44.3732
44.618
62.263
60.9695
60.8891
60.232
53.9602
59.9534
54.7173
60.657
57.5026
60.6621
56.8981
45.692
52.5242
47.1146
56.506
54.4813
55.2613
52.431
40.9132
45.7307
42.4364
54.2083
53.3441
52.1113
51.4672
38.0001
41.3367
38.7941
53.0289
53.1032
51.0636
51.1597
37.2217
38.2176
37.6261
53.4211
54.8619
51.5192
52.9202
39.76
37.6077
38.0194
55.6085
58.1158
53.0952
54.164
42.6743
38.267
39.1639
58.7883
59.8551
54.4254
55.2614
43.4695
39.3156
38.9895
59.9379
59.4762
55.2089
54.738
55.3883
53.5063
55.7834
65.3294
64.6434
64.3585
67.3358
54.2037
56.2437
57.058
63.8898
63.9042
67.7294
68.7255
54.0738
57.27
57.407
64.1091
64.9596
69.2275
72.2931
54.3086
57.3795
57.8928
64.9172
66.3772
73.2968
75.4154
55.5823
58.2601
59.6508
66.8435
68.4777
75.9123
76.6356
56.9862
60.194
61.8709
68.7502
70.1504
76.5028
75.8822
58.312
62.2902
62.8984
70.5158
71.4886
75.8758
75.98
58.005
62.9819
62.1833
71.6731
69.9181
76.0734
74.2002
55.6977
53.4732
56.379
64.1236
67.7598
65.2951
69.1885
57.5359
57.0799
58.5939
68.3553
69.7167
69.9745
72.1799
57.6106
58.7217
57.7199
70.5146
74.8045
73.7774
80.5607
57.7948
57.2208
58.5947
76.0976
78.4553
82.3949
85.5331
59.7164
59.4035
60.9839
78.9614
79.3693
86.2792
86.4722
62.6623
61.7863
65.422
78.9628
77.285
85.2635
81.3107
63.7684
66.1833
66.5604
76.9811
76.6144
80.2809
78.5161
62.7877
66.3552
64.5612
76.6025
74.4817
78.193
75.292
56.9738
60.5726
59.7622
66.5456
69.6075
70.2072
70.4366
58.8612
59.4749
59.1404
70.3538
72.5024
70.5655
71.5816
57.9426
59.2298
59.0834
74.0874
80.968
72.4189
77.1107
58.6862
58.924
59.4804
82.8566
85.9727
78.5625
80.9552
61.2355
59.9494
61.7026
86.712
86.9822
81.4801
82.0641
66.0122
62.5852
64.8754
85.7468
81.7523
81.5828
79.5605
67.1255
65.4783
66.0173
80.6907
78.8084
79.0318
78.098
64.9989
65.943
64.5458
78.4607
75.5117
77.898
75.3578
60.5754
62.4627
59.0965
71.1678
70.4323
69.6646
66.904
58.9471
57.6536
55.7722
70.2919
70.8313
66.0682
65.8086
59.1366
55.8008
55.8316
71.3821
74.8482
66.3314
67.2482
60.0714
55.5899
56.2715
76.0176
78.1895
67.5004
69.209
62.0809
56.7704
58.2117
78.7275
79.5169
69.9605
71.3088
64.2647
58.3383
59.4047
79.3086
78.2222
71.437
72.4155
65.1692
59.6535
60.3558
77.997
77.4694
72.6106
73.0694
63.9212
60.2428
59.3209
77.3495
75.0317
72.9012
70.7082
37.0703
35.19
36.4883
35.4052
35.8232
35.4989
37.8718
44.2036
34.2162
53.296
39.8061
37.5713
35.1469
180.983
54.6846
45.7915
69.3207
210.996
43.2364
57.0131
229.003
36.7461
36.6289
37.768
37.4071
36.3929
35.9827
37.8813
38.1996
36.2486
37.6692
39.8198
36.3182
39.047
39.0064
46.4289
41.796
37.362
63.3094
36.2469
189.275
42.0902
57.5626
219.901
52.2562
84.148
60.0509
237.939
49.2455
37.3719
34.1768
35.5806
34.1398
36.1627
34.5603
36.5642
54.2655
46.1057
73.7894
199.901
45.6494
55.919
188.866
52.7952
42.6571
70.6804
90.5302
44.9434
47.2424
132.113
38.911
36.0668
37.2027
39.9698
35.7906
39.1005
39.8458
38.5177
35.0531
36.9078
38.8131
35.4523
37.6476
39.5036
57.0808
208.226
52.3861
88.6579
58.7347
197.934
51.8181
55.1476
95.1797
47.5286
82.2729
49.1308
139.737
50.6313
46.4256
69.205
40.3393
202.285
38.8103
215.284
48.5502
33.6241
33.2472
33.3856
34.6458
32.8715
33.522
33.5807
33.8873
32.597
32.3375
32.0414
32.7539
33.9817
32.7338
43.2244
41.5437
68.8275
36.2596
226.432
34.6935
40.6872
49.1171
210.766
88.9354
47.5503
223.803
51.5121
45.2775
34.7186
35.3243
36.0492
36.009
34.4399
34.4263
36.1866
35.2066
33.2048
36.8827
35.4416
35.4566
33.7511
36.5945
49.6202
70.9549
42.592
111.635
42.2029
163.756
50.0312
33.8953
32.4062
30.2387
31.4824
32.2573
33.9452
31.0375
33.875
32.2871
29.8187
30.4792
32.2167
34.0541
30.693
52.7246
198.519
89.1817
48.5902
186.769
52.4279
49.1678
52.547
112.851
87.0951
49.674
163.566
52.744
49.6545
35.5648
32.7577
37.0163
34.3965
35.5266
32.404
37.1253
35.5764
31.9921
37.3999
34.213
35.7898
32.1348
37.2074
180.399
187.839
174.285
108.078
85.4323
100.654
80.4131
181.927
173.962
174.63
76.6031
75.2928
72.5519
70.1524
178.788
172.671
165.561
75.3411
74.836
69.3682
68.0482
173.176
156.774
150.026
75.7143
77.9489
65.7921
63.741
159.781
143.345
136.191
79.6179
79.8681
63.0097
62.0269
143.438
128.933
122.293
79.5197
77.4475
60.8034
58.6664
119.902
114.498
107.04
68.3004
60.0019
55.2357
50.7481
101.881
102.473
90.1958
54.6689
45.585
48.094
38.1837
159.892
158.689
153.904
89.6062
77.9196
86.4793
71.9222
109.532
226.868
239.768
136.779
107.101
134.292
224.662
90.1417
256.906
249.26
85.5447
85.9339
89.8132
261.422
90.6107
262.664
270.597
90.0456
90.6201
90.8669
266.503
86.3228
233.859
242.345
89.6378
89.1853
87.4323
236.647
82.6584
210.13
220.938
88.7314
89.2504
83.4198
216.666
79.1806
190.007
200.033
90.4744
90.6795
80.1961
194.523
73.308
169.698
176.703
86.8702
85.5672
75.0008
170.742
64.2562
154.353
155.187
77.0492
75.6786
66.9315
151.37
90.6303
101.858
94.634
39.6533
34.9369
36.3515
30.5388
153.02
176.156
161.124
90.1889
71.6932
98.5166
84.0809
98.9256
212.109
225.819
119.911
95.6551
122.54
213.568
79.0343
232.836
217.834
80.7462
81.0032
80.1279
219.229
81.3729
246.751
225.913
84.8758
85.6096
80.6638
226.431
80.717
231.132
222.785
84.9409
83.9828
81.4935
220.697
77.7428
218.823
214.272
80.8928
79.8675
78.4996
212.127
74.9305
202.951
202.751
76.9244
75.6263
75.7876
198.947
69.2941
179.314
183.678
70.742
68.8909
71.1373
178.727
63.5951
161.879
168.453
64.2572
62.2775
65.1471
164.942
98.8061
105.32
96.3268
37.3461
30.7439
39.1288
32.1484
176.294
223.518
194.658
121.055
107.866
129.082
118.748
141.19
218.767
259.702
158.175
131.662
162.503
219.333
84.3136
201.953
194.448
86.6125
80.4531
92.7
195.295
71.3757
185.819
186.077
71.3947
69.6912
72.742
181.634
65.9504
171.459
167.138
67.2107
66.3514
67.6847
163.151
62.3023
163.776
154.403
65.2846
65.0724
62.9726
152.308
61.3175
157.419
147.024
65.2014
65.2061
61.4647
145.952
61.8043
150.54
142.114
65.1204
64.7955
61.7186
140.94
59.9473
151.527
140.992
62.1244
61.3047
60.8932
141.821
91.8226
84.8999
75.4959
38.2982
32.2204
38.1168
31.4663
218.331
247.869
225.658
147.346
126.151
145.487
124.985
173.117
301.253
348.624
199.341
174.132
199.933
305.218
117.714
218.206
230.242
125.837
115.125
129.755
216.149
87.1001
210.343
215.482
87.3083
83.6399
90.0668
215.393
84.7166
179.636
199.662
82.7737
80.3891
86.672
189.892
70.8675
165.663
177.558
68.9539
67.0574
72.9126
175.905
65.6457
156.371
168.825
64.3226
63.8612
66.5914
165.318
61.7507
146.227
155.402
62.4591
61.9588
62.7983
152.3
56.7169
135.955
145.042
60.6768
60.0774
58.5019
142.443
74.235
96.325
88.7362
36.1646
30.383
33.1089
27.4118
185.489
213.619
189.684
117.781
99.8096
115.742
98.4715
160.212
175.059
168.254
90.9246
84.4495
88.5607
83.5331
150.681
155.539
146.866
78.4073
75.2442
75.7675
70.7317
135.028
138.35
130.227
73.3974
68.7418
66.9218
63.4347
121.737
121.551
114.207
62.6321
58.0377
58.0936
53.9795
106.124
106.077
99.4021
52.9593