/*--------------------------------*- C++ -*----------------------------------*\
  =========                 |
  \\      /  F ield         | OpenFOAM: The Open Source CFD Toolbox
   \\    /   O peration     | Website:  https://openfoam.org
    \\  /    A nd           | Version:  10
     \\/     M anipulation  |
\*---------------------------------------------------------------------------*/
FoamFile
{
    format      ascii;
    class       surfaceScalarField;
    location    "7.1";
    object      phi_0;
}
// * * * * * * * * * * * * * * * * * * * * * * * * * * * * * * * * * * * * * //

dimensions      [0 3 -1 0 0 0 0];

internalField   nonuniform List<scalar> 
38556
(
626.822
481.168
-1505.26
589.957
613.036
-576.171
695.741
100.789
-206.574
904.737
-83.8339
-125.162
831.022
1.30771
72.4071
859.781
43.2674
-72.0255
874.086
24.5754
-38.8804
955.273
22.9258
-104.113
1027.83
11.9195
-84.476
1135.99
4.99161
-113.155
1283.92
-11.2507
-136.681
1521.8
-40.3528
-197.525
1699.74
-33.0189
-144.917
1738.85
-22.8212
-16.2951
1606.17
25.9414
106.738
1325.65
66.2869
214.24
1078.39
31.5111
215.744
961.106
-16.8604
134.145
915.459
-38.6095
84.2565
-44.7963
55.5625
1631.72
1742.51
90.8951
944.69
387.362
912.7
789.416
102.704
153.358
735.841
-123.531
93.2732
715.341
-121.947
143.754
775.681
-92.3013
75.2298
824.966
-145.483
120.773
898.463
-109.95
59.3785
962.195
-122.507
70.6943
1049.97
-109.483
26.7038
1139.5
-124.458
23.6753
1230.87
-137.623
5.89516
1269.13
-112.831
41.5517
1226.56
-54.3583
74.1082
1078.09
34.3243
140.086
911.995
89.3829
143.001
793.965
66.5205
83.0203
719.215
30.3469
27.5434
680.86
9.03128
-9.28612
-2.58985
-29.5416
369.897
-610.357
-1005.95
157.901
-195.267
794.625
1069.36
-105.065
-703.689
1059.58
-131.253
17.4991
1062.82
-260.646
135.464
1057.14
-243.867
157.244
966.355
-249.204
194.506
904.607
-176.369
128.166
828.024
-160.921
114.998
790.216
-130.165
58.4903
763.61
-149.674
51.8219
757.377
-144.404
13.0148
757.797
-122.972
9.72075
758.015
-46.7658
-7.80993
752.816
32.7573
6.76578
740.792
78.4971
22.9101
696.663
86.1876
24.4618
636.723
73.6161
16.6705
594.133
48.3152
3.30601
23.4053
-12.4069
1283.88
930.073
2232.87
937.346
522.067
-370.801
1196.17
310.575
-674.462
1111.13
24.368
-70.5875
1059.38
-252.386
43.4899
1092.31
-273.325
-3.46555
1056.15
-325.736
112.69
999.323
-211.201
91.6573
868.258
-162.63
132.775
760.472
-89.0115
66.6326
685.707
-123.727
48.8177
644.863
-115.742
12.181
612.252
-95.5485
5.18781
590.816
-26.7312
1.40183
574.692
38.5637
10.317
549.476
87.1319
16.5821
518.6
103.372
13.6917
487.697
99.6987
4.8195
467.596
71.8111
-3.39426
38.0185
-9.4952
1255.89
1059.48
930.573
1260.79
530.919
-13.7485
1261.51
416.638
-106.787
1337.02
181.807
-232.953
1219.86
-131.649
-3.57908
1219.85
-163.426
-109.886
1175.61
-236.193
-45.3031
1146.59
-127.374
-54.8054
1015
-84.4931
53.4481
863.18
7.39633
55.4156
724.51
-50.0403
64.983
652.228
-75.2855
31.8265
609.325
-71.2432
18.5974
565.76
12.9344
3.89968
538.438
61.9273
3.95781
520.879
101.276
3.41536
511.527
112.49
0.233679
501.977
112.234
-2.98497
488.259
89.4794
-3.95047
56.0081
-11.9964
545.655
-686.726
-2635.2
1216.1
234.642
-374.163
1702.01
291.348
-360.622
1889.97
198.66
-204.812
1485.96
15.4071
256.953
1278.47
-20.7179
64.7827
1154.57
-168.135
55.8391
1119.05
-45.3758
-46.4788
1089.2
-62.1812
7.53491
1042.02
50.0629
4.51367
900.35
15.808
75.8254
727.418
1.95075
95.6958
613.446
-15.9016
58.6303
562.144
44.9075
19.3293
547.601
70.2764
6.19427
549.372
98.9225
0.582653
562.325
107.744
-8.20656
583.329
106.976
-15.7458
596.103
89.0528
-12.3476
65.6591
-14.761
1347.3
1102.4
453.239
1395.99
345.9
-159.942
1190.27
294.924
202.139
1256.06
-19.9809
152.851
1121.31
-46.1
196.264
1086.46
35.2767
-21.1465
1108.68
-23.7475
-23.6779
-60.895
-24.8423
-57.1913
1199.68
-19.7561
-81.4118
-12.3984
-14.8103
-8.00508
1342.37
-16.742
-117.484
-32.57
-11.2527
-26.8187
1501.63
-4.4936
-110.781
-2.096
3.10568
5.06403
1511.39
12.1925
-35.5311
8.02584
13.8494
7.51816
1287.72
33.6769
91.6285
37.2564
31.0971
31.9564
941.013
47.7607
176.249
35.66
41.2689
29.87
728.788
45.1586
108.319
33.3161
40.2384
30.1009
647.815
108.037
43.2129
625.274
106.078
15.3857
623.673
101.871
7.47365
637.833
86.6784
6.1376
658.54
64.0504
4.29546
50.275
-0.457187
99.3655
827.326
988.235
313.829
-223.131
354.568
379.969
-113.577
342.36
466.452
-199.409
92.9442
514.146
-206.738
112.944
126.084
-3.12178
-17.7878
122.835
126.011
116.073
42.1817
-2.01129
39.1589
124.614
-24.504
2.22634
-116.341
143.384
-35.7323
-11.067
-166.854
181.416
-16.7331
-14.5706
-182.003
198.729
-8.37302
-12.8459
-210.703
219.117
12.4032
-8.62483
-214.627
209.15
36.4234
2.73025
-190.108
175.571
52.6138
9.68298
-158.624
155.314
44.9175
3.55179
559.189
36.0476
4.59314
-147.842
-145.729
-144.158
-135.273
24.4652
33.4742
23.2712
561.024
100.022
4.21995
572.746
87.8585
2.29044
594.283
59.6676
5.47422
612.179
43.5758
2.579
44.3095
-4.88972
394.231
170.976
1380.7
623.732
62.0381
-514.669
440.668
-72.3279
141.815
318.448
-26.9099
-50.2785
17.1906
-175.612
214.82
0.265542
37.9757
17.0691
49.1148
-32.4782
-2.56777
4.32836
-24.7912
23.4043
-3.53231
0.590802
-25.3498
10.174
27.7116
-11.7449
-0.790848
-31.7248
2.85174
34.1269
-3.8648
-1.38901
-34.2039
-2.45233
35.4233
2.49825
-1.26537
-35.079
-4.88888
36.0781
4.45003
-0.560292
-35.6494
-9.49692
36.8365
8.52671
-0.216929
-36.6226
-12.4475
37.5378
11.3818
0.150529
-36.3536
-11.1664
36.7615
10.4508
0.30766
-34.4351
136.899
35.2921
0.135351
-34.5204
-33.8434
-33.4802
528.442
105.647
-14.499
-132.117
-132.763
-126.679
-128.01
553.709
77.4775
-14.8861
582.781
41.3653
-10.7689
598.705
32.7538
-5.1029
44.3338
-7.62259
811.714
-745.859
-3231.26
1360.01
547.945
-1034.2
829.274
721.867
-263.463
636.281
298.297
-132.214
79.0786
15.2691
79
92.9528
89.9931
104.375
45.3938
60.5443
-20.0323
-6.82703
11.7624
-13.6226
12.4154
-10.6378
0.082536
11.6285
-15.6533
16.6377
-11.735
-0.877942
3.08649
-21.7837
24.175
-4.03227
-1.44558
-3.01912
-30.3437
31.8076
2.2183
-0.663082
-4.68903
-34.2063
34.7257
4.65146
-0.481831
-8.67442
-36.0616
36.4696
8.62232
-0.35582
-10.8541
-37.1251
37.1905
10.7841
0.0045777
-10.6281
-37.1005
36.9308
10.5562
0.241599
-35.8258
-36.3998
144.613
38.9538
-1.48828
-37.8976
-34.9986
-36.9564
609.454
125.617
-30.8252
-144.822
-159.816
-139.673
-154.287
619.331
96.7819
-29.182
629.033
58.0214
-26.3576
624.467
48.6664
-11.3467
63.5704
-15.5392
480.462
-157.537
-1312.26
30.8241
876.156
121.426
343.48
569.697
-160.486
424.841
127.133
89.8034
91.6871
-127.528
123.105
125.076
101.234
126.536
9.63553
104.48
-27.9341
5.5058
10.3649
-23.025
20.0349
-10.2557
2.88088
10.9602
-21.568
22.2933
-10.6577
-1.02772
6.94062
-23.5259
24.0952
-7.34351
-0.166415
2.18058
-26.3993
27.1454
-3.40339
0.476675
-1.85618
-29.1551
29.9917
0.253753
0.76585
-5.31416
-33.3678
34.6206
3.42813
0.633267
-7.86069
-38.4557
39.6118
5.84721
0.857435
-8.90725
-42.2871
42.8443
7.82454
0.525433
-43.6688
-40.1076
178.231
35.1391
0.580097
-44.0539
-42.6812
-43.4385
730.219
124.412
-13.2934
-179.652
-184.992
-172.5
-178.577
721.197
115.993
-10.1894
698.039
90.4231
-9.24403
664.088
87.434
-4.81603
95.7668
-15.2508
1546.48
430.122
-5870.35
258.413
1330.25
833.974
805.598
-29.3676
51.88
1037.99
-89.2623
-15.9948
267.332
-218.556
72.2864
245.453
282.326
261.619
67.2531
265.545
-72.2991
6.83271
18.0942
-62.7014
59.4317
-15.9086
1.08396
11.3678
-50.3544
47.3594
-8.63338
0.260629
8.61186
-39.5533
37.7355
-6.11189
-0.682143
8.18298
-34.2711
33.6743
-8.87753
1.29139
3.45118
-32.139
31.925
-4.07602
0.838816
2.18676
-31.8262
32.1352
-3.27272
0.776979
0.859888
-34.1729
34.9371
-2.697
1.07287
0.112433
-36.6987
37.3315
-1.83049
1.08521
-39.2055
-19.7122
164.858
3.88557
3.02455
-36.4724
-39.3485
-37.0295
668.053
93.4679
-14.4534
-168.956
-145.338
-164.35
-144.011
669.406
113.354
1.28672
651.067
107.416
1.34608
624.44
119.697
-5.63546
120.701
-16.253
859.055
968.768
1132.9
508.408
841.402
839.494
517.05
-162.834
124.824
561.969
-166.128
31.9472
571.64
-297.452
69.2244
159.885
-351.1
-22.6181
80.1644
94.804
74.9215
84.3736
153.116
153.334
144.759
14.834
168.753
-59.7498
1.64107
7.23809
17.4441
9.72439
4.98391
-170.864
186.947
-31.2019
0.652001
1.40981
5.60224
2.47071
4.0142
-205.226
214.313
-23.2686
0.632748
2.13864
4.6772
2.71912
5.49788
-203.466
194.068
-14.5711
4.78783
4.13217
5.51386
4.03755
5.0268
-181.471
169.186
-8.6402
5.55981
3.01753
4.67528
2.64637
4.51336
-147.655
136.089
-7.44925
4.63456
3.09109
4.13734
2.63919
4.06974
-126.612
120.358
-7.14014
1.58275
2.30573
3.63416
1.80209
2.85855
-109.248
107.112
-2.86569
-1.28379
0.95244
2.24201
0.232424
415.78
48.3769
-28.6064
-1.89689
-15.2189
-8.37426
-19.7596
-103.45
-94.6179
-100.317
-91.9152
463.731
57.2595
-11.7423
493.41
90.7717
-7.09699
511.988
93.1164
-4.27825
526.386
116.634
-11.3359
119.111
-15.0292
2533.36
-221.314
135
2438.05
185.557
751.148
1423.38
189.61
662.234
1057.45
91.2709
108.529
837.803
-102.497
24.6895
723.568
-203.679
-33.1872
638.131
-34.8773
-17.7358
56.2504
17.0747
52.67
12.0558
569.1
-99.7144
-0.466989
43.013
43.1834
40.8647
42.1514
483.024
55.701
16.5264
18.6674
-10.2864
16.9406
-11.4733
420.947
-4.8463
26.6373
10.5839
8.17225
11.8943
9.63547
371.487
59.0257
23.1971
0.413466
-18.2207
1.7072
-16.6629
342.724
8.52398
12.401
3.46671
-0.296349
4.63935
0.0283612
331.037
33.6817
2.96121
1.53734
-13.5506
0.971401
-13.9142
332.188
11.8999
0.0427654
2.05607
-8.02118
1.4102
-8.53891
345.05
37.6982
-2.18268
367.421
40.7417
-5.85364
398.298
63.7441
-3.84957
426.465
67.5898
-2.64035
458.511
88.2781
-3.6903
94.0734
-5.03665
1826.85
-857.762
-2148.42
1977.22
542.377
-507.191
1184.67
814.496
167.669
798.145
525.574
-47.777
467.417
205.676
22.5545
367.745
-60.9151
-43.0915
356.242
-18.327
-5.04731
334.742
-69.3663
-8.8476
350.415
26.5746
13.4532
344.85
-10.0671
10.7855
349.255
39.754
14.867
343.702
9.77159
4.30473
340.02
33.2032
4.16079
332.658
18.9087
0.353014
332.65
37.039
0.667017
337.171
35.1757
1.04573
349.394
48.9064
2.61416
365.862
50.1017
1.02062
389.436
61.9662
2.73769
66.9052
0.307982
1078.69
-664.803
-3507.86
1390.61
319.15
-88.6958
1369.63
575.646
259.833
1405.41
394.511
95.2842
1014.67
331.242
265.165
674.805
164.715
114.238
428.917
146.584
80.9767
338.087
18.172
3.29152
309.386
37.1726
18.103
299.499
-7.9939
7.81477
306.691
24.1364
8.42486
309.316
7.34193
-0.195506
315.714
23.8759
2.93019
319.213
17.9121
-2.50316
325.817
30.1325
0.302714
331.119
30.1717
-0.297869
341.203
38.4041
0.417897
352.662
39.1826
-0.539797
367.683
44.1152
2.82981
48.2444
-1.76106
628.651
-98.6959
-847.736
1010.46
-73.0604
10.3998
1007.5
202.61
376.003
1114.01
151.666
136.332
913.311
343.736
188.202
802.024
252.078
23.9246
631.524
243.451
73.6337
505.73
124.308
19.6568
393.201
102.871
46.8309
328.955
48.2944
7.95797
306.93
44.0148
2.14719
298.119
22.2642
-6.11153
300.309
24.9416
-3.25584
302.414
20.4494
-4.64206
309.473
24.2487
-1.17562
316.624
24.9035
-1.88297
329.196
28.4907
-2.65839
341.795
29.3053
-2.72185
358.326
29.647
-2.06225
32.9492
-5.72493
663.423
274.544
-226.541
747.433
29.7485
-186.818
793.901
482.811
-326.669
756.567
337.494
-148.493
625.887
432.309
42.1069
587.788
292.735
-2.55806
504.264
262.758
64.2169
433.607
199.84
-4.87478
379.574
163.493
-6.59052
347.576
115.584
-35.2906
341.037
75.4315
-24.8783
338.817
49.0415
-24.5568
344.788
32.0148
-13.0448
349.892
26.5306
-11.1849
356.754
24.2083
-6.82141
362.879
26.1427
-7.36485
372.03
26.4462
-7.10677
382.003
29.3983
-10.0657
396.176
25.9592
-10.4847
28.6464
-13.9101
1682.13
1966.89
-194.9
713.625
720.217
278.04
557.285
589.152
49.9994
575.596
257.569
61.6138
518.176
300.905
188.825
515.591
222.723
72.5971
467.848
209.55
100.951
444.475
203.07
20.1439
439.623
171.776
-3.43049
441.313
146.804
-32.9101
447.978
105.258
-36.4925
447.811
83.1792
-33.9703
444.267
56.6956
-21.1367
439.899
47.5586
-16.6599
438.254
36.7052
-10.8525
440.04
38.0282
-13.6714
446.29
38.4838
-18.2875
455.533
44.996
-24.8407
470.992
42.1548
-31.6537
44.2757
-32.0136
1840.38
-1229.67
517.302
2043.3
678.122
428.332
572.73
362.961
630.652
242.983
648.239
205.136
660.486
197.304
700.896
162.659
742.893
129.778
799.353
90.3434
841.316
63.2954
878.56
45.9354
895.826
39.4301
900.851
42.5332
888.112
49.4445
866.372
59.7677
841.581
63.2757
830.461
56.115
827.221
45.3947
40.8772
1778.86
1504.36
-1688.88
1158.27
1107.03
-1062.6
496.647
389.22
65.8254
527.259
-107.315
-48.4586
583.078
-104.203
120.792
670.609
-82.9778
-76.5794
733.64
-105.877
3.96541
807.614
-94.441
-83.6459
866.136
-101.396
-41.6026
928.546
-94.3599
-81.2048
979.304
-102.13
-85.3079
1045.94
-119.501
-144.661
1138.68
-115.073
-122.578
1209.8
-80.6745
-6.74682
1163.1
-14.7984
168.243
1058.9
24.8117
293.627
980.108
17.2541
277.279
943.295
-5.74861
176.707
934.491
-15.4758
108.536
-18.8709
72.2582
1126.77
1180.91
2724.64
823.837
335.262
1987.4
660.315
122.283
583.817
613.84
-184.251
216.684
598.592
-186.999
241.798
654.094
-123.918
60.6676
697.887
-159.561
130.664
743.065
-116.45
36.2099
781.894
-131.078
61.5468
826.844
-109.762
-2.8439
864.345
-116.444
0.488776
894.441
-110.753
-32.95
900.318
-86.6371
7.23905
866.389
-30.7744
58.1372
796.87
47.989
146.816
735.022
81.9248
147.736
685.154
65.285
84.858
648.978
39.2329
18.7372
627.334
18.9092
-22.0263
5.44547
-45.9862
210.483
-88.8872
-106.159
604.712
-225.979
961.638
882.336
-30.9659
-828.065
848.033
-63.6761
-68.7738
845.073
-174.704
126.129
835.63
-110.944
153.714
771.433
-125.78
224.923
721.349
-64.6515
126.452
667.654
-89.6093
127.224
639.911
-74.2543
50.7257
621.831
-94.3881
47.8454
612.802
-86.3475
-2.3613
601.431
-63.3587
-2.18617
586.175
-3.66902
-19.6602
578.071
54.0376
8.82124
571.427
83.7646
27.7147
550.567
82.0858
28.5211
523.316
67.0655
16.0889
502.045
41.3827
2.10376
18.9726
-19.7929
2496.35
1850.74
-1566.58
1677.79
667.098
-445.316
994.312
446.488
-468.437
785.819
136.681
-62.4524
721.395
-153.771
86.9804
708.826
-103.6
1.76004
698.736
-158.78
155.779
661.114
-27.4755
92.1029
612.494
-52.9207
144.706
561.838
-17.1309
60.1655
525.061
-59.0292
50.2361
497.482
-53.189
6.60187
474.158
-39.9339
5.08664
456.947
15.2241
-0.279698
450.175
57.7624
13.3647
442.155
88.6612
19.7055
430.268
93.0172
14.6468
413.982
84.3416
3.8297
399.412
55.8029
-3.24444
29.1069
-16.3025
917.673
1620.31
-1706.09
476.719
721.182
373.121
624.763
315.158
-123.501
716.284
51.2266
-239.019
725.818
-179.074
12.189
741.439
-97.9461
-131.16
719.906
-157.278
-25.2723
683.579
6.54166
-52.4965
627.525
-6.11379
62.6955
565.757
53.983
46.07
513.266
-11.0637
69.5086
481.297
-26.1582
36.7644
457.562
-26.7241
29.1225
433.954
36.4162
6.31553
422.532
66.7626
6.37982
417.87
92.6551
4.08385
415.887
96.2598
-1.02617
411.599
90.0263
-4.38153
401.61
65.4065
-3.565
38.397
-17.6235
65.3101
-325.127
72.79
536.414
43.8802
-167.965
781.232
-48.2473
-242.035
891.078
-89.1004
-174.332
823.249
-110.097
255.805
792.058
-18.116
16.1442
760.866
-131.421
61.1746
721.116
48.5622
-48.7495
683.284
20.3515
18.901
637.251
92.6939
11.8355
570.23
45.2576
86.5259
500.224
50.2096
89.3337
452.698
19.8764
59.5559
429.347
57.8572
21.2397
425.872
67.4907
8.94105
432.351
85.6807
1.07832
441.785
88.1763
-9.55707
452.071
80.5614
-16.5667
451.709
63.7667
-10.3458
45.6774
-20.3359
441.128
631.339
-45.5712
749.009
177.196
-601.138
752.389
146.783
3.72791
876.919
-100.037
39.2574
833.868
-44.9562
174.174
782.989
78.0763
-66.4599
779.474
-16.5169
-29.3574
-47.23
-15.088
-43.3916
809.004
1.89467
-96.8682
9.34571
8.56299
14.6851
837.455
3.46795
-110.165
-14.1714
6.97687
-11.6931
852.208
13.0168
-98.4936
15.7235
17.6561
19.2573
808.178
19.4631
-12.4891
12.3481
21.3253
13.1089
702.323
34.1094
116.402
32.2092
34.2603
30.7121
587.209
37.7861
187.377
26.6309
35.0957
24.3491
518.81
36.4016
111.712
26.8593
34.3633
25.2395
491.394
90.6675
47.4522
485.859
88.5103
18.0913
489.622
84.1079
7.77818
500.614
70.5198
5.1878
506.842
57.1546
4.67967
48.229
-8.75712
-109.097
765.709
2047.42
-170.823
106.496
486.993
195.354
-18.7905
141.758
268.467
-168.375
88.1695
414.806
-160.566
82.2143
104.628
13.8122
-34.5405
94.628
94.3653
84.928
47.2744
20.5846
49.4145
0.465253
110.735
-16.6538
-6.43555
21.9411
-104.484
126.756
-18.4944
-23.8239
27.0989
-140.043
146.877
-1.49488
-28.9697
23.6664
-143.442
153.767
5.71676
-26.6913
16.4912
-157.542
158.883
17.8972
-16.2662
-0.684895
-150.645
148.399
32.678
4.36204
-17.5049
-140.728
136.305
40.1347
19.5788
-9.3526
-127.016
126.828
34.8024
11.1398
445.627
29.8703
6.49118
-120.362
-116.363
-109.472
-107.257
19.8778
28.1752
18.6735
453.423
78.8947
6.03958
464.475
73.1511
2.19465
476.063
59.4177
4.9891
477.7
54.7881
3.30765
53.2579
-11.9123
-563.111
-445.36
1912.61
-310.388
-120.997
-539.899
34.0786
-159.728
-61.7142
-105.113
-47.7403
-31.7207
14.8929
-180.591
123.728
-7.60803
10.8481
-12.1293
0.165325
47.5118
-18.7243
-0.24775
-0.844071
3.3234
-22.0918
21.8322
-2.83917
0.619504
3.35029
-22.7831
4.99261
24.656
-6.48074
-3.73505
4.86127
-26.0384
-0.805229
27.3225
-0.172423
-5.16767
3.63085
-25.6037
-3.15854
26.609
2.39287
-3.87042
2.15704
-26.2264
-5.43571
27.159
4.678
-2.33195
0.630343
-26.4115
-8.61508
27.4532
7.63296
-0.689917
-0.767122
-27.604
-10.1243
28.6444
9.10259
0.748367
-1.0066
-28.5615
-8.98344
29.3804
8.23074
0.94042
-28.7067
0.925027
115.826
28.1415
-1.58529
-28.9408
-27.7688
-28.0203
446.538
73.1746
-13.0334
-112.273
-115.929
-105.116
-108.966
459.81
56.366
-11.3728
471.005
44.8411
-7.3874
470.429
50.4914
-0.230227
59.0713
-13.474
1831.81
-2800.5
-4065.83
1865.58
-294.759
-894.206
924.942
440.567
76.8756
512.274
207.703
25.0116
70.2074
-17.9877
145.872
80.1233
63.1211
69.3462
7.69299
34.617
52.7155
-16.8252
-7.9931
-0.909535
8.76606
-13.297
13.1022
-8.57634
0.914605
1.61408
8.10351
-15.4472
16.4213
-9.04604
-1.64565
2.70492
1.93473
-19.5941
20.9405
-3.24847
-2.73755
1.18636
-1.38655
-23.9354
24.7987
0.514654
-1.17771
1.08579
-3.93087
-26.6338
27.1822
3.44219
-1.14548
0.511031
-6.75055
-28.5303
28.9817
6.28094
-0.49291
-0.212336
-8.03024
-30.1207
30.4815
7.69126
0.19044
-0.190513
-7.90969
-31.1271
31.2878
7.87776
0.0617638
-31.4496
3.24044
-27.5995
128.043
28.2339
-4.66541
-33.0163
-30.6376
-32.1485
512.597
80.6742
-31.1373
-127.418
-140.716
-120.133
-131.518
505.305
59.0722
-24.5955
499.477
44.7247
-20.414
483.01
61.0588
-5.44689
71.8425
-18.746
593.938
-1636.08
-4358.82
131.11
99.6562
189.84
58.7559
316.502
35.9334
102.039
77.1081
177.115
55.1495
-117.654
95.1582
79.0462
36.044
59.4119
-8.783
11.8533
72.2407
-25.799
5.63753
-6.02709
10.108
-22.6469
23.0595
-10.4006
5.90717
-2.09183
11.543
-21.7696
21.1316
-11.8768
3.06358
-1.40289
6.8571
-21.1546
21.6267
-7.89102
1.96471
-2.03584
2.64214
-23.4248
24.1515
-3.74486
2.41184
-2.05885
-0.537749
-26.1317
27.005
-0.566565
2.28987
-1.80585
-3.55259
-30.1813
31.2635
2.33328
1.94295
-2.06507
-5.68058
-34.2907
35.2404
4.58826
2.20772
-1.42269
-7.16812
-37.6011
38.1767
6.48482
1.53036
-39.1492
-0.682227
-28.5642
159.723
26.8685
-0.159778
-40.2897
-38.2798
-39.467
603.857
94.6104
-11.8248
-157.555
-162.38
-147.939
-151.387
570.413
83.8129
-1.48662
536.075
70.9612
-1.14243
504.307
87.8304
0.180764
87.8421
-18.4605
-249.156
-794.648
-5399.45
-79.2152
426.786
336.904
478.587
-236.42
46.9998
706.16
-113.432
-53.0276
213.356
-194
86.1191
194.904
187.577
172.838
-7.64553
51.8219
225.109
-53.4098
-2.51942
-4.97146
15.2097
-57.5849
56.9703
-13.6576
4.03397
-6.02328
10.2432
-48.9719
45.5928
-8.38334
7.5425
-2.48504
8.12896
-35.2828
32.8367
-6.67649
3.47876
-3.92792
5.78561
-28.6003
28.1003
-5.77332
4.41559
-2.5241
2.79295
-27.54
27.6066
-3.16528
2.82985
-2.18305
0.749643
-28.1928
28.7025
-1.47487
2.3986
-2.35832
-0.974272
-30.6661
31.4824
0.0469232
2.4693
-2.74713
-3.22751
-33.8585
34.7947
2.26973
2.76869
-36.7834
-2.51415
-22.6297
150.472
16.1286
0.517908
-34.9912
-35.9423
-34.2583
536.3
88.2724
-8.58127
-147.908
-129.836
-136.657
-121.433
520.517
95.9604
4.92245
499.02
91.7233
2.08029
479.363
102.849
-0.99723
94.2816
-18.314
443.67
-228.297
-1725.65
387.508
48.1695
1274.27
317.555
-288.971
247.327
313.784
-190.847
113.133
356.874
-285.901
118.036
105.626
-317.474
-3.0927
67.3929
76.5058
65.6996
75.1643
94.6039
90.0701
79.7593
11.3083
-9.32262
116.479
-37.2144
4.95435
4.78568
10.6844
3.95204
3.6227
-5.52871
-112.92
125.204
-23.8947
7.60521
1.22519
3.3913
1.29507
4.48272
-5.0435
-135.893
137.159
-17.6614
7.55852
2.5316
4.41821
2.4479
4.69845
-10.5718
-121.11
115.185
-12.13
13.5414
3.03599
4.51913
2.83228
3.64997
-9.04561
-112.82
108.3
-6.51148
10.1055
1.56308
3.41536
1.34338
2.89009
-5.99293
-96.9948
95.4572
-5.70057
5.6138
1.18739
2.62667
0.913189
1.68174
-0.855341
-94.2394
94.699
-1.32408
-0.448902
-0.29194
1.37854
-0.599616
0.125522
3.92136
-90.2355
94.3301
2.28607
-5.83832
-2.09325
-0.206924
-2.28903
351.509
53.1991
-23.9747
-11.7276
-22.8008
-13.1009
-22.8363
-91.8743
-83.2023
-86.0596
-77.7379
380.091
55.9602
-8.01222
397.98
77.9822
-7.00813
412.314
77.9712
-4.86007
421.444
90.4052
-8.02245
83.1719
-16.2926
1215.24
-830.144
-964.369
1567.17
-328.797
776.191
1078.11
-46.9941
909.311
825.312
-70.416
240.899
594.427
-155.529
125.203
474.16
-212.79
-17.6039
406.366
-15.3899
-2.54987
38.9029
0.533598
33.407
-4.846
353.36
-108.43
4.17404
38.8989
40.6255
38.2182
39.0517
308.823
47.9508
19.4424
13.2121
-13.7409
9.82965
-15.6299
279.778
-25.8992
30.865
13.825
11.4611
14.0038
11.4268
259.657
44.3188
26.0218
2.25975
-15.3742
1.58358
-15.4924
248.885
-1.34508
11.5697
6.15808
0.536889
6.11672
0.137076
250.401
29.1259
1.64734
0.243551
-14.3086
-0.486991
-14.7758
258.979
9.06253
-0.697701
0.856426
-9.12632
0.48387
-9.11449
276.12
36.1858
-2.31036
297.858
34.5598
-6.19109
322.743
52.7449
-3.49696
345.224
54.5763
-1.72721
367.682
65.3781
-1.12075
63.8132
-7.34254
2917.2
-254.934
-2153.18
1645.08
179.118
257.013
726.819
467.198
571.737
462.537
159.76
-13.6707
263.68
40.8252
25.0572
196.317
-126.872
-61.6467
222.338
-40.4047
-6.05339
205.372
-88.4895
-11.8208
235.584
12.7968
18.3947
234.281
-26.0274
12.2166
245.717
28.4266
19.3233
244.274
-0.965734
5.36832
247.147
22.9264
7.48755
245.53
10.264
0.768234
252.328
27.782
2.27273
262.544
24.021
1.36832
278.256
36.2832
3.36406
296.254
36.5712
1.02791
315.555
44.5188
4.29646
45.7238
-2.90662
781.98
648.999
-406.749
552.689
450.656
-130.942
758.147
468.691
52.8815
780.19
220.59
12.4116
588.886
237.058
260.236
429.33
43.5026
103.42
307.571
64.4729
97.8578
246.732
-34.195
9.83601
233.058
18.3596
26.2148
223.87
-18.5001
9.47523
231.238
16.3461
13.1369
231.529
-2.7528
1.30078
237.693
14.0123
5.68039
241.116
6.15139
-1.81406
249.622
15.7254
3.85351
256.598
15.6226
1.12449
268.67
23.2676
1.36146
282.036
23.8498
-1.18508
297.467
28.5665
3.35141
31.583
-5.90874
244.394
1066.71
354.888
498.943
442.182
-235.675
612.89
381.829
348.918
670.295
195.961
103.555
543.932
312.252
239.372
466.796
122.507
22.0562
370.762
139.712
94.4295
301.011
35.8224
19.3899
267.195
46.4175
52.5896
240.978
10.8231
4.85177
238.66
16.0396
4.77154
234.727
2.99097
-7.92285
240.066
7.19381
-1.77666
242.569
4.39186
-5.38559
250.146
7.8627
-0.890106
257.228
8.70244
-2.04417
269.213
12.3023
-3.67802
281.732
13.9102
-5.30119
296.561
14.7413
-3.06648
18.594
-11.1016
1034.93
1799.41
-1407.92
855.334
621.944
-186.98
497.417
578.671
-165.595
404.766
220.075
-79.9557
369.661
294.321
95.1422
339.216
152.912
-2.5179
336.935
141.838
64.3711
305.24
85.2379
-22.5955
300.756
58.6911
-14.3798
288.141
28.8549
-40.7076
291.918
11.2644
-23.88
291.746
4.01839
-25.4121
297.847
-0.239951
-11.7121
301.795
2.21884
-12.9599
308.09
2.51506
-7.76842
313.813
5.47133
-9.8569
322.901
5.65709
-9.54906
332.83
8.4148
-14.4998
344.604
5.08084
-12.5979
9.26519
-20.1598
-107.2
2248.58
-3826.89
121.54
423.327
247.916
187.338
482.292
80.5802
245.629
108.278
115.12
319.931
172.524
236.32
350.87
127.396
67.1737
397.818
110.291
85.5512
419.785
99.1669
-15.7524
447.065
66.3967
-38.4158
457.103
55.2195
-69.3131
459.98
31.6712
-59.7761
455.947
27.8291
-53.7475
449.344
18.4282
-33.2017
444.572
19.7079
-29.3772
443.39
14.3698
-21.5248
445.94
14.137
-24.8877
451.861
12.1271
-30.6783
460.325
14.2353
-39.1253
469.184
9.11249
-44.5439
9.91538
-43.7795
-518.545
-1892.77
-111.501
2059.58
559.273
239.85
587.834
442.678
666.109
337.232
712.048
286.593
737.968
281.674
792.151
207.644
828.853
159.472
871.705
102.71
891.24
75.4315
907.26
57.7455
906.81
58.3076
907.189
61.8619
900.975
70.0285
898.164
76.7158
897.681
75.886
903.377
64.6536
907.473
50.4119
44.8894
10.0752
824.951
-2222.91
57.177
3.44627
-1113.15
210.197
-61.7934
-25.4014
378.383
-175.032
-41.612
475.431
-132.205
155.948
544.086
-100.193
-45.0414
608.053
-118.16
58.1588
659.742
-92.7951
-42.5396
702.727
-95.7025
11.1142
739.594
-77.3396
-40.7317
762.015
-78.1778
-29.551
771.913
-77.5803
-76.9785
776.954
-72.7099
-54.9102
793.886
-44.194
20.5154
813.748
-4.49335
152.875
839.019
23.4855
244.87
875.059
22.6791
218.56
902.625
11.8599
137.28
928.544
7.92437
74.6934
6.579
46.3793
-388.75
-212.29
3221.82
109.849
-37.5031
1529.75
263.747
-114.582
482.707
316.09
-226.039
215.348
421.118
-204.24
208.804
455.422
-107.053
33.2238
516.99
-140.127
91.0621
545.394
-89.8208
4.8314
580.143
-106.856
37.9517
601.153
-80.3465
-20.8474
613.785
-84.6307
-5.69034
611.079
-72.0197
-35.8043
592.566
-48.2388
1.28077
569.659
1.60133
35.2491
564.07
52.2262
95.6864
568.68
73.3187
93.2927
565.538
63.8793
46.7991
555.536
43.6877
-3.08767
546.459
25.615
-30.6401
11.873
-48.1629
2270.44
128.475
-78.9953
2208.28
114.325
871.974
1286.57
165.98
-186.924
837.881
31.8496
122.029
632.213
-73.3383
200.896
577.17
-5.77195
107.475
539.022
-46.214
169.158
505.371
-0.152595
70.4344
484.767
-47.1501
88.1219
467.807
-34.6912
22.0309
459.48
-57.1363
28.6778
446.892
-46.4936
-15.2993
433.509
-28.8142
-8.22795
419.026
16.4448
-20.0201
418.517
55.553
6.00309
423.571
76.7719
19.2073
423.083
73.4724
19.4159
416.41
59.575
6.87443
406.499
36.4379
1.19234
16.9013
-21.7389
2768.54
1844.47
-1725.08
1545.07
733.581
158.894
710.579
484.723
47.3162
482.824
178.533
18.6187
448.186
-67.7197
116
399.753
37.1672
7.25318
434.511
-48.1283
122.936
408.113
64.7399
53.6087
409.706
-5.27497
101.238
384.16
21.4933
29.5268
372.668
-31.0418
35.6334
354.547
-21.2542
-0.516391
341.228
-14.3595
3.95112
331.251
28.7846
-2.64243
333.023
57.4111
9.73465
336.215
79.487
13.7978
335.592
79.802
8.94058
329.624
69.7551
-0.382102
320.759
43.4404
-1.38216
22.1988
-17.5816
269.659
1927.81
-1146.58
166.189
554.673
655.499
340.213
203.425
-16.2267
383.197
18.3791
-121.85
436.401
-156.891
48.1559
430.55
5.67885
-93.82
435.859
-78.5521
-0.157312
400.704
83.4503
-36.0523
384.967
26.5976
46.5596
357.299
70.6909
24.5409
343.65
4.00375
48.1117
332.148
6.20192
20.8109
327.472
-2.16622
21.6051
318.943
40.923
2.70629
317.874
60.0817
4.77858
319.642
79.5215
2.28132
321.217
79.3954
-2.19438
320.807
71.0587
-5.27556
314.637
47.7303
-1.68506
26.7134
-18.0805
-39.0199
-66.6704
-1026.51
198.311
101.847
47.531
503.896
-48.8694
-295.326
524.116
-39.3858
-136.787
504.579
-69.8215
188.273
475.171
58.7953
-7.56426
479.736
-78.6542
56.7125
432.693
118.197
-36.4534
410.243
46.476
21.4725
372.016
112.705
8.04831
348.894
52.2694
61.3818
329.744
60.6503
54.035
317.838
30.7756
38.5206
312.507
54.6563
12.837
317.46
57.3643
6.70579
326.687
71.1395
0.233855
334.325
70.4087
-8.20925
340.027
62.1895
-13.3988
334.629
47.7986
-5.01651
33.0484
-20.5252
670.712
933.059
774.694
637.981
218.484
-685.044
572.616
189.028
-168.804
639.977
-25.2991
-42.1896
588.952
28.9085
126.469
511.129
140.971
-70.8122
500.133
-8.12842
-10.5402
-36.4269
-7.49407
-34.4262
489.424
21.531
-73.614
26.7116
27.5039
29.9049
479.944
12.0553
-67.3499
-6.28649
12.7723
-5.39914
451.655
24.9856
-62.6694
25.7879
27.5513
26.8437
411.41
23.4805
5.46839
14.4282
23.274
13.3746
381.67
33.6822
84.3616
28.7511
32.7859
27.2114
374.789
31.6246
124.262
20.9745
29.4639
18.7084
365.788
30.7098
73.5489
21.6875
29.0736
20.3489
362.141
74.2215
34.2423
364.57
73.511
13.2906
368.583
69.7152
4.45908
375.204
59.0781
1.67791
373.41
49.9492
4.32277
40.8422
-14.7602
-595.188
1221.57
420.6
-249.542
193
166.831
4.29593
45.9767
30.9712
127.953
-129.198
68.4117
295.967
-101.21
44.3191
69.3758
31.565
-21.4873
60.8868
57.0558
49.1451
58.4205
36.0409
61.3948
7.34366
74.0601
-9.39389
-10.7625
26.1575
-65.2879
82.9104
-0.677707
-21.5714
29.1165
-91.6551
93.6312
6.34266
-25.3799
27.6977
-87.2021
93.4035
14.4629
-23.3763
14.0731
-94.5509
93.4693
20.924
-10.4351
-6.78339
-87.1807
89.4374
30.761
7.4479
-18.4257
-89.1782
91.9131
32.39
14.9253
-11.3487
-89.5049
93.2984
28.6793
9.58577
336.502
25.1855
4.07766
-89.6894
-89.5414
-79.0751
-79.4969
15.0862
23.6988
13.9656
345.604
64.6082
5.84057
352.247
63.7415
1.52538
357.883
56.5735
1.85767
353.313
54.2417
3.58502
48.5372
-15.8852
-135.428
-283.881
227.324
-345.82
92.4348
-228.942
-69.062
-79.3612
-213.135
-215.761
-37.5851
23.3653
-9.53868
-142.578
37.5736
-26.9074
-19.1869
-32.6059
-2.83669
23.5586
-1.05681
2.36108
0.0250854
1.39948
-15.6317
15.5328
-0.848892
-0.476802
4.53265
-15.3762
2.13953
16.8429
-3.75422
-4.38465
5.38937
-17.539
-1.96958
18.6057
0.653171
-5.13964
4.06358
-16.8972
-3.51944
17.9546
2.28426
-3.88578
2.43342
-18.103
-5.5494
19.054
4.47855
-2.31363
0.587444
-18.6344
-7.61023
19.7495
6.5071
-0.599397
-0.748551
-20.5236
-8.29756
21.7201
7.29528
0.554366
-0.778006
-22.2517
-7.39984
23.2485
6.59739
0.583681
-23.0485
1.58579
93.1455
22.531
-1.33756
-23.4371
-21.9362
-22.3175
344.869
53.821
-3.36581
-88.6451
-93.1602
-79.1177
-82.8267
351.602
49.1103
-3.47405
356.287
48.1343
-3.6339
351.049
56.1975
3.0523
55.319
-16.4226
2366.6
-1967.69
-1528.88
1964.87
-32.4354
-367.599
716.539
460.778
785.065
304.455
177.914
221.596
40.8595
-11.0705
176.907
43.4597
29.1288
28.4654
1.8272
22.9633
26.2372
-9.62275
-0.545322
-1.74916
5.8723
-9.03361
9.23261
-5.86039
1.53825
1.44724
5.48387
-11.8311
12.7035
-6.46147
-1.34199
2.32444
1.69116
-15.1137
16.0372
-2.83801
-2.10116
1.08981
-0.366057
-18.0876
18.7355
-0.335269
-1.03632
-20.2931
1.09839
-2.89718
20.8129
2.31953
-1.04059
-22.204
0.491843
-5.07648
4.59673
-0.483683
22.6756
0.0881678
-5.96573
-24.0239
24.5021
5.62024
-0.220893
0.368111
-5.84806
-25.5566
25.8274
5.72908
-0.519876
-26.0571
5.2497