/*--------------------------------*- C++ -*----------------------------------*\
  =========                 |
  \\      /  F ield         | OpenFOAM: The Open Source CFD Toolbox
   \\    /   O peration     | Website:  https://openfoam.org
    \\  /    A nd           | Version:  10
     \\/     M anipulation  |
\*---------------------------------------------------------------------------*/
FoamFile
{
    format      ascii;
    class       volScalarField;
    location    "7.1";
    object      turbidity;
}
// * * * * * * * * * * * * * * * * * * * * * * * * * * * * * * * * * * * * * //

dimensions      [0 0 0 0 0 0 0];

internalField   nonuniform List<scalar> 
12920
(
-0.00803217
-0.0279528
-0.0472469
-0.0653473
-0.0825821
-0.091078
-0.0976723
-0.0989605
-0.101952
-0.103602
-0.106302
-0.111881
-0.122535
-0.138964
-0.162309
-0.204122
-0.270369
-0.344607
-0.404581
-0.445492
-0.0158926
-0.0362838
-0.0579233
-0.0808238
-0.0998668
-0.116752
-0.132394
-0.147267
-0.161503
-0.175365
-0.189112
-0.201836
-0.212363
-0.223823
-0.245091
-0.287203
-0.344486
-0.393634
-0.417679
-0.422214
-0.0573237
-0.0499073
-0.0556919
-0.0767187
-0.0903128
-0.105796
-0.12641
-0.155475
-0.186926
-0.217698
-0.245
-0.269258
-0.289816
-0.306193
-0.325528
-0.356432
-0.400382
-0.451218
-0.500391
-0.541069
-0.0125257
-0.0398348
-0.0500759
-0.0656865
-0.0761681
-0.0880575
-0.103983
-0.128859
-0.161673
-0.200847
-0.23929
-0.277385
-0.315808
-0.355158
-0.395531
-0.442218
-0.498314
-0.559536
-0.620629
-0.678539
-0.00804842
-0.0231927
-0.0369934
-0.0482506
-0.0627492
-0.0738031
-0.0900708
-0.109116
-0.135419
-0.170105
-0.210426
-0.254517
-0.301031
-0.350211
-0.401395
-0.453893
-0.507241
-0.559155
-0.612623
-0.665925
-0.0168457
-0.024573
-0.0346747
-0.0469635
-0.0638517
-0.0823714
-0.0989377
-0.112914
-0.132904
-0.158076
-0.188296
-0.231127
-0.283791
-0.335866
-0.38141
-0.420739
-0.452747
-0.481221
-0.512003
-0.544102
-0.0137212
-0.0319427
-0.0488019
-0.0691583
-0.0892651
-0.0993385
-0.10399
-0.102465
-0.102676
-0.11029
-0.125341
-0.151772
-0.201997
-0.274538
-0.34087
-0.389812
-0.425249
-0.453021
-0.477017
-0.500897
-0.0189054
-0.051355
-0.0707364
-0.0956508
-0.121697
-0.130057
-0.121436
-0.110163
-0.103079
-0.102552
-0.111228
-0.135391
-0.178134
-0.228139
-0.267515
-0.300634
-0.323492
-0.338893
-0.353596
-0.375863
-0.017406
-0.0357656
-0.0597556
-0.0958726
-0.136914
-0.135078
-0.127813
-0.115537
-0.104268
-0.0982769
-0.101925
-0.118561
-0.143142
-0.167057
-0.18878
-0.178305
-0.190856
-0.202649
-0.224391
-0.259821
-0.0149531
-0.0250074
-0.0597016
-0.109204
-0.145385
-0.140779
-0.132931
-0.122938
-0.106517
-0.0950852
-0.0896341
-0.0914587
-0.100652
-0.112468
-0.126036
-0.128317
-0.143205
-0.160441
-0.18626
-0.221134
-0.0223906
-0.053056
-0.0789179
-0.0991301
-0.111161
-0.10771
-0.110632
-0.12511
-0.132175
-0.124235
-0.109832
-0.0995278
-0.0955093
-0.095832
-0.107784
-0.12841
-0.145204
-0.163676
-0.186477
-0.215002
-0.030255
-0.0535192
-0.0673191
-0.0743783
-0.0860591
-0.0844252
-0.0855311
-0.0962322
-0.11946
-0.130615
-0.137147
-0.141864
-0.145272
-0.14624
-0.145421
-0.158719
-0.172707
-0.187739
-0.204347
-0.225568
-0.0251157
-0.0534498
-0.0609765
-0.076539
-0.096547
-0.118223
-0.116562
-0.1178
-0.125304
-0.134932
-0.148753
-0.166505
-0.185555
-0.19224
-0.200836
-0.212821
-0.223501
-0.234659
-0.245864
-0.262648
-0.0108108
-0.0221019
-0.0356085
-0.0616002
-0.0931378
-0.125579
-0.158425
-0.199068
-0.235663
-0.279752
-0.32029
-0.362144
-0.389506
-0.405761
-0.405472
-0.397835
-0.386157
-0.379589
-0.373762
-0.375779
-0.0133231
-0.0239469
-0.0412503
-0.0644041
-0.100073
-0.14621
-0.200931
-0.250978
-0.292404
-0.335172
-0.373978
-0.413477
-0.449114
-0.481997
-0.506623
-0.523475
-0.529112
-0.531044
-0.528103
-0.528333
-0.0230961
-0.0347071
-0.0467927
-0.0618564
-0.086311
-0.141491
-0.216348
-0.282643
-0.333206
-0.375349
-0.411189
-0.444855
-0.477416
-0.509704
-0.542634
-0.573485
-0.599626
-0.621766
-0.639268
-0.654323
-0.0209935
-0.0354788
-0.0470913
-0.0641469
-0.0888206
-0.125586
-0.168494
-0.219408
-0.28552
-0.355192
-0.416388
-0.465449
-0.509126
-0.546926
-0.581685
-0.613181
-0.641933
-0.668648
-0.692957
-0.714788
-0.0135861
-0.032119
-0.0505463
-0.075741
-0.107559
-0.143641
-0.181451
-0.220915
-0.265621
-0.308166
-0.360407
-0.41132
-0.461601
-0.503442
-0.539506
-0.568359
-0.594096
-0.614355
-0.632852
-0.653412
-0.00587539
-0.0280984
-0.0577558
-0.0843109
-0.11051
-0.143239
-0.18107
-0.219617
-0.252813
-0.281885
-0.317228
-0.356976
-0.399531
-0.43531
-0.462536
-0.480382
-0.492701
-0.501748
-0.507948
-0.519865
-0.0765297
-0.0713032
-0.0859885
-0.108198
-0.132299
-0.159217
-0.187659
-0.215014
-0.238726
-0.260001
-0.279503
-0.298812
-0.317948
-0.33875
-0.361583
-0.387117
-0.413953
-0.440563
-0.465143
-0.488237
-0.000272021
-0.00100764
-0.00500389
-0.0105041
-0.0171453
-0.0151688
-0.0161544
-0.0172436
-0.019972
-0.0242752
-0.0316354
-0.0427506
-0.0577103
-0.0782839
-0.108661
-0.147137
-0.18236
-0.203072
-0.210824
-0.211191
-0.000867571
-0.0107166
-0.00926788
-0.0190623
-0.0361622
-0.0420487
-0.0482872
-0.0462359
-0.047496
-0.0459115
-0.0511219
-0.0626908
-0.0830805
-0.107513
-0.130372
-0.138512
-0.124805
-0.0951132
-0.0678739
-0.0513261
-0.0156152
-0.0152538
-0.014397
-0.0241948
-0.0389161
-0.0518405
-0.0654699
-0.0720794
-0.0762726
-0.0735421
-0.0729921
-0.0711975
-0.0749755
-0.082238
-0.0940419
-0.100931
-0.0992635
-0.0876701
-0.0740188
-0.0678638
-0.00548373
-0.00638365
-0.00946171
-0.0147696
-0.0238062
-0.0334824
-0.0495858
-0.0621253
-0.0694419
-0.0639012
-0.0575303
-0.0519401
-0.0548079
-0.0633089
-0.0755361
-0.0840625
-0.0830394
-0.0762163
-0.0740877
-0.0782745
-0.00372959
-0.00533886
-0.0082597
-0.00964063
-0.0122851
-0.0152537
-0.0227193
-0.0347154
-0.0503989
-0.0568566
-0.0567448
-0.0495499
-0.0452873
-0.0459945
-0.0540908
-0.063104
-0.0706445
-0.0795218
-0.0918393
-0.105209
-0.00662275
-0.00806386
-0.0149423
-0.018307
-0.0238702
-0.0180511
-0.0166126
-0.02018
-0.0299941
-0.0440224
-0.0613763
-0.0659956
-0.0560876
-0.0468386
-0.0447855
-0.0490025
-0.0585012
-0.0731757
-0.0954156
-0.124123
-0.00609553
-0.0072375
-0.0185676
-0.0223203
-0.0217554
-0.0144272
-0.0124681
-0.0138096
-0.0184482
-0.0284185
-0.0451623
-0.0684475
-0.0826383
-0.0752693
-0.0650413
-0.0627692
-0.0698077
-0.0835609
-0.104307
-0.130535
-0.00798912
-0.0203348
-0.0202963
-0.0155468
-0.0214736
-0.0145714
-0.013828
-0.0143462
-0.0164219
-0.0218247
-0.0333699
-0.0531142
-0.0673978
-0.0634558
-0.0466247
-0.0490565
-0.0551223
-0.0654083
-0.0799678
-0.098489
-0.0113892
-0.00847915
-0.0197113
-0.0213291
-0.0414787
-0.0283499
-0.0204374
-0.015041
-0.014669
-0.017526
-0.0232974
-0.0356235
-0.0530845
-0.0614753
-0.0460004
-0.0309963
-0.0342544
-0.0420326
-0.0551318
-0.0714462
-0.00213984
-0.00232096
-0.00685013
-0.0170277
-0.0309348
-0.0289996
-0.034313
-0.0297992
-0.0206393
-0.0159171
-0.0172688
-0.0268699
-0.0477198
-0.0624421
-0.043265
-0.0289265
-0.0308653
-0.0363004
-0.0453912
-0.0567184
-0.00445275
-0.00910785
-0.0131335
-0.0221946
-0.0356726
-0.0421109
-0.0599084
-0.0641734
-0.0735867
-0.0882833
-0.0900012
-0.0876898
-0.0861627
-0.0816913
-0.0581855
-0.0522912
-0.0523597
-0.0531093
-0.053906
-0.0558689
-0.00569385
-0.0178016
-0.0127884
-0.0128976
-0.0201805
-0.0252461
-0.0377412
-0.0603987
-0.073992
-0.096024
-0.108932
-0.114563
-0.123475
-0.130181
-0.111551
-0.0852585
-0.0799402
-0.070837
-0.0617821
-0.0563175
-0.0251814
-0.0245931
-0.0144249
-0.0117298
-0.0184325
-0.0215864
-0.0283714
-0.039678
-0.0454065
-0.0527298
-0.0549324
-0.0558261
-0.0570787
-0.0636295
-0.0642848
-0.0666654
-0.0644869
-0.0600662
-0.0562534
-0.0549964
-0.00455765
-0.00916584
-0.0121877
-0.0101925
-0.0126757
-0.0188749
-0.0269907
-0.0383936
-0.0519414
-0.0619748
-0.0641094
-0.0620267
-0.0619357
-0.0646014
-0.0692157
-0.0719669
-0.0726616
-0.0725634
-0.0727185
-0.0762885
-0.000265501
-0.00222858
-0.00974102
-0.00969746
-0.0165339
-0.0244643
-0.0350267
-0.0433259
-0.0518081
-0.0518825
-0.0518697
-0.0501322
-0.0541187
-0.0609603
-0.0697515
-0.0783208
-0.0861332
-0.0907815
-0.0960039
-0.10304
-0.00106663
-0.00852328
-0.0182666
-0.0267495
-0.0450361
-0.049801
-0.0528092
-0.0507787
-0.0534633
-0.0473694
-0.0433276
-0.0391108
-0.0408557
-0.044427
-0.0511892
-0.0584388
-0.0675641
-0.0751677
-0.0843605
-0.0923381
-0.00707521
-0.0122162
-0.0205108
-0.0235162
-0.0331579
-0.0360238
-0.0549116
-0.0635183
-0.0657878
-0.0518141
-0.0436194
-0.0412889
-0.0419819
-0.0432208
-0.0449799
-0.0470175
-0.0496277
-0.0523402
-0.055639
-0.0598009
-0.0118401
-0.0119104
-0.0173481
-0.024647
-0.0404842
-0.0423796
-0.0491363
-0.0407547
-0.0384114
-0.0378721
-0.0392343
-0.0400896
-0.0403956
-0.0398914
-0.039216
-0.0384291
-0.0378588
-0.0373787
-0.0372106
-0.0377008
-0.00704528
-0.0142594
-0.0210803
-0.0343317
-0.0534991
-0.0581895
-0.0622742
-0.0538967
-0.0517857
-0.0537898
-0.0561114
-0.0555011
-0.0519888
-0.0464732
-0.0413223
-0.0377315
-0.035968
-0.0355768
-0.0360517
-0.0367434
-0.0401512
-0.0385603
-0.0295304
-0.0460128
-0.0602396
-0.0750724
-0.0896861
-0.100351
-0.109154
-0.113839
-0.116774
-0.118529
-0.121134
-0.126625
-0.136329
-0.148605
-0.160319
-0.169737
-0.177999
-0.187031
-0.000277973
-0.00111058
-0.00257075
-0.00431783
-0.0074553
-0.0088654
-0.0108279
-0.0127528
-0.0160606
-0.0212461
-0.0292533
-0.0406425
-0.0563126
-0.0759569
-0.0985117
-0.119474
-0.131403
-0.133246
-0.129286
-0.123191
-0.000901903
-0.00643946
-0.00701057
-0.0111545
-0.0194733
-0.0189079
-0.0209114
-0.0189344
-0.020173
-0.0221182
-0.0276209
-0.0358401
-0.0477768
-0.0601916
-0.0671732
-0.0621741
-0.0480296
-0.0344985
-0.0272644
-0.0242769
-0.0170628
-0.0195714
-0.0166746
-0.0163299
-0.0252927
-0.0312543
-0.035791
-0.0325012
-0.0305127
-0.0271106
-0.0273162
-0.0282805
-0.0316726
-0.0358319
-0.0395033
-0.0395824
-0.036825
-0.0330556
-0.0310228
-0.0310898
-0.00153566
-0.00430772
-0.00765901
-0.0153239
-0.0220269
-0.0274231
-0.0325497
-0.0305517
-0.0279289
-0.0226191
-0.0213783
-0.0221372
-0.0251172
-0.0284361
-0.0313572
-0.0327009
-0.0323444
-0.0316317
-0.0318242
-0.0324464
-0.00144263
-0.00336872
-0.00628736
-0.00875072
-0.0110724
-0.0146756
-0.0182987
-0.0206059
-0.0227307
-0.0212961
-0.0204855
-0.0199321
-0.0217172
-0.0247924
-0.0284852
-0.0319176
-0.0349925
-0.0378164
-0.0403486
-0.0416269
-0.00317923
-0.00418958
-0.00636258
-0.00738396
-0.00934701
-0.00879252
-0.010031
-0.0120996
-0.0151737
-0.0184053
-0.0223402
-0.022092
-0.0214806
-0.0236352
-0.0281805
-0.0342096
-0.0416175
-0.0504838
-0.0610779
-0.0697908
-0.000750507
-0.00174821
-0.00390409
-0.00591218
-0.00692224
-0.00686776
-0.00784721
-0.0100337
-0.0135348
-0.0187373
-0.0258548
-0.0321058
-0.0321036
-0.0285621
-0.0297899
-0.0353144
-0.0434861
-0.0532841
-0.0641621
-0.0735758
-0.00999063
-0.00545236
-0.00478718
-0.00530702
-0.00695397
-0.00659829
-0.00674972
-0.00759806
-0.00956766
-0.0129859
-0.0177616
-0.0226449
-0.0235707
-0.0228523
-0.0253407
-0.0313904
-0.0387725
-0.0468824
-0.0549929
-0.0611423
-0.00707374
-0.00276505
-0.0056464
-0.00803619
-0.0129577
-0.00966244
-0.00808881
-0.00733556
-0.00766046
-0.00932761
-0.0121751
-0.0155344
-0.018131
-0.018749
-0.0187994
-0.021656
-0.0282361
-0.035931
-0.0436303
-0.0489173
-0.00220068
-0.00173643
-0.00399764
-0.0100561
-0.0157128
-0.0162146
-0.0177084
-0.0157558
-0.0124071
-0.0118749
-0.0135845
-0.0170825
-0.0195063
-0.0181609
-0.0150851
-0.0198973
-0.023769
-0.028727
-0.0343028
-0.0382197
-0.00547443
-0.00693698
-0.00936369
-0.0136625
-0.0197387
-0.0218325
-0.0281849
-0.0336232
-0.0404591
-0.0446705
-0.0434303
-0.0388017
-0.0339572
-0.0278008
-0.0274711
-0.0389903
-0.0375942
-0.035179
-0.0338711
-0.0334053
-0.00417288
-0.00877841
-0.00901539
-0.0117688
-0.0165528
-0.0192969
-0.0245543
-0.0337111
-0.035566
-0.0424889
-0.04559
-0.0476817
-0.0537767
-0.0605279
-0.060118
-0.0483634
-0.041787
-0.0350108
-0.0310112
-0.02945
-0.00908902
-0.0122801
-0.00818533
-0.00983431
-0.013129
-0.0144255
-0.016526
-0.0192315
-0.0205161
-0.0224202
-0.0235047
-0.0259766
-0.0301323
-0.0354712
-0.0327321
-0.0321646
-0.0304332
-0.0290275
-0.02872
-0.02951
-0.0016097
-0.00430269
-0.00589259
-0.00652702
-0.00910324
-0.0119218
-0.0149989
-0.0179341
-0.0210547
-0.023014
-0.0240666
-0.0250673
-0.0269159
-0.0289911
-0.031118
-0.0324832
-0.0335126
-0.0346859
-0.0360899
-0.0382651
-0.000882244
-0.00254309
-0.00472172
-0.00579239
-0.00955185
-0.013151
-0.0158431
-0.0170473
-0.0186073
-0.018735
-0.0198489
-0.0211525
-0.0236808
-0.0264767
-0.0296542
-0.0326136
-0.0355666
-0.037893
-0.0401423
-0.0423177
-0.000556139
-0.00254112
-0.00709378
-0.012628
-0.0223275
-0.0203266
-0.0202419
-0.0184804
-0.0181542
-0.0172221
-0.0175291
-0.0182149
-0.0198058
-0.0215033
-0.0237202
-0.0257909
-0.028143
-0.0300077
-0.0318259
-0.0330646
-0.00198404
-0.00503268
-0.00989033
-0.0113392
-0.0173339
-0.0201424
-0.0265067
-0.0246022
-0.0222265
-0.0186302
-0.0177215
-0.0177647
-0.0182487
-0.0187044
-0.0192328
-0.0197147
-0.0202761
-0.0207827
-0.0213602
-0.0219297
-0.00340492
-0.00740111
-0.0121609
-0.0152172
-0.0226146
-0.0218458
-0.0229801
-0.0214515
-0.0209815
-0.0201404
-0.0193026
-0.0183752
-0.0177691
-0.0173972
-0.0172732
-0.0172401
-0.0172927
-0.0173312
-0.0174328
-0.0173849
-0.0046729
-0.0108912
-0.016233
-0.0226682
-0.0319936
-0.0324145
-0.0338044
-0.0334016
-0.0343606
-0.0337239
-0.032149
-0.0289636
-0.0259983
-0.0239449
-0.0236109
-0.0246036
-0.026662
-0.0291266
-0.0318332
-0.03372
-0.0250678
-0.0210064
-0.0142161
-0.0220092
-0.0327849
-0.0425575
-0.0509573
-0.0562461
-0.0604963
-0.0624691
-0.0629396
-0.0620291
-0.0609378
-0.0607895
-0.0625675
-0.065901
-0.069686
-0.0732978
-0.0772024
-0.0830846
-0.000380078
-0.00126253
-0.0021132
-0.0042871
-0.00619139
-0.00729813
-0.00901831
-0.01118
-0.0146557
-0.0195006
-0.0261742
-0.0347602
-0.0460501
-0.0597605
-0.073182
-0.0809588
-0.0807009
-0.0751141
-0.0665826
-0.0579278
-0.00181795
-0.00382081
-0.00449051
-0.00694993
-0.0102172
-0.00922116
-0.0105454
-0.0108596
-0.0128582
-0.0151326
-0.0184111
-0.0218912
-0.0261347
-0.0295778
-0.0307862
-0.0280858
-0.0238715
-0.0211136
-0.0197808
-0.019144
-0.00192893
-0.00577313
-0.00607826
-0.0107443
-0.0164898
-0.0161439
-0.0167302
-0.0145835
-0.0148576
-0.0151781
-0.0164924
-0.0175208
-0.0186
-0.0195025
-0.0200427
-0.0196472
-0.01882
-0.0180365
-0.0177496
-0.0177752
-0.00161718
-0.00442312
-0.00862993
-0.0130579
-0.01635
-0.0154297
-0.0160744
-0.0137328
-0.0134677
-0.0134869
-0.0145846
-0.0156313
-0.0166914
-0.0174025
-0.0177724
-0.0176565
-0.0171482
-0.0165481
-0.0161576
-0.0159649
-0.0018916
-0.00430835
-0.00610107
-0.00786387
-0.00890601
-0.0100631
-0.0105289
-0.0107143
-0.0115873
-0.0120899
-0.0132846
-0.0145838
-0.0160427
-0.0172222
-0.0180907
-0.0185132
-0.0186172
-0.0184891
-0.0182591
-0.0179223
-0.000970931
-0.00270757
-0.00365646
-0.00463946
-0.0056271
-0.00625175
-0.00706392
-0.00808627
-0.00948647
-0.0109647
-0.0129066
-0.0145072
-0.0165662
-0.0188907
-0.0212662
-0.0235038
-0.0257417
-0.0277931
-0.0295232
-0.0295082
-0.000343214
-0.00120855
-0.00248416
-0.00337166
-0.00402376
-0.00475585
-0.00586447
-0.00748984
-0.00941097
-0.0115782
-0.0143112
-0.0165558
-0.0179383
-0.0198574
-0.0228777
-0.0261196
-0.029225
-0.0319187
-0.0341534
-0.0345549
-0.00574592
-0.0020859
-0.00275403
-0.00400099
-0.00484168
-0.00496479
-0.00524867
-0.00648722
-0.00784187
-0.00962842
-0.0114691
-0.0134925
-0.0152713
-0.0177746
-0.0213773
-0.0243421
-0.026817
-0.0285638
-0.0296393
-0.0292529
-0.00621087
-0.00292577
-0.00465894
-0.00680696
-0.00805416
-0.00683454
-0.00620584
-0.00632412
-0.00708099
-0.00832027
-0.00972726
-0.0111369
-0.0124853
-0.0140291
-0.0164318
-0.0195277
-0.0223803
-0.0242269
-0.0250235
-0.0240392
-0.00511146
-0.00466408
-0.00673134
-0.0100589
-0.0118478
-0.0119525
-0.0119493
-0.0108615
-0.0101681
-0.0102164
-0.0104147
-0.0105543
-0.0103737
-0.0105878
-0.0125032
-0.0163498
-0.0183793
-0.0198652
-0.0204326
-0.0194951
-0.00338733
-0.00672295
-0.00917771
-0.0116578
-0.0143008
-0.0157214
-0.0185744
-0.0213006
-0.0238849
-0.0243101
-0.0228379
-0.0208815
-0.01988
-0.0213519
-0.0237786
-0.0201622
-0.0190389
-0.0183325
-0.0178424
-0.0169884
-0.00188723
-0.00667756
-0.0093986
-0.0121617
-0.0151781
-0.0164446
-0.0186249
-0.0208119
-0.02134
-0.0234172
-0.0246802
-0.0286492
-0.0342055
-0.0389833
-0.0334774
-0.0196794
-0.017738
-0.0165216
-0.0160723
-0.015756
-0.00490077
-0.0068711
-0.00749721
-0.00959772
-0.0112996
-0.011741
-0.0127259
-0.0137367
-0.014477
-0.0152781
-0.0161085
-0.0177042
-0.0192097
-0.0198102
-0.0162538
-0.0161858
-0.0161638
-0.0163119
-0.0165173
-0.0167027
-0.00163511
-0.00347805
-0.00491424
-0.00693583
-0.00921519
-0.0106203
-0.0117509
-0.0122323
-0.013014
-0.0135839
-0.0142454
-0.0148075
-0.0154941
-0.0162214
-0.0170256
-0.0176797
-0.018262
-0.0187416
-0.0189824
-0.0191622
-0.00124724
-0.00171776
-0.00309714
-0.00607969
-0.00916193
-0.0105334
-0.0111535
-0.0111722
-0.011711
-0.0120232
-0.0127727
-0.0134063
-0.0142876
-0.0150823
-0.0159561
-0.0166135
-0.0172473
-0.0174569
-0.0175103
-0.0174778
-0.000443309
-0.0016653
-0.00447232
-0.00862104
-0.0126425
-0.0119542
-0.0117275
-0.0111462
-0.0112758
-0.0113995
-0.0118328
-0.0121542
-0.0126234
-0.0129344
-0.0133458
-0.0135585
-0.0138303
-0.0138699
-0.0139548
-0.0140602
-0.00258159
-0.00355828
-0.00664638
-0.00971455
-0.0130538
-0.0135433
-0.0142993
-0.0127565
-0.0121682
-0.0117007
-0.011753
-0.0118092
-0.0118695
-0.0118634
-0.0118552
-0.0118395
-0.011859
-0.0119105
-0.0120565
-0.0123584
-0.00260153
-0.00630296
-0.0101465
-0.013524
-0.0159041
-0.0156412
-0.0156137
-0.0148808
-0.0142348
-0.0136511
-0.0134197
-0.0134417
-0.013705
-0.0140052
-0.0143247
-0.0145591
-0.0147359
-0.0147635
-0.014758
-0.0145044
-0.00578588
-0.00941063
-0.0150784
-0.0194889
-0.0229086
-0.0228322
-0.0235379
-0.0231009
-0.0225912
-0.0207131
-0.0188169
-0.0173194
-0.0170514
-0.0177763
-0.0192341
-0.0210167
-0.0229666
-0.0248295
-0.0265474
-0.027636
-0.00975083
-0.0123367
-0.0132634
-0.0177356
-0.0236023
-0.027459
-0.0312919
-0.0336968
-0.0355395
-0.0352459
-0.0335082
-0.0306158
-0.0281431
-0.0265989
-0.0264601
-0.0273963
-0.0291579
-0.0317458
-0.0356313
-0.041157
-0.000894889
-0.00214458
-0.00335249
-0.00552854
-0.00704491
-0.00842298
-0.00985406
-0.0114158
-0.0134849
-0.0157918
-0.0185935
-0.0219256
-0.0261907
-0.0308836
-0.0342451
-0.0335492
-0.0290001
-0.0232975
-0.0177847
-0.0148357
-0.00244375
-0.00288638
-0.00404512
-0.00588974
-0.00758474
-0.00847795
-0.00936012
-0.0098668
-0.0104624
-0.0108588
-0.0113811
-0.0118544
-0.0126089
-0.0132915
-0.0138031
-0.0135623
-0.0131915
-0.0131577
-0.013359
-0.013822
-0.00364699
-0.00406069
-0.0057122
-0.00789557
-0.00970188
-0.00989344
-0.0105625
-0.0107336
-0.0111985
-0.0113355
-0.0115174
-0.0115547
-0.011598
-0.0116715
-0.0118145
-0.0119491
-0.012181
-0.0125621
-0.01316
-0.0138433
-0.00659535
-0.00591358
-0.00729246
-0.00882744
-0.00956725
-0.00955133
-0.0100082
-0.0102469
-0.0107203
-0.0109449
-0.0111273
-0.0111457
-0.0111896
-0.0112648
-0.0114296
-0.0116884
-0.0120775
-0.0126134
-0.0132612
-0.0138968
-0.00160521
-0.00369263
-0.00483518
-0.00634614
-0.00703457
-0.00790158
-0.00856922
-0.00936428
-0.0100475
-0.0105394
-0.010924
-0.0110823
-0.0112356
-0.0113311
-0.0115205
-0.01179
-0.01218
-0.0126642
-0.013235
-0.0138156
-0.000306535
-0.00111592
-0.00233594
-0.00452545
-0.0055946
-0.00676493
-0.0076368
-0.00867298
-0.00956628
-0.0103522
-0.0110705
-0.0115659
-0.012002
-0.0123464
-0.0126862
-0.0130266
-0.0134264
-0.0138172
-0.0142431
-0.0146059
-0.000540271
-0.00139802
-0.00248297
-0.00370678
-0.00470344
-0.00590211
-0.00703967
-0.00821363
-0.00924762
-0.0102368
-0.011199
-0.0120208
-0.0126487
-0.0131301
-0.0136258
-0.013962
-0.0142838
-0.0145851
-0.014947
-0.0151082
-0.00417025
-0.00210487
-0.00322371
-0.00444643
-0.00526723
-0.00595002
-0.00644112
-0.00774187
-0.00866469
-0.00970247
-0.0105455
-0.0114422
-0.0121052
-0.0127929
-0.0128144
-0.0130558
-0.013143
-0.013231
-0.0134601
-0.0136494
-0.00520894
-0.00360189
-0.004897
-0.00626212
-0.00693161
-0.00659501
-0.00662767
-0.00721892
-0.00802208
-0.00890897
-0.00977229
-0.0105658
-0.0112444
-0.0118536
-0.012309
-0.0121315
-0.012127
-0.0120656
-0.0121713
-0.0122738
-0.00829087
-0.00606055
-0.00719497
-0.00853743
-0.00915488
-0.0093124
-0.00911538
-0.00897787
-0.00896629
-0.00895767
-0.00920814
-0.00979466
-0.010494
-0.0111375
-0.0109232
-0.0108401
-0.0108634
-0.0109496
-0.0112084
-0.011483
-0.00610432
-0.00618833
-0.0078896
-0.00967853
-0.0105748
-0.0117308
-0.0127689
-0.0138234
-0.0148248
-0.0153762
-0.0154462
-0.0151583
-0.0139667
-0.012684
-0.0108743
-0.0104494
-0.0104384
-0.0105666
-0.0109585
-0.0114463
-0.00292405
-0.00504203
-0.00802445
-0.010067
-0.011292
-0.0118753
-0.0123283
-0.0124502
-0.0131163
-0.0143189
-0.0159265
-0.0169471
-0.0157051
-0.0135671
-0.0102642
-0.00994969
-0.0101488
-0.010594
-0.0112984
-0.0120671
-0.00470342
-0.00576678
-0.00797863
-0.00951172
-0.0101076
-0.00991917
-0.0102109
-0.0102756
-0.0102012
-0.0102608
-0.0101632
-0.0100025
-0.00969753
-0.00930537
-0.00959588
-0.0100355
-0.0105649
-0.0113111
-0.0121906
-0.0131432
-0.00214402
-0.00359799
-0.00628109
-0.00851998
-0.00927742
-0.00912701
-0.00910373
-0.00888298
-0.00884612
-0.00878915
-0.00875051
-0.00879249
-0.00898968
-0.00935826
-0.00987245
-0.0104572
-0.0111777
-0.0120137
-0.0129545
-0.013961
-0.00122539
-0.00253491
-0.00542371
-0.00799197
-0.0087037
-0.00854559
-0.00851995
-0.00837642
-0.00840257
-0.00833362
-0.00839264
-0.0084763
-0.00874736
-0.00913589
-0.0096939
-0.010353
-0.0111864
-0.0121142
-0.0131908
-0.0142735
-0.00119462
-0.00305161
-0.00705433
-0.00881285
-0.00913635
-0.00868897
-0.00848677
-0.00835936
-0.00831408
-0.00826244
-0.00829378
-0.00838441
-0.00864174
-0.00900991
-0.00956444
-0.0102471
-0.0111106
-0.0121138
-0.0132618
-0.0143718
-0.00195496
-0.00527962
-0.0082274
-0.00929733
-0.00962882
-0.00926115
-0.00919657
-0.00896472
-0.00886726
-0.00877472
-0.00873996
-0.00880573
-0.00899586
-0.0093418
-0.00985026
-0.0105174
-0.0113415
-0.0123129
-0.0134104
-0.0144625
-0.00175906
-0.00714157
-0.00986736
-0.0107648
-0.010465
-0.0101307
-0.0100739
-0.0101479
-0.0103755
-0.0105407
-0.010655
-0.0106704
-0.010703
-0.0107336
-0.0108566
-0.0110765
-0.0114687
-0.0120234
-0.0127866
-0.0136148
-0.0048828
-0.00981021
-0.0132359
-0.0143531
-0.0143694
-0.0134502
-0.0128566
-0.0120512
-0.0119913
-0.0125614
-0.0136481
-0.014844
-0.0158757
-0.0166108
-0.0169858
-0.016961
-0.0166127
-0.0159962
-0.0154113
-0.014797
-0.00600729
-0.0114674
-0.0136491
-0.0149939
-0.0173601
-0.0180324
-0.0187877
-0.0174896
-0.0159038
-0.0136292
-0.012568
-0.0122742
-0.0131169
-0.014727
-0.0170285
-0.0196724
-0.0223156
-0.0245153
-0.0259124
-0.026164
-0.012957
-0.0360052
-0.0345903
-0.0118703
-0.012091
-0.02405
-0.0222836
-0.0161508
-0.0339899
-0.0316787
-0.0121704
-0.0123886
-0.0215846
-0.0193694
-0.0441769
-0.047512
-0.0508488
-0.0285934
-0.0271629
-0.0296127
-0.0305802
-0.0400603
-0.0512631
-0.0527559
-0.026496
-0.0241214
-0.0309906
-0.0331026
-0.11862
-0.131482
-0.123299
-0.117648
-0.0870417
-0.118906
-0.0911692
-0.106711
-0.119827
-0.107284
-0.076077
-0.0565602
-0.079549
-0.0523293
-0.0990366
-0.103749
-0.0965614
-0.0558912
-0.0626164
-0.0492913
-0.0533815
-0.0995516
-0.0947943
-0.0909818
-0.0666911
-0.0802322
-0.0563552
-0.0648083
-0.1126
-0.0904944
-0.0926839
-0.0862424
-0.10514
-0.0676709
-0.0805927
-0.13569
-0.0947181
-0.103631
-0.113565
-0.133316
-0.0863846
-0.104689
-0.160352
-0.107183
-0.11827
-0.140662
-0.156492
-0.110144
-0.122686
-0.182209
-0.121924
-0.131599
-0.162011
-0.171425
-0.125359
-0.123926
-0.125745
-0.12316
-0.125153
-0.124043
-0.10403
-0.117617
-0.119285
-0.110764
-0.127147
-0.12895
-0.0949906
-0.0677581
-0.121706
-0.125134
-0.0972373
-0.127281
-0.116788
-0.0625377
-0.059151
-0.124109
-0.115799
-0.0904652
-0.112561
-0.101346
-0.0602117
-0.0646118
-0.11226
-0.102511
-0.0901761
-0.0985112
-0.0927789
-0.0666002
-0.0772242
-0.100032
-0.0957788
-0.0979085
-0.0917754
-0.0911076
-0.0823153
-0.0982712
-0.0954514
-0.0970761
-0.109495
-0.0915028
-0.0938755
-0.103
-0.11435
-0.0982055
-0.102163
-0.120587
-0.0949914
-0.0990359
-0.116833
-0.115267
-0.103355
-0.104116
-0.121487
-0.0961208
-0.100317
-0.10637
-0.115294
-0.0943388
-0.0958153
-0.13183
-0.105359
-0.121804
-0.119472
-0.129359
-0.099215
-0.116548
-0.127348
-0.125516
-0.131962
-0.130826
-0.129311
-0.122367
-0.133986
-0.113253
-0.133404
-0.136323
-0.127324
-0.119583
-0.136397
-0.141416
-0.101532
-0.136906
-0.137996
-0.116944
-0.110235
-0.142626
-0.145187
-0.095994
-0.138124
-0.13768
-0.108589
-0.105729
-0.145665
-0.14572
-0.095488
-0.137501
-0.135581
-0.105375
-0.105267
-0.145277
-0.141655
-0.097632
-0.133796
-0.124013
-0.105313
-0.104022
-0.139565
-0.131175
-0.091476
-0.0969294
-0.0990288
-0.0824218
-0.0863237
-0.0941252
-0.0960303
-0.114516
-0.101033
-0.109874
-0.0900646
-0.108955
-0.0985064
-0.109158
-0.12851
-0.113382
-0.122865
-0.11597
-0.130651
-0.113221
-0.123832
-0.135766
-0.126328
-0.135442
-0.133739
-0.140461
-0.127262
-0.135584
-0.140783
-0.138914
-0.148504
-0.142245
-0.14682
-0.138426
-0.145816
-0.144535
-0.152727
-0.163508
-0.148092
-0.150919
-0.148706
-0.155429
-0.14649
-0.167326
-0.173344
-0.151483
-0.151313
-0.156987
-0.154858
-0.140759
-0.174208
-0.171099
-0.150432
-0.144671
-0.151664
-0.140997
-0.0159702
-0.0264142
-0.0243025
-0.0169313
-0.0117974
-0.0215841
-0.0182783
-0.0142277
-0.0227364
-0.016444
-0.0108081
-0.0101644
-0.0164232
-0.0120397
-0.0165985
-0.0148762
-0.0129503
-0.0105598
-0.0122584
-0.0114428
-0.011712
-0.0210699
-0.0129739
-0.0145755
-0.013214
-0.0167695
-0.01221
-0.0145598
-0.0313441
-0.0157367
-0.0222969
-0.0185926
-0.023252
-0.0156301
-0.0195615
-0.0486279
-0.0259166
-0.0412994
-0.0250985
-0.0283125
-0.0209626
-0.0245671
-0.0608793
-0.0471654
-0.0606394
-0.0290864
-0.0296453
-0.0253494
-0.0257258
-0.0571686
-0.0624157
-0.0571452
-0.0295694
-0.028757
-0.025149
-0.0220225
-0.0311752
-0.0496567
-0.0553464
-0.0271677
-0.0249764
-0.0339518
-0.0386875
-0.0229542
-0.0544294
-0.059183
-0.0232355
-0.0177051
-0.0403602
-0.0440623
-0.0164554
-0.0622957
-0.0666491
-0.016489
-0.0151948
-0.0445588
-0.0440198
-0.0163859
-0.0667002
-0.0638138
-0.015267
-0.0165155
-0.04338
-0.0410113
-0.0233343
-0.0634483
-0.0642057
-0.0172679
-0.0204388
-0.0402129
-0.0378368
-0.0420666
-0.0651322
-0.0692894
-0.0216584
-0.0249183
-0.0371513
-0.0353774
-0.0605289
-0.0708507
-0.0736834
-0.0256262
-0.0258069
-0.0347483
-0.0319103
-0.0582939
-0.073578
-0.0679392
-0.0251568
-0.0218063
-0.0305947
-0.0261352
-0.0652584
-0.0524957
-0.0654194
-0.0371318
-0.0402267
-0.034199
-0.0389229
-0.0687911
-0.069748
-0.0771764
-0.0419656
-0.0476849
-0.0409485
-0.0446496
-0.0860123
-0.0797636
-0.0976126
-0.0494455
-0.0529723
-0.0459146
-0.0531677
-0.0901916
-0.103689
-0.114316
-0.0535288
-0.0533836
-0.0558605
-0.0605868
-0.0882896
-0.116116
-0.120668
-0.0528255
-0.0495188
-0.0612258
-0.0629878
-0.0864724
-0.122166
-0.126204
-0.0482384
-0.044336
-0.0638264
-0.0670854
-0.0834983
-0.127067
-0.126735
-0.0429264
-0.0376598
-0.068138
-0.069612
-0.0725869
-0.125395
-0.117289
-0.0356265
-0.0298037
-0.0693387
-0.0661289
-0.0543459
-0.0323038
-0.0456124
-0.0284276
-0.0360495
-0.0260367
-0.0309471
-0.0721152
-0.0512115
-0.059935
-0.0386045
-0.0421156
-0.0322125
-0.0328828
-0.0894585
-0.0599767
-0.0628946
-0.0425505
-0.0474883
-0.0325207
-0.0324026
-0.107479
-0.0666255
-0.0734298
-0.0499079
-0.0543024
-0.0329122
-0.0339001
-0.112833
-0.0722024
-0.0661659
-0.0547382
-0.0559411
-0.0340403
-0.0351224
-0.121215
-0.0654013
-0.0668421
-0.0567567
-0.0611046
-0.0359535
-0.0396711
-0.129108
-0.0679222
-0.0732672
-0.0630377
-0.0691877
-0.041353
-0.0475618
-0.128918
-0.0761844
-0.0867404
-0.0708879
-0.0734515
-0.0499532
-0.0574914
-0.007493
-0.0123414
-0.0120827
-0.00756054
-0.00687293
-0.0109675
-0.0103962
-0.00741913
-0.011383
-0.00941662
-0.00679991
-0.00721766
-0.00986923
-0.00912153
-0.00874612
-0.00913468
-0.00940247
-0.00755602
-0.00879243
-0.00921421
-0.0100109
-0.0112785
-0.00973972
-0.0113678
-0.00933001
-0.0107731
-0.0103127
-0.0111492
-0.0145836
-0.012115
-0.0149003
-0.0113372
-0.012503
-0.0113967
-0.0119909
-0.0176398
-0.0158931
-0.018241
-0.0129726
-0.0138733
-0.012105
-0.0121291
-0.0186974
-0.0186006
-0.0181785
-0.0142491
-0.0151788
-0.0120568
-0.0117803
-0.018878
-0.0176623
-0.0159235
-0.0157257
-0.0173593
-0.0117274
-0.0118434
-0.0165443
-0.0247839
-0.0299256
-0.0154279
-0.0140521
-0.0205816
-0.023201
-0.0130439
-0.0311266
-0.0346472
-0.0133736
-0.0119392
-0.0238178
-0.0248249
-0.0117757
-0.0355319
-0.0364985
-0.0117692
-0.0118089
-0.0248567
-0.0240697
-0.0156368
-0.0121044
-0.0166589
-0.011972
-0.0165439
-0.0121557
-0.0158277
-0.01596
-0.0143492
-0.017043
-0.0131458
-0.0175303
-0.0136144
-0.0157239
-0.0192328
-0.0308073
-0.0285006
-0.0124027
-0.0121778
-0.0186623
-0.0169308
-0.0187873
-0.0276979
-0.0246338
-0.0120392
-0.0116801
-0.0165683
-0.0164525
-0.0160987
-0.0234348
-0.0203359
-0.0116272
-0.0117908
-0.0167661
-0.0184917
-0.032365
-0.0268223
-0.0332601
-0.0223384
-0.0243878
-0.022624
-0.0245073
-0.0385696
-0.0349701
-0.0373805
-0.0251364
-0.0272145
-0.0249015
-0.0259529
-0.0446329
-0.0385578
-0.0453437
-0.0277458
-0.0282804
-0.0266242
-0.0290705
-0.042879
-0.0450073
-0.0498653
-0.0375756
-0.0510255
-0.0383605
-0.0419
-0.0431332
-0.0424173
-0.0519717
-0.0384374
-0.0515866
-0.0381921
-0.0434045
-0.0352532
-0.053521
-0.0563149
-0.0234596
-0.0215231
-0.0340073
-0.0368607
-0.0293984
-0.0571593
-0.0583334
-0.0210936
-0.021003
-0.0377764
-0.0403425
-0.0239647
-0.0582087
-0.0565001
-0.0214099
-0.0235267
-0.0411844
-0.0435452
-0.0317678
-0.0207606
-0.0251896
-0.0220582
-0.0239933
-0.0188337
-0.0191902
-0.0352718
-0.0258964
-0.0253075
-0.0242262
-0.0243626
-0.0189748
-0.0185032
-0.0404996
-0.0249731
-0.025777
-0.0247293
-0.0267049
-0.0186223
-0.0194947
-0.0453998
-0.0263214
-0.0269839
-0.0271673
-0.027842
-0.0197436
-0.0203218
-0.0467762
-0.0269223
-0.0275699
-0.0281773
-0.0304649
-0.0206566
-0.0225499
-0.0520009
-0.028218
-0.0317305
-0.0316192
-0.0358064
-0.0234909
-0.0269024
-0.0590816
-0.0334722
-0.0405439
-0.0373075
-0.0416706
-0.0281516
-0.0320607
-0.0631013
-0.0431239
-0.0507219
-0.0429825
-0.0461705
-0.0330247