/*--------------------------------*- C++ -*----------------------------------*\
  =========                 |
  \\      /  F ield         | OpenFOAM: The Open Source CFD Toolbox
   \\    /   O peration     | Website:  https://openfoam.org
    \\  /    A nd           | Version:  10
     \\/     M anipulation  |
\*---------------------------------------------------------------------------*/
FoamFile
{
    format      ascii;
    class       volScalarField;
    location    "7.1";
    object      turbidity_0;
}
// * * * * * * * * * * * * * * * * * * * * * * * * * * * * * * * * * * * * * //

dimensions      [0 0 0 0 0 0 0];

internalField   nonuniform List<scalar> 
12920
(
-0.00771763
-0.0279902
-0.0471218
-0.0651988
-0.0823687
-0.0908235
-0.0973445
-0.0986554
-0.101647
-0.103317
-0.106048
-0.111717
-0.122476
-0.138983
-0.162595
-0.204918
-0.271542
-0.34559
-0.405141
-0.445706
-0.0162521
-0.0364454
-0.0578146
-0.080657
-0.0996445
-0.116514
-0.132151
-0.146997
-0.161192
-0.175029
-0.188742
-0.20142
-0.211931
-0.223509
-0.24513
-0.287668
-0.345001
-0.393847
-0.417557
-0.421981
-0.0564286
-0.0494616
-0.0557878
-0.0766621
-0.090155
-0.105692
-0.126433
-0.155593
-0.187034
-0.217709
-0.24491
-0.269071
-0.289534
-0.305902
-0.325349
-0.356481
-0.400549
-0.451394
-0.500466
-0.541132
-0.0129928
-0.0401286
-0.0503083
-0.065624
-0.0759557
-0.0878805
-0.103904
-0.128938
-0.161874
-0.20103
-0.239395
-0.27741
-0.315781
-0.355094
-0.395497
-0.442325
-0.498524
-0.559747
-0.620806
-0.678705
-0.00778897
-0.0229325
-0.0368263
-0.0481821
-0.0626215
-0.0736639
-0.0899653
-0.109116
-0.135491
-0.170262
-0.210591
-0.254632
-0.3011
-0.350243
-0.40141
-0.453909
-0.507245
-0.559153
-0.612628
-0.666023
-0.015739
-0.0243183
-0.034541
-0.0469856
-0.0639738
-0.0823929
-0.0988217
-0.112833
-0.132863
-0.158087
-0.188387
-0.231342
-0.284009
-0.33593
-0.381339
-0.420553
-0.4525
-0.480963
-0.511751
-0.543949
-0.0139505
-0.0320601
-0.0488501
-0.069214
-0.0892404
-0.0990955
-0.103606
-0.102081
-0.1024
-0.110128
-0.125305
-0.152029
-0.20273
-0.27526
-0.341194
-0.389822
-0.425088
-0.452773
-0.476732
-0.500641
-0.0189854
-0.0511642
-0.0705077
-0.0953166
-0.121359
-0.129695
-0.12123
-0.11005
-0.103025
-0.102567
-0.111355
-0.135729
-0.178599
-0.228363
-0.267323
-0.300279
-0.323019
-0.338359
-0.3531
-0.375522
-0.0169791
-0.0356608
-0.0595333
-0.0957532
-0.136608
-0.135021
-0.127761
-0.11547
-0.104221
-0.0982502
-0.101969
-0.118641
-0.143149
-0.166973
-0.18853
-0.177781
-0.190295
-0.202147
-0.224031
-0.259638
-0.0143694
-0.0250727
-0.060318
-0.109675
-0.145302
-0.1407
-0.132948
-0.122888
-0.106436
-0.0950463
-0.089628
-0.0915062
-0.100713
-0.112502
-0.125964
-0.127977
-0.142864
-0.160168
-0.186066
-0.22105
-0.0220666
-0.0530975
-0.0788428
-0.0986799
-0.11076
-0.107637
-0.110748
-0.125263
-0.132209
-0.124155
-0.109786
-0.0995364
-0.0955599
-0.0958909
-0.107778
-0.12817
-0.144953
-0.163447
-0.186284
-0.214892
-0.030083
-0.0537122
-0.0667524
-0.0739241
-0.0857381
-0.0842398
-0.0854981
-0.0965583
-0.119741
-0.130758
-0.137231
-0.141927
-0.145315
-0.146249
-0.145357
-0.158486
-0.172441
-0.187466
-0.204092
-0.225386
-0.0255509
-0.0533939
-0.0605948
-0.0762177
-0.0962681
-0.11794
-0.11641
-0.117714
-0.125289
-0.134994
-0.148858
-0.166625
-0.185612
-0.192211
-0.200571
-0.212536
-0.223221
-0.234371
-0.245609
-0.262459
-0.0101264
-0.0216089
-0.0357606
-0.0618093
-0.0932579
-0.12557
-0.158421
-0.198953
-0.235597
-0.279625
-0.320193
-0.361936
-0.389275
-0.405441
-0.405158
-0.397518
-0.385887
-0.379324
-0.373535
-0.375595
-0.0130548
-0.0240412
-0.0414428
-0.0644563
-0.100119
-0.146234
-0.200778
-0.250787
-0.292205
-0.334929
-0.373762
-0.413224
-0.448857
-0.481707
-0.506326
-0.523159
-0.528815
-0.530753
-0.527854
-0.528122
-0.0232416
-0.0346516
-0.0467061
-0.061727
-0.086424
-0.142067
-0.216778
-0.282648
-0.333018
-0.375067
-0.410894
-0.444535
-0.4771
-0.5094
-0.542334
-0.573185
-0.599334
-0.621481
-0.639007
-0.654096
-0.0205832
-0.0351389
-0.0468127
-0.0639921
-0.0888669
-0.12567
-0.168505
-0.21946
-0.285581
-0.355165
-0.416229
-0.465241
-0.508878
-0.546664
-0.581392
-0.612882
-0.641638
-0.668358
-0.692661
-0.714549
-0.0131458
-0.0318785
-0.0505268
-0.0758077
-0.107642
-0.143659
-0.181418
-0.22081
-0.265466
-0.308101
-0.360342
-0.411268
-0.461488
-0.503285
-0.539289
-0.56811
-0.593818
-0.61408
-0.632562
-0.653181
-0.00574713
-0.0283721
-0.0577426
-0.0841368
-0.110312
-0.143037
-0.180916
-0.219429
-0.252559
-0.281719
-0.317152
-0.356966
-0.399498
-0.435205
-0.462322
-0.480114
-0.492426
-0.501498
-0.50774
-0.5197
-0.078258
-0.0711454
-0.0859856
-0.108106
-0.132183
-0.159099
-0.187524
-0.214827
-0.238486
-0.259732
-0.279216
-0.298523
-0.317675
-0.338514
-0.361402
-0.386978
-0.413833
-0.440431
-0.464991
-0.488069
-0.000290138
-0.00103027
-0.00509085
-0.0105421
-0.0170816
-0.0151151
-0.0160983
-0.0172108
-0.0199594
-0.0243076
-0.0317258
-0.0429109
-0.0579467
-0.0786769
-0.109234
-0.147734
-0.182672
-0.203079
-0.210675
-0.210996
-0.000933546
-0.0107187
-0.00912465
-0.0190467
-0.0361497
-0.0419728
-0.0480974
-0.0460279
-0.0472725
-0.0457539
-0.0510794
-0.0628551
-0.083324
-0.107762
-0.130414
-0.138198
-0.124236
-0.0945851
-0.0675766
-0.0511664
-0.016193
-0.0146976
-0.0143734
-0.0243463
-0.0390511
-0.0519062
-0.0654753
-0.0719634
-0.0760797
-0.073351
-0.0728334
-0.0711574
-0.0749978
-0.0823368
-0.0941012
-0.100825
-0.0990668
-0.087434
-0.0738748
-0.0678293
-0.0053204
-0.00645022
-0.00957519
-0.0148649
-0.0239278
-0.0336479
-0.049757
-0.0621678
-0.0692991
-0.0636558
-0.0572871
-0.0518323
-0.0548081
-0.0633752
-0.0755472
-0.0839815
-0.0828902
-0.0761125
-0.0740774
-0.0783247
-0.003652
-0.00535781
-0.00828029
-0.00964701
-0.0122762
-0.0152891
-0.0228425
-0.0348862
-0.0505032
-0.0568233
-0.0565439
-0.0493485
-0.0451516
-0.0459881
-0.0540999
-0.0631054
-0.070675
-0.079594
-0.091949
-0.105342
-0.00696071
-0.00812179
-0.0150947
-0.0183951
-0.0237647
-0.0178937
-0.0165162
-0.0202349
-0.0301144
-0.044172
-0.0614032
-0.0657575
-0.055767
-0.0466528
-0.0447174
-0.0490029
-0.058551
-0.0732823
-0.0955999
-0.124386
-0.00630949
-0.00731633
-0.0186311
-0.0222503
-0.0214768
-0.0143259
-0.0124417
-0.0138299
-0.0185216
-0.0285638
-0.0454154
-0.0686333
-0.0823947
-0.0747842
-0.0647358
-0.062672
-0.0698327
-0.0836519
-0.104471
-0.130782
-0.00815633
-0.020157
-0.0199423
-0.0153724
-0.0212092
-0.0145277
-0.0138081
-0.0143595
-0.0164575
-0.0218869
-0.033494
-0.0532561
-0.0671016
-0.0630864
-0.0465542
-0.0490295
-0.0551322
-0.0654382
-0.08005
-0.0986223
-0.0109194
-0.00843615
-0.0196438
-0.0212887
-0.0411238
-0.0283365
-0.0202949
-0.0150147
-0.014681
-0.0175379
-0.0233138
-0.0356441
-0.0530738
-0.0613876
-0.0459143
-0.0309594
-0.0342515
-0.0420686
-0.0552126
-0.071558
-0.00189936
-0.00231088
-0.00700932
-0.0171966
-0.0308715
-0.0289805
-0.0341438
-0.0296943
-0.0205632
-0.0159105
-0.0173026
-0.0269922
-0.0479016
-0.0624978
-0.0431752
-0.0289061
-0.0308826
-0.0363468
-0.0454627
-0.0568044
-0.00427014
-0.00904937
-0.0131937
-0.0220916
-0.0355212
-0.0420571
-0.0596947
-0.0638963
-0.0735163
-0.088187
-0.0899708
-0.0877276
-0.0862109
-0.0816454
-0.0580413
-0.052287
-0.0523847
-0.0531318
-0.0539239
-0.0558942
-0.00565639
-0.0172897
-0.01275
-0.012878
-0.0201719
-0.0253482
-0.0378338
-0.0605395
-0.07399
-0.0961082
-0.108901
-0.11454
-0.12346
-0.130179
-0.111544
-0.0852925
-0.0799307
-0.0707763
-0.0617174
-0.0562832
-0.0254142
-0.0241764
-0.0142532
-0.0116806
-0.0184017
-0.0216239
-0.0283711
-0.0397326
-0.0453921
-0.0527082
-0.0548257
-0.0557557
-0.0570903
-0.0636834
-0.0643083
-0.0666523
-0.0644479
-0.0600203
-0.0562199
-0.0549935
-0.00462942
-0.00912047
-0.0119635
-0.0100346
-0.0126763
-0.0189183
-0.0270591
-0.0384611
-0.0519718
-0.0619014
-0.0639949
-0.0619397
-0.0619041
-0.0646087
-0.0692394
-0.0719875
-0.0726782
-0.0725828
-0.0727492
-0.0763502
-0.000249272
-0.00234427
-0.0098615
-0.00969382
-0.0164929
-0.0244461
-0.0350488
-0.0433458
-0.0517706
-0.0518219
-0.0517661
-0.0500923
-0.054086
-0.0609719
-0.0697668
-0.0783373
-0.0861449
-0.0908095
-0.0960285
-0.103103
-0.00116498
-0.00868528
-0.0183011
-0.0268862
-0.0451313
-0.0495777
-0.0525104
-0.0507002
-0.0533499
-0.0472874
-0.0432555
-0.0390936
-0.0408376
-0.0444365
-0.0511916
-0.0584529
-0.0675749
-0.0751895
-0.0843505
-0.0923697
-0.00734784
-0.0123132
-0.0204109
-0.0234404
-0.0330091
-0.0359922
-0.0549003
-0.0634692
-0.0655695
-0.0516653
-0.0435415
-0.0412838
-0.0419854
-0.0432277
-0.044986
-0.0470245
-0.0496329
-0.0523448
-0.0556398
-0.0598076
-0.0122961
-0.0119229
-0.0174279
-0.0247325
-0.0405742
-0.0424113
-0.0489896
-0.0406933
-0.0383778
-0.0378784
-0.039249
-0.0401048
-0.0404027
-0.0398948
-0.0392158
-0.0384286
-0.0378583
-0.0373792
-0.03721
-0.0377039
-0.0067118
-0.0141919
-0.0210587
-0.0343393
-0.0534114
-0.0581428
-0.0620963
-0.0538168
-0.0518017
-0.0538449
-0.0561648
-0.0555273
-0.0519782
-0.0464428
-0.0412895
-0.0377098
-0.0359595
-0.0355785
-0.0360591
-0.0367515
-0.0390062
-0.0374041
-0.0290279
-0.0457448
-0.0600569
-0.0749515
-0.0895539
-0.100221
-0.109029
-0.113718
-0.116658
-0.118433
-0.121052
-0.126574
-0.136302
-0.14856
-0.160224
-0.169628
-0.177902
-0.186966
-0.000273961
-0.00110809
-0.00256476
-0.00430183
-0.0074216
-0.00885888
-0.0108226
-0.0127634
-0.0160917
-0.0213118
-0.0293649
-0.0408167
-0.0565564
-0.0762487
-0.0988062
-0.119621
-0.1313
-0.133027
-0.129042
-0.122958
-0.000798002
-0.00627111
-0.00696373
-0.0111144
-0.0194095
-0.0188497
-0.0208126
-0.0188729
-0.0201289
-0.022133
-0.0276795
-0.0359501
-0.0479163
-0.0602653
-0.0670578
-0.0618755
-0.0477223
-0.0343223
-0.0271837
-0.0242414
-0.0177122
-0.0197685
-0.0165876
-0.0163229
-0.0253974
-0.031254
-0.0357008
-0.0323671
-0.0303793
-0.0270368
-0.0272797
-0.0282965
-0.0317036
-0.0358672
-0.0394921
-0.0395172
-0.036756
-0.033011
-0.0310104
-0.0310995
-0.00157412
-0.00440006
-0.00772605
-0.0154209
-0.022094
-0.0274642
-0.0325426
-0.0304837
-0.0277921
-0.0225379
-0.0213344
-0.022138
-0.0251308
-0.0284524
-0.0313523
-0.0326777
-0.0323209
-0.0316246
-0.031827
-0.0324581
-0.00143991
-0.00335569
-0.00628272
-0.00874436
-0.0110923
-0.0146991
-0.0183377
-0.0206177
-0.0227137
-0.0212574
-0.0204348
-0.0199109
-0.0217144
-0.0248041
-0.0284974
-0.0319312
-0.0350129
-0.0378416
-0.0403704
-0.0416491
-0.00309529
-0.00420028
-0.00639062
-0.00740095
-0.00929537
-0.00878623
-0.0100372
-0.012106
-0.0151871
-0.0184183
-0.0223006
-0.0220171
-0.0214405
-0.0236355
-0.0281996
-0.034243
-0.0416687
-0.0505549
-0.0611598
-0.0698749
-0.000763991
-0.00176249
-0.00393368
-0.0059205
-0.00688363
-0.00686789
-0.00785829
-0.0100518
-0.0135691
-0.0187901
-0.0259126
-0.0320734
-0.0319173
-0.0284409
-0.029766
-0.0353389
-0.0435332
-0.0533441
-0.0642296
-0.0736516
-0.0101156
-0.00531743
-0.00474133
-0.0052839
-0.00692358
-0.0065964
-0.00675117
-0.00759412
-0.00957146
-0.0129871
-0.0177625
-0.022598
-0.0234495
-0.0227825
-0.0253531
-0.0314154
-0.0388067
-0.0469201
-0.0550305
-0.0611813
-0.00662126
-0.00272753
-0.00564778
-0.00801142
-0.0128832
-0.00966234
-0.00808412
-0.00733209
-0.00766235
-0.00933093
-0.0121783
-0.015535
-0.0181203
-0.0187291
-0.0187844
-0.0216682
-0.0282605
-0.0359645
-0.0436633
-0.0489466
-0.00201525
-0.00168995
-0.00407586
-0.0101276
-0.0156944
-0.0162156
-0.0176692
-0.0157062
-0.0123823
-0.011879
-0.0136046
-0.0171134
-0.019521
-0.0181493
-0.0150827
-0.0199159
-0.0237911
-0.0287535
-0.0343274
-0.0382397
-0.00571254
-0.00690419
-0.00938279
-0.0136126
-0.0197067
-0.0218038
-0.0281249
-0.0335835
-0.0404461
-0.0446406
-0.0433988
-0.0387798
-0.0339269
-0.0277606
-0.0275046
-0.0390171
-0.0375957
-0.0351681
-0.0338622
-0.0334037
-0.00425655
-0.00871948
-0.00901611
-0.0117741
-0.0165815
-0.0193558
-0.0246284
-0.0337336
-0.0355565
-0.042516
-0.0455718
-0.0476779
-0.0537951
-0.0605618
-0.0601729
-0.0483472
-0.0417449
-0.0349683
-0.0309832
-0.0294409
-0.00916644
-0.0120184
-0.0081624
-0.00983377
-0.0131371
-0.0144428
-0.0165252
-0.0192307
-0.0205105
-0.0224105
-0.0234963
-0.0259822
-0.0301522
-0.0354907
-0.0327194
-0.0321396
-0.0304093
-0.0290135
-0.0287157
-0.0295182
-0.00162177
-0.00423098
-0.00580215
-0.00651773
-0.00911534
-0.0119343
-0.0150102
-0.0179456
-0.0210527
-0.0229961
-0.0240465
-0.02506
-0.026916
-0.0289956
-0.031122
-0.0324879
-0.0335198
-0.034697
-0.036105
-0.0382873
-0.000910289
-0.00255345
-0.00466558
-0.00579653
-0.00955568
-0.0131326
-0.0158445
-0.0170466
-0.0185929
-0.0187273
-0.0198359
-0.0211522
-0.02368
-0.0264814
-0.0296575
-0.032618
-0.0355707
-0.0379007
-0.0401473
-0.042331
-0.000581264
-0.00256747
-0.00713449
-0.0126822
-0.0222716
-0.0202415
-0.0201656
-0.0184607
-0.0181322
-0.0172128
-0.0175219
-0.0182158
-0.0198057
-0.021507
-0.0237214
-0.0257934
-0.0281438
-0.0300101
-0.0318214
-0.0330655
-0.00207692
-0.0050683
-0.00985111
-0.0113194
-0.017262
-0.0201414
-0.0264705
-0.024571
-0.0221696
-0.0186152
-0.0177159
-0.0177655
-0.0182495
-0.0187063
-0.0192335
-0.0197156
-0.0202766
-0.0207832
-0.0213587
-0.0219292
-0.00341046
-0.00743035
-0.0121957
-0.0152358
-0.0226074
-0.0218453
-0.0229428
-0.0214486
-0.0209804
-0.0201398
-0.0192979
-0.018371
-0.0177654
-0.0173955
-0.0172721
-0.0172397
-0.017292
-0.0173308
-0.0174312
-0.0173844
-0.00463424
-0.0108757
-0.0162396
-0.0226442
-0.0319226
-0.0323966
-0.0337731
-0.0334164
-0.0343782
-0.033734
-0.0321398
-0.0289445
-0.0259755
-0.0239332
-0.0236084
-0.024611
-0.0266737
-0.0291413
-0.0318448
-0.0337285
-0.0249191
-0.0203814
-0.0141062
-0.0218638
-0.0327213
-0.0425028
-0.0508672
-0.0561547
-0.0604125
-0.0623986
-0.0628674
-0.0619499
-0.0608504
-0.0607073
-0.0624944
-0.0658294
-0.0696107
-0.0732331
-0.0771659
-0.0830887
-0.000372097
-0.00122678
-0.00210656
-0.00428186
-0.00618214
-0.00730042
-0.00902313
-0.0111963
-0.0146853
-0.0195485
-0.0262439
-0.0348614
-0.0461797
-0.059898
-0.0732374
-0.0808556
-0.0804747
-0.0748739
-0.066358
-0.0577289
-0.00163456
-0.00372516
-0.00444746
-0.00691132
-0.0101612
-0.009202
-0.0105178
-0.0108569
-0.0128601
-0.0151473
-0.0184325
-0.0219192
-0.0261619
-0.0295747
-0.0307181
-0.0279755
-0.0237816
-0.0210631
-0.0197485
-0.0191248
-0.00194837
-0.00567271
-0.00608999
-0.0107911
-0.0164932
-0.0161091
-0.016666
-0.0145475
-0.0148314
-0.0151744
-0.0164926
-0.0175274
-0.0186055
-0.0195054
-0.0200332
-0.0196279
-0.0188043
-0.0180292
-0.0177475
-0.0177768
-0.00178527
-0.00450449
-0.00871351
-0.01309
-0.0163484
-0.0154247
-0.0160364
-0.0137077
-0.0134398
-0.013483
-0.0145834
-0.015635
-0.016694
-0.017404
-0.0177688
-0.0176498
-0.0171421
-0.0165453
-0.0161558
-0.0159648
-0.00194444
-0.0043106
-0.00607722
-0.00784502
-0.00890765
-0.0100558
-0.0105299
-0.0107093
-0.0115795
-0.012086
-0.0132812
-0.0145852
-0.0160437
-0.0172247
-0.018092
-0.0185148
-0.0186195
-0.0184912
-0.0182601
-0.0179238
-0.000939494
-0.00269039
-0.00365676
-0.00463888
-0.00561664
-0.00624736
-0.00706388
-0.00808353
-0.00948628
-0.0109656
-0.012899
-0.0145024
-0.0165667
-0.0188955
-0.021273
-0.0235148
-0.0257561
-0.0278093
-0.0295358
-0.0295188
-0.000327074
-0.00121776
-0.00249674
-0.00337623
-0.00402021
-0.00475526
-0.00586831
-0.00749333
-0.00941684
-0.0115863
-0.0143172
-0.0165359
-0.0179067
-0.0198506
-0.0228828
-0.0261292
-0.0292362
-0.0319307
-0.0341618
-0.0345658
-0.00580695
-0.00206965
-0.00275031
-0.00399759
-0.00484082
-0.00496581
-0.00524884
-0.00648135
-0.00784002
-0.0096213
-0.0114626
-0.0134755
-0.015257
-0.0177703
-0.0213829
-0.0243468
-0.0268208
-0.028566
-0.0296387
-0.0292548
-0.0060986
-0.0028784
-0.00465302
-0.00679728
-0.00805079
-0.00684763
-0.00620757
-0.00632414
-0.00708127
-0.00831985
-0.00972636
-0.0111337
-0.0124791
-0.0140214
-0.0164252
-0.0195315
-0.0223834
-0.0242289
-0.025022
-0.0240372
-0.00497733
-0.00467841
-0.00677665
-0.0100616
-0.0118341
-0.0119484
-0.0119329
-0.0108448
-0.0101614
-0.0102171
-0.0104183
-0.0105561
-0.0103736
-0.01059
-0.012508
-0.0163528
-0.0183823
-0.0198669
-0.0204308
-0.0194918
-0.00330717
-0.00670056
-0.00916632
-0.0116322
-0.0142964
-0.0156948
-0.0185455
-0.0212861
-0.0238723
-0.0242818
-0.0228237
-0.0208823
-0.0198951
-0.0213829
-0.0237862
-0.0201536
-0.0190327
-0.0183288
-0.0178381
-0.0169857
-0.00179906
-0.00665231
-0.00940682
-0.0121608
-0.0151846
-0.0164613
-0.0186312
-0.0207926
-0.0213374
-0.023411
-0.0246808
-0.0286628
-0.0342292
-0.0390054
-0.0334576
-0.0196658
-0.0177268
-0.0165168
-0.0160687
-0.0157551
-0.00482374
-0.00677977
-0.00749196
-0.00959132
-0.0113052
-0.0117446
-0.0127181
-0.0137356
-0.0144754
-0.0152751
-0.0161071
-0.0177051
-0.0192104
-0.0198053
-0.016249
-0.0161815
-0.0161622
-0.0163123
-0.0165184
-0.0167044
-0.001626
-0.00346318
-0.00490215
-0.0069401
-0.00922033
-0.0106232
-0.0117505
-0.0122347
-0.0130115
-0.0135809
-0.0142411
-0.0148062
-0.0154935
-0.016222
-0.0170264
-0.0176812
-0.0182639
-0.0187442
-0.0189841
-0.0191644
-0.00125501
-0.00171524
-0.00308962
-0.00607774
-0.00915854
-0.0105279
-0.0111534
-0.0111715
-0.0117066
-0.0120219
-0.0127693
-0.013406
-0.0142861
-0.0150826
-0.0159551
-0.016613
-0.0172455
-0.0174565
-0.0175071
-0.017477
-0.000468578
-0.00166595
-0.0044726
-0.00863078
-0.0126055
-0.0119397
-0.0117128
-0.0111424
-0.0112721
-0.0113982
-0.011831
-0.0121544
-0.0126223
-0.0129347
-0.0133447
-0.0135581
-0.0138286
-0.0138691
-0.013952
-0.014059
-0.00245186
-0.00353965
-0.00663485
-0.00970419
-0.0130392
-0.013539
-0.0142813
-0.0127516
-0.0121602
-0.0116997
-0.0117522
-0.0118093
-0.0118693
-0.0118633
-0.0118548
-0.0118392
-0.0118586
-0.0119102
-0.0120562
-0.0123582
-0.00266697
-0.00631193
-0.0101571
-0.0135237
-0.0159019
-0.0156397
-0.0156074
-0.0148767
-0.0142307
-0.0136473
-0.0134171
-0.0134407
-0.0137043
-0.0140051
-0.0143241
-0.0145583
-0.0147343
-0.0147618
-0.0147549
-0.0145021
-0.00572603
-0.00937118
-0.0150862
-0.019479
-0.0228977
-0.0228331
-0.0235312
-0.0231014
-0.02258
-0.0206957
-0.0187956
-0.017305
-0.0170447
-0.0177768
-0.0192386
-0.0210243
-0.0229756
-0.0248398
-0.0265558
-0.0276409
-0.010032
-0.0120318
-0.0132485
-0.0177236
-0.0235787
-0.0274223
-0.0312398
-0.0336569
-0.0355028
-0.0352005
-0.0334442
-0.0305431
-0.0280704
-0.0265371
-0.0264104
-0.0273578
-0.0291326
-0.0317431
-0.0356563
-0.0412077
-0.00092039
-0.0021304
-0.00334198
-0.00552581
-0.00704697
-0.00842445
-0.00985689
-0.0114201
-0.0134906
-0.0158002
-0.0186042
-0.0219414
-0.0262111
-0.0308882
-0.0341922
-0.0334279
-0.0288599
-0.0231879
-0.0177183
-0.0148057
-0.00245254
-0.00284624
-0.0040223
-0.00587373
-0.00757562
-0.00847723
-0.00935877
-0.00986708
-0.010462
-0.010859
-0.0113814
-0.0118545
-0.0126091
-0.0132903
-0.0137874
-0.0135424
-0.0131768
-0.0131495
-0.0133557
-0.0138218
-0.00364048
-0.00403395
-0.0057115
-0.00789018
-0.00968632
-0.00988997
-0.0105544
-0.0107326
-0.0111965
-0.0113354
-0.0115165
-0.0115546
-0.011598
-0.0116711
-0.0118134
-0.0119469
-0.0121791
-0.0125613
-0.0131594
-0.0138435
-0.00662836
-0.00592253
-0.00729239
-0.00882716
-0.00956113
-0.00954991
-0.0100027
-0.0102451
-0.0107183
-0.0109445
-0.0111267
-0.0111456
-0.0111894
-0.0112645
-0.0114288
-0.0116872
-0.0120764
-0.0126126
-0.0132605
-0.013897
-0.00152396
-0.00366205
-0.0048109
-0.0063359
-0.00702882
-0.00789711
-0.0085677
-0.00936205
-0.0100463
-0.0105385
-0.0109232
-0.011082
-0.0112349
-0.0113308
-0.0115201
-0.0117895
-0.0121794
-0.0126634
-0.0132342
-0.0138157
-0.000289268
-0.0010946
-0.00233307
-0.00452335
-0.00559341
-0.00676185
-0.00763627
-0.00867052
-0.00956504
-0.0103508
-0.011069
-0.0115643
-0.0120002
-0.0123458
-0.0126858
-0.0130267
-0.0134266
-0.0138171
-0.0142428
-0.014606
-0.000575187
-0.00141073
-0.00249009
-0.00370692
-0.00470337
-0.00589912
-0.00703875
-0.00821128
-0.00924602
-0.0102348
-0.0111975
-0.0120171
-0.012643
-0.013126
-0.0136231
-0.0139608
-0.0142834
-0.0145849
-0.014947
-0.0151083
-0.00433625
-0.00210479
-0.00322218
-0.00444661
-0.00526782
-0.00594891
-0.00643914
-0.00773696
-0.00866216
-0.00969886
-0.010543
-0.0114382
-0.0121012
-0.0127884
-0.0128134
-0.0130544
-0.0131421
-0.0132301
-0.0134593
-0.0136491
-0.00528673
-0.00360765
-0.00489089
-0.00625908
-0.00693343
-0.00660134
-0.00662726
-0.00721717
-0.00801985
-0.00890587
-0.00976954
-0.0105621
-0.0112412
-0.0118508
-0.0123073
-0.0121305
-0.0121262
-0.0120649
-0.0121706
-0.0122735
-0.0080873
-0.00608027
-0.00719345
-0.00853325
-0.00915062
-0.00931181
-0.00911299
-0.00897597
-0.00896529
-0.00895745
-0.00920816
-0.00979471
-0.0104942
-0.0111375
-0.0109223
-0.0108395
-0.0108627
-0.0109487
-0.0112076
-0.0114828
-0.00616401
-0.00616855
-0.00787067
-0.00966902
-0.0105725
-0.011721
-0.0127544
-0.0138176
-0.0148201
-0.0153715
-0.015446
-0.0151625
-0.0139706
-0.0126856
-0.0108743
-0.0104484
-0.0104369
-0.0105658
-0.0109576
-0.0114464
-0.00291657
-0.00500293
-0.00801192
-0.0100608
-0.0112905
-0.0118742
-0.0123197
-0.0124448
-0.0131135
-0.0143155
-0.0159239
-0.0169443
-0.0157031
-0.0135652
-0.0102628
-0.00994848
-0.0101467
-0.0105927
-0.0112972
-0.0120674
-0.0048575
-0.0057458
-0.00797032
-0.00950776
-0.01011
-0.00992052
-0.0102083
-0.0102773
-0.0102006
-0.0102597
-0.0101626
-0.0100025
-0.00969759
-0.00930516
-0.00959482
-0.0100335
-0.0105634
-0.0113096
-0.0121892
-0.0131436
-0.00200684
-0.00357529
-0.00627871
-0.00852166
-0.00927834
-0.00912798
-0.00910355
-0.00888385
-0.00884594
-0.00878882
-0.00874946
-0.0087918
-0.00898846
-0.00935685
-0.00987078
-0.0104555
-0.0111757
-0.0120118
-0.0129525
-0.0139612
-0.00130217
-0.00255198
-0.00542907
-0.00798931
-0.00870432
-0.00854545
-0.00851962
-0.00837632
-0.00840202
-0.00833335
-0.00839153
-0.00847548
-0.00874577
-0.00913429
-0.00969184
-0.0103508
-0.0111836
-0.0121116
-0.0131881
-0.0142737
-0.00120438
-0.00307458
-0.00706785
-0.00881247
-0.00913216
-0.00868717
-0.00848477
-0.00835894
-0.00831353
-0.00826216
-0.008293
-0.0083836
-0.00864035
-0.00900836
-0.0095624
-0.0102448
-0.011108
-0.0121109
-0.0132591
-0.014372
-0.00202117
-0.00527948
-0.0082249
-0.00929534
-0.00962841
-0.00925966
-0.00919583
-0.00896433
-0.00886693
-0.00877448
-0.00873971
-0.008805
-0.00899489
-0.00934029
-0.00984848
-0.0105152
-0.011339
-0.0123101
-0.0134078
-0.0144626
-0.00177649
-0.00719152
-0.00987313
-0.0107654
-0.0104664
-0.0101279
-0.0100726
-0.0101466
-0.0103752
-0.0105402
-0.0106548
-0.01067
-0.0107024
-0.0107328
-0.0108551
-0.0110748
-0.0114666
-0.0120212
-0.0127844
-0.0136148
-0.00498479
-0.00980752
-0.0132431
-0.0143527
-0.0143721
-0.0134443
-0.012847
-0.0120436
-0.0119853
-0.0125597
-0.0136482
-0.0148447
-0.0158769
-0.0166117
-0.0169859
-0.0169596
-0.0166092
-0.0159913
-0.0154052
-0.0147917
-0.00583154
-0.0114356
-0.0136484
-0.0149799
-0.0173311
-0.0180113
-0.0187573
-0.0174593
-0.015869
-0.0136018
-0.0125455
-0.0122617
-0.0131111
-0.0147295
-0.0170371
-0.0196858
-0.0223303
-0.0245276
-0.0259181
-0.0261611
-0.012973
-0.0359772
-0.0345723
-0.0118734
-0.0120966
-0.024024
-0.0222731
-0.0161809
-0.0339786
-0.031671
-0.0121766
-0.0123925
-0.0215766
-0.0193688
-0.0441399
-0.0475303
-0.0508289
-0.0285662
-0.027141
-0.0296082
-0.0305738
-0.0400312
-0.051241
-0.0527401
-0.0264768
-0.0241156
-0.0309869
-0.0331087
-0.118549
-0.131462
-0.123249
-0.117531
-0.0869318
-0.118793
-0.0910109
-0.106653
-0.119758
-0.107212
-0.0760637
-0.0567301
-0.079389
-0.0523338
-0.099013
-0.103697
-0.0965264
-0.0560939
-0.062941
-0.0493797
-0.0535763
-0.0996064
-0.0947616
-0.0909689
-0.0669557
-0.0805338
-0.0565567
-0.0649619
-0.112742
-0.0904948
-0.0927321
-0.0864968
-0.105421
-0.0678245
-0.080774
-0.13582
-0.0947766
-0.103697
-0.113755
-0.13345
-0.0865646
-0.104813
-0.160406
-0.107245
-0.118314
-0.140695
-0.156536
-0.110233
-0.122705
-0.182221
-0.121958
-0.131594
-0.161936
-0.171354
-0.125345
-0.12377
-0.125724
-0.12327
-0.125278
-0.124
-0.103891
-0.117671
-0.119395
-0.110666
-0.127248
-0.128941
-0.0948175
-0.0676517
-0.121789
-0.125091
-0.0971934
-0.127231
-0.116678
-0.0624964
-0.0592633
-0.124026
-0.115661
-0.0904476
-0.112456
-0.101293
-0.0603383
-0.0647315
-0.112129
-0.102456
-0.0902121
-0.0984706
-0.0927807
-0.0667262
-0.0773941
-0.100003
-0.0958046
-0.0979703
-0.0917899
-0.0911472
-0.0824855
-0.0983835
-0.0954924
-0.0971395
-0.109537
-0.0915466
-0.0939242
-0.103089
-0.114378
-0.0982689
-0.102209
-0.120592
-0.0950404
-0.0990792
-0.116833
-0.115137
-0.103387
-0.104069
-0.121655
-0.0962697
-0.100658
-0.106442
-0.115466
-0.0944576
-0.096052
-0.131898
-0.105739
-0.12208
-0.119639
-0.129423
-0.0995065
-0.116872
-0.127287
-0.125737
-0.132092
-0.130851
-0.12924
-0.122638
-0.134107
-0.11319
-0.133514
-0.136384
-0.127236
-0.119507
-0.136489
-0.141461
-0.101527
-0.136958
-0.138031
-0.116889
-0.110227
-0.142662
-0.145205
-0.0960379
-0.138154
-0.13772
-0.108594
-0.105764
-0.145679
-0.145733
-0.0955472
-0.137545
-0.135614
-0.105413
-0.105295
-0.145288
-0.141645
-0.0976835
-0.133813
-0.123993
-0.105331
-0.103979
-0.139548
-0.131135
-0.0917223
-0.0966518
-0.0990859
-0.0823514
-0.0864807
-0.0938494
-0.0960862
-0.114855
-0.101076
-0.11008
-0.0903012
-0.109323
-0.0985653
-0.109339
-0.128674
-0.11356
-0.12306
-0.1163
-0.130811
-0.113378
-0.123982
-0.13586
-0.126475
-0.135591
-0.133863
-0.14053
-0.12738
-0.135677
-0.140851
-0.139028
-0.14866
-0.142306
-0.146863
-0.138499
-0.145893
-0.144582
-0.152826
-0.163638
-0.148131
-0.150945
-0.148759
-0.155486
-0.146513
-0.167376
-0.173404
-0.151504
-0.151316
-0.157012
-0.154835
-0.140728
-0.174184
-0.171066
-0.150426
-0.144637
-0.151624
-0.140977
-0.0159309
-0.0262872
-0.0242099
-0.016896
-0.0117826
-0.0215398
-0.0182145
-0.0142364
-0.0226412
-0.016383
-0.0108082
-0.0101865
-0.0163661
-0.0120203
-0.0166212
-0.0148362
-0.0129446
-0.010578
-0.0122902
-0.0114365
-0.0117271
-0.0211007
-0.0129743
-0.0145959
-0.0132364
-0.0168085
-0.012229
-0.0145889
-0.031404
-0.0157666
-0.0223764
-0.018615
-0.0232788
-0.0156625
-0.0195995
-0.0486791
-0.0260204
-0.0414748
-0.0250877
-0.0282948
-0.0209999
-0.0245934
-0.060805
-0.0473444
-0.0607223
-0.0290396
-0.029611
-0.0253687
-0.0257166
-0.0570668
-0.0624481
-0.057058
-0.0295186
-0.0287231
-0.02513
-0.0219878
-0.031076
-0.0494782
-0.0550791
-0.0271461
-0.0249085
-0.0339309
-0.0386844
-0.0228564
-0.0542078
-0.05909
-0.0231641
-0.0176561
-0.0403599
-0.0440407
-0.0164375
-0.0621931
-0.0665187
-0.0164568
-0.0152002
-0.0445253
-0.0439699
-0.0164075
-0.066583
-0.0637934
-0.0152794
-0.0165423
-0.0433378
-0.0409946
-0.0234286
-0.0634645
-0.0642922
-0.0172984
-0.0204777
-0.0402069
-0.0378421
-0.0422588
-0.0652331
-0.0694096
-0.0216973
-0.0249476
-0.0371637
-0.0353827
-0.0606268
-0.0709599
-0.0737248
-0.0256487
-0.0258006
-0.0347471
-0.0318828
-0.0582212
-0.0735855
-0.0678392
-0.0251409
-0.0217755
-0.0305592
-0.0260958
-0.0649622
-0.052535
-0.0654928
-0.0371097
-0.0402284
-0.0342745
-0.0389828
-0.0686933
-0.0697999
-0.0771316
-0.041979
-0.0477076
-0.0409919
-0.0446728
-0.085921
-0.0797719
-0.0976986
-0.0494604
-0.0529493
-0.0459537
-0.0532271
-0.0901303
-0.103745
-0.114297
-0.0535039
-0.0533475
-0.0559041
-0.0605747
-0.0883148
-0.116087
-0.120642
-0.0527973
-0.0494913
-0.0612056
-0.0629653
-0.086529
-0.122144
-0.126188
-0.0482228
-0.0443155
-0.0638056
-0.0670738
-0.0834825
-0.12705
-0.12671
-0.0428992
-0.0376077
-0.0681297
-0.0696065
-0.0724466
-0.125364
-0.117231
-0.0355695
-0.0297555
-0.0693334
-0.0661331
-0.0544878
-0.0323728
-0.0457968
-0.0285391
-0.0361515
-0.026129
-0.0309985
-0.0721002
-0.0514093
-0.0598251
-0.0386838
-0.0421232
-0.032255
-0.0328649
-0.0895606
-0.0598838
-0.062858
-0.0425675
-0.0475464
-0.0325022
-0.0323976
-0.107457
-0.0666719
-0.0732442
-0.0499614
-0.0543021
-0.032909
-0.0338905
-0.112801
-0.0720285
-0.0659832
-0.0547281
-0.0559273
-0.0340319
-0.0351294
-0.121198
-0.06529
-0.0668029
-0.0567477
-0.0611104
-0.0359683
-0.0397019
-0.129109
-0.0679214
-0.0733126
-0.0630487
-0.0692151
-0.0413941
-0.0476136
-0.12889
-0.0762736
-0.0868233
-0.0709159
-0.0734728
-0.0500127
-0.0575486
-0.00748682
-0.0123016
-0.0120439
-0.00756013
-0.00687168
-0.0109558
-0.0103754
-0.00742157
-0.0113465
-0.00940034
-0.00680079
-0.00722195
-0.00985317
-0.00911831
-0.00875346
-0.00912554
-0.00940658
-0.00755959
-0.00880017
-0.00921478
-0.0100169
-0.0112887
-0.00974658
-0.0113829
-0.0093344
-0.0107802
-0.01032
-0.011157
-0.0145954
-0.0121332
-0.0149272
-0.0113382
-0.0125058
-0.0114043
-0.0119956
-0.0176395
-0.0159211
-0.0182612
-0.0129667
-0.0138706
-0.0121084
-0.0121279
-0.0186814
-0.0186147
-0.018172
-0.0142396
-0.015178
-0.0120543
-0.0117757
-0.0188706
-0.017651
-0.015908
-0.0157168
-0.0173635
-0.0117227
-0.0118403
-0.0164961
-0.0247351
-0.0298757
-0.0154198
-0.0140263
-0.0205715
-0.0231909
-0.013009
-0.0310824
-0.0346074
-0.0133499
-0.0119266
-0.0238071
-0.0248064
-0.0117741
-0.0354869
-0.0364496
-0.0117613
-0.0118092
-0.0248352
-0.0240456
-0.0156359
-0.0121123
-0.016651
-0.0119755
-0.0165459
-0.0121617
-0.0158198
-0.015974
-0.0143733
-0.0170631
-0.0131588
-0.017555
-0.0136291
-0.0157355
-0.0192543
-0.0308069
-0.028491
-0.0124056
-0.0121771
-0.0186587
-0.0169307
-0.0187805
-0.0276837
-0.0246053
-0.0120378
-0.0116787
-0.016571
-0.0164691
-0.0160845
-0.0234042
-0.0203201
-0.0116267
-0.0117937
-0.0167879
-0.0185251
-0.0323176
-0.0268424
-0.0332723
-0.0223324
-0.0243844
-0.0226349
-0.0245054
-0.0385571
-0.0349645
-0.0373665
-0.025135
-0.0272103
-0.0248975
-0.0259591
-0.0445995
-0.0385666
-0.0453748
-0.0277376
-0.0282613
-0.026634
-0.0290707
-0.042845
-0.044959
-0.0498445
-0.0375558
-0.0509912
-0.0383135
-0.0418764
-0.0431008
-0.0423964
-0.0519313
-0.038414
-0.0515508
-0.0381711
-0.0433704
-0.0352276
-0.0535077
-0.0563129
-0.0234523
-0.0215233
-0.0340169
-0.0368815
-0.0293574
-0.0571611
-0.0583423
-0.0210984
-0.0210278
-0.037801
-0.0403793
-0.0239505
-0.0582208
-0.056532
-0.0214416
-0.02357
-0.041225
-0.0435889
-0.0318162
-0.0208294
-0.0251982
-0.0220919
-0.0239937
-0.0188649
-0.0191839
-0.0352426
-0.0259056
-0.0252694
-0.0242208
-0.0243643
-0.0189738
-0.0185015
-0.0405323
-0.0249502
-0.0257652
-0.0247369
-0.0267071
-0.0186248
-0.0194956
-0.045385
-0.0263233
-0.0269601
-0.0271661
-0.0278373
-0.0197462
-0.0203227
-0.046766
-0.0269083
-0.0275619
-0.0281767
-0.0304756
-0.0206607
-0.0225589
-0.0520139
-0.0282258
-0.0317527
-0.0316333
-0.0358311
-0.0235055
-0.0269171
-0.0591136
-0.0335119
-0.0405919
-0.0373355
-0.0417058
-0.0281715
-0.0320718
-0.0631382
-0.0431765
-0.0507656
-0.0430184
-0.0461992
-0.033036
-0.0348128
-0.00626862