/*--------------------------------*- C++ -*----------------------------------*\
  =========                 |
  \\      /  F ield         | OpenFOAM: The Open Source CFD Toolbox
   \\    /   O peration     | Website:  https://openfoam.org
    \\  /    A nd           | Version:  10
     \\/     M anipulation  |
\*---------------------------------------------------------------------------*/
FoamFile
{
    format      ascii;
    class       volVectorField;
    location    "7.1";
    object      U;
}
// * * * * * * * * * * * * * * * * * * * * * * * * * * * * * * * * * * * * * //

dimensions      [0 1 -1 0 0 0 0];

internalField   nonuniform List<vector> 
12920
(
(155.169 -132.622 -27.9254)
(4.32877 4.37064 -1.65097)
(73.2274 0.305725 -19.6527)
(56.1912 -9.01368 -11.0761)
(98.4604 7.72878 -0.387108)
(61.9362 12.718 -2.69088)
(89.9057 15.2035 -2.29967)
(77.5594 13.0042 -4.50184)
(97.7612 11.8294 -4.35221)
(98.5224 9.97265 -6.14373)
(114.49 8.45446 -7.86284)
(130.88 5.87277 -10.3149)
(159.484 5.37555 -7.38499)
(168.414 5.09136 -2.18165)
(166.416 4.82482 0.885713)
(143.774 4.73315 5.13494)
(110.577 0.806747 6.31918)
(93.9634 -4.11066 3.73889)
(86.4279 -6.88729 2.20858)
(81.2506 -7.97202 1.3924)
(284.4 238.331 39.4734)
(51.113 123.446 31.0149)
(109.769 26.4008 -9.41661)
(35.8912 -7.66162 -2.16013)
(88.0553 -7.63929 2.17872)
(49.6564 -3.42938 2.59995)
(85.9338 -10.429 3.91084)
(71.7749 -8.19736 2.53899)
(92.1631 -9.30975 2.744)
(90.65 -8.80882 1.57931)
(105.305 -10.3279 1.40573)
(111.357 -13.7504 1.1771)
(121.475 -11.8923 2.54231)
(120.408 -9.61929 3.18121)
(112.345 0.301126 4.63114)
(91.8819 8.69199 4.81228)
(78.7245 5.70187 2.86443)
(68.4477 0.866433 1.0798)
(63.1119 -0.828786 -0.123218)
(57.6742 -0.986699 -0.815142)
(297.577 10.4577 -32.9758)
(-177.492 -53.6178 37.984)
(145.744 -17.7923 -15.6993)
(63.3799 -21.4117 5.97177)
(118.964 -19.4637 6.92817)
(88.8268 -16.0082 5.8929)
(104.731 -17.7084 6.31098)
(80.8797 -12.9444 4.6179)
(85.5655 -14.1298 3.85303)
(70.6042 -12.1857 2.26423)
(73.9673 -13.8059 1.93722)
(67.5808 -13.1444 0.851314)
(70.7328 -10.3491 0.699097)
(68.7637 -1.21957 0.0861676)
(69.8622 6.2655 0.209026)
(68.4318 9.14084 0.660447)
(67.2518 7.8112 0.72391)
(60.0395 5.31895 0.539657)
(54.7209 2.61904 0.119462)
(49.0016 0.180548 -0.458373)
(251.219 -134.486 201.214)
(-7.35132 3.08581 5.60469)
(153.885 -5.78441 -18.8268)
(79.2427 -9.73711 -1.62604)
(121.944 -30.5254 1.40702)
(88.7161 -30.8207 -0.47609)
(112.838 -32.2949 2.23751)
(91.9218 -21.7931 2.57904)
(93.6633 -17.5856 4.28565)
(70.8357 -13.1165 2.63224)
(68.0759 -15.3908 1.66568)
(57.806 -15.1531 0.560516)
(57.9523 -13.9526 0.226758)
(52.1826 -8.0096 0.0265407)
(52.8835 0.499905 0.242944)
(49.4667 6.85914 0.463105)
(47.7777 9.66564 0.42101)
(43.5476 9.52781 0.122584)
(40.9428 7.03465 -0.139835)
(37.2663 4.39879 -0.352637)
(209.386 237.483 105.644)
(47.8604 71.8732 0.971876)
(157.875 50.4152 -2.27973)
(100.631 6.55311 -5.51642)
(137.412 -23.2947 -0.0131314)
(106.569 -25.756 -3.47862)
(120.634 -32.0218 -2.44827)
(106.627 -19.6729 -2.97453)
(108.795 -14.0553 1.4975)
(85.0167 -3.73892 1.93187)
(74.8872 -8.49002 2.18363)
(58.8154 -7.28743 1.02457)
(58.5163 -4.66452 0.427066)
(50.8981 3.06992 -0.0913413)
(49.2 7.33724 0.0288985)
(45.7448 10.7259 0.078036)
(45.6134 11.1601 0.0157323)
(44.1069 10.5384 -0.123424)
(43.1502 7.39004 -0.166423)
(39.2342 3.16123 -0.482794)
(139.385 -62.2801 -195.911)
(-4.92856 19.6992 -27.8453)
(188.816 32.3913 -23.1935)
(167.281 29.2708 -13.4241)
(183.418 -0.791385 7.82647)
(119.217 -4.20814 3.86342)
(121.391 -14.0202 2.06435)
(102.904 -4.84043 -1.757)
(107.667 -1.95507 -0.452305)
(99.697 5.92243 -0.290609)
(95.8122 -0.320916 1.94355)
(73.089 -6.97561 3.08798)
(59.7952 -9.20569 1.74377)
(50.4722 -0.260122 0.576866)
(48.9667 5.31123 0.125768)
(47.7693 9.82246 -0.00564863)
(49.2842 11.5784 -0.276206)
(50.5977 12.0742 -0.587991)
(52.9777 10.5821 -0.53195)
(51.0245 7.97041 -0.62811)
(137.863 -42.742 -16.8786)
(103.453 22.8502 -9.81273)
(168.884 19.1248 4.83887)
(98.0723 4.55737 6.82499)
(130.352 -0.0358098 8.04987)
(95.7726 -1.77723 0.660654)
(106.868 -18.576 -0.409265)
(106.53 -2.56237 -2.48756)
(119.866 -8.92721 -4.41624)
(137.046 5.26015 -4.75498)
(149.007 4.5351 -2.13191)
(141.061 8.85583 1.81712)
(104.508 7.32243 5.60621)
(72.7003 9.92678 3.6781)
(60.6369 9.26218 1.39559)
(56.3889 10.3614 0.466467)
(55.962 10.2556 0.231589)
(56.2099 9.52049 0.19948)
(58.3138 7.35952 0.116621)
(58.1899 5.21594 0.0218283)
(63.6522 153.695 -88.7058)
(-35.4258 28.1631 5.29806)
(100.139 50.3659 16.133)
(-7.52626 -4.50368 4.42753)
(82.4123 -4.99028 5.11866)
(23.9948 11.5034 -0.0160414)
(53.0685 -3.4639 0.247672)
(44.106 -9.54128 -0.69825)
(65.7909 -3.71212 -1.07849)
(68.614 -3.19843 -0.893624)
(80.9083 6.71823 -0.407891)
(80.3338 16.8562 0.821663)
(67.1402 26.2136 0.823398)
(55.6371 23.0246 -0.0161672)
(49.5189 12.7156 0.229768)
(49.1963 11.2516 0.171058)
(50.1428 10.4754 0.112762)
(51.7086 8.09038 0.182158)
(54.0005 5.60591 0.053599)
(53.0168 4.80634 -0.185587)
(93.4095 65.5805 86.5415)
(-10.5443 -53.1445 -14.2277)
(133.324 -64.8422 7.35384)
(-15.0611 -31.4798 -0.712138)
(53.7477 -34.0585 8.62853)
(-20.6755 -3.82767 -0.603462)
(30.7619 -0.446792 0.355581)
(36.0563 -15.513 -0.129595)
(46.6175 -1.80802 -0.409692)
(48.9193 6.73946 -0.404006)
(50.1865 10.4252 -0.126105)
(51.045 16.6976 -0.119771)
(52.3556 21.7979 -0.0540518)
(51.5324 19.9834 0.0300963)
(47.6549 16.603 0.125574)
(44.9565 9.44456 -0.309997)
(47.5377 7.62474 -0.497048)
(50.3999 4.23188 -0.482002)
(52.8606 3.27452 -0.33579)
(51.2768 4.03956 -0.362863)
(142.904 -70.448 -52.5065)
(77.5398 66.9287 -27.0829)
(154.608 65.2328 -9.92891)
(31.6145 40.5115 -5.15687)
(74.9674 13.6826 2.40295)
(4.17137 -9.41708 -1.28253)
(8.2497 -14.722 -0.0224965)
(18.3925 -16.3974 -0.415704)
(30.0201 -2.2727 -0.630842)
(43.6351 6.19416 -0.386318)
(48.6272 9.18121 -0.19392)
(51.3016 15.1227 -0.188486)
(52.5417 18.3128 -0.0366088)
(52.3281 17.8454 0.106343)
(51.452 15.6756 -0.0864949)
(53.7267 12.3405 -0.748619)
(55.052 8.42401 -1.01542)
(55.9386 4.42459 -1.0644)
(56.4955 3.42209 -0.530433)
(52.6438 4.76736 -0.694837)
(185.155 28.4232 -67.215)
(-70.661 70.9516 -13.761)
(97.4175 85.5757 -13.7314)
(-14.645 29.6969 1.25147)
(72.6426 -2.2643 4.14181)
(14.2948 2.74629 0.190868)
(21.6684 -12.0171 1.75169)
(27.8288 -13.5966 -0.762275)
(30.6108 -7.72633 -0.196498)
(36.3698 -1.70689 0.0702571)
(40.9882 3.68888 0.236372)
(47.5935 8.18704 0.21246)
(55.4605 12.6447 0.321376)
(61.2688 14.5731 0.174685)
(63.561 16.5049 -0.0239862)
(66.0124 13.6076 -0.132995)
(66.8224 11.5662 -0.366538)
(64.4525 7.60338 -0.460014)
(61.8008 6.50294 -0.276436)
(55.1663 7.88751 -0.646218)
(435.874 -32.636 -267.921)
(-103.187 116.603 1.83853)
(131.372 33.9089 -5.16497)
(50.4139 14.2199 -1.02507)
(121.978 -6.26127 2.23956)
(92.7123 -27.1539 0.368343)
(89.0313 -25.4683 1.16104)
(72.0066 -13.2561 -0.181505)
(54.4558 -8.47266 -0.652589)
(46.9818 -11.5943 0.455955)
(44.2978 -3.32522 0.329705)
(44.1485 -2.79917 0.378694)
(48.4834 -1.73965 0.511634)
(52.0846 -0.553998 0.423022)
(55.4538 4.2238 0.192539)
(58.9205 12.1596 -0.414293)
(61 12.2425 0.0982184)
(59.685 10.8647 0.0786997)
(56.9611 11.1383 -0.263397)
(51.9148 11.2036 -0.694885)
(184.819 152.599 -33.3802)
(-17.4676 165.334 11.7231)
(102.976 0.543463 -3.00557)
(9.89356 -5.77358 -2.04617)
(76.5009 -22.7743 0.362751)
(35.1158 -38.0387 -1.70749)
(61.2621 -13.7564 -1.0358)
(62.5851 -3.34799 -0.681608)
(79.1166 -2.19151 -0.325568)
(72.2366 -4.62664 0.0416393)
(63.5088 -2.61269 0.40111)
(48.4816 -3.37345 0.431797)
(42.1238 -2.91283 0.171665)
(34.4006 -1.11207 -0.00383031)
(31.2018 6.1667 -0.898259)
(37.5168 7.33147 -0.417233)
(41.2573 10.9762 -0.205078)
(43.878 10.9582 -0.144117)
(44.4526 12.9265 -0.468773)
(44.53 12.8675 -0.658468)
(286.747 66.3768 -49.331)
(209.358 22.2043 7.10142)
(211.213 -10.4773 20.0652)
(83.2387 -3.47655 1.47566)
(99.493 -18.7312 -1.50615)
(56.4389 -19.5945 -1.89807)
(67.9083 6.1474 -1.2591)
(46.0737 -7.90839 -0.419407)
(48.9551 11.4776 0.381089)
(33.4596 1.90056 0.879438)
(33.7828 9.23576 0.808508)
(25.9141 2.53591 0.437935)
(26.7535 5.27313 0.154915)
(24.6406 1.93377 0.0257799)
(26.4667 4.85018 -0.0255883)
(27.8293 4.99848 -0.156125)
(31.1395 7.68552 -0.134165)
(34.5489 7.97405 -0.148831)
(36.2667 10.5399 -0.203215)
(38.9736 10.9158 -0.24075)
(274.517 -33.0772 -70.5934)
(138.744 59.0467 -25.3538)
(177.333 83.1937 -5.36861)
(63.5887 49.2677 -3.06548)
(70.5347 17.6179 0.938184)
(11.6363 -9.6437 -1.38736)
(39.1977 -0.193331 -0.24769)
(16.0075 -2.89659 -0.340954)
(31.1494 6.80318 0.378884)
(22.4414 2.83953 0.310545)
(28.9769 6.15442 0.39465)
(25.0624 2.50813 0.114633)
(27.4761 3.7622 0.0885968)
(25.4041 2.5212 0.0100119)
(25.7389 3.9002 0.00079322)
(25.9287 3.92433 0.0412266)
(26.7239 5.4682 0.0724478)
(28.8729 5.73759 -0.00495719)
(29.477 7.21932 0.0687644)
(31.686 7.84426 0.0300859)
(166.948 -47.4223 -118.245)
(58.7843 84.1637 -6.90728)
(151.627 101.515 10.9482)
(116.308 77.0326 4.31746)
(131.457 44.4969 9.13266)
(59.1241 14.5304 5.54742)
(52.8444 9.55484 2.79588)
(17.3128 -0.497545 0.225855)
(29.6278 6.12738 0.536882)
(15.6409 1.44689 0.229524)
(25.7246 6.11237 0.162484)
(19.8473 2.99628 -0.0486297)
(25.1512 5.01898 -0.00471318)
(22.7894 3.28224 -0.0988913)
(25.3278 4.43708 -0.0594289)
(24.9187 3.78902 -0.042635)
(26.2913 4.69608 -0.00231911)
(27.6103 4.53182 -0.0420272)
(27.8993 5.25061 0.0881966)
(28.7856 5.4972 -0.0134666)
(39.405 23.0769 -12.169)
(21.0169 35.4879 1.75482)
(110.797 40.8245 12.6849)
(79.754 22.0656 5.15439)
(105.398 36.4159 5.6087)
(61.5299 29.8502 0.856381)
(70.6011 27.7493 1.85925)
(38.4896 11.9496 0.74652)
(40.5899 6.99786 1.62263)
(20.8896 1.91455 0.466628)
(25.9989 2.15479 0.0706658)
(19.109 1.22271 -0.155545)
(23.3867 1.90287 -0.101576)
(21.1507 1.94447 -0.118394)
(23.4646 2.32824 -0.0461204)
(23.3456 2.65639 -0.047267)
(24.867 3.22133 -0.0847549)
(26.5151 3.41864 -0.08282)
(26.7229 3.63041 -0.0471358)
(27.8386 4.09418 -0.177436)
(109.314 17.7536 34.5213)
(-31.9352 -1.35696 -10.7295)
(105.248 31.887 -17.7467)
(31.2934 31.9456 -8.02253)
(77.2864 46.9315 -0.238725)
(28.9602 30.8014 -0.27348)
(56.9716 29.047 2.01499)
(25.1028 19.2074 0.105628)
(37.8735 18.1203 -0.21227)
(20.3759 11.9479 -1.16876)
(29.374 9.46379 -0.926214)
(22.4481 5.94222 -0.838485)
(27.961 4.77002 -0.496734)
(25.6146 3.4489 -0.378918)
(28.4247 3.21276 -0.238743)
(28.0026 2.74802 -0.226715)
(29.5444 2.7205 -0.191609)
(30.5645 2.5924 -0.285344)
(30.8076 2.34895 -0.295432)
(31.2458 2.53344 -0.446408)
(387.421 17.2595 122.283)
(-23.858 22.3609 13.3838)
(71.904 69.7916 -3.40034)
(0.7576 42.8007 -0.844965)
(63.4456 44.8565 4.81398)
(17.1588 31.5833 2.5076)
(50.1839 26.3614 3.54767)
(23.0919 23.0096 1.18986)
(40.5431 16.3748 0.36062)
(28.9864 12.5839 -0.644756)
(39.0076 6.83844 -0.937524)
(34.0448 4.86259 -0.880688)
(38.1211 2.46956 -0.557817)
(35.3516 2.44342 -0.392023)
(36.7932 2.00747 -0.26318)
(36.0521 2.65759 -0.377541)
(37.0933 2.68557 -0.545511)
(38.0057 3.33921 -0.742002)
(38.3076 2.90162 -0.982193)
(38.4349 3.206 -1.04303)
(483.36 446.619 19.6093)
(-65.5343 153.454 69.773)
(110.318 60.7368 27.3811)
(-10.6595 16.4059 14.7027)
(76.4622 21.0873 8.44883)
(28.1988 17.1398 5.92629)
(64.5495 18.7279 5.23254)
(47.8998 19.8948 4.55679)
(66.8607 19.7181 3.76049)
(63.7236 18.1468 2.79961)
(75.92 15.3165 1.97683)
(76.1096 12.6582 1.3674)
(82.335 9.54304 1.02449)
(81.8491 7.5716 1.08675)
(82.8436 5.64082 1.32877)
(80.5612 5.16294 1.70187)
(78.3594 5.12686 1.89077)
(76.3277 5.72119 1.6332)
(75.4894 5.54707 1.26267)
(72.6298 5.56821 1.08935)
(224.686 55.4471 -85.6329)
(130.726 108.424 -37.1004)
(86.2837 56.4466 4.37835)
(6.90845 -1.85419 0.825017)
(72.5765 3.08049 5.18104)
(37.0136 -0.749794 -3.44267)
(76.8614 -2.61522 -1.04707)
(62.1219 -4.7631 -3.96161)
(83.6525 -5.98618 -2.482)
(80.0289 -6.58914 -3.05971)
(91.78 -7.60585 -3.02783)
(93.2047 -10.8482 -5.52512)
(102.605 -11.3729 -4.49047)
(113.283 -8.61085 0.562546)
(115.842 -5.22183 7.19846)
(105.346 -2.01441 11.6353)
(94.9101 -1.71977 10.9587)
(89.5423 -3.39431 7.07092)
(87.0347 -3.9003 4.55568)
(84.4492 -3.94754 3.03354)
(201.861 228.71 -15.2219)
(50.0828 115.863 46.2095)
(100.528 29.6393 25.3069)
(21.3745 -18.6371 9.7662)
(77.6708 -23.3933 9.18465)
(35.7681 -14.9002 3.21846)
(75.4647 -18.5594 5.70172)
(56.3575 -13.7855 2.21175)
(76.4906 -14.1068 2.94708)
(70.069 -12.0155 0.628557)
(81.3307 -12.5087 0.537029)
(80.2671 -12.8034 -0.727468)
(85.3241 -11.5021 0.690936)
(82.7601 -7.54232 2.63652)
(77.7913 2.28216 6.42213)
(69.6699 7.09827 6.57432)
(65.1229 5.29071 3.78529)
(60.0245 2.30053 1.11482)
(57.2206 0.776952 -0.653272)
(52.8544 0.1238 -1.71432)
(114.679 -50.7547 -63.9697)
(-59.3979 -56.0662 26.2398)
(130.008 -17.9944 -38.9722)
(39.9269 -21.4432 -4.87625)
(100.205 -16.5568 3.81164)
(63.5315 -10.7014 6.80895)
(85.606 -12.2937 9.48205)
(60.3821 -8.57397 5.89319)
(69.1634 -10.945 5.52712)
(54.4381 -8.99185 2.54736)
(59.781 -10.0142 2.29714)
(53.1113 -8.69935 0.287378)
(56.0552 -5.46556 0.143996)
(51.8808 1.45606 -0.747779)
(52.1235 7.1452 0.239767)
(50.8627 9.25846 1.09863)
(50.6685 7.92029 1.17828)
(47.1183 5.63053 0.719692)
(44.5344 2.97418 0.0597711)
(40.6211 0.721365 -0.995323)
(329.038 32.6447 -45.6476)
(158.379 2.75251 -39.1925)
(151.2 10.6396 -34.35)
(40.9252 4.76567 -5.64745)
(96.3573 -17.1972 1.91675)
(45.4849 -10.656 -0.054731)
(79.6889 -12.9882 6.38302)
(52.909 -3.70601 4.39554)
(64.786 -6.47716 6.33561)
(47.7554 -5.19662 2.74435)
(50.7806 -8.16481 2.30065)
(42.3521 -8.00468 0.510925)
(43.4389 -6.88638 0.271933)
(38.5229 -1.71457 -0.0116414)
(39.3308 3.91422 0.523994)
(37.6559 7.81867 0.81698)
(37.6823 8.73846 0.632865)
(35.6192 7.89511 0.110337)
(33.689 5.29117 -0.249657)
(30.7367 2.93737 -0.879333)
(237.719 277.033 -57.0909)
(-27.2143 106.083 2.68161)
(99.7746 60.1538 -9.4871)
(25.8906 15.4048 -12.6807)
(91.1365 -17.4367 -0.229705)
(53.0562 -12.4066 -5.58829)
(78.3608 -18.3782 -1.44224)
(57.1852 -1.09899 -1.90234)
(65.6349 -3.24863 2.45528)
(49.6653 2.66102 1.91597)
(49.9422 -2.88123 2.87958)
(40.7974 -1.96198 1.48398)
(41.7679 -0.559478 1.06689)
(36.7202 5.02997 0.175834)
(36.4926 7.80271 0.236367)
(34.7956 10.1077 0.160214)
(35.4937 10.0313 -0.0301476)
(34.7513 9.11237 -0.270586)
(33.9583 5.91966 -0.262912)
(30.922 2.83328 -0.990242)
(69.8933 4.60565 -32.8703)
(-47.1378 23.2555 -5.98701)
(121.169 1.5018 -8.83968)
(47.1585 -7.70557 -5.08514)
(108.743 -16.2495 11.4877)
(59.4585 -6.23635 0.701863)
(82.9917 -12.1011 2.20137)
(62.1487 2.52205 -2.35621)
(68.5978 2.85456 0.665951)
(57.4323 8.88604 0.538697)
(56.7026 1.82952 3.51516)
(45.3784 -1.76225 3.93959)
(41.3915 -3.57967 2.49259)
(36.2715 2.49372 0.977888)
(36.1252 5.84626 0.345385)
(35.7915 8.73277 0.05366)
(37.4528 9.46756 -0.396358)
(38.0013 9.05719 -0.751485)
(38.8823 7.22351 -0.56237)
(36.048 4.77586 -1.10343)
(67.7912 -51.4835 9.15937)
(28.1617 -21.5604 -8.17293)
(123.538 -17.4352 7.58549)
(49.1669 -15.5185 3.9062)
(104.419 -7.98977 7.74278)
(63.9821 0.555914 -2.58902)
(77.7107 -13.365 -1.51855)
(69.8051 7.91855 -4.03169)
(78.7605 1.97698 -4.90343)
(77.5002 11.1222 -4.49156)
(79.3746 8.08723 -0.882649)
(69.9942 12.3606 5.31527)
(57.8154 8.13488 8.59093)
(47.3574 9.80055 5.04885)
(43.4058 8.18009 2.0833)
(41.832 8.82727 0.763742)
(42.2507 8.47524 0.347824)
(42.8426 7.27135 0.195856)
(43.8758 5.65491 0.138629)
(42.1508 4.40107 -0.341764)
(112.751 112.597 117.591)
(-113.612 43.6701 20.1057)
(90.7375 55.5697 9.3295)
(-33.3117 -1.45743 3.55117)
(72.6039 2.84185 4.2462)
(13.0243 17.8676 -1.03526)
(45.9999 -1.77214 -0.58487)
(39.2255 -2.23031 -3.34717)
(52.5767 2.28425 -4.61498)
(52.072 3.91419 -4.23572)
(57.1697 9.29795 -2.77943)
(53.0716 15.6114 0.281071)
(48.7871 19.8775 3.18557)
(43.3419 17.9464 1.75402)
(37.5187 10.3859 0.138253)
(38.0881 9.28094 0.179259)
(39.4045 8.70812 0.0547709)
(40.5366 7.09736 0.158936)
(41.1541 5.89666 0.0821957)
(38.8217 5.22364 -0.563627)
(46.3483 118.684 23.4006)
(-153.576 -3.10593 -18.5429)
(106.205 -52.3655 1.77518)
(-71.9948 -26.1049 -2.9646)
(41.1066 -30.7884 7.37784)
(-14.3474 2.45838 -0.0392871)
(27.5654 -0.804189 0.336607)
(31.7103 -7.02621 -2.22253)
(36.5161 2.9173 -3.23774)
(34.7389 6.69534 -2.39748)
(35.6821 10.4729 -1.36509)
(35.7567 15.3814 -0.410054)
(37.6194 18.0601 0.500251)
(38.9693 16.3583 0.650156)
(38.6017 13.9963 -0.178394)
(36.9097 7.18639 -0.819894)
(38.9141 6.44154 -0.680111)
(40.012 5.13619 -0.470999)
(40.5377 5.19925 -0.163088)
(37.8226 5.40927 -0.690907)
(258.723 -227.53 -147.328)
(131.885 -13.2111 -35.5698)
(184.214 37.3702 -12.4453)
(20.9046 31.0642 -4.5005)
(62.029 9.5846 4.13543)
(4.84414 -7.12412 -1.78638)
(11.3264 -11.3431 0.617631)
(18.6604 -11.7026 -1.15236)
(25.9172 -2.21578 -1.7018)
(32.5694 3.20603 -0.885603)
(36.2506 7.36493 -0.702059)
(38.8196 11.648 -0.308701)
(41.1496 13.5721 0.122087)
(42.5806 13.3809 0.0895886)
(44.0894 11.85 -0.707292)
(44.6799 8.15085 -1.66187)
(44.5556 5.3841 -1.30497)
(43.4644 4.18604 -1.10368)
(42.6937 5.00508 -0.494013)
(38.0236 6.32216 -1.02198)
(150.369 -208.687 -104.202)
(-35.6055 -14.5541 17.7353)
(72.2257 61.0977 2.27017)
(-46.7844 21.7396 5.95234)
(50.5137 -4.24048 5.82582)
(1.15821 0.851947 0.668122)
(26.8273 -12.7097 3.81533)
(27.308 -15.7497 1.58738)
(26.9005 -9.06464 1.08653)
(31.5085 -2.74322 1.46509)
(36.3546 1.8948 1.29019)
(42.291 5.87388 1.11478)
(48.2832 9.47818 1.28265)
(53.2967 11.9234 0.882054)
(56.3479 12.1268 0.00974676)
(54.7702 8.87584 -0.913565)
(52.6586 7.0993 -0.449906)
(48.3464 5.14508 -0.378014)
(45.1648 7.36304 -0.194553)
(39.6968 7.99232 -1.02675)
(56.6617 -93.1018 -241.639)
(-118.324 60.228 47.7854)
(90.7081 8.1924 6.27469)
(16.1314 10.9703 -1.37341)
(91.6251 -2.90489 4.02831)
(74.8914 -17.5355 -0.271117)
(83.9687 -20.4502 3.10338)
(69.1291 -11.4567 4.36206)
(46.8634 -8.77986 1.72677)
(37.6652 -6.71946 2.69162)
(36.8724 -2.3797 1.82954)
(38.1694 -0.202936 1.52803)
(42.4273 2.07082 1.61493)
(47.2266 5.23334 1.6048)
(50.4353 8.65447 -0.00912338)
(46.7112 11.004 -0.737901)
(46.6269 10.3013 0.00243345)
(44.1075 9.41213 -0.104858)
(41.7416 10.3551 -0.236884)
(37.9305 9.5288 -1.02873)
(121.332 -6.72346 24.8784)
(-22.1596 54.3464 47.8144)
(87.7574 -21.6521 13.1342)
(-18.7294 -7.83818 4.26852)
(58.6928 -20.1222 4.79501)
(9.20676 -33.1816 -0.389759)
(42.0234 -3.4434 0.883648)
(38.7712 0.999763 0.965882)
(49.2781 -0.405357 1.15336)
(38.0498 -1.93009 1.74763)
(37.3649 -0.460544 1.42544)
(30.209 -0.736409 0.833767)
(30.4798 0.832923 0.0106083)
(28.2309 2.51843 -0.783004)
(25.7167 6.96897 -1.31062)
(29.8529 7.47768 -0.482056)
(31.905 9.4636 -0.343378)
(33.8573 9.26185 -0.291206)
(34.1369 10.3489 -0.505242)
(33.705 9.28861 -0.916389)
(174.213 22.1238 2.76743)
(88.6138 -9.16781 37.4992)
(164.437 -17.4222 34.0525)
(56.9358 -7.7295 8.18419)
(77.5137 -19.1612 3.5225)
(29.4212 -17.6172 -0.959235)
(44.9121 10.4836 -0.55197)
(21.9979 -8.59517 0.127483)
(29.6354 11.2801 0.874114)
(17.1142 -0.197318 1.39269)
(21.2549 7.94771 1.21513)
(15.3274 1.4329 0.610401)
(17.9154 4.93896 0.186251)
(16.7374 1.74891 0.00164261)
(19.2036 5.00058 -0.0941541)
(20.841 4.63036 -0.244801)
(23.8174 6.66252 -0.147927)
(26.4317 6.66257 -0.144014)
(27.7081 7.90662 -0.10874)
(29.1544 7.35472 -0.349373)
(474.244 -114.432 -169.495)
(132.351 -14.0523 -25.1921)
(128.762 45.3684 21.3964)
(17.6581 22.1977 0.332175)
(49.3291 6.59415 2.4833)
(-9.68763 -13.8551 -2.47561)
(25.9734 -0.319039 -0.350355)
(1.41422 -5.1024 -0.448801)
(19.3894 5.53818 0.667656)
(10.4698 1.01824 0.540017)
(18.2679 5.13178 0.742738)
(14.4353 1.66416 0.242047)
(17.6321 3.40342 0.287567)
(16.0489 2.1364 0.0765049)
(17.0914 3.4544 0.102056)
(17.9487 3.11493 0.0926499)
(19.2688 4.33851 0.155974)
(21.7169 4.48392 0.0224322)
(22.2377 5.29074 0.172579)
(23.8509 5.35162 -0.08066)
(206.451 141.446 -161.534)
(-40.687 93.4636 -9.03563)
(104.001 73.4257 8.24001)
(41.9416 39.317 1.8806)
(81.5624 24.6014 11.8602)
(23.0116 2.97915 5.62732)
(38.5616 5.23383 4.75595)
(6.35105 -3.34135 0.564451)
(21.7169 4.82247 1.12905)
(7.6452 0.126479 0.461408)
(18.1462 4.91637 0.456486)
(11.7664 1.69042 0.0355232)
(17.1827 3.77824 0.174472)
(14.625 1.95703 -0.0597968)
(17.3952 3.19469 0.0843527)
(17.0807 2.4763 0.0301837)
(18.7364 3.35188 0.0542748)
(20.2522 3.10358 -0.0555619)
(20.649 3.71674 0.159753)
(21.6647 3.76612 -0.191411)
(39.7996 67.1873 -91.9535)
(-42.2308 50.191 -8.05979)
(84.031 50.3306 13.9771)
(26.1285 30.2166 4.30379)
(69.9059 39.1901 9.7567)
(21.3125 19.3353 1.14022)
(43.5457 17.9215 4.05955)
(12.3554 4.69481 1.30189)
(25.2435 4.78799 2.46853)
(10.2137 1.0986 0.481777)
(18.5716 1.8779 0.254749)
(12.3231 0.761628 -0.261291)
(17.1117 1.21252 -0.0945619)
(14.9153 0.974504 -0.196481)
(17.3294 1.17008 -0.060034)
(17.1833 1.33937 -0.0994083)
(18.7361 1.65728 -0.145526)
(20.311 1.86132 -0.232472)
(20.4788 2.08395 -0.130937)
(21.4882 2.52158 -0.461592)
(152.017 200.974 -73.0082)
(14.3192 77.2507 -9.26856)
(90.7298 56.5222 -7.96819)
(-17.0493 31.7535 -4.5131)
(55.3867 38.5358 3.8016)
(-3.25868 18.0007 -0.282536)
(39.0171 19.2396 3.00239)
(8.43285 10.6711 -0.693337)
(28.4923 10.6623 -0.491952)
(13.4824 5.91409 -1.71927)
(24.1484 4.83078 -1.14033)
(17.5727 2.64444 -1.12552)
(23.1977 2.27944 -0.586113)
(20.7065 1.54829 -0.561533)
(23.4779 1.55675 -0.368445)
(22.9502 1.26451 -0.417373)
(24.5423 1.24032 -0.412284)
(25.5255 1.17467 -0.595857)
(25.7157 0.970139 -0.564395)
(25.9048 1.25093 -0.920054)
(82.2539 113.132 -143.916)
(-133.543 54.6324 16.3791)
(44.6112 65.3238 6.96029)
(-48.438 22.532 5.86626)
(44.8888 27.5986 10.8362)
(-6.39744 18.2709 3.05584)
(40.358 13.1855 4.50711)
(18.422 9.83889 0.234727)
(40.0624 3.98158 -0.804725)
(30.8661 2.77427 -2.22645)
(40.2784 -0.246452 -2.18916)
(35.1397 0.0029105 -2.00942)
(38.6427 -0.832071 -1.27576)
(35.8012 -0.0227833 -1.04529)
(37.2419 -0.241237 -0.686762)
(36.5772 0.432576 -0.777576)
(37.6918 0.393603 -0.966977)
(38.4843 0.7835 -1.30444)
(38.6889 0.341679 -1.5962)
(37.7797 0.799774 -1.61782)
(99.5123 474.458 -62.6149)
(-198.528 46.6098 93.9708)
(86.8423 46.3883 13.8134)
(-11.289 7.31524 16.4307)
(77.0336 12.9125 11.4803)
(34.7826 11.4233 10.5388)
(70.5048 12.2165 10.4756)
(57.5697 12.4529 8.2957)
(75.4795 11.2874 6.51329)
(72.4146 9.86226 4.34785)
(81.7876 7.8932 3.04486)
(80.3105 6.59551 2.26454)
(83.9255 5.29716 2.10036)
(82.4205 4.52533 2.26228)
(83.5034 3.50917 2.6018)
(82.3716 2.67629 3.03304)
(82.8058 2.22788 3.13752)
(82.9913 2.18511 2.83854)
(83.3157 1.57119 2.35922)
(80.9435 1.31008 2.13339)
(61.3731 113.434 -85.9839)
(-59.8442 6.12282 -50.7815)
(47.8855 22.8008 0.138941)
(-15.4873 0.99474 -4.49845)
(64.6505 4.12379 3.97776)
(22.0189 -2.92296 -3.35666)
(66.6844 -5.01722 0.991755)
(46.7861 -6.03014 -2.82465)
(69.423 -6.4059 -0.976599)
(61.4403 -5.47753 -3.35915)
(72.5851 -5.56089 -3.60951)
(68.8245 -6.13077 -5.88261)
(72.3605 -7.05202 -5.26239)
(71.2262 -6.57764 -1.45049)
(74.6856 -4.41222 6.10103)
(75.9965 -1.4688 11.6912)
(79.5824 -0.929411 11.232)
(83.519 -0.950965 7.04098)
(84.7169 -0.434557 4.15276)
(85.5845 -0.0499553 2.64246)
(20.9387 45.6014 179.497)
(-84.8763 1.63386 95.394)
(65.5429 -33.7888 25.8722)
(-26.4436 -34.8172 8.32043)
(64.3532 -30.0093 10.0925)
(11.8656 -15.9539 1.45883)
(59.4809 -18.5079 4.75787)
(35.251 -12.111 0.655977)
(57.9109 -12.5175 1.99659)
(47.8371 -9.71687 -0.694995)
(58.278 -9.78879 -0.311375)
(52.9783 -9.11319 -1.72264)
(55.8027 -7.28036 -0.0398336)
(50.3784 -2.23296 1.90368)
(50.3097 3.63161 5.10588)
(49.8941 6.24531 5.05503)
(51.1507 5.52811 2.91375)
(49.7782 3.33864 0.220168)
(48.4563 1.97424 -1.17298)
(45.3724 1.04453 -2.34833)
(238.663 -80.4492 55.7812)
(200.434 -21.2852 60.2701)
(199.336 -0.370934 -24.2488)
(53.4108 -13.6225 -1.46221)
(86.2619 -12.8525 6.97944)
(34.2604 -6.11543 5.60159)
(62.8945 -8.52664 8.8453)
(35.4957 -5.05732 4.24588)
(50.3878 -7.71391 4.75877)
(35.7866 -5.43644 1.5763)
(43.5089 -6.40932 1.67513)
(36.3112 -4.69493 -0.342522)
(39.1396 -2.00828 -0.188809)
(34.5389 2.73854 -0.922767)
(35.4452 6.82476 0.319866)
(35.0073 8.46292 0.985567)
(36.4414 7.37244 1.00148)
(35.4557 5.44963 0.352288)
(34.2195 3.07054 -0.0474654)
(31.5747 0.994237 -1.39336)
(376.742 91.098 -101.764)
(161.487 40.2627 -3.23991)
(134.411 35.7731 -5.7072)
(-0.985546 17.977 -0.61638)
(76.8814 -3.36246 4.67267)
(7.91476 5.00882 -0.293484)
(54.7496 -1.1978 5.8737)
(23.1887 4.83383 2.47887)
(43.2574 -1.23936 5.0918)
(27.5911 -0.807039 1.66223)
(34.7035 -4.34 1.83226)
(27.0667 -4.01628 0.140609)
(29.3094 -3.31865 0.234693)
(25.1515 0.730299 -0.0898993)
(26.7091 4.5666 0.474032)
(26.0463 7.23758 0.681698)
(27.3923 7.56723 0.459575)
(26.4863 6.60136 -0.110455)
(25.2332 4.22219 -0.213922)
(23.0638 2.18271 -1.22376)
(128.418 230.214 -98.7672)
(-57.0318 80.6911 22.4915)
(76.0467 43.8985 -3.7909)
(-14.4578 9.93661 -7.49656)
(67.3719 -14.3481 1.52502)
(16.6655 -0.321228 -5.46706)
(51.8611 -8.70539 -0.703456)
(25.5844 8.36022 -2.37917)
(39.84 0.769444 2.05587)
(25.5968 5.46752 1.25626)
(31.3127 -0.717463 2.32132)
(24.3827 0.868453 1.03016)
(27.4409 1.29284 1.02121)
(24.1943 5.29405 0.151279)
(25.1987 7.12541 0.198404)
(24.3907 8.89024 0.0873936)
(25.5719 8.58049 -0.126928)
(25.2263 7.46737 -0.386029)
(24.5958 4.50317 -0.223528)
(22.4566 2.20618 -1.28765)
(131.447 60.4132 -34.0193)
(-96.527 15.6502 -1.39798)
(102.326 -6.6243 -13.1125)
(5.06122 -10.6894 -8.60459)
(79.6173 -15.5377 8.83645)
(22.2136 1.04246 -0.737918)
(56.7396 -6.23414 2.42387)
(31.1713 9.30745 -2.0604)
(41.3676 4.8569 0.652545)
(28.9485 9.5776 0.311384)
(31.1073 2.47902 2.90298)
(25.3543 1.1363 2.75462)
(26.2165 -0.805288 1.9363)
(23.584 3.20663 0.692854)
(24.6529 5.21225 0.323592)
(24.8394 7.33327 0.0197872)
(26.605 7.5451 -0.392247)
(26.8496 6.90876 -0.731331)
(26.8903 5.0941 -0.478253)
(24.1884 3.08762 -1.4826)
(114.077 -67.1477 -5.9987)
(33.5353 -3.21963 -37.7034)
(107.394 -7.82241 -8.83356)
(23.6584 -4.27766 -1.33905)
(84.3871 -1.26792 6.28064)
(34.3447 8.68089 -3.07423)
(52.7055 -8.67069 -0.932353)
(38.4446 16.0911 -3.74339)
(46.0371 5.52434 -3.77482)
(38.2369 14.6181 -3.56664)
(38.2441 8.80486 -0.168722)
(30.7752 11.8496 4.07916)
(31.6296 7.54666 6.44295)
(29.9049 8.45372 3.98881)
(29.5023 6.80244 1.71676)
(29.2327 7.34117 0.670324)
(30.0502 6.85912 0.248427)
(30.4313 5.744 -0.000596576)
(30.5641 4.58991 0.061728)
(28.3774 3.53092 -0.870067)
(10.167 180.202 44.8631)
(-103.448 40.7988 22.1777)
(67.6705 55.3618 1.14264)
(-45.8216 3.24608 4.42588)
(62.7952 9.57299 3.08215)
(-1.70399 24.5304 -1.17488)
(32.6125 0.549552 -1.42583)
(23.3005 5.77085 -3.81889)
(31.8961 5.72565 -4.3881)
(28.6408 9.0817 -4.44226)
(30.8766 11.2945 -2.04344)
(27.8203 15.7255 1.0647)
(29.246 16.549 2.66747)
(29.1957 15.2885 1.67921)
(26.0734 8.56188 0.371433)
(27.0899 7.78613 0.326553)
(28.2785 7.45281 0.0994771)
(28.788 6.32497 0.0170645)
(28.5941 5.50541 0.0297152)
(26.1017 4.63854 -0.999354)
(167.085 133.377 75.2436)
(-145.671 15.1324 -24.5504)
(90.0571 -41.6814 -10.7083)
(-83.5642 -22.5341 0.662559)
(28.9021 -24.5449 2.51078)
(-20.0029 10.36 0.628566)
(17.7393 1.44473 -0.20922)
(19.6279 -2.38313 -2.71401)
(22.7031 4.39844 -3.26965)
(20.8304 6.73079 -2.51872)
(22.5255 10.37 -1.43854)
(23.1419 13.7447 -0.341989)
(26.2093 15.0922 0.457267)
(28.7729 13.6774 0.469806)
(29.3188 12.007 -0.116182)
(26.6685 5.8166 -0.206537)
(28.2942 5.80924 -0.203897)
(28.5917 5.32853 -0.344686)
(28.3601 5.46924 -0.0424411)
(25.7626 5.05332 -1.06036)
(267.312 -173.928 -119.228)
(177.897 7.71429 -26.3598)
(161.664 42.8867 24.2777)
(-5.06113 29.3899 8.84761)
(48.9482 10.0957 8.01478)
(-5.80656 -4.65906 -0.54882)
(5.80446 -7.15112 1.18415)
(13.077 -7.65533 -0.965876)
(18.4851 -1.99413 -1.31018)
(22.6971 1.59957 -0.786174)
(25.8219 5.40612 -0.765464)
(28.3743 8.82349 -0.207313)
(31.2648 10.1707 -0.0611769)
(33.5203 9.9575 -0.274367)
(34.6175 8.66391 -0.784564)
(32.2037 5.69175 -0.758171)
(31.667 4.56543 -0.61809)
(30.38 4.62931 -0.68401)
(29.091 5.88901 -0.230465)
(25.7065 5.95552 -1.25222)
(26.9992 -112.343 -176.152)
(-159.538 19.196 -0.485977)
(45.4461 58.9026 -0.309464)
(-79.7068 17.7467 9.68814)
(28.6955 -3.33369 2.36954)
(-24.3289 2.20996 1.71847)
(8.24886 -9.76779 4.00026)
(17.1149 -12.3745 2.73458)
(20.2074 -7.43914 2.0189)
(24.8784 -3.29778 4.24165)
(30.1633 1.27924 1.53023)
(35.9714 4.91873 1.49864)
(39.9347 7.68025 1.23078)
(43.622 9.29265 0.743381)
(43.9056 8.43133 -0.119998)
(37.4998 5.50821 -0.027054)
(35.2186 5.34812 0.325996)
(32.2488 5.0884 0.0264332)
(30.1771 7.03708 0.00802963)
(26.9385 6.5462 -1.187)
(24.5782 -98.1438 -200.67)
(-187.412 27.8956 -2.97628)
(73.8304 -4.31051 -3.9062)
(-22.7028 13.4068 -3.17847)
(64.6615 0.639419 4.22042)
(37.4834 -16.3461 -0.739678)
(47.9209 -17.6181 3.40342)
(39.1353 -8.69994 5.58137)
(30.351 -6.9812 3.00434)
(26.6808 -3.84067 2.96414)
(28.2931 -1.10352 1.90021)
(30.6157 1.39741 1.35087)
(35.0309 3.89586 1.30067)
(39.3159 6.84267 1.12978)
(39.6502 8.53213 -0.0784076)
(31.5834 9.24264 0.00603927)
(31.0825 8.37046 0.419341)
(29.335 7.85666 -0.0134308)
(28.0599 8.402 0.0101982)
(25.8727 7.07904 -1.09493)
(-32.5992 -20.969 -154.811)
(-78.3847 35.7049 45.8023)
(49.8923 -26.5897 5.15152)
(-56.1424 -2.61414 6.23545)
(42.2899 -16.0208 3.51256)
(-15.0049 -30.4359 -0.242747)
(22.0615 3.20554 1.23404)
(15.6652 1.31152 1.27167)
(27.2502 0.963449 1.31274)
(18.9726 -0.809799 1.8331)
(22.7576 0.798865 1.2557)
(19.1905 0.670133 0.533262)
(21.9714 2.60389 -0.373635)
(20.8783 3.89449 -1.01066)
(17.342 6.62715 -0.59479)
(20.6117 6.47642 -0.0552715)
(21.8824 7.5806 -0.172543)
(23.563 7.07745 -0.322588)
(23.6216 7.69101 -0.314756)
(23.3377 6.31638 -0.916648)
(94.2507 21.6412 -110.558)
(-9.92331 25.0948 22.3611)
(103.773 -6.62405 38.7146)
(9.80496 -4.66713 10.5628)
(56.3854 -16.2446 6.53844)
(6.1256 -13.8372 -0.488448)
(27.3131 14.6892 -0.0722005)
(3.8179 -9.05403 0.0675018)
(14.9833 11.8325 0.692972)
(4.02083 -1.35171 1.11154)
(10.8236 7.55897 1.03132)
(6.10645 0.764764 0.413147)
(10.0187 4.66475 0.100053)
(9.21664 1.2524 -0.0224482)
(11.9813 4.46035 -0.0365629)
(13.3913 3.77836 -0.159856)
(15.942 5.30666 -0.087202)
(18.0773 5.07202 -0.169851)
(18.8697 5.7417 -0.0100462)