/*--------------------------------*- C++ -*----------------------------------*\
  =========                 |
  \\      /  F ield         | OpenFOAM: The Open Source CFD Toolbox
   \\    /   O peration     | Website:  https://openfoam.org
    \\  /    A nd           | Version:  10
     \\/     M anipulation  |
\*---------------------------------------------------------------------------*/
FoamFile
{
    format      ascii;
    class       volScalarField;
    location    "2";
    object      nut;
}
// * * * * * * * * * * * * * * * * * * * * * * * * * * * * * * * * * * * * * //

dimensions      [0 2 -1 0 0 0 0];

internalField   nonuniform List<scalar> 
12920
(
6.16327
5.88658
2.82202
2.2042
1.61443
1.5568
1.1561
1.11492
1.03847
1.1009
1.07921
1.07455
0.919652
0.73571
0.544462
0.416142
0.345722
0.295793
0.256427
0.237638
3.58665
12.1889
9.95397
6.86894
3.41107
2.40968
1.86637
1.94498
1.54912
1.44097
1.24954
1.15418
0.996316
0.880285
0.792044
0.755529
0.738883
0.69702
0.673951
0.58408
0.482814
9.4221
7.43453
9.47917
4.90087
4.20837
3.06158
2.7955
2.11597
1.82203
1.40817
1.23639
1.05153
0.946241
0.85677
0.806243
0.776349
0.710888
0.663493
0.526902
5.65498
7.35541
9.14237
7.98757
6.27206
6.33259
3.57498
3.14907
2.2189
1.85798
1.40542
1.20346
0.947316
0.780441
0.640466
0.581012
0.560979
0.533797
0.500014
0.384548
12.4347
11.3761
8.89934
8.17567
4.9449
4.87118
3.297
3.07018
2.39979
2.08574
1.60315
1.29823
0.934605
0.670422
0.439598
0.30056
0.244062
0.223044
0.208032
0.154088
4.04487
9.67656
7.94243
8.71994
5.13256
5.34839
3.38893
2.99193
2.35455
2.14139
1.75505
1.42913
1.00418
0.679963
0.39962
0.203377
0.116509
0.0780569
0.0629633
0.0312987
5.07588
14.1409
10.8665
9.17762
5.16771
5.46173
3.98921
3.45775
2.45039
2.13188
1.68403
1.33822
0.850999
0.452974
0.224589
0.167497
0.154947
0.143734
0.143302
0.0979939
5.51111
14.9118
9.65748
8.98652
5.12911
5.53491
1.31502
1.09653
0.932006
0.713002
0.597559
0.483923
0.303098
0.151176
0.394493
0.478354
0.551682
0.523272
0.493329
0.308821
0.865969
9.01478
6.51213
7.60355
4.91801
1.48682
0.377451
0.378463
0.404605
0.298684
0.20644
0.180192
0.134701
0.0748376
0.158598
0.842069
0.894287
0.940874
0.9102
0.594161
0.799439
7.09624
5.06853
6.78026
5.28816
1.60277
0.368084
0.246213
0.408354
0.396836
0.28164
0.218859
0.194086
0.0984073
0.336112
1.05879
0.915606
0.846466
0.805496
0.639352
7.32386
10.4598
5.31849
9.29123
6.31619
1.87492
0.396086
0.164255
0.236233
0.338309
0.312468
0.266401
0.216553
0.101307
0.269157
0.792461
0.759736
0.735537
0.697689
0.584232
0.979621
8.61886
7.17558
8.94933
6.28759
2.15191
0.38425
0.186897
0.188474
0.169407
0.219892
0.228035
0.179697
0.075161
0.299948
1.30855
1.22121
1.07344
0.926987
0.622578
0.946058
9.0276
8.4747
7.81417
5.22018
5.67119
1.20863
1.11984
0.850926
0.800346
0.511483
0.445913
0.431855
0.489611
1.50778
1.17664
1.03723
0.931141
0.807815
0.53499
7.22497
12.007
8.25307
7.42137
3.58014
4.6848
2.8111
3.6704
2.64107
2.88434
2.14206
1.99523
1.54716
1.29878
0.997226
0.761071
0.589456
0.477042
0.414428
0.314206
4.90021
13.8213
6.96824
7.57165
2.87506
4.37421
2.55962
3.80088
2.43362
2.69122
1.85114
1.67653
1.25943
1.0484
0.823725
0.671162
0.55425
0.473608
0.44701
0.416823
5.1817
12.8346
8.72327
9.50189
4.05404
5.12883
2.60936
3.71818
2.14844
2.33794
1.65703
1.58064
1.23089
1.08737
0.896106
0.77384
0.700594
0.585088
0.51031
0.344644
13.1388
10.288
9.0301
7.96783
5.98687
5.37289
3.66892
4.2625
2.51332
2.6919
1.65549
1.54856
1.20108
1.10837
0.909464
0.756979
0.571645
0.407427
0.278488
0.163098
9.0124
8.68307
6.27618
8.18127
5.97953
6.58921
3.97659
4.40101
2.7137
2.7185
1.92972
1.61693
1.19463
1.02001
0.850985
0.744872
0.64809
0.515666
0.444172
0.305692
3.41351
8.98541
3.50649
7.13546
5.32638
5.98518
3.31956
3.85034
2.02128
2.20901
1.58256
1.48378
1.10273
0.93873
0.767138
0.653479
0.545878
0.431307
0.375579
0.273017
2.2514
5.71471
2.79083
5.09077
2.45438
2.82729
1.51647
1.46404
0.937553
0.805636
0.58677
0.536487
0.483151
0.472185
0.431269
0.390107
0.352276
0.306264
0.276406
0.193361
14.976
20.5689
9.44287
5.92245
5.11036
5.33148
5.46232
6.76813
7.06342
7.64723
7.32909
6.91785
5.87906
4.88663
3.84041
2.98243
2.40701
2.01926
1.87639
1.65304
26.2916
41.7019
38.156
19.8792
10.9894
8.33307
10.1548
12.4401
12.6941
12.8252
12.823
13.0515
13.016
13.0466
13.1855
13.199
13.0577
12.4358
12.1512
10.4919
30.7926
39.7914
40.466
35.537
23.9561
23.3209
20.8211
19.9462
16.9454
16.018
15.24
14.8615
14.5022
14.2821
14.1866
13.8597
13.5001
12.4493
11.8973
9.0565
24.2842
40.5967
39.2441
33.1642
27.0311
26.7091
21.9717
20.4511
17.1103
16.0869
14.9817
14.2038
12.9402
12.0657
11.7244
11.6945
11.3262
10.254
9.18743
5.91532
27.1627
46.4393
43.2629
34.7256
25.7872
24.718
20.607
19.9895
17.6869
17.1868
16.3988
14.5393
11.2532
8.45773
6.74536
5.72586
5.09544
4.15419
3.33312
1.81452
7.2523
27.4703
38.6268
34.183
26.8841
25.4147
20.1231
18.9972
17.8767
18.6401
17.7789
14.121
9.11594
5.7752
3.83905
2.52473
1.65782
1.16596
0.771851
0.465563
26.562
39.9626
41.9441
40.8518
31.818
31.7682
28.4849
23.0026
18.6475
16.873
14.0347
10.0253
6.69861
4.16908
2.79007
2.12835
1.93143
1.93532
2.07286
1.73816
55.0303
49.226
45.2848
40.6637
27.7898
31.2186
25.6887
25.1453
20.4798
16.2224
13.2987
10.2476
6.23034
4.21686
5.08268
5.54396
5.9697
6.0391
5.74404
4.22561
13.1989
35.2188
40.1512
42.4316
30.3262
23.7035
22.2138
26.1104
24.4704
19.2417
14.5892
13.1163
8.45844
4.23216
6.84045
10.3164
10.419
10.4426
10.1368
7.95523
4.17962
32.8138
34.6258
39.7042
34.2337
20.0942
16.2864
22.6029
26.9204
24.3266
19.6226
17.8494
13.1188
9.22613
12.6517
14.1442
12.5801
11.983
11.2614
9.18778
16.314
32.3161
37.7181
39.8094
35.0436
25.3813
15.0362
15.2844
21.6905
24.2423
20.2395
17.4654
13.8409
9.01267
9.56211
11.3631
11.4462
11.2417
10.7266
9.23829
17.87
33.369
38.583
40.3838
35.5009
26.4384
18.0289
15.7898
16.9661
17.9822
18.0508
15.7851
11.2274
6.62353
10.2662
14.8097
14.4493
13.9114
12.7425
9.70276
13.3882
34.447
41.9339
32.639
29.3168
27.0293
19.5306
18.5637
18.5759
17.4121
14.9458
13.3263
12.9079
14.1225
15.7575
14.5076
13.8896
13.1195
11.657
8.01936
34.607
49.3921
38.2981
27.663
18.1758
19.9874
19.7677
20.4136
19.525
18.265
16.8119
15.9382
14.7442
13.2844
12.0049
10.0515
8.31013
6.46136
5.71408
4.73928
11.6517
60.1582
49.7494
26.5245
13.1025
18.1105
18.5389
19.2515
17.9121
16.5832
14.8199
13.8336
12.4201
11.3112
10.1978
9.01513
7.98463
7.41313
7.53051
7.89414
10.1764
54.2183
50.9051
38.0528
19.2986
21.5656
19.4452
20.6247
18.4177
17.0021
15.1066
13.8067
12.5497
11.6502
10.9029
9.98377
9.44733
8.45014
8.06126
6.66669
25.4868
42.4414
42.9708
39.9499
32.7448
27.6373
24.6061
21.9086
18.8542
16.4976
14.1834
12.9085
11.7913
10.5794
9.21512
7.61288
6.06837
4.50782
3.34747
2.09118
15.3023
28.6038
32.4553
35.509
35.4537
31.1963
26.5515
24.3431
21.1063
19.3267
16.1848
13.5642
11.1611
10.3116
9.75629
8.75336
7.61732
6.03808
5.21156
3.52769
22.3543
15.1175
18.5859
20.581
23.5326
23.8847
20.6927
18.9475
16.9617
16.4151
14.6886
13.2599
11.4834
10.2047
8.92196
7.66082
6.35092
4.77987
4.05659
2.68667
9.47461
11.5798
9.5069
18.0536
11.4443
14.6209
7.57975
8.19137
5.07091
4.70999
3.4339
3.36065
2.99682
2.90614
2.57886
2.37483
2.14738
1.78254
1.45547
0.798198
5.91084
14.4116
11.3819
11.9008
12.3695
12.5562
11.0845
11.7302
10.3477
9.99604
8.74452
7.86066
6.58285
5.43527
4.3167
3.46703
2.92923
2.50728
2.33934
2.01598
31.1056
52.2898
45.0671
34.2585
20.7254
21.6583
27.31
29.3125
27.1111
25.5576
23.552
22.2578
20.8956
19.9399
19.2047
18.5948
17.9336
16.7048
15.7374
12.8068
39.8148
64.3158
53.8655
45.0098
35.173
37.2984
37.5711
35.9885
31.9505
29.5126
26.8185
24.9746
23.3757
22.1669
21.2096
20.2009
19.0206
17.0105
15.1995
10.2758
42.091
42.7803
57.4742
48.6497
42.8536
42.1466
38.1032
36.0162
31.8403
29.5271
26.3061
23.7125
21.079
19.2942
18.1465
17.1129
15.5303
12.8814
10.2436
5.18546
30.3418
57.3104
59.3494
52.6419
44.7211
42.6947
37.7951
36.3565
32.7409
30.5248
26.8456
22.3877
17.654
14.2128
11.8876
9.66162
7.43957
5.41615
3.59141
1.76012
16.6355
44.5462
54.3752
52.5238
45.1936
42.473
37.0771
36.0114
33.5049
31.4348
26.7867
20.6237
14.5233
10.1483
6.72169
4.20763
2.54056
1.50451
0.988257
0.618104
37.6668
58.7246
64.2164
59.0615
51.2003
47.4869
41.7098
37.0828
32.9701
29.5786
23.6775
17.0373
11.1267
6.97121
4.24186
2.75778
2.24703
2.19268
2.43798
2.23146
43.7917
68.5541
65.7517
59.9282
50.6351
50.2634
44.3948
40.3012
34.1896
28.7787
24.19
17.179
11.0103
7.25589
6.61061
6.62937
6.87622
7.15354
7.29841
6.1437
15.5772
37.4392
55.3178
61.2476
52.5355
46.8231
44.4274
43.2457
38.0576
31.458
26.4814
21.4132
13.7126
9.91869
11.0044
13.7567
13.8188
13.5493
13.0638
10.4376
10.0521
46.3938
48.875
58.0187
52.5455
45.0187
39.8288
42.0501
41.1718
36.0212
30.8903
26.5597
19.8281
17.3541
18.4333
19.6729
19.3362
18.6137
16.7116
13.7367
22.032
44.8424
52.3221
58.1351
52.8987
44.7724
34.94
34.5328
37.2932
36.8257
8.89879
9.96786
13.8905
13.056
13.8272
17.6368
18.7659
18.776
17.1238
13.9602
18.4018
52.588
58.5767
59.139
52.8054
45.1171
36.4025
32.5831
31.6322
31.0057
25.6345
20.1024
15.5025
13.2432
17.3018
19.7195
19.6288
19.3037
18.2615
14.6679
19.2852
49.6352
63.9777
53.3855
49.539
43.7712
37.8511
34.2142
31.1914
28.6167
25.4963
23.2381
22.1721
22.1827
20.6349
19.5336
18.8728
17.9144
16.736
13.0995
61.2975
66.2295
53.4516
44.3211
37.4333
37.6472
36.4312
34.1085
31.4875
28.5324
26.0954
24.2209
22.2702
20.4148
18.9535
17.0016
15.3066
13.3589
12.4775
11.0951
69.604
73.3253
63.2157
42.4676
33.4445
35.1335
34.8154
32.2878
29.5574
26.4319
23.8075
21.8334
19.9904
18.6005
17.3318
15.95
14.668
13.6818
13.314
12.4155
56.4375
63.6624
64.6874
52.7904
39.717
38.0351
34.9088
32.474
28.8568
25.5227
22.6428
20.2606
18.4499
16.7636
15.5398
13.9261
12.9288
11.3095
10.4416
8.37385
24.26
56.018
60.3859
58.4499
49.5187
41.5743
36.6602
32.1815
27.9514
24.1611
21.0187
18.4212
16.0692
13.6095
11.2027
8.88646
7.08885
5.2341
4.39152
2.95141
26.7351
39.4396
45.6592
53.5012
50.3571
43.3736
37.2211
33.6756
29.4036
25.9511
21.9053
18.8608
16.4354
14.6446
12.459
10.1909
7.97646
6.08469
4.84781
2.62845
35.1267
40.6766
40.3883
37.4626
37.2928
32.2607
26.5921
24.2247
22.1009
21.4596
19.4676
17.6785
15.4935
13.6191
11.4686
9.51613
7.59235
5.80222
4.92386
3.26326
9.15508
11.2499
19.0879
21.4814
15.1172
15.8352
9.13069
9.60717
6.1487
5.96801
4.68147
4.65639
4.00798
3.72665
3.17682
2.79801
2.38817
1.9122
1.54921
0.817885
16.8322
14.578
19.6268
21.9649
19.2463
17.5834
14.5031
13.7847
11.5738
10.3057
8.6196
7.27081
5.93624
4.89312
4.01183
3.37056
2.93688
2.57359
2.38702
2.27127
22.719
59.0593
52.2936
41.7887
34.9154
39.4541
40.4115
37.0094
34.156
30.1182
27.4598
24.3214
22.6151
20.601
19.5998
18.3934
17.2352
15.5545
14.5546
12.1787
27.3021
73.416
63.9694
53.9448
48.13
49.9106
47.9012
43.6606
38.3425
34.1675
30.4136
27.6186
25.3524
23.4811
22.047
20.4826
18.804
16.3881
13.8638
9.92881
66.3887
70.6853
65.4146
57.7298
53.9661
52.328
48.7167
44.1115
38.5207
34.0686
29.5062
25.8087
22.7119
20.4386
18.741
16.9947
14.8415
11.8598
8.87197
5.89106
68.2309
64.7588
68.9028
63.5756
57.1552
54.3096
49.5537
45.3089
39.5754
34.4058
28.9675
23.5796
18.8408
15.3517
12.8897
10.5753
8.35277
6.25597
4.63857
3.53035
60.2885
67.4936
68.6215
64.9017
57.9104
54.404
49.5395
45.895
40.4536
34.6174
28.0053
21.7438
15.9248
11.7187
8.48888
5.98748
4.21698
3.14995
2.70953
2.59574
91.5601
78.8882
75.7399
69.6321
62.101
56.8168
51.2256
45.9657
40.2812
34.0599
25.8505
18.4902
12.0178
7.7354
5.28613
3.96722
3.42844
3.37623
3.58052
3.99129
86.7061
82.5735
81.2375
73.2176
65.1449
60.5603
54.6909
48.3989
41.8539
35.2553
28.1775
19.258
12.1689
7.82398
6.98136
6.66629
6.86882
7.12438
7.67314
7.19702
70.6554
71.7421
75.3699
75.0904
66.7079
60.0026
56.4963
51.2234
44.4394
37.3955
30.6271
22.3066
14.9707
11.1296
11.2963
14.4361
14.4888
13.6245
13.2659
10.6944
26.2711
58.0374
64.5866
71.807
65.6424
58.8123
54.306
50.692
45.4944
39.0175
32.7716
26.2753
20.555
18.247
18.4441
21.1078
20.4876
18.8232
17.2182
14.0249
59.7502
58.6232
65.6186
70.0265
63.7536
56.3744
49.1961
45.4316
42.9861
38.6725
17.4971
15.4476
15.8175
16.7317
18.3851
21.8685
21.5789
19.9908
17.2321
13.3293
27.6696
69.3474
72.3593
70.039
61.9524
54.2245
46.8535
40.9358
37.7833
35.374
29.5139
24.0019
20.1001
19.4674
20.1234
21.7675
21.9882
21.0762
18.3374
13.1627
78.125
72.4282
75.6003
66.538
60.0586
51.2684
45.7374
40.0774
35.2019
31.9971
28.8911
26.5325
24.6351
22.6782
20.2568
20.28
20.0659
19.4139
18.0156
13.747
68.5209
79.6422
65.9294
58.4792
53.0609
47.4612
43.9533
39.6441
35.6865
31.5427
28.5082
25.8962
23.7385
21.944
20.7331
19.5111
18.3214
17.2423
16.4701
14.6623
56.3564
86.3164
70.2361
55.858
48.5346
44.051
42.2613
37.4131
34.0267
29.5922
26.8327
24.2887
22.474
20.8361
19.4544
18.1411
16.8651
15.9697
15.2196
14.1845
73.6482
72.8355
70.2125
63.255
52.3482
45.4136
40.9076
36.2536
32.1722
27.6077
24.5731
21.6465
19.612
17.4129
15.9524
14.2238
13.0999
11.6101
10.7266
8.93887
75.6758
66.5813
71.9928
67.6012
55.8889
45.9381
39.8282
34.8707
30.2564
25.8124
22.3317
18.8259
15.9036
13.0354
10.9097
9.08249
7.82707
6.83628
6.3515
5.49761
54.3885
48.9001
63.4968
63.7429
56.5804
46.2915
39.388
34.9008
30.8352
26.7077
22.9477
19.5734
16.9247
14.3244
11.8059
9.65889
7.974
6.91639
6.23229
5.1033
36.9032
49.5701
53.0012
45.0558
41.0677
32.2584
26.3847
24.4483
22.8401
21.745
19.546
17.352
14.8778
12.6862
10.4342
8.51357
6.95271
5.64167
4.72203
3.82698
10.0223
11.8672
23.8322
22.1532
16.0245
15.8697
9.54249
9.09464
6.5996
6.19866
5.08781
4.82513
4.07153
3.68905
3.12966
2.71738
2.25845
1.74763
1.35827
0.667926
3.68406
12.1746
18.8195
20.8878
10.7405
16.3923
7.39863
7.483
5.07884
4.3746
3.16944
2.52501
1.96658
1.66533
1.43731
1.3028
1.20373
1.13866
1.11703
1.12679
9.74704
54.8698
53.7578
47.9292
43.3888
44.1317
33.9829
35.1968
22.7528
21.3408
17.5183
16.6974
15.0588
14.1386
13.1759
12.2723
11.4248
10.6081
9.9024
8.79066
36.812
62.8089
68.1843
59.2798
53.681
53.2867
44.023
40.9041
27.1393
25.4766
20.0948
19.2417
17.3161
16.4727
15.1959
13.9499
12.6932
11.5911
10.6827
9.57302
42.6201
80.7448
70.3144
61.9834
56.988
56.1448
42.9572
42.0936
25.8164
24.6425
18.6204
17.7043
15.6919
14.9021
13.4588
12.0981
10.9001
9.96022
9.32265
8.76103
47.9351
63.9219
71.9002
69.163
54.499
58.0744
40.4492
43.4772
26.3906
24.0202
17.4335
15.3309
13.0994
11.9092
10.7535
9.85186
9.13112
8.72886
8.44644
8.20206
47.374
80.3056
64.6564
71.7637
53.0578
58.6507
40.7309
44.678
27.0082
23.1897
15.9362
13.518
10.95
9.96328
8.85039
8.07713
7.68456
7.58559
7.58091
7.5094
101.526
93.5518
75.5628
74.4926
45.2253
59.4334
38.8713
43.4105
28.2279
22.8133
15.0145
11.2994
8.9538
7.99773
7.39345
7.14515
7.05994
7.20663
7.45877
7.58542
53.6969
89.8609
63.1733
77.9792
45.5335
62.0473
57.2319
49.7755
41.1611
32.2288
23.3005
16.0598
12.2064
10.1252
9.20134
8.06381
8.00647
7.89044
8.11337
7.86766
21.211
67.5675
52.9843
71.6088
41.5907
62.8821
58.2859
51.3833
42.8563
33.8804
25.0243
18.1155
14.5358
13.0961
13.4617
12.2675
10.5618
9.88021
9.41956
8.60171
47.8505
65.7456
52.3777
79.3581
44.2802
61.5688
55.6752
49.1071
41.9713
33.7285
26.1662
20.687
19.2023
19.3349
20.372
16.7875
14.8988
12.8487
11.0797
9.31053
16.4824
66.1993
43.6431
75.7375
44.0857
57.6019
50.3156
44.2292
39.6691
33.4105
25.3822
20.2523
19.0122
20.7041
22.4851
18.3032
16.7688
14.4336
11.7449
9.69009
74.461
75.0791
58.5252
73.0265
39.2956
54.1813
46.0635
38.7794
35.2053
31.5713
27.2601
23.3965
22.0713
22.0332
22.3042
17.5723
16.2446
14.2178
11.7209
9.51927
84.2064
70.8613
64.8364
68.3701
40.7654
50.5783
42.9256
37.9873
33.2318
29.84
26.8609
24.5759
22.7286
21.1271
15.9316
14.9664
14.5344
13.401
12.161
10.2669
95.2778
37.9011
68.3485
62.9987
37.1392
48.8652
27.0219
38.8179
24.7913
29.3947
20.1257
20.6904
16.2843
15.7942
14.5547
14.4223
13.9177
13.5965
12.9942
11.5719
29.6732
69.6338
47.4632
55.7466
31.2879
43.3313
26.3562
36.7324
23.7698
27.3353
18.68
19.6413
15.176
15.1204
13.814
13.51
13.1384
12.7839
12.3099
10.7392
67.5571
79.2842
56.4799
63.5051
32.1027
44.5709
22.2995
34.1867
18.4617
24.58
14.656
16.1646
12.2003
12.4031
10.9477
10.8558
10.3225
10.0101
9.69204
8.7143
72.247
77.3189
76.1559
68.481
47.0736
43.0634
25.1874
32.3571
18.3488
22.4969
13.1256
14.3437
9.84179
10.1631
8.92464
9.20779
8.98679
9.09094
8.95958
8.32219
72.7466
72.0196
73.0593
69.5687
34.2821
44.2749
20.7621
31.6015
16.4496
21.0342
12.5803
12.9565
9.82781
9.77885
8.80726
9.02143
8.81161
9.00933
8.85398
8.40094
21.6337
40.9684
57.1673
45.396
25.6329
29.8947
14.1746
22.5889
12.5344
18.1173
10.4679
10.6367
7.9925
7.53485
6.63352
6.4565
6.16143
6.10654
5.86115
5.71082
19.4691
16.6891
7.61393
18.4411
5.25428
8.08255
3.4244
4.44729
2.53079
2.94417
1.99759
1.93546
1.44503
1.27008
1.004
0.83739
0.665866
0.52401
0.419627
0.253286
31.9515
35.8183
8.07562
39.1837
34.7448
37.8332
9.12223
27.9087
7.49115
11.0661
33.3396
28.8513
8.40691
12.7988
10.1095
32.3909
24.6108
39.1771
11.7125
36.3039
27.3252
8.97277
21.8259
17.1729
10.5386
10.8413
24.8068
19.9949
0.326613
0.379937
0.260138
14.4979
19.312
11.8029
16.6106
0.420551
0.285419
0.407918
20.2856
20.3984
18.4662
21.5232
0.337126
0.422776
0.404655
19.5664
16.6503
21.6614
20.0035
0.221815
0.386569
0.288641
15.1015
11.6968
18.981
15.484
0.179819
0.256144
0.19648
10.6401
9.84619
14.4981
13.3199
0.151444
0.195768
0.196646
9.69222
7.76143
13.2227
11.3133
0.0930361
0.181754
0.112544
6.5397
3.36042
10.0176
6.50415
0.0475368
0.094025
0.0519073
2.84906
3.69011
5.79654
6.78316
0.230417
0.399036
0.1783
9.67598
14.7132
8.77872
10.4812
0.378855
0.176572
0.241745
16.8368
21.0066
11.8907
17.0304
0.409588
0.282361
0.365748
21.4178
20.5417
18.334
20.0849
0.314101
0.370417
0.338132
19.72
16.5943
20.0186
18.2864
0.221772
0.315144
0.27329
15.6441
14.425
17.4831
16.0203
0.213258
0.264092
0.238627
14.2318
12.0633
15.6744
13.4225
0.118156
0.215501
0.12247
10.674
7.36469
11.9357
8.07473
0.0581214
0.105212
0.0778072
6.85834
7.85683
7.68649
8.73631
0.177747
0.416052
0.189119
8.83631
9.58111
10.4266
10.3306
0.197584
0.167493
0.166655
10.7118
15.248
10.5755
12.2595
0.324839
0.169288
0.18209
16.7051
19.1274
12.6644
14.5736
0.329242
0.203717
0.256371
19.2896
17.9948
15.2483
15.9801
0.273865
0.261234
0.257717
17.1587
15.5438
15.6715
14.4617
0.239318
0.253044
0.223861
15.1679
13.1478
14.0091
11.835
0.118443
0.199798
0.10652
11.7138
7.45695
10.3369
6.01617
0.0745603
0.0879528
0.0512525
7.03387
8.00031
5.34501
5.6008
0.201806
0.433406
0.238858
11.9138
11.2447
12.022
12.4767
0.189137
0.226692
0.230698
11.4197
12.6053
12.3903
13.257
0.167562
0.236033
0.204348
12.7202
13.4125
13.3563
12.9289
0.211587
0.181214
0.118491
13.7736
14.5685
12.5938
10.7795
0.232164
0.10461
0.0858068
14.3784
13.4378
10.08
7.86981
0.201326
0.0804914
0.0702058
12.9915
10.3791
7.41489
6.54393
0.0938578
0.0666857
0.0874794
9.04968
5.15323
6.40491
7.44942
0.0480096
0.10134
0.111067
4.80503
5.78093
8.24099
10.5917
25.2819
19.0245
22.5688
39.0902
40.1396
36.6089
38.624
25.5956
24.3465
27.1157
39.8264
36.9316
39.3704
39.2425
20.952
27.0655
24.6208
35.2443
30.4911
38.3561
34.3175
15.6851
23.3501
19.3104
28.6731
24.8144
32.7356
28.5583
13.6542
18.2663
17.0211
23.834
21.3221
27.5906
25.1419
9.97991
16.7198
13.8563
19.8337
14.1433
24.0128
19.0508
4.71646
12.2879
8.48316
12.4951
8.82172
17.3579
14.3719
4.82862
7.90425
8.76972
8.57858
8.74729
14.1246
14.7691
20.5423
14.7908
15.1777
34.0072
36.9811
30.1944
30.8256
26.595
16.8287
22.2202
38.0571
39.0871
32.0484
35.3847
25.3766
23.5581
25.2342
38.607
35.2988
35.9999
35.7821
20.6448
25.0598
22.1085
33.8704
29.8489
34.7285
17.4183
18.2397
21.0047
19.1211
28.8268
26.3543
16.0581
16.5292
14.7469
18.7315
16.0602
25.2213
20.2157
18.3117
18.9195
9.60855
14.3787
10.2826
18.5395
15.9153
17.7084
15.2512
10.0039
9.95926
10.6568
15.7699
16.2428
15.2076
15.7896
13.9605
16.4576
14.518
29.7086
29.0575
30.6114
28.2273
20.1903
14.8704
16.6279
30.0585
33.3474
28.303
28.8742
24.1726
17.0761
19.0059
34.1833
34.8555
29.1056
29.9449
21.564
19.6262
19.8695
34.3569
17.1266
29.9792
24.9822
17.9405
19.2471
17.0815
15.0982
12.9353
22.4819
18.0388
15.3763
16.4513
13.8641
13.4481
15.3272
17.1096
14.8431
9.46714
12.3646
7.75992
14.7724
12.69
13.8967
10.7293
9.62535
6.97635
6.91942
12.5252
13.638
10.2938
11.271
15.6816
18.8485
17.0236
32.1538
29.0656
33.7295
30.5108
16.8385
16.8359
17.4696
28.8294
28.62
29.9359
28.8084
17.6449
17.3918
16.5918
28.5243
28.4476
28.2525
26.4795
18.4338
16.2062
14.1539
28.4261
26.2223
25.9706
23.3739
16.4552
13.3344
10.8166
24.6617
20.7259
22.4189
19.5361
12.6616
10.2544
8.90785
19.6142
16.0345
18.7819
16.8207
7.03585
8.67483
9.76392
14.7855
11.6696
16.4691
17.3622
7.33278
10.6725
12.9178
11.5607
13.018
17.9789
19.4667
43.8989
42.0861
42.8503
54.2377
51.3755
53.2957
51.0879
39.7789
43.1528
41.98
50.0025
45.3347
50.2497
46.6538
33.1773
40.8752
36.5664
43.5454
38.4971
45.1391
40.2417
27.5479
34.9798
30.8523
36.7802
32.1869
38.6001
34.0481
23.1912
29.8093
26.741
30.6699
25.2407
32.5875
27.804
15.4526
25.3679
20.1633
22.9257
17.1107
26.0198
21.0638
10.2747
18.5978
15.9741
15.4727
11.7847
19.86
17.4385
9.56924
15.7204
15.9263
11.1688
10.1211
16.962
16.2676
41.4447
35.7374
35.6442
51.784
50.2633
47.8141
45.9181
41.9216
36.5018
38.69
49.6183
46.646
45.635
44.4662
37.4773
38.9798
37.8655
45.2843
40.7496
43.829
40.8712
36.6926
34.5825
36.8499
37.6527
35.3193
36.1948
38.3955
31.0551
29.9365
31.0883
32.3741
30.1048
31.2706
32.1659
21.3618
15.3092
18.843
27.1591
22.3039
16.4907
19.139
17.5281
18.0327
16.3611
21.122
18.9509
18.7918
18.2094
17.3839
16.3836
16.772
18.536
17.6334
18.2046
18.1959
33.8424
35.2711
32.4277
46.663
44.24
45.1796
41.2314
36.7987
32.2873
32.2759
43.9209
43.0463
40.4372
38.7479
37.0346
32.3439
32.6299
42.613
40.318
38.3163
37.0549
12.4423
20.4008
34.1226
31.6363
22.8094
4.43623
33.8611
4.69906
8.26065
9.88454
2.51816
8.90608
2.36428
5.11404
13.9042
16.2454
14.2565
11.7313
14.1872
18.7222
16.0349
13.0281
13.5421
11.3131
14.4771
15.2627
15.5942
15.383
14.4156
11.1406
12.4281
15.6041
16.9195
15.6551
16.7611
32.9892
37.5348
34.1579
45.2619
40.922
41.4273
41.0353
31.8489
33.3489
31.6373
39.9743
37.8478
39.6978
36.5601
31.1859
30.934
28.9101
37.2745
35.786
35.5887
33.1555
27.5748
28.3632
25.7046
35.2258
30.6915
32.5334
29.9984
21.2914
24.7518
21.8809
28.7289
24.286
29.1765
26.6486
16.6063
21.1215
19.1361
22.958
19.5778
25.962
24.1526
13.1558
18.784
19.4788
18.8548
18.1368
23.767
23.2401
14.5423
19.9147
20.7696
18.3004
18.5144
23.0451
22.0281
52.7262
55.5592
52.391
59.1036
53.9863
58.0195
52.7264
46.2914
51.2667
47.0825
52.1229
46.3085
51.068
45.5823
39.1948
45.4632
40.293
44.0168
37.7783
43.578
37.3447
32.4949
38.5809
33.7011
35.408
29.2025
35.29
29.3638
24.7319
32.0861
26.9233
26.7295
20.5622
27.4756
22.3761
16.5589
25.1123
20.3862
18.8065
14.9393
21.026
18.5925
11.6344
19.2677
17.0939
14.2341
12.6591
18.2258
17.6559
10.2088
16.7283
16.2478
12.3918
11.5589
17.5455
17.3365
51.6641
50.438
47.6936
56.9007
52.002
53.2202
48.407
47.0111
47.0676
44.9777
50.4355
45.2731
47.1299
43.295
40.6631
44.0984
40.7133
43.3794
37.4834
41.9632
37.2149
34.3025
38.5517
19.0634
35.4903
29.8479
35.3936
28.4069
27.9695
17.585
18.1173
28.0842
23.2882
26.5045
22.4354
21.6483
19.3256
19.5209
21.9509
19.4571
21.5219
19.4217
18.5694
19.0408
18.4426
19.1704
18.927
19.2054
19.8567
17.6178
18.4444
18.6765
18.8967
18.6852
20.1382
20.7893
46.0634
47.1325
42.6145
51.7797
46.8184
48.3622
42.4771
43.6682
41.6223
39.4657
45.5984
42.1626
41.1987
38.2642
40.2218
38.8885
37.2104
41.0036
36.8479
37.3737
34.6859
19.4088
36.4151
29.034
35.1464
27.6893
33.6796
29.3216
15.2519
26.7482
21.9896
25.6679
21.3984
27.7796
23.8315
15.7752
20.6515
17.7058
20.4673
18.5812
22.726
20.5784
16.3922
17.2532
17.1127
18.4821
19.4465
20.3915
20.6195
17.7862
17.3119
17.9937
19.8151
20.7209
20.746
21.0565
42.0463
44.4342
41.7585
47.569
41.4282
47.186
40.2637
38.4545
40.3396
36.9424
40.0914
37.1151
38.8199
35.2927
36.0069
35.9298
33.4128
36.2462
33.7569
34.2398
31.5469
31.2752
32.7893
30.3101
32.8983
29.6696
30.8801
28.4957
25.291
29.538
27.1042
28.4003
25.0034
27.7587
25.6845
20.7366
26.4477
24.697
24.0156
22.0334
25.1748
23.7916
19.4301
24.2853
23.3607
21.7867
21.5657
23.4268
22.3333
19.3379
23.0253
21.7362
21.5281
21.3667
21.9916
20.9487
53.279
56.6563
51.4315
18.6572
23.4741
24.5659
20.3268
45.116
49.7983
44.2272
23.2453
21.2945
20.4803
19.7273
36.2707
42.1806
35.7154
20.0656
18.7879
19.3134
17.1445
27.3348
33.5639
27.474
17.716
14.7471
16.3436
13.9158
19.5316
25.6343
21.0883
14.3816
13.6151
13.325
12.3924
15.0827
20.0657
18.5303
13.4279
12.7058
12.4214
14.063
13.3608
18.3485
18.0892
12.6745
12.1765
13.9772
13.6398
12.2525
18.0212
17.8329
11.9531
10.9652
13.4319
12.0569
50.6324
51.7185
46.9506
19.1489
19.857
22.8627
17.958
43.9054
45.7351
41.9476
20.0095
19.2414
18.0364
17.404
35.8162
40.5841
35.4955
18.6941
16.6321
16.9969
15.5458
27.9073
33.6278
27.6574
15.8837
13.5746
15.0576
12.9438
21.7508
25.8872
21.7483
12.9747
11.8957
12.34
11.1429
19.2646
20.7785
19.2835
11.8349
13.3189
10.9639
11.934
19.3198
19.3923
20.509
13.9118
13.6761
12.9236
13.7409
19.17
20.8236
21.486
13.5146
13.261
13.6913
12.7591
45.3881
46.926
41.0511
18.3578
17.6139
20.6225
16.0631
40.8518
39.8887
37.1628
17.6964
16.911
16.2088
15.7818
35.1529
36.2615
33.292
16.4892
15.1258
15.4601
14.39
27.225
32.205
28.2266
14.6018
12.9301
14.0353
12.8664
21.1948
26.8457
23.2221
12.4716
11.3069
12.5575
11.7798
18.8474
22.2706
20.9302
11.0561
11.8758
11.6469
12.5846
20.3247
20.9326
21.3987
12.8454
13.6127
13.1751
13.1998
21.5306
21.5257
21.7872
13.587
13.7405
13.0995
12.2197
39.9873
45.2797
38.7774
15.0356
15.9578
16.938
17.6837
36.0544
37.5176
34.2747
16.2192
15.5317
17.1291
14.1027
32.5059
33.2745
30.7237
15.4793
14.3572
14.4076
15.3446
28.4257
30.0776
27.7668
14.0098
12.9563
14.6768
13.1829
24.1897
27.0731
25.2074
12.6961
12.1348
13.1821
13.4075
22.1673
24.745
23.5344
12.072
13.0823
13.0554
12.3513
22.0579
23.199
22.2158
13.0935
12.9888
12.2226
12.0651
21.9255
21.9029
21.0094
12.9141
12.887
11.7163
10.3045
34.9637
33.2019
32.2649
33.5274
33.7015
34.8014
33.4305
33.0498
37.0313
17.7571
32.8805
34.1053
38.3775
6.02918
28.4199
27.7343
9.97587
3.51866
29.9295
26.4611
3.78372
37.586
38.7286
37.6524
39.6621
37.2437
39.3392
37.9734
35.7785
34.4816
36.1825
34.4606
35.8255
34.1545
36.138
33.5394
32.9135
39.6447
18.5333
39.2659
5.93942
35.9743
28.8008
3.52034
29.0646
10.9729
26.746
3.78722
31.4757
29.9239
28.9891
28.1935
28.84
29.1385
30.124
28.8684
24.4302
26.4185
7.1611
3.38195
25.499
25.2896
3.30933
23.7271
24.9026
8.01372
8.22099
24.7676
24.3957
4.78292
31.5416
33.2087
31.9213
32.9825
31.9435
32.7898
31.6056
30.286
29.1592
30.4379
28.955
30.6153
29.1169
30.2604
24.5568
3.3754
27.513
8.15253
25.4997
3.2995
26.3043
23.8827
8.1367
25.486
9.52354
24.5349
4.69876
25.5774
7.71758
13.0289
11.7007
3.04555
15.301
3.71009
6.01042
26.6233
33.4524
31.1097
34.2462
29.0633
34.802
32.1789
19.2225
18.1937
28.1627
24.2588
22.757
15.1825
28.0949
13.4413
31.9195
21.0475
37.0665
4.80715
34.8679
24.5321
8.40826
3.36103
14.2926
13.9244
3.81657
6.7522
17.0744
27.6378
35.5648
36.8672
34.3789
35.9586
33.2858
31.5253
20.199
25.2926
20.789
30.754
16.3125
29.0351
24.9151
4.35238
7.91276
8.21649
5.15403
8.21775
2.54556
5.19749
11.406
15.2161
19.7857
21.4907
13.3468
12.8273
19.5272
10.4749
11.1101
18.4018
16.9161
12.1498
9.45386
18.2078
5.44343
3.10715
9.83577
12.3435
3.00263
5.86054
11.3371
5.07535
5.75312
9.5426
10.5725
3.14845
6.04226
10.436
12.7256
22.6354
18.2661
22.9227
14.0828
20.7332
16.5977
11.7205
18.0027
13.9173
21.4633
10.6209
19.3752
15.2539
1.1258
1.36827
1.16805
8.4924
11.4736
8.68323
11.9155
1.06741
1.20902
1.20506
13.2352
13.1335
14.0395
14.8108
0.818155
1.08183
0.941214
11.2011
9.60825
14.1657
12.6069
0.663202
0.771534
0.653057
7.5786
6.62191
10.601
8.50898
0.554163
0.572441
0.538494
5.7642
5.26565
7.28443
6.98479
0.401379
0.490112
0.413325
4.46046
3.80674
6.91057
5.43647
0.219056
0.320181
0.23182
2.78563
2.22805
3.64901
2.45936
0.0995096
0.164231
0.113416
1.81613
1.87167
1.97476
2.80108
1.11987
1.67573
1.10139
7.85738
9.98164
8.06669
8.82571
3.62302
0.296241
0.389969
2.91298
3.95045
2.79956
0.284455
7.28027
0.40748
0.331556
6.89681
7.03614
6.77613
0.372604
7.35089
0.388124
0.407184
6.20581
5.90037
7.51759
0.398836
5.63668
0.276682
0.318574
4.35636
3.96977
6.15252
0.287591
3.42623
0.187641
0.202799
2.52799
2.33481
3.89705
0.182611
3.17248
0.170412
0.166911
2.15425
2.10096
3.19966
0.166401
2.19388
0.126226
0.136543
1.64933
1.43566
2.67132
0.124761
0.920987
0.06501
0.0758331
0.833328
0.758924
1.11144
0.0623197
0.128282
0.206558
0.195691
3.22843
4.15726
5.04572
7.38567
1.14525
1.74665
1.16967
8.57549
8.20206
8.57945
8.06572
2.44563
0.279268
0.400771
2.34571
2.75244
2.2653
0.278922
5.46338
0.281276
0.217214
5.25527
6.20001
4.49319
0.236632
7.35134
0.420781
0.369461
7.47782
7.56629
7.16087
0.39867
7.06374
0.376287
0.396636
7.24434
6.94781
7.28146
0.38262
5.91086
0.252164
0.301705
5.874
5.54168
6.18219
0.274647
5.49558
0.219141
0.239309
5.24476
5.20391
5.58097
0.236907
3.86213
0.167455
0.204251
4.24243
3.64944
4.44649
0.176045
2.59673
0.0855368
0.104837
2.17916
2.1182
2.50797
0.0974696
0.311338
0.359128
0.282602
7.33682
10.1913
7.47285
9.51931
1.28605
2.17828
1.26422
8.9283
8.20559
9.21178
9.15647
2.30746
0.287437
0.437089
2.18127
2.23188
2.20548
0.290212
3.21967
0.166418
0.156442
3.09257
3.56059
2.85121
0.153674
5.53609
0.273438
0.187239
5.68692
6.13354
4.89572
0.222059
6.42631
0.342672
0.300453
6.7007
6.71646
6.32452
0.31298
6.11442
0.295791
0.305692
6.33984
6.18677
6.26197
0.292413
5.70721
0.25867
0.264613
5.86376
5.73998
5.81697
0.257412
3.63434
0.181281
0.212781
4.69147
3.79385
4.54821
0.177669
2.15792
0.0929669
0.0975179
2.36372
2.39462
2.16292
0.0872934
0.20246
0.215984
0.187663
5.51271
6.44479
4.52877
5.95763
1.35462
2.2148
1.22818
9.88004
10.722
9.50351
10.1464
2.85262
0.293183
0.417693
2.47406
2.73958
2.53375
0.293032
3.98689
0.185267
0.200517
3.40237
3.71362
3.71132
0.195804
4.11978
0.178735
0.200548
4.12249
3.98064
4.36869
0.193774
4.23511
0.182844
0.159026
4.58353
4.91527
4.10139
0.155193
4.18614
0.226925
0.17473
5.03386
4.99794
4.40006
0.178699
3.2049
0.222234
0.172329
4.85957
4.69062
3.46806
0.165266
1.36742