/*--------------------------------*- C++ -*----------------------------------*\
  =========                 |
  \\      /  F ield         | OpenFOAM: The Open Source CFD Toolbox
   \\    /   O peration     | Website:  https://openfoam.org
    \\  /    A nd           | Version:  10
     \\/     M anipulation  |
\*---------------------------------------------------------------------------*/
FoamFile
{
    format      ascii;
    class       volScalarField;
    location    "2";
    object      omega;
}
// * * * * * * * * * * * * * * * * * * * * * * * * * * * * * * * * * * * * * //

dimensions      [0 0 -1 0 0 0 0];

internalField   nonuniform List<scalar> 
12920
(
195.631
174.936
143.833
120.721
103.651
91.4475
78.0381
70.9133
69.1177
69.1321
69.004
67.4458
61.9368
54.1087
46.193
40.0406
36.4047
33.59
31.4027
30.7236
157.083
244.306
239.34
205.77
154.56
115.293
92.9773
81.9307
73.8905
68.2193
64.3708
60.6593
56.5562
52.6542
50.0234
48.4828
47.7739
46.129
45.352
42.8384
88.364
188.967
199.208
188.375
147.953
127.47
114.132
102.57
89.139
76.5549
66.9341
60.4663
56.0323
52.6475
50.4104
48.7225
47.8392
45.7248
44.373
40.4335
160.938
197.833
181.98
159.103
138.651
127
113.73
102.177
88.2328
74.9219
64.106
56.4865
50.4137
45.3574
41.5866
39.8526
39.4755
38.7267
37.877
33.9832
311.859
227.247
189.653
162.36
141.246
129.831
117.789
108.969
96.9688
82.7812
70.1972
59.8599
50.9911
42.4077
34.2093
27.9311
25.0013
23.7429
22.9455
19.8518
142.937
192.784
191.909
172.279
149.88
135.184
118.223
105.734
95.3326
85.2315
74.8829
64.2707
53.5169
42.1453
30.4021
20.7359
15.1771
12.2863
10.9442
8.00679
222.862
283.103
260.451
204.017
162.996
145.798
129.469
112.37
98.1954
88.0652
77.1439
63.3982
46.5087
30.5502
20.1748
16.7744
16.0203
15.599
15.7297
13.9128
185.143
294.135
244.032
201.3
161.475
142.989
219.891
183.943
170.521
149.051
135.197
112.406
80.8931
50.0619
27.0803
29.9421
32.0859
32.1853
31.5871
25.871
110.462
224.607
210.214
192.104
158.919
221.952
307.056
290.928
310.706
275.22
230.023
204.091
166.663
112.337
54.7251
44.8434
45.9868
46.299
45.1963
36.4946
101.319
183.946
182.822
180.304
168.292
251.256
301.939
234.018
300.968
306.134
263.726
232.88
209.75
142.059
92.693
59.7295
55.649
52.5934
50.2675
41.6976
306.124
202.603
189.972
185.247
169.371
250.928
302.959
179.409
223.719
279.779
278.919
263.817
236.488
151.518
88.5555
53.781
53.208
52.4629
51.0154
44.348
100.552
173.943
188.06
178.072
152.753
217.36
283.95
192.714
192.132
189.407
231.449
245.144
221.27
134.782
91.4967
63.7651
62.5871
59.522
55.9904
45.097
112.77
200.276
187.99
155.435
133.731
112.486
160.106
125.902
121.387
114.894
102.404
96.372
98.0577
103.118
61.4496
54.9501
52.1116
50.5532
48.7846
40.6513
246.716
256.865
192.425
146.838
118.624
101.299
91.786
82.4127
77.2455
71.3378
67.5754
63.5939
59.7348
54.9264
49.9508
43.6435
38.7681
35.2021
33.4875
30.5593
183.972
272.944
207.019
148.229
105.865
86.6851
80.0239
75.4666
70.8859
66.1803
61.7282
57.5315
53.0874
48.3836
43.9467
39.4794
35.6519
32.8859
32.0376
32.4538
201.092
253.624
222.564
187.65
129.376
101.353
85.5818
79.4521
71.9112
66.9481
61.45
57.1756
52.7131
48.4899
44.577
40.4661
38.0315
34.3019
32.0055
27.6568
373.866
199.138
179.492
158.754
126.934
106.761
92.9799
84.5972
74.8293
67.6233
60.2917
54.9857
50.8728
47.3913
43.6217
39.2122
34.1133
28.6988
23.8141
19.0331
227.359
171.447
168.019
163.305
148.444
130.835
112.231
101.225
89.8077
83.934
74.9034
66.0156
57.6836
51.1384
46.6655
42.964
40.2413
36.1196
34.0292
29.1566
214.307
175.458
138.807
142.941
136.4
118.855
99.2325
85.3048
73.0187
68.4285
63.2904
58.8229
53.2082
48.5055
44.9101
41.2599
38.1234
33.9928
32.1131
27.936
161.139
131.796
134.094
127.919
109.012
92.0686
78.0134
68.1691
59.3674
51.9674
45.9215
42.322
40.7375
39.6568
38.3502
36.3616
34.8194
32.4435
30.5707
24.4465
130.928
112.339
71.5522
54.0011
47.0911
43.8234
41.5873
41.83
42.2788
42.3498
41.8482
39.9228
36.5992
32.5226
28.5138
24.9099
22.3574
20.4732
19.8469
18.8761
215.4
185.024
125.563
132.237
130.654
104.975
75.4889
58.4743
49.2944
43.2865
38.994
35.2531
31.8899
28.8616
26.5306
25.1766
24.3525
23.613
23.0041
22.6611
591.787
274.898
125.885
101.654
92.4875
83.1866
74.1364
64.8424
55.4376
45.0313
37.6422
32.7622
29.6067
27.294
25.6065
24.6115
24.027
23.2781
22.2976
21.7549
285.397
124.194
98.0753
85.8124
79.6225
72.9858
68.7857
62.2954
53.8478
43.2164
35.1748
29.888
26.5707
23.9204
21.9054
20.7713
20.4723
20.024
19.5859
19.5201
230.484
150.24
107.32
90.7393
87.1132
82.6747
78.8487
73.1354
62.9248
48.1689
37.3829
31.1472
27.9092
24.4261
20.3992
17.2369
15.5847
14.8775
14.6789
13.1001
184.239
178.397
121.535
97.6517
91.0091
85.7063
80.2041
72.5617
62.0637
49.7243
39.9919
35.2285
33.0978
28.1919
20.2054
14.1694
10.943
9.09914
8.34127
6.35995
206.069
247.726
181.783
110.924
92.1278
82.8936
73.5721
68.8701
63.3737
55.9146
49.6914
42.0103
30.2239
19.4965
13.2745
11.1997
10.8999
11.0335
11.7416
11.2962
410.191
332.12
155.901
109.994
96.3754
81.5331
80.396
69.523
63.1066
60.3089
55.4044
45.4984
34.7274
20.2219
15.4546
15.7185
17.0785
17.7443
18.4388
17.1874
217.614
175.242
130.789
100.519
88.8469
88.909
79.8918
63.6122
59.8954
59.7339
58.2366
47.5812
41.5545
33.9876
22.673
24.7088
25.8411
25.5961
24.7649
20.9763
102.97
143.311
128.044
107.05
96.3086
100.959
90.9324
60.3569
52.8123
52.1032
52.1181
47.4893
42.8608
37.1079
28.1526
29.2075
31.5476
31.8208
31.6714
27.7004
381.299
205.777
116.995
101.145
89.7708
97.0733
92.8562
60.6642
49.6301
48.3153
51.4171
51.5128
48.6607
42.5936
34.0082
31.8205
31.8468
32.1535
32.3257
30.1111
188.163
142.929
112.797
89.6458
73.1736
75.2029
72.4134
56.6786
47.1788
44.9341
47.3346
50.4157
53.1388
49.0321
35.8791
30.2003
30.8644
31.0346
30.9106
28.5839
149.391
154.602
102.109
86.4503
71.5077
57.4349
57.7173
49.2814
41.3044
38.9452
38.4474
38.4403
37.1111
33.352
27.1268
26.2773
26.1815
26.2864
26.9095
25.7001
319.402
171.461
114.767
104.134
84.4216
67.0091
53.8768
44.9823
39.4397
35.7729
33.729
31.6279
30.053
28.4275
27.2033
25.7483
24.8486
24.3798
24.3303
23.3308
201.696
188.046
98.8925
97.4244
75.9789
54.2208
46.2735
39.7263
37.2459
34.5164
33.1219
30.996
29.6015
27.6041
25.9669
23.9051
22.33
21.1999
20.864
20.4535
175.221
150.574
101.905
90.1645
75.6758
58.4378
46.5264
39.5668
35.9312
33.63
31.6316
30.0032
28.1696
25.9871
23.7968
21.3654
19.8285
18.0913
17.2245
16.046
340.837
127.717
91.7233
74.1954
61.3297
50.4064
43.1809
39.3574
36.1198
34.3452
31.8472
29.528
26.8787
24.7368
22.6341
20.7026
18.9396
16.953
15.7558
14.1875
150.461
162.033
114.268
92.6688
73.7355
62.2654
51.3204
45.8255
41.6949
40.8767
39.7346
38.4299
35.4607
30.8176
27.0746
25.1385
24.378
24.1953
24.7555
24.6013
247.506
170.323
127.492
102.413
79.8492
61.0576
47.7184
39.7262
34.197
32.264
31.0642
30.2528
29.0039
27.4186
26.0466
24.788
24.1693
23.6681
23.3522
22.1423
137.697
74.7177
68.7535
61.6756
52.4016
46.3737
40.2935
36.2764
32.0923
28.5373
25.4696
24.0063
23.1771
22.506
21.6483
20.7894
20.0261
18.3251
16.5056
11.9166
106.78
102.258
75.5019
66.5065
57.126
53.1284
50.7484
49.7142
48.0741
46.2583
44.1354
41.3887
37.861
33.6267
29.6411
26.2616
24.0508
22.2327
21.4869
20.0797
279.748
152.279
106.623
93.5233
89.4657
74.7925
57.2922
47.9063
41.4912
37.8575
35.2736
33.1383
31.1813
29.3237
27.9737
26.9204
26.1138
25.4589
25.26
24.8695
281.073
155.307
102.966
84.7967
75.957
68.1413
58.3061
50.8925
42.9449
36.971
32.6584
29.9648
28.2261
27.0124
26.1588
25.5067
24.8999
24.4438
24.1146
22.9897
184.468
137.333
89.063
71.4667
66.2451
61.1792
55.1492
49.0314
41.0886
34.4935
29.8493
27.0788
25.3883
24.2243
23.4
22.9028
22.6134
22.0914
21.1175
17.8553
181.154
178.034
108.124
76.9809
69.3955
66.5346
61.3571
55.0735
45.5333
36.7717
30.7818
27.2941
25.1134
23.0019
21.1159
20.0187
19.1181
17.2051
15.2388
11.5662
194.746
188.135
124.104
81.7126
71.1738
67.2403
61.3581
55.333
46.4714
38.4754
32.3265
28.654
25.8249
22.3963
18.9964
16.1138
13.0067
10.4551
9.39749
8.21958
253.782
218.198
127.324
82.3144
69.476
64.7774
58.483
54.7763
49.1879
43.1904
37.3328
30.0931
22.8921
17.0549
14.0453
12.2956
11.6734
11.6869
12.5461
13.0636
305.193
203.361
109.02
79.4621
68.443
62.4402
60.3824
55.4874
50.9973
46.8167
40.5883
32.4865
24.088
17.4453
17.5618
17.2277
17.537
18.307
18.9473
18.4383
98.5717
146.531
126.017
80.5119
62.7124
61.0128
59.1845
53.6088
49.9288
47.1837
41.887
34.379
29.0736
22.9756
23.0859
27.2675
27.21
25.8001
24.7384
22.2105
108.636
150.427
119.197
85.3685
66.7476
61.2927
56.6176
49.373
46.2222
44.4054
41.8784
37.3219
33.394
29.833
29.0892
32.7548
33.2746
33.4848
33.2229
29.3426
258.041
152.319
111.238
83.6784
65.6177
60.7353
55.4442
46.7207
43.4888
42.7823
114.113
81.6086
49.5008
40.8763
37.4141
37.2775
36.5511
36.466
36.6094
34.6505
140.821
133.645
98.2127
73.5787
58.23
54.0766
50.5143
43.1419
40.2368
40.0887
44.5835
47.4284
46.747
42.6292
34.9371
34.8045
35.2341
35.312
35.0976
32.8005
199.401
117.402
81.9038
66.547
56.4118
45.7337
43.4942
39.744
35.8772
35.3048
34.6441
34.5034
33.0289
30.4998
28.331
28.1683
28.5829
29.1941
29.2859
28.0248
450.968
135.708
88.4053
73.6745
60.8657
48.8043
41.4154
35.9412
32.9272
30.4556
29.1893
27.8557
26.9118
25.9399
25.4481
25.0501
25.0523
25.2602
25.7514
25.7985
372.55
287.116
102.995
62.631
52.4563
40.1929
37.3861
32.9667
31.2417
28.98
27.792
26.3467
25.4437
24.405
23.6758
23.0852
22.8771
22.8746
23.2401
24.0202
335.027
207.599
98.7405
63.9054
52.6738
42.3455
36.6833
32.9474
30.3837
28.5592
26.7675
25.3515
23.8734
22.5674
21.4759
20.7075
20.4868
20.5075
20.7925
20.8378
224.059
142.125
84.2283
64.0514
51.8729
42.0183
37.0424
33.3642
30.6081
28.809
26.3816
24.5732
22.6408
21.251
20.17
19.3592
18.7446
18.6814
19.1459
18.8803
133.793
131.012
119.789
84.9054
64.8182
53.055
43.2199
38.5673
34.59
33.4854
31.2423
29.4392
26.7533
24.6758
23.1447
22.326
21.7169
20.721
20.1672
18.7023
251.332
130.373
103.438
77.4242
63.4821
51.3977
41.3858
35.9056
31.3225
29.6639
27.78
26.5555
25.0368
23.7256
22.6352
21.4672
20.6371
19.4133
18.6103
16.223
104.968
86.2081
79.4289
68.203
57.8787
50.2003
43.7179
38.5403
33.9875
30.5343
28.1201
26.6972
25.5486
24.3552
23.0515
21.6044
20.1004
17.8552
15.9431
11.3227
90.7994
95.0559
79.8102
69.9005
61.2218
57.6745
55.1171
52.9218
50.1949
47.2347
44.0048
40.3003
36.3086
32.1504
28.7004
25.9598
24.1802
22.5421
21.5032
20.7979
212.456
155.6
114.504
79.8659
73.5226
62.9653
55.3057
49.8294
46.0959
44.1509
42.8113
41.7052
40.8248
40.0989
39.6494
38.7899
38.0074
37.189
36.8772
36.9069
147.71
152.383
117.018
78.4984
71.527
62.4581
56.2759
50.0694
44.6793
41.0384
38.8541
37.7286
37.3242
37.1516
36.9837
36.5155
35.9501
35.7557
35.901
36.6562
274.516
180.696
96.3725
68.4223
65.7637
57.721
53.4538
47.1995
41.6634
37.488
35.2355
34.3748
34.4005
34.7666
35.0342
34.9205
34.7125
34.6558
34.2023
34.2639
362.244
219.692
114.568
72.1402
66.8139
59.6658
55.8908
49.4354
43.3912
38.3479
35.143
33.5336
33.4592
33.7579
34.0458
33.8264
33.1335
31.7693
30.2805
30.773
381.256
217.452
117.706
73.163
66.8145
59.4314
56.1426
50.318
44.3593
39.0994
34.7915
31.9593
30.7348
30.7317
30.4068
29.4275
27.3883
26.0723
25.7758
27.3506
238.013
185.498
112.472
72.9819
65.8764
58.7176
55.2417
51.0591
46.5413
41.1698
35.6831
30.4477
28.1129
27.0042
26.342
24.9985
24.2586
24.3855
24.9084
27.7678
238.545
140.931
97.4794
68.0067
63.0432
57.8744
55.4071
52.2247
47.9794
42.3071
36.8443
30.9582
27.7677
27.0795
29.7322
27.4667
26.3563
26.4179
26.7396
28.5158
202.67
163.525
105.002
67.7182
56.7444
55.2906
54.888
51.8538
48.0598
43.8001
38.6029
34.1845
31.9655
32.7056
36.0093
36.0728
32.8582
30.4464
29.0637
29.0468
154.18
152.248
114.844
74.8518
58.2226
51.9034
50.4133
49.3226
48.0574
45.7038
42.7327
39.7119
39.6404
41.7303
44.998
45.8509
43.5759
40.7242
37.9441
33.5498
254.257
158.784
106.636
74.2426
57.9834
50.9534
47.3446
46.1472
46.5143
47.0744
73.8029
61.841
52.1479
50.1524
51.8267
50.7561
48.6923
47.4489
45.7837
39.3631
237.038
123.512
88.2062
66.1118
54.76
48.9999
46.0773
43.7157
43.9206
44.3696
46.7958
47.826
49.0576
48.3225
48.5201
47.4416
46.0823
44.6426
43.0269
38.4378
342.597
111.479
77.8243
62.0008
54.4784
44.4636
42.855
41.0795
39.4255
39.9629
39.7538
40.2146
39.8381
39.7239
39.1045
37.8917
37.8634
37.8172
37.9983
37.7882
395.761
137.594
82.3127
61.498
55.0674
43.8007
41.2571
35.835
35.0753
32.548
32.8393
32.1101
32.4248
32.4041
32.844
33.253
34.2332
35.9307
37.7947
40.0419
271.341
231.7
119.141
58.4877
48.2196
39.0197
38.748
34.0175
33.2557
30.6923
30.384
29.4836
29.6202
29.8615
30.5207
31.3799
32.9265
34.6077
36.5311
38.1166
470.938
250.247
111.19
62.167
49.952
40.2099
38.3944
34.1677
33.1937
30.8102
29.7972
28.3995
27.9582
27.8291
28.1118
28.8093
29.8374
31.1551
32.3382
33.9388
278.312
132.805
83.5371
62.9043
51.7029
41.979
39.3883
34.2405
33.084
30.3705
28.8637
27.1531
26.4667
26.4884
27.2326
28.602
30.063
31.5862
32.6247
33.8751
224.985
145.119
110.139
77.7527
64.9216
51.4419
45.3553
39.7599
36.9214
34.5701
32.4992
30.853
29.499
29.2238
29.6263
30.607
31.4351
32.4251
32.8335
33.4881
199.374
116.78
94.921
71.0289
63.3279
51.235
45.3744
39.8451
36.2647
33.9772
32.2044
30.9182
30.1551
29.5754
29.524
29.4672
29.1544
28.736
27.8774
28.5773
129.491
98.5712
80.3081
70.384
58.9278
50.2907
43.7324
38.1102
33.6864
30.3983
28.218
26.5855
25.2172
23.7919
22.3625
20.6989
18.814
16.2346
14.1505
9.85642
59.4355
89.9
77.9722
66.3913
60.6114
58.1546
55.1869
51.8789
47.9888
43.3555
38.3371
33.5514
29.8524
27.0288
25.052
23.5116
22.3686
21.4224
21.0581
21.3493
164.368
167.617
145.182
82.0666
82.8816
65.6765
74.1358
64.6549
67.9049
62.9815
63.3362
60.5306
60.1751
58.9183
58.392
57.1161
56.2326
55.2817
54.821
54.6214
239.044
160.533
139.19
82.8981
88.2257
66.847
70.7724
59.2376
60.6522
55.6531
56.0778
53.9188
54.1833
53.5037
53.5469
52.9055
52.5191
52.1331
52.133
52.1613
274.528
191.045
115.377
76.5714
82.141
61.2157
66.9741
54.9262
56.5661
51.1041
51.7475
49.935
50.7811
50.6916
51.4587
51.4446
51.4657
51.5539
51.9758
52.8633
295.629
185.178
130.413
77.1726
84.6631
63.4183
67.3425
55.8548
56.2053
51.1073
51.2822
49.727
50.5979
50.6219
51.1987
50.8182
50.6672
50.7308
51.3199
53.8298
292.053
179.092
124.341
73.6948
82.0705
63.1311
67.9164
57.3811
55.9926
49.8726
48.5324
46.4428
46.9691
47.6427
48.1163
47.7574
47.0465
47.2644
47.8933
51.5625
264.07
193.758
133.056
78.8153
84.9556
64.3383
64.8337
59.0184
55.6845
49.6884
47.0583
44.7591
45.1411
45.1228
44.449
43.0856
42.7316
43.1211
43.6842
47.4367
203.24
150.178
118.486
72.2491
79.874
67.2721
61.3211
56.8998
53.9261
48.4038
46.6849
45.1522
46.8315
46.9688
44.5052
41.3151
39.8656
40.3201
40.7099
43.5878
201.309
161.24
119.279
71.0569
67.8529
61.4637
61.707
57.0883
54.521
51.0671
49.927
50.711
52.9881
54.1111
52.5992
45.9671
42.4362
40.1559
39.7826
41.1946
305.736
181.114
136.694
78.5124
69.9815
57.1309
58.0732
58.6256
57.817
56.4573
55.9065
57.3419
59.6767
60.8663
61.0434
56.8767
52.4711
48.0872
45.3704
43.577
210.726
153.832
122.526
78.2013
66.3781
55.1519
54.611
57.186
58.3734
58.6019
61.1701
61.9457
64.6256
65.2863
64.7507
60.4208
58.0429
54.4514
51.0424
47.0376
313.342
142.733
102.509
77.6679
66.2846
54.4087
54.2079
55.9211
56.9505
57.34
58.595
60.6306
62.8856
63.8179
62.4881
56.0581
53.8608
51.3152
50.3119
47.6671
295.636
143.467
89.121
82.3501
63.1908
55.2501
53.1489
49.3927
50.0382
50.3879
52.2709
53.346
54.6743
54.7986
50.5344
48.6725
48.5687
49.0347
50.1688
51.1063
345.073
156.798
86.015
77.4634
63.3279
51.358
54.1029
42.6092
44.6
39.5637
43.0349
41.4483
44.0717
43.912
45.0744
45.3451
46.974
49.3659
52.0671
54.6627
202.522
196.675
106.192
83.5326
56.8287
54.8078
48.3066
41.3142
41.3648
37.8404
39.6133
38.6778
40.5945
40.9457
42.4568
43.5095
45.557
47.631
49.5812
51.2873
391.717
198.944
113.215
78.9194
59.6834
50.8098
48.7971
41.4075
42.9133
38.5435
40.1466
38.0949
39.6783
39.169
40.5278
40.8644
42.2242
43.5848
44.9151
47.4336
271.066
146.915
88.4976
82.3595
57.6134
54.9281
46.8103
41.9599
41.7589
37.8685
39.2825
37.2449
38.8443
38.3311
39.779
40.473
42.2272
43.8974
45.0682
47.1437
240.487
147.043
107.749
78.8704
72.5352
55.1067
54.374
44.9221
45.7379
41.0632
42.6393
40.9611
43.0167
43.0263
44.7267
45.025
46.2477
47.048
47.8288
49.2513
195.262
159.285
94.0912
84.6336
71.4228
57.1045
56.0469
45.9622
47.2272
42.6722
45.3409
43.9773
46.614
46.8154
48.8678
49.2364
50.2542
50.4883
50.8778
52.3271
133.903
125.395
84.5767
66.7542
56.4841
47.9908
41.5865
35.6008
31.5347
28.3404
26.2712
24.1957
22.5579
20.8423
19.252
17.4729
15.7122
13.7872
12.4191
9.89983
42.7302
45.0252
143.135
44.6072
42.3126
46.6212
135.472
38.483
142.621
87.5079
41.4665
38.6729
133.947
80.6058
111.45
41.1384
49.403
45.2177
108.352
43.5303
51.2454
94.3768
52.7271
56.975
107.689
82.2985
53.1739
54.7422
270.307
292.532
242.836
91.4984
72.142
96.174
70.8879
313.133
252.572
300.861
69.1267
66.5137
65.9761
60.1517
291.103
308.24
309.04
66.1042
66.4487
59.5001
59.2181
240.481
304.118
267.32
66.7578
67.571
59.4961
60.1754
208.486
252.705
220.81
67.1346
60.2804
60.0663
55.9896
180.932
218.994
212.456
55.7327
49.5863
53.9586
48.7514
129.983
201.137
152.994
48.4085
45.0888
47.9167
45.4984
83.5042
137.809
100.01
40.5823
24.1449
43.7797
32.288
228.728
309.727
194.621
109.471
72.4249
118.327
75.0079
288.925
191.863
228.372
66.1336
58.9233
66.4397
55.9968
308.676
248.278
288.839
58.258
57.7288
55.1256
54.5488
277.329
293.077
287.514
57.8736
58.241
54.677
55.1349
235.004
279.904
264.986
58.1184
54.9424
55.285
54.4007
223.911
261.18
246.78
53.5373
49.5481
53.8016
52.8963
157.015
231.667
165.351
48.5662
44.2178
52.2556
46.6938
107.517
152.754
132.491
42.1355
32.6145
44.0282
35.9804
188.737
302.323
198.566
113.315
76.4793
102.643
74.8658
201.128
184.14
179.739
66.8454
54.7901
66.1924
53.6677
271.42
180.232
197.398
53.8411
53.5108
52.4586
50.2348
284.055
212.973
248.555
53.7101
55.0438
50.2972
52.128
266.202
253.713
258.56
55.4816
55.4795
53.2041
55.3345
250.758
257.998
247.063
55.0846
54.3098
55.5193
56.7736
164.936
233.192
162.122
54.0541
50.1302
58.2533
57.174
130.46
146.353
111.315
46.7412
37.3213
53.3412
41.3563
200.265
307.633
206.464
86.5248
68.8686
83.3326
68.0629
194.012
196.916
191.472
63.6402
53.5276
64.5739
52.2956
183.664
192.187
175.561
52.0063
48.778
49.4567
44.0924
224.109
167.198
142.326
48.78
50.8083
43.9231
45.0838
245.142
137.374
126.772
52.1433
55.1764
45.8874
49.7907
234.72
123.683
115.886
55.7327
59.2967
50.4512
49.679
151.979
114.275
132.565
60.3784
58.3903
49.1596
44.7177
106.494
143.14
146.801
53.9409
41.9158
42.6896
35.7583
66.3649
82.0151
64.2676
62.7069
56.4644
60.4406
53.0847
60.6411
60.2314
54.708
55.0281
52.4202
51.4108
48.3866
59.7151
53.9889
53.5289
51.5001
50.2661
47.7728
46.5741
59.3452
53.7204
54.114
49.539
46.9109
46.2499
44.5371
51.0727
53.8226
49.4551
44.8544
38.8575
43.5226
39.4269
42.5744
47.6169
43.0224
36.5849
32.7352
38.0134
34.4687
37.9934
42.2961
39.7634
31.3316
26.1362
33.6546
30.6234
22.2654
37.895
29.8396
24.0455
20.3845
29.3826
26.3885
65.3995
96.2721
67.2756
61.6207
52.7927
62.4231
51.6854
53.632
60.5776
51.549
50.8238
47.4209
49.3489
45.3544
52.0352
50.4381
49.0421
46.792
45.58
44.6378
43.5241
52.3297
49.079
50.4622
45.2999
43.9961
44.075
71.6264
48.8386
50.8532
49.9306
43.2495
39.8301
73.0451
61.7994
43.7575
49.1036
47.259
38.626
35.4029
54.0355
42.4711
39.0598
46.5415
42.2157
34.5125
31.3161
40.9023
36.8281
30.0826
39.9
33.7384
30.1652
27.1337
35.2625
31.9444
68.1308
85.6875
65.9366
61.4611
51.2007
58.3021
48.4087
50.7643
58.8117
48.8944
48.7167
44.7214
45.7968
42.1812
48.3013
47.8767
46.1336
44.0369
42.9745
41.7682
41.2138
50.4812
46.1148
47.3751
43.1563
69.3504
41.3236
46.5795
51.9331
48.5054
50.9607
72.545
71.3296
49.3507
53.4213
49.2776
51.1156
51.4788
65.8582
49.8917
53.404
50.2312
45.1934
51.9847
50.8712
47.1139
41.5866
48.9848
45.5952
35.1183
48.2221
39.0982
39.7645
34.5316
43.7384
37.427
60.8708
68.2036
60.3935
53.9095
46.8087
51.5326
46.2979
48.5708
57.2715
47.055
44.9165
41.4215
44.4615
39.4138
44.9266
44.7771
40.8938
40.818
40.2518
38.2107
36.8176
46.3235
40.8708
41.8179
40.3361
42.5979
36.9221
37.492
49.9304
42.5704
45.707
43.9869
46.644
37.8006
39.0949
52.6052
46.4211
46.338
46.9435
46.9368
39.4869
39.3542
51.9453
46.0531
42.117
46.6751
45.0226
39.1085
36.0878
39.6848
39.865
33.3625
43.0674
36.7842
34.7073
30.3596
54.8114
56.6116
51.3071
55.2305
52.7413
51.8821
49.8193
50.9803
50.1113
47.6811
51.7993
49.1329
49.4316
47.9347
48.2694
47.0726
45.5574
47.9655
45.3001
47.31
45.2105
43.9726
45.0494
42.8209
43.7926
40.0305
44.4065
41.6657
36.4774
41.7586
37.8579
38.1882
34.2227
40.6953
37.6705
30.347
36.5392
33.192
32.7411
29.2402
36.7491
34.9264
24.3043
32.3749
29.6581
28.7744
27.9114
34.7181
35.0371
20.8349
28.7455
26.7988
28.2862
28.782
35.2949
36.2339
50.7441
56.0825
49.0225
50.6988
48.9394
48.5032
46.4029
46.793
47.4617
44.6589
48.5957
47.4765
46.1501
45.7228
44.8314
44.1199
43.3537
47.0043
45.2809
45.5867
45.2605
43.6232
43.93
43.8114
43.9897
43.7559
43.404
43.6322
41.772
40.8588
42.8715
41.107
42.05
40.0936
42.616
34.2466
63.0853
42.8064
37.7826
36.1455
61.3414
45.0517
30.6747
40.8243
36.7238
36.0224
36.4865
43.7255
42.2659
27.6347
35.4072
32.7246
36.7714
37.5112
42.157
42.7659
48.3621
53.1157
45.6395
47.8669
45.5766
46.508
43.3624
43.9868
43.852
41.4404
45.3162
45.0514
42.9824
42.8132
42.8414
41.1757
40.9068
44.9934
45.0518
42.9027
43.16
116.323
72.3462
43.8852
51.692
62.5113
314.648
46.514
158.133
113.598
102.079
248.144
103.605
229.343
162.867
53.4932
56.7624
52.4466
72.9398
54.7783
54.7857
53.4725
42.6479
50.7777
46.4257
51.9879
47.6079
52.6203
49.5263
35.6021
44.5308
38.3028
46.7534
45.1256
48.4112
46.0808
44.5438
48.7004
44.2361
46.0656
42.9271
45.5572
42.651
40.6455
42.6956
38.6257
42.5412
42.1033
41.7208
39.7151
39.9609
37.6396
36.6997
42.1168
42.3419
39.2441
39.2719
43.0435
36.8208
37.2113
42.5018
45.0505
39.438
39.3295
47.1597
37.4172
38.3475
45.9891
47.1626
39.3404
39.6947
47.1136
38.6415
38.3673
47.4075
47.7968
39.8378
39.5917
44.5148
38.1122
35.4214
47.6963
46.0995
39.4743
38.4894
37.0799
34.3249
30.6891
45.2147
43.9226
38.2215
37.2714
52.8201
51.7564
50.3384
57.9659
55.4923
55.3957
55.1279
49.1884
50.0833
48.7498
54.432
52.2125
54.9741
53.9942
45.3157
48.1481
46.082
51.4735
48.9178
53.6136
52.2153
40.1003
45.281
42.702
47.8808
45.6742
51.6953
50.5338
35.242
41.8549
39.3984
45.6112
45.4108
50.3971
50.7358
32.0191
38.7583
38.1722
45.658
46.6908
51.1537
52.9775
32.3393
38.4559
39.8665
47.4492
49.0437
53.5136
54.8821
32.8407
40.1922
40.7564
49.1432
48.2973
55.1379
55.3305
49.4826
47.9621
46.9277
53.9892
54.6334
51.218
52.6727
48.491
46.9505
47.0746
54.701
54.3403
53.2044
54.318
46.3768
47.0405
46.6867
54.1044
52.9585
54.3911
54.2758
43.492
47.1311
74.8117
52.5322
51.4667
54.0585
56.2761
40.3837
75.0843
61.6694
51.2887
51.3809
56.7108
56.5417
39.266
54.9783
46.6102
51.7886
54.146
56.1612
57.9582
41.3221
46.2046
46.5392
54.8434
56.248
58.9424
60.4669
42.0845
46.7995
47.2306
56.5336
56.7453
60.6343
60.8363
46.1199
46.1403
44.1538
50.5317
52.0543
49.775
50.9541
46.4684
44.0908
44.4622
52.6513
54.0533
51.5083
52.9139
46.5634
44.6472
44.9833
54.2158
54.3967
53.2702
53.629
73.2157
45.2637
50.4056
54.4831
58.0315
53.7741
55.216
65.9275
51.6815
52.6191
58.5308
58.1971
55.6457
56.5836
53.4094
52.7743
52.9759
58.0046
59.7799
57.1454
59.759
50.4581
52.7999
51.5346
60.6183
61.8531
60.4758
61.6524
49.1808
51.0294
49.6768
61.9557
61.8618
61.7798
61.8231
43.8371
45.681
43.4853
50.2002
50.8361
50.4392
49.4576
43.8017
42.6319
41.1045
51.268
52.3458
48.7765
48.3786
44.2462
40.7817
41.1332
52.6722
53.08
48.6211
49.8564
46.1641
41.3005
41.1553
53.1591
53.9539
49.9263
50.3689
47.5716
41.171
41.6693
54.3012
55.4707
50.7761
52.3517
48.8628
41.8383
41.8584
56.094
58.4476
52.6385
53.5317
48.6845
41.8496
41.6236
59.0962
60.2378
53.8453
54.7428
47.8005
41.5891
41.018
60.3777
60.6516
54.8247
54.6833
58.234
59.5569
58.9662
87.2891
80.6586
88.0324
85.6745
55.3483
58.6542
57.5582
79.1108
81.1991
84.436
82.6411
52.062
57.1859
55.9529
78.1696
74.6477
81.6944
82.297
49.7622
55.5506
54.9436
73.2454
74.6301
82.4905
82.3283
50.3076
55.0226
55.9124
72.8974
72.9727
81.7713
80.2989
52.1192
56.3445
57.9304
72.1547
73.849
79.3599
76.9633
54.1309
58.4296
59.4962
73.1471
72.9077
76.6381
76.0316
52.4828
59.636
59.0423
72.0816
69.6387
75.7632
73.8125
58.6915
55.4761
57.1755
85.7563
85.3869
83.2229
84.4269
58.0522
57.629
58.4791
84.5352
82.9639
83.9457
83.7336
56.7864
58.4431
58.342
82.6515
85.0439
84.9185
90.5363
55.8733
58.1639
59.2253
85.5856
85.5096
90.8247
92.1058
56.7681
59.6552
60.5048
85.0132
83.2349
92.4091
91.0892
59.1352
60.7379
62.894
81.9512
78.1909
89.0623
81.9762
60.7011
63.4976
64.3036
77.4414
76.669
80.368
78.2459
60.5205
64.3462
63.9483
76.4744
75.2878
77.9059
76.4526
56.6219
53.689
55.699
81.3587
83.3145
77.4157
81.9841
58.3436
56.2225
57.3447
83.1078
83.4468
81.5922
80.8762
58.5414
57.6021
57.8651
84.7658
90.6851
81.1852
84.3863
60.6988
57.9997
59.1707
91.2292
92.6127
85.2205
85.2432
61.7112
59.5911
60.8962
92.5821
90.6805
84.9267
83.363
64.0813
61.5692
63.5528
88.7376
82.004
82.2002
78.7344
65.2845
64.0935
64.9169
80.4909
78.4671
78.1148
77.4139
64.8013
64.9883
64.6587
78.1768
76.934
77.3111
76.2234
55.5473
54.7426
53.356
78.9101
81.5602
82.8229
78.5312
56.7095
52.468
52.0463
80.8051
79.693
74.4988
72.2214
57.2626
52.4108
53.4539
79.4488
80.9415
73.1769
71.8668
58.1906
53.3737
53.9686
81.2331
81.2495
69.7478
70.2111
60.0564
54.4634
56.0952
81.0536
80.0581
70.7274
71.1542
62.389
56.305
57.2701
79.1884
77.0995
70.4093
71.3126
63.7372
57.5854
58.4232
76.8785
76.5678
71.5881
71.5879
63.6239
58.4263
57.9839
76.424
75.4296
71.3078
70.2583
43.5487
43.3788
43.4415
41.9988
43.6962
42.7532
43.251
48.8479
43.65
84.5204
50.5627
45.7404
43.8023
237.92
53.4534
50.1965
130.607
296.281
49.1437
54.2299
311.937
43.7994
44.0418
43.8693
44.7125
43.3629
43.9336
44.3413
43.6742
41.8385
43.107
43.7474
42.6354
43.3276
44.1458
49.2951
51.7503
45.0155
86.2111
44.2491
242.8
46.9808
53.9738
298.758
51.3137
127.646
54.7015
314.844
50.462
40.748
39.6875
39.8115
37.8254
41.0126
38.9765
39.4902
52.5822
49.9704
139.21
284.78
49.1951
53.6574
273.012
50.5268
44.7385
120.522
112.546
47.6247
46.1294
189.155
41.8446
40.9482
40.5615
43.1167
39.9724
42.6627
42.3545
40.8786
37.8538
39.6189
40.3558
38.926
39.649
41.4503
53.0501
286.455
50.9986
129.427
54.0957
274.45
50.2285
51.0498
114.61
45.5816
109.712
46.4849
192.481
48.5749
155.149
98.738
96.6112
269.744
83.6241
293.586
164.091
54.4524
42.4052
42.3885
41.4916
47.5157
43.1823
43.5203
69.6523
65.4587
45.4375
52.3854
56.9806
79.7442
47.876
114.174
53.22
79.1585
46.588
306.296
47.4934
67.0902
150.957
276.998
101.453
92.2639
300.345
155.879
85.6558
55.3275
42.2953
44.9785
45.023
44.0644
44.3936
50.9538
69.7906
52.7307
65.7221
48.2203
78.1237
48.6997
60.0031
151.278
110.466
96.3596
133.833
102.627
206.383
128.132
87.3751
71.4598
55.1602
55.7069
75.2053
85.0474
57.8366
87.2126
77.7093
56.2978
59.1156
76.6913
87.5404
58.5718
146.924
256.196
105.241
92.7123
236.421
153.188
91.4761
138.027
123.655
98.8935
81.7319
200.481
115.755
89.2931
82.6568
55.4337
68.241
54.1889
81.7944
56.9673
68.9002
81.8982
57.7433
68.8472
54.4393
81.5321
57.3752
68.6659
192.223
216.307
196.097
127.782
104.628
124.846
100.896
181.798
191.622
190.036
90.8012
86.249
87.9314
82.2342
160.215
184.233
171.741
81.508
79.6357
79.0972
77.1149
144.984
155.335
142.975
78.0687
77.225
75.8932
75.379
126.589
132.075
124.209
73.3896
70.5617
73.4803
67.6906
98.8638
113.984
101.621
61.9729
57.3499
58.1872
54.0949
63.7783
86.1743
68.8188
48.7955
39.7332
51.0583
44.4191
39.1328
54.2355
43.6459
28.9603
19.815
33.0632
22.3384
190.551
224.268
186.045
138.409
106.714
141.203
112.627
136.057
263.198
296.052
169.991
137.323
167.444
260.412
105.259
302.93
275.747
108.826
110.525
105.061
290.777
107.878
307.286
309.318
118.996
120.423
107.413
308.059
105.655
266.971
280.989
119.85
119.913
106.565
268.405
102.144
217.98
227.276
117.529
116.305
102.935
214.386
89.8578
196.644
198.552
104.77
101.688
92.9512
195.558
77.7001
158.906
170.777
84.8229
82.455
79.2395
160.468
62.411
102.432
118.718
65.8021
57.6899
70.0561
104.612
47.6777
67.6927
65.8459
27.8028
22.9566
32.0931
26.5149
202.784
259.161
210.563
154.66
131.307
156.573
136.337
152.983
256.275
302.651
181.341
147.734
183.658
254.383
92.0708
249.659
219.764
96.7235
95.6985
94.9131
229.176
100.899
307.604
286.166
101.837
103.027
98.5057
298.721
102.501
299.855
304.926
103.712
103.308
102.725
301.466
95.5967
250.351
272.696
97.6481
95.5031
97.7277
261.348
89.9606
231.653
245.156
89.407
88.3321
90.5353
243.291
80.9768
191.378
217.993
82.974
79.5508
85.7793
198.325
61.529
131.535
147.722
69.3803
62.4411
67.9664
141.938
88.4239
98.4067
89.443
34.4852
27.8547
37.1228
31.1896
206.023
243.715
201.311
151.592
129.111
146.786
120.255
164.467
248.021
304.939
191.395
163.611
189.942
251.681
85.3686
179.843
175.309
93.5513
83.6526
96.1151
171.868
80.3388
243.945
195.149
82.2113
86.6295
78.1173
217.482
94.243
284.599
262.735
96.1821
97.7282
91.888
271.111
97.1843
273.571
275.949
98.2638
97.3086
97.5158
272.286
94.9417
260.757
263.974
95.0798
94.5863
95.4014
261.762
96.0478
212.568
238.008
93.6133
92.3571
96.2896
214.141
68.1111
145.314
150.235
72.9083
66.4595
75.238
141.828
77.9335
81.0553
74.8212
41.014
36.0863
43.0628
37.2656
185.738
209.086
188.908
121.783
98.8707
118.396
97.4486
137.093
243.618
283.781
166.492
139.407
163.799
246.117
89.1714
192.474
202.379
95.5783
88.3057
95.6974
199.631
80.2755
185.014
198.043
80.8256
79.9717
80.9357
191.317
72.4646
201.498
175.63
74.7188
76.2977
72.3801
178.704
86.8333
237.884
202.583
88.7343
92.0955
81.353
208.037
100.08
244.083
210.502
96.8513
98.4268
98.21
207.127
104.903
200.041
181.199
107.961
107.847
105.895
162.669
66.3517
126.04
123.235
82.5061
70.7345
75.8555
123.08
85.6188
105.955
98.058
43.6907
35.4187
40.0961
31.5442
139.564
162.238
134.119
90.8589
77.1914
88.5264
72.5294
122.864
127.14
126.562
65.4401
56.9915
62.974
58.0573
119.711
121.956
115.574
53.6533
50.4384
54.9262
48.7806
108.562
114.806
111.378
49.3237
48.2737
47.7294
46.2013
97.7149
107.293
102.748
48.4413
48.3299
44.154
42.1023
96.5283
102.134
101.125
47.9684