/*--------------------------------*- C++ -*----------------------------------*\
  =========                 |
  \\      /  F ield         | OpenFOAM: The Open Source CFD Toolbox
   \\    /   O peration     | Website:  https://openfoam.org
    \\  /    A nd           | Version:  10
     \\/     M anipulation  |
\*---------------------------------------------------------------------------*/
FoamFile
{
    format      ascii;
    class       volScalarField;
    location    "2";
    object      p;
}
// * * * * * * * * * * * * * * * * * * * * * * * * * * * * * * * * * * * * * //

dimensions      [0 2 -2 0 0 0 0];

internalField   nonuniform List<scalar> 
12920
(
-276465
-149521
-95540.2
-16899.3
16376.7
64779
84715.5
106495
112548
119786
117337
114781
107356
99055.6
87924.3
75962.2
62229.5
48500.9
35535
22639.9
-259461
-88356.3
-92384.2
-12277.7
20310.5
71311
92016.6
112261
117966
124325
120968
117712
109802
100972
89398.4
77005.7
62892.1
48813.8
35543.5
22366.1
-578950
-90839.7
-74202.2
35083.5
61367.9
98255.2
109121
125577
127421
131436
127774
123450
114304
104577
92075.1
79027.1
64237.7
49583.1
35667
22190
-246782
8764.25
-17569.7
68978.3
85995.5
123521
132736
146080
143377
144534
138569
131931
121166
109922
96335.5
82130.4
66383.6
50775.5
36189.1
22130.3
-17426.2
125077
71913.3
130260
138065
160519
161708
169394
163813
160993
151942
142653
129761
116818
101587
86103.6
69057.3
52457.9
36813.8
21945.5
122965
254062
166244
194808
189445
201933
194736
195239
186979
179567
167309
154851
140013
124685
107941
90774.1
72434.2
54362.8
37647.1
21607.3
213967
324550
250223
264753
249141
249401
235643
228509
213457
201373
184514
169347
151635
133982
114521
95682.6
75728.9
56461.2
38325.1
21465.9
161819
381211
359397
348758
310204
300718
272722
257362
239120
221481
202618
184334
164803
145386
121044
100371
79345.9
58796.2
39789.3
21708.7
292720
478241
433881
422045
374035
346808
313426
289351
266322
244276
222064
200165
177858
155899
131316
105057
83134
61723.3
41418.2
22325.7
681466
632058
515848
490288
423802
392855
356126
323313
294671
267428
240856
215091
189789
165204
138333
110112
87149.4
64391.9
43413.5
23065.3
561777
734875
601375
583454
485012
444774
397164
357208
322180
289550
258794
229493
201378
174452
145449
115504
90886
67219
44976.4
23455.8
793301
746891
663326
623008
528552
485858
434273
387760
346983
309775
275340
243159
212695
183727
152677
120437
94223.1
69432.3
46085.6
24131
1.08026e+06
921350
738000
671933
560878
515751
455495
409049
364756
324342
286703
252488
219671
189100
153306
125263
97635.1
71512.9
47032.7
24356.8
759560
875252
671867
654249
563562
528862
463119
422046
371695
333012
291504
256856
221359
189949
158498
129851
100592
73516.2
47908.2
24388.4
1.12573e+06
917902
773832
687932
583590
540521
470805
429687
379342
341810
299576
264090
227727
195353
163196
133312
103258
75247.4
48449
24072.2
916719
774844
671659
653342
561737
537241
473770
438021
386523
349727
305910
270413
232725
200062
166854
136455
105529
76690.5
48901.5
23767.5
953230
822586
685489
641640
555271
534036
470757
438166
386675
352017
308081
273450
235843
203103
169513
138748
107223
77822.6
49479.4
23815.7
485306
622106
611097
604001
543369
526249
467820
437183
387190
353012
310224
275859
237969
205200
171351
140370
108383
78872.3
50389
24538.2
629248
648688
632850
609839
544749
522068
463776
435321
384794
352304
309875
276560
238665
206015
172216
141241
109276
79736.4
51409.4
25150.4
306229
564657
564048
590549
536775
518885
462995
435516
385672
353280
310716
277232
239420
206778
172866
141847
109860
80380.1
52062.1
25397.8
-371590
-124336
-96952.5
-20064
15880.7
64724.9
84183
106592
112703
119820
117334
114784
107324
99035.4
87925.3
75965
62214.2
48477
35499.6
22561.2
-106942
-73685.7
-95226.9
-13417.7
19205.5
70140.9
91073.5
111874
117425
123918
120877
117670
109764
100964
89395.7
77005.1
62884.4
48770.9
35485
22194.3
-574560
-27847.7
-79763.2
34682.5
60047
98145.1
108697
125516
127496
131670
127755
123419
114298
104573
92079.1
79026.3
64220.5
49526.3
35603.3
21972.2
-234617
16524
-19496.6
70818.7
87594.2
125207
132778
145453
143432
144639
138487
131882
121161
109912
96316.4
82117.2
66387.9
50730.5
36118.5
21901.3
-114968
115619
74081.7
131267
138595
161497
162919
169735
163909
161088
151863
142615
129741
116795
101563
86093.8
69051
52417.2
36757.5
21806.8
150535
268306
175028
196312
189798
202079
194418
195510
186988
179595
167307
154820
139960
124623
107887
90745.8
72423.9
54330.4
37608.6
21478.3
150947
322709
253709
263281
249335
249172
235870
228436
213452
201223
184612
169297
151522
133868
114469
95663.1
75721.9
56432.3
38261.8
21337.1
327268
398435
364953
349317
309767
299921
272217
258067
238909
221477
202621
184294
164767
145287
121016
100389
79372.2
58775.2
39691.1
21465.6
380060
499078
436569
422112
373024
345954
313229
289620
266557
244420
222117
200149
177852
155856
131246
105095
83149
61678.3
41313.4
22010.2
653999
631145
516428
491057
423108
391697
355566
323285
294823
267483
240875
215071
189792
165179
138222
110120
87151.4
64355.5
43349.6
22835.3
656222
744362
608915
583161
485311
444198
396869
357382
322204
289515
258815
229490
201400
174439
145375
115522
90873.4
67142.4
44931.6
23331.4
933796
767629
662442
622459
529121
486111
434411
387936
347163
309932
275491
243235
212731
183739
152551
120416
94209.9
69383.6
46020.5
23845.5
1.12832e+06
926254
736693
672377
561440
514762
455115
409757
365112
324556
286880
252536
219712
189081
153281
125245
97606.1
71468.8
46961.3
24096.4
943712
878475
674520
654219
563428
529216
463001
421951
371882
333421
291707
256958
221368
189958
158470
129756
100548
73488.2
47807.8
24173.1
1.08377e+06
910393
775435
684737
583358
540326
471252
429785
379725
342222
299866
264196
227734
195349
163143
133299
103228
75157
48339.8
23861.3
773726
759975
670926
648189
562376
537232
473401
437668
386757
349978
306153
270575
232719
200074
166863
136455
105405
76592.9
48799
23501.2
681928
809078
684361
641409
554496
534184
470284
438389
387059
352306
308370
273720
235839
203120
169526
138755
107186
77759.2
49345.2
23457.7
539625
643681
612257
604771
543451
525900
467682
437251
387538
353368
310403
275898
237955
205218
171287
140323
108370
78833.9
50262
24195.8
617296
655725
630502
609140
544973
522453
464117
435310
384871
352240
309900
276577
238581
205968
172165
141218
109258
79688.5
51316.7
24926.3
402198
596838
564734
592870
536534
518841
463138
435622
385811
353363
310787
277221
239394
206763
172856
141845
109870
80342
51986.1
25286.6
-331343
-117422
-101879
-23773.3
13336.6
63713.4
83348.7
106402
112430
119679
117354
114864
107305
99031.4
87933.3
75976.3
62208.4
48435.8
35441
22412
-146567
-70034.4
-97309.5
-11485
18607.4
69582.6
89468.6
111498
117000
123718
120743
117600
109727
100948
89388.4
77017.9
62892.3
48716.8
35391.9
21938.7
-459321
-38062.1
-90982.1
33887.1
57704.9
98003.8
108225
125542
127506
131836
127672
123394
114279
104561
92080.3
79035
64210.3
49448.1
35487.8
21645.8
-224392
11358.9
-10636.4
73097.5
90792.9
125458
131892
145119
143367
144695
138380
131854
121148
109895
96293.7
82111.5
66385.2
50668.7
36010.7
21603.1
-120754
119306
77481.6
131990
139366
163188
163214
169835
163868
161118
151738
142573
129729
116770
101531
86088.5
69044.8
52342.2
36639.7
21560.9
97180.7
265214
182108
197943
190508
202584
195232
195783
186962
179567
167287
154833
139912
124548
107813
90707.5
72404.5
54271.8
37488.2
21234.1
260824
340069
252753
262360
249261
248223
235885
228615
213576
201215
184646
169241
151379
133714
114400
95637.1
75726.4
56402.2
38191.1
21102.3
526395
434463
370235
349890
309100
299405
271709
257653
239017
221570
202725
184243
164699
145139
120965
100396
79408.8
58753.2
39567.8
21080.5
420992
505990
440091
423153
373434
345972
313005
290066
267017
244745
222274
200190
177889
155758
131168
105120
83182.3
61650.3
41199.7
21504.3
780188
651534
515995
491789
423361
391764
355213
323805
295197
267777
240894
215116
189867
165145
138195
110152
87143.7
64325.6
43266.7
22287.9
844053
752457
612168
581750
486315
444746
397282
357751
322447
288672
258973
229644
201512
174454
145355
115518
90852.6
67081.4
44794.6
22891.5
950782
783796
663956
623363
529924
487304
434990
388308
347459
310362
275870
243396
212814
183733
152413
120400
94240.7
69363.8
45966.4
23397
1.2329e+06
936853
737245
674048
558645
515422
455119
410866
365623
325063
287215
252612
219739
189059
153281
125253
97583.6
71418.2
46837.2
23638.2
985565
875789
675963
656102
563346
529178
462405
421886
372232
333979
292003
257133
221398
189990
158469
129709
100503
73421.9
47691.4
23771.1
1.17914e+06
906901
774869
684907
581834
540690
470248
429587
380703
342689
300046
264453
227766
195389
163104
133272
103185
75058.5
48221.1
23449.4
689712
746415
669758
645898
563110
537275
472883
437306
387106
350049
306320
270870
232815
200157
166864
136483
105343
76530.9
48735.1
23071.4
911900
835521
689694
642485
553470
534910
468828
438186
387921
352445
308529
273979
235985
203195
169579
138820
107181
77684.5
49205.7
22937.6
630236
659517
616975
605797
544030
525804
467549
437252
387978
353822
310802
276228
238042
205246
171244
140300
108413
78840
50141.5
23564.8
724493
667368
628876
606327
545079
522773
464872
435791
385168
352441
310079
276707
238495
205952
172088
141217
109256
79648.7
51184.6
24541.8
501625
610860
573860
592531
536658
518406
463386
435769
386103
353551
310951
277217
239347
206736
172841
141843
109867
80295.5
51877.3
25081.7
-460621
-109123
-117279
-28242.7
11366.4
63193.3
82640.1
106334
112326
119677
117371
114882
107318
99039.9
87939.3
75991.7
62214.5
48377.1
35351.2
22212.1
-298726
-67232.9
-99694.5
-11508.8
16662.3
68803.4
88368.5
111251
116705
123604
120670
117617
109719
100957
89396.4
77045
62909.8
48651.8
35268.8
21517.7
-487490
-43721.6
-84976.9
32734.6
55869.4
97646.2
107682
125492
127364
131890
127637
123409
114276
104567
92093.6
79061.5
64220.5
49356.5
35340.7
21208.2
-204078
94.5483
2283.47
75031.3
90674.9
125182
131405
144901
143236
144728
138319
131861
121139
109889
96285.8
82131
66397.8
50593.1
35870
21124.4
-1120.16
153640
79268.1
133567
140891
163643
163250
169900
163822
161159
151668
142574
129706
116741
101516
86100
69051
52251
36465.2
21140.1
195579
300205
188674
199931
191540
202660
195325
195971
186946
179604
167277
154828
139850
124488
107743
90676.9
72389.1
54192.2
37318
20893
353311
352125
253692
262355
248662
247756
235367
228576
213672
201227
184687
169163
151274
133593
114333
95621.6
75760
56391.3
38119.3
20723.3
460857
439821
371236
350575
308622
299134
271210
257352
239227
221640
202861
184162
164655
144987
120907
100380
79449.6
58747.1
39487
20559.1
323661
502245
432039
421665
372030
345350
313069
290417
267361
245058
222481
200271
177926
155708
131150
105109
83211.3
61607.8
41119.1
20850.8
749583
650618
519283
491903
424305
392554
355180
324326
295531
268002
241118
215240
189946
165138
138288
110215
87128.8
64292.3
43112.4
21540.8
876950
771206
615049
581708
486562
446293
398193
358262
322794
290645
259515
229737
201654
174489
145416
115512
90842.3
66968.2
44691.1
22243.4
1.03279e+06
799846
663990
624650
528840
489160
436026
388760
347818
310731
276159
243575
212904
183702
152407
120396
94254.4
69322.7
45917.6
22687.5
1.22351e+06
935056
738844
672954
555722
516526
454781
410957
365959
325671
287696
252751
219807
189072
153315
125253
97590.5
71389.6
46767.5
23029
761364
884207
670808
654276
561557
529262
461439
422067
372949
334749
292565
257323
221552
190057
158522
129690
100486
73380.1
47608.2
23189.8
885403
881629
766791
683063
578945
541193
467876
429547
381299
343003
300692
264750
227827
195478
163120
133271
103158
75010.3
48155.4
22776.9
560381
721619
665203
642926
561917
537635
471225
436920
387497
349945
306761
270933
232926
200270
166968
136534
105313
76473.6
48679.1
22374.7
988936
833467
687586
641878
552559
535227
467468
437678
387726
352323
309135
274086
235953
203281
169720
138923
107128
77609.3
49144.3
22168.7
706994
676451
616371
604704
543494
525765
467611
437206
388757
354082
311017
276412
238271
205384
171420
140271
108486
78805.2
50052.4
22682.5
740299
673538
626720
605555
543054
522654
465418
436379
385810
352781
310214
276821
238713
206037
172015
141241
109328
79624.6
51039.9
23976.5
783297
639415
583627
593243
536427
517922
463680
435773
386344
353763
311135
277308
239309
206704
172820
141838
109883
80234.6
51749.4
24807.9
-507308
-110237
-125659
-32266.3
9562.86
62716.8
81989.2
106334
112349
119838
117470
114895
107331
99054.1
87936.6
76003.4
62229.6
48335.5
35244.8
21817.7
-307397
-67236.6
-98747.3
-9228.88
15040.4
68196.1
87782.8
111151
116462
123529
120650
117761
109749
101012
89420
77084.5
62936.3
48585.4
35148.7
20817.9
-418326
-33019.7
-90457.8
32769.5
54266.7
98101.7
107485
125601
127311
131959
127621
123456
114292
104605
92128.6
79119.5
64248.7
49282.8
35184.4
20427.9
-134023
3099.78
12534.8
77155.2
89533.7
125113
131586
144892
143179
144787
138303
131903
121157
109914
96305.8
82194.9
66428.2
50530.2
35747.6
20417.6
163437
169864
76251.1
134183
141213
164012
163421
170028
163814
161222
151653
142612
129714
116751
101534
86142.7
69074.8
52167.3
36309.8
20524.5
367280
299849
195126
201767
192529
202729
195382
196154
186970
179672
167281
154857
139843
124480
107726
90683.1
72386
54114.7
37167.4
20375.7
373051
360861
251435
262134
248801
246903
234607
228688
213801
201331
184719
169149
151240
133531
114312
95610.8
75787.5
56365.4
38041.5
20071.7
437531
454587
374306
350496
309080
298940
270414
257108
239483
221619
202994
184096
164663
144866
120808
100348
79481.1
58736.9
39524.7
19857.9
450687
528108
439164
423861
372994
344735
312889
290363
267475
245199
222637
200343
177955
155673
131139
105062
83227
61559.6
41041.4
19834
900797
665550
520932
492037
424726
392991
355457
324632
295696
268113
241336
215374
190003
165127
138417
110278
87153
64302.8
43017.5
20368.9
940453
787714
621882
582389
486125
447622
399336
358696
323041
290349
259455
229954
201793
174543
145513
115563
90882.3
66959.3
44631
21027
1.03833e+06
810456
663597
626540
527808
489808
436968
389154
348144
310930
276346
243755
213000
183706
152501
120405
94300.4
69289.4
45869.1
21582.2
1.14996e+06
923541
740561
673212
553811
518007
454061
411210
366035
326232
288160
252882
219950
189097
153281
125252
97611.2
71381.1
46816
22068.3
802948
874451
670101
654285
559511
529855
460585
422353
371951
335394
293768
257900
221785
190069
158577
129694
100495
73352.7
47567.4
22203.2
871714
886391
762940
683225
577449
541429
466626
429827
380349
342358
301988
265402
228384
195691
163135
133235
103150
75022.8
48298.4
21677.4
509022
719237
659647
640774
561293
538032
469213
436287
386793
349858
307852
271395
233371
200590
167255
136565
105271
76444.7
48684.3
21032.7
1.13846e+06
851640
692994
642465
552453
535535
466153
437558
386683
351543
310014
274589
236368
203485
169978
139053
107109
77536.9
49071
20726.2
712482
695354
616070
603787
543816
525627
467662
437240
389688
354272
311710
276781
238813
205900
171419
140246
108519
78797.9
50019.9
21356.8
688842
682320
622771
605442
542481
522720
465131
436491
386498
353301
310878
277144
238967
206039
172153
141296
109472
79793.4
51035.2
23134.8
655950
640273
586694
594523
536828
517546
463966
435689
386422
353948
311271
277351
239272
206662
172796
141823
109887
80212.6
51638.4
24581.7
247542
283423
261873
267964
247702
283826
262222
221549
254471
233754
241030
221647
254785
234093
266393
305601
280299
289262
266537
305898
280541
237474
272005
247875
259082
237745
272232
248008
294686
343595
321975
313349
294488
343750
321766
271463
314904
294079
289510
271557
314827
294346
249467
287614
268176
266374
249550
287737
268194
227498
261697
242568
244315
227567
261719
242595
205697
236244
217666
222090
205741
236273
217663
183568
211419
192989
200169
183581
211407
192973
161579
186831
168923
177865
161573
186822
168909
139102
162907
145016
155882
139028
162901
144958
331030
386199
357886
356018
331035
386091
357991
301481
349097
323644
323290
301689
349195
323668
274211
315516
291886
294755
274216
315535
291883
247429
284202
261763
267433
247436
284189
261730
221547
254444
233007
240860
221523
254391
232954
196088
225958
205296
215072
196071
225920
205272
171354
198520
178675
189780
171342
198507
178673
146644
172167
152565
165195
146577
172155
152475
366639
424991
391060
397103
366754
425349
391290
330685
380686
350738
357331
330684
380806
350789
297519
341256
313715
322188
297526
341242
313797
266321
304925
279537
289519
266322
305000
279601
236714
271362
247606
258791
236702
271452
247659
208323
239853
217227
229487
208304
239895
217234
181111
209896
188452
201383
181112
209901
188456
154385
181461
160539
174443
154320
181460
160447
398719
452783
418136
434381
398761
452804
418387
356798
406748
373766
387877
356935
406971
374082
318794
362957
333203
347105
318907
363135
333338
283709
323141
295400
309878
283811
323282
295521
251057
286286
261034
275432
251113
286380
261061
220172
252529
228400
243206
220182
252548
228429
190894
220364
197694
212720
190890
220400
197720
162542
190040
167573
183735
162507
190078
167533
294718
343515
321783
313025
294866
343759
321909
271808
314807
294443
289873
272213
315122
294774
249707
287822
268253
266878
250012
288128
268494
227649
261775
242631
244653
227882
261992
242744
205739
236301
217665
222252
205825
236385
217702
183569
211410
192980
200192
183608
211448
193029
161557
186834
168904
177890
161504
186894
168887
139016
162889
144952
155788
138938
162848
144848
331031
385693
357983
355465
331117
386328
358168
301774
349230
323688
323663
302083
349405
323856
274270
315559
291926
295096
274511
315730
292229
247463
284221
261745
267694
247532
284604
261759
221518
254383
232940
240899
221530
254328
232932
196079
225913
205281
215094
196130
225937
205345
171339
198521
178676
189846
171327
198588
178694
146584
172148
152482
165148
146485
172137
152392
366746
425307
391368
397296
366986
426052
391643
330689
380887
350824
357644
330851
381154
350995
297558
341270
313842
322353
297865
341432
314133
266348
305055
279674
290121
266693
305418
280090
236702
271511
247694
259137
236821
271828
247822
208318
239926
217259
229572
208397
240036
217357
181115
209921
188466
201478
181142
210006
188505
154320
181463
160440
174445
154233
181480
160308
398814
452626
418476
434915
399055
453105
418707
357000
407086
374255
388203
357235
407497
374879
318963
363216
333386
347375
319214
363603
333687
283877
323344
295585
310216
284191
323663
295860
251149
286432
261085
275754
251290
286654
261190
220198
252567
228442
243349
220273
252642
228474
190901
220414
197717
212789
190927
220430
197667
162506
190079
167524
183737
162391
190036
167428
295063
343690
322022
313279
295281
344030
322400
272418
315258
294888
290342
272820
315640
295188
250132
288232
268580
267317
250438
288502
268793
227937
262068
242779
245020
228141
262260
242938
205824
236407
217725
222476
205916
236539
217811
183601
211471
193050
200270
183629
211550
193110
161472
186911
168884
177928
161436
186962
168885
138947
162839
144868
155727
138889
162823
144802
331211
386332
358283
355279
331569
387062
358680
302196
349497
323948
324215
302502
349851
324247
274607
315824
292358
295463
274813
316090
292628
266593
261006
273521
267865
266475
261073
273683
238625
234400
245414
240897
238656
234404
245372
196153
225982
205380
215207
196224
226109
205491
171330
198621
178705
189927
171337
198726
178757
146524
172140
152460
165137
146486
172168
152347
367108
426102
391746
398037
367529
426974
392098
330937
381255
351071
358130
331233
381579
351330
298013
341509
314285
322723
298330
341763
314563
288361
281015
295559
288983
287616
280467
296103
256819
251641
263972
259638
256177
252486
264610
208434
240080
217392
229765
208537
240192
217486
181158
210040
188520
201623
181206
210126
188540
154296
181485
160338
174482
154224
181475
160202
399159
453074
418724
435825
399509
453618
418842
357325
407617
375067
388648
357613
407879
375567
319337
363714
333790
347730
319658
364061
334124
284327
323790
295980
310676
284600
324157
296344
251350
286758
261249
276111
251506
287052
261407
220304
252691
228504
243531
220395
252799
228560
190931
220451
197664
212882
190923
220471
197632
162416
190028
167480
183708
162282
189981
167421
295342
343968
322505
313188
295375
344289
322702
272911
315743
295266
290466
273121
315943
295417
250484
288572
268841
267533
250669
288712
268943
228150
262307
243001
245237
228321
262417
243140
205906
236599
217839
222654
206042
236740
217920
183619
211575
193129
200369
183705
211654
193175
161420
186979
168886
177988
161442
187014
168874
138934
162819
144885
155708
138869
162801
144758
331686
387145
358818
355489
331948
387852
359182
302584
349978
324336
324576
302750
350314
324556
274847
316156
292681
295673
274929
316331
292656
247788
285029
262210
268094
247957
284964
262450
221688
254726
233111
241301
221810
255005
233526
196248
226124
205527
215348
196311
226362
205648
171342
198762
178775
189996
171347
198866
178819
146595
172179
152528
165133
146498
172208
152359
367677
427142
392218
399171
368076
428043
392553
331330
381689
351418
358610
331569
381995
351665
298342
341845
314598
322989
298306
342082
314715
267112
305910
280539
290346
267080
305973
280563
236940
272238
248047
259439
237224
272289
248195
208572
240232
217518
229925
208700
240368
217628
181230
210151
188541
201762
181275
210236
188556
154414
181469
160312
174535
154278
181460
160183
399625
453517
418892
436897
399934
453803
419075
357708
407919
375693
389068
357965
408045
375940
319723
364150
334248
348076
319896
364316
334472
284647
324314
296514
310887
284791
324519
296930
251552
287181
261492
276306
251699
287458
261688
220425
252865
228618
243716
220526
252954
228752
190921
220510
197655
212978
190935
220557
197693
162382
189994
167575
183702
162265
189981
167544
295318
344203
322724
312811
295200
344879
322784
273080
315975
295436
289998
273141
316034
295384
250636
288731
268961
267408
250823
288708
268963
228309
262439
243167
245292
228565
262451
243185
206024
236770
217938
222815
206260
236807
217962
183680
211673
193180
200472
183866
211704
193144
161411
187016
168862
178001
161535
186954
168779
138936
162789
144906
155681
138781
162727
144443
331999
387895
359274
356168
332099
388524
359457
302777
350402
324611
324723
302766
350577
324734
274945
316376
292658
295693
274935
316464
292659
247987
284962
262477
268113
248005
284971
262520
221837
255050
233506
241373
221862
255114
233496
196322
226390
205681
215407
196296
226391
205735
171343
198894
178827
189985
171301
198935
178821
146678
172213
152592
165090
146241
172203
152178
368175
428129
392643
400191
368336
428707
392852
331629
382080
351733
358839
331754
382255
351859
298318
342157
314746
323151
298327
342267
314780
267091
305994
280571
290356
267067
305968
280526
237225
272303
248231
259434
237162
272277
248263
208736
240418
217662
229934
208791
240457
217716
181286
210263
188564
201837
181289
210308
188584
154536
181460
160363
174546
154131
181470
160040
400016
453834
419176
437418
400228
454035
419334
358032
408174
375992
389309
358147
408206
376171
319939
364403
334599
348231
319989
364503
334585
284829
324648
297112
310946
284833
324800
297369
251741
287595
261809
276358
251789
287718
261960
220556
253035
228864
243788
220607
253060
229117
190942
220626
197759
213040
190970
220636
197933
162436
190023
167813
183722
162139
189997
167903
259291
254198
252346
247559
259286
254230
252322
271609
278993
276607
283920
271431
279324
277080
263633
256641
269074
261384
263828
256439
268317
266677
267928
261188
273732
261136
273756
266694
259365
247614
254368
252539
254288
252391
259489
271751
284069
279245
276917
279403
277386
271694
263730
261598
256870
269427
256504
268541
264074
231930
227906
225392
221586
231918
227925
225469
242373
249512
247309
253970
242566
249298
247086
235652
229149
240293
235168
235697
229451
240109
238683
240944
234519
245584
234445
245434
238818
231977
221620
228009
225520
227960
225517
232058
242418
254187
249710
247625
249351
247261
242753
235698
235305
229308
240649
229530
240187
235865
280428
273782
271821
266929
279701
274056
272488
292580
300604
297089
305780
292303
300890
297285
284299
275927
288662
280479
284069
276101
288851
288512
288979
281418
296034
280908
296251
288103
280479
267246
273965
272107
274406
272542
280026
292667
305876
300956
297376
301004
297374
292620
284345
280540
276127
288920
276142
288922
284316
249104
244621
240736
238910
248396
246380
241124
260015
267849
263846
272155
259867
268010
263954
252167
244297
255792
247934
252015
244409
255873
256857
259865
251805
264223
252732
264662
256404
249133
238970
244867
240880
246319
241174
248584
260053
272234
268026
264033
268043
264016
260034
252213
247978
244443
255946
244468
255927
252176
265868
293926
283385
272688
265885
293958
283292
246107
273864
263550
257458
245768
273636
263440
229411
252802
242744
238803
229446
252961
242764
211896
232851
222681
221452
211927
232864
222668
193818
212402
202275
202632
193845
212413
202268
174875
191887
181597
184352
174882
191877
181559
155452
170942
160696
164812
155435
170928
160644
135016
149909
139361
145360
134985
149862
139309
327990
367745
347998
346649
328428
367217
348439
316139
307630
324377
313168
307552
324217
316156
291735
282852
297987
289364
282855
297990
291753
267544
260428
273506
266261
260442
273530
267542
244213
238596
250114
244250
238575
250097
244228
221151
216702
226864
222068
216710
226857
221154
198217
194770
203959
200174
194770
203964
198221
175298
172607
180928
177869
172604
180925
175296
152738
150533
158286
155898
150531
158283
152742
120303
134815
123662
131247
120282
134743
123655
373579
417822
392732
392605
373636
417723
392905
356199
347517
365818
355871
347561
365586
356108
324176
315956
332040
323302
315878
332048
324195
294502
287839
301741
294674
287820
301742
294517
266098
260717
273119
267399
260690
273090
266128
238752
234407
245470
240842
234399
245450
238766
212150
208741
218744
215084
208732
218724
212157
186368
183624
192713
189780
183615
192707
186379
161315
159147
167542
165208
159146
167537
161325
126302
141721
129911
138275
126278
141667
129799
418619
466468
435972
444896
418414
466808
436230
395463
386909
407970
397034
386949
407945
395345
356046
348062
365668
357246
348077
365702
356026
320018
313821
328747
322178
313817
328752
320013
286742
281681
294855
289534
281664
294849
286750
255528
251358
263188
258786
251345
263182
255535
225714
222374
233040
229487
222369
233040
225718
197240
194505
204243
201368
194507
204241
197247
170025
167831
176803
174451
167823
176802
170026
132800
149041
136160
145419
132756
149017
136148
457808
506683
469849
485917
457831
506686
469934
428886
422233
442375
434178
422195
442330
428850
383753
377144
394553
387800
377172
394593
383722
342843
337415
352461
347011
337440
352532
342812
305336
300909
314375
309804
300938
314403
305304
270819
267133
279139
275354
267146
279151
270808
238459
235371
246357
243162
235375
246376
238446
207971
205351
215348
212706
205379
215379
207956
178687
176656
185952
183727
176655
185952
178680
139366
155654
141901
152639
139360
155610
141915
434918
466464
443771
455502
434870
466299
443423
387756
417901
394668
409330
388078
418463
394915
345043
372868
353040
364869
345158
372879
353085
305589
331336
311700
324406
305682
331410
311823
269887
292980
275565
286771
269953
293019
275618
236339
257766
240840
252512
236370
257791
240876
204732
224081
208337
219698
204754
224084
208351
174387
192473
177357
189090
174360
192463
177342
265779
293513
282829
272270
265444
293807
282711
246573
273514
263592
257628
246749
273747
263761
229828
253236
242943
238900
229933
253478
243086
212055
233013
222775
221479
212169
233132
222853
193853
212499
202280
202708
193934
212553
202302
174849
191904
181556
184315
174878
191923
181550
155366
170936
160612
164749
155313
170930
160560
134974
149815
139269
145221
134886
149753
139181
328343
366765
348039
345864
328243
367098
348197
316020
307698
324142
313325
316078
307676
324274
291841
283105
297964
289619
291769
283171
298011
267884
260871
273786
266620
267778
260955
273897
244421
238764
250257
244465
244350
238816
250339
221250
216803
226972
222158
221215
216851
227022
198236
194766
203970
200168
198215
194788
203988
175306
172581
180934
177870
175297
172596
180949
152642
150473
158246
155840
152672
150452
158231
120296
134681
123689
131171
120254
134631
123625
373242
416433
392554
392370
372900
417523
392960
355908
347374
365428
355729
356033
347442
365689
324344
315971
332111
323395
324278
316071
332158
294643
287932
301841
294905
294581
288008
301906
266228
260770
273162
267546
266167
260826
273226
238733
234412
245460
240888
238740
234414
245466
212176
208729
218716
215075
212168
208735
218720
186400
183626
192723
189807
186388
183637
192738
161262
159089
167511
165167
161276
159073
167503
126346
141595
129918
138193
126251
141558
129748
418174
466779
436384
445138
418271
467741
436752
395663
386758
407801
397111
395536
386809
408028
356142
348260
365683
357459
356103
348314
365738
320100
313854
328778
322234
320066
313890
328805
286950
281655
294910
289543
286842
281717
294986
255713
251356
263317
258858
255636
251371
263420
225788
222394
233082
229485
225759
222413
233106
197303
194553
204271
201421
197281
194576
204294
170015
167795
176794
174438
170019
167788
176796
132852
148971
136197
145358
132739
148923
136068
457873
506733
469942
486838
458052
507302
470131
428867
422222
442376
434643
428843
422304
442497
383995
377334
394754
388013
383927
377405
394819
343090
337583
352775
347227
343015
337644
352858
305589
301071
314561
310000
305504
301148
314639
271001
267270
279287
275562
270938
267332
279359
238549
235444
246448
243267
238522
235474
246479
207963
205400
215410
212747
207963
205407
215419
178696
176663
185976
183739
178705
176659
185975
139426
155537
141954
152474
139366
155480
141882
434867
465719
443028
455265
434872
465761
442676
388704
419418
395385
410306
389307
419990
395900
345352
372974
353213
365371
345599
373164
353448
305870
331576
312106
324784
306119
331972
312468
270039
293102
275701
287032
270170
293227
275827
236404
257829
240920
252571
236448