/*--------------------------------*- C++ -*----------------------------------*\
  =========                 |
  \\      /  F ield         | OpenFOAM: The Open Source CFD Toolbox
   \\    /   O peration     | Website:  https://openfoam.org
    \\  /    A nd           | Version:  10
     \\/     M anipulation  |
\*---------------------------------------------------------------------------*/
FoamFile
{
    format      ascii;
    class       surfaceScalarField;
    location    "2";
    object      phi;
}
// * * * * * * * * * * * * * * * * * * * * * * * * * * * * * * * * * * * * * //

dimensions      [0 3 -1 0 0 0 0];

internalField   nonuniform List<scalar> 
38556
(
1686.34
1288.37
493.681
2139.5
-397.121
-56.035
2279.91
-418.245
277.833
2287.69
-406.939
399.165
1999.37
-235.83
524.144
1816.54
-156.099
338.927
1611.47
-28.7961
233.869
1484.77
19.3143
107.383
1403.28
34.6546
46.8342
1358.09
44.385
0.813772
1309.81
63.9342
-15.659
1266.52
71.667
-28.3742
1222.47
72.0906
-28.0413
1190.56
60.8529
-28.943
1175.84
33.6543
-18.9368
1165.86
9.69407
0.292275
1158.93
-2.80591
9.72801
1157.32
-8.18662
9.79565
1163.51
-4.32817
-1.86009
8.51895
-15.472
1732.8
1454.93
141.053
1854.79
17.8312
-536.937
2214.73
-155.96
-622.223
2723.61
-419.784
-496.035
2469.47
-203.843
222.148
1932.25
-66.2267
447.35
1417.67
34.1812
451.599
1209.65
6.38557
220.951
1141.64
-36.8558
139.525
1110.47
-22.6808
98.2385
1089.92
14.9652
69.5156
1074.16
40.6097
46.8117
1061.71
52.6225
31.9223
1055.08
48.4213
19.0591
1047.8
34.5373
6.3991
1038.68
22.222
-3.4029
1028.92
17.8725
-10.9245
1018.96
17.9509
-16.1755
1016.48
29.1337
-30.9854
47.399
-41.4801
2544.63
286.764
1854.69
2094.71
412.146
55.6074
1561.94
148.157
228.651
1521.48
-174.966
-204.366
1504.18
-106.097
-80.4419
1516.65
-45.4596
-33.2352
1461.04
22.066
67.7226
1384.8
28.3413
54.2897
1234.62
2.42419
110.898
1121.33
15.9904
74.6127
1054.8
31.0303
50.4677
1016.47
49.1423
29.8002
1003.46
50.1365
15.4973
1000.52
41.4255
9.93319
1000.49
31.9621
2.60441
999.641
25.8329
-2.76209
998.674
27.4209
-8.5809
997.17
34.0755
-14.6209
1002.93
47.2849
-23.9123
58.6732
-19.1248
-425.745
616.992
-881.026
65.4929
63.6109
-142.703
628.331
-279.507
-135.174
784.282
-348.108
17.1911
979.351
-344.992
43.8256
1141.21
-223.087
15.7721
1242.52
-139.47
60.2276
1252.8
-42.9313
60.9925
1161.41
16.3338
77.4739
1048.88
69.4467
59.0767
957.937
63.7729
58.1997
909.67
69.6642
27.7446
898.085
46.1234
15.5981
898.895
26.776
13.8399
911.814
7.35267
11.691
927.351
10.2996
-0.00432952
941.572
26.9354
-13.735
954.285
46.0848
-24.7228
971.177
57.5793
-27.1862
52.9256
-5.66195
-527.188
147.911
598.852
193.106
-323.512
-333.171
852.535
-568.644
-370.292
1057.45
-572.208
19.1833
1229.57
-613.988
96.8735
1351.67
-445.606
100.423
1426.45
-332.349
118.096
1427.82
-137.367
93.0679
1290.4
52.2859
101.468
1127.29
163.745
68.8101
1012.36
131.001
47.7033
956.826
109.042
16.1554
933.719
53.4271
15.804
907.792
25.1617
27.5409
882.973
6.39023
25.7819
860.664
15.2915
17.3172
842.995
36.5773
8.02696
833.366
49.9599
5.7542
820.07
48.8057
22.0691
31.1476
31.041
638.374
-652.462
1901.24
444.224
-490.094
360.731
941.239
-767.995
-297.665
1118.61
-755.771
6.19323
1207.1
-784.8
82.3223
1279.77
-586.393
68.1126
1350.84
-501.981
98.5672
1357.8
-217.711
73.3783
1278.97
46.0742
85.0413
1157.96
229.757
54.9996
1070.86
197.041
21.0668
1013.35
153.974
12.5753
949.43
65.5925
51.7534
837.906
60.908
75.7784
736.653
43.3472
64.2951
672.503
46.0789
33.3632
637.161
46.7368
25.1824
619.194
40.5748
27.3524
617.568
15.5875
34.8436
-9.55154
32.3484
102.922
-922.091
-796.079
715.149
-645.133
-457.188
1351.01
-732.183
-671.673
1502.13
-696.211
-210.676
1450.33
-704.299
-28.7038
1381.43
-496.297
-21.1983
1344.54
-111.431
-21.677
-124.586
-100.479
-106.913
1358.86
-78.4811
-37.361
-43.4067
-53.9589
-18.8218
1333.6
-4.29946
37.4644
3.62428
15.3393
19.1999
1257.72
42.08
77.5581
65.7709
52.241
67.9847
1139.94
59.4221
76.5338
61.2321
59.8271
57.8053
961.745
53.6159
106.707
62.2083
51.6534
57.9894
780.352
38.4712
103.697
35.5212
36.1606
33.1352
644.886
29.9923
72.7083
30.6544
30.0299
32.989
570.836
92.1119
25.2853
542.017
64.0409
10.8572
540.855
29.3081
18.5911
545.927
11.2665
24.2358
568.8
-34.2838
26.9982
-59.7417
26.2988
920.398
-1749.98
414.449
1450.98
-737.15
-438.567
1607.69
-539.664
-349.226
1628.01
-562.083
-154.446
1476.34
-616.352
63.7223
339.583
-101.306
0.951087
337.284
333.367
330.188
-73.5403
-110.215
-76.273
324.747
-99.0022
2.407
-303.515
307.857
-71.2137
-11.6101
-313.366
320.16
-8.72963
-2.363
-317.531
316.451
36.8425
6.31689
-311.681
296.276
67.9512
6.87559
-274.75
249.347
69.4393
9.57959
-227.965
199.078
56.9653
10.3932
-174.937
159.191
41.046
4.6921
602.634
36.038
-27.1717
-151.83
-157.987
-153.743
-158.698
31.7744
37.2866
33.8088
616.001
93.6844
-43.0105
639.733
44.2743
-38.6985
658.563
12.9125
-20.4753
661.259
-53.9926
17.0125
-88.3444
27.386
1526.79
-438.785
-393.617
1793.34
-254.126
-749.572
1768.89
-13.8662
-501.347
1706.04
-189.936
-309.293
303.174
-270.656
38.141
308.625
351.489
358.911
282.401
-87.7911
7.25726
19.2342
-70.1101
67.1989
-16.9626
0.639641
-63.1943
13.9883
65.5992
-13.9805
-2.41275
-71.7027
1.48277
73.9287
-1.38246
-2.32622
-78.2488
-8.67766
79.4433
8.51836
-1.03518
-79.2156
-18.5502
77.5161
19.4453
0.804433
-70.9944
-20.6469
68.6917
22.397
0.552665
-63.5046
-17.1372
60.9711
18.6698
1.00089
-52.0401
-12.5045
48.5031
14.0959
1.94553
-43.6313
174.08
47.9349
-0.995887
-46.0481
-46.1092
-49.1923
766.148
126.884
-27.1422
-176.438
-203.253
-183.401
-209.113
761.422
95.2333
-46.2331
745.732
85.5301
-56.9283
713.807
8.62443
-30.6918
-59.9258
-5.16125
1731.9
952.05
2376.52
1840.87
-117.434
-245.66
1840.35
207.739
-221.087
1914.22
-57.8342
-205.972
374.066
-30.4565
35.6899
389.386
434.955
439.923
62.3902
330.316
-37.3601
18.7192
15.5194
-71.4923
68.442
-13.4625
0.99334
10.2963
-66.5082
66.555
-8.23547
-2.10765
-2.17506
-67.9259
68.9528
3.55423
-2.40607
-12.1001
-72.8286
73.8229
13.7695
-2.66379
-22.5259
-75.7539
75.7687
23.9567
-1.44567
-28.6193
-74.1358
73.4109
29.9346
-0.590491
-23.5108
-70.2649
68.6001
25.3684
-0.192897
-17.0892
-64.0922
62.3372
17.5787
1.26542
-60.368
-55.8649
248.424
56.5363
-4.20823
-62.2156
-60.2763
-62.0272
1107.31
82.0955
-0.432534
-256.891
-278.445
-253.134
-273.618
1094.08
78.8745
29.5837
1050.61
105.682
23.3268
935.074
92.0771
32.0791
21.2667
13.4664
501.691
-681.883
-2573.69
848.859
21.6154
-486.217
1423.17
97.7823
-464.357
1448.88
34.6345
-118.179
330.093
135.143
0.842476
293.681
338.986
319.68
20.3625
319.018
-19.183
9.89555
4.95693
-68.4849
62.5141
-5.22724
6.24109
5.49347
-57.707
57.5226
-4.94151
-0.367574
-5.98956
-63.0943
65.3928
4.72136
-1.03027
-17.6603
-69.2614
70.3842
17.9326
-1.39503
-27.7872
-73.1089
73.8067
27.8307
-0.741267
-32.3313
-75.8556
76.5777
32.4593
-0.850044
-30.7354
-77.0975
76.1996
31.1302
0.50306
-17.6689
-69.7229
69.0508
17.0866
1.2544
-70.2807
-49.2775
293.6
32.3465
7.48225
-71.6983
-70.2462
-71.9262
1202.44
32.6115
28.1064
-299.11
-293.628
-295.733
-292.595
1218.96
27.2949
35.0638
1214.61
65.1844
44.8467
1124.85
123.151
58.6857
88.2803
18.0277
1620.01
836.904
746.213
1160.33
263.935
217.365
996.06
310.428
-48.3786
950.394
156.65
-76.3487
224.596
239.369
-33.4069
213.431
226.171
215.377
6.72648
227.624
1.88563
-11.6405
2.4058
-61.1311
60.8247
-3.97055
1.8712
2.69886
-59.525
60.0249
-3.28186
0.0830363
2.59968
-60.2762
59.3787
-2.33386
0.631725
-15.6419
-62.4271
65.1821
12.8799
0.00709886
-26.254
-71.2299
72.5702
24.4096
0.504122
-31.147
-76.4172
78.181
28.3228
1.06042
-27.9393
-82.3399
81.817
24.6297
3.83249
-13.9553
-75.1246
73.9627
12.1257
2.9914
-70.964
-20.4533
267.694
21.5991
11.6974
-68.1522
-72.3082
-69.1132
1010.95
38.1911
-18.5395
-258.15
-237.265
-262.555
-240.016
1046.84
29.2349
-37.832
1072.8
66.9849
-27.7667
1044.18
148.153
3.62336
124.192
-1.71497
328.133
2712.06
1524.88
367.752
-11.7037
236.021
595.658
208.329
-125.807
625.928
13.137
113.243
725.83
84.3975
55.0691
181.13
-158.603
28.3832
19.4887
65.4343
10.0574
61.7435
176.366
173.189
168.641
1.06104
174.164
5.37094
6.81835
-3.92446
1.122
-3.48196
-1.20329
-147.269
139.535
1.981
6.53305
0.287913
-0.713715
0.848598
-2.2247
-159.541
161.73
9.03928
2.03085
-3.59836
-2.88412
-4.5515
-8.60714
-158.218
166.405
25.9618
1.88178
-7.96545
-9.99426
-9.46424
-14.0219
-187.148
196.367
42.8593
6.16104
-14.0647
-15.0802
-15.0722
-15.5393
-198.799
202.58
50.2472
7.36798
-14.0671
-16.567
-15.2227
-14.6821
-211.306
214.595
49.978
5.7329
-13.5589
-15.9218
-14.8367
-11.1626
-214.921
213.277
40.7636
3.84735
-9.46145
-12.1078
-10.235
822.399
86.7402
-1.97153
-23.5495
-16.4949
-26.4528
-20.7223
-212.575
-199.657
-211.329
-196.387
842.848
33.0306
-15.2886
864.15
26.4685
-18.5359
902.316
44.152
-15.3333
933.584
90.1504
26.735
60.175
52.2686
-1244.83
-502.336
381.712
-101.659
-838.515
-316.357
781.476
-512.448
-162.358
1061.67
-367.839
100.782
1036.21
-135.668
245.529
943.215
-128.366
62.7531
799.842
206.215
107.984
-18.0841
-62.9894
-24.6857
-65.0664
711.156
-27.9905
26.6214
12.1643
36.071
12.2686
29.5519
664.367
160.916
30.2076
-17.5012
-46.7465
-27.4846
-52.6025
654.766
50.9861
8.60756
-13.7161
-4.01212
-21.1617
-11.1028
678.234
142.38
20.3843
-38.2911
-50.1219
-44.8405
-52.9787
718.585
94.4528
10.7066
-39.9877
-29.6083
-43.1061
-32.8083
763.054
118.098
15.8703
-44.4547
-42.9722
-46.7387
-44.271
806.419
69.3541
10.5762
-34.6253
-25.8091
-35.6843
-27.1769
831.105
45.4244
16.6298
836.952
-6.44093
33.6252
838.245
-23.4884
48.6639
844.979
-30.4142
67.832
866.77
-26.2869
94.6464
-43.5393
85.1814
1183.31
583.962
-856.691
1161.47
120.095
-936.77
1424.25
106.126
-881.349
1196.17
-109.734
-30.0238
739.568
36.3376
284.595
566.604
-33.9784
78.5767
573.189
129.004
70.6256
540.571
-19.4942
24.1221
601.612
81.0529
18.8212
626.607
12.2407
13.7502
674.747
71.6794
22.5609
717.133
39.3818
12.6851
755.959
59.8678
19.4046
777.837
30.6985
16.7771
780.724
16.2689
26.2682
760.032
-20.018
34.2693
736.693
-40.246
40.0967
720.726
-53.9876
39.5406
722.124
-55.5077
27.8222
-50.0986
-6.76666
-235.098
1208.45
-819.462
338.144
455.05
-908.198
1132.81
224.299
-912.838
1227.23
89.3981
-293.555
988.069
178.144
97.3575
827.229
73.3418
53.5195
725.536
129.369
101.328
705.287
1.2786
-0.523979
712.496
59.6424
14.2009
723.52
8.31828
-7.10108
738.457
51.7157
5.02643
750.983
33.192
-6.33582
760.474
50.5867
-0.210124
760.352
38.3824
-7.5618
743.769
41.0633
-8.21109
711.145
30.2693
-17.6635
678.346
20.8355
-28.283
657.202
12.9557
-45.7992
660.758
9.77817
-68.8414
17.1164
-82.1464
615.995
1351.57
-2504.48
37.1846
519.612
514.249
207.105
239.472
-185.093
246.575
94.9332
-45.0057
372.444
167.244
-114.968
390.249
80.1743
-24.6382
516.76
68.437
-65.5793
553.972
2.74294
-38.6758
635.185
6.28529
-27.8557
666.845
-7.1183
-16.2239
695.826
15.6717
7.06296
706.811
19.7399
2.46682
713.982
46.6967
-3.28116
712.052
58.1223
-17.8095
709.298
70.2494
-26.4323
703.539
71.8953
-35.8665
694.544
70.3471
-40.5166
686.658
68.0249
-47.1837
690.046
58.3579
-51.9679
60.5408
-52.8497
541.855
931.143
216.316
605.561
350.247
105.659
866.229
110.454
-131.651
820.173
92.0459
48.9428
840.381
167.495
-20.4587
855.327
140.972
-75.7432
883.163
110.98
-70.3791
920.192
53.7363
-88.0218
946.991
31.5749
-52.0893
980.019
15.0037
-55.1498
988.774
24.5531
-17.6365
982.221
33.5783
-7.28518
936.535
63.3436
29.0393
890.837
79.7454
24.0742
862.741
87.1247
11.2214
854.324
82.6043
-2.2923
860.218
69.8677
-5.41451
878.673
59.7901
-10.2201
892.907
33.7537
10.3701
35.5048
18.2555
2458.24
1612.26
1535.6
1839.06
450.101
519.328
1177.79
114.458
657.259
828.229
66.7774
374.833
734.054
78.9187
182.751
736.042
126.557
12.4275
747.539
115.127
-15.6442
756.258
111.91
-66.8932
763.926
77.2164
-53.3097
780.663
67.4335
-69.1669
800.721
49.1559
-44.6606
823.806
50.6606
-40.1668
842.025
55.4668
-10.3416
856.968
62.4593
2.34268
867.405
62.4655
14.2221
877.793
57.204
15.0122
886.092
41.4159
20.1527
896.626
18.6994
30.5572
903.204
-19.7727
46.948
-9.78506
43.1386
891.622
-1701.8
1589.84
-248.115
1464.41
239.881
1402.81
128.378
1150.18
331.55
1081.1
195.638
1020.78
175.448
1037.69
95.0039
1034.39
80.5093
1048.79
53.0378
1032.74
65.2064
1024.44
58.9567
1011.91
67.9979
1013.88
60.4858
1018.05
58.3009
1030.46
44.7943
1037.97
33.9029
1028.02
28.654
949.75
58.4951
54.4726
1646.53
-697.835
-1679.28
2011.63
-910.156
489.022
1805.07
-53.8666
538.254
1603.95
121.111
479.179
1386.13
118.559
623.402
1326.15
49.9061
349.001
1281.08
9.15247
269.787
1277.39
-8.068
119.138
1276.87
-18.0695
65.428
1288.93
-16.1724
4.92634
1285.02
0.813796
-12.5623
1271.89
12.748
-27.989
1235.75
28.431
-20.3401
1196.32
28.4364
-17.9474
1163.98
19.9906
-6.58605
1144.63
11.7674
7.87791
1133.59
9.14199
11.6229
1126.63
9.56863
7.18602
1121.55
14.6173
-11.398
15.7918
-29.6919
1270.88
156.099
2005.63
1128.28
-858.629
-445.864
1237.68
-150.911
-634.58
1443.4
-127.573
-453.073
1429.86
25.8692
328.378
1329.35
86.1503
511.612
1178.2
89.9441
521.96
1090.7
44.9975
255.389
1043.56
1.45688
167.133
1023.13
0.707869
101.791
1009.14
12.1068
72.209
996.714
27.0012
44.9875
985.839
37.8526
33.3757
977.033
37.2265
19.0751
965.724
32.8767
4.82202
953.9
28.5872
-8.39799
942.52
27.8115
-18.2136
932.421
30.7647
-27.2731
922.898
34.8561
-41.7008
26.7488
-47.7399
1090.82
-1941.11
-2411.11
544.178
-541.139
284.757
942.444
-325.513
4.98819
1055.94
-273.045
-172.385
1102.96
-100.647
-0.949234
1126.19
18.6902
10.9972
1104.26
70.9434
108.648
1067.42
67.1527
68.9758
1015.49
42.0343
122.257
970.016
44.3762
76.4137
932.926
39.1276
60.5366
910.228
46.3683
33.1306
899.789
43.3981
20.3917
897.464
36.4776
13.0065
897.02
31.2901
4.63514
895.347
29.8517
-2.35361
892.802
32.4307
-10.6544
892.167
35.2225
-18.4438
896.557
35.0243
-28.4706
24.3432
-21.2312
-1104.91
-1035.43
-3399.96
-352.424
-528.669
-907.663
361.452
-491.769
-682.795
551.592
-376.238
-69.7561
775.342
-262.733
-17.8384
900.869
-127.293
36.2286
985.248
-52.8961
99.6883
985.307
48.6493
79.4362
943.268
59.8858
101.662
888.622
91.4851
66.6138
849.47
70.7972
65.6821
825.039
66.7482
31.7954
820.427
41.3893
22.2187
826.039
25.2875
19.4182
839.115
13.8061
16.0985
849.69
17.0201
2.25241
855.581
26.7309
-13.9256
858.747
33.9363
-26.6027
861.111
33.7218
-28.2486
21.2231
-3.79656
-831.271
-716.387
1718
157.579
-818.612
-1032.08
665.607
-754.652
-615.436
834.476
-522.488
-3.43666
1006.39
-415.572
77.7941
1091.75
-199.692
87.4702
1129.26
-103.249
130.936
1097.05
77.0542
96.8758
1015.65
120.612
122.139
929.729
168.298
77.9171
868.396
114.782
65.0519
836.449
87.3722
27.4785
828.277
37.3058
28.0592
822.345
20.4831
38.2775
815.713
14.4654
31.7551
806.167
24.025
19.8577
792.578
35.8229
12.5241
778.839
40.5776
12.852
762.622
34.1002
37.9079
15.5594
46.1957
554.042
-952.817
2690.38
652.013
-728.866
173.014
763.913
-765.898
-398.32
842.607
-582.235
-12.7533
953.7
-502.361
58.0196
1027.61
-246.92
41.427
1102.13
-163.777
84.5794
1079.47
106.312
66.7798
1017.62
175.311
92.1965
938.976
240.302
61.636
870.758
168.163
35.9032
827.228
118.112
25.3663
802.967
47.008
66.3121
751.7
58.2877
89.2404
698.697
53.2977
78.466
655.933
57.6191
42.5327
626.555
52.4526
37.931
610.266
37.7498
46.469
613.457
3.59621
62.1565
-20.5315
57.1887
1881.72
-2207.3
-585.591
1829.97
-1187.71
53.3971
1314.69
-817.007
-105.285
1127.64
-591.339
-14.523
1085.58
-490.99
1.98993
1044.48
-204.715
-22.3007
1065.47
-42.4057
-23.9422
-59.0549
-34.747
-46.2989
1058.24
0.817015
-29.4706
39.0963
15.4885
50.2558
1037.47
45.3071
39.4427
46.656
51.723
50.4134
995.964
63.6208
80.5458
74.5751
65.5899
75.0324
911.514
60.4571
100.371
55.6445
58.6957
53.9793
798.54
48.7367
136.524
52.887
47.59
52.0544
692.76
34.083
124.454
32.1282
33.8792
31.94
607.582
30.8276
84.984
34.1512
31.3569
34.8548
556.151
106.234
23.7795
534.148
80.4972
9.98189
538.491
45.1562
21.5442
550.172
19.9073
30.3979
578.345
-38.8844
41.3059
-66.2698
46.3305
2366.22
-1350.2
-3021.74
1899.21
-1017.7
-141.578
1351.23
-616.442
-1.81033
1129.54
-488.551
-35.5397
1053.16
-447.041
96.1545
258.521
-55.2442
-3.15189
254.986
243.234
238.734
-31.0205
-45.2921
-11.373
-4.81102
262.63
-43.2135
1.50963
26.9672
-252.855
261.566
-13.2934
-21.5681
15.9965
-263.77
263.931
45.4065
-16.2568
-4.42052
-258.51
255.476
65.0985
5.97664
-8.91708
-251.455
240.266
70.7723
9.79057
-19.3143
-225.838
208.768
61.6313
23.49
-19.0185
-195.225
176.568
49.8297
21.9293
-9.93701
-162.303
152.789
39.4611
10.8175
578.122
36.614
-40.0156
-147.994
-153.912
-144.966
-150.201
33.6133
34.9984
32.8031
575.368
97.5719
-57.3302
587.816
47.1108
-53.1016
611.037
14.973
-38.7619
633.522
-52.6111
8.25444
-83.8367
30.9299
2684.84
-32.0774
-3043.53
2103.26
-219.611
-966.075
1499.22
-139.465
-374.28
1182.48
-244.067
-237.039
252.317
-227.648
42.3779
248.433
233.667
224.433
-21.7769
262.064
-62.8922
19.6781
-3.81827
10.478
-67.2165
66.5853
-10.2149
4.18632
5.6358
-61.9402
4.51497
62.52
-5.14533
-5.58531
8.04085
-63.4989
-10.0917
64.1341
9.35323
-7.93759
4.02451
-63.0227
-16.7281
62.5996
16.9996
-3.87301
-0.992447
-60.5285
-20.2247
59.2399
21.5552
0.950592
-1.37158
-55.5985
-18.5364
54.1204
20.1366
1.24936
-2.53746
-51.1587
-15.146
49.8586
16.2046
2.77891
-4.13637
-46.4847
-12.1228
44.9839
13.6808
4.07906
-43.7742
6.10806
174.885
43.9744
-8.70604
-46.6626
-43.2627
-45.9482
731.749
117.021
-35.8737
-175.62
-201.429
-171.174
-194.244
709.724
82.2887
-59.3855
680.413
65.8256
-78.4702
665.362
-9.89966
-58.3513
-61.612
-20.8295
1920.5
1084.92
-153.064
1798.83
-87.3178
-256.282
1419.98
23.5046
-5.21244
1262.98
-141.203
-151.833
281.978
-18.1423
28.3329
285.666
248.104
245.082
-18.4807
42.5989
279.845
-27.5465
5.56076
-9.18646
11.6503
-67.5928
67.0339
-10.4204
8.51549
0.562141
2.82371
-61.376
60.4895
-2.20565
-0.293789
5.6421
-9.95512
-60.2594
60.3335
10.2576
-6.01866
5.86903
-18.4344
-60.1576
59.8686
18.8967
-6.04234
3.11129
-24.0821
-58.9745
58.6107
24.6361
-3.30147
1.95711
-23.4611
-57.903
57.4444
24.3306
-2.36798
0.60952
-17.8273
-55.6648
55.0538
18.5287
-0.699918
-1.77098
-15.6028
-54.6762
54.9434
15.6883
1.41839
-56.8998
6.59216
-47.2579
234.497
44.1417
-8.25582
-58.7968
-56.0369
-57.9839
1011.55
98.2235
-5.73983
-241.489
-260.373
-233.826
-251.761
996.705
102.436
24.284
960.614
117.003
8.2406
881.101
84.5177
17.1745
25.56
-7.85049
1991.58
-1230.64
-5869.1
1281.18
-20.8953
157.762
1203.05
36.0453
-398.766
999.314
58.989
-114.638
234.86
167.028
-26.4604
216.249
203.746
186.593
-17.6608
10.895
241.034
-2.50065
3.09247
-10.7215
1.78068
-63.6054
64.3329
-1.07482
9.28821
-4.15543
1.66908
-58.0683
56.988
-1.60815
5.17483
1.1086
-10.3136
-57.776
58.4554
9.54447
-1.01891
2.76673
-19.5136
-59.9505
60.257
19.0773
-2.63696
1.23545
-25.5433
-61.2041
61.8225
24.9407
-1.25129
2.47838
-25.6716
-64.0604
64.7609
25.5662
-3.07345
-0.704529
-20.5797
-65.0774
64.6437
20.9972
0.720677
-2.50706
-15.118
-64.1569
64.5597
14.7765
2.44575
-67.1717
-9.99179
-36.5404
279.013
28.9366
10.0561
-69.4203
-66.2889
-68.5921
1129.87
82.0714
25.4388
-283.095
-282.027
-273.092
-272.833
1137.63
92.7895
36.9481
1133.21
122.903
43.3636
1077.76
144.49
54.1676
104.754
-4.79297
1379.57
-79.4689
-979.925
1140.96
191.278
243.795
846.248
249.761
32.622
714.563
147.132
-32.8069
176.207
217.595
-24.3848
167.735
159.026
152.005
18.7771
0.0484801
184.577
-1.88476
-25.3102
-1.7699
1.99108
-54.3717
56.2096
-3.27674
1.21768
-2.6318
-1.30271
-54.2459
53.8631
1.14143
3.17584
-1.80374
-6.49338
-53.6914
53.9797
6.1186
1.89018
-0.273505
-16.963
-56.4851
57.6747
15.7862
0.260669
-1.66893
-21.9944
-61.4692
62.728
20.4947
1.90982
-4.0092
-22.233
-66.7285
67.9964
20.212
4.76232
-9.10225
-19.3647
-70.6167
70.9827
18.2874
9.81352
-7.03598
-12.9391
-71.0061
70.7322
12.4398
7.80921
-68.4966
-17.7246
-25.0754
261.446
27.5426
19.8434
-65.7769
-67.1068
-64.6513
983.126
77.342
-27.9945
-256.677
-234.743
-249.106
-228.414
1004.47
80.4651
-46.8513
1021.73
114.558
-36.6798
1005.76
161.405
2.67647
129.282
-1.42618
152.681
1445.2
316.561
337.288
250.057
-7.36528
330.541
296.631
-165.93
405.962
83.5491
101.405
532.386
117.039
29.2013
133.314
-168.006
38.2025
26.4577
68.3273
32.2042
68.716
126.863
121.188
113.502
-1.23949
-20.073
130.228
18.4406
19.6936
-5.79243
-1.76728
-6.17582
-2.99092
-9.43555
-108.308
117.642
3.41221
8.612
-2.3029
-3.60841
-3.01986
-7.01156
-0.835099
-144.231
148.501
29.3867
-0.87065
-8.26656
-7.77441
-8.89901
-12.5419
-2.59237
-146.935
156.252
39.8904
2.81791
-11.9444
-12.8014
-12.1459
-15.6787
-9.84689
-175.57
182.755
52.7561
11.5956
-15.3607
-15.5202
-15.1299
-16.301
-13.3848
-185.225
189.556
54.4111
16.8456
-15.1431
-15.9437
-14.8156
-15.6511
-12.3009
-198.749
201.867
52.6018
16.3172
-14.6086
-15.2621
-14.215
-11.922
-7.27872
-202.509
203.473
41.2706
8.99039
-10.2448
-11.674
-10.1056
775.211
100.782
-0.969805
-28.7508
-23.2036
-29.6022
-25.0885
-203.276
-188.088
-197.124
-181.862
799.638
56.4823
-18.8559
826.639
58.2055
-23.2774
868.229
73.8738
-16.2391
904.547
122.229
29.5925
101.448
65.3493
-520.885
94.7002
905.49
-58.3677
-314.209
-214.608
434.477
-223.776
-134.796
640.225
-145.915
124.498
697.921
19.3977
285.474
621.363
-103.191
74.496
567.329
253.953
123.22
-34.2206
-69.7659
-41.0045
-70.1648
512.851
-36.9472
25.525
18.3181
29.3536
18.6908
26.1592
516.601
181.75
33.3651
-34.5899
-56.4359
-39.6174
-58.0138
532.591
58.8012
14.2949
-24.2764
-14.3427
-25.8467
-16.0127
574.803
156.875
28.5506
-48.3533
-54.9424
-49.4678
-54.4907
618.911
99.3254
19.0619
-43.4228
-33.1187
-42.6556
-32.5919
666.423
125.365
24.4884
-47.1285
-44.363
-46.4487
-43.5539
708.316
73.1301
18.0566
-35.2108
-26.7867
-34.3719
-26.1347
740.626
65.9881
19.1139
763.145
30.4457
37.1434
786.394
27.3959
56.2241
819.678
24.3447
84.0771
875.132
52.8744
108.547
49.8947
97.9929
2292.9
1471.25
244.917
1272.93
443.548
-674.557
814.482
284.999
-931.68
564.287
57.8419
16.4144
446.739
166.944
254.597
347.287
-5.76347
80.6013
463.064
158.468
50.3349
418.734
-5.59709
37.1013
486.215
110.874
22.2162
506.855
34.0243
17.8875
557.842
96.4481
32.0004
596.666
55.8641
17.3224
637.11
77.1732
27.1525
662.99
42.6248
21.402
686.338
38.2909
30.6177
699.964
15.5173
35.5721
709.957
14.2991
43.2003
725.983
5.98204
41.8772
759.953
16.1706
30.5562
20.128
-5.06971
258.644
1458.7
406.974
317.02
193.98
-717.006
509.87
99.337
-920.028
501.598
60.5559
-287.997
553.432
150.425
62.0429
514.999
45.7664
40.4225
566.368
114.739
93.6878
555.541
0.465449
4.24036
579.507
76.7944
24.3137
583.157
27.415
-4.14167
597.893
72.9031
13.8355
605.381
46.7449
-4.7045
615.91
61.026
5.40795
618.291
41.0319
-8.34983
616.644
42.0884
-10.3612
612.327
28.7156
-26.5451
612.06
24.597
-38.3132
614.88
14.7217
-57.3597
634.49
1.67798
-73.9583
1.39676
-83.3071
-756.007
569.722
-6112.77
-260.136
250.217
-37.8594
-19.4934
64.1301
-390.528
103.62
-27.5743
-79.9888
236.898
62.352
-160.173
290
1.20138
-33.1753
412.121
12.6
-85.5613
440.154
-30.8978
-35.3454
513.609
-1.07143
-23.4451
534.851
-0.207888
-9.84265
565.225
32.8373
16.7547
572.889
39.6301
1.91815
580.72
52.3203
-2.40661
578.442
48.7671
-23.2663
578.517
47.7119
-32.1307
577.236
40.1473
-46.0182
580.916
32.9858
-52.5849
588.314
27.1813
-67.0422
608.708
7.7508
-78.4337
7.42841
-76.742
883.869
997.054
-1949.98
773.663
370.573
95.5086
765.049
145.534
-204.441
717.318
23.5035
45.5954
719.114
91.6225
-51.5246
710.113
29.9592
-95.4996
711.552
12.9867
-72.2049
713.295
-24.8674
-95.7961
721.022
-17.6828
-43.2043
728.222
-8.08193
-54.4757
729.535
20.6592
-6.77148
727.85
37.6659
-3.63652
722.814
55.4353
30.9604
716.369
59.2013
20.0855
711.576
55.5784
8.14721
711.768
46.491
-8.82766
716.999
34.5378
-12.1976
730.366
29.1528
-25.5579
755.669
5.97393
-13.1559
7.19123
-0.0247447
213.068
2774.57
-313.687
218.146
110.953
773.869
555.724
77.6523
387.563
488.006
1.67073
464.384
620.369
43.9999
98.0112
616.777
55.8318
-9.85383
640.475
35.6618
-62.0168
639.969
30.0769
-121.331
649.831
5.65408
-86.509
658.728
7.62908
-93.775
678.248
4.7256
-48.2463
698.277
17.4392
-39.9696
721.413
26.5661
-4.60788
743.559
35.1495
4.24795
762.182
33.6326
17.545
777.484
29.1145
17.0866
790.909
16.2457
25.0202
805.879
6.88521
37.8552
817.317
-21.6351
63.1194
-13.2913
59.387
-602.474
-3117.36
-50.4947
-689.141
910.017
-642.978
919.138
120.928
973.513
321.175
987.645
237.338
984.56
214.194
1006.17
103.475
991.972
100.358
990.725
61.9137
967.181
93.4768
959.399
84.1776
953.806
100.157
962.256
87.1846
970.437
83.7524
978.429
65.9177
974.709
53.8685
960.104
50.1443
898.547
98.4167
91.1838
597.392
246.002
1195.79
905.476
-809.281
990.22
828.653
-21.4184
636.496
877.331
91.1117
339.389
927.942
111.632
461.158
1012.34
30.7266
233.874
1078.29
-10.7185
214.557
1135.95
-25.4649
86.9428
1175.59
-30.5588
56.3435
1208.12
-30.6724
3.0733
1219.92
-16.5074
-7.85028
1217.91
-6.13085
-19.8508
1189.02
14.3755
-5.8324
1150.7
19.8986
0.475001
1115.46
20.7758
7.87935
1092.48
20.0714
10.7864
1077.73
20.2404
6.13209
1065.3
22.0434
-2.42341
1044.2
24.0142
-14.3122
8.86723
-24.1872
337.902
573.211
1874.41
557.022
-707.592
-766.673
689.934
-51.1135
-737.797
731.57
-20.8187
-382.779
773.367
126.618
271.596
849.587
116.741
349.377
895.718
101.151
363.959
903.049
52.9332
169.66
899.113
20.449
120.061
896.42
13.3492
60.4623
892.887
15.4692
43.7652
886.617
24.1594
20.9675
882.269
32.2123
19.8869
877.512
34.1803
9.55032
869.187
33.7557
0.167619
859.233
32.8042
-11.1772
847.75
32.8652
-19.3544
835.72
33.1119
-26.3118
821.168
28.6436
-31.7785
0.227482
-30.1363
-22.6242
-1559.79
-1659.65
-105.573
-653.949
314.063
540.502
-331.954
-360.246
664.347
-195.595
-121.454
752.902
28.5763
8.537
799.373
76.261
5.00707
827.397
95.7872
85.988
825.049
78.7822
45.475
820.883
55.9746
90.8976
809.418
52.5911
48.6367
800.002
42.2208
43.202
792.469
44.3794
20.4434
790.278
39.2202
15.5748
792.18
36.0063
9.27779
793.3
33.5476
3.72344
792.358
34.0574
-2.66488
789.547
34.0371
-9.01434
788.242
31.5255
-15.5528
788.73
22.3231
-22.6383
-4.82303
-15.7333
-44.4106
-1006.53
-4196.32
14.0508
-729.902
-890.172
275.901
-539.374
-737.224
399.972
-318.807
-70.6155
594.861
-168.498
-15.653
678.179
-14.221
43.3931
760.878
28.3436
84.4327
766.163
91.3468
61.5866
762.852
79.1227
81.8245
741.371
95.1783
45.5079
733.263
70.0547
45.9558
726.476
62.069
20.8931
730.734
38.5505
18.6297
740.552
29.9016
15.705
754.162
22.7256
13.3108
762.388
25.9663
2.11795
764.805
26.7193
-9.02488
764.57
23.8129
-18.6551
758.196
13.7616
-13.3133
-5.24768
3.3998
379.653
-612.193
1842.63
600.715
-853.543
-1129.5
566.995
-716.645
-404.445
646.19
-414.32
12.8806
764.416
-263.883
54.9528
804.136
-33.4313
66.9601
835.495
33.2357
94.6851
809.312
149.367
65.0399
782.236
135.467
92.8704
749.064
154.682
51.5859
734.207
100.305
49.6577
726.63
74.086
23.0395
732.122
35.0923
26.0252
738.052
31.0546
31.1947
739.129
29.4228
23.9804
734.824
34.7878
15.3411
724.164
35.2836
14.62
709.5
30.2296
21.0992
697.489
17.0777
46.6034
-2.06234
47.6781
743.953
-874.525
1234.39
883.246
-699.816
-120.005
657.691
-608.795
-280.615
658.973
-417.453
-10.9029
726.108
-298.699
25.701
762.044
-51.6671
23.7262
833.142
-13.1327
59.8498
806.8
201.329
41.1608
782.345
186.876
65.2424
743.985
215.608
39.0706
712.858
134.595
32.7404
687.192
99.1824
25.9359
683.133
51.5558
53.9072
670.887
67.4671
65.0746
650.298
66.1728
62.3049
618.436
68.3814
40.8012
593.3
58.8674
39.4827
581.068
41.0191
47.9113
592.805
5.16555
62.3319
-17.7525
56.486
890.088
-1608.82
-283.691
1008.28
-957.75
193.135
864.639
-639.04
68.6048
832.259
-434.271
34.6752
843.112
-311.862
4.30086
791.707
-2.44488
-20.1177
819.167
-6.77247
-15.1726
-22.6787
-2.01673
-17.8942
793.037
37.3534
-17.2122
65.8771
43.73
68.239
780.178
55.7429
27.175
52.152
54.3449
49.7627
750.229
64.1201
58.8796
71.7318
61.9826
69.3886
706.028
52.8109
84.5872
47.3183
49.5656
44.8842
651.494
44.1332
109.079
47.9055
42.436
46.6871
610.887
33.2548
88.4515
31.5711
32.3686
30.9703
572.626
31.4867
57.3117
35.1364
31.2789
35.4989
535.466
110.683
16.4285
514.593
92.0303
7.20603
518.096
61.1696
15.7394
529.328
37.8718
22.3127
561.186
-21.5535
36.1669
-45.6364
45.6642
1273.58
-1165.62
-916.357
979.629
-1096.29
290.91
885.494
-637.769
91.0541
789.49
-399.214
25.4073
809.228
-296.087
60.6409
200.564
-7.65394
-4.54573
195.647
185.638
180.308
20.9271
3.34111
29.406
-2.22679
206.113
-7.54555
-2.54881
23.4416
-194.545
200.165
26.3349
-18.0429
16.7747
-201.579
198.673
57.7724
-15.8983
-5.13505
-192.478
190.409
66.6485
4.67534
-10.6333
-188.991
180.764
63.4724
8.1997
-25.5998
-172.374
164.183
54.6494
23.2745
-21.0887
-159.21
150.459
45.5864
17.5074
-8.93641
-144.548
140.496
38.64
5.83484
526.895
33.5563
-35.7466
-136.965
-141.944
-132.371
-135.314
30.8287
31.6072
30.1209
517.443
92.3112
-48.1597
521.297
48.7114
-44.4969
539.205
17.8916
-36.6901
569.601
-42.1904
-1.50387
-60.7133
23.9392
3686.05
-137.317
-2063.74
2313.05
-470.008
-219.363
1315.33
-237.268
222.944
891.517
-207.953
-4.49097
194.037
-142.106
54.3238
183.242
180.4
167.912
-16.4106
204.071
-17.401
16.1236
-3.50753
1.02729
-53.7319
53.5467
0.0682026
2.59717
5.66677
-50.0819
-4.22874
50.2026
3.52465
-5.08337
7.15196
-50.1692
-13.821
49.9748
13.361
-6.49755
3.14511
-47.4902
-17.4017
46.7981
17.7856
-2.83686
-0.673476
-45.5729
-18.1484
44.8641
19.1513
0.379393
-1.25496
-43.2098
-15.8483
42.3383
16.8904
1.08443
-3.20654
-41.1324
-13.3946
40.5915
14.2086
2.93348
-2.68121
-40.2927
-11.3939
39.9791
12.4363
1.95236
-40.0918
10.7766
159.293
38.2488
-11.3945
-42.4539
-39.3314
-41.4907
633.549
101.463
-26.0996
-157.548
-178.567
-149.515
-166.844
605.52
69.0103
-51.6557
575.173
42.8323
-73.0637
569.385
-36.4701
-58.284
-60.1599
-21.3013
1607.43
690.556
699.524
1209.98
-97.8963
-230.952
1032.83
0.509576
-65.8307
887.337
-87.9481
-126.35
192.082
48.4433
5.44121
187.402
173.141
167.054
-9.51722
9.43081
191.131
-3.30795
4.34541
-8.79097
0.482729
-49.6734
51.1751
-0.550436
7.35692
0.0998091
-4.47658
-50.7476
50.6332
4.67481
-0.18367
5.80635
-12.9252
-50.1346
49.8178
12.8742
-5.43851
5.14993
-18.5726
-48.6242
48.1378
18.7681
-4.859
-47.322
3.3427
-20.5743
47.2052
20.7267
-3.37837
-47.0258
3.17603
-18.4999
18.8712
-3.22646
46.705
1.03489
-14.948
-46.2337
46.342
14.9945
-1.18964
0.00495393
-13.2868
-48.2156
49.0401
12.928
-0.470635
-51.5032
8.63501
-39.5369