/*--------------------------------*- C++ -*----------------------------------*\
  =========                 |
  \\      /  F ield         | OpenFOAM: The Open Source CFD Toolbox
   \\    /   O peration     | Website:  https://openfoam.org
    \\  /    A nd           | Version:  10
     \\/     M anipulation  |
\*---------------------------------------------------------------------------*/
FoamFile
{
    format      ascii;
    class       surfaceScalarField;
    location    "2";
    object      phi_0;
}
// * * * * * * * * * * * * * * * * * * * * * * * * * * * * * * * * * * * * * //

dimensions      [0 3 -1 0 0 0 0];

internalField   nonuniform List<scalar> 
38556
(
1805.72
1071.91
-507.686
2268.84
-405.2
-57.9227
2395.75
-400.75
273.842
2380.42
-372.704
388.034
2070.18
-208.825
519.064
1873.08
-132.551
329.651
1654.71
-4.83813
223.21
1520.83
28.168
105.714
1431.14
41.7825
47.9024
1379.76
50.1663
1.21978
1326.49
68.6037
-15.3338
1279.28
75.4046
-28.1991
1232.42
75.146
-28.2884
1198.34
63.0646
-28.9817
1181.8
35.1619
-18.6198
1170.4
10.8349
0.559304
1162.45
-1.67758
9.62802
1160.57
-7.71136
9.59537
1166.95
-4.10549
-2.2696
8.3965
-16.194
2038.97
1481.94
891.178
1982.43
106.594
-455.252
2358.95
-138.493
-638.772
2842.24
-376.059
-479.942
2541.76
-140.508
232.169
1969.38
-1.2875
441.112
1457.42
64.5145
442.606
1245.84
28.7226
211.026
1170
-11.9534
129.583
1131.81
-2.46619
90.8228
1107.27
25.4853
67.6534
1087.82
49.0133
45.8485
1072.33
59.1942
31.4376
1063.26
53.4831
18.6511
1053.91
38.3226
6.18784
1043.18
25.1625
-3.59478
1032.48
19.9864
-10.9629
1022.12
19.1871
-16.5411
1019.78
29.8016
-31.5656
47.4368
-42.737
3038.12
369.364
2541.41
2322.11
600.277
222.321
1718.98
285.121
179.52
1618.42
-53.0333
-222.466
1572.03
-4.85104
-89.2734
1568.71
35.1564
-33.1199
1500.44
68.0294
64.7572
1413.74
62.2663
53.1545
1257.95
30.7673
113.065
1141.47
37.1514
76.8687
1070.56
46.9044
49.4859
1029.08
61.4626
29.0301
1013.17
59.8948
15.2153
1007.82
49.0847
9.74492
1005.89
37.8652
2.3908
1003.65
30.3329
-2.93287
1001.72
30.6583
-8.73808
999.777
36.1817
-15.055
1005.69
48.343
-24.454
58.728
-20.4384
46.4824
1107.17
-450.991
309.488
366.343
-29.0714
741.965
-55.1712
-92.1848
869.399
-211.409
30.9416
1050.69
-252.191
66.0481
1195.42
-144.455
34.8854
1279.43
-74.8899
58.9061
1278.26
11.062
52.3693
1181.93
48.8792
78.2192
1064.76
94.6004
59.7282
970.896
83.4881
57.2766
920.18
85.2383
26.9401
906.194
58.4646
15.417
905.006
36.5857
13.6861
916.16
15.396
11.3153
930.342
16.4778
-0.326873
943.566
31.3755
-13.9413
955.945
48.9052
-25.1029
972.962
58.8432
-27.5169
52.6685
-6.6674
-255.126
972.978
1365.45
309.588
133.719
-332.09
929.064
-325.592
-349.055
1111.81
-428.337
34.1864
1275.73
-518.136
102.024
1391.97
-367.026
106.323
1455.61
-270.307
131.783
1448.7
-78.568
96.5346
1303.99
91.2702
102.32
1137.24
192.659
68.6905
1021.14
153.087
46.5046
963.986
126.863
15.53
938.8
67.8024
15.8477
911.075
36.8427
27.4682
884.916
16.0124
25.5431
861.654
22.6157
17.1244
843.307
41.7803
7.94265
833.454
53.1512
5.60655
820.239
50.1259
21.9327
30.6849
30.2909
428.206
-566.977
1803.13
462.752
-337.525
436.698
965.249
-597.96
-230.129
1142.91
-634.535
28.5368
1231.8
-696.505
89.4807
1302.62
-509.733
71.8897
1373.98
-437.666
95.9986
1371.84
-148.559
72.1255
1288.18
90.5701
84.363
1164.59
261.857
54.3941
1075.55
221.538
20.5824
1016.38
173.344
12.6958
950.304
81.8862
51.9891
837.541
73.9962
75.6097
736.263
53.5024
63.7879
672.172
53.7101
32.9966
636.695
52.1599
25.0969
618.707
43.9079
27.2319
617.065
16.9774
34.7904
-9.76887
31.4831
45.9686
-707.431
-288.411
682.829
-531.919
-442.465
1356.94
-590.782
-681.286
1514.48
-577.717
-214.364
1459.34
-619.344
-22.0216
1390.3
-412.21
-28.4769
1353.74
-96.8168
-21.3066
-107.951
-85.4931
-89.5393
1365.84
-63.8472
-35.1944
-26.7224
-37.9973
3.09486
1337.04
6.32708
38.5107
17.9483
24.339
32.2495
1259.13
48.8952
77.4272
76.2489
58.9056
78.2908
1138.29
64.0453
77.5625
69.9062
64.4009
66.4676
958.268
56.8498
106.982
69.3982
54.8867
65.2437
777.057
40.5349
102.953
41.821
38.267
39.5211
642.411
31.1925
71.6282
36.0818
31.3162
38.4233
569.325
101.837
24.7525
540.786
71.4999
10.7489
539.425
34.8969
18.6244
544.258
14.9594
24.1147
567.154
-32.7086
26.7905
-59.7151
25.4739
939.674
-1942.4
1239.7
1431.16
-647.395
-376.015
1589.08
-422.533
-326.168
1614.26
-454.847
-148.045
1467.4
-535.793
63.3059
339.425
-82.6518
-0.699401
335.777
333.117
328.733
-52.5452
-91.1865
-54.7789
321.919
-80.9617
1.65107
-303.336
306.46
-55.352
-11.6193
-315.185
318.764
6.26909
-3.52096
-318.659
315.007
45.9909
6.55641
-311.971
294.049
74.8981
7.06897
-274.367
246.798
74.8372
9.58153
-227.509
196.595
61.0566
10.3918
-174.813
157.193
44.2914
4.52081
598.892
36.7355
-27.4218
-151.877
-156.576
-153.723
-157.275
36.5218
38.001
38.5588
612.521
100.844
-42.9736
635.902
49.9441
-38.4276
654.464
16.6231
-20.226
657.185
-52.3652
16.9354
-88.1608
26.0016
1773.07
-54.4207
415.821
1820.15
-38.2539
-656.223
1754.99
111.456
-468.825
1677.68
-69.2383
-308.299
296.94
-185.32
36.1269
300.247
344.17
349.72
274.917
-65.6059
4.97698
15.1443
-69.2563
65.7923
-11.9868
0.306525
-62.9986
10.0972
65.1215
-9.68072
-2.53937
-71.7631
-1.4761
73.3238
2.18884
-2.27339
-78.2802
-10.3956
78.8421
10.7844
-0.950708
-78.996
-19.8227
76.7095
21.2615
0.84777
-70.738
-21.4833
67.9046
23.7576
0.5591
-63.2764
-17.6394
60.1936
19.679
1.04329
-51.8179
-12.8513
47.7736
14.9504
1.94518
-43.5779
171.443
50.3806
-0.985835
-45.6824
-46.0399
-48.802
759.767
134.863
-26.8327
-175.892
-201.176
-182.821
-207.065
754.837
101.105
-46.2313
738.986
89.4722
-56.9984
707.158
9.92514
-30.4612
-60.0381
-6.64164
1670.37
1117.34
2703.26
1771.78
101.968
-241.635
1792.44
313.633
-222.836
1876.22
46.6997
-199.721
366.303
50.4208
35.2126
380.862
427.009
431.096
42.9964
321.025
-16.0328
18.3147
10.9617
-69.7367
66.6955
-8.93469
1.01412
6.60322
-65.5931
65.6839
-4.48808
-2.20595
-5.00044
-67.3462
68.3626
6.30118
-2.31711
-14.2768
-72.2223
73.1937
15.9207
-2.61533
-24.3955
-75.0814
75.0649
25.807
-1.39507
-30.0023
-73.4488
72.7291
31.2995
-0.577582
-24.4432
-69.5457
67.8734
26.2632
-0.147689
-17.994
-63.354
61.6315
18.4524
1.26406
-59.844
-58.502
246.418
58.9432
-4.25636
-61.5872
-59.7427
-61.4291
1097.98
89.5523
0.283843
-254.855
-275.948
-251.088
-271.057
1084.31
84.758
30.0169
1040.29
110.277
23.2152
924.627
93.782
31.8013
20.8416
11.7556
618.609
-316.075
-1459.84
811.453
238.863
-329.738
1337.52
205.672
-418.102
1385.15
122.25
-123.19
317.322
203.262
5.08571
279.617
325.411
304.879
-0.788584
307.032
0.827419
10.2508
0.438157
-65.8437
60.1468
-0.784082
6.0428
1.53196
-56.0314
56.0601
-1.23027
-0.330442
-8.60837
-62.0158
64.3266
7.35697
-1.05943
-19.7165
-68.2676
69.4226
19.9512
-1.3897
-29.541
-72.1803
72.8921
29.5276
-0.698395
-33.6398
-75.0044
75.7458
33.7514
-0.852995
-31.6947
-76.2732
75.2957
32.0906
0.581589
-18.4206
-68.8431
68.2346
17.7857
1.24337
-69.5994
-51.5789
290.98
34.2419
7.67792
-70.9578
-69.5803
-71.1832
1190.33
39.0757
28.0721
-296.154
-289.94
-292.818
-289.012
1207.13
32.7219
35.2336
1202.81
69.8437
44.7592
1112.38
125.466
58.7362
88.3527
16.2807
1600.88
972.202
857.305
1065.23
397.347
377.169
903.701
401.522
-34.3191
879.376
220.623
-74.0485
209.977
288.924
-27.6032
199.413
211.308
200.619
-7.95578
214.409
14.3536
-10.8294
-1.34091
-58.3155
57.9484
-0.0999752
1.80805
-0.664374
-57.4368
58.1482
-0.192248
0.145131
-0.162397
-58.6149
57.7735
0.277021
0.726775
-17.53
-61.1385
63.9493
14.6938
0.0253805
-27.7792
-70.0584
71.4256
25.8421
0.569923
-32.2778
-75.3929
77.2225
29.3108
1.13742
-28.7846
-81.2632
80.6574
25.4227
3.96766
-14.4795
-73.9663
72.9017
12.6442
2.89981
-69.9116
-22.5014
263.645
23.3018
11.6476
-67.0111
-71.2285
-67.9416
997.126
44.7965
-18.9582
-254.281
-234.103
-258.63
-236.875
1033.6
34.2033
-37.9572
1059.65
71.4016
-27.6071
1031.05
150.564
3.50079
124.537
-3.6032
56.9364
2675.27
2451.75
137.137
-8.51522
325.662
451.967
216.788
-130.096
517.93
31.9869
122.673
649.552
97.3417
59.9612
166.973
-136.034
30.5503
7.25692
54.7157
-1.54709
50.8057
162.933
158.844
155.055
-2.19035
162.783
13.2627
6.81114
-5.9737
-2.12931
-5.59127
-3.67845
-137.814
131.952
7.51241
8.19763
-1.65996
-3.16658
-1.3434
-4.55306
-151.275
154.511
14.2326
2.68502
-4.7056
-5.22215
-5.67279
-10.5923
-151.376
160.644
30.0125
2.0667
-8.62377
-11.9918
-10.1393
-15.7947
-181.134
190.783
46.7676
6.31581
-14.5257
-16.8564
-15.5561
-17.0158
-193.187
197.5
53.2124
7.32213
-14.2979
-18.0623
-15.4724
-15.9904
-206.28
209.92
52.4995
5.66031
-13.6403
-17.2418
-14.9276
-12.314
-210.24
209.139
42.4486
3.74545
-9.38056
-13.2479
-10.1506
806.572
93.7348
-1.82406
-27.2835
-16.1422
-30.1856
-20.3646
-208.31
-196.242
-207.011
-192.944
827.922
38.6571
-15.2105
849.815
30.8501
-18.54
888.544
47.7295
-15.0561
920.201
91.8774
27.0287
59.9844
51.0838
-1414.21
-532.239
349.328
-183.535
-948.382
-290.807
705.428
-539.033
-133.142
1009.67
-381.586
109.329
982.273
-120.84
245.58
900.637
-114.304
59.9062
763.629
219.832
108.814
-25.353
-66.2432
-31.8288
-68.2137
680.388
-6.35754
24.3187
4.94546
31.6237
4.83542
23.8753
636.117
173.928
32.9512
-24.7028
-48.702
-34.6172
-54.5869
628.582
63.4505
11.1144
-20.1227
-6.17023
-27.6083
-13.1285
654.779
152.938
22.1321
-44.5807
-51.355
-51.079
-54.252
697.36
103.767
11.3229
-45.2963
-30.3639
-48.454
-33.5566
743.876
126.052
16.1256
-49.3772
-43.1828
-51.6485
-44.4851
788.634
75.8493
10.8851
-38.8251
-25.6976
-39.8866
-27.083
814.409
50.9677
16.9921
820.391
-0.562938
33.2387
822.3
-19.881
48.8221
829.813
-28.0363
68.2532
852.163
-25.3152
94.8422
-44.0909
83.8641
904.025
319.801
-2020.02
1012.24
-64.872
-991.73
1300.53
48.5096
-875.826
1106.64
-152.173
-35.5233
669.251
24.7725
291.774
515.21
-39.3319
79.0689
531.554
125.919
77.5695
509.83
-11.239
26.6055
573.514
86.8134
23.4314
600.637
20.4265
15.9009
650.918
78.4682
24.1889
695.141
45.8172
13.7271
735.8
65.6851
19.7081
758.741
35.8262
17.0815
762.427
20.7764
26.5061
742.558
-15.5621
34.8679
719.96
-37.7072
40.4233
704.562
-52.1656
39.5274
706.359
-54.6604
27.5482
-50.2045
-8.75245
-81.6982
1424.42
-2111.25
271.773
517.689
-936.032
1069.5
174.199
-923.416
1194.25
48.0149
-324.935
948.624
155.736
114.659
798.216
60.7001
50.3763
694.834
125.955
103.346
678.702
4.38907
0.504425
684.831
63.7269
16.9571
696.957
15.6801
-7.37858
713.589
55.2819
6.55383
727.924
36.9174
-5.4352
739.139
54.2328
0.236979
740.282
42.0002
-7.31723
724.601
44.2988
-7.84122
692.999
33.0398
-17.0006
660.961
22.7711
-28.4395
640.444
14.3369
-45.9862
644.223
10.36
-68.7991
17.1223
-83.6274
332.159
899.528
-3164.79
-59.0353
322.154
586.729
130.778
166.527
-182.141
182.012
46.559
-49.7791
325.693
137.013
-124.958
348.776
59.1091
-21.4919
487.36
52.8264
-65.4558
528.988
1.70348
-38.9421
609.617
6.4425
-23.3447
642.184
-2.11904
-14.7673
672.217
16.5532
8.69548
684.917
21.9433
2.27398
693.038
49.0245
-2.91272
692.015
60.453
-17.43
690.171
72.1237
-25.9807
685.065
73.4924
-35.3464
676.507
71.4636
-40.1347
669.058
68.8639
-47.0783
672.696
58.8686
-52.1462
60.7385
-54.5719
639.716
386.671
182.144
629.982
142.958
188.929
886.406
34.6114
-124.507
827.141
46.1718
59.6515
831.024
154.283
-21.1534
841.51
129.013
-80.3897
862.632
103.855
-72.15
900.292
50.222
-86.1791
924.579
30.4736
-48.3177
958.033
15.6834
-51.2562
965.382
24.2942
-15.0906
959.54
34.1198
-6.33451
914.162
64.0401
30.3629
869.401
80.6271
24.5862
842.581
88.0418
10.9027
835.078
83.4264
-2.43153
841.5
70.2799
-5.2383
860.384
60.042
-10.0627
874.84
34.0855
10.3277
35.8998
16.0262
2675.6
1608.73
1734.78
1857.5
369.265
591.792
1166.8
69.7018
655.608
815.864
36.8939
360.216
721.689
60.0509
188.407
720.387
116.794
13.5208
729.329
108.195
-13.2826
736.867
109.307
-66.6224
743.017
74.8458
-50.5223
760.818
67.1981
-69.316
779.681
48.487
-43.0562
802.401
50.7174
-39.3176
820.911
56.0968
-10.5663
836.664
63.3678
1.50622
847.351
62.998
14.3569
858.207
57.5309
15.0396
866.908
41.4157
20.1636
877.746
18.6436
30.5599
884.614
-19.6399
46.8567
-9.53982
42.0503
1304.04
-553.011
1770.46
-97.1572
1528.38
311.778
1425.26
140.017
1147.52
337.787
1072.42
191.902
1004.29
176.322
1019.71
93.8834
1013.48
81.0787
1027.83
52.8504
1010.63
65.6801
1002.39
58.959
990.087
68.4012
992.809
60.646
997.431
58.3768
1010.35
44.6086
1018.06
33.7085
1008.08
28.627
929.708
58.7285
54.2172
1900.34
-681.381
-2687.19
2128.23
-855.073
569.257
1910.56
13.7589
477.754
1690.22
163.431
444.937
1459.91
143.687
605.696
1388.09
66.6863
334.781
1330.41
19.989
260.9
1316.72
4.56546
114.843
1307.4
-4.90165
62.1225
1312.31
-5.59698
1.90231
1303.14
5.7737
-11.9373
1285.51
16.6555
-27.2266
1245.9
31.755
-20.4285
1203.88
30.9661
-17.9295
1169.77
21.8712
-6.38127
1149.13
13.166
8.03084
1137.13
10.1269
11.5012
1129.82
10.1416
6.76567
1124.82
14.7554
-12.0221
15.4246
-30.8892
1296.55
64.465
1898.73
1249.44
-866.141
-397.066
1364.56
-88.944
-651.193
1548.47
-55.664
-444.754
1510.85
83.159
330.314
1386.44
125.749
506.456
1224.42
118.174
506.442
1128.33
65.7058
245.978
1073.31
18.6792
161.024
1046.3
14.08
98.1573
1027.44
22.637
69.6483
1011.13
35.4342
43.3762
996.916
44.5209
32.8857
985.47
42.4302
18.6331
972.129
36.888
4.51128
958.779
31.6171
-8.69562
946.393
29.9433
-18.3932
935.784
32.0485
-27.8397
926.093
35.3014
-42.4205
26.4383
-49.6631
1413.94
-1706.24
-1415.55
837.923
-368.509
300.701
1096.36
-136.459
-31.4044
1161.34
-158.961
-184.142
1173.44
7.16187
-25.3776
1179.43
79.367
7.26985
1145.87
113.598
102.891
1099.65
98.5202
66.5658
1041.97
66.5323
122.886
992.021
63.8073
77.0915
949.985
54.663
59.4959
923.509
58.6803
32.2599
910.07
53.1885
19.9869
905.341
44.1995
12.7037
902.965
37.3144
4.34126
899.831
34.3904
-2.57241
896.27
35.6472
-10.8815
895.088
37.2364
-19.0608
899.36
35.8454
-29.2698
24.1027
-23.3791
-894.337
-553.157
-2400.76
-211.943
-203.525
-876.45
480.076
-294.169
-626.494
642.795
-245.476
-45.2629
846.362
-152.722
22.3642
952.808
-27.244
35.0502
1021.03
16.5129
87.7743
1012.71
85.6248
73.5783
965.879
90.3869
101.197
906.924
115.949
66.5416
863.807
90.3592
64.6976
836.123
82.3426
30.9609
829.082
53.7804
21.867
832.634
35.2169
19.117
843.891
21.7308
15.6419
853.006
23.0557
1.89278
857.887
31.0236
-14.1994
860.602
36.5944
-27.1754
862.836
34.8686
-28.7742
20.9768
-5.6691
-629.917
-63.5854
1814.93
269.959
-447.919
-987.571
741.071
-536.381
-577.955
888.325
-370.298
11.7548
1053.59
-297.288
81.3237
1133.19
-109.087
108.568
1156.59
-8.58406
133.476
1117.85
123.584
97.3209
1031.69
156.11
122.755
942.164
196.61
77.5554
878.482
136.788
63.7583
844.325
105.347
26.6826
834.064
51.9428
27.9461
826.291
32.4482
38.01
818.188
23.9517
31.4251
807.569
31.1966
19.6026
793.211
40.8897
12.4343
779.181
43.6896
12.5416
763.005
35.4148
37.5624
15.1606
44.7767
254.112
-778.668
2337.47
603.431
-531.584
171.044
774.137
-594.835
-342.382
862.573
-442.156
11.959
979.346
-394.527
69.9463
1050.86
-153.338
44.6275
1125.62
-85.4222
98.0766
1094.75
158.123
68.4557
1028.5
214.525
92.1999
946.55
271.977
60.9758
876.362
192.286
35.2714
831.258
137.783
25.3645
805.119
63.6947
66.3759
752.562
71.5983
89.0166
698.965
63.5
77.8364
655.859
65.2228
42.0767
626.195
57.7971
37.8533
609.89
40.9695
46.2571
613.009
5.36224
61.7237
-20.7912
55.5495
1834.94
-2192.56
178.883
1814.14
-1110.2
156.956
1312.36
-676.635
-97.712
1131.33
-459.9
-15.5868
1095.08
-386.859
6.56179
1056.26
-106.641
-36.352
1075.94
-20.3926
-25.72
-40.5103
-12.0086
-27.7764
1065.33
14.2875
-29.0381
54.731
27.9393
65.6152
1041.73
53.8282
41.1907
58.8483
60.2175
62.5475
998.045
70.1789
80.8601
84.7546
72.0802
85.2199
911.412
64.9203
101.583
64.2163
63.1782
62.5841
797.041
51.966
136.718
60.1983
50.8505
59.4034
690.877
36.2514
123.508
38.5865
36.051
38.414
605.825
32.1374
83.529
39.5885
32.7015
40.3227
554.901
116.033
23.1438
533.018
87.9689
9.88571
537.113
50.6525
21.6737
548.54
23.3472
30.3098
576.725
-37.398
41.3661
-66.3766
44.8324
2387.19
-1440.9
-2974.05
1832.63
-913.282
-18.3815
1313.06
-507.227
23.9985
1109.08
-367.131
-36.8356
1044.88
-353.768
94.4135
258.427
-31.2501
-18.2718
254.23
243.075
237.659
-3.5923
-14.4799
11.7422
-1.5233
261.216
-22.7887
1.12975
25.3123
-253.731
259.864
6.37139
-23.5288
15.8381
-265.361
262.92
56.0693
-15.639
-4.98353
-259.474
254.088
73.8597
6.68882
-9.3487
-251.913
238.323
77.5414
10.3166
-19.3492
-225.828
206.556
67.0604
23.5261
-18.9711
-195.111
174.418
54.0889
21.8268
-9.62925
-162.447
150.943
42.8185
10.4515
574.459
37.3592
-40.261
-148.107
-152.565
-145.117
-148.871
38.3546
35.7938
37.5656
571.98
104.806
-57.3316
584.266
52.7681
-52.8297
607.339
18.6098
-38.5613
629.714
-50.8583
8.02092
-83.6739
28.2625
2790.29
274.208
-3246.78
2075.88
7.33468
-862.422
1460.3
5.39102
-365.864
1148.49
-127.543
-236.077
245.859
-143.989
44.7506
240.356
227.636
216.233
-17.1474
254.434
-40.5044
17.827
-3.21747
5.42669
-66.2894
65.1714
-5.05092
3.95969
5.91282
-61.5075
-0.176639
61.6278
-0.0867821
-5.76972
7.77404
-63.3416
-12.4709
63.4127
12.3097
-7.68385
3.79302
-62.8048
-18.5569
61.8399
19.3701
-3.64131
-1.15572
-60.2875
-21.5256
58.4542
23.3978
1.11675
-1.39539
-55.3915
-19.4103
53.3801
21.5374
1.2797
-2.64065
-50.9753
-15.7152
49.1524
17.3004
2.87841
-4.12138
-46.3561
-12.4959
44.3448
14.5767
4.05197
-43.7381
6.10973
172.318
46.524
-8.70306
-46.3277
-43.2156
-45.6085
725.576
125.23
-35.3955
-175.095
-199.434
-170.663
-192.246
703.282
88.1966
-59.3648
674.073
69.6782
-78.8578
659.103
-7.75269
-58.5967
-61.3863
-23.8282
2002.29
1206.83
1405.25
1744.2
124.097
-100.301
1362.09
135.382
29.2754
1216.83
-28.0609
-153.934
274.327
66.2462
13.941
276.736
240.975
235.824
-16.5355
22.3888
271.471
-4.51332
1.51523
-9.25452
7.31832
-65.7706
65.2435
-6.00557
8.46895
0.84425
-1.53686
-60.0527
59.3839
1.83875
-0.477379
5.5074
-12.8233
-59.3176
59.4153
13.099
-5.88072
5.74304
-20.7493
-59.3033
59.0306
21.1849
-5.90591
3.02243
-25.9029
-58.2062
57.8623
26.4408
-3.21645
1.94376
-24.8465
-57.2094
56.7576
25.704
-2.34946
0.521881
-18.8986
-55.0025
54.4095
19.5815
-0.611767
-1.76097
-16.5136
-54.1026
54.3925
16.5706
1.4141
-56.4204
6.49544
-50.0112
232.472
46.6243
-8.02824
-58.2071
-55.5445
-57.3801
1002.45
106.127
-4.91874
-239.432
-257.792
-231.765
-249.158
987.407
108.537
24.7216
950.968
121.315
8.01779
871.682
86.2816
17.0527
25.4696
-11.0347
2041.99
-903.591
-3690.8
1172.92
201.882
461.549
1107.9
150.178
-367.878
925.907
148.043
-117.3
220.649
235.26
-21.0974
201.385
189.464
171.578
-17.2395
-8.62546
228.629
15.6444
2.24075
-10.6167
-2.43052
-61.0644
61.8536
2.96559
9.29243
-4.16754
-1.90083
-56.2344
55.3368
1.70455
5.26146
1.12366
-12.9926
-56.3726
57.0933
12.1546
-1.00635
2.73408
-21.6708
-58.6964
59.0677
21.1944
-2.62895
1.06021
-27.3096
-60.1289
60.7846
26.6178
-1.02416
2.46414
-27.0075
-63.1437
63.8729
26.8714
-3.05735
-0.840465
-21.5568
-64.2179
63.7994
21.9581
0.857599
-2.51936
-15.942
-63.3998
63.8343
15.5619
2.46499
-66.518
-10.2847
-39.003
276.33
31.1698
10.4544
-68.6804
-65.6231
-67.8446
1118.1
88.9183
25.4867
-280.167
-278.542
-270.206
-269.393
1126.23
98.4416
37.1987
1122.08
127.146
43.0812
1066.28
146.593
54.2225
104.792
-8.2144
1223.6
-101.327
-270.421
1026.72
317.988
457.944
748.529
334.263
59.7862
636.027
211.36
-24.8622
160.975
266.813
-17.3918
152.99
143.328
136.969
17.473
-13.7894
170.429
10.478
-23.6149
-2.07037
-1.62945
-51.4144
53.106
0.569247
1.43903
-2.75473
-4.05084
-51.883
51.6982
3.65224
3.33808
-1.91114
-8.7951
-51.8501
52.2376
8.30803
2.01072
-0.362316
-18.8464
-54.9454
56.2164
17.5733
0.364412
-1.86292
-23.4859
-60.1487
61.4646
21.9007
2.13223
-4.21842
-23.3703
-65.575
66.8825
21.2922
4.98899
-9.30607
-20.282
-69.5343
69.9293
19.1916
10.0014
-6.97936
-13.6143
-69.9776
69.7234
13.0773
7.77064
-67.4828
-17.683
-27.3797
257.618
29.4285
19.8321
-64.6954
-66.0805
-63.5569
969.534
84.1489
-28.4035
-252.903
-231.664
-245.413
-225.34
991.386
85.5521
-46.9194
1008.96
118.627
-36.666
993.124
163.573
2.36136
129.597
-5.16727
-133.389
1384.15
1378.65
102.424
262.037
145.8
160.274
310.086
-163.768
288.629
98.7652
106.913
447.528
126.66
41.215
118.304
-145.029
36.4197
14.1005
58.112
21.0519
58.3269
112.689
105.555
98.5482
-4.41729
-20.2171
117.781
26.0772
20.0643
-7.82908
-4.93273
-8.22271
-5.56127
-11.9297
-97.7332
109.543
9.05306
11.2608
-3.87917
-6.17495
-4.57876
-9.34442
-1.94823
-134.831
140.87
34.5004
0.400378
-9.44746
-10.1033
-10.0968
-14.5182
-3.01041
-139.873
150.186
44.1442
3.4604
-12.691
-14.7793
-12.9178
-17.4286
-10.1725
-169.383
177.092
56.684
12.0646
-15.8986
-17.2695
-15.689
-17.8142
-13.3618
-179.583
184.452
57.4992
16.8881
-15.4655
-17.4588
-15.1566
-16.979
-12.2071
-193.687
197.186
55.1804
16.2373
-14.7595
-16.5911
-14.3807
-13.0723
-7.09405
-197.861
199.373
43.0488
8.81555
-10.2516
-12.8266
-10.1321
759.572
108.013
-0.86066
-32.5176
-22.9227
-33.3376
-24.8255
-198.998
-184.662
-192.859
-178.427
785.007
62.1174
-18.6136
812.576
62.6056
-23.1624
854.722
77.4185
-15.994
891.314
124.058
29.9516
101.508
62.8908
-691.214
-202.013
1514.6
-212.572
-435.79
-71.6217
349.495
-239.462
-145.661
577.385
-145.629
125.833
643.571
19.3254
286.728
576.742
-89.4975
71.2032
529.003
267.643
124.838
-41.3446
-73.1649
-47.9585
-73.4593
479.922
-19.2798
24.6261
11.9788
23.7856
12.3077
19.9808
487.397
195.007
37.3408
-41.6474
-58.4933
-46.5955
-60.1353
506.028
71.1327
18.6945
-30.703
-16.3545
-32.2547
-18.0317
551.139
167.668
31.7758
-54.5778
-56.2855
-55.6745
-55.8836
597.685
108.697
20.1462
-48.7619
-33.9042
-47.9924
-33.4084
647.326
133.375
24.9482
-52.0429
-44.6152
-51.3583
-43.8213
690.805
79.8081
18.5194
-39.4223
-26.7698
-38.5819
-26.1475
724.336
71.6889
19.7851
747.248
35.0032
37.4405
771.015
30.9486
56.7128
805.099
27.0381
84.5491
860.972
54.1271
108.9
49.5862
95.4675
2069.19
1226.71
214.54
1081.24
278.322
-717.897
676.746
237.735
-948.528
451.795
34.2056
9.5935
371.97
143.724
247.201
286.715
-8.52667
83.3528
417.349
154.226
60.3523
383.047
3.00124
38.6266
456.152
116.099
29.2338
480.399
41.3178
21.4696
533.551
103.121
35.5837
574.752
62.315
18.9078
617.244
83.0173
27.5733
644.434
47.7571
21.9428
668.816
42.7682
31.0451
683.187
19.3062
36.1937
693.698
17.2575
43.6032
710.262
8.12446
41.8762
744.394
17.3068
30.2368
20.1712
-8.95563
364.186
1556.14
750.966
246.341
228.601
-768.465
445.119
59.7039
-944.164
447.652
26.7458
-320.009
511.488
125.959
68.5882
479.386
34.7935
39.1577
533.671
110.245
93.0424
526.724
2.92089
7.53174
551.42
81.1642
27.1953
556.684
32.4848
-3.8088
573.018
76.3105
17.0305
582.553
50.4065
-3.06193
594.932
64.7107
6.16507
598.78
44.6225
-8.03132
598.249
45.3253
-9.86686
594.872
31.5014
-25.8191
595.29
26.6317
-38.2324
598.674
16.0368
-57.2821
618.106
2.35076
-73.2753
1.53753
-86.0796
-1016.04
186.821
-5136.14
-322.805
106.736
15.3598
-90.3324
0.7259
-355.636
45.4717
-79.4137
-79.4237
183.228
33.7918
-170.546
245.097
-17.9555
-30.6124
378.585
5.63707
-94.3358
411.163
-37.606
-30.9934
485.857
-0.233203
-16.6414
509.621
4.16268
-10.2093
541.608
32.8149
20.2048
551.088
41.1932
2.00715
559.923
54.2226
-1.2602
558.902
50.8317
-22.6177
559.904
49.4024
-31.06
559.41
41.6243
-44.9755
563.573
34.0319
-51.6982
571.473
28.022
-66.963
591.749
8.32127
-78.3927
7.45768
-79.5005
958.054
668.085
-1255.16
783
208.184
262.535
779.952
78.6262
-199.36
718.803
-13.4261
54.8133
708.358
78.6996
-55.6156
693.493
16.996
-100.477
690.883
6.40879
-70.3119
692.101
-28.1589
-96.8439
698.864
-19.0094
-36.3046
705.973
-4.66189
-49.5405
706.649
20.8271
-3.77866
705.933
38.2504
-2.67572
701.582
55.896
33.0398
696.006
59.9282
21.0665
692.132
56.4484
7.73104
692.986
47.249
-8.91055
698.723
34.9821
-11.9258
712.591
29.5355
-25.4439
737.743
6.44175
-12.9453
7.68313
-4.39828
429.252
2895.92
635.362
216.912
134.909
877.408
544.597
39.3399
367.21
463.003
-25.7345
454.119
605.088
24.8736
100.148
597.638
45.2961
-7.32976
621.102
28.5087
-58.8466
619.527
27.4339
-120.64
628.316
4.95683
-83.277
638.925
8.11294
-92.7
657.566
5.05124
-45.9215
677.17
17.4876
-38.1591
700.875
27.1983
-5.57333
723.672
35.9227
2.71461
742.721
34.1174
17.6395
758.371
29.4806
17.158
772.166
16.5025
24.8471
787.334
7.11032
37.8168
798.795
-21.3988
63.2365
-12.9612
57.3547
-519.207
-1611.6
39.6313
-521.086
956.605
-565.855
937.255
133.633
974.537
325.378
979.817
231.918
968.639
216.009
988.077
101.88
970.739
103.374
969.4
62.3021
945.061
95.0708
937.487
84.0209
932.169
100.917
941.286
87.452
949.911
83.8689
958.288
65.7118
954.756
53.7424
940.23
50.2643
878.718
98.8412
90.7052
753.931
240.145
911.885
980.448
-782.736
1125.48
965.239
34.3515
458.613
984.235
134.761
291.18
1015.53
134.734
439.668
1082.3
46.4994
221.508
1132.21
6.19308
204.799
1177.49
-13.109
82.6731
1207.68
-22.3282
54.2559
1232.68
-25.0229
1.92525
1238.77
-10.1899
-7.83502
1232.01
-0.640011
-19.8309
1199.58
17.7784
-5.76837
1158.49
22.6141
0.542484
1121.43
22.8095
7.86794
1097.14
21.569
10.7526
1081.38
21.2781
5.98776
1068.49
22.5959
-2.94765
1047.41
24.0154
-14.9587
8.23374
-25.3224
508.657
466.962
671.804
723.536
-721.268
-673.413
825.142
45.8198
-764.267
839.24
46.486
-370.577
861.872
179.207
263.209
918.002
156.101
340.725
948.796
129.975
351.866
944.104
74.259
163.301
930.991
36.6603
115.149
921.005
25.9536
57.1667
912.228
26.0651
42.1706
901.9
32.6597
20.4045
894.113
38.9309
19.5202
886.738
39.4627
9.15924
876.253
37.8429
-0.0376682
864.659
35.8906
-11.423
852.044
34.9896
-19.4901
839.388
34.335
-26.9226
824.572
28.9395
-32.5283
-0.0121379
-32.5994
482.781
-1340.51
-1844.54
165.327
-459.364
356.251
700.197
-145.429
-375.025
777.245
-79.7647
-134.94
828.751
108.252
-5.92895
856.25
129.659
6.2126
871.911
136.442
80.762
860.182
109.28
43.2737
849.555
80.053
90.1207
832.663
71.6652
48.272
818.272
57.6849
42.2678
806.705
56.7104
19.7758
801.345
49.0727
15.2053
800.76
43.806
8.94486
799.893
39.6246
3.42704
797.431
38.6286
-2.84816
793.495
37.2275
-9.18346
791.563
33.4706
-16.2649
791.834
22.9937
-23.5947
-5.24072
-17.9336
235.532
-772.667
-3662.97
212.939
-470.038
-843.183
395.483
-333.915
-620.551
495.567
-170.79
-54.3212
661.907
-39.3998
3.6766
730.266
56.2504
40.0999
798.706
76.5076
79.2682
795.91
127.867
57.7884
787.302
109.196
80.6618
761.106
119.463
44.9404
748.855
89.6263
45.0063
738.554
77.7357
20.237
740.085
51.1054
18.3039
747.725
39.9351
15.3473
759.539
30.5633
12.8899
766.254
31.9019
1.90383
767.606
30.8965
-9.22017
766.794
26.3687
-19.2618
760.125
14.7946
-13.9056
-5.47558
1.03673
590.059
-89.7845
2977.33
660.806
-532.151
-996.205
637.601
-504.481
-384.183
700.007
-249.736
28.2944
814.867
-145.474
72.5375
842.681
65.9214
71.0826
863.455
93.1484
96.0622
831.273
192.691
64.6782
800.318
170.252
92.6538
763.635
182.753
50.9488
745.731
122.585
48.7032
735.424
92.2761
22.45
738.72
49.9921
25.7632
742.736
43.0673
30.8617
742.302
38.7361
23.6863
736.834
41.816
15.1563
725.325
40.2234
14.6169
710.256
33.2713
20.7075
698.312
18.3778
45.9234
-1.88461
45.3742
698.591
-466.509
2212.63
864.698
-487.84
-39.3755
666.165
-421.823
-226.507
679.02
-260.54
9.90744
750.773
-181.445
34.1642
787.412
51.1304
22.7787
854.54
59.9767
64.1209
823.081
250.26
42.3451
794.922
225.524
65.088
753.257
246.895
38.4982
719.817
159.06
32.2364
692.293
119.354
25.8101
686.487
68.3685
53.8052
672.84
80.8826
64.8491
651.206
76.3508
61.8548
618.708
75.946
40.4456
593.218
64.1711
39.3953
580.903
44.2449
47.5981
592.527
6.85574
61.6222
-17.9836
54.7873
696.258
-1653.44
211.649
964.254
-877.871
278.992
860.242
-481.006
65.4825
838.183
-286.762
32.6945
853.37
-202.872
12.8026
805.751
88.7641
-26.3668
830.141
10.5551
-20.727
1.11777
13.9897
4.93136
800.407
49.2172
-17.7637
80.905
55.3821
83.2153
785.445
64.1696
28.6789
64.2405
62.7097
61.8775
753.319
70.594
59.3299
81.8953
68.4587
79.6026
707.607
57.3214
85.3568
55.9608
54.1302
53.585
651.975
47.4683
108.902
55.3465
45.8221
54.1653
610.396
35.47
87.8113
38.0616
34.6231
37.4898
571.48
32.8578
56.2155
40.5847
32.6815
40.9875
534.479
120.58
15.916
513.625
99.6002
7.08586
516.849
66.7229
15.8972
527.871
41.3202
22.2122
559.681
-19.9854
36.3972
-45.8188
43.8241
1053.46
-1441.16
-1440.54
850.553
-1014.64
321.296
840.7
-527.157
80.0028
764.686
-272.946
25.3623
801.755
-194.766
49.2378
200.836
13.3506
-13.8623
195.273
185.852
179.866
40.3882
22.0868
48.4583
-0.564528
204.341
12.3682
-4.75425
25.1415
-195.545
198.867
40.1075
-19.3541
15.9225
-202.811
197.718
68.474
-15.1339
-5.88001
-193.436
189.09
75.4691
5.35067
-11.2162
-189.632
179.152
70.3108
8.70682
-25.5887
-172.784
162.454
60.1997
23.1877
-20.9529
-159.584
148.699
49.9348
17.3732
-8.57419
-144.961
138.818
42.0623
5.51289
523.496
34.3859
-35.9863
-137.173
-140.684
-132.631
-134.093
35.5914
32.4988
34.9123
514.3
99.6897
-48.225
518.069
54.4395
-44.3154
535.94
21.5479
-36.6593
566.111
-40.364
-1.77136
-60.5339
20.4949
3800.93
253.473
-2309.5
2273
-236.923
-112.211
1274.35
-101.638
207.27
858.682
-84.3655
-8.99142
188.472
-30.231
40.0538
175.358
175.012
160.001
-18.4188
195.972
9.62897
14.6412
-3.30751
-3.44113
-52.7117
52.0911
4.97893
2.39037
5.80443
-49.5389
-7.62459
49.181
7.37581
-5.1978
6.96087
-49.7805
-16.303
49.0804
16.3675
-6.32533
2.9216
-47.1456
-19.2689
45.9498
20.1769
-2.63375
-0.809916
-45.2827
-19.4968
44.0737
21.0314
0.484334
-1.30961
-42.993
-16.7953
41.6016
18.3541
1.14227
-3.28565
-40.976
-14.0264
39.9281
15.3657
2.99418
-2.65209
-40.1746
-11.8086
39.355
13.3643
1.916
-40.0618
10.741
156.747
40.8718
-11.3417
-42.12
-39.2915
-41.159
627.776
109.915
-25.7376
-157.069
-176.603
-149.072
-164.914
599.587
74.9245
-51.6614
569.353
46.5477
-73.6229
563.6
-34.8731
-58.3349
-59.7124
-25.0138
1481.09
1053.26
1022.49
1107.71
134.405
-98.2442
967.02
115.591
-47.2639
841.966
20.501
-133.747
184.871
133.217
3.43623
179.153
166.059
158.94
-7.65559
-10.1366
182.599
16.8003
3.26328
-8.62581
-3.92855
-47.8771
49.2762
3.96519
7.18998
0.357508
-8.13802
-49.3118
49.2791
8.23518
-0.421954
5.67538
-15.8289
-48.9672
48.6906
15.7453
-5.31514
5.01327
-20.8972
-47.6038
47.1532
21.0661
-4.73153
-46.4498
3.24711
-22.3812
46.3733
22.5047
-3.29415
-46.2748
3.12931
-19.9065
20.2486
-3.17162
45.975
0.971336
-16.0779
-45.5752
45.7113
16.1083
-1.13785
0.0160892
-14.2102
-47.657
48.5012
13.8258
-0.475956
-51.0175
8.3143
-42.3899
209.641
37.4113
-7.75284
-52.7801
-49.8655
-51.5608
855.46
109.162