/*--------------------------------*- C++ -*----------------------------------*\
  =========                 |
  \\      /  F ield         | OpenFOAM: The Open Source CFD Toolbox
   \\    /   O peration     | Website:  https://openfoam.org
    \\  /    A nd           | Version:  10
     \\/     M anipulation  |
\*---------------------------------------------------------------------------*/
FoamFile
{
    format      ascii;
    class       volScalarField;
    location    "2";
    object      turbidity;
}
// * * * * * * * * * * * * * * * * * * * * * * * * * * * * * * * * * * * * * //

dimensions      [0 0 0 0 0 0 0];

internalField   nonuniform List<scalar> 
12920
(
-0.0147445
-0.024049
-0.0328976
-0.0461712
-0.0663642
-0.0943111
-0.123425
-0.151623
-0.175635
-0.192425
-0.205235
-0.220038
-0.242916
-0.277114
-0.32276
-0.372017
-0.415193
-0.448772
-0.467392
-0.46599
-0.00920491
-0.0181198
-0.0255823
-0.0350603
-0.0480248
-0.0796075
-0.133551
-0.187907
-0.227467
-0.255162
-0.276478
-0.298959
-0.326159
-0.357893
-0.389626
-0.413955
-0.4289
-0.434466
-0.42491
-0.407554
-0.00526746
-0.0172891
-0.033164
-0.0491888
-0.0697567
-0.0927617
-0.118963
-0.151487
-0.193172
-0.242899
-0.291136
-0.333057
-0.369895
-0.40304
-0.431254
-0.451766
-0.464295
-0.469555
-0.465464
-0.460864
-0.0212161
-0.0415753
-0.0590658
-0.0775793
-0.092932
-0.108329
-0.127243
-0.154964
-0.196405
-0.253709
-0.317664
-0.376795
-0.428043
-0.471906
-0.507182
-0.528498
-0.534373
-0.533812
-0.536336
-0.550278
-0.0421975
-0.0493706
-0.0685896
-0.0866829
-0.0993417
-0.110307
-0.121583
-0.137961
-0.166549
-0.215243
-0.277025
-0.339918
-0.398754
-0.456259
-0.514472
-0.569107
-0.613393
-0.645787
-0.671985
-0.700613
-0.0159036
-0.0526673
-0.0679202
-0.0817264
-0.0967065
-0.111919
-0.125979
-0.142781
-0.167042
-0.204023
-0.250481
-0.301344
-0.35578
-0.422531
-0.506992
-0.595046
-0.667803
-0.720862
-0.758932
-0.788452
-0.0300066
-0.0412099
-0.0477763
-0.0640274
-0.085764
-0.105153
-0.119641
-0.136748
-0.160928
-0.192718
-0.235808
-0.296947
-0.376632
-0.449421
-0.491437
-0.508164
-0.514058
-0.515398
-0.506997
-0.521321
-0.0149047
-0.0297358
-0.0430642
-0.0589057
-0.0804346
-0.102289
-0.10502
-0.106005
-0.116072
-0.142843
-0.182646
-0.235053
-0.296957
-0.343062
-0.265948
-0.242045
-0.23444
-0.250912
-0.279519
-0.320819
-0.0104118
-0.0242267
-0.0377699
-0.0543927
-0.0799749
-0.0890127
-0.099666
-0.100843
-0.0984283
-0.107
-0.132715
-0.172009
-0.208133
-0.232334
-0.213711
-0.174447
-0.170522
-0.179915
-0.214966
-0.266761
-0.0137697
-0.0278336
-0.0379853
-0.0504331
-0.0696511
-0.0762441
-0.0908925
-0.105535
-0.102368
-0.0951424
-0.102837
-0.124947
-0.140977
-0.147007
-0.159711
-0.15237
-0.162027
-0.175611
-0.200183
-0.242864
-0.0410266
-0.042173
-0.0487119
-0.0603444
-0.0779508
-0.0791172
-0.0867073
-0.104097
-0.109069
-0.102627
-0.0984911
-0.104731
-0.111752
-0.111547
-0.117814
-0.129188
-0.145068
-0.16227
-0.185133
-0.221822
-0.0111481
-0.0414471
-0.0561062
-0.0711333
-0.0911501
-0.0893013
-0.0934392
-0.103747
-0.117367
-0.112412
-0.1023
-0.0979608
-0.0975185
-0.0971319
-0.101245
-0.115743
-0.134801
-0.157749
-0.187474
-0.226799
-0.01727
-0.0563415
-0.0649687
-0.0868474
-0.109659
-0.138444
-0.134472
-0.14249
-0.146125
-0.138603
-0.129063
-0.121958
-0.118498
-0.120588
-0.16142
-0.19744
-0.219522
-0.232417
-0.246897
-0.273959
-0.0439573
-0.0414373
-0.0545872
-0.0700231
-0.0922882
-0.129021
-0.1645
-0.205539
-0.223757
-0.240643
-0.239423
-0.250269
-0.264896
-0.296606
-0.338144
-0.380567
-0.404587
-0.407779
-0.405446
-0.416883
-0.0258008
-0.0319217
-0.0431295
-0.0635825
-0.0980843
-0.162326
-0.208693
-0.242644
-0.262257
-0.281504
-0.295697
-0.316412
-0.340329
-0.371896
-0.403797
-0.428703
-0.440782
-0.439199
-0.42545
-0.400553
-0.0309623
-0.0228412
-0.0336612
-0.0506508
-0.0826794
-0.135159
-0.184794
-0.215474
-0.243103
-0.264463
-0.289493
-0.312966
-0.339838
-0.363294
-0.381405
-0.382117
-0.36569
-0.337619
-0.304458
-0.2814
-0.0494249
-0.0462193
-0.0671114
-0.0909251
-0.117129
-0.14581
-0.167505
-0.189355
-0.220636
-0.252812
-0.287755
-0.317083
-0.337742
-0.348677
-0.356247
-0.359125
-0.360398
-0.358658
-0.35269
-0.350414
-0.0455813
-0.0634333
-0.0799018
-0.0984841
-0.11124
-0.117513
-0.126674
-0.136347
-0.154666
-0.174756
-0.203777
-0.236866
-0.274811
-0.31436
-0.350025
-0.376933
-0.398318
-0.416076
-0.434559
-0.450138
-0.0280648
-0.0384735
-0.0556871
-0.0919672
-0.117853
-0.132735
-0.147995
-0.161435
-0.185262
-0.208765
-0.240997
-0.273663
-0.312155
-0.347317
-0.379014
-0.408497
-0.436956
-0.464863
-0.493895
-0.523551
-0.0246797
-0.0375495
-0.057758
-0.0857242
-0.112723
-0.137759
-0.159157
-0.179982
-0.201287
-0.223402
-0.247028
-0.273058
-0.300894
-0.3292
-0.356587
-0.383282
-0.410329
-0.441348
-0.482725
-0.543468
-0.00815509
-0.0115343
-0.0209669
-0.0345784
-0.0503954
-0.0613811
-0.0676316
-0.0655616
-0.0585853
-0.0493248
-0.0428404
-0.0397843
-0.0410203
-0.0477382
-0.0606102
-0.0791046
-0.0979002
-0.108604
-0.107221
-0.0988872
-0.00415245
-0.00607928
-0.0132833
-0.0246405
-0.041919
-0.0669684
-0.0916071
-0.103922
-0.108069
-0.103122
-0.092339
-0.0794217
-0.0687174
-0.0603128
-0.0534356
-0.0495798
-0.0479817
-0.0471343
-0.04672
-0.0472071
-0.0118203
-0.00832392
-0.0112511
-0.0150863
-0.0242645
-0.0324656
-0.0450675
-0.056372
-0.071212
-0.077174
-0.0767182
-0.0729641
-0.0701275
-0.0688663
-0.0679764
-0.0682888
-0.0687488
-0.0693021
-0.0713953
-0.0785045
-0.013163
-0.00809847
-0.00977371
-0.0139612
-0.0211241
-0.0267806
-0.040402
-0.055051
-0.075686
-0.0904008
-0.101496
-0.109346
-0.120938
-0.131695
-0.136424
-0.13343
-0.12995
-0.130672
-0.142405
-0.173431
-0.00977172
-0.0126776
-0.0154199
-0.0212203
-0.0308044
-0.0353721
-0.0432799
-0.0505655
-0.0631667
-0.0731835
-0.0848233
-0.104752
-0.138867
-0.177989
-0.209381
-0.229593
-0.243128
-0.261358
-0.29375
-0.325738
-0.0145399
-0.0234898
-0.0199393
-0.0259932
-0.0357365
-0.0415394
-0.0505852
-0.0568991
-0.0639661
-0.0699565
-0.0829369
-0.112937
-0.163743
-0.215837
-0.253083
-0.274759
-0.295442
-0.314081
-0.324314
-0.313498
-0.0122399
-0.0219449
-0.0201568
-0.0204335
-0.028181
-0.0306662
-0.0359698
-0.0468986
-0.0624954
-0.0807072
-0.109
-0.150156
-0.184052
-0.190439
-0.173312
-0.166848
-0.169892
-0.168204
-0.157379
-0.152189
-0.0112826
-0.0105039
-0.0131258
-0.0195842
-0.033192
-0.0328395
-0.0321449
-0.0353678
-0.0492778
-0.0696504
-0.0981278
-0.137967
-0.178561
-0.169294
-0.090735
-0.0691873
-0.0569598
-0.055291
-0.0685977
-0.0848737
-0.00293158
-0.00336115
-0.00743732
-0.0137771
-0.0308225
-0.038853
-0.0388711
-0.0300714
-0.0361909
-0.0526856
-0.0788491
-0.102534
-0.141948
-0.163122
-0.107057
-0.0700105
-0.058684
-0.0515355
-0.0528344
-0.0606976
-0.00388906
-0.00342742
-0.00636456
-0.0110731
-0.0260366
-0.0378852
-0.0559583
-0.0457237
-0.031175
-0.0373128
-0.0507064
-0.0618281
-0.0883287
-0.122105
-0.0916499
-0.0656006
-0.0653845
-0.0652871
-0.0681081
-0.0693423
-0.00529401
-0.00597521
-0.00636456
-0.00909376
-0.0199216
-0.0317589
-0.0558758
-0.0749122
-0.0530684
-0.0354475
-0.0348904
-0.0416538
-0.0655157
-0.0931643
-0.0945172
-0.0766017
-0.072943
-0.0730442
-0.0780584
-0.0809223
-0.00438282
-0.00959846
-0.00784932
-0.00961378
-0.0170798
-0.0230917
-0.0402842
-0.0603811
-0.0776211
-0.0750107
-0.0633793
-0.0662795
-0.0834293
-0.0974122
-0.0848575
-0.0446014
-0.0452321
-0.0508952
-0.0600727
-0.0683771
-0.013888
-0.0160343
-0.012981
-0.0215049
-0.0287631
-0.0333851
-0.0419304
-0.0515087
-0.0563941
-0.0728104
-0.0828744
-0.0817862
-0.0714962
-0.0517364
-0.0417405
-0.049122
-0.0564489
-0.0651131
-0.0810911
-0.103002
-0.0231311
-0.0127469
-0.0178463
-0.0309571
-0.0488664
-0.0543901
-0.055399
-0.0449421
-0.0407106
-0.0390091
-0.0448636
-0.0507251
-0.0637506
-0.0844945
-0.111317
-0.144031
-0.17015
-0.188526
-0.200307
-0.211016
-0.00609208
-0.00933322
-0.020253
-0.0417662
-0.0694648
-0.0607538
-0.0553669
-0.0434822
-0.0439397
-0.0484323
-0.0595237
-0.0719459
-0.0904977
-0.110739
-0.131832
-0.14903
-0.158178
-0.158199
-0.147038
-0.129824
-0.00388512
-0.00592023
-0.0138045
-0.0269145
-0.0514302
-0.0430734
-0.0412645
-0.027293
-0.0303594
-0.0335149
-0.042154
-0.0486497
-0.054708
-0.0557369
-0.0544771
-0.0512006
-0.0495796
-0.0488817
-0.0505852
-0.0526529
-0.0146057
-0.0163402
-0.0148024
-0.0158591
-0.0190228
-0.0165175
-0.018419
-0.0209516
-0.027035
-0.0328345
-0.0397711
-0.0398745
-0.0391234
-0.0382455
-0.0380927
-0.0389519
-0.0415398
-0.0461588
-0.0531659
-0.0612382
-0.00414531
-0.0238068
-0.0276752
-0.0219802
-0.0152004
-0.0128142
-0.0134821
-0.0166396
-0.0230272
-0.0325236
-0.0458048
-0.058973
-0.0720103
-0.0708128
-0.0607692
-0.0552364
-0.0593806
-0.0732341
-0.104017
-0.141716
-0.0179825
-0.0353868
-0.0481539
-0.0467851
-0.0349321
-0.0207187
-0.0179485
-0.0199053
-0.0245614
-0.0300783
-0.0381477
-0.0481372
-0.0608671
-0.075172
-0.0931471
-0.113391
-0.140556
-0.174615
-0.217281
-0.255444
-0.0268797
-0.0176421
-0.0403736
-0.0508874
-0.065689
-0.0685676
-0.0735084
-0.0737814
-0.0781829
-0.0839502
-0.0959189
-0.107831
-0.120131
-0.128811
-0.136029
-0.141355
-0.150521
-0.174121
-0.224915
-0.284416
-0.0038198
-0.0123085
-0.0233828
-0.0311963
-0.0390025
-0.0407753
-0.0411196
-0.0380645
-0.0349229
-0.0322852
-0.0309684
-0.030905
-0.0324569
-0.0360044
-0.0415748
-0.0483291
-0.0538447
-0.0558668
-0.0543379
-0.0504622
-0.00167498
-0.00476304
-0.0137285
-0.0269362
-0.0422519
-0.0533187
-0.0582585
-0.0540252
-0.0492203
-0.0422576
-0.0363259
-0.0320582
-0.0300355
-0.0292561
-0.0292094
-0.0296475
-0.0303008
-0.0312388
-0.032922
-0.0367835
-0.00196653
-0.00509906
-0.0114131
-0.0164213
-0.0228615
-0.0236764
-0.0258456
-0.0266857
-0.0299679
-0.0302906
-0.0306462
-0.0313283
-0.0329483
-0.0347584
-0.0363675
-0.0379754
-0.0400451
-0.0433086
-0.0490669
-0.0596513
-0.00304593
-0.00468589
-0.0077855
-0.0096692
-0.0142639
-0.0172927
-0.0233289
-0.028529
-0.0362828
-0.041395
-0.0477506
-0.0541672
-0.0612398
-0.0661415
-0.0681068
-0.0681013
-0.0694294
-0.0745733
-0.0869856
-0.107213
-0.00256748
-0.00523706
-0.00673131
-0.00828123
-0.0126985
-0.0154673
-0.0208679
-0.0252854
-0.0327184
-0.0402501
-0.0518219
-0.0668077
-0.0847568
-0.101089
-0.112267
-0.119583
-0.128007
-0.141063
-0.160022
-0.170193
-0.0100478
-0.0100814
-0.00982299
-0.0121367
-0.0170818
-0.0194766
-0.0245186
-0.0277187
-0.0335914
-0.0419523
-0.0569643
-0.0777894
-0.103804
-0.12454
-0.133802
-0.137528
-0.147266
-0.157786
-0.16042
-0.146738
-0.00900346
-0.00837141
-0.00784999
-0.010755
-0.01546
-0.0190352
-0.0239703
-0.0292907
-0.0384048
-0.051764
-0.072451
-0.0931486
-0.0988431
-0.0906234
-0.0792559
-0.0777533
-0.0805657
-0.080379
-0.0753334
-0.0705426
-0.00262145
-0.00539086
-0.00910361
-0.0120094
-0.0165277
-0.0175277
-0.0192885
-0.0252687
-0.0338358
-0.0470532
-0.0659243
-0.0895892
-0.099528
-0.0787458
-0.0467055
-0.0416111
-0.0396262
-0.0395613
-0.0422792
-0.0464933
-0.000471642
-0.00138365
-0.00454953
-0.00941306
-0.0160859
-0.0174711
-0.0177242
-0.0197792
-0.0265258
-0.0364168
-0.0513576
-0.0699456
-0.0900251
-0.082431
-0.0540729
-0.0443475
-0.0391727
-0.0360594
-0.0375249
-0.0401139
-0.000900981
-0.00211168
-0.00400494
-0.00802148
-0.0162434
-0.0204008
-0.0249311
-0.0186473
-0.0188226
-0.0236055
-0.0315487
-0.0448055
-0.0608002
-0.0644007
-0.0513584
-0.0436399
-0.0442655
-0.0449609
-0.0463025
-0.047048
-0.00138744
-0.00252634
-0.00362131
-0.00705523
-0.0153615
-0.0213291
-0.0332957
-0.0370036
-0.023775
-0.020451
-0.0252069
-0.0363678
-0.050703
-0.0546805
-0.0477558
-0.0406261
-0.0423111
-0.0455127
-0.0502341
-0.0536221
-0.000979455
-0.00481646
-0.00601695
-0.00846756
-0.0150034
-0.0188389
-0.0255696
-0.0355833
-0.0428789
-0.0411238
-0.0436616
-0.0543769
-0.0678719
-0.0730474
-0.0476002
-0.0368472
-0.0415539
-0.0466496
-0.0524479
-0.0579282
-0.00830547
-0.00868714
-0.0101924
-0.0132581
-0.0161402
-0.0170709
-0.0191348
-0.0219278
-0.0286548
-0.0385569
-0.0452661
-0.0459416
-0.0391503
-0.0302728
-0.0374393
-0.044834
-0.0510309
-0.0571811
-0.064988
-0.0758899
-0.0116151
-0.00966148
-0.0152077
-0.0209614
-0.0290934
-0.0240587
-0.021224
-0.0183652
-0.019197
-0.0219186
-0.0261346
-0.0319564
-0.0402893
-0.0528262
-0.0671982
-0.0846007
-0.100228
-0.114395
-0.123547
-0.130081
-0.00761607
-0.00834896
-0.0145475
-0.0265866
-0.036712
-0.023234
-0.0201611
-0.0202532
-0.0230488
-0.0282166
-0.0345072
-0.0421182
-0.051307
-0.061214
-0.0714549
-0.0809733
-0.0891299
-0.0943728
-0.0965648
-0.0960582
-0.00565021
-0.00600454
-0.00911617
-0.0139991
-0.0222998
-0.0163931
-0.0172318
-0.0183082
-0.0224286
-0.0266359
-0.0315123
-0.0351849
-0.0390556
-0.0418184
-0.0449639
-0.0474117
-0.0504761
-0.0525443
-0.0547412
-0.0561548
-0.00593491
-0.00970345
-0.00913156
-0.00999429
-0.0118934
-0.0124951
-0.0148719
-0.0173414
-0.0207048
-0.0236601
-0.026895
-0.029125
-0.03172
-0.0343863
-0.0374439
-0.0411354
-0.0459845
-0.0525957
-0.0624563
-0.0734725
-0.00122783
-0.00431463
-0.0108595
-0.0150264
-0.0134431
-0.0125762
-0.0136722
-0.016443
-0.0204718
-0.0249519
-0.0294486
-0.0328559
-0.0360861
-0.0379311
-0.0421916
-0.0509907
-0.0641684
-0.0811133
-0.102555
-0.123871
-0.00833591
-0.0206021
-0.0261405
-0.0214511
-0.0146168
-0.0138959
-0.0161934
-0.0188153
-0.0221994
-0.0255784
-0.0295829
-0.0345516
-0.0415489
-0.0513272
-0.0651362
-0.0827334
-0.104528
-0.130142
-0.159363
-0.184751
-0.00980681
-0.00678375
-0.0123516
-0.0251718
-0.0370795
-0.0396897
-0.0409019
-0.0384948
-0.0392509
-0.0421245
-0.0494467
-0.056269
-0.0627575
-0.0670304
-0.0715601
-0.0782891
-0.0922565
-0.119313
-0.162886
-0.205919
-0.00539605
-0.0130655
-0.02036
-0.0238598
-0.0283394
-0.0283008
-0.0278895
-0.0259842
-0.0245516
-0.0236283
-0.0236783
-0.0245668
-0.0263577
-0.0289849
-0.031939
-0.0342691
-0.0349791
-0.0339983
-0.0319076
-0.0291796
-0.000836099
-0.00395781
-0.0129577
-0.0239586
-0.033374
-0.0324783
-0.0304544
-0.0261027
-0.0240564
-0.0223791
-0.0219108
-0.0220433
-0.022626
-0.02318
-0.0235594
-0.0237132
-0.0236502
-0.0235845
-0.0238614
-0.0251247
-0.00073725
-0.00302299
-0.00871822
-0.0136424
-0.0173537
-0.0157131
-0.0159975
-0.0162139
-0.0178812
-0.0190584
-0.0205798
-0.0219607
-0.0232734
-0.0243251
-0.0252814
-0.0263201
-0.0276386
-0.0293334
-0.0318167
-0.0346471
-0.00321479
-0.00419604
-0.00682756
-0.00833609
-0.0109078
-0.0120005
-0.0151108
-0.017912
-0.0223877
-0.0260174
-0.0301201
-0.0331813
-0.0356238
-0.0367018
-0.0371744
-0.0377624
-0.039723
-0.0433474
-0.0489845
-0.0537273
-0.00572324
-0.00423012
-0.00492328
-0.00601869
-0.00830751
-0.0101244
-0.0138764
-0.0178438
-0.0241769
-0.0306392
-0.0383276
-0.0452214
-0.0517229
-0.0565002
-0.0596818
-0.0628423
-0.0679683
-0.0746013
-0.0806856
-0.0776389
-0.0124842
-0.00805823
-0.00720336
-0.00822395
-0.0105873
-0.0119875
-0.015826
-0.0199052
-0.0270797
-0.0352598
-0.0449288
-0.0531979
-0.0607548
-0.0639505
-0.0637708
-0.0636089
-0.0671482
-0.0706585
-0.0696416
-0.0603246
-0.00516604
-0.00508433
-0.00529239
-0.00782404
-0.0114238
-0.0139873
-0.0181895
-0.0228875
-0.0313269
-0.0416077
-0.0520463
-0.0561299
-0.0508756
-0.0436667
-0.0388437
-0.0385035
-0.0395912
-0.0391393
-0.0364143
-0.0324334
-0.00235571
-0.00468919
-0.00674066
-0.00852156
-0.0109088
-0.0130941
-0.0152866
-0.0208692
-0.0283015
-0.0391297
-0.0504525
-0.0579281
-0.0512227
-0.0370093
-0.0272085
-0.0273363
-0.0277737
-0.0277167
-0.027229
-0.0266612
-0.00151061
-0.00367393
-0.00654244
-0.00934731
-0.0117803
-0.0127247
-0.0135828
-0.0166551
-0.023097
-0.0325204
-0.0443159
-0.0539771
-0.0546701
-0.0423334
-0.0317009
-0.0280336
-0.0237359
-0.0212616
-0.0207258
-0.019248
-0.000824652
-0.00212075
-0.00448057
-0.00859862
-0.0129126
-0.0139904
-0.0146002
-0.0142266
-0.0171161
-0.0234855
-0.0324652
-0.0414594
-0.0473205
-0.0497673
-0.0503792
-0.0457389
-0.0429722
-0.0387056
-0.0338881
-0.0280227
-0.00164015
-0.00262456
-0.00385372
-0.00756911
-0.013186
-0.0159883
-0.0204334
-0.0196468
-0.0177356
-0.0205396
-0.0264136
-0.0323278
-0.0333539
-0.0313296
-0.0335269
-0.0441315
-0.0461926
-0.0464949
-0.0454712
-0.0398139
-0.00214489
-0.00519492
-0.00660344
-0.009605
-0.0134175
-0.015136
-0.0181769
-0.0220593
-0.0245276
-0.0265359
-0.0316284
-0.0382649
-0.0393439
-0.0321051
-0.0291732
-0.0442195
-0.0472571
-0.0485912
-0.0482872
-0.044121
-0.00635421
-0.00665075
-0.00928188
-0.0116305
-0.0126099
-0.0126193
-0.0133442
-0.0147108
-0.01745
-0.0202898
-0.0221583
-0.0226192
-0.0233687
-0.0283402
-0.0413436
-0.046181
-0.0499094
-0.0533328
-0.0568591
-0.0610112
-0.00311363
-0.00568844
-0.0100051
-0.0133482
-0.0153726
-0.014081
-0.0137595
-0.0163572
-0.018563
-0.0225274
-0.0261216
-0.0318144
-0.0380993
-0.0463625
-0.0549468
-0.0645182
-0.0728507
-0.0802482
-0.0837186
-0.0849239
-0.00215491
-0.00566309
-0.0101056
-0.0150615
-0.0173023
-0.0163781
-0.0161285
-0.019496
-0.0222389
-0.026654
-0.0310368
-0.0363265
-0.0421967
-0.0483245
-0.054608
-0.0602017
-0.0648647
-0.067404
-0.0678288
-0.0661604
-0.00828978
-0.00688955
-0.00762031
-0.0102768
-0.0133536
-0.0152742
-0.0176341
-0.0207419
-0.023822
-0.0270254
-0.0304123
-0.0333198
-0.0365357
-0.0388592
-0.0412207
-0.0424478
-0.0436081
-0.0435464
-0.043415
-0.0425481
-0.00508283
-0.00664556
-0.00736431
-0.00932692
-0.012592
-0.0149758
-0.0181469
-0.0209108
-0.0240198
-0.0270234
-0.0301932
-0.0334305
-0.0365271
-0.0394624
-0.0421748
-0.0446818
-0.046773
-0.048406
-0.0499494
-0.0510036
-0.00296303
-0.00546017
-0.00987536
-0.0104077
-0.0110277
-0.0128867
-0.0155311
-0.0188573
-0.0221772
-0.0259036
-0.0298626
-0.0345541
-0.0401605
-0.0471952
-0.0550669
-0.0628867
-0.0701846
-0.0759902
-0.0805558
-0.0815227
-0.00329714
-0.00884107
-0.0100454
-0.0119921
-0.0128478
-0.0147625
-0.0169239
-0.019659
-0.0232731
-0.027785
-0.0326283
-0.0383567
-0.0451569
-0.0534195
-0.0634179
-0.0751897
-0.0889119
-0.103559
-0.117259
-0.121825
-0.0169985
-0.00628184
-0.00678684
-0.0133788
-0.0215129
-0.0235931
-0.0237363
-0.0216076
-0.0224104
-0.0248601
-0.0297251
-0.0340347
-0.0384696
-0.0428332
-0.0493318
-0.0599536
-0.0772842
-0.102594
-0.133895
-0.157242
-0.0036247
-0.0127113
-0.017179
-0.0183139
-0.019475
-0.0176522
-0.0167326
-0.0154825
-0.015293
-0.015807
-0.0171076
-0.0187459
-0.0202734
-0.0210591
-0.020758
-0.0194915
-0.0177586
-0.0159376
-0.0142704
-0.0129233
-0.000821804
-0.00212658
-0.00891936
-0.0153885
-0.0183627
-0.0171746
-0.0169087
-0.0164845
-0.0168494
-0.0171773
-0.0175595
-0.0175767
-0.017225
-0.0163414
-0.0150475
-0.0134908
-0.0118732
-0.0104635
-0.00955121
-0.00940877
-0.00118387
-0.00298756
-0.00674166
-0.00945143
-0.0113189
-0.0121878
-0.0137653
-0.0151404
-0.0164823
-0.0173507
-0.0178759
-0.0178232
-0.0173494
-0.0164075
-0.0151736
-0.0137797
-0.0123635
-0.0109706
-0.00966638
-0.00864146
-0.00237449
-0.00321322
-0.00553738
-0.00748247
-0.00975579
-0.0119624
-0.0145487
-0.016641
-0.0187155
-0.0197511
-0.0204826
-0.0203599
-0.0200285
-0.0191797
-0.0182616
-0.0173036
-0.0166235
-0.0158252
-0.0145547
-0.0123082
-0.00170563
-0.00197512
-0.00382074
-0.00604695
-0.0087477
-0.011721
-0.0153135
-0.018294
-0.0213491
-0.022969
-0.0244663
-0.0249025
-0.0253991
-0.0254872
-0.0255855
-0.0257649
-0.0261741
-0.0258707
-0.0240187
-0.0188294
-0.00443865
-0.00535469
-0.0057125
-0.0077155
-0.010427
-0.0135453
-0.017543
-0.0205535
-0.0237224
-0.0249831
-0.0256647
-0.0249373
-0.0242772
-0.0228946
-0.0216507
-0.0207797
-0.020383
-0.0190698
-0.0166267
-0.0125774
-0.00577521
-0.00526957
-0.00635947
-0.00886673
-0.011832
-0.015111
-0.0194248
-0.0226751
-0.0259563
-0.0274743
-0.0261789
-0.0222167
-0.0168644
-0.0135257
-0.011634
-0.0108393
-0.0101198
-0.00908157
-0.0078955
-0.00639769
-0.00188093
-0.00470269
-0.00695107
-0.00919808
-0.0117432
-0.0148311
-0.0173051
-0.0220351
-0.0251947
-0.0280668
-0.0270307
-0.0229752
-0.0153075
-0.0109752
-0.00818233
-0.00791111
-0.00759146
-0.00719613
-0.0067615
-0.0061798
-0.000760878
-0.00425739
-0.0077412
-0.0104932
-0.0130576
-0.0147141
-0.0162315
-0.0201882
-0.0244677
-0.0280778
-0.0291093
-0.0265309
-0.0198438
-0.0130721
-0.0083696
-0.00529169
-0.00401922
-0.00321358
-0.00255524
-0.00222021
-0.00100409
-0.00246745
-0.00653982
-0.0108717
-0.0137583
-0.0149343
-0.0161937
-0.0186991
-0.0224253
-0.0270579
-0.0316011
-0.0353319
-0.0368179
-0.0357723
-0.0260849
-0.0147788
-0.00914499
-0.00503465
-0.00292461
-0.0017885
-0.000585439
-0.0025038
-0.006052
-0.01071
-0.0138476
-0.0151797
-0.016298
-0.0177027
-0.0199678
-0.0226499
-0.0254229
-0.0286883
-0.0337099
-0.0399449
-0.0366645
-0.0221622
-0.0174293
-0.0118674
-0.0084019
-0.00452529
-0.00341966
-0.00517133
-0.00829167
-0.0111676
-0.0133149
-0.0143018
-0.0150735
-0.0160368
-0.0172063
-0.0184791
-0.0199327
-0.022091
-0.0271804
-0.0349168
-0.0330815
-0.0200649
-0.0158141
-0.0120762
-0.00991309
-0.00636263
-0.00534874
-0.00627463
-0.0089367
-0.0107478
-0.0124292
-0.0145818
-0.015103
-0.0170666
-0.0182125
-0.0196326
-0.0216407
-0.0241023
-0.0265503
-0.0281683
-0.0266073
-0.0255465
-0.0239901
-0.0232354
-0.0226584
-0.0212965
-0.00382978
-0.00603261
-0.0087383
-0.0109806
-0.0129229
-0.0159849
-0.0183167
-0.0226229
-0.0248625
-0.0284106
-0.0304647
-0.0341289
-0.03679
-0.0404305
-0.042261
-0.0436614
-0.0431732
-0.0420639
-0.0391078
-0.0364592
-0.000609612
-0.00487987
-0.00945557
-0.0132861
-0.0163331
-0.0194876
-0.021064
-0.0244633
-0.0267869
-0.029216
-0.0313817
-0.0328429
-0.0344092
-0.0345694
-0.0344125
-0.0326825
-0.0306143
-0.0276953
-0.0249541
-0.0219207
-0.00379702
-0.00444582
-0.00738361
-0.0122369
-0.0167529
-0.0206061
-0.0230559
-0.0258434
-0.0274931
-0.0289441
-0.0294795
-0.0291206
-0.02822
-0.0264207
-0.0244018
-0.0219749
-0.0196796
-0.0174474
-0.0156867
-0.0143579
-0.00453961
-0.00574004
-0.0089384
-0.0134483
-0.0184168
-0.0228294
-0.0263887
-0.0296992
-0.0319437
-0.034804
-0.0364154
-0.038579
-0.0392677
-0.0399014
-0.0390176
-0.0372802
-0.0341917
-0.0303021
-0.0261095
-0.0222533
-0.00344982
-0.00638496
-0.0090108
-0.0113366
-0.0145807
-0.0191637
-0.0245275
-0.0297952
-0.0342705
-0.0387046
-0.0426313
-0.0472004
-0.0514188
-0.0553751
-0.058083
-0.0590248
-0.0576685
-0.0534696
-0.0468455
-0.0377226
-0.00147871
-0.00456286
-0.00723245
-0.0104915
-0.0126291
-0.0152779
-0.0195488
-0.0253699
-0.0309773
-0.0360308
-0.0405624
-0.0452624
-0.0504988
-0.0564923
-0.0632261
-0.0700304
-0.0760086
-0.0791871
-0.077829
-0.0688717
-0.011034
-0.00857404
-0.00776087
-0.0109242
-0.0141979
-0.0143253
-0.0146099
-0.0155385
-0.0187317
-0.0223068
-0.0262502
-0.0302669
-0.0352291
-0.0416493
-0.0504335
-0.0620377
-0.0764309
-0.0921703
-0.106315
-0.110862
-0.0291931
-0.0197781
-0.0236404
-0.0235865
-0.0301294
-0.0205816
-0.0253018
-0.0409019
-0.0255756
-0.0331609
-0.0326618
-0.0406696
-0.0273215
-0.033596
-0.0234172
-0.0344177
-0.0342272
-0.021061
-0.0253269
-0.0276379
-0.030802
-0.032979
-0.0355538
-0.0427461
-0.0273409
-0.0338287
-0.0326135
-0.0393278
-0.101603
-0.0976227
-0.103645
-0.0946621
-0.0814564
-0.0920853
-0.0940948
-0.0983303
-0.104219
-0.100246
-0.0738266
-0.0640317
-0.0869203
-0.0593123
-0.102891
-0.0980083
-0.0941261
-0.0663719
-0.0821129
-0.0542338
-0.0553258
-0.123648
-0.0945178
-0.101968
-0.092468
-0.123136
-0.0605902
-0.0875218
-0.159883
-0.106576
-0.125881
-0.135212
-0.162717
-0.0981526
-0.12156
-0.199137
-0.133037
-0.149871
-0.173866
-0.197428
-0.125336
-0.136735
-0.227076
-0.152598
-0.157993
-0.205991
-0.222816
-0.142062
-0.15906
-0.231569
-0.161478
-0.173958
-0.224833
-0.209332
-0.164406
-0.170384
-0.103353
-0.0882607
-0.10204
-0.0849225
-0.0966666
-0.0828859
-0.0969655
-0.104639
-0.10531
-0.109167
-0.0937131
-0.065866
-0.101107
-0.094269
-0.0958889
-0.108607
-0.103119
-0.0582801
-0.0522459
-0.0852621
-0.0604994
-0.0992777
-0.100979
-0.0979421
-0.0555412
-0.0773107
-0.0567055
-0.0583201
-0.118884
-0.0986279
-0.10531
-0.0865595
-0.107132
-0.0620052
-0.0736176
-0.139031
-0.108392
-0.116318
-0.110623
-0.121496
-0.0772402
-0.090937
-0.144029
-0.117404
-0.117296
-0.126796
-0.143662
-0.0964139
-0.111305
-0.159065
-0.118207
-0.124119
-0.148897
-0.154299
-0.115299
-0.121383
-0.100243
-0.0871062
-0.0987008
-0.0820442
-0.0944269
-0.081965
-0.0934004
-0.10931
-0.10316
-0.113916
-0.09938
-0.101316
-0.098707
-0.111377
-0.104663
-0.115353
-0.111217
-0.0950473
-0.0697859
-0.112682
-0.103862
-0.0985359
-0.108766
-0.101997
-0.0638576
-0.0592956
-0.0981006
-0.0827655
-0.102523
-0.100369
-0.098269
-0.0609346
-0.0680585
-0.0795623
-0.0758252
-0.110814
-0.0983488
-0.0993421
-0.0709557
-0.0848938
-0.0765898
-0.084955
-0.111149
-0.0995358
-0.0987997
-0.0905399
-0.104916
-0.0888165
-0.0981464
-0.115549
-0.0986373
-0.098289
-0.10858
-0.115564
-0.100529
-0.10568
-0.0999518
-0.10893
-0.116419
-0.0875251
-0.0954836
-0.10492
-0.113874
-0.114982
-0.120658
-0.130822
-0.099903
-0.112533
-0.118612
-0.125161
-0.115131
-0.131152
-0.126717
-0.114965
-0.111532
-0.125688
-0.125016
-0.10442
-0.124056
-0.115281
-0.107453
-0.0941439
-0.123701
-0.117943
-0.0984605
-0.112522
-0.106209
-0.0907599
-0.0858139
-0.115935
-0.111199
-0.0975575
-0.104718
-0.101355
-0.0860081
-0.0908875
-0.110044
-0.107439
-0.0971505
-0.100474
-0.0982001
-0.0932451
-0.0996067
-0.106705
-0.103348
-0.0962379
-0.0974924
-0.0975016
-0.101464
-0.10468
-0.100961
-0.0877916
-0.0309797
-0.0484915
-0.0412831
-0.0309373
-0.0260914
-0.0332785
-0.0271652
-0.0330476
-0.0363013
-0.0296587
-0.0260392
-0.03039
-0.0248148
-0.0229028
-0.0466361
-0.0301679
-0.0369564
-0.0339893
-0.0443005
-0.0239693
-0.0307861
-0.0702767
-0.0404634
-0.052825
-0.0500338
-0.0634561
-0.033969
-0.0437378
-0.0951543
-0.0568553
-0.0664365
-0.069143
-0.0824172
-0.0465764
-0.0551535
-0.128284
-0.0696856
-0.088428
-0.0898634
-0.10882
-0.0589074
-0.073737
-0.165482
-0.0987838
-0.13049
-0.115226
-0.120198
-0.0787684
-0.0881543
-0.131244
-0.136347
-0.130226
-0.114412
-0.0899133
-0.0879462
-0.0787052
-0.052339
-0.0590535
-0.0714574
-0.0386359
-0.0321587
-0.0428017
-0.0439143
-0.0323825
-0.0696861
-0.049677
-0.0288363
-0.0228623
-0.0417115
-0.0310311
-0.0345922
-0.0434889
-0.0338216
-0.022893
-0.0273225
-0.0278349
-0.0236053
-0.0474349
-0.0331793
-0.0354448
-0.0298061
-0.0377648
-0.0239181
-0.0267313
-0.0588261
-0.0368838
-0.0422109
-0.0401855
-0.0480491
-0.0283656
-0.0356
-0.0790046
-0.0449139
-0.0602646
-0.0515743
-0.0650303
-0.0390392
-0.0514695
-0.116893
-0.0683016
-0.0914993
-0.0694608
-0.0771707
-0.0554759
-0.0619884
-0.117343
-0.0959747
-0.0980879
-0.0768654
-0.0696368
-0.0617547
-0.0563556
-0.0733813
-0.0487474
-0.0657804
-0.0417529
-0.0482055
-0.0377812
-0.0464844
-0.0603932
-0.0695436
-0.0796211
-0.0474093
-0.0374981
-0.0489341
-0.0528792
-0.0377735
-0.0807363
-0.0690695
-0.0335109
-0.0258841
-0.0520088
-0.0446651
-0.0341895
-0.0633389
-0.0506329
-0.0251629
-0.0265339
-0.0421766
-0.038683
-0.039081
-0.0485324
-0.0484776
-0.0278001
-0.0343547
-0.0389327
-0.0436643
-0.0571944
-0.0509574
-0.0671354
-0.0376338
-0.0499804
-0.0465216
-0.0581799
-0.0884385
-0.0741797
-0.0905615
-0.054217
-0.0624435
-0.0626944
-0.0740224
-0.099526
-0.0943279
-0.101425
-0.0630696
-0.0607375
-0.0763368
-0.0776437
-0.0571187
-0.0368758
-0.0506862
-0.0323118
-0.04101
-0.0291538
-0.0333112
-0.0727566
-0.0536518
-0.0556124
-0.0437108
-0.0514234
-0.0349424
-0.0414682
-0.0783968
-0.0607526
-0.0832319
-0.0527589
-0.0507998
-0.0449249
-0.0552389
-0.0651839
-0.0894415
-0.10022
-0.0492901
-0.0470625
-0.058136
-0.0663215
-0.0639219
-0.101703
-0.103277
-0.047535
-0.0528094
-0.0690032
-0.0758043
-0.0786765
-0.103216
-0.102044
-0.0557448
-0.0667779
-0.077307
-0.0782479
-0.094745
-0.101184
-0.0938601
-0.0707296
-0.0796131
-0.076975
-0.0654734
-0.100594
-0.0885507
-0.0643979
-0.080683
-0.0762438
-0.0593584
-0.0408955
-0.0184306
-0.0192789
-0.0173471
-0.017054
-0.0180948
-0.0161673
-0.0160366
-0.0242019
-0.0171206
-0.0190091
-0.01954
-0.0238106
-0.0162172
-0.018145
-0.0325864
-0.0201211
-0.0244925
-0.0262328
-0.0320421
-0.0192792
-0.0239402
-0.0463015
-0.026294
-0.0328072
-0.0359125
-0.0451819
-0.0259736
-0.0333488
-0.0634381
-0.0354148
-0.0454144
-0.050113
-0.0609449
-0.0362125
-0.0453182
-0.0858682
-0.0496023
-0.0636429
-0.0654161
-0.0719512
-0.0482954
-0.0554305
-0.0892836
-0.0678429
-0.0736873
-0.071554
-0.0650108
-0.0568309
-0.0578111
-0.0622707
-0.0725408
-0.0646903
-0.0596565
-0.0457574
-0.057171
-0.0543196
-0.0203212
-0.0312364
-0.0329635
-0.0183855
-0.016657
-0.0225162
-0.0209159
-0.0181536
-0.0302288
-0.0212341
-0.016394
-0.0171699
-0.0199262
-0.0178902
-0.0221346
-0.0197813
-0.0190417
-0.0179759
-0.0218266
-0.0177697
-0.0193337
-0.0231076
-0.0252642
-0.0214982
-0.0236648
-0.0228833
-0.0253933
-0.0216241
-0.0316727
-0.0342699
-0.0285488
-0.0319663
-0.0311144
-0.0347268
-0.0290958
-0.0573076
-0.0368265
-0.0480523
-0.0432427
-0.0494487
-0.0356025
-0.0388656
-0.0652273
-0.0510652
-0.0540594
-0.0507881
-0.0527232
-0.0389847
-0.0374932
-0.0590044
-0.0530176
-0.0472041
-0.0528239
-0.052673
-0.0368489
-0.0356955
-0.0387078
-0.0306194
-0.0387016
-0.0257026
-0.0248193
-0.0262641
-0.0290037
-0.0265433
-0.0406321
-0.0429535
-0.0236113
-0.0201856
-0.0294857
-0.029111
-0.0203253
-0.0418262
-0.0358681
-0.0195953
-0.0200577
-0.0285167
-0.0273997
-0.0231848
-0.0210304
-0.0230385
-0.0206603
-0.0230499
-0.0212898
-0.022758
-0.0299969
-0.0273508
-0.0263163
-0.0259425
-0.028384
-0.0282313
-0.0276452
-0.0474287
-0.0459892
-0.0570495
-0.0355714
-0.03835
-0.0415753
-0.0463104
-0.0551477
-0.060761
-0.0685587
-0.0383093
-0.0358675
-0.0467636
-0.0439022
-0.0504523
-0.0695221
-0.0671785
-0.0347878
-0.0324096
-0.0419634
-0.035781
-0.0333899
-0.0203014
-0.0245347
-0.0230752
-0.0265366
-0.0182788
-0.0199805
-0.0418501
-0.0252894
-0.0309828
-0.0274332
-0.0294131
-0.020548
-0.0237785
-0.0417666
-0.0346974
-0.0461612
-0.0296223
-0.0300147
-0.0254081
-0.0304303
-0.0421346
-0.0495203
-0.0585421
-0.030527
-0.0342088
-0.0320928
-0.0373202
-0.0511762
-0.0612878
-0.0679693
-0.0361542
-0.0430479
-0.0389948
-0.0423419
-0.0646825
-0.0693512
-0.0694853
-0.045269
-0.0494334
-0.0425021
-0.0394465
-0.0733522
-0.0678148
-0.0558095
-0.0494864
-0.0447741
-0.0373512
-0.0295652
-0.0655094
-0.0501994
-0.0351113
-0.0420661
-0.0340969
-0.0275212
-0.0260151
-0.0151442
-0.0132734
-0.0137965
-0.013979
-0.0162095
-0.0133461
-0.0150868
-0.0207684
-0.0142675
-0.0168144
-0.0181299
-0.0227547
-0.0159883
-0.0197166
-0.0288547
-0.0180953
-0.0232099
-0.0254261
-0.0314927