/*--------------------------------*- C++ -*----------------------------------*\
  =========                 |
  \\      /  F ield         | OpenFOAM: The Open Source CFD Toolbox
   \\    /   O peration     | Website:  https://openfoam.org
    \\  /    A nd           | Version:  10
     \\/     M anipulation  |
\*---------------------------------------------------------------------------*/
FoamFile
{
    format      ascii;
    class       volVectorField;
    location    "2";
    object      U;
}
// * * * * * * * * * * * * * * * * * * * * * * * * * * * * * * * * * * * * * //

dimensions      [0 1 -1 0 0 0 0];

internalField   nonuniform List<vector> 
12920
(
(185.96 69.2946 86.8808)
(176.2 7.80737 16.2502)
(231.231 -6.12158 8.18647)
(220.003 -9.14893 9.20643)
(215.936 -10.5777 15.82)
(176.745 -16.0899 11.9538)
(170.769 -2.84308 7.574)
(142.97 7.50003 3.8375)
(142.091 11.5508 1.62826)
(131.175 11.4559 0.228675)
(131.296 11.092 -0.547747)
(124.009 10.7549 -0.982523)
(122.105 9.64013 -1.25338)
(116.376 8.08374 -1.36417)
(115.614 3.97511 -1.05132)
(114.069 0.522796 -0.241896)
(113.469 -1.68214 0.202239)
(113.112 -2.77987 0.296374)
(114.17 -3.23264 0.027119)
(118.396 -2.39452 -0.221292)
(237.781 150.061 60.659)
(133.154 -76.6094 -24.9393)
(197.508 -80.8255 -34.902)
(245.846 -77.7429 -28.0594)
(275.06 -41.5181 2.47305)
(211.428 -18.0457 12.4788)
(159.372 -3.8085 13.618)
(115.013 -5.0659 6.43652)
(115.681 -5.56759 4.07453)
(105.492 -3.25928 3.13853)
(107.908 1.12069 2.29286)
(103.693 3.11965 1.58086)
(104.28 4.4504 1.01593)
(102.334 3.80552 0.625761)
(102.839 2.53421 0.235093)
(101.422 1.21626 -0.0333016)
(100.842 0.98723 -0.291569)
(99.8629 1.0012 -0.377059)
(99.8289 2.2586 -0.840964)
(103.319 3.97552 -1.35283)
(445.12 52.4761 121.632)
(155.842 66.301 25.5676)
(196.251 37.0591 9.64674)
(127.773 -5.18464 -9.497)
(154.03 0.682002 -6.25606)
(138.672 5.15524 -3.22929)
(149.324 8.4522 0.686691)
(134.956 4.16537 1.15597)
(130.599 -3.13973 3.58516)
(109.225 -2.53548 2.55182)
(106.733 0.437668 1.50762)
(97.9706 4.00034 0.893024)
(98.6156 5.24496 0.417501)
(96.6319 5.2381 0.267149)
(97.8445 3.81265 0.043976)
(97.1605 2.80904 -0.122537)
(97.4102 2.25824 -0.275446)
(97.3949 2.35486 -0.465753)
(97.9909 3.35012 -0.836036)
(102.553 5.38509 -0.820673)
(56.7747 44.6676 75.8182)
(-107.327 22.1651 25.0501)
(96.7257 -12.8143 6.68873)
(35.8849 -31.6469 3.86829)
(99.0361 -25.8936 3.1133)
(90.2984 -16.6093 0.843179)
(123.614 -7.98189 1.27279)
(117.709 -1.62568 1.22421)
(121.904 1.04952 2.14266)
(103.962 3.58749 1.90538)
(98.0682 4.02273 1.77437)
(87.557 4.43448 0.785406)
(88.1296 3.70475 0.384168)
(86.2856 2.14133 0.354872)
(88.1646 1.90725 0.323217)
(89.3092 1.79974 -0.0333258)
(91.0334 2.82113 -0.439765)
(92.4076 4.12099 -0.922429)
(94.4506 5.91698 -1.01015)
(99.8145 6.24695 -0.296071)
(-7.42401 85.0561 29.6459)
(-100.451 -12.5491 2.96121)
(104.848 -40.659 -3.78891)
(68.9838 -47.2267 2.68355)
(123.824 -51.6351 4.44586)
(115.977 -36.6922 4.2495)
(141.903 -26.2062 4.50245)
(137.621 -9.54788 3.36542)
(138.24 -1.18629 3.25104)
(113.95 7.64538 2.19666)
(104.336 6.53242 1.14889)
(92.5727 7.79058 0.231794)
(92.8666 4.07822 0.182162)
(88.8927 2.09812 0.66253)
(87.4163 -1.39164 0.774768)
(84.5421 -0.455734 0.610474)
(82.6715 1.99135 0.312366)
(81.3266 4.72142 0.284731)
(81.566 5.29819 0.768693)
(82.7332 4.16757 1.04454)
(181.909 -34.6724 64.9381)
(-75.3377 -31.1628 25.4987)
(108.003 -81.5992 -2.2824)
(79.5459 -81.3753 1.61961)
(127.133 -83.4781 3.61286)
(109.438 -62.7189 2.92287)
(135.515 -49.1555 3.39956)
(129.473 -22.9434 2.93669)
(134.359 7.28162 2.89708)
(115.899 21.7382 1.75761)
(109.266 17.0916 0.366829)
(99.6315 11.8321 0.048454)
(97.5647 4.95242 1.37086)
(87.4536 1.49527 2.24126)
(75.3384 1.64493 2.0617)
(67.6936 2.69349 1.23376)
(62.4573 4.76183 0.82989)
(60.8279 4.77253 0.78461)
(59.7306 4.16435 0.855122)
(64.3833 1.80234 0.730808)
(53.5951 -101.892 -30.4281)
(-49.5886 -84.991 -35.4456)
(141.729 -95.4258 -36.8825)
(128.349 -88.3791 -14.6147)
(157.472 -86.2304 -2.96858)
(129.52 -65.371 -1.08347)
(138.506 -59.5828 -0.780312)
(127.015 -27.8247 -1.8575)
(138.118 -2.69832 1.25099)
(124.455 21.2144 2.60971)
(121.355 19.5512 2.30316)
(102.328 17.0653 3.01104)
(85.0268 6.47824 2.92761)
(66.8091 9.43277 2.19891)
(57.8489 5.75049 0.971166)
(52.7901 5.54562 0.423643)
(51.8713 3.74085 0.579166)
(52.7297 2.75556 0.645204)
(53.4808 -1.53805 0.546954)
(61.1861 -3.94023 0.471522)
(143.795 -177.541 148.556)
(91.4198 -93.9207 -16.0048)
(172.74 -71.9811 -17.2285)
(147.354 -69.6321 -8.2456)
(166.353 -70.5495 0.771199)
(130.522 -46.917 0.0515747)
(139.358 -45.0724 -0.0583441)
(118.063 -39.5467 0.182136)
(125.176 -5.58799 0.98759)
(124.354 11.6815 1.36282)
(120.42 23.8142 0.92757)
(102.182 21.9461 0.696731)
(84.2602 18.3957 0.907243)
(64.3258 12.0452 0.211798)
(57.8665 11.289 -0.633636)
(59.3444 6.05948 -1.18227)
(60.2655 1.26525 -1.03981)
(64.0105 -1.14661 -0.346092)
(64.7487 -5.62245 0.615088)
(68.3118 -8.17664 0.752655)
(217.712 -186.141 90.9177)
(132.929 -81.1341 -2.16444)
(199.899 -66.4832 -9.58812)
(161.263 -63.8623 -9.36283)
(171.018 -67.3654 1.18239)
(105.95 -49.1223 -0.732439)
(114.628 -34.4879 1.15159)
(101.88 -28.5888 -0.396636)
(115.498 -5.48528 -0.281298)
(124.53 10.245 0.161564)
(123.681 27.9888 0.584565)
(109.519 32.0406 0.172128)
(97.5619 26.8773 0.50949)
(78.0615 19.2317 0.918922)
(70.2369 14.7837 0.182125)
(74.6754 11.4033 -0.651834)
(75.0648 6.65705 -1.38187)
(73.6632 3.19406 -1.71722)
(72.5652 -5.5775 -0.596923)
(71.2399 -9.57865 0.115864)
(202.454 112.339 58.0541)
(145.047 13.9704 -24.8456)
(210.758 47.466 -15.4932)
(174.465 11.2149 -9.77498)
(197.695 -1.25444 0.754525)
(135.371 -26.3127 2.16883)
(112.502 -27.8839 1.68551)
(106.178 -17.9792 -1.19118)
(108.934 1.50669 -0.966987)
(116.448 18.1372 -1.15017)
(119.995 34.8165 -0.64704)
(116.531 44.956 -0.219517)
(109.542 37.3728 -0.0892301)
(99.5968 26.6467 0.552444)
(98.3689 21.5295 -0.554348)
(108.568 12.6895 0.27925)
(109.472 11.4803 1.17748)
(105.774 13.1745 1.12415)
(101.743 6.98843 1.31927)
(86.3408 -2.4376 0.844045)
(207.463 -31.9279 16.408)
(-43.7142 -55.6629 -28.2034)
(203.289 -19.1343 -10.0188)
(115.06 -29.1288 -3.70408)
(162.986 -11.9807 0.389338)
(128.431 -9.7881 0.359018)
(105.441 -10.1475 3.89788)
(92.6236 -10.7255 -0.343645)
(103.088 6.81635 -0.546915)
(111.235 26.4775 -0.598067)
(116.761 42.8705 -0.351409)
(120.852 50.3319 -0.366137)
(121.858 48.4373 0.218278)
(109.206 26.4833 0.481391)
(113.771 15.9744 0.784847)
(117.332 2.49488 1.2098)
(119.905 3.28518 1.25768)
(120.619 7.33928 1.54665)
(119.805 10.9836 2.1509)
(106.397 6.47944 1.07169)
(262.748 -99.6144 132.783)
(98.3619 36.1709 22.7531)
(157.321 23.437 -2.91203)
(65.5427 21.1302 -4.55709)
(121.338 30.2228 -1.91867)
(84.8941 -1.32616 -1.52927)
(100.971 -7.36483 0.993224)
(96.1892 -7.03276 -0.0890516)
(96.5186 -5.70087 0.20048)
(102.001 21.5989 -0.0441097)
(114.618 39.3236 0.176746)
(122.713 47.1961 0.287856)
(130.926 41.0574 1.56586)
(118.018 20.0177 1.21728)
(108.334 6.74081 1.29451)
(97.9463 2.64542 -0.400467)
(101.386 1.10768 -1.11179)
(105.141 4.88319 -0.701295)
(107.165 13.1444 0.161582)
(103.463 11.1147 -0.103379)
(128.159 356.029 66.1041)
(-47.9664 57.4074 4.70922)
(132.977 50.2479 -7.53603)
(9.87841 11.9579 3.28018)
(113.052 12.4621 2.12303)
(47.307 -26.7097 0.166301)
(85.0515 6.78964 -0.345682)
(56.764 1.71128 0.68665)
(68.5025 4.82302 0.338122)
(63.5831 11.6071 0.210409)
(78.3901 19.2342 0.638267)
(79.0234 20.5305 0.629953)
(84.6291 20.5977 0.352006)
(83.7734 15.482 0.223919)
(80.1429 8.59421 0.0410112)
(82.4551 3.7472 -0.375392)
(83.631 3.84258 -0.466392)
(86.7228 7.78844 -0.446188)
(91.8052 16.008 0.89251)
(97.0786 13.4723 1.59668)
(-58.036 95.2655 7.17273)
(-159.329 -69.6516 -25.2093)
(118.623 -35.8206 -11.9575)
(68.3916 -21.3217 0.982971)
(135.108 -7.5442 6.26424)
(87.1588 -10.2232 2.45368)
(98.944 29.1451 3.42104)
(68.6469 -5.33345 0.888268)
(74.8869 19.8518 1.09007)
(61.812 4.00177 0.266741)
(69.1728 17.1401 0.543887)
(67.4195 10.6074 0.210783)
(75.2149 14.9673 0.371401)
(76.8025 8.71274 0.203892)
(82.6857 7.16513 0.531323)
(82.1419 1.80767 1.08314)
(82.8297 0.549626 1.56594)
(82.684 0.429517 2.00335)
(84.6102 1.62803 2.80729)
(91.1723 -1.63998 2.54982)
(168.76 -149.034 -142.591)
(46.8058 -90.1176 -34.0254)
(192.184 -42.9675 -30.5404)
(105.583 -47.072 -4.51482)
(130.03 -19.0555 9.5551)
(33.2921 -17.5969 3.08917)
(82.121 7.0312 3.31794)
(42.7319 -4.30776 0.630108)
(68.6434 7.99602 0.552783)
(56.7013 2.32032 0.521658)
(68.9518 8.59241 0.722585)
(67.314 5.65793 0.321709)
(75.3555 6.77169 0.4722)
(75.494 3.39941 0.431418)
(78.6901 0.635564 0.801699)
(76.3281 -3.94125 1.16484)
(73.7187 -6.08418 1.3005)
(71.8512 -7.05787 1.20883)
(70.7846 -7.29343 0.67005)
(76.3198 -7.34367 -0.413402)
(48.1757 208.4 -142.758)
(-77.6061 83.7798 -42.696)
(163.707 40.4817 -35.4029)
(90.6938 9.70963 -15.8713)
(145.621 16.5281 2.60353)
(70.9322 6.06616 2.63816)
(94.0783 14.3948 3.48485)
(61.758 -2.66728 0.0236085)
(80.8081 5.56462 0.290295)
(67.0782 -2.62487 -0.274987)
(77.5313 3.3757 -0.00743627)
(71.9974 0.200775 -0.267145)
(77.4779 3.3954 -0.164503)
(74.8796 1.31114 -0.304467)
(76.1185 1.38984 -0.22864)
(71.9997 -1.00498 -0.43263)
(68.6016 -2.66549 -0.812596)
(65.6309 -4.26325 -1.42709)
(64.5429 -4.20896 -2.36794)
(70.4552 -2.95398 -2.84141)
(185 89.507 -132.782)
(-86.7721 49.0404 29.1368)
(93.2089 11.9442 -1.66137)
(-33.9005 1.40219 -0.406095)
(91.4196 14.7465 -2.96074)
(5.4812 4.03113 -0.519014)
(77.2622 6.65349 -1.84227)
(39.2272 -0.383832 -1.52717)
(74.0851 2.21165 -1.01546)
(59.2755 1.34938 -0.554086)
(74.1695 3.92231 0.133607)
(67.4916 4.00823 0.0556463)
(73.5547 4.90888 -0.184073)
(69.94 4.88896 -0.598698)
(71.7443 5.69178 -0.896683)
(69.8223 6.14871 -1.16573)
(69.4934 6.14881 -1.28935)
(68.2245 6.34419 -1.28827)
(68.0245 5.84086 -1.08918)
(72.9484 6.21226 -0.988313)
(175.194 54.4083 30.8685)
(-23.8411 2.24934 8.17062)
(141.167 8.45517 10.009)
(45.4112 4.01442 6.06815)
(120.89 11.4129 1.20935)
(66.2899 6.76347 -2.19611)
(105.582 3.2916 -2.4665)
(82.3661 -2.45492 -3.02765)
(102.268 -3.84844 -1.94504)
(93.1191 -5.06594 -1.96521)
(102.915 -2.84735 -1.03289)
(97.4134 -1.78427 -0.516526)
(98.4784 3.01745 0.89051)
(89.5169 5.60735 0.895358)
(87.704 7.47203 0.329371)
(84.4723 7.53023 -0.0843797)
(84.8272 7.32537 -0.192216)
(85.9458 6.88898 -0.140414)
(88.5552 5.65795 0.965928)
(93.0592 6.01191 1.08307)
(320.096 106.441 -10.6683)
(197.593 56.6242 5.42332)
(194.412 11.7595 27.2924)
(57.8701 13.1168 13.7425)
(112.47 21.5058 8.62883)
(52.8711 18.9569 0.873279)
(96.8662 15.7009 0.132118)
(64.7332 10.2722 -1.51669)
(87.4732 7.20471 -1.18681)
(72.1428 5.75862 -1.95678)
(84.5911 5.6708 -1.54216)
(78.8094 6.94725 -1.46751)
(85.7585 8.42012 -0.522515)
(83.7028 9.35039 0.00804562)
(87.0986 9.19089 0.383116)
(86.2402 8.4005 0.4683)
(87.8635 6.25539 0.646457)
(88.1463 4.81377 1.09829)
(90.2148 1.03984 1.58475)
(93.6628 1.15675 1.37879)
(143.807 122.222 33.6965)
(122.375 -0.608308 -4.87714)
(195.755 -4.33753 21.8335)
(129.015 -6.8018 5.53302)
(151.172 -9.30876 10.4878)
(96.6325 4.82702 5.83489)
(120.429 6.6291 5.29891)
(95.5107 11.3699 3.09912)
(112.044 7.81793 2.54589)
(101.419 7.15444 1.82857)
(108.402 3.63579 1.96802)
(101.234 2.63377 1.79029)
(103.324 2.24881 1.9434)
(100.065 2.80737 1.74573)
(101.967 3.02933 1.65585)
(101.408 2.82332 1.3056)
(103.144 1.85952 0.923801)
(103.24 -1.14874 0.785353)
(101.43 -5.00128 1.73137)
(91.6977 -3.09305 1.526)
(224.646 -176.117 -65.3004)
(154.999 -90.6188 -7.58906)
(204.494 2.36506 14.6766)
(151.011 18.4713 21.2456)
(149.324 10.3631 26.3571)
(120.127 -1.91203 15.3166)
(129.618 -3.63465 10.9698)
(118.376 -1.73758 4.86148)
(125.654 -0.68537 2.26337)
(122.471 -0.664999 0.000953583)
(126.441 0.510923 -0.707351)
(124.02 1.63358 -1.30692)
(123.217 3.18282 -1.01713)
(117.998 3.21058 -0.969045)
(115.197 1.37305 -0.467495)
(112.136 0.155759 0.264132)
(111.18 -0.616478 0.567998)
(110.379 -0.863525 0.479395)
(110.814 -0.50758 -0.17932)
(113.356 0.228613 -1.04459)
(182.116 100.828 48.6323)
(54.6227 -85.2047 -1.99247)
(134.202 -12.0012 -15.8958)
(113.184 1.5602 -13.2952)
(152.578 8.62935 14.2873)
(125.413 8.89185 22.406)
(124.997 3.71149 22.2556)
(101.875 -0.79639 11.0402)
(105.192 -3.69371 6.77965)
(96.4774 -3.23944 4.47005)
(99.6412 -1.1112 3.22833)
(95.896 0.381907 2.144)
(96.7102 2.15168 1.51824)
(94.8246 2.18782 0.898095)
(94.8354 2.39656 0.276626)
(93.1519 1.99961 -0.242888)
(92.3104 2.28695 -0.590512)
(91.1849 2.62758 -0.944553)
(91.2701 3.31192 -1.66604)
(93.2434 2.77891 -2.05311)
(396.441 -156.901 15.7657)
(-86.5486 -96.9094 -2.90932)
(135.354 -28.163 10.4592)
(71.5517 -28.9057 -6.42552)
(116.619 -3.20834 -0.71666)
(95.9469 7.78993 0.372529)
(114.039 12.249 4.46909)
(99.036 7.69266 3.08971)
(103.542 2.02548 5.33425)
(92.7445 1.64353 3.53195)
(93.1935 2.12367 2.53226)
(87.3925 4.00115 1.4649)
(88.216 4.59247 0.817901)
(86.4509 4.61205 0.529011)
(87.608 3.62526 0.164029)
(86.9414 3.30599 -0.103701)
(87.001 2.94514 -0.421117)
(86.7917 3.28947 -0.730309)
(87.7694 3.44294 -1.09706)
(91.6012 2.4464 -0.799694)
(-27.3457 -128.526 -133.58)
(-166.356 -20.0588 -31.3333)
(73.298 -37.6495 -20.0599)
(6.07452 -34.1612 -2.20907)
(83.3701 -20.3081 0.497902)
(65.2428 -9.52287 0.794107)
(100.623 -2.21124 3.43276)
(89.1725 2.43315 3.20521)
(97.4303 3.62227 4.08506)
(84.9288 5.08235 2.87267)
(85.3127 3.98363 2.84325)
(78.9089 3.87591 1.39036)
(80.091 3.00296 0.86182)
(78.9246 1.77484 0.753044)
(81.0785 1.95431 0.5977)
(81.9775 2.10877 0.0264398)
(82.9742 3.14839 -0.648441)
(83.3862 3.42455 -1.07459)
(84.5228 3.37235 -1.18986)
(87.8133 2.31496 -0.235675)
(-38.3271 -92.8989 -1.63038)
(-95.7468 -80.0147 -37.3101)
(91.9373 -69.2817 -25.0128)
(43.4131 -50.9088 -0.397375)
(105.389 -40.3997 3.62252)
(89.8082 -19.3561 4.33218)
(116.418 -11.06 5.59799)
(103.529 2.98114 4.15854)
(106.71 5.00151 4.93323)
(90.786 10.6125 3.36542)
(88.2098 8.00756 2.63276)
(80.1408 7.77598 1.03066)
(81.4277 3.82659 1.05968)
(79.3747 2.16644 1.52573)
(80.0053 -0.144374 1.27129)
(78.6738 0.587595 0.767016)
(77.7781 1.61906 0.331037)
(76.2197 2.98993 0.17133)
(75.8452 3.08195 0.990721)
(76.9754 1.79206 1.38715)
(116.419 16.1448 34.6214)
(-29.5825 -76.9287 4.34907)
(102.8 -92.7683 -18.7627)
(48.5289 -66.6771 -0.831802)
(104.134 -55.055 3.09948)
(81.784 -27.1399 2.46128)
(112.924 -13.5161 4.30362)
(102.664 6.35991 3.07706)
(105.749 14.8452 3.91662)
(92.6279 19.7215 2.67663)
(89.1361 12.3914 1.31527)
(80.0181 7.51873 0.921977)
(80.2151 1.96434 2.7337)
(75.6947 0.489491 3.78502)
(69.9998 2.00676 3.0487)
(65.5324 3.39266 1.41595)
(61.363 4.98213 1.18431)
(59.8336 4.63233 1.40087)
(58.9728 3.44796 1.94561)
(64.2717 1.06674 1.81824)
(265.734 -255.903 -46.5758)
(136.92 -101.721 -9.08465)
(171.013 -85.0583 -14.6185)
(89.9264 -69.1037 -2.95251)
(122.634 -59.7314 0.0454585)
(91.122 -31.3891 -1.31843)
(110.119 -25.089 -0.967804)
(99.6557 9.59596 -1.21856)
(105.94 15.8076 1.77893)
(97.6196 25.3037 3.51909)
(96.2332 18.514 3.90608)
(81.8865 14.1813 5.51617)
(73.0521 5.7217 5.3179)
(61.4276 9.90439 3.56699)
(55.8951 7.38717 1.02167)
(51.8686 7.15776 0.428415)
(51.2688 4.66175 0.902763)
(52.8728 2.33135 1.29022)
(54.1702 -3.14046 1.606)
(62.3286 -5.39813 1.59818)
(315.524 -223.055 -83.756)
(188.186 -171.488 -19.3676)
(175.98 -95.5561 -8.04727)
(92.6176 -68.3237 -3.53198)
(122.536 -55.6189 4.28553)
(89.7033 -18.9499 -0.00314076)
(111.643 -20.2163 0.0628777)
(100.407 -9.44376 -3.76697)
(104.437 15.7652 -2.58114)
(100.478 22.7379 0.913464)
(96.8655 24.9069 1.52425)
(84.3186 20.4116 3.6517)
(72.7251 16.1064 3.56497)
(60.7155 12.3273 1.83952)
(56.113 12.5025 -1.53947)
(56.2868 7.7474 -2.25136)
(55.3557 3.52357 -2.04349)
(58.7081 0.997843 -1.29528)
(60.6725 -4.94591 0.722141)
(66.8327 -8.05596 1.35346)
(372.004 -83.5054 -82.6146)
(195.905 -59.6756 -48.3133)
(199.127 -57.6181 -28.8987)
(109.285 -52.088 -15.1906)
(119.186 -49.7848 1.22145)
(100.956 -34.3451 3.506)
(112.492 -22.2717 2.87343)
(99.623 -11.6922 -3.28075)
(102.162 11.7171 -4.91064)
(99.8768 23.8967 -2.39945)
(95.1038 31.3454 0.757406)
(86.6351 29.1987 0.946104)
(79.5966 23.7543 1.78868)
(71.7864 19.1123 2.70334)
(69.942 14.5515 -1.31208)
(71.7231 10.5037 -1.49842)
(71.2263 4.96419 -2.31303)
(67.2861 1.45657 -2.86167)
(66.0259 -5.98453 -1.89416)
(68.0796 -8.82205 -0.562638)
(227.175 77.082 103.556)
(158.672 0.51096 -2.09561)
(186.906 16.7545 -1.57738)
(114.413 -12.6204 -6.40258)
(128.88 -7.82314 1.72985)
(114.149 -17.6504 0.936354)
(111.81 -20.9957 6.07745)
(98.1081 -6.70341 -0.103543)
(97.1282 13.3717 -3.63117)
(96.291 27.5901 -3.79374)
(93.9863 37.0883 -2.03724)
(91.8349 36.6991 -1.35339)
(87.6093 27.7041 -0.387668)
(86.5363 24.0256 1.06123)
(92.0754 17.6729 -1.2307)
(99.3057 11.6149 -0.288546)
(99.6754 10.5873 1.1955)
(96.1869 10.9835 0.721629)
(93.4213 3.57323 1.24521)
(83.8296 -3.51159 0.24941)
(398.147 45.6283 -212.888)
(53.894 -35.0884 -9.46507)
(196.02 -23.7958 -22.8001)
(75.3488 -23.5404 -5.49788)
(116.645 -2.50472 -0.213258)
(93.7622 -4.56546 1.37958)
(107.313 -4.18609 6.55032)
(92.6484 -5.51068 3.20991)
(93.9393 13.5923 -0.652247)
(97.449 29.0809 -1.77235)
(99.7739 39.558 -0.651763)
(103.227 39.9321 -1.68033)
(103.13 32.088 0.466398)
(101.846 22.8098 1.62196)
(108.49 11.8978 1.63443)
(110.5 6.81607 1.075)
(112.315 8.89328 1.55248)
(111.985 11.7812 2.00884)
(112.232 12.8866 2.5795)
(104.551 8.45243 0.395422)
(172.03 -263.904 0.501417)
(99.3699 11.8669 9.01048)
(150.969 15.0968 -0.269362)
(42.8365 20.0983 -2.07834)
(99.3557 27.1437 -0.57771)
(66.9682 -3.3208 -3.81232)
(93.2547 -6.62755 0.998808)
(87.8428 -0.468731 1.98828)
(87.1509 7.90712 1.2354)
(91.9825 24.46 0.234994)
(99.7188 32.7068 1.3115)
(107.665 32.6252 2.93446)
(112.759 28.8441 6.15725)
(112.414 19.1308 4.80529)
(103.411 9.06666 3.2362)
(95.6294 8.20277 -1.0728)
(98.2398 8.5804 -1.92054)
(99.885 11.9967 -1.53662)
(102.291 15.5074 0.155667)
(100.577 12.3652 -0.0603733)
(43.9693 274.652 72.4116)
(-24.0403 59.7543 15.3646)
(102.428 46.396 -3.54388)
(-15.6685 11.2353 4.87009)
(97.8962 11.176 2.19722)
(24.0751 -30.9328 0.721371)
(69.6993 9.46191 3.03559)
(46.7185 4.70297 1.73262)
(63.1077 11.5234 0.0371612)
(59.7916 16.53 0.49146)
(73.3427 21.6298 1.84417)
(73.915 21.719 2.55389)
(79.9006 21.0547 2.43188)
(79.3293 15.3643 1.35009)
(75.4038 9.8798 -0.140294)
(77.8897 6.02987 -0.837668)
(79.6602 6.61067 -1.01462)
(83.261 10.1879 -0.775382)
(88.5187 16.3043 1.26503)
(94.4918 13.265 2.4981)
(4.47931 -25.6782 63.0612)
(-126.508 -28.8343 0.962733)
(100.544 -16.3813 -0.354682)
(15.0939 -9.15314 6.15437)
(107.51 -0.00673153 13.156)
(47.3156 -10.9269 2.44229)
(76.6118 33.0554 5.17866)
(45.8633 -9.42273 1.014)
(59.822 21.0568 1.36229)
(48.3142 3.81252 0.6112)
(58.9222 18.321 1.26064)
(57.3945 10.4631 0.749929)
(65.6568 14.9913 0.960903)
(67.3103 8.30579 0.706982)
(72.806 8.67971 0.82299)
(74.0844 4.20088 1.57392)
(76.2996 4.12285 2.33263)
(78.9327 3.98423 3.45292)
(83.2736 7.74078 4.76388)
(94.0409 6.83587 4.19602)
(348.415 27.1987 11.6148)
(101.987 -32.192 -45.1474)
(164.966 -13.7642 -40.3503)
(10.3433 -18.8719 0.21195)
(104.745 0.874645 13.5328)
(0.659433 -12.0247 2.63747)
(73.3139 12.9161 2.64858)
(30.1907 -2.20599 1.09928)
(58.4234 11.0756 1.04723)
(44.627 4.09447 0.76247)
(57.9134 10.3725 1.44815)
(55.4175 6.78518 0.79179)
(63.5985 8.21716 1.13805)
(63.8353 4.56488 0.959953)
(67.67 3.22909 1.319)
(68.6774 0.762524 1.59546)
(69.5053 0.608533 1.91876)
(70.7953 0.316828 1.92406)
(72.9165 2.41558 1.55914)
(81.5905 2.87386 -0.143702)
(134.057 199.274 -3.96121)
(-55.0845 83.0127 -33.1173)
(129.298 40.2406 -39.1901)
(-4.04586 17.4896 -11.2467)
(103.426 19.6363 5.80859)
(25.9527 4.67792 1.23331)
(79.9365 14.1112 4.30953)
(45.0763 -2.03769 -0.114666)
(69.0804 8.40398 0.748611)
(52.8254 -0.0376154 -0.187078)
(64.5162 6.54621 0.649299)
(57.3615 2.41416 -0.0949538)
(63.4724 5.42196 0.206661)
(60.3788 2.55385 -0.245812)
(62.6118 3.23087 -0.360547)
(60.4443 1.44197 -0.934238)
(60.7284 1.53057 -1.49765)
(60.5141 0.380056 -2.25565)
(61.3276 0.442973 -3.13072)
(68.3354 0.871205 -3.8228)
(24.3432 115.404 -231.82)
(-132.466 -5.23507 3.86785)
(54.8763 -15.6916 -15.0107)
(-43.5682 -10.174 -2.78547)
(73.3774 5.0673 -6.55808)
(-4.43734 0.0161689 -1.63635)
(68.4529 4.00147 -4.02846)
(28.1345 -1.20459 -1.93114)
(63.8398 2.86653 -1.00764)
(45.8746 2.19817 -0.539351)
(62.0743 5.00381 0.721613)
(53.9779 4.55927 0.270914)
(60.7579 4.9789 0.0573378)
(56.534 4.17991 -0.770733)
(58.8708 4.05925 -1.16004)
(56.9374 3.40984 -1.66063)
(57.5143 2.74944 -1.93727)
(57.7464 2.06487 -2.47984)
(59.0023 -0.432869 -3.06492)
(65.6825 -0.772099 -3.36955)
(196.916 -45.4771 -10.0286)
(12.8163 18.8895 7.93309)
(131.941 8.65877 -19.7985)
(35.6966 -9.98847 -1.42601)
(110.926 0.143217 -2.90133)
(51.9788 -4.78063 -4.2696)
(92.1973 -5.38934 -3.27316)
(61.9532 -7.94884 -4.05737)
(82.5718 -5.96614 -1.9054)
(68.022 -4.47336 -2.17208)
(78.3352 -0.428203 -0.233559)
(70.4869 1.60705 0.01133)
(75.0304 4.09006 1.45922)
(70.5923 4.45175 1.09303)
(72.1445 4.56595 0.588517)
(70.1404 3.8842 -0.0691451)
(70.9589 3.24574 -0.21556)
(71.3914 2.99216 -0.659123)
(73.6388 1.75508 -0.095116)
(80.5234 2.28303 0.3465)
(152.882 200.382 127.252)
(-58.0954 41.7394 40.9228)
(127.737 19.9201 24.129)
(2.41785 11.9804 15.6025)
(103.912 17.3183 6.36718)
(39.2989 8.58001 0.0610709)
(87.8935 5.34953 -1.2808)
(52.6681 1.25632 -3.96196)
(77.2733 0.266586 -2.99813)
(59.869 1.15535 -3.60717)
(73.0876 2.46055 -2.01266)
(66.1118 4.38742 -1.67228)
(73.6758 5.72844 -0.193819)
(71.9025 6.36778 0.257585)
(76.3974 5.79049 0.770857)
(76.0065 4.82693 0.726987)
(78.1744 3.24438 0.960123)
(78.9169 2.55407 1.33676)
(81.3808 -0.707434 2.15475)
(85.2923 -0.803306 1.97674)
(100.521 277.41 -101.065)
(-156.627 -36.98 -4.69311)
(162.078 -17.7277 -2.85214)
(54.8836 -17.5613 6.95568)
(130.09 -12.6049 15.5399)
(82.6952 0.736875 9.81757)
(116.178 0.705646 8.74157)
(92.5295 3.92264 4.54652)
(108.877 -0.0606528 3.9981)
(96.1278 -0.362986 2.49419)
(102.204 -2.24942 3.31719)
(94.3553 -1.48373 2.96572)
(97.2862 -0.820808 3.53672)
(94.5341 0.347768 3.12804)
(97.2194 0.669449 3.01693)
(96.6638 0.773153 2.28349)
(97.5692 -0.170263 1.81131)
(96.2659 -1.27187 1.50495)
(94.9086 -3.63245 2.92347)
(88.0008 -1.80623 2.77167)
(98.5882 -26.858 31.1723)
(34.1928 -77.8611 69.9058)
(97.5191 -3.91842 28.89)
(58.7372 7.27124 15.9491)
(96.7864 0.86579 22.0871)
(80.7037 -7.99588 11.8082)
(106.259 -9.05052 10.1627)
(101.262 -7.76294 4.51486)
(114.451 -6.11831 2.78448)
(113.448 -5.14029 0.384633)
(119.353 -3.07876 -0.275801)
(118.113 -1.49464 -0.886613)
(118.333 1.02415 -0.627329)
(113.592 1.82317 -0.469261)
(110.522 1.3468 -0.059762)
(107.14 1.28602 0.370165)
(105.783 0.932459 0.36192)
(104.572 1.1179 0.0852858)
(104.295 1.71474 -0.744105)
(104.347 0.930186 -1.38196)
(70.1355 104.569 161.177)
(-23.7659 -82.9682 -20.1351)
(95.9521 1.30857 -34.8871)
(40.5926 8.27849 -21.6689)
(82.8111 17.2142 11.7259)
(63.6274 11.3801 18.2105)
(91.0479 5.8704 18.9564)
(79.8178 1.0817 9.18582)
(89.8053 -1.66781 6.33754)
(83.1029 -2.24049 3.53587)
(87.8211 -1.20228 2.47524)
(84.6158 -0.150144 1.4071)
(86.1978 1.47589 1.13551)
(84.7945 1.86091 0.613908)
(85.1184 2.57589 0.091334)
(83.7207 2.53427 -0.428733)
(82.9559 2.96466 -0.859065)
(81.6887 3.13656 -1.2644)
(81.5265 2.95973 -1.71141)
(82.6608 0.670401 -1.83337)
(191.553 -73.9985 -146.184)
(-148.855 -77.3458 14.9135)
(101.276 -18.9067 -11.3191)
(25.2211 -15.0431 -7.09104)
(84.0941 8.76643 -0.392071)
(58.7577 11.5505 0.0575146)
(86.0474 12.6231 4.0142)
(71.8008 7.50538 2.39182)
(82.5123 3.74649 4.48358)
(75.0453 3.14643 2.64412)
(78.9947 2.90452 2.24716)
(75.233 3.96947 1.1537)
(77.0223 4.13671 0.792054)
(75.8931 4.3318 0.50055)
(77.2607 3.63071 0.1941)
(76.7031 3.61796 -0.0919349)
(76.7948 3.27189 -0.435047)
(76.4216 3.24164 -0.772386)
(77.4412 2.55033 -1.21664)
(80.3439 -0.653415 -0.965038)
(103.08 -205.49 -169.125)
(-85.0694 -66.3296 -52.4323)
(68.0209 -47.8372 -32.8026)
(-8.70511 -28.4222 -3.84017)
(70.1525 -10.0438 -1.06732)
(41.657 -2.3979 1.06146)
(80.1497 2.0964 3.73086)
(65.0919 4.83552 2.92716)
(78.0747 4.67905 3.97877)
(68.4112 5.20481 2.44751)
(72.6367 3.82643 2.36322)
(68.5737 3.50418 1.1254)
(70.9086 2.61591 0.906096)
(70.3415 1.96084 0.795645)
(72.7266 2.39633 0.67189)
(73.4845 2.6377 0.143852)
(74.1744 3.14995 -0.464648)
(74.1872 2.74537 -1.06947)
(75.0224 1.73377 -1.09286)
(76.7375 -0.398551 -0.0650937)
(136.89 -20.8297 95.7982)
(-16.5016 -83.6145 -53.4421)
(90.5777 -70.4588 -22.5284)
(24.6454 -42.9787 0.0740096)
(87.254 -26.3487 2.82737)
(59.6104 -6.21345 3.30508)
(89.2496 -1.6223 4.78629)
(72.0227 9.32495 3.51012)
(81.0206 7.84295 4.77079)
(70.0425 11.2488 2.83614)
(73.1891 8.01206 2.5073)
(68.6611 7.19993 1.131)
(71.1793 3.64584 1.17428)
(70.5708 2.91592 1.52488)
(72.1552 1.20918 1.24581)
(71.3643 1.85827 0.813607)
(70.9635 1.61739 0.673068)
(69.4703 1.6426 0.846518)
(68.8217 0.738275 2.01774)
(70.9559 -0.76604 2.25946)
(143.648 -53.9158 107.812)
(20.1584 -86.2663 -7.27108)
(98.835 -82.2577 -13.9161)
(30.1362 -50.4143 -0.579303)
(86.8253 -33.5964 1.63078)
(53.7053 -6.80464 1.06564)
(88.4642 0.841354 2.96043)
(73.4974 14.5636 2.28045)
(80.7894 15.0134 3.41632)
(70.8664 16.3574 2.2147)
(72.2642 9.52265 1.53153)
(65.6181 5.46699 1.11946)
(66.8928 1.71208 2.55607)
(65.3071 1.86236 3.31709)
(64.4245 3.64752 3.18916)
(61.5718 4.26529 1.95953)
(57.948 4.86938 1.84539)
(56.6907 3.91912 2.31554)
(56.3542 2.38882 3.00589)
(62.7341 0.2028 2.69576)
(143.897 -138.492 17.8651)
(30.9958 -81.6879 12.9866)
(119.858 -63.6877 4.97894)
(52.7777 -49.8135 2.04957)
(101.307 -37.9435 -0.259771)
(63.5979 -10.6089 -1.5253)
(87.9806 -10.2669 -0.984)
(72.8415 20.6469 -0.889774)
(80.2551 18.0568 1.5062)
(72.1098 23.723 3.00906)
(72.9754 14.6679 4.12638)
(64.2967 12.4213 5.41659)
(61.5462 6.87764 4.58262)
(56.8095 10.3622 3.16982)
(53.6835 8.33476 0.8462)
(50.0214 8.44407 0.343155)
(49.302 6.06228 0.81798)
(50.8467 3.70722 1.15337)
(52.1189 -1.77337 1.72011)
(60.9034 -3.9586 2.08433)
(179.482 -189.715 -89.7416)
(57.0141 -139.286 11.1246)
(127.616 -82.8903 8.75722)
(49.0425 -55.7753 1.39061)
(99.3041 -37.6915 3.33839)
(64.4871 0.0922342 -0.221964)
(89.6843 -5.39117 0.0921358)
(77.0781 7.39541 -3.40897)
(79.36 21.037 -2.53611)
(74.3728 23.8574 0.770226)
(72.7534 22.2411 1.56719)
(65.1817 18.4805 4.08848)
(60.4979 15.0395 3.2153)
(55.196 12.5091 1.198)
(51.317 12.4594 -1.66773)
(51.0302 8.77678 -2.344)
(49.2691 5.33303 -2.19424)
(51.7489 3.20744 -1.79457)
(53.4997 -2.8888 -0.020213)
(61.2567 -5.40382 1.10732)
(515.372 -144.946 -122.931)
(242.307 -119.627 -25.4801)
(195.7 -75.2766 2.6998)
(75.4502 -45.5742 -2.29453)
(96.002 -36.0869 1.56347)
(77.448 -13.4651 3.01244)
(91.0497 -5.68872 2.22389)
(80.7871 1.316 -3.15354)
(80.5255 18.4478 -4.13192)
(75.1854 25.354 -1.75317)
(72.066 27.9301 0.447482)
(67.7994 24.4865 0.834634)
(64.5351 20.7025 2.03248)
(63.2442 17.7114 1.49435)
(63.7497 12.7413 -1.82569)
(62.3734 8.43367 -1.36938)
(61.1805 3.47618 -2.43199)
(56.7479 -0.171843 -3.40564)
(55.8177 -5.94285 -2.76209)
(59.1417 -6.87279 -1.129)
(215.975 132.271 -40.3102)
(81.1822 4.56327 -14.0614)
(153.899 10.2927 1.45703)
(72.2724 -11.1912 -5.51075)
(97.3854 -2.13928 0.172939)
(76.0712 -7.52379 1.35331)
(85.0922 -4.45479 5.31541)
(82.3732 4.2826 0.030353)
(80.9062 18.0794 -3.47778)
(77.5456 27.6093 -3.41182)
(75.5403 31.079 -2.40014)
(74.5628 28.2516 -1.97683)
(73.3958 22.6845 -0.689064)
(77.0516 20.0396 -0.11434)
(82.9491 14.2745 -1.33873)
(85.1567 10.5996 -0.131705)
(84.5704 9.41625 0.743799)
(80.2476 8.01557 -0.0651379)
(76.4411 -1.60798 0.191069)
(70.5798 -5.18959 -0.846397)
(158.442 -59.798 -154.526)
(77.9461 -40.8236 23.7991)
(166.773 -21.4651 -9.61992)
(47.2823 -14.0255 -4.44565)
(90.2828 5.6239 -1.32367)
(58.4849 0.547412 0.225607)
(75.7284 1.6967 5.51957)
(77.4959 4.76658 3.64449)
(80.9336 17.4288 -0.434389)
(83.202 29.179 -3.50859)
(86.584 33.3347 -1.22117)
(88.5044 29.7563 -2.43972)
(88.1164 22.8485 0.286654)
(91.7514 16.7346 0.881246)
(97.264 9.00762 1.4215)
(94.4596 8.38626 0.991336)
(95.3293 11.1385 1.39946)
(94.4505 12.3037 1.48197)
(94.8287 11.1209 1.75941)
(86.9796 4.96179 -0.70987)
(173.135 -253.419 -48.7193)
(68.3699 4.00665 20.3245)
(125.404 26.1477 4.54439)
(18.0854 24.3245 -0.320614)
(85.0085 28.6998 -1.18823)
(46.7393 -4.80362 -3.14635)
(74.0145 -3.97082 1.44749)
(72.065 4.60887 2.33711)
(75.1309 14.9794 0.953042)
(78.7052 23.598 -0.00908122)
(84.1768 25.2063 1.50674)
(89.7622 22.9225 4.03448)
(94.3749 20.5575 6.50518)
(97.2997 14.2068 5.4685)
(92.2533 9.96082 2.88375)
(83.838 10.5697 -1.1398)
(85.1432 11.8025 -1.78414)
(84.876 13.3711 -1.35616)
(86.6021 13.9619 0.198851)
(85.1614 9.24705 0.0787388)
(11.3379 198.645 15.5597)
(-53.2221 46.7427 -9.83281)
(76.2041 47.1064 -9.33572)
(-34.324 12.9776 3.59836)
(83.8769 13.7304 -1.22705)
(7.27272 -30.4975 1.17295)
(56.0659 14.7812 3.29736)
(37.4289 7.41243 0.963765)
(55.1455 15.5407 -0.517406)
(52.0717 17.1729 0.53932)
(64.0696 20.3334 1.9167)
(64.3547 19.4626 2.89313)
(71.1419 18.5134 2.82808)
(71.385 14.0866 1.47693)
(67.082 9.82062 0.186187)
(69.2845 6.8127 -0.619389)
(70.4743 7.93226 -0.826663)
(73.4114 9.50913 -0.493095)
(77.7099 13.2086 1.15465)
(84.2637 9.59459 2.68024)
(20.6428 256.124 37.285)
(-192.697 -28.4969 -13.415)
(65.1252 -18.7679 -11.0638)
(-36.2419 -9.58182 3.72907)
(89.8009 3.30846 9.67424)
(18.0216 -9.68613 2.48547)
(61.2902 35.7349 4.37481)
(29.6659 -11.7937 0.640697)
(49.1661 21.979 1.30017)
(37.9868 2.55394 0.685121)
(50.1146 17.9203 1.20125)
(48.2349 9.0198 0.913872)
(56.6057 13.8909 1.10898)
(58.0907 7.3586 0.868818)
(62.8931 8.67251 0.792085)
(64.1519 5.28508 1.43751)
(66.6289 6.19243 2.19134)
(70.4332 5.54765 3.29823)
(75.8641 8.48434 3.98429)
(87.0714 7.9119 3.60296)
(391.416 181.69 92.7254)
(167.938 40.8952 -2.13563)
(149.931 -8.39041 -34.5603)
(-24.3115 -14.3815 1.18353)
(86.7184 3.54713 6.34068)
(-14.9559 -9.5216 3.86474)
(63.1991 15.4134 0.418988)
(19.0318 -2.21547 1.2772)
(49.3194 11.874 0.867638)
(34.2357 3.67952 0.673065)
(48.6515 10.4153 1.30913)
(45.26 6.45353 0.742133)
(53.5929 8.47292 1.14126)