/*--------------------------------*- C++ -*----------------------------------*\
  =========                 |
  \\      /  F ield         | OpenFOAM: The Open Source CFD Toolbox
   \\    /   O peration     | Website:  https://openfoam.org
    \\  /    A nd           | Version:  10
     \\/     M anipulation  |
\*---------------------------------------------------------------------------*/
FoamFile
{
    format      ascii;
    class       volScalarField;
    location    "7.3";
    object      k_0;
}
// * * * * * * * * * * * * * * * * * * * * * * * * * * * * * * * * * * * * * //

dimensions      [0 2 -2 0 0 0 0];

internalField   nonuniform List<scalar> 
12920
(
3621.62
889.689
361.064
243.26
181.199
200.292
201.002
207.285
201.484
202.656
201.574
202.697
200.224
199.747
204.102
213.274
212.065
196.187
178.513
137.461
7517.26
2060.48
974.976
744.378
540.063
437.679
360.241
313.112
273.46
252.426
240.75
237.446
237.702
242.07
246.59
246.337
240.522
214.967
162.54
125.356
2818.31
1563.42
1005.73
769.335
628.902
545.889
516.751
465.312
396.383
336.359
285.497
251.13
230.164
218.118
208.198
196.01
183.46
162.543
144.37
122.118
2336.35
1490.32
1013.37
1026.02
1036.37
982.63
788.925
693.258
588.944
520.585
434.462
345.144
275.477
231.649
206.377
182.491
159.84
133.931
122.625
100.907
10335.6
5305.13
2038.86
1207.09
1023.21
971.328
827.663
784.247
682.128
612.149
532.762
446.818
342.92
264.158
214.659
178.713
152.97
128.423
117.946
97.2776
3347.54
3847.74
3168.26
1735.02
1024.75
884.659
826.444
795.721
699.377
602.558
542.175
502.341
428.629
335.49
255.406
196.501
160.906
135.302
126.342
111.607
4485.41
3494.55
2938.06
1895.66
968.904
695.467
568.946
496.823
470.926
473.932
482.723
502.155
508.676
498.18
456.319
342.343
234.201
166.605
143.065
123.316
344.201
1147.91
1398.07
1250.06
776.943
610.756
410.537
243.78
222.406
248.327
271.659
274.433
272.507
261.44
333.617
238.717
183.248
147.847
135.05
119.767
273.745
1698.9
1436.31
951.657
641.732
307.424
228.954
157.074
145.748
150.006
159.185
149.414
131.832
114.918
157.462
184.324
157.459
139.598
133.784
121.573
4352.93
2872.46
1519.22
1331.66
1106.69
659.214
337.671
201.539
130.011
110.25
106.033
105.074
100.711
96.3856
149.209
177.79
159.036
146.581
142.496
131.322
2146.29
2015.26
1836.01
1458.47
865.852
411.178
237.106
165.302
119.195
106.993
93.9262
78.8639
61.4659
56.6702
91.664
134.111
130.941
130.19
129.782
125.148
11059.5
8756.46
3311.29
1841.39
1268.04
725.972
383.986
186.061
165.114
197.421
160.844
125.738
86.6479
66.3427
106.29
147.212
137.409
130.073
126.688
116.836
3836.49
3085.62
2166.89
1389.78
882.825
657.57
353.582
251.51
261.688
246.504
215.794
188.652
156.995
125.572
154.73
132.365
125.424
116.325
111.331
102.407
3710.12
2508.78
1995.01
1479.95
976.794
761.929
601.532
505.907
421.979
335.85
269.668
211.089
167.421
136.179
115.669
101.508
95.2945
90.4695
89.2129
87.0133
255.961
1488.89
1519.82
1347.75
936.437
755.874
571.304
446.087
330.266
249.623
198.923
166.55
143.147
124.319
108.761
96.359
87.1618
80.8079
77.2936
74.0929
11073.7
7791.46
2766.09
1482.66
1060.38
876.035
620.634
480.336
345.847
248.86
185.721
151.377
129.002
114.393
102.695
93.9216
86.6259
81.5597
78.0365
74.1599
1539.91
2397.75
1743.73
1496.47
1143.53
853.839
576.388
462.627
364.181
282.793
208.204
159.661
130.511
113.183
101.227
93.4982
88.2671
85.3531
83.383
81.3312
1717.89
2690.74
1865.78
1364.87
959.207
756.405
538.523
439.504
341.981
271.288
215.556
178.871
150.781
131.117
115.922
106.136
99.6037
96.5301
95.627
95.73
1380.85
2764.72
1976.41
1156.58
689.73
507.231
378.744
310.723
260.862
235.655
210.255
197.744
182.523
166.995
149.583
134.589
122.971
115.699
112.784
112.73
2773.14
2245.16
1719.31
1235.79
870.44
649.795
479.539
331.956
224.372
172.046
150.668
138.686
126.862
115.831
105.914
95.9614
89.149
78.7466
72.8558
62.7792
14279
3737.13
1345.9
795.059
542.083
524.147
493.824
498.148
490.631
490.76
488.738
484.906
471.232
461.33
458.626
451.788
432.999
384.829
310.661
193.113
11791.5
6158.93
3422.29
2233.54
1416.7
1313.57
1003.1
895.422
732.38
706.892
670.672
672.875
680.01
716.817
757.731
769.226
749.034
643.148
449.106
373.067
8209.09
3400.07
2464.19
2157.36
1672.02
1541.02
1311.36
1222.6
983.269
870.843
751.853
713.339
672.017
649.829
633.629
609.45
572.793
508.417
446.994
385.056
5645
2689.32
2849
2677.22
2584.63
2325.73
1852.79
1670.96
1420.66
1275.37
1060.14
891.955
742.028
650.61
595.643
534.461
470.89
400.122
360.867
304.72
15418.3
5379.53
3500.3
3099.46
2490.75
2384.67
2024.46
1913.33
1682.06
1562.66
1368.22
1173.19
900.9
711.139
592.592
500.187
434.251
374.846
344.241
292.129
10027
8347.21
5770.6
3919.56
2487
2458.7
2267.1
2183.14
1896.72
1708.11
1524.04
1382.39
1153.77
900.056
680.781
533.19
451.754
394.537
372.685
335.136
14140.5
9201.83
5901.77
3558.3
1890.54
1668.36
1431.06
1319.26
1268.97
1302.15
1304.15
1286.29
1266.84
1235.02
1121.23
802.734
547.606
439.291
411.535
372.945
8167.89
6146.21
4366.68
3148.39
1791.02
1564.84
1267.2
1159.79
1050.47
1009.72
1003.18
975.58
948.093
896.398
732.811
568.297
471.963
415.02
392.737
360.72
3183.49
4924.1
3934.18
2346.13
1364.71
1149.48
1189.26
1048.32
874.701
787.76
755.473
701.449
640.31
575.456
492.568
442.916
407.399
383.162
373.303
352.337
6577.35
4544.8
3590.96
3283.01
2413.67
2046.61
1520.8
1112.06
739.031
620.209
558.644
507.392
473.784
450.524
422.775
411.62
400.311
389.34
384.302
368.106
9419.62
5763.35
3759.42
3040.97
1573.33
1460.29
1310.4
1069.4
862.276
765.266
582.316
412.148
313.095
276.738
288.483
334.871
350.424
367.872
377.558
374.462
48672.9
17158.2
6154.02
4433.81
2473.12
1985.24
1462.28
1259.26
1199.88
1081.71
832.074
645.151
456.177
366.083
345.324
360.634
361.528
365.453
368.194
359.667
9902.61
6135.82
3685.09
3139.8
1694.08
1632.27
1225.49
1188.08
1065.87
918.959
782.046
671.269
540.594
427.279
370.35
336.22
326.537
318.498
316.325
307.746
8448.61
6743.06
4551.37
3456.24
2154.94
2065.87
1688.38
1432.68
1101.87
868.304
684.61
537.339
429.688
358.419
314.234
285.849
270.229
262.304
260.559
261.609
11074
7058.92
4171.43
3422.19
2286.11
2068.47
1473.18
1163.76
828.328
650.929
528.233
447.902
384.382
338.549
300.265
272.335
251.162
238.422
230.826
226.278
14841.4
5356.61
4121.53
3317.85
2442.84
2123.01
1477.77
1221.06
822.715
625.276
486.175
412.226
355.074
319.223
288.747
268.227
251.083
241.243
233.69
227.313
4248.23
5355.82
4320.34
3449.93
2556.84
1977.62
1352.67
1174.91
872.89
711.388
522.365
423.111
360.54
320.374
290.496
272.512
260.704
255.691
252.712
250.651
8168.01
6424.72
4351.78
3182.49
2200.53
1776.29
1242.39
1067.87
806.107
683.982
565.131
487.932
419.892
372.971
336.34
313.999
299.691
293.755
292.753
294.231
2903.72
6073.4
4022.85
2439.02
1388.92
1142.44
828.898
734.955
637.46
609.732
567.744
543.181
504.171
469.95
431.035
399.887
375.022
359.225
351.612
350.546
3109.48
3677.49
2751.43
2019.61
1394.96
1043.38
741.495
525.782
374.017
317.515
292.095
282.39
269.641
257.32
243.318
225.379
210.588
184.82
166.08
140.952
5271.69
5571.89
2392.42
1077.63
851.426
731.753
688.878
660.731
648.945
631.086
614.736
583.946
556.484
528.573
504.958
468.179
405.836
327.781
256.054
177.351
9424.7
9084.36
4852.42
2635.17
2125.03
1821.23
1507.18
1403.04
1236.37
1208.79
1145.5
1126.07
1097.74
1093.31
1083.05
1051.03
965.042
814.621
688.139
618.737
7433.71
6465.52
4746.21
3595.97
2817.6
2397.4
1924.17
1742.4
1455.71
1357.03
1218.84
1147.95
1056.17
984.851
920.478
857.01
791.135
707.228
646.953
582.207
9324.14
7555.27
5222.55
4231.91
3490.14
2914.35
2303.92
2031
1721.56
1545.27
1335.01
1183.21
1037.31
920.397
821.706
728.847
648.168
572.655
527.975
459.36
8083.66
5476.81
4775.58
4123.46
3289.75
2941.17
2489.01
2285.54
1998.37
1800.28
1544.47
1316.43
1090.54
922.839
791.753
682.928
602.581
534.489
493.864
432.433
5613.98
8136.17
5844.4
4391.39
3283.75
3171.53
2756.19
2579.2
2247.88
2049.67
1802.58
1556.61
1296.97
1059.78
870.245
726.265
634.229
565.013
532.458
482.056
13101.2
9781.88
6438.7
4104.39
2756.27
2583.69
2240.77
2025
1845.39
1775.32
1656.82
1548.79
1434.58
1299.29
1095.65
866.215
718.406
632.635
594.671
542.581
6897.67
7541.47
6580.96
4411.78
2783.41
2530.84
2171.53
1843.43
1570.96
1421.98
1347.07
1257.93
1181.6
1073.16
845.481
725.599
652.965
598.682
572.675
532.054
4187.77
6803.39
5102.61
3186.44
2203.71
1948.52
1957.19
1574.61
1267.99
1103.1
1011.21
922.145
841.061
759.89
658.884
610.953
581.177
557.322
544.54
515.121
8042.03
7585.26
4634.87
3579.49
2740.08
2338.36
1914.27
1422.43
1056.17
889.231
763.294
674.831
629.832
606.07
582.239
587.183
578.133
566.004
555.585
526.611
8438.9
7708.48
4499.39
3166.65
2222.54
2060.65
1869.5
1513.82
1265.98
1066.92
624.584
441.652
389.662
397.101
460.454
545.326
559.989
564.224
561.144
537.562
24495
9266.89
5773.54
4164.28
2579.6
2337.34
2051
1878.36
1671.15
1369.1
1059.34
809.785
625.956
533.437
514.513
545.726
547.449
544.459
536.653
512.481
13538.3
8699.05
4794.89
3200.05
2366.2
2227.13
1877.58
1738.28
1447.78
1213.28
1008.72
843.285
684.084
572.648
508.372
479.144
471.099
462.66
460.719
453.461
7145.6
8396.02
6345.22
4140.67
2787.93
2571.62
2064.62
1690.91
1345.52
1069.05
861.945
697.816
579.067
497.218
445.493
415.683
399.462
394.781
395.898
399.448
3879.57
7163.25
5838.13
4258.49
2883.44
2391.2
1800.87
1413.3
1076.13
863.909
718.761
612.708
532.146
472.073
424.628
393.731
371.86
361.036
356.368
357.033
10315.4
5772.6
5618.02
4102.39
3013.51
2384.89
1753.6
1419.89
1051.86
847.597
684.437
584.912
508.462
458.748
418.754
393.942
374.69
365.783
359.831
359.29
18617.8
9059.6
5851.67
4353.97
3107.58
2259.92
1638.73
1389.28
1073.44
883.944
700.714
597.158
516.675
467.813
431.537
411.83
399.259
395.578
394.535
396.644
7292.17
7854.63
5671.99
3889.45
2675.32
1995.24
1485.09
1257.24
1022.31
898.934
771.873
683.862
601.563
547.053
503.425
479.141
464.055
459.836
460.312
466.321
9378.91
8800.79
4911.71
2688.6
1729.08
1329.67
1063.15
972.463
876.822
856.925
808.892
777.848
719.774
675.02
622.874
586.936
557.643
542.349
535.369
537.103
9073.48
4358.42
2654.22
1925.01
1434.78
1104.01
836.691
637.683
502.779
433.858
394.305
369.489
346.87
322.052
298.248
270.158
249.808
220.927
206.806
181.49
2939.65
6622.48
2959.17
1231.45
1047.84
828.136
832.136
752.909
737.956
681.435
647.556
591.833
556.193
509.356
469.63
412.759
347.095
274.459
219.674
187.015
9960.66
11254.2
6481.02
3266.21
2860.79
2127.32
1955.33
1717.86
1638.4
1562.45
1507.25
1454.3
1410.25
1355.48
1298.93
1212.85
1110.57
996.423
919.364
870.569
13629.6
10205.5
6537.41
4437.67
3716.74
2769.74
2362.31
2019.7
1823.38
1672.21
1554.2
1439.75
1334.61
1228.57
1137.9
1045.87
968.789
890.518
841.892
786.884
22666.5
9461.16
7012.09
5034.56
4111.36
3075.65
2582.51
2179.83
1944.45
1725.67
1552.63
1384.54
1242.21
1106.62
992.447
886.117
804.441
732.022
684.59
622.352
14056.4
6715.28
6215.7
4489.95
3926.29
3154.23
2830.41
2437.07
2185.22
1886.02
1645.71
1408.27
1220.73
1063.37
938.073
830.226
753.471
687.557
642.513
586.386
6834.88
8947.31
6567.74
4626.87
4004.65
3500.84
3106.19
2778.54
2469.35
2176.17
1895.79
1606.82
1361.51
1151.76
999.667
875.89
795.032
728.863
690.964
639.486
6178.16
9398.95
7575.53
4465.16
3650.69
3155.8
2757.22
2418.45
2210.38
2028.59
1834.11
1643.27
1464.11
1284.56
1102.87
956.98
872.983
807.179
767.439
714.008
11798.3
9714.49
7703.98
4691.09
3591.81
3116.55
2735.54
2237.27
1908.13
1701.1
1557.22
1408.16
1280.72
1139.46
949.012
869.052
821.578
775.505
748.07
703.301
9362.34
8693.35
6085.51
3672.5
2866.73
2569.25
2470.96
1900.5
1542.53
1333.54
1190.86
1069.86
974.85
892.535
812.022
784.145
759.973
736.089
719.136
682.739
10712.9
10540.6
5604.39
3788.5
3035.16
2506.15
2136.83
1617.98
1275.64
1078.15
922.088
810.072
766.257
760.81
763.716
785.051
767.938
746.911
728.849
688.601
18297.3
7779.25
4638.94
3248.94
2688.94
2377.57
2154.46
1761.23
1465.29
1199.92
780.312
607.028
576.237
623.532
711.4
786.688
774.657
755.881
737.505
697.89
23116.3
8215.63
5410.1
3639.3
2932.17
2606.77
2440.15
2154.49
1823.04
1447.46
1135.95
902.898
767.933
714.221
726.135
751.026
735.577
716.413
701.37
675.328
16008.4
9712.89
5469.15
3460.18
3048.18
2597.28
2291.51
1995.47
1636.68
1359.5
1128.74
946.201
799.354
710.775
656.425
631.991
625.45
621.265
622.186
620.687
10602.1
9746.19
6846.54
4225.52
3384.27
2753.27
2281.69
1796.36
1489.27
1181.89
986.416
813.92
705.693
626.505
582.594
557.963
547.871
548.825
553.675
563.606
4975.26
9826.8
7404.65
4633.5
3378.51
2485.39
2035.23
1519.64
1245.61
1003.83
868.106
744.037
664.337
599.541
554.579
527.568
510.729
506.4
507.119
514.315
13918.6
8339.24
7348.4
4558.68
3445.83
2441.36
1940.18
1477.64
1203.64
982.572
842.825
728.413
654.669
597.622
559.1
534.722
518.903
514.14
513.083
518.934
11951.3
9694.58
7609.92
4897.91
3441.38
2310.01
1826.19
1443.82
1202.81
992.461
848.652
739.737
667.117
616.23
583.765
566.07
557.197
557.033
558.708
568.317
9854.37
9782.85
6867.53
4193.54
2985.56
2026.92
1677.48
1376.43
1217.51
1077.82
966.851
861.802
781.294
722.313
682.284
660.369
649.462
648.855
651.879
665.772
14774
9346.18
5342.85
2692.31
1917.84
1382.53
1239.14
1149.4
1101.34
1089.34
1050.66
1006.4
937.823
881.058
824.1
786.586
758.604
747.982
745.317
754.053
6190.88
4096.54
2280.08
1588.48
1298.87
1023.39
812.654
655.903
553.482
490.214
447.057
411.063
376.466
340.657
308.146
275.615
252.789
227.055
216.377
195.752
5190.52
7132.94
2959.28
1306.01
1096.17
847.244
872.295
728.849
710.288
605.426
563.275
486.53
450.051
391.624
353.425
301.311
263.484
224.337
210.179
194.79
11774.9
14685
7957.01
4229.43
3744.51
2392.13
2461.28
1842.44
1998.54
1727.38
1793.98
1648.93
1642.28
1519.33
1442.95
1314.19
1233.1
1150.82
1121.24
1116.38
53163.3
17073.6
8493.57
5003.79
4721.88
2819.34
2839.11
2104.86
2154.34
1823.44
1814.31
1609.37
1545.33
1387.65
1299.75
1176.29
1103.22
1028.11
992.527
955.847
29562.5
9299.91
8935.41
5335.17
4955.75
3044.74
2956.11
2210.7
2182.78
1816.82
1741.92
1503.13
1401.08
1235.23
1131.34
1009.23
934.441
862.711
819.316
779.475
9463.55
9888.68
7386.63
4943.03
4829.9
3220.14
3288.19
2493.52
2402.28
1920.01
1768.17
1470.24
1336.29
1163.64
1059.54
950.766
887.505
823.72
780.272
740.472
10107.5
9557.16
8227.66
4699.38
5037.37
3627.88
3634.67
2902.77
2704.15
2218.48
1966.02
1629.08
1422.37
1232.46
1116.46
1006.9
941.835
878.347
837.016
790.441
18649.1
11479.7
9160.82
4609.73
4811.88
3461.48
3323.08
2662.72
2560.84
2198.19
1979.4
1691.92
1491.75
1294.48
1156.37
1062.94
1016.43
960.884
920.367
870.026
15662.4
11032.3
9062.22
4713.86
4647.51
3514.29
3141.35
2518.66
2207.49
1933.6
1733.8
1520.05
1360.35
1213.18
1071.58
1012.51
977.885
934.198
900.664
855.718
17879.2
10620.5
7211.75
4131.36
3608.96
3006.15
2855.72
2152.52
1802.6
1550.57
1364.94
1215.9
1120.5
1049.46
999.912
956.066
932.784
898.635
873.712
835.742
10227.4
12289.1
7813.55
4402.44
3566.01
2712.73
2360.47
1817.11
1491.85
1249.54
1073.09
962.351
963.971
984.542
992.537
973.98
943.009
903.338
875.207
832.921
58222.1
10903.4
5477.59
3969.15
3281.35
2648.19
2378.82
1962.43
1610.58
1272.38
996.142
837.226
854.198
938.468
995.916
982.944
939.958
899.035
875.681
842.291
25315
11018.6
6136.84
4161.38
3566.51
2911.84
2809.99
2353.2
1910.08
1489.45
1191.75
1017.51
977.296
977.544
984.639
931.748
892.962
857.85
845.131
826.348
42408.3
11967.6
6581.36
4336.6
4009.19
2983.24
2649.91
2157.48
1809.69
1478.88
1257.62
1068.1
962.657
893.359
825.474
798.495
784.412
782.421
783.649
786.668
11280.8
10954.6
8367.45
4634.27
4327.97
2912.77
2661.33
1918.63
1676.63
1284.14
1130.26
926.094
850.978
769.797
742.799
717.646
717.506
718.73
725.992
739.763
35709.7
13203.2
10040.1
5146.98
4141.24
2699.25
2386.2
1611.28
1438.98
1119.29
1025.07
865.146
808.481
732.926
702.694
679.187
672.839
673.416
677.185
693.232
15094.1
12335
8811.3
5362.52
4085.34
2608.41
2249.13
1532.23
1397.36
1085.16
1017.18
858.82
818.351
741.795
721.756
692.845
689.075
685.736
688.274
702.745
9334.88
9828.98
8613.08
5142.71
3852.81
2423.65
2092.88
1481.88
1381.35
1072.17
1014.81
862.981
830.707
763.238
750.418
729.833
730.65
731.089
735.928
753.871
37214.8
15139.8
8411.66
4583.87
3524.78
2162.12
2013.56
1467.27
1472.27
1209.61
1175.99
1001.23
961.519
878.476
863.429
836.954
837.734
836.782
843.939
864.631
20329.4
10466.4
6434.03
3006.35
2341.1
1487.68
1605.64
1292.42
1437.87
1295.74
1325.01
1198.37
1150.98
1049.92
1013.6
968.993
954.864
944.698
945.569
962.703
8687.8
3886.09
2139.07
1307.43
1022.02
832.163
700.25
593.967
520.718
462.457
413.585
363.512
320.271
282.468
253.368
229.465
211.182
195.365
183.854
171.947
793.987
983.414
644.186
1036.35
921.816
1100.3
728.339
691.607
565.958
433.785
885.288
797.489
634.566
505.985
711.387
1342.29
1100.72
1170.43
732.199
1406.63
1159.66
468.097
1028.04
824.779
638.461
524.457
1086.88
892.371
156.253
199.862
167.464
892.341
920.506
989.634
909.105
149.637
163.569
133.735
875.118
771.65
843.968
670.954
147.516
128.884
120.66
748.63
695.741
633.69
567.341
158.683
119.502
119.808
688.048
675.993
556.293
535.592
153.625
120.828
120.583
670.095
637.693
528.471
503.732
136.654
119.504
112.817
623.675
582.018
494.909
467.363
120.049
110.535
104.919
567.314
525.071
458.98
434.561
81.7404
102.483
81.1407
507.507
465.684
425.024
396.015
219.556
359.097
200.342
1263.58
1093.38
1319.78
1101.91
141.825
189.759
146.691
983.888
691.754
1007
736.687
112.408
125.568
97.2333
634.755
546.431
676.467
585.297
107.158
95.1934
93.7714
532.242
499.245
563.872
490.051
105.317
93.0741
82.3732
487.815
457.391
460.616
372.9
101.927
76.945
66.8732
448.954
426.059
347.754
294.403
97.6335
65.6568
65.4972
420.192
405.049
283.252
268.108
78.7923
65.6716
52.7306
399.026
383.288
268.11
272.052
169.927
240.683
159.606
1054.26
968.808
895.318
951.132
127.246
152.486
153.962
908.944
744.486
941.606
953.336
110.873
161.691
190.422
717.836
669.584
966.962
957.057
94.8638
193.365
174.108
645.293
541.61
932.167
770.606
86.1482
149.595
122.541
506.938
399.332
710.139
580.753
63.8619
119.255
86.191
365.135
292.036
534.625
393.589
57.3315
76.5318
63.2954
276.852
248.109
361.875
304.658
48.1573
61.2531
44.5263
243.187
244.233
291.445
266.701
212.648
392.049
177.766
1045.83
1012.05
1063.43
1033.92
160.601
160.332
163.511
989.973
992.863
1045.87
984.228
192.207
163.927
164.677
1000.09
975.424
934.555
846.407
183.84
163.481
152.814
949.98
791.029
815.576
709.226
127.901
143.579
126.758
730.612
610.043
676.172
607.122
98.9426
121.961
112.967
573.841
434.117
587.027
507.069
69.1978
106.131
88.3993
396.674
328.83
474.998
392.246
47.8703
81.5157
58.6966
314.086
281.822
367.414
318.633
1112.57
1216.26
1059.46
1774.48
1571
1658.87
1400.11
907.801
982.031
784.308
1465.68
1237.46
1298.96
1055.67
800.054
739.789
658.155
1184.16
1059.59
997.271
880.367
764.536
643.443
612.27
1034.63
975.591
854.96
791.525
716.623
601.597
568.535
956.798
896.053
770.894
715.453
656.313
557.74
526.373
876.407
819.59
699.765
658.889
593.907
517.048
489.724
800.172
743.096
647.6
615.565
520.499
479.475
441.048
721.989
660.664
604.578
567.344
1234.84
1614.25
1275.17
1841.28
1484.97
1949.07
1562.5
800.923
1161.1
864.068
1360.6
1056.06
1443.65
1158.72
638.143
803.095
700.632
988.386
859.873
1096.32
953.58
574.27
674.03
566.016
831.482
746.916
917.277
666.349
518.143
525.486
417.988
719.326
654.214
596.266
455.648
480.466
389.628
329.62
638.7
603.594
426.614
376.51
456.904
317.032
301.919
595.692
576.94
370.34
380.443
426.594
302.644
305.575
570.727
550.398
391.408
419.092
1140.06
1205.85
1184.57
1756.02
1507.87
1765.9
1690.92
892.514
1167.65
1157.41
1425.48
1233.07
1662.33
1579.86
795.532
1156.43
1101.16
1188.25
1056.16
1540.39
1370.56
629.225
1061.84
874.725
1013.65
744.816
1299.05
1065.28
450.2
811.914
655.969
668.042
498.856
994.347
794.991
330.518
601.511
452.856
461.143
388.303
732.665
585.278
281.43
419.611
355.935
373.67
359.221
551.86
482.282
274.735
341.037
305.385
361.601
385.708
465.938
433.699
1294.16
1497.04
1322.76
1919.3
1801.26
1930.38
1816.98
1214.06
1301.07
1172.8
1768.91
1648.22
1770.7
1554.21
1123.27
1109.46
990.826
1593.13
1399.5
1469.39
1278.89
894.113
949.316
820.438
1324.32
1089.96
1218.09
1043.65
691.525
781.249
696.981
1022.55
839.629
993.91
869.034
494.389
670.405
572.534
779.847
626.313
828.224
699.501
382.645
536.202
447.147
589.567
512.322
660.014
566.49
322.156
421.16
362.02
494.069
452.156
541.385
485.601
1690.16
1787.92
1487.36
2358.98
1970.74
2068.64
1692.87
1326.48
1381.11
1129.08
1833.6
1549.07
1577.5
1312.93
1131.89
1068.05
942.475
1481.81
1320
1248.04
1103.53
1033.52
913.924
840.779
1281.64
1181.84
1066.87
969.433
943.491
817.295
755.308
1150.69
1062.62
939.148
860.907
861.671
738.19
694.762
1036.8
966.563
840.323
793.229
781.552
683.139
651.009
944.081
881.374
782.569
756.412
696.124
640.302
602.419
860.115
802.091
748.301
720.445
1544.95
2008.94
1622.99
2085.57
1693.48
2127.78
1762.19
1124.3
1507.9
1233.19
1574.94
1294.72
1657.68
1401.87
920.71
1169.63
1015.5
1226.68
1075.48
1333.48
1155.16
896.652
858.459
886.775
942.313
847.618
908.833
939.361
694.043
735.946
698.263
805.459
659.638
775.839
734.877
637.866
407.776
384.184
776.846
736.537
493.974
501.441
611.801
385.428
412.503
730.029
720.257
511.813
558.993
585.079
426.827
457.608
717.775
706.907
576.643
617.993
1597.58
1920.38
1813.16
2099.84
1798.46
2253.68
2080.22
1316.23
1778.94
1669.18
1712.4
1493.6
2023
1830.28
1116.66
1618.64
1420.18
1428.57
1239.17
1752.84
1494.83
1134.09
952.984
1178.19
1104
1098.93
889.349
1219.49
794.512
559.114
847.301
501.894
776.762
450.053
864.508
397.97
763.24
620.984
519.521
512.94
838.595
721.447
389.706
588.669
521.124
514.923
542.118
696.204
648.882
424.72
505.613
473.392
555.775
597.597
640.321
629.906
1913.83
2066.02
1928.31
2348.51
2161.79
2364.24
2162.22
1735.91
1873.34
1639.57
2104.19
1889.13
2080.31
1802.92
1450.71
1550
1343.05
1802.59
1529.12
1706.64
1467.62
1128.05
1278.04
1093.73
1438.24
1193.64
1395.52
1194.63
869.803
1041.14
906.405
1123.87
935.313
1137.41
987.047
661.205
862.792
730.999
881.206
758.058
940.929
814.323
550.995
691.742
600.343
730.226
674.196
779.631
702.479
491.726
576.284
520.042
662.623
641.749
683.168
640.058
2040.7
2145.7
1747.33
2753.59
2227.78
2361.91
1904.31
1611.61
1630.35
1365.47
2083.22
1796.37
1785.3
1526.33
1374.94
1300.32
1150.94
1726.96
1539.5
1461.35
1293.1
1224.86
1111.65
1007.13
1487.73
1353.32
1244.15
1118.44
1097.02
975.167
893.312
1312.57
1201.85
1082.65
995.098
997.544
872.157
826.372
1171.1
1096.8
974.989
945.837
913.001
817.007
795.17
1075.4
1019.17
943.463
937.082
836.768
788.351
762.28
1002.07
957.83
933.516
916.022
1735.3
2161.35
1799.78
2293.46
1867.83
2274.45
1920.72
1343.32
1697.62
1444.25
1753.35
1493.12
1821.27
1565.29
1119.81
1374.01
1186.77
1425.66
1249.46
1486.96
1267.84
959.536
1131.15
839.191
1199
1067.72
1200.74
996.496
831.528
754.822
604.566
1029.2
936.359
933.407
796.359
771.245
581.897
565.19
916.389
897.986
770.482
757.516
761.916
573.127
622.22
902.301
917.124
774.339
841.843
750.763
640.234
678.523
919.09
913.649
859.491
890.79
1848.55
2350.1
2144.15
2312.89
1991.26
2594.66
2315.48
1534.66
2078
1859.15
1898.7
1645.72
2221.89
1930.27
1262.77
1774.75
1503.66
1563.03
1321.94
1828.17
1522.46
866.137
1413.97
1169.29
1246.87
1019.96
1428.92
1192.87
632.111
1097.94
911.368
954.11
814.124
1128.11
973.818
574.855
861.475
756.616
785.201
762.672
938.472
887.746
608.516
735.555
700.392
775.648
836.738
885.881
892.61
662.193
695.353
688.947
853.618
886.67
895.565
902.363
2222.39
2457.21
2218.73
2705.27
2389.41
2722.52
2356.7
1915.26
2127.03
1836.78
2290.11
1979.79
2239.92
1923.82
1539.25
1739.38
1494.58
1873.46
1562.79
1826.73
1563.86
1204.9
1421.24
1217.7
1468.38
1232.97
1485.69
1282.4
953.386
1159.93
1009.48
1169.03
1015.11
1226.74
1083.94
791.852
964.113
842.884
978.833
919.59
1043.22
948.666
722.751
810.533
740.957
912.175
903.762
926.333
882.456
698.037
723.647
682.983
902.812
901.554
869.757
842.085
2297.14
2438.16
1971.28
3168.14
2570.3
2731.79
2264.51
1871.63
1852.63
1596.81
2425.15
2187.26
2146.17
1904.23
1606.93
1531.5
1353.26
2118.11
1890.36
1837.67
1637.26
1408.07
1299.9
1165.98
1819.77
1668.73
1575.41
1426.41
1248.21
1128.9
1040.18
1619.26
1482.44
1385.95
1288.41
1141.63
1021.15
1000.8
1444.1
1372.04
1270.53
1267.47
1065.78
1001.02
997.95
1349.57
1292.63
1270.32
1264.5
1005.59
994.722
974.65
1275.73
1229.41
1260.59
1228.56
1930.65
2332.39
1982
2620
2222.16
2579.22
2277.21
1560.34
1882.53
1622.18
2109.24
1862.58
2174.77
1905.83
1304.18
1539.31
1303.83
1790.52
1581.95
1813.97
1543.8
1112.14
1232.95
1038.32
1519.11
1369.31
1462.79
1279.64
980.663
979.855
849.552
1328.5
1231.07
1227.98
1107.01
955.011
826.035
828.362
1215.31
1230.87
1091.62
1133.39
982.697
853.075
925.571
1246.35
1261.01
1172.74
1241.64
974.627
941.709
962.794
1261.13
1235.57
1251.58
1243.53
2057.17
2695.26
2389.65
2632.03
2360.39
3012.09
2703.11
1699.08
2287.5
1973.5
2259.38
1976.45
2582.01
2229.55
1351.41
1865.35
1543.56
1876.19
1576.59
2107.61
1751.15
1057.32
1446.92
1210.76
1486.67
1286.82
1646.59
1411.32
863.262
1148.21
1005.37
1234.34
1115.01
1354.13
1233.64
832.175
975.721
947.896
1098.21
1137.43
1215.5
1236.46
922.779
953.015
970.16
1176.39
1244.32
1255.6
1278.25
961.088
973.946
975.527
1254.69
1250.2
1280.97
1264.48
2462.82
2828.69
2410.34
3131.23
2767.64
3164.92
2601.32
2021.16
2287.12
1968.27
2635.75
2269.14
2477.27
2191.57
1586.52
1872.21
1600.41
2147.75
1793.13
2108.44
1794.73
1253.9
1519.54
1317.38
1689.78
1457.28
1709.43
1529.33
1048.43
1262.84
1122.72
1399.95
1277.01
1481.52
1335.74
979.071
1083.34
998.988
1257.04
1264.26
1301.46
1246.9
977.643
979.773
942.039
1271.17
1277.58
1235.42
1198.81
972.42
929.915
900.562
1277.3
1258.46
1188.72
1151.58
842.535
826.84
744.92
838.691
797.98
874.384
784.684
896.207
913.971
886.026
1030.23
853.289
967.238
854.001
784.435
677.628
753.392
503.987
766.629
673.448
640.621
943.404
991.236
998.755
1030.14
955.647
987.095
986.056
888.48
881.52
960.703
874.714
919.152
829.245
932.437
944.529
1064.42
1051.55
1005.59
1012.55
884.193
991.904
832.473
512.776
803.199
865.014
718.964
658.255
900.731
660.899
712.221
605.763
727.525
628.818
749.92
636.988
539.707
607.607
499.509
428.088
551.947
595.918
364.767
494.816
484.773
456.49
373.536
510.077
483.533
354.579
735.62
846.322
852.349
823.37
814.813
777.877
780.396
700.151
762.763
823.087
715.034
786.928
673.59
744.143
584.237
431.998
726.774
573.36
640.074
374.358
669.901
535.171
382.137
594.561
534.286
521.263
365.622
623.407
1033.68
822.345
923.337
577.456
1008.72
697.472
942.758
1228.68
1276.68
1260.37
1373.1
1198.88
1309.46
1288.44
1144.61
1037.01
1178.62
1127.01
1117.17
1063.07
1205.48
1160.15
1132.72
1047.42
1265.46
917.868
1247.43
1180.01
1057.56
573.222
873.391
993.261
703.11
965.161
1083.59
1249.26
1393.77
1345.85
1319.78
1331.76
1307.58
1262.38
1164.69
1146.13
1098.2
1237.18
1083.15
1224.44
1178.63
734.474
504.574
654.655
412.008
713.09
433.077
676.453
914.843
961.428
958.17
1053.5
889.523
986.841
982.865
847.124
756.801
890.428
850.087
821.347
783.622
914.936
816.401
496.456
577.776
914.322
448.521
885.695
845.275
757.604
421.02
534.321
733.088
432.556
701.816
785.032
935.839
1072.61
1023.4
1017.7
1007.19
1002.27
953.521
869.402
872.285
831.019
952.573
808.138
935.272
889.126
309.004
394.425
322.342
617.465
632.414
651.987
743.866
222.544
279.444
248.857
644.859
653
750.444
709.635
228.765
243.35
246.559
685.835
710.984
673.671
666.829
263.169
254.928
262.283
732.655
740.146
665.826
666.187
273.222
263.051
260.312
752.276
750.296
662.558
648.906
274.43
250.751
239.79
744.802
735.96
626.991
605.048
268.936
227.177
216.552
729.944
720.456
579.388
558.932
239.329
205.905
158.928
690.657
736.832
524.023
521.772
282.787
347.521
301.096
650.728
675.384
747.229
819.866
376.949
176.696
176.067
365.819
400.219
319.61
146.152
395.544
156.857
133.386
455.04
442.3
400.396
134.411
382.968
145.397
137.201
420.659
420.383
387.538
137.32
382.181
152.712
140.944
424.737
425.93
380.172
143.109
389.092
158.646
151.731
428.437
423.852
391.427
151.393
357.99
144.628
143.12
396.357
383.954
367.921
138.9
321.982
128.031
127.267
352.169
341.569
330.939
123.691
285.814
110.073
112.893
307.832
296.837
294.217
108.316
132.619
157.126
114.604
357.773
352.047
337.627
342.673
533.629
694.218
570.229
1180.29
1177.29
1222.66
1245.32
543.551
266.875
349.053
545.255
562.769
543.752
273.602
511.108
178.492
186.751
564.913
508.15
533.306
176.395
330.626
121.493
128.835
362.302
337.406
362.592
116.991
285.051
109.335
102.972
304.04
300.233
289.196
102.336
260.517
105.568
98.724
288.357
285.218
268.031
96.2382
239.304
104.383
91.294
276.377
272.666
242.691
90.9663
230.274
99.7374
89.622
261.622
258.628
231.434
89.5299
225.008
94.6298
88.4747
248.568
245.277
226.479
87.7299
114.199
124.213
99.8503
318.821
331.082
270.028
286.785
348.378
413.804
338.525
841.191
859.903
754.914
713.213
354.289
201.797
194.285
421.468
468.257
351.663
147.731
382.993
156.444
122.974
470.83
448.329
371.643
124.862
442.369
115.896
143.194
356.822
347.328
429.47
151.554
397.734
101.948
153.21
315.671
299.866
428.256
145.944
280.956
93.0599
102.617
267.74
259.772
289.585
99.423
207.099
72.3801
88.1011
208.537
190.951
232.288
78.4156
153.016
59.8088
61.0145
160.117
154.884
160.426
58.4593
133.191
56.1984
53.3108
144.272
141.803
137.129
51.7637
74.7342
88.2446
62.5277
207.48
225.534
207.457
212.539
562.392
730.197
580.704
1125.22
993.04
1190.74
1039.34
468.737
308.457
386.803
509.987
479.39
513.271
311.092
381.738
167.105
177.075
400.98
403.586
374.803
157.477
519.488
174.953
165.831
484.417
516.794
496.082
173.929
537.957
198.027
193.83
553.771
549.526
543.762
194.873
393.565
141.399
162.622
430.513
385.409
435.91
143.949
341.509
121.834
127.735
345.342
327.066
351.612
125.365
228.877
78.1716
96.8041
225.98
205.249
254.344
86.6801
183.331
64.1136
71.8571
173.195
168.431
188.764
69.2177
77.7343
111.313
90.2742
241.647
243.918
256.311
266.349
263.037
369.305
266.293
639.771
668.69
656.596
704.907
258.14
268.921
299.347
725.521
743.781
746.874
738.756
258.639
292.758
272.915
735.553
710.833
714.172
680.443
232.366
246.295
232.527
664.401
620.582
606.868
539.66
203.083
203.56
182.918
580.376
549.404
497.187
464.136
175.548
162.302
148.211
512.817