/*--------------------------------*- C++ -*----------------------------------*\
  =========                 |
  \\      /  F ield         | OpenFOAM: The Open Source CFD Toolbox
   \\    /   O peration     | Website:  https://openfoam.org
    \\  /    A nd           | Version:  10
     \\/     M anipulation  |
\*---------------------------------------------------------------------------*/
FoamFile
{
    format      ascii;
    class       volScalarField;
    location    "7.3";
    object      nut;
}
// * * * * * * * * * * * * * * * * * * * * * * * * * * * * * * * * * * * * * //

dimensions      [0 2 -1 0 0 0 0];

internalField   nonuniform List<scalar> 
12920
(
11.6374
7.17622
1.23406
2.45656
0.773405
1.56996
0.993398
1.34266
1.02091
1.10671
0.975753
0.98391
0.905312
0.882737
0.850076
0.836012
0.755203
0.655492
0.577606
0.464144
14.6397
10.8926
3.44104
5.6425
2.35334
3.1528
1.83382
2.03927
1.45996
1.46812
1.27282
1.28707
1.23131
1.24333
1.20077
1.164
1.09642
0.984997
0.760017
0.647628
6.3208
8.96458
4.54723
6.22614
2.87023
3.53231
2.46853
2.59491
1.95157
1.79127
1.45294
1.35624
1.24543
1.24627
1.19778
1.15841
1.08313
0.985613
0.891413
0.783793
9.17694
8.86877
3.92421
7.13938
4.52956
5.78374
3.78967
3.84819
2.9417
2.76576
2.20715
1.82591
1.48231
1.36272
1.25515
1.17833
1.05782
0.929557
0.870181
0.730479
18.271
16.421
6.58834
7.85072
4.30886
5.79922
3.9793
4.27741
3.33753
3.1603
2.65128
2.30901
1.80531
1.5383
1.3344
1.20767
1.06189
0.921994
0.859576
0.715967
7.29108
11.8184
7.91227
6.02479
3.3214
3.62228
3.18084
3.29866
2.85827
2.61109
2.43877
2.41149
2.10066
1.72448
1.40432
1.21588
1.06944
0.944488
0.894309
0.783919
10.1689
13.1953
8.51799
8.15919
3.70965
3.35596
2.65877
2.6577
2.48396
2.64058
2.63588
2.76619
2.66838
2.46778
2.2122
1.70036
1.26364
1.01321
0.918917
0.800495
0.81707
3.56721
3.72864
5.44435
3.00604
2.90256
0.884593
0.646655
0.662455
0.813917
0.854351
0.85221
0.806058
0.745448
2.06067
1.48152
1.17369
0.977638
0.90691
0.797137
0.941902
8.52116
6.30432
6.93543
3.90528
1.57819
0.400933
0.307975
0.26545
0.268986
0.273786
0.252129
0.217423
0.188122
0.526742
1.3182
1.12171
0.985747
0.936135
0.826205
5.45126
11.7159
5.60456
8.16734
5.35822
1.86668
0.441693
0.293686
0.234307
0.20704
0.196866
0.184855
0.169064
0.158383
0.498781
1.22073
1.07805
0.990517
0.958321
0.8719
3.72445
10.1174
6.16098
8.56254
4.27146
1.76192
0.432209
0.259579
0.181126
0.149076
0.146834
0.13485
0.105167
0.0931695
0.29259
0.85314
0.80932
0.794144
0.788973
0.768228
20.2985
20.7619
9.95623
9.73346
5.51922
1.77152
0.413318
0.194683
0.186002
0.237085
0.201314
0.171773
0.135421
0.10955
0.358474
1.02293
0.903977
0.826334
0.789639
0.729182
8.5276
12.7221
8.2442
8.40861
4.27604
5.56859
1.11274
1.04596
0.910308
0.893265
0.710758
0.609079
0.494871
0.417871
1.22744
1.05011
0.977389
0.864023
0.798818
0.710491
11.101
11.1934
9.96932
8.62356
4.82237
5.11631
3.32874
3.44282
2.80978
2.59336
2.04363
1.72254
1.35799
1.15002
0.969896
0.866493
0.806659
0.748165
0.71992
0.661688
0.318919
8.49576
5.83728
8.23598
5.02043
6.1859
3.46892
3.77937
2.6297
2.43685
1.79027
1.57509
1.27725
1.12759
0.966667
0.858079
0.76871
0.702059
0.666441
0.606961
16.0415
19.7711
9.79285
8.6822
6.09969
6.64691
3.6727
3.61085
2.28283
2.07953
1.50426
1.37231
1.11472
1.0265
0.893984
0.830567
0.756367
0.708282
0.673417
0.615817
3.09959
11.122
8.02113
8.65565
6.45157
6.57582
3.49649
3.54637
2.34083
2.16473
1.53674
1.38413
1.11538
1.02569
0.898537
0.844537
0.78731
0.754887
0.731793
0.68709
4.75225
11.6478
7.73471
8.28771
4.94198
6.18448
3.19997
3.44651
2.21685
2.08947
1.55178
1.45037
1.1889
1.08797
0.942642
0.87912
0.81616
0.790441
0.779875
0.759711
3.92432
11.7266
8.30046
7.65797
3.61569
5.06032
2.46981
2.90396
1.7843
1.84425
1.44886
1.44982
1.27561
1.20181
1.05665
0.964717
0.875637
0.82565
0.805214
0.792283
5.62211
10.5754
5.80168
6.24791
3.01936
2.81353
1.85453
1.58533
1.0449
0.903181
0.753246
0.71183
0.622995
0.565845
0.498623
0.44619
0.405369
0.356753
0.330797
0.285569
48.6956
36.1993
11.8527
9.73651
6.61464
8.65993
6.80997
8.46472
6.8144
7.30402
6.54699
6.54914
6.00091
5.79169
5.49574
5.1244
4.45873
3.70516
2.93261
1.95187
53.0771
49.3848
37.9834
28.7754
20.008
21.0944
17.5443
17.4989
15.0846
15.3091
14.9015
15.4384
16.0232
17.2747
18.293
18.3374
17.1008
14.4199
9.68536
9.97235
15.8488
25.4574
21.7968
23.9796
21.0964
22.2693
21.0576
21.3849
18.1592
16.7972
15.3027
15.6757
15.9609
16.7844
17.782
18.1601
17.3802
15.7153
14.0089
13.1891
18.8543
19.5305
25.1759
28.0472
32.1682
32.9837
29.846
28.5869
25.497
23.5553
20.2068
17.9194
16.3544
16.4136
16.9431
16.9074
15.9758
14.5641
13.6625
13.0186
42.3453
30.6303
26.0986
30.0562
29.6422
33.329
31.1691
31.0038
28.3541
27.3846
25.1186
22.6854
18.5941
16.8511
16.17
15.6648
15.1749
14.5216
14.0234
13.1192
32.0526
53.1497
41.3777
32.1651
25.2121
28.7643
29.4369
29.6572
26.9955
25.9824
25.5174
25.274
22.1552
18.1611
15.4295
14.4402
14.525
14.5531
14.7345
13.874
48.2588
54.5066
43.0232
33.067
21.9563
21.5316
20.5606
20.8835
22.8532
25.4522
26.5205
26.1012
25.138
22.9721
20.4267
14.5131
11.7402
12.5079
14.0097
13.877
12.1512
31.5618
34.0576
30.3603
20.6104
20.9137
17.3038
17.8431
20.9716
23.4334
23.7005
23.0354
21.964
19.979
17.9234
14.4124
13.7243
14.0382
14.4488
13.8604
8.72713
34.7353
35.6597
27.8234
18.7802
17.2667
17.9154
18.8079
20.055
21.3069
21.0046
19.5338
18.0864
16.6222
15.167
15.2512
14.7356
14.6413
14.6307
13.973
13.2707
32.6535
35.5772
34.7643
27.8106
23.217
18.292
17.5847
18.3677
17.368
16.7311
15.4124
14.5056
14.117
14.1977
14.6095
14.4217
14.4356
14.3963
14.052
25.5027
26.4866
22.7828
25.7345
17.6989
19.3831
18.4803
17.0786
17.0882
14.7408
12.4646
11.3942
9.8848
9.28554
10.1272
12.1228
12.5259
13.0025
13.2494
13.2825
67.6039
53.6282
34.0122
36.088
25.9817
18.6856
14.2809
13.5154
18.3892
19.6629
15.7815
14.5487
12.5847
12.0153
12.6713
13.9996
13.646
13.3657
13.2398
13.0639
43.1129
31.8917
29.3443
31.7863
20.4991
23.5948
18.0892
20.0599
21.6089
20.4259
18.2215
16.1326
13.885
12.327
14.3341
13.8365
13.6158
13.2429
13.0084
12.6899
20.8947
39.0219
36.2419
36.4534
27.4721
27.9263
25.2135
24.5242
22.3137
20.808
18.4683
16.0922
14.437
13.6059
13.1936
12.9184
12.6456
12.4253
12.3233
12.2272
13.1087
31.3628
33.0136
38.1985
31.9765
30.1455
23.3483
22.1759
19.819
18.7722
17.069
15.8468
14.5626
13.8305
13.1108
12.6307
12.1465
11.9185
11.759
11.4866
22.6832
20.1031
27.1033
35.5314
34.7253
32.2163
23.8579
20.8978
16.4182
15.8513
15.2825
15.0153
14.2595
13.7689
13.1361
12.7389
12.3218
12.1489
12.0004
11.7212
9.02426
25.3965
40.9929
40.0073
37.0568
31.6976
23.0039
20.7455
17.0445
16.4584
14.618
14.467
14.4593
14.0727
13.5066
13.1292
12.8733
12.7958
12.7749
12.6659
22.3189
44.3642
42.2955
37.8417
32.2816
28.6691
22.264
20.9078
17.5734
17.3957
16.805
16.6249
15.8631
15.1258
14.4306
13.9965
13.7146
13.6422
13.6737
13.7306
14.3208
38.9203
41.6607
31.7573
21.069
20.7405
16.6848
16.6218
15.7972
16.5418
16.6571
16.6917
16.241
15.7818
15.1653
14.6537
14.1906
13.9433
13.8151
13.9258
7.24114
33.9198
29.4558
25.2146
15.0164
14.8128
8.80485
8.17579
5.26399
5.08832
4.27611
4.25498
3.86665
3.72353
3.44716
3.22343
2.99578
2.63255
2.36995
1.99821
20.9598
41.6844
19.2677
18.5311
10.5706
15.1767
10.3252
13.4466
10.147
10.8157
9.2867
8.95436
7.95482
7.43176
6.7552
6.16265
5.11405
4.02911
3.01575
2.19611
33.2346
60.2572
53.4411
40.825
35.4416
34.2894
31.4628
31.0974
29.0876
29.1786
28.64
28.7604
28.5214
28.4043
27.888
26.5471
23.8272
19.8098
17.1477
18.6216
27.416
43.9837
45.7122
44.0687
41.0704
39.7423
36.8853
35.5244
31.991
31.0148
29.7515
29.6835
29.1174
28.6872
27.9845
26.6402
24.8268
22.6741
21.2394
20.5055
35.9957
35.8501
43.3386
47.4232
49.0845
48.3436
44.4057
41.7413
37.7305
35.0889
32.0688
30.2162
28.7081
27.7932
26.7453
25.2577
23.4973
21.7851
20.763
19.3585
13.4913
42.9399
46.4932
50.0176
48.9406
50.5473
47.077
45.6958
42.1943
39.7827
36.2213
32.8973
29.4614
27.5322
25.9913
24.4638
23.0101
21.5664
20.5699
18.8941
10.5147
57.4626
54.7185
48.2927
43.9136
47.0698
46.3282
45.5691
42.4928
41.0303
38.8621
36.0442
31.9293
28.2109
25.7827
24.3025
23.3367
22.1934
21.5689
19.9434
41.0722
66.7159
57.8936
48.1002
40.3624
41.6787
41.3359
41.0177
41.1679
41.0236
39.1769
36.7373
33.9626
30.7391
26.6332
23.0944
22.0948
22.0691
22.2032
20.8687
15.7445
51.78
54.5764
47.4174
38.6144
41.5058
37.7229
38.008
38.5368
38.187
36.5511
34.1421
31.6692
28.4117
24.7816
23.0563
22.6581
22.2241
22.0076
20.7579
22.0808
54.178
51.9698
46.3439
39.6071
37.638
37.5766
36.1231
35.2514
33.8844
31.855
29.373
27.1779
25.0295
22.6174
21.5728
21.4484
21.3417
21.2227
20.3166
29.1366
62.6823
57.2869
51.8201
44.6144
39.8708
35.7853
33.4496
31.0725
28.569
24.2541
21.5347
20.8967
20.9314
20.3387
19.8147
20.1317
20.4037
20.4315
20.0114
30.9536
34.5548
40.954
40.9945
36.916
36.9884
34.8513
32.2815
29.9564
26.6353
8.22075
7.86809
10.0935
12.1046
15.2615
17.5345
18.0162
18.3624
18.7076
19.0727
61.6445
54.3579
46.8689
40.7719
39.3285
35.0927
30.9352
31.2266
33.3375
30.3094
25.6851
23.5752
21.2211
19.8061
19.2164
19.005
18.8041
18.7174
18.631
18.5944
45.543
59.7491
55.3765
48.0963
39.2574
41.7044
36.773
37.6978
35.9704
32.3527
28.5228
25.329
22.5092
20.653
19.8901
19.3708
19.1513
18.778
18.6028
18.3822
18.7473
60.2758
57.8025
54.3706
44.6928
44.5451
41.132
39.2862
35.9484
32.4342
28.5026
25.2929
22.8533
21.185
19.9714
19.188
18.5925
18.2863
18.1533
17.9445
6.98885
53.9464
54.4981
56.4287
48.5643
45.1936
38.8749
36.2175
32.8134
29.7963
26.929
24.6309
22.6572
21.1576
19.8462
18.9446
18.21
17.7121
17.453
17.2498
19.9115
41.4905
56.4932
56.3963
51.66
45.6526
36.9129
32.9628
29.0657
27.6163
25.7253
24.0695
22.3576
21.0728
19.8779
19.0953
18.4411
18.045
17.7566
17.5919
36.4916
47.1125
58.2561
56.5896
51.9482
44.2361
35.1401
32.1162
28.4188
26.9597
24.8847
23.7125
22.3897
21.2556
20.2499
19.6503
19.246
19.0603
18.986
18.9316
23.4351
52.5126
57.5059
53.7967
46.795
40.2589
33.7016
31.2907
28.4528
27.5521
26.2072
24.9198
23.4355
22.2348
21.1868
20.5556
20.1572
20.0258
20.0296
20.1798
32.0246
49.1587
53.604
43.8259
33.2942
29.224
25.4833
24.8714
24.0334
24.355
24.0161
23.5542
22.5922
21.7906
20.8624
20.1945
19.6142
19.3009
19.1403
19.2206
21.5779
37.6054
26.3801
24.6209
16.9345
17.9261
10.5524
10.4154
7.24402
7.09771
5.85541
5.67366
5.07744
4.78665
4.36286
3.99601
3.67739
3.25415
3.04422
2.64486
7.19204
45.0029
25.1466
19.812
13.9505
16.1383
13.1224
15.3822
12.6241
12.5522
10.635
9.70322
8.57685
7.71177
6.80691
5.95237
4.92716
3.93876
3.0806
2.62712
37.6445
67.8567
61.6766
50.2618
46.8957
42.2159
40.1961
37.9384
36.6892
35.6967
34.761
33.5639
32.5048
31.0033
29.5053
27.1554
24.5709
22.6609
21.481
21.0245
33.6572
59.0103
62.7114
57.5158
54.5112
48.8913
45.8296
42.7222
40.2132
38.5721
37.2069
35.6823
34.1264
32.1338
30.1818
28.0752
26.2273
24.4425
23.3494
22.1564
56.6944
49.966
60.736
61.9323
60.6063
55.5009
51.2046
47.0235
43.6193
40.5792
38.01
35.5459
33.3932
31.0974
28.8628
26.5831
24.6427
22.881
21.7066
19.9163
43.7971
58.8808
56.2264
64.5423
61.9241
59.2879
55.6602
52.097
48.3975
44.3043
40.4411
36.6097
33.4084
30.7099
28.3136
25.9811
24.0332
22.2459
21.0123
19.266
37.068
68.6085
65.6628
61.9288
59.2006
59.1282
56.7563
54.0766
50.6079
47.1706
43.3402
39.1702
35.1083
31.6498
29.0865
26.8425
25.0131
23.2379
22.152
20.5667
27.6722
70.4473
70.1754
61.5971
56.7252
56.5906
54.3886
52.1557
49.6521
46.7101
42.9574
39.2978
35.7453
32.5141
29.4285
27.0651
25.8307
24.5042
23.56
22.0061
25.8845
65.7998
67.8917
60.4578
54.9749
56.0057
52.3859
49.7447
46.6584
43.298
40.0702
36.6217
33.5635
30.4281
26.3256
25.4157
24.7694
23.809
23.1621
21.8615
38.6339
65.4171
67.7995
59.8238
55.0525
52.2206
50.5301
45.4445
40.8295
36.643
33.378
30.3769
28.0263
25.9607
23.302
22.2968
22.614
22.4403
22.1963
21.2284
23.8975
74.8852
72.5018
63.3272
56.5202
51.1444
46.9331
40.6699
34.7541
30.9148
25.9629
22.8094
21.6245
21.5156
20.7165
20.7741
21.3731
21.5765
21.6015
20.9193
56.0887
47.896
52.5948
56.8841
52.1347
48.8219
45.2418
40.2141
35.1924
30.3443
12.3359
11.5623
13.6698
15.7407
17.9003
19.6334
20.2146
20.5625
20.7889
20.5023
71.2878
65.0307
63.7325
60.5754
52.9194
48.4602
45.5266
42.8067
39.278
33.837
29.2901
25.5747
22.2916
20.386
19.5428
19.8674
20.1748
20.2691
20.3185
20.1428
52.7704
68.3398
68.7615
59.4383
55.0333
53.9048
49.258
45.9974
41.097
35.8897
31.2985
27.3693
24.1219
21.7039
19.8424
19.8303
19.8788
19.7858
19.757
19.6703
41.4479
71.2807
73.8727
65.3801
57.7359
55.1514
50.7229
46.2377
41.0198
35.8677
31.1271
27.3569
24.4097
22.2701
20.8317
19.9527
19.4764
19.1282
19.0293
18.9657
12.4141
68.5143
72.255
67.9655
59.7678
54.0228
48.1931
42.2982
37.6315
33.0111
29.5557
26.4373
24.1323
22.1992
20.7344
19.7171
18.9856
18.4562
18.2733
18.1108
28.282
52.364
67.2103
66.9198
60.1595
52.075
44.5584
38.8533
34.7785
31.4279
28.5262
25.8209
23.7634
22.0684
20.7546
19.8591
19.212
18.7482
18.5606
18.4166
39.1128
65.4709
71.7367
65.9741
58.5337
49.4656
41.8765
37.2873
33.5095
30.438
27.8054
25.4029
23.5398
22.1207
21.0973
20.4879
20.1305
19.9139
19.8594
19.9007
20.4688
61.2186
68.0445
62.0165
53.0236
43.9748
38.489
34.8781
32.21
30.045
28.1015
25.9755
24.2969
22.9543
21.9805
21.4226
21.1077
21.0219
21.0388
21.3136
41.5034
57.0116
58.8447
46.2877
36.0569
29.9558
27.19
26.5756
25.9679
25.9035
25.3193
24.4432
23.3181
22.3483
21.4306
20.7737
20.2391
19.9885
19.9218
20.0793
13.469
33.5584
22.1567
22.3852
15.3879
15.7488
10.4955
10.2562
7.91332
7.63415
6.44343
6.00811
5.28717
4.81478
4.326
3.91859
3.59637
3.23035
3.07251
2.73152
25.0429
46.9147
13.2521
20.3586
6.65214
16.3133
6.24219
12.9168
5.64282
6.55569
4.46171
4.18984
3.39481
2.97256
2.51734
2.13184
1.82703
1.54973
1.40645
1.20079
17.0634
68.9797
44.1675
53.2323
26.4672
44.3582
20.8302
32.6556
19.4743
23.0318
18.3033
18.8545
16.5606
15.8174
14.3733
13.503
12.7315
12.3973
12.0135
11.4228
99.7057
72.0557
61.8359
65.061
34.8974
50.8204
24.9122
32.9492
21.7699
24.4666
19.6233
19.8292
17.2323
16.3778
14.81
14.0738
13.3588
13.0857
12.8406
12.1896
73.7192
60.683
54.2574
71.8731
35.9173
50.4295
26.4848
32.8162
22.8868
24.6704
19.8442
19.3844
16.6465
15.4482
13.7652
12.8949
12.1077
11.6207
11.1234
10.3889
31.8802
39.0171
57.0749
73.003
36.548
61.0796
30.624
37.0475
25.5889
25.7482
20.2761
19.1932
16.5008
15.3413
13.6917
12.8059
11.8551
11.1878
10.6533
10.0214
66.5284
75.0369
43.7028
69.0748
36.6017
51.7979
31.6348
35.3817
27.9135
26.5088
21.9272
19.7281
17.1826
15.6302
14.0808
13.0831
12.2357
11.5644
11.087
10.3717
43.1221
76.1245
54.242
68.42
36.1703
52.5908
33.3567
35.2003
27.4993
26.5151
22.4655
20.6435
18.1529
16.7638
15.3076
14.3474
13.2357
12.2298
11.6658
10.9237
47.045
66.755
59.094
67.5409
35.7844
44.5508
56.5798
51.5555
46.1485
41.5703
37.4367
33.5822
30.34
27.5308
14.7494
13.7618
12.8642
12.1231
11.635
10.8915
41.8741
74.2875
67.1966
64.1146
36.0146
56.3477
52.9296
44.1849
37.3142
32.1985
28.4548
25.4546
23.4615
21.8993
20.9877
13.1676
12.5597
11.869
11.4263
10.7363
20.3976
54.897
42.7143
67.183
34.7265
53.4857
47.411
36.6965
29.7581
25.3283
21.6172
18.9704
18.4814
18.8269
19.5799
12.9139
12.264
11.7331
11.3462
10.7595
110.186
43.9467
31.7685
60.9463
32.1573
51.6295
46.674
37.8415
31.0661
25.4617
19.3916
16.03
15.5012
17.0337
18.8243
12.4918
11.9171
11.4424
11.1879
10.7381
80.3263
47.6861
49.054
58.9042
40.8476
53.7624
49.8002
42.4962
35.619
28.8472
23.5275
19.8252
18.3987
18.1552
18.9149
12.2785
11.6262
11.1893
11.0019
10.6742
98.2678
72.6802
51.8952
63.1431
35.891
57.6481
51.6366
45.1835
38.5563
32.6089
27.5269
23.5329
20.8291
19.2315
12.0174
11.3446
11.0891
10.9041
10.8941
10.5526
65.6624
59.9976
80.1928
69.5087
44.8893
57.7187
34.6757
45.5238
25.3298
24.2823
17.0881
15.5698
12.789
11.979
11.0025
10.8552
10.6045
10.5367
10.5233
10.1971
67.1924
73.6689
63.6784
72.9555
43.284
56.1843
30.6095
40.9523
22.4685
24.0725
16.5533
15.6151
12.7748
12.1232
11.0544
10.7599
10.4231
10.2845
10.306
9.91712
31.1184
38.7233
81.5739
72.8532
44.0501
53.238
28.3514
37.4083
19.6715
22.3938
14.8376
14.8502
12.1647
11.9293
10.8513
10.8222
10.4598
10.4447
10.4291
10.0863
16.4122
52.1905
59.7297
70.6158
38.7563
49.8357
26.221
35.7666
18.8161
22.5953
14.6372
14.9346
12.3266
12.3816
11.424
11.5112
11.2033
11.2236
11.2592
10.9401
79.9324
71.5726
53.8009
64.3792
30.3077
42.5879
21.6385
32.6972
17.711
21.0392
14.9088
15.1216
12.781
12.7609
11.9068
12.043
11.7893
11.8753
11.9304
11.7719
56.8402
63.0824
37.4086
42.0851
17.0894
28.3021
14.0475
21.4676
13.7476
16.363
13.3377
13.7021
12.0979
11.8264
11.1011
10.9968
10.7024
10.6624
10.6483
10.648
21.1525
21.6526
8.28231
20.3495
5.19664
8.40081
3.96568
4.38193
3.01903
2.99135
2.42684
2.24913
1.91116
1.73498
1.53809
1.41243
1.29019
1.19158
1.11879
1.03527
25.4764
25.6733
9.09054
31.2375
27.2435
28.972
8.61391
21.9198
8.08915
7.47841
25.8851
23.2595
7.58278
7.59053
9.31447
29.4159
25.4715
29.879
7.21138
33.0412
29.2455
7.22344
24.6669
23.2361
6.34866
6.79196
28.2803
25.6775
0.306724
0.405632
0.316746
11.3353
13.5843
13.2346
14.0937
0.276733
0.308314
0.253609
13.9528
14.6505
14.2248
14.7804
0.269382
0.24521
0.229771
15.2473
16.4792
14.7564
14.3915
0.277717
0.227118
0.223081
16.7276
16.7934
14.3399
14.308
0.261238
0.222577
0.212708
16.6543
15.8164
14.209
13.5698
0.226622
0.208223
0.191378
15.4814
14.5647
13.3153
12.6147
0.196974
0.186106
0.174929
14.2981
13.4753
12.4472
12.0064
0.131709
0.170119
0.134704
13.1282
12.4611
11.8156
11.7816
0.299882
0.455689
0.265247
12.6231
13.1908
13.3746
12.8644
0.247038
0.258802
0.222084
13.356
14.2662
12.8935
13.3515
0.210511
0.194878
0.153588
14.1884
13.5151
13.0276
11.5375
0.200298
0.151756
0.157307
13.4093
13.273
11.1011
10.4003
0.187791
0.158407
0.144591
13.1193
12.4985
10.2662
9.56474
0.17278
0.135072
0.115341
12.2821
11.6865
9.21301
8.42867
0.161465
0.112027
0.107448
11.5575
11.3044
8.25985
8.07056
0.129337
0.106616
0.0830168
11.1946
11.399
8.08628
8.51631
0.271893
0.37333
0.213551
12.9784
12.8071
9.27263
10.1553
0.198767
0.193702
0.177076
12.86
13.2382
10.4066
12.7705
0.15485
0.184414
0.219165
13.0595
11.8657
13.8187
15.3781
0.142829
0.223522
0.20748
11.2631
9.71931
15.2324
12.6826
0.14579
0.181784
0.164549
9.76723
9.61255
11.7095
11.0823
0.10984
0.167547
0.135876
9.24297
8.27546
10.9319
9.54709
0.0956172
0.122827
0.104921
8.07629
7.67315
9.25813
8.97065
0.075654
0.101719
0.073406
7.59569
7.83471
8.86062
8.86944
0.220776
0.414401
0.228768
8.9346
9.41205
9.44779
10.0592
0.177909
0.21453
0.250049
9.64479
12.715
11.0439
14.0864
0.227577
0.257109
0.26711
13.9344
15.712
14.5109
15.0539
0.227353
0.267555
0.242199
15.7542
13.5742
14.9591
13.6909
0.169978
0.224348
0.187814
12.5887
11.6007
13.2187
12.1201
0.150366
0.178794
0.16429
11.4837
9.99711
11.8348
10.6333
0.113458
0.155425
0.134226
9.60704
9.25277
10.155
9.12802
0.078809
0.126153
0.0950386
9.13916
9.22807
8.8979
8.94104
18.5674
19.0689
18.7626
30.713
32.4241
32.8266
31.7174
19.5223
18.8431
19.2662
32.2843
32.1365
31.3511
30.2188
21.1107
19.1611
18.6015
32.2332
31.9182
29.6575
28.1259
21.2194
18.5173
18.3177
31.6924
30.5742
27.7797
26.4422
19.9379
18.1136
17.1741
30.0961
28.3803
25.8058
23.9841
18.4336
16.8358
15.9349
27.8157
26.2539
23.4773
22.3089
17.0451
15.721
15.1663
25.7437
24.2245
22.0413
21.3814
15.2123
14.9423
14.2525
23.6668
22.081
21.1399
20.3914
17.4063
19.2072
16.9799
31.5306
30.0867
31.4313
28.9277
18.5239
16.9359
17.3088
29.9536
29.2257
28.6556
27.6698
17.4951
16.9213
15.0699
28.5903
26.8579
26.8918
24.1213
17.0164
14.5289
13.1891
26.5213
24.2922
23.4768
13.6702
15.723
12.8016
11.6033
23.2953
21.1721
12.272
10.2314
14.6586
11.1593
10.1267
20.7508
20.0272
10.0487
10.0164
14.2311
9.89736
9.72154
19.9438
19.9032
10.1985
11.5783
13.789
9.79752
10.0461
19.8636
19.7415
12.2992
14.1087
17.088
14.4726
14.2059
30.9107
29.2087
27.2863
27.0887
17.3481
14.4471
17.1781
28.9222
27.9524
27.4909
29.426
15.4681
18.2036
19.3682
27.2979
24.4844
29.7509
28.4591
12.6088
18.9818
15.8535
23.7669
14.3247
27.3681
23.4373
11.8481
14.8318
14.1589
12.9736
10.8867
22.6145
21.5152
10.1697
13.9462
12.4954
10.7435
10.7352
21.0436
19.3245
9.35751
12.1864
11.7774
10.717
11.2246
18.8956
17.9384
9.27582
11.6179
11.0318
11.5957
13.0483
17.6322
16.9052
13.2347
13.1202
14.4425
26.1572
26.2254
28.4639
28.7654
17.1477
15.4009
18.9683
26.841
29.7998
29.5877
31.7513
19.8626
19.43
19.7617
30.2691
29.274
31.6931
30.2719
16.8208
19.4695
17.6766
28.2772
24.491
29.4244
26.474
14.7626
17.0009
15.568
23.6069
22.3195
25.5629
23.5094
12.9722
15.1563
13.6798
21.8355
20.0929
22.8672
20.9059
12.1575
13.1167
12.0479
19.6613
18.7774
20.3128
19.0975
11.4652
11.8013
11.4523
18.4975
17.6696
18.791
18.2649
36.441
37.2093
35.2921
46.2294
45.2063
46.1002
42.3083
35.4079
34.7102
32.8712
44.1491
41.3532
40.9473
37.0074
34.2853
32.1326
30.2171
40.4444
37.6249
35.7949
32.8887
32.4227
29.7573
27.9657
36.8173
34.536
32.1499
29.5599
29.9806
27.1973
25.1587
33.7779
31.5377
28.6259
26.2735
27.7233
24.6258
23.4347
30.8688
29.0865
25.6788
24.3252
25.5968
23.1644
22.5071
28.5134
26.9143
24.0232
23.3517
23.3912
22.2727
21.4644
26.3888
25.0127
23.1409
22.3755
33.8168
35.149
32.4845
45.0287
41.3135
43.6432
40.073
31.8836
32.0585
30.4168
40.0392
36.102
38.9795
35.4112
29.0216
29.504
26.511
34.8521
31.9941
34.1877
30.9621
26.8759
27.87
27.3044
30.0584
25.8997
29.1369
28.8269
17.1096
23.2697
18.8012
24.8949
17.6181
23.8355
18.2586
20.943
7.62641
9.03513
22.8164
22.0496
8.21971
11.1196
20.9468
9.61835
11.944
21.9529
21.9345
12.0166
14.6877
20.786
12.8833
15.0138
21.9221
21.7498
15.5573
17.4088
32.7055
31.7684
31.2503
43.4583
40.225
42.4843
40.9366
30.7554
31.5602
32.7292
39.2252
35.9875
40.5625
38.9335
26.8066
32.7149
30.6274
34.8277
31.4987
38.0145
34.3503
22.8155
15.6506
26.8117
24.2453
23.5974
3.55955
28.6014
15.9138
7.59379
17.8703
2.04723
17.2573
1.99034
16.5254
9.71222
22.6525
20.7768
8.03919
11.4609
24.8108
22.4103
11.4704
20.2906
19.1652
12.1913
14.2048
21.7541
20.2905
13.9347
18.8291
18.0481
14.8915
16.6313
19.9325
19.2432
30.6801
33.4746
33.2308
42.5564
41.3034
44.9261
43.5012
33.2555
33.8634
35.1124
41.0824
39.7333
43.1889
41.3787
31.4738
34.7583
32.6832
38.8184
35.1122
40.2675
36.5787
26.5211
31.6834
28.5426
33.7583
30.1897
35.3365
31.9165
24.1557
27.5987
25.4009
29.281
26.7865
30.898
28.2036
21.7022
24.6987
22.6523
25.9288
23.508
27.3491
24.9735
20.1348
22.0331
20.713
22.8469
21.2902
24.2651
22.5303
18.8212
20.3541
19.556
20.8954
19.8831
22.0417
20.8517
46.7277
47.9098
43.1811
53.2569
47.1809
49.426
41.5377
41.9625
41.5368
36.9963
45.2418
40.2171
39.2321
33.6656
37.5424
35.6681
32.5502
38.6299
34.5316
32.1756
28.7546
34.1852
31.7594
29.1247
33.4974
30.7
27.8607
25.2313
31.0485
28.2005
25.8463
29.7784
27.3268
24.3919
22.2076
28.5912
25.231
23.7812
26.69
25.063
21.6162
20.4201
26.4556
23.4713
22.8171
24.5552
23.2193
20.2752
19.9923
24.7293
22.6211
21.9489
22.8325
21.9679
19.8896
19.5477
42.2435
45.5091
41.218
48.2459
40.5587
47.1051
40.3201
36.1052
39.8693
35.7562
38.2921
32.7212
38.3192
33.0645
31.7232
34.4556
31.251
31.2344
27.9649
31.605
28.0176
27.2392
29.6482
14.396
27.0597
24.1744
26.8033
21.0914
23.3279
12.8666
11.2814
23.2134
20.8921
19.5341
16.6647
21.7845
11.4448
12.9509
20.3085
19.1407
16.1499
15.3093
21.536
13.5381
15.6086
19.082
19.2453
15.4427
16.6865
21.3788
16.3003
17.8091
19.2686
19.2542
17.0733
17.9163
41.4391
45.2204
42.7986
47.232
40.9856
48.7994
43.9877
36.4477
42.1275
39.6053
39.1265
34.0726
42.4903
37.8339
31.8297
38.4546
34.4828
32.5854
28.7091
36.1611
31.4206
13.7656
33.1634
29.4088
27.4345
21.4733
29.9699
26.0286
11.0866
28.3684
25.4697
19.9084
17.0087
24.8284
21.6756
13.2303
24.5437
21.9666
16.4552
15.3973
20.7904
18.6467
15.1873
21.2783
19.843
15.4257
16.4715
18.3427
18.0836
17.1704
19.5329
19.0524
16.8196
17.6706
18.076
18.1618
43.3726
47.9583
45.4191
49.8482
44.8614
51.945
46.7507
40.4441
44.7962
42.1144
43.4034
38.7475
45.3574
40.7623
35.2025
40.8009
36.7274
37.0392
32.1199
38.9939
34.0632
30.2692
35.4475
31.9441
30.6394
26.6924
32.6749
28.789
26.502
30.8802
28
25.5064
22.3443
27.5648
24.3885
22.9818
27.1105
24.6469
21.4397
19.398
23.5162
21.3047
20.756
23.9188
22.1192
19.0538
18.5191
20.6992
19.386
19.5873
21.6272
20.5055
18.4303
18.3083
19.0707
18.4436
46.2669
48.5324
40.0418
17.8324
14.1117
14.6072
11.9231
38.9403
37.668
32.1647
13.4585
10.8098
11.4541
9.99197
33.2378
30.7191
27.2032
10.6368
9.81168
9.67698
8.51078
29.3755
26.2349
23.5455
9.59522
8.54145
8.17861
7.31745
26.0637
22.7329
20.721
8.41021
7.96678
7.11404
6.77319
23.9276
20.2518
19.558
7.86796
7.44345
6.77653
7.43708
22.2429
19.5135
19.3807
7.42915
7.27252
7.46209
7.49046
21.2499
19.3034
19.1435
7.27737
6.75651
7.47733
7.18251
39.0151
46.4574
38.981
15.4985
11.7211
15.5698
12.1888
31.213
36.8998
31.5881
11.2342
9.84058
11.6944
10.0104
26.3035
30.0752
26.1228
9.40715
8.18432
9.4438
7.92801
22.5016
24.8815
20.39
7.84541
6.96268
7.50739
6.41512
19.4793
19.0393
16.3386
6.74936
6.35864
6.16145
5.64009
18.3863
15.815
15.2134
6.35095
7.09242
5.58811
6.38427
18.7913
15.5454
16.878
7.42448
7.50428
7.04094
7.57247
18.9212
17.2204
18.0052
7.49393
7.19999
7.59055
7.38518
39.7993
48.8066
43.2267
17.5752
12.8314
18.6456
15.0874
32.6338
41.5534
36.4945
12.26
10.3835
14.4408
12.0666
26.7898
34.7248
29.6305
9.77148
8.11997
11.3262
9.29944
20.7565
28.0785
23.9965
7.65723
6.48033
8.72969
7.37185
16.6169
22.8002
19.8442
6.19705
5.63043
7.04859
6.44223
15.2391
19.0714
17.8291
5.58136
6.38855
6.41036
7.23285
16.7101
17.7608
17.8734
7.06071
7.60655
7.6586
7.72466
17.8199
17.9156
18.1257
7.60945
7.32364
7.71242
7.45883
44.1374
51.7845
46.0689
20.3835
15.8709
20.269
19.5798
37.4189
44.4945
39.5472
15.1677
12.5501
17.4149
13.6528
30.4174
37.7195
32.6812
11.8556
9.80106
12.4522
11.3048
24.7243
31.2647
27.331
9.22083
7.83184
10.4999
8.97495
20.5604
26.1237
23.0869
7.49823
6.88724
8.54974
8.15647
18.5567
22.2853
20.3438
6.86296
7.71155
7.84902
7.44976
18.1901
19.8406
18.7962
7.72221
7.74043
7.33239
7.33918
18.2037
18.5383
18.1193
7.71441
7.33679
7.21421
6.78388
23.3252
26.8003
20.6283
26.2435
23.3944
27.8491
20.1201
19.8482
25.9187
16.5507
24.2468
22.2768
27.2234
4.66814
11.9571
13.1323
10.9832
2.15332
16.512
9.00697
2.80284
27.753
30.9551
30.1815
30.3762
29.9099
29.8605
28.5535
24.0278
26.8437
28.8481
22.4312
28.5378
20.8016
25.4287
20.3675
24.6773
29.4254
16.8089
28.3725
4.665
24.6111
12.5313
2.46911
14.1466
10.7581
9.60991
2.82906
17.7127
16.3153
22.5158
16.4418
22.4398
16.823
23.0325
16.2478
7.28817
11.4492
7.34316
1.80307
10.425
7.9207
1.61487
6.89467
9.77375
7.10273
4.19438
9.73924
7.96752
2.99576
17.7846
25.4563
24.7899
20.5563
24.3626
18.9459
19.3327
16.9608
22.9021
23.937
18.0723
23.5253
16.8451
18.4857
7.94997
2.26259
12.5372
7.02761
8.57102
2.12433
11.6088
7.52017
4.15299
11.2144
7.06385
8.55809
2.9008
10.9817
19.2345
11.1278
19.0138
2.35266
20.7364
2.98139
17.5122
28.1844
28.2383
28.0187
31.0916
26.6216
30.0333
29.6767
26.3509
23.5966
26.6331
27.1804
24.9716
24.874
28.3142
23.5212
24.7307
15.2704
30.9882
3.81627
30.009
26.6504
19.6446
2.64337
9.15416
20.3002
2.99992
17.858
22.5009
29.4639
32.3288
32.1713
31.6841
31.385
30.934
30.4105
27.5506
28.4746
26.9551
30.3833
26.002
29.6024
28.5271
15.7412
6.80716
16.1535
3.4105
16.6466
2.44435
15.2057
23.2551
22.7353
24.1365
26.3513
22.1789
23.9445
25.7209
22.6546
21.1583
23.7156
24.5236
21.7083
21.9723
25.1539
16.0543
2.45684
5.96225
18.8638
2.3871
16.7424
17.8997
15.8803
3.5428
5.72754
16.7461
2.60633
15.3261
17.1926
24.1197
27.5871
25.7815
27.4048
24.9587
26.8361
24.7927
23.3763
25.347
23.021
26.5498
22.5804
26.1166
23.8899
0.745835
0.846821
0.749076
6.02814
6.65379
6.36703
8.13127
0.644049
0.717022
0.710133
7.62676
8.92814
8.82962
9.38487
0.746161
0.726302
0.796288
10.5153
12.0874
10.1046
11.4774
0.853338
0.855687
0.875313
13.2205
13.3764
12.3012
12.602
0.861209
0.857259
0.852242
13.5675
13.5147
12.6
12.3882
0.831914
0.823901
0.780775
13.3716
13.1063
12.032
11.781
0.77874
0.727717
0.698097
12.8511
12.5592
11.411
11.2215
0.650896
0.649656
0.513554
11.7347
12.7394
10.6028
12.5463
0.902808
2.08858
1.17371
6.92354
8.27797
7.84132
9.99077
3.28019
0.344519
0.334081
2.51971
2.92154
2.34544
0.267579
4.55491
0.298561
0.273048
4.52234
4.53081
4.5105
0.271657
4.99468
0.267222
0.254857
4.93713
5.1851
4.89642
0.255499
5.19366
0.274737
0.260347
5.87458
5.8964
5.16665
0.263187
5.2574
0.273319
0.266352
5.85436
5.7707
5.2966
0.26405
4.92608
0.243592
0.243814
5.41746
5.27242
5.01682
0.236063
4.6249
0.211571
0.21149
4.94848
4.84343
4.70117
0.205582
4.32858
0.180777
0.185815
4.51532
4.36152
4.38632
0.179059
0.438911
0.541175
0.391985
8.27291
8.45199
8.67135
10.1936
1.32922
1.88194
1.4104
8.8491
10.2854
9.30842
11.0718
3.36859
0.346671
0.434811
2.91971
3.50204
2.90183
0.343552
4.91008
0.277816
0.262456
4.92095
5.01338
4.53664
0.264432
4.58444
0.223261
0.224698
4.82296
4.6986
4.7759
0.207608
4.17349
0.205364
0.186801
4.43862
4.4192
4.21399
0.186434
3.98896
0.193449
0.180951
4.34015
4.33099
4.01611
0.175558
3.83275
0.180928
0.161451
4.22137
4.16755
3.85035
0.158729
3.73588
0.16638
0.150832
4.03674
4.00891
3.74501
0.148999
3.67506
0.1559
0.144256
3.91415
3.88724
3.69165
0.142831
0.385806
0.399486
0.319421
8.31472
10.0755
7.15654
8.80603
1.19474
1.5591
1.08506
7.8546
9.79968
6.81
7.30889
2.89753
0.348759
0.387823
2.78922
3.47149
2.40193
0.280537
4.02611
0.244345
0.21622
4.33792
4.47887
3.73995
0.208852
4.84871
0.169756
0.196993
4.24935
4.14986
4.72481
0.197326
4.07109
0.143566
0.184338
3.57787
3.39136
4.41064
0.176191
3.12913
0.150524
0.137302
3.25281
3.34156
3.02247
0.141583
2.97013
0.124547
0.143444
3.09278
2.95151
3.16336
0.130383
2.60292
0.101761
0.103515
2.76449
2.76317
2.62967
0.0991592
2.49552
0.0911187
0.0889994
2.73175
2.69384
2.53565
0.085702
0.230192
0.288559
0.19958
5.93839
7.20811
6.00629
7.21927
1.21598
1.70036
1.2173
7.80494
7.97201
8.26743
8.41909
2.7348
0.322967
0.407711
2.60407
2.72691
2.63818
0.321192
3.15645
0.178004
0.189012
3.00206
3.31036
2.83452
0.171786
5.21543
0.200298
0.197904
4.82216
5.26019
4.88739
0.21497
5.84356
0.240482
0.258188
5.79695
5.81409
5.81176
0.262799
4.57034
0.180226
0.218408
4.67752
4.23021
5.02533
0.194025
4.2495
0.172227
0.175263
4.16542
4.0497
4.30811
0.175144
3.17316
0.125037
0.145864
3.14097
3.01634
3.34557
0.134671