/*--------------------------------*- C++ -*----------------------------------*\
  =========                 |
  \\      /  F ield         | OpenFOAM: The Open Source CFD Toolbox
   \\    /   O peration     | Website:  https://openfoam.org
    \\  /    A nd           | Version:  10
     \\/     M anipulation  |
\*---------------------------------------------------------------------------*/
FoamFile
{
    format      ascii;
    class       volScalarField;
    location    "7.3";
    object      omega;
}
// * * * * * * * * * * * * * * * * * * * * * * * * * * * * * * * * * * * * * //

dimensions      [0 0 -1 0 0 0 0];

internalField   nonuniform List<scalar> 
12920
(
267.983
132.823
84.615
69.453
59.9423
63.0213
63.1328
64.112
63.2086
63.3921
63.2227
63.3985
63.0105
62.9354
63.6179
65.0316
64.8471
62.3721
59.4964
52.2091
386.087
202.134
139.044
121.493
103.485
93.1608
84.5186
78.7962
73.6381
70.7494
69.0938
68.618
68.655
69.2829
69.9267
69.8909
69.0611
65.2892
56.7722
49.8572
236.401
176.073
141.22
123.513
111.673
104.042
101.227
96.0567
88.657
81.6689
75.2413
70.5675
67.5576
65.766
64.2531
62.344
60.3151
56.7727
53.505
49.2091
215.241
171.908
141.755
142.638
143.355
139.589
125.076
117.247
108.067
101.602
92.8178
82.7286
73.9091
67.7752
63.9714
60.1556
56.2987
51.5342
49.311
44.7318
452.714
324.342
201.071
154.713
142.442
138.784
128.11
124.704
116.302
110.175
102.783
94.1285
82.4616
72.3748
65.2425
59.5297
55.0756
50.4635
48.3612
43.92
257.643
276.222
250.649
185.484
142.549
132.447
128.015
125.613
117.764
109.309
103.687
99.8056
92.1926
81.5633
71.1657
62.422
56.4861
51.7974
50.053
47.0437
298.234
263.239
241.371
193.881
138.61
117.434
106.216
99.2559
96.6344
96.9424
97.8373
99.7871
100.433
99.3914
95.1239
82.3922
68.1474
57.4776
53.2625
49.4499
82.6155
150.872
166.502
157.442
124.122
110.05
180.452
139.054
132.819
140.345
146.79
147.538
147.019
144.003
81.3354
68.8014
60.2802
54.1454
51.7491
48.7331
73.6765
183.544
168.764
137.371
112.806
156.154
269.519
223.238
215.039
218.157
224.733
217.726
204.515
190.945
111.757
60.4569
55.8778
52.6133
51.506
49.0991
293.796
238.661
173.566
162.5
148.138
228.665
327.312
252.869
203.098
187.031
183.423
182.586
178.753
174.873
108.788
59.3758
56.1569
53.9132
53.1565
51.0298
206.3
199.904
190.807
170.061
131.032
180.593
274.275
229.01
194.467
184.26
172.659
158.189
139.647
134.089
85.2678
51.5688
50.9557
50.8095
50.7298
49.8158
468.3
416.696
256.244
191.086
158.571
239.964
349.038
242.965
228.88
250.274
225.905
199.733
165.804
145.082
91.819
54.029
52.1992
50.7865
50.1215
48.1332
275.818
247.358
207.288
166.008
132.31
114.19
167.467
141.242
144.071
139.829
130.829
122.325
111.591
99.8003
55.3915
51.2321
49.8707
48.0278
46.9854
45.0631
271.237
223.042
198.897
171.309
139.174
122.917
109.216
100.159
91.4746
81.6072
73.1257
64.6976
57.6182
51.9649
47.8921
44.8647
43.47
42.3552
42.06
41.5383
71.243
171.825
173.601
163.478
136.268
122.428
106.436
94.0514
80.9259
70.3555
62.8056
57.4682
53.2778
49.6507
46.44
43.7121
41.5737
40.0297
39.1496
38.3304
468.599
393.065
234.201
171.466
145.006
131.8
110.936
97.5951
82.8128
70.2479
60.6857
54.788
50.577
47.6272
45.1264
43.1557
41.4457
40.2155
39.3373
38.3478
174.745
218.051
185.949
172.262
150.584
130.12
106.909
95.7791
84.9795
74.8842
64.254
56.2672
50.872
47.3748
44.8027
43.0583
41.8365
41.1401
40.6625
40.1591
184.566
230.989
192.347
164.514
137.915
122.471
103.337
93.3548
82.3486
73.345
65.3786
59.5559
54.68
50.9899
47.9444
45.876
44.442
43.7509
43.5458
43.5692
165.473
234.143
197.968
151.441
116.949
100.29
86.6619
78.4951
71.9219
68.3587
64.5697
62.6191
60.1609
57.545
54.4624
51.6608
49.3806
47.8984
47.2911
47.2798
234.499
210.999
184.643
156.541
131.379
113.513
97.5141
81.1327
66.7021
58.4087
54.6596
52.441
50.1557
47.9256
45.8281
43.6218
42.045
39.5159
38.0091
35.2828
212.846
108.889
65.3465
50.2244
41.4714
40.7795
39.5824
39.7553
39.4542
39.4594
39.378
39.2233
38.6663
38.2579
38.1456
37.8602
37.0646
34.9421
31.3949
24.7526
216.2
125.253
91.2271
77.9892
71.0912
62.3611
57.3089
51.272
48.5986
46.1655
44.9536
43.5113
42.341
41.3634
41.3239
41.8941
43.8073
44.7659
44.4267
37.501
276.631
134.434
112.81
89.8396
79.2396
69.1816
62.2568
57.2206
54.3164
51.9768
49.2075
45.5333
42.1011
38.7025
35.6215
33.5673
32.9916
32.42
31.985
29.2379
288.64
138.938
112.906
94.764
79.9148
70.4296
62.0886
58.4641
55.7524
54.2195
52.5932
49.9209
45.4705
39.6791
35.1835
31.649
29.5307
27.526
26.4578
23.4434
359.261
178.335
134.42
102.912
83.6451
71.4102
64.9405
61.6823
59.3227
57.0732
54.524
51.8633
48.6334
42.3268
36.724
31.9842
28.6609
25.8505
24.5825
22.2979
204.128
157.12
139.728
123.167
98.9498
85.3094
76.8976
73.5499
70.3133
65.7844
59.7329
54.7607
52.22
49.7524
44.3006
37.0255
31.1548
27.1374
25.3107
24.1669
263.96
169.551
137.348
108.698
86.8173
77.6525
69.5532
63.0679
55.3708
50.9972
49.049
49.1793
50.2849
53.6757
54.9623
54.2279
46.8878
35.1822
29.3979
26.8898
339.393
195.041
128.411
104.215
87.4463
74.9812
73.2892
64.9738
50.0221
42.9949
42.2392
42.2734
43.0938
44.8281
41.004
39.5709
34.4618
29.5985
27.2032
26.0383
151.099
141.209
110.931
84.7861
72.7662
66.4906
66.2316
55.7986
43.6213
36.9227
35.9216
35.8865
35.3983
34.6446
32.5287
29.0699
27.6594
26.176
25.5205
25.2218
148.913
133.258
100.774
94.094
86.4342
87.7767
82.8758
63.4133
40.3376
35.6976
33.3621
32.8777
32.6175
31.8847
29.7735
28.1663
27.7498
26.9653
26.6917
26.203
306.235
217.43
163.601
118.647
89.1748
75.3738
70.9236
62.72
50.4555
51.9977
46.8314
36.2736
31.7004
29.7812
28.4614
27.6088
27.9514
28.2771
28.4949
28.2036
686.086
334.73
182.359
122.308
95.4326
99.2084
101.979
93.048
65.145
55.0507
52.8628
44.471
36.3605
30.4991
27.2643
25.7539
26.4808
27.3335
27.8119
27.5517
228.944
193.389
125.773
99.0802
82.991
69.1664
67.7694
59.1482
49.2967
44.9927
42.9063
41.624
38.989
34.7269
25.8548
24.3045
23.9804
24.0535
24.3251
24.2685
193.801
170.881
124.658
94.6627
78.4103
73.9372
66.933
58.4769
49.4326
41.7725
37.1226
33.4466
29.8084
26.3735
23.8363
22.1398
21.3754
21.113
21.1452
21.3982
402.931
226.354
125.823
89.6574
71.4718
68.6165
63.1553
52.558
41.8577
34.7163
30.9721
28.282
26.4103
24.4931
22.9161
21.574
20.6873
20.0111
19.6347
19.702
388.569
227.617
134.449
93.2424
70.1484
65.8955
61.9579
58.5261
50.2196
39.5331
31.8518
27.4808
24.9184
23.1981
21.992
21.0647
20.3835
19.8618
19.4782
19.3959
266.148
145.591
105.838
85.9309
68.9193
62.441
58.8592
56.6686
51.2454
43.3079
35.8066
29.2885
24.9589
22.7846
21.52
20.7634
20.254
19.9826
19.7815
19.7882
342.964
145.174
102.831
84.0028
68.1715
62.0075
55.8345
51.117
45.918
39.362
33.6613
29.3808
26.4971
24.6821
23.3256
22.4462
21.858
21.5339
21.4086
21.4258
145.74
155.538
97.0422
77.0254
66.0869
55.1401
49.7071
44.2241
40.3385
36.8402
34.0647
32.5305
31.0433
29.7899
28.4418
27.3098
26.4442
25.7738
25.4549
25.1724
99.3251
108.017
93.4318
80.0478
66.5268
57.5357
48.5031
40.8431
34.4478
31.7393
30.4423
29.9323
29.2488
28.5727
27.7845
26.7407
25.8483
24.2153
22.9548
21.1471
129.327
132.959
87.1233
58.4723
51.9743
48.1834
46.7506
45.7855
45.3753
44.7466
44.1631
43.0429
42.0186
40.9513
40.0261
38.5409
35.8832
32.2483
28.5024
23.721
151.971
150.065
92.0736
64.8402
60.0388
53.1192
47.919
45.1104
42.4824
41.3868
39.9503
39.1055
38.4326
38.4378
38.7964
39.5887
39.8563
39.3114
37.3887
32.8874
182.892
148.211
103.373
81.4042
68.5742
60.3046
52.1838
49.0779
45.5414
43.7719
40.9747
38.678
36.2783
34.3369
32.9007
32.1862
31.8985
31.2334
30.4963
28.4157
239.102
207.803
120.306
88.8677
70.9694
60.2612
51.9105
48.6737
45.6592
44.0795
41.6772
39.2044
36.1704
33.1492
30.7546
28.8901
27.6207
26.3163
25.4576
23.7575
224.358
127.073
102.784
82.2907
67.1222
58.1605
52.8632
50.0083
47.3726
45.2802
42.6977
40.0957
37.0914
33.578
30.5075
27.9522
26.2186
24.8097
24.0354
22.911
119.107
130.125
107.844
91.2674
74.7578
67.2868
59.4628
56.5815
52.897
49.963
46.4161
43.2556
40.7097
37.6606
33.8341
29.9389
27.2122
25.4801
24.7015
24.1832
209.004
145.919
111.548
85.7974
68.4505
62.0032
54.1791
49.3272
44.754
43.2097
42.2394
42.1163
42.2127
42.2909
41.2357
37.6224
32.5783
28.6951
26.8024
26.0123
216.94
144.93
120.361
93.4588
72.319
60.9992
57.5602
48.5101
40.7423
37.1857
36.8046
36.7975
37.2837
37.7747
34.1821
31.52
28.8476
26.9584
26.0359
25.6418
120.904
125.037
98.3499
68.9309
55.6734
51.7635
52.0262
43.634
35.9825
32.5305
31.7216
31.3792
30.945
30.3794
29.1579
28.3299
27.1009
26.1174
25.663
25.3627
120.857
121.621
81.5274
68.9606
61.2819
58.4743
53.4105
42.5957
34.0332
31.125
31.4611
31.3082
30.108
28.9344
28.6187
29.6221
28.7108
27.7382
27.1951
26.3261
226.495
192.756
110.162
73.3228
60.19
55.6731
53.6009
46.8958
42.2584
40.1423
76.2102
56.1911
38.6383
32.772
30.1487
31.0811
31.0714
30.7243
30.0004
28.2052
332.161
171.997
117.913
82.3586
65.6504
66.5861
66.201
60.0191
50.1048
45.2299
41.3041
34.4314
29.5422
26.948
26.7741
28.7025
29.1033
29.0897
28.8168
27.5835
194.173
144.609
86.6699
66.7734
60.2658
53.3512
51.0204
46.0785
40.2403
37.5067
35.3665
33.3201
30.4266
27.7554
25.5676
24.7358
24.5981
24.6431
24.7733
24.6789
126.509
137.797
109.068
76.1327
62.3605
57.6778
50.1567
43.0544
37.445
32.9812
30.268
27.6176
25.363
23.4889
22.3185
21.6703
21.4871
21.5886
21.8078
22.2605
131.099
132.276
106.744
75.5136
59.3583
52.9045
46.3453
39.0557
32.8228
29.0117
26.7022
24.8847
23.4958
22.3218
21.4045
20.7898
20.4245
20.3851
20.4186
20.6965
220.935
138.798
99.2329
72.5949
58.2655
52.2353
47.5068
43.1046
36.2236
30.7249
26.6273
24.3182
22.7543
21.7795
21.0734
20.6353
20.3205
20.2712
20.264
20.4214
483.667
195.486
100.809
76.7085
59.7598
51.0958
46.6343
43.2555
37.7897
32.8248
28.1889
25.206
23.0923
22.0203
21.3166
20.9599
20.7434
20.7506
20.776
20.9458
185.345
149.639
98.4674
72.1592
57.1741
49.5809
44.0686
40.186
35.9393
32.6383
29.4669
27.46
25.6858
24.6186
23.7718
23.315
23.0222
22.959
22.9768
23.1004
189.795
176.58
92.4954
61.6503
52.0288
45.5421
41.7095
39.0718
36.446
35.1479
33.6561
33.0124
31.8605
30.9897
29.8733
29.0811
28.4431
28.1069
27.9721
27.9416
169.669
117.593
91.7665
78.1506
67.4695
59.1838
51.5226
44.9799
39.9396
37.1013
35.3697
34.2386
33.1741
31.9653
30.7613
29.2769
28.1526
26.4752
25.6151
23.9962
96.5746
144.953
96.8947
62.5064
57.6585
51.2586
51.3822
48.875
48.3872
46.4973
45.3267
43.3326
42.0076
40.2
38.6005
36.1879
33.1848
29.509
26.4
24.3587
137.148
164.577
106.431
65.2564
61.0482
50.3677
48.6114
45.2105
44.5839
43.693
43.2939
43.2703
43.3352
43.6882
44.0142
43.9982
43.4593
42.0193
40.8123
40.41
252.713
174.428
104.012
76.9889
68.1482
56.6202
51.5421
47.2545
45.3197
43.3231
41.7469
40.3338
39.0995
38.2317
37.704
37.2603
36.9478
36.4365
36.0541
35.5069
404.907
192.551
115.33
81.1578
67.8413
55.4335
50.4626
46.3538
44.5807
42.5271
40.8527
38.9598
37.2112
35.602
34.4024
33.3514
32.6571
31.9985
31.5463
31.2541
273.742
113.807
95.0012
69.5034
63.4091
53.1913
50.8595
46.7859
45.1728
42.6008
40.7354
38.5088
36.5726
34.653
33.1514
31.9693
31.3603
30.9124
30.5854
30.4387
122.175
129.559
100.757
74.8594
67.5961
59.1716
54.7142
51.38
48.7973
46.1541
43.7841
41.0801
38.8377
36.4397
34.4043
32.6514
31.7942
31.3671
31.1909
31.0886
114.774
132.309
108.21
72.7564
64.3851
55.7687
50.6884
46.3469
44.4774
43.4048
42.6818
41.8142
40.9728
39.5443
37.5227
35.3837
33.8034
32.9414
32.5737
32.4407
191.579
146.826
113.419
77.8195
65.403
55.6522
52.2036
44.972
40.8727
39.2463
38.8273
38.4243
38.1489
37.4596
36.0628
34.1958
33.1668
32.5682
32.2931
32.1653
159.494
132.455
89.8343
61.4471
52.0958
49.2013
48.8727
41.8419
37.7769
36.3649
35.6539
35.1989
34.7721
34.3794
34.8414
35.1505
33.5902
32.7883
32.3899
32.1558
155.098
140.773
78.5258
59.8525
53.6583
48.934
45.5244
39.8183
36.714
34.8646
35.4985
35.484
35.3921
35.3226
36.8316
37.7594
35.9092
34.6024
33.733
32.914
321.447
129.089
76.6689
57.2141
51.5802
48.6529
47.5728
43.7686
41.6354
39.5764
63.3113
52.4899
42.1248
39.5543
39.6915
40.0354
38.3022
36.752
35.4767
34.0425
273.339
125.945
83.3155
60.0378
55.3758
53.7356
53.4888
50.2369
46.4049
42.81
38.8135
35.3379
34.4518
35.0138
37.1202
37.7737
36.4444
35.3391
34.5206
33.5266
217.907
141.23
79.4775
58.2252
55.3649
48.1299
46.4768
43.357
39.8104
37.8751
36.0599
34.5839
33.1477
32.75
33.0696
31.8535
31.4469
31.3859
31.4795
31.5416
164.859
135.466
92.4351
64.5592
58.6045
49.8569
44.9618
38.8434
36.306
32.9556
31.6984
29.761
28.9152
28.1318
27.9594
27.9516
28.1131
28.6728
29.0758
29.6976
177.167
143.686
102.184
68.1808
56.5255
45.9832
42.2515
35.9314
33.1055
30.4052
29.3661
28.137
27.5223
27.0003
26.7377
26.7446
26.8858
27.4202
27.7336
28.3769
224.193
121.828
99.0457
67.9093
57.267
46.8514
43.5485
38.026
34.6138
31.2651
29.5453
28.2084
27.5441
27.0737
26.9286
26.9128
26.9935
27.4051
27.6246
28.155
222.472
148.532
106.236
74.0581
58.7807
46.6867
43.6001
38.6986
35.8954
32.6099
30.5246
29.1205
28.3354
27.8491
27.6559
27.6115
27.6577
27.9491
28.1093
28.5302
208.467
159.903
100.936
67.5113
56.3222
46.0843
43.5693
39.4292
37.7781
35.8547
34.398
33.1761
32.154
31.4623
31.0295
30.8092
30.747
30.8413
30.958
31.2055
234.246
164.133
91.0901
58.4183
53.2601
46.1462
45.5185
43.1669
42.3342
41.9833
41.4451
41.1445
40.2037
39.4206
38.4532
37.8616
37.4726
37.4045
37.3912
37.5268
140.15
114.005
85.0533
70.9915
64.1945
56.9817
50.7771
45.6179
41.9051
39.4374
37.6614
36.1135
34.5604
32.8757
31.2676
29.5711
28.3201
26.8399
26.2012
24.9212
128.328
150.435
96.8966
64.3707
58.9732
51.8465
52.6074
48.0877
47.4715
43.8274
42.2742
39.2889
37.7874
35.2493
33.4861
30.9188
28.9129
26.6788
25.8232
24.8598
197.699
194.033
119.956
79.161
73.9725
53.8395
58.9075
48.4208
54.113
49.8144
53.7905
52.5697
54.8986
54.4363
54.8179
53.4675
52.8917
52.1526
52.6652
53.8372
525.67
238.145
115.055
76.5481
78.9272
55.607
59.6408
48.7329
52.0885
47.2418
49.2703
47.1217
48.055
46.9386
46.8712
45.5101
45.0907
44.5927
44.9451
45.1355
422.442
154.392
120.821
74.4355
75.9666
54.4124
57.5094
47.9085
50.4461
45.9784
47.0517
44.7597
45.0153
43.7708
43.437
42.1395
41.813
41.3913
41.5103
41.49
206.378
155.156
98.2748
67.4582
73.0753
52.8592
58.0235
47.903
50.4153
45.3568
46.0989
43.3044
43.1629
41.8107
41.6206
40.967
41.0724
40.8714
40.899
40.7096
147.442
126.635
113.21
68.1605
77.1553
57.8912
61.6158
52.7834
53.3741
49.1607
48.5331
45.4922
44.3211
42.7182
42.3529
41.6905
41.7338
41.5845
41.5907
41.2981
239.14
149.887
118.849
67.5814
75.8282
56.0587
57.2959
49.2845
51.3104
48.4004
48.507
46.3642
45.4471
43.5838
42.5753
42.2553
42.8321
43.0355
43.0896
42.7589
219.643
164.358
120.212
69.8932
75.0026
58.5269
55.5341
48.865
47.8383
46.5124
46.3244
45.2778
44.8522
44.0717
43.9808
42.7245
42.7037
42.6327
42.6524
42.3232
239.832
142.581
96.6686
64.2713
60.4133
53.3536
53.9437
48.7336
48.3147
48.1418
47.9526
47.7353
47.7183
47.8679
47.587
44.1353
43.0411
42.6178
42.655
42.3246
201.195
174.099
100.364
65.4694
59.1807
50.6642
49.8228
49.5513
50.1384
49.3223
49.6057
50.6604
52.0496
52.1894
50.6158
46.3058
44.5499
43.5464
43.2067
42.4461
518.212
168.656
80.0595
65.1027
57.1663
51.1869
50.9451
51.8629
51.8749
49.9989
51.36
52.1638
54.9632
54.9637
52.8227
47.8829
45.6897
44.4315
43.9486
43.1096
287.561
152.892
85.5797
63.8956
60.3713
54.0059
56.3529
55.3451
53.6582
51.6666
50.662
51.288
53.029
53.7417
51.9829
46.3433
44.5801
43.5523
43.3444
42.7539
417.179
165.661
89.3419
68.577
66.2368
51.5819
51.2656
47.7047
46.9327
45.3355
45.6808
45.3704
46.1844
46.403
43.1634
41.4916
41.0249
41.1668
41.3789
41.5219
181.626
142.4
103.361
66.5334
69.1163
50.3274
50.328
42.1671
42.3506
38.8128
39.6707
37.9937
38.7832
38.287
38.5463
38.3832
38.768
39.2907
39.7262
40.2813
499.194
183.525
121.634
70.4094
64.9913
47.8969
48.0794
39.3501
39.8894
36.7024
37.655
36.4386
37.1419
36.6915
37.0323
37.1238
37.4764
38.0548
38.3252
38.9659
240.377
151.157
106.915
73.4348
65.5578
48.8403
49.6294
40.9367
42.0073
38.0202
39.2677
37.394
38.1836
37.3569
37.8071
37.5175
37.8105
38.081
38.2751
38.7599
173.366
131.645
109.344
72.6455
64.5425
48.5272
49.5068
41.4012
43.1481
38.7001
40.0578
38.0486
38.8061
37.8294
38.1741
37.8757
38.1149
38.3259
38.4637
38.869
422.98
213.936
112.058
70.999
67.1903
50.6446
53.5651
44.8764
48.1325
43.5586
45.2671
42.6031
43.1204
41.7237
41.9066
41.3134
41.4629
41.398
41.485
41.6191
275.987
167.292
108.119
71.3186
70.4919
52.4482
60.1173
50.2314
56.6768
52.1308
55.0176
52.4566
53.0233
51.3396
51.2026
50.2368
50.1552
49.8287
49.7235
49.7806
166.024
111.038
82.3812
64.4059
56.9437
51.383
47.1348
43.4107
40.6459
38.3046
36.2241
33.9606
31.8768
29.9364
28.3525
26.982
25.8847
24.8965
24.1519
23.3568
31.1618
38.37
71.0759
33.1703
33.8288
37.9981
84.7501
31.5259
70.1439
58.0709
34.1886
34.2633
83.7819
66.5878
76.6184
45.6891
43.2932
39.218
101.833
42.6166
39.7003
64.9176
41.7544
35.5911
100.744
77.1554
38.4817
34.8084
222.654
251.814
230.503
78.3393
67.7312
74.3982
64.461
217.889
227.806
205.986
62.7492
52.6486
59.3902
45.4766
216.339
202.216
195.659
49.0805
42.1636
43.0039
39.4014
224.378
194.719
194.969
41.0632
40.1825
38.7557
37.3793
220.773
195.798
195.597
40.1748
40.2867
37.1384
37.074
208.222
194.719
189.192
40.2591
39.9528
37.1234
37.0125
195.161
187.268
182.45
39.6729
38.9835
36.8386
36.1726
161.04
180.319
160.448
38.6873
37.4624
35.957
33.6355
263.93
337.537
252.117
99.6847
82.9603
98.571
85.831
212.125
245.367
215.734
73.8933
48.6872
78.319
55.4151
188.851
199.598
175.649
44.8706
40.4335
52.0947
50.793
184.394
173.803
172.517
39.6725
37.5803
50.8545
47.1688
182.799
171.874
161.676
37.1441
36.5449
44.9196
39.0451
179.829
156.253
145.661
36.5002
36.4065
37.7906
34.9295
176.001
144.33
144.154
36.3047
35.7906
34.2767
33.1642
158.109
144.346
129.344
35.6102
33.6319
33.0956
31.8841
232.192
276.337
225.03
81.2074
75.7539
95.9902
93.311
200.927
219.954
221.015
70.8322
56.3064
90.1943
74.3627
187.565
226.495
245.799
54.9771
56.488
69.7474
62.1828
173.519
247.693
235.041
57.4012
55.8504
61.2131
61.0114
165.339
217.868
197.181
52.0097
41.6743
60.8668
52.5586
142.344
194.518
165.366
39.6235
35.333
49.1059
41.405
134.869
155.825
141.71
34.3019
32.3183
39.2141
34.0016
123.608
139.405
118.857
31.9927
31.1372
32.9234
30.104
259.745
352.684
237.487
117.163
107.536
113.254
102.746
225.73
225.541
227.766
102.528
77.8577
94.5179
69.905
246.946
228.055
228.577
71.5988
62.0381
64.4041
56.2267
241.515
227.745
220.19
60.3121
58.4876
54.5362
51.8433
201.445
213.433
200.541
58.2384
52.6715
51.1729
50.0794
177.177
196.71
189.318
50.0977
43.6201
49.6013
47.7658
148.17
183.5
167.471
41.4434
35.5866
46.8698
43.0629
123.239
160.819
136.465
34.4028
30.5712
41.3764
35.6968
59.966
63.5697
56.4687
54.6111
48.5105
50.4249
44.1909
46.5193
52.18
40.7792
45.4473
38.5346
41.4918
34.9806
37.865
38.6612
35.3688
36.7505
33.1823
33.6611
31.2978
35.9819
34.7214
33.3863
32.6187
31.8855
30.7649
29.916
35.9194
33.1726
33.0665
31.7656
31.5595
29.8524
29.8068
35.6016
33.0914
33.0017
31.4912
31.2179
29.7815
29.5123
34.8627
32.8584
32.2726
31.0796
30.6935
29.3591
28.7781
34.2784
32.0768
30.9487
30.5271
29.9701
28.5908
27.8284
71.0091
84.0084
75.2463
58.2708
49.4099
61.9834
54.0824
43.3887
68.7544
50.0845
45.509
36.2109
50.4651
41.9352
36.4788
47.5698
46.5405
34.6233
32.0198
40.8096
39.564
33.7257
46.4458
42.9817
31.3495
30.7411
39.1168
48.8685
32.9139
41.1145
36.0753
30.8668
30.8719
48.6986
44.5751
32.7336
34.9538
32.552
30.7483
30.1053
42.4717
37.5841
32.0719
32.0208
31.0058
29.8344
28.9621
36.292
32.795
30.9295
30.8333
30.3455
28.7108
27.8782
31.7601
29.6543
66.7903
82.897
83.1044
56.758
51.6332
64.4515
62.2395
51.4734
80.563
67.1731
49.3036
44.107
60.296
53.5941
51.4704
63.3638
56.8365
43.524
43.1678
51.7142
48.1874
50.0266
55.9784
55.352
42.7135
52.1407
47.5236
45.5452
38.1137
54.8977
46.4795
51.6328
45.9264
44.0584
37.0599
32.5439
43.3047
36.3732
42.9991
36.2202
34.926
30.3539
30.0619
34.5275
30.2565
34.9015
31.9872
29.2561
26.9077
29.5707
29.3814
27.6936
31.1568
29.527
26.4415
25.6672
97.6946
94.8275
91.5275
73.2825
68.5396
67.8571
63.0853
70.6619
84.3828
61.8474
65.7631
55.2538
59.7999
48.9563
56.5424
57.1003
50.145
52.6001
47.8419
46.371
42.2642
53.3097
48.7778
46.4435
46.8929
44.5841
41.4206
39.4402
46.9363
45.9631
44.7657
43.3856
37.7035
38.8895
36.985
38.2551
44.2423
41.9231
35.8095
31.2424
36.2501
33.5125
31.5143
40.9567
37.1815
30.0416
27.3094
32.5439
29.7001
28.1073
35.7466
31.6425
26.7293
25.5992
28.8421
26.6115
46.4365
47.9796
42.1923
49.093
43.6369
44.8482
40.0514
37.4883
39.843
34.3884
41.5578
37.4726
38.5606
35.4975
33.0011
33.2684
31.1873
36.6385
35.0671
34.8783
33.5447
31.8579
30.7028
30.0495
34.7849
34.2047
33.171
32.7799
31.4592
30.0329
30.0006
34.0448
33.6827
32.7899
32.7458
31.0826
29.9539
29.6257
33.5705
33.2295
32.701
32.5842
30.5517
29.4702
28.9133
33.1044
32.7576
32.5501
32.373
29.8016
28.7401
28.0646
32.6024
32.0927
32.3188
32.188
45.7358
57.1339
50.011
46.2939
41.0295
48.7319
43.9841
35.3235
47.0967
40.5853
39.3767
35.8901
42.5401
39.6025
31.7287
39.6756
38.3346
35.2138
33.6118
39.0183
37.3298
33.3789
30.8009
32.4859
31.3483
32.7407
31.1902
32.5947
40.5635
31.6107
37.1516
32.3457
37.4379
32.5351
40.2629
30.4258
53.4753
42.5013
34.0209
33.37
60.021
45.0488
29.1834
40.0435
34.4716
33.2192
32.8058
42.5396
37.9968
28.1388
33.0672
30.4239
32.7132
32.4862
37.0065
35.456
48.8441
60.2354
57.858
48.2674
44.6821
52.8752
50.6932
42.7891
56.2124
50.9227
43.6301
41.494
49.7602
46.9652
41.691
49.43
46.4033
41.0174
39.3718
46.0886
43.5518
49.7883
61.1028
44.0037
45.6147
46.6541
251.207
42.6898
50.037
73.8244
47.5186
204.144
45.118
188.82
52.423
41.0227
33.7867
29.9434
64.5667
44.75
33.8503
32.2159
33.9507
29.0534
27.2088
42.2248
38.1207
32.017
31.9742
30.4362
26.8647
26.2305
37.2757
35.8956
32.1138
32.7194
62.242
61.7199
57.9452
55.0682
52.2252
52.5593
49.6361
52.1522
55.2751
46.698
51.114
47.5131
48.1286
43.5655
46.1323
44.6005
41.1085
46.425
43.5829
42.3791
40.1281
42.6004
40.3583
38.3345
42.6441
39.5758
39.5014
37.4353
36.0853
37.732
35.7057
38.421
34.9662
36.8158
35.0134
30.5257
34.964
32.3163
34.0322
32.2719
34.4266
32.6322
27.3862
31.4391
29.0139
31.978
31.6657
32.1503
31.1892
26.126
28.3376
26.6068
31.705
32.2633
31.0008
30.6969
43.708
44.7796
40.502
51.6812
47.2565
47.8278
45.8921
38.4156
39.2821
36.9213
46.0687
44.6803
45.542
45.3446
36.6054
36.4615
35.3455
44.7075
44.5748
45.4163
44.9522
35.8134
34.985
34.5603
44.3922
44.0726
44.6333
44.2954
35.3187
34.558
34.5367
44.0555
43.9613
44.3486
44.7591
34.8843
34.5385
34.717
43.8456
43.7361
45.0479
46.244
34.513
34.7759
34.8215
43.7596
43.8591
46.4542
46.7932
33.847
34.8228
34.7039
43.8462
43.565
46.8557
46.7863
41.1136
47.4742
43.6679
47.5691
46.0945
48.2822
47.6492
37.2236
42.5847
40.3993
45.823
45.6405
47.5415
47.3541
35.2914
39.8863
37.9951
45.6456
44.6656
47.0624
45.2622
35.2132
38.1717
58.3732
44.291
44.1357
44.8029
47.2437
35.6179
58.7056
53.547
44.2992
44.7652
47.7663
47.7347
35.3631
50.8158
43.5916
45.0618
46.8282
47.6468
49.3732
35.3388
42.2741
39.7948
47.1906
47.5613
50.0148
50.3241
35.0853
39.2104
38.0387
47.6074
47.3723
50.2195
49.6191
44.5784
51.8175
49.9882
48.9505
48.5761
53.0593
52.5844
42.096
49.2255
46.9045
48.5219
48.3113
52.2492
51.0267
39.6992
46.1355
43.6363
47.9834
46.0669
50.5762
48.4889
63.0137
42.6734
39.7973
45.4673
47.5053
47.7091
45.8441
56.9837
38.7421
35.8237
47.9178
47.8208
45.4475
44.9178
43.428
35.1355
34.4524
47.6675
49.4377
45.1184
47.542
40.0105
34.5672
35.2755
50.1647
50.6761
48.2165
49.2675
38.5073
35.5722
36.1215
50.6312
50.0773
49.4491
49.5948
51.1356
51.1666
48.7861
54.1944
53.2087
52.3448
50.3636
47.3278
47.4451
43.605
52.7231
51.1041
49.3578
47.1946
43.7537
42.6235
40.6942
50.6007
48.6851
46.8474
45.9068
39.8352
40.0976
38.1191
47.9501
46.2024
45.4662
44.5331
36.0111
37.5612
36.0619
45.8404
45.42
44.4903
44.4261
34.4662
35.5764
34.212
45.6338
47.3473
44.3422
44.4952
34.8057
33.8957
33.4965
47.8051
48.7168
44.7131
45.463
35.6019
33.4552
33.2905
48.8972
49.1573
45.5496
45.5902
49.6829
50.2779
49.275
64.1131
60.8601
61.7382
63.4427
48.0786
49.2171
49.6521
60.4437
62.4609
63.6335
65.094
48.3467
49.8559
49.7359
63.0319
62.21
65.4838
68.0414
47.932
49.5333
49.493
61.8404
62.2449
68.8444
70.3276
47.8746
49.6253
50.1472
62.3483
61.6695
70.4694
69.6942
47.6819
50.3614
51.084
61.4424
61.5441
68.98
66.8316
47.8705
51.2079
51.3993
61.5789
61.4372
66.5337
66.0843
47.2659
51.4374
50.8184
61.4206
60.141
66.0512
64.597
49.525
50.201
50.8596
60.228
64.0143
59.9061
65.1364
50.0004
51.0343
51.3777
64.2889
65.6095
65.5913
67.2418
49.5758
51.2077
49.9321
66.2415
70.1771
68.6459
74.6554
49.396
49.5661
50.9173
71.336
73.3363
76.2303
79.7619
50.2861
51.4448
51.9356
73.5544
72.6878
80.3489
79.6139
51.8386
52.1556
54.3154
71.7518
68.4698
78.0805
72.7024
52.1886
54.7279
54.7005
67.8159
66.9963
71.3506
69.4162
51.4104
54.5533
53.357
66.9084
65.2001
69.1092
66.8694
51.6858
55.1264
55.2374
60.3318
65.6448
64.9415
67.7248
52.0897
55.021
54.0994
66.1063
67.6363
67.6463
67.6379
50.4773
53.7537
52.1403
68.9913
74.7505
67.9235
71.0503
50.9431
51.5722
50.4743
76.237
79.6201
72.0312
73.7536
51.8981
50.3711
50.6423
80.3351
80.1708
74.1317
74.2905
54.4837
51.1238
53.0778
78.621
73.1924
73.6058
70.8966
55.0871
53.5556
54.1714
71.8304
69.8925
70.3174
69.6398
53.8158
54.2541
53.7127
69.6046
67.4831
69.5415
67.938
55.7533
54.5551
52.2644
66.2191
67.6718
64.6173
60.1078
54.0364
51.3647
49.7662
67.3046
66.9589
59.784
60.7731
52.1976
49.6355
48.965
66.8899
68.633
61.5924
60.2584
50.7292
48.5969
48.1887
69.3026
70.7268
60.2189
61.8178
50.9717
48.3259
48.604
71.0922
71.4225
62.5767
62.6896
52.6808
48.582
49.0583
71.0356
69.5552
62.9152
64.2357
53.6459
49.3292
50.0467
69.3989
69.1264
64.6842
64.7458
53.3158
50.0887
49.6158
69.0823
67.7983
64.8625
63.4617
36.1492
30.8501
36.136
31.9551
34.1341
31.3958
39.0285
45.2443
35.2958
53.697
42.5465
38.3612
35.5602
183.652
65.7983
51.7135
68.8242
205.846
46.5265
74.9881
229.698
34.007
32.0187
33.0856
33.9157
31.9476
33.0635
34.5419
37.0027
32.8348
33.2962
39.0116
32.2055
39.8906
36.6852
46.4544
43.1823
35.7447
59.9669
35.706
190.237
40.3412
66.6152
208.455
56.8708
80.6589
75.0136
233.81
50.937
40.4896
31.6106
36.8114
32.3974
37.3608
32.5392
39.1739
74.1391
53.1593
68.1698
189.71
52.9994
75.3857
173.318
71.7584
49.5715
64.3831
88.9515
52.388
60.6295
118.329
41.3617
33.2369
34.3667
40.0597
33.431
41.0707
40.3607
41.2635
33.2827
34.3653
39.5384
33.4314
39.9591
40.2376
73.569
191.333
58.0321
81.6342
74.8077
176.323
57.7436
71.1786
91.7968
52.9856
75.6376
60.8698
122.326
56.7739
53.849
74.1422
48.6669
218.973
48.7466
235.049
53.9459
43.67
45.2692
45.0591
44.2187
45.1152
43.6582
43.4835
43.5189
44.0432
44.3355
41.532
44.8305
42.8205
42.6452
49.3953
45.8713
68.7992
40.8797
241.84
41.6182
44.3397
53.9326
217.439
95.7733
48.9994
235.364
54.1438
48.2333
42.4662
43.1633
41.8815
41.703
42.4887
42.3284
41.564
42.3431
40.3086
40.7983
40.7677
41.7256
41.422
41.3716
46.7762
74.3192
40.6364
120.831
42.9568
175.428
44.5826
39.4268
42.3844
39.7806
40.0467
40.207
41.2971
38.2856
37.4811
35.868
37.6368
34.746
37.9386
35.7482
36.4528
50.9436
202.356
97.0082
48.5353
187.984
52.9943
47.2876
47.8018
118.75
93.3202
43.8179
166.023
45.8579
45.722
38.8732
38.9397
39.7522
37.1891
40.4247
37.4113
38.5188
37.2656
34.4823
36.1538
35.9346
35.8591
35.8791
37.2773
156.555
176.876
159.898
102.425
94.8756
102.322
91.2391
132.86
148.879
140.495
84.3203
72.9012
84.9307
75.6365
134.704
138.932
139.845
64.9696
58.5903
66.5739
57.9745
144.479
142.198
144.235
55.2457
55.1767
54.0122
52.7597
147.212
144.446
143.692
55.3077
55.3874
52.4903
52.3213
147.537
141.029
137.912
55.5875
56.0471
52.0584
51.3357
146.053
134.236
131.059
56.696
57.2788
50.753
49.8185
137.779
127.797
112.276
58.805
57.8506
49.4339
41.6527
149.767
166.026
154.539
93.7383
81.2677
94.629
81.6312
114.309
236.771
236.349
144.799
136.389
135.683
215.337
86.7858
223.084
205.717
100.433
97.5616
88.7751
206.506
76.5802
214.779
208.638
84.9584
80.8717
79.0366
208.729
73.3904
220.116
211.465
72.099
72.0223
73.4191
213.084
73.8823
224.352
219.409
73.0167
73.3301
73.7327
219.164
72.6426
214.211
213.091
73.1319
72.8078
73.2955
209.926
69.6274
201.545
200.943
71.1819
70.545
70.392
198.1
66.1102
186.877
189.256
68.2676
68.1793
67.1376
185.379
102.562
111.637
95.3424
43.3563
41.7897
38.9767
33.6787
205.734
234.657
212.672
132.64
113.998
130.693
112.187
161.13
290.984
332.783
186.047
159.962
187.072
294.629
104.328
237.971
243.414
114.995
102.011
117.44
236.57
72.4373
196.332
202.178
75.4316
72.0036
76.3722
192.661
68.2339
186.255
180.757
68.4425
67.8565
68.6019
180.2
65.2671
183.02
176.997
66.3362
65.7382
66.6874
174.752
62.3183
181.984
170.195
65.3496
65.316
62.9127
169.887
61.5155
177.887
168.625
64.7145
64.418
61.6729
168.539
61.1404
173.272
167.542
63.441
63.0503
61.2526
166.836
95.1737
99.2588
88.9939
38.3455
32.8905
37.6841
32.5409
166.23
181.168
163.863
106.968
87.6877
110.701
97.3039
122.483
253.03
248.276
151.05
134.959
146.605
216.497
94.9319
222.789
197.525
108.751
100.566
99.1638
199.035
91.063
191.759
213.147
84.1697
83.8599
90.5205
219.282
98.5651
179.871
220.49
88.5986
88.7861
97.4641
215.205
89.7689
171.857
180.463
82.2687
77.7469
96.0402
177.629
70.1122
151.543
167.195
67.6587
64.8749
73.8031
157.734
58.8195
137.752
139.134
57.9123
56.0281
61.0835
136.189
53.371
133.53
130.054
52.7633
52.5796
54.0898
128.153
76.9919
83.6623
70.4242
34.9099
31.2724
34.5536
29.4671
211.205
240.661
214.616
143.955
124.695
144.262
124.085
172.256
312.833
350.316
195.886
175.956
194.993
314.167
120.353
230.255
237.025
133.378
121.604
131.855
223.524
99.2229
235.601
229.376
99.8189
97.7867
100.996
234.91
92.018
250.659
247.986
95.4074
94.5026
93.427
248.653
86.5565
211.809
227.148
92.8077
91.6099
87.2909
213.709
80.4444
196.608
201.313
82.9727
81.0359
81.5826
199.436
72.4747
157.485
175.252
72.3801
68.3165
76.4779
165.835
60.7533
142.623
150.991
60.6793
58.7693
63.116
148.192
78.5221
93.9632
84.6189
35.4881
29.9692
37.9557
31.2969
144.442
171.151
145.333
101.117
88.1909
96.8846
81.5924
143.091
146.049
154.09
76.7239
68.8106
73.3497
72.9967
143.229
152.384
147.129
64.2251
61.7348
71.0583
66.6641
135.76
139.77
135.807
59.1739
57.4901
62.9656
61.7641
126.918
127.067
120.452
56.2022
55.6748
58.0578
55.3297
118
113.461
108.424