/*--------------------------------*- C++ -*----------------------------------*\
  =========                 |
  \\      /  F ield         | OpenFOAM: The Open Source CFD Toolbox
   \\    /   O peration     | Website:  https://openfoam.org
    \\  /    A nd           | Version:  10
     \\/     M anipulation  |
\*---------------------------------------------------------------------------*/
FoamFile
{
    format      ascii;
    class       volScalarField;
    location    "7.3";
    object      p;
}
// * * * * * * * * * * * * * * * * * * * * * * * * * * * * * * * * * * * * * //

dimensions      [0 2 -2 0 0 0 0];

internalField   nonuniform List<scalar> 
12920
(
679953
572885
526647
529192
449587
435809
380434
360965
321552
297279
263910
238006
208440
182097
154628
128255
101390
75559.8
48626.4
20881.6
952075
651551
536869
522597
452827
435936
383304
362407
322153
297078
263718
237574
208101
181845
154388
127885
101162
75399.4
48705.7
20877.8
621745
639701
521173
511121
442965
429460
380664
359545
321273
295770
263297
236852
207682
181336
154179
127816
101166
75442.8
48740.4
21000.2
679593
703036
561228
524528
456802
433818
384988
360123
322278
295506
263133
236131
207206
180821
153871
127564
100954
75352.9
48866
21214.7
531371
670819
537551
530215
454309
436710
382921
357108
321109
294366
262766
235504
206541
180100
153425
127211
100804
75410.7
48913
21237.7
839999
686392
563253
535428
460550
437138
388154
358097
322765
293533
262936
235098
207404
181280
154063
127601
101023
75431.1
49004.8
21436.8
660069
599458
498032
499213
443921
429682
387138
358197
322734
293653
262209
234328
205799
179236
152489
126171
100315
75271.6
48930.3
21575.7
397261
528482
477016
489218
443274
425453
396625
361811
330195
300022
270034
241030
212670
185564
151173
125384
99609.9
74675.8
48754
21726.8
27354
387740
439606
480913
436931
426750
397683
366376
333647
302967
273183
244099
215745
188351
157071
123966
98808.7
74198
48605
21906.2
597228
602096
544663
523729
446170
429293
396866
364404
331201
300776
271337
242994
214753
186631
155740
123220
98062.6
73774.4
48458.3
21977.6
807383
706301
529162
524298
444555
429565
391736
358053
327705
296748
267399
239680
212680
184865
154023
121831
97257.3
73284.8
48365.3
22180.8
882237
735261
533138
514319
430622
418388
385575
351239
320924
291270
262733
235269
208860
182651
152044
120440
96445
72942.9
48224
22415.2
558421
657710
483202
479236
406640
394879
364882
336970
308059
280878
254276
228430
202401
176571
144958
120329
96030.3
72626.1
48107.9
22607.6
619449
590605
424280
433293
376546
370287
335050
317361
287912
267515
241634
219602
194125
170844
145503
121067
96101.6
72664.7
48143.7
22855.9
540587
622227
403095
420823
356250
354336
320383
306684
281385
261134
237310
215923
191861
169146
144894
120918
96169
72765.6
48347
23068.8
240485
414161
337892
375843
325389
331456
302892
295466
271344
255945
232755
213593
190384
168697
144728
121378
96552.5
73188.8
48677.2
23400.3
246322
360545
308852
356088
306098
315605
290552
285954
263496
250752
229419
211083
188880
167694
144351
121217
96764.3
73554.9
49028.7
23705.6
120395
245209
253380
313791
284722
300492
279631
277900
257341
246586
225743
208906
186987
166618
143558
120941
96969.2
74047
49555.8
24004
-18024.9
210819
256688
298168
276078
291595
272695
272618
252769
243127
222678
206550
185029
165074
142424
120169
96657.8
74014.9
49783.6
24285.8
659541
389845
300424
307075
275638
289815
270721
270172
251484
241463
221532
205414
184153
164348
141914
119796
96523.5
74076.5
49907.6
24603.2
617879
564757
530395
527626
448252
435430
380698
361313
321463
297250
263828
237958
208386
182058
154583
128207
101324
75442.5
48601.2
20891.1
735735
603052
529476
519836
452902
435446
382964
362197
322002
296954
263607
237469
208042
181780
154342
127878
101140
75349.1
48702.4
20872.4
436654
621838
519944
511461
444021
430667
380328
359315
321128
295653
263182
236739
207605
181316
154132
127787
101174
75400.5
48686
20894
739376
707873
559003
525027
456032
432888
385026
360145
322196
295409
263023
235962
207111
180783
153835
127524
100941
75347.9
48782.4
21053.6
617048
676475
531612
530334
453292
435719
383706
358155
321251
294427
262639
235349
206374
180277
153338
127149
100745
75350.5
48763.4
21090.5
729099
679642
560419
535544
460545
437110
388488
357934
322690
293470
262800
235135
207918
181297
154210
127680
101090
75381.6
48862.9
21296.1
677129
593832
492281
498841
443696
430801
386263
357658
322497
293362
262130
234494
205725
179325
152520
126173
100269
75147
48825.7
21473.4
581885
546463
480285
491569
443917
426099
395985
361705
329974
299934
270029
241132
212666
185566
151265
125351
99564.7
74607.7
48665.6
21628.5
212943
411810
445313
482025
437988
427464
397638
366646
333557
302997
273328
244245
215804
188195
156948
123980
98772
74132.9
48511.1
21787.3
647368
601005
540341
524104
445508
429342
396613
364384
331379
300791
271357
242931
214704
186552
155637
123235
98032.4
73727.3
48369.7
21832.6
702924
707226
529651
525499
442323
428399
391709
357862
327807
296648
267373
239674
212606
184853
154034
121922
97269
73256.2
48292.1
22064.3
955205
756530
528687
514057
428580
417730
385098
351470
320934
291271
262888
235482
208965
182696
151939
120589
96457.7
72910
48141.1
22296.6
528241
643949
477980
479713
405637
395508
364796
336576
307887
280773
254097
228085
202329
176705
144900
120167
96003.3
72573.9
48003.7
22482.7
457082
581153
417860
431886
375538
370223
334804
316997
287849
267444
241477
219680
194077
170770
145360
120970
96033.1
72578.9
48007.1
22721.9
406201
629468
393256
420374
355374
354038
320101
306237
281057
261032
237377
215911
191828
169152
144925
120947
96092.4
72655.8
48189.8
22903.2
160691
385327
329092
377516
323905
331386
302636
295490
271231
255852
232715
213556
190358
168674
144725
121320
96517.3
73104.8
48491
23184.6
332977
336860
310854
355035
305999
315410
290386
285771
263445
250656
229261
210959
188710
167497
144225
121171
96771.3
73510.8
48861.1
23494.3
250511
252959
258977
314625
284204
300290
279589
277839
257312
246610
225742
208949
187034
166643
143594
120989
97019.9
74056.5
49494.4
23904.2
762.821
223584
259142
297190
276225
291533
272663
272655
252752
243158
222692
206569
185037
165090
142449
120199
96668.7
73998.9
49736.6
24175.5
547519
388327
301072
305759
275606
289908
270553
270286
251414
241475
221524
205426
184188
164354
141935
119816
96534.1
74074
49895.6
24572.8
526061
543304
527436
524217
447903
434539
380702
361271
321320
297141
263685
237887
208310
182042
154578
128186
101346
75496.5
48670.4
20858.1
581132
569220
524123
518017
452499
435376
382848
361891
321802
296720
263395
237283
207901
181683
154307
127922
101209
75387.8
48655.5
20660.6
515896
591005
525301
513592
444444
430199
379985
358992
320932
295428
262958
236502
207409
181194
154053
127808
101200
75366.8
48556.8
20550.1
753086
694713
557855
522780
455604
432270
385197
360205
322197
295328
262936
235812
206973
180677
153738
127523
100957
75345.9
48562.9
20544.8
798123
670959
535409
528249
452464
435137
384268
358898
321447
294505
262589
235421
206593
180566
153259
127070
100776
75277.3
48515.3
20685.2
796092
680872
562630
535590
460267
436937
388533
357906
322693
293384
262601
235934
208352
181388
154380
127788
101069
75305.8
48588.5
20913.6
458156
566082
484737
498388
443546
431889
386118
357663
322177
293438
262078
234586
205923
179449
152662
126273
100235
74999.4
48592.3
21174.3
599633
538355
483346
493839
445465
426555
394962
361653
329563
299795
269993
241163
212654
185618
151230
125319
99472.2
74497.8
48454.4
21294.9
294766
428871
451431
484027
437759
427890
397714
366756
333322
303027
273528
244431
215653
188129
156817
123862
98694.6
74004.3
48296.4
21348.1
601458
604603
538437
524291
445687
429108
396517
363915
331500
300829
271356
242823
214572
186485
155551
123167
97995.5
73645.2
48191
21499.4
698597
693100
527077
526459
440559
427123
391398
357382
327513
295880
267256
239737
212537
184859
154073
121972
97255.8
73199.6
48126.8
21753.5
875336
713321
521073
515200
427385
417195
385886
351576
320924
291482
263326
235880
209206
182766
151965
120658
96460.3
72844.3
47943
21954.3
518715
637792
476833
478834
404943
395210
364851
335965
307342
280349
253764
227934
202324
176648
144843
120151
95972.4
72484.1
47765.3
22100.8
541864
578773
414197
430893
374395
370387
334486
316675
287742
267381
241301
219598
194051
170697
145177
120867
95954.6
72442.2
47705.9
22155.5
433905
590573
390788
420839
354596
354058
319829
306048
280553
260836
237106
215725
191663
169075
144946
120979
96010.8
72499.8
47816.7
22301
276127
388935
332900
378649
323067
331265
302405
295139
271005
255710
232802
213542
190335
168635
144708
121289
96532.2
72984
48087.6
22573.4
197835
322343
312147
353762
306689
315194
290315
285471
263369
250608
228998
210920
188605
167445
144175
121172
96816.3
73475.2
48527.5
22896.7
188820
245189
260773
314414
284200
300202
279435
277676
257332
246483
225699
208809
186976
166577
143571
120981
97030.4
74041.4
49357
23597
234156
251971
264931
296977
276903
291428
272823
272662
252878
243221
222781
206662
185113
165166
142510
120253
96680.4
73980.3
49648.8
23957.6
377695
392844
297292
304623
276313
289964
270332
270319
251368
241552
221563
205484
184252
164409
141978
119865
96558.3
74061
49858
24487.4
519550
544259
526417
523520
447848
433698
380179
360992
321101
296876
263494
237744
208205
181961
154527
128163
101349
75458.5
48613.3
20775.7
496324
533263
517349
515787
451772
433842
382538
361586
321606
296354
263158
237021
207727
181577
154241
127936
101245
75364.4
48551.3
20330
470781
559159
530543
515521
444502
429536
379843
358744
320757
295130
262682
236202
207189
181035
153989
127824
101243
75351.2
48308.2
19766.9
532936
674432
552387
522427
455611
432574
385236
360058
322146
295099
262759
235701
206796
180517
153666
127526
100992
75317.9
48172.4
19530.7
674285
659513
532542
527067
451802
434846
384442
359196
321528
294503
262483
235899
206918
180870
153317
127065
100786
75248.2
48192
19724.8
623209
632858
553478
532349
459756
436521
388544
357983
322668
293379
262496
236224
208542
181438
154418
127843
101080
75247.6
48283.4
19984.4
370233
530947
477432
496735
443607
432186
386185
358276
321957
293863
262405
234693
206044
179548
152685
126236
100109
74843.7
48291.6
20263
634288
549880
485217
495094
445577
426590
393411
361706
329126
299651
269917
241193
212743
185653
151240
125252
99349.1
74345.1
48138.5
20380.1
321949
440462
461106
485165
438278
427878
398124
366563
332998
302986
273489
244389
215350
188061
156712
123783
98601
73821.6
47966.3
20470.6
531109
592575
532373
523966
445436
428420
396209
363477
331515
300854
271367
242723
214430
186436
155545
123122
97936.9
73537.9
47922.9
20798.9
644893
698522
526570
527273
439793
425981
390635
357511
327442
297010
267683
239790
212492
184898
154129
122013
97257
73131.5
47825.1
21005.1
850697
726447
516833
512923
426354
416506
385358
351669
321151
291847
263707
236344
209517
182835
152098
120689
96449.1
72755
47622.1
21110.3
436286
631426
476949
477760
404301
394868
364806
334956
306869
279804
253657
227892
202338
176549
144891
120204
95939.3
72361
47389.8
21019.8
449988
558326
408744
428496
373134
370346
334170
316419
287575
267253
241068
219417
193964
170599
145064
120861
95890.9
72284.3
47253
21033.5
281168
573433
384955
421454
353989
354153
319567
305821
280012
260652
236581
215488
191378
168986
144911
120965
96036.7
72372.5
47272.5
21132.9
161086
347865
329061
377341
321758
330898
302025
294709
270732
255586
232786
213519
190272
168622
144689
121284
96575.1
72942.4
47541.7
21394.5
167905
301359
309309
350736
307216
314450
289836
285082
263196
250332
228979
210831
188609
167439
144176
121182
96855.7
73413.7
48120.8
21731.4
240079
253781
266711
314285
284204
300016
279075
277494
257376
246379
225471
208711
186920
166560
143565
120996
97030.9
73998.2
49091.3
22745.8
253355
262920
268996
296981
277482
291419
273071
272773
253086
243310
222822
206718
185170
165232
142565
120310
96702.3
73969.1
49547.1
23584.1
518370
408906
303098
306236
277247
290032
270398
270481
251365
241621
221574
205526
184265
164427
141978
119865
96547.9
74030.2
49824.6
24373.7
417037
529694
523658
522158
447801
433699
379439
360265
320981
296577
263391
237639
208130
181935
154500
128145
101354
75481
48632.1
20626.8
393611
515274
512469
513929
451257
431709
382459
361097
321543
295892
263016
236748
207631
181491
154225
127965
101280
75398.7
48510.5
19679.2
323633
528796
532587
517888
444134
428811
379898
358787
320706
295108
262474
236043
207010
180856
153942
127846
101282
75390.6
48158.8
18908.7
470312
651361
549546
524033
455357
433000
385359
359857
322175
295049
262677
235990
206778
180531
153607
127531
101037
75283.6
47980.1
18537.7
656584
654402
529914
528647
451844
434533
384558
358859
321558
294348
262413
236125
207229
181102
153454
127129
100803
75219.2
47998.8
18706.9
550846
617382
559336
531788
459779
436390
388676
358777
322784
293790
262805
236134
208662
181484
154431
127855
101085
75254.3
48108
19082
385316
513926
472739
496530
444425
432014
386201
358806
321768
294045
262619
234745
206083
179642
152717
126232
100050
74762.3
48104.5
19415
556410
544429
488519
495330
445535
426709
393263
361413
328804
299278
269858
241143
212498
185611
151038
125216
99253.4
74251.3
47914.1
19532
274811
446263
466002
485492
438658
427328
398847
366259
332928
302835
273193
244196
215295
188003
156682
123632
98528.5
73703
47765.7
19639.2
519429
594097
531491
525170
446233
428191
395847
363310
331566
300867
271363
242720
214418
186520
155546
122971
97880.4
73468.3
47731.2
20017.5
777228
696089
530238
529026
440433
425173
390091
357746
327568
297340
268138
240088
212592
184939
154139
121938
97264.6
73122.6
47671.7
20143.8
732782
704086
515813
513344
427111
415231
384285
351433
321080
291924
263975
236571
209692
182928
152190
120502
96421.3
72718.3
47433.3
20158.5
533143
637591
479361
477483
404998
394577
364524
334415
306811
279398
253682
227857
202429
176469
144755
120396
95900.4
72258.1
47133.7
20011.2
323715
549066
411027
426900
373071
370202
334212
316126
287628
267208
241082
219286
193919
170515
145092
120876
95850.8
72160.6
46952.5
19970.2
469213
604129
389782
423677
354243
354398
319650
305898
279895
260478
236247
215357
191178
168915
144842
120947
96146.9
72392.9
46983.2
19994.8
110978
346727
324822
377109
322651
330345
301768
294203
270662
255490
232842
213509
190257
168618
144667
121276
96608
72915.5
47253.6
20247.5
139480
303950
309971
349953
307391
314079
289373
284467
262928
250073
228935
210725
188593
167433
144151
121159
96842.8
73354.1
47888.3
20554.2
207724
246195
267621
315079
284574
299750
278398
277100
257251
246224
225343
208618
186939
166567
143592
121022
97045
73973.3
48918.3
21717.9
215616
265250
271983
299493
278447
291245
273419
272769
253232
243347
222861
206766
185222
165282
142604
120349
96716
73970.1
49515.3
23265.6
691686
415399
300431
306878
278060
289987
270523
270571
251372
241698
221594
205579
184285
164460
141987
119878
96540.5
74015.2
49812
24259.4
278621
296612
275524
300852
278653
296680
275711
249911
268436
248585
271357
249844
268646
248471
274250
292904
271300
296027
274691
293332
271830
247416
264178
243522
267717
247346
264729
243940
375206
396715
372832
397672
375492
397000
372798
341952
365202
340586
366563
342319
364875
340583
310857
332384
309158
333594
310804
332408
309183
280823
301584
279335
302969
280912
301596
279369
251422
272035
250574
273260
251572
272053
250574
223030
243431
222221
244180
223185
243429
222219
195521
215060
194060
215796
195486
215019
193951
167643
187024
166457
188186
167484
186956
166341
372524
393732
367891
396926
372257
393773
367715
339259
359960
336478
364472
339442
359799
336482
308290
328709
305411
331330
308320
328699
305392
278572
297813
275695
300787
278589
297780
275689
250016
268522
247520
271352
249996
268521
247522
221910
240644
220229
242948
221876
240621
220170
193598
213433
192251
214728
193512
213343
192236
166059
185220
164842
186574
165952
185225
164798
365869
386203
361407
391804
365757
386092
360877
334878
353848
330743
357934
334986
353562
330740
304431
323029
300194
327850
304361
323020
300159
274580
292727
270925
296685
274543
292700
270924
246498
263793
242912
267390
246516
263778
243115
219410
236255
216487
239680
219380
236404
216543
191992
209874
190063
212628
191965
209914
190081
164335
183413
163331
184855
164307
183421
163240
359319
375166
353456
385265
359462
375525
353374
328477
346173
322480
351428
328531
345855
322456
298603
315120
293691
320941
298588
314961
293570
269791
286904
266391
291259
269867
286774
266352
242209
259630
239470
262836
242250
259454
239407
215474
232593
212996
235415
215559
232582
212993
189255
206252
187125
208928
189295
206214
187136
162723
180511
161491
182680
162755
180436
161417
375607
397063
372805
397792
375860
397372
372762
342357
364838
340567
366775
342380
364696
340498
310812
332416
309194
333395
310762
332408
309217
281022
301603
279390
303008
281321
301618
279452
251687
272067
250579
273475
252003
272105
250586
223218
243429
222207
244389
223170
243410
222122
195485
215001
193902
215715
195465
214912
193783
167527
186927
166351
188142
167393
186851
166209
372067
393593
367631
396710
371696
393890
367401
339467
359719
336440
364039
339500
359476
336345
308327
328689
305383
331485
308365
328610
305386
278598
297754
275671
300817
278617
297674
275613
249988
268507
247514
271361
249939
268460
247317
221852
240599
220144
242857
221736
240486
220076
193488
213311
192230
214610
193440
213218
192236
165962
185229
164834
186499
165794
185282
164792
365692
386018
360844
391778
365384
386614
360956
335032
353533
330716
357499
335104
353479
330609
304322
323000
300154
327584
304248
322919
300199
274513
292706
270934
296651
274409
292808
271156
246513
263803
243185
267332
246372
264038
243415
219365
236464
216571
239682
219340
236676
216694
191934
209935
190088
212551
191822
210029
190103
164328
183418
163204
184856
164291
183381
163053
359462
375312
353347
386050
359486
375698
353023
328538
345645
322426
351547
328527
344995
322219
298585
314822
293499
320910
298664
314504
293444
269928
286672
266279
291387
270203
286477
266115
242305
259283
239390
263188
242578
259046
239483
215603
232578
213010
235759
215786
232620
213103
189317
206250
187152
209128
189413
206389
187280
162789
180434
161455
182749
162719
180596
161442
375903
397340
372738
398144
375897
397452
372687
342324
364645
340446
366647
342099
364510
340304
310781
332390
309219
333067
310773
332310
309213
281454
301621
279468
302992
281556
301629
279508
252129
272112
250583
273528
252282
272121
250549
223135
243394
222081
244415
222998
243321
221963
195458
214866
193758
215400
195377
214748
193755
167448
186835
166241
188073
167335
186795
166105
371623
393539
367311
396419
371438
393353
367029
339497
359392
336323
363564
339472
359236
336307
308378
328586
305408
331512
308392
328578
305457
292305
293394
299783
300837
292344
293409
299757
263308
264170
270426
271355
263326
264160
270395
221687
240450
220053
242734
221556
240437
219970
193432
213184
192236
214458
193413
213076
192239
165848
185296
164856
186434
165713
185327
164791
365207
386650
360955
390949
364912
386802
360988
335078
353415
330573
357446
335002
353289
330538
304255
322903
300257
327411
304332
322986
300624
288480
288242
295651
295067
288231
286909
295804
259212
260453
266192
267552
259154
260900
266281
219340
236774
216751
239797
219340
237143
216970
191799
210076
190105
212496
191794
210252
190129
164351
183365
163097
184885
164315
183374
163094
359506
375339
352831
385699
359528
375464
352339
328534
344806
322100
351683
328651
344404
321749
298741
314405
293413
321109
299038
314132
293309
270340
286370
266045
291779
270624
286202
266044
242697
258986
239519
263632
243083
258953
239555
215870
232628
213115
236245
216144
232665
213188
189448
206413
187333
209447
189531
206474
187509
162774
180631
161552
182812
162767
180696
161688
375793
397317
372684
398923
375585
397182
372707
342019
364477
340274
366316
341863
364409
340227
310804
332285
309207
332892
310877
332259
309196
281476
301629
279513
302842
281195
301598
279448
252269
272118
250529
273261
252193
272042
250462
222962
243292
221930
244256
222910
243211
221846
195361
214725
193763
215292
195326
214704
193801
167427
186780
166197
188037
167431
186817
166093
371386
393064
366974
396050
371291
392667
366963
339464
359234
336322
363334
339456
359334
336386
308392
328620
305505
331556
308423
328746
305769
278667
297902
275750
300865
278678
298118
276010
249842
268619
247427
271371
249856
268838
247690
221529
240474
219959
242718
221491
240677
220000
193417
213058
192245
214409
193455
213083
192270
165849
185336
164883
186502
165749
185369
164773
364924
386518
361011
390306
365117
386090
361082
335020
353302
330551
357678
335099
353394
330627
304428
323029
300722
327553
304802
323153
300938
274762
293419
271926
297241
275174
293647
272159
246570
264854
244091
268000
246927
265117
244379
219346
237268
217043
239994
219442
237532
217218
191799
210321
190147
212567
191817
210449
190215
164421
183394
163219
184932
164351
183479
163173
359501
375501
352217
384659
359314
376513
351983
328671
344255
321615
351548
328666
343890
321212
299082
314075
293277
321140
299085
314017
293367
270690
286146
266051
291935
270893
286127
265981
243166
258950
239534
263932
243345
259119
239616
216225
232669
213220
236523
216379
232670
213350
189555
206487
187522
209658
189632
206542
187506
162861
180703
161877
182912
162812
180707
161802
375534
396942
372688
399288
375580
396961
372614
341859
364389
340219
366152
342011
364386
340223
310996
332257
309200
333143
311174
332270
309201
281124
301577
279399
302734
281159
301548
279306
252170
272000
250442
273034
252199
271938
250407
222917
243189
221841
244003
223027
243162
221858
195328
214710
193817
215209
195414
214725
193852
167698
186833
166242
187818
167953
186856
166009
371267
392322
366990
396015
371239
392259
367081
339455
359374
336392
363306
339451
359435
336404
308443
328761
305856
331589
308477
328768
305929
278669
298250
276122
300878
278647
298380
276325
249863
268937
247769
271354
249872
269112
247888
221489
240761
220035
242721
221506
240875
220090
193472
213103
192281
214435
193495
213141
192291
165931
185380
164911
186545
165758
185398
164706
365197
385799
361044
390300
365374
385871
360962
335119
353368
330645
357868
335173
353296
330612
304872
323153
300938
327606
304929
323130
300952
275328
293690
272234
297433
275461
293688
272315
247035
265188
244433
268281
247144
265277
244507
219485
237579
217263
240188
219535
237648
217339
191822
210487
190242
212614
191840
210542
190268
164506
183500
163309
184952
164319
183502
163089
359176
376373
351915
384213
359039
376537
351774
328618
343783
321080
351319
328567
343464
321138
299088
313979
293384
321085
299170
313922
293381
270933
286075
265925
291983
270946
285812
266001
243404
259142
239648
263979
243465
258994
239757
216421
232645
213375
236646
216487
232527
213447
189653
206537
187529
209743
189681
206472
187708
162964
180692
161956
182940
162755
180570
161722
284848
285943
277643
278632
284900
285958
277611
291823
299041
289817
296158
291684
299035
290167
284195
276770
282507
275697
284106
276840
282337
292314
300845
293432
299789
293425
299754
292363
284842
278642
285989
277644
285977
277600
284909
291864
296061
299069
289831
299029
290268
291709
284192
275526
276794
282671
276825
282152
284134
256221
257001
249244
249881
256235
256979
249242
262396
269543
261610
268631
262391
269573
262056
255063
248146
254911
249034
255163
248063
255043
263284
271353
264150
270406
264151
270376
263294
256190
249857
256955
249187
256959
249213
256181
262362
268521
269560
261809
269542
261936
262399
255006
249082
248071
255111
247991
255011
255152
280761
281156
273328
274426
280601
281098
273429
286865
294102
285677
293031
286764
294157
285843
279657
272317
278449
271485
279485
272504
278641
288693
295100
288401
295964
286918
295934
288669
280946
274237
281543
273751
280807
273581
281037
287036
293190
294488
286152
294286
286036
287259
279842
271681
272866
278960
272695
278840
280032
252041
253807
245336
248363
252048
255324
245300
258445
265224
257199
264355
258279
265401
257345
251640
244704
250280
243655
251436
244897
250414
259322
267352
260892
266578
260759
266412
259499
252103
248655
254248
245527
255043
245388
252316
258602
264549
265734
257696
265579
257514
258740
251784
243800
245098
250736
245054
250564
251863
379599
395723
383084
396672
379496
396028
383093
347106
364652
349026
361771
347032
364504
348787
315360
329969
315455
330115
315290
329858
315422
285316
299475
285697
299959
285331
299430
285785
255392
269462
255671
269997
255444
269440
255735
226840
240077
226843
241021
226838
240050
226986
199200
211430
199004
212618
199211
211459
199178
172731
184338
171667
185448
172339
184343
171573
408688
426277
409085
427260
408872
426289
409117
390869
390983
398613
397553
390996
398623
390847
357726
357989
365584
366404
358039
365645
357603
326367
326395
333525
333642
326408
333513
326349
295528
295485
302597
302958
295474
302591
295517
266011
265771
272849
273186
265786
272851
265987
237319
236929
243860
244107
236960
243868
237283
209010
208953
215312
215765
208994
215291
209031
181306
181542
187634
188279
181541
187633
181364
143952
156045
143919
156995
143878
155999
143864
406537
429042
407657
429549
406908
429179
407391
387004
387980
395016
396674
387809
395105
386956
356052
356240
364019
364490
356367
363948
356083
322545
323504
330374
331235
323521
330398
322524
292434
293344
299849
300781
293347
299850
292433
263350
264175
270473
271341
264177
270477
263348
235384
236001
242315
242980
235982
242306
235401
207224
207642
214404
214756
207631
214395
207226
179297
179732
186178
186614
179719
186167
179307
142963
155079
142293
155719
142916
155061
142253
403179
423803
400055
429418
403266
424137
400294
381147
382324
390762
391666
382317
390670
381125
348124
350306
355869
358029
350272
355866
348113
318815
320191
326820
327752
320140
326778
318839
288001
289229
295507
296740
289228
295503
288011
259154
260337
266197
267404
260345
266201
259144
231871
232899
238579
239682
232900
238588
231864
205071
205894
211781
212669
205880
211779
205077
177639
177875
184657
184867
177886
184636
177648
141387
153277
140724
154026
141358
153212
140701
397453
415166
391559
418204
397447
414902
391838
374560
376018
383605
385448
376069
383471
374409
341331
343543
349145
351306
343587
349212
341300
311497
313432
318795
320932
313435
318804
311492
282627
284026
289695
291260
284022
289679
282641
255032
255872
261643
262750
255894
261654
255004
227777
228621
234472
235309
228668
234462
227766
201361
202347
207741
208874
202359
207756
201344
175342
176088
181775
182659
176092
181778
175339
140512
151698
139270
152002
140543
151695
139280
353468
360822
346621
365115
353557
360846
346652
324142
332596
317450
336853
324031
332702
317373
294584
303999
290109
307985
294535
304032
290204
268253
278123
264634
280816
268270
278169
264653
242126
252244
239385
254227
242174
252197
239279
216460
227436
214403
228283
216418
227354
214377
190777
201561
189364
202345
190846
201668
189356
164973
176878
163806
176629
165012
176850
163746
379073
395696
382843
396109
378974
396081
382689
346892
364169
348504
361658
346762
363813
348182
315182
329653
315335
329764
315025
329401
315250
285525
299339
285941
299817
285517
299243
286127
255695
269433
255874
269988
255886
269427
256052
226904
240038
227108
241144
226836
240021
227086
199310
211458
199242
212561
199313
211400
199136
172406
184340
171747
185593
172116
184348
171587
409087
426624
409248
428021
409285
427207
409372
391055
391125
398709
397697
391018
391169
398768
358180
358517
365868
366724
358093
358675
365923
326352
326333
333394
333513
326368
326287
333339
295706
295558
302601
302993
295651
295583
302610
266271
266024
272947
273370
266196
266101
272991
237524
237211
243955
244294
237482
237282
243985
208910
208958
215176
215782
208946
208929
215123
181081
181353
187492
188175
181133
181255
187456
143945
155922
143942
156868
143758
155837
143806
406934
428882
407129
429841
406956
429221
406847
387008
387656
395321
396789
387025
387665
395607
355490
356299
363425
364278
355704
356171
363268
322691
323608
330509
331423
322656
323638
330540
292419
293354
299849
300798
292429
293358
299839
263351
264187
270477
271361
263352
264189
270473
235276
235921
242250
242911
235307
235897
242227
207188
207562
214337
214676
207210
207534
214304
179249
179651
186142
186531
179263
179625
186134
142981
155027
142330
155571
142795
155003
142200
402672
423892
400113
428271
402091
424162
400190
380718
382237
390237
391838
380940
382239
390061
348108
350073
355791
357772
348071
349947
355692
318607
319944
326567
327741
318663
319881
326496
287945
289156
295461
296605
287946
289102
295453
259136
260340
266163
267356
259144
260340
266149
231913
232894
238619
239674
231899
232896
238631
205021
205807
211755
212585
205034
205780
211748
177535
177899
184510
184856
177551
177901
184457
141432
153194
140827
154044
141332
153249
140809
397414
414003
391384
418395
397530
415491
391272
374788
375777
383670
385602
374827
375948
383988
341495
343749
349329
351507
341465
343765
349356
311455
313428
318765
320924
311468
313423
318736
282696
284087
289643
291285
282656
284126
289649
255174
256002
261740
262959
255125
256071
261793
227976
228841
234555
235560
227908
228908
234610
201530
202438
207865
209009
201470
202477
207926
175400
176121
181813
182715
175374
176131
181840
140673
151780
139470
151933
140585
151842
139424
353406
360325
346586
365129
353244
360365
346563
323822
333063
317336
336314
323573
332972
317178
294609
303878
290232
307697
294576
303839
290359
268335
278245
264674
280637
268362
278318
264712
242137
252078
239310
253846
242036
252050
239282
216439
227204
214283
227991
216456
226996
214171
190904
201704
189264
202323
190889
201663
189133
165190
176773
163771
176710
165189
176660
163620
378581
395402
382107
394704
378670
395751
381600
346604
363382
347843
361612
346318
362969
347549
314944
329113
315152
329322
314852
328844
315077
285349