/*--------------------------------*- C++ -*----------------------------------*\
  =========                 |
  \\      /  F ield         | OpenFOAM: The Open Source CFD Toolbox
   \\    /   O peration     | Website:  https://openfoam.org
    \\  /    A nd           | Version:  10
     \\/     M anipulation  |
\*---------------------------------------------------------------------------*/
FoamFile
{
    format      ascii;
    class       surfaceScalarField;
    location    "7.3";
    object      phi;
}
// * * * * * * * * * * * * * * * * * * * * * * * * * * * * * * * * * * * * * //

dimensions      [0 3 -1 0 0 0 0];

internalField   nonuniform List<scalar> 
38556
(
718.469
-97.8444
-1533.15
919.266
328.562
-529.36
1115.93
313.72
-510.384
1162.01
261.665
-307.741
1063.38
122.308
-23.6852
1067.39
103.717
-107.724
1029.3
9.70568
28.3834
1062.91
16.0823
-49.6886
1102.39
-37.0564
-2.42718
1155.13
-21.9331
-30.8012
1204.66
-33.3011
-16.2345
1263.77
-22.8736
-36.2348
1321.34
-24.076
-33.4906
1386.07
-26.292
-38.4408
1486.66
-40.1236
-60.4705
1646.16
-61.0265
-98.467
1809.6
-62.8731
-100.568
1910.6
-53.6578
-47.3402
1899.85
-31.0109
41.7557
-8.93088
49.0006
1607.27
872.557
13.9476
1037.18
882.372
16.2777
1284.7
702.408
-636.204
1267.99
487.825
-209.456
1179.65
221.562
-10.9097
1166.06
182.235
-64.931
1116.31
-11.4454
70.8999
1131.92
-28.1655
28.6404
1144.38
-124.327
74.8068
1173.75
-116.325
65.0258
1196.42
-138.278
82.3046
1221.3
-122.215
74.4589
1247.43
-124.119
73.9206
1297.01
-122.656
46.7824
1358.71
-134.981
33.1573
1419.77
-143.552
21.4652
1454.11
-125.342
28.1265
1448.82
-86.5322
38.1684
1352.84
-20.3639
85.3349
14.4508
63.5245
706.733
322.983
68.0721
923.489
319.167
346.448
960.477
222.919
442.501
1133.13
158.748
156.425
1175.74
-22.7689
201.716
1241.03
46.9286
70.0195
1249.99
-111.249
90.8395
1284.59
-94.5641
31.808
1279.13
-172.511
53.6388
1281.29
-162.807
44.3267
1255.57
-178.91
66.3499
1223.77
-151.505
61.0869
1174.36
-135.763
61.055
1133.6
-123.629
41.7327
1108.26
-132.507
22.8606
1097.29
-131.306
-1.27469
1090.03
-104.326
-13.7523
1074.84
-48.9046
-22.44
1038.98
23.2246
-7.72131
47.0449
-4.77001
569.908
-352.695
567.66
917.814
-506.919
478.18
1166.22
-319.756
294.269
1207.26
-69.6917
187.405
1246.93
-83.9974
21.556
1277.37
56.1626
-39.6804
1275.32
-75.8785
-33.3175
1298.54
-62.3373
-55.4496
1303.84
-159.817
-17.9861
1318.61
-160.619
-16.9658
1312.74
-185.872
12.8299
1283.88
-154.842
32.203
1196.71
-109.317
60.7223
1111.03
-84.5336
46.5818
1049.67
-96.8378
25.6929
1002.21
-89.1754
5.32926
961.212
-54.5078
-8.81886
924.071
-8.40666
-3.35715
895.312
44.5118
7.47152
61.1921
1.26296
1409.66
-1253.71
-3311.15
1716.55
-1114.57
300.763
1455.34
-889.57
831.023
1447.87
-299.383
237.162
1327.88
-149.461
185.456
1325.19
90.2819
-31.4329
1304.74
-6.87833
-48.5486
1333.38
17.1054
-108.083
1348.44
-107.577
-67.3015
1360.55
-117.129
-55.5987
1358.75
-168.161
-15.9079
1337.11
-124.851
-8.35443
1243.15
-57.4591
42.0978
1124.47
-5.03907
39.1843
1026.43
-29.0681
30.2717
961.881
-44.8888
20.2655
923.522
-27.5532
11.4047
894.983
16.3877
3.74415
875.49
63.4222
0.58273
74.5357
-4.23113
2276.94
-519.825
-891.197
2540.24
-826.053
-551.814
2375.88
-666.605
-58.6072
2291.86
-254.22
38.8551
1945.6
-27.387
224.187
1823.86
141.109
70.9068
1763.59
29.5816
23.8105
1740.92
49.6431
-9.86431
1684.73
-78.8414
27.4517
1598.4
-67.5262
36.7309
1499.16
-108.798
39.8821
1439.4
-61.4174
-3.6829
1388.34
-12.8465
6.45191
1303.68
44.2784
35.3419
1165.08
51.4036
58.126
1036.57
29.2135
54.4153
958.476
19.9711
30.565
920.826
40.5305
13.5069
912.042
71.5953
0.611177
77.7209
-4.09581
1851.34
-1094.33
-333.756
2061.04
-871.575
-164.181
1873.76
-504.408
25.0892
1786.75
-132.699
-34.5146
1559.6
70.3291
129.431
1452.82
173.202
74.6889
1328.29
13.7041
150.205
-9.95902
12.4851
-12.3192
1252.06
-15.5356
137.788
6.43065
-12.313
9.50172
1202.21
-29.5828
105.247
-41.5329
-27.2375
-35.8812
1198.07
-37.4801
43.3946
-22.8959
-30.3328
-16.0738
1204.4
-31.5794
-10.8112
-27.5286
-24.5311
-20.676
1247.81
-23.7541
-46.5203
-13.7463
-16.4107
-4.40304
1343.73
-17.2162
-67.7171
-11.6969
-10.1101
-2.01911
1435.89
-8.13142
-57.6947
8.55621
-1.38887
10.7738
1456.05
62.4795
-31.2404
1376.68
82.3004
26.2836
1205.43
99.4876
91.7364
1068.67
100.485
76.8042
1014.6
95.8218
29.8472
80.1627
11.3299
3005.8
-106.403
-1485.23
2619.43
-357.745
-127.466
1977.02
-66.0696
204.077
1719.9
25.4716
98.9452
1547.55
102.624
140.056
363.65
33.8464
48.5127
364.173
358.74
355.199
85.9705
36.1173
74.5411
344.466
23.1772
9.71179
-312.729
283.078
-1.43956
15.5549
-265.13
244.758
-19.1961
9.98505
-230.5
233.098
-39.5165
-0.561418
-240.115
245.164
-30.6631
-5.96524
-247.552
254.401
-21.1231
-9.47919
-260.861
268.345
-14.0662
-10.6345
-273.593
282.631
-7.76587
-9.40269
1083.85
12.7697
-35.9599
-283.489
-254.212
-270.601
-242.048
20.2889
12.5926
19.2883
1060.33
94.9912
10.8264
1010.31
118.662
30.8438
976.129
114.042
20.6287
965.626
94.7454
11.5794
69.4336
9.63127
735.792
1682.41
-1790.33
768.538
528.266
-918.757
830.173
231.539
-359.243
846.547
66.1318
-57.0351
168.187
96.4425
167.887
149.776
191.421
175.458
174.486
22.2625
5.28482
-12.1062
-51.1832
47.5411
13.7602
1.98803
-45.538
-5.14161
46.9809
3.929
-0.230318
-51.1085
2.14862
51.312
-3.28521
0.933085
-52.0036
8.85771
52.44
-8.94691
-0.347197
-54.973
6.77109
55.6442
-6.44599
-0.996375
-56.8583
3.87556
57.4268
-3.36753
-1.0766
-58.5378
2.15316
58.7495
-1.45543
-0.909379
-59.157
0.545959
59.3207
-0.120801
-0.588854
-59.4199
234.548
13.659
-1.05249
-59.2017
-58.3141
-57.4496
898.433
99.9801
-1.58697
-230.776
-228.006
-223.928
-219.125
899.914
111.877
5.30411
907.972
105.813
0.170761
926.363
83.3085
-6.95352
57.1218
-2.69269
2471.31
1932.33
-3256.99
1787.76
996.486
215.329
1403.6
483.94
131.759
1334.33
161.19
-25.7839
290.52
107.142
125.386
301.384
300.495
305.846
-22.3009
295.455
21.1082
-3.74254
-6.48402
-73.1081
72.5998
7.02342
-0.0311674
0.690137
-68.5939
64.721
4.50033
-1.31752
3.32036
-54.8989
53.1825
-1.2509
-0.353052
7.35907
-50.9237
50.6858
-6.99414
-0.127072
5.58815
-51.0783
51.7333
-6.16416
-0.0789734
1.58506
-54.3366
55.2486
-2.22571
-0.271375
-0.678517
-57.5272
57.9747
0.593457
-0.362452
-2.08751
-58.8622
58.955
2.25267
-0.258039
-58.7931
-17.6012
231.791
19.4542
-0.773311
-58.9686
-57.2997
-57.8093
933.281
86.3506
5.35171
-231.365
-238.552
-222.821
-232.264
938.643
109.088
-2.57321
946.045
109.615
-11.2043
958.992
90.7685
-20.4065
67.1162
-18.3296
2287.29
388.834
3743.99
1944.66
587.04
752.071
1540.81
445.24
442.559
1418.09
244.32
39.5894
212.175
225.801
342.674
228.889
252.094
263.597
-24.6577
193.256
35.2397
8.33663
-10.4332
-51.9235
53.4431
8.42633
0.487188
-13.888
-58.9163
60.1069
11.8737
0.82373
-3.78727
-62.4561
64.7321
0.570808
0.940415
6.17917
-69.4967
69.0996
-7.63219
1.85015
7.5463
-62.1823
59.8859
-6.81762
1.56776
5.02031
-56.3551
55.9343
-5.71803
1.1185
1.61683
-55.8438
56.1377
-2.65352
0.742846
-1.44867
-57.8987
58.7228
0.3765
0.248088
-60.7877
-16.427
245.781
7.51125
2.81316
-59.5065
-60.1469
-59.2378
1014.8
38.1399
13.0903
-250.644
-244.494
-244.244
-240.294
1041.83
77.2866
4.76345
1059.89
96.5817
-5.02125
1064.7
96.952
-10.9937
83.3785
-13.8503
2509.27
6.10881
-60.41
2468.01
738.468
-110.167
1680.03
688.449
544.764
1577.55
424.408
-77.6092
329.765
338.915
92.2774
337.944
349.539
354.913
-31.3645
335.687
16.6253
8.81677
0.411922
-89.2553
91.5033
-2.56447
-0.0954073
3.89951
-92.4549
91.1461
-1.92024
-0.670435
9.2662
-87.0661
85.8618
-7.52805
-0.533908
11.139
-81.9651
81.0704
-9.8283
-0.416024
3.62551
-80.1711
78.9888
-2.88481
0.441598
0.987612
-73.676
71.3247
0.955619
0.408103
4.08416
-63.9088
61.8852
-3.07223
1.01174
2.67123
-58.808
58.3479
-3.06074
0.84963
-58.195
3.29734
229.885
-7.16091
5.41138
-58.2308
-57.6215
-57.3856
936.364
4.03194
-2.10782
-231.394
-222.72
-227.723
-218.312
987.568
32.7712
-6.68892
1027.82
62.6933
-6.36098
1043.46
88.4466
-7.13903
90.4697
-7.83347
1103.54
-1325.77
-2015.98
1460.63
358.086
23.2944
1197.19
540.034
411.847
1231.44
352.274
37.8896
1094.48
239.128
236.748
247.748
47.6062
41.0445
-10.2092
32.5699
-29.5126
21.3168
253.121
243.709
247.084
2.29094
220.377
17.3612
6.74192
-2.86328
3.26784
0.572466
-6.75543
-195.39
189.883
21.3271
7.84449
-6.31539
-5.12943
-5.46458
2.52138
-213.44
224.447
-24.584
1.04668
3.71853
2.72174
3.56874
5.6062
-221.378
222.43
-22.3335
-1.60874
6.49505
5.04187
5.74727
4.1257
-235.373
244.224
-18.8142
-3.07227
3.13676
3.34235
2.43026
-0.0566924
-250.254
252.86
-4.98113
1.03941
0.95587
-0.37857
0.814854
0.659319
-259.008
255.708
-1.80155
1.72557
1.18168
0.460917
1.07445
1.58174
-251.511
238.043
1.35106
5.03934
2.31334
1.20508
1.97827
806.828
16.0402
-2.24312
4.56254
8.13497
-0.840343
1.77953
-224.067
-204.145
-209.87
-196.179
806.329
11.4308
-6.89991
831.773
23.6769
-16.3498
874.751
36.7501
-17.0347
907.885
67.3938
-12.0808
83.4862
-8.49726
596.174
-275.24
1097.47
802.863
-136.706
288.103
997.835
148.673
196.389
1206.1
89.5684
54.4374
1238.06
125.21
81.9596
1250.5
51.2292
-16.06
1175.44
174.208
59.2491
-26.4751
-51.403
-28.5349
-51.9813
1092.97
9.07096
25.5073
-10.7543
35.6687
-7.22475
30.1949
974.691
44.3559
40.0366
19.5142
4.74143
13.2027
-3.5686
904.364
-56.9706
21.6485
22.6233
35.1165
17.6502
30.2589
856.936
3.14147
11.3059
16.3067
5.73233
10.8863
0.0552661
821.635
-15.3528
10.8243
8.89621
13.9507
5.10003
11.8825
791.06
27.3811
12.8233
-1.63076
-1.69626
-3.51403
-2.78774
773.931
12.9935
10.8294
-4.03353
0.474884
-3.99972
0.864018
760.939
22.7401
6.29224
754.066
18.3613
-0.058202
759.05
23.598
-4.90516
775.966
25.6203
-5.78577
805.784
44.3561
-6.7802
63.6022
-4.21014
2435.42
1033.29
2055.09
1725.52
323.559
249.632
1096.33
260.614
517.251
1112.73
84.2774
-11.1146
1054.44
153.489
30.0186
1069.94
70.0836
-34.3581
989.795
188.727
65.6263
869.858
98.0585
30.9498
766.615
102.491
45.1076
710.954
-5.15689
3.84728
705.315
5.43426
3.3458
710.207
-19.0394
-1.20536
718.932
14.806
3.84996
722.017
8.86397
1.04531
724.677
18.8325
1.24766
727.156
15.3438
0.538642
730.043
18.8854
1.8255
735.199
20.7859
-0.322057
748.841
31.6192
-0.904749
44.2415
3.48682
2884.28
-493.132
-3470.73
2339.05
438.012
430.779
1210.36
218.905
1170.39
1011.89
25.4846
257.272
969.925
87.9465
107.503
1033.72
52.8912
-46.6012
1042.72
156.721
22.9999
1021.77
117.953
1.05893
918.299
136.398
69.5653
820.244
57.0843
35.8145
757.189
32.8578
35.6313
732.704
-5.59282
11.0386
727.691
11.1138
8.70518
727.807
6.63205
2.11552
729.536
15.1828
1.92112
731.172
13.3317
0.37598
732.876
15.9134
1.26809
736.298
17.9001
-0.537264
744.689
23.2595
-0.0310475
31.1307
2.51868
-811.905
-1834.57
-2418.08
-35.3171
170.132
-508.708
641.928
60.5364
-518.876
777.703
47.9627
-158.253
904.331
117.797
-156.478
982.803
80.9083
-106.49
1003.92
145.458
-9.85323
1018.26
108.264
-4.65347
977.911
133.034
43.7155
921.568
95.727
17.6995
831.64
75.474
47.3117
758.883
41.3116
25.8525
727.013
33.6957
9.28859
711.082
22.7502
-0.187851
707.839
20.3638
-1.93773
707.76
16.712
-3.301
711.25
15.0647
-2.64168
717.613
15.2113
-3.67411
727.339
15.6733
-2.14004
20.7963
-0.687509
-702.503
-1293.69
-180.097
385.93
-146.817
-771.484
852.108
-166.277
-239.364
950.634
16.6187
-67.1824
973.768
110.887
-16.2241
993.157
123.923
-62.4037
980.237
156.793
1.58441
978.573
134.963
-25.0357
939.994
146.212
25.401
900.299
125.506
9.91576
844.717
116.219
14.8379
801.093
91.7662
-6.83113
777.097
69.605
-11.9128
766.015
50.7544
-16.9225
763.162
36.9811
-13.7639
763.199
28.9732
-12.2983
764.497
23.1051
-9.33869
767.641
20.8694
-8.8022
774.038
17.3832
-8.10645
20.3164
-7.1407
-269.589
-2097.12
391.994
513.84
-143.124
-787.122
896.086
-32.1813
-516.342
919.477
64.6338
-71.4058
845.208
137.247
47.9082
808.803
163.199
-2.86984
794.912
130.122
40.5619
810.351
121.209
-1.68502
837.861
106.909
11.7927
850.418
124.678
-11.7284
855.544
122.207
-11.1137
854.258
119.267
-26.2156
853.428
103.316
-32.8809
852.196
90.1561
-38.1696
851.529
73.9978
-36.3494
850.389
61.6155
-31.502
849.568
46.4728
-22.5471
850.139
38.3072
-18.0091
852.534
32.0709
-17.0824
34.2554
-18.1411
499.641
187.597
1122.39
-765.877
1410.91
-320.699
1548.65
-73.1096
1519.21
166.687
1503.77
178.646
1351.45
282.437
1239.3
233.356
1130.8
215.411
1094.17
161.313
1087.09
129.285
1107.68
98.6802
1133.24
77.7503
1170.21
53.1879
1207.43
36.7744
1242.96
26.0881
1263.93
25.5058
1269.47
32.7637
1258.08
43.4589
43.5978
966.447
-88.7878
-3279.51
564.245
300.244
-427.402
788.617
126.669
-861.425
662.434
156.894
-338.452
754.734
24.4654
-140.45
759.094
37.6729
-149.758
840.775
-81.9096
28.6123
894.846
-49.1526
-54.6071
967.75
-93.2397
17.9079
1027.09
-73.805
-16.3387
1084.26
-86.0667
12.6653
1139.44
-78.2065
-13.2133
1193.33
-80.6218
-6.75325
1252.13
-81.3568
-15.881
1309.2
-89.4895
-28.0564
1379.16
-102.84
-65.5889
1468.48
-102.434
-87.4507
1556.44
-93.5518
-41.7482
1575.86
-53.8658
76.2017
-27.7754
99.4234
127.969
1550.68
-249.709
559.494
317.615
-432.619
803.586
115.858
-869.485
776.004
100.884
-125.865
882.308
-95.3547
2.60591
881.875
8.35016
-35.1753
928.139
-144.42
87.1467
958.939
-78.5129
27.2011
993.63
-137.861
84.7368
1022.56
-98.3227
60.6144
1047.62
-112.902
84.0799
1070.96
-94.3741
67.287
1095.87
-100.867
69.2522
1129.49
-100.221
32.0302
1164.81
-104.491
12.8335
1192.03
-101.215
-7.3752
1197.24
-78.347
-1.17095
1177.55
-50.8107
15.1201
1119
3.25484
86.763
25.5024
56.2034
-672.762
1231.65
-3103.25
304.495
-69.5319
-243.662
735.18
-6.43346
134.108
888.226
-9.90916
114.173
992.427
-171.161
173.322
1036.1
-24.428
59.1239
1040.41
-150.931
93.0427
1056.47
-82.9592
20.1945
1051.9
-142.136
62.4856
1051.65
-98.5272
44.7773
1037.97
-107.598
74.7263
1019.39
-76.1629
61.4593
996.782
-81.6091
64.4007
977.522
-79.2461
40.017
963.186
-87.6049
20.3102
952.837
-82.5273
-9.61333
934.29
-52.2477
-21.3045
907.155
-15.7904
-30.3248
882.202
30.3442
-9.85783
42.482
-8.20812
380.449
1088.79
739.642
597.254
-280.713
472.556
1188.74
-181.509
-122.145
1191.12
8.83494
166.283
1128.59
-92.3218
5.25035
1088.93
28.0722
-52.5259
1044.87
-120.338
-19.8421
1034.46
-68.6015
-59.399
1026.2
-144.149
-7.71832
1026
-101.333
-13.9525
1016.67
-107.932
22.493
996.778
-59.3876
35.3154
962.161
-47.4913
61.222
923.735
-40.3528
46.114
887.884
-53.5536
27.4924
856.45
-47.4346
1.67037
826.936
-20.4745
-11.0773
803.544
9.902
-5.65859
791.028
43.0505
7.28147
50.5688
-1.71159
338.968
-814.417
-4065.15
243.166
-636.352
752.203
1006.39
-680.998
567.292
1056.83
-93.1073
288.663
1057.33
-125.403
218.039
1046.02
48.3586
-40.4076
1032.13
-125.202
-29.8056
1034.3
-78.08
-100.767
1031.74
-158.861
-50.0358
1031.18
-111.219
-45.1444
1019.08
-108.235
-3.50955
994.361
-41.2228
-1.79929
950.051
-1.16754
40.0844
898.23
15.5055
35.147
848.937
-7.76233
33.773
815.463
-15.4643
21.7692
795.961
-1.04795
11.48
781.33
25.3223
2.95443
771.752
53.0698
0.142084
56.5477
-6.57876
1551.48
-980.65
-2860.89
1614.5
-520.862
-730.317
1496.45
-469.537
-152.026
1498.18
-89.3399
33.3617
1379.07
-31.3449
249.235
1337.33
98.296
62.7143
1284.34
-98.1874
49.7843
1245.29
-41.1252
-7.77291
1209.09
-128.059
32.8573
1173.96
-68.3401
28.9795
1128.79
-61.4931
38.3072
1082.62
11.7171
-10.452
1040.79
34.9575
12.1543
989.36
63.616
38.6634
922.575
56.5781
60.5707
862.136
44.0028
55.3871
824.327
33.6813
33.6446
804.86
44.0696
14.2261
799.351
58.3618
0.828603
57.4298
-5.26962
1209.06
-1884.64
419.252
1380.64
-894.1
37.4821
1369.81
-463.323
29.7
1363.91
-126.971
9.01778
1227.55
29.917
204.532
1153.34
157.701
89.4928
1075.19
6.3722
159.851
-19.3441
4.701
-21.4181
1035.22
-9.7018
132.142
9.95469
-7.49852
11.7427
1015.04
-24.5179
103.478
-30.992
-22.7866
-27.8175
1010.26
-22.3156
27.1364
-6.19315
-18.37
-0.418697
1007.08
-16.1573
-19.2829
-12.1272
-13.0859
-8.47489
1019.5
-6.70868
-53.8486
6.79009
-3.04351
9.58585
1038.81
-0.351878
-70.0584
7.52611
0.981731
9.8361
1046.82
7.78904
-54.028
16.2421
9.58159
18.3287
1025.54
71.6209
-25.0031
975.453
79.3397
41.0318
918.42
84.4509
97.9995
882.314
82.7836
74.1958
864.942
75.2077
30.3737
61.9804
11.0741
1924.07
-1096.43
-2840.05
1664.09
-614.825
-146.757
1494.78
-170.826
80.883
1402.67
-6.92941
71.0116
1268.57
130.175
173.899
297.148
48.4416
62.9224
292.059
281.51
277.113
80.6394
52.2567
82.6973
-24.4759
281.231
23.9489
22.8162
-30.2196
-253.772
239.699
1.88893
32.7026
-16.2388
-234.381
224.458
-16.503
18.1467
1.70488
-216.538
218.246
-24.6104
-1.11764
10.6975
-222.064
223.239
-16.5768
-11.4529
16.5321
-222.642
226.57
-9.7381
-17.4297
18.407
-229.661
233.45
-3.98835
-18.5589
17.7816
-234.503
240.413
2.7822
-18.6847
867.832
13.9447
-23.7043
-236.242
-216.291
-218.034
-204.065
19.7738
13.4233
19.0243
857.984
79.2857
20.7284
845.576
92.8314
34.8713
839.829
87.5321
21.6273
840.002
73.6985
12.9156
59.3021
8.56233
1605.85
-175.407
-2494.26
1357.8
-261.742
-1023.79
838.543
144.317
-155.133
725.378
93.6643
-44.4645
182.065
160.527
178.917
163.077
179.377
159.477
-4.10928
194.705
38.8799
1.03129
-1.94968
-10.5076
-53.546
52.4169
11.7769
1.80949
-3.36021
-50.6712
-4.23813
50.0179
3.9427
4.30885
-3.03846
-50.3534
1.77749
50.1381
-1.80644
3.28264
0.882623
-49.559
5.38803
49.6951
-5.55745
-0.849304
2.86683
-50.3532
4.00259
50.6719
-4.16904
-3.01903
2.96984
-50.7005
2.33648
50.9668
-2.37136
-3.20123
2.57408
-51.4974
0.788234
51.7215
-0.797784
-2.78863
2.359
-51.8131
-0.789209
51.9655
0.830166
-2.55231
-51.9541
4.88789
205.644
13.0847
-5.29295
-51.4216
-50.7271
-50.276
794.444
76.6565
-0.123301
-203.136
-202.955
-192.982
-194.205
802.304
83.6629
6.6124
812.685
76.423
0.899145
823.668
60.5868
-4.82435
52.035
-2.95012
855.265
916.911
-634.772
651.017
305.689
-147.855
848.752
369.357
-291.015
808.572
170.791
-62.7304
216.146
177.707
85.0135
223.022
193.124
199.472
-4.41791
-36.7889
225.359
34.8518
-2.85745
-2.787
-10.4171
-58.2938
59.2345
10.0969
2.16641
-2.83635
-3.7883
-55.8259
53.9368
4.89487
3.61889
-0.204783
1.72684
-49.6353
48.7881
-1.14408
0.469217
-0.114312
5.09043
-47.5224
47.3801
-5.0616
0.227843
0.192767
4.14066
-47.9074
48.3202
-4.52704
-0.219207
0.627978
1.90657
-49.7728
50.2262
-2.31061
-0.677324
0.83116
-0.153908
-51.4186
51.73
-0.106651
-0.881998
0.614658
-1.92928
-52.239
52.3107
1.89346
-0.650624
-52.4546
0.764854
-14.5015
208.612
14.6849
-0.39617
-53.1381
-51.4395
-52.1324
843.186
70.2607
6.69721
-209.111
-218.439
-200.952
-209.634
847.167
79.9388
-2.83068
849.673
74.7548
-12.042
848.635
60.0004
-18.7815
52.6912
-17.4525
1382
-691.526
2433.13
1281.25
195.55
962.952
977.346
307.522
808.302
867.84
231.039
88.8473
189.88
258.744
385.728
197.752
174.831
181.286
-23.1889
-33.8965
190.626
40.9263
15.4136
1.13409
-7.88997
-49.1008
50.5231
6.57299
-1.23939
-3.62029
-8.6462
-53.7982
54.953
7.00293
4.1088
-2.39724
-0.529349
-58.1973
59.4847
-0.956767
2.59599
-4.30051
4.43386
-60.3457
59.5104
-4.23278
4.93476
-4.76698
5.38693
-55.5054
54.4117
-4.62314
5.09689
-3.00174
3.81524
-52.8832
52.8512
-3.85834
3.07688
-1.78844
1.43159
-53.4546
53.8048
-1.84918
1.85587
-0.838035
-1.12249
-55.261
55.7282
0.55857
0.934711
-56.8297
-4.69307
-12.8746
228.835
8.21338
5.54838
-56.4806
-56.0171
-55.7019
924.038
52.8216
10.7275
-231.378
-229.11
-222.837
-220.912
932.861
72.7443
3.13532
932.575
74.3678
-4.3481
916.572
72.0779
-7.06842
64.9139
-13.1911
2054.93
-609.15
-2887.02
1468.74
253.041
418.534
1295.61
399.19
626.226
1069.94
317.466
61.6272
232.831
291.734
252.93
235.65
201.458
206.361
-4.3578
-46.3698
254.533
33.8654
-4.84001
-4.8547
-4.0447
-72.1867
75.7353
1.90709
3.44374
-5.27793
0.398966
-77.3969
75.7435
-0.181382
6.71376
-2.39851
5.08586
-70.3539
69.169
-4.44878
2.94631
0.351486
3.96691
-66.6379
65.8612
-3.37536
-0.166286
-1.99854
0.063613
-63.5346
62.427
0.703712
2.33883
-2.3325
1.43335
-58.5344
57.1494
-0.422009
2.70624
-2.4605
1.92361
-54.3496
53.7585
-1.44961
2.57761
-1.94858
0.978553
-53.1777
53.2387
-1.10954
2.01859
-54.2086
-7.10058
-4.49612
214.732
3.69609
6.77463
-53.4491
-53.4066
-52.5416
861.975
25.9479
-4.36411
-217.382
-206.47
-210.053
-198.94
886.549
49.4761
-7.99402
897.659
61.5892
-4.69252
892.203
76.1126
-5.71806
73.0256
-9.3928
-60.7853
105.525
-2241.3
343.703
240.813
-368.965
704.85
331.026
118.863
722.774
278.506
58.925
799.857
183.816
267.583
189.03
-34.7716
69.1044
-12.8044
41.7876
-1.80673
45.7936
192.133
174.743
177.694
2.51359
-20.6295
177.03
14.0594
19.652
-2.67604
2.4004
-3.32008
-4.49142
-13.0632
-160.939
165.348
10.8885
13.6605
-3.61694
-4.44279
-3.34319
1.10544
-1.3134
-186.026
189.939
-8.16139
1.01326
1.5334
0.777949
1.13233
1.87158
3.21113
-186.258
187.667
-7.66134
-4.20683
2.34777
1.22384
1.80527
-0.338978
2.38751
-199.058
201.819
-2.80074
-0.824057
-0.0770892
-0.788226
-0.319431
-1.09813
-2.72794
-202.815
201.565
2.96068
3.18808
0.0970177
-1.1822
0.0127102
-0.480824
-3.16314
-205.742
201.963
3.85421
3.67797
0.323041
-0.601422
0.168575
-0.190099
-6.41954
-199.299
195.293
3.99712
5.64225
0.785951
-0.359741
0.550729
725.596
20.5615
-6.64315
-4.13333
-0.0889997
-6.20927
-1.99337
-193.432
-180.138
-183.517
-172.246
737.915
17.3269
-10.5981
757.589
30.6824
-17.2309
779.727
39.0869
-16.6699
793.868
61.5446
-11.6538
64.7034
-8.54265
585.327
1651.42
-2500.94
817.84
500.363
-203.96
769.557
356.697
219
888.27
143.534
70.6964
878.038
136.844
139.165
836.607
17.5255
-26.9268
795.846
174.509
84.265
-26.0409
-51.2033
-29.3313
-52.1889
751.583
-43.735
27.1017
7.62995
34.7474
10.933
33.0937
715.48
40.7363
46.951
7.02259
-8.10002
0.875247
-11.3458
696.358
-56.8751
23.1204
13.9318
25.7528
12.0714
22.7692
685.085
19.8182
14.3674
2.67789
-3.90683
-3.17525
-7.20199
677.22
-11.9684
13.8368
0.927815
9.28854
-1.36223
7.96663
672.538
25.863
13.1641
-5.20878
-4.23
-6.50087
-5.58231
672.476
6.939
10.3636
-3.90254
0.767669
-4.16422
0.887489
672.115
21.4291
5.78577
674.508
16.7061
-1.83006
684.197
21.3974
-5.30945
701.605
22.9053
-7.01179
722.873
39.7446
-6.24915
47.7119
-3.78349
1533.8
2122.88
-4675.01
882.941
1340.49
60.3612
834.245
568.952
353.692
825.142
198.696
-57.1739
720.599
200.873
70.5317
699.654
59.1608
-55.0479
694.646
170.732
74.4113
630.178
33.1413
18.5413
610.427
58.8802
46.7149
590.603
-35.2985
2.09484
602.609
0.790233
10.3672
611.368
-22.4151
0.482592
623.355
11.5453
6.18014
628.112
1.26883
1.95854
634.984
13.9937
1.8115
641.977
9.77327
0.477583
649.546
13.6762
1.97748
659.473
13.843
-1.18674
674.613
24.0181
-0.318549
31.6713
4.08551
-445.331
-1162.16
-4891.89
-295.457
288.601
1332.79
403.411
264.374
776.102
549.937
105.392
204.05
663.418
112.415
82.4809
695.03
39.8916
-58.9444
728.697
126.671
33.3953
721.94
45.2441
-4.28676
700.8
72.3289
77.2561
667.185
2.1633
31.9679
650.262
15.2496
38.0951
640.941
-13.1267
11.0712
642.515
7.34461
11.3318
644.052
-0.46025
2.30743
647.443
9.49314
3.03065
649.83
7.47831
0.284274
653.426
9.6625
1.68586
658.624
9.2019
-1.09395
668.591
13.6058
0.413675
19.7763
2.90834
-807.825
-2276.38
1124.52
-4.81294
-8.82988
-1014.29
557.733
148.477
-965.525
650.108
100.884
-246.121
677.854
122.765
-194.573
700.322
38.8125
-127.879
721.594
100.35
-4.8048
731.39
42.9816
-12.1869
724.482
71.3178
51.6341
696.34
33.0071
14.9985
675.662
35.3223
47.9169
653.549
17.8229
17.0158
645.12
17.3681
7.69375
638.818
10.3803
-4.72626
640.141
10.0814
-3.84914
642.141
7.54906
-5.37222
646.539
6.58562
-3.96225
652.364
5.85461
-6.15212
661.13
5.56249
-2.86285
10.2162
-1.8195
320.658
-1099.03
-1768.08
256.949
140.817
-857.422
647.777
-8.61773
-473.097
686.889
84.18
-89.5899
716.33
120.724
-43.6237
711.072
64.3207
-82.6542
725.315
84.8384
2.853
728.548
49.6224
-34.9094
737.137
63.9367
24.193
732.282
47.4983
0.27977
727.083
46.636
8.72314
717.239
33.8257
-12.9909
712.741
24.8357
-14.882
708.975
17.5552
-20.3312
708.281
12.3468
-15.3358
708.028
9.58813
-14.0843
708.85
6.96607
-10.541
711.412
6.26846
-11.7779
716.582
3.40008
-11.1144
5.98224
-9.79765
509.091
-1295.86
-410.596
708.248
-14.7455
-830.716
699.923
50.6921
-567.326
684.326
117.34
-88.9697
674.554
159.797
18.6072
643.662
129.064
-36.7209
682.092
77.1847
9.78533
710.17
57.5962
-37.7362
765.93
36.8032
-16.834
796.186
49.5509
-44.037
823.309
47.4866
-39.0868
836.774
50.6164
-56.4721
843.659
42.2875
-57.217
844.902
39.1596
-61.0168
843.123
30.6739
-52.8978
840.605
26.2841
-45.68
838.416
20.5607
-33.9525
838.491
17.8217
-29.6378
839.986
11.801
-26.9779
11.4185
-26.588
681.271
-213.483
972.276
-1071.63
1100.6
-398.331
1172.57
-27.7384
1240.5
258.548
1289.55
258.66
1246.74
402.438
1215.61
322.08
1166.03
301.791
1158.49
218.41
1162.43
172.825
1186.76
124.968
1210.6
96.2034
1239.56
63.3832
1260.27
46.7381
1274.72
37.9243
1281.79
38.9982
1285.65
46.7267
1285.16
55.7498
55.1053
117.987
-7.82087
-2160.24
418.895
-378.191
-350.118
531.37
-139.383
-834.518
465.546
-18.0073
-254.62
619.939
-140.6
-154.244
602.517
-48.6159
-83.7189
731.699
-142.31
41.7399
774.439
-69.1348
-28.2125
856.968
-103.57
38.9497
910.606
-71.3261
1.34907
969.424
-80.9599
34.8073
1017.99
-68.6447
6.86713
1065.64
-71.4433
17.0418
1115.8
-66.1585
0.114315
1159.66
-66.9824
-4.93757
1191.6
-68.6057
-28.9186
1213.22
-68.6053
-40.4698
1235.36
-58.4407
-5.44925
1251.42
-32.6194
92.7633
-8.95432
108.801
927.535
596.568
-532.155
826.984
-193.801
-516.457
642.419
-187.917
-636.386
607.699
-69.9371
-39.2148
721.521
-219.533
-32.2839
698.277
-59.7381
-0.8093
757.659
-181.978
67.4334
772.078
-72.1594
15.8061
814.629
-124.953
63.5694
837.702
-70.498
36.7131
868.844
-87.104
59.0824
893.539
-66.8941
40.841
921.512
-75.0866
44.9225
946.047
-73.1086
14.4448
964.909
-74.1707
1.15957
970.237
-67.2178
-14.0905
955.856
-46.6062
-8.78899
929.637
-21.0318
3.92962
911.449
18.0271
54.3047
29.5499
25.4581
81.7254
451.214
-893.921
502.433
-301.736
-556.434
654.136
-240.6
35.0883
744.059
-122.057
76.3695
809.046
-225.485
114.288
819.648
-41.9021
30.686
824.805
-164.424
70.332
825.186
-58.6441
6.29832
828.552
-114.737
48.9036
827.791
-53.3907
28.4313
829.306
-68.2565
54.3637
823.992
-39.6323
39.5115
821.503
-51.8904
43.6925
816.426
-51.0313
23.0171
810.525
-57.1352
9.17584
799.271
-51.876
-13.7009
778.379
-27.2685
-19.7506
755.179
-2.25477
-25.9017
743.293
28.203
-8.14715
35.2208
-9.21869
1313.93
541.682
2537.44
1227.42
-132.235
389.567
1085.66
-143.899
-77.0912
1035.69
-12.2836
106.486
928.83
-126.421
13.0419
871.114
6.58554
-43.2977
835.207
-145.235
-3.12303
814.223
-53.5661
-43.4935
810.449
-120.061
1.37972
803.555
-51.2163
-9.23295
799.023
-61.6424
20.4105
786.455
-15.3342
23.5857
775.405
-22.4451
42.8272
760.277
-19.0916
29.3018
744.097
-29.7181
16.255
724.301
-26.7094
-3.69956
702.479
-7.19411
-9.33028
687.054
13.7318
-6.21981
682.888
35.9188
3.73073
39.0623
-4.55216
237.762
90.4894
-277.026
201.801
-292.91
948.84
735.647
-493.843
383.39
764.528
2.36128
245.138
829.508
-150.853
177.492
812.145
17.5158
-33.9749
816.708
-170.662
-8.94158
809.233
-79.1427
-67.7157
809.026
-146.389
-23.501
803.888
-64.7534
-26.4696
794.178
-59.809
4.3675
772.084
8.88608
-3.92629
749.179
14.8398
25.7046
725.567
20.1261
19.5415
703.424
3.75444
22.4432
688.85
-3.19122
12.8254
680.428
5.8663
6.84171
673.44
23.0592
0.614418
669.097
41.2334
-0.829688
41.4825
-7.26137
2695.72
68.6978
938.33
1526.1
-200.792
347.194
1106.86
-298.339
71.7016
1060.83
29.6663
52.086
1015.44
-53.0745
196.851
994.421
70.0061
31.2438
974.461
-144.78
43.8629
934.232
-38.4177
-8.26964
913.015
-116.937
24.6231
891.746
-29.8452
15.3404
867.176
-23.3228
26.3911
834.07
36.723
-5.18312
800.831
47.3693
12.8631
769.419
62.0996
28.102
740.1
52.049
41.5959
715.574
40.9743
35.7476
701.054
31.9807
22.0497
693.164
36.9785
8.19657
690.494
44.6365
0.0958078
41.6748
-5.76866
829.825
-443.677
-1711.42
946.5
-412.473
132.489
1000.01
-280.387
-41.7621
1020.11
0.102666
18.478
941.037
58.6816
171.852
873.372
172.127
55.037
835.826
-1.52257
110.801
-24.3469
-5.85665
-26.4578
824.876
-3.1539
76.6272
15.4342
-1.36467
17.1315
828.597
-19.9167
67.4318
-23.8552
-18.8697
-21.9702
826.707
-12.0976
4.80325
6.32694
-8.84262
8.9909
819.454
-8.30431
-19.4858
-1.90165
-6.39688
0.736201
812.942
1.15558
-40.3066
12.1183
3.65887
12.7597
804.292
5.56024
-47.9909
10.8305
6.38004
11.1814
784.988
11.0224
-33.8942
19.3424
11.3943
19.5111
755.686
67.1226
-10.7745
737.172
67.8545
32.6654
734.902
68.2182
64.032
735.307
64.6074
46.1615
733.015
57.6991
19.6029
47.4643
5.50303
1232.47
-362.543
-3391.74
1339.35
-382.455
-283.651
1161.53
-38.0499
16.363
1084.9
93.9287
53.8189
979.449
165.35
172.682
227.428
61.4679
45.1158
223.779
211.203
208.04
87.8597
62.4451
87.1589
-32.2357
214.705
20.3956
23.0413
-30.804
-193.415
192.637
1.69426
26.7336
-17.0246
-196.118
191.738
-13.4576
14.9459
1.8879
-186.646
189.123
-15.4673
-0.994835
12.0081
-192.273
191.758
-9.4885
-10.3094
17.2402
-190.057
192.281
-3.74267
-14.5661
18.8117
-192.678
193.476
2.1459
-16.1961
17.3073
-191.554
192.582
7.23277
-14.5454
697.059
12.7311
-8.42389
-187.461
-178.818
-171.258
-165.881
17.2218
11.8558
16.3911
703.864
65.3525
16.4252
710.238
73.0942
23.6216
715.016
67.2639
14.1934
718.778
58.2255
8.62732
48.9784
3.93426
960.23
109.504
-3064.15
772.259
-321.061
-897.21
547.445
150.979
-119.347
525.984
121.037
-50.1116
156.243
201.978
94.8896
139.156
146.816
131.169
-1.0824
168.97
51.745
-1.92243
-2.57807
-10.2636
-46.2185
45.1871
11.8605
2.01261
-5.84076
-44.0147
-2.99511
43.6013
3.47915
5.77018
-3.32733
-44.8934
1.59215
44.7888
-1.33978
3.17963
1.01578
-44.1486
3.64936
44.1856
-3.76208
-0.940072
3.19976
-44.6039
2.58843
44.6264
-2.79471
-3.01592
3.41359
-44.3128
1.42306
44.3709
-1.6399
-3.25482
2.91647
-44.6339
-0.0747809
44.7395
-0.194312
-2.753
2.66361
-44.5479
-1.58462
44.7073
1.25373
-2.49215
-44.5236
4.9845
175.977
11.059
-4.00199
-44.422
-43.1941
-43.1483
684.095
57.836
1.85758
-173.669
-176.503
-162.731
-165.656
694.588
63.1951
6.01914
704.662
56.8127
1.27595
711.45
48.4799
-1.86687
45.2845
-2.78189
1290.18
1476.37
2.47313
847.667
468.848
-495.255
669.233
468.213
-429.814
565.112
210.764
-48.3379
154.281
229.577
28.935
158.966
138.645
141.7
-0.0525682
-47.2873
159.208
44.6477
-2.23469
-3.20748
-12.1038
-43.1618
44.3829
11.4037
2.68645
-4.19315
-4.42717
-44.2649
44.1475
4.69383
4.04392
-0.992778
0.861382
-43.5142
43.2784
-0.684232
1.05143
-0.504097
3.30305
-43.0125
43.0208
-3.26508
0.457857
-43.6414
0.285441
2.85354
43.9274
-3.17728
-0.247718
-44.7875