/*--------------------------------*- C++ -*----------------------------------*\
  =========                 |
  \\      /  F ield         | OpenFOAM: The Open Source CFD Toolbox
   \\    /   O peration     | Website:  https://openfoam.org
    \\  /    A nd           | Version:  10
     \\/     M anipulation  |
\*---------------------------------------------------------------------------*/
FoamFile
{
    format      ascii;
    class       surfaceScalarField;
    location    "7.3";
    object      phi_0;
}
// * * * * * * * * * * * * * * * * * * * * * * * * * * * * * * * * * * * * * //

dimensions      [0 3 -1 0 0 0 0];

internalField   nonuniform List<scalar> 
38556
(
609.198
-204.927
-1954.8
831.765
318.642
-541.209
1005.59
313.982
-487.804
1083.2
254.782
-332.394
988.805
119.336
-24.9431
1005.3
98.5993
-115.098
973.814
-5.70841
37.1981
1014.88
5.61267
-46.6773
1056.93
-40.5046
-1.55046
1113.59
-25.0021
-31.6543
1165.87
-35.5412
-16.7358
1227.76
-24.9702
-36.9178
1287.42
-25.7476
-33.912
1354.11
-27.7042
-38.9893
1457.1
-41.4599
-61.5278
1618.51
-62.0309
-99.3835
1781.98
-63.2586
-100.209
1881.78
-53.8678
-45.931
1869.4
-30.657
43.0346
-8.87419
49.008
1222.59
468.626
-828.643
851.188
884.45
-194.404
1179.27
697.738
-711.836
1189.07
478.141
-233.16
1102.56
205.817
0.0308882
1105.72
169.39
-73.9554
1060.55
-33.6936
73.1589
1081.37
-40.9465
25.7382
1097.89
-131.591
74.5681
1131.41
-121.857
63.3312
1157.04
-142.76
81.5909
1184.8
-125.897
73.1667
1213.24
-127.216
73.0298
1264.99
-125.292
45.8369
1328.09
-137.102
32.5468
1389.59
-145.012
21.4805
1423.81
-125.714
28.2363
1417.98
-86.3911
38.3482
1321.38
-19.7251
85.6727
14.8389
62.4
660.328
446.824
157.926
847.582
419.336
277.86
880.777
225.503
439.04
1056.63
150.845
151.443
1106.57
-60.291
216.167
1189.94
4.43401
81.5865
1197.16
-128.044
87.1346
1237.15
-108.454
27.5182
1234.32
-181.847
53.083
1239.79
-170.057
42.7279
1216.05
-184.668
65.6453
1186.59
-155.984
59.5474
1139.01
-139.706
60.0724
1100.07
-127.121
40.7698
1076.02
-135.205
22.1538
1065.97
-133.232
-1.73479
1059.23
-105.07
-13.9
1044.46
-48.7263
-22.8923
1009.66
23.5783
-8.50084
47.3971
-6.23374
311.315
-587.085
1591.27
772.386
-553.844
512.109
1056.71
-347.928
289.11
1124.64
-103.645
186.56
1171.47
-117.121
9.99972
1218.64
6.76794
-49.5114
1221.67
-99.8281
-31.2402
1251.75
-83.3031
-55.2382
1259.67
-172.475
-17.2925
1278
-170.551
-17.8354
1274.2
-193.469
12.604
1247.27
-160.147
31.0955
1161.4
-113.881
60.045
1077.47
-88.8663
45.6768
1017.48
-100.09
24.8709
970.891
-91.231
4.58926
930.47
-55.615
-9.03476
894.174
-8.97716
-3.45239
866.859
44.6389
6.2541
61.1867
1.24761
1301.92
-1629.82
-2393.29
1621.98
-1268.78
394.882
1356.25
-948.025
865.826
1362.11
-335.591
226.094
1259.19
-191.892
177.685
1261
52.1959
-47.2321
1252.75
-54.8266
-36.7588
1290.62
-23.7118
-97.4627
1306.72
-123.962
-64.613
1321.44
-130.32
-54.9469
1321.58
-177.572
-16.0378
1301.23
-130.994
-8.80688
1208.21
-61.9009
41.0427
1091.2
-13.4944
41.6352
994.454
-32.5148
29.1756
931.029
-47.2321
19.4258
893.573
-28.7197
10.5613
865.678
15.8926
3.02558
847.48
63.4671
-0.631005
74.8903
-5.81236
2202.44
-125.811
121.282
2400.3
-917.929
-548.714
2263.28
-761.549
-49.4531
2199.89
-313.044
40.8371
1878.98
-100.209
229.228
1760.44
105.272
65.468
1711.18
-30.3376
24.7671
1696.46
4.09274
-13.0817
1641.86
-97.7529
28.3879
1558.98
-83.9262
36.4837
1462.56
-119.533
38.3862
1406.12
-71.2628
-3.29639
1356.74
-26.7033
14.1825
1269.97
37.2852
35.9975
1131.73
45.5885
60.1321
1004.76
24.4991
55.2425
928.074
16.8316
31.1329
891.976
39.2624
12.7287
884.81
71.1044
-0.472244
77.9519
-5.33334
1588.15
-1716.16
-1004.65
1970.06
-1037.81
-262.025
1807.11
-587.981
-10.6247
1731.46
-210.517
-26.8709
1514.87
-17.1043
133.485
1398.72
135.001
86.4216
1279.9
0.475452
143.271
-26.3408
-0.994493
-27.9355
1208.13
-22.0853
132.65
-10.069
-19.0872
-5.53982
1161.89
-34.3774
101.884
-46.2278
-32.0328
-40.7589
1161.74
-40.3236
38.86
-26.3649
-33.2545
-22.7013
1170.64
-34.0172
-13.7105
-29.8027
-27.0363
-23.8624
1217.94
-25.9906
-42.9453
-18.778
-18.7906
-12.0561
1316.56
-19.511
-66.8866
-16.4219
-12.6096
-9.89687
1408.09
-10.6635
-55.4909
3.71349
-1.32971
9.52641
1426.8
57.1204
-30.2441
1345.11
78.2432
27.947
1173.3
96.3823
92.2566
1039.06
98.2752
75.2272
987.554
94.6609
27.9534
80.04
10.0653
3082.36
-427.811
-624.931
2570.9
-533.48
7.13405
1926.23
-183.203
239.892
1682.66
-78.9297
111.979
1500.03
15.2109
150.311
354.88
18.5048
52.6336
351.061
349.862
342.103
77.8125
22.1406
66.0359
331.021
15.4924
8.84252
-299.829
273.038
-10.4483
15.1535
-253.945
234.458
-24.3854
9.49488
-221.577
224.343
-42.2912
-0.798282
-231.515
236.35
-32.8797
-5.97204
-239.687
246.458
-23.2901
-9.47142
-253.322
261.116
-16.3031
-11.002
-266.492
275.429
-9.18622
-10.4134
1054.76
10.7175
-35.6431
-276.012
-247.277
-263.24
-235.159
19.7415
10.5306
18.7031
1031.16
90.3562
11.4824
981.683
115.408
30.4541
948.852
111.494
19.6119
940.065
93.2141
10.2342
69.291
8.60166
1021.51
1978.28
-1615.11
889.644
443.541
-845.153
869.458
143.37
-306.386
834.449
-1.65935
-42.2618
161.795
21.4881
180.363
138.083
184.775
163.156
164.659
8.47276
7.16848
-9.3529
-49.6593
45.2203
11.7577
2.03415
-43.092
-2.27169
44.2197
1.24853
-0.104581
-48.9954
3.71168
49.2414
-4.86251
0.904869
-49.9154
9.87702
50.2464
-9.88141
-0.326561
-52.9579
7.52476
53.506
-7.15226
-0.920559
-54.8252
4.38142
55.4373
-3.96758
-1.02596
-56.5425
2.60451
56.8841
-2.03974
-0.90631
-57.2485
1.13031
57.4775
-0.563501
-0.79576
-57.624
226.464
12.7595
-0.995241
-57.5672
-56.5157
-55.8039
871.569
95.1836
-1.38337
-223.829
-221.505
-217.006
-212.674
873.706
108.148
5.12389
882.53
102.994
-0.324679
902.49
81.5803
-8.32565
56.6634
-3.20848
2516.3
2299.77
-3339.53
1699.41
1027.52
232.91
1324.08
422.333
96.3673
1277.93
76.4276
-31.9382
281.186
25.5572
125.654
286.366
290.481
290.172
-5.94746
285.192
6.01805
-4.07596
-3.02935
-71.7499
70.5741
4.61425
-0.409097
3.71797
-66.1017
62.1753
1.37966
-1.17125
5.47492
-52.5226
51.0713
-3.7802
-0.243475
8.74617
-48.9106
48.7073
-8.43498
-0.107871
6.70005
-49.2086
49.9001
-7.31675
-0.0748464
2.71845
-52.5711
53.5001
-3.3388
-0.308683
0.663469
-55.6821
56.1428
-0.773996
-0.350201
-1.24879
-57.0806
57.2065
1.41845
-0.295556
-56.937
-15.9487
225.12
17.6027
-0.734938
-57.4062
-55.4434
-56.2528
907.857
80.6705
5.57537
-224.367
-232.491
-215.842
-226.219
913.774
105.027
-2.79547
921.878
106.789
-11.9
936.114
89.0706
-21.7257
67.0071
-20.4247
2062.16
446.661
2776.68
1870.53
576.61
642.536
1484.53
373.754
434.583
1367.47
165.737
27.7479
201.843
162.978
327.72
213.153
240.726
246.611
-6.4171
180.356
22.1794
5.72413
-7.35484
-50.0142
51.094
5.67166
0.603347
-11.3993
-56.9401
58.1689
9.38654
0.784016
-0.78056
-60.8419
63.0881
-2.55192
1.08631
7.73196
-67.439
66.986
-9.11987
1.8409
8.84135
-60.1281
57.9473
-8.19085
1.53034
6.11967
-54.6638
54.2846
-6.85652
1.11607
2.66463
-54.2514
54.5361
-3.63942
0.690053
-0.516474
-56.1483
57.015
-0.601216
0.250962
-59.0566
-14.257
239.716
4.87099
3.05436
-58.1029
-58.4081
-57.8171
991.247
31.1319
13.8456
-244.053
-239.024
-237.643
-234.834
1018.51
73.009
4.75143
1037.04
93.794
-5.52875
1042.91
95.334
-12.1334
83.204
-15.6254
2205.43
-114.503
-378.384
2339.55
646.678
-204.183
1596.67
583.578
533.058
1527.47
332.678
-97.7429
322.56
270.642
84.4907
326.585
342.427
343.74
-12.6715
329.55
-4.11756
9.79956
4.0024
-87.8416
89.4672
-5.364
-0.264036
6.63886
-90.4551
89.2312
-4.87031
-0.544623
11.4155
-85.2577
84.0721
-9.73838
-0.491495
12.7265
-80.2731
79.44
-11.4642
-0.429145
4.81056
-78.5095
77.2851
-4.10066
0.514466
2.49287
-71.9203
69.6724
-0.750849
0.505926
5.12966
-62.2802
60.3167
-4.21702
1.05093
3.53775
-57.2848
56.8368
-3.96572
0.875943
-56.3748
6.2335
224.538
-11.3356
5.47335
-56.7866
-55.804
-55.9435
914.759
-6.16141
-0.515773
-224.871
-217.678
-221.178
-213.223
965.959
28.3445
-6.53564
1006.33
60.2377
-6.8182
1022.93
87.0545
-8.3148
90.2964
-9.48812
896.279
-1544.83
-3306.23
1422.13
269.593
-148.766
1171.49
442.378
391.842
1207.32
268.576
28.2666
1070.87
171.005
236.089
244.35
-28.1925
44.3817
13.73
47.9121
-17.2459
37.5386
247.003
240.381
241.015
5.93432
215.057
4.06943
7.16042
1.36872
6.8163
3.94306
-4.61102
-187.972
185.596
7.59424
7.195
-3.14475
-2.68112
-1.97652
4.85628
-207.892
219.385
-33.6505
0.47448
6.02049
4.97093
5.83572
6.82088
-215.977
217.741
-29.3509
-1.59728
8.41792
6.29036
7.65475
5.1741
-230.383
240.036
-25.0866
-3.28266
4.69051
4.83134
4.02028
2.01036
-244.682
248.436
-11.6267
-0.183126
2.25123
1.70628
2.08767
2.18382
-253.254
251.222
-8.0895
1.45728
2.27009
2.05735
2.15276
2.63602
-244.962
233.082
-4.94833
5.47798
3.34874
2.35948
3.00642
785.019
2.38885
-5.3597
9.01157
11.4379
5.40617
4.83069
-217.684
-199.697
-203.552
-191.8
785.656
1.81694
-8.61594
811.282
19.4162
-16.6978
854.741
34.4454
-17.6667
888.9
66.3579
-13.4617
83.5164
-10.0649
600.182
-613.246
130.072
819.338
-203.877
254.315
1010.03
93.76
157.921
1206.56
33.6008
38.4474
1235.5
66.0976
75.9659
1242.41
-10.76
-24.3434
1164.27
129.151
58.4054
-15.4511
-37.8505
-17.6553
-38.4524
1077.32
-36.2397
22.8462
3.59619
46.8434
8.75042
41.1522
960.305
8.02033
41.6686
25.5828
14.4403
21.8634
5.43789
889.185
-81.4069
22.6095
27.2617
42.4374
22.6696
37.5487
841.95
-19.1879
11.7772
20.0609
11.7784
16.8647
5.94245
803.2
-32.7314
11.5481
13.8168
18.5889
10.9897
16.5379
773.74
10.4678
12.0504
5.22343
0.186457
2.45956
-0.927854
754.732
-0.514128
10.1703
1.00815
3.25743
1.08747
3.99906
740.939
11.3133
4.86763
733.68
10.0043
-0.927725
739.168
19.6016
-5.67364
756.965
23.4413
-6.79292
788.187
43.6528
-8.51657
63.7208
-5.02509
2364.69
1200.62
2170.87
1648.95
260.9
250.964
1072.88
207.465
462.368
1107.67
27.8721
-29.0568
1058.15
90.8661
24.7516
1067.3
19.7115
-39.6249
985.478
145.398
65.5743
863.022
60.0631
26.1535
755.835
71.8911
43.3152
701.143
-31.7362
5.02142
693.552
-15.6514
4.05498
696.835
-34.6509
-1.36341
704.108
-0.322235
3.51713
705.824
-3.85859
1.62799
707.065
8.00713
2.06494
708.464
7.29676
1.30884
711.295
15.5333
1.23749
717.128
19.0696
-1.46141
731.958
31.1238
-2.30099
44.5043
3.23256
2928.76
-486.323
-3050.83
2340.27
307.274
542.113
1216.78
149.45
1181.51
1028.46
-33.3504
249.54
987.337
35.1447
96.8473
1046.53
9.92402
-49.4005
1050.02
117.883
24.0243
1023.72
85.4463
0.911317
914.386
110.806
70.4203
812.836
34.7845
35.0296
748.779
11.5865
36.8189
722.242
-18.8667
10.7536
714.912
-1.51219
8.51981
713.356
-4.1326
1.82963
713.488
5.7032
2.17213
713.415
7.2586
0.111023
714.894
13.1079
0.946005
718.871
16.6224
-1.52914
728.395
22.8149
-1.21547
31.4269
2.40133
-940.247
-2111.69
-1963.86
-6.85999
22.3514
-648.464
662.116
-7.58101
-511.945
811.824
-10.7865
-172.271
932.912
65.665
-151.609
1006.34
40.3459
-103.846
1017.14
113.782
-6.70745
1026.63
82.3268
-6.36566
979.846
112.931
44.659
919.767
79.2069
15.6562
824.372
61.6543
45.327
750.503
30.6491
24.3529
715.978
25.1491
7.86457
698.43
15.5528
-2.13824
692.921
14.8478
-3.63455
691.45
12.8397
-4.11047
694.305
12.9299
-2.67761
700.787
14.4048
-4.2639
711.726
15.8017
-3.9261
21.1531
-0.896811
-522.239
-1710.34
74.8883
517.569
-288.907
-728.55
930.118
-211.6
-208.53
1015.21
-24.9925
-70.8848
1017.22
78.5154
-14.8597
1026.26
97.1678
-65.8636
1000.2
135.56
4.27871
991.87
117.091
-26.4313
945.959
132.338
26.5049
901.232
114.042
9.89186
840.997
106.859
15.0303
794.354
84.1893
-6.89716
767.564
63.2596
-11.3206
754.234
45.7489
-16.8657
749.358
33.0557
-13.3317
747.934
26.1428
-11.8793
748.305
21.3513
-8.79273
751.216
20.2187
-8.72466
758.308
17.6443
-8.93385
21.0614
-8.68274
196.954
-1793.26
1109.09
707.137
-142.167
-656.924
1011.55
-19.3013
-496.714
995.726
59.7578
-68.9244
893.818
126.876
53.5473
844.093
152.183
-5.29036
819.438
118.839
41.3773
826.766
112.246
-2.4841
847.348
99.8817
11.8747
854.069
119.28
-11.9597
854.316
117.548
-10.936
849.176
115.485
-26.1559
845.087
99.982
-32.633
841.222
87.4879
-37.8745
838.421
71.7654
-35.9079
835.671
59.9439
-31.0514
833.866
45.405
-22.2487
834.201
37.9555
-18.0721
837.153
32.2973
-17.6052
35.1358
-19.4978
541.648
-1142.55
1185.6
-786.12
1477.25
-310.951
1614.26
-77.2511
1567.01
174.132
1539.73
179.457
1374.69
283.877
1254.01
232.931
1139.01
214.876
1097.59
160.705
1086.27
128.862
1103.35
98.4138
1125.81
77.514
1160.25
53.0507
1195.38
36.6387
1229.07
26.2512
1248.69
25.7816
1253.68
32.9728
1242.56
43.4145
43.1398
961.237
-271.657
-2598.98
431.005
278.92
-289.897
693.103
121.804
-871.706
574.46
149.869
-363.619
684.84
4.18126
-139.505
697.899
25.8517
-154.009
785.852
-86.528
35.7731
846.513
-52.349
-54.9894
922.67
-96.1091
18.4013
985.613
-76.3928
-18.2043
1045.33
-88.401
11.9447
1103.29
-80.2947
-14.5823
1159.29
-82.3481
-7.55985
1219.59
-82.8108
-16.4768
1277.8
-90.7711
-28.9658
1349.01
-103.878
-66.716
1439.35
-103.017
-87.531
1527.3
-93.5585
-40.3296
1545.85
-53.5046
77.9958
-27.7779
99.011
-144.772
1075.47
-2042.03
455.445
285.323
-801.023
710.122
93.4552
-938.163
696.678
72.0205
-141.868
807.544
-110.852
4.19854
822.159
-26.3926
-36.3266
872.883
-152.861
88.7692
909.034
-86.3614
23.5992
947.574
-144.394
84.3135
980.586
-103.636
57.562
1008.43
-117.468
82.8149
1034.64
-98.3306
64.9964
1061.65
-104.195
67.8662
1097.04
-102.913
30.5419
1133.42
-106.467
11.8622
1160.99
-102.486
-7.47931
1166.18
-78.8798
-1.08458
1146.33
-50.938
15.576
1088.46
3.45679
86.5766
25.4291
53.6253
-592.73
1670.98
-2578.77
242.824
7.48498
-279.855
653.332
-35.6269
157.615
811.727
-58.5726
123.641
924.115
-185.972
178.898
981.112
-56.4093
54.606
987.584
-164.339
92.1408
1009.3
-95.8223
15.2602
1007.24
-150.937
61.6929
1010.5
-105.681
41.5073
998.933
-113.408
73.1533
982.887
-81.2817
58.545
962.236
-86.0678
62.5972
944.714
-82.9187
38.2975
931.342
-90.3042
19.3627
921.61
-84.3673
-10.121
903.449
-53.1725
-21.4465
876.9
-16.1166
-31.1641
853.109
30.3265
-11.5798
42.5848
-11.0382
45.6341
962.154
715.918
464.949
-332.907
433.187
1078.55
-211.181
-148.938
1106.93
-48.4725
148.086
1053.71
-123.395
0.638983
1030.61
-21.1426
-61.6752
990.657
-138.634
-16.9959
987.03
-86.8331
-60.6001
981.718
-155.991
-6.92689
985.228
-111.039
-15.9872
978.187
-115.456
21.6932
960.91
-65.4998
32.5907
928.096
-53.1226
59.9132
891.238
-44.815
44.4313
856.404
-56.9422
26.3433
825.713
-49.6763
0.5885
796.786
-22.0487
-11.2311
774.041
9.05361
-5.8774
762.701
42.8176
5.10274
50.5703
-2.12302
46.9253
-1122.29
-3640.64
79.1307
-790.03
819.799
898.037
-764.374
600.112
974.052
-161.463
263.07
989.796
-174.131
212.677
985.167
-13.6106
-50.1348
979.769
-148.115
-21.88
989.371
-99.0933
-94.8052
989.437
-173.255
-47.4154
991.733
-123.354
-44.9281
981.925
-117.846
-3.83855
958.781
-49.5757
-1.58722
917.144
-13.7136
43.2702
866.038
9.66035
38.2666
818.067
-12.772
32.9768
785.409
-18.1641
20.572
766.702
-4.34155
11.5607
752.357
24.6303
1.7934
744.022
52.9061
-2.38462
56.8513
-9.14424
1414.8
-767.22
-3300.86
1474.47
-597.297
-801.114
1382.94
-570.557
-151.745
1410.8
-179.697
31.2145
1316.63
-105.438
254.7
1275.85
38.961
53.6809
1231.3
-130.167
51.3683
1200.83
-72.3697
-9.34134
1166.68
-144.4
33.6885
1135.65
-83.9589
28.1136
1093.21
-73.7667
36.7476
1050.5
-8.62157
-1.53464
1008.66
25.1158
17.1927
957.178
57.0964
40.0413
890.87
50.8378
62.8312
831.641
39.5642
56.7434
794.566
30.5741
33.2919
776.289
42.5179
13.1176
772.263
57.7387
-1.27896
57.6777
-7.21755
903.973
-2256.2
-1192.75
1294.51
-1013.57
-236.286
1310.69
-541.574
-55.7891
1312.67
-210.089
1.54084
1187.81
-56.7478
209.662
1097.7
117.224
98.2602
1028.68
-5.03714
161.203
-33.0249
-6.81155
-34.2052
992.511
-16.4928
133.765
-4.40281
-14.4468
-1.96979
975.222
-29.2129
100.648
-36.0362
-27.4805
-33.1456
974.003
-25.2138
29.3547
-15.0174
-21.3895
-11.6141
974.017
-18.6435
-19.0579
-18.4906
-15.6311
-15.6673
987.853
-9.40451
-52.1229
-0.736469
-5.72953
2.59003
1009.79
-2.16433
-67.5986
1.372
0.595098
4.09023
1017.36
6.43177
-52.6554
15.3085
7.56486
17.3836
995.563
65.994
-23.603
945.454
74.9537
42.666
889.11
81.1865
97.9887
854.117
80.5426
72.1956
838.435
74.0419
27.3317
61.9198
9.50157
1775.17
-1710.66
-2423.49
1584.02
-775.425
-39.863
1450.47
-270.248
102.115
1369.97
-110.217
92.6059
1222.07
47.9029
193.561
288.24
36.5922
64.2033
279.127
272.36
264.104
72.2441
40.8703
74.1852
-22.4526
268.157
16.7596
20.7385
-29.8027
-241.639
230.033
-7.45746
32.3728
-15.3497
-223.972
214.573
-21.6087
17.1445
2.16817
-207.667
209.815
-27.785
-1.7448
10.7312
-213.038
214.736
-19.3648
-11.7077
16.5423
-214.189
218.345
-12.2608
-17.8419
19.4003
-221.911
226.089
-6.3353
-19.4077
17.2275
-227.187
232.591
2.03222
-18.2322
838.988
11.8487
-23.2527
-228.847
-209.363
-210.639
-197.19
19.1135
11.339
18.3534
829.884
74.3125
21.2273
818.023
89.3893
34.1128
813.087
85.016
20.074
814.691
72.2676
10.4043
59.1795
7.27484
1896
277.528
-2141.37
1440.61
-242.422
-922.769
859.288
72.2111
-67.5182
710.162
29.5745
-32.9278
175.248
112.147
180.459
150.724
172.633
147.218
-5.61534
184.799
30.1349
2.52214
-2.15734
-7.81781
-51.8791
50.0217
9.82914
2.00336
-3.69327
-48.0464
-1.46661
47.2607
1.38544
4.56012
-2.92329
-47.8821
3.18785
47.9733
-3.49042
3.13462
0.830984
-47.2932
6.31566
47.4939
-6.54142
-0.805949
2.71915
-48.0848
4.6828
48.5172
-4.95313
-2.88118
2.86924
-48.4942
2.79166
48.9205
-2.96736
-3.11981
2.63073
-49.335
1.27256
49.738
-1.42797
-2.87831
2.31601
-49.7944
-0.519958
50.0318
0.523497
-2.55695
-50.1594
4.81446
197.592
12.1302
-5.25251
-49.7629
-48.9173
-48.5962
768.006
71.6297
0.000996214
-196.285
-196.503
-186.127
-187.792
776.487
79.8279
6.20409
787.444
73.5833
0.151652
799.723
59.0794
-7.41634
51.7302
-3.68064
723.594
1255.31
-1370.32
609.874
330.621
-226.414
788.876
313.532
-323.955
753.542
107.244
-74.2736
206.529
125.269
83.9938
207.894
183.404
184.253
-3.45097
-25.8709
214.805
25.0266
-3.98071
-2.59908
-7.88951
-56.7506
57.1872
8.04645
2.00547
-2.56594
-0.913388
-53.7229
51.6198
2.29097
3.29148
-0.406282
3.96734
-47.2903
46.645
-3.57143
0.655628
-0.16105
6.48103
-45.4624
45.3575
-6.49292
0.277869
0.181445
5.29278
-45.9713
46.4089
-5.6993
-0.212504
0.691515
2.95031
-47.9063
48.3801
-3.36592
-0.749738
0.925431
1.02807
-49.5043
49.8293
-1.28732
-0.991192
0.680559
-1.15627
-50.4178
50.5146
1.09131
-0.712414
-50.594
0.756047
-12.7268
201.957
12.73
-0.440744
-51.5676
-49.5662
-50.5482
817.951
64.3907
7.01504
-202.141
-212.392
-194.021
-203.598
822.444
75.666
-3.12722
825.501
71.8479
-13.2208
825.574
58.4094
-21.1289
52.7523
-21.3068
1336.11
-616.455
2768.65
1230.02
120.302
958.944
920.818
229.14
828.174
821.85
157.485
76.4744
180.112
203.184
376.864
182.821
165.203
166.655
-17.0337
-20.0464
178.422
29.0767
9.69269
1.61803
-4.78143
-47.2835
48.218
3.9629
-1.73398
-3.50583
-6.10843
-51.9277
53.1356
4.42038
3.98593
-2.37809
2.19593
-56.5307
57.5409
-3.3351
2.50705
-4.31257
5.962
-58.345
57.4962
-5.77063
4.97001
-4.70353
6.69731
-53.6105
52.5721
-5.98395
5.02857
-3.00769
4.90555
-51.1841
51.1765
-4.98891
3.09866
-1.70047
2.42321
-51.8166
52.1612
-2.83494
1.76755
-0.826138
-0.177924
-53.4811
53.9962
-0.456707
0.945686
-55.077
-5.10408
-10.6132
222.696
5.55042
6.09499
-55.0452
-54.2534
-54.2487
900.346
46.1811
11.7278
-224.754
-223.646
-216.215
-215.405
909.404
68.2176
3.14178
909.476
71.4064
-5.15936
894.516
70.4268
-9.19037
64.7866
-16.388
1770.82
-1149.07
-3287.39
1318.06
39.0413
329.839
1222.98
285.305
571.97
1026.74
225.582
30.4031
225.804
225.421
248.867
224.343
194.547
195.428
-3.27635
-32.2736
248.421
19.7601
-6.82706
-4.96395
-0.392936
-70.793
73.9088
-1.65888
3.89994
-5.41503
3.6171
-75.5715
73.9218
-3.43423
6.88187
-2.40754
7.16964
-68.5704
67.4189
-6.56804
2.95749
0.302285
5.53507
-64.9293
64.1826
-4.99933
-0.0913626
-2.19319
1.7106
-61.8108
60.7247
-1.02226
2.59096
-2.5502
2.73857
-56.8589
55.5645
-1.85184
2.95786
-2.58368
2.97414
-52.7825
52.2362
-2.56658
2.72237
-2.05703
1.87685
-51.6399
51.7162
-2.04601
2.14985
-52.3692
-7.15813
-0.805422
209.621
-2.15965
7.43571
-51.973
-51.5519
-51.0395
840.28
17.9568
-3.15423
-210.849
-201.322
-203.555
-193.692
864.722
45.2079
-7.96753
875.972
58.873
-5.53526
871.487
74.5906
-7.99359
72.8227
-12.1421
72.6715
-293.992
-2308.3
360.145
69.1211
-466.319
693.165
232.408
111.719
705.392
197.069
44.5534
781.951
115.98
268.971
186.151
-99.047
63.9375
10.3118
56.3286
18.3092
59.9126
186.377
171.998
172.053
6.0321
-20.9308
172.372
0.59353
20.0352
1.48654
5.89452
0.667937
-1.56329
-11.7383
-153.97
161.509
-4.87649
12.3663
-0.231048
-1.48743
-0.00812724
3.58784
-0.457968
-180.322
185.158
-18.0789
-0.272776
3.73539
3.34072
3.30929
3.84746
3.58132
-180.858
183.174
-15.7721
-5.14342
4.18643
3.33795
3.64655
1.98185
3.22087
-193.677
197.492
-10.8777
-2.15372
1.3777
1.49178
1.14451
0.797761
-1.60998
-196.827
197.23
-5.68038
2.73754
1.37203
0.693475
1.28621
1.18411
-3.13437
-199.839
197.56
-3.09961
3.68254
1.3811
1.0338
1.23115
1.42204
-6.642
-192.998
190.662
-2.51235
5.59901
1.76025
1.17665
1.53287
704.531
7.44705
-7.21434
0.83605
0.21714
-1.69386
-1.55437
-187.03
-175.78
-177.156
-167.963
717.795
7.12702
-11.0503
737.216
26.7688
-17.679
759.616
36.6537
-17.8475
774.892
60.3087
-14.4553
64.5871
-10.9285
753.67
1560.99
-2256.29
883.278
409.584
-215.755
791.826
282.766
199.016
895.213
82.2598
49.8691
876.841
76.435
133.883
829.514
-40.0429
-36.0202
786.372
129.288
82.3864
-15.0658
-37.6831
-18.6594
-38.7182
738.36
-82.902
22.4765
19.4519
45.5622
22.4218
43.8482
703.479
2.79894
46.7376
16.248
0.851739
11.785
-1.87111
682.327
-81.5141
23.3413
19.766
32.9021
19.375
29.8905
671.719
-5.73708
13.287
10.5529
0.26016
6.00782
-1.98527
659.535
-29.6482
12.0583
8.25969
13.9259
6.51777
12.6184
656.199
8.22867
12.5717
0.321684
-1.8217
-1.26882
-2.64495
653.869
-6.7653
9.56483
1.24611
3.74779
0.849665
3.85736
652.896
9.26509
4.02189
654.7
7.32482
-2.92936
664.833
17.2065
-6.24427
682.769
20.6115
-8.68634
705.271
38.8726
-9.58226
47.6503
-4.83168
1443.35
2202.75
-4329.41
891.223
1231.08
-18.4043
828.313
482.694
325.35
829.811
126.644
-74.939
726.212
135.838
68.9472
698.589
8.18898
-60.2339
692.1
126.965
74.3866
626.054
-6.95749
16.2544
601.995
26.5131
43.6605
582.424
-59.4343
2.51296
591.632
-19.7083
8.81807
598.667
-38.066
0.019649
609.355
-3.79116
4.84871
612.553
-9.62076
1.28532
617.965
3.56352
2.35429
623.646
2.06274
0.889987
631.309
9.4262
1.35428
641.708
11.775
-3.02448
657.812
23.3842
-2.91616
31.7733
3.75554
-618.916
-1304.61
-4504.34
-261.916
168.586
1247.61
451.286
186.711
764.287
583.249
54.4169
189.805
683.269
54.1
78.5654
708.756
-3.45664
-63.2418
736.946
87.2963
35.5026
724.719
15.2883
-9.10714
698.565
45.3186
77.7688
661.914
-18.6859
30.9319
642.746
-3.55549
39.8336
631.218
-26.4853
10.7013
630.361
-5.83431
11.4197
630.213
-9.10133
1.45791
631.791
1.30711
2.85062
632.631
1.18896
0.144106
635.843
5.18532
1.97508
641.358
7.26429
-2.5333
652.329
13.0559
-1.85789
20.0397
2.47861
-869.587
-2511.01
332.049
2.71055
-145.851
-1206.32
587.543
85.1368
-995.204
686.595
51.1683
-268.075
706.161
69.6438
-186.719
723.264
6.40502
-130.81
735.361
68.2092
0.282132
740.543
17.37
-13.6287
727.063
50.4342
53.0229
695.51
14.6071
13.916
669.994
20.646
46.6421
646.217
4.82565
16.8192
634.66
6.00065
7.5866
626.778
1.52942
-4.88767
625.849
2.5983
-3.99681
626.408
1.88268
-5.36264
629.937
2.49166
-3.51314
635.609
3.97087
-6.64234
645.419
5.42053
-6.10074
10.7598
-2.45933
365.231
-1543.28
-1508.36
329.551
7.08398
-845.805
717.942
-58.4349
-453.349
751.638
34.478
-87.8899
759.575
87.8877
-41.0408
744.443
38.2186
-82.5456
746.026
62.9902
7.91465
742.501
31.1109
-36.6471
744.22
49.4279
25.792
734.283
35.5134
-1.07785
724.472
36.8795
8.60848
711.374
25.9208
-14.8944
703.645
18.1163
-15.7074
697.6
12.2215
-21.5125
694.763
7.91324
-15.8089
693.006
6.29253
-14.5327
692.714
4.66774
-10.677
694.96
5.32327
-12.3223
700.785
3.40513
-12.7431
6.74027
-12.4685
917.605
-1384.81
1166.49
888.564
-40.1871
-580.612
814.82
41.6997
-523.105
757.45
111.543
-88.6187
724.001
149.13
25.7545
679.087
117.456
-39.6149
707.503
65.4079
10.5442
726.98
48.6513
-39.502
775.929
29.2469
-16.8928
800.261
43.9457
-44.7239
822.449
42.6265
-38.8714
831.978
46.7949
-56.5588
835.445
38.9279
-56.9108
834.018
36.4672
-60.6938
830.039
28.4509
-52.4668
825.906
24.6941
-45.3202
822.677
19.5802
-33.9312
822.482
17.5272
-30.0807
824.42
12.0425
-28.1806
12.3773
-29.3516
840.583
218.277
1038.57
-1024.29
1169.11
-399.795
1234.03
-30.6282
1288.26
269.033
1326.02
259.155
1271.21
404.091
1231.68
321.114
1174.92
300.883
1162.27
217.303
1161.64
172.113
1182.37
124.48
1203
95.8142
1229.27
63.2452
1247.67
46.6926
1260.39
38.2219
1266.4
39.3542
1269.92
46.9737
1269.93
55.4536
54.2065
-294.735
-486.138
-2535.38
299.566
-445.467
-438.731
449.091
-157.301
-863.929
391.845
-38.5807
-267.793
551.994
-143.336
-156.317
541.498
-56.1118
-87.4013
676.83
-146.464
46.9055
725.991
-72.1863
-31.9638
811.996
-106.428
38.824
869.368
-74.0967
-1.47861
930.704
-83.3774
33.9861
981.88
-70.9098
5.1513
1031.46
-73.2446
16.1054
1083.09
-67.5793
-0.523951
1127.78
-68.053
-5.60794
1160.15
-69.4414
-29.6455
1182.17
-69.0839
-40.4685
1204.9
-58.5161
-4.53761
1221.71
-32.6104
93.7962
-9.35918
107.504
964.499
585.188
-1318.43
747.767
-244.712
-785.046
560.89
-199.64
-708.947
529.404
-86.8633
-62.0999
651.51
-227.256
-33.9871
637.516
-73.0761
-5.36832
702.26
-189.983
67.5444
722.374
-80.194
11.4935
768.792
-131.412
62.8799
796.137
-76.1486
32.2686
829.999
-91.9056
57.481
857.548
-71.1322
37.6698
887.325
-78.5834
43.4286
913.414
-75.8911
12.7643
933.039
-76.142
0.326895
938.795
-68.4425
-14.2347
924.504
-47.2871
-8.59035
898.822
-21.269
4.01063
881.853
17.7791
53.156
29.0238
22.009
59.2853
978.442
-1352.31
441.036
-197.316
-709.002
571.969
-237.102
64.1435
665.481
-137.715
80.9807
740.59
-239.353
115.886
763.816
-66.3051
24.6094
771.865
-176.605
70.7135
778.389
-72.2408
0.782876
784.025
-123.462
48.1073
787.145
-61.6485
23.8865
790.907
-74.5754
52.0619
788.371
-45.861
35.8093
787.733
-56.7683
41.4205
784.207
-54.8287
20.7614
779.17
-59.9373
8.19444
768.418
-53.7406
-14.0712
747.863
-28.4992
-19.6789
725.338
-3.54052
-26.3677
714.289
27.8975
-10.6492
34.9588
-12.979
1041.21
621.693
2041.17
1069.46
-176.955
384.578
972.264
-169.843
-119.001
953.141
-67.7883
97.2832
854.63
-152.98
12.776
813.62
-45.5014
-41.4682
781.098
-161.294
0.214916
766.804
-72.5473
-45.9997
766.03
-131.668
2.0533
763.131
-62.4841
-12.2528
760.88
-69.9754
19.3444
751.492
-26.8868
23.0047
742.454
-28.9142
41.0967
728.837
-23.9032
27.123
713.411
-33.2932
15.1251
694.117
-29.405
-4.45201
673.021
-9.33579
-9.29887
657.882
12.7354
-7.0141
654.356
35.4948
1.03139
39.2089
-6.06712
-194.7
-212.382
-604.772
-44.378
-476.099
968.621
627.436
-598.28
356.734
683.585
-97.3228
236.456
763.495
-198.646
178.433
753.189
-43.7513
-41.5793
764.846
-192.508
-2.32319
763.648
-100.732
-65.4215
766.836
-160.864
-21.4078
764.666
-78.4791
-26.7624
757.722
-71.0221
4.15203
737.52
-7.96389
-0.308091
717.393
3.85841
30.6239
694.023
14.2634
23.471
673.396
-3.14185
23.4524
659.758
-7.91855
12.7231
651.742
3.49027
6.75095
644.788
22.2181
-0.735449
641.201
40.8871
-4.19019
41.7789
-10.3262
2409.7
177.195
642.004
1351.68
-340.487
121.301
986.949
-415.466
30.1671
973.725
-90.9237
38.0395
953.548
-124.438
200.669
934.951
3.62856
24.8985
921.74
-173.443
45.5138
890.084
-69.4314
-8.98629
871.006
-133.73
25.6325
853.91
-49.9596
16.6907
833.994
-40.7335
26.3742
801.79
24.8577
-2.1521
768.891
38.0095
15.9407
738.49
55.4865
29.2191
709.664
46.1235
42.3924
685.963
36.2916
36.2344
671.999
28.7265
22.0195
664.799
35.2396
7.29533
663.299
44.0348
-2.92641
42.0505
-8.26822
641.234
-718.414
-3579.28
915.617
-572.789
-278.367
954.609
-369.629
-140.618
972.704
-117.244
9.76656
904.259
-24.7509
178.42
817.534
131.973
56.6398
791.161
-11.7
113.559
-35.3884
-15.5875
-36.7489
782.43
-10.2967
85.1849
2.20661
-8.21396
4.18386
790.519
-24.6512
65.0236
-29.6783
-23.622
-28.2427
790.285
-15.5848
11.5362
-3.53473
-12.5019
-0.285311
786.873
-10.982
-14.5226
-11.5347
-9.13137
-10.2097
781.091
-0.103797
-39.0066
7.36164
1.45424
8.81141
774.604
3.69792
-46.79
7.4684
4.43329
8.08833
755.305
8.77058
-32.4033
18.2643
9.11289
18.3859
726.293
61.2637
-9.73135
708.66
63.2619
33.3284
706.921
64.8876
63.5674
707.796
62.3195
44.2406
706.563
56.5812
16.018
47.3749
4.03546
1059.61
-1050.95
-4075.69
1292.25
-560.354
-284.937
1126.97
-163.713
61.4753
1054.09
-15.8161
64.0545
931.676
110.206
181.02
218.219
50.3249
42.6361
210.896
201.797
195.08
79.212
51.2638
78.4236
-29.4793
202.153
14.1859
19.6595
-30.5763
-182.284
183.139
-7.17445
26.5987
-16.0394
-186.117
182.223
-18.6514
13.9338
2.67685
-177.685
180.472
-18.9845
-2.06443
12.5409
-183.555
183.67
-12.5731
-11.0651
18.2132
-180.982
183.857
-6.63497
-14.5571
18.5306
-185.106
185.982
0.111129
-15.8194
17.0251
-184.401
184.44
6.17555
-14.4693
668.975
10.6288
-8.25284
-180.129
-171.989
-164.002
-159.193
16.5164
9.75946
15.6977
676.747
60.1899
16.5268
683.536
69.5331
22.6786
688.755
64.7288
12.4458
693.368
56.8597
5.51326
48.7332
2.52154
1238.89
320.593
-2570.72
835.962
-307.356
-772.843
569.194
76.4766
-40.9408
511.232
57.5282
-48.3104
149.904
164.765
99.5637
127.433
140.592
119.641
-2.36293
159.401
44.1374
-0.946778
-2.74326
-7.71754
-44.6031
42.8145
10.0262
2.22322
-5.90573
-41.3289
-0.548269
40.919
1.08787
5.77599
-3.14578
-42.2646
2.91635
42.5589
-3.04713
2.98222
1.07568
-41.7739
4.4866
42.0091
-4.76563
-1.03186
3.1623
-42.1896
3.21955
42.4552
-3.6121
-3.03528
3.43622
-41.9461
1.89468
42.2234
-2.27362
-3.33455
3.11413
-42.4322
0.319185
42.7313
-0.748488
-2.9839
2.72158
-42.4929
-1.1934
42.6386
0.884508
-2.55834
-42.7153
4.97996
168.016
10.0685
-4.11874
-42.7482
-41.3866
-41.4665
658.274
52.5755
1.74371
-166.917
-170.122
-156.009
-159.354
669.271
59.2591
5.4809
679.67
54.047
0.435148
687.172
47.1446
-5.20355
45.24
-4.22251
1324.27
1880.8
-251.725
818.151
519.695
-547.345
616.283
420.698
-466.309
512.535
149.54
-62.5365
144.683
184.171
31.8874
144.093
129.33
127.127
1.11831
-37.6263
148.676
35.7478
-3.23243
-3.01685
-9.70099
-41.4955
42.2162
9.47767
2.51949
-3.86284
-1.6523
-42.1477
41.8617
2.06865
3.73245
-1.05459
3.19887
-41.2438
41.0772
-3.06819
1.09058
-0.528808
4.74255
-40.9016
40.9496
-4.73616
0.474451
-41.6428
0.319995
4.08137
41.9607
-4.42916
-0.290145