/*--------------------------------*- C++ -*----------------------------------*\
  =========                 |
  \\      /  F ield         | OpenFOAM: The Open Source CFD Toolbox
   \\    /   O peration     | Website:  https://openfoam.org
    \\  /    A nd           | Version:  10
     \\/     M anipulation  |
\*---------------------------------------------------------------------------*/
FoamFile
{
    format      ascii;
    class       volScalarField;
    location    "7.3";
    object      turbidity_0;
}
// * * * * * * * * * * * * * * * * * * * * * * * * * * * * * * * * * * * * * //

dimensions      [0 0 0 0 0 0 0];

internalField   nonuniform List<scalar> 
12920
(
-0.0255176
-0.0302568
-0.0392578
-0.0504911
-0.0783713
-0.102372
-0.133107
-0.150448
-0.166503
-0.171609
-0.176249
-0.177219
-0.178697
-0.179781
-0.180836
-0.18392
-0.191535
-0.205167
-0.220737
-0.243119
-0.0289791
-0.0306528
-0.0381181
-0.0531554
-0.0788183
-0.105975
-0.137334
-0.165051
-0.186319
-0.205441
-0.223516
-0.242165
-0.261212
-0.280317
-0.298655
-0.314641
-0.326744
-0.337044
-0.350284
-0.377773
-0.0198915
-0.035329
-0.0537032
-0.0749425
-0.0970747
-0.119145
-0.136522
-0.152753
-0.167517
-0.184982
-0.206209
-0.233537
-0.265988
-0.301622
-0.336835
-0.366273
-0.388871
-0.408292
-0.436043
-0.471281
-0.0183656
-0.0478779
-0.0631676
-0.0775524
-0.0893704
-0.0993816
-0.113518
-0.127113
-0.144111
-0.161986
-0.182797
-0.208828
-0.242862
-0.285833
-0.334132
-0.383368
-0.431658
-0.481192
-0.527485
-0.57826
-0.0253484
-0.0344301
-0.0461349
-0.063922
-0.0812145
-0.0927761
-0.103671
-0.112267
-0.127273
-0.144554
-0.166111
-0.190907
-0.222135
-0.263563
-0.314433
-0.372067
-0.432675
-0.491713
-0.547244
-0.599006
-0.0141599
-0.0257748
-0.0376477
-0.0496043
-0.0650514
-0.0821018
-0.0986426
-0.11282
-0.12997
-0.147148
-0.164675
-0.183751
-0.207935
-0.238777
-0.280608
-0.336865
-0.400465
-0.46044
-0.510103
-0.54928
-0.0168002
-0.0292639
-0.0473353
-0.067632
-0.0884545
-0.108784
-0.131087
-0.151851
-0.163878
-0.169271
-0.166745
-0.163749
-0.166401
-0.180655
-0.202946
-0.235297
-0.287997
-0.363563
-0.438583
-0.495957
-0.00596749
-0.0207103
-0.0414719
-0.0654243
-0.0879597
-0.112919
-0.118325
-0.131867
-0.138718
-0.129586
-0.116302
-0.107688
-0.105999
-0.113332
-0.166469
-0.227727
-0.28944
-0.347829
-0.395668
-0.429983
-0.00788943
-0.0306405
-0.0632736
-0.0980744
-0.133648
-0.13451
-0.130156
-0.133766
-0.127758
-0.118198
-0.106565
-0.097768
-0.0953547
-0.102011
-0.133708
-0.195511
-0.243439
-0.277224
-0.298813
-0.314829
-0.0172428
-0.0403538
-0.0633934
-0.0764921
-0.0922516
-0.0911896
-0.0930087
-0.106327
-0.121472
-0.117306
-0.114108
-0.103564
-0.0924669
-0.0878298
-0.102975
-0.149783
-0.185251
-0.209125
-0.224485
-0.239739
-0.0123977
-0.0303413
-0.0491007
-0.0723578
-0.104667
-0.111931
-0.109209
-0.108551
-0.107508
-0.0999502
-0.103372
-0.115627
-0.117986
-0.106623
-0.107499
-0.148617
-0.173116
-0.193032
-0.209977
-0.227019
-0.0162731
-0.0283137
-0.039853
-0.0525528
-0.0720473
-0.0742395
-0.0776142
-0.0814928
-0.0925591
-0.101723
-0.0980447
-0.0969582
-0.111953
-0.127534
-0.149341
-0.187292
-0.205529
-0.220784
-0.235548
-0.25062
-0.0260258
-0.0358219
-0.0527815
-0.0737014
-0.0944351
-0.121568
-0.122939
-0.127397
-0.14247
-0.153793
-0.160323
-0.158375
-0.161296
-0.169592
-0.233489
-0.257022
-0.268487
-0.277741
-0.287537
-0.298287
-0.0289701
-0.0533865
-0.0630227
-0.074611
-0.0884727
-0.103103
-0.122909
-0.153371
-0.195636
-0.248629
-0.294792
-0.340423
-0.380954
-0.420845
-0.452461
-0.470496
-0.468959
-0.459054
-0.444096
-0.433969
-0.0113186
-0.042801
-0.0563344
-0.067382
-0.0831555
-0.101936
-0.1296
-0.175889
-0.240514
-0.308388
-0.36632
-0.413926
-0.454042
-0.492865
-0.527672
-0.558189
-0.579651
-0.591831
-0.592559
-0.587378
-0.0373559
-0.0548729
-0.0574399
-0.066395
-0.0812937
-0.0984462
-0.125214
-0.160575
-0.212839
-0.285762
-0.365524
-0.432206
-0.483889
-0.525389
-0.561149
-0.594314
-0.624857
-0.651443
-0.67328
-0.689392
-0.0366443
-0.0495477
-0.0476864
-0.0606861
-0.0766228
-0.0992804
-0.129207
-0.161273
-0.200151
-0.250288
-0.315434
-0.392371
-0.466781
-0.52714
-0.577403
-0.620612
-0.657906
-0.689657
-0.718493
-0.743745
-0.0363386
-0.0454699
-0.0615312
-0.0807704
-0.0995738
-0.117492
-0.144103
-0.173944
-0.212602
-0.259215
-0.310987
-0.360696
-0.409823
-0.458396
-0.508547
-0.554953
-0.596624
-0.630864
-0.658741
-0.682876
-0.0274751
-0.0442644
-0.06458
-0.091217
-0.117506
-0.144688
-0.173845
-0.204973
-0.238938
-0.273391
-0.307704
-0.335276
-0.362124
-0.391337
-0.425924
-0.463614
-0.500207
-0.528711
-0.546641
-0.557459
-0.0436874
-0.0414762
-0.0538713
-0.0693178
-0.086347
-0.107683
-0.133408
-0.169287
-0.210367
-0.251245
-0.286485
-0.316007
-0.341112
-0.363768
-0.384641
-0.404413
-0.423403
-0.442956
-0.463779
-0.486651
-0.00651293
-0.00251966
-0.0025903
-0.00355325
-0.0112421
-0.0138741
-0.025121
-0.025032
-0.0285811
-0.030293
-0.0327395
-0.0343695
-0.0366664
-0.0400851
-0.0458135
-0.0545776
-0.0665342
-0.0826487
-0.107779
-0.138513
-0.00500795
-0.00631167
-0.0100364
-0.0109657
-0.026791
-0.0324862
-0.0491672
-0.0573975
-0.0704076
-0.0791179
-0.0875665
-0.0909543
-0.0917661
-0.0879918
-0.0868338
-0.0928886
-0.10962
-0.134812
-0.163856
-0.166752
-0.0116452
-0.0225066
-0.0332883
-0.0334128
-0.0400657
-0.0419808
-0.0449492
-0.0488108
-0.0593894
-0.0726683
-0.0876675
-0.097932
-0.102336
-0.0979753
-0.0883768
-0.081494
-0.0842759
-0.092896
-0.105872
-0.107087
-0.0265323
-0.0234605
-0.019387
-0.0158936
-0.0113207
-0.0118522
-0.0149123
-0.0202936
-0.028278
-0.0400513
-0.0567056
-0.0739231
-0.0857585
-0.084699
-0.0762774
-0.0701729
-0.0745179
-0.0852127
-0.0955267
-0.0927017
-0.00626283
-0.0134453
-0.0171211
-0.0134291
-0.0135096
-0.0113951
-0.0139494
-0.0165323
-0.0209178
-0.0257489
-0.03408
-0.0470329
-0.0657921
-0.0744152
-0.0742517
-0.0709114
-0.0680605
-0.0694167
-0.0744495
-0.0803578
-0.00122436
-0.00422419
-0.0112491
-0.0162992
-0.0210717
-0.0192251
-0.0234773
-0.0260732
-0.0314544
-0.033529
-0.0338355
-0.0368248
-0.051235
-0.0732103
-0.0909049
-0.0928155
-0.0816879
-0.0702215
-0.0667831
-0.0743274
-0.00305578
-0.00600247
-0.0128355
-0.021866
-0.0350201
-0.0428456
-0.0531359
-0.054839
-0.0447454
-0.0299189
-0.0218886
-0.0229488
-0.0305743
-0.0445664
-0.0655616
-0.0955524
-0.118899
-0.115952
-0.101567
-0.0975251
-0.00313495
-0.00547033
-0.0116884
-0.0198709
-0.0343126
-0.0438629
-0.0531272
-0.063878
-0.0454373
-0.0225901
-0.0161462
-0.0174443
-0.0233634
-0.0348145
-0.0544306
-0.0693179
-0.0762939
-0.0741258
-0.0724476
-0.0768572
-0.00105148
-0.00460925
-0.0129793
-0.0277405
-0.0564393
-0.0547728
-0.0528064
-0.0594511
-0.0452632
-0.0241266
-0.0165014
-0.0151448
-0.0194897
-0.0298265
-0.0467464
-0.0456955
-0.0459127
-0.0433427
-0.0434478
-0.0481259
-0.00140702
-0.012286
-0.013659
-0.0141749
-0.0267531
-0.0306261
-0.0408942
-0.0513277
-0.0492081
-0.0561941
-0.0492738
-0.033919
-0.022856
-0.0227289
-0.0355187
-0.0398168
-0.0377125
-0.0351997
-0.0346491
-0.0373843
-0.0124995
-0.0166735
-0.0264324
-0.0358674
-0.0584834
-0.0530287
-0.050467
-0.0649784
-0.0716812
-0.080971
-0.094016
-0.106421
-0.109492
-0.0987441
-0.0856667
-0.0732771
-0.0644311
-0.0574246
-0.0533857
-0.0517003
-0.0120638
-0.00846303
-0.00862264
-0.0131083
-0.0306985
-0.0400047
-0.0510732
-0.0629237
-0.0556239
-0.0413154
-0.0649123
-0.0865398
-0.105545
-0.115318
-0.103381
-0.0787665
-0.0787568
-0.0773682
-0.0745741
-0.0704347
-0.0107679
-0.0234505
-0.0227405
-0.0240644
-0.0398909
-0.0367001
-0.0467294
-0.0459688
-0.032409
-0.034303
-0.0431661
-0.0548286
-0.0657735
-0.0717659
-0.0551371
-0.0580161
-0.0618043
-0.0643493
-0.06472
-0.063251
-0.0027774
-0.0126435
-0.0125587
-0.0111764
-0.017345
-0.019445
-0.0306178
-0.0355931
-0.0423982
-0.0478875
-0.0575035
-0.0692357
-0.0755694
-0.0744388
-0.0702565
-0.0676427
-0.0679038
-0.0688887
-0.0693762
-0.0704428
-0.0156275
-0.0137354
-0.00973648
-0.00568406
-0.0101158
-0.0169323
-0.035307
-0.0428891
-0.0510296
-0.0521666
-0.0556877
-0.0565868
-0.0591767
-0.0585868
-0.0607944
-0.065498
-0.0724148
-0.078417
-0.0841805
-0.0925776
-0.0123759
-0.0274284
-0.0136093
-0.00980693
-0.0118926
-0.0201945
-0.0385152
-0.0554321
-0.0790003
-0.0834674
-0.0771574
-0.0646675
-0.0559937
-0.048846
-0.0472233
-0.0489747
-0.054667
-0.0612477
-0.0706147
-0.0832394
-0.0226327
-0.0066867
-0.00342162
-0.00492
-0.00996644
-0.0193249
-0.0358097
-0.0493707
-0.0683917
-0.0769171
-0.0858509
-0.0755158
-0.0575765
-0.0472799
-0.0440126
-0.043895
-0.0453021
-0.0474016
-0.0508265
-0.0575665
-0.0234105
-0.00384541
-0.00513072
-0.00863736
-0.0144755
-0.02196
-0.0349419
-0.0438213
-0.0566032
-0.0554101
-0.0513555
-0.0432652
-0.0399326
-0.0389141
-0.038849
-0.0387417
-0.0384736
-0.0379928
-0.0375622
-0.0381588
-0.0121961
-0.00871398
-0.0117859
-0.0186717
-0.0359671
-0.041555
-0.0571085
-0.060078
-0.0638779
-0.0593799
-0.0549964
-0.0516688
-0.0500791
-0.0489953
-0.0476994
-0.0455817
-0.0429209
-0.0401672
-0.0379567
-0.0366332
-0.00860833
-0.00963328
-0.014588
-0.0212579
-0.0389682
-0.0563513
-0.0792635
-0.10082
-0.120575
-0.133558
-0.142531
-0.146653
-0.148176
-0.146437
-0.144307
-0.144313
-0.149049
-0.15948
-0.174821
-0.189014
-0.00192173
-0.00293165
-0.00301228
-0.00405025
-0.00837381
-0.0096896
-0.0138083
-0.0142013
-0.0160962
-0.0168025
-0.0183656
-0.0203605
-0.0237392
-0.0288474
-0.036309
-0.0466875
-0.0606225
-0.0783804
-0.100435
-0.123426
-0.0016081
-0.00446194
-0.00626087
-0.00895309
-0.0162282
-0.0189496
-0.0261319
-0.0286787
-0.0338371
-0.0348023
-0.0363251
-0.0352541
-0.0349302
-0.0346614
-0.0379251
-0.045505
-0.0576803
-0.0713759
-0.0812295
-0.0722061
-0.00367599
-0.00716539
-0.00928368
-0.0118516
-0.0163598
-0.01875
-0.0235652
-0.0289839
-0.0361042
-0.0410667
-0.0444527
-0.0432888
-0.0404913
-0.0361505
-0.0333605
-0.0336838
-0.0365633
-0.0397154
-0.0423302
-0.0401304
-0.0167891
-0.0141333
-0.00723933
-0.00599946
-0.0073636
-0.0110542
-0.0151839
-0.0200784
-0.024674
-0.0289029
-0.0323815
-0.0338736
-0.0335422
-0.0305535
-0.0283721
-0.0286485
-0.0309798
-0.0334407
-0.035016
-0.0341072
-0.00269111
-0.00493093
-0.00598073
-0.00582846
-0.00745167
-0.00875284
-0.010471
-0.0122143
-0.0146157
-0.0173957
-0.0204968
-0.0232388
-0.0266385
-0.0271698
-0.0271843
-0.0279455
-0.0296358
-0.0319072
-0.0342827
-0.036307
-0.000470056
-0.00285793
-0.00640457
-0.00754749
-0.00978514
-0.00922143
-0.0109706
-0.0109408
-0.0121389
-0.0132235
-0.0152304
-0.0183937
-0.0237766
-0.0299421
-0.0335465
-0.0333467
-0.0331097
-0.0354957
-0.0404193
-0.0472309
-0.00178932
-0.00593219
-0.0103271
-0.0135647
-0.0188283
-0.0188148
-0.0200942
-0.0173477
-0.0131852
-0.0111906
-0.0126017
-0.016281
-0.0216362
-0.0285683
-0.0372738
-0.0470526
-0.0508255
-0.0477033
-0.0475641
-0.0527609
-0.000784937
-0.00337784
-0.00818692
-0.0142881
-0.0216714
-0.0216217
-0.0234118
-0.0197506
-0.0114098
-0.0084375
-0.00950153
-0.0123857
-0.016788
-0.0225506
-0.0260164
-0.0300895
-0.0327011
-0.035449
-0.0402688
-0.0466566
-0.000554042
-0.00332449
-0.00874324
-0.0142273
-0.0247759
-0.0221423
-0.020597
-0.0190577
-0.012645
-0.00961203
-0.00856902
-0.0095716
-0.0120987
-0.0156393
-0.0190911
-0.0190179
-0.0214745
-0.0250059
-0.0301057
-0.0361214
-0.00137911
-0.00554171
-0.00763652
-0.00812488
-0.0137661
-0.0149778
-0.0181217
-0.0223204
-0.0250274
-0.0269725
-0.0239692
-0.0186849
-0.0154916
-0.0157885
-0.0170704
-0.0170956
-0.0181432
-0.0204439
-0.0239749
-0.0283729
-0.00507962
-0.0121182
-0.0190022
-0.0201525
-0.0300855
-0.023699
-0.024017
-0.0289834
-0.0316703
-0.0396736
-0.0459983
-0.0493224
-0.0499228
-0.044683
-0.0381732
-0.035605
-0.0345792
-0.0346588
-0.0348217
-0.0345402
-0.00543175
-0.0051898
-0.00957106
-0.0134328
-0.0228444
-0.0250212
-0.0292578
-0.0298477
-0.0220449
-0.0261927
-0.0357975
-0.0410166
-0.0446707
-0.0477996
-0.0477407
-0.044601
-0.045479
-0.0444402
-0.041543
-0.0377615
-0.00516147
-0.00807796
-0.0107237
-0.0137508
-0.0200933
-0.0165006
-0.0186434
-0.0170577
-0.0167717
-0.0190109
-0.0216772
-0.0242981
-0.0263274
-0.0280371
-0.0288031
-0.0314536
-0.0329552
-0.0331426
-0.0324034
-0.0312961
-0.000887861
-0.00396416
-0.00603245
-0.00740568
-0.0100737
-0.0108501
-0.0146229
-0.0160166
-0.0181695
-0.0201894
-0.0230063
-0.0254375
-0.0268355
-0.0274227
-0.0282997
-0.029543
-0.0309813
-0.0321115
-0.0330341
-0.0342171
-0.000451818
-0.00266933
-0.00371213
-0.00421778
-0.00700415
-0.0105294
-0.0165939
-0.01832
-0.0194593
-0.0193745
-0.0199895
-0.0203954
-0.0216971
-0.0230365
-0.02526
-0.0278031
-0.0306847
-0.0332852
-0.0358101
-0.0387055
-0.00432277
-0.0101243
-0.0033503
-0.00405054
-0.00822301
-0.014041
-0.0225183
-0.0267666
-0.0314263
-0.0275134
-0.0236611
-0.0204964
-0.0195833
-0.019671
-0.0208675
-0.0224915
-0.0246087
-0.0266571
-0.0290555
-0.0317115
-0.0216483
-0.00487708
-0.00200419
-0.00348692
-0.00774621
-0.0138058
-0.0217449
-0.0255361
-0.0306507
-0.0291206
-0.0275565
-0.022693
-0.0196024
-0.0185127
-0.018491
-0.0188188
-0.0193099
-0.0198142
-0.020521
-0.0215694
-0.00245171
-0.00205747
-0.00306358
-0.00638786
-0.011348
-0.016652
-0.0218392
-0.0236407
-0.0253751
-0.0235532
-0.0221827
-0.0207595
-0.0197858
-0.0189434
-0.0183149
-0.0178607
-0.0176259
-0.0175208
-0.0175564
-0.0176415
-0.00935183
-0.00674707
-0.00848786
-0.0145278
-0.0232838
-0.0284233
-0.0338036
-0.0347499
-0.0352934
-0.0340031
-0.0334836
-0.0323172
-0.0313174
-0.0296315
-0.0278929
-0.0262785
-0.0254777
-0.0256638
-0.0270334
-0.0289289
-0.0104772
-0.00892638
-0.014124
-0.0203095
-0.0317753
-0.0445181
-0.0601576
-0.0718178
-0.0802675
-0.084073
-0.0857114
-0.0849857
-0.0830139
-0.0799795
-0.0772091
-0.0757225
-0.0762241
-0.079024
-0.0836372
-0.0881612
-0.000738726
-0.00252679
-0.00302838
-0.00445649
-0.0071322
-0.00759156
-0.00941376
-0.00946882
-0.0108411
-0.0120506
-0.0143629
-0.0174172
-0.0216861
-0.0273338
-0.0346509
-0.0440892
-0.0561131
-0.0705376
-0.0863589
-0.0967883
-0.000878684
-0.00233874
-0.00420667
-0.00668619
-0.0106344
-0.0117894
-0.0150361
-0.0144073
-0.0160111
-0.0155785
-0.0166198
-0.0172978
-0.0189364
-0.0208728
-0.0238025
-0.0273998
-0.031679
-0.0352178
-0.0369068
-0.0333531
-0.00131695
-0.00263487
-0.00419788
-0.00697018
-0.0101462
-0.0126449
-0.0162087
-0.0179506
-0.0200428
-0.0198892
-0.0200847
-0.0190741
-0.0186861
-0.0182965
-0.0184788
-0.0190916
-0.0198718
-0.0204257
-0.020711
-0.0198969
-0.00564852
-0.00382623
-0.00366921
-0.00531547
-0.00808141
-0.0111856
-0.013116
-0.014582
-0.0153429
-0.0156712
-0.0162497
-0.0163847
-0.0166912
-0.0167065
-0.0169624
-0.0173553
-0.0177107
-0.0177928
-0.0176137
-0.0170696
-0.00168218
-0.0028697
-0.00445723
-0.00575308
-0.00698773
-0.00799827
-0.00840964
-0.00936938
-0.0101415
-0.0111665
-0.012339
-0.0134782
-0.0150231
-0.0160196
-0.0170067
-0.0177616
-0.0181728
-0.0183021
-0.0182799
-0.0182022
-0.000489873
-0.00270454
-0.00495048
-0.00529462
-0.00609051
-0.00577342
-0.00626313
-0.00671327
-0.00770313
-0.0088162
-0.0103586
-0.0121756
-0.0145845
-0.0170458
-0.0190677
-0.020663
-0.0222099
-0.0237313
-0.0252571
-0.0267629
-0.000243785
-0.00331517
-0.0063349
-0.00716273
-0.00861025
-0.00712316
-0.00716325
-0.00685316
-0.00718497
-0.00831377
-0.0101025
-0.0123204
-0.0149565
-0.0180331
-0.0217473
-0.0254081
-0.0273116
-0.0283263
-0.0299777
-0.031863
-0.000807826
-0.0036767
-0.0079585
-0.00969772
-0.011495
-0.00875625
-0.00848689
-0.00684344
-0.00631776
-0.0071854
-0.00870098
-0.0105889
-0.0128076
-0.0153484
-0.0182041
-0.0208844
-0.023303
-0.02557
-0.0275625
-0.0289406
-0.000914794
-0.00424851
-0.00750325
-0.0086603
-0.0109114
-0.00920163
-0.00814585
-0.0075913
-0.00722628
-0.00729086
-0.0078728
-0.00898354
-0.0104234
-0.012087
-0.0140822
-0.0161287
-0.0186803
-0.0210833
-0.0230932
-0.0242977
-0.00232072
-0.00492572
-0.00638145
-0.00769934
-0.0102486
-0.0106698
-0.0116175
-0.0141338
-0.0156579
-0.0156402
-0.0140774
-0.0121356
-0.0108868
-0.0104795
-0.0108191
-0.0140377
-0.0156553
-0.0173584
-0.0188997
-0.0198137
-0.00815793
-0.0103222
-0.012379
-0.0129486
-0.0161113
-0.0152724
-0.0167073
-0.0193299
-0.0217908
-0.024867
-0.0277881
-0.0282413
-0.0256207
-0.0222253
-0.0219729
-0.0228273
-0.0214805
-0.0202585
-0.0194185
-0.0186756
-0.00548012
-0.00484453
-0.00866342
-0.0112541
-0.0151041
-0.0154913
-0.0159368
-0.0161026
-0.0181519
-0.0215179
-0.0231187
-0.0240512
-0.0254495
-0.0290276
-0.0322268
-0.024318
-0.0220614
-0.0199516
-0.0183871
-0.0173065
-0.00202385
-0.00529065
-0.00829163
-0.0101904
-0.0118726
-0.0110429
-0.012019
-0.012744
-0.013244
-0.0142046
-0.0151102
-0.0161114
-0.0171811
-0.0183943
-0.016701
-0.0168978
-0.0167812
-0.0166108
-0.0165216
-0.0165917
-0.00109561
-0.00377657
-0.00531298
-0.00622823
-0.00776796
-0.00891059
-0.0109222
-0.0115461
-0.0124212
-0.0130131
-0.0138538
-0.0145105
-0.0150443
-0.0154835
-0.0160474
-0.0166451
-0.0172476
-0.0177626
-0.0181797
-0.0187137
-0.000359566
-0.00257698
-0.00362302
-0.00466557
-0.00710124
-0.00949683
-0.011361
-0.0116346
-0.0118325
-0.0118765
-0.0123816
-0.0127778
-0.0134767
-0.0140881
-0.0148957
-0.0156325
-0.0164107
-0.0169679
-0.0174606
-0.018033
-0.00178217
-0.00357907
-0.00267253
-0.00436777
-0.00809034
-0.0111681
-0.0137987
-0.0138735
-0.0142117
-0.0128537
-0.0123253
-0.0120865
-0.0123016
-0.0125249
-0.0129061
-0.0132093
-0.0135624
-0.0137658
-0.0140638
-0.0145048
-0.00243876
-0.00169489
-0.00194962
-0.00419972
-0.00830669
-0.0121326
-0.0147863
-0.0149396
-0.0152664
-0.013871
-0.0131998
-0.012355
-0.0120474
-0.0119712
-0.0119677
-0.011963
-0.0119629
-0.0119699
-0.0120408
-0.0122953
-0.00100224
-0.00186927
-0.00353073
-0.00797458
-0.0121428
-0.0155205
-0.0168771
-0.0170817
-0.0167683
-0.0158717
-0.0151036
-0.0144643
-0.0141257
-0.0140117
-0.0141338
-0.0143551
-0.0146357
-0.0148625
-0.0150655
-0.0150787
-0.00473228
-0.0041607
-0.0082728
-0.0156245
-0.0207665
-0.0241083
-0.0265557
-0.0263912
-0.0264048
-0.0252842
-0.0245008
-0.0231065
-0.0217576
-0.0204136
-0.0196467
-0.0195883
-0.0203193
-0.0215427
-0.0230927
-0.0246498
-0.00417711
-0.00749211
-0.0144352
-0.022531
-0.0309188
-0.0378053
-0.0453285
-0.0485067
-0.0502867
-0.0496768
-0.0487402
-0.0468941
-0.0446967
-0.0420588
-0.0396263
-0.0377454
-0.0368114
-0.0368257
-0.037535
-0.0385073
-0.00102022
-0.00256662
-0.00282449
-0.00465628
-0.00663733
-0.0076321
-0.00878866
-0.00978833
-0.0110904
-0.0126484
-0.014539
-0.0167097
-0.019329
-0.0224478
-0.026213
-0.0307426
-0.0358177
-0.0412195
-0.0448781
-0.04222
-0.00105464
-0.00303602
-0.00455059
-0.00622208
-0.00799202
-0.0085247
-0.00966911
-0.00976101
-0.0104738
-0.0106886
-0.0112233
-0.0115246
-0.0120279
-0.0125138
-0.0132196
-0.0140288
-0.0149167
-0.0156956
-0.0163398
-0.0158224
-0.00416887
-0.00336394
-0.00542734
-0.00703784
-0.00870781
-0.00963764
-0.0107652
-0.0109523
-0.0115871
-0.0115774
-0.0118278
-0.0117242
-0.0117309
-0.0116447
-0.0117105
-0.0118849
-0.0121508
-0.0124997
-0.0129748
-0.0134353
-0.00146865
-0.00219369
-0.00444506
-0.00688472
-0.00833394
-0.00922225
-0.00968043
-0.0101255
-0.0105794
-0.0108876
-0.0112014
-0.0112789
-0.0113512
-0.0113025
-0.0113581
-0.0115498
-0.0118703
-0.0123125
-0.012854
-0.0134078
-0.000556848
-0.00206051
-0.0041616
-0.00562575
-0.00639394
-0.00732167
-0.00788538
-0.00879884
-0.00949597
-0.0101586
-0.0106751
-0.0109944
-0.0112959
-0.0113896
-0.0115433
-0.0117038
-0.0119648
-0.012351
-0.0128503
-0.0133904
-0.000504178
-0.00262418
-0.00349179
-0.00394258
-0.00475113
-0.0057196
-0.00663907
-0.00771243
-0.00868753
-0.00962506
-0.0104598
-0.0111552
-0.0118221
-0.0123332
-0.0127193
-0.0129786
-0.0132171
-0.013514
-0.0138975
-0.014383
-0.00107919
-0.00328671
-0.00372823
-0.00395787
-0.00470995
-0.00529709
-0.00628649
-0.00735795
-0.00841693
-0.00944631
-0.010413
-0.01133
-0.0122136
-0.0130586
-0.0139266
-0.0145865
-0.0147768
-0.0147336
-0.0148614
-0.0151892
-0.00116164
-0.00334795
-0.00527269
-0.00511925
-0.00560931
-0.00555771
-0.00577658
-0.00667664
-0.00769132
-0.00875086
-0.00971464
-0.0106513
-0.0115114
-0.0123735
-0.012701
-0.0131194
-0.0133091
-0.0134072
-0.0135396
-0.013804
-0.00264849
-0.00512608
-0.00557855
-0.00622416
-0.00686712
-0.00632994
-0.00606656
-0.00669614
-0.00740755
-0.00811009
-0.00892575
-0.00976053
-0.0105962
-0.0113325
-0.011971
-0.0120308
-0.0122149
-0.0122248
-0.0122758
-0.0124423
-0.00084463
-0.00338247
-0.00579798
-0.00763531
-0.00875597
-0.00896531
-0.0092248
-0.00999919
-0.0102946
-0.0102257
-0.00994891
-0.0097548
-0.00998636
-0.0104923
-0.0108161
-0.0108935
-0.0109328
-0.010983
-0.0111433
-0.0114095
-0.015347
-0.00703148
-0.00867831
-0.00995423
-0.0108127
-0.0116938
-0.0125739
-0.0135653
-0.0143389
-0.015527
-0.016475
-0.0163025
-0.0153589
-0.014168
-0.0120435
-0.0108367
-0.0106599
-0.0106316
-0.0108484
-0.0111878
-0.0045181
-0.00408199
-0.0074194
-0.00974592
-0.0110251
-0.0117133
-0.0118852
-0.0125336
-0.0129606
-0.0136116
-0.0144055
-0.015517
-0.0162582
-0.0158961
-0.011901
-0.0102005
-0.0101852
-0.0104116
-0.0108924
-0.0115047
-0.0064666
-0.00581394
-0.00761956
-0.00920163
-0.00987605
-0.00978572
-0.010195
-0.0102363
-0.0101085
-0.010234
-0.0102548
-0.0102584
-0.0100353
-0.00972715
-0.00948778
-0.0098058
-0.0102281
-0.0108144
-0.0115491
-0.0123932
-0.00053288
-0.0024651
-0.00494279
-0.0072683
-0.00849974
-0.00893999
-0.00928486
-0.00901004
-0.00899496
-0.00891817
-0.0089002
-0.00890608
-0.00898349
-0.009197
-0.00957197
-0.0100756
-0.0106997
-0.0114421
-0.0122983
-0.0132426
-0.00179214
-0.0021494
-0.00401163
-0.00662383
-0.00822025
-0.00865444
-0.00880429
-0.00856273
-0.00852621
-0.00843203
-0.00846839
-0.0084981
-0.0086773
-0.00895441
-0.00940517
-0.00997669
-0.010702
-0.0115383
-0.0125179
-0.013525
-0.00105194
-0.00223364
-0.00347143
-0.00647792
-0.00848906
-0.00899419
-0.00907959
-0.00884965
-0.00876852
-0.00852837
-0.00845602
-0.0084417
-0.00858781
-0.00884288
-0.00927628
-0.00985133
-0.010596
-0.0114812
-0.0125099
-0.0135041
-0.000370002
-0.0015957
-0.00374714
-0.00746657
-0.0092373
-0.0097225
-0.00967662
-0.00946474
-0.00934577
-0.00911511
-0.00900264
-0.0089392
-0.00900458
-0.0092352
-0.00961248
-0.0101546
-0.0108548
-0.0117074
-0.0126853
-0.0136031
-0.00206758
-0.0029072
-0.00657045
-0.0100274
-0.0110818
-0.0114785
-0.0111145
-0.0109156
-0.0107449
-0.0107003
-0.0107431
-0.0108098
-0.0108643
-0.010906
-0.0109928
-0.0111458
-0.0114298
-0.0118386
-0.0124255
-0.0130527
-0.00129708
-0.0043336
-0.0104415
-0.0148513
-0.0168652
-0.0170832
-0.0171904
-0.0160143
-0.0152279
-0.014239
-0.0139343
-0.014067
-0.0147048
-0.0154968
-0.0162237
-0.0167265
-0.016982
-0.0169772
-0.0168153
-0.0164081
-0.00239039
-0.00467117
-0.0106108
-0.01764
-0.0236406
-0.0253507
-0.0277785
-0.026832
-0.0261855
-0.0239925
-0.0218313
-0.0192009
-0.0172696
-0.0160545
-0.0159836
-0.0167353
-0.0181569
-0.0199719
-0.0218861
-0.0236899
-0.0251132
-0.0398409
-0.0442816
-0.0187819
-0.017349
-0.0277383
-0.0289565
-0.0199757
-0.0452928
-0.0467018
-0.0166972
-0.0147663
-0.0292231
-0.0288965
-0.0450503
-0.0287057
-0.0371183
-0.0284654
-0.0310465
-0.0250256
-0.0275947
-0.0482476
-0.0394196
-0.0443624
-0.0318117
-0.0326953
-0.0281732
-0.029698
-0.133494
-0.12847
-0.121298
-0.127232
-0.130428
-0.124782
-0.122328
-0.130069
-0.122106
-0.124719
-0.130273
-0.122069
-0.12237
-0.121347
-0.120742
-0.124047
-0.119912
-0.116535
-0.0890439
-0.119062
-0.106495
-0.109486
-0.118586
-0.113881
-0.076917
-0.0480109
-0.101322
-0.0824169
-0.0994107
-0.111488
-0.102602
-0.0422875
-0.0358078
-0.0754971
-0.0580084
-0.0953794
-0.0996482
-0.0926227
-0.0363787
-0.0436122
-0.0540761
-0.049349
-0.0992559
-0.0910092
-0.0888372
-0.047152
-0.0617503
-0.0498766
-0.057213
-0.116654
-0.0892231
-0.0948683
-0.0682836
-0.0931366
-0.0617318
-0.0810253
-0.100651
-0.0899652
-0.0973542
-0.0915825
-0.0997935
-0.0846922
-0.093853
-0.120659
-0.102226
-0.112648
-0.105414
-0.119035
-0.0992075
-0.111819
-0.118233
-0.112331
-0.105998
-0.119539
-0.114571
-0.112175
-0.108048
-0.115411
-0.10481
-0.107332
-0.112403
-0.103082
-0.107309
-0.111035
-0.106732
-0.109741
-0.116384
-0.0985104
-0.0817499
-0.113967
-0.122421
-0.0947811
-0.117214
-0.113599
-0.0761234
-0.0634447
-0.123786
-0.12124
-0.0881915
-0.110686
-0.100037
-0.0611636
-0.0615409
-0.118454
-0.107101
-0.0906988
-0.0966024
-0.0894684
-0.0642343
-0.0792951
-0.103324
-0.0959298
-0.106598
-0.10291
-0.0942112
-0.106664
-0.106552
-0.104446
-0.0974124
-0.109817
-0.0927034
-0.0928288
-0.108473
-0.110512
-0.0957197
-0.0949623
-0.101087
-0.0938856
-0.0973071
-0.108906
-0.103734
-0.0956535
-0.0964087
-0.101132
-0.0978888
-0.0960889
-0.102807
-0.10508
-0.0959978
-0.0949745
-0.112875
-0.0948894
-0.0957929
-0.107936
-0.119885
-0.0953202
-0.102732
-0.118899
-0.0984404
-0.110714
-0.123504
-0.12883
-0.107532
-0.123707
-0.110245
-0.115069
-0.125383
-0.128519
-0.122408
-0.128435
-0.138602
-0.0962601
-0.127716
-0.131855
-0.119157
-0.109194
-0.140769
-0.144237
-0.0798513
-0.0883752
-0.0920183
-0.0756055
-0.0780689
-0.0849594
-0.0908719
-0.0894803
-0.0954974
-0.112932
-0.079891
-0.0892178
-0.0947375
-0.111777
-0.100376
-0.119498
-0.131912
-0.0925001
-0.0962154
-0.115519
-0.114396
-0.0999623
-0.133972
-0.135307
-0.0954715
-0.095174
-0.112864
-0.116554
-0.0955304
-0.133086
-0.126851
-0.0954619
-0.101097
-0.118314
-0.121394
-0.107445
-0.125568
-0.128133
-0.105178
-0.120594
-0.122815
-0.130125
-0.124271
-0.129803
-0.13842
-0.125555
-0.137269
-0.132812
-0.141818
-0.135113
-0.142225
-0.155963
-0.140125
-0.14626
-0.144894
-0.152982
-0.0595344
-0.0547834
-0.0588381
-0.043148
-0.0348407
-0.0374189
-0.0305315
-0.0513687
-0.0577036
-0.0470192
-0.0314032
-0.0228455
-0.0294867
-0.0288759
-0.0272799
-0.0445879
-0.0443478
-0.0207424
-0.0154864
-0.0291057
-0.0287458
-0.0178386
-0.0438385
-0.0373706
-0.0138608
-0.0105718
-0.027896
-0.0234452
-0.0148953
-0.0341211
-0.0245931
-0.010129
-0.010387
-0.0216913
-0.0171854
-0.0179256
-0.0220507
-0.0176675
-0.0109112
-0.0135454
-0.0161527
-0.014907
-0.02656
-0.0173255
-0.0197522
-0.0147513
-0.0193962
-0.0150856
-0.0170798
-0.0419381
-0.0217606
-0.0313634
-0.0213712
-0.0279212
-0.0181108
-0.021557
-0.0490542
-0.0303558
-0.0442029
-0.0284066
-0.0277914
-0.0244768
-0.0278859
-0.0490766
-0.0498743
-0.0624861
-0.0282923
-0.0310178
-0.0297748
-0.0355202
-0.0551525
-0.0668693
-0.0795623
-0.032096
-0.0344744
-0.037288
-0.0433083
-0.0523429
-0.0833365
-0.0922234
-0.0346
-0.0322845
-0.0456926
-0.0513927
-0.037814
-0.0946636
-0.10004
-0.0307699
-0.0253452
-0.0527273
-0.0550116
-0.0247266
-0.10055
-0.0947846
-0.0235562
-0.0195969
-0.0551136
-0.0522876
-0.0216119
-0.0907523
-0.076249
-0.0189069
-0.0188661
-0.0504425
-0.0437932
-0.0304651
-0.0717802
-0.0633854
-0.0194227
-0.0218962
-0.0416022
-0.0364632
-0.0602819
-0.0668476
-0.0696539
-0.036629
-0.0347289
-0.0441814
-0.0384219
-0.0711831
-0.0688184
-0.06001
-0.0354051
-0.0368736
-0.0363692
-0.0297197
-0.0776656
-0.0553503
-0.0466623
-0.0375064
-0.0425029
-0.028277
-0.0289864
-0.090983
-0.0485054
-0.0668028
-0.0452316
-0.0523837
-0.03099
-0.0405034
-0.103446
-0.0730775
-0.0877795
-0.0538948
-0.0578794
-0.043648
-0.0506055
-0.110282
-0.0927621
-0.108116
-0.059238
-0.0609159
-0.0526691
-0.0585751
-0.102236
-0.112283
-0.120731
-0.0604241
-0.0564579
-0.0601508
-0.0640692
-0.0882816
-0.12279
-0.128077
-0.0545867
-0.0486449
-0.0654661
-0.0702986
-0.0608563
-0.0471992
-0.0624294
-0.0413933
-0.0405109
-0.0378088
-0.0349912
-0.0600322
-0.0640685
-0.0520314
-0.0386199
-0.0298735
-0.0323067
-0.0257425
-0.0417873
-0.0452905
-0.0333724
-0.0276988
-0.0269723
-0.0250913
-0.0260115
-0.057401
-0.0341939
-0.0434275
-0.0285057
-0.0364439
-0.0271461
-0.031083
-0.0817316
-0.0487557
-0.0645501
-0.0392833
-0.0455433
-0.0322405
-0.0348608
-0.101405
-0.0684093
-0.0772879
-0.0471831
-0.0516104
-0.0355892
-0.0373592
-0.113453
-0.0805404
-0.08616
-0.052757
-0.0554808
-0.0378035
-0.0384991
-0.120923
-0.0867758
-0.0831485
-0.0565876
-0.0615351
-0.0386912
-0.0399847
-0.0205456
-0.0193366
-0.0206905
-0.0160529
-0.0110116
-0.0141749
-0.0134262
-0.0139501
-0.020744
-0.0208572
-0.00997454
-0.00866617
-0.0138307
-0.0152167
-0.0101004
-0.0210374
-0.0211087
-0.00851244
-0.00802772
-0.0154828
-0.0151749
-0.00862901
-0.0206578
-0.0179094
-0.00789053
-0.00794689
-0.0147586
-0.0132471
-0.00914781
-0.0167918
-0.0139244
-0.00814811
-0.00906911
-0.0127728
-0.0117328
-0.0113526
-0.0132793
-0.0125706
-0.00946977
-0.0108069
-0.0115224
-0.0112796
-0.0146671
-0.012711
-0.0139577
-0.0113263
-0.0129316
-0.0113059
-0.0115671
-0.0185478
-0.0145464
-0.0163305
-0.0135581
-0.0153515
-0.0116844
-0.012017
-0.0214816
-0.0169101
-0.0232385
-0.0141928
-0.0154514
-0.0150725
-0.0184466
-0.0242711
-0.0252436
-0.0300964
-0.0161103
-0.018013
-0.0195901
-0.0226144
-0.0268939
-0.031712
-0.0375469
-0.0184946
-0.0189849
-0.0235569
-0.0262693
-0.0284152
-0.0266704
-0.0331277
-0.0230359
-0.0336534
-0.0227415
-0.0281407
-0.0267392
-0.0226937
-0.0329216
-0.0206148
-0.0319518
-0.0196718
-0.0275323
-0.0159426
-0.0466467
-0.0439495
-0.0141869
-0.0128755
-0.0283884
-0.0256832
-0.0154626
-0.042308
-0.0365725
-0.0125916
-0.0121384
-0.0245594
-0.0211287
-0.017087
-0.0347245
-0.0302495
-0.0120749
-0.0119661
-0.0200854
-0.0176368
-0.0279507
-0.0288677
-0.0288781
-0.0194296
-0.0206732
-0.0201979
-0.0184638
-0.0307479
-0.0276787
-0.0233842
-0.0212704
-0.0231659
-0.0183119
-0.0195742
-0.0370958
-0.0228683
-0.0262371
-0.0239584
-0.0267682
-0.0204982
-0.0239011
-0.0356203
-0.0419378
-0.0366732
-0.0343134
-0.0396064
-0.03613
-0.0331844
-0.0418645
-0.046827
-0.0464886
-0.0390942
-0.0480503
-0.0399925
-0.0406927
-0.0504663
-0.0458397
-0.049903
-0.0326193
-0.0310052
-0.0301546
-0.0312908
-0.0462875
-0.0509657
-0.0538056
-0.0301328
-0.0269993
-0.0316927
-0.0334534
-0.0396014
-0.0548791
-0.0583759
-0.0258815
-0.0228266
-0.0342134
-0.0364963
-0.0312473
-0.0246423
-0.0263753
-0.0204034
-0.0182742
-0.0176883
-0.0157991
-0.0232525
-0.0243358
-0.0187196
-0.017781
-0.0184471
-0.01555
-0.0161529
-0.0240387
-0.0182094
-0.0197821
-0.0193171
-0.0224782
-0.0165728
-0.0177905
-0.0337242
-0.020869
-0.0240142
-0.0234496
-0.0254873
-0.0181423
-0.0189097
-0.0399371
-0.0251098
-0.0273772
-0.0258989
-0.0269113
-0.0191891
-0.0199667
-0.0439042
-0.0279018
-0.0289206
-0.0272298
-0.0281492
-0.0202447
-0.0211379
-0.0468134
-0.0292585
-0.0298589
-0.0285664
-0.0306586
-0.0215512
-0.0232532
-0.0520993
-0.0301652