/*--------------------------------*- C++ -*----------------------------------*\
  =========                 |
  \\      /  F ield         | OpenFOAM: The Open Source CFD Toolbox
   \\    /   O peration     | Website:  https://openfoam.org
    \\  /    A nd           | Version:  10
     \\/     M anipulation  |
\*---------------------------------------------------------------------------*/
FoamFile
{
    format      ascii;
    class       volVectorField;
    location    "7.3";
    object      U;
}
// * * * * * * * * * * * * * * * * * * * * * * * * * * * * * * * * * * * * * //

dimensions      [0 1 -1 0 0 0 0];

internalField   nonuniform List<vector> 
12920
(
(111.983 3.5298 7.60706)
(47.273 1.79758 -23.1392)
(165.339 -7.22387 -8.74285)
(81.3485 -7.07561 -9.16352)
(141.867 -12.5157 0.456642)
(88.7389 -10.4768 -2.13984)
(122.169 -9.97763 1.28179)
(96.0152 -4.14857 -1.24558)
(118.031 -2.09753 -0.388476)
(110.469 1.38381 -1.39831)
(123.362 2.11842 -1.26289)
(123.561 3.89159 -2.02163)
(132.717 4.16501 -2.03202)
(136.376 4.38504 -2.53418)
(144.673 3.29423 -3.85065)
(156.895 1.59607 -5.35774)
(176.056 0.536669 -4.89147)
(190.133 1.0994 -2.59997)
(195.775 0.471572 0.351568)
(188.148 -0.264099 0.734314)
(225.011 48.6882 -21.8711)
(34.8894 93.7436 3.16507)
(181.43 78.8383 -19.2077)
(97.5588 62.0466 -10.7407)
(150.327 40.8311 -2.15947)
(101.126 33.2304 -3.5477)
(129.893 11.7495 1.62856)
(104.866 7.14019 0.981275)
(122.685 -4.63679 2.38565)
(113.864 -5.37837 2.4077)
(123.672 -8.50536 2.93648)
(121.382 -8.28737 2.83689)
(126.396 -8.85009 2.79943)
(127.873 -9.51008 2.08029)
(135.354 -11.2392 1.75947)
(140.546 -13.8058 1.66748)
(147.161 -13.1187 1.86048)
(147.881 -11.8608 2.04206)
(145.785 -6.65577 2.96001)
(128.849 -1.55881 2.47546)
(109.152 104.589 2.06664)
(14.8362 97.7576 19.6739)
(132.649 62.7113 19.0229)
(76.4734 38.5579 6.29047)
(141.662 4.13887 8.49182)
(107.449 4.18556 3.80124)
(137.755 -14.0196 3.29914)
(122.569 -12.4245 1.42277)
(135.375 -19.6713 1.6632)
(127.402 -17.4109 1.4992)
(131.667 -18.6429 2.11507)
(124.856 -15.7494 2.1432)
(123.405 -15.6233 2.10666)
(116.069 -14.7769 1.54528)
(114.502 -15.5157 0.822194)
(111.269 -14.6656 0.0980196)
(111.923 -11.7783 -0.304212)
(110.266 -5.35694 -0.638049)
(108.609 2.55573 -0.227872)
(103.44 4.43602 -0.141972)
(117.873 2.23815 102.073)
(-16.6383 -6.30197 31.3556)
(154.608 0.201502 23.8558)
(87.0857 0.685147 9.48975)
(146.048 -6.39902 1.14054)
(113.931 4.12326 -1.4327)
(138.916 -5.32089 -1.54719)
(124.664 -4.64386 -2.013)
(136.252 -13.1795 -1.03215)
(130.787 -13.9773 -0.880676)
(135.681 -16.3258 0.016257)
(131.875 -13.9516 0.820457)
(128.334 -11.0379 2.10841)
(115.397 -9.55464 1.62304)
(110.579 -10.6833 0.845762)
(103.351 -11.3873 0.248514)
(100.712 -8.98808 -0.265663)
(95.6236 -4.40206 -0.0674084)
(93.1184 2.12008 0.241724)
(90.3248 4.99385 0.0423464)
(216.351 -139.114 -47.4036)
(96.8518 -110.618 5.78452)
(192.666 -71.1541 28.8982)
(115.915 -14.6699 8.4757)
(159.149 -10.6144 5.57213)
(118.954 4.03094 -1.2909)
(140.91 -9.40775 -1.9758)
(127.794 -7.38119 -3.75863)
(140.012 -17.9774 -2.89326)
(135.29 -17.2269 -2.30341)
(139.458 -20.0731 -1.06894)
(136.877 -16.3234 -0.715908)
(133.789 -10.45 1.22196)
(119.019 -7.08287 1.42429)
(109.548 -8.44481 0.950986)
(99.5823 -6.28496 0.638296)
(96.3378 -1.78104 0.332554)
(92.4076 2.7698 0.110882)
(90.4402 6.81344 -0.0116446)
(89.0332 7.2344 -0.185908)
(203.603 -68.0105 23.6189)
(236.111 -102.719 -15.2743)
(269.779 -89.3063 -2.18586)
(222.843 -39.2181 0.802582)
(222.437 -15.9971 7.47996)
(177.274 12.2936 2.48109)
(184.105 6.63837 0.292994)
(174.266 8.15684 -0.675739)
(175.334 -2.00546 0.656203)
(165.913 -5.24146 1.48542)
(156.586 -12.44 1.45557)
(147.185 -7.83908 -0.22523)
(144.125 -0.159142 0.103818)
(137.45 6.14762 1.04829)
(126.657 3.21078 1.96242)
(110.003 -2.17549 1.85935)
(100.695 -3.45522 1.00699)
(94.9148 0.596728 0.420751)
(93.0606 5.97067 -0.0317466)
(93.6815 7.74118 -0.219169)
(206.542 -14.8883 -13.415)
(163.938 -82.9046 -15.9484)
(227.667 -60.6596 -3.79307)
(168.078 -17.405 -3.45765)
(178.539 6.51408 2.1257)
(144.174 14.9008 2.11627)
(143.917 -5.61021 4.40533)
(126.623 -1.52325 4.60282)
(124.835 -13.027 3.76183)
(119.721 -7.3271 1.84023)
(122.23 -8.63062 -0.0135243)
(122.508 -3.90769 -1.33049)
(130.048 -2.73693 -2.48207)
(142.311 2.46898 -2.23763)
(148.199 7.03825 -1.38621)
(146.446 7.88799 0.18584)
(132.285 7.4068 2.72292)
(112.684 7.64108 2.701)
(104.71 8.42646 1.0127)
(102.463 7.84911 0.327427)
(399.245 -189.763 112.464)
(247.096 -77.8428 6.59621)
(253.046 -32.4015 12.8169)
(159.894 -6.02547 6.07874)
(174.842 2.30744 4.54281)
(143.528 20.4489 1.49202)
(145.66 7.44473 0.238113)
(119.802 -10.5352 0.603936)
(104.667 -12.235 0.848538)
(93.105 -20.0865 0.0651306)
(98.9843 -15.7442 -0.445589)
(101.447 -13.7191 -0.724534)
(107.307 -10.4669 -0.847631)
(111.872 -7.92255 -0.676553)
(110.302 5.56431 -1.21306)
(110.065 8.84501 0.0568681)
(105.294 12.6224 0.931459)
(100.586 12.4806 0.660254)
(98.3449 10.7975 0.340273)
(99.0564 8.24776 0.284782)
(205.168 112.452 -58.152)
(10.9021 -12.2326 -29.7317)
(124.328 8.8406 -16.276)
(53.582 0.517333 -2.22354)
(105.045 9.50953 6.23704)
(53.575 6.54032 1.20906)
(82.0298 22.2966 1.58383)
(74.3908 4.63982 -0.343298)
(83.7354 -5.08969 0.210699)
(84.7599 -16.5168 -0.0616289)
(89.9533 -12.7823 -0.283274)
(92.8345 -8.58801 -0.377207)
(95.4826 -5.58203 -0.302189)
(96.4272 -3.64554 -0.190627)
(95.4223 2.70925 0.281958)
(91.7025 10.1015 0.0783444)
(91.5064 11.1954 0.219029)
(92.2532 10.4284 0.0151692)
(93.072 8.23673 -0.315076)
(96.5354 5.70847 -0.174038)
(349.064 333.957 -119.776)
(168.49 145.319 3.55851)
(185.86 47.3274 12.8354)
(103.704 12.277 0.59645)
(146.709 5.28768 4.61616)
(105.831 7.84154 -2.19282)
(114.873 7.81782 0.234031)
(107.369 -0.744913 -1.04268)
(86.9838 -4.37282 -0.204615)
(82.2492 -11.3529 -0.0730444)
(83.3412 -9.22191 -0.0299721)
(88.9316 -3.2137 -0.126388)
(93.8357 -0.0419067 -0.138831)
(95.9651 2.90169 -0.123933)
(94.8749 7.60409 -0.0688456)
(94.4188 10.1414 0.337597)
(95.5292 11.2687 -0.0175579)
(95.9971 10.8295 -0.334982)
(96.9178 8.49181 -0.759243)
(99.1985 5.76323 -0.728805)
(285.793 96.875 186.017)
(139.672 73.5638 46.8737)
(205.579 43.9924 12.7344)
(123.001 13.6442 -0.324083)
(140.174 10.1293 9.86764)
(60.694 11.0588 -0.868734)
(81.8687 16.6811 1.38989)
(95.7344 23.4237 0.0636316)
(102.336 2.94756 0.417951)
(112.172 -10.1434 0.77116)
(98.5586 -12.531 0.539317)
(91.0298 -8.95656 0.395124)
(90.9164 -3.79413 0.268857)
(94.6476 0.422654 0.0527883)
(97.9677 4.9518 0.19268)
(101.342 7.03001 0.689638)
(104.948 10.5736 0.350312)
(107.144 11.1075 -0.119521)
(108.535 9.72513 -0.440973)
(108.725 7.72038 -0.538551)
(250.3 18.9317 186.402)
(220.804 58.9767 16.8929)
(220.277 54.7536 17.1237)
(131.314 36.0297 -8.7346)
(161.615 34.3043 -4.37349)
(120.154 5.15727 1.80657)
(143.217 -4.86267 -0.538143)
(147.241 -8.16741 -0.560972)
(138.89 -14.4857 -0.534676)
(131.14 -17.6129 -0.227308)
(128.844 -5.64205 0.104034)
(117.373 -0.394682 0.082486)
(101.838 -6.33793 0.375585)
(95.0298 -4.81619 0.340779)
(93.4544 -4.04626 0.653983)
(92.5339 0.226658 0.179089)
(98.259 4.82228 -0.104425)
(103.043 8.24426 -0.232383)
(106.198 9.68016 -0.273727)
(106.965 9.01051 -0.287554)
(170.106 -54.0318 -108.24)
(61.7485 84.8788 -2.77744)
(161.437 77.5723 16.3859)
(88.3323 45.6082 2.08185)
(137.141 31.1996 6.67887)
(88.3879 -2.09989 1.13589)
(99.1753 7.2108 -0.0193664)
(74.8905 7.64846 0.608235)
(91.8111 -7.36416 -0.00216865)
(88.785 -9.71287 -0.255344)
(98.0292 -6.70744 -0.553489)
(101.622 -2.46065 -0.101379)
(104.931 -1.79119 0.0498143)
(99.4276 -2.49094 0.478455)
(82.9163 -0.291217 0.117714)
(81.8149 -0.637326 -0.201484)
(82.7296 1.60995 -0.54123)
(87.4258 4.24226 -0.624544)
(91.2259 8.00109 -0.454875)
(94.9644 9.10463 -0.34788)
(92.244 -145.547 88.1826)
(-15.6163 -20.4027 23.9221)
(124.676 19.4059 8.41846)
(83.2007 14.7959 1.52282)
(138.947 10.1439 1.48991)
(114.938 4.08952 -0.396187)
(128.685 19.7116 1.31954)
(110.26 -4.17009 0.60927)
(107.287 1.49414 1.08074)
(91.4287 -9.08678 0.584987)
(91.0479 -0.548644 0.197981)
(83.8924 -3.09697 0.309149)
(82.8892 2.29872 0.379146)
(78.9152 -0.0586721 0.343219)
(78.743 2.1232 0.191117)
(76.8593 1.90554 0.0270579)
(77.0147 3.0148 -0.178235)
(78.5991 3.12067 -0.206237)
(80.3066 5.49196 -0.285546)
(85.6806 7.6264 -0.240137)
(392.309 55.9584 220.711)
(106.881 0.0616485 22.4448)
(167.388 5.37 17.7001)
(74.4444 -2.41332 -0.336929)
(127.219 8.08781 -0.101314)
(92.8588 -1.39456 -1.08184)
(115.734 12.0806 1.84148)
(87.503 2.12107 1.28052)
(86.7809 3.28969 1.42848)
(70.2454 -4.12662 0.126248)
(74.1998 -0.97075 0.0397597)
(70.6183 -1.52531 -0.0844332)
(74.2466 1.20992 0.0692683)
(73.1696 0.683536 0.0224831)
(74.3761 1.27166 0.0171273)
(74.0307 0.975179 0.00838006)
(74.474 1.5762 0.0272093)
(75.2971 1.96848 -0.0319696)
(75.488 3.41943 -0.0879625)
(79.2148 5.10799 0.0380728)
(398.161 79.3747 -181.151)
(219.952 27.8287 -69.9437)
(197.8 19.3157 36.6018)
(65.9564 1.86513 11.4383)
(120.892 8.90589 4.11259)
(86.0012 5.57465 -1.41193)
(117.128 20.0717 0.35602)
(99.1692 13.4417 0.151008)
(105.525 14.1133 2.20471)
(83.5478 0.854235 1.35359)
(82.5776 -0.436335 1.0866)
(73.3708 -3.4741 0.326461)
(76.1228 -0.223825 0.220128)
(73.3968 -0.437809 0.0442546)
(75.3683 1.36633 0.0257335)
(74.2339 1.3451 -0.021234)
(75.0238 2.13653 -0.00346682)
(75.3383 2.25008 -0.0438892)
(75.6264 2.98251 -0.05034)
(78.3037 3.81873 0.0260159)
(5.69984 -209.366 -132.258)
(-134.22 27.6868 -10.3248)
(127.311 4.02097 -9.67718)
(28.4543 -10.2885 -4.58214)
(115.84 -3.52971 -4.96297)
(81.644 -4.02822 -3.53751)
(113.957 6.804 -0.657521)
(96.3618 6.61406 -0.159339)
(108.545 10.8654 1.19956)
(93.6175 8.4112 0.48852)
(93.3442 4.66837 1.61398)
(77.7584 0.950932 1.01789)
(77.228 0.704233 0.250409)
(72.2768 0.353363 -0.0328205)
(73.3277 0.617014 -0.0940157)
(71.9707 0.74695 -0.104774)
(72.7262 0.948755 -0.0791602)
(73.3495 1.37929 -0.104618)
(73.8733 1.76917 -0.101463)
(76.6306 2.49178 -0.0430847)
(-36.2973 -227.02 82.3596)
(-61.8976 -33.3151 -20.195)
(146.052 -19.5158 -0.865815)
(57.453 2.06173 -1.12249)
(128.708 15.3057 0.129306)
(85.2358 12.4354 -1.85836)
(114.478 17.7697 -0.300269)
(92.5407 11.8398 -0.820847)
(105.367 13.7261 0.673671)
(90.0718 9.31598 0.508728)
(92.9494 9.32923 0.603235)
(81.388 6.53229 -0.0836294)
(82.1538 5.40155 -0.346643)
(77.6673 3.72087 -0.516925)
(78.9433 3.11288 -0.437255)
(77.5413 2.42115 -0.377845)
(78.3578 2.06364 -0.285181)
(78.4623 1.81492 -0.253856)
(78.7677 1.55712 -0.244284)
(80.9532 1.78313 -0.240108)
(53.8812 -128.707 -19.7133)
(-22.1241 -25.9562 -27.6203)
(139.575 -29.6889 -15.7425)
(63.2169 -10.1038 -2.7349)
(123.487 1.25886 1.68266)
(65.3125 7.9381 0.164486)
(99.5378 10.5015 1.40605)
(71.2313 13.0715 0.241731)
(93.8311 13.8793 0.658753)
(81.7415 14.6398 0.0844432)
(91.5928 13.0209 0.0893972)
(85.232 11.1646 -0.384296)
(89.0703 8.02869 -0.725814)
(86.1453 6.03401 -0.94381)
(87.782 3.99756 -0.979369)
(86.4329 3.17712 -0.833882)
(87.0209 2.47485 -0.570335)
(86.8954 2.37537 -0.441743)
(86.8522 2.03261 -0.477772)
(88.3741 2.38342 -0.571117)
(33.0133 -138.93 -111.146)
(65.7144 5.01349 -24.7086)
(173.76 20.7983 -9.69019)
(133.926 22.0403 -4.53627)
(178.32 24.4896 3.28908)
(146.682 23.3735 4.91481)
(156.651 14.3853 8.17199)
(125.861 10.1461 6.88376)
(125.17 7.01058 5.74415)
(109.016 9.7708 4.2365)
(113.238 11.1456 3.38153)
(109.924 12.4289 2.69049)
(115.071 12.4745 2.13153)
(116.095 11.8785 1.56507)
(121.362 10.7337 1.02878)
(123.953 9.10365 0.596173)
(127.94 6.82615 0.581922)
(128.835 5.36013 0.841201)
(128.612 4.45846 1.25176)
(127.465 4.57796 1.25483)
(246.066 -93.834 -135.888)
(-35.284 20.4136 -16.6937)
(169.508 9.6724 -29.1447)
(5.43532 10.1895 -16.249)
(121.605 3.25365 -3.68981)
(46.3031 0.466748 -6.70105)
(104.439 -6.02837 1.15361)
(75.7737 -4.86687 -2.53404)
(104.84 -7.32603 0.206867)
(96.7186 -6.47226 -1.10348)
(111.608 -7.36727 -0.0736349)
(111.227 -6.96884 -0.917117)
(120.244 -7.0718 -0.677922)
(123.268 -7.11078 -0.576202)
(131.024 -8.27642 -1.02034)
(135.079 -10.5809 -2.54473)
(144.513 -11.2892 -3.20967)
(153.451 -10.6626 -1.30486)
(161.7 -8.09577 2.92056)
(157.509 -6.42323 3.1478)
(52.9977 119.685 -49.7031)
(-31.0785 59.0948 -14.8399)
(153.05 20.0485 -36.8472)
(24.9351 23.6764 -7.84586)
(127.16 2.747 1.2271)
(63.332 7.98589 -2.17939)
(111.82 -8.56499 3.78139)
(85.0671 -3.83081 1.17152)
(108.152 -10.564 3.51438)
(98.1804 -7.81144 2.71695)
(109.237 -9.5514 3.60551)
(106.047 -8.48083 3.06176)
(111.741 -8.90645 3.09456)
(112.224 -9.02944 1.63129)
(117.55 -9.54113 0.870979)
(119.613 -9.97702 0.0386695)
(122.584 -9.19428 0.367334)
(121.088 -8.05807 0.951441)
(118.388 -2.65031 3.83198)
(109.586 0.836679 2.57048)
(-7.03462 144.567 -104.254)
(-86.217 19.8364 -2.19547)
(119.633 6.85766 14.0306)
(43.2854 0.0663791 5.98455)
(126.964 -20.3046 8.16794)
(84.9172 -7.59073 2.6665)
(119.419 -19.7087 3.82515)
(98.8031 -11.3529 0.97704)
(113.788 -16.441 2.5666)
(103.493 -11.3768 1.98062)
(109.782 -12.5343 3.14813)
(103.21 -10.0011 2.69079)
(104.278 -10.9362 2.75587)
(99.7107 -10.7612 1.79914)
(99.6751 -11.1264 0.997739)
(97.1135 -10.0461 -0.202559)
(97.2313 -6.30626 -0.778508)
(93.7958 -2.03106 -1.18889)
(91.5802 3.23033 -0.466078)
(89.231 4.21902 -0.411846)
(112.009 226.808 -8.45945)
(-77.3129 -10.9105 10.6314)
(157.368 0.957795 -2.31782)
(90.4384 -0.735167 6.40297)
(139.06 -7.25739 -0.153107)
(96.8214 3.44392 -2.38344)
(119.071 -7.2128 -1.11058)
(98.1125 -3.50423 -2.45573)
(110.224 -10.4022 -0.448373)
(101.222 -7.27488 -0.552515)
(106.878 -8.22625 0.947446)
(101.448 -4.712 1.6442)
(101.476 -4.93689 2.70584)
(95.3809 -4.73626 2.08888)
(93.1919 -6.10228 1.21438)
(88.4139 -6.26105 0.168279)
(86.5428 -4.05886 -0.441554)
(82.9461 -1.10851 -0.198385)
(81.6947 2.86658 0.272334)
(80.9895 4.2906 -0.0497401)
(179.21 -70.6222 -151.35)
(-136.379 -59.7094 23.2811)
(156.545 -44.7997 32.8203)
(62.7455 -2.28035 10.8099)
(134.254 -11.0961 8.70279)
(89.0385 -0.886353 -1.84583)
(115.931 -15.9114 -1.44779)
(98.0511 -9.45344 -4.33704)
(109.937 -17.5884 -2.41914)
(102.011 -12.1445 -2.12427)
(106.967 -12.6786 -0.266443)
(101.464 -6.64775 -0.0422827)
(100.748 -4.33681 2.03805)
(93.5695 -3.07868 1.79054)
(89.714 -4.4318 1.43407)
(83.9708 -3.09797 0.954339)
(82.7034 0.039214 0.54602)
(80.5295 3.11961 0.144197)
(79.591 5.75581 -0.0325569)
(79.2514 5.81464 -0.34487)
(203.484 -104.109 -94.9543)
(123.492 -64.681 -35.1822)
(187.617 -74.2064 -4.05069)
(127.86 -15.3046 1.82344)
(159.789 -11.063 10.5086)
(126.107 6.6894 3.18659)
(138.385 -6.60738 1.8292)
(123.864 -5.03877 -0.294954)
(126.857 -12.4795 1.49222)
(119.276 -9.2153 1.42408)
(118.426 -8.02273 1.69138)
(111.339 -1.12451 -0.145722)
(108.816 3.65296 0.690889)
(103.14 6.14974 1.7683)
(98.2158 3.13013 2.75604)
(89.9568 0.382463 2.53)
(85.8995 -0.365387 1.47969)
(82.8627 2.0615 0.61729)
(81.9302 4.96024 0.00248219)
(82.3896 5.56631 -0.288463)
(151.405 -68.1163 23.7365)
(79.5382 -54.1688 3.75609)
(178.455 -36.8925 4.74875)
(116.341 -6.78305 0.544531)
(146.142 1.08638 8.0901)
(110.103 7.69799 4.2932)
(117.722 -12.8806 7.03888)
(102.304 -2.94779 6.07502)
(105.972 -12.1408 4.57436)
(101.081 -3.60679 1.48209)
(103.471 -3.83038 -0.841738)
(101.847 1.77709 -2.29192)
(105.063 2.79281 -3.01833)
(106.398 6.44542 -2.35168)
(106.324 8.11498 -1.12937)
(102.25 8.28661 1.85535)
(96.2631 7.06559 4.55494)
(91.2997 6.85432 3.35196)
(88.8916 6.79749 1.28545)
(88.4692 5.97704 0.395472)
(259.557 -282.261 -161.86)
(124.382 -108.925 -9.97024)
(194.578 -46.2847 5.78151)
(121.565 -15.3157 3.18221)
(149.672 -0.0779689 6.87647)
(112.798 23.939 2.59134)
(121.081 6.65502 3.64291)
(98.9097 -6.43045 5.2771)
(94.0818 -9.68817 2.82082)
(87.6944 -12.7809 -0.20418)
(90.9389 -8.97429 -1.79864)
(90.9622 -6.7171 -2.74781)
(94.3113 -4.04773 -3.04418)
(95.5401 -1.32452 -3.08459)
(89.0519 6.38747 -1.54729)
(88.1024 7.84335 0.77905)
(86.8419 9.95335 1.50147)
(86.1066 9.74687 0.931161)
(85.6171 8.30575 0.501434)
(86.784 6.4827 0.318361)
(244.289 -50.8021 -77.5462)
(129.146 -47.8144 -37.8525)
(140.235 5.1249 -9.44038)
(40.2018 5.92713 -2.01174)
(95.096 17.4395 7.76177)
(66.9238 15.4808 0.0454617)
(86.4491 17.3742 1.23265)
(81.4331 3.53819 2.52622)
(82.0845 -3.91591 2.03951)
(80.813 -10.4384 -0.511708)
(82.4499 -8.33095 -1.84672)
(82.8877 -5.83838 -1.94851)
(84.2964 -3.51566 -1.7485)
(84.6896 -1.20973 -1.58032)
(83.4932 3.03643 -0.864693)
(80.8396 7.97247 -0.160978)
(81.5868 8.69341 0.188768)
(82.6654 7.84656 -0.026286)
(83.623 6.51221 -0.335763)
(85.5554 5.44953 -0.170727)
(196.156 74.3537 -109.854)
(-12.8048 12.885 12.0767)
(138.063 31.8824 -3.68573)
(38.6466 12.2674 -2.28834)
(108.177 15.4212 4.98997)
(79.9513 14.9446 -0.473717)
(93.8655 16.0531 1.5908)
(88.7207 4.40523 2.02782)
(79.7516 -2.97346 0.258336)
(77.2774 -8.23861 0.133439)
(78.6149 -6.99805 -0.094315)
(81.5558 -3.56954 -0.410039)
(84.0585 -0.607847 -0.570117)
(85.3134 2.61843 -0.40041)
(85.2885 5.74538 0.0249104)
(85.4262 7.56568 0.122992)
(86.4973 8.1134 -0.196908)
(86.7252 7.52753 -0.598206)
(86.9257 5.66702 -0.962709)
(87.216 4.9933 -0.890369)
(218.246 113.356 48.3973)
(50.2073 56.0336 13.2688)
(164.949 38.0303 23.4579)
(50.1535 18.7892 3.16402)
(104.637 19.9033 16.4289)
(65.1563 13.2198 2.30984)
(78.828 10.6348 -0.87037)
(87.7268 12.6156 2.49256)
(95.344 -1.02991 1.6053)
(97.8642 -7.22708 2.90394)
(90.2988 -8.86284 3.25204)
(86.2624 -6.57589 2.05398)
(87.2829 -3.00658 1.17488)
(90.3393 0.464036 0.590225)
(91.9466 4.0918 0.838022)
(93.2373 6.38305 0.434572)
(94.9122 7.89208 0.0563312)
(95.4215 7.42931 -0.307531)
(94.831 6.39499 -0.518038)
(92.8975 5.61634 -0.710622)
(301.891 -169.403 -183.137)
(56.716 -15.6653 -23.5649)
(196.77 29.7346 26.358)
(81.7074 27.9274 2.2786)
(110.659 31.853 10.9265)
(87.1433 17.2357 -0.461607)
(117.622 1.64075 2.70446)
(123.427 -2.92579 3.98429)
(112.427 -8.72949 1.78067)
(107.23 -6.67214 -0.119508)
(102.325 -0.362851 1.46007)
(93.9448 -1.97655 1.70368)
(87.948 -3.23216 1.6698)
(86.6406 -2.14102 1.32648)
(86.6755 -0.22749 1.25124)
(86.1288 3.91758 -0.256134)
(89.7417 6.58324 -0.411696)
(91.3572 7.46164 -0.308195)
(91.8577 8.02578 -0.385667)
(91.1304 7.41745 -0.497739)
(99.2889 -50.2194 -100.048)
(-97.3141 51.3101 -5.3945)
(132.678 44.3922 12.7556)
(15.8848 32.2811 0.764174)
(110.258 24.2533 11.706)
(55.8735 -10.8106 2.44641)
(80.6021 4.35993 3.30359)
(63.688 4.0192 2.01395)
(78.4562 -2.55895 0.0332802)
(74.804 -3.78692 -0.74241)
(82.6184 -1.30416 -0.389326)
(81.8645 -0.735875 0.451747)
(83.5126 -0.501537 0.561897)
(79.1971 -0.918052 0.961375)
(73.8222 0.781496 -0.378165)
(74.6657 0.77438 -0.449086)
(76.2789 3.24855 -0.777082)
(79.0247 4.79863 -0.783434)
(80.6486 7.17901 -0.616812)
(82.8853 7.19954 -0.500132)
(102.502 93.9909 -59.7625)
(-10.4961 -12.1848 -3.64087)
(113.42 12.1226 5.27432)
(48.1491 12.9268 1.73173)
(111.485 5.88639 4.70521)
(69.8928 -0.660435 -0.775345)
(91.3703 19.0383 3.34789)
(71.1681 -9.96477 1.10994)
(78.4864 2.07639 2.00766)
(68.2492 -8.22076 1.05)
(72.7463 1.52939 0.524514)
(67.9005 -2.22783 0.576257)
(70.0388 2.11473 0.595573)
(68.0917 -0.673954 0.46912)
(69.3253 2.00308 0.240612)
(68.5569 1.71106 -0.041791)
(69.4378 2.84419 -0.252501)
(71.1907 3.02758 -0.319809)
(72.8514 5.12913 -0.388095)
(76.6769 5.76981 -0.25693)
(358.454 242.219 -64.4823)
(-36.2771 127.351 9.24161)
(148.382 54.808 17.1237)
(42.4281 11.0833 -2.14831)
(103.103 14.886 2.16544)
(49.2549 -1.05482 -1.97497)
(86.1122 12.7949 3.2632)
(57.6969 -2.03595 1.03379)
(68.9826 1.92053 2.01425)
(56.7947 -4.94801 0.130964)
(63.7626 -0.588469 0.326444)
(60.4718 -1.80437 -0.023936)
(64.7081 0.903571 0.223298)
(63.6236 0.153948 0.0775985)
(65.2135 0.956898 0.10734)
(65.2954 0.591369 0.0610556)
(66.1866 1.26921 0.0743992)
(67.4816 1.50057 -0.0702878)
(68.173 2.85349 -0.113913)
(71.809 3.77954 0.0917406)
(124.028 59.1532 -161.398)
(-177.855 62.7515 95.7998)
(91.7056 29.0546 52.7828)
(-1.15092 7.80876 10.0965)
(97.908 11.8474 3.92125)
(47.2159 3.38767 -2.32592)
(88.8524 15.7033 1.38563)
(64.3592 2.74671 -0.0327508)
(80.7027 6.05667 3.32172)
(64.7983 -4.00443 1.43714)
(70.9108 -1.49363 1.73064)
(63.6545 -3.78277 0.508318)
(67.5717 -0.550915 0.464013)
(64.9309 -1.07451 0.102424)
(67.1536 0.615824 0.123937)
(66.0453 0.457728 0.0212574)
(67.0106 1.22839 0.0775891)
(67.4619 1.26484 -0.0597412)
(67.98 2.01304 -0.055475)
(70.8592 2.61851 0.0498546)
(-30.6436 -308.41 -54.2333)
(-105.499 -35.5913 -49.0651)
(113.892 5.79428 -31.8663)
(20.5754 -1.80959 -9.08388)
(100.43 0.424616 -7.69591)
(50.9759 -4.24965 -5.0295)
(88.9327 4.96402 -0.0384869)
(64.5208 1.51012 -0.330692)
(83.476 5.66462 2.26716)
(67.8585 1.93036 0.813002)
(74.2954 1.91577 2.07792)
(65.6525 -0.106974 0.943205)
(68.3887 0.249463 0.379617)
(64.7655 -0.0368821 -0.122476)
(66.4682 0.184708 -0.146901)
(65.343 0.181091 -0.20009)
(66.2983 0.279898 -0.130856)
(66.8448 0.51071 -0.231533)
(67.3487 0.78904 -0.214054)
(70.0428 1.42198 -0.123762)
(138.954 -189.151 -57.5483)
(-62.9573 4.54135 -37.4995)
(134.247 -4.93983 -13.8618)
(25.5582 4.03843 -3.88832)
(109.744 12.3212 -1.5454)
(52.3807 3.862 -3.1961)
(91.7807 10.4049 0.47546)
(63.9797 3.18687 -1.23316)
(84.3688 6.34611 1.33163)
(70.4166 2.51713 0.238188)
(79.1719 3.70608 0.560931)
(71.6608 1.98975 -0.436787)
(75.1936 1.93069 -0.576661)
(71.7776 1.0694 -0.818883)
(73.4774 0.979775 -0.643714)
(72.0659 0.703328 -0.582072)
(72.85 0.619721 -0.438151)
(72.8499 0.603072 -0.469335)
(73.1455 0.486778 -0.488357)
(75.1671 0.777403 -0.474082)
(154.863 -141.842 62.5899)
(18.3179 -9.43769 -29.9871)
(131.163 -13.6084 -25.4857)
(31.3681 2.01617 -3.42526)
(110.436 6.45658 2.03218)
(43.6907 4.11068 -0.510946)
(88.8019 3.32062 1.72997)
(59.2903 4.33157 -0.485474)
(85.9548 4.69216 0.20714)
(75.2154 5.70318 -1.06291)
(87.3547 4.65482 -1.0036)
(83.0409 4.01947 -1.73477)
(87.7983 2.42803 -1.92048)
(85.485 1.94587 -2.11902)
(87.0084 1.08781 -1.92512)
(85.5445 0.922188 -1.67979)
(85.9666 0.58285 -1.2335)
(85.7156 0.624212 -1.02747)
(85.7004 0.294118 -0.946246)
(87.0225 0.542151 -0.979507)
(92.0992 -22.0238 80.0191)
(50.4482 10.0297 -39.4267)
(156.636 21.1496 -16.823)
(88.4889 21.2109 -1.86051)
(150.285 23.7453 9.91293)
(118.683 20.322 9.3238)
(141.939 10.8466 14.337)
(119.708 6.10147 11.8154)
(126.58 2.00158 11.4284)
(114.69 3.63761 8.63234)
(120.39 4.51867 6.9378)
(117.849 5.82598 5.18925)
(122.955 5.86077 4.09534)
(123.667 5.75676 2.67994)
(127.655 4.96797 1.91943)
(128.225 4.2842 1.49325)
(130.013 3.53291 1.46035)
(130.311 3.01681 1.77147)
(130.359 2.16026 2.19942)
(131.122 1.90119 2.20641)
(72.1005 -43.5461 -135.805)
(-49.545 -46.8716 -13.3058)
(143.754 -18.6009 -43.2544)
(-24.3745 -4.76817 -13.4495)
(115.57 -8.40421 -8.62976)
(24.6148 -5.79416 -5.98109)
(96.2582 -10.4781 1.08053)
(61.8544 -6.75233 -1.9712)
(94.9382 -8.81374 1.1657)
(84.4305 -7.1939 -0.276988)
(100.693 -7.85451 1.03452)
(99.1945 -7.04492 -0.185413)
(108.024 -7.19133 0.104626)
(109.988 -6.31082 -0.691308)
(117.081 -6.35704 -1.19572)
(119.131 -6.96489 -2.68832)
(122.99 -7.87564 -3.74779)
(123.955 -8.04805 -1.96347)
(127.058 -7.0783 3.20542)
(127.346 -4.16198 4.70329)
(159.952 31.167 -29.2456)
(37.8091 -13.4474 -33.4375)
(139.423 -5.74425 -33.8245)
(3.65791 3.77627 -2.99799)
(115.895 -15.3521 -1.90513)
(41.8259 -2.07419 -0.6962)
(97.6583 -16.0679 3.18183)
(64.76 -5.94259 0.74894)
(91.5292 -11.1507 3.15584)
(78.9004 -6.62901 2.0028)
(91.746 -8.06159 3.02094)
(87.7946 -6.51992 2.2227)
(94.6227 -6.96724 2.37149)
(94.5119 -6.81322 0.889306)
(98.6779 -6.96241 0.171612)
(98.6018 -6.72096 -0.585032)
(99.3127 -5.81968 -0.413377)
(96.1067 -3.64539 0.285813)
(93.8238 0.545236 3.0119)
(92.7124 2.25725 1.65468)
(60.0448 82.8449 -147.572)
(-22.0152 -13.258 -29.963)
(114.037 -23.7505 -0.33446)
(29.0689 -12.6485 3.70079)
(113.065 -27.1684 5.48413)
(61.3125 -8.31087 1.4835)
(100.622 -19.8306 3.41353)
(74.1373 -7.98219 0.366949)
(92.602 -13.2773 2.35775)
(79.9372 -7.01508 1.48962)
(88.7639 -8.8921 2.73422)
(82.5088 -6.50326 2.1096)
(86.02 -7.74838 2.29774)
(82.9757 -7.56853 1.33518)
(84.2775 -7.6589 0.606355)
(82.0591 -6.52034 -0.522516)
(81.6108 -3.35079 -0.884878)
(78.2287 -0.515636 -1.24954)
(76.7628 2.99951 -0.463756)
(76.3255 3.57753 -0.587375)
(193.275 90.7349 44.9633)
(60.4408 -11.1958 19.103)
(148.682 -7.77635 -6.88476)
(77.1843 -5.48851 5.44799)
(122.273 -10.9249 0.333474)
(72.926 1.46867 -2.12846)
(100.178 -9.60741 -0.330547)
(74.7504 -2.28474 -2.23805)
(89.8636 -8.13022 -0.0916152)
(78.3588 -2.8034 -0.57284)
(85.4373 -4.05131 0.855982)
(79.3811 -0.997335 1.15199)
(81.5887 -2.22028 2.14785)
(77.9727 -2.33788 1.55385)
(77.9817 -3.49933 0.947499)
(74.9419 -3.67215 -0.0322663)
(73.6334 -2.02843 -0.409187)
(70.9667 0.0234055 -0.247275)
(70.3402 2.64475 0.135072)
(70.7338 3.42497 -0.298015)
(124.684 24.2155 -72.0215)
(-112.68 -25.632 33.7026)
(133.97 -26.3442 18.1952)
(26.6522 0.123231 11.1045)
(114.074 -13.7661 8.48496)
(62.8381 -3.07896 -1.68586)
(96.2242 -18.3348 -0.635529)
(74.4422 -7.73624 -3.44935)
(88.689 -15.0515 -1.43859)
(78.6922 -6.82869 -1.44026)
(84.9608 -7.71989 0.0424847)
(78.5606 -1.94578 -0.0626139)
(79.3503 -2.10059 1.35669)
(74.8427 -1.25325 1.16979)
(73.877 -2.32978 1.24253)
(70.7705 -1.60384 0.760496)
(70.6617 0.579939 0.42094)
(69.4393 2.75373 0.0435035)
(69.0755 4.55057 -0.125028)
(69.2802 4.41002 -0.53559)
(396.598 -57.3616 -52.2389)
(142.284 -33.6338 -12.9994)
(159.615 -57.944 -5.50091)
(76.3135 -4.34512 0.374859)
(125.293 -12.737 9.33541)
(87.5908 2.64072 1.54764)
(108.743 -13.0074 2.08262)
(91.4369 -7.1477 -0.394958)
(97.289 -12.6249 1.19142)
(89.624 -5.56416 0.882734)
(91.702 -3.61746 1.32034)
(86.0516 2.49824 -0.192505)
(84.3293 4.42126 0.486995)
(79.6162 5.43531 1.37708)
(77.8455 2.77933 2.16391)
(73.8558 1.03413 1.93723)
(72.7085 0.489709 1.17827)
(71.4163 1.97335 0.455448)
(71.0183 3.79004 -0.0775277)
(71.617 3.95779 -0.442701)
(168.895 44.3846 -83.7384)
(17.4756 -14.7288 -12.2059)
(146.414 -19.473 -5.79742)
(73.6661 0.512499 -0.304032)
(120.381 -0.69632 8.23346)
(78.5796 5.88824 3.31071)
(93.2026 -15.4367 5.78077)
(78.9656 -0.305372 4.4875)
(87.3169 -9.88866 3.55415)
(82.5325 -0.256127 0.740101)
(85.3738 -1.18503 -0.735605)
(82.4526 4.34831 -1.9407)
(83.2667 4.6764 -2.39524)
(81.2886 6.88964 -1.85268)
(79.1025 7.54464 -0.774684)
(75.5169 7.01563 1.44894)
(75.3621 5.86212 3.24869)
(75.5136 5.48701 2.488)
(75.3218 5.22781 0.944327)
(75.7794 4.46195 0.148966)
(144.293 -77.2505 -117.323)
(98.8921 -48.8812 -10.9157)
(161.914 -25.6404 2.01036)
(85.5608 -3.66961 3.32143)
(122.62 7.86635 7.98079)
(81.4783 28.7404 2.4183)
(94.8196 4.26403 4.41876)
(77.5645 -4.37964 4.73186)
(80.0384 -8.13394 2.5434)
(75.9542 -8.50612 -0.266104)
(78.8538 -5.85368 -1.8482)
(77.6279 -3.5193 -2.59217)
(79.0462 -1.61986 -2.80306)
(77.8131 0.907885 -2.57393)
(71.5678 6.02791 -0.343118)
(71.449 6.77598 0.857799)
(72.6787 7.87802 1.22076)
(73.2264 7.49018 0.710378)
(73.5655 6.37642 0.345551)
(74.704 5.08974 0.0668388)
(175.875 -75.5697 -141.991)
(50.9552 -51.497 -44.4027)
(105.871 6.84509 -1.58599)
(13.7379 9.82726 -1.31566)
(82.5468 21.7752 5.89368)
(57.5422 21.2797 -0.393258)
(74.7543 17.0699 1.44207)
(71.1654 2.34876 3.75253)
(73.5117 -3.72507 2.08217)
(72.1952 -7.62253 -0.609328)
(73.0918 -6.0893 -1.9863)
(72.5225 -4.52298 -2.13553)
(73.3344 -2.41934 -1.87207)
(73.1222 -0.237873 -1.65316)
(71.8981 2.449 -0.700765)
(69.6665 6.23262 0.192374)
(70.7195 6.82542 0.29732)
(71.9607 6.03183 0.0455832)
(72.7337 5.3369 -0.236405)
(74.0607 4.74624 -0.253575)
(233.602 144.887 49.3127)
(35.0188 7.78061 -25.3538)
(128.994 30.1484 -18.5714)
(11.3699 13.6888 -2.21232)
(88.5548 21.8806 2.14917)
(51.7822 19.583 -0.578498)
(69.9543 18.4934 1.67556)
(71.8942 5.3535 2.57349)
(70.6994 -1.99416 0.685789)
(69.9521 -5.53332 0.23816)
(71.4083 -4.89128 -0.0884719)
(73.1375 -2.77211 -0.338334)
(74.626 -0.435545 -0.535199)
(75.485 2.18021 -0.372404)
(75.262 4.38434 0.129198)
(74.1673 5.51905 0.415569)
(75.063 5.8861 -0.0314192)
(75.1096 5.4247 -0.4306)
(74.9813 4.42513 -0.710221)
(74.8449 4.37844 -0.849957)
(149.684 165.643 164.13)
(-28.3342 101.175 50.2948)
(122.321 60.8727 38.7271)
(-6.47705 27.1528 3.71194)
(83.3082 25.0096 13.8886)
(42.9271 13.948 1.63716)
(64.3391 9.34929 0.30077)
(74.5635 6.23754 2.72677)
(80.9205 -1.29962 1.71309)
(80.0026 -3.44506 2.35595)
(80.4575 -6.39248 1.81011)
(80.2539 -4.46161 1.69022)
(80.5111 -1.73515 1.02847)
(82.1041 0.897945 0.715267)
(81.8355 3.74237 0.959098)
(80.3295 5.05174 0.466923)
(80.6492 5.79298 0.206808)
(80.4007 5.02909 -0.0833226)
(79.3478 4.73837 -0.198917)
(77.7334 4.44976 -0.681568)
(-23.1742 61.542 -101.381)
(-103.474 45.8543 39.2179)
(118.53 56.9917 20.2845)
(-5.95077 32.9565 2.51044)
(78.5511 31.2172 9.40426)
(45.4336 8.41305 -0.642416)
(81.1874 -2.56305 3.37701)
(87.5692 -0.987438 4.74099)
(87.8042 -2.85191 1.91911)
(84.8431 -0.694677 0.361074)
(81.2931 0.422844 1.76251)
(77.7386 -1.02312 1.91518)
(76.7916 -1.21107 1.41945)
(77.8011 -0.228193 1.10801)
(77.8134 1.82168 0.822181)
(75.3475 4.92963 -0.0447411)
(76.9009 6.113 -0.204961)
(77.2909 6.08644 -0.116948)
(77.0303 6.48427 -0.249825)
(76.3789 5.80533 -0.597294)
(83.352 -69.5525 -67.9622)
(-102.427 3.28182 -26.4261)
(111.766 31.5965 -4.63279)
(-21.3424 28.8855 3.53055)
(94.8757 18.822 9.62784)
(31.1831 -14.9545 2.69807)
(61.9735 6.74317 3.50052)
(49.5939 2.74657 1.76919)
(64.9843 1.13957 0.146997)
(61.5892 -0.565289 -0.683456)
(69.0868 1.18616 -0.0916522)
(67.4398 0.348485 0.470926)
(70.107 0.555217 0.50379)
(67.9582 0.0124302 0.636012)
(64.6053 1.46585 -0.192989)
(65.8874 1.43293 -0.368405)
(67.0728 3.38146 -0.604169)
(68.6695 4.13341 -0.62187)
(69.423 5.77849 -0.533819)
(71.2052 5.35328 -0.526381)
(154.333 130.842 -44.3252)
(-10.1726 7.39853 -4.08245)
(95.5283 20.6061 13.568)
(13.7331 16.2404 3.56606)
(90.659 6.15282 6.30822)
(35.8401 -1.05277 -1.21173)
(67.4823 21.7911 3.32334)
(46.4654 -11.9954 0.777683)
(60.9975 4.9532 1.61565)
(52.637 -7.0381 0.712372)
(59.991 3.25135 0.386732)
(56.1029 -1.97094 0.430916)
(59.8446 2.31325 0.422979)
(58.7242 -0.877109 0.301381)
(60.7414 1.93938 0.126936)
(60.3133 1.48437 -0.139508)
(61.4993 2.5664 -0.205174)