/*--------------------------------*- C++ -*----------------------------------*\
  =========                 |
  \\      /  F ield         | OpenFOAM: The Open Source CFD Toolbox
   \\    /   O peration     | Website:  https://openfoam.org
    \\  /    A nd           | Version:  10
     \\/     M anipulation  |
\*---------------------------------------------------------------------------*/
FoamFile
{
    format      ascii;
    class       volVectorField;
    location    "7.3";
    object      U_0;
}
// * * * * * * * * * * * * * * * * * * * * * * * * * * * * * * * * * * * * * //

dimensions      [0 1 -1 0 0 0 0];

internalField   nonuniform List<vector> 
12920
(
(92.0249 19.3958 6.75222)
(30.9218 5.25965 -25.6158)
(161.673 -6.78868 -7.49526)
(73.8309 -7.91256 -9.28965)
(135.029 -12.4785 0.521334)
(81.9003 -10.4576 -2.214)
(116.097 -9.75215 1.34507)
(90.2053 -3.93726 -1.23951)
(112.546 -1.98601 -0.396085)
(104.922 1.46589 -1.42101)
(117.966 2.17449 -1.28731)
(118.186 3.91444 -2.04063)
(127.46 4.18259 -2.05178)
(131.141 4.39034 -2.56466)
(139.54 3.27201 -3.90417)
(151.97 1.56758 -5.38923)
(171.229 0.547254 -4.86881)
(185.059 1.11227 -2.54097)
(190.267 0.48608 0.397929)
(181.045 -0.275146 0.757085)
(203.626 26.4738 -48.7719)
(0.444974 96.118 -4.26192)
(174.196 77.878 -20.5262)
(89.4695 59.8102 -11.0073)
(144.285 39.6263 -1.93708)
(94.3906 32.5964 -3.62)
(123.945 11.3594 1.6479)
(98.8856 6.99391 0.941219)
(117.03 -4.76128 2.38736)
(108.213 -5.40968 2.39642)
(118.204 -8.50791 2.92986)
(115.951 -8.29027 2.82152)
(121.057 -8.85041 2.78379)
(122.61 -9.52286 2.06288)
(130.191 -11.2857 1.7481)
(135.392 -13.8314 1.6735)
(142.002 -13.0893 1.86648)
(142.573 -11.8121 2.04543)
(140.091 -6.48684 2.98526)
(121.647 -1.43244 2.48059)
(114.352 79.8148 -25.7279)
(10.9274 97.7227 17.9368)
(125.582 62.131 19.4007)
(69.8501 37.2487 6.37762)
(136.603 3.35828 8.74416)
(101.756 3.83513 3.90169)
(132.275 -14.1986 3.26029)
(117.003 -12.4588 1.37414)
(129.864 -19.6958 1.65427)
(121.827 -17.376 1.4912)
(126.164 -18.6015 2.11662)
(119.297 -15.7028 2.13245)
(117.896 -15.6066 2.09318)
(110.595 -14.7882 1.5293)
(109.085 -15.5074 0.801357)
(105.903 -14.6391 0.0853609)
(106.634 -11.6671 -0.308993)
(104.884 -5.18492 -0.63953)
(102.941 2.69358 -0.221446)
(96.4473 4.50121 -0.140171)
(124.055 -4.74277 107.39)
(-20.3834 -5.11466 32.1494)
(146.591 0.787269 23.3844)
(78.8733 2.00091 9.30722)
(140.542 -5.58065 0.913444)
(107.708 4.95414 -1.63185)
(133.235 -5.07186 -1.54849)
(118.876 -4.56474 -2.0152)
(130.654 -13.156 -1.02512)
(125.19 -13.9333 -0.883627)
(130.171 -16.2589 0.0240624)
(126.33 -13.8482 0.834394)
(122.761 -10.9772 2.10827)
(109.821 -9.55251 1.60511)
(105.092 -10.6928 0.82734)
(97.9066 -11.3769 0.232594)
(95.3327 -8.92237 -0.269575)
(90.1941 -4.27825 -0.0616748)
(87.4614 2.24015 0.238673)
(83.2979 5.05073 0.0371326)
(214.401 -130.179 -23.3338)
(97.8512 -106.757 8.30892)
(185.903 -67.9769 28.4418)
(108.43 -11.5412 8.04769)
(153.072 -9.5258 5.28224)
(112.58 4.94309 -1.58228)
(134.786 -9.0941 -1.90838)
(122.099 -7.19735 -3.64363)
(134.513 -17.906 -2.86448)
(129.716 -17.149 -2.28444)
(133.934 -19.9592 -1.07246)
(131.328 -16.111 -0.714023)
(128.193 -10.2271 1.22052)
(113.36 -6.93338 1.44437)
(103.993 -8.3592 0.928694)
(94.0997 -6.1657 0.623778)
(90.9654 -1.64802 0.32077)
(86.9884 2.88664 0.101108)
(84.7844 6.88853 -0.0269579)
(81.997 7.265 -0.192827)
(185.737 -59.3759 8.14731)
(214.46 -106.738 -17.4411)
(260.349 -89.8134 -2.08338)
(214.119 -37.8283 1.23214)
(214.519 -15.1032 7.56666)
(170.386 13.1168 2.36919)
(177.782 7.35269 0.2828)
(168.35 8.70823 -0.717354)
(169.543 -1.80044 0.681303)
(160.076 -5.13962 1.49483)
(150.803 -12.2684 1.41265)
(141.611 -7.56809 -0.237227)
(138.628 0.121361 0.180334)
(131.895 6.25002 1.07177)
(120.943 3.14929 1.99262)
(104.358 -2.24299 1.85977)
(95.2131 -3.40678 1.00247)
(89.4568 0.710657 0.406929)
(87.4198 6.05677 -0.0495269)
(86.6433 7.78392 -0.226716)
(202.572 -45.2713 -13.5271)
(153.431 -95.8937 -17.2776)
(222.655 -64.8114 -4.6049)
(162.36 -17.7419 -3.46493)
(172.68 6.48311 2.15337)
(138.23 15.0299 2.28711)
(137.658 -5.52165 4.31801)
(120.388 -1.39936 4.52019)
(118.92 -12.8727 3.71025)
(113.964 -7.03915 1.75874)
(116.622 -8.42934 -0.0525066)
(117.018 -3.72321 -1.36494)
(124.834 -2.60183 -2.53387)
(137.174 2.57879 -2.22191)
(142.946 7.02207 -1.37192)
(141.074 7.86174 0.236798)
(126.57 7.3928 2.76918)
(107.061 7.66583 2.6676)
(98.9936 8.45006 0.983712)
(95.3794 7.87155 0.318707)
(416.796 -227.554 141.225)
(248.295 -85.4592 5.25077)
(249.869 -33.9128 13.5371)
(154.109 -5.24657 6.29095)
(169.454 2.93965 4.56197)
(137.539 20.69 1.54575)
(138.978 8.32321 0.206526)
(113.558 -9.28614 0.595232)
(98.4437 -11.466 0.821003)
(87.2956 -19.1212 0.0342512)
(93.3459 -14.826 -0.461188)
(95.8731 -12.8724 -0.722159)
(101.873 -9.72779 -0.833854)
(106.61 -7.21865 -0.662287)
(104.836 5.58103 -1.21021)
(104.633 8.91721 0.0805953)
(99.8536 12.6782 0.929087)
(95.1311 12.4727 0.643395)
(92.6973 10.791 0.32935)
(91.9633 8.25587 0.280383)
(235.588 143.984 -20.7018)
(36.3308 -6.05297 -23.8566)
(132.029 15.1482 -15.1396)
(51.2662 3.89125 -1.81691)
(100.082 10.7152 6.55986)
(47.3653 7.58851 1.30766)
(75.7575 22.9461 1.6009)
(68.0064 5.39962 -0.339115)
(77.7883 -4.39323 0.210364)
(78.9266 -15.7177 -0.0788729)
(84.2001 -11.9328 -0.287454)
(87.1824 -7.71542 -0.364775)
(89.9006 -4.74667 -0.269083)
(90.8225 -2.92102 -0.215219)
(89.9155 3.51102 0.256002)
(86.2685 10.1176 0.074774)
(86.227 11.226 0.214241)
(86.9044 10.4283 0.00216503)
(87.4879 8.22806 -0.323458)
(89.4389 5.715 -0.176484)
(355.141 404.79 -109.086)
(153.845 161.348 9.27695)
(178.744 52.8218 12.2224)
(94.4857 15.4184 0.452438)
(139.002 6.31533 4.53282)
(99.3937 9.01031 -2.16202)
(108.743 7.99835 0.198212)
(100.722 -0.475881 -0.9481)
(80.7375 -4.43452 -0.185228)
(76.3103 -11.3223 -0.0710234)
(77.6266 -9.05038 -0.0269395)
(83.3251 -3.01017 -0.134677)
(88.1132 0.153356 -0.134237)
(90.2809 3.03053 -0.131533)
(89.3845 7.79399 -0.0845082)
(89.0451 10.2131 0.327562)
(90.2729 11.3162 -0.0274618)
(90.6666 10.8596 -0.345298)
(91.3449 8.48811 -0.770397)
(92.0737 5.77526 -0.738439)
(268.187 97.0659 176.957)
(116.741 81.0498 45.8403)
(193.547 42.6295 11.6735)
(114.252 12.9015 -0.282584)
(131.619 9.77252 9.69196)
(53.0572 11.242 -1.02204)
(74.9504 16.7502 1.44963)
(89.4364 23.1133 0.0545146)
(96.6108 2.72082 0.443563)
(105.955 -10.1737 0.75984)
(92.398 -12.5832 0.521607)
(85.2917 -8.95959 0.393025)
(85.2589 -3.74512 0.256)
(88.9 0.642877 0.0533577)
(92.5229 5.03428 0.183052)
(96.0225 7.1133 0.689932)
(99.739 10.6651 0.34493)
(101.836 11.1652 -0.128127)
(102.956 9.75747 -0.448357)
(101.549 7.74919 -0.544792)
(244.825 8.73841 208.378)
(199.62 56.4712 17.4898)
(203.932 52.5177 16.0705)
(121.175 33.5531 -9.56708)
(153.852 32.6069 -4.73751)
(114.304 4.45076 1.82919)
(136.947 -5.08291 -0.433665)
(140.836 -8.77158 -0.570922)
(132.728 -14.8952 -0.520266)
(125.222 -17.6985 -0.255116)
(122.99 -5.28359 0.133173)
(111.406 -0.452041 0.097184)
(95.9828 -6.45807 0.38089)
(89.3328 -4.84868 0.338172)
(87.9597 -3.90818 0.623318)
(87.1554 0.434789 0.187809)
(93.0777 4.96895 -0.107251)
(97.7399 8.36371 -0.236258)
(100.609 9.75105 -0.27839)
(99.7282 9.06367 -0.29169)
(167.322 -58.0418 -95.3493)
(60.0236 77.0882 -2.58035)
(151.031 71.4006 15.9229)
(80.6792 40.7544 2.08042)
(130.633 28.577 6.59693)
(82.25 -3.8724 1.15841)
(93.1064 6.53981 0.0345965)
(68.8371 7.02105 0.575791)
(85.8912 -7.82676 -0.0181171)
(83.1439 -9.88458 -0.275918)
(92.5399 -6.5976 -0.556574)
(96.0911 -2.21791 -0.133971)
(99.3166 -1.57833 0.0385787)
(93.6601 -2.27928 0.522746)
(77.311 0.018555 0.115212)
(76.388 -0.362346 -0.227304)
(77.4359 1.80062 -0.549852)
(82.0886 4.39923 -0.62838)
(85.6127 8.11016 -0.459413)
(87.6565 9.17738 -0.352314)
(87.6992 -152.351 59.201)
(-24.9724 -18.0966 21.6317)
(116.063 16.0693 6.76603)
(78.5904 12.6378 1.19521)
(134.203 8.49961 1.23912)
(110.089 2.78607 -0.427443)
(123.455 18.6537 1.30377)
(104.69 -4.94307 0.535757)
(101.676 1.1583 1.06869)
(85.8493 -9.29167 0.556256)
(85.5284 -0.512554 0.170792)
(78.3506 -2.99753 0.330437)
(77.3382 2.52701 0.380774)
(73.3348 0.227495 0.332031)
(73.1595 2.44251 0.167631)
(71.3227 2.1666 0.00623523)
(71.5974 3.2031 -0.19054)
(73.1799 3.26168 -0.216456)
(74.6641 5.61513 -0.296797)
(78.3142 7.70162 -0.243586)
(374.223 45.8273 181.415)
(92.2135 -9.48897 19.8679)
(153.841 2.91262 15.8013)
(68.7236 -3.34432 -0.574165)
(121.53 7.26756 -0.28396)
(87.8048 -2.21673 -1.10876)
(110.494 11.652 1.83701)
(82.0454 1.75174 1.21194)
(81.2202 3.13753 1.36671)
(64.6464 -4.20755 0.0939835)
(68.7731 -0.884732 0.0476743)
(65.1432 -1.39103 -0.0845083)
(68.7864 1.40446 0.0683829)
(67.6843 0.881988 0.0207336)
(68.8504 1.50252 0.0184123)
(68.495 1.20342 0.00927624)
(69.0241 1.76768 0.015694)
(69.8245 2.11798 -0.0457078)
(69.783 3.53755 -0.100663)
(71.7713 5.18158 0.033635)
(410.922 63.6776 -198.833)
(222.33 13.0638 -69.6349)
(194.383 17.6507 36.5526)
(61.0312 1.05101 11.4026)
(116.002 8.55782 3.65692)
(81.392 5.14045 -1.49667)
(112.477 19.9825 0.319366)
(94.1256 13.2733 0.160672)
(100.318 13.9143 2.21421)
(78.0376 0.740993 1.32831)
(77.1378 -0.36752 1.06158)
(67.9202 -3.32001 0.311683)
(70.677 0.0159269 0.214332)
(67.8947 -0.217972 0.0402722)
(69.8382 1.59446 0.0235638)
(68.6657 1.55394 -0.0288813)
(69.5215 2.31984 -0.00886123)
(69.8182 2.39505 -0.0539863)
(69.8751 3.0909 -0.0671453)
(70.7703 3.88409 0.0145313)
(-13.0496 -197.089 -108.163)
(-133.711 25.8133 -12.9434)
(123.21 4.12162 -8.92001)
(24.2449 -10.6175 -4.56924)
(110.4 -3.25372 -5.02791)
(76.7303 -3.97324 -3.57116)
(109.159 6.95021 -0.660408)
(91.2444 6.61536 -0.169546)
(103.433 10.8931 1.20836)
(88.3311 8.42981 0.485217)
(87.9613 4.69708 1.60747)
(72.2361 1.01228 0.989215)
(71.7438 0.805718 0.217703)
(66.7526 0.470274 -0.0618277)
(67.783 0.745053 -0.108275)
(66.3867 0.87599 -0.107453)
(67.2093 1.09031 -0.0768596)
(67.7996 1.5076 -0.108518)
(68.081 1.86487 -0.117427)
(69.0272 2.54438 -0.0552539)
(-31.995 -235.053 112.769)
(-58.3131 -37.5019 -18.1027)
(147.158 -17.225 0.39848)
(53.7452 1.81419 -0.858392)
(124.233 15.8977 0.0427169)
(80.2104 12.4785 -1.90581)
(109.681 17.9551 -0.282871)
(87.3577 11.8167 -0.828291)
(100.277 13.7685 0.690219)
(84.7723 9.31047 0.519614)
(87.6222 9.31747 0.6064)
(75.9323 6.52652 -0.0822748)
(76.7019 5.3878 -0.342845)
(72.1654 3.72757 -0.511753)
(73.414 3.13694 -0.42907)
(71.9819 2.46219 -0.367259)
(72.8517 2.13416 -0.274781)
(72.8936 1.88353 -0.249144)
(72.9347 1.61306 -0.246141)
(73.2925 1.81409 -0.241592)
(63.6232 -81.4996 -20.0713)
(-14.429 -10.1373 -25.7604)
(140.153 -22.7286 -14.9353)
(57.0075 -8.07594 -2.72406)
(118.383 2.31379 1.78649)
(59.6588 8.3798 0.154244)
(94.5879 10.764 1.43068)
(65.8685 13.2108 0.253454)
(88.7565 13.9881 0.671254)
(76.4629 14.6848 0.0924431)
(86.3216 13.0084 0.098534)
(79.8469 11.1268 -0.380298)
(83.665 7.96941 -0.724294)
(80.6772 5.98831 -0.939831)
(82.2801 3.96428 -0.972498)
(80.8979 3.16538 -0.823668)
(81.531 2.48855 -0.562261)
(81.324 2.39417 -0.439273)
(81.0073 2.04523 -0.48038)
(80.6861 2.40691 -0.582257)
(-0.153631 -105.689 -122.937)
(30.2733 21.2573 -23.5628)
(160.45 25.2615 -9.15073)
(124.401 23.4841 -4.69517)
(172.52 25.1066 3.48969)
(141.042 23.6628 4.99884)
(151.436 14.3375 8.23977)
(120.23 10.0595 6.88722)
(119.804 7.04898 5.73708)
(103.603 9.82004 4.22542)
(107.936 11.1888 3.37453)
(104.581 12.4496 2.68668)
(109.732 12.4747 2.12758)
(110.715 11.8708 1.56141)
(115.963 10.7079 1.02218)
(118.523 9.06889 0.596322)
(122.511 6.798 0.586833)
(123.277 5.34554 0.849431)
(122.775 4.45193 1.25824)
(119.74 4.58995 1.25478)
(247.343 -93.3504 -168.131)
(-53.009 24.8124 -22.3248)
(167.103 9.72036 -28.7837)
(-3.28608 9.38314 -16.7631)
(114.882 3.41946 -3.6559)
(39.4444 0.434631 -6.95314)
(98.514 -5.90859 1.22728)
(69.9738 -4.76699 -2.55577)
(99.3739 -7.29374 0.188255)
(91.1744 -6.45903 -1.14627)
(106.225 -7.37471 -0.107556)
(105.851 -6.97851 -0.955354)
(114.967 -7.08178 -0.701586)
(118.01 -7.12758 -0.588829)
(125.782 -8.32563 -1.05634)
(129.875 -10.6346 -2.58906)
(139.434 -11.2984 -3.20988)
(148.302 -10.6221 -1.2371)
(156.176 -8.04928 2.99754)
(150.49 -6.37388 3.17481)
(37.122 103.219 -104.364)
(-50.2422 60.76 -27.6623)
(148.552 18.1673 -39.1397)
(16.7732 21.6372 -8.11024)
(121.503 1.72103 1.49744)
(56.428 7.56965 -2.28548)
(106.008 -8.85874 3.76652)
(79.1294 -3.87867 1.05506)
(102.558 -10.6189 3.49401)
(92.5512 -7.81801 2.66185)
(103.786 -9.55272 3.57152)
(100.62 -8.49097 3.01663)
(106.403 -8.9164 3.05502)
(106.933 -9.04309 1.59198)
(112.311 -9.55324 0.836617)
(114.361 -9.98395 0.0384984)
(117.344 -9.18308 0.372975)
(115.714 -7.99659 0.976486)
(112.658 -2.5022 3.87642)
(102.568 0.908957 2.5555)
(-17.0266 109.504 -80.8192)
(-80.82 22.5593 -7.95463)
(113.314 6.60409 15.2583)
(36.5572 -0.814281 6.50145)
(121.922 -20.9129 8.50829)
(79.0449 -7.77706 2.66274)
(113.857 -19.766 3.76341)
(93.2081 -11.2751 0.87594)
(108.288 -16.3999 2.54258)
(97.9162 -11.2927 1.93606)
(104.303 -12.4825 3.12333)
(97.7043 -9.97334 2.641)
(98.8453 -10.9386 2.71847)
(94.301 -10.773 1.76148)
(94.3045 -11.1161 0.968738)
(91.7485 -9.99944 -0.226804)
(91.9095 -6.20796 -0.784864)
(88.3849 -1.91579 -1.19477)
(85.9342 3.33049 -0.470481)
(82.2686 4.27036 -0.442339)
(115.856 235.415 6.912)
(-83.8394 -9.23013 9.12984)
(149.117 1.27536 -3.42032)
(82.5359 0.583091 6.28997)
(133.451 -6.54151 -0.419188)
(90.536 4.18373 -2.68155)
(113.381 -6.87825 -1.08033)
(92.2346 -3.28065 -2.46999)
(104.577 -10.2794 -0.439335)
(95.564 -7.12335 -0.575387)
(101.337 -8.10026 0.939783)
(95.9149 -4.60571 1.62041)
(96.008 -4.90255 2.693)
(89.9149 -4.72637 2.05744)
(87.761 -6.0977 1.17817)
(83.0019 -6.23634 0.145321)
(81.1859 -4.00273 -0.444983)
(77.5424 -1.02075 -0.190669)
(76.0678 2.94678 0.245762)
(73.9921 4.3326 -0.104661)
(175.148 -65.8762 -126.05)
(-142.829 -57.0101 24.538)
(148.298 -42.3716 32.4628)
(55.9585 0.263028 10.1456)
(128.389 -10.2693 8.31383)
(82.7529 -0.0670278 -2.29371)
(109.874 -15.6127 -1.31205)
(92.2217 -9.23901 -4.14107)
(104.309 -17.4457 -2.37141)
(96.3625 -11.9802 -2.11093)
(101.398 -12.5017 -0.283623)
(95.8641 -6.4207 -0.0540411)
(95.2246 -4.12264 2.04608)
(88.0656 -2.94517 1.84358)
(84.237 -4.33322 1.39534)
(78.5446 -2.98971 0.927618)
(77.3636 0.152444 0.536517)
(75.1352 3.21107 0.124134)
(73.9585 5.81436 -0.0776237)
(72.2365 5.84231 -0.387295)
(184.556 -94.4171 -110.081)
(105.511 -66.741 -35.1103)
(178.133 -75.4699 -3.22891)
(119.1 -14.7393 2.18698)
(152.587 -10.6058 10.6412)
(119.457 7.33051 3.06988)
(132.07 -6.15101 1.8546)
(117.811 -4.66901 -0.363025)
(121.06 -12.2108 1.50281)
(113.501 -8.94728 1.39873)
(112.791 -7.77355 1.63191)
(105.778 -0.81882 -0.0630439)
(103.318 3.85174 0.82281)
(97.6049 6.21125 1.79588)
(92.6481 3.12529 2.80675)
(84.4326 0.366086 2.54482)
(80.4826 -0.322015 1.46954)
(77.4306 2.13524 0.592249)
(76.2991 5.01722 -0.0481291)
(75.3566 5.59869 -0.327067)
(144.546 -76.3104 -3.50723)
(67.3235 -62.1296 -0.787848)
(173.794 -40.6229 2.78792)
(111.083 -7.94753 0.348843)
(140.849 0.890642 8.15155)
(104.26 7.74078 4.58245)
(111.485 -12.81 6.92364)
(96.1828 -2.73785 5.96236)
(100.129 -11.95 4.47221)
(95.3086 -3.26771 1.37563)
(97.8449 -3.57811 -0.912692)
(96.2738 2.00129 -2.33741)
(99.6324 2.91024 -3.05343)
(101.035 6.50548 -2.32518)
(100.928 8.06936 -1.09827)
(96.7688 8.2367 1.94092)
(90.8334 7.04454 4.56941)
(85.8505 6.86645 3.29456)
(83.2423 6.81413 1.2313)
(81.4082 5.99827 0.367723)
(262.651 -322.191 -137.338)
(113.438 -115.121 -2.52475)
(191.458 -47.3914 7.10276)
(116.415 -14.6145 3.83352)
(144.409 0.704254 7.21708)
(106.846 24.2735 2.71269)
(114.527 7.67242 3.53433)
(92.8896 -5.18763 5.27716)
(88.0916 -8.86189 2.66739)
(81.9576 -11.8127 -0.283985)
(85.2695 -8.07508 -1.82302)
(85.3867 -5.89359 -2.70428)
(88.8538 -3.31228 -3.00754)
(90.1482 -0.634076 -3.06268)
(83.542 6.36082 -1.55017)
(82.7012 7.86429 0.801232)
(81.5114 9.97916 1.47914)
(80.7202 9.74579 0.896683)
(80.0013 8.30666 0.466792)
(79.7063 6.50095 0.288366)
(259.297 -46.0506 -23.9122)
(142.558 -41.8414 -27.5941)
(145.054 11.7957 -6.73212)
(37.0968 9.30533 -1.26025)
(90.0675 18.654 8.09793)
(60.9141 16.4699 0.203887)
(80.2492 18.0717 1.38552)
(75.1544 4.24803 2.61198)
(76.1559 -3.12827 1.96583)
(75.1018 -9.68623 -0.575242)
(76.7978 -7.56891 -1.8045)
(77.3408 -5.02995 -1.8634)
(78.7602 -2.78093 -1.71694)
(79.1113 -0.553862 -1.60496)
(78.0074 3.77711 -0.931068)
(75.431 7.97324 -0.191431)
(76.3345 8.71935 0.169694)
(77.3314 7.85197 -0.0553681)
(78.0407 6.52462 -0.365624)
(78.4577 5.46922 -0.214947)
(167.55 132.384 -94.6177)
(-30.3782 34.2507 15.5517)
(132.142 38.6332 -5.06013)
(29.255 15.8111 -2.18984)
(100.565 16.4626 4.97939)
(73.2189 16.0687 -0.463088)
(87.7367 16.3105 1.62955)
(82.648 4.58606 1.94549)
(73.7017 -2.97839 0.26844)
(71.4663 -8.18684 0.119281)
(72.9775 -6.89441 -0.102367)
(75.9854 -3.41375 -0.43115)
(78.3995 -0.409766 -0.588494)
(79.7074 2.74944 -0.423021)
(79.8412 5.91851 -0.0645517)
(80.0677 7.62841 0.0925182)
(81.2488 8.15716 -0.217026)
(81.3999 7.55273 -0.621301)
(81.3343 5.68571 -0.989552)
(80.0868 5.01973 -0.928768)
(207.566 136.194 30.0709)
(31.7619 66.3642 10.4907)
(152.484 37.1186 23.4683)
(41.173 18.4772 3.57975)
(96.4151 19.6184 15.9741)
(57.7539 13.2627 1.80664)
(72.0927 10.5341 -0.863626)
(81.7015 12.375 2.41043)
(89.5496 -1.06763 1.49681)
(91.8458 -7.24251 2.83037)
(84.43 -8.93646 3.18657)
(80.6237 -6.58869 2.04156)
(81.6836 -2.97114 1.13715)
(84.6395 0.625498 0.585683)
(86.5019 4.16313 0.804947)
(87.909 6.45289 0.42813)
(89.6854 7.96054 0.0449644)
(90.1058 7.48455 -0.319927)
(89.2307 6.42915 -0.5405)
(85.7093 5.65877 -0.742832)
(306.035 -194.821 -186.618)
(18.5732 -16.9643 -22.1646)
(181.942 27.572 25.137)
(72.0263 25.6846 2.12045)
(102.67 30.5411 10.3406)
(81.2558 16.4784 -0.607303)
(111.409 1.5864 3.02375)
(117.27 -3.41227 4.00771)
(106.43 -9.06589 1.70166)
(101.432 -6.64282 -0.162984)
(96.5591 -0.225388 1.54668)
(88.1994 -2.01159 1.76375)
(82.3225 -3.31077 1.70146)
(81.0525 -2.15707 1.31506)
(81.2315 -0.0878038 1.16573)
(80.7617 4.10847 -0.249105)
(84.5307 6.70291 -0.416373)
(86.0215 7.55833 -0.317595)
(86.2539 8.0946 -0.410384)
(83.886 7.47114 -0.532513)
(110.905 -87.3233 -92.9493)
(-100.75 38.5156 -6.76217)
(122.139 37.6884 11.8616)
(7.93309 27.7219 0.608968)
(103.895 21.8591 11.4248)
(49.8191 -12.5098 2.38972)
(74.6676 3.63065 3.31504)
(57.7136 3.48411 1.85041)
(72.5702 -2.88503 -0.0281604)
(69.1613 -3.88185 -0.773263)
(77.0421 -1.18478 -0.469699)
(76.2546 -0.528366 0.381614)
(77.9159 -0.268641 0.56578)
(73.54 -0.665734 1.0128)
(68.251 1.09911 -0.383774)
(69.2631 1.03922 -0.479539)
(70.9962 3.42882 -0.791621)
(73.659 4.9309 -0.796791)
(75.0239 7.27028 -0.645874)
(75.5886 7.26513 -0.536872)
(115.55 88.3585 -82.8226)
(-7.18535 -11.586 -5.98052)
(105.734 8.33017 2.95064)
(43.9019 10.8664 1.28845)
(106.652 4.24204 4.22152)
(64.913 -2.03837 -0.789356)
(86.0465 17.9531 3.30366)
(65.6119 -10.7609 0.97843)
(72.9961 1.76307 1.98062)
(62.7529 -8.42084 0.996825)
(67.2897 1.56815 0.47731)
(62.397 -2.11382 0.595064)
(64.5114 2.32228 0.596896)
(62.5314 -0.391563 0.446568)
(63.7578 2.32196 0.187618)
(63.0435 1.98212 -0.082307)
(64.0399 3.02984 -0.27749)
(65.7699 3.16571 -0.346479)
(67.2068 5.23649 -0.430556)
(69.3145 5.83438 -0.313959)
(333.065 258.661 -66.7878)
(-43.6845 118.223 4.50326)
(135.624 52.0057 15.1392)
(37.4938 10.033 -2.02569)
(97.2677 13.9677 1.83051)
(44.0434 -1.91497 -2.01401)
(80.8379 12.3 3.20264)
(52.2917 -2.41197 0.910205)
(63.5497 1.79431 1.86561)
(51.2882 -5.00879 0.0549954)
(58.3621 -0.497809 0.285228)
(54.9961 -1.68768 -0.0545704)
(59.2488 1.09177 0.198818)
(58.1408 0.35414 0.0623096)
(59.6912 1.19692 0.108736)
(59.7607 0.823244 0.0652322)
(60.7391 1.4611 0.0496777)
(62.0162 1.64958 -0.103526)
(62.4776 2.96233 -0.167818)
(64.3742 3.84183 0.0292351)
(93.1458 51.0966 -131.03)
(-171.667 48.1437 96.4166)
(88.4777 28.5615 52.195)
(-4.47775 7.1455 10.5963)
(92.8583 11.5129 3.27096)
(42.5521 2.89105 -2.44276)
(84.1344 15.5113 1.27661)
(59.26 2.50768 -0.0981674)
(75.5139 5.87523 3.28045)
(59.4288 -4.04 1.37579)
(65.5713 -1.39793 1.71511)
(58.2365 -3.63405 0.485853)
(62.1437 -0.327412 0.45099)
(59.4385 -0.870766 0.0944113)
(61.6279 0.833385 0.119249)
(60.4819 0.662081 0.0107872)
(61.5137 1.41458 0.0723182)
(61.9435 1.41199 -0.0855259)
(62.2351 2.11735 -0.118436)
(63.3437 2.67788 -0.0211252)
(-39.8743 -301.66 -47.1803)
(-113.446 -35.4199 -55.2806)
(111.56 7.21857 -30.4697)
(16.1439 -2.07424 -8.98746)
(94.8424 0.751577 -7.71061)
(45.9306 -4.24623 -5.13926)
(84.0756 5.07631 -0.0891956)
(59.3638 1.47193 -0.420339)
(78.3624 5.67517 2.25711)
(62.5861 1.96606 0.79951)
(68.9766 1.98001 2.03587)
(60.229 -0.0146912 0.908587)
(62.9496 0.360698 0.324717)
(59.2648 0.0837714 -0.166207)
(60.9446 0.314696 -0.171255)
(59.7741 0.314202 -0.201954)
(60.7876 0.423083 -0.122253)
(61.2945 0.640941 -0.238129)
(61.5593 0.887589 -0.267567)
(62.4585 1.47651 -0.195854)
(134.117 -204.421 -44.4008)
(-71.4705 4.47587 -36.8913)
(134.533 -2.77735 -12.1777)
(21.1816 3.58693 -3.54645)
(105.091 12.8702 -1.67318)
(47.2942 3.85529 -3.30256)
(86.9815 10.5934 0.452345)
(58.7629 3.16906 -1.29305)
(79.3155 6.39161 1.35433)
(65.1676 2.52307 0.239892)
(73.908 3.70546 0.562311)
(66.2766 2.00079 -0.456524)
(69.7803 1.93694 -0.578357)
(66.2983 1.09427 -0.820244)
(67.9617 1.01459 -0.635033)
(66.5155 0.750697 -0.568157)
(67.3526 0.69348 -0.422659)
(67.2898 0.674438 -0.460598)
(67.3213 0.547156 -0.499814)
(67.5142 0.808554 -0.499047)
(166.9 -114.594 97.6796)
(24.8101 7.57896 -25.0764)
(130.771 -6.62379 -23.9499)
(24.5938 3.88389 -3.41903)
(105.453 7.50368 2.28312)
(37.9839 4.47725 -0.557621)
(83.9069 3.5296 1.8059)
(53.9372 4.45534 -0.473965)
(80.9037 4.78269 0.251662)
(69.9662 5.73633 -1.04816)
(82.121 4.63803 -0.9803)
(77.695 3.98468 -1.71965)
(82.4168 2.38006 -1.9107)
(80.0383 1.91116 -2.10738)
(81.5193 1.06391 -1.91015)
(80.0196 0.912795 -1.66251)
(80.4851 0.595202 -1.22296)
(80.1539 0.641211 -1.02381)
(79.8637 0.304735 -0.954491)
(79.3492 0.561454 -1.01199)
(68.4873 3.05885 29.5051)
(19.9937 24.3444 -38.6934)
(143.64 25.5856 -16.6116)
(78.268 22.624 -2.15048)
(144.526 24.3394 10.3276)
(112.965 20.5647 9.40522)
(136.828 10.7686 14.431)
(114.248 6.01949 11.8495)
(121.343 1.976 11.423)
(109.341 3.65985 8.61661)
(115.116 4.5444 6.92228)
(112.516 5.83997 5.17588)
(117.619 5.85898 4.08402)
(118.28 5.74695 2.67623)
(122.217 4.94988 1.9165)
(122.744 4.27075 1.50218)
(124.557 3.52597 1.46918)
(124.748 3.01142 1.77845)
(124.53 2.1516 2.20392)
(123.426 1.90987 2.19703)
(61.8272 -43.0979 -168.58)
(-55.2847 -45.7199 -18.7198)
(142.821 -18.545 -44.3275)
(-32.5708 -5.40081 -13.8029)
(108.882 -8.18565 -8.57589)
(17.6919 -5.72864 -6.32868)
(90.4146 -10.3375 1.01467)
(56.0336 -6.64858 -2.07097)
(89.4836 -8.77394 1.12345)
(78.8798 -7.18212 -0.357889)
(95.3124 -7.86096 0.98449)
(93.8103 -7.05533 -0.239889)
(102.717 -7.1971 0.0641186)
(104.699 -6.31204 -0.721482)
(111.806 -6.36904 -1.23705)
(113.832 -6.99005 -2.73468)
(117.707 -7.89081 -3.75203)
(118.59 -8.04386 -1.90437)
(121.437 -7.02227 3.31279)
(120.415 -4.12381 4.73453)
(155.633 38.2818 -62.3235)
(26.8465 -13.909 -44.0307)
(136.443 -7.06885 -36.113)
(-4.20338 2.05018 -3.06893)
(110.306 -16.3694 -1.82611)
(34.82 -2.41899 -0.933008)
(91.8393 -16.3307 3.15118)
(58.7905 -5.95716 0.647268)
(85.9477 -11.1814 3.12976)
(73.2599 -6.62768 1.90976)
(86.3011 -8.05908 2.96598)
(82.3701 -6.53401 2.15386)
(89.2943 -6.98066 2.32687)
(89.2107 -6.82496 0.832917)
(93.3941 -6.96451 0.131341)
(93.2857 -6.71713 -0.593986)
(94.0277 -5.79416 -0.406146)
(90.6658 -3.55568 0.32594)
(88.158 0.631313 3.03092)
(85.8 2.29251 1.60373)
(56.8006 88.0073 -139.292)
(-25.2179 -9.7779 -37.7194)
(109.621 -23.7941 2.07657)
(21.9573 -13.3495 4.71692)
(107.753 -27.7294 5.73375)
(55.3271 -8.47065 1.26033)
(95.0545 -19.8256 3.38265)
(68.4965 -7.8482 0.28052)
(87.0929 -13.2103 2.33146)
(74.3381 -6.91729 1.42009)
(83.2954 -8.8402 2.68577)
(77.0257 -6.48108 2.03284)
(80.6272 -7.74929 2.24288)
(77.6076 -7.57319 1.2864)
(78.9352 -7.64533 0.570117)
(76.6915 -6.46766 -0.539514)
(76.2691 -3.28007 -0.885664)
(72.815 -0.43195 -1.25276)
(71.1285 3.06718 -0.496499)
(69.3983 3.61127 -0.699513)
(190.807 96.4551 17.3039)
(53.0858 -9.14956 12.7744)
(140.856 -7.94628 -8.73652)
(69.4716 -4.51435 5.31779)
(116.646 -10.3399 0.189107)
(66.6089 2.17301 -2.27062)
(94.5234 -9.22226 -0.303963)
(68.8102 -1.96391 -2.29711)
(84.1914 -7.94628 -0.0906097)
(72.661 -2.6039 -0.624926)
(79.8773 -3.91171 0.830739)
(73.8449 -0.893585 1.12182)
(76.1544 -2.17703 2.12016)
(72.5747 -2.29909 1.51097)
(72.6064 -3.48879 0.912697)
(69.5455 -3.65265 -0.0507463)
(68.2896 -1.9805 -0.405606)
(65.5681 0.0914841 -0.242287)
(64.71 2.70058 0.0658625)
(63.7797 3.45964 -0.457496)
(113.874 37.1306 -84.337)
(-127.695 -21.6738 30.5679)
(126.591 -23.9539 18.5658)
(19.8959 2.39571 10.4764)
(108.312 -13.0351 8.15585)
(56.6136 -2.269 -2.0071)
(90.2515 -18.0331 -0.565819)
(68.5454 -7.48636 -3.35661)
(83.0061 -14.8636 -1.41038)
(73.0011 -6.62052 -1.44238)
(79.3744 -7.53706 0.0109376)
(72.9704 -1.69853 -0.00587179)
(73.8801 -1.88358 1.42553)
(69.3887 -1.11247 1.24424)
(68.437 -2.21486 1.22616)
(65.3792 -1.50225 0.740059)
(65.3423 0.677697 0.42031)
(64.0471 2.82659 0.0292683)
(63.4466 4.59807 -0.196303)
(62.3008 4.44232 -0.671237)
(353.31 -42.7559 -75.624)
(117.803 -36.6365 -20.5051)
(148.877 -59.9712 -6.40839)
(67.1327 -4.0248 0.0725121)
(118.309 -12.5402 9.31864)
(81.0105 3.23426 1.38658)
(102.476 -12.6124 2.08315)
(85.3389 -6.78699 -0.442066)
(91.4794 -12.317 1.19548)
(83.8435 -5.24434 0.844133)
(86.1466 -3.34612 1.25872)
(80.5347 2.76194 -0.0747913)
(78.798 4.57184 0.569614)
(74.0946 5.47816 1.40398)
(72.3526 2.80715 2.19927)
(68.3878 1.04186 1.95564)
(67.3299 0.520352 1.16645)
(65.9943 2.0296 0.431235)
(65.3851 3.83539 -0.15271)
(64.61 3.99171 -0.571527)
(162.025 35.9497 -119.461)
(17.107 -24.7903 -20.4859)
(143.281 -23.8086 -7.93554)
(68.7575 -0.92478 -0.425578)
(115.364 -0.99683 8.32328)
(72.7791 5.94558 3.49721)
(86.9917 -15.3734 5.79467)
(72.8979 -0.0381563 4.54384)
(81.5162 -9.70263 3.46517)
(76.7576 0.090956 0.721436)
(79.7154 -0.892484 -0.764789)
(76.8432 4.53323 -1.97727)
(77.7527 4.75133 -2.39357)
(75.8298 6.92838 -1.83333)
(73.6209 7.4725 -0.742361)
(70.0748 6.95243 1.49296)
(70.0373 5.84032 3.24483)
(70.1317 5.49247 2.43518)
(69.6981 5.2473 0.8719)
(68.7442 4.48575 0.0313292)
(143.246 -95.0119 -102.341)
(91.2353 -56.8373 -6.62639)
(160.116 -26.2107 2.87558)
(80.6675 -2.98615 3.95)
(117.347 8.60711 8.28492)
(75.4135 29.0219 2.47792)
(88.3897 5.26352 4.06938)
(71.6342 -3.20131 4.74797)
(74.1903 -7.31821 2.36778)
(70.2721 -7.56215 -0.344556)
(73.2218 -4.95818 -1.86195)
(71.9784 -2.69766 -2.57951)
(73.5458 -0.905374 -2.77942)
(72.3415 1.59551 -2.58899)
(66.0434 5.97355 -0.350692)
(66.0858 6.75748 0.854628)
(67.3871 7.88996 1.18439)
(67.8681 7.48887 0.66912)
(67.9577 6.3876 0.283481)
(67.6478 5.1044 -0.0564964)
(184.734 -76.0218 -116.182)
(55.8608 -45.0785 -36.9906)
(109.463 12.7309 2.2272)
(10.3914 13.1791 -0.551608)
(77.4127 22.9313 6.12882)
(51.7168 22.2847 -0.330535)
(68.6958 17.7689 1.59972)
(65.0783 3.13753 3.74115)
(67.6683 -2.8975 1.9471)
(66.5988 -6.8517 -0.643919)
(67.4792 -5.34063 -1.92803)
(66.9607 -3.72154 -2.07043)
(67.8292 -1.70248 -1.93387)
(67.5194 0.389413 -1.67845)
(66.4233 3.14493 -0.758384)
(64.2725 6.22424 0.143219)
(65.483 6.848 0.267086)
(66.6213 6.0475 0.00535021)
(67.1398 5.36186 -0.299055)
(66.9866 4.76913 -0.388828)
(222.879 175.962 39.0379)
(20.2902 25.1918 -27.6431)
(123.016 36.3017 -20.4175)
(2.10939 17.2949 -2.03435)
(80.8884 22.8727 2.14221)
(44.8826 20.636 -0.678541)
(63.6802 18.6763 1.70419)
(65.9834 5.49285 2.44425)
(64.7885 -1.92269 0.65418)
(64.2291 -5.49529 0.21847)
(65.8124 -4.82337 -0.095938)
(67.5837 -2.6391 -0.369837)
(69.0046 -0.242416 -0.564949)
(69.9041 2.30569 -0.392111)
(69.8441 4.55672 0.0724648)
(68.8124 5.5829 0.373834)
(69.8181 5.92869 -0.0555615)
(69.7747 5.45653 -0.457754)
(69.3776 4.46195 -0.758629)
(67.7309 4.41826 -0.94967)
(145.4 194.973 155.187)
(-43.931 108.955 48.5342)
(109.924 60.232 38.5803)
(-15.1375 27.0863 3.96768)
(75.0901 24.5262 13.4819)
(35.7755 13.8558 1.19816)
(57.8692 9.02549 0.0499102)
(68.7259 6.03718 2.59966)
(75.0683 -1.26481 1.60193)
(74.0817 -3.69704 2.43562)
(74.7135 -6.37579 1.89207)
(74.5924 -4.42845 1.78967)
(74.902 -1.70257 1.01501)
(76.4403 1.00012 0.716293)
(76.3887 3.81782 0.919334)
(74.9827 5.11166 0.453175)
(75.4086 5.85768 0.196843)
(75.0628 5.07645 -0.0985361)
(73.7287 4.78486 -0.249173)
(70.5602 4.49801 -0.780364)
(-38.8805 48.5467 -127.331)
(-130.591 41.2567 34.3415)
(103.077 55.0071 18.0832)
(-15.0331 30.4823 2.07627)
(70.5885 29.9254 8.75824)
(39.4943 7.81664 -0.972279)
(74.8701 -2.65689 3.38153)
(81.6188 -1.24023 4.75537)
(81.9781 -3.10049 1.83761)
(79.0988 -0.721814 0.433055)
(75.6135 0.462822 1.88131)
(72.1319 -1.02958 2.01957)
(71.2682 -1.24624 1.49088)
(72.2449 -0.211163 1.09511)
(72.397 1.9372 0.780072)
(69.9686 5.09996 -0.0525509)
(71.6653 6.2179 -0.213332)
(71.9441 6.17164 -0.132173)
(71.4096 6.54967 -0.306229)
(69.1546 5.85686 -0.710076)
(92.2969 -98.1438 -79.6408)
(-105.016 -8.25259 -28.0535)
(101.668 25.1861 -4.61935)
(-28.9525 24.246 3.24627)
(88.5927 16.4742 9.21069)
(25.1529 -16.6174 2.55212)
(56.1074 5.92953 3.56625)
(43.6817 2.25309 1.48425)
(59.1569 0.879036 -0.067474)
(55.9404 -0.57377 -0.842622)
(63.4867 1.2799 -0.131253)
(61.8311 0.507383 0.445749)
(64.5209 0.761998 0.509264)
(62.3504 0.252488 0.613731)
(59.0441 1.78134 -0.200431)
(60.4929 1.69229 -0.371053)
(61.7773 3.54362 -0.62002)
(63.2901 4.25047 -0.644048)
(63.7869 5.85814 -0.599359)
(63.9423 5.40327 -0.670112)
(154.961 125.482 -58.6344)
(-12.1079 5.60357 -8.47908)
(87.7518 16.7505 11.9825)
(9.70702 14.4328 2.83741)
(85.8284 4.52989 5.70097)
(30.8344 -2.39112 -1.26196)
(62.1007 20.7314 3.25894)
(40.9221 -12.7465 0.67443)
(55.559 4.63861 1.58742)
(47.1592 -7.25932 0.654949)
(54.5564 3.27016 0.334947)
(50.6175 -1.85608 0.415022)
(54.3266 2.51877 0.417911)
(53.1641 -0.59223 0.2763)
(55.1806 2.25918 0.0790969)
(54.8143 1.75678 -0.16423)
(56.1069 2.7471 -0.229972)