/*--------------------------------*- C++ -*----------------------------------*\
  =========                 |
  \\      /  F ield         | OpenFOAM: The Open Source CFD Toolbox
   \\    /   O peration     | Website:  https://openfoam.org
    \\  /    A nd           | Version:  10
     \\/     M anipulation  |
\*---------------------------------------------------------------------------*/
FoamFile
{
    format      ascii;
    class       volScalarField;
    location    "9.6";
    object      nut;
}
// * * * * * * * * * * * * * * * * * * * * * * * * * * * * * * * * * * * * * //

dimensions      [0 2 -1 0 0 0 0];

internalField   nonuniform List<scalar> 
12920
(
1.9099
2.27039
1.99485
3.61906
2.66122
2.57194
1.66453
1.42114
1.04014
0.904107
0.760173
0.693201
0.619593
0.562731
0.49911
0.446401
0.406912
0.381192
0.364386
0.326079
10.3111
9.52151
3.99773
7.09088
3.93282
4.92302
2.67464
2.60212
1.85165
1.78643
1.53867
1.50914
1.39581
1.35703
1.26299
1.20108
1.12731
1.08808
1.02708
0.952402
11.7058
10.3772
6.69418
7.37189
5.28368
5.72218
3.13753
3.2135
2.11463
2.11021
1.74117
1.70763
1.53644
1.48996
1.37689
1.32602
1.25152
1.19725
1.13949
1.04237
3.1565
10.0893
9.46288
8.30531
5.11103
5.18152
2.29167
2.54993
1.74936
1.92587
1.58647
1.59365
1.41826
1.37804
1.27643
1.23211
1.16237
1.11607
1.0677
0.966726
1.48848
11.8742
9.85544
7.26765
3.80843
4.44399
1.90602
2.24889
1.61459
1.7709
1.43643
1.44178
1.25848
1.22821
1.13234
1.11268
1.06048
1.04285
1.00612
0.923228
11.8985
13.6873
6.20719
7.57942
4.31801
5.17922
2.28344
2.37579
1.72608
1.89369
1.56179
1.51482
1.32122
1.26452
1.17976
1.13266
1.07302
1.03403
0.979383
0.886594
3.51184
9.0295
7.60167
9.96023
5.79923
4.90891
2.81496
2.44061
1.96931
2.02406
1.71182
1.58157
1.33122
1.22931
1.09927
1.05233
0.974599
0.94296
0.879412
0.800422
1.12227
2.48973
3.97557
5.08717
4.80697
4.09443
0.983318
0.624866
0.681782
0.778301
0.663718
0.562827
0.458123
0.385989
1.22734
1.0519
0.921819
0.848309
0.762649
0.685375
7.18137
12.6209
8.38464
7.85211
5.55073
1.60562
0.341196
0.171991
0.180476
0.166777
0.185175
0.179093
0.164851
0.139556
0.412132
0.999216
0.887805
0.821201
0.733421
0.612891
1.47584
10.8006
7.60308
8.82268
4.54673
1.60832
0.349995
0.192006
0.164358
0.154754
0.147476
0.157079
0.160675
0.144874
0.442724
0.939339
0.74639
0.709975
0.682786
0.589347
1.48475
9.95222
7.73324
8.06834
5.92772
2.18252
0.408665
0.210731
0.186657
0.17644
0.158133
0.0867864
0.0866212
0.126107
0.498717
1.02779
0.782393
0.689225
0.648353
0.562826
6.86705
13.3927
9.41461
8.12673
4.85213
1.44628
0.331742
0.174354
0.213904
0.236909
0.224159
0.188211
0.108517
0.125168
0.502481
0.98506
0.833018
0.765847
0.700099
0.603558
10.5777
14.828
10.3295
9.43897
4.51112
4.07227
0.874934
0.741562
0.744133
0.808079
0.673689
0.621415
0.523334
0.451422
1.14735
0.946779
0.851643
0.795921
0.754767
0.68856
6.86153
14.0997
8.63321
6.72782
2.76315
4.45056
2.40713
2.9073
2.33105
2.25177
1.8077
1.63102
1.35393
1.23694
1.09387
1.02973
0.926691
0.839473
0.776097
0.712626
12.4513
13.8901
8.68789
7.75261
4.18382
5.48803
3.21646
3.44429
2.36256
2.23791
1.754
1.60381
1.36111
1.29421
1.23033
1.20412
1.10826
0.962572
0.833332
0.725354
3.49507
9.58495
5.52944
6.18985
3.60719
4.19435
2.99786
3.30031
2.49839
2.50114
1.94868
1.78941
1.47543
1.38455
1.24088
1.20658
1.10397
0.996546
0.852549
0.732377
4.59081
10.7083
5.48238
8.14689
3.98213
4.76533
3.04686
3.30411
2.3467
2.35247
1.87466
1.7649
1.47905
1.37158
1.22523
1.14966
1.01664
0.926452
0.834412
0.742747
10.3079
15.291
4.21918
5.46104
3.18395
5.02519
2.65718
3.17641
2.0711
2.10838
1.6275
1.54825
1.31006
1.22451
1.07967
1.00496
0.909692
0.856937
0.803088
0.734956
8.64613
4.86047
3.72638
5.53067
2.79646
4.62136
2.26524
2.57013
1.74741
1.68547
1.30767
1.19531
1.02932
0.982163
0.90332
0.866196
0.806746
0.769662
0.72461
0.668869
0.289081
2.51653
3.0891
5.58957
2.36167
2.53567
1.50121
1.39693
1.00782
0.851903
0.72982
0.673579
0.558914
0.463228
0.392192
0.350438
0.326382
0.303158
0.288023
0.251576
1.02565
1.50091
2.29506
14.078
17.6699
19.2219
10.1363
8.37281
5.69066
5.18688
4.37253
4.12779
3.70223
3.47808
3.21382
3.0033
2.84538
2.74372
2.66092
2.38255
11.2236
14.461
25.1667
30.5242
23.1262
19.5893
15.6935
16.163
16.221
17.3927
17.5103
17.5757
17.3553
17.284
17.0379
16.8898
16.7042
16.6122
16.402
16.1715
16.3315
29.1057
37.5782
32.8745
26.204
24.2865
20.8981
20.8064
19.9586
19.8229
19.2308
18.9427
18.3881
18.009
17.5198
17.2077
16.856
16.592
16.3473
16.1288
17.0052
41.0293
42.7253
34.8993
20.7614
17.5414
14.1414
16.5899
17.571
18.4104
18.0119
17.7002
17.1398
16.7723
16.3289
16.056
15.7625
15.5237
15.4064
15.1516
22.5628
40.9548
43.4782
27.8317
12.6008
12.3868
12.5071
15.4704
17.0334
17.5933
16.9054
16.6001
15.8518
15.6301
15.2461
15.2129
15.0562
14.9688
14.7841
14.5164
26.9011
41.5634
39.2409
30.0018
16.2415
13.4153
11.6674
15.2831
16.7958
17.2801
16.3453
15.8209
15.1591
14.9629
14.774
14.7093
14.6132
14.4667
14.1633
13.8659
8.07142
34.0253
42.1607
36.7017
20.4502
15.1331
12.1372
14.3881
16.8402
16.635
16.3161
15.0572
14.4899
13.9495
13.7751
13.6894
13.635
13.5429
13.1925
12.9923
10.1384
34.586
30.7779
22.3144
14.6756
13.7773
11.8632
14.4283
15.8548
16.6424
15.4501
14.5501
13.3612
12.3469
13.385
12.7353
12.4156
12.2667
11.8386
11.8334
10.2902
44.098
35.8207
22.8604
15.7966
8.09776
9.72267
14.7752
14.9153
15.4573
15.6811
15.07
13.8726
12.4105
11.4308
11.8164
11.878
11.6137
10.9332
10.573
13.9205
37.628
39.4441
38.8603
31.3522
22.1331
18.2681
17.0711
16.0203
15.5324
15.2096
14.6874
13.3025
11.3221
10.2776
9.9101
10.5588
11.0046
10.9044
10.2595
8.80264
36.1805
40.0906
32.3631
28.0322
23.283
19.8483
18.5787
17.7558
16.6425
13.667
9.32285
9.44841
10.6724
12.6445
10.7235
10.7341
10.8525
10.7242
10.3024
15.8403
56.7835
48.7238
34.5567
18.7985
11.3164
11.4983
17.3397
19.5476
19.5518
18.1363
14.9585
13.1352
14.1041
11.7997
11.7668
11.6251
11.4977
11.353
11.1494
32.4086
59.0186
42.2235
30.7199
16.5209
16.9898
14.8508
18.019
19.8531
19.6818
17.9379
16.7382
14.9636
12.7877
12.5787
12.3407
12.1796
12.1314
12.1524
12.2034
29.4619
54.642
44.6934
28.2474
21.5862
20.8989
20.8614
19.9855
20.2507
18.4162
17.2398
15.5307
14.5596
13.9299
13.564
13.2957
12.9561
12.5568
12.3761
12.2149
25.3555
51.4393
41.8284
34.0859
27.5671
27.5129
24.8756
23.0453
20.4203
18.8875
16.6413
15.8469
15.2514
15.19
14.8672
14.5696
13.8932
12.8754
12.2712
12.1124
12.3215
31.9499
34.9906
32.1533
27.3529
27.1549
25.007
24.1462
22.1007
20.6768
18.5965
17.57
16.4002
16.0563
15.4542
15.1744
14.5219
13.8275
12.5335
12.1298
17.3397
35.5158
40.4406
33.7369
27.165
25.8649
24.2025
23.1447
21.417
20.039
18.6145
17.6794
16.6478
16.1256
15.4502
15.0775
14.3337
13.7466
12.9557
12.7054
33.9976
32.6148
19.721
15.3231
19.1717
22.1827
21.6605
21.0752
19.7468
18.7647
17.5256
16.9021
15.7532
15.2595
14.4733
14.2026
13.8266
13.7877
13.3886
13.1835
32.8136
40.2923
21.7927
23.2371
23.5023
22.0012
19.0228
18.7083
17.571
17.3761
15.8097
15.2636
14.1739
13.8939
13.5205
13.5872
13.4676
13.4688
13.1733
12.8833
3.51477
3.92908
8.61145
14.9701
9.84901
12.9312
8.76279
9.59754
7.55217
6.91473
5.49259
4.70005
3.69304
3.02048
2.50459
2.29713
2.19339
2.16428
2.12985
1.98135
2.25046
4.31469
6.27863
18.6412
21.8479
20.1282
12.6073
11.1367
7.67576
6.89695
5.68512
5.17669
4.56321
4.23754
3.95407
3.664
3.49024
3.23145
3.08114
2.66149
13.7675
25.6996
38.4881
39.9586
34.2779
30.2843
25.8882
25.8658
24.8792
24.806
23.9516
23.6842
23.1225
22.8427
22.5093
22.4064
22.3384
22.4132
22.2502
22.0667
20.4292
45.2494
55.0869
48.6286
40.2303
36.5731
33.256
31.6738
30.033
29.0358
27.8542
27.0726
26.1441
25.4609
24.7921
24.3678
23.9754
23.7194
23.4771
23.2585
57.0207
55.6126
55.6147
48.6435
34.6495
31.3311
29.4514
30.2591
29.7486
29.1006
27.8803
26.9065
25.8777
25.0962
24.3883
23.8828
23.4614
23.1415
22.953
22.7
54.0121
64.2492
58.9075
41.3815
25.8788
26.9277
28.1057
29.6312
29.0064
28.2051
26.6883
25.6274
24.496
23.8469
23.2567
22.9404
22.6264
22.4032
22.1545
21.9123
57.8151
45.8606
56.4102
41.1237
25.8151
25.885
27.3252
29.9815
28.7983
27.496
25.5121
24.4082
23.3708
22.8515
22.3644
22.0746
21.7846
21.5411
21.2271
21.0212
50.0018
56.7139
51.2827
43.3022
30.0232
25.6128
26.4559
29.3565
28.7047
26.7262
24.6344
22.9851
21.8696
21.2496
20.8178
20.5791
20.3703
20.1821
19.8772
19.8066
56.3196
68.3039
34.7931
29.2289
26.868
22.831
23.0129
29.1786
28.6336
26.5446
24.2806
22.1422
20.5531
19.1396
18.6119
18.414
18.2754
18.1763
17.9549
18.0555
40.999
59.5714
45.7636
40.989
34.0914
29.51
22.6464
29.1878
27.4315
26.2659
24.5656
22.6267
20.1685
17.8724
16.2005
16.3037
16.6617
16.624
16.1618
16.1173
39.9867
52.2313
51.1346
55.507
49.1051
40.9466
35.1933
31.3442
28.4468
26.5489
24.0848
20.5624
16.9132
13.7674
12.6555
13.9777
14.9492
15.586
15.4435
15.065
55.6025
54.006
52.4442
49.5932
46.1187
42.3228
37.8887
33.6961
30.5481
28.6229
8.98992
7.1959
8.96962
13.7363
16.0701
14.6003
14.7886
15.2109
15.1811
15.0743
43.4806
71.3419
61.3323
46.8514
33.3836
29.4992
31.0073
33.9436
33.0479
30.8617
27.3734
22.6599
21.0045
20.5198
16.9267
15.8918
16.0026
16.2413
16.299
16.3702
63.9926
72.6582
56.7955
45.1082
34.5634
36.82
33.2126
35.0538
33.9223
31.0086
27.4596
24.458
21.7016
18.9299
17.7006
17.5699
17.6434
17.747
17.9577
17.9228
56.2509
69.4343
61.2695
46.5183
42.5994
39.6801
38.3201
35.7097
33.2903
29.874
26.6955
24.0789
21.9463
20.7868
19.8303
19.3616
18.9353
18.5979
18.4369
18.2043
19.1203
57.635
57.3341
48.5664
45.0248
43.8333
40.7255
36.9412
33.1275
30.1121
26.9273
25.1403
23.5815
22.6405
21.6688
20.8451
19.903
19.0853
18.6974
18.3748
31.3213
48.4812
50.8289
44.9858
40.965
42.8936
40.7455
37.7659
34.1232
31.1675
28.3815
26.4747
24.8112
23.7173
22.6182
21.853
20.9437
20.1575
19.3259
19.0401
13.8931
62.4949
58.6184
46.2922
40.3886
41.365
39.7222
36.4398
33.1141
30.3529
28.1857
26.4447
24.9148
23.8176
22.768
22.0326
21.2202
20.6722
20.1104
19.8448
23.7412
51.5062
40.209
36.7067
39.11
39.6955
36.4453
32.9985
30.2868
28.223
26.5657
25.2896
23.9299
23.0392
22.0845
21.5701
21.0556
20.7754
20.4231
20.1572
62.2759
51.9825
45.8559
40.5405
39.0306
35.0434
30.6849
28.7432
25.8554
24.6826
22.702
22.0578
21.1874
20.9029
20.4121
20.1953
19.8303
19.5802
19.2512
18.8823
2.67634
15.6763
15.9067
20.9847
13.7185
16.8326
11.6692
11.8847
8.63656
7.47308
5.85948
4.92924
4.08345
3.69897
3.33146
3.14774
3.00589
2.89309
2.81513
2.58866
2.08293
12.7921
16.7831
25.3283
19.7675
19.8126
13.0686
11.7086
8.33098
7.26979
5.9314
5.18643
4.44584
3.85794
3.53705
3.25821
3.06347
2.83707
2.73691
2.46597
23.3665
47.3951
52.5151
50.2908
38.0465
34.3929
29.6661
28.8896
26.3518
25.5317
24.1388
23.8314
23.5077
21.5084
20.8854
20.5014
20.4866
20.6244
20.5881
20.4919
65.7548
61.7461
66.7703
56.3223
47.6371
42.3547
38.9802
36.015
33.3691
31.8094
30.0445
29.0532
28.0482
27.3514
26.7701
26.3252
25.958
25.6652
25.3603
25.1152
36.7141
70.5463
67.7482
57.3332
46.0532
41.5332
39.3017
37.2073
34.9032
33.2663
31.2713
29.8926
28.5648
27.5364
26.7192
26.0706
25.5937
25.2227
24.9411
24.728
35.2734
78.7814
71.0781
51.1352
41.1751
38.9061
38.6265
37.4351
34.6054
32.6314
30.3429
28.8304
27.4481
26.5419
25.7975
25.2648
24.833
24.4944
24.1997
24.0032
51.3321
73.0788
64.7012
49.0653
39.6881
37.8334
38.65
38.1657
34.2398
31.6532
28.9185
27.4595
26.1921
25.4085
24.7564
24.2767
23.9009
23.578
23.3
23.118
100.902
75.4301
61.8015
55.3929
42.8874
39.0874
38.7146
38.2116
33.5633
30.6786
27.3056
25.5511
24.1167
23.4432
22.8685
22.5145
22.2611
22.0388
21.8235
21.7154
61.1901
76.7938
53.5761
51.3382
42.7126
38.9031
37.7291
38.1396
34.0206
29.7054
26.4119
23.5046
21.9867
20.572
19.1665
19.6244
19.7972
19.7993
19.7246
19.7171
78.139
70.0441
63.2921
60.5458
53.3671
46.1064
32.8483
37.3332
33.2099
29.3052
26.0257
22.7242
19.9001
17.9269
16.4801
16.8477
17.6303
17.8448
17.7269
17.6359
73.2412
68.3018
66.3293
66.32
58.462
50.2683
44.4012
38.2966
33.5697
30.319
26.3163
20.9476
16.3414
14.0732
13.7743
15.315
16.3931
16.8534
16.7443
16.4343
65.3514
67.9004
64.3056
61.3828
57.149
52.4842
47.5742
40.766
35.6568
32.0667
14.1562
10.5644
13.0331
15.6822
15.3411
15.2238
16.0825
16.613
16.6951
16.5338
37.0057
67.6024
66.9739
58.2939
50.709
47.5315
46.3703
43.095
38.393
34.0563
29.4829
24.9268
22.5238
20.4303
16.5354
16.1741
17.1166
17.7484
17.8961
17.9288
44.7649
78.2676
66.9576
57.343
52.0393
50.9895
47.0984
44.4804
40.1101
34.4908
29.6234
25.5682
22.3037
19.406
17.9105
18.5588
18.9326
19.2983
19.4936
19.3751
78.8676
76.3386
70.2925
58.5122
55.5786
51.9478
48.7241
44.1777
39.2938
34.726
29.9468
26.7943
23.8302
22.4105
21.236
20.7569
20.3206
20.114
19.909
19.5747
55.5386
73.454
65.5318
59.0926
56.8347
53.8019
49.4277
44.0824
39.3199
35.2814
31.1683
28.552
26.2123
24.6908
23.3623
22.3642
21.4938
20.8401
20.3367
19.9398
64.2586
65.9965
62.2313
56.2248
53.814
54.3443
49.4159
44.497
39.5607
35.8493
32.4636
29.8365
27.6383
25.9865
24.6153
23.5925
22.6948
21.9942
21.4138
21.0071
67.6251
75.697
67.9205
56.59
52.8196
52.7621
47.8677
42.3893
37.9789
34.6369
31.8957
29.5648
27.6551
26.1723
24.954
24.0281
23.277
22.7358
22.2823
21.9633
55.1671
68.1057
60.4242
52.2848
52.1856
49.0335
42.5946
37.7182
34.277
31.8495
29.8857
28.1664
26.6813
25.5087
24.5183
23.7851
23.2114
22.7681
22.4077
22.1076
33.517
42.8188
42.5152
47.0306
44.462
40.1556
34.2133
31.2981
27.8807
26.5565
25.0085
24.4513
23.589
23.0715
22.3894
21.9028
21.3716
20.9752
20.6145
20.1899
25.4439
21.0011
29.8544
23.2095
17.223
16.8986
11.7137
9.29473
7.03229
5.47116
4.7962
4.29926
4.08611
3.93581
3.71096
3.4945
3.31656
3.13989
3.02986
2.75585
3.03071
32.2961
13.645
23.9661
8.38425
9.04918
4.72429
4.02343
2.84637
2.48655
2.07548
1.85272
1.60836
1.49884
1.38443
1.36494
1.31756
1.31718
1.28193
1.19631
54.6003
60.321
38.1046
48.5303
24.0091
32.5061
17.5235
20.2539
14.4881
14.6763
12.7639
12.6324
12.0911
12.2336
12.0718
12.0036
11.802
11.8261
11.4795
10.9354
78.3133
39.8356
54.3237
44.2193
33.3926
41.2673
23.9749
33.9067
19.163
20.8467
16.6698
16.7587
15.0733
14.6998
13.9509
13.6229
13.1704
13.1616
12.8228
12.1532
46.9424
78.4664
62.8303
60.3411
33.0336
43.6867
23.6508
36.7795
18.8556
21.3347
16.2766
16.5246
14.5959
14.2696
13.4156
13.1045
12.6427
12.668
12.3845
11.7094
94.5229
83.3427
72.46
37.4393
33.0551
42.6326
22.6489
31.9714
17.522
19.2684
14.8631
15.1838
13.4415
13.4169
12.6181
12.5135
12.0623
12.1673
11.8869
11.2763
27.2705
83.8226
52.9347
50.994
27.3239
43.007
21.1075
31.7432
17.0807
18.1923
14.3101
14.3757
13.0657
12.8969
12.3627
12.1294
11.7163
11.7439
11.4586
10.8408
108.126
56.216
39.7493
38.9717
29.4826
43.726
22.4461
32.0828
17.7089
17.5895
13.512
13.4741
11.9231
11.8853
11.1039
11.1136
10.7163
10.8533
10.5913
10.0931
39.4475
85.1959
43.7337
59.4965
25.5108
35.062
43.5184
38.5306
31.879
27.5356
22.8723
20.5272
18.7706
17.8499
10.1768
9.85941
9.59205
9.72381
9.55687
9.16372
52.1344
75.3626
54.4481
69.642
51.3894
49.3397
39.5588
35.9979
29.1063
24.1496
20.1805
17.1613
15.2721
14.3223
14.044
9.21964
8.80268
8.80911
8.59316
8.26956
20.9787
66.9234
43.4717
70.762
28.0517
50.6809
43.4301
34.3723
28.4084
24.7124
20.7485
15.7697
12.9036
12.4708
13.1001
8.97493
8.49819
8.43149
8.13147
7.80567
26.3733
62.8742
45.5289
67.7379
44.635
53.695
46.7507
36.005
30.2839
27.2095
21.6859
15.7072
13.2808
13.4057
13.3285
8.99159
8.62202
8.59699
8.31426
7.94312
28.1488
56.8009
41.6258
64.9366
29.4027
52.9513
47.3695
39.6921
32.9936
28.2905
23.7553
19.824
17.2998
15.1099
13.6159
9.44693
9.28874
9.42223
9.19387
8.67472
98.9595
80.428
42.6733
62.7638
32.1788
54.9545
49.5343
44.8388
36.7551
31.1454
25.3963
21.7759
18.1751
16.0715
9.95718
9.8881
9.88123
10.1148
9.94285
9.36112
86.4639
80.9402
39.8629
62.4043
29.7936
55.1185
25.2271
35.4783
21.2165
20.7219
15.4498
14.4036
12.076
11.5297
10.4719
10.4488
10.0572
10.2148
9.94825
9.35919
67.4551
75.8675
40.2752
63.2507
37.4357
55.0872
28.2342
37.2625
21.6171
21.0519
16.3387
15.2681
13.2546
12.5442
11.5806
11.1257
10.5377
10.4928
10.1004
9.56871
64.6863
78.3178
52.144
63.992
38.3476
55.3717
27.9397
33.3996
21.1318
22.3013
17.0288
16.6566
14.0786
13.4889
12.1899
11.8435
11.0934
11.129
10.6887
10.2134
28.707
81.236
57.8894
63.6105
40.0651
54.0196
28.422
36.7679
21.3192
23.3477
17.4299
17.051
14.4672
13.8154
12.6187
12.2229
11.6051
11.639
11.2419
10.7852
68.3286
75.0191
59.0282
59.9734
34.4743
48.6018
24.196
34.5941
19.0567
21.9311
16.3071
16.5511
14.0457
13.7181
12.5592
12.3046
11.6766
11.7125
11.3413
10.922
16.2417
24.3421
33.3435
38.7383
28.992
37.2806
19.6598
27.7203
15.4439
17.11
13.52
13.7434
12.1718
12
11.194
10.9867
10.5205
10.4874
10.1628
9.73196
16.3462
14.0425
18.9368
22.7994
7.66722
15.873
3.97554
4.35361
2.61037
2.774
2.21699
2.23185
1.92888
1.8276
1.63293
1.5286
1.39964
1.31647
1.24515
1.11917
24.8912
27.0208
9.7748
30.2291
27.5317
30.4757
9.38089
21.4395
8.75075
7.92064
26.2607
22.3491
8.21509
7.48743
10.0551
30.5408
27.8118
32.0216
9.30971
33.8025
30.2685
7.47951
26.5665
22.2556
7.83884
6.54379
28.7739
24.3216
0.183093
0.323442
0.184562
6.7851
10.6656
10.3862
12.5012
0.183549
0.175699
0.160838
10.8271
11.2538
12.3262
12.0126
0.166345
0.15943
0.157312
11.1496
11.3712
11.9944
11.8921
0.185238
0.156555
0.154982
11.7755
12.396
11.8822
11.9734
0.181927
0.156217
0.163527
12.3266
12.0067
12.0205
12.077
0.169925
0.165793
0.167488
11.9476
11.3757
12.0162
11.4753
0.145624
0.165158
0.15378
11.0876
10.263
11.2047
10.2245
0.101424
0.14964
0.121743
9.97804
9.6012
9.87618
9.2199
0.203229
0.361864
0.214315
12.3029
13.0283
13.4999
13.6582
0.168238
0.197084
0.16783
12.8176
12.3173
13.42
12.947
0.15676
0.163331
0.15231
12.2315
12.0236
12.8193
12.3499
0.147738
0.146671
0.121406
11.9434
11.7629
11.9963
10.5228
0.15371
0.111208
0.0870267
11.7373
11.7039
9.68714
7.91411
0.161854
0.0857762
0.101521
11.6365
11.1213
7.75025
8.09785
0.149398
0.109753
0.124337
10.8464
9.85308
8.22074
8.43097
0.117564
0.126792
0.116168
9.5082
9.12239
8.53552
9.5465
0.227896
0.375907
0.202477
13.4106
14.1247
10.4767
13.041
0.189769
0.197981
0.206448
13.9711
13.7521
13.655
14.9695
0.179456
0.215265
0.229582
13.6849
13.203
15.2576
15.4147
0.16472
0.229499
0.221049
12.911
11.5617
15.2897
14.4614
0.106054
0.213138
0.196256
10.7783
7.74498
14.0631
12.2573
0.0793257
0.174045
0.0975941
7.02002
7.37627
11.1073
8.94089
0.11954
0.0918553
0.106932
7.7297
8.69006
9.31793
10.8101
0.118265
0.123659
0.123913
9.02635
10.1758
11.1629
11.2655
0.180276
0.333541
0.194117
6.99307
11.6369
5.81475
10.504
0.199045
0.188672
0.217592
12.7185
14.7944
11.8047
13.5944
0.234914
0.226023
0.238134
15.1271
15.4588
13.8164
14.1192
0.230091
0.241082
0.237019
15.3717
14.7369
14.1841
13.625
0.206984
0.228249
0.205437
14.4058
12.9299
13.2965
12.473
0.116029
0.198409
0.180142
12.0345
10.0443
12.2684
11.7473
0.111784
0.17243
0.152915
10.213
11.1149
11.6337
10.9995
0.126631
0.148447
0.106379
11.3335
11.0948
10.6828
9.20407
14.7059
15.2067
16.9041
18.4709
26.2103
29.3072
28.6252
15.0492
16.5685
15.9192
25.9542
25.1271
27.8731
26.1083
15.11
15.8166
15.5562
24.7892
24.3168
25.654
24.5873
15.8425
15.5199
15.5515
24.2549
23.4635
24.3388
23.6393
15.2009
15.5623
15.4024
23.059
21.9059
23.3185
21.9228
14.2525
15.242
14.3261
21.5091
19.8884
21.3045
19.0171
12.773
13.9102
12.4576
19.3124
17.6014
18.1773
15.6579
11.4193
11.9526
10.4706
17.0983
16.0473
14.9078
13.2301
17.4785
19.8029
18.385
31.2317
29.1548
33.5316
30.6103
16.1875
17.9388
17.016
28.2946
26.3379
29.6693
27.5206
15.6457
16.7943
16.0911
25.8516
24.6716
26.9598
25.2751
15.2843
15.6771
13.7445
24.3573
23.2213
24.691
15.0838
14.8813
12.6572
10.2862
22.6506
20.647
13.3732
10.597
13.7345
9.90243
9.80838
19.9197
17.5195
10.1021
9.43812
11.8167
9.80122
9.75341
16.6668
14.2069
9.46815
10.631
10.218
9.88811
10.9218
13.5303
12.4995
11.4282
13.7812
18.933
16.5789
17.8235
33.8806
31.4316
30.256
30.9669
17.9192
18.3666
19.4412
30.5322
28.4821
31.0014
30.5064
17.0379
19.6536
19.6022
27.934
26.1566
30.2317
29.019
14.7334
19.4033
18.2546
25.7591
15.7399
28.4841
26.1776
10.1571
17.7052
15.1653
13.9743
10.5841
25.1055
21.0689
9.18163
13.8891
11.74
9.95733
9.44102
19.8128
18.0353
10.2291
12.1097
13.5889
9.71044
12.0156
18.2263
19.0786
11.752
13.8771
13.084
13.1147
15.1037
19.1277
17.7789
16.2326
8.8625
14.0193
25.5466
29.7171
19.6286
28.8489
19.2789
16.4049
18.3072
30.2819
30.5418
29.6651
30.1316
19.7001
18.5029
18.74
30.345
29.2882
29.9669
29.1568
18.6095
18.7187
17.8082
28.7913
26.7148
28.6821
26.4972
16.0103
17.3492
16.1081
25.7974
22.3715
25.7146
23.4404
12.9698
15.7486
14.8763
21.2543
19.6097
22.8065
21.2368
14.0056
14.6559
13.7208
19.6306
19.7777
20.7908
19.2621
12.8
13.2869
10.8851
19.5684
17.6525
18.617
16.3233
29.6586
33.634
31.8367
29.12
37.1642
42.1125
38.4215
27.9069
30.9528
28.8105
36.1398
33.5349
37.153
33.9259
26.5152
28.2303
26.8318
32.6052
30.0951
32.982
30.5882
25.0617
26.4783
25.4052
29.3505
27.1256
29.9237
27.8341
23.1229
24.9311
23.0337
26.3697
24.0748
26.9828
23.916
20.7862
22.2532
19.5698
23.3319
21.1288
22.7671
19.326
18.3726
18.6374
15.989
20.4774
18.7497
18.2998
15.8938
16.8403
15.255
13.683
18.3453
17.7351
15.3854
14.6037
32.3234
37.3827
33.8561
42.9235
38.8042
45.1474
40.5032
29.0483
32.7927
30.2925
37.4841
34.1866
39.0693
35.5249
26.9531
29.6198
27.5459
33.2402
30.8899
34.5479
31.9608
27.3931
26.151
26.5713
28.2941
25.8152
27.7904
28.3697
19.6642
23.2322
21.1489
25.097
19.7816
24.0357
21.2542
17.8344
7.66362
8.21487
21.1318
17.6973
7.58739
9.82214
14.4041
8.70212
10.958
16.7084
14.5424
10.7124
13.1655
12.8848
11.9075
14.2235
14.1521
13.9031
13.7776
14.7828
34.7425
34.9542
34.6728
46.0412
41.4589
45.0811
42.7264
31.2213
34.4647
33.3165
39.9695
36.3256
41.687
38.546
28.3974
32.8527
31.1952
35.3263
32.6331
37.5623
34.7386
23.4879
17.1298
28.7745
25.4567
25.5781
3.50508
30.3849
14.3913
8.29209
18.2216
1.82102
16.5202
1.73472
15.7813
8.2087
21.0477
19.3749
6.95399
10.2304
23.2325
21.6113
12.5157
19.5093
20.111
11.511
14.7903
21.4785
21.0223
15.572
20.0476
18.4589
15.5191
15.8917
20.6207
18.6835
33.7002
24.4471
33.0077
43.3159
42.6108
35.957
42.6819
33.4416
33.5098
33.3037
41.7996
38.9538
42.1658
39.8425
31.4959
32.951
31.5825
37.9791
35.0411
38.853
35.6178
28.4132
30.9202
28.3343
34.0588
30.8299
34.4647
30.9971
23.7385
27.4339
24.9153
29.5903
25.8819
29.874
26.8946
21.0631
24.2256
22.4906
24.9044
23.1213
26.0827
23.9431
20.8381
21.9879
20.32
22.7788
21.6326
23.2841
21.2345
18.3034
19.639
17.3352
21.0467
18.6724
20.4977
18.3431
38.4936
43.7964
39.3719
35.5372
38.6314
44.036
37.9407
34.339
37.9726
34.3847
37.133
32.7941
36.0779
31.2699
30.1516
33.3215
30.6519
30.8779
26.6505
29.8902
26.8845
26.8652
29.9235
27.6375
25.7317
22.8444
26.1663
23.6084
23.501
26.7132
23.4461
21.758
19.0816
22.5704
19.1765
20.5374
22.2303
18.6879
18.4297
16.7014
17.949
15.0063
18.2803
17.687
15.5189
16.183
15.1363
14.3794
13.335
17.4813
15.1084
14.5792
14.9579
14.6704
13.1834
12.9265
39.7415
46.6756
41.4845
44.7412
38.2209
47.3188
39.6767
34.6288
39.8904
35.9598
36.2305
31.3593
37.4361
32.5078
31.0276
34.9034
32.3462
30.0577
27.5925
31.4532
29.5142
27.5763
31.1705
16.5794
26.9059
24.2319
28.7406
24.1732
22.2571
14.3577
11.1179
23.062
19.1669
21.9817
16.8449
17.3254
10.7731
11.4967
17.7988
14.3721
15.6564
13.1821
14.3789
12.0419
13.6828
13.73
12.834
12.9283
13.0734
13.9486
14.0944
14.628
12.7413
12.6659
13.1277
12.896
42.4237
47.3846
44.1051
48.1481
40.431
48.9849
42.9633
36.7323
42.7841
39.033
38.1596
33.2311
40.9386
35.8468
32.9859
37.906
34.8225
32.1739
30.1061
34.4521
31.4473
16.6395
33.8341
30.293
29.3136
24.6009
30.4733
27.1841
10.6877
28.8111
24.5338
22.3972
17.391
25.9263
22.3544
12.1655
23.4716
21.698
16.2878
14.1658
21.3257
18.7674
15.2321
21.4201
20.5495
13.9745
14.0764
18.2093
16.7571
15.6086
20.0541
18.0925
14.0181
13.3391
16.1953
14.3737
44.2373
40.6188
44.6777
48.764
43.6426
44.5399
45.9926
39.5408
43.8661
40.9128
41.7706
36.6258
44.5997
39.6465
35.1045
39.6723
35.8475
35.0986
31.56
37.5651
32.6802
30.7233
34.5921
30.9724
30.531
27.1884
31.4194
27.5352
25.8808
29.7938
26.72
26.0168
22.8313
26.21
23.1862
22.9751
25.878
23.6401
21.8618
19.4075
22.3968
19.9898
21.079
22.9246
20.7565
18.7903
17.0074
19.1218
16.9407
18.1147
20.0072
17.959
16.3552
14.3834
16.2959
14.671
37.6415
42.3865
36.1936
16.796
13.3176
14.9851
11.677
31.129
34.2811
29.4975
12.1123
9.79946
11.2588
10.2465
25.0631
28.1857
24.9495
9.61737
9.22699
10.1028
8.68252
21.2256
24.0808
21.2488
8.85616
8.3701
8.29986
7.43041
17.7385
20.1967
17.0174
8.46484
8.426
7.22085
6.90214
15.6935
16.0076
13.8869
8.25144
8.23144
7.06176
9.03575
14.4636
13.5099
12.9026
8.36645
8.36153
9.07077
9.096
14.0715
12.8104
12.6241
8.32343
7.87149
9.10546
9.02716
36.3975
46.0576
37.5471
13.9801
11.4969
13.5322
11.5041
29.6479
35.3459
30.7632
11.1944
10.4351
11.3665
10.5723
25.4893
29.6416
27.4354
10.0005
8.58825
10.0223
8.87988
21.9034
26.6572
23.0197
8.22162
7.24975
8.56604
7.4517
17.0084
21.1946
16.3266
6.95677
6.33148
7.03924
5.83799
13.2615
15.0008
12.4705
6.40502
8.46103
5.66147
7.45294
12.5069
12.3696
12.6956
9.15528
9.15714
8.68538
9.36444
12.422
12.7404
12.5246
9.15608
8.92976
9.34333
9.14158
38.2134
47.7461
40.8618
16.1174
11.9031
17.3289
13.234
31.4042
38.7794
33.7664
11.687
10.8065
12.8041
11.7901
28.0099
32.404
29.2256
10.2508
9.10699
11.2794
9.83169
23.4945
28.2601
24.9664
8.78519
7.67913
9.45011
8.47491
16.955
23.7624
20.3445
7.25964
6.02671
8.17063
7.37846
13.3634
19.3056
17.1886
5.84987
7.54212
7.32245
8.81017
13.4749
16.7814
15.5092
8.74227
9.39658
9.47732
9.4247
12.8349
15.0071
13.5603
9.36921
9.0576
9.4042
9.26777
41.6442
48.323
44.9217
15.0507
13.3969
14.0243
15.6426
34.4795
43.3857
37.6118
13.0375
11.9348
14.456
12.1712
29.3483
35.3956
30.6975
11.6997
10.1391
11.6177
11.1179
24.8925
29.5017
25.7397
9.74332
8.82677
10.5222
9.84372
20.7146
24.4703
21.6567
8.56663
7.94997
9.68743
9.47264
17.8273
20.8904
18.489
7.95926
9.51196
9.06721
8.81934
15.6866
17.6685
15.721
9.44041
9.36053
8.77812
8.82901
13.5677
15.1906
13.9408
9.37461
9.22924
8.64595
8.34403
25.6795
25.6239
22.7997
26.1384
24.6089
27.0689
23.1921
24.4123
26.4805
18.1132
25.2008
24.6634
28.1379
4.64102
17.5183
16.8264
11.9979
2.0512
20.5811
13.4664
2.68304
28.6073
29.5401
29.5499
30.4889
28.9386
29.6923
29.4314
26.6966
27.0199
28.6484
25.2183
28.0862
23.9685
27.7603
25.2499
25.6471
30.5443
18.1582
29.4919
4.65455
27.9521
18.098
2.63888
18.122
11.9996
13.825
2.93946
22.7345
18.2284
22.3422
17.605
21.8906
18.5622
22.9473
17.3209
10.2328
14.5987
7.99571
1.7507
13.1187
11.5443
1.60109
9.01525
11.3186
7.4947
4.29461
11.8803
9.28734
3.11787
20.1453
25.8181
24.9563
23.0998
24.6025
21.8867
21.2754
18.6174
22.1838
23.6423
18.4797
23.3724
17.5993
19.7127
10.5025
2.43607
15.612
7.38324
11.9282
2.29646
13.778
9.29176
4.07962
11.8247
7.17845
9.56149
2.74671
12.5043
19.4554
12.035
20.0422
2.14001
22.292
2.75211
17.3634
30.1218
29.8689
29.7793
32.1291
28.8282
31.479
31.256
28.3829
25.9649
28.8802
29.0083
27.4819
26.6106
30.2232
23.9382
25.89
18.8502
32.4053
3.80667
31.5892
28.3605
19.6004
2.75478
12.0032
20.8667
3.0877
17.3906
23.9505
31.147
33.2262
33.2894
32.7888
32.6329
32.267
31.9357
29.2376
29.8282
28.1439
31.6257
27.2901
31.1393
30.16
13.4778
7.33447
13.7487
3.31889
14.9992
1.9685
12.1498
22.8174
24.3007
25.1666
27.6386
22.5136
24.7377
26.1111
21.0937
19.2196
23.681
23.1526
20.789
19.5267
24.5697
14.2159
2.50452
6.99476
18.414
2.43165
15.6199
16.4428
13.3358
3.33785
6.16041
13.9563
2.58362
12.0551
15.0329
23.2293
28.3696
26.0044
27.1663
25.2484
26.7678
23.9249
21.5001
23.8361
20.7419
25.6455
19.988
25.2171
22.165
0.655811
0.967514
0.741481
5.21023
5.68699
5.14772
5.72284
0.659771
0.677055
0.637158
6.7473
7.17218
6.52115
7.19018
0.732149
0.577247
0.600852
7.59642
8.84339
7.64311
8.71267
0.720011
0.668411
0.659453
9.24933
8.80712
9.25219
9.31672
0.608249
0.6072
0.594256
8.47168
8.54206
9.09515
9.02747
0.5123
0.584729
0.548296
8.42549
8.05797
8.80575
8.42326
0.415813
0.491839
0.448661
7.63906
7.57684
7.93366
7.66944
0.30351
0.425558
0.343407
7.05602
8.75356
7.00235
8.66277
1.00416
1.74911
1.01581
6.15994
6.64617
6.45815
7.27664
2.45818
0.264301
0.33963
2.27793
2.55461
2.18858
0.249701
3.38912
0.17647
0.162929
3.22264
3.47397
3.16649
0.160949
3.44948
0.173937
0.161739
3.36154
3.2543
3.51139
0.159812
3.81148
0.171878
0.157388
3.71963
4.00328
3.65355
0.160214
4.15445
0.185793
0.172991
4.29352
4.28426
4.12749
0.175344
4.10889
0.177205
0.176001
4.28809
4.27099
4.13518
0.175939
3.82281
0.158684
0.166561
4.03887
3.94611
3.90913
0.162648
3.50723
0.13383
0.146342
3.68154
3.67567
3.55062
0.141567
0.302253
0.442717
0.32661
7.01918
8.68985
6.7326
7.48104
1.14097
1.77647
1.15774
8.23189
9.85733
9.18351
10.9608
3.09424
0.263643
0.365773
2.33415
2.89648
2.4291
0.266118
4.2617
0.181262
0.195741
4.05993
4.1325
4.20115
0.182288
4.0726
0.161325
0.157807
4.144
4.11896
4.12929
0.152862
3.743
0.152454
0.142082
4.01269
3.9744
3.83436
0.137089
3.46288
0.148968
0.127307
3.83481
3.85183
3.46472
0.128071
3.66425
0.159688
0.138384
3.97122
3.98838
3.59732
0.143144
3.70931
0.158302
0.148413
3.90286
3.85115
3.73782
0.148098
3.51802
0.141939
0.138344
3.62698
3.59105
3.5311
0.135651
0.341904
0.455072
0.382893
6.95424
7.31884
7.47831
7.35833
1.27711
2.05611
1.20201
8.47938
10.6185
7.75556
8.52122
3.28973
0.307031
0.404213
2.69354
3.35342
2.67145
0.301654
4.69739
0.200022
0.211987
4.42841
4.56569
4.50201
0.20463
5.06428
0.184338
0.205245
4.69626
4.63149
5.02258
0.208359
4.92092
0.173234
0.20781
4.38
4.28133
4.96475
0.205308
4.1935
0.148136
0.188618
3.61528
3.22434
4.44209
0.180721
1.92993
0.0779248
0.125384
1.79702
1.893
2.37783
0.0974939
2.84038
0.0999457
0.0791591
2.63023
2.95206
2.48308
0.0847202
3.84521
0.132076
0.126534
3.5326
3.66341
3.71302
0.135589
0.398769
0.522146
0.388558
8.08708
7.35881
7.88413
7.09914
0.933432
1.39142
0.920686
6.21106
5.45224
6.45057
5.73576
2.27884
0.250227
0.329852
2.17749
2.43554
2.15081
0.25099
4.00897
0.176902
0.167036
3.76994
4.23661
3.50313
0.16978
5.15408
0.224945
0.213325
5.22219
5.33353
5.07778
0.224672
5.12469
0.237078
0.236876
5.36538
5.31883
5.17021
0.235025
4.86337
0.21839
0.22564
5.08703
4.99124
4.95969
0.217815
4.26081
0.15879
0.190968
4.51995
4.0395
4.51024
0.172448
3.9633
0.106158
0.136822
3.42057
3.54902
3.92275
0.133224
4.02556
0.137229
0.13502
4.0127
4.09669