/*--------------------------------*- C++ -*----------------------------------*\
  =========                 |
  \\      /  F ield         | OpenFOAM: The Open Source CFD Toolbox
   \\    /   O peration     | Website:  https://openfoam.org
    \\  /    A nd           | Version:  10
     \\/     M anipulation  |
\*---------------------------------------------------------------------------*/
FoamFile
{
    format      ascii;
    class       volScalarField;
    location    "9.6";
    object      omega;
}
// * * * * * * * * * * * * * * * * * * * * * * * * * * * * * * * * * * * * * //

dimensions      [0 0 -1 0 0 0 0];

internalField   nonuniform List<scalar> 
12920
(
103.755
119.568
121.619
124.991
116.46
100.528
85.5903
74.9022
66.4272
60.9816
57.2231
54.7573
52.8173
50.8867
49.0299
46.9029
45.3071
43.9735
43.3036
41.4383
328.804
186.184
151.622
140.681
119.635
106.341
91.9267
83.5111
75.7575
71.9559
68.9279
67.6201
66.1577
65.2988
63.8264
62.5785
61.3936
60.2411
58.7682
57.373
318.537
201.72
162.402
146.906
125.562
113.702
95.3669
86.1911
77.4784
73.963
70.1701
68.4576
66.277
64.9101
63.1589
61.8003
60.3735
58.6341
57.1914
55.1766
181.59
200.159
192.38
165.155
128.157
102.831
81.6573
72.6695
66.8954
64.8797
61.896
60.4874
58.4826
57.2968
55.8732
54.8705
53.753
52.432
51.4713
49.9464
148.73
239.622
197.938
143.908
109.371
88.1663
74.8391
69.3077
65.113
62.8875
59.2333
57.4593
55.0283
53.853
52.5447
51.916
51.1001
50.3242
49.5846
48.3879
472.449
261.706
177.046
150.046
132.238
108.338
88.4557
72.7765
65.5742
62.0376
57.9237
55.5711
53.0728
52.0292
51.249
50.8603
50.4254
49.6905
48.7613
47.3615
209.553
210.661
205.753
197.94
173.025
141.586
108.395
81.7334
70.0795
61.7928
59.2697
55.0428
52.69
50.5897
49.2327
48.3077
47.6109
46.8556
45.644
44.3307
94.1988
155.805
210.484
215.993
197.463
138.7
187.606
113.141
110.77
106.894
103.396
97.2438
90.5982
84.0149
52.8797
49.4741
46.8493
44.7327
42.5235
40.7265
244.019
267.886
265.344
240.015
195.994
256.951
292.485
184.622
174.654
167.79
179.096
175.382
167.201
151.348
92.2819
50.295
47.4499
45.1051
42.5754
39.0169
138.684
216.953
207.851
173.881
133.645
183.035
248.188
197.15
188.652
181.512
173.769
175.434
174.457
165.482
103.819
51.1799
45.1447
43.4143
42.4676
39.2483
116.898
200.877
188.25
160.391
135.888
197.131
283.297
215.897
204.817
203.809
198.658
145.38
141.13
166.187
114.44
53.1412
45.5321
42.4069
41.2382
38.4639
195.568
267.561
251.769
213.046
175.607
244.315
285.133
201.655
222.724
231.188
220.396
200.198
154.986
169.31
113.06
48.8726
44.6138
42.8048
41.6147
39.4842
268.022
296.187
237.093
186.202
144.75
106.859
158.249
130.298
132.363
131.018
120.622
113.726
106.719
98.353
50.827
45.7985
43.3776
42.09
41.5831
41.6263
239.699
282.191
202.044
132.014
103.385
93.3279
87.7079
83.2543
79.0487
72.5649
65.8434
59.7182
54.9334
51.6652
49.2883
47.3391
45.3143
42.9829
41.6745
41.4168
345.388
270.724
219.364
152.871
117.676
108.873
95.3715
88.0842
79.1617
73.385
65.8921
61.0058
56.3712
54.3438
53.2939
52.7636
51.3863
47.654
44.1899
41.4024
172.403
188.022
178.392
157.449
133.264
118.348
102.865
92.69
83.5953
78.5874
71.5274
66.6585
61.5145
58.7962
56.242
55.1044
53.0719
49.9655
46.1123
42.5509
283.817
210.503
181.748
161.351
131.383
112.221
97.7207
84.8418
76.6477
71.8648
67.6052
64.6989
61.0528
58.692
56.2777
54.3503
51.4439
48.6398
46.1167
43.6905
427.348
296.545
182.775
133.118
114.894
99.5077
86.6616
77.9
71.0314
67.0034
62.8315
60.4452
57.7649
55.8734
53.5462
51.5923
49.5211
47.711
46.2487
44.5844
294.048
203.414
139.965
110.594
98.8702
91.6841
81.9124
77.0515
70.3306
65.8069
60.1859
56.5899
53.6479
52.205
50.7439
49.6174
48.2429
46.9068
45.6854
44.38
50.1306
97.4686
113.68
111.643
100.887
90.2007
81.7471
75.0503
66.2074
59.2611
55.2567
52.0216
47.3498
42.4817
39.1183
36.6287
35.4526
34.0641
33.3928
31.6955
36.9884
32.2753
36.256
62.999
67.4737
60.8084
48.3602
40.7956
35.7781
33.6339
32.0502
31.2394
30.3462
29.6574
28.831
27.8414
27.2122
26.6863
26.3889
25.3277
220.659
165.677
98.9492
84.9467
72.649
63.5585
56.1396
49.2782
42.5735
38.1559
35.3092
34.2312
33.3218
32.9211
32.3754
32.0503
31.771
31.5238
31.2738
30.899
207.416
129.311
90.9511
75.2337
62.98
56.6318
48.7826
43.2863
38.2535
35.8441
33.5706
32.5934
31.5799
31.0948
30.6009
30.3
29.9791
29.4569
28.9837
27.9012
170.359
128.629
101.516
78.8058
68.1875
59.8649
50.3141
40.8383
34.4954
31.3796
29.2868
28.5383
27.692
27.3189
26.8438
26.4919
26.0521
25.5434
25.0398
24.4758
353.55
202.823
97.4383
83.5902
75.3937
60.4836
49.1369
39.8775
33.7923
30.7001
28.4835
27.5812
26.7947
26.3755
26.0271
25.6895
25.2959
24.8526
24.5341
24.1125
348.199
171.886
91.088
90.6034
89.9689
76.6591
58.6916
42.3174
33.912
29.77
27.1629
26.0714
25.2525
24.9021
24.795
24.7872
24.7878
24.7055
24.595
24.2285
125.36
146.566
126.61
121.101
117.85
105.996
78.1878
51.8603
36.2716
29.4128
26.6068
25.4345
24.5406
24.1538
23.8193
23.567
23.4975
23.3537
23.2166
22.767
173.283
251.982
222.514
212.572
169.241
101.801
77.0082
53.4238
39.5108
33.1163
30.3239
28.4237
27.008
25.4621
23.804
23.7698
23.381
22.7076
22.2716
21.2392
113.813
159.876
177.327
199.237
159.249
129.932
75.3641
53.5479
42.2728
36.4086
33.6521
31.338
29.2811
26.6579
25.2272
24.6428
23.808
23.1574
22.648
21.1753
127.246
154.349
124.887
84.0551
62.963
60.8192
56.6581
48.0401
41.6945
37.22
34.5513
33.2562
32.3477
31.4384
30.9847
27.7115
24.792
23.6523
23.3259
22.0296
177.566
155.449
109.044
88.6562
71.3387
66.9003
60.1354
50.2708
43.153
41.4004
42.9843
44.0789
37.9532
35.739
33.2723
27.3006
23.7943
22.7605
22.5124
21.6459
253.785
145.903
129.607
126.156
121.317
120.048
88.7623
55.4966
46.9805
43.5441
41.2054
38.9835
37.1867
35.3754
35.247
23.3193
21.5502
21.2888
21.3456
21.2562
146.748
138.952
117.587
108.422
95.061
69.3906
64.2726
54.8889
45.39
40.4796
36.0525
33.523
31.9823
31.576
23.9016
21.7319
20.8529
20.658
20.6849
21.2498
231.247
151.148
92.802
68.681
64.4236
54.6628
49.6453
45.9041
40.5939
37.0141
32.5615
29.7905
26.9056
25.1849
23.6963
22.6992
21.8781
21.193
20.7989
21.0317
226.042
187.354
140.635
89.0563
66.134
54.6429
47.7829
43.3764
39.4624
36.9358
33.7951
31.0513
28.0995
26.6954
25.897
25.627
25.3221
24.5836
23.1255
21.2368
213.075
165.285
129.674
112.004
92.1267
70.9272
53.7097
44.7625
39.3762
37.309
34.8059
33.1274
30.9481
29.5001
28.2549
27.5477
26.7938
25.8445
25.0398
22.7922
322.773
176.807
122.861
108.71
88.164
65.6963
50.1408
40.364
35.6438
33.6261
32.0875
31.3001
30.0564
29.2447
28.3045
27.4546
26.6021
25.6001
24.9468
23.4433
368.286
224.603
146.632
109.818
77.5194
55.9266
43.5961
37.1136
33.458
31.8253
30.3804
29.6676
29.0604
28.5522
27.9172
27.2171
26.4357
25.4241
24.8892
23.8697
538.561
162.243
108.936
69.6009
57.1664
50.1498
44.4819
41.8507
37.9737
35.5279
32.3935
30.4002
29.0227
28.2341
27.4708
26.7572
26.0713
25.3937
25.1218
24.6553
56.6325
61.3035
61.122
58.9601
52.245
49.0588
45.8803
43.9414
40.9641
37.9223
34.5169
31.1444
27.6421
24.6419
22.5618
21.5109
21.1291
20.9031
20.8263
20.3622
65.8657
56.9946
58.3311
75.459
73.624
63.645
52.9963
46.2627
41.5247
39.0236
36.9672
35.3431
33.9502
32.6731
31.6644
30.489
29.8669
28.7044
28.0435
26.3292
111.07
98.7832
88.8438
73.0413
57.8355
50.6893
44.5951
40.9357
37.1253
35.7264
34.368
34.0077
33.3122
32.8966
32.2252
31.8088
31.4371
30.9976
30.6324
30.0283
151.568
110.944
79.6053
59.0267
50.4534
43.678
38.9867
35.726
32.8193
31.579
30.1904
29.7228
29.0306
28.759
28.292
27.9718
27.5512
27.0299
26.5737
25.9128
329.659
128.743
95.8899
63.8146
52.5144
43.5665
37.6775
32.4462
28.8287
27.1397
25.826
25.3839
24.7991
24.5614
24.1652
23.8837
23.5237
23.1742
22.8452
22.6091
504.316
141.405
84.8014
63.4716
55.9288
44.5087
37.602
32.0295
28.0125
26.0646
24.5691
24.0383
23.5033
23.3199
23.0399
22.8464
22.558
22.2961
22.0773
21.9107
220.887
137.154
79.4888
68.454
64.4148
48.8137
40.7974
32.7461
27.6638
25.0779
23.324
22.6518
22.184
22.1038
22.0618
22.0748
22.0553
21.9732
21.9037
21.7164
270.984
216.994
125.849
102.996
80.7673
67.3366
48.9269
36.0261
28.5872
24.4118
22.963
22.0208
21.6158
21.4292
21.34
21.2585
21.2036
21.1041
20.9848
20.7125
385.814
227.444
172.638
149.953
94.2708
61.7018
51.7868
39.1577
31.0475
27.5281
24.9523
23.8374
22.7042
21.9556
22.1624
21.725
21.2904
20.8199
20.4344
19.828
181.826
152.13
120.219
104.833
75.402
61.5268
49.1531
39.2529
33.5705
29.8853
28.0098
26.3167
24.871
23.4536
23.3771
23.5253
22.4569
21.5705
20.9675
19.8633
203.534
191.19
115.266
67.4522
48.2072
43.2474
42.8193
37.9603
33.8062
31.2402
30.5873
30.9132
30.8111
30.4341
29.2324
26.1525
24.2325
22.8692
22.1261
20.5803
202.726
172.014
103.511
70.1571
53.6006
47.2897
44.1572
39.082
35.4829
33.6217
72.1878
63.5351
49.1699
36.475
29.3423
25.3596
23.7417
22.6778
22.1556
20.9674
141.005
138.839
113.214
87.9262
72.0628
66.3088
54.0363
43.5542
38.4577
35.9413
34.5702
33.9708
32.7301
30.8123
27.216
22.6317
21.7616
21.442
21.385
21.1522
218.564
126.59
90.3713
72.4747
62.4092
50.1545
47.3103
43.1757
36.2728
33.0274
30.0324
28.8863
27.1792
25.7669
21.8112
20.6499
20.2321
20.2221
20.4166
21.0599
261.292
143.788
76.7272
54.8856
52.0382
44.0761
40.6501
36.4122
32.5922
29.2282
26.6348
24.6693
23.0737
22.0332
21.2137
20.5951
20.0752
19.8419
19.8433
20.251
161.398
162.835
104.605
67.68
54.027
43.9749
39.2719
35.144
31.7643
29.5217
27.0391
25.4406
23.8097
23.2557
22.7394
22.4712
21.999
21.3219
20.502
19.8691
187.731
163.363
126.478
106.57
79.5446
56.3098
42.0994
35.6563
31.9194
30.1358
28.1894
27.0967
25.7062
25.0427
24.2972
23.8594
23.2351
22.5787
21.8756
20.8293
163.871
152.964
124.391
106.17
82.0923
56.3062
40.8626
33.2091
29.9694
28.3638
27.211
26.6107
25.7392
25.3001
24.6382
24.1413
23.5256
22.9543
22.4684
21.8149
224.816
156.26
119.622
82.8613
61.9439
44.8286
35.7024
31.1125
28.7306
27.5843
26.581
26.2192
25.667
25.4558
25.0009
24.6722
24.168
23.6764
23.2643
22.7897
571.169
252.488
104.541
60.4279
49.7026
42.6135
37.1584
35.6683
33.1285
32.1407
29.7364
28.3626
26.9238
26.4193
25.8559
25.6349
25.3065
25.0694
24.8986
24.5933
54.1262
97.614
81.1756
66.6844
58.2745
53.4621
49.4503
46.2243
42.872
39.4852
35.7011
31.8934
28.639
26.4071
25.1265
24.2961
23.8463
23.2665
23.0315
22.34
60.2273
93.9538
84.4934
80.811
72.3512
62.8357
54.6909
48.599
44.1717
41.0628
38.7548
36.7371
35.042
33.2447
31.8171
30.1819
28.8667
27.3025
26.5959
25.1195
211.832
130.279
87.5519
63.6022
57.3234
50.0487
46.9709
44.8626
43.6037
43.3731
42.8823
42.5345
41.5857
40.6112
39.3363
38.1921
37.23
36.3025
35.6272
34.9773
286.016
102.581
75.1289
53.2549
50.6071
41.2163
40.5445
37.1983
36.5788
35.3093
34.8905
34.1827
33.6133
32.9191
32.2662
31.6092
31.0411
30.4524
30.0522
29.7257
179.919
125.885
89.8168
57.0978
50.1791
39.0155
37.8863
32.9698
31.5443
29.5171
28.9822
28.223
27.8935
27.4532
27.1503
26.8271
26.5802
26.3575
26.2199
26.2501
177.657
136.922
84.7687
56.5199
52.4193
39.9777
38.1589
32.7086
30.4517
28.065
27.24
26.4274
26.1881
25.8925
25.7627
25.5677
25.41
25.2691
25.1753
25.2329
257.393
159.3
80.7587
58.1381
55.4322
40.8417
39.4354
33.2556
29.5273
26.6584
25.5194
24.8171
24.6797
24.6582
24.6858
24.7416
24.7585
24.7617
24.7415
24.7864
601.3
192.735
96.5489
69.5219
63.3337
49.6828
42.5157
34.0571
29.8948
25.8668
25.2781
24.2283
24.2936
24.1582
24.2112
24.1699
24.1526
24.0885
23.9929
24.0028
242.836
175.744
109.728
79.9077
64.5114
48.5521
43.7906
36.2191
31.3733
28.4519
26.4474
25.754
24.8066
24.5628
26.1639
25.0279
24.3732
23.9525
23.6118
23.441
169.27
134.642
93.4219
65.615
53.2311
47.1954
43.6767
36.9481
33.1761
31.1767
29.4536
28.4063
27.29
26.611
27.5302
27.7275
25.8452
24.6915
23.9974
23.544
211.809
160.432
95.9125
60.2253
46.2334
41.3626
41.7841
37.8263
34.8126
33.0722
32.6808
32.8535
32.4216
31.6607
31.2992
29.9261
27.5293
25.8822
24.8701
24.107
220.094
140.286
89.8411
60.5878
50.3579
43.6865
41.8361
38.5703
36.6455
35.7136
60.2545
56.3197
41.5627
34.4055
31.4948
29.8517
27.6009
26.1852
25.3685
24.6316
228.237
163.357
96.7979
64.2905
55.3095
49.176
46.2857
41.7634
38.5438
36.8112
35.5655
34.8654
33.4059
31.2385
29.2002
27.897
26.3789
25.6731
25.4877
25.2127
210.738
140.304
80.0994
58.2934
55.7035
46.723
44.3135
40.6678
35.8317
33.5161
31.4002
30.4967
28.3916
27.0869
26.1274
24.8505
24.4709
24.5331
24.8961
25.3444
335.419
170.061
73.8403
53.4223
52.5516
43.0634
41.2979
35.9797
32.9903
29.0964
27.8051
25.8452
25.2836
24.456
24.0602
23.6126
23.4398
23.4905
23.7468
24.3884
304.966
155.252
83.6472
59.6287
53.6594
41.7263
40.1799
35.032
32.3997
29.4002
27.8667
26.4874
25.7419
25.3508
24.9538
24.6181
24.179
23.8365
23.5796
23.6182
233.54
158.201
119.326
89.995
69.8269
50.0264
41.785
35.1195
32.891
30.1372
29.1003
27.8423
27.2638
26.7321
26.3253
25.926
25.4259
24.995
24.535
24.3688
191.05
153.941
127.387
95.5298
74.3991
50.7934
41.0368
33.5507
31.8225
29.4586
29.0159
28.124
27.8248
27.3584
26.9907
26.5973
26.1718
25.8741
25.5793
25.5263
279.116
176.642
109.752
69.177
60.2697
43.616
38.2536
32.4788
31.288
29.3481
29.1224
28.5834
28.4758
28.2645
28.0719
27.8459
27.5314
27.3003
27.0177
26.9774
288.308
221.444
129.045
62.8024
55.0423
43.4793
40.3924
36.9508
35.1605
33.2764
31.7772
30.8338
30.3149
30.1778
30.0359
30.0109
29.9092
29.8645
29.7349
29.6835
80.9085
110.598
96.2771
73.8508
61.5207
53.6068
48.2583
42.6976
38.7749
34.9413
32.0534
29.6348
27.9909
26.7898
25.9934
25.1999
24.649
23.9142
23.583
22.758
86.5164
102.58
84.1458
76.2848
67.28
58.863
51.8984
46.1865
41.9935
38.7948
36.2685
33.6185
31.0379
28.7467
27.0732
25.8277
24.9863
24.2143
23.7504
22.9205
307.762
164.166
103.954
62.9874
75.1104
56.9861
68.3636
60.7859
66.7844
62.8611
64.3492
61.0231
60.4937
58.0291
57.3013
55.3577
54.6467
53.2669
52.6965
52.1663
348.39
128.388
78.3158
61.715
63.2974
45.2635
55.4298
45.008
51.8634
46.735
49.6366
46.6608
47.4214
45.5521
45.4595
44.299
44.0921
43.3853
43.2871
43.1729
205.274
128.002
93.8919
62.7751
61.2967
43.1487
51.9065
39.7038
45.629
39.3807
42.0749
39.2234
40.3551
39.0834
39.4729
38.9544
39.1171
38.9978
39.1023
39.4086
225.018
160.185
99.7356
69.5206
67.2658
44.1775
54.258
40.2813
45.3862
38.5349
40.8034
37.7585
39.0196
37.7484
38.3571
37.8005
38.0297
37.8242
37.9301
38.1737
191.408
179.486
112.846
75.5048
70.0052
44.4942
56.3864
39.9913
42.4563
35.9179
37.2407
35.371
36.4171
36.1022
36.5216
36.6652
36.983
37.1501
37.2843
37.5752
387.995
185.526
97.5559
72.6124
76.6181
49.0199
56.359
41.5621
41.9642
35.2326
37.1889
34.877
36.6712
36.0053
36.7443
36.4925
36.8304
36.6981
36.7908
36.9515
215.372
186.268
106.879
72.5061
78.6484
54.3999
49.3579
41.6766
40.7059
36.6441
38.0808
37.0311
37.9992
37.6869
39.8917
37.8881
37.0541
36.7699
36.5464
36.605
215.338
135.153
89.3265
62.7312
58.5684
51.3994
53.3956
44.8699
45.5989
45.1696
44.8891
44.4318
44.1774
43.9305
45.0656
40.9236
38.3815
37.3225
36.9618
36.8312
175.743
148.33
108.321
64.579
57.303
47.2126
51.8033
51.6505
51.6269
49.7822
48.1808
47.8128
48.6258
48.3094
47.5542
42.5225
39.5346
38.2131
37.6073
37.3092
186.621
138.164
93.0438
63.0338
58.2193
47.3623
49.32
53.0838
54.067
50.9809
51.2981
50.2345
50.4668
49.3173
47.9985
42.6264
39.6231
38.5545
38.1429
37.7029
267.707
198.546
122.556
64.1073
64.4953
53.3721
56.8427
54.5108
53.9232
52.3055
51.551
50.4624
49.2034
47.7708
47.0804
41.3318
39.07
38.6416
38.7093
38.5214
345.977
191.84
93.2186
65.3577
69.0682
52.635
52.5542
46.5009
47.0388
43.5683
44.8264
42.1141
42.1335
40.7722
40.0488
38.0336
37.5711
37.9872
38.5767
39.1039
343.423
153.714
92.0434
63.2102
70.8971
47.8788
55.4647
43.3777
44.3882
38.1181
39.4864
36.3575
37.6182
36.4201
36.7807
36.0795
36.3459
36.6274
37.2783
38.1417
232.074
128.075
87.7796
65.4673
67.9135
46.295
54.5939
41.9811
44.4547
38.4824
39.7136
37.3071
38.1045
37.1602
37.0886
36.5935
36.4955
36.459
36.6178
37.0752
301.597
183.45
129.271
76.8692
79.1536
53.1877
56.4479
43.6704
46.7103
39.6112
41.9371
38.4988
40.1399
38.5518
39.2219
38.1862
38.2118
37.6416
37.6365
37.9103
177.374
161.492
136.234
79.0783
81.316
52.2937
55.7836
42.1156
46.0363
39.262
42.355
39.3239
41.2049
39.7182
40.3377
39.4203
39.4849
39.0877
39.1457
39.4163
320.292
240.249
128.798
70.2182
78.9624
50.4208
57.7772
42.977
47.7263
40.3177
44.0498
40.7616
43.1149
41.512
42.522
41.5544
41.8255
41.3072
41.3189
41.482
198.567
171.276
174.695
83.8765
83.2595
52.8706
64.2667
48.1668
53.6537
45.2943
49.0153
45.6059
48.1671
46.7012
47.8258
46.9261
47.2623
46.8014
46.833
46.8227
105.225
93.0537
85.0392
72.3202
59.8245
50.2798
41.7718
36.009
32.5672
30.4497
29.0756
27.8131
26.8527
25.806
24.979
24.0881
23.4029
22.5931
22.1388
21.3341
30.5499
33.7936
69.2444
31.8454
31.5981
34.4319
86.5672
30.8678
69.571
60.8629
31.783
32.2137
86.8666
70.9743
72.059
36.036
35.5263
34.2707
89.3556
35.897
35.5165
65.7729
35.5218
35.7635
92.7517
82.3028
35.5745
35.918
195.735
267.806
197.996
95.596
66.4204
78.8057
56.7251
177.497
192.064
184.153
60.8823
49.2711
54.0338
48.0568
167.14
183.355
180.817
47.3958
42.3383
46.4502
42.652
178.672
179.669
176.77
40.8141
38.2683
41.5795
39.0191
176.621
176.656
177.653
37.7284
35.8381
38.3616
36.7776
169.903
177.918
176.212
35.2269
33.5311
36.3627
35.1782
154.751
174.217
167.038
32.937
30.429
34.6787
33.1776
128.742
164.657
150.121
29.7047
27.2722
32.7194
31.4854
200.471
261.283
209.253
67.9004
56.3773
66.6855
58.238
190.435
202.302
189.997
54.0184
48.1387
55.5909
48.5072
183.325
187.778
183.184
46.4712
42.467
46.8757
43.9794
174.86
180.586
167.08
41.4201
38.9807
43.7245
44.1385
174.326
160.49
141.341
38.4129
37.124
45.0071
45.2635
175.766
139.772
149.44
36.8377
35.96
44.232
40.0793
167.698
154.273
162.392
35.5874
34.3741
39.2102
37.5083
150.617
163.915
157.075
34.0308
32.2184
37.1255
35.307
223.925
278.809
212.342
72.3581
60.0717
84.853
63.8405
206.266
211.504
219.221
56.8983
49.3914
59.4166
52.1318
203.85
224.493
233.257
47.9195
46.2222
51.0497
49.3651
201.602
233.359
228.432
46.264
47.3463
48.9773
47.9752
161.729
223.788
213.033
48.1842
49.7271
47.5804
45.7971
135.869
199.842
149.47
49.4415
42.037
45.5078
43.6629
162.096
145.86
157.89
40.2309
37.833
41.4824
38.1668
160.259
169.287
166.493
37.4587
35.5294
38.1788
38.4386
206.024
308.293
210.453
109.481
67.6779
115.598
73.9349
215.16
203.317
208.646
61.4597
53.1657
66.0824
55.8849
231.418
210.986
213.021
52.0365
49.495
53.8115
49.1115
224.362
212.874
209.617
48.8216
46.8249
47.9129
45.2508
210.03
204.85
194.134
46.114
43.4941
44.1756
41.2738
158.916
190.607
183.56
42.8538
41.5797
40.3996
38.4766
160.088
180.706
172.675
40.3231
38.3617
37.9122
37.6185
168.179
170.877
143.313
38.4826
39.4915
37.9749
37.4944
58.1927
63.796
50.2111
54.793
44.1349
47.2521
40.7062
44.1277
48.0761
43.0237
41.3211
36.2751
39.2626
35.6971
37.584
41.6101
38.1353
34.7865
31.2301
34.7111
32.2329
34.2103
37.1664
34.8638
30.5839
29.1058
31.583
30.1049
31.852
34.2723
32.8811
28.5646
27.0435
29.7469
28.9827
29.8232
32.5182
31.5293
26.7031
25.5829
28.8144
28.3987
27.2258
31.146
30.0788
25.1417
23.8247
28.2297
27.8094
25.387
29.795
29.7202
23.5195
22.853
27.7012
27.4473
49.9179
56.0251
51.3486
44.9057
40.6853
44.7461
41.4862
43.1294
49.3178
43.6932
39.3288
35.8001
40.1444
36.6145
38.1561
42.3211
39.7273
34.8264
32.4814
35.7727
34.1592
35.0542
39.4398
39.7652
31.8743
30.7718
34.1957
45.2217
33.4905
40.5474
41.147
30.6607
30.6065
46.7901
47.1466
32.6035
40.6841
37.6062
30.6161
30.5703
46.6722
44.55
31.6086
36.9682
35.9317
30.5182
30.3614
43.6288
39.3621
30.8354
35.5592
33.7661
30.303
29.2641
37.4023
32.0943
52.6858
69.3282
56.7686
46.382
42.027
52.4851
45.9084
44.3913
53.2352
47.0758
40.5903
37.2039
43.805
39.7619
41.4242
46.0367
44.1345
36.4613
35.2853
38.9926
37.3457
42.2553
43.6859
42.6904
35.072
47.0958
36.9538
36.2789
44.2404
42.37
41.2579
48.6363
49.1432
36.187
36.1875
39.2696
41.1175
39.9568
48.4348
45.3523
36.2059
35.5396
36.2437
38.3597
35.4452
44.2302
38.7816
34.6936
32.391
33.8502
35.2395
35.8969
36.4977
31.4145
31.8352
30.3759
60.5146
95.6708
65.8567
60.1864
48.0515
63.8591
50.2251
48.1525
59.5155
50.0196
45.4062
40.6065
47.3798
41.3875
44.2411
47.8507
43.2135
39.642
37.3912
39.562
35.8888
41.7847
42.1256
39.6695
36.8466
35.6332
35.1513
33.327
39.3396
38.733
36.4338
35.2906
34.5738
32.6272
31.2189
38.1436
35.8535
34.649
34.4864
33.7968
30.9855
30.3809
35.3699
34.259
34.0883
33.2222
31.7579
30.0717
29.3788
36.8214
34.383
34.3264
31.423
30.3413
29.2258
27.0615
41.6604
44.1445
39.2165
44.0339
38.48
41.4008
38.1061
34.9373
37.863
34.5611
36.6967
33.5719
36.851
34.0327
30.4106
33.6701
31.4745
32.5399
30.463
33.3615
31.841
28.5364
30.9171
29.68
30.1458
28.9038
31.4548
30.5424
26.6076
29.3922
28.8175
28.4417
27.4103
30.3331
29.9624
25.2876
28.7016
28.3938
27.2296
26.375
29.8965
29.6668
23.7066
28.2494
27.8614
26.0452
25.3048
29.5345
29.1079
22.8575
27.7311
27.3152
25.1677
24.7125
28.9054
28.214
39.2527
42.928
39.9286
41.1883
38.1801
41.0757
38.3804
34.6765
38.6804
35.5317
36.9964
34.2763
37.4226
35.2693
31.7589
34.8025
33.5392
33.648
32.2163
34.7985
33.96
31.6484
30.8131
31.6844
31.014
31.6288
30.6601
31.5101
37.0017
30.6715
34.2358
30.8319
35.0439
31.0188
35.9111
30.8777
59.1022
51.1054
32.2145
31.9419
65.2076
47.9845
30.5533
48.2967
40.0508
31.7562
31.1352
44.0465
36.5281
29.1322
37.5534
31.8902
30.8695
29.4581
34.954
31.5843
40.3732
49.0562
44.029
41.6338
38.7332
45.0643
41.775
36.122
42.188
38.5984
37.809
35.8508
40.4794
37.9238
34.5636
37.9042
36.3962
35.4337
34.7444
37.4073
36.2162
43.6147
52.5468
35.4351
39.5511
38.3851
248.278
35.156
54.2247
70.9961
45.3112
207.822
46.2533
192.088
53.5722
52.492
35.7992
35.101
73.4717
49.8329
35.888
34.7512
39.263
34.3106
31.9612
45.0962
36.25
34.0226
31.7862
31.1777
31.3369
29.5678
34.4477
31.0882
31.1199
29.0026
45.7544
56.4932
47.5001
46.6961
42.7305
47.9168
43.4574
39.3389
45.184
39.8598
41.3008
38.329
41.9251
37.9037
36.4289
38.1753
34.8831
37.6737
36.2019
36.6531
34.4236
34.8611
34.2499
32.5708
35.82
34.8806
33.9913
32.5732
34.0425
31.9492
30.7199
34.6503
34.2354
32.1009
31.2075
33.2583
30.5384
29.9161
34.1091
33.1963
31.0617
30.0864
31.2343
29.5752
28.6663
32.6969
31.0672
29.6243
28.3061
29.4637
28.4005
26.073
30.4985
28.6137
27.8654
25.845
38.6517
41.8924
38.8906
48.9594
43.0968
48.5268
46.4444
34.0529
37.6576
35.0061
41.5709
40.1869
45.5595
44.4921
31.4845
34.4221
33.0704
40.5086
40.4231
44.5061
43.4794
29.8771
32.6784
31.6765
39.9236
38.8362
42.7222
41.0667
28.5696
31.4385
30.9949
38.9743
38.7598
40.7668
40.1738
27.5738
30.9157
30.7187
38.4775
37.8856
40.24
40.7617
26.7135
30.618
30.2726
37.9903
37.9505
40.9577
41.0532
26.0148
30.0844
29.268
37.8229
37.1766
40.9485
40.5832
38.9494
41.3218
38.9593
47.5779
46.5495
45.282
46.2728
35.3496
38.168
36.4387
46.0953
45.526
46.6727
47.3218
33.4633
36.04
35.0493
45.4733
43.5961
47.0102
44.539
32.6081
35.1798
55.332
42.8105
41.3285
43.8521
45.0678
32.8788
57.7207
55.2057
41.0851
40.4637
45.9695
45.4488
32.5765
52.5445
43.2354
40.4298
41.2552
44.5344
43.5129
31.9022
40.7235
35.8069
41.5011
41.7029
43.4814
42.9444
30.3255
34.7187
32.1317
41.5947
41.059
42.6332
41.7109
39.3205
45.1508
42.2299
45.972
46.7758
50.4947
49.5002
37.0036
41.0876
38.8524
47.1642
47.7641
49.005
48.3191
35.7607
38.3949
37.2341
47.4391
45.0952
48.1887
46.3755
56.7435
36.8878
36.3293
44.459
45.6339
45.7774
44.6364
59.8075
36.347
36.4601
46.5956
46.2906
44.4595
43.714
44.5862
36.3645
35.1455
45.3898
44.0814
43.4419
43.2225
35.6808
34.4911
32.4679
43.9121
42.9492
43.0291
41.7878
31.751
31.8439
29.8141
42.5561
41.5925
41.3868
40.7092
43.0383
47.1243
43.4111
51.8845
49.9384
51.742
47.617
39.1168
41.9468
38.2011
49.0748
47.8656
46.1449
44.0584
37.1989
37.1264
35.2391
47.7576
46.3876
44.0288
43.1968
35.8097
34.8306
33.4274
45.7706
44.633
42.6379
41.8356
35.0424
33.0114
32.1952
44.4157
43.5224
41.9389
41.2508
33.8919
32.0281
30.8529
43.2918
42.8097
40.7348
39.1525
31.8032
30.376
29.0616
42.4861
41.2291
38.9903
38.1785
29.3884
28.6437
26.7764
40.8507
40.3096
37.93
37.3002
46.2049
53.6913
51.599
72.5963
62.0662
77.4232
77.2593
44.7003
50.8745
50.3777
61.8837
67.8151
76.2107
77.3838
45.7447
50.5346
50.1484
70.2443
68.6882
78.1663
81.0964
44.4874
49.5535
48.3154
68.173
70.7576
81.8708
83.9955
44.7891
48.1549
47.658
72.3426
71.0452
84.4648
83.6639
43.9662
47.5829
47.8806
70.8022
71.9475
82.6865
78.8933
44.106
48.0046
47.8219
72.7937
71.7905
78.1337
76.4084
43.0034
47.6808
46.982
71.6867
71.2195
76.1864
76.2132
51.8276
48.4905
51.7205
73.2931
78.3007
67.5784
79.0371
51.5851
52.5404
53.6631
78.1295
79.4423
80.2303
83.1889
50.5562
53.6005
51.2307
80.3504
84.9648
84.9364
93.3088
48.3612
50.4297
50.2957
86.2562
88.5534
95.7707
99.5503
47.7654
50.7885
50.0175
88.9529
88.1049
99.939
97.6567
48.3511
49.5678
50.0458
86.9393
81.3229
95.479
86.4539
48.4683
50.1368
49.6297
79.6131
77.1383
83.3102
78.4901
47.4446
49.3048
48.0691
76.8626
76.4583
77.9787
77.0961
52.2962
54.7476
54.9408
66.2283
79.1432
73.8925
80.5116
54.1572
54.7078
54.5332
80.4589
83.4991
80.6028
81.6845
51.7264
54.5109
52.9486
85.2977
93.8026
82.5445
87.4184
50.7918
52.2819
51.3776
96.3464
99.7327
88.8396
90.8166
50.7058
51.2927
50.6928
100.185
98.5558
91.1597
90.6439
50.5196
50.5803
50.0485
96.2383
86.9469
89.3369
82.8242
49.6828
49.8157
48.6383
83.7059
78.8254
80.8455
78.1464
48.0304
48.3276
47.4705
78.3233
77.3167
77.9113
77.8303
55.2196
56.3947
50.9295
80.5007
80.2918
80.1392
67.7531
53.8815
49.472
48.7985
79.4132
80.1166
66.8311
71.5372
52.8861
49.2839
48.5931
80.6129
83.533
73.0758
70.9365
51.6154
47.9209
47.534
84.3977
86.2518
70.2856
73.3986
50.7678
47.863
47.0576
86.6923
86.1152
74.4602
72.5587
49.5109
46.3893
45.0673
85.0075
80.1605
71.8889
73.0702
48.0431
45.0966
44.4389
79.2188
77.3323
73.6768
72.2989
47.0339
44.148
43.3318
77.199
77.5557
72.2947
72.8991
32.5607
30.5766
33.1733
30.656
32.0234
30.5712
34.5055
36.2725
32.5978
47.495
38.2156
33.7921
32.6537
183.044
47.2475
43.2049
63.7522
216.107
38.1018
56.1607
236.047
31.9303
31.1969
31.5529
32.3475
30.8926
31.7151
32.475
33.0223
31.0042
31.502
34.9632
30.8718
35.1595
33.2373
37.063
39.1074
33.2365
55.1208
32.8504
190.255
35.1827
48.724
223.122
48.0886
76.8788
58.4144
243.582
41.2021
37.9714
30.7788
36.062
31.3341
35.7374
31.213
38.0036
62.9119
46.1891
68.7284
201.383
48.0426
60.0678
186.239
65.1505
49.0828
66.8041
96.359
49.4692
60.0795
125.323
37.7798
31.2313
31.97
36.2393
31.4545
36.6244
37.2249
38.6671
31.7809
32.1229
37.8618
31.6602
38.6128
37.8422
64.9311
206.292
51.4585
86.5126
61.9679
190.369
53.7739
66.4155
100.406
53.0283
80.8925
60.7949
128.559
54.3209
49.7389
67.256
43.9924
223.275
41.9068
237.077
52.2761
35.7908
35.8189
35.7689
35.5474
35.9824
35.3699
35.3136
36.5837
36.9585
35.6018
35.1872
36.4266
37.3213
35.1986
44.6551
40.45
55.5466
35.4818
242.137
35.1796
39.1435
51.5209
226.633
78.8663
47.4689
242.68
54.3202
44.0916
35.8004
35.4847
35.7174
35.6526
35.3224
35.2619
35.9624
36.6825
35.1748
37.4048
35.523
37.5267
35.1658
36.592
53.7947
72.0448
47.377
125.174
47.0954
173.186
54.7398
38.8552
37.5415
35.5681
35.2285
38.1634
38.0873
35.3611
39.4135
39.092
35.6671
35.6407
38.6859
39.9075
35.5159
56.7738
209.302
92.3663
49.9226
192.215
56.0743
51.552
56.1677
124.894
92.2559
52.1102
164.273
57.0572
52.1068
39.2814
35.2432
38.3207
35.7395
38.4244
35.4233
39.1783
39.8526
35.697
40.017
35.8712
40.3035
35.5896
39.7388
132.164
182.864
141.522
111.147
88.1359
112.172
89.8054
112.826
119.983
111.877
69.6152
58.3503
71.7107
61.3453
106.354
108.46
109.146
53.9179
46.3051
54.5336
48.7762
106.213
111.061
111.164
43.6419
42.9094
46.1234
45.0576
99.5704
109.712
108.509
41.2933
38.6277
43.4578
41.9952
94.3136
107.021
103.914
37.8176
37.141
41.0613
39.8917
86.3527
98.9817
93.9653
36.0297
34.0155
38.1839
36.0494
74.6841
90.5158
81.2625
33.4243
28.2756
34.9007
28.7428
191.32
247.898
179.674
179.038
127.823
167.456
110.782
136.786
246.556
287.12
165.552
135.743
169.541
244.792
87.6857
180.503
188.08
94.063
85.9025
94.8148
182.381
78.4455
171.136
176.11
78.5689
77.2965
79.509
173.886
69.6701
170.885
171.49
68.2487
66.2765
71.6314
172.835
66.6276
178.981
179.822
64.9002
64.5678
67.1399
180.316
63.9023
173.927
178.832
61.5239
60.5672
64.5638
177.916
59.9687
162.946
171.292
58.1933
56.6475
61.1676
168.264
54.2326
147.663
157.782
51.7621
49.9652
55.4866
154.819
78.5703
98.9555
84.8623
31.7125
26.8978
34.9255
30.8837
159.944
183.861
165.898
104.72
79.9467
93.3482
78.1514
115.784
219.522
247.091
143.31
119.388
138.881
221.067
82.6184
194.694
199.724
87.2398
83.2821
86.9065
195.68
72.3884
186.817
185.092
75.2216
73.4999
74.1954
182.513
67.7294
179.4
175.192
69.5668
68.3386
69.0137
171.45
65.3236
173.505
163.326
66.2027
65.5878
65.7473
163.051
64.5109
176.03
167.597
64.2042
63.9061
64.7301
169.735
61.8462
172.728
171.029
62.4261
61.4901
62.7358
170.498
58.0813
163.912
164.756
58.4112
57.4563
58.9938
163.732
90.6249
108.098
98.0161
37.4706
34.6642
39.5979
39.0489
179.23
203.916
176.273
110.459
88.1174
120.272
99.9082
130.019
253.071
284.484
155.629
128.462
156.449
253.57
87.716
211.197
217.916
92.6776
86.7327
93.3359
215.242
81.3372
204.15
217.677
77.9057
77.6568
81.1975
220.656
83.6284
203.644
224.289
79.204
80.1081
83.3475
224.227
87.0044
192.785
218.134
85.3018
87.141
85.5635
214.514
84.9594
136.923
176.311
84.0064
75.4023
89.59
153.935
59.1362
150.116
136.488
62.2877
61.0246
60.8939
140.455
61.5527
169.648
168.634
59.9493
60.1505
60.5734
173.626
100.61
117.511
98.1299
42.1996
41.9248
45.5983
43.5943
187.324
247.97
197.501
162.943
136.347
162.933
135.219
146.074
245.534
287.742
169.042
140.355
172.171
247.503
87.5869
202.591
198.683
92.8134
87.0053
94.4126
199.231
84.7497
228.007
217.928
84.1352
84.7549
84.7759
221.423
81.5271
230.14
221.344
84.7585
84.1143
82.6671
219.216
76.2068
216.673
212.649
80.3956
78.834
77.8489
208.661
68.1367
184.236
195.203
71.9056
69.534
70.28
186.701
61.6801
154.444
169.797
62.0705
59.9348
62.5915
169.067
65.6318
176.554
173.421
62.5973
64.3072
64.1385
176.894
91.1652
101.597
82.7545
48.159
43.7516
44.6715
37.0334
135.8
160
133.129
94.2434
79.9561
89.4763
77.5109
131.093
130.006
132.377
71.3526
64.8614
70.976
68.0129
132.256
132.031
130.07
59.5991
56.7591
65.2369
60.3433
126.919
126.083
122.413
54.4457
51.8506
55.7729
54.2243
117.214
115.31
110.265
48.732
46.4481
51.3552
46.7433
110.846
105.75
101.606
44.7218
43.4577
43.281