/*--------------------------------*- C++ -*----------------------------------*\
  =========                 |
  \\      /  F ield         | OpenFOAM: The Open Source CFD Toolbox
   \\    /   O peration     | Website:  https://openfoam.org
    \\  /    A nd           | Version:  10
     \\/     M anipulation  |
\*---------------------------------------------------------------------------*/
FoamFile
{
    format      ascii;
    class       volScalarField;
    location    "9.6";
    object      omega_0;
}
// * * * * * * * * * * * * * * * * * * * * * * * * * * * * * * * * * * * * * //

dimensions      [0 0 -1 0 0 0 0];

internalField   nonuniform List<scalar> 
12920
(
107.069
119.773
122.351
125.573
116.502
100.445
85.5273
74.8589
66.4005
60.9778
57.2343
54.775
52.8316
50.8933
49.0288
46.9001
45.3121
43.9877
43.3173
41.4408
323.192
185.21
151.425
140.707
119.712
106.401
91.9608
83.5376
75.778
71.9846
68.958
67.6501
66.1829
65.3134
63.8295
62.578
61.3907
60.2321
58.752
57.3701
317.391
200.204
162.596
147.275
125.812
113.821
95.4115
86.2272
77.5088
73.9957
70.1972
68.4842
66.2987
64.928
63.1719
61.8113
60.3773
58.632
57.184
55.1753
176.031
200.159
192.62
165.405
128.325
102.877
81.6668
72.6926
66.9218
64.909
61.9194
60.5097
58.5005
57.3138
55.8877
54.8822
53.7593
52.4361
51.471
49.9499
154.637
241.78
197.974
143.795
109.296
88.0945
74.7984
69.3304
65.1331
62.9062
59.2466
57.4732
55.042
53.8673
52.5598
51.9306
51.1107
50.3335
49.5889
48.3943
453.649
257.829
176.459
149.955
132.25
108.062
88.156
72.6635
65.561
62.0486
57.9323
55.586
53.0893
52.0528
51.273
50.8819
50.4425
49.7014
48.765
47.3666
217.053
211.569
206.349
198.168
172.82
141.418
108.112
81.4906
70.0081
61.779
59.2782
55.0447
52.6989
50.6029
49.25
48.3261
47.6257
46.8627
45.6426
44.3331
76.5606
157.027
213.143
217.614
196.814
137.143
185.802
113.097
110.871
106.982
103.41
97.24
90.5674
83.9916
52.8815
49.4776
46.8489
44.7259
42.5109
40.7223
242.801
269.524
265.893
239.744
195.055
253.672
290.568
184.45
174.705
167.974
179.224
175.391
167.106
151.225
92.1709
50.278
47.4534
45.0998
42.5547
39.0012
145.085
218.193
208.005
173.407
133.346
182.483
247.681
197.056
188.584
181.476
173.844
175.643
174.512
165.52
103.842
51.0627
45.1107
43.4176
42.4661
39.2242
118.407
202.524
188.409
160.648
136.081
197.383
282.995
215.48
204.645
203.753
198.323
144.308
141.936
166.617
114.498
52.9958
45.4774
42.3932
41.2279
38.4469
199.519
268.404
252.08
212.661
175.129
242.725
283.397
201.783
223.299
231.405
220.361
199.295
154.69
169.896
112.756
48.7973
44.6019
42.8064
41.6084
39.4773
267.996
297.248
236.425
185.809
144.195
106.476
157.865
130.458
132.548
131.103
120.612
113.72
106.667
98.2315
50.7746
45.7796
43.3747
42.0949
41.5938
41.6399
243.259
283.39
201.075
131.374
103.144
93.3615
87.7752
83.308
79.0769
72.5596
65.8247
59.7024
54.9246
51.6666
49.2931
47.34
45.3059
42.9725
41.6749
41.4267
334.371
268.535
219.041
152.455
117.64
108.895
95.3747
88.0852
79.1546
73.373
65.8735
60.9984
56.3728
54.3669
53.3246
52.7881
51.3868
47.6194
44.1626
41.3929
167.467
187.268
177.728
157.223
133.004
118.197
102.796
92.6785
83.6058
78.6019
71.52
66.6502
61.5132
58.8055
56.2558
55.117
53.0642
49.9344
46.0741
42.534
300.908
209.107
181.44
161.258
131.175
112.081
97.644
84.7912
76.6399
71.8781
67.6205
64.7103
61.0595
58.7004
56.284
54.3446
51.4228
48.6158
46.0927
43.68
415.85
292.439
179.797
132.051
114.701
99.4463
86.6227
77.8905
71.033
67.0076
62.8397
60.4573
57.7758
55.8787
53.5441
51.585
49.5088
47.6968
46.2338
44.577
275.031
200.956
139.285
110.527
98.8588
91.709
81.9371
77.0719
70.3234
65.7873
60.1622
56.577
53.6498
52.214
50.75
49.6181
48.236
46.8951
45.6703
44.3723
47.3246
97.6362
114.231
112.045
100.993
90.2504
81.7836
75.0351
66.1387
59.2265
55.2605
52.0078
47.3085
42.4442
39.0979
36.6237
35.4555
34.0675
33.3947
31.6931
34.739
31.5067
36.6746
63.9844
67.7775
60.7064
48.2495
40.7357
35.7592
33.6407
32.0655
31.2555
30.3594
29.6647
28.8311
27.8432
27.2193
26.6978
26.3988
25.3265
226.89
164.998
99.203
84.9172
72.7248
63.6128
56.1721
49.282
42.5532
38.15
35.3144
34.2442
33.3347
32.9337
32.3856
32.0608
31.7803
31.5317
31.279
30.9048
207.794
129.293
91.1217
75.32
63.0343
56.678
48.7862
43.2984
38.2637
35.8594
33.5841
32.6092
31.594
31.1104
30.6148
30.3135
29.9892
29.4632
28.9856
27.9013
176.221
129.018
101.875
78.9327
68.3224
59.937
50.2982
40.8062
34.4702
31.3773
29.2933
28.5501
27.7039
27.3315
26.8548
26.5015
26.0584
25.5473
25.0415
24.4797
350.49
203.074
97.3079
83.6845
75.4126
60.4347
49.0511
39.8244
33.7626
30.695
28.4884
27.592
26.8069
26.3888
26.039
25.6993
25.3032
24.8585
24.5397
24.1185
347.866
172.472
90.8738
90.8074
90.1909
76.3702
58.3566
42.1454
33.8449
29.7564
27.1658
26.0813
25.2656
24.9174
24.8113
24.8025
24.8018
24.7163
24.6047
24.235
118.541
145.09
126.126
120.983
117.611
105.916
77.8479
51.528
36.1317
29.3681
26.6041
25.4419
24.5508
24.1669
23.8312
23.5793
23.5089
23.3629
23.2241
22.7709
168.827
255.449
223.656
212.864
167.071
99.9374
76.1556
53.1494
39.4491
33.1126
30.3245
28.4293
27.0047
25.4651
23.815
23.7776
23.3833
22.7099
22.2725
21.2377
116.422
162.448
180.838
200.774
157.515
125.605
74.1174
53.3376
42.2391
36.3867
33.6561
31.3344
29.2682
26.6419
25.2364
24.6332
23.8035
23.1567
22.6468
21.1694
128.527
155.573
124.442
83.7106
62.8304
60.6718
56.5591
48.0175
41.6653
37.2008
34.5476
33.2615
32.3521
31.4527
31.0012
27.6703
24.7697
23.6496
23.3264
22.0234
188.189
154.921
109.005
88.7253
71.3494
66.9292
60.119
50.2306
43.1499
41.4503
43.0711
44.0918
37.9087
35.7418
33.2937
27.2342
23.7687
22.758
22.5137
21.6438
235.101
145.288
130.544
127.112
121.631
119.62
87.4923
55.273
46.9847
43.563
41.2245
39.0273
37.1666
35.4073
35.2471
23.2622
21.5419
21.2943
21.3532
21.2619
150.497
139.939
118.343
108.582
94.6979
69.0592
63.9576
54.8419
45.3594
40.4678
36.0425
33.5352
32.0037
31.5891
23.8691
21.72
20.8541
20.6649
20.6936
21.2643
238.491
151.069
92.566
68.5943
64.3696
54.6313
49.6471
45.8969
40.5826
36.9988
32.5442
29.7776
26.8984
25.1803
23.6941
22.7002
21.8793
21.1946
20.8038
21.0407
226.35
187.406
141.737
89.1344
66.1578
54.6629
47.7901
43.3831
39.4689
36.9382
33.7894
31.0418
28.0917
26.7021
25.9099
25.6418
25.3328
24.5833
23.1135
21.231
225.015
164.571
129.848
112.43
92.2195
70.7603
53.5698
44.7088
39.3695
37.3207
34.8177
33.1356
30.951
29.5049
28.2619
27.555
26.7978
25.8455
25.0351
22.7801
316.21
175.446
122.942
108.919
88.1881
65.5253
50.0047
40.3031
35.6351
33.6358
32.1025
31.3152
30.0679
29.2549
28.3119
27.4586
26.6035
25.5997
24.9429
23.4386
363.848
227.728
147.291
109.227
77.0407
55.7065
43.4921
37.0858
33.4576
31.8352
30.3936
29.6834
29.0769
28.5657
27.9267
27.2221
26.4364
25.4231
24.8872
23.8689
536.846
161.854
108.559
69.3839
57.0472
50.1681
44.5041
41.8788
37.9716
35.5151
32.3748
30.3906
29.0231
28.2377
27.4742
26.7588
26.0719
25.3952
25.1247
24.6582
50.9457
61.2912
61.3212
59.0617
52.2544
49.0843
45.9262
43.9731
40.9754
37.9103
34.4891
31.1063
27.5989
24.6079
22.5482
21.5133
21.1382
20.914
20.8355
20.3643
66.5782
55.2149
58.81
76.0744
73.8128
63.5375
52.925
46.2231
41.5149
39.0282
36.9751
35.3489
33.9566
32.6779
31.6672
30.4938
29.8718
28.7047
28.0405
26.3192
112
98.7521
89.2719
72.8857
57.8113
50.6999
44.6048
40.9386
37.1283
35.7373
34.3798
34.0185
33.3181
32.9008
32.2284
31.814
31.4413
31.0004
30.6336
30.031
152.163
111.443
79.7273
59.0658
50.4673
43.6955
38.9906
35.7378
32.8295
31.5927
30.2019
29.7356
29.0414
28.7697
28.3008
27.9796
27.5563
27.0329
26.5749
25.9158
323.33
128.767
96.4797
63.9262
52.556
43.5805
37.6568
32.428
28.8191
27.1422
25.8333
25.3942
24.8088
24.5712
24.1733
23.8907
23.529
23.1786
22.8492
22.6148
489.882
141.533
84.9999
63.5607
55.91
44.4794
37.5553
31.9981
27.9971
26.0622
24.574
24.0475
23.5135
23.3306
23.0494
22.8547
22.565
22.3025
22.0838
21.9177
208.102
135.645
79.221
68.445
64.4314
48.601
40.6558
32.676
27.6372
25.072
23.328
22.6614
22.1957
22.117
22.0747
22.0869
22.066
21.9823
21.9122
21.7233
257.499
216.79
125.456
102.59
80.5211
67.1416
48.7328
35.884
28.5369
24.395
22.9655
22.0276
21.626
21.4404
21.351
21.2692
21.2131
21.1123
20.9916
20.7179
399.759
228.184
173.071
148.662
92.4896
60.8654
51.3608
39.0251
31.0168
27.5249
24.9525
23.8432
22.7068
21.9639
22.1707
21.7309
21.2952
20.824
20.4368
19.8308
186.892
152.059
121.077
105.07
74.5004
60.5782
48.8252
39.177
33.5509
29.8844
28.0105
26.3193
24.8662
23.4545
23.3839
23.5228
22.4558
21.5714
20.9666
19.8628
209.915
193.688
114.123
67.0478
48.0642
43.1711
42.8289
37.9367
33.7923
31.2391
30.6002
30.9273
30.8299
30.453
29.2206
26.1372
24.225
22.8676
22.1231
20.5765
206.961
172.766
103.239
70.1442
53.6052
47.2951
44.1387
39.0568
35.4893
33.6546
72.1906
63.5295
49.1295
36.395
29.3226
25.3444
23.7384
22.6803
22.1578
20.9666
143.981
139.06
113.798
88.0464
71.9646
65.9796
53.7351
43.4698
38.459
35.96
34.5963
34.0067
32.7296
30.8126
27.167
22.6225
21.7659
21.4513
21.3945
21.1598
220.799
125.868
90.5179
72.4205
62.2557
50.0526
47.2414
43.1616
36.251
33.0264
30.036
28.9011
27.1835
25.7527
21.8022
20.6504
20.2397
20.2322
20.4308
21.0759
268.4
142.653
76.4957
54.8518
52.0408
44.0443
40.6465
36.3935
32.5803
29.2151
26.628
24.6656
23.0732
22.0353
21.2166
20.5987
20.0796
19.849
19.852
20.2642
163.679
163.313
103.53
67.6886
54.0394
43.9681
39.2624
35.1382
31.7597
29.5184
27.0345
25.4393
23.8124
23.265
22.7498
22.4807
22.0043
21.3227
20.5009
19.8722
189.56
163.896
127.026
106.997
79.4787
56.1251
42.0031
35.6215
31.9144
30.1405
28.195
27.1032
25.7121
25.0506
24.305
23.866
23.2391
22.5805
21.8738
20.8297
162.819
153.332
124.801
106.528
82.1622
56.1518
40.7613
33.1662
29.9653
28.371
27.2222
26.6224
25.7494
25.3098
24.6455
24.1469
23.5294
22.9574
22.4703
21.8186
222.789
156.125
120.172
82.6565
61.6945
44.6857
35.6408
31.0958
28.7335
27.594
26.5932
26.233
25.6798
25.468
25.0103
24.6797
24.173
23.6805
23.2679
22.7949
575.879
249.941
104.083
60.3409
49.624
42.6172
37.1632
35.6944
33.1468
32.1506
29.7298
28.3586
26.924
26.4255
25.8632
25.6431
25.3138
25.0768
24.9054
24.5998
52.361
97.1053
81.2443
66.7344
58.2915
53.4919
49.4833
46.2427
42.878
39.4727
35.6713
31.8565
28.6105
26.3944
25.1262
24.3018
23.8535
23.2737
23.0375
22.3421
63.3519
94.5856
84.7206
81.0419
72.3998
62.8232
54.6716
48.5828
44.1644
41.0621
38.7563
36.7366
35.0391
33.2412
31.8124
30.1747
28.8577
27.2952
26.5898
25.1152
205.122
130.396
87.6008
63.5556
57.3383
50.0678
46.9859
44.8695
43.6134
43.3741
42.8749
42.5177
41.5571
40.5785
39.303
38.1623
37.2028
36.279
35.6062
34.9629
289.11
102.292
75.2171
53.3153
50.6119
41.2397
40.5573
37.2051
36.587
35.3116
34.8902
34.1764
33.6038
32.9068
32.2533
31.5956
31.0278
30.4398
30.0417
29.7194
181.561
126.904
90.1543
57.1634
50.1796
39.023
37.8769
32.9498
31.5346
29.5093
28.9799
28.2194
27.8907
27.4486
27.1457
26.8219
26.5753
26.3527
26.2164
26.2493
174.455
137.496
84.9929
56.6082
52.388
39.9666
38.1297
32.6749
30.4343
28.0508
27.2351
26.4235
26.187
25.8907
25.761
25.565
25.4074
25.2664
25.1738
25.2336
259.786
158.676
80.0505
58.0615
55.3689
40.7503
39.3816
33.2072
29.5032
26.6455
25.5161
24.8178
24.6827
24.6613
24.6889
24.7432
24.759
24.7615
24.7411
24.7874
598.338
186.994
96.1039
69.2502
63.2142
49.5783
42.4393
33.9904
29.8663
25.8501
25.2745
24.2283
24.2968
24.1606
24.2141
24.1713
24.1532
24.0877
23.9922
24.0038
256.877
175.895
109.36
79.2124
63.9762
48.2728
43.6475
36.154
31.3605
28.4404
26.4443
25.7524
24.8065
24.5655
26.1587
25.024
24.3701
23.9495
23.6095
23.4416
171.307
134.289
93.3984
65.5395
53.0067
47.0104
43.5989
36.9162
33.1629
31.1725
29.446
28.405
27.285
26.613
27.5254
27.7146
25.8351
24.6845
23.9924
23.5437
221.646
160.387
95.2225
59.9408
46.131
41.3292
41.8218
37.796
34.7943
33.0651
32.6873
32.8618
32.4281
31.6607
31.2879
29.9089
27.5149
25.8713
24.8618
24.1049
234.228
138.695
89.6323
60.5709
50.3687
43.6868
41.8096
38.5455
36.6353
35.7253
60.3497
56.2089
41.4829
34.3693
31.485
29.8376
27.5904
26.1782
25.3627
24.6298
225.191
162.232
95.9901
64.0402
55.218
49.0672
46.216
41.7163
38.5325
36.81
35.5724
34.8725
33.3925
31.2194
29.1859
27.8881
26.3761
25.6738
25.4898
25.2149
219.289
137.942
79.6939
58.2297
55.7026
46.6814
44.3088
40.6442
35.8083
33.5044
31.393
30.4907
28.3799
27.0755
26.1204
24.8483
24.4743
24.5387
24.9049
25.3513
355.209
168.266
73.4387
53.4022
52.5714
43.0118
41.2885
35.9391
32.9637
29.0711
27.7923
25.835
25.2796
24.4529
24.0575
23.6105
23.4404
23.4929
23.7533
24.396
316.642
152.182
83.1124
59.6701
53.6532
41.7182
40.1641
35.0002
32.3759
29.3785
27.8529
26.4783
25.7381
25.3494
24.9522
24.6146
24.1748
23.8328
23.5786
23.6205
230.948
158.568
119.773
90.2267
69.7264
49.9009
41.7117
35.0698
32.8668
30.1179
29.0895
27.8336
27.2589
26.7276
26.321
25.9201
25.4194
24.9885
24.5304
24.3686
193.207
154.745
127.996
95.7958
74.3846
50.6693
40.9538
33.5006
31.8018
29.4455
29.0097
28.1189
27.8206
27.3531
26.9849
26.5906
26.1652
25.8684
25.5755
25.5259
293.607
176.161
109.614
69.1278
60.1195
43.5238
38.1946
32.4413
31.2691
29.3363
29.1172
28.5796
28.4729
28.2606
28.0672
27.84
27.525
27.294
27.0132
26.976
281.535
223.072
128.923
62.7096
54.9289
43.4653
40.3707
36.935
35.1433
33.2517
31.7573
30.8185
30.306
30.1716
30.0309
30.0064
29.9046
29.8599
29.7301
29.6813
81.4772
111.291
96.7536
73.9512
61.5174
53.6041
48.2516
42.6758
38.7582
34.9218
32.0366
29.6247
27.9886
26.7929
25.9986
25.205
24.6535
23.9184
23.5866
22.7595
90.3086
102.792
84.2323
76.4055
67.3252
58.8728
51.8823
46.1625
41.9763
38.7831
36.2571
33.6017
31.0211
28.7338
27.0654
25.824
24.9847
24.214
23.7502
22.9217
317.477
165.041
103.643
63.1002
75.023
57.0647
68.3474
60.7832
66.7192
62.7627
64.2216
60.8724
60.3392
57.8692
57.141
55.2013
54.4905
53.1283
52.5507
51.9839
344.877
127.51
78.3971
61.6766
63.294
45.3673
55.4318
45.0375
51.8367
46.6955
49.5697
46.5776
47.3284
45.4509
45.3573
44.1968
43.9888
43.2925
43.188
43.0426
192.12
128.791
93.975
62.8906
61.2281
43.2166
51.8609
39.7066
45.5764
39.3329
42.008
39.154
40.2808
39.0067
39.394
38.875
39.0348
38.9238
39.0209
39.2963
218.735
161.922
100.159
69.3431
67.2565
44.2219
54.1826
40.2492
45.3034
38.4634
40.7206
37.6799
38.9391
37.6689
38.2765
37.7211
37.9476
37.751
37.8502
38.0646
185.697
181.982
112.048
75.7551
69.7189
44.5256
56.247
39.9172
42.3469
35.8413
37.1601
35.3019
36.3464
36.0335
36.4519
36.5963
36.907
37.0818
37.2066
37.4685
396.653
184.275
96.7278
72.3449
76.3946
48.9893
56.2285
41.518
41.8655
35.1518
37.1033
34.8034
36.5949
35.931
36.6655
36.4175
36.7497
36.6257
36.7104
36.8443
218.773
188.184
105.984
72.6017
78.1757
54.1334
49.2034
41.6506
40.6919
36.621
38.0633
37.0016
37.9743
37.653
39.798
37.8031
36.9653
36.6931
36.4626
36.498
222.222
134.745
88.7932
62.7362
58.6637
51.3712
53.318
44.8313
45.5884
45.1376
44.8657
44.3966
44.147
43.8943
44.9976
40.8199
38.2827
37.2383
36.8718
36.7205
173.959
147.698
107.071
64.4174
56.8058
47.1585
51.7783
51.5979
51.592
49.7213
48.1237
47.7535
48.5741
48.2589
47.4686
42.4107
39.4278
38.1229
37.5117
37.1957
191.118
136.309
92.1304
63.1852
58.2251
47.3839
49.3119
53.0551
54.0168
50.9301
51.2616
50.159
50.383
49.2531
47.9079
42.5146
39.5209
38.4679
38.0484
37.5889
264.707
196.971
120.466
63.8248
64.0867
53.2843
56.8274
54.4475
53.8822
52.2485
51.4956
50.3823
49.1192
47.7055
46.9931
41.2338
38.9814
38.5663
38.6244
38.4097
359.82
189.999
91.7494
65.5341
68.8239
52.689
52.5658
46.4801
47.0135
43.5202
44.7807
42.0484
42.0784
40.7245
39.9588
37.9581
37.4963
37.9241
38.5019
38.9986
343.879
153.475
91.0738
63.399
70.5473
47.8206
55.2774
43.3219
44.2817
38.0441
39.4051
36.2874
37.5476
36.3521
36.7061
36.01
36.2744
36.5671
37.2098
38.0432
228.006
126.934
86.8789
65.6621
67.8118
46.3518
54.5258
41.9447
44.3802
38.4135
39.646
37.2396
38.038
37.0898
37.0161
36.5231
36.4225
36.3962
36.5485
36.9821
304.127
184.818
128.968
76.8808
79.0429
53.1735
56.3464
43.6234
46.6383
39.5473
41.8753
38.4341
40.076
38.481
39.1472
38.1107
38.1326
37.5729
37.5622
37.8167
179.677
162.214
136.206
79.2018
81.2218
52.312
55.7264
42.1067
46.0021
39.2272
42.3171
39.2714
41.1501
39.65
40.2653
39.3447
39.4065
39.0185
39.0696
39.319
321.099
243.944
128.042
70.1975
78.8635
50.4749
57.7524
42.9822
47.7071
40.2862
44.0188
40.7095
43.0613
41.4413
42.4477
41.4742
41.741
41.2304
41.2348
41.377
195.268
172.016
175.94
83.4651
83.2536
52.96
64.2735
48.1708
53.6215
45.2345
48.9636
45.5301
48.097
46.61
47.7324
46.825
47.1575
46.7044
46.7267
46.69
105.715
93.1989
85.0116
72.3102
59.7918
50.2408
41.722
35.9763
32.5618
30.4527
29.0825
27.8204
26.8598
25.8113
24.9835
24.0914
23.4053
22.595
22.1405
21.3368
30.5629
33.8211
69.3014
31.8444
31.6122
34.4676
86.6453
30.881
69.6011
60.8624
31.7961
32.2263
86.8536
70.8775
72.0947
36.0618
35.5609
34.304
89.5707
35.9082
35.5371
65.7792
35.5593
35.8069
92.8797
82.2254
35.6009
35.9437
195.221
265.998
197.735
93.715
66.1349
77.5437
56.5839
177.659
191.869
184.138
60.6349
49.2225
53.9623
48.0109
167.314
183.349
180.835
47.3678
42.3053
46.4109
42.6221
178.867
179.678
176.856
40.7865
38.2784
41.5529
39.007
176.614
176.766
177.807
37.7394
35.8347
38.3521
36.7767
169.846
178.058
176.252
35.2233
33.5232
36.3642
35.1748
154.601
174.237
167.044
32.9227
30.4016
34.6718
33.1715
128.649
164.677
150.182
29.6805
27.2748
32.7179
31.5069
200.416
260.81
208.843
67.641
56.329
66.707
58.2326
190.364
201.798
189.676
53.9919
48.1014
55.5631
48.4718
183.301
187.517
182.949
46.4365
42.4389
46.8533
43.9938
174.86
180.285
166.487
41.3952
38.9715
43.7522
44.214
174.547
159.833
141.105
38.4071
37.1278
45.0744
45.2381
175.895
139.763
150.055
36.8439
35.9628
44.1222
40.0398
167.713
154.776
162.681
35.5876
34.3776
39.1881
37.5239
150.737
164.192
157.363
34.0373
32.245
37.1402
35.3247
223.472
278.353
212.479
72.3119
60.0315
84.3452
63.6066
206.018
211.767
219.628
56.8454
49.3601
59.2768
52.1352
203.785
224.954
233.51
47.9122
46.2738
51.0731
49.4038
201.424
233.58
228.366
46.321
47.4389
49.0177
48.0167
160.136
223.744
212.61
48.2945
49.7666
47.6117
45.8406
136.057
198.597
148.822
49.4352
41.9003
45.5676
43.5882
162.593
145.616
158.802
40.1565
37.8451
41.3828
38.1875
160.584
170.005
166.69
37.4756
35.5515
38.2141
38.5222
205.691
306.226
210.177
107.932
67.1873
114.016
73.2663
215.795
203.641
209.072
61.2012
53.1672
65.7401
55.8565
231.667
211.416
213.378
52.0523
49.5189
53.7911
49.1039
224.37
213.194
209.76
48.8437
46.8453
47.9104
45.2517
209.772
204.923
194.168
46.1284
43.5036
44.1723
41.2767
158.295
190.645
183.558
42.8866
41.5728
40.4027
38.4882
160.641
180.686
172.626
40.2867
38.3929
37.9271
37.6617
168.439
170.816
143
38.5263
39.6184
38.0439
37.5137
57.9469
63.0314
50.1017
54.2898
43.9939
46.9902
40.6489
44.083
48.0159
42.9868
41.2224
36.2555
39.2225
35.6769
37.5537
41.5769
38.1103
34.7642
31.217
34.6932
32.2222
34.2143
37.1448
34.854
30.5796
29.1093
31.5757
30.1058
31.8475
34.265
32.8804
28.5656
27.043
29.7487
28.9883
29.8149
32.5191
31.5278
26.7039
25.5787
28.8215
28.4067
27.2062
31.1428
30.0795
25.1348
23.8192
28.2374
27.821
25.3904
29.8004
29.7384
23.5173
22.8612
27.7138
27.4517
49.8813
56.078
51.3467
44.8852
40.6586
44.771
41.4787
43.0988
49.2966
43.6685
39.3066
35.7814
40.1261
36.6047
38.1335
42.3063
39.7423
34.8101
32.4736
35.7703
34.1809
35.0476
39.4666
39.8235
31.8696
30.779
34.2221
45.2718
33.4941
40.6129
41.151
30.6688
30.6174
46.8283
47.1713
32.6087
40.6391
37.5822
30.6283
30.5864
46.7032
44.5817
31.6197
36.9626
35.951
30.5356
30.3839
43.6569
39.3312
30.8547
35.5707
33.7692
30.3246
29.267
37.3575
32.0608
52.6529
69.0266
56.5764
46.3601
41.997
52.2908
45.8114
44.3707
53.114
47.0738
40.564
37.2001
43.7344
39.7611
41.4679
46.0518
44.165
36.4672
35.3188
39.0036
37.37
42.3315
43.7195
42.7297
35.1125
47.1504
36.9816
36.3147
44.2782
42.4043
41.3066
48.6746
49.1661
36.2252
36.2338
39.1815
41.1751
39.9147
48.4465
45.3724
36.2502
35.5257
36.2545
38.2951
35.4517
44.2468
38.7224
34.6725
32.3798
33.8595
35.2626
35.9577
36.4327
31.387
31.8292
30.3698
60.1169
94.2097
65.308
59.6868
47.8885
63.2081
50.0364
48.1437
59.2095
49.9743
45.298
40.5982
47.2597
41.3534
44.2587
47.8136
43.2014
39.6425
37.4069
39.531
35.8857
41.8081
42.1193
39.671
36.8659
35.6593
35.1538
33.337
39.3669
38.7313
36.4452
35.3167
34.6115
32.6353
31.2394
38.1465
35.8666
34.6693
34.5267
33.801
31.0087
30.4028
35.3947
34.2803
34.1289
33.2203
31.7634
30.09
29.3957
36.8983
34.4379
34.3178
31.4308
30.3304
29.2362
27.0191
41.5514
43.9869
39.1676
43.9074
38.4243
41.3645
38.0678
34.9219
37.8262
34.5437
36.6589
33.5627
36.8158
34.0155
30.4018
33.6552
31.4674
32.5257
30.4586
33.3472
31.835
28.5399
30.9134
29.684
30.1458
28.9023
31.4517
30.5458
26.6087
29.3967
28.8253
28.4385
27.4119
30.3371
29.9712
25.285
28.7109
28.404
27.2326
26.3741
29.9067
29.6769
23.7043
28.2591
27.8735
26.0433
25.3086
29.5435
29.1152
22.866
27.7427
27.3152
25.1733
24.7218
28.9106
28.2123
39.2266
42.9599
39.9176
41.2202
38.1517
41.0892
38.3611
34.6597
38.6614
35.5235
36.9673
34.2583
37.4003
35.2576
31.7545
34.8013
33.5575
33.6336
32.2116
34.7918
33.9711
31.6697
30.8164
31.6896
31.0152
31.6453
30.6665
31.5194
37.0509
30.6837
34.2804
30.8483
35.0797
31.0339
35.9714
30.8952
59.1362
51.1007
32.2274
31.9547
65.0953
47.8803
30.5747
48.275
39.9913
31.7682
31.1449
43.9571
36.483
29.1299
37.4926
31.8547
30.8755
29.4567
34.9188
31.5685
40.3434
48.9421
43.9516
41.6088
38.7039
45.0048
41.7254
36.1199
42.1295
38.5986
37.7842
35.8437
40.4382
37.9181
34.5898
37.9146
36.4188
35.4316
34.7558
37.4077
36.225
43.7001
52.7266
35.4742
39.6086
38.4678
248.147
35.1934
54.3242
70.9884
45.3711
207.63
46.3177
191.861
53.6704
52.4688
35.8389
35.0892
73.2861
49.6974
35.9103
34.7386
39.1747
34.293
31.9463
44.984
36.1875
34.005
31.7664
31.1464
31.3256
29.5505
34.3994
31.0699
31.1014
28.983
45.6351
56.0795
47.3671
46.5945
42.6713
47.7813
43.3997
39.3323
45.0952
39.8298
41.2517
38.3189
41.8797
37.8798
36.4443
38.1476
34.8828
37.6693
36.2074
36.6306
34.422
34.8863
34.2543
32.582
35.8277
34.8938
33.9923
32.579
34.0781
31.9592
30.7408
34.6661
34.2554
32.1064
31.2201
33.2637
30.5613
29.9347
34.1264
33.1943
31.0739
30.0894
31.2346
29.5895
28.6751
32.6905
31.055
29.623
28.2998
29.4409
28.4013
26.0306
30.4842
28.5902
27.853
25.8292
38.6066
41.8773
38.8544
48.9272
43.07
48.5117
46.4025
34.0447
37.6228
34.9867
41.5502
40.1832
45.5202
44.467
31.4775
34.4051
33.059
40.5038
40.3998
44.4821
43.4369
29.8705
32.6696
31.6739
39.8948
38.807
42.679
41.0245
28.5671
31.4371
30.9994
38.9453
38.7214
40.7239
40.1281
27.5693
30.9216
30.7243
38.4392
37.8474
40.1962
40.7192
26.7144
30.6226
30.2744
37.9544
37.9111
40.9132
41.0049
26.0217
30.0842
29.2654
37.785
37.1343
40.9001
40.5252
38.9209
41.3338
38.9397
47.6137
46.5185
45.2971
46.2627
35.3287
38.1455
36.4223
46.064
45.4979
46.6577
47.2906
33.4527
36.0264
35.0464
45.4442
43.5523
46.9712
44.4968
32.6134
35.1897
55.3908
42.7689
41.2929
43.8154
45.0634
32.8868
57.75
55.1606
41.0495
40.4264
45.9593
45.4052
32.5842
52.4751
43.1624
40.3923
41.2123
44.4807
43.4516
31.9054
40.6604
35.7746
41.4561
41.6536
43.4193
42.8808
30.3234
34.6929
32.1214
41.5446
41.001
42.5716
41.6489
39.2925
45.0975
42.1816
45.969
46.7646
50.4788
49.4558
36.9904
41.0467
38.8401
47.1483
47.7313
48.9644
48.2844
35.7578
38.387
37.2331
47.3985
45.0524
48.1524
46.3336
56.8821
36.8891
36.3416
44.4219
45.6275
45.7374
44.6025
59.7497
36.3636
36.476
46.5832
46.2454
44.4258
43.6686
44.4932
36.3758
35.1287
45.3322
44.0119
43.3902
43.1493
35.6351
34.4698
32.4448
43.8408
42.8796
42.9524
41.7167
31.7378
31.8222
29.7982
42.4896
41.5301
41.3211
40.6489
42.9834
47.0342
43.3591
51.8714
49.8834
51.711
47.5581
39.1011
41.9031
38.1748
49.0261
47.8314
46.0957
44.0283
37.1956
37.1015
35.2317
47.7232
46.3442
43.9987
43.1558
35.814
34.825
33.4258
45.7299
44.5941
42.5975
41.7947
35.0521
33.0096
32.199
44.3753
43.4673
41.8945
41.1924
33.8823
32.0313
30.8469
43.2304
42.7354
40.6764
39.0911
31.785
30.3667
29.0508
42.4114
41.1606
38.9315
38.1245
29.3695
28.6289
26.7673
40.788
40.249
37.8806
37.2503
46.1674
53.6082
51.5234
72.4662
61.7572
77.1696
76.6574
44.6819
50.8106
50.344
61.5498
67.4222
75.624
76.849
45.7171
50.506
50.1002
69.8387
68.334
77.6505
80.6144
44.4591
49.5006
48.2627
67.8206
70.4786
81.4023
83.5958
44.7541
48.1016
47.5981
72.0975
70.8647
84.0888
83.3755
43.9323
47.5249
47.8297
70.6273
71.8137
82.4346
78.7527
44.0669
47.9584
47.7731
72.682
71.689
78.0135
76.3304
42.9613
47.6332
46.9263
71.5962
71.0778
76.12
76.1601
51.768
48.4851
51.6918
72.7322
77.6259
66.8939
78.3093
51.5486
52.5107
53.6235
77.4684
78.8712
79.5229
82.5406
50.4966
53.5532
51.1746
79.7992
84.4496
84.3071
92.7145
48.3042
50.3786
50.2672
85.7541
88.1126
95.1751
99.0144
47.7048
50.7544
49.9549
88.5354
87.7701
99.4386
97.2819
48.2946
49.4946
49.9674
86.6405
81.1547
95.137
86.2452
48.4169
50.0609
49.5658
79.4798
77.0573
83.1486
78.4102
47.3885
49.2447
48.0093
76.7923
76.3678
77.9112
77.0267
52.2717
54.7448
54.8826
65.8339
78.4732
73.48
79.8648
54.1159
54.6539
54.4891
79.7831
82.8612
79.9649
81.1106
51.6705
54.4666
52.8867
84.6756
93.2096
81.9878
86.8946
50.7608
52.2239
51.3238
95.7477
99.2005
88.3293
90.3786
50.6425
51.237
50.6205
99.6857
98.1588
90.7451
90.3032
50.4335
50.5028
49.9586
95.8801
86.7294
89.0218
82.6296
49.6129
49.7273
48.5634
83.5367
78.7395
80.6904
78.0738
47.9701
48.2597
47.4146
78.251
77.2229
77.8538
77.78
55.1458
56.3339
50.867
79.7222
79.5832
78.995
67.2556
53.8393
49.424
48.7715
78.7639
79.5772
66.3091
71.1423
52.8279
49.2549
48.5427
80.0983
83.0553
72.636
70.6107
51.5617
47.8745
47.4926
83.9395
85.8691
69.9432
73.1628
50.6928
47.818
46.9894
86.3293
85.818
74.2136
72.4001
49.4241
46.3228
44.9991
84.7388
80.0051
71.7157
72.9793
47.971
45.0334
44.3825
79.0858
77.2665
73.5829
72.2735
46.9745
44.0998
43.2813
77.1533
77.5123
72.2551
72.8457
32.6208
30.5861
33.231
30.6737
32.0586
30.585
34.5814
36.3612
32.6181
47.6593
38.2679
33.8461
32.6745
182.964
47.4634
43.373
63.8629
215.905
38.2402
56.4499
235.811
31.9527
31.1983
31.557
32.3539
30.8998
31.7249
32.4909
33.0871
31.0232
31.5124
35.0243
30.8855
35.2367
33.2834
37.1569
39.1594
33.25
55.3225
32.87
190.173
35.247
48.9722
222.931
48.2854
77.0631
58.7094
243.386
41.3829
38.0036
30.791
36.0812
31.3487
35.764
31.227
38.0259
63.1137
46.3178
68.7533
201.246
48.145
60.3005
186.143
65.2727
49.1157
66.7969
96.2675
49.5311
60.0793
125.293
37.8266
31.2481
31.982
36.2837
31.4696
36.6846
37.2566
38.6952
31.7953
32.1345
37.8744
31.6744
38.6324
37.8612
65.1084
206.135
51.6034
86.4665
62.2029
190.234
53.8672
66.5184
100.242
53.0167
80.7896
60.7894
128.515
54.3694
49.8533
67.3638
44.0431
223.086
41.9627
236.889
52.3664
35.8304
35.8509
35.7971
35.5702
36.0206
35.3984
35.3386
36.6193
37.0028
35.6326
35.2187
36.4659
37.3644
35.2267
44.7347
40.5088
55.7937
35.5007
242.007
35.2127
39.2177
51.5814
226.399
79.1085
47.5406
242.456
54.4116
44.1494
35.8335
35.503
35.734
35.6662
35.3465
35.2825
35.9829
36.7106
35.2014
37.439
35.5401
37.5658
35.1897
36.6128
53.8977
72.0995
47.4225
124.885
47.1643
172.981
54.8024
38.921
37.5972
35.6104
35.2638
38.2268
38.1449
35.4032
39.4788
39.1428
35.7115
35.6799
38.7482
39.9568
35.5587
56.9044
209.08
92.4343
50.0091
191.994
56.1834
51.6331
56.2934
124.593
92.2876
52.1443
164.128
57.1176
52.171
39.345
35.2755
38.3709
35.7726
38.4801
35.4629
39.2332
39.9144
35.7301
40.05
35.9014
40.3465
35.6277
39.7876
131.339
181.114
140.7
109.969
87.3481
110.305
88.9978
113.046
119.716
111.876
69.2505
58.2658
71.3231
61.1945
106.434
108.54
109.274
53.8701
46.2581
54.4414
48.7166
106.283
111.185
111.253
43.654
42.9431
46.1224
45.0742
99.5822
109.74
108.538
41.3094
38.6313
43.4641
42.0011
94.2994
107.03
103.882
37.8268
37.1465
41.0682
39.8863
86.3219
98.9106
93.8945
36.0265
34.0071
38.1631
36.0271
74.7039
90.4522
81.2141
33.4287
28.2901
34.8837
28.7641
189.55
245.281
178.095
176.845
124.231
164.909
107.885
135.646
245.351
285.156
164.222
134.813
167.905
243.514
87.4319
180.555
187.763
93.7848
85.655
94.5703
182.229
78.4231
171.227
176.121
78.6081
77.3573
79.4973
173.857
69.6278
171.226
171.605
68.2143
66.3029
71.5596
173.041
66.6522
179.094
179.986
64.9559
64.624
67.1577
180.44
63.9132
173.934
178.874
61.5308
60.5749
64.5723
177.945
59.9353
162.808
171.227
58.1762
56.6123
61.1442
168.164
54.2029
147.528
157.688
51.7048
49.9117
55.443
154.726
78.5008
98.88
84.685
31.7262
26.922
34.9473
30.8986
159.743
183.526
165.75
103.915
79.6258
93.038
78.1597
115.547
219.267
246.68
142.854
118.919
138.498
220.835
82.5502
194.577
199.484
87.1267
83.1829
86.8433
195.372
72.3541
186.752
184.897
75.1644
73.4476
74.142
182.342
67.6778
179.34
174.995
69.532
68.3089
68.9589
171.209
65.3297
173.623
163.378
66.2059
65.5889
65.7484
163.17
64.539
176.212
167.948
64.2303
63.9424
64.7637
170.03
61.8553
172.758
171.205
62.4328
61.4874
62.7531
170.625
58.0978
163.982
164.834
58.4051
57.4658
58.9987
163.846
90.4824
108.193
97.8926
37.5116
34.7194
39.6578
39.1296
179.247
203.828
176.171
110.514
88.0869
120.199
99.5441
129.782
252.705
284.157
155.348
128.267
156.273
253.241
87.607
210.875
217.617
92.533
86.5961
93.193
215.121
81.4326
204.03
217.911
77.9172
77.7164
81.2751
220.88
83.7393
203.581
224.422
79.293
80.222
83.4581
224.345
87.2898
192.036
218.045
85.5065
87.278
85.7037
214.391
84.3623
136.529
174.484
83.5862
74.6316
89.4959
152.46
59.1225
150.849
136.536
62.2346
61.0045
60.6783
141.108
61.6804
170.038
169.192
60.0324
60.2475
60.7275
174.06
100.422
117.467
97.8155
42.2732
41.9954
45.6734
43.5908
186.068
246.358
196.224
162.248
135.217
162.263
134.1
144.799
244.532
285.972
167.739
139.118
170.743
246.406
87.494
202.863
198.699
92.5923
86.9456
94.1144
199.427
84.8385
228.45
218.375
84.2759
84.8806
84.8793
221.733
81.558
230.285
221.465
84.83
84.1536
82.707
219.324
76.1859
216.689
212.616
80.3958
78.8256
77.8449
208.584
68.0615
183.066
194.773
71.7794
69.4736
70.1979
186.069
61.6756
154.273
169.587
61.9203
59.8964
62.5335
168.947
65.7915
176.947
173.766
62.8069
64.4951
64.3087
177.075
90.821
101.246
82.4889
48.1878
43.6089
44.6541
36.8674
135.708
159.631
133.099
93.7465
79.7481
89.248
77.4051
131.311
130.267
132.661
71.2784
64.817
70.971
68.0519
132.411
132.29
130.23
59.5862
56.7577
65.2931
60.348
126.904
126.159
122.443
54.4437
51.8365
55.7778
54.2349
117.22
115.33
110.274
48.7149
46.4376
51.3551
46.7072
110.826
105.736
101.571
44.724
43.4678