/*--------------------------------*- C++ -*----------------------------------*\
  =========                 |
  \\      /  F ield         | OpenFOAM: The Open Source CFD Toolbox
   \\    /   O peration     | Website:  https://openfoam.org
    \\  /    A nd           | Version:  10
     \\/     M anipulation  |
\*---------------------------------------------------------------------------*/
FoamFile
{
    format      ascii;
    class       surfaceScalarField;
    location    "9.6";
    object      phi_0;
}
// * * * * * * * * * * * * * * * * * * * * * * * * * * * * * * * * * * * * * //

dimensions      [0 3 -1 0 0 0 0];

internalField   nonuniform List<scalar> 
38556
(
1155.85
607.342
569.39
1261.31
-545.016
439.559
1023.97
177.161
60.1773
1210.33
-6.17803
-180.181
1188.46
22.959
-1.09305
1215.17
-102.284
75.5695
1176.23
-112.007
150.953
1187.05
-164.154
153.334
1182.21
-151.973
156.811
1199.02
-155.735
138.923
1215.23
-139.567
123.363
1243.99
-129.145
100.379
1277.66
-116.704
83.0377
1331.38
-100.092
46.3678
1391.87
-79.4213
18.9384
1441.18
-56.0224
6.70796
1477.64
-40.7244
4.26414
1506.6
-34.3697
5.40701
1529.29
-26.4683
3.7835
-19.1144
12.5787
446.64
-1600.46
-2345.75
220.9
-366.041
46.7646
890.014
193.474
-685.428
926.521
64.2836
-106.968
891.753
2.48465
55.2422
916.754
-159.884
32.5994
916.098
-190.673
79.3215
938.57
-218.682
32.056
940.746
-183.34
29.1913
945.912
-157.458
-3.44368
950.172
-121.503
-22.3249
959.775
-97.2827
-41.4646
972.447
-76.1081
-53.2678
989.667
-52.4946
-64.8165
1010.26
-35.5961
-64.4178
1033.91
-19.6466
-60.0244
1052.47
-7.42806
-51.8552
1061.33
-1.09845
-42.1304
1066.92
1.48904
-33.55
3.35699
-22.8668
1035.47
-1106.09
-3272.43
119.808
-16.7453
566.362
518.484
-50.3632
-154.839
565.931
-31.7948
48.6308
702.896
-138.295
3.81541
803.849
-193.728
-67.1095
835.441
-228.684
6.41918
859.284
-208.522
-34.0025
871.805
-179.746
-16.1156
884.868
-135.471
-35.0491
897.369
-101.085
-32.9188
910.74
-68.6743
-41.9794
921.281
-46.8577
-39.7915
932.916
-21.6924
-42.4364
942.901
-8.44502
-37.1367
947.731
8.5877
-33.0636
949.338
19.2419
-28.277
944.772
25.6789
-22.2111
934.218
28.565
-16.5227
26.1813
-13.1549
-257.736
1168.77
-2393.36
221.457
112.185
-608.123
590.759
-38.5172
-381.148
739.492
-54.3984
-126.129
790.141
-182.502
-6.44246
825.825
-214.817
-14.595
788.526
-282.654
91.2695
761.996
-206.643
24.6507
746.728
-191.351
26.8735
737.998
-123.739
-3.00166
746.554
-104.369
-5.2725
754.407
-65.1465
-11.3804
766.671
-47.8061
-11.3164
777.077
-20.8453
-11.2522
788.486
-9.90211
-9.95265
797.277
10.2466
-10.4493
803.625
20.5083
-7.61499
805.55
28.1107
-4.35676
808.184
29.3405
-3.40906
25.8793
0.418477
1052.59
1496.44
2201.11
741.201
123.533
300.04
682.476
-69.241
89.449
774.967
-157.245
10.3561
725.145
-329.683
197.003
753.981
-321.664
78.0107
760.813
-409.593
120.107
759.106
-244.773
39.8373
757.677
-217.358
27.4362
751.481
-119.04
1.49664
753.131
-107.419
1.39949
758.991
-66.971
-4.03542
769.025
-58.8394
0.999401
781.515
-30.2118
-3.12305
792.386
-20.611
-0.162397
799.346
4.67363
-1.38751
802.442
18.9362
-1.52403
801.442
29.5422
-0.430961
802.557
28.719
-0.493952
24.8084
2.04725
973.416
-625.033
-5012.93
617.578
173.897
305.474
997.979
-102.072
-347.57
1074.05
-171.906
-61.4068
1010.4
-362.95
96.9103
955.346
-284.458
17.8526
854.792
-455.682
146.643
747.992
-205.755
67.7817
703.743
-216.303
43.1947
662.473
-77.8945
0.124498
657.47
-100.704
-1.71158
660.051
-64.0507
-5.50159
678.046
-73.7574
-3.07749
699.612
-45.7853
-5.99244
728.204
-42.1606
-7.04222
757.093
-15.428
-8.78761
781.704
-0.398472
-5.27565
795.889
17.3617
-2.005
803.792
19.8403
0.975947
19.7033
4.05229
750.137
-1434.7
1491.35
992.247
-292.461
224.248
1221.54
-201.343
-130.019
1476.11
-203.55
-222.932
1546.51
-560.826
127.477
1454.29
-297.589
105.349
1137.39
-80.9114
226.783
-99.0424
-83.9039
-101.702
876.542
-41.7215
135.441
-0.179371
-38.2715
-0.178825
688.32
-10.567
63.7099
-31.5781
-14.1336
-35.5125
623.613
-16.4873
23.1089
-1.63939
-16.376
-1.79357
615.475
-13.282
-12.9699
-24.7493
-15.2455
-26.3198
628.557
-21.9128
-3.05471
-16.6269
-20.9358
-14.603
653.885
-23.2391
-4.89214
-26.3272
-20.881
-23.7456
681.081
-22.4691
1.17934
-18.0096
-19.1744
-14.5079
705.928
-67.5247
0.51683
732.277
-40.0165
-1.76016
757.44
-22.1995
-3.36147
771.514
3.84882
-0.561722
777.116
12.5284
1.71035
16.4808
4.40694
3415.7
-1283.96
-3709.47
3967.22
-506.847
-337.132
3548.21
-434.249
651.914
3124.46
-370.444
590.644
2160.51
-423.595
826.724
364.131
-35.0915
480.788
361.33
359.415
354.514
16.0838
-54.0162
15.7643
288.638
-44.1846
38.7659
-213.647
185.589
-32.4513
18.7873
-174.426
156.085
2.88701
4.88602
-138.464
139.98
-16.6759
-1.32772
-148.502
152.712
-12.969
-4.52269
-155.933
162.45
-25.6991
-2.72972
-169.085
171.713
-24.9021
-0.965039
-173.196
175.952
-25.5832
0.358797
735.337
-25.5291
4.70551
-177.954
-184.664
-171.444
-177.367
-26.0566
-22.6079
-21.9449
758.128
-69.7486
6.94133
770.983
-37.2816
2.22652
774.755
-2.87338
2.95061
768.965
14.5022
3.81594
20.0535
3.95017
1285.57
-933.145
-2895.85
2077.09
-321.643
-976.721
2819.53
-287.298
-889.391
2876.46
-263.486
-163.887
412.282
-63.1742
727.405
382.413
526.251
467.688
323.103
-20.7037
74.791
3.69028
-74.7449
69.7128
-0.39548
1.7373
-60.5804
4.26712
56.5205
-1.26225
1.05505
-50.1095
1.33163
49.4457
-2.23416
1.56634
-49.559
2.98643
49.8422
-3.47044
0.200753
-51.4277
4.01643
51.4512
-4.02211
-0.0178498
-51.2887
5.67125
51.1161
-5.21744
-0.281151
-50.804
5.77394
50.3364
-5.15536
-0.150998
-48.9345
5.77742
48.5475
-5.19649
-0.193977
-48.7494
197.928
-26.2907
-0.152709
-50.4482
-48.2358
-49.58
815.897
-89.1279
9.64109
-199.418
-211.284
-192.503
-202.954
815.215
-43.9599
7.35997
810.273
-4.61761
6.68599
796.692
21.9187
6.16462
28.8128
3.85737
1164.43
-45.3866
807.205
1457.79
-66.6707
-548.332
1210.16
270.367
-310.037
1019.99
194.337
-267.654
218.584
207.169
-91.7885
196.289
217.315
209.248
-2.45257
196.58
25.4319
-0.975695
-3.21385
-50.1714
51.292
0.099844
1.99338
0.467129
-58.8163
61.0602
-2.99152
0.280417
4.49468
-64.7525
64.9391
-4.95667
0.275382
4.37321
-64.2538
63.8303
-4.21698
0.267272
3.3133
-61.9729
61.1611
-2.91217
0.410609
3.09444
-59.0625
58.5003
-2.64718
0.114964
2.59211
-57.0168
56.6464
-1.9259
-0.295769
2.84343
-56.3273
56.4957
-2.2292
-0.782623
-58.4356
23.5932
236.633
-19.6611
-6.04003
-59.8722
-57.1288
-59.0886
901.49
-76.6089
12.7374
-233.481
-241.352
-222.277
-229.636
882.287
-31.1722
6.41541
872.846
3.663
1.16031
852.497
37.6964
4.57076
44.4209
2.74484
1231.06
1106.3
-1287.21
756.136
26.8562
381.393
885.159
287.791
-146.446
802.985
197.039
79.472
176.683
164.479
87.6783
199.432
184.936
196.946
-35.6481
201.402
18.0309
-7.10228
0.442748
-57.18
59.3102
-1.38075
-1.19214
6.27747
-65.3793
65.9715
-5.75953
-1.11015
7.52238
-66.9684
67.309
-7.84852
-0.0143921
7.37222
-70.1903
71.5817
-9.3673
0.603638
7.04993
-75.4314
76.349
-9.81305
1.84551
4.33371
-75.3417
73.8605
-5.74072
2.88824
0.947321
-69.3214
67.9179
-0.340315
0.796545
0.595752
-65.6615
65.5212
0.366186
-0.821658
-65.2086
14.1445
255.552
-9.53847
-0.871268
-65.9435
-63.7772
-64.3573
884.762
-30.3685
11.9287
-243.89
-242.393
-230.656
-225.991
858.808
-5.41419
0.195619
857.001
10.8794
-5.40898
847.388
47.3709
-0.0618055
57.367
-0.697888
887.08
74.6464
694.086
1725.53
-106.362
-705.235
2134.31
295.215
-416.199
2273.9
281.916
-224.468
401.592
414.29
196.328
420.083
498.021
508.064
19.9472
320.617
4.13827
56.8893
8.90123
-72.2601
69.8774
-6.87118
0.35263
6.73245
-68.3743
68.1185
-6.09082
-0.385863
9.02467
-69.0913
69.0829
-8.85381
-0.162504
10.8869
-67.9474
67.149
-9.97289
-0.115565
11.4115
-64.7557
63.9909
-10.4734
-0.173203
8.64865
-63.6979
64.4979
-8.49295
-0.955687
0.647557
-66.6851
67.9128
-2.12536
0.250066
-3.04442
-69.572
69.2899
3.05131
0.275192
-66.7513
5.46177
244.301
2.08502
8.86907
-66.3043
-64.27
-63.3914
774.375
8.94646
16.0356
-219.769
-207.201
-206.606
-196.151
763.875
9.84318
-4.75753
781.893
2.43078
-9.5691
804.521
29.9989
-5.25597
52.0635
-3.13635
602.216
1380.61
-1392.71
1001.19
400.29
-905.627
1283.6
406.592
-393.781
1331.95
291.428
-57.8619
1155.81
310.316
280.108
265.483
6.9708
159.199
-25.8053
22.5165
-56.6083
-4.55829
264.334
265.055
259.226
-5.58884
254.157
22.9237
10.3771
-7.75325
-3.34125
-5.29143
-2.97197
-235.642
220.982
13.1484
7.31796
-0.196469
-2.65409
0.0165844
6.31132
-225.923
226.122
-26.297
-0.262532
7.09072
6.16904
6.78977
6.97221
-215.76
208.136
-18.7598
-1.71035
7.58021
6.46918
7.07219
7.86171
-209.389
210.182
-26.6499
-4.63688
8.116
7.19
7.32579
5.55321
-207.038
205.775
-11.3191
-6.9447
5.16821
4.61386
4.19128
1.77959
-211.484
217.012
-3.22534
-6.93972
1.50058
0.847934
0.509561
-1.7478
-215.926
209.38
13.0486
1.06467
-1.76267
-2.08473
-1.97214
718.656
45.9253
11.8511
-9.67685
-9.41395
-8.04804
-8.32188
-197.282
-181.947
-186.52
-175.222
706.561
26.3063
-5.26544
706.829
19.2971
-9.72144
719.992
-5.09846
-5.63422
755.931
-1.55121
-4.38832
21.462
1.38514
375.576
1469.7
1220.3
673.991
622.744
-520.869
845.829
446.103
-211.349
799.739
330.654
6.86524
864.171
118.866
127.019
839.309
-51.6011
83.4334
861.902
44.7943
64.3577
-24.2706
-40.4822
-25.1903
-41.8008
844.658
-104.214
53.9875
-4.2984
34.6073
-0.955168
38.1163
820.435
-44.6408
23.7389
17.8402
6.84728
18.2801
2.15788
787.36
-74.5236
20.9616
16.1264
29.3116
13.9656
27.233
750.239
-18.2813
10.067
17.3383
9.62307
14.2105
4.16394
722.743
-14.3235
14.4651
6.0397
9.9535
2.95087
8.41014
708.85
42.4505
3.19087
-2.52305
-11.4622
-5.01056
-12.7525
709.187
41.9973
5.09518
-13.8063
-11.5862
-12.5959
-9.44117
709.959
52.6362
-7.48314
710.116
41.872
-15.7224
715.227
29.9631
-15.7769
719.859
-2.49794
-7.23326
736.462
-14.1281
-4.02554
-1.61227
7.03073
981.596
1856.13
-2915.67
984.893
1124.43
-504.983
858.276
828.503
-255.783
796.743
469.513
-77.326
719.546
190.119
5.9428
704.992
35.5663
-72.6134
805.576
-59.7648
3.97474
816.578
-119.128
3.91117
831.193
-69.8895
10.6335
814.105
-69.0941
11.6591
791.875
-13.7375
17.6858
765.627
0.98677
10.9377
753.167
45.1155
9.79455
747.355
48.808
-0.998865
754.074
56.644
-10.7266
772.995
43.7712
-20.8204
789.277
32.8217
-19.14
783.442
11.0214
-7.68518
763.115
1.72941
4.47031
8.56523
3.20703
838.771
1514.47
1001.81
1123.27
633.177
206.75
1269.55
777.363
-95.1391
1459.32
369.402
-89.6534
1335.63
378.304
-64.4969
1203.09
196.819
-28.7083
1012.06
104.059
27.2051
918.37
-23.5221
-1.91897
873.064
-18.1418
-6.44151
861.226
-42.2222
-15.0347
854.778
2.93109
-10.2207
848.629
14.2723
-7.13618
843.734
45.5995
4.41122
841.154
52.2661
-0.878513
841.469
59.2726
-2.94326
844.21
50.2778
-9.24778
845.42
41.0559
-9.44453
838.658
24.6522
-6.86841
812.64
20.2971
7.45074
20.3106
8.6832
1049.45
3299.78
576.287
864.827
1101.4
-283.6
1013.52
884.133
-255.466
1067.67
406.542
-91.2918
1011.91
448.401
-14.3348
956.18
248.275
4.27497
845.781
181.81
32.6474
782.635
42.9929
-3.36806
765.24
15.8495
-16.5969
768.269
-27.4673
-17.7836
790.203
-6.49946
-12.5032
809.96
5.54691
-11.032
830.063
31.2628
-5.76646
843.028
44.682
-5.38049
852.216
54.1444
-4.05978
857.685
49.3661
-4.55728
856.937
43.0288
-1.2249
848.521
29.6201
3.44748
832.895
25.2758
10.6468
21.0845
10.0463
1054.06
3456.28
-3923.94
2151.28
1325.76
-1321.57
1869.39
1021.89
144.136
1337.61
560.021
378.293
873.771
510.343
401.901
778.103
248.2
95.7432
739.328
162.214
58.3712
727.245
53.5792
1.49658
734.804
12.6176
-4.32698
747.912
-23.7434
-16.8327
774.794
-25.8259
-7.55519
803.011
-18.6263
-4.04439
831.069
0.393171
2.81179
852.961
19.4627
3.32773
868.266
32.6546
6.18431
877.049
34.1118
6.47179
880.003
34.0957
5.97864
876.916
29.0972
3.61048
869.18
25.9869
7.02417
18.7712
7.8151
-1440.47
590.813
667.773
-192.287
646.458
-568.885
412.354
523.97
-106.718
479.788
439.506
53.0806
672.588
279.087
38.4555
746.203
155.302
19.2828
828.451
51.5193
28.4472
857.697
13.4043
10.9284
871.081
-24.4979
23.7311
870.542
-33.3066
10.1027
873.233
-39.4826
10.9655
881.29
-31.7297
5.04616
892.005
-20.4299
10.1081
905.3
-5.7576
11.9251
916.772
11.3761
9.8068
924.787
19.7588
6.3378
929.72
25.8468
3.31617
932.412
25.1902
1.21517
933.48
22.762
2.15695
13.9866
4.7674
1538.26
1485.37
1142.8
1041.92
684.593
982.176
993.906
130.194
1161.78
111.218
1315.33
1.75284
1320.73
46.1121
1316.73
17.4032
1262.95
29.2896
1227.76
1.87946
1195.76
-7.48478
1184.14
-20.1123
1176.04
-12.3257
1169.02
1.26577
1151.53
28.8621
1139.12
32.1736
1138.05
26.9144
1145.1
18.1396
1162.97
4.8928
0.804149
2680.25
2779.99
-3418.83
3183.61
911.009
-974.81
2147.88
737.643
358.268
1607.01
144.489
216.199
1293.94
3.76234
308.212
1251.48
-102.704
220.734
1194.01
-68.5267
276.946
1204.9
-98.0261
240.475
1211.35
-78.8762
229.231
1244.62
-83.764
189.424
1275
-69.6997
162.682
1321.2
-63.1168
117.296
1369.99
-47.8662
82.1154
1418.29
-35.3476
33.4154
1453.6
-17.1789
0.803301
1471.85
-2.41218
-9.13389
1478.84
6.19913
-8.91951
1479.99
9.62068
-5.3636
1477.3
9.73946
-3.26456
9.51343
7.9242
647.079
760.702
-1980.45
1137.42
381.7
85.7318
966.924
316.614
-93.9019
862.829
44.9611
96.6547
747.391
8.33508
166.108
756.92
-118.688
39.0542
786.158
-106.648
88.2045
826.263
-124.676
18.6017
858.437
-91.5704
9.71106
884.315
-75.8943
-37.1913
905.231
-49.5682
-63.3724
923.468
-35.0021
-87.8163
940.142
-17.6544
-100.153
954.869
-6.53418
-108.356
968.237
4.70473
-99.67
980.681
14.2366
-89.1174
987.084
18.8156
-70.875
987.217
20.8989
-53.5407
984.685
19.8675
-41.1461
18.243
-27.7415
-226.163
149.784
-1392.56
-58.6471
137.421
643.126
207.168
-30.2728
-73.7677
321.013
-101.57
81.3171
491.224
-176.634
18.5742
565.191
-201.922
-57.8425
650.2
-202.046
16.8086
695.433
-161.37
-42.5426
739.171
-127.863
-23.5613
764.129
-86.569
-49.3327
785.201
-57.9929
-45.5658
798.235
-33.1063
-56.9089
808.83
-16.1145
-51.9265
814.561
-2.66342
-52.0384
817.244
8.80998
-43.9248
817.334
19.0835
-38.0004
815.278
23.1634
-30.5683
810.987
25.7767
-22.7986
805.651
25.596
-16.9147
22.6799
-12.6444
381.312
2279.79
203.141
365.109
115.937
-570.436
381.69
-111.993
-316.01
463.548
-185.379
-124.178
518.352
-246.37
8.48847
552.174
-241.092
-9.24735
609.974
-271.559
102.983
623.71
-171.612
21.1565
650.165
-154.254
26.8088
653.637
-84.674
-8.36802
667.237
-68.8031
-8.06295
672.639
-33.5037
-16.3845
682.113
-21.6877
-15.2175
687.759
-2.94535
-16.6165
694.499
5.16746
-13.0502
698.332
17.5488
-12.7477
701.515
21.4316
-9.0654
702.924
24.7946
-4.78365
706.334
23.2061
-4.42955
20.2082
1.44654
83.4432
1172.39
1368.8
157.633
-44.4234
386.212
375.804
-246.687
5.97257
433.573
-261.091
28.2991
535.289
-409.301
258.217
574.951
-297.194
94.4519
647.101
-365.686
142.085
656.032
-187.007
46.3007
666.708
-172.781
35.288
659.746
-78.2235
2.00826
661.259
-72.4623
3.54594
662.89
-34.2291
-4.94154
669.627
-28.7426
1.31718
674.706
-7.0824
-4.06456
680.064
-0.457239
0.103955
682.816
16.0539
-2.64414
684.716
20.0522
-2.04447
685.204
24.5224
-0.646995
687.902
20.5053
-0.491412
17.915
3.49861
-71.9224
-1047.05
-4878.02
345.965
-343.907
187.071
659.037
-303.427
-603.902
678.811
-287.454
-54.8167
671.703
-456.536
151.253
638.025
-296.541
50.8767
682.016
-429.089
166.055
625.754
-135.147
72.1831
615.766
-166.728
47.1295
586.178
-48.3244
-0.186327
587.684
-76.2182
0.5385
590.385
-36.6362
-5.79585
605.925
-45.1257
-2.2342
618.689
-19.3822
-6.45651
634.524
-17.4361
-5.8978
651.306
-2.63768
-6.87844
665.08
5.01281
-4.01028
673.521
14.6912
-0.614712
680.336
13.3665
1.29984
14.083
5.45845
1368.18
-709.335
861.041
1553.26
-261.026
-43.7151
1105.05
-155.704
170.474
1058.18
-208.291
-255.228
1005.68
-554.244
277.68
940.21
-272.38
146.663
794.05
-74.9738
280.943
-94.8154
-74.7276
-92.5741
667.363
-26.6751
155.366
10.1913
-23.1
11.1994
584.696
-12.9996
75.1716
-33.0802
-15.3766
-34.0663
554.265
-14.2076
30.9201
0.786738
-13.4586
1.17457
554.429
-14.6496
-10.6277
-24.6284
-15.1232
-24.3233
566.173
-17.3968
1.32851
-10.6007
-15.9848
-8.78091
588.792
-16.7792
-3.34518
-19.5322
-15.1626
-17.8175
609.547
-14.2748
5.59885
-10.3242
-12.1708
-7.78695
627.555
-37.6364
2.70853
643.01
-19.2664
-0.586233
655.862
-9.70434
-1.49641
662.293
6.55908
1.13964
666.262
9.05353
2.05405
12.8046
5.36498
2045.68
-605.172
-729.062
2078.4
-337.02
-293.866
2066.25
-281.187
789.551
1945.68
-146.643
649.56
1477.72
-252.658
993.099
282.041
-15.2005
527.619
275.317
265.861
259.55
40.5004
0.487229
49.9577
-76.4331
229.546
-29.7838
83.7374
-32.1526
-172.01
157.974
-18.4894
38.0029
-6.71353
-152.885
140.766
-1.89427
7.72755
2.71177
-129.657
133.069
-17.6408
-2.69026
6.63103
-140.483
141.54
-15.5318
-6.80509
4.69315
-141.791
146.471
-22.4011
-4.36813
1.8951
-152.002
153.806
-19.2854
-1.19224
0.100236
-154.987
157.698
-18.002
0.915761
655.024
-16.8495
10.9867
-159.659
-165.249
-153.677
-158.951
-16.5092
-14.4169
-13.6305
668.902
-37.0385
10.8348
671.679
-15.3934
5.13831
670.102
5.87773
5.20901
665.577
12.9266
4.46812
16.084
4.98162
1396.08
-796.821
-843.357
1305.37
-595.026
-628
1142.74
-458.328
-549.617
1085.74
-231.064
-22.4757
257.36
-39.4754
735.205
224.41
210.301
172.691
-161.774
271.619
-11.516
143.83
-14.9804
-5.12634
-67.4769
62.376
9.38775
15.8199
-4.72322
-48.6697
1.2743
45.8472
0.51262
5.75873
-4.15429
-44.6848
1.10213
44.7499
-1.40203
4.38918
-0.278338
-44.8299
3.79361
44.793
-3.72376
0.245343
0.20537
-45.2806
4.54566
45.1544
-4.30711
-0.31774
1.06844
-44.6615
5.44074
44.4822
-5.12751
-1.2024
0.812388
-44.375
5.12551
44.1626
-4.82109
-0.904374
0.81225
-43.7461
4.73102
43.6984
-4.71104
-0.784497
-44.1669
0.0896555
178.115
-19.5681
1.739
-45.3156
-43.3349
-44.4079
719.687
-49.5433
19.0211
-178.661
-187.848
-171.295
-178.758
713.795
-13.4819
11.3412
703.436
13.4982
9.42458
690.483
23.8686
8.17506
24.7326
5.07753
1448.25
-536.725
-125.193
1452.55
-552.429
-595.232
1007.49
-79.7646
-243.54
816.086
-33.7724
-273.538
184.651
85.3495
-110.245
177.686
177.183
170.199
16.5948
1.70932
171.83
19.242
-24.7257
-1.62189
-9.2972
-47.354
49.6954
7.28276
1.29491
-1.98195
-3.89164
-54.7212
55.6552
2.44135
2.49829
-1.82608
2.07373
-56.795
56.8081
-2.51443
2.25371
-1.54304
2.96383
-56.2356
55.8808
-2.9033
1.83729
-1.20524
3.11421
-54.6083
54.1445
-2.71322
1.26804
-0.184661
3.44494
-52.9446
52.6294
-3.0133
0.0681814
1.3203
3.50381
-51.9939
51.8761
-3.05816
-1.64811
2.59842
4.06398
-51.9373
52.0203
-3.79537
-2.95005
-51.912
6.2297
21.5752
206.892
-21.7887
-4.35771
-53.6821
-50.6433
-52.3132
784.929
-39.6766
20.1631
-203.294
-209.738
-192.071
-197.118
766.896
1.34149
9.62502
749.269
27.5931
4.69212
728.329
41.683
7.69655
38.7565
3.98481
1241.77
1449.78
-753.084
723.909
182.559
164.27
634.584
211.438
-348.325
549.76
114.182
16.3414
141.747
105.803
51.9578
153.143
129.594
140.543
3.10767
-28.956
167.588
8.87045
-8.86261
2.53589
-1.44791
-49.6396
51.9523
-0.564572
-2.83618
1.33713
3.14255
-57.6583
58.4937
-4.24046
-1.07465
-0.739112
4.2836
-59.9769
60.3809
-4.92902
0.980472
-2.07831
3.87725
-61.7359
62.1119
-4.79511
2.62012
-4.44937
3.08889
-63.5782
64.0839
-3.90913
4.76392
-5.97272
2.282
-64.6648
64.4604
-2.05157
5.94662
-1.37718
1.42764
-62.7084
62.0587
-0.477798
1.07705
2.23825
2.04546
-60.0558
59.3698
-1.23102
-2.36659
-56.7157
-1.14675
19.6332
217.591
-15.669
3.19224
-56.7651
-55.0469
-55.0734
769.765
-11.9994
12.439
-208.803
-202.68
-195.69
-190.779
754.426
20.4822
-3.60566
745.387
33.4963
-2.274
732.207
52.8908
1.91096
48.9003
0.116933
787.508
669.047
-1208.23
1211.95
208.156
-1155.28
1406.15
274.719
-673.671
1393.24
168.705
-266.085
323.854
305.752
148.757
334.83
285.621
296.558
-72.8221
4.68355
316.531
22.119
53.3434
-11.7973
9.03519
-76.4721
73.7725
-6.59513
12.0569
-2.28376
7.08594
-64.4897
62.6787
-6.15063
3.15945
-0.613534
6.1672
-60.3036
59.9387
-6.00149
0.812747
0.430759
6.03233
-59.1326
58.8426
-5.66614
-0.506959
1.08856
5.00688
-58.4941
58.4739
-4.74712
-1.32813
1.62407
1.44555
-58.572
58.6114
-1.4717
-1.63728
0.281752
-1.74397
-58.9862
58.9799
1.86919
-0.400648
-0.455074
-0.840365
-58.2478
57.6995
1.31372
0.530029
-54.0356
-13.24
9.3186
199.479
-1.2215
15.3881
-52.8171
-52.0118
-50.8597
694.53
14.9663
10.6964
-188.428
-179.16
-178.065
-170.503
694.692
22.9692
-7.40624
704.657
22.0815
-8.11933
713.134
43.2073
-4.04902
44.8983
-0.970583
851.644
1402.46
-707.603
785.813
410.443
-1042.08
796.705
290.199
-420.153
783.3
190.124
-65.8767
828.388
237.71
303.062
211.799
-52.2973
195.665
-21.6395
26.4182
-12.8575
37.162
208.457
199.08
195.798
-3.43413
-29.5654
206.545
14.8619
33.963
-4.20971
-2.72991
-3.63135
-1.3021
-15.9835
-188.583
182.575
4.92494
16.7051
1.40564
-1.1402
1.39805
4.53101
-2.74439
-192.274
192.682
-19.6005
3.74601
4.96291
4.1464
4.5502
3.68887
2.01176
-183.205
178.435
-9.3245
-2.71659
4.21403
3.17463
3.72254
3.65366
7.09705
-182.735
184.122
-12.6619
-9.24403
3.61302
3.08031
3.0751
0.67011
10.2013
-180.854
179.277
2.35829
-12.3199
0.700294
-0.0620089
0.0288959
-1.39793
8.9756
-183.092
184.096
4.58664
-8.46882
-1.46868
-1.6008
-1.62964
-2.12579
-1.76426
-179.072
175.352
11.0149
2.27801
-1.8449
-2.07617
-1.76232
636.579
35.7161
12.4915
-5.96452
-6.98934
-5.90754
-6.66918
-170.501
-161.17
-161.286
-154.448
635.412
18.5278
-7.66006
640.492
18.1375
-9.96941
657.635
3.55247
-4.24869
685.027
15.8754
-4.44819
24.5998
3.39747
753.563
1096.46
2368.46
680.536
514.512
-551.91
595.417
298.102
-134.133
584.828
225.887
-18.3078
770.377
76.4123
102.767
723.558
-25.3069
103.262
740.831
111
76.5905
-24.1368
-45.3257
-25.0377
-46.0054
705.619
-52.2013
64.9477
1.14328
35.1379
5.43054
34.7414
678.188
31.0939
18.4989
10.7517
-6.42824
7.01514
-9.76204
650.914
-34.1248
24.5779
8.7574
21.9884
6.85411
20.1832
628.952
24.8825
6.15965
6.92005
-3.27359
3.9448
-6.605
615.769
12.7959
13.3639
-2.68726
4.78594
-4.21077
3.6008
613.657
46.3575
1.62248
-6.48623
-14.2225
-7.51384
-14.4551
618.482
29.7371
5.7777
-11.3136
-7.62588
-10.4785
-5.8268
620.755
35.4686
-9.50865
620.405
19.1864
-16.0308
626.348
11.6277
-15.2103
634.396
-5.43246
-6.29667
655.11
-5.67444
-3.18891
5.05269
9.29521
1382.3
940.626
-3517.25
1200.04
915.85
-724.066
770.639
727.145
-255.423
644.847
349.377
-75.0232
587.505
103.502
36.1956
576.58
-32.7189
-54.2769
686.122
-19.105
24.5384
683.267
-58.93
13.4949
693.911
12.1024
18.9808
670.683
-16.5021
17.2646
659.331
33.3866
20.533
645.987
23.6061
13.4714
644.181
48.8544
9.10422
643.137
33.3321
-3.54958
646.803
33.1371
-12.0621
652.695
13.6167
-21.1425
655.655
5.88452
-16.3571
653.327
-5.53175
-5.25814
652.031
-4.07844
4.1707
2.65977
5.71007
1405.34
3120.7
295.78
1451.4
1037.85
38.6914
1298.47
916.897
-131.965
1324.68
320.007
-86.4888
1084.22
247.071
32.3969
926.129
97.9299
-1.26963
804.864
79.421
49.9441
746.806
-4.57603
1.78494
716.432
37.6083
-1.57356
699.648
1.16442
-15.9176
693.851
34.5292
-5.56579
690.7
24.2289
-4.60875
694.373
44.4969
5.09547
697.447
31.3884
-2.00888
700.765
30.508
-3.63232
701.276
15.0371
-11.179
698.783
8.75091
-9.8176
692.668
0.52883
-6.81435
684.369
3.94769
7.72317
7.19126
9.65303
719.864
3950.66
-3947.83
778.118
938.218
-242.22
1046.27
861.086
-467.811
1062.83
272.09
-59.9364
893.288
349.256
53.0262
806.962
163.793
24.7377
714.34
152.95
51.7415
664.118
48.5767
-6.29952
654.913
38.8199
-8.60333
652.736
5.08601
-19.5281
669.726
16.7132
-11.6779
682.613
10.6093
-10.2988
700.596
24.1515
-3.40398
710.902
20.2887
-4.58671
718.254
22.4687
-3.37266
720.415
13.362
-5.04349
719.449
10.0223
-1.53026
716.384
4.14863
2.89212
713.294
7.52579
10.1587
8.03443
10.9833
287.272
2402.01
-5922.97
189.45
559.108
-844.641
716.36
675.809
-197.498
665.398
356.796
344.55
681.858
428.727
305.97
657.505
210.247
73.642
649.377
161.243
58.2059
637.121
65.6776
-3.34813
645.103
30.8318
-4.32048
654.965
-5.41557
-16.1938
678.058
-10.792
-3.14241
699.622
-12.6556
-2.3438
723.108
-3.07315
6.55078
739.694
3.50831
3.52179
751.48
9.7983
7.0688
757.493
8.4013
5.41934
758.862
9.38084
5.25123
756.699
7.23214
2.68995
755.078
9.40097
6.77002
8.11938
8.43622
-1456.45
490.41
834.823
-806.723
434.457
-1093.96
194.797
327.515
-759.944
304.651
308.48
-8.45774
586.592
223.226
-37.9844
640.955
155.998
19.1687
718.457
89.1525
23.0356
744.057
61.1448
-10.1391
767.901
26.9559
3.76288
775.983
11.7925
-15.1872
786.578
-13.2382
2.81654
795.751
-19.8936
3.1112
806.287
-18.2288
14.7282
815.79
-9.02345
14.9534
823.009
-0.479827
12.8656
827.623
2.98255
7.14264
830.065
6.15435
4.10086
830.779
6.41261
1.32085
831.202
9.17424
1.96103
8.57675
4.28418
-586.681
-697.315
-421.758
1311.45
402.642
485.291
639.63
201.687
859.384
114.689
1007.34
9.79277
1097.33
45.2737
1175.59
0.290411
1208.39
23.4505
1221.59
0.462893
1193.98
6.88876
1160.51
-6.53537
1118.63
11.3297
1092.59
18.2767
1083.46
37.5182
1080.91
37.6998
1081.84
32.14
1084.69
21.7012
1088.15
10.6071
7.08189
2377.8
1096.26
-6701.46
2003.28
925.52
-1525.81
1387.1
670.479
303.969
1230.93
56.4006
315.977
1132.92
15.6347
390.583
1170.17
-61.2243
244.706
1169.44
-18.5834
296.267
1221.64
-42.1384
230.413
1260.33
-24.8971
215.432
1319.09
-32.344
163.011
1362.55
-16.07
135.287
1406.2
-11.69
85.3391
1436.18
11.2753
40.8615
1441.58
23.5981
4.42127
1425.48
35.5534
-18.655
1400.83
39.7236
-24.2056
1368.71
38.558
-15.3587
1337.63
34.5314
-8.81127
1304.95
29.9916
-0.583513
24.943
6.49349
479.521
477.077
-1309.77
851.973
439.303
199.496
683.482
333.163
411.905
648.651
15.9775
171.908
624.275
38.6249
167.494
658.072
-77.9409
21.9732
719.169
-47.2474
55.7718
770.151
-59.4181
-15.1004
814.687
-35.7283
-23.9947
845.965
-28.8738
-71.9386
868.903
-11.4513
-90.9292
885.401
-2.75096
-113.254
899.029
13.9466
-116.452
905.585
20.2683
-111.583
906.231
25.5596
-90.3221
902.921
28.4941
-74.5771
894.29
28.8313
-52.5171
883.25
27.3212
-35.2905
872.789
25.4557
-26.1493
22.4072
-17.8852
-103.896
189.054
2538.11
-90.1707
227.332
841.372
94.67
-39.1859
113.741
168.846
-125.549
148.669
373.999
-159.216
11.2619
433.237
-166.344
-28.6779
549.941
-156.535
9.39222
599.329
-117.394
-33.9549
652.392
-90.9984
-21.354
676.204
-56.7861
-45.2328
697.033
-34.9387
-42.9068
705.927
-16.7976
-51.7568
713.266
-3.08525
-42.2333
713.29
9.29552
-41.0894
711.442
16.0824
-32.5996
707.996
21.6605
-27.7204
703.737
23.1317
-20.6097
698.921
23.6343
-14.2958
695.799
22.6005
-10.938
19.5537
-6.90606
230.141
-613.548
-1888.84
162.38
-111.155
-164.189
258.587
-174.184
-277.218
292.209
-218.549
-64.8002
369.935
-232.215
3.7606
397.303
-204.882
1.92317
502.131
-229.548
71.1672
526.985
-133.497
12.405
569.545
-126.441
19.6915
575.52
-61.4949
-9.63406
590.485
-51.9954
-5.97167
592.666
-20.6372
-14.7249
599.726
-13.3948
-11.9683
601.703
3.68596
-12.9836
605.776
8.24057
-9.28178
607.075
16.6351
-9.02169
609.324
17.8437
-6.02556
610.926
19.5938
-2.34568
614.969
17.4954
-3.36718
15.6917
3.08861
-30.6369
-1176.99
-2758.71
-273.629
-314.307
832.356
117.651
-321.185
-238.307
176.104
-316.554
67.8522
391.135
-380.965
191.937
431.975
-233.043
81.7729
548.104
-311.364
107.772
564.464
-139.952
36.3956
585.769
-143.336
30.8785
579.852
-54.8445
1.27475
582.232
-56.2607
5.43143
580.61
-20.1307
-3.82662
584.856
-18.4552
2.13157
586.236
1.12789
-2.88676
589.513
3.76907
1.29917
590.105
15.5437
-2.14483
591.53
15.6038
-1.22977
592.145
18.1359
0.196498
595.317
14.031
-0.199537
13.4038
4.23299
-237.217
-1825.56
-5627.88
314.838
-548.023
-131.269
361.386
-338.147
-633.487
402.671
-368.757
-43.8994
480.01
-430.609
123.557
452.134
-218.298
64.0071
570.891
-377.001
112.935
535.382
-82.0944
49.8353
542.949
-141.229
37.4544
519.43
-30.6951
-0.816871
524.081
-64.2737
3.90094
524.695
-22.6472
-3.8938
536.571
-32.3459
-0.218938
543.572
-8.84621
-3.48382
553.485
-9.29313
-2.7484
564.823
0.656571
-3.32898
574.047
3.90712
-1.53774
579.933
10.4452
1.18996
585.603
8.67275
0.987995
10.7371
5.39006
486.819
-2436.57
1813.69
706.83
-566.517
-245.232
535.938
-361.643
364.861
511.663
-433.302
-166.407
591.268
-523.542
291.007
562.652
-148.737
105.718
566.049
-64.8952
205.37
-87.0259
-65.998
-86.906
524.661
-14.4984
107.397
17.0643
-11.5877
16.2849
506.397
-16.3495
54.5425
-33.4129
-18.4729
-34.1002
494.524
-11.6849
27.5295
3.05121
-10.7208
3.92276
500.09
-14.4518
-5.90746
-23.0227
-14.4825
-22.603
508.923
-13.3714
5.46673
-5.86337
-12.1005
-4.28364
527.414
-12.4702
-1.32852
-15.2005
-11.1758
-14.0068
542.18
-9.18727
7.15003
-5.04391
-7.75858
-3.17381
554.46
-21.9092
3.04504
563.172
-9.4197
0.777492
570.49
-4.67423
-0.233332
574.108
5.8551
2.11223
577.316
6.15581
1.36337
10.2881
4.95515
543.399
-2010.47
-2178.91
612.257
-486.955
-442.286
1060.06
-403.144
383.252
1004.01
-215.722
488.026
940.389
-213.719
746.899
197.067
30.1085
353.538
191.809
184.559
179.479
71.4505
35.9907
75.2711
-97.2441
168.462
-19.6975
80.6519
-35.1553
-129.052
129.705
-11.4199
31.4236
-6.37521
-132.546
125.757
-8.14288
4.95762
2.64923
-117.685
121.445
-16.6134
-1.47993
6.83706
-128.5
128.614
-15.2423
-6.15959
3.89408
-127.77
131.576
-18.7078
-2.36403
0.989774
-136.367
137.778
-14.5602
-0.311569
-1.52274
-138.462
140.67
-12.3446
2.47236
575.759
-10.3472
13.9156
-141.778
-146.739
-135.423
-139.752
-10.2225
-8.31
-8.02556
583.341
-16.6455
10.479
582.841
-4.78569
5.74968
580.247
8.92291
4.73498
577.201
10.5536
3.11617
12.7205
4.61571
602.246
-1604.13
-1305.53
698.204
-729.486
-481.426
496.325
-414.596
-336.286
404.04
-116.754
-29.159
132.739
-12.982
477.163
113.535
115.288
99.7819
-127.632
167.839
23.7621
98.8782
-16.9379
-8.1823
-47.5482
45.0678
12.4058
15.1948
-6.5875
-38.111
1.13338
37.1987
-0.000759505
6.36716
-4.08051
-39.4403
1.75352
39.7268
-1.66788
3.70838
-0.144381
-39.599
4.07078
39.4994
-3.94001
0.113184
0.598404
-39.969
4.38136
39.8092
-4.19631
-0.623675
1.47609
-39.2069
4.93129
39.0446
-4.8081
-1.43702
1.1183
-39.0821
4.27963
38.9807
-4.25527
-1.04123
0.687696
-38.7241
3.55508
38.7464
-3.74073
-0.524335
-39.1443
-2.74868
156.94
-12.2347
4.04283
-39.9669
-38.2387
-38.9966
621.135
-18.4241
20.3909
-156.537
-162.754
-148.428
-153.007
613.677
3.08331
10.9302
604.043
19.2556
8.72575
594.907
21.09
6.77407
19.3447
4.60193
1189.21
-1942.02
-52.8543
1275.48
-846.47
-564.526
900.429
-169.228
-113.855
706.506
-49.8126
-146.556
162.326
39.2153
-75.5205
155.179
154.784
147.295
18.1031
-12.523
152.311
18.5874
-14.1521
-2.08703
-11.4873
-42.7547
45.1521
9.09912
2.07785
-3.3124
-3.26235
-48.7681
49.1852
2.79744
3.36017
-2.8493
1.71785
-49.7099
49.7442
-1.73403