/*--------------------------------*- C++ -*----------------------------------*\
  =========                 |
  \\      /  F ield         | OpenFOAM: The Open Source CFD Toolbox
   \\    /   O peration     | Website:  https://openfoam.org
    \\  /    A nd           | Version:  10
     \\/     M anipulation  |
\*---------------------------------------------------------------------------*/
FoamFile
{
    format      ascii;
    class       volScalarField;
    location    "9.6";
    object      turbidity_0;
}
// * * * * * * * * * * * * * * * * * * * * * * * * * * * * * * * * * * * * * //

dimensions      [0 0 0 0 0 0 0];

internalField   nonuniform List<scalar> 
12920
(
-0.0198182
-0.0379943
-0.0536594
-0.0729574
-0.101205
-0.129236
-0.155271
-0.182102
-0.208779
-0.233963
-0.255139
-0.27224
-0.28628
-0.298713
-0.310545
-0.322293
-0.334228
-0.346523
-0.35914
-0.372049
-0.050791
-0.0466865
-0.0583786
-0.086839
-0.112444
-0.134577
-0.1603
-0.19054
-0.223054
-0.25016
-0.265972
-0.272971
-0.276873
-0.281735
-0.291366
-0.305272
-0.32275
-0.343435
-0.366419
-0.388811
-0.02935
-0.0600182
-0.073385
-0.0890999
-0.105885
-0.12559
-0.160817
-0.195131
-0.232712
-0.259603
-0.280719
-0.292545
-0.300756
-0.305988
-0.314154
-0.327071
-0.346771
-0.373221
-0.405911
-0.440369
-0.0231332
-0.0499721
-0.056763
-0.076099
-0.103933
-0.138926
-0.182987
-0.234538
-0.286804
-0.326782
-0.357853
-0.380359
-0.400469
-0.418096
-0.436441
-0.455451
-0.479575
-0.509652
-0.544737
-0.58285
-0.0116593
-0.050259
-0.0754708
-0.102871
-0.130507
-0.166766
-0.208125
-0.253501
-0.295396
-0.332195
-0.36432
-0.392795
-0.420058
-0.444748
-0.468918
-0.491296
-0.515665
-0.54318
-0.574064
-0.606075
-0.062106
-0.0598065
-0.0734877
-0.0911002
-0.109293
-0.146903
-0.189647
-0.247163
-0.289668
-0.322638
-0.344457
-0.367042
-0.388806
-0.412636
-0.437368
-0.464676
-0.493521
-0.524563
-0.556516
-0.587743
-0.0382531
-0.0493457
-0.0518225
-0.06076
-0.0772155
-0.102901
-0.142436
-0.207281
-0.256122
-0.291124
-0.283816
-0.293461
-0.299077
-0.322696
-0.357126
-0.4059
-0.45735
-0.508331
-0.55373
-0.59457
-0.0077311
-0.0175662
-0.028977
-0.0430556
-0.0658644
-0.111546
-0.133914
-0.168298
-0.207412
-0.185579
-0.175006
-0.151857
-0.141173
-0.135257
-0.154172
-0.206046
-0.265521
-0.329181
-0.388652
-0.441334
-0.0257653
-0.0209188
-0.0252241
-0.0362223
-0.0581441
-0.0793569
-0.116161
-0.140556
-0.145342
-0.138855
-0.12011
-0.10514
-0.0977979
-0.0947753
-0.095098
-0.134366
-0.183929
-0.234773
-0.286004
-0.335086
-0.0320053
-0.0333964
-0.0438903
-0.0668795
-0.107075
-0.110044
-0.116007
-0.117639
-0.114615
-0.109744
-0.102551
-0.0946811
-0.0900249
-0.0854582
-0.0750173
-0.11949
-0.168427
-0.213359
-0.255505
-0.296435
-0.0187193
-0.0474098
-0.060594
-0.0806811
-0.10587
-0.105027
-0.106136
-0.108636
-0.108102
-0.104029
-0.100824
-0.0986205
-0.095455
-0.0884898
-0.0855565
-0.137313
-0.183152
-0.223606
-0.259195
-0.291591
-0.016243
-0.028311
-0.0434495
-0.0595359
-0.0784426
-0.0858216
-0.103948
-0.114841
-0.116482
-0.116847
-0.120116
-0.120051
-0.109377
-0.0992736
-0.104776
-0.178907
-0.228556
-0.26353
-0.288521
-0.309375
-0.0185459
-0.0354407
-0.0586964
-0.0817897
-0.10513
-0.143387
-0.1493
-0.154091
-0.16501
-0.169988
-0.181992
-0.174724
-0.162936
-0.153809
-0.215678
-0.284455
-0.344666
-0.389673
-0.403642
-0.403657
-0.0220148
-0.0451143
-0.0798668
-0.122147
-0.153102
-0.179766
-0.202764
-0.227962
-0.255026
-0.285957
-0.315164
-0.341548
-0.353612
-0.370144
-0.394399
-0.431706
-0.477442
-0.52526
-0.554478
-0.558172
-0.037054
-0.0628127
-0.0777083
-0.102272
-0.129853
-0.15364
-0.190488
-0.219641
-0.250367
-0.280131
-0.314081
-0.346825
-0.373188
-0.388994
-0.398963
-0.411929
-0.438607
-0.480445
-0.529176
-0.572976
-0.0228703
-0.0525726
-0.0614837
-0.0705958
-0.0859998
-0.113041
-0.1509
-0.188358
-0.2196
-0.246782
-0.277289
-0.308505
-0.340537
-0.366244
-0.388257
-0.408769
-0.437684
-0.478235
-0.527666
-0.579645
-0.037256
-0.0381458
-0.0524085
-0.0708056
-0.0971214
-0.132922
-0.172175
-0.209341
-0.240482
-0.267671
-0.294778
-0.321099
-0.348338
-0.373912
-0.400532
-0.429969
-0.466288
-0.508471
-0.554765
-0.602431
-0.0355976
-0.0313355
-0.0376615
-0.0685375
-0.116077
-0.162717
-0.197983
-0.224997
-0.251088
-0.27797
-0.310486
-0.341768
-0.370358
-0.396503
-0.423177
-0.453042
-0.487369
-0.526278
-0.568533
-0.611902
-0.0346497
-0.0572242
-0.082324
-0.120448
-0.151183
-0.174579
-0.192358
-0.208635
-0.226874
-0.249859
-0.281082
-0.320197
-0.361355
-0.399372
-0.432628
-0.463604
-0.494439
-0.525779
-0.557115
-0.587033
-0.0100726
-0.0380236
-0.0771249
-0.109609
-0.125111
-0.136102
-0.146446
-0.159936
-0.174886
-0.188126
-0.20137
-0.221442
-0.254796
-0.296847
-0.341873
-0.385141
-0.423245
-0.454793
-0.480007
-0.500408
-0.0062701
-0.00999534
-0.00692054
-0.00775072
-0.0199316
-0.0409028
-0.0640424
-0.0824334
-0.0961596
-0.104029
-0.108799
-0.110268
-0.110151
-0.106353
-0.101581
-0.0981029
-0.0963227
-0.095905
-0.0968061
-0.100724
-0.00398005
-0.00528803
-0.00777211
-0.0168399
-0.0354075
-0.0450734
-0.0556464
-0.0544632
-0.0485521
-0.0365404
-0.0285451
-0.0245144
-0.0234233
-0.0241558
-0.0262138
-0.0293204
-0.0332939
-0.0376119
-0.0421562
-0.0465683
-0.00220328
-0.0136926
-0.0121754
-0.0176471
-0.0281937
-0.0342679
-0.0401347
-0.0368539
-0.031773
-0.0261024
-0.0220497
-0.0195111
-0.0186818
-0.0194433
-0.0217873
-0.0255587
-0.0307668
-0.0373542
-0.0451489
-0.0537178
-0.00223512
-0.0100988
-0.0137224
-0.0259856
-0.0489792
-0.0627429
-0.0796361
-0.0691961
-0.0556976
-0.0404556
-0.0330938
-0.0298754
-0.02926
-0.0300282
-0.0323352
-0.0359557
-0.0409094
-0.046938
-0.0540173
-0.063247
-0.0132551
-0.0227565
-0.0280011
-0.0494421
-0.0800243
-0.0879763
-0.0940615
-0.0764243
-0.0587964
-0.0432052
-0.0375798
-0.0377195
-0.0423694
-0.0467683
-0.0521681
-0.0560427
-0.060472
-0.0656795
-0.0725529
-0.0808512
-0.0143973
-0.0203694
-0.0332795
-0.0459116
-0.0693509
-0.0827207
-0.096268
-0.0785737
-0.0549866
-0.0361665
-0.0289079
-0.0287137
-0.0318386
-0.0366573
-0.0427368
-0.0499508
-0.0586822
-0.0696195
-0.0837951
-0.0961995
-0.00439879
-0.00569305
-0.0102237
-0.0231639
-0.0450235
-0.0684812
-0.090052
-0.0855452
-0.0525418
-0.0312253
-0.0239035
-0.0263148
-0.0308013
-0.0379627
-0.0452134
-0.0540144
-0.0644537
-0.0763866
-0.0897565
-0.0981882
-0.00149365
-0.0080997
-0.01984
-0.033331
-0.0521212
-0.0706583
-0.0848014
-0.0878636
-0.0499766
-0.0258803
-0.020943
-0.0227889
-0.0279948
-0.034007
-0.040278
-0.0490953
-0.0588722
-0.0693921
-0.0786463
-0.0814956
-0.00120046
-0.00457352
-0.0118679
-0.0236535
-0.0442998
-0.05647
-0.0669547
-0.0797546
-0.0833617
-0.0577453
-0.0327187
-0.0223965
-0.0237534
-0.0337983
-0.0426266
-0.0436554
-0.0488473
-0.0565236
-0.0646993
-0.0678506
-0.00636612
-0.00536868
-0.00447641
-0.00575336
-0.0148164
-0.0234642
-0.0393121
-0.0533267
-0.0626853
-0.0651539
-0.0580669
-0.037103
-0.0214004
-0.0189357
-0.0329861
-0.0476814
-0.0477389
-0.0475576
-0.0519644
-0.0558432
-0.02211
-0.0139629
-0.00769348
-0.0116762
-0.0173849
-0.0165064
-0.0215466
-0.0324543
-0.0492599
-0.0653498
-0.0837687
-0.0961553
-0.0819054
-0.0483364
-0.0523561
-0.0587983
-0.0518061
-0.0465717
-0.0456968
-0.0469115
-0.00870506
-0.0061619
-0.01364
-0.0245265
-0.0449508
-0.0577123
-0.0683628
-0.0588078
-0.0379019
-0.0298033
-0.0393216
-0.0663103
-0.090176
-0.0934494
-0.0946033
-0.0623154
-0.0524516
-0.0470221
-0.0448272
-0.0448739
-0.00310619
-0.00742155
-0.0188622
-0.0337298
-0.0587828
-0.0690177
-0.0732222
-0.0674258
-0.0484991
-0.0405465
-0.0468414
-0.0588511
-0.0719886
-0.0825548
-0.0616465
-0.0584878
-0.056804
-0.0552884
-0.0532085
-0.0527374
-0.0145862
-0.0105972
-0.0188083
-0.0466265
-0.0629324
-0.0614182
-0.0635961
-0.0602772
-0.053611
-0.0543344
-0.0541568
-0.0566492
-0.0544832
-0.0538685
-0.0551219
-0.0600502
-0.0666675
-0.0734134
-0.0758867
-0.0785915
-0.00949242
-0.0220276
-0.0256606
-0.0263962
-0.0272863
-0.0244524
-0.0313223
-0.0337869
-0.042557
-0.0485982
-0.0569221
-0.0553748
-0.0501594
-0.0467439
-0.0506534
-0.0609719
-0.0772178
-0.0961523
-0.109118
-0.108244
-0.0167774
-0.0189415
-0.0160004
-0.0139549
-0.0154031
-0.016715
-0.0182354
-0.0176713
-0.0213625
-0.0265285
-0.0338391
-0.0388098
-0.0433711
-0.0464938
-0.0538856
-0.0669339
-0.0865047
-0.111269
-0.139459
-0.149902
-0.0127581
-0.0105581
-0.00997877
-0.0115335
-0.0154247
-0.0183113
-0.0205331
-0.0204917
-0.0249894
-0.0311525
-0.0373863
-0.0437014
-0.0506747
-0.0606284
-0.0750968
-0.0949293
-0.119961
-0.146904
-0.171167
-0.18426
-0.0198724
-0.0258813
-0.0334326
-0.045504
-0.0433432
-0.0312362
-0.0254611
-0.0220011
-0.0267736
-0.0344541
-0.0447235
-0.0565586
-0.0721382
-0.0888492
-0.108156
-0.127258
-0.145596
-0.161396
-0.177149
-0.188712
-0.0716995
-0.0306439
-0.0334768
-0.0331789
-0.0310209
-0.0279988
-0.0301271
-0.0269006
-0.0283578
-0.0304604
-0.0398988
-0.0531185
-0.0716824
-0.0886212
-0.103212
-0.114836
-0.125159
-0.134043
-0.142139
-0.145389
-0.0200336
-0.0411113
-0.0540198
-0.0397839
-0.0378601
-0.0311805
-0.0293434
-0.0242575
-0.0213791
-0.0180845
-0.0200728
-0.02953
-0.0487151
-0.0755945
-0.103915
-0.12119
-0.125658
-0.118386
-0.10469
-0.0936769
-0.00247002
-0.0028643
-0.00410713
-0.00935412
-0.0175852
-0.0279055
-0.0393136
-0.0475513
-0.0532268
-0.055564
-0.0566274
-0.0558577
-0.0539496
-0.0505132
-0.0467185
-0.0437623
-0.0416627
-0.0405509
-0.0410069
-0.0431663
-0.000909726
-0.00320025
-0.00686778
-0.012228
-0.0213551
-0.0237171
-0.0250546
-0.0209825
-0.017593
-0.0159599
-0.0161128
-0.01708
-0.0188724
-0.0206054
-0.0222793
-0.0238813
-0.0256473
-0.027611
-0.0296621
-0.0314068
-0.00171489
-0.00915225
-0.0104259
-0.0141259
-0.0183374
-0.0174805
-0.0158385
-0.0131423
-0.0115126
-0.0108596
-0.0111316
-0.0120505
-0.0135626
-0.0154615
-0.0177626
-0.0203834
-0.0233299
-0.0264048
-0.029409
-0.0320527
-0.00506407
-0.00923996
-0.0127403
-0.0216453
-0.0355735
-0.033735
-0.0327324
-0.0223406
-0.0161471
-0.0130291
-0.0126145
-0.0132466
-0.0145767
-0.0161792
-0.0180225
-0.0198849
-0.021714
-0.0233588
-0.0248338
-0.0263344
-0.0128122
-0.0146986
-0.0211959
-0.0369723
-0.0575086
-0.0485642
-0.039633
-0.025822
-0.018318
-0.0150443
-0.0153926
-0.0167907
-0.0189563
-0.0208146
-0.0225933
-0.0238307
-0.0247641
-0.0252974
-0.0256486
-0.0258958
-0.00850428
-0.0175088
-0.0268632
-0.0371036
-0.0575887
-0.0496525
-0.042151
-0.0259752
-0.0175751
-0.0151943
-0.0167099
-0.0188991
-0.0216978
-0.0240513
-0.0264273
-0.0284076
-0.0301551
-0.0314184
-0.0321746
-0.0316067
-0.00644365
-0.00701058
-0.0128747
-0.0238965
-0.0412054
-0.0531527
-0.0498289
-0.0321288
-0.0182245
-0.0159534
-0.01776
-0.0212712
-0.0247177
-0.0279778
-0.0304594
-0.032161
-0.0329102
-0.0325837
-0.0313509
-0.0288709
-0.0122429
-0.0140344
-0.0222501
-0.0268516
-0.0385093
-0.0393743
-0.0412715
-0.0251101
-0.0142476
-0.0122688
-0.0146081
-0.0163648
-0.0202484
-0.0244038
-0.0280657
-0.0308449
-0.0318348
-0.0309195
-0.0286597
-0.025183
-0.00329289
-0.00482336
-0.00981119
-0.0136735
-0.0242546
-0.0280817
-0.0323496
-0.0261833
-0.0162223
-0.00987553
-0.00873014
-0.0101549
-0.0132876
-0.0170508
-0.0210642
-0.0243264
-0.0267192
-0.0274874
-0.0266171
-0.0239882
-0.00795278
-0.00580256
-0.00386789
-0.00458423
-0.00939906
-0.0126992
-0.0174294
-0.0199511
-0.0201851
-0.0190975
-0.0159324
-0.0122011
-0.0117085
-0.0148951
-0.0212668
-0.0213481
-0.0214451
-0.0222858
-0.0233809
-0.0232676
-0.0136744
-0.00978206
-0.00625305
-0.00611672
-0.0100691
-0.0116001
-0.0154902
-0.0225274
-0.0321926
-0.0438021
-0.0545843
-0.051883
-0.0309147
-0.0196064
-0.0266869
-0.0234459
-0.021763
-0.022209
-0.0240074
-0.0258584
-0.00256698
-0.00426386
-0.0103972
-0.0163648
-0.0277808
-0.0318728
-0.0326007
-0.0228701
-0.018427
-0.0251513
-0.0409425
-0.0541464
-0.0480532
-0.0389265
-0.0367852
-0.0290454
-0.0277212
-0.0279849
-0.0294586
-0.0317335
-0.00272818
-0.00486994
-0.0095247
-0.0169434
-0.0318236
-0.0312284
-0.0318587
-0.0244611
-0.0204553
-0.0233541
-0.0269652
-0.029595
-0.0311275
-0.033519
-0.0339965
-0.0353141
-0.036409
-0.0376169
-0.038861
-0.0407169
-0.00669348
-0.00540476
-0.010075
-0.0217262
-0.0258288
-0.024819
-0.0233686
-0.0218615
-0.0208151
-0.0221501
-0.0234733
-0.0258916
-0.0281666
-0.0309421
-0.0336482
-0.0363601
-0.0387757
-0.0408688
-0.0423922
-0.0440848
-0.00271632
-0.0120244
-0.014894
-0.0142102
-0.0130195
-0.0122836
-0.015281
-0.0163134
-0.018938
-0.0207534
-0.0232851
-0.0249984
-0.0273814
-0.0305954
-0.0345378
-0.038834
-0.0426965
-0.0447948
-0.0440171
-0.0414715
-0.00504785
-0.00940733
-0.0109399
-0.0111781
-0.0111095
-0.0102252
-0.01106
-0.0129536
-0.0153887
-0.0180892
-0.0211886
-0.0248402
-0.0291774
-0.0343049
-0.0398695
-0.0453207
-0.0503911
-0.0542076
-0.056391
-0.0532981
-0.00228748
-0.00688541
-0.00781841
-0.00873092
-0.00932774
-0.00978429
-0.0119658
-0.0154737
-0.0189421
-0.0226489
-0.0263291
-0.0310922
-0.0366465
-0.0431502
-0.0500975
-0.0567456
-0.0629576
-0.0676226
-0.0707352
-0.0703115
-0.00600457
-0.0167103
-0.0237744
-0.0207587
-0.0147832
-0.0116759
-0.0132658
-0.0162734
-0.0204253
-0.0250112
-0.0306804
-0.0369217
-0.0442542
-0.0513886
-0.0585223
-0.0640227
-0.0682449
-0.0704842
-0.0722625
-0.0728823
-0.0580248
-0.0204748
-0.0101605
-0.0104725
-0.0095618
-0.00921374
-0.0102477
-0.0116465
-0.0146093
-0.0189688
-0.0252516
-0.0325531
-0.0405712
-0.047027
-0.0519085
-0.0543898
-0.0550826
-0.0536357
-0.0508994
-0.0466801
-0.00981325
-0.0268456
-0.0199647
-0.0134328
-0.011715
-0.00923807
-0.0082522
-0.00712839
-0.00682693
-0.00715152
-0.00953294
-0.0153604
-0.025383
-0.0365609
-0.0455232
-0.0489235
-0.0476953
-0.0434738
-0.0388217
-0.0354011
-0.0014225
-0.00594482
-0.00833785
-0.0118969
-0.0159863
-0.0199854
-0.0241969
-0.02672
-0.0282779
-0.0286669
-0.0287544
-0.028279
-0.0270628
-0.0253147
-0.0238082
-0.0225811
-0.0221193
-0.0226863
-0.0240687
-0.0253629
-0.00131756
-0.00531937
-0.00828964
-0.0103592
-0.0139954
-0.0139333
-0.0144447
-0.0139371
-0.0144817
-0.0149617
-0.0156898
-0.0161172
-0.0165295
-0.0167079
-0.0169647
-0.0173282
-0.0178217
-0.0181922
-0.0183108
-0.0180234
-0.00656558
-0.00854572
-0.00919181
-0.0108763
-0.0115383
-0.0104737
-0.00979567
-0.00936131
-0.0095423
-0.00997908
-0.0107075
-0.0114705
-0.0123412
-0.0131704
-0.0139877
-0.0146687
-0.0151974
-0.0155198
-0.0157057
-0.0158987
-0.00283496
-0.00630123
-0.00945464
-0.0142367
-0.0187202
-0.0145447
-0.0123494
-0.00955716
-0.00893586
-0.00904631
-0.00965498
-0.0102798
-0.0109132
-0.0114208
-0.0117937
-0.012031
-0.0121884
-0.0123182
-0.0125555
-0.0130319
-0.00466232
-0.0114394
-0.0147967
-0.0227098
-0.0309448
-0.0207475
-0.0149197
-0.0110642
-0.0103886
-0.0104834
-0.011254
-0.0117423
-0.0121806
-0.012247
-0.012126
-0.0118082
-0.0114613
-0.011164
-0.01106
-0.0112149
-0.0137744
-0.0168841
-0.0174723
-0.0235654
-0.0353805
-0.0223489
-0.0157134
-0.0115145
-0.0113651
-0.0120035
-0.0131527
-0.0137019
-0.0140486
-0.0138973
-0.0135121
-0.0129091
-0.0122569
-0.0116216
-0.0111368
-0.0108057
-0.0246975
-0.0139281
-0.0166043
-0.0197889
-0.0325327
-0.0297944
-0.0203684
-0.0133833
-0.0116648
-0.0126839
-0.0134594
-0.0143589
-0.0143917
-0.0142758
-0.0134992
-0.0125879
-0.0116148
-0.0107258
-0.0100936
-0.00976688
-0.0124007
-0.0100334
-0.0155339
-0.0155534
-0.0217653
-0.0179117
-0.0155396
-0.0106839
-0.0106316
-0.0116186
-0.0129196
-0.0137226
-0.0148702
-0.0154953
-0.0124708
-0.0116558
-0.0107429
-0.00996028
-0.00952623
-0.00938716
-0.00152526
-0.00378134
-0.0052407
-0.00630965
-0.0104958
-0.0125964
-0.0133027
-0.00857199
-0.00840972
-0.00815523
-0.00918554
-0.0104933
-0.0119547
-0.0132865
-0.0134736
-0.0106522
-0.0103384
-0.0100858
-0.0100467
-0.0100715
-0.00291905
-0.00286111
-0.00269179
-0.0042444
-0.00703902
-0.00776245
-0.008687
-0.00844693
-0.00853032
-0.00844095
-0.00865453
-0.0101155
-0.0123349
-0.0134957
-0.0130176
-0.0107653
-0.0108477
-0.011412
-0.0122489
-0.0129084
-0.00595734
-0.00343729
-0.00354363
-0.00488548
-0.00797538
-0.00919307
-0.0120123
-0.0163024
-0.0202147
-0.0218741
-0.0198273
-0.0142857
-0.0134609
-0.0164393
-0.0170542
-0.0141913
-0.0146558
-0.0159671
-0.0173429
-0.018278
-0.00244044
-0.00354649
-0.00723565
-0.00879911
-0.013681
-0.0141987
-0.0138129
-0.0127442
-0.015777
-0.0221841
-0.0250966
-0.0199659
-0.0164331
-0.0195999
-0.0219089
-0.0219506
-0.023274
-0.0250086
-0.0261814
-0.0265209
-0.001851
-0.00347402
-0.0054994
-0.00872677
-0.0141498
-0.0132737
-0.0129912
-0.0124323
-0.0133528
-0.0147911
-0.0157822
-0.0173018
-0.0201191
-0.0231799
-0.0254338
-0.0279012
-0.0303394
-0.0323469
-0.0332608
-0.0332352
-0.00517007
-0.00516701
-0.00751852
-0.0111748
-0.0115323
-0.0121959
-0.0118765
-0.0127331
-0.0136288
-0.0153261
-0.0167393
-0.0182861
-0.0195005
-0.0205108
-0.0216231
-0.0224602
-0.0234069
-0.0241056
-0.0248144
-0.025056
-0.0071839
-0.008806
-0.00986388
-0.00922997
-0.00902581
-0.00989181
-0.0112296
-0.0123637
-0.0139092
-0.0155258
-0.0171502
-0.0185124
-0.0195439
-0.0202895
-0.0207722
-0.0209805
-0.0208829
-0.0203539
-0.0195771
-0.0189277
-0.00651446
-0.00610843
-0.00798332
-0.0084128
-0.00830758
-0.00890274
-0.0103702
-0.012176
-0.0139056
-0.0160353
-0.0180456
-0.0200594
-0.021579
-0.0227728
-0.0234854
-0.0238783
-0.024096
-0.0240226
-0.0237258
-0.0227075
-0.00277337
-0.00499091
-0.00682187
-0.00746118
-0.0076196
-0.00910785
-0.0114756
-0.0140163
-0.0160341
-0.0182734
-0.020345
-0.0224871
-0.0242893
-0.0257858
-0.0269678
-0.0278172
-0.0286887
-0.0292787
-0.0297748
-0.029747
-0.0101623
-0.00901174
-0.0110503
-0.00992279
-0.00906011
-0.0102784
-0.012569
-0.0148958
-0.0173258
-0.0196689
-0.022174
-0.0242851
-0.0263981
-0.0275437
-0.0285525
-0.0287893
-0.0293137
-0.0298361
-0.0309911
-0.0323394
-0.0131954
-0.00866381
-0.00611737
-0.00707306
-0.00769774
-0.00862245
-0.0103966
-0.0124973
-0.0152144
-0.0180565
-0.0212474
-0.0234528
-0.0248715
-0.0245685
-0.0234869
-0.0215887
-0.0198522
-0.0184492
-0.0178065
-0.0180125
-0.0209848
-0.0272063
-0.0178051
-0.0107407
-0.00726427
-0.00591497
-0.00559345
-0.00603619
-0.00709769
-0.00938328
-0.0127971
-0.0167494
-0.0204797
-0.0227057
-0.0234977
-0.0228027
-0.021457
-0.0198294
-0.0184512
-0.0174741
-0.00299403
-0.00685123
-0.00950609
-0.01097
-0.0124551
-0.0132542
-0.0143845
-0.0150601
-0.0157929
-0.0161134
-0.0159228
-0.0149829
-0.0138626
-0.0132552
-0.0131328
-0.0130417
-0.0126881
-0.0120774
-0.0114173
-0.0108521
-0.00568303
-0.00664903
-0.00839191
-0.00927223
-0.0104623
-0.0107904
-0.0116341
-0.0120336
-0.0124661
-0.0124204
-0.0121372
-0.0116013
-0.0110931
-0.0106089
-0.0102196
-0.00994497
-0.00985369
-0.00998252
-0.0103236
-0.0108792
-0.00806289
-0.00675181
-0.00771633
-0.00813521
-0.00823739
-0.00796248
-0.00829351
-0.0084254
-0.00872401
-0.00884914
-0.00893555
-0.00893327
-0.0089857
-0.0091258
-0.00941036
-0.00981262
-0.0102909
-0.0108034
-0.0113082
-0.0118197
-0.00314996
-0.00675148
-0.00774098
-0.00825164
-0.00826442
-0.00752325
-0.0073636
-0.00734399
-0.00749993
-0.0076559
-0.00779435
-0.0079896
-0.00825705
-0.00862739
-0.00907163
-0.00955548
-0.0100392
-0.0104918
-0.0109065
-0.0112615
-0.00991081
-0.0124496
-0.0100341
-0.0101679
-0.0103941
-0.00835688
-0.00768396
-0.00751423
-0.00757514
-0.00757934
-0.00760067
-0.00766009
-0.00782216
-0.00808855
-0.00845667
-0.0088941
-0.00936451
-0.00983181
-0.0102686
-0.0106292
-0.00843431
-0.0148317
-0.0102791
-0.00985656
-0.0114921
-0.00879646
-0.0076613
-0.00752072
-0.00751355
-0.00745769
-0.007394
-0.00739013
-0.00749548
-0.00772751
-0.00807947
-0.00853412
-0.00905135
-0.00959918
-0.0101364
-0.0105858
-0.0220628
-0.0103077
-0.00867708
-0.00988787
-0.0134914
-0.0104942
-0.00811591
-0.00739022
-0.00706266
-0.007158
-0.00702492
-0.00724211
-0.00731474
-0.00762324
-0.00796639
-0.00844548
-0.00901954
-0.0096574
-0.0103049
-0.0108548
-0.00549496
-0.00815123
-0.00634152
-0.0070571
-0.00847227
-0.00744827
-0.00696057
-0.00729557
-0.00704166
-0.00708404
-0.0069117
-0.00691719
-0.00694109
-0.00709059
-0.00795239
-0.00844031
-0.00898799
-0.0095835
-0.0101699
-0.0106643
-0.00204482
-0.00264033
-0.00293359
-0.004313
-0.00555651
-0.0065669
-0.00641087
-0.00664909
-0.00710182
-0.00716373
-0.00716433
-0.00680005
-0.00634123
-0.00627736
-0.00696048
-0.00862885
-0.00912851
-0.00960891
-0.0100516
-0.0104138
-0.000583393
-0.00172259
-0.0026592
-0.00457268
-0.00589671
-0.00610159
-0.00619146
-0.00641214
-0.00693584
-0.00794702
-0.00929353
-0.009699
-0.00837548
-0.00724016
-0.00790656
-0.00993569
-0.010514
-0.0109735
-0.0113164
-0.0115381
-0.0014486
-0.00219305
-0.00298106
-0.00518199
-0.00696005
-0.0078346
-0.0088125
-0.00944544
-0.0093126
-0.00944836
-0.0105024
-0.0123414
-0.0126166
-0.0112577
-0.0105994
-0.0118877
-0.0123398
-0.0126452
-0.0128265
-0.0129516
-0.000568286
-0.00153951
-0.00360344
-0.00581384
-0.0078972
-0.00885336
-0.0092812
-0.0102761
-0.0107684
-0.01085
-0.0115651
-0.0133466
-0.0148823
-0.0150663
-0.0149605
-0.0147412
-0.0143123
-0.0136917
-0.0130724
-0.0127209
-0.0036945
-0.00375347
-0.00451915
-0.00603152
-0.00759464
-0.00859676
-0.00887863
-0.0101055
-0.0106552
-0.0114484
-0.0123598
-0.013633
-0.0149902
-0.0168152
-0.0151071
-0.0150627
-0.0146862
-0.0140559
-0.0133661
-0.0129878
-0.00396227
-0.00512319
-0.00639919
-0.00765659
-0.00813474
-0.00917497
-0.00962446
-0.0103916
-0.0107772
-0.0111807
-0.0113434
-0.011438
-0.0115321
-0.0115096
-0.0116106
-0.0114151
-0.0112651
-0.0110733
-0.0110018
-0.0110776
-0.00325529
-0.00667513
-0.00726525
-0.00787717
-0.00856911
-0.00949133
-0.0100281
-0.0106799
-0.0111001
-0.0114298
-0.0115103
-0.0114855
-0.0113433
-0.0111592
-0.0109191
-0.0106602
-0.0103854
-0.0101582
-0.0100568
-0.010132
-0.00580924
-0.00596114
-0.00652746
-0.00679567
-0.00794434
-0.00929355
-0.0102708
-0.0111003
-0.0116435
-0.0121332
-0.0123115
-0.0124633
-0.0123863
-0.0123245
-0.012114
-0.0119212
-0.011658
-0.0113949
-0.011225
-0.0111639
-0.00141033
-0.00529604
-0.00561179
-0.0061825
-0.00773844
-0.00956443
-0.010774
-0.0115879
-0.0122433
-0.012821
-0.0132712
-0.0136768
-0.0139342
-0.0141424
-0.0141822
-0.0141289
-0.0139336
-0.0136429
-0.013395
-0.0132962
-0.0123639
-0.00839172
-0.00603634
-0.00701743
-0.0084155
-0.00983616
-0.0108539
-0.0115288
-0.0122094
-0.0127479
-0.0134722
-0.0140179
-0.0147964
-0.0154
-0.0161084
-0.0166075
-0.0170036
-0.0171684
-0.0172649
-0.0174164
-0.00552938
-0.0026676
-0.00299679
-0.00571496
-0.00768109
-0.00943924
-0.0108281
-0.0116912
-0.0121702
-0.012094
-0.0121501
-0.0119358
-0.0122629
-0.0128301
-0.0140484
-0.0156392
-0.0175404
-0.0195432
-0.021507
-0.0231829
-0.0269506
-0.0108539
-0.00733778
-0.00667821
-0.00600223
-0.00633788
-0.00768768
-0.00953929
-0.0111708
-0.0122414
-0.0129638
-0.0128953
-0.0126504
-0.0118726
-0.0111827
-0.0105124
-0.0102422
-0.0103859
-0.0111497
-0.0125656
-0.0169088
-0.0418098
-0.0471689
-0.00968879
-0.00939984
-0.023453
-0.022103
-0.0129532
-0.0480714
-0.0443773
-0.00936641
-0.00970101
-0.0207933
-0.0159175
-0.052457
-0.0272074
-0.0388973
-0.0291522
-0.0287459
-0.0290083
-0.0336563
-0.0545215
-0.0434732
-0.0548743
-0.0277296
-0.0218375
-0.0341994
-0.0311548
-0.136697
-0.115465
-0.126285
-0.109787
-0.134617
-0.107559
-0.121568
-0.144875
-0.126589
-0.122363
-0.139187
-0.144976
-0.123149
-0.121528
-0.142444
-0.120156
-0.113367
-0.145078
-0.13704
-0.119746
-0.113331
-0.124865
-0.111134
-0.10439
-0.131117
-0.110321
-0.110961
-0.103043
-0.108194
-0.102131
-0.0960259
-0.104308
-0.0868845
-0.0999576
-0.0868816
-0.0989546
-0.0944514
-0.0915485
-0.081544
-0.0704953
-0.0804753
-0.0589542
-0.0955559
-0.0910307
-0.0890981
-0.0686552
-0.0673058
-0.0524142
-0.0387678
-0.0913476
-0.087915
-0.0830233
-0.0682111
-0.0756016
-0.0365895
-0.0386992
-0.117877
-0.111646
-0.110796
-0.10784
-0.114928
-0.0995602
-0.102684
-0.115571
-0.11081
-0.109891
-0.115969
-0.115842
-0.105092
-0.108817
-0.111141
-0.10912
-0.106031
-0.115229
-0.112268
-0.108968
-0.10807
-0.104575
-0.104948
-0.102099
-0.110855
-0.104989
-0.107662
-0.106769
-0.0964384
-0.101318
-0.0992535
-0.10234
-0.0905895
-0.106586
-0.105482
-0.0909077
-0.098492
-0.0950456
-0.084624
-0.0615666
-0.104357
-0.0945181
-0.0869625
-0.0934123
-0.0876564
-0.0538715
-0.0368507
-0.0880444
-0.0619793
-0.0799194
-0.0854953
-0.0792202
-0.0336983
-0.0331626
-0.0543033
-0.0441393
-0.107972
-0.106393
-0.10999
-0.0946917
-0.0958267
-0.0996644
-0.103905
-0.108774
-0.110758
-0.111526
-0.0986923
-0.104446
-0.104827
-0.102862
-0.105076
-0.111488
-0.110851
-0.104458
-0.102203
-0.1005
-0.0908709
-0.101458
-0.110694
-0.111303
-0.101432
-0.100669
-0.0879264
-0.0839608
-0.0991978
-0.111847
-0.11221
-0.100999
-0.102809
-0.0845363
-0.0915489
-0.0965296
-0.110998
-0.104328
-0.103189
-0.0998653
-0.0948878
-0.101868
-0.0905802
-0.101956
-0.0965381
-0.0958607
-0.0739944
-0.102829
-0.101831
-0.0821547
-0.095109
-0.0911234
-0.0664243
-0.055993
-0.100923
-0.100489
-0.113529
-0.112129
-0.130593
-0.0951579
-0.10759
-0.100934
-0.125304
-0.116318
-0.133949
-0.142465
-0.109679
-0.109602
-0.130375
-0.137643
-0.116622
-0.145643
-0.150863
-0.107742
-0.0971352
-0.138
-0.128422
-0.11903
-0.152214
-0.158258
-0.0930046
-0.0849813
-0.122665
-0.112402
-0.12122
-0.160669
-0.161539
-0.08444
-0.0900913
-0.110996
-0.107277
-0.112473
-0.159323
-0.149567
-0.0939756
-0.103505
-0.106564
-0.11068
-0.101281
-0.145189
-0.129977
-0.105194
-0.107053
-0.112923
-0.119015
-0.0946865
-0.125074
-0.114373
-0.107181
-0.108116
-0.120134
-0.123448
-0.0759067
-0.0566225
-0.0591449
-0.0529577
-0.0475827
-0.0434095
-0.0404801
-0.0844466
-0.0634067
-0.0708238
-0.0428076
-0.0297182
-0.0379634
-0.0292927
-0.066393
-0.0710538
-0.0673324
-0.0259181
-0.0168111
-0.0268953
-0.0215602
-0.037225
-0.064673
-0.0530073
-0.0147471
-0.0117723
-0.0202316
-0.0171
-0.0238924
-0.0479671
-0.0316216
-0.0115165
-0.0117526
-0.0162175
-0.0137721
-0.0223718
-0.0272415
-0.0196006
-0.0121288
-0.0143448
-0.0131135
-0.012372
-0.0307598
-0.0186449
-0.019282
-0.0153822
-0.0188811
-0.0126289
-0.0149033
-0.0441799
-0.0205398
-0.0285723
-0.0201341
-0.0238325
-0.0161489
-0.0213681
-0.0492396
-0.0287438
-0.0381974
-0.0343997
-0.0356743
-0.0251686
-0.0303316
-0.0612141
-0.0424514
-0.0578873
-0.0343203
-0.0300838
-0.0320308
-0.0374765
-0.0651291
-0.0628925
-0.076415
-0.0290501
-0.0266283
-0.0394783
-0.0463637
-0.0612261
-0.0807442
-0.09158
-0.0258366
-0.0229387
-0.049107
-0.0567121
-0.0428765
-0.0942727
-0.0963392
-0.0217331
-0.0175944
-0.05857
-0.0565674
-0.0239623
-0.0942574
-0.0764674
-0.0161998
-0.0133385
-0.0527902
-0.0361807
-0.0185239
-0.0670741
-0.0411941
-0.0130329
-0.0141805
-0.0306583
-0.0203588
-0.0249098
-0.0357478
-0.0320939
-0.015205
-0.0202882
-0.0193135
-0.0226178
-0.029033
-0.039774
-0.0442171
-0.0206668
-0.0264576
-0.0300131
-0.0300428
-0.0448605
-0.0416571
-0.0336323
-0.0286971
-0.0354084
-0.0287042
-0.0260655
-0.0612943
-0.0315135
-0.0285043
-0.0376824
-0.0452256
-0.0258615
-0.0281038
-0.0790206
-0.028834
-0.0351605
-0.0482146
-0.0585764
-0.0300706
-0.0399798
-0.0947453
-0.0396444
-0.0611864
-0.0620022
-0.0669785
-0.0444018
-0.0581186
-0.0889494
-0.0699146
-0.0884201
-0.0653993
-0.0496465
-0.0615176
-0.0621122
-0.0552398
-0.090551
-0.0872795
-0.0424425
-0.026555
-0.0590603
-0.0478201
-0.0417189
-0.08509
-0.0847726
-0.0243476
-0.0264325
-0.0454067
-0.0457765
-0.0635942
-0.0726777
-0.0751393
-0.0495655
-0.0381351
-0.0572174
-0.049486
-0.0425503
-0.070982
-0.0566431
-0.0344871
-0.0272008
-0.0452884
-0.0356639
-0.0301038
-0.0511395
-0.0386379
-0.0260611
-0.0265639
-0.0334883
-0.0303103
-0.0352505
-0.0375306
-0.041392
-0.0282368
-0.0378919
-0.0308016
-0.0361931
-0.0584137
-0.0444108
-0.0562395
-0.0423015
-0.0558729
-0.0385976
-0.0455707
-0.0863854
-0.0611969
-0.0768414
-0.0593352
-0.0617725
-0.0473855
-0.0503034
-0.0934735
-0.0818472
-0.0951044
-0.0599462
-0.0524908
-0.0505372
-0.0506687
-0.0963584
-0.0985257
-0.105196
-0.0509609
-0.0520311
-0.050733
-0.0507071
-0.0289092
-0.0236176
-0.0221437
-0.0238599
-0.0145206
-0.0178383
-0.0133647
-0.0183869
-0.0216169
-0.0189637
-0.0119518
-0.00924275
-0.0117993
-0.00899625
-0.0109727
-0.0179717
-0.0152788
-0.00891321
-0.00821503
-0.00859728
-0.00813707
-0.0086689
-0.0144834
-0.0123048
-0.00815177
-0.00877068
-0.00812248
-0.0083576
-0.00963244
-0.0116427
-0.0103358
-0.00911354
-0.0101695
-0.00852808
-0.00941531
-0.0123896
-0.010231
-0.0110254
-0.0105831
-0.0121502
-0.00985673
-0.0114746
-0.016095
-0.0116302
-0.0142812
-0.0127471
-0.0146258
-0.0120266
-0.0134935
-0.0199818
-0.0154274
-0.019518
-0.0153599
-0.0179366
-0.0139276
-0.0151289
-0.0195963
-0.0160332
-0.0211846
-0.0147012
-0.0124972
-0.0142775
-0.0165657
-0.0202336
-0.0233184
-0.0300328
-0.0116586
-0.0103807
-0.0173762
-0.0197825
-0.0195401
-0.0323307
-0.0395341
-0.0102034
-0.00981625
-0.0205237
-0.0221604
-0.0192163
-0.0185103
-0.025621
-0.0141132
-0.0255244
-0.0137166
-0.0194262
-0.0163877
-0.0148989
-0.0233905
-0.012183
-0.022019
-0.0116733
-0.0173569
-0.0114388
-0.0406719
-0.0267319
-0.0100171
-0.0115751
-0.0145545
-0.0128257
-0.0138183
-0.0227271
-0.016786
-0.012186
-0.0138464
-0.0131134
-0.0151313
-0.019146
-0.0167144
-0.0206104
-0.0143187
-0.0154727
-0.0159215
-0.0179684
-0.0204099
-0.0204603
-0.0204625
-0.0150446
-0.0187197
-0.0161686
-0.0160546
-0.0296435
-0.0196022
-0.0189006
-0.0199692
-0.023537
-0.0165538
-0.0198898
-0.040607
-0.0195072
-0.0244276
-0.0246469
-0.027405
-0.0214493
-0.027033
-0.0401452
-0.0468096
-0.03837
-0.0390628
-0.0418674
-0.0413686
-0.036929
-0.0499821
-0.0558366
-0.0528099
-0.04676
-0.0559197
-0.0473911
-0.0484228
-0.0366156
-0.0564417
-0.0510525
-0.0193817
-0.0142043
-0.0286355
-0.0205526
-0.020467
-0.0468589
-0.0359791
-0.0138658
-0.0153893
-0.0188789
-0.0182667
-0.0229184
-0.0343768
-0.0358468
-0.016276
-0.0188046
-0.0191265
-0.0222659
-0.0255748
-0.0374298
-0.0312696
-0.0207528
-0.0160199
-0.0243667
-0.0180719
-0.0184689
-0.027708
-0.0211041
-0.0156815
-0.0177906
-0.0170285
-0.0173627
-0.0224787
-0.0203181
-0.0218601
-0.0191879
-0.0246608
-0.0179136
-0.0200119
-0.0365051
-0.0235754
-0.0296668
-0.0267377
-0.031786
-0.0208695
-0.0223517
-0.0523071
-0.0317396
-0.0371304
-0.0324527
-0.0299302
-0.0222932
-0.0209948
-0.0510896
-0.0381248
-0.0384692
-0.0277328
-0.020994
-0.0203937
-0.0200246
-0.0400354
-0.0381471
-0.0378928
-0.0196717
-0.0196587
-0.0204957
-0.0234191
-0.0402042
-0.0381546
-0.0388484
-0.0206128
-0.0238371
-0.024736
-0.028347