/*--------------------------------*- C++ -*----------------------------------*\
  =========                 |
  \\      /  F ield         | OpenFOAM: The Open Source CFD Toolbox
   \\    /   O peration     | Website:  https://openfoam.org
    \\  /    A nd           | Version:  10
     \\/     M anipulation  |
\*---------------------------------------------------------------------------*/
FoamFile
{
    format      ascii;
    class       volScalarField;
    location    "4.3";
    object      k;
}
// * * * * * * * * * * * * * * * * * * * * * * * * * * * * * * * * * * * * * //

dimensions      [0 2 -2 0 0 0 0];

internalField   nonuniform List<scalar> 
12920
(
97.8277
856.037
711.056
737.275
726.941
692.606
589.207
441.77
311.474
228.33
181.642
161.664
154.241
147.874
141.511
129.885
122.009
108.143
101.542
86.4852
887.709
1616.93
1492.76
1019.46
676.358
575.359
439.734
363.545
318.036
304.874
291.302
280.415
263.298
247.377
230.725
215.333
199.17
180.982
173.449
156.12
1171.39
1635.08
1262.66
888.979
812.598
759.817
577.638
434.253
351.089
314.084
284.279
269.827
254.339
245.049
235.58
225.145
216.694
204.759
198.39
181.228
626.805
1372.48
1137.89
948.415
706.402
533.716
398.502
331.448
280.361
253.472
230.339
218.972
214.661
214.849
215.993
215.173
213.184
210.504
207.426
192.624
281.592
923.981
879.74
805.818
737.648
591.138
437.59
357.313
299.648
259.638
227.088
204.619
191.873
186.823
186.979
188.935
193.427
194.618
194.129
183.407
374.932
802.459
903.275
904.039
808.673
649.185
546.387
483.525
421.652
358.926
298.586
245.117
207.513
182.382
170.412
166.752
166.972
167.599
167.087
158.014
692.662
1293.42
1426.2
1145.21
879.997
727.276
624.661
563.905
511.47
453.706
382.545
308.401
246.332
196.266
165.018
148.017
141.685
140.588
139.062
130.462
1066.21
2582.33
2471.63
1854.93
1415.44
1070.76
622.656
365.885
297.812
276.409
249.912
211.314
178.268
155.117
218.398
172.503
145.677
131.936
125.849
111.371
1038.71
2466.76
2463.71
2064.95
1609.47
860.342
413.47
195.287
179.871
165.412
133.708
114.37
106.614
108.493
175.153
205.692
162.879
135.24
118.961
101.527
695.943
1435.28
1517.25
1480.42
1359.07
814.123
372.181
181.773
144.356
146.592
121.135
122.902
119.044
104.291
172.752
210.308
161.011
128.416
112.355
100.032
9375.31
2100.61
1552.29
1385.1
1068.82
565.961
246.683
142.657
122.729
119.224
139.567
146.208
146.649
129.583
186.026
225.269
169.871
127.968
110.109
101.663
4959.73
2240.1
1002.18
838.26
709.744
449.963
265.431
175.799
159.638
138.885
130.453
132.046
137.784
133.94
209.995
251.421
189.538
144.03
124.612
116.042
3842.24
1263.65
586.505
650.439
658.492
657.515
431.898
302.412
282.289
238.692
209.121
183.513
165.291
151.5
231.258
208.086
176.253
150.276
141.573
135.042
2198.76
963.369
622.407
625.468
604.996
607.773
599.386
578.203
503.023
397.156
324.318
269.751
227.579
197.756
179.141
163.125
152.26
144.842
142.512
141.482
1316.33
1910.32
1496.2
1145.12
872.671
736.257
629.104
574.598
475.209
376.631
311.68
273.521
240.543
212.086
190.125
171.949
159.056
151.65
150.228
148.205
2072.23
2560.49
2441.34
2282.84
1758.07
1228.26
805.315
516.225
352.437
272.757
235.782
222.694
206.858
194.37
183.948
173.402
166.133
158.49
155.41
147.473
3431.47
3300.14
3031.21
2150.34
1436.34
836.457
516.391
360.051
276.362
229.258
194.886
174.669
163.695
159.161
157.141
154.492
152.444
147.017
142.948
129.563
4276.35
1701.7
1579.38
886.284
653.465
496.264
385.953
342.893
288.056
245.568
190.737
154.476
136.131
129.669
128.726
130.073
130.837
128.679
125.318
115.304
4013.07
1567.67
942.739
763.657
523.371
422.89
351.249
340.382
324.982
320.285
290.023
221.727
154.966
120.174
107.194
103.304
105.465
107.728
107.522
102.79
1902.79
1750.27
770.838
534.719
546.814
557.556
522.241
390.02
299.463
265.964
239.44
210.912
188.993
176.184
149.234
92.4675
60.2123
50.9067
50.1478
50.0372
637.953
2177.64
2152.75
1967.12
1615.63
1368.96
1143.9
942.076
725.796
560.173
459.966
416.595
392.511
370.526
340.814
306.541
278.119
238.513
220.842
186.433
6054.52
6384.29
4193.55
3241.75
1629.5
1263
977.155
925.099
853.268
843.639
812.547
779.703
725.253
675.286
623.261
577.521
531.523
491.947
466.864
431.618
6902.38
5884.85
4215.05
3153.52
2162.49
1803.74
1309.85
1117.37
943.755
881.643
808.568
769.154
721.885
686.374
650.953
618.006
589.591
560.59
544.542
510.274
2227.57
3829.85
3456.58
2643.36
1797.13
1360.82
1066.58
916.201
784.62
729.64
671.732
653.291
639.856
635.737
630.66
616.364
604.552
593.465
585.537
554.469
3451.16
4022.49
3207.53
2458.15
2045.83
1556.52
1145.7
968.031
796.739
711.45
628.942
586.745
564.907
559.214
562.02
563.427
566.635
565.806
562.162
534.11
3098.89
2971.3
2636.86
2526.07
2107.97
1679.88
1400.89
1267.23
1082.97
920.987
755.673
640.667
570.526
523.178
502.665
490.461
488.326
487.442
483.819
457.279
3000.67
3654.69
3557.1
2646.79
2085.76
1846.73
1651.63
1556.25
1343.66
1149.97
930.003
751.538
609.371
503.101
449.695
419.554
409.784
405.097
398.449
374.082
5167.28
5128.17
4898.66
3803.25
3055.02
2539.15
1949.08
1589.5
1330.13
1118.8
928.696
764.801
631.218
525.558
468.581
408.332
377.114
364.326
350.783
321.723
1817.01
4605.99
5009.22
4534.57
3645.6
2777.44
2036.11
1538.85
1216.37
965.462
772.83
658.286
591.904
534.637
480.379
426.176
367.636
335.14
313.266
292.861
4181.78
4332.36
3981.81
3805.76
3366.37
2656
1921.13
1367.51
1024.18
867.334
718.824
649.839
591.075
542.188
509.347
440.703
350.361
311.545
297.005
291.347
12065.6
4768.63
3875.9
3349.11
2378.62
1900.13
1452.75
1168.53
919.123
808.883
757.161
678.365
589.814
495.076
436.645
443.204
351.603
311.732
305.503
304.714
8880.72
6175.88
3418.33
3046.82
2113.85
1764.8
1383.08
1209.3
1052.03
900.386
793.923
725.226
664.349
592.402
534.201
475.551
393.205
362.032
357.624
346.155
10262.3
2930.08
2019.9
2012.41
1757.85
1774.08
1454.52
1305.36
1114.36
926.83
792.358
685.893
602.154
537.646
518.675
470.087
429.562
408.425
404.581
391.992
17941.1
6618.09
2421.05
2051.55
1772.87
1847.77
1781.26
1665.71
1375.46
1102.78
906.958
743
634.815
548.816
504.369
458.374
432.61
421.477
421.924
417.438
3094.29
5706.44
4334.6
3208.88
2353.34
2134.3
1837.92
1653.94
1333.05
1068.38
892.117
768.674
674.881
597.188
542.303
494.153
463.363
446.72
444.964
436.986
4372.75
5105.06
4718.54
4546.29
3534.26
2656.48
1821.56
1344.17
986.918
823.165
725.838
665.163
606.924
566.208
532.061
501.375
479.413
457.436
449.331
426.383
2955.63
6551.9
5704.1
4304.76
2734.96
1857.1
1218.74
939.75
732.204
650.389
580.219
537.937
498.765
477.212
462.493
447.365
435.386
413.674
400.904
364.383
8683.84
4768.88
3313.17
1775.88
1483.01
1276.48
966.697
819.21
670.293
597.246
496.279
439.836
395.044
378.164
372.17
372.732
370.926
359.761
351.188
328.915
5669.33
3235.36
2722.38
1930.73
1163.31
1089.45
838.59
806.498
705.821
678.612
606.204
517.263
421.073
347.691
303.01
294.034
300.095
303.303
300.953
291.31
2221.86
1407.86
1471.58
1486.74
1282.86
1084.27
843.461
713.21
602.802
463.129
346.329
293.255
260.007
207.863
147.593
108.026
102.647
107.93
114.536
116.029
445.248
2242.05
2872.74
2673.57
2079.53
1661.41
1338.71
1059.11
804.948
629.676
529.896
481.056
445.203
408.451
368.24
325.685
290.409
252.198
236.032
202.12
10728.3
7795.16
5361.68
3932.8
2514.55
2009.2
1526.22
1413.73
1281.76
1253.28
1190.88
1117.95
1017.44
924.093
834.351
760.499
694.62
646.425
606.858
575.047
10555.1
9642.38
6699.1
4391.39
3001.32
2359.56
1785.56
1575.69
1382.9
1310.5
1213.73
1138.71
1053.65
977.806
907.92
846.407
796.384
753.799
725.431
686.729
7435.08
8812.6
5393.24
3458.17
2471.33
1836.13
1535.22
1355.41
1214.83
1153.14
1077.42
1034.31
986.661
942.466
902.737
859.752
827.735
794.826
772.584
723.497
8437.36
7401.84
5300.66
4004.71
2957.75
2126.44
1613.7
1402.08
1212.85
1120.84
1014.84
949.277
898.116
858.931
833.105
803.934
785.793
760.896
742.398
696.736
4194.51
5136.95
4009.11
3710.16
2912.27
2237.81
1870.47
1653.1
1424.15
1239.43
1059.86
932.478
843.47
778.735
737.705
705.599
687.334
667.393
651.606
612.254
5470.71
5497.01
4782.44
3509.68
3028.29
2551
2258.28
2025.36
1701.96
1428.66
1162.69
966.867
816.404
710.72
649.401
611.581
590.548
573.588
558.733
530.771
4280.62
5197.92
5552.14
4719.59
3966.99
3330.04
2707.16
2265.33
1836.71
1497.86
1213.62
995.681
824.172
690.61
607.293
559.727
533.611
517.134
500.234
483.521
1892.78
5686.34
6313.61
5766.96
4681.24
3812.37
2976.07
2306.14
1797.31
1400.15
1125.43
949.909
823.214
709.92
609.201
537.022
495.432
475.396
460.834
454.647
10486.9
8066.84
6268.43
5443.97
4410.34
3680.56
2832.51
2062.52
1592.35
1299.04
1076.16
923.841
816.972
729.792
643.739
540.319
476.408
454.479
447.102
446.488
19157.3
6494.06
5471.74
4316.68
3372.18
2837.13
2310.67
1828.15
1478.59
1296.26
862.012
664.144
595.564
552.895
540.109
538.627
482.296
464.472
460.133
453.207
18542.1
6330.2
4344.68
3700.83
2891.51
2558.51
2177.67
1860.67
1592.61
1356.74
1160.72
1000.65
860.457
736.165
652.352
582.895
540.709
525.393
514.279
483.009
16959.1
4732.14
3444.6
2977
2679.79
2550.9
2193.35
1935.71
1599.22
1317.73
1097.8
934.85
812.618
726.806
688.087
641.487
614.658
591.894
576.117
530.292
12718.1
7412.14
4133.8
3166.44
2835.39
2848.18
2616.48
2244.79
1792.61
1427.33
1173.97
985.91
867.778
785.994
732.218
685.188
659.767
632.432
616.583
573.318
9826.2
7865.46
6055.83
4547.46
3514.57
3256.27
2773.66
2329.3
1803.71
1422.5
1184.24
1022.21
916.497
839.135
783.481
730.139
694.537
658.181
638.451
587.508
2057.76
5430.01
5542.08
5427.04
4244.8
3309.34
2459.33
1849.42
1410
1175.07
1026.61
933.849
858.814
806.14
761.117
716.589
682.07
640.487
616.544
558.131
3551.82
5968.9
6334.93
5447.33
3540.69
2396.66
1655.86
1277.43
1039.24
925.882
837.712
781.649
731.336
694.175
662.998
629.779
602.043
564.706
541.2
488.522
9007.36
7911.81
4733.35
2916.67
2322.96
1738.61
1286.31
1040.81
869.33
780.908
692.614
640.907
592.36
565.755
548.933
537.196
523.988
506.037
493.852
467.779
10088
4799.96
3505.4
2248.29
1789.32
1344.69
1031.64
906.437
767.901
723.776
635.861
568.571
494.504
446.671
424.25
425.227
433.23
434.971
433.028
428.927
2050.26
2220.52
2050.83
1706.83
1380.39
1118.51
934.388
765.513
558.049
353.461
255.197
208.133
180.271
158.98
139.445
136.082
140.765
145.658
150.653
154.549
1451.7
3068.03
3127.02
2684.95
2056.86
1622.48
1285.18
993.56
765.02
621.67
542.701
486.624
436.21
383.045
334.074
291.407
260.878
229.464
215.253
185.789
14418.6
10663.4
6749.82
4244.55
3096.15
2343.66
1928.68
1823.41
1718.44
1698.4
1631.09
1508.99
1361.79
1213.91
1085.82
981.82
900.186
845.893
800.979
787.246
14431.6
14937.6
10081.9
5257.91
3670.07
2709.85
2246.81
2015.11
1860.07
1772.84
1671.38
1555.6
1442.87
1321.64
1222.83
1133.02
1066.78
1010.97
972.416
940.949
21284.7
13151.6
7028.15
3985.41
3070.54
2155.46
1980.35
1736.62
1653.92
1580.62
1514.86
1445.82
1375.69
1292.29
1224.57
1154.64
1102.75
1050.55
1011.35
963.696
10155.9
8681.37
7163.74
4957.72
3610.73
2451.52
2049.97
1779.4
1635.45
1528.47
1427.87
1341.65
1273.17
1202.17
1150.71
1094.03
1054.62
1010.03
976.636
930.624
8751.28
8838.13
5694.48
4494.52
3554.05
2541.4
2274.51
1949.96
1753.2
1549.19
1385.55
1248.65
1155.61
1077.05
1020.9
970.36
936.148
901.715
873.589
836.379
6502.37
6600
5887.68
4182.17
3809.52
2955.61
2706.87
2291.29
1975.45
1649.57
1403.76
1206.98
1068.93
967.696
903.494
856.175
825.98
800.802
778.805
760.536
5311.81
5576.46
6658.72
5393.11
4749.04
3757.67
3163.32
2615.45
2127.09
1748.29
1439.38
1207.3
1022.84
883.221
815.117
776.226
754.433
738.021
723.556
720.358
7119.6
7193.66
7640.68
6632.55
5498.59
4451.89
3518.27
2768.26
2161.76
1726.24
1414.7
1198.63
1024.3
879.874
770.425
723.65
700.459
694.541
689.664
693.875
18478.8
10343.4
8129.07
6333.38
5162.55
4259.39
3338.46
2529.25
2024.96
1669.09
1393.65
1170
1011.7
895.879
799.023
718.295
682.929
676.187
673.883
677.03
13940.1
8474.55
6894.66
4919.05
4066.99
3440.26
2836.1
2308.11
1947.42
1695.69
1281.97
954.392
780.963
716.259
735.562
727.278
698.368
689.317
680.669
667.74
12093
6954.48
5412.96
4073.73
3557.97
3109.88
2710.74
2343.3
2017.47
1717.69
1440.8
1203.33
1011.75
876.222
821.25
799.414
778.558
751.59
724.407
670.423
14165.3
6271.03
4598.17
3559.76
3471.32
3059.68
2696.99
2308.08
1920.7
1592.99
1335.71
1151.73
1023.73
938.794
923.396
894.057
875.959
833.937
794.716
709.959
8178.76
7019.29
5054.47
3784.85
3753.79
3404.97
3038.73
2502.41
2037.97
1647.86
1402.23
1226.11
1127.17
1057.23
1012.92
971.58
943.983
892.827
854.564
765.382
8124.47
8566.61
7219.49
5082.92
4420.2
3814.3
3293.39
2614.44
2081.18
1670.74
1438.82
1272.5
1180.07
1107.5
1059.17
1003.27
965.572
908.286
867.777
773.229
10131
8083.99
7018.86
5772.53
4603.18
3469.33
2847.36
2120.85
1746.98
1460.88
1313.34
1195.3
1125.18
1064.45
1020.6
965.448
923.363
861.096
819.388
730.389
16964.6
10094.7
8022.68
5548.23
3983.86
2550.43
1997.55
1518.91
1343.98
1186.19
1106.96
1028.33
979.033
927.905
892.386
844.498
808.791
760.55
727.233
670.782
25713.6
10334.6
5884.69
3524.19
3048.52
1960.27
1581.84
1234.22
1119.26
998.406
926.808
856.719
810.519
777.65
762.385
744.992
729.986
711.575
696.851
676.036
15003.5
6800.29
4453.72
2703.55
2275.71
1434.46
1184.02
979.134
896.867
838.278
765.301
696.887
635.734
599.895
593.934
603.036
617.008
624.647
632.934
639.738
1863.01
2951.22
2337.23
1726.08
1364.33
1049.71
870.89
619.293
406.716
276.111
233.584
201.603
179.068
164.605
161.218
162.254
162.059
160.01
160.84
162.933
1182.56
3536.05
2995.16
2182.14
1659.25
1269.91
979.11
758.558
621.184
537.217
475.252
407.364
345.212
287.267
241.775
207.507
184.113
168.991
160.66
155.227
19048.5
13621.7
7963.65
4385.08
3698.86
2328.23
2444.43
2133.29
2246.28
2121.63
2101.54
1892.82
1737.86
1523.98
1394.74
1269.84
1198.11
1143.18
1119.61
1117.43
16356
18301.9
13621.6
5713.94
4733.23
2894.58
2893.66
2375.92
2396.66
2173.23
2131.51
1930.15
1832.73
1651.57
1552.3
1435.56
1367.78
1299.53
1266.76
1241.56
23903.7
13511.8
9125.92
4573.87
3841.07
2375.03
2498.79
1998.52
2113.1
1915.92
1933.54
1801.91
1748.27
1613.79
1541.03
1444.88
1385.69
1318.75
1276.96
1237.69
11348.1
11738.6
9680.95
5238.99
4479.62
2621.13
2611.69
2070.79
2096.54
1865.31
1840.49
1689.97
1642.76
1527.04
1470.05
1384.62
1336.6
1277.51
1240.94
1207.48
31609.5
14958
7573.2
5049.32
4379.16
2710.87
2731.2
2148.06
2086.67
1783.59
1701.32
1526.84
1465.28
1365.36
1306.91
1241.84
1201.29
1158.98
1126.68
1107.57
2602.61
7550.35
7147.96
4946.04
4785.2
3187.44
3179.97
2439.8
2251.9
1798.5
1658.15
1429.68
1345.59
1238.68
1185.96
1127.86
1098.33
1069.05
1049.9
1049.88
3380.58
5843.06
8268.53
6172.52
5591.43
3962.48
3474.88
2768.46
2343.09
1930.16
1672.09
1440.6
1288.78
1163.97
1089.74
1058.02
1034.77
1022.77
1014.44
1025.78
10561.9
9501.47
9640.93
7063.89
6283.7
4765.08
3888.44
3026.01
2425.48
1995.47
1694.65
1465.15
1284.1
1145.45
1053.79
1001.55
996.777
996.57
997.725
1011.7
16752.6
12171.6
10102.9
6585.37
5777.48
4510.55
3668.73
2900.55
2405.11
2010.69
1697.36
1436.99
1276.67
1167.69
1072.23
1003.77
989.6
984.049
978.725
983.822
13223.1
10208.7
7960.29
5301.09
4722.82
3760.92
3205.15
2723.69
2381.96
2037.9
1668.75
1302.95
1086.66
1045.05
1040.1
1010.33
1005.92
989.679
971.66
955.795
11351.9
8510.39
6491.61
4653.06
4156.11
3420.26
3135.51
2743.29
2385.04
2017.07
1678.24
1409.53
1240.39
1139.42
1089.79
1082.96
1070.65
1026.16
982.712
922.784
9816
8491.97
5985.24
4311.63
4391.94
3352.39
3074.4
2517.27
2149.41
1782.22
1552.95
1371.54
1281.03
1204.94
1188.61
1176.1
1156.74
1097.13
1039.89
942.632
15024.3
7888.38
6147.19
4422.24
4620.69
3556.37
3294.31
2530.84
2166.13
1736.09
1577.34
1403.31
1359.33
1292.86
1278.78
1242.93
1219.75
1154.4
1103.98
993.566
13720
8648.29
7920.97
5162.04
5283.97
3906.79
3664.47
2620.56
2253.37
1772.18
1632.12
1445.99
1399.92
1321.75
1296.54
1243.7
1216.4
1151.58
1104.49
994.899
15814.7
7629.19
7808.68
5519.45
4999.29
3323.59
3131.86
2137.94
2000.1
1596.19
1539.17
1368.73
1343.66
1265.22
1247.94
1187.74
1153.67
1082.55
1038.38
950.314
11843.1
8291.41
9177.87
5404.78
4642.74
2532.53
2418.28
1627.33
1650.8
1347.17
1348.18
1203.91
1190.52
1115.23
1101.4
1047.04
1023.02
974.649
948.519
905.105
37460.6
10699.2
7114.14
4650.84
3885.51
2125.56
1968.53
1338.49
1398.17
1145.38
1152.51
1017.75
1013.46
968.16
985.097
971.876
971.999
959.914
951.257
948.285
18059.9
8950.59
5036.77
3722.49
2766.5
1512.02
1474.68
1011.87
1148.94
935.146
959.824
827.392
824.911
793.909
835.782
861.698
892.738
911.328
934.03
961.666
6348.52
3197.06
2315.28
1600.28
1164.51
830.049
589.028
377.946
284.951
245.661
232.806
203.32
184.474
172.827
168.975
164.706
161.715
159.65
159.753
160.542
1124.03
1274.65
922.723
1578.87
1376.22
1565.17
1209.79
956.835
836.491
688.903
1315.39
1153.04
1085.33
871.129
954.277
1360.11
1221.14
1592.38
1203.68
1645.68
1456.7
703.81
1175.28
1046.56
1082.19
868.001
1392.54
1208.64
206.39
380.464
198.901
1581.61
1371.46
1527.01
1258.27
180.603
174.092
143.724
1280.3
1070.85
1140.97
908.395
171.177
144.184
156.215
1021.8
873.482
872.707
799.184
138.87
156.294
138.623
825.691
694.617
769.259
653.843
118.152
129.819
119.498
662.694
584.644
622.58
567.001
106.591
118.223
112.093
565.153
522.836
554.415
518.827
108.528
108.524
101.299
512.563
483.347
507.071
481.334
86.5801
100.417
80.0586
470.684
437.483
472.477
452.945
203.883
334.05
193.925
1490.21
1235.51
1332.46
1147.92
145.663
179.367
135.358
1126.84
884.353
1065.43
823.497
147.582
125.414
110.315
844.933
766.308
764.723
657.876
126.148
110.198
121.608
734.424
629.53
641.152
630.221
121.32
129.19
141.531
607.277
570.179
626.949
602.689
121.722
142.935
143.375
561.18
528.734
590.852
546.536
106.655
142.178
128.887
514.973
480.553
527.168
465.241
81.6707
123.959
90.3126
471.319
456.353
446.997
404.692
150.229
252.413
164.706
1092.77
1006.88
1028.13
970.62
128.74
158.667
157.054
952.67
794.935
946.453
875.863
118.034
156.052
145.96
751.186
676.334
852.042
780.078
135.098
143.458
138.06
668.661
663.684
758.212
706.239
145.451
137.803
139.045
659.088
626.789
691.922
655.428
147.375
140.239
145.091
613.466
566.898
645.701
613.902
134.55
145.353
141.524
547.139
479.79
600.108
550.766
93.4393
138.307
112.196
459.055
406.565
531.998
490.633
181.057
331.635
210.595
1026.64
1017.85
1050.69
1088.58
165.8
197.355
162.986
996.068
915.184
1067.39
919.727
143.644
157.181
139.85
881.054
783.748
865.856
753.493
131.444
139.67
132.007
756.646
691.404
722.666
656.047
130.616
132.203
126.028
674.685
637.757
637.239
591.059
137.056
125.657
119.908
628.788
600.686
576.356
538.031
136.486
117.285
110.512
588.947
548.146
525.561
490.623
111.582
108.341
82.7763
532.498
494.383
479.286
454.81
1647.31
1979.85
1530.13
2777.73
2290
2731.21
2140.49
1281.26
1392.01
1111.27
2147.7
1782.84
1970.35
1603.35
1023.6
1060.18
944.411
1677.82
1387.79
1517.2
1299.35
810.75
902.753
767.941
1305.88
1100.99
1231.45
1053.82
680.662
732.81
663.363
1047.1
918.619
1007.5
898.863
605.943
646.691
602.3
885.231
799.668
870.123
797.013
550.472
588.904
555.89
773.387
698.098
775.823
715.324
481.541
544.041
503.616
672.396
597.506
694.356
629.866
1498.17
1720.82
1384.7
2650.75
2083.02
2379.71
1917.55
1076.73
1281.24
1000.36
1917.01
1550.23
1780.43
1443.1
908.855
932.982
804.195
1467.56
1263.79
1361.7
1183.62
746.222
782.139
740.598
1200.9
1037.88
1155.67
929.185
664.206
723.983
670.561
994.941
890.632
864.214
726.951
606.18
651.538
591.552
862.009
788.892
692.269
623.073
553.39
569.501
505.83
768.023
710.855
608.596
574.646
506.748
488.48
437.689
691.984
633.229
566.196
540.196
1241.13
1350.99
1191.6
2127.44
1793.29
1956.97
1724.11
971.311
1154.86
1052.48
1686.14
1419.7
1663.33
1494.2
822.173
1019.91
928.426
1350.97
1202.1
1441.94
1299.63
774.621
900.619
831.446
1178.19
965.764
1256.71
1135.16
698.613
810.927
756.594
899.67
758.792
1095.69
985.905
613.961
740.881
691.173
719.688
629.653
951.753
849.803
516.378
672.097
609.634
607.364
554.552
816.045
718.336
435.057
587.759
527.674
540.212
509.846
688.148
614.955
1246.03
1428.49
1344.33
2006.8
1781.93
2048.74
1896.34
1094.04
1302.16
1116.16
1719.23
1533.56
1821.07
1559.49
933.618
1051.48
910.534
1472.65
1304.7
1473.17
1271.02
816.755
871.891
783.191
1255.26
1121.02
1213.66
1067.55
739.835
756.821
693.217
1080.76
974.925
1024.15
916.273
680.91
673.333
621.664
943.304
851.589
884.555
801.48
611.106
605.196
560.517
821.59
735.424
776.738
710.176
536.017
546.742
506.587
708.505
632.936
691.308
638.107
2456.14
2922.06
2297.34
3408.4
2845.95
3339.79
2677.98
1912.55
2122.2
1737.44
2675.68
2218.17
2497.3
2080.55
1486.13
1642.84
1400.12
2084.55
1743.01
1969.12
1678.74
1183.08
1326.51
1137.96
1650.08
1410.11
1594.35
1380.12
986.444
1088.04
966.975
1343.48
1180.4
1319.83
1163.84
853.106
934.281
850.735
1134.36
1008.1
1119.53
1005.1
737.963
826.308
756.169
969.012
861.805
971.752
878.774
626.657
732.401
658.999
828.647
733.043
849.147
760.267
2233.2
2550.62
2056.29
3234.59
2600.67
2929.33
2405.4
1681.92
1914.4
1571.07
2426.09
2027.29
2262.3
1923.56
1366.69
1487.32
1297
1924.01
1656.81
1837.08
1631.72
1312.53
1235.75
1272.32
1393.99
1215.32
1327.64
1372.54
1075.51
1032.79
1047.2
1156.22
1001.06
1107.99
1127.45
840.608
654.562
619.401
1106.52
990.992
828.687
765.963
751.313
614.69
597.702
958.679
872.122
751.551
715.575
662.059
591.74
567.55
845.208
764.169
707.605
686.085
1940.83
2127.97
1872.72
2724.14
2315.43
2541.03
2264.3
1550.42
1806.75
1621.97
2198.05
1911.3
2188.13
1971.77
1316.51
1564.77
1407.76
1834.57
1650.84
1903.48
1707.92
1362.32
1197.46
1320.14
1387.66
1267.24
1161.08
1425.83
1075.92
799.335
1082.79
706.409
1028.98
643.362
1139.55
607.133
1006.22
887.842
818.074
730.521
1151.22
990.63
563.197
849.612
741.909
710.578
664.539
942.261
818.967
531.361
709.739
631.376
656.009
650.634
786.786
718.459
1928.78
2234.01
2042.85
2593.41
2312.75
2654.97
2394.43
1658.52
1959.36
1680.24
2232.98
1994.6
2291.33
1975.95
1411.11
1588.53
1371.61
1917.68
1701.33
1875.89
1629.22
1206.6
1309.09
1146.51
1633.02
1437.03
1554.75
1353.16
1037.78
1097.9
977.241
1375.23
1205.19
1294.01
1145.51
894.369
942.28
850.208
1153.49
1011.69
1103.99
992.976
765.109
823.284
751.069
969.274
859.699
962.754
882.268
654.194
731.167
671.307
829.413
750.296
861.252
797.878
2944.84
3446.21
2780.89
3790.28
3164.49
3704.91
3050.07
2297.09
2600.79
2179.69
2968.67
2487.77
2873.51
2449.24
1819.45
2065.48
1767.08
2359.94
2027.43
2332.4
2021.37
1482.45
1680.54
1459.42
1931.68
1690.81
1929.49
1692.55
1246.73
1396.36
1231.05
1625.49
1453.36
1624.28
1441.29
1065
1183.58
1061.23
1399.7
1257.88
1387.88
1257.97
913.396
1026.16
929.943
1217.37
1109.81
1223.51
1130.07
779.661
899.614
805.226
1076.78
984.528
1099.7
1009.32
2701.71
3028.83
2505.73
3584.61
2971.63
3269.78
2785.21
2130.18
2365.62
2034.14
2807.6
2418.21
2658.66
2355.85
1749.76
1947.83
1732.17
2310.97
2017.76
2270.08
2023.04
1457.68
1668.61
1391.71
1928.7
1694.44
1936.67
1683.79
1220.21
1279.05
1020.55
1623.76
1428.39
1587.86
1316.49
1045.57
960.744
844.392
1370.66
1238.5
1239.9
1072.03
923.066
819.663
773.514
1207.29
1126.12
1043.32
1007.88
809.709
765.654
740.879
1099.26
1016.34
1001.5
975.906
2423.82
2660.9
2380.86
3113.06
2724.87
2978.86
2704.69
2024.65
2302.83
2080.18
2618.78
2353.78
2623.02
2387.28
1750.64
2009.16
1801.55
2274.93
2038.54
2309.6
2062.07
1394.34
1733.59
1527.63
1954.3
1687.54
1975.6
1722.87
1021.56
1458.4
1260.4
1589.73
1314.37
1642.35
1417.47
812.006
1198.75
1029.32
1232.1
1043.54
1348.9
1179.71
723.832
979.985
860.409
1009.03
967.415
1139.49
1053.97
708.36
831.07
766.718
963.123
954.313
1033.32
986.346
2426.18
2779.16
2490.88
3029.22
2736.73
3091.03
2720.18
2096.77
2381.25
2058.4
2645.79
2381.29
2593.88
2263.7
1790.76
1957.32
1704.82
2296.42
2036.42
2166.41
1897.75
1507.04
1627.13
1416.73
1948.25
1698.61
1813
1590.28
1258.44
1355.5
1201.98
1622.86
1418.38
1529.92
1373.97
1054.69
1159.43
1045.96
1358.54
1214.1
1331.14
1226.68
904.699
1016.12
936.787
1178.66
1095.87
1201.9
1136
799.045
916.51
850.243
1073.29
1011.86
1117.55
1059.86
3228.48
3795.46
3139.27
4235.98
3459.38
4101.89
3445.33
2548.99
2962.65
2537.08
3233.62
2783.35
3262.51
2825.56
2092.9
2419.6
2102.6
2660.71
2310.9
2702.55
2362.58
1758.11
2008.2
1766.83
2202.63
1979.97
2260.28
2005.82
1520.39
1697.55
1509.74
1916.32
1725.03
1932.17
1723.27
1323.36
1454.63
1325.37
1665.37
1526.87
1662.92
1538.1
1178.25
1291.63
1197.87
1489.96
1380.78
1504.27
1401.32
1056.46
1166.9
1075.32
1348.63
1269.02
1368.44
1275.13
3062.32
3351.4
2881.29
3960.13
3374.82
3661.66
3219.53
2513.11
2758.79
2463.02
3212.16
2817.46
3098.28
2799.72
2103.18
2375.96
2114.86
2703.12
2374.17
2706.9
2402.7
1769.5
2022.78
1763.13
2271.67
2011.53
2294.74
2011.54
1496.29
1668.54
1392.63
1934.53
1711.72
1914.62
1612.15
1306.05
1312.67
1144.97
1646.46
1520.34
1523.71
1366.95
1195.42
1120.21
1088.26
1494.51
1401.84
1354.9
1315.29
1082.18
1080.1
1046.69
1370.88
1279.78
1300.23
1246.78
2826.86
3086.76
2811.98
3548.17
3179.64
3461.81
3181.64
2462.78
2728.47
2486.89
3074.91
2804.49
3084.98
2812.15
2129.33
2406.12
2141.93
2716.74
2416.06
2719.06
2408.04
1765.55
2048.86
1782.3
2306.32
2010.85
2297.04
1995.63
1388.16
1699.24
1468.61
1911.38
1603.75
1905.6
1655.24
1116.39
1399.16
1237.34
1510.17
1338.83
1582.65
1442.65
1050.82
1202.09
1123.58
1323.73
1283.57
1416.66
1333.87
1027.37
1103.02
1052.86
1270.96
1231.14
1309.56
1248.7
2837.98
3190.64
2789.77
3531.16
3196.28
3536.41
3082.82
2472.53
2656.76
2326.99
3086.26
2781.93
2919.73
2589.48
2110.91
2230.24
1954.62
2682.98
2365.14
2478.54
2171.85
1756.06
1866.34
1643.53
2255.96
1964.87
2066.29
1847.36
1469.73
1583.91
1428.62
1880.49
1655.99
1781.18
1622.82
1272.37
1385.48
1286.86
1593.89
1477.54
1571.09
1489.5
1162.16
1263.67
1201.04
1449.1
1365.14
1462.42
1402.27
1076.63
1182
1125.15
1338.94
1268.78
1373.74
1325.54
1249.09
1177.43
1098.78
1208.75
1156.3
1266.13
1185.44
1297.62
1256.69
1182.68
1369.78
1198.71
1362.09
1189.73
1198.1
1032.17
1043.52
769.279
1116.64
1095.4
936.168
1409.22
1487.13
1507.29
1567.1
1418.24
1470.68
1503
1344.67
1293.11
1440.33
1368.03
1354.04
1277.58
1437.29
1403.75
1457.81
1566.03
1483.77
1464.68
1273.28
1506.74
1310.76
852.667
1331.7
1362.07
1207.67
1024.71
1425.65
1026.97
993.318
922.638
1021.86
959.168
1063.33
984.477
953.682
962.226
763.045
672.497
906.083
1013.87
588.41
888.545
820.676
709.495
599.478
857.427
858.665
571.822
1157.16
1236.24
1258.46
1300.83
1183.44
1214.36
1238.75
1101.66
1086.99
1204.2
1121.3
1133.59
1051.19
1178.41
1055.42
744.637
1243.23
1000.68
1120.84
667.828
1169.69
976.083
650.295
1033.88
932.22
934.507
631.575
1094.24
1282.12
1066.65
1139.39
801.033
1201.87
942.16
1206.87
1401.13
1347.27
1313.77
1458.93
1304.5
1449.28
1407.56
1347.65
1209.59
1267.46
1303.19
1257.92
1291.69
1355.64
1469.3
1480.3
1508.1
1627.08
1270.9
1531.15
1567.63
1382.76
871.022
1355
1396.7
1030.46
1296.96
1485.83
1496.14
1554.21
1643.07
1583.82
1548.72
1497.84
1585.09
1436.72
1381.97
1451.89
1520.84
1373.82
1440.41
1520.66
1022.97
734.42
932.192
598.173
981.755
612.17
960.209
1180.64
1161.27
1130.76
1250.97
1113.96
1235.66
1199.95
1127.65
1023.52
1087.96
1102.84
1068.66
1074.57
1150.64
1142.84
764.621
992.948
1309.58
698.838
1217.1
1226.14
1077.11
652.323
907.206
1069.9
648.953
1003.12
1146.89
1247.54
1323.57
1381.95
1329.54
1310.31
1266.26
1312.3
1186.6
1156.47
1177.52
1268.07
1125.87
1210.48
1244.24
458.219
596.643
455.088
1079.45
1062.42
1090.01
1077.93
317.043
382.041
335.271
1019.93
964.002
1027.2
946.087
282.563
311.947
292.614
928.652
880.378
884.537
815.143
263.308
269.94
248.716
835.509
772.137
736.837
666.859
228.957
228.93
211.973
714.74
653.482
608.874
560.223
193.717
196.819
188.018
595.534
544.5
521.242
495.563
165.32
179.694
173.316
487.003
456.258
467.019
448.798
118.864
165.572
138.662
394.221
397.904
408.658
419.645
649.712
858.884
630.627
1537.94
1496.29
1530.87
1472.47
649.253
297.357
396.462
654.894
651.946
652.387
303.031
527.113
184.88
190.838
628.463
602.837
561.271
174.883
487.221
177.817
168.593
546.575
530.69
493.562
170.259
433.86
155.12
165.868
475.451
449.136
452.923
160.263
352.216
127.537
137.295
384.538
368.317
367.939
131.633
306.056
110.376
119.065
324.247
313.143
316.126
115.354
282.469
107.164
106.723
294.574
292.954
285.01
105.852
277.481
108.076
106.48
284.675
280.783
279.639
106.438
136.225
172.459
133.811
367.323
373.598
375.471
380.667
610.212
724.034
555.559
1444.31
1432.06
1356.57
1308.62
607.455
286.815
372.926
610.805
601.576
614.37
289.771
505.366
164.574
192.728
516.705
480.031
537.514
177.689
401.483
145.074
143.501
420.664
418.631
416.09
138.525
339.427
143.151
126.281
405.018
387.307
357.545
120.44
321.537
119.915
116.508
328.468
323.125
319.315
118.076
344.804
123.114
132.255
323.309
322.595
344.652
133.661
316.094
114.652
131.034
303.661
292.266
328.214
126.668
270.235
102.668
111.792
267.055
264.431
276.467
107.613
134.959
172.568
128.58
381.045
394.504
353.935
367.569
404.499
548.008
400.06
973.478
938.725
939.823
911.995
414.02
193.252
246.474
418.88
435.042
410.436
192.565
399.561
137.476
140.258
429.695
415.987
407.871
135.03
371.464
118.615
130.725
361.126
346.158
376.177
130.884
378.527
122.367
135.286
338.206
342.553
373.855
137.163
391.478
142.498
142.846
376.107
381.193
389.207
144.71
388.796
146.946
147.33
382.801
381.183
390.017
148.264
370.503
144.761
149.085
367.779
357.257
378.603
147.78
318.79
123.842
134.785
311.353
300.725
328.571
130.052
131.097
208.282
159.436
352.888
358.346
400.805
416.045
389.397
439.71
419.422
832.647
843.132
788.421
859.946
431.806
218.437
269.373
404.56
422.968
410.257
224.822
497.915
172.038
183.086
474.34
477.71
491.78
179.937
433.29
153.3
157.998
458.902
441.46
458.135
148.454
371.429
135.293
131.596
397.592
386.802
382.203
128.332
350.083
130.107
123.547
368.912
365.843
353.013
123.183
347.453
133.65
124.605
364.845
365.777
347.732
125.288
341.353
137.888
128.159
364.249
361.085
344.874
128.205
323.069
132.315
126.456
341.049
335.761
326.988
125.211
164.431
186.922
154.597
425.023
436.883
407.828
422.133
334.963
428.468
340.53
788.797
823.708
796.388
838.394
294.224
348.201
350.171
816.535
797.165
830.644
805.176
256.943
339.301
302.376
748.86
682.829
742.441
674.017
221.483
271.469
243.777
633.393
589.764
597.573
536.064
195.018
223.986
202.463
557.022
525.122
495.086
459.465
173.174
185.783
168.455
495.841