/*--------------------------------*- C++ -*----------------------------------*\
  =========                 |
  \\      /  F ield         | OpenFOAM: The Open Source CFD Toolbox
   \\    /   O peration     | Website:  https://openfoam.org
    \\  /    A nd           | Version:  10
     \\/     M anipulation  |
\*---------------------------------------------------------------------------*/
FoamFile
{
    format      ascii;
    class       volScalarField;
    location    "4.3";
    object      k_0;
}
// * * * * * * * * * * * * * * * * * * * * * * * * * * * * * * * * * * * * * //

dimensions      [0 2 -2 0 0 0 0];

internalField   nonuniform List<scalar> 
12920
(
97.3915
852.641
708.335
741.061
732.08
696.81
590.021
440.832
310.315
227.631
181.47
161.842
154.527
148.125
141.674
129.971
122.042
108.14
101.526
86.4479
667.808
1606.55
1490.29
1002.38
673.348
576.282
439.938
363.796
318.46
305.406
291.746
280.737
263.515
247.541
230.837
215.403
199.159
180.972
173.432
156.056
1119.9
1614.09
1233.53
882.653
815.749
762.877
576.461
433.682
351.019
314.196
284.458
270.057
254.564
245.287
235.78
225.331
216.849
204.904
198.516
181.271
651.833
1374.7
1137.85
949.894
707.76
534.046
398.519
331.493
280.46
253.567
230.467
219.176
214.953
215.158
216.29
215.442
213.428
210.754
207.635
192.66
233.04
908.875
873.862
805.583
738.632
590.506
437.102
357.108
299.526
259.543
227.035
204.642
191.984
187.011
187.197
189.202
193.686
194.845
194.325
183.436
423.977
805.93
910.18
911.12
811.291
650.298
547.269
483.984
421.782
358.796
298.331
244.866
207.359
182.351
170.487
166.901
167.135
167.756
167.219
158.024
743.52
1317.01
1440.78
1151.45
882.652
728.697
625.221
564.367
511.878
453.867
382.386
308.062
245.989
196.04
164.927
148.044
141.793
140.708
139.158
130.475
1051.53
2620.62
2498.23
1872.28
1422.58
1072.82
624.476
365.325
297.702
276.62
250.122
211.33
178.296
155.137
218.268
172.396
145.661
131.976
125.869
111.343
1025.26
2501.55
2492.81
2074.3
1614.64
862.644
413.954
194.957
179.646
164.94
133.54
114.339
106.883
108.787
175.281
205.559
162.788
135.194
118.894
101.486
688.159
1445.49
1530.48
1491.27
1365.71
816.855
373.01
180.712
144.321
146.808
121.222
123.111
118.972
104.387
172.913
210.07
160.785
128.296
112.303
100.02
8821
2086.5
1561.56
1394.3
1071.13
564.583
247.192
142.622
122.345
119.155
139.948
146.615
147.005
129.652
185.967
225.145
169.549
127.722
110.03
101.665
5006.97
2181.78
988.243
832.038
709.807
452.225
266.814
175.888
159.321
138.839
130.665
132.424
138.125
134.132
210.199
251.405
189.26
143.827
124.578
116.085
3460.78
1166.21
579.607
653.869
661.706
659.914
432.982
302.969
282.094
238.515
209.15
183.631
165.481
151.624
231.479
208.146
176.14
150.257
141.654
135.145
2363.06
891.958
618.139
626.195
606.424
608.974
600.676
579.154
502.777
396.671
324.017
269.532
227.42
197.724
179.138
163.135
152.303
144.923
142.632
141.626
1417.38
1910.3
1481.7
1139.54
870.295
733.944
628.728
574.674
474.703
376.168
311.44
273.427
240.458
212.051
190.111
171.966
159.121
151.78
150.385
148.354
2244.02
2610.87
2473.34
2303.21
1760.57
1227.2
802.897
514.411
351.544
272.484
235.789
222.792
206.93
194.461
184.04
173.502
166.245
158.621
155.538
147.569
3355.57
3357.46
3055.15
2150.2
1431.88
831.787
514.046
359.271
276.083
229.04
194.747
174.652
163.763
159.284
157.285
154.638
152.574
147.124
143.027
129.556
4325.13
1711.08
1584.68
880.68
652.17
496.497
386.327
343.296
288.262
245.311
190.372
154.286
136.15
129.796
128.915
130.275
131.001
128.778
125.378
115.307
4031.26
1522.71
943.431
765.687
523.64
423.257
351.861
341.247
326.118
321.117
289.966
220.938
154.407
119.976
107.208
103.44
105.665
107.865
107.618
102.809
1978.64
1755.16
731.879
533.032
551.296
561.655
523.628
387.799
299.213
266.379
239.688
210.998
189.309
176.411
148.639
91.6741
59.9503
50.9243
50.2114
50.0933
648.504
2205.55
2156.58
1969.75
1623.39
1374.25
1146.97
942.482
724.62
559.093
459.718
416.952
393.019
370.849
340.882
306.492
277.922
238.29
220.626
186.328
6113.62
6450.7
4169.34
3214.96
1622.87
1263.57
978.71
926.485
854.519
844.693
813.203
779.969
725.26
675.191
623.07
577.239
531.164
491.647
466.54
431.319
6998.14
5808.96
4176.83
3140.61
2164.85
1803.46
1308.86
1116.77
943.608
881.667
808.619
769.195
721.913
686.391
650.933
618.008
589.564
560.593
544.535
510.194
2002.88
3813
3466.36
2643.49
1798.34
1361.46
1066.41
916.201
784.626
729.691
671.866
653.571
640.261
636.134
630.962
616.566
604.792
593.729
585.721
554.375
3274.47
3988.17
3174.57
2452.83
2046.96
1554.77
1144.1
967.062
795.989
710.875
628.579
586.615
565.001
559.451
562.306
563.756
566.949
566.101
562.352
533.966
2845.63
2974.08
2652.4
2542.87
2113.48
1681.9
1402.34
1268.11
1082.61
919.925
754.583
639.91
570.133
522.994
502.677
490.613
488.533
487.629
483.91
457.102
3177.9
3686.49
3578.05
2656.94
2090.04
1851.06
1653.84
1557.59
1343.75
1149.39
928.881
750.166
608.348
502.523
449.454
419.555
409.899
405.196
398.477
373.952
5053.72
5195.58
4930.93
3831.71
3067.95
2545.24
1951.58
1589.18
1329.83
1118.72
928.377
764.25
630.721
525.127
468.11
408.1
377.1
364.337
350.682
321.58
1622.88
4627.12
5056.27
4559.37
3659.13
2783.38
2036
1536.06
1214.8
963.459
771.794
657.926
592.05
534.622
480.044
425.701
367.381
335.007
313.097
292.75
4139.5
4359.61
4003.49
3828.58
3384.38
2663.49
1919.79
1362.59
1023.47
866.803
718.686
650.122
591.19
542.471
509.167
439.825
349.834
311.364
296.904
291.309
12095
4826.81
3869.11
3352.94
2383.86
1902.69
1454.01
1167.83
917.62
808.967
758.235
679.331
590.143
495.048
436.496
442.643
350.785
311.515
305.423
304.684
8626.37
6176.38
3409.79
3038.05
2116.05
1767.26
1384.35
1209.08
1051.59
900.57
794.49
725.973
664.802
592.646
534.244
474.988
392.768
361.995
357.621
346.123
10100.7
2879.41
2022.84
2016.03
1764.79
1778.91
1457.26
1306.87
1113.81
926.522
792.309
686.02
602.244
537.732
518.571
469.846
429.425
408.501
404.717
392.06
17656.7
6339.6
2401
2048.8
1776.07
1850.09
1784.44
1666.9
1373.94
1101.27
905.881
742.144
634.203
548.49
504.072
458.166
432.591
421.652
422.13
417.666
3221.55
5737.06
4307.61
3191.01
2347.18
2129.97
1837.23
1652.81
1330.99
1066.76
891.074
768.045
674.386
596.871
542.091
494.045
463.427
446.983
445.244
437.257
4559.78
5167.15
4761.85
4576.11
3532.92
2652.9
1819.72
1341.91
985.513
822.614
725.666
665.035
606.861
566.238
532.131
501.468
479.552
457.66
449.538
426.49
3032.14
6620.71
5745.76
4303.8
2723.82
1852.19
1216.09
938.372
731.589
650.019
580.068
537.784
498.778
477.359
462.714
447.561
435.514
413.754
400.91
364.226
8095.11
4758.29
3308.37
1776.11
1486.54
1277.55
967.08
819.009
670.125
596.609
495.728
439.424
395.019
378.385
372.566
373.096
371.159
359.816
351.2
328.845
5967.83
3209.38
2733.9
1930.92
1165.43
1089.68
839.527
807.028
706.141
678.647
605.545
515.985
419.866
346.729
302.774
294.357
300.486
303.503
301.039
291.334
2335.54
1396.7
1481.69
1495.36
1288.01
1085.88
844.035
714.05
602.928
462.176
345.721
293.239
259.584
206.995
146.652
107.83
102.857
108.276
114.745
116.169
411.298
2252.72
2891.37
2689.61
2086.81
1666.06
1340.85
1058.78
803.593
628.781
529.81
481.396
445.519
408.535
368.13
325.454
290.154
252.034
235.896
202.01
10309.1
7822.36
5352.69
3932.03
2517.76
2009.95
1526.75
1414.44
1282.42
1253.74
1190.78
1117.31
1016.5
923.035
833.28
759.457
693.65
645.586
606.089
574.439
11015.5
9598.66
6662.39
4383.72
3000.01
2357.08
1784.2
1575.09
1382.66
1310.22
1213.22
1138
1052.8
976.938
907.062
845.617
795.655
753.182
724.857
686.123
7438.06
8942.32
5335.2
3452.53
2472.86
1836.69
1535.37
1355.76
1214.94
1153.14
1077.24
1034.03
986.287
942.017
902.214
859.248
827.269
794.381
772.099
722.82
8191.25
7349.01
5268.8
4009.43
2957.42
2123.77
1612.3
1401.52
1212.28
1120.27
1014.18
948.645
897.574
858.453
832.67
803.554
785.42
760.489
741.932
696.071
3855.3
5122.61
4011.65
3727.8
2919.24
2239.82
1871.55
1653.73
1423.74
1238.48
1058.75
931.484
842.65
778.057
737.2
705.195
686.979
667.006
651.173
611.668
5356.51
5542.35
4804.37
3519.19
3034.16
2556.15
2260.39
2026.39
1701.55
1427.4
1161.07
965.296
815.138
709.8
648.788
611.155
590.197
573.239
558.341
530.34
4100.51
5237.28
5586.42
4753.86
3980.44
3338.65
2710.67
2266.18
1836.36
1497
1212.4
994.403
823.013
689.612
606.519
559.225
533.235
516.777
499.847
483.19
1662.74
5741.7
6363.88
5794.92
4694.75
3818.38
2976.39
2303.96
1795.33
1397.75
1123.88
948.963
822.461
709.094
608.25
536.244
494.93
475.011
460.474
454.355
10803
8136.96
6302.7
5471.21
4424.47
3687.13
2830.95
2058.65
1591.04
1297.63
1075.39
923.402
816.686
729.239
642.766
539.061
475.678
454.053
446.782
446.2
18908.7
6517.94
5470.51
4333.95
3379.58
2841.34
2311.62
1827.41
1477.38
1295.57
862.413
664.06
595.179
552.32
539.684
537.541
481.524
464.03
459.77
452.869
19472.9
6346.92
4354.44
3705.17
2898.66
2562.97
2178.25
1861.09
1592.77
1356.96
1160.76
1000.6
860.13
735.739
651.796
582.043
540.263
525.05
513.928
482.558
16922.7
4710.04
3454.66
2983.44
2687.05
2555.86
2196.77
1937.72
1599
1317.41
1097.26
934.394
812.103
726.424
687.564
641.012
614.318
591.629
575.821
529.803
12859.8
7505.38
4142.02
3169.74
2841.22
2853.75
2621.68
2245.2
1791.22
1425.67
1172.61
984.912
867.069
785.486
731.75
684.782
659.455
632.184
616.332
572.941
10074.7
7808
6072.74
4539
3514.04
3258.17
2775.32
2327.6
1800.7
1420.43
1182.86
1021.38
915.951
838.761
783.153
729.82
694.26
657.959
638.207
587.103
2269.27
5490.06
5575.56
5451.89
4245.57
3310.26
2459.07
1847.3
1408.35
1174.09
1026.11
933.503
858.593
805.989
760.931
716.343
681.79
640.203
616.217
557.622
3057.1
5969.86
6392.02
5452.4
3527.48
2390.53
1651.9
1275.6
1038.41
925.436
837.459
781.418
731.218
694.109
662.921
629.613
601.761
564.363
540.789
487.987
9285.47
7945.69
4722.22
2916.47
2323.7
1738.19
1285.82
1040.15
868.937
780.294
692.172
640.532
592.208
565.763
549.058
537.197
523.832
505.818
493.578
467.451
9224.07
4802.27
3511
2249.77
1790.35
1343.99
1032.01
906.213
767.737
723.187
634.92
567.419
493.622
446.203
424.391
425.597
433.458
435.007
432.929
428.841
2118.36
2219.89
2060.86
1712.97
1383.72
1120.69
936.158
765.851
556.532
352.053
254.648
207.775
180.051
158.738
139.392
136.338
141.108
145.945
150.877
154.734
1280.79
3047.07
3140.44
2698.65
2063.32
1625.9
1286.13
992.75
763.952
621.225
542.708
486.724
436.162
382.825
333.789
291.168
260.673
229.321
215.127
185.667
14714.8
10648.2
6728.16
4248.36
3098
2344.97
1928.96
1824.81
1719.31
1699.05
1630.76
1507.7
1359.94
1211.9
1083.84
979.99
898.587
844.503
799.822
786.364
15111.8
15139
9968.92
5237.78
3664.44
2707.75
2245.88
2015.27
1860.05
1772.9
1670.85
1554.7
1441.61
1320.31
1221.47
1131.74
1065.59
1009.96
971.504
940.126
21820.9
13095.7
6990.19
3977.36
3071.07
2156.7
1980.95
1738.12
1654.51
1581.36
1514.97
1445.65
1375.14
1291.55
1223.71
1153.78
1101.89
1049.73
1010.53
962.855
10062.6
8563.99
7135.09
4952.93
3604.43
2448.02
2048.86
1779.6
1635.29
1528.5
1427.42
1341.15
1272.48
1201.46
1149.96
1093.28
1053.85
1009.26
975.866
929.792
8274.81
8805.28
5702.02
4511.39
3557.92
2544.16
2275.73
1951.51
1753.49
1549.17
1384.96
1248.02
1154.89
1076.34
1020.23
969.71
935.497
901.05
872.918
835.639
6330.65
6620
5910.15
4189.65
3814.18
2960.8
2708.55
2292.51
1975.3
1648.81
1402.55
1205.84
1067.88
966.79
902.745
855.503
825.337
800.183
778.194
759.915
4865.8
5563.41
6690.16
5428.37
4763.26
3768.36
3167.73
2617.5
2127.52
1747.83
1438.32
1206.04
1021.49
881.975
814.279
775.518
753.779
737.394
722.993
719.834
6705.01
7217.31
7667.74
6665.11
5510.9
4457.19
3519.63
2767.8
2160.31
1724.69
1413.33
1197.32
1022.85
878.369
769.079
722.786
699.727
693.905
689.087
693.338
18550.1
10372.8
8158.06
6362.67
5177.09
4265.73
3337.68
2527.5
2024.07
1667.91
1392.57
1168.9
1010.42
894.213
797.259
717.079
682.072
675.488
673.272
676.465
14403.3
8487.87
6915.48
4944.15
4074.55
3444.13
2837.25
2308.35
1947.36
1696.34
1282.02
953.73
779.385
714.482
734.146
726.064
697.466
688.564
679.958
667.074
12311.5
6986.33
5430.9
4086.39
3567.79
3117.01
2712.39
2345.47
2018.99
1718.44
1440.72
1202.63
1010.73
875.027
820.154
798.695
777.897
750.853
723.623
669.595
14676.8
6186.06
4605.02
3567.44
3477.76
3065.69
2700.91
2311.43
1921.87
1593.55
1335.58
1151.46
1023.31
938.393
923.139
893.77
875.516
833.294
793.97
709.027
8251.53
7047.22
5066.61
3791.97
3763.32
3414.63
3044.84
2504.57
2038.17
1647.7
1401.98
1226.08
1127.22
1057.32
1012.95
971.481
943.676
892.334
853.972
764.523
8154.21
8624.18
7229.73
5076.67
4424.42
3819.56
3295.17
2613.58
2079.67
1670.07
1438.57
1272.68
1180.38
1107.86
1059.44
1003.3
965.385
907.855
867.215
772.355
10403.7
8049.57
7035.57
5790.05
4610.97
3476.83
2850.01
2121.92
1747.14
1461.36
1313.76
1195.87
1125.72
1064.96
1020.87
965.436
923.081
860.589
818.75
729.518
15740.8
10129.3
8043.75
5537.92
3973.04
2546.18
1994.88
1518.68
1344.11
1186.73
1107.4
1028.83
979.476
928.316
892.607
844.423
808.482
760.08
726.651
670.131
25612.3
10319.4
5884.24
3522.92
3049.22
1960.72
1581.92
1235.19
1119.82
998.868
927.065
856.949
810.784
778.011
762.671
744.997
729.765
711.282
696.522
675.667
14764.7
6747.11
4475
2704.96
2276.57
1434.28
1184.27
979.771
897.3
838.234
764.845
696.317
635.331
599.89
594.287
603.417
617.116
624.618
632.811
639.661
2055.91
2970.83
2349.24
1732.56
1367.35
1052.01
871.994
618.548
405.364
275.601
233.378
201.391
178.977
164.7
161.483
162.486
162.228
160.129
160.996
163.082
1122.72
3547.84
3000.95
2186.94
1661.32
1270.6
978.668
758.126
620.99
537.175
475.056
406.962
344.701
286.765
241.348
207.173
183.867
168.808
160.526
155.114
19601.2
13693.6
7908.28
4375.45
3702.95
2336.44
2453.15
2143.54
2255.52
2130.76
2108.38
1897.75
1741.26
1526.5
1396.89
1271.82
1200.1
1145.4
1121.57
1119.16
16875
18372.1
13605.4
5707.25
4740.96
2902.32
2902.86
2384.95
2405.3
2181.62
2138.6
1936.19
1837.79
1655.83
1556.13
1439.09
1371.14
1302.97
1269.6
1244.13
24027.2
13664.8
9148.94
4561.61
3854.66
2375.38
2509.1
2006.64
2121.96
1924.32
1940.86
1808.59
1753.91
1618.66
1545.4
1448.88
1389.39
1322.37
1279.86
1240.22
11610.3
11697
9673.32
5241.07
4488.5
2626.96
2619.9
2078.6
2103.99
1872.57
1846.75
1695.76
1647.83
1531.6
1474.23
1388.47
1340.16
1281.01
1243.75
1209.85
33066.4
14999.1
7640.58
5034.33
4407.85
2711.68
2744.56
2157.37
2095.32
1790.79
1707.41
1532.13
1469.92
1369.55
1310.76
1245.4
1204.6
1162.23
1129.29
1109.73
2137.13
7537.09
7211.43
4956.8
4814.03
3200.47
3189.18
2449.32
2258.42
1804.06
1662.7
1433.79
1349.38
1242.2
1189.3
1130.99
1101.26
1072
1052.33
1051.84
3056.8
5819.87
8379.44
6188.7
5645.07
3980.45
3481.1
2771.11
2344.15
1930.63
1672.06
1440.51
1288.66
1163.95
1092.92
1061
1037.5
1025.56
1016.77
1027.58
10499.3
9553.92
9751.77
7111.74
6319.65
4772.29
3888.59
3025.59
2424.63
1995.1
1694.4
1464.96
1283.88
1145.43
1054.15
1004.4
999.326
999.148
999.78
1013.23
16943.3
12352
10237.5
6630.49
5821.19
4520.3
3666.38
2899.85
2405.11
2010.85
1697.31
1436.73
1276.33
1167.61
1072.55
1006.41
991.864
986.314
980.451
985.062
13290.2
10263.6
8042.39
5309.98
4743.51
3766.71
3205.14
2724.44
2383.18
2038.91
1669.43
1303.07
1086.24
1045.26
1040.7
1012.84
1008.15
991.764
973.088
956.733
11599.5
8525.59
6482.52
4659.22
4172.51
3427.13
3138.07
2746.41
2387.66
2018.78
1679.01
1409.88
1240.78
1140.08
1090.73
1085.91
1073.03
1028.18
983.913
923.377
10220.3
8377.38
5961.76
4328.66
4398.51
3351.92
3077.72
2520.43
2151.47
1783.83
1553.98
1372.71
1282.18
1206.22
1191.82
1179.12
1159.35
1099.29
1041.04
943.008
14113.4
7879.35
6125.44
4437.43
4618.12
3558.53
3299.47
2528.77
2167.55
1737.21
1579.84
1406.06
1362.52
1296.05
1281.99
1246.06
1222.47
1156.74
1105.32
993.904
12850.5
8735.39
7916.44
5177.11
5285.37
3908.56
3662.03
2616.75
2252.27
1772.36
1633.56
1448.34
1402.61
1324.8
1299.6
1246.61
1219
1153.85
1105.78
995.151
15074.1
7664.77
7808.83
5535.68
4998.04
3328.93
3132.79
2140.17
2001.46
1598.91
1541.37
1371.68
1346.45
1268.27
1250.78
1190.35
1155.87
1084.47
1039.46
950.56
10802.6
8288.56
9185.25
5396.78
4631.76
2527.88
2413.97
1627.45
1650.42
1348.85
1349.28
1206.12
1192.43
1117.67
1103.65
1049.16
1024.86
976.423
949.655
905.587
37410.8
10689.7
7118.08
4677.96
3876.22
2131.41
1964.93
1342.28
1398.37
1148.14
1153.56
1019.93
1015.28
970.717
987.405
974.023
973.83
961.814
952.622
949.008
18748.8
9000.38
5041.04
3748.77
2754.33
1516.26
1471.15
1014.12
1148.3
936.427
959.698
828.386
825.802
795.89
837.874
863.764
894.479
913.196
935.522
962.465
6554.65
3180.5
2327.4
1604.84
1166.75
830.84
588.707
377.496
284.843
245.765
232.829
203.243
184.463
172.92
169.062
164.76
161.756
159.686
159.799
160.594
1123.03
1275.12
923.3
1577.45
1374.99
1563.97
1209.8
956.331
837.058
689.261
1314.24
1152.01
1085.23
871.235
954.638
1360.32
1221.27
1593.83
1204.6
1646.2
1456.68
704.222
1175.38
1046.63
1082.8
867.81
1392.34
1208.03
206.279
380.819
197.914
1579.49
1368.05
1524.11
1253.14
180.468
173.035
143.633
1277.35
1069.14
1136.03
907.057
170.932
144.227
156.562
1020.3
871.59
872.38
799.24
138.651
156.571
138.329
823.789
693.405
768.852
652.927
118.145
129.644
119.622
661.736
584.128
621.973
567.029
106.868
118.359
112.069
564.823
522.976
554.536
518.876
108.875
108.477
101.451
512.846
483.524
507.188
481.651
86.6382
100.605
80.1733
470.831
437.463
472.776
453.016
203.01
335.668
194.208
1486.6
1230.76
1332.98
1147.06
145.336
179.195
134.79
1121.83
882.548
1063.75
821.24
147.832
124.941
110.228
844.358
766.427
762.879
657.259
126.046
110.175
122.112
734.123
629.132
641.084
631.173
121.608
129.652
141.957
607.238
570.546
628.126
603.903
121.786
143.376
143.772
561.559
528.817
592.006
547.19
106.674
142.494
128.95
515.002
480.863
527.578
465.304
81.7824
124.01
90.21
471.664
456.527
447.042
404.676
150.243
253.031
164.866
1092.95
1006.59
1027.91
970.632
128.416
158.626
156.898
951.935
793.284
946.235
875.403
117.893
155.868
145.866
749.648
676.01
851.537
780.069
135.465
143.409
138.277
668.766
664.668
758.35
706.888
145.83
138.069
139.419
660.167
627.854
692.647
656.31
147.779
140.649
145.489
614.503
567.552
646.611
614.586
134.617
145.703
141.701
547.562
479.805
600.652
551.038
93.3589
138.475
112.217
459.037
406.446
532.227
490.783
181.422
332.268
210.543
1027.42
1018.06
1053.97
1091.03
165.543
196.867
162.393
995.805
914.552
1069.36
919.354
143.522
156.608
139.818
880.447
783.706
865.509
753.358
131.607
139.37
132.049
756.759
691.909
722.781
656.347
130.926
132.068
126.148
675.285
638.566
637.702
591.501
137.444
125.587
120.001
629.629
601.35
576.89
538.41
136.725
117.248
110.573
589.506
548.485
525.973
490.865
111.602
108.287
82.7951
532.813
494.582
479.598
455.119
1644.19
1978.86
1525.14
2777.25
2287.31
2729.84
2136.18
1279.76
1387.23
1109.82
2145.23
1781.03
1966.49
1601.65
1021.66
1059.62
944.098
1675.87
1385.37
1515.91
1297.96
809.549
902.02
766.977
1303.52
1099.36
1229.86
1052.53
680.171
732.146
663.3
1045.67
917.706
1006.46
898.325
606.028
646.723
602.362
884.468
799.142
869.703
796.773
550.521
589.051
556.122
772.897
697.508
775.632
715.008
481.297
544.241
503.393
671.807
596.881
693.972
629.254
1493.46
1723.33
1383.73
2648.59
2078.65
2381.43
1916.32
1074.9
1279.47
998.178
1912.72
1548.4
1778.58
1441.21
908.706
931.186
803.589
1466.35
1262.73
1360.08
1182.87
745.737
782.015
741.578
1199.66
1037.04
1155.24
930.022
664.462
725.162
671.731
994.359
890.349
865.201
727.747
606.306
652.607
592.142
861.786
788.786
692.936
623.344
553.684
569.875
505.92
767.938
710.688
608.734
574.549
506.658
488.553
437.586
691.725
632.655
566.054
540.015
1240.92
1350.9
1191.7
2128.03
1792.84
1956.59
1724.47
969.654
1154.79
1052.1
1685.31
1418.21
1663.56
1494.11
821.853
1019.54
928.508
1349.64
1201.99
1441.86
1299.81
775.604
900.846
832.081
1177.94
966.345
1256.94
1135.46
699.675
811.612
757.401
900.319
759.38
1095.99
986.205
614.495
741.688
691.738
720.168
629.622
951.994
849.772
516.379
672.536
609.832
607.261
554.272
815.92
718.046
434.878
587.908
527.649
539.894
509.558
687.839
614.607
1246.15
1431.64
1346.51
2007.31
1782.26
2053.31
1899.32
1093.57
1303.48
1115.72
1719.38
1533.5
1823.49
1559.69
933.67
1050.9
910.289
1472.62
1304.89
1473.26
1270.87
817.244
871.742
783.322
1255.48
1121.21
1213.6
1067.43
740.572
757.015
693.487
1080.95
975.158
1024.07
916.106
681.455
673.625
621.875
943.496
851.561
884.478
801.29
611.371
605.417
560.678
821.495
735.23
776.641
710.003
536.053
546.95
506.714
708.302
632.669
691.194
637.951
2453.76
2921.12
2293.39
3409.44
2845.01
3339.47
2675.68
1910.79
2118.7
1735.72
2674.79
2216.87
2495.31
2079.26
1483.71
1641.4
1398.46
2082.83
1741.07
1967.76
1677
1181.41
1324.73
1136.54
1648.14
1408.51
1592.59
1378.59
985.402
1086.84
966.234
1341.92
1179.01
1318.41
1162.59
852.361
933.656
850.283
1132.99
1006.7
1118.34
1003.91
737.137
825.892
755.582
967.614
860.305
970.514
877.296
625.8
731.751
658.099
827.193
731.676
847.6
758.663
2229.13
2552.5
2055.06
3233.49
2598.08
2931.51
2404.82
1680.14
1912.64
1569.33
2423.73
2026.02
2261.4
1922.67
1365.38
1485.79
1295.83
1922.84
1655.41
1836.24
1631.7
1311.37
1234.32
1271.2
1392.45
1214.24
1326.1
1371.29
1075.37
1032.14
1047.1
1155.27
1001.14
1107.13
1127.18
840.31
654.926
619.478
1105.49
989.945
828.434
764.944
750.872
614.638
597.344
957.585
870.697
750.362
714.132
661.201
591.352
567.135
843.701
762.544
706.146
684.733
1940.39
2127.97
1873.28
2724.95
2315.56
2541.95
2265.81
1549.07
1807.17
1622.04
2197.93
1910.79
2189.54
1972.75
1315.79
1564.82
1407.98
1834.09
1651.03
1904.35
1708.54
1361.87
1198.46
1320.49
1387.75
1266.96
1163.93
1426.14
1075.44
799.935
1082.51
705.913
1028.75
642.726
1139.02
606.775
1006.2
887.533
817.817
729.261
1150.49
989.583
562.633
849.221
741.39
709.165
662.915
941.137
817.643
530.899
709.196
630.786
654.418
649.29
785.444
717.171
1929.37
2238.22
2045.96
2594.59
2314.59
2660.12
2398.66
1658.67
1961.89
1680.54
2234.65
1995.79
2295.38
1977.3
1411.33
1588.68
1371.43
1918.77
1701.98
1877.15
1629.59
1206.66
1308.94
1146.21
1633.49
1437.02
1555.16
1352.87
1037.79
1097.61
976.884
1375.05
1204.63
1293.71
1145.03
894.095
942.005
849.853
1152.81
1010.77
1103.53
992.227
764.693
822.985
750.711
968.307
858.581
962.072
881.493
653.665
730.843
670.902
828.269
749.098
860.5
797.049
2944.36
3445.81
2779.07
3791
3164.98
3703.64
3049.26
2296.02
2599.32
2178.67
2968.8
2487.42
2873.1
2449.07
1817.92
2064.37
1765.59
2359.39
2027.26
2332.19
2021.19
1481.1
1679.05
1458.06
1931.4
1690.6
1929.33
1692.29
1245.45
1395.05
1229.82
1625.2
1453.11
1624
1440.85
1063.57
1182.35
1059.9
1399.4
1257.44
1387.38
1257.36
911.865
1024.78
928.309
1216.92
1109.36
1222.91
1129.52
778.167
897.936
803.39
1076.39
984.282
1099.19
1008.95
2699.64
3030.85
2505.44
3582.73
2970.67
3270.83
2785.6
2129.23
2365.09
2033.64
2807
2418.26
2659.06
2356.62
1748.61
1947.36
1731.9
2311.06
2017.83
2270.94
2024.01
1456.56
1668.52
1391.75
1928.73
1694.29
1937.37
1684.41
1219.15
1279.05
1020.33
1623.57
1428.03
1588.44
1316.65
1044.37
960.172
843.138
1370.2
1237.82
1239.86
1071.25
921.472
818.229
771.829
1206.65
1125.56
1042.49
1007.34
807.847
763.976
739.223
1098.72
1015.96
1001.06
975.719
2424.21
2662.14
2382.73
3113.4
2725.77
2980.22
2707.37
2024.55
2304.64
2081.57
2619.74
2354.97
2625.81
2389.96
1750.22
2010.45
1802.45
2276.16
2039.75
2312.15
2064
1394.48
1734.32
1527.69
1955.34
1688.27
1977.26
1723.59
1021.16
1458.23
1259.74
1590.36
1314.48
1642.82
1417.51
810.619
1197.96
1028.17
1232.06
1042.73
1348.81
1179.32
721.996
978.741
858.969
1008.16
966.857
1139.13
1053.85
706.737
829.624
765.233
962.703
954.197
1033.27
986.489
2428.49
2784.29
2495.44
3031.73
2740.02
3096.91
2725.15
2098.44
2385.72
2060.1
2649.11
2384.23
2599.06
2266.39
1791.72
1958.92
1705.47
2299.18
2038.47
2169.02
1899.53
1507.16
1627.87
1416.58
1950
1699.51
1814.84
1591.16
1257.86
1355.4
1201.61
1623.53
1418.58
1530.86
1374.62
1053.72
1159.05
1045.28
1358.64
1214.06
1331.9
1227.26
903.522
1015.48
936.053
1178.67
1096.03
1202.53
1136.56
797.669
915.768
849.326
1073.47
1011.98
1118.16
1060.37
3228.56
3793.22
3138.26
4260.12
3465.73
4124.95
3461.16
2548.17
2962.02
2536.73
3252.21
2796.81
3278.08
2840.9
2092.62
2419.26
2102.51
2681.07
2321.63
2717.76
2377.35
1757.91
2008.14
1766.74
2220.53
1993.43
2275.3
2020.68
1520.3
1697.43
1509.5
1933.75
1737.15
1946.96
1737
1323.16
1454.34
1325.02
1680.72
1538.9
1676.42
1551.52
1178.22
1291.33
1197.73
1504.17
1392.27
1517.58
1414
1056.54
1166.82
1075.31
1361.81
1281.12
1381.01
1287.36
3061.18
3351.81
2881.4
3975.63
3388.66
3663.9
3228.98
2513.01
2758.99
2463.72
3225.97
2832.14
3108.4
2811.73
2103.34
2376.83
2115.85
2717.71
2388.95
2719.32
2415.61
1769.49
2023.55
1763.78
2286.54
2026.27
2307.59
2024.72
1496.11
1669.17
1392.92
1949.22
1725.39
1927.84
1624.33
1305.63
1312.76
1144.54
1659.77
1533.53
1535.32
1378.27
1195.3
1119.81
1088.29
1507.9
1414.66
1366.92
1327.63
1082.18
1080.24
1046.92
1383.53
1292.47
1312.49
1258.61
2827.44
3087.86
2814.38
3548.39
3187.79
3462.29
3187.62
2463.9
2731
2489.4
3083.93
2815.7
3091.72
2820.98
2130.54
2408.51
2143.8
2728.47
2428.36
2728.46
2418.26
1766.28
2050.46
1783.07
2318.67
2023.78
2307.28
2006.55
1388.44
1699.82
1468.86
1924.2
1615.49
1916.78
1666.34
1115.95
1399.31
1237.28
1521.29
1349.7
1593.58
1454.24
1050.88
1202.14
1124
1335.3
1295.5
1428.71
1345.64
1027.69
1103.52
1053.41
1282.85
1243.3
1321.16
1260.11
2841.01
3196.54
2794.13
3530.87
3201.31
3541.02
3088.71
2475.3
2661.36
2329.26
3091.6
2789.52
2921.99
2595.28
2112.88
2232.56
1956.18
2691.13
2374.31
2483.44
2181.57
1756.98
1868.09
1644.39
2265.05
1974.6
2071.88
1856.72
1470.13
1584.88
1429.43
1890.56
1666.66
1788.78
1634.38
1272.65
1386.41
1287.73
1604.57
1489.51
1580.04
1501.45
1162.79
1264.58
1201.98
1461.06
1376.92
1472.76
1414.53
1077.12
1182.95
1125.96
1350.55
1280.83
1384.24
1337.14
1248.2
1176.16
1098.36
1207.6
1155.5
1264.76
1184.89
1297.43
1256.39
1184.11
1370.14
1198.51
1361.45
1191.08
1198.21
1032.5
1044.09
769.566
1116.55
1096.02
937.195
1408.15
1485.58
1505.87
1566.02
1416.72
1469.47
1501.95
1343.74
1291.87
1438.98
1367.31
1352.64
1276.9
1436.35
1403.82
1456.52
1564.66
1482.93
1463.63
1274.32
1506.23
1311.02
853.347
1332.1
1361.79
1208.36
1025.68
1425.61
1026.8
992.752
922.666
1021.14
959.331
1062.54
984.167
954.693
962.865
763.745
672.832
906.793
1014.68
588.719
889.473
821.531
710.114
599.483
858.211
859.242
572.031
1156.63
1235.15
1257.33
1300.2
1182.39
1213.85
1238.04
1101.02
1086.08
1203.11
1120.55
1132.6
1050.61
1177.59
1056.31
745.308
1243.82
1000.86
1121.59
668.382
1170.34
977.004
650.414
1033.75
932.624
934.944
631.333
1094.48
1281.41
1067.26
1139.07
800.846
1201.4
942.795
1206.3
1401.33
1347.41
1313.95
1459.19
1304.8
1449.42
1407.72
1347.85
1209.79
1267.61
1303.2
1258.23
1291.77
1355.71
1469.56
1480.65
1510.42
1626.98
1274.26
1531.01
1568.19
1382.69
871.113
1356.21
1396.6
1031.41
1296.62
1486.21
1496.24
1554.54
1643.51
1584.2
1548.89
1498.07
1585.31
1436.78
1381.92
1451.84
1521.01
1373.79
1440.49
1520.71
1022.88
735.108
932.438
598.225
982.025
611.13
959.462
1180.57
1161.39
1130.86
1250.92
1114.04
1235.65
1199.86
1127.49
1023.43
1088.05
1102.66
1068.66
1074.22
1150.5
1142.1
764.464
993.212
1309.18
698.573
1216.56
1225.53
1076.15
652.224
907.179
1068.25
648.198
1001.2
1145.8
1247.24
1323.4
1381.74
1329.18
1310.16
1265.99
1311.88
1186.15
1156.03
1176.79
1267.55
1125.27
1210.11
1243.63
458.564
598.25
455.433
1079
1061.46
1089.07
1076.79
316.634
381.451
334.566
1018.47
963.147
1025.03
944.248
282.801
311.434
292.137
928.379
880.415
883.279
813.801
263.62
269.579
248.453
835.862
772.244
735.72
666.05
229.113
228.753
211.89
714.86
653.468
608.321
559.909
193.745
196.861
188.155
595.321
544.099
521.162
495.697
165.364
179.895
173.465
486.664
455.933
467.169
448.916
118.771
165.72
138.656
393.958
397.594
408.642
419.672
650.089
860.747
630.506
1540.28
1496.65
1534.23
1473.11
646.975
297.554
396.681
653.323
650.153
650.699
302.796
525.315
184.762
190.203
626.147
600.791
558.386
174.573
486.9
177.699
168.795
545.403
529.6
493.212
170.372
432.892
154.67
165.686
474.067
447.711
452.196
160.002
351.855
127.48
137.095
383.829
367.67
367.305
131.531
305.981
110.444
119.082
323.887
312.89
315.993
115.365
282.938
107.567
106.878
294.994
293.402
285.3
106.089
277.871
108.382
106.761
285.039
281.024
280.093
106.706
136.267
172.627
133.734
367.145
373.385
375.321
380.455
610.369
727.607
556.876
1445.81
1431.93
1360.09
1309.69
604.909
286.765
373.707
608.84
598.609
612.74
289.785
502.26
163.485
192.004
512.847
476.449
534.648
176.71
400.957
145.256
143.154
420.259
418.723
415.011
138.372
339.216
143.207
126.218
405.176
386.867
357.211
120.398
322.161
120.125
116.734
328.517
323.394
319.796
118.376
345.368
123.272
132.649
323.641
322.852
345.318
133.939
315.804
114.532
131.077
303.356
291.896
327.998
126.606
270.256
102.826
111.771
267.283
264.753
276.382
107.644
134.93
172.525
128.578
380.963
394.228
353.898
367.579
404.451
547.986
400.297
973.842
939.734
941.032
913.302
413.465
193.413
246.907
418.521
434.499
410.083
192.814
398.863
137.408
140.24
428.817
415.061
407.176
134.981
370.939
118.358
130.638
359.833
345.154
375.486
130.797
378.753
122.509
135.313
337.943
342.706
373.86
137.255
392.239
142.867
143.207
376.967
382.005
389.988
145.064
389.672
147.385
147.734
383.669
382.102
390.868
148.71
370.846
145.02
149.44
368.316
357.521
379.15
148.062
318.819
123.9
134.883
311.328
300.699
328.609
130.138
131.006
208.379
159.366
352.703
358.306
400.683
415.976
390.995
440.747
420.599
834.835
845.272
792.823
863.659
432.601
219.316
270.698
405.825
423.851
411.458
225.732
497.396
171.947
183.253
474.079
477.161
491.804
179.837
432.446
153.05
157.661
457.972
440.718
457.088
148.186
371.524
135.341
131.628
397.488
386.926
382.165
128.409
350.563
130.36
123.743
369.399
366.427
353.456
123.414
348.125
134.035
124.92
365.599
366.556
348.395
125.61
341.828
138.2
128.471
364.864
361.604
345.452
128.496
323.408
132.516
126.681
341.367
336.067
327.342
125.42
164.529
187.097
154.811
425.126
437.052
408.129
422.36
335.582
428.997
341.303
790.67
824.746
798.849
839.646
294.481
348.249
350.367
817.655
797.573
832.238
805.867
256.663
338.762
301.421
748.292
682.382
742.073
673.032
221.42
270.612
243.259
633.223
589.85
597.157
535.627
195.09
223.544
202.264
557.246
525.364
495.071
459.325
173.348
185.502
168.344
496.198
471.373
421.811
387.383
157.657
156.082
142.633
446.393