/*--------------------------------*- C++ -*----------------------------------*\
  =========                 |
  \\      /  F ield         | OpenFOAM: The Open Source CFD Toolbox
   \\    /   O peration     | Website:  https://openfoam.org
    \\  /    A nd           | Version:  10
     \\/     M anipulation  |
\*---------------------------------------------------------------------------*/
FoamFile
{
    format      ascii;
    class       volScalarField;
    location    "4.3";
    object      p;
}
// * * * * * * * * * * * * * * * * * * * * * * * * * * * * * * * * * * * * * //

dimensions      [0 2 -2 0 0 0 0];

internalField   nonuniform List<scalar> 
12920
(
-276944
-287313
-340762
-287847
-306216
-273832
-265631
-242401
-227448
-205851
-188652
-168356
-149651
-129161
-109237
-88516.3
-67819.9
-46987.8
-23295.4
688.309
-547178
-350013
-352586
-294165
-311974
-277730
-269369
-245152
-230394
-208217
-191066
-170289
-151159
-130298
-110006
-89157.8
-68373.3
-47775.2
-24136
-38.7013
-376116
-324911
-324013
-297289
-303030
-277688
-268051
-246325
-232496
-211691
-194570
-173552
-153871
-132468
-111635
-90368.3
-70003.6
-49188.4
-25497.5
-814.022
-544164
-406149
-367724
-325652
-329463
-291772
-285832
-258134
-244158
-220732
-201857
-179364
-158725
-136761
-115543
-93786.1
-72260.4
-51184.8
-27160.4
-1759.42
-616983
-381819
-380122
-342584
-335066
-302579
-288907
-264279
-249126
-226378
-207039
-184316
-163328
-141060
-119537
-97348.1
-74703.1
-53498
-29103.3
-2778.42
-699244
-355145
-427034
-363266
-361960
-321364
-310178
-280776
-261775
-237063
-215408
-191766
-169487
-146744
-124504
-102124
-79019.6
-56908.3
-31571.1
-4122.91
-716065
-373522
-418772
-372846
-353520
-324380
-316653
-288864
-269691
-244806
-223303
-199120
-176392
-153075
-130796
-107935
-84451.3
-60965
-34426.8
-5566.02
-544715
-334682
-461916
-401583
-399439
-360545
-340585
-310007
-284966
-260103
-236906
-212746
-188654
-165407
-139662
-115663
-90899
-65701.6
-37401.3
-7052.13
-485149
-303720
-453871
-411535
-408222
-379749
-356739
-330812
-304773
-278120
-253781
-229057
-204153
-179251
-153383
-123493
-96719.4
-69582.1
-40071.1
-8240.74
-328600
-377513
-472058
-442601
-445198
-413508
-388263
-358147
-330227
-301612
-273056
-245445
-218314
-191341
-162024
-128413
-99822.9
-72542.2
-42248.6
-9182.4
-573441
-488660
-563696
-485005
-480822
-446375
-419363
-387373
-354758
-321961
-289325
-258207
-228152
-198794
-166971
-132274
-103343
-75357.8
-44259.6
-10069.3
-585408
-615038
-625404
-538909
-526060
-480851
-449081
-411240
-374656
-338618
-303840
-270085
-237290
-205305
-171488
-136910
-107133
-78270.6
-46300
-11110.7
-893008
-685956
-681953
-588230
-551352
-495042
-470335
-428640
-389846
-351444
-314888
-279386
-244930
-210985
-173117
-141408
-110811
-81064.7
-48288.1
-12072.5
-633521
-670751
-690163
-603680
-578075
-508568
-477183
-429142
-393556
-352804
-318126
-281536
-247371
-212601
-179011
-145764
-114281
-83662.8
-50227.8
-13016.6
-510840
-630401
-694389
-619876
-578702
-513352
-476988
-430944
-394914
-355652
-321514
-285630
-251758
-216767
-182577
-149114
-117100
-85920.1
-51878.4
-13852.4
-550226
-593987
-650670
-590627
-568889
-508207
-479724
-430849
-399202
-358699
-326213
-289321
-255787
-219882
-185825
-151708
-119534
-87823
-53350.5
-14598.9
-1.00554e+06
-679732
-690766
-597747
-565154
-502547
-473244
-428594
-398154
-358530
-326748
-289940
-257167
-221872
-188309
-154329
-121529
-89317.5
-54524.6
-15270.2
-532918
-561176
-630261
-562924
-557751
-496027
-478182
-428888
-401809
-360393
-329560
-292136
-259389
-223941
-190204
-155732
-122753
-90269
-55155.6
-15558.1
-651442
-614104
-635013
-569106
-553619
-493807
-473440
-426925
-399453
-358795
-328450
-291501
-259508
-224431
-191426
-156533
-123445
-90650.2
-55126.2
-15315.6
-876127
-704501
-605455
-552684
-547857
-488964
-471643
-425266
-399037
-358439
-328965
-292604
-260588
-225723
-191414
-156125
-123317
-90478.7
-54674.9
-14732.3
-235985
-276880
-338612
-286446
-306398
-273582
-265697
-242430
-227405
-205706
-188509
-168233
-149545
-129081
-109198
-88502.3
-67825.5
-47028.1
-23377.3
583.485
-443054
-350537
-342032
-293062
-312441
-277295
-269607
-245049
-230433
-208158
-190974
-170092
-150970
-130177
-109910
-89098.1
-68399.6
-47846.7
-24286.9
-300.372
-312251
-321798
-328170
-301267
-304082
-277789
-268671
-246300
-232170
-211439
-194336
-173288
-153671
-132313
-111560
-90386.6
-69973.8
-49166.4
-25649.6
-1231.98
-636064
-412228
-371972
-325370
-329823
-292301
-285633
-257991
-244196
-220594
-201779
-179237
-158606
-136646
-115424
-93684.1
-72236.4
-51185.8
-27322.2
-2300.94
-532249
-381137
-379398
-342136
-334596
-302410
-288111
-263780
-248877
-226168
-206885
-184173
-163186
-140876
-119411
-97226.7
-74833.2
-53508.5
-29268.3
-3375.7
-830009
-351595
-431233
-362910
-362787
-321623
-310715
-280805
-261862
-237005
-215355
-191673
-169432
-146700
-124580
-102109
-78936.8
-56887.7
-31729.8
-4705.11
-776355
-381629
-423184
-373937
-354154
-325118
-316131
-288382
-269434
-244593
-223163
-198952
-176353
-153077
-130883
-108023
-84482.4
-60935.5
-34599.3
-6076.74
-569197
-335635
-463688
-403523
-399725
-358608
-340598
-309682
-284713
-260009
-236702
-212706
-188968
-166024
-139867
-115809
-91090.3
-65714.7
-37552.8
-7445.28
-429013
-286689
-454004
-411281
-408625
-380017
-356189
-330264
-304396
-277972
-253444
-228763
-204051
-179348
-153363
-123739
-96552.4
-69632
-40245.3
-8628.89
-350273
-386119
-478493
-442716
-446896
-414322
-388935
-358342
-329604
-301116
-272950
-245486
-218387
-191366
-162093
-127926
-99777.3
-72602.1
-42447.5
-9674.97
-529325
-531595
-551015
-483533
-482615
-447572
-419976
-386534
-353864
-321610
-289096
-258065
-228112
-198711
-166724
-131971
-103308
-75414
-44482.3
-10619.2
-688876
-652875
-624038
-538876
-524479
-482419
-449657
-411054
-374455
-338466
-303695
-269901
-237102
-205083
-171200
-136689
-107080
-78336.3
-46495.2
-11615.4
-903735
-742167
-684814
-586453
-552146
-494999
-472019
-429409
-390725
-352072
-315507
-279790
-245181
-210947
-172617
-141268
-110771
-81094.8
-48448.8
-12596.8
-816622
-699710
-696008
-600308
-576344
-507641
-477655
-429362
-393912
-353103
-318606
-281925
-247551
-212199
-178763
-145711
-114250
-83665.5
-50354.7
-13463.2
-583712
-641082
-700195
-618450
-578370
-512790
-476599
-430688
-394903
-355910
-321781
-285694
-251784
-216626
-182503
-149075
-117065
-85918.8
-52018.7
-14279.3
-666050
-618066
-656773
-591528
-569372
-508096
-480126
-430821
-399597
-358854
-326780
-289541
-255945
-219768
-185657
-151727
-119504
-87820.5
-53490.7
-15086.3
-916880
-689396
-690854
-598834
-564515
-502426
-473128
-428474
-397839
-358601
-326859
-289891
-257120
-221673
-188159
-154129
-121492
-89316.1
-54735.8
-15869.5
-609994
-555119
-632556
-563973
-556992
-495158
-477801
-428487
-402033
-360318
-329794
-292280
-259543
-224007
-190147
-155677
-122776
-90302.9
-55379.4
-16159.5
-570260
-606785
-640306
-570390
-552740
-492374
-473082
-426717
-399575
-358763
-328484
-291536
-259576
-224521
-191392
-156476
-123465
-90694.8
-55237.8
-15720.1
-808857
-674205
-605817
-558784
-548564
-488714
-471937
-425019
-399097
-358545
-328952
-292614
-260733
-225861
-191588
-156223
-123421
-90550.2
-54751.3
-14872
-252527
-266712
-334859
-287295
-306453
-273478
-265818
-242400
-227282
-205562
-188355
-168047
-149364
-128927
-109116
-88464.8
-67823.7
-47045
-23530.1
265.961
-440910
-330274
-335062
-294409
-312088
-277233
-269994
-245069
-230468
-207917
-190727
-169718
-150707
-129953
-109717
-88946.1
-68453.2
-47876.5
-24483.4
-701.446
-324035
-326167
-328749
-302406
-304125
-278019
-269180
-246454
-231924
-210927
-193915
-172885
-153363
-132059
-111403
-90401.5
-69831.2
-49141.2
-25896.9
-1970.36
-649407
-407030
-355757
-320461
-329154
-292350
-285517
-257645
-244049
-220379
-201641
-179007
-158419
-136432
-115259
-93596.3
-72187.2
-51182.8
-27576.8
-3045.68
-493205
-382344
-374549
-340974
-334078
-302233
-287148
-263124
-248302
-225693
-206571
-183855
-162929
-140604
-119205
-97153.5
-74924.3
-53527.7
-29526.5
-4071.47
-618615
-387820
-424692
-363285
-363950
-322012
-311409
-281037
-262029
-236902
-215318
-191579
-169380
-146689
-124714
-102126
-78969.5
-56847.9
-31966
-5374.67
-710291
-385719
-424767
-374027
-355601
-326678
-315357
-287686
-269149
-244271
-222927
-198742
-176359
-153492
-131223
-108148
-84546.8
-60907.4
-34828.9
-6696.85
-478585
-324581
-461636
-402705
-400086
-356881
-341112
-309736
-284765
-260239
-236691
-213021
-189616
-166336
-140110
-115925
-91095.3
-65740.7
-37741.4
-8063.11
-349044
-301832
-452227
-410888
-408809
-380292
-355812
-329436
-303730
-277868
-253163
-228547
-204154
-179380
-153407
-123692
-96520.1
-69781.3
-40513.2
-9245.25
-380902
-398977
-478285
-443134
-448582
-414941
-389533
-358073
-328979
-300516
-272806
-245300
-218570
-191820
-161578
-127565
-99812.1
-72738.8
-42691.4
-10276.6
-775752
-565146
-548462
-482911
-483265
-448729
-420743
-385720
-352664
-319252
-288375
-257662
-228071
-198570
-166363
-131608
-103294
-75540.3
-44735.3
-11225.1
-683825
-673279
-626526
-534417
-523342
-482109
-450003
-410309
-373710
-337872
-303038
-269477
-236559
-204539
-170597
-136327
-107025
-78421.2
-46762.2
-12277.3
-971346
-757347
-688950
-580350
-551375
-494777
-473814
-430006
-391151
-352407
-315959
-280034
-245026
-210289
-171997
-140985
-110710
-81126.4
-48696.5
-13217.7
-919413
-744163
-715415
-598081
-575041
-506822
-477879
-429434
-394288
-353327
-319302
-282502
-247367
-211853
-178463
-145573
-114177
-83675
-50563.2
-14054
-699731
-663344
-716723
-617316
-577567
-511926
-475718
-430245
-394921
-356053
-321858
-285674
-251965
-216424
-182318
-148935
-116981
-85916.2
-52211.1
-14893.6
-779134
-627670
-659803
-590545
-568428
-507119
-480415
-430676
-399862
-359285
-327251
-289729
-255978
-219423
-185418
-151574
-119422
-87810
-53653.6
-15689.1
-1.0006e+06
-702762
-693247
-600095
-563145
-502349
-472822
-428206
-398081
-358580
-327238
-289723
-256979
-221250
-187786
-153929
-121347
-89290
-54850.9
-16471.4
-464458
-531099
-628863
-563585
-555609
-493742
-477037
-427642
-401897
-360017
-329885
-292352
-259390
-223803
-189924
-155524
-122844
-90311.2
-55609
-16823.7
-710093
-589306
-649880
-571256
-551678
-490878
-472674
-426135
-399235
-358469
-328364
-291465
-259555
-224378
-191144
-156442
-123495
-90824.8
-55521.9
-16238.7
-847695
-629898
-602288
-558364
-546506
-487784
-471261
-424754
-399044
-358303
-328849
-292380
-260797
-225643
-191863
-156634
-123658
-90684.8
-54899.9
-15102.8
-304626
-252963
-335979
-288751
-307353
-273674
-266010
-242382
-227421
-205655
-188441
-167948
-149184
-128774
-109015
-88409.5
-67826.8
-47099.3
-23698.7
-282.428
-315951
-310848
-333652
-296855
-311923
-277338
-270367
-245142
-230411
-207586
-190297
-169417
-150508
-129733
-109516
-88839.3
-68416.3
-47866.9
-24697
-1617.7
-414148
-338866
-330475
-304491
-304425
-278325
-269496
-246701
-231690
-210522
-193484
-172477
-153075
-131804
-111309
-90335.2
-69691.7
-49126.6
-26224.7
-3216.03
-604545
-405101
-360875
-320804
-329533
-292552
-285308
-257508
-243766
-219829
-201592
-178789
-158248
-136214
-115073
-93518.2
-72135.4
-51214.9
-27922.8
-4286.86
-444518
-388518
-373735
-340331
-333453
-301674
-286726
-262991
-247592
-225151
-206166
-183438
-162618
-140432
-119120
-97101.2
-74993
-53586.8
-29848
-5225.56
-687043
-414583
-417448
-365200
-365481
-322271
-311890
-280982
-262366
-236780
-215470
-191596
-169403
-146826
-124766
-102142
-79115.8
-56840.6
-32216.2
-6500.65
-664440
-383843
-424510
-374831
-357766
-327602
-314932
-287344
-268785
-244011
-222620
-198846
-176712
-153725
-131395
-108226
-84610.6
-60915.8
-34959.8
-7847.97
-489965
-320580
-455251
-399827
-401509
-356580
-341167
-309120
-284713
-260750
-237021
-213102
-189816
-166372
-140007
-115846
-90926.6
-65738.2
-37999
-9221.18
-388070
-307633
-454423
-412848
-410189
-379681
-355717
-329032
-303407
-277894
-253271
-228503
-204112
-179448
-153030
-123296
-96545.6
-69991.4
-40931
-10409.9
-472979
-418858
-480601
-445748
-450396
-415249
-389542
-357751
-328453
-299905
-272225
-245135
-219095
-191812
-160843
-127117
-99921.3
-72921.7
-43177.9
-11484.5
-745306
-591987
-552265
-484518
-484498
-449209
-420956
-384958
-351663
-318223
-287019
-257804
-228108
-198435
-165668
-130993
-103336
-75733
-45190.6
-12445
-811062
-698042
-628919
-529675
-521797
-477733
-449355
-409409
-372799
-337194
-302639
-269001
-235885
-204229
-169827
-135626
-106973
-78509
-47192.7
-13444.4
-984465
-776999
-699511
-573977
-549918
-494128
-475436
-429747
-390822
-352180
-316287
-279909
-244330
-209662
-171125
-140554
-110602
-81162.9
-49084.3
-14379.7
-1.00795e+06
-756066
-721526
-590450
-572312
-505262
-478082
-428999
-394661
-353248
-319359
-282552
-247139
-211478
-178122
-145363
-114071
-83685.6
-50905.7
-15232.4
-790757
-699918
-721317
-611389
-575658
-510640
-474752
-429789
-394432
-356301
-321868
-285588
-251657
-216007
-181995
-148698
-116851
-85909.4
-52523.6
-16036.6
-790990
-672251
-675901
-592065
-568177
-506545
-480390
-430173
-400656
-359566
-328023
-289861
-255838
-219059
-184971
-151309
-119294
-87804
-53937.6
-16741.7
-1.00865e+06
-706162
-696132
-599148
-561994
-502077
-472477
-427856
-397728
-358350
-327252
-289603
-256826
-220739
-187338
-153532
-121089
-89231
-54982.3
-17337.5
-476916
-529884
-634951
-562118
-554500
-491921
-476548
-426599
-401060
-359592
-329962
-292188
-259324
-223238
-189247
-155120
-122795
-90438.7
-55876.2
-17736.6
-522793
-579107
-647705
-571256
-549755
-488640
-471816
-425187
-398741
-358170
-328546
-291374
-259523
-223994
-190742
-156238
-123491
-90861.5
-55935.4
-17249.1
-565886
-586712
-602907
-557099
-544803
-486639
-470604
-424427
-398988
-358220
-328889
-292263
-260707
-225624
-191844
-156772
-123730
-90771
-55046.3
-15352.1
-325633
-245168
-337412
-290136
-307614
-273765
-265960
-242303
-227452
-205664
-188459
-167920
-149172
-128737
-108958
-88370
-67806.8
-47114.9
-23828.2
-847.683
-398162
-309034
-332029
-296044
-310756
-277043
-270456
-245107
-230316
-207391
-190057
-169128
-150233
-129469
-109374
-88749.6
-68330.5
-47800.4
-24873.9
-3453.06
-459900
-345220
-330562
-303391
-303955
-278236
-269454
-246434
-231360
-210137
-193232
-172144
-152864
-131638
-111195
-90243.9
-69523.4
-49028.5
-26479.1
-5478.35
-573364
-393915
-357224
-320344
-330088
-292087
-285597
-257485
-243515
-219386
-201445
-178566
-158108
-136034
-114951
-93449.3
-72107.2
-51197.8
-28159.7
-6393.25
-410921
-379874
-369988
-339031
-332697
-301097
-286474
-262851
-247188
-224860
-205911
-183378
-162552
-140363
-119032
-97058
-75074.6
-53605.3
-29910.1
-7119.71
-644468
-417130
-414054
-367400
-365091
-322176
-312765
-281176
-262436
-236636
-215622
-191593
-169452
-146854
-124785
-102149
-79238.2
-56883.5
-32252.4
-8279.4
-756063
-408154
-416949
-375185
-359342
-327648
-314785
-286851
-268507
-243830
-222545
-198859
-176870
-153768
-131451
-108265
-84640.1
-60914.9
-35122.6
-9493.21
-389696
-318821
-447403
-398087
-400818
-356597
-341574
-307743
-284888
-260646
-236994
-212929
-189693
-166092
-139595
-115741
-90851.5
-65685.4
-38294.1
-10847.6
-401373
-311926
-454150
-415063
-411805
-380002
-355282
-329102
-303431
-278111
-253035
-228418
-204227
-179501
-152137
-122611
-96381.1
-69954.7
-41283.9
-12029.2
-582038
-430455
-477976
-448381
-451858
-414367
-389014
-357491
-328089
-299438
-271756
-245018
-219069
-191571
-160040
-126770
-100051
-73010.2
-43586.4
-13176.4
-830732
-607869
-560683
-487104
-486086
-446920
-420023
-384264
-350993
-318456
-287085
-257342
-228102
-198286
-164941
-130279
-103453
-75983.5
-45681.5
-14113.8
-912975
-706242
-637489
-526771
-521106
-474274
-447421
-408610
-372055
-336577
-302356
-268724
-235756
-204078
-169094
-134681
-106948
-78615.1
-47759.9
-15130.1
-793460
-751948
-697067
-570732
-547827
-493211
-475947
-428146
-390194
-351452
-315970
-279464
-243921
-209131
-169879
-139994
-110476
-81202
-49539.2
-15992.1
-1.05431e+06
-764451
-728517
-590291
-569728
-504132
-477750
-427571
-393824
-352530
-319218
-282214
-246856
-211348
-177848
-145179
-113938
-83696.1
-51318.4
-16701.2
-836600
-708026
-731821
-604576
-574472
-509272
-474334
-429383
-394226
-356106
-321908
-285502
-251228
-215418
-181644
-148456
-116664
-85899.9
-52924.5
-17427.2
-836750
-682128
-684187
-591194
-566891
-505949
-478716
-428844
-400737
-359239
-328278
-289567
-255601
-218404
-184688
-151174
-119170
-87833.2
-54318.6
-18051
-990634
-716665
-701660
-598301
-561443
-501202
-472264
-427295
-397576
-358295
-327423
-289377
-256743
-219985
-186631
-152949
-121018
-89353.5
-55325.6
-18469.1
-397281
-522049
-633875
-562806
-555698
-491038
-475852
-425864
-399315
-358698
-330299
-291781
-259453
-222232
-188379
-154580
-122631
-90537.6
-56357.9
-18959.1
-383888
-571255
-642888
-572154
-550418
-485226
-470686
-424391
-398165
-357727
-328730
-291068
-259377
-223261
-190219
-155994
-123444
-90935.2
-56458.9
-18732
-339782
-561124
-599917
-554320
-542724
-485787
-469891
-423889
-398994
-358090
-328910
-292090
-260715
-225575
-191932
-156892
-123828
-90850.5
-55182.5
-15639.3
-279720
-315742
-292559
-300057
-279334
-314658
-291839
-252044
-284822
-263413
-272437
-251756
-284284
-263424
-296481
-333458
-307523
-318051
-295472
-332765
-306941
-265736
-299064
-274350
-287443
-265109
-298595
-273944
-337433
-378996
-358554
-356338
-337119
-379019
-358529
-312069
-351437
-331135
-330474
-311753
-351393
-330653
-285026
-324349
-303110
-304564
-284914
-323700
-302719
-260455
-295871
-274952
-278010
-260266
-295620
-274945
-235876
-268224
-248288
-253574
-235676
-268198
-248251
-211037
-241687
-221891
-228875
-210885
-241650
-221851
-185996
-215258
-195369
-204072
-185968
-215208
-195276
-161764
-188665
-168418
-179332
-161814
-188597
-168601
-365648
-410941
-387882
-388643
-365797
-411386
-387882
-337109
-379828
-356006
-358287
-336836
-379631
-355667
-308872
-348227
-325240
-329768
-308413
-347904
-324859
-280091
-317440
-293518
-301276
-279997
-317123
-293437
-252300
-285678
-262717
-272990
-252318
-285641
-262715
-225077
-255243
-233211
-245489
-225166
-255260
-233242
-198121
-225943
-204364
-218381
-198101
-225988
-204382
-171330
-197218
-175742
-191325
-171536
-197180
-175559
-395355
-440317
-415336
-419674
-394979
-440619
-414860
-362992
-406234
-379089
-386746
-362219
-405799
-378924
-330197
-370083
-343301
-354128
-329956
-369952
-343194
-297342
-334532
-308661
-321768
-297192
-334395
-308549
-265859
-300229
-275234
-289200
-265783
-300114
-275081
-235590
-267033
-242827
-258125
-235550
-266888
-242697
-206087
-234869
-211315
-228128
-206058
-234736
-211194
-177228
-203573
-180968
-198740
-177089
-203459
-180853
-420657
-466261
-436797
-449336
-420641
-466711
-437248
-383770
-425485
-398514
-411226
-383668
-425984
-398983
-347568
-387782
-360877
-374533
-347500
-388240
-361067
-312398
-350306
-324261
-338533
-312365
-350516
-324441
-278454
-314278
-288852
-303782
-278325
-314444
-288889
-245422
-279149
-254385
-269977
-245321
-279192
-254375
-213210
-244929
-220436
-237180
-213089
-244954
-220279
-182321
-211285
-187791
-205179
-182229
-211326
-187628
-336886
-379172
-358559
-355670
-336348
-379315
-358392
-311508
-351360
-330507
-329711
-310989
-351092
-330056
-284865
-323520
-302528
-303958
-284806
-322998
-302085
-260138
-295480
-274922
-277959
-259984
-295135
-274814
-235540
-268171
-248213
-253247
-235299
-268059
-248019
-210811
-241603
-221813
-228583
-210719
-241409
-221750
-185947
-215180
-195263
-204176
-185997
-215162
-195547
-161704
-188629
-168687
-179379
-161746
-188997
-169084
-365843
-411710
-387725
-389357
-365725
-411917
-387383
-336731
-379407
-355512
-358150
-336348
-378998
-354955
-308223
-347731
-324599
-329137
-307740
-347083
-323694
-279929
-316889
-293372
-300667
-279748
-316041
-293079
-252302
-285613
-262677
-272831
-252132
-285416
-263337
-225177
-255256
-233266
-245369
-225216
-255526
-233401
-198124
-226015
-204402
-218488
-198387
-226170
-204479
-171538
-197191
-175406
-191676
-171675
-197204
-175352
-394850
-440994
-414618
-420433
-394387
-441339
-414051
-361956
-405481
-378736
-385913
-361122
-404717
-377865
-329725
-369813
-343096
-352977
-328532
-369003
-342513
-297072
-334292
-308458
-320072
-296344
-333756
-307866
-265698
-300000
-274977
-288345
-266123
-299368
-274551
-235528
-266791
-242610
-258028
-235456
-266411
-242240
-206040
-234648
-211104
-228070
-205981
-234264
-210714
-176898
-203370
-180672
-198597
-176838
-202956
-180379
-420511
-467203
-437543
-449857
-420060
-467943
-438005
-383578
-426328
-399230
-410512
-383005
-426738
-399471
-347429
-388475
-361206
-373944
-347005
-388679
-361236
-312320
-350674
-324605
-338076
-311905
-350754
-324667
-278243
-314608
-288961
-303239
-277907
-314671
-288767
-245247
-279278
-254369
-269599
-244895
-279159
-253964
-212998
-244978
-220132
-236732
-212584
-244798
-219941
-182076
-211333
-187508
-204652
-181674
-211140
-187259
-336105
-379681
-358296
-355516
-335744
-379481
-358056
-310750
-350982
-329898
-329137
-310534
-350701
-329534
-284711
-322849
-301951
-303500
-284620
-322459
-301579
-259900
-295026
-274776
-277874
-259901
-294710
-274507
-235199
-268017
-247945
-253216
-235068
-267750
-247689
-210668
-241345
-221747
-228597
-210564
-241166
-221944
-185995
-215214
-195681
-204125
-185962
-215511
-196103
-161555
-189136
-169034
-179442
-161618
-189461
-168849
-365651
-412156
-387301
-389325
-365395
-412087
-387005
-336202
-378878
-354749
-357827
-335827
-378501
-354147
-307561
-346835
-323391
-328566
-307073
-346165
-322530
-298127
-293568
-305424
-300353
-298338
-293452
-305095
-270646
-265876
-277515
-272765
-270480
-265818
-277651
-225251
-255419
-233462
-245130
-225497
-255409
-233680
-198532
-226238
-204509
-218944
-198813
-226427
-204477
-171486
-197203
-175150
-191864
-171180
-197110
-174970
-394241
-441545
-413860
-420830
-393742
-441188
-413193
-360849
-404485
-377565
-385147
-360098
-403753
-376757
-328041
-368701
-342214
-351866
-327013
-367881
-341482
-314864
-312299
-324207
-317752
-316034
-312392
-323226
-282425
-280497
-291554
-288318
-283531
-280394
-290329
-235437
-266247
-242091
-257463
-235480
-265849
-241571
-205963
-234101
-210569
-228108
-205906
-233659
-210370
-176617
-202862
-180164
-198476
-176486
-202675
-179858
-419895
-468447
-438144
-449506
-419267
-468952
-438188
-382770
-426818
-399451
-409637
-382068
-426645
-398989
-346795
-388692
-361204
-373015
-346192
-388261
-360668
-311669
-350751
-324697
-337323
-311218
-350318
-324314
-277776
-314721
-288679
-302683
-277448
-314433
-288267
-244741
-279137
-253836
-269132
-244165
-279068
-253456
-212411
-244799
-219813
-235994
-212139
-244401
-219380
-181460
-210942
-187083
-204290
-181164
-210245
-186730
-335641
-379743
-357986
-355001
-335570
-378993
-357825
-310366
-350621
-329448
-329091
-310097
-350470
-329262
-284564
-322358
-301471
-303403
-284582
-322118
-301187
-259860
-294614
-274377
-278181
-259683
-294371
-274114
-234979
-267620
-247632
-253093
-234853
-267374
-247600
-210496
-241185
-222009
-228410
-210550
-241167
-222071
-185983
-215595
-196176
-204197
-186097
-215663
-196086
-161424
-189448
-168585
-179489
-161178
-189265
-168233
-365312
-412285
-386887
-388872
-365081
-411701
-386454
-335730
-378362
-353977
-357557
-335495
-377936
-353541
-306935
-345992
-322225
-328171
-306576
-345542
-321777
-279116
-314261
-291982
-299528
-278713
-313920
-291260
-251729
-284682
-263118
-271838
-251635
-283938
-261859
-225591
-255474
-233675
-245062
-225674
-254764
-233527
-198797
-226411
-204439
-219174
-198672
-226299
-204315
-170878
-197056
-174640
-191620
-170552
-196895
-174417
-393569
-441136
-412963
-420202
-393032
-439992
-412265
-359892
-403515
-376516
-384424
-359371
-402848
-375898
-326906
-367649
-341330
-351141
-326672
-367044
-340853
-294814
-332650
-306941
-318529
-294644
-332237
-306761
-265569
-298594
-273900
-287044
-264703
-298433
-273787
-235488
-265776
-241477
-257368
-235468
-265631
-241433
-205881
-233614
-210338
-228094
-205807
-233602
-210298
-176139
-202635
-179600
-198313
-175959
-202561
-179403
-419046
-469277
-438109
-447853
-418390
-469220
-437679
-381850
-426509
-398797
-408785
-381270
-425833
-397822
-346026
-388096
-360408
-372219
-345521
-387337
-359291
-311169
-350151
-324178
-336739
-310920
-349402
-323439
-277344
-314401
-288325
-302448
-277098
-314227
-288195
-243962
-279129
-253321
-268751
-243772
-279013
-252973
-212083
-244212
-219276
-235755
-211977
-243877
-218980
-180925
-210087
-186365
-204100
-180732
-209857
-185643
-335599
-379196
-357771
-354955
-336176
-378739
-357642
-309999
-350419
-329205
-329290
-310196
-350318
-329089
-284519
-322053
-301117
-303621
-284766
-321906
-300933
-259581
-294310
-274062
-278321
-259739
-294112
-273879
-234843
-267333
-247578
-253146
-235163
-267153
-247495
-210565
-241151
-222043
-228570
-210871
-241075
-221935
-186118
-215629
-195982
-204288
-186525
-215486
-195640
-160743
-189177
-167827
-179515
-160673
-188821
-167510
-365015
-411744
-386303
-387661
-364936
-411027
-385963
-335423
-377802
-353418
-357380
-335234
-377525
-353112
-306484
-345414
-321660
-327856
-306232
-345089
-321369
-278632
-313841
-291111
-299178
-278399
-313593
-290839
-251587
-283762
-261804
-271541
-251434
-283481
-261658
-225577
-254693
-233488
-244861
-225384
-254567
-233467
-198628
-226276
-204291
-218776
-198369
-226293
-204297
-170166
-196861
-174043
-191326
-169961
-196844
-173983
-392861
-439770
-412050
-418499
-392532
-438781
-411686
-359225
-402654
-375723
-383959
-358890
-402346
-375408
-326561
-366872
-340703
-350640
-326262
-366521
-340392
-294641
-332100
-306701
-318217
-294644
-331812
-306564
-264702
-298379
-273764
-287047
-264602
-298300
-273799
-235470
-265621
-241458
-257279
-235541
-265701
-241722
-205797
-233625
-210303
-228200
-205846
-233838
-210416
-175574
-202554
-179103
-198292
-175551
-202624
-179242
-418201
-469395
-437616
-445973
-417924
-468252
-437258
-381106
-425564
-397546
-408350
-380816
-424666
-396899
-345352
-387141
-359059
-371741
-345049
-386337
-358744
-310838
-349185
-323267
-336286
-310662
-348448
-322926
-277057
-314149
-288122
-302218
-277075
-313587
-287753
-243784
-278909
-252907
-268780
-244094
-278298
-252766
-211964
-243853
-218880
-236008
-212087
-243613
-218984
-180451
-209869
-185053
-204150
-180648
-209712
-185176
-291453
-286646
-284485
-279676
-291472
-286577
-284560
-303500
-310688
-307535
-314414
-303580
-310051
-305962
-296724
-288960
-300349
-291824
-296344
-289417
-299817
-297927
-300201
-293129
-304825
-293306
-304897
-297730
-291280
-279550
-286231
-283956
-286441
-284410
-290882
-303312
-314079
-309930
-306623
-309811
-305539
-302792
-296606
-291609
-288176
-299468
-289312
-299593
-295478
-263563
-258909
-256262
-251941
-263440
-258822
-256252
-274525
-281562
-276926
-284169
-274068
-282047
-276141
-266764
-259729
-269751
-262405
-266640
-259588
-269093
-270536
-272644
-265520
-277058
-265700
-277520
-270121
-263476
-251837
-258582
-256040
-258711
-256156
-263190
-274448
-283950
-280881
-276642
-281986
-275939
-273640
-266721
-262253
-259616
-269616
-259587
-268908
-266465
-306614
-304587
-299672
-296486
-307866
-304891
-298413
-319102
-328686
-324754
-333137
-319963
-328040
-324411
-310710
-303313
-316106
-307178
-311548
-302554
-315750
-314316
-317273
-311313
-323164
-312000
-322780
-314998
-306212
-296332
-303574
-298773
-304779
-298097
-306920
-318761
-332899
-327802
-324071
-327728
-324170
-319047
-310410
-306975
-302494
-315452
-302273
-315511
-310671
-274733
-273053
-268119
-264703
-275702
-272918
-267510
-286667
-295134
-290755
-298752
-287125
-294509
-290502
-279015
-271331
-282535
-274147
-279238
-271197
-282311
-282201
-288184
-279747
-290770
-280252
-290065
-282891
-274528
-264377
-272318
-267770
-272736
-267429
-275159
-286501
-298611
-294479
-290332
-294290
-290364
-286635
-278892
-274007
-270987
-282129
-271094
-282169
-278889
-323714
-344425
-332106
-340342
-323517
-343992
-331797
-297838
-318396
-306033
-309944
-297767
-318061
-305843
-272719
-292373
-280381
-284890
-272693
-292177
-280201
-249168
-267297
-256574
-260116
-249241
-267114
-256417
-225620
-244017
-232802
-236864
-225623
-243825
-232581
-201549
-219770
-208304
-212786
-201680
-219645
-208208
-177754
-195301
-183818
-188844
-177944
-195305
-183799
-156000
-171228
-159510
-165635
-156161
-171228
-159448
-369577
-393865
-387265
-379711
-369293
-393938
-387231
-357562
-349331
-362708
-356706
-349233
-362822
-357569
-331661
-325029
-337622
-330739
-324939
-337499
-331782
-304713
-298311
-311295
-304747
-298280
-311267
-304716
-277890
-272448
-283940
-278094
-272417
-283894
-277903
-252768
-248101
-258663
-253747
-248073
-258643
-252782
-227684
-223426
-233601
-229024
-223396
-233579
-227708
-202231
-198445
-208328
-204123
-198419
-208300
-202253
-176596
-173584
-182702
-179260
-173564
-182711
-176603
-142345
-157853
-144820
-153372
-142563
-157904
-144886
-402162
-427426
-420409
-413774
-402181
-427432
-420855
-388443
-380571
-394394
-388402
-380544
-394503
-388386
-357468
-351001
-365013
-358155
-351002
-365059
-357441
-328655
-323241
-335819
-330130
-323130
-335803
-328719
-299718
-294378
-307034
-301557
-294352
-306967
-299775
-270328
-266099
-277614
-273045
-266091
-277610
-270318
-241882
-238636
-248863
-245460
-238658
-248888
-241852
-214244
-211611
-221089
-218342
-211623
-221116
-214219
-186703
-184572
-193590
-191329
-184544
-193592
-186713
-148522
-164548
-150001
-162029
-148740
-164455
-150107
-434112
-461128
-451341
-446489
-434179
-460345
-451493
-418768
-411202
-425232
-419597
-411162
-425484
-418761
-385840
-379351
-394336
-387279
-379152
-394121
-386070
-351780
-346585
-360382
-354617
-346508
-360325
-351819
-317777
-313732
-326275
-321933
-313705
-326249
-317799
-284902
-281406
-292983
-289305
-281388
-292958
-284937
-253333
-250615
-261152
-258191
-250600
-261120
-253357
-222776
-220765
-230338
-228151
-220766
-230326
-222786
-192973
-191516
-200354
-198790
-191503
-200346
-192981
-152996
-169519
-154768
-166858
-152860
-169420
-154806
-465850
-488713
-481223
-481293
-466037
-489025
-481229
-445487
-439207
-453709
-449228
-439196
-453761
-445491
-406559
-402039