/*--------------------------------*- C++ -*----------------------------------*\
  =========                 |
  \\      /  F ield         | OpenFOAM: The Open Source CFD Toolbox
   \\    /   O peration     | Website:  https://openfoam.org
    \\  /    A nd           | Version:  10
     \\/     M anipulation  |
\*---------------------------------------------------------------------------*/
FoamFile
{
    format      ascii;
    class       surfaceScalarField;
    location    "4.3";
    object      phi;
}
// * * * * * * * * * * * * * * * * * * * * * * * * * * * * * * * * * * * * * //

dimensions      [0 3 -1 0 0 0 0];

internalField   nonuniform List<scalar> 
38556
(
890.58
-359.584
358.891
1252.85
330.489
-692.762
1353.85
98.9544
-199.954
1372.36
76.7169
-95.2258
1305.19
-69.8929
137.059
1350.49
-133.919
88.6195
1315.73
-52.5008
87.262
1280.3
3.15224
32.2812
1226.84
40.0917
13.3656
1211.22
24.3049
-8.67915
1201.77
16.4815
-7.03026
1217.12
-11.4184
-3.93658
1241.32
-28.5368
4.34189
1271.59
-39.6447
9.36785
1300.88
-44.1186
14.8284
1322.76
-46.4969
24.6218
1337.5
-46.5962
31.8525
1347.52
-42.4802
32.4572
1357.81
-30.7525
20.4647
-19.1855
17.43
1237.46
-211.787
-3846.19
1490.94
485.491
-408.477
1757.71
133.004
-300.82
1845.96
122.033
-133.566
1331.68
52.3789
392.008
988.98
-57.6506
266.43
840.791
-66.5239
162.212
836.222
-59.3225
67.0445
865.57
-37.4236
48.1665
907.559
-35.9101
18.2259
941.117
-34.8776
17.8012
965.327
-37.2013
1.57282
976.089
-35.9626
-3.33585
977.554
-32.2487
-8.86142
969.836
-22.2721
-14.1281
956.747
-16.0114
-17.3962
934.548
-2.69531
-21.7016
910.637
6.3511
-24.9203
891.371
27.6825
-39.1689
37.5573
-43.5705
1415.83
1630.36
-1992.82
1790.78
988.386
-877.84
1994.31
364.062
-434.594
1848.89
160.059
107.398
1435.29
150.972
315.006
1152.77
69.2032
155.666
958.618
33.9781
93.6507
884.4
-4.35676
19.2514
854.045
-23.045
15.9767
852.955
-39.0699
4.25004
859.487
-51.2814
9.87153
873.241
-52.4657
1.51037
884.938
-50.2666
2.6079
895.304
-34.3986
-8.21614
900.016
-13.0777
-13.9068
902.608
-2.00496
-16.5988
900.432
20.6938
-21.2123
896.044
30.7958
-20.0571
894.6
48.7078
-19.581
54.4425
-14.9671
643.958
1199.87
3135.12
872.658
984.584
-224.898
572.755
692.988
-29.0231
385.612
424.057
-76.8545
412.558
122.057
1.96955
438.66
45.8308
-2.7297
533.211
-69.4284
8.8558
591.005
-69.555
7.40373
659.54
-120.17
28.5895
709.321
-114.17
25.3189
753.108
-125.345
30.2772
787.375
-106.623
19.8896
814.359
-95.0483
17.7982
839.155
-64.1683
4.97358
860.357
-30.2165
-4.06349
870.602
-5.11964
-7.12981
881.394
22.8782
-12.9767
892.627
33.1914
-13.6285
902.401
53.4582
-14.5237
61.4077
-8.8812
709.916
392.781
-1712.85
955.156
1288.07
-548.724
922.877
984.016
-258.749
888.352
554.013
-95.4314
814.703
277.559
-81.852
775.457
134.585
-49.5087
762.062
-45.4682
-10.5652
770.341
-84.2952
6.46173
778.338
-165.132
36.9649
786.759
-161.447
38.8559
789.423
-173.688
45.6795
796.323
-151.642
38.1182
800.538
-131.068
31.8047
808.909
-87.8885
15.3498
824.19
-49.2214
3.72433
837.92
-16.0598
-2.78995
858.083
9.28922
-6.57445
873.259
26.7926
-8.77656
885.603
49.9718
-8.85761
60.0711
-1.99209
324.73
-328.549
6143.65
238.773
1062.41
311.619
397.386
505.082
320.32
452.275
457.926
41.1984
541.839
184.105
3.89022
617.632
77.9607
-19.1691
716.194
-146.748
2.71805
776.669
-139.221
-5.54943
822.546
-224.827
13.8185
837.343
-195.532
19.2877
827.635
-197.459
33.479
808.44
-163.157
30.7105
781.26
-134.188
30.2998
753.126
-71.9193
12.1647
744.116
-39.0186
-1.19254
746.486
-14.0036
-4.42675
763.427
2.20957
-9.86042
778.53
23.6238
-11.9345
788.095
50.1419
-9.73508
60.2828
-2.43995
-347.168
521.351
2668.68
189.253
525.938
0.0468876
602.031
310.318
-218.015
662.26
298.437
99.2607
798.022
-36.6984
85.0412
855.663
-23.5251
43.845
877.976
-29.8487
22.8078
-66.2027
-31.5431
-64.2748
898.176
-43.589
0.296086
-40.9916
-39.5622
-35.5745
902.416
-51.5968
-0.266243
-69.264
-45.5756
-62.3638
902.388
-51.9035
-3.94257
-52.326
-43.5311
-43.8006
880.57
-45.554
4.19119
-52.4553
-37.0782
-44.7442
839.9
-34.5742
4.60517
-36.5627
-26.7275
-29.228
781.481
-23.2631
17.4846
-28.9248
-17.2791
-23.7869
738.253
-10.4432
15.3372
-15.4564
-6.16317
-11.9652
717.855
-27.1348
8.51449
704.501
-9.46649
8.81628
703.667
0.987158
2.05662
707.198
25.2083
-5.11511
713.132
48.2544
-4.04694
55.4844
1.69831
-1138.63
79.1501
2422.99
-365.161
-33.7915
-213.735
284.759
-10.462
-329.14
641.668
-11.1633
-47.3095
779.607
-196.108
21.471
210.988
-27.2121
0.131078
218.39
209.815
218.251
-25.3507
-24.7727
-24.1569
219.543
-38.0283
-0.375131
-220.748
231.49
-53.1296
-1.20149
-237.89
233.045
-46.367
-0.384876
-224.754
224.994
-51.2402
-0.902468
-225.824
225.787
-44.7509
-0.765946
-222.294
221.751
-33.536
-0.494505
-217.24
213.229
-19.6141
0.362465
-205.694
204.069
-10.7936
1.97579
756.707
-2.70858
4.64022
-198.662
-199.597
-185.058
-186.298
-8.25181
-0.90557
-7.00114
741.401
-6.73797
12.5775
721.575
8.21778
12.595
708.071
36.402
2.31015
700.472
52.4334
3.42036
50.0424
8.05324
192.445
-1248.44
-439.345
789.474
-61.9485
-568.871
1042.75
5.64311
-269.386
1190.21
-61.4369
-97.1778
234.857
-100.639
41.1879
252.168
276.248
290.275
235.795
-32.4519
4.30161
10.4663
-59.9085
60.1069
-10.6788
0.0141484
-56.1821
14.0405
56.822
-13.859
-0.821436
-58.6715
9.41667
59.1906
-9.2505
-0.685262
-56.9825
9.9906
56.9951
-9.66336
-0.339881
-55.8947
10.8661
56.2437
-11.6613
0.446179
-55.0175
8.49391
55.4928
-9.82894
0.859757
-54.3658
4.70476
54.7804
-5.96202
0.842734
-53.6294
1.92797
54.0353
-2.60065
0.266725
-53.6335
211.511
-2.99168
0.842527
-53.8869
-52.2466
-52.3029
787.639
3.97025
15.7467
-206.915
-211.996
-194.85
-200.333
752.778
29.1093
13.9697
726.094
52.218
10.8678
712.018
59.7543
6.75507
46.8026
8.53967
578.57
-335.275
131.524
795.657
-348.4
69.3637
839.394
-77.4406
39.3474
911.464
-131.206
-2.30212
185.805
-72.516
58.443
201.734
211.878
225.48
17.2201
199.054
-37.2206
6.75105
7.69033
-51.7299
54.748
-10.8088
0.100299
15.3877
-57.1944
56.685
-14.4213
-0.456951
12.8634
-55.4639
56.4713
-13.7009
-0.169969
9.94781
-59.5964
59.7478
-10.0806
-0.0185476
11.1226
-58.8058
58.8377
-11.6305
0.475952
13.245
-60.1734
60.893
-14.3226
0.358044
10.7913
-62.6899
63.4331
-12.338
0.80348
4.12772
-65.708
66.2815
-5.73392
1.03266
-66.1179
2.02532
255.137
-2.42435
4.95284
-66.3487
-63.0569
-64.1676
899.889
41.3661
35.8588
-247.999
-254.648
-229.414
-241.083
810.25
73.0934
45.6548
756.846
83.7337
21.8887
735.928
77.0338
3.63833
49.8912
2.60461
316.238
-36.361
-4166.29
344.034
-714.357
338.162
1105.35
-544.373
-294.385
1278
-293.824
-10.0293
212.934
-66.3837
278.561
233.795
265.861
280.716
36.5779
186.621
-38.362
28.0966
10.8662
-41.297
42.1034
-12.2058
0.533169
10.322
-43.6739
45.7319
-12.4831
0.103141
12.2196
-51.7103
53.0472
-14.1258
0.569248
14.4247
-57.7275
59.0957
-16.5195
0.726632
17.9349
-61.5472
61.9302
-18.8201
0.502219
15.9362
-62.5167
62.4993
-16.0779
0.159097
12.8849
-62.2005
62.2547
-12.4914
-0.447752
7.93342
-63.067
63.4597
-7.88473
-0.441442
-64.7291
6.91338
259.069
-11.3525
-1.32298
-63.0228
-63.8012
-61.7543
968.96
64.2104
-3.24393
-258.606
-246.586
-248.28
-235.088
895.405
117.489
29.1599
825.254
128.86
25.0252
788.161
114.485
-0.358062
67.0306
-1.35019
1311.88
-120.212
-928.542
1335.17
-765.357
27.7135
1287.74
-343.478
-153.465
1264.25
-107.093
-163.243
195.13
151.075
167.477
214.252
227.36
242.571
15.3284
187.141
-35.3947
28.0558
10.1153
-48.3622
51.4651
-13.9128
0.694644
18.3949
-54.211
54.4409
-17.4514
-1.1734
19.4153
-54.0334
53.9032
-19.1779
-0.107139
18.071
-52.1959
51.3432
-17.7431
0.524883
17.7092
-49.9483
49.7842
-17.7754
0.230237
15.4834
-50.0426
50.3629
-15.532
-0.271716
11.5528
-51.7947
52.4834
-11.3851
-0.856413
7.47528
-54.5714
55.1733
-7.13951
-0.937608
-56.4342
12.6182
222.819
-9.77672
-6.20537
-54.6699
-55.2735
-53.0777
863.454
75.2047
-38.6647
-221.578
-204.843
-213.105
-196.257
855.215
135.624
-9.89631
833.058
152.704
-1.6881
804.186
145.464
-2.10695
94.5697
-5.36485
2185.45
-2064.68
-3534.07
1266.95
-852.929
1006.07
890.608
-222.19
255.056
800.507
-66.3134
49.3214
775.638
11.9898
163.954
183.944
-183.892
32.693
45.3974
69.7131
14.1544
43.1318
192.382
188.026
190.087
15.1606
174.331
-38.0105
0.444049
7.59946
16.0269
8.3931
13.3837
-153.462
157.661
-54.6711
3.40498
9.96055
13.6272
10.0957
19.5037
-175.966
188.612
-83.0161
0.353731
15.9552
18.9514
15.6058
20.3149
-185.969
190.676
-78.9736
0.912729
17.1489
19.5439
16.3462
19.4028
-193.716
196.713
-71.8572
0.430978
15.8021
18.4456
14.778
15.9458
-192.782
194.623
-55.6945
-0.343269
12.3431
14.7876
11.1202
11.5945
-195.654
199.134
-38.4292
-1.15312
7.6898
10.3422
6.4752
7.03362
-197.48
196.992
-18.7998
0.412138
3.45882
5.85034
2.53292
743.508
33.1225
-24.6457
6.26796
-5.67633
-0.382844
-16.6723
-194.035
-185.54
-181.723
-174.223
769.746
73.4601
-24.4934
789.904
124.74
-9.27284
796.901
142.587
3.11931
792.9
144.582
4.88286
105.956
-3.34369
2068.01
-1457.06
1127.26
1160.38
-150.678
205.382
767.227
-45.4708
216.435
743.166
-25.3829
-16.8695
807.05
-106.109
54.2151
857.88
-229.229
-5.49278
903.763
-188.244
53.4221
36.5595
9.46313
33.2318
9.68448
911.009
-317.229
11.2209
71.6029
83.1138
68.3531
75.6922
869.829
-247.504
15.1853
85.6939
59.4263
77.0803
51.2982
837.198
-272.076
6.53556
84.1721
72.8888
76.4854
64.6251
797.097
-198.833
17.0275
71.1844
48.6467
62.6236
39.4525
768.641
-172.758
17.03
57.9715
42.4113
49.844
33.9572
741.536
-82.7099
17.2096
38.2934
15.5288
30.2778
8.50492
722.172
-30.6032
12.9368
20.0748
3.90414
13.1466
-0.0951395
718.488
34.1491
2.65736
724.566
59.7106
7.67181
742.809
95.9876
10.5093
761.141
113.754
10.5009
780.96
120.37
4.39345
91.6511
6.96565
1867.5
850.84
-642.301
1753.26
592.436
-628.871
1620.76
228.795
-141.77
1619.1
82.0511
-105.773
1457.8
9.56579
45.6258
1348.63
-129.689
9.62642
1202.33
-67.1422
25.201
1080.25
-199.956
4.80766
952.507
-134.788
15.024
870.531
-188.213
-1.88743
807.683
-130.236
-5.74901
764.772
-115.052
-14.7949
739.285
-49.1459
-8.07678
723.282
-14.508
-0.0924487
725.075
25.0758
7.27999
732.369
39.3799
13.0366
747.317
65.4692
15.5705
768.959
74.7585
17.3542
795.507
84.546
9.27575
71.0049
10.2507
1658.57
2774.75
-430.392
1596.3
763.557
-108.849
1428.98
503.204
-107.084
1475.36
207.101
-171.435
1310.66
198.828
-24.5626
1174.91
10.7795
-4.71639
956.539
48.1098
103.122
845.623
-124.426
35.386
764.739
-94.7578
40.8533
726.11
-156.638
7.05434
693.773
-106.932
9.03381
676.576
-91.0092
-6.84616
671.392
-42.5383
-1.42309
682.617
-25.2121
-0.520652
704.322
-1.97565
5.34567
729.011
6.14155
8.55026
749.027
36.7896
8.66344
768.218
44.7054
10.8618
786.804
59.1342
6.82594
58.3318
7.57785
-85.8735
1175.19
-2026.11
625.817
148.069
-96.2025
1215.09
395.224
-481.293
1363.03
189.557
-130.398
1139.21
348.622
74.0261
969.606
74.6461
105.739
804.222
106.06
107.433
742.098
-94.0852
31.7828
708.251
-85.9003
24.99
683.881
-137.97
5.70094
653.657
-90.7695
14.0614
626.597
-68.5066
4.55755
609.774
-32.6279
6.91273
610.095
-28.0619
2.52895
631.014
-23.8892
0.994295
661.583
-21.2921
-3.13501
685.522
16.0451
-3.19473
701.909
29.2379
-0.919274
709.503
52.1892
-0.649219
57.879
1.96695
-220.749
1141.01
-323.461
115.783
-207.97
19.5068
625.441
-168.093
53.6595
515.848
-45.4792
344.629
516.615
112.87
234.985
494.2
35.7867
61.2747
561.073
16.3646
22.8227
605.545
-93.4618
-45.0952
651.907
-113.51
-18.7531
665.412
-125.639
-25.8356
643.363
-81.6949
12.9747
603.341
-41.6542
13.1687
568.225
-22.9603
25.4482
559.04
-39.9204
21.0438
584.93
-68.7178
18.9387
622.796
-67.3308
8.17278
650.553
-11.9093
0.198044
665.379
16.2959
-1.88477
671.247
48.1259
-1.8043
58.1199
-0.701665
1053.77
-461.459
-619.448
828.678
-445.561
462.682
811.285
-517.104
366.403
778.33
-170.679
158.155
694.552
-28.4264
225.074
717.451
13.4774
-0.589369
736.169
-68.5517
66.198
773.026
-104.732
-25.5874
818.981
-128.565
-30.8994
861.253
-74.2058
-93.7047
878.397
-37.3898
-61.4489
861.282
38.9708
-63.5099
788.201
66.0287
-15.908
706.98
51.9732
-10.6728
659.542
-27.4401
6.16062
649.547
-77.219
19.8827
658.622
-32.2429
11.2595
670.509
3.40856
0.999942
678.79
38.1854
1.65946
50.753
3.82552
2589.85
-2146.07
2758.34
-614.046
2142.12
99.1145
1958.92
12.5221
1815.38
115.115
1874.28
-45.422
1705.99
99.7388
1543.24
58.0168
1364.32
50.3518
1344.79
-54.6791
1430.87
-123.463
1583.15
-113.308
1635.62
13.5509
1557.05
130.545
1290.1
239.515
993.525
219.353
841.616
119.666
782.753
62.2714
769.802
51.1369
49.008
860.951
322.969
-902.476
564.205
420.236
-816.252
888.174
13.6431
-537.566
951.601
-88.4456
-70.2073
1027.22
-166.212
227.65
1134.45
-170.519
151.912
1167.54
-96.625
150.797
1185.67
-54.3285
68.4779
1166.01
-9.85902
42.8842
1153.12
-5.03651
9.24828
1137.89
-3.00858
11.2043
1137
-12.5835
9.54292
1141.44
-17.9505
17.8468
1160.32
-29.1269
19.6146
1182.62
-30.2902
22.8218
1210.13
-32.5677
29.6792
1235.36
-27.614
34.2326
1253.41
-20.3469
34.754
1258.97
-6.94406
21.8525
3.16651
21.1118
631.078
289.714
-1461.42
672.024
268.8
-297.987
889.324
-347.48
-156.997
895.247
-234.394
6.45981
808.838
-135.772
447.978
757.483
-89.0091
236.276
721.749
-40.2561
141.576
734.764
-23.7389
23.4399
763.37
-7.64259
17.3436
797.178
-13.2828
-7.33544
822.189
-17.1921
6.97417
837.324
-22.4899
-3.65571
842.954
-23.0993
-3.81784
842.18
-22.1285
-15.0856
834.018
-13.1058
-23.1502
823.226
-8.15897
-31.0131
807.701
4.13541
-37.9252
791.378
15.5884
-44.5332
776.642
28.9662
-60.3423
30.8856
-59.8471
1624.86
2191.53
-1800.43
1411.09
409.273
-804.546
1278.86
-133.096
-516.742
1129.95
-47.8731
69.7798
960.685
66.8456
281.656
850.103
50.209
127.03
764.537
50.0843
88.8765
733.211
12.1235
14.7152
723.244
-2.98063
21.2816
727.888
-16.4264
2.74967
735.343
-28.0282
13.2522
743.748
-31.9102
2.52578
749.029
-30.0136
4.24104
750.854
-22.3011
-9.86789
747.989
-8.54846
-15.5991
743.656
-1.717
-18.7083
734.706
17.4656
-25.5915
726.276
26.9237
-22.9634
719.459
37.7736
-21.5712
37.9479
-16.1757
969.378
1239.84
1125.95
998.553
441.613
-286.412
521.396
320.487
-5.44931
290.111
281.904
-175.347
322.519
79.6577
-43.2507
346.44
52.0166
-28.4589
441.645
-44.2368
7.97223
492.423
-28.7283
-2.52237
558.444
-73.8786
33.4664
602.319
-62.6299
27.6483
641.787
-73.5636
36.3443
667.701
-59.5985
21.6634
686.967
-51.6591
20.1786
699.161
-33.5755
4.05389
706.107
-14.8178
-4.74021
708.013
-1.92232
-8.8305
709.532
18.7055
-15.735
708.635
28.7455
-14.5536
705.292
41.254
-14.6614
42.1133
-7.81314
1414.43
896.365
-2504.89
1415.23
891.679
-999.593
1169.78
846.129
-538.945
996.299
515.529
-155.572
779.728
270.057
-55.6792
670.914
144.173
-32.8522
629.964
-17.7915
3.93974
626.049
-27.8698
9.51842
637.282
-91.3301
43.1832
648.745
-75.383
40.1466
659.073
-89.1871
50.9751
667.423
-68.8057
38.9756
672.995
-58.5045
33.0775
677.174
-35.8986
13.4938
680.332
-17.2048
2.95366
681.712
-3.56329
-2.52818
687.125
15.4027
-8.68494
688.345
27.8541
-9.10535
688.023
40.443
-7.72497
42.0849
1.00705
84.8123
-846.578
464.071
-152.676
843.86
596.927
364.442
445.665
203.666
400.277
464.924
55.9691
417.707
198.713
57.804
452.391
108.941
-18.6206
528.757
-109.008
17.568
566.794
-65.3021
-6.15382
607.262
-141.73
23.7496
622.609
-97.0788
25.637
630.067
-104.153
40.9866
630.275
-71.3397
33.0368
628.305
-56.4172
30.1825
618.811
-25.3817
11.1412
613.573
-13.0879
-0.0715111
612.438
-2.9758
-3.87859
618.238
9.15331
-9.41146
620.738
25.2564
-11.8368
621.995
37.5249
-8.07416
38.8083
1.85002
-433.2
1.68025
2683.25
186.315
594.545
-370.153
385.007
403.047
-374.089
480.418
396.278
72.4956
625.175
70.5857
68.4116
651.78
75.3084
50.872
664.116
-11.8566
17.2124
-49.2551
-9.80509
-44.8309
670.388
-21.9891
2.61786
-20.9446
-15.7687
-15.1938
673.18
-31.9744
7.57139
-49.1542
-27.1281
-44.1026
669.22
-28.0159
4.93051
-28.2572
-22.3231
-23.3953
655.723
-23.3053
14.1215
-31.5749
-18.5471
-27.1586
637.066
-14.3893
9.23436
-17.7878
-10.4834
-14.652
617.654
-7.7418
21.6509
-15.1608
-5.33261
-12.9357
601.952
-2.98503
22.3288
-7.49098
-0.911485
-5.28376
591.503
-7.91454
13.79
584.7
2.60891
10.0352
582.872
11.2815
1.75557
582.564
25.299
-4.84906
585.211
32.5441
-1.71284
31.9935
6.49078
-1243.48
93.1523
943.281
-374.367
195.718
-684.016
75.2047
215.989
-591.655
396.267
201.217
-173.311
567.547
-48.6582
-30.5654
164.592
-1.02726
-7.66283
175.312
149.844
160.616
-5.34088
4.88927
1.76345
-4.23084
174.401
-18.8171
1.38324
-1.72627
-173.821
183.182
-33.6409
4.01674
0.802751
-188.806
185.358
-30.6906
1.36113
3.7449
-178.455
180.129
-32.2875
-1.14774
3.39904
-180.457
179.812
-25.0672
-0.99215
2.94213
-175.102
175.013
-16.6773
-0.565337
1.65703
-171.746
170.392
-8.17974
0.134035
-1.67092
-165.437
165.968
-3.92426
2.0791
615.186
3.25913
12.7992
-162.467
-165.375
-151.912
-154.045
-3.40282
4.4612
-1.77781
604.845
10.3479
15.1789
591.801
25.6358
11.2856
584.983
31.2773
3.14931
584.34
31.6062
5.00138
25.6776
12.6155
1194.36
-1644.94
-3498.74
1032.16
139.032
-349.992
901.69
295.261
-218.183
933.118
133.369
-60.7571
227.19
-21.7646
38.9509
240.972
213.252
227.047
-8.93323
246.471
-14.9045
3.5299
0.925068
5.81185
-61.9479
61.8717
-5.9175
-0.743208
1.35073
-54.7802
10.4368
54.2967
-10.5527
-0.751401
0.719171
-53.248
7.30995
53.0234
-7.49926
-0.30524
0.438905
-49.6609
7.26789
49.4237
-7.40402
-0.0656378
-0.878564
-47.9886
6.50421
48.3177
-7.20118
1.24644
-1.43206
-47.1369
4.3268
47.5933
-5.05085
1.69979
-1.29188
-46.6523
1.89468
47.0282
-2.42915
1.45038
-0.391475
-45.7516
0.778626
45.9751
-1.02743
0.416788
-45.0808
-1.02479
177.216
2.86147
2.6589
-45.514
-43.7616
-44.0962
642.519
35.5704
23.4494
-171.615
-178.012
-160.99
-164.827
622.155
39.9852
19.9838
609.561
41.3265
13.4128
605.938
33.4209
8.56345
21.4298
12.9875
944.187
-580.824
566.78
874.172
195.702
82.7076
761.273
385.729
61.7786
793.848
66.3113
32.1802
183.977
27.6929
71.4139
193.55
172.981
180.912
1.8263
-0.239269
203.313
-11.2867
-9.63629
1.83748
1.9937
-52.1103
54.7222
-3.85361
-2.58946
0.483167
8.72488
-54.6478
53.7913
-8.04999
-0.301527
-0.521804
8.35456
-52.0586
52.194
-8.70954
0.741331
-0.749847
7.86968
-52.4952
52.4434
-8.15664
1.0886
-1.77443
7.99223
-52.12
52.1655
-8.31039
2.04712
-1.66303
6.57016
-52.8798
53.2185
-7.20518
1.95931
-2.24096
2.94715
-54.2278
54.4841
-3.44619
2.48371
-2.14883
0.459709
-54.6214
54.428
-0.374244
2.25681
-53.3568
-7.6106
-5.28794
207.128
10.0435
7.64998
-54.5398
-51.4823
-52.5439
721.711
84.6751
54.6048
-199.752
-212.435
-184.306
-193.069
673.515
85.0185
48.8179
645.589
69.8681
21.2735
631.978
46.7433
3.92708
23.2855
6.32323
-394.332
456.281
-2983.8
-26.0337
-194.245
359.811
493.882
-186.608
-241.964
614.504
-123.975
59.635
177.185
-1.64555
234.3
185.382
159.983
165.554
-57.7079
13.3776
192.727
-20.0716
48.8605
-5.35973
6.08758
-46.5374
47.9556
-7.50795
5.36184
-1.12662
7.19669
-46.3413
46.7815
-8.06544
1.55518
-1.94497
8.8376
-48.628
49.1306
-9.66733
2.27212
-2.40837
10.2786
-50.8081
51.4255
-11.3809
2.89332
-1.89549
10.7867
-53.0913
53.5841
-11.4007
2.01659
-0.402331
8.60552
-54.7962
55.0542
-8.7132
0.252016
1.15711
4.61542
-55.6073
55.8611
-4.64907
-1.3772
1.20393
0.814154
-56.9283
57.3569
-0.959548
-1.4872
-58.2179
1.76257
-11.9633
228.814
11.3489
-3.07359
-56.6246
-56.7381
-55.308
788.184
117.335
16.6586
-223.814
-212.347
-206.223
-198.364
732.405
127.205
42.7525
690.772
108.688
27.839
661.97
72.08
3.1067
34.3013
3.64171
1160.28
969.924
-1665.46
1015.55
-299.894
278.096
686.727
-172.966
161.717
586.637
-69.403
-117.725
129.35
76.9048
172.501
144.311
108.16
121.242
-31.5259
1.25163
155.108
-13.3858
17.902
-2.85045
3.76376
-43.6731
47.0396
-6.34466
2.06479
0.0941098
11.7133
-47.0498
46.9497
-12.1664
0.459146
-0.844516
13.0736
-46.9
46.9332
-13.3832
1.12095
-1.37596
12.7619
-46.4383
46.2256
-12.6535
1.4802
-0.185258
11.3962
-45.5298
45.429
-11.1554
0.0451629
1.54464
8.17231
-45.6101
45.7981
-7.92736
-1.97755
2.89699
4.4577
-46.6342
47.0134
-4.32294
-3.41097
3.08034
1.31333
-48.2558
48.7314
-1.2841
-3.58517
-49.6998
11.0992
-9.56747
196.829
8.04079
-14.2223
-47.6036
-48.4541
-46.4214
718.305
106.898
-27.1186
-193.804
-177.246
-181.583
-166.782
705.219
126.405
3.98909
685.65
120.403
6.16626
658.948
92.5115
4.16333
49.008
-0.494317
342.766
758.331
-1786.17
646.037
-261.699
664.608
523.277
-40.7992
245.649
522.183
-12.241
-6.74604
601.729
11.5675
149.746
153.589
-178.402
40.8637
27.9243
52.3501
34.2909
55.7065
158.509
142.495
147.095
10.97
-10.6968
150.437
-31.8472
11.694
5.96773
11.0293
6.03572
11.7972
-7.96969
-133.477
137.309
-44.6318
7.62522
8.96707
11.5571
8.8228
14.6211
-3.55374
-148.378
154.372
-57.6553
4.67394
11.2564
13.9936
10.6707
14.2729
-4.48904
-150.969
154.07
-53.3929
5.40615
11.133
13.5168
10.4514
12.3219
-3.22858
-156.841
159.036
-42.9649
3.62771
8.70336
11.4457
7.8998
8.66185
-1.42397
-156.46
158.5
-27.8526
0.874582
5.32409
7.79275
4.5838
4.9406
0.780827
-160.325
162.532
-13.0907
-2.33513
1.84065
4.18828
1.46858
1.84991
2.47464
-161.333
163.407
-0.838623
-5.72609
-0.283126
1.25879
-0.809581
625.17
60.1246
-27.5914
-6.53378
-24.1498
-9.98068
-26.7299
-162.998
-154.433
-153.054
-144.47
644.017
83.2654
-19.7064
655.123
106.435
-0.408619
659.607
106.467
12.5714
653.64
93.8833
9.4776
56.5291
-0.237642
1431.63
158.573
-1063.22
620.625
78.1417
676.543
616.421
-26.5002
206.34
543.155
28.9156
15.2397
629.74
-55.0182
34.2164
645.221
-158.669
-40.7065
690.025
-105.402
59.0601
24.9414
5.56573
21.0971
3.356
691.513
-244.558
13.1032
60.7143
63.2873
58.5828
58.6031
657.53
-162.145
31.559
61.1935
34.9001
54.8219
28.838
631.397
-181.457
14.5912
59.5543
46.3964
53.5332
40.0507
603.585
-96.4852
27.2069
43.3986
20.144
36.5079
14.0672
584.579
-69.9209
22.6178
31.1605
15.8249
25.5506
10.803
577.204
-7.09392
12.1162
14.6434
-0.729019
10.1021
-4.45397
579.397
10.8583
12.633
4.1488
-7.66971
1.59976
-10.8259
587.569
49.5025
5.10714
605.13
61.7352
11.641
624.932
82.2981
14.8442
640.521
84.0649
17.3145
650.923
77.9971
9.8774
53.602
9.46172
2187.22
-227.196
2065.06
1540.45
267.697
-171.652
1209.95
153.703
8.52363
1204.78
60.4909
-132.17
1151.59
10.9385
32.8534
1116.88
-107.342
-6.99023
1014.94
-28.4231
50.1597
898.998
-146.209
22.4033
768.366
-60.4883
43.9989
682.782
-108.449
10.6889
625.751
-42.7798
-2.42378
588.244
-36.0578
-11.1511
572.542
1.99404
-1.46279
567.449
13.0243
2.83498
577.602
37.1154
9.51389
595.993
40.1796
16.2013
617.624
57.31
18.9276
638.335
57.9193
22.7888
651.752
59.7256
14.1305
48.513
13.7319
1150.91
1016.8
-428.986
1239
460.009
-389.256
1088.98
392.438
-195.792
1075.5
108.255
-205.721
928.135
120.703
13.0352
862.228
-46.148
-0.00255917
750.239
44.7757
141.912
683.06
-89.1411
45.4969
617.827
-14.305
59.9033
580.35
-73.1754
9.25807
550.707
-16.2161
12.1137
536.064
-20.6653
-7.59602
532.31
2.2074
2.11703
542.392
0.335476
2.08674
561.405
13.7154
9.73296
585.035
15.1038
9.99521
605.469
34.0702
11.4693
621.882
37.6636
14.7048
630.707
47.3569
10.3703
44.7707
11.7687
576.099
162.594
-224.337
978.821
224.158
-263.073
1042.56
365.564
-518.16
1051.3
130.407
-161.291
853.469
315.047
77.5172
739.626
49.3764
124.058
631.976
128.978
130.881
577.66
-40.42
37.3775
553.538
-6.93328
41.7406
529.976
-48.8621
4.94972
513.591
-5.43968
19.6692
498.192
-2.95141
2.24267
491.603
8.27273
7.43645
494.892
-2.45128
2.0267
511.962
-5.99103
3.63097
535.208
-11.3797
0.102492
553.139
14.3047
-1.35978
565.831
22.3509
1.70105
569.946
39.7434
2.84935
42.1959
6.31245
-277.256
-1072.92
-2208.47
91.2993
208.37
-333.261
354.725
191.17
-35.3725
311.092
173.317
345.352
408.152
246.366
206.605
369.319
93.1126
56.3708
426.451
68.3579
26.3104
441.722
-40.4933
-60.2922
474.415
-45.721
-12.6587
478.655
-50.6937
-28.2436
473.133
-1.11532
14.1722
455.951
19.862
7.53796
445.977
23.6821
20.0125
451.714
-3.20561
16.0613
482.653
-43.4262
25.4341
515.827
-48.6445
12.2641
537.749
-10.1102
2.69091
549.425
9.64691
-0.85642
554.475
32.7884
0.100754
37.572
2.70076
-652.403
-668.711
1996.43
-113.193
231.711
-99.8687
231.704
33.2356
179.441
288.952
150.153
124.071
451.327
184.363
124.702
441.623
150.024
-47.7961
512.164
64.1301
-0.114948
543.309
0.70404
-97.9301
587.336
-56.7102
-63.9376
594.078
-55.2377
-95.9019
587.087
-26.218
-29.3553
567.422
22.2592
-46.2415
548.503
36.6231
-9.93003
539.445
8.17989
-13.0008
541.678
-63.8893
24.3912
551.337
-74.6397
36.2191
565.169
-28.8129
16.1296
575.306
0.265912
0.243929
582.829
27.4295
-0.504444
34.5564
2.58138
328.588
-1471.24
595.116
-648.863
612.536
114.93
773.156
2.05474
942.136
130.498
1061.63
-14.8925
1095.62
129.883
1102.03
52.3081
1057.56
38.111
1046.42
-98.7807
1041.16
-144.417
1102.95
-152.839
1181.92
-28.7932
1163.75
156.893
1005.58
333.792
845.937
304.359
766.825
169.965
735.263
94.0994
733.304
80.5254
77.0836
659.78
89.8758
-1059.39
581.822
74.1228
-812.416
624.811
-183.662
-396.894
741.867
-214.186
26.9229
887.097
-203.487
285.907
1023.9
-154.328
169.441
1084.74
-71.788
161.74
1112.95
-32.7394
73.0054
1093.02
5.59806
57.2217
1072.41
6.59272
23.2663
1049.18
5.04508
29.3884
1041.54
-4.94216
22.1237
1042.59
-9.27821
26.0698
1054.58
-16.0313
23.6598
1071.54
-14.9209
20.7822
1096.1
-14.9243
20.0409
1113.87
-4.29697
20.7657
1120.38
4.5866
23.653
1103.75
17.0482
21.4349
23.391
19.9714
0.243263
340.955
-2568.28
233.15
-342.855
-113.916
524.036
-433.351
-198.193
500.974
-245.195
60.53
555.19
-124.88
315.155
581.281
-53.1899
109.046
598.974
0.442156
51.6537
620.926
6.80013
-38.0515
651.435
10.3616
-17.9293
678.204
-0.54306
-26.969
699.048
-5.11487
-3.70939
711.186
-11.2161
-9.51986
716.418
-12.5819
-5.74623
715.71
-11.7707
-18.6377
708.856
-4.57465
-26.6424
700.605
-2.21931
-35.4675
689.385
11.7734
-42.7754
678.015
19.0951
-47.6719
664.111
27.4731
-56.863
25.9279
-50.1917
1827.76
630.116
-1177.75
1330.58
-86.3415
-563.886
955.346
-120.583
-454.273
790.711
-16.901
6.12114
705.174
83.5586
158.755
649.752
66.4295
62.8313
611.924
71.0787
56.0679
595.685
35.8666
1.88793
595.824
15.0518
16.4521
600.838
-3.53394
0.727121
608.911
-10.8994
10.9634
615.047
-15.6379
0.811719
618.911
-15.6124
3.40753
618.046
-11.5575
-9.21642
613.384
-3.94667
-11.5645
606.636
1.5631
-15.7432
595.738
17.4554
-20.3753
585.758
23.3153
-17.2033
577.767
29.7175
-15.8246
27.0561
-9.70187
1843.87
-85.7397
241.668
1076.44
141.444
253.237
538.849
225.062
186.495
249.974
186.457
-89.8304
258.438
54.8161
-22.9714
258.621
60.7151
-22.9281
348.363
-16.8249
6.13389
388.016
1.0279
-7.33608
449.371
-38.1671
25.3298
485.307
-25.5845
13.7631
521.52
-39.0805
28.3121
542.78
-29.2078
13.9732
559.043
-26.4037
14.7069
566.518
-15.5614
0.582567
569.525
-6.62928
-5.06475
568.704
1.29043
-7.736
565.824
16.9473
-12.347
560.79
24.021
-10.2253
554.227
31.48
-9.86115
28.8456
-2.19178
1510.29
775.463
-4721.55
1334.29
577.585
-1259.74
1068.2
529.717
-577.505
878.937
366.561
-146.415
645.315
225.875
6.88335
531.41
143.636
-1.86802
499.476
-3.73209
22.7808
490.093
7.04428
12.8853
503.764
-40.3432
31.6882
514.289
-21.3924
25.4292
528.707
-38.6392
36.1161
537.743
-23.3487
24.081
545.176
-22.7868
22.0274
548.135
-12.3711
7.34421
548.909
-6.55415
2.10544
547.474
2.68613
-2.48936
547.058
15.4894
-6.81117
544.053
24.1649
-6.24404
540.662
31.102
-3.95549
28.8139
5.37237
-1133.44
-16.4235
1139.03
-211.05
449.294
-197.173
265.74
263.821
-7.22735
267.28
390.468
30.5228
280.488
170.748
99.7234
298.059
123.932
-16.4879
374.808
-84.2181
21.3056
399.384
-12.0944
-11.5919
442.594
-83.0214
23.2177
460.994
-32.2012
18.0462
480.43
-49.7101
32.6217
489.889
-22.4245
22.654
497.821
-20.6559
20.1189
497.428
-8.30147
7.46524
495.468
-5.22998
0.564342
493.946
3.02289
-2.69323
495.796
10.0123
-5.78435
495.337
20.8707
-8.0832
495.047
27.2771
-3.95954
24.9225
6.98523
-61.5768
53.77
1248.23
260.265
438.644
-681.345
249.528
310.767
-410.298
329.999
356.716
25.777
463.007
68.3424
37.8096
461.1
136.691
40.0191
476.148
-8.10118
8.81324
-38.1262
-8.02232
-36.6174
477.512
-6.38256
6.04179
-4.89528
-3.59615
-2.00831
488.732
-17.0172
7.82444
-33.7754
-13.2813
-30.4207
491.918
-10.7862
8.44923
-12.5978
-6.65661
-8.86506
492.763
-9.55603
15.2233
-19.4518
-6.35899
-16.2904
488.411
-4.21179
12.8921
-8.27689
-3.37055
-5.87094
487.414
-2.71179
21.553
-8.84419
-0.699129
-7.30523
483.454
2.42221
15.8376
-2.71021
3.79256
-1.35466
479.055
2.36472
10.5941
475.809
9.2212
7.08323
474.52
12.0045
1.05221
474.633
19.0614
-3.15259
477.106
21.8946
1.1962
19.1653
10.2132
-238.935
184.191
121.818
-167.437
342.188
-659.057
-8.43168
225.401
-665.294
221.785
187.012
-233.824
354.831
-42.3271
-52.9412
109.399
15.2674
-0.800639
119.957
91.9634
101.787
12.0356
18.7273
15.5227
-4.46558
118.216
-11.7335
-0.718771
-4.49387
-116.388
127.189
-17.2906
4.60089
-0.241138
-135.489
135.781
-18.3378
1.26976
1.3268
-131.79
135.948
-17.8518
1.58044
0.937061
-137.833
138.715
-12.4269
1.05162
-0.00643139
-135.528
137.356
-7.37382
1.34008
-0.634345
-135.965
136.689
-3.88519
1.08343
-1.9841
-133.262
135.134
0.251535
2.28281
495.411
7.11086
14.4022
-132.096
-134.658
-121.028
-122.446
-0.55462
8.64439
0.377817
488.31
20.1826
11.3188
481.215
23.9759
6.40906
478.964
22.4469
2.01546
481.211
19.6723
4.97607
14.4748
14.7762
739.303
-723.927
-2498.72
756.323
369.947
-394.772
647.28
312.796
-196.535
702.294
128.329
-57.0885
172.976
-5.54954
26.8633
187.416
151.399
165.814
-2.86159
190.451
1.40053
-0.746808
-1.40396
3.44313
-48.2788
48.0611
-3.0223
1.20085
-0.317906
-42.1739
6.3822
41.8773
-6.48198
0.714269
-0.345261
-41.1578
4.77588
41.1918
-5.06986
0.605227
-0.551739
-39.2534
4.69658
39.4919
-5.21517
0.831844
-1.42437
-39.0389
3.46971
39.5515
-4.1258
1.56785
-1.71409
-38.8762
1.88588
39.322
-2.39424
1.77669
-1.12715
-38.6825
0.768897
39.0147
-1.07581
1.10186
-0.529945
-37.8882
-0.450091
38.1324
0.168297
0.567505
-37.2405
-3.19267
145.167
8.28885
3.26474
-37.4498
-35.8332
-35.894
516.695
43.1392
23.7451
-139.801
-143.031
-127.934
-129.181
507.147
35.2642
18.2432
502.242
29.1019
11.6629
502.692
19.4612
8.32438
11.8257
14.8032
874.408
59.1407
897.823
756.046
451.821
119.195
575.579
494.715
60.3267
597.901
110.035
28.1527
137.377
68.6662
69.8744
145.027
117.686
125.135
7.31099
-10.177
157.208
-6.19699
-10.768
2.08825
0.355369
-41.2701
43.6492
-2.55129
-2.27142
-0.403668
5.67187
-43.0512
42.7685
-5.57214
0.58663
-1.28695
5.69767
-42.616
42.8334
-5.98536
1.35726
-1.95511
5.64988
-43.4475
43.5811
-5.82121
1.99275
-44.0229
-2.27271