/*--------------------------------*- C++ -*----------------------------------*\
  =========                 |
  \\      /  F ield         | OpenFOAM: The Open Source CFD Toolbox
   \\    /   O peration     | Website:  https://openfoam.org
    \\  /    A nd           | Version:  10
     \\/     M anipulation  |
\*---------------------------------------------------------------------------*/
FoamFile
{
    format      ascii;
    class       surfaceScalarField;
    location    "4.3";
    object      phi_0;
}
// * * * * * * * * * * * * * * * * * * * * * * * * * * * * * * * * * * * * * //

dimensions      [0 3 -1 0 0 0 0];

internalField   nonuniform List<scalar> 
38556
(
524.184
-843.561
-517.156
1118.93
71.9557
-666.701
1285.06
-10.2507
-155.88
1348.35
14.7037
-77.995
1299.93
-95.2636
143.683
1357.64
-147.406
89.6956
1330.59
-59.4627
86.511
1300.68
-0.177601
30.0944
1253.25
33.2249
14.2063
1242.68
17.7568
-7.19645
1237.23
10.7361
-5.2849
1256.18
-16.2819
-2.66792
1283.84
-33.4488
5.79299
1316.7
-43.3042
10.4439
1347.74
-46.6589
15.6161
1370.94
-48.2915
25.0894
1386.97
-47.9874
31.9588
1398.82
-44.0711
32.2244
1411.14
-32.2252
19.9094
-20.2778
16.9239
1271.86
-793.312
-3243.57
1537.78
157.582
-351.551
1741.51
9.92031
-223.9
1834.39
42.349
-120.525
1321.97
8.39932
408.758
990.463
-83.6124
267.715
855.941
-84.8452
159.905
860.981
-73.4961
68.2787
895.259
-49.2797
48.2268
941.711
-47.5841
18.8888
978.716
-45.5028
19.2339
1006.92
-47.0696
2.58569
1020.27
-44.5832
-2.21994
1023.84
-39.4033
-7.46658
1017.34
-27.3729
-12.7839
1005.16
-19.6757
-16.441
983.991
-4.89446
-21.9238
961.706
3.93644
-25.7226
944.421
25.219
-40.1584
35.9676
-45.0716
1666.16
1906.77
-1619.64
1783.18
915.073
-874.504
1972.17
280.131
-459.204
1831.02
86.3585
97.1411
1425.44
101.55
312.429
1157.16
32.9498
151.716
973.205
12.2335
86.8761
907.475
-27.2803
19.5141
883.611
-44.9311
19.516
887.737
-58.3716
6.66136
899.083
-69.3909
12.5422
916.75
-68.2501
3.51293
931.369
-63.7945
4.59241
943.788
-45.0948
-6.72704
949.443
-19.5974
-13.4305
951.154
-4.21803
-17.1686
951.579
15.4756
-20.795
948.636
26.1818
-19.3022
948.685
45.2061
-20.0369
52.4501
-17.0626
744.261
1235.79
2374.63
911.24
1003.83
-255.737
593.199
620.649
-22.4758
400.72
351.339
-72.5017
430.003
69.0634
3.20401
461.856
7.13471
-6.03806
561.59
-100.555
13.0554
621.923
-97.2618
9.648
696.479
-148.112
28.6253
750.407
-139.379
27.0792
797.884
-148.173
31.3049
834.66
-126.295
21.2696
863.685
-111.925
19.1047
890.046
-77.773
6.31769
912.33
-39.3618
-2.51943
922.899
-8.82527
-5.96144
934.404
16.6684
-12.6979
946.811
27.0923
-13.318
958.16
48.8814
-15.024
58.9927
-11.2022
709.861
183.084
-491.891
963.571
1243.49
-493.368
944.746
876.811
-237.337
911.925
477.947
-93.7869
840.696
221.381
-81.0888
803.147
93.9104
-49.2266
791.004
-85.9268
-2.48508
802.993
-120.439
11.1881
817.342
-203.658
41.1977
830.21
-194.682
42.435
836.517
-202.776
48.2956
846.04
-176.483
40.6657
852.157
-152.108
34.0662
861.6
-104.799
17.583
878.594
-61.888
5.53241
894.117
-23.2405
-1.10845
912.647
6.41748
-8.27863
929.111
19.3364
-8.70866
943.355
44.139
-9.50117
57.0737
-4.1322
272.656
-129.446
6274.39
289.613
956.243
270.289
437.866
416.528
312.03
495.541
381.935
38.3378
579.015
141.719
-3.8118
653.638
41.8188
-22.5316
757.225
-188.665
-0.848364
820.619
-179.095
-4.73804
870.443
-267.208
13.7261
887.37
-232.174
20.5654
880.044
-230.248
34.7978
862.138
-191.061
32.4835
836.463
-158.164
31.7317
808.837
-90.1812
13.0075
800.568
-53.3187
-0.299668
805.01
-23.6853
-3.99729
821.441
-1.28232
-8.73109
837.158
14.9896
-11.3708
848.499
42.9577
-10.1596
56.7617
-4.50284
-341.635
881.399
2334.2
267.35
521.732
-174.475
663.734
284.499
-264.355
710.325
241.044
94.2993
833.373
-63.0298
81.7011
887.312
-48.0465
35.9262
921.323
-44.8361
30.0659
-81.7572
-46.7009
-79.4485
946.684
-57.9611
4.87471
-52.3472
-53.2915
-45.7305
954.047
-64.9536
2.07662
-80.3908
-58.2616
-73.0419
957.373
-64.4602
-1.8531
-61.3441
-55.5492
-52.2934
937.409
-56.9403
6.78738
-60.1605
-47.8618
-52.109
897.672
-44.7996
6.86658
-42.5497
-36.2471
-34.5942
840.136
-31.8849
17.7878
-33.5738
-25.0945
-27.8625
796.472
-17.3955
16.3671
-18.4455
-11.8934
-15.1509
776.723
-41.7715
8.20228
765.144
-20.3342
8.22771
765.519
-3.51608
1.85902
769.642
15.2706
-4.40474
777.007
40.2763
-4.68318
51.6152
-0.239125
-1156.68
-24.8746
1771.22
-343.654
-36.4969
-254.801
340.12
-48.053
-351.222
677.885
-28.532
-68.1894
837.909
-258.566
35.5122
231.146
-43.1112
30.1549
228.904
230.038
228.785
-39.2679
-38.9997
-37.7865
234.675
-48.1331
-0.23187
-234.549
245.304
-67.3949
-1.32126
-252.721
246.688
-59.0482
0.127848
-239.278
238.79
-63.1603
-0.811746
-241.353
240.145
-55.2432
-0.489069
-238.335
236.344
-42.5737
-0.23481
-233.532
227.554
-26.603
0.69611
-221.401
218.201
-15.3196
1.12486
818.778
-4.94472
2.63018
-213.451
-216.773
-199.889
-203.325
-11.946
-2.19685
-10.6545
804.929
-17.2346
10.7492
788.083
3.22711
10.1026
775.183
25.5633
2.60815
768.113
44.6824
2.66351
46.3769
5.6578
302.582
-1605.25
-652.954
886.59
-220.343
-400.163
1102.64
-2.91746
-261.181
1241.09
-78.2156
-88.7698
252.975
-166.685
49.2914
256.653
294.617
295.671
249.553
-44.2089
4.52049
14.8796
-64.9382
63.6874
-13.9099
0.281156
-59.831
18.0552
60.3879
-17.9017
-0.710338
-62.8057
12.931
63.0481
-12.5807
-0.592688
-60.9842
13.533
60.5638
-12.8496
-0.262992
-59.9844
14.1805
59.9412
-14.6867
0.54938
-59.1788
11.4354
59.2346
-12.4456
0.954459
-58.5851
7.09392
58.6061
-8.00486
0.889997
-57.8743
3.57599
57.9379
-3.86214
0.222555
-57.3575
227.479
-5.00365
0.912873
-58.3554
-55.9183
-56.7021
855.863
-2.41788
10.567
-222.594
-229.882
-210.573
-218.198
824.589
18.4693
16.0317
796.921
42.3273
10.9041
783.318
52.5754
5.70929
43.4233
6.09135
770.946
141.549
962.564
806.392
-415.41
159.621
872.115
-105.812
37.1703
972.316
-223.227
44.8101
208.755
-119.298
40.1853
208.448
234.651
232.889
39.2283
215.684
-52.8839
6.72697
13.2096
-57.877
59.3643
-14.6382
-0.0587066
19.9698
-61.8148
61.2006
-18.9623
-0.393246
16.6131
-60.053
61.1857
-17.5952
-0.150573
13.207
-64.4567
64.5964
-13.3448
-0.00189847
14.3423
-63.4597
63.5028
-14.8792
0.493734
16.034
-64.8397
65.5358
-17.1152
0.385106
13.0127
-67.3066
68.0638
-14.5265
0.756568
5.62227
-70.3599
70.9512
-7.29691
1.08333
-70.3044
4.79745
273.18
-5.09706
5.09552
-71.3333
-67.2262
-69.1115
972.787
28.9552
40.9037
-264.569
-273.992
-246.163
-260.339
883.682
61.2984
46.2755
830.362
74.086
21.5616
810.808
70.2982
1.83118
46.4512
0.669141
117.851
27.2776
-5548.13
475.151
-911.609
138.9
1209.02
-686.034
-153.652
1374.43
-389.965
1.3332
240.114
-80.1963
265.449
244.478
292.51
292.777
61.8097
205.177
-51.8774
25.0048
16.3392
-48.1365
47.4073
-15.9684
0.358454
14.5667
-49.1907
51.3299
-17.0123
0.306285
16.2833
-57.3642
58.6508
-18.2139
0.644076
18.0847
-63.3079
64.6489
-20.2417
0.815986
21.1408
-67.014
67.3379
-22.0045
0.539749
18.5933
-67.8042
67.7509
-18.7328
0.192825
14.9501
-67.3715
67.4083
-14.5466
-0.440301
9.43779
-68.1694
68.545
-9.39476
-0.418607
-69.4122
10.1219
278.295
-14.5453
-0.459908
-68.4603
-68.4395
-67.0996
1045.12
50.0911
-0.337372
-276.962
-267.021
-266.529
-255.405
971.546
104.919
29.9533
901.669
119.126
24.8367
866.061
107.833
-1.92713
63.5384
-3.29874
1165.09
-274.126
-2248.37
1497.42
-1019.4
-224.528
1443.94
-449.698
-182.863
1370.06
-133.612
-182.466
229.236
110.906
191.331
234.799
260.734
262.855
42.3864
213.249
-51.0713
24.6714
15.8745
-56.7865
58.2217
-17.7277
0.418029
23.0772
-60.8226
60.9068
-21.9555
-1.20592
23.5606
-60.3964
60.2365
-23.3223
-0.0784605
21.7272
-58.4399
57.5103
-21.3483
0.550535
20.9004
-55.8877
55.6617
-20.9258
0.251389
18.1662
-55.8904
56.1756
-18.2141
-0.237286
13.6793
-57.5486
58.2046
-13.5307
-0.804701
9.04649
-60.1942
60.7374
-8.73489
-0.85474
-61.3882
16.3823
243.696
-13.8351
-5.60599
-60.3657
-60.1802
-58.7027
944.161
57.6401
-36.0146
-240.102
-226.256
-231.758
-217.58
935.509
122.421
-8.84977
912.803
143.141
-1.30909
884.881
138.951
-3.19483
91.1344
-7.51778
2397.7
-2157.22
-3689.31
1441.31
-920.682
857.661
1059.86
-290.411
222.167
946.642
-73.5808
53.185
905.167
-5.80452
158.184
221.03
-249.166
30.6019
61.5252
93.3836
22.5891
62.7913
220.094
224.878
217.44
19.2001
205.447
-47.9685
-0.971983
12.3608
19.7378
13.2244
16.3059
-181.023
186.291
-69.0769
2.36862
14.209
16.5551
14.37
22.3803
-204.52
216.482
-96.5375
-0.42816
20.8208
21.687
20.1161
22.5803
-213.075
217.118
-90.6912
0.405528
21.4002
21.7691
20.4933
21.2837
-219.925
222.311
-82.0357
-0.202429
19.7212
20.2838
18.5626
17.4957
-217.971
219.516
-64.4641
-1.13686
15.8045
16.3015
14.4542
12.8366
-220.341
223.933
-45.9977
-1.89517
10.6649
11.5481
9.25144
8.00251
-221.073
221.006
-24.7752
-0.0690061
5.713
6.72445
4.47202
832.918
19.4973
-19.8649
8.67646
-5.26014
2.10679
-12.5578
-214.899
-209.737
-202.519
-198.36
855.868
57.0417
-22.3512
874.493
112.133
-8.33672
880.346
133.492
3.79571
877.074
138.406
3.81646
102.708
-5.24798
2184.03
-1193.38
306.953
1265.56
-29.8368
27.6288
920.183
-70.3433
125.306
891.182
-34.5177
-10.062
960.982
-152.82
77.2152
996.687
-284.042
-0.829405
1038.65
-227.826
54.0323
48.1603
21.6021
44.6091
17.4557
1034.43
-362.162
10.6607
80.9438
102.89
77.1749
94.7185
985.66
-285.338
13.6419
92.4546
76.6272
83.8136
67.5688
947.084
-306.707
5.42975
89.7502
88.4543
81.9579
79.6899
903.029
-228.28
13.3459
75.795
62.9858
67.2315
52.9769
871.789
-198.944
13.441
61.821
55.191
53.6843
46.046
841.53
-102.808
16.8857
41.3891
25.2254
33.2538
16.3137
821.614
-44.4358
19.0702
22.7515
6.09269
15.2797
1.15766
813.423
20.9791
6.70851
815.27
46.0675
9.12714
831.202
84.8984
11.3029
848.008
105.51
11.1757
868.184
114.721
3.51007
88.8046
4.64169
1676.27
427.323
-1080.8
1856.22
550.067
-759.853
1799.68
167.161
-180.961
1806.01
50.9291
-91.7821
1629.19
-24.1571
48.1621
1498.19
-164.906
11.8578
1341.29
-99.91
28.9908
1208.53
-236.154
6.74849
1072.3
-165.65
16.5396
984.752
-218.113
-1.04241
916.591
-156.349
-3.77017
871.053
-137.213
-16.1921
843.087
-65.0677
-9.77401
825.845
-26.4462
-0.747377
823.097
14.5338
9.19295
826.31
28.7027
14.1518
838.806
56.0064
16.3962
858.755
67.5282
18.0327
885.367
79.5948
8.51437
68.6521
7.80933
1567.22
2117.9
-949.604
1714.02
594.103
-190.84
1597.75
444.332
-160.9
1650.46
173.792
-175.572
1473.1
171.441
-18.2334
1326.69
-14.0723
-4.42484
1098
26.0158
102.761
976.407
-149.467
34.9096
887.149
-115.367
38.9755
842.582
-180.073
6.52653
805.738
-126.713
7.20752
785.622
-107.941
-9.15557
778.806
-55.1013
-3.15105
788.296
-36.7416
0.805596
805.222
-10.8388
8.44615
825.092
0.264181
8.56926
843.1
28.5972
9.40093
860.422
38.6084
11.5978
878.967
55.0666
5.98309
56.4734
5.33121
111.737
1138.84
-1422.12
877.802
38.7629
-210.725
1433.43
407.937
-519.23
1568.53
177.165
-138.472
1306.73
348.172
85.0628
1123.3
61.1725
108.191
944.906
93.6931
110.714
874.058
-110.916
32.2954
832.82
-102.996
28.8665
801.734
-154.204
5.21728
767.617
-105.326
12.7305
736.765
-81.403
4.3137
717.581
-42.8457
6.92788
715.689
-37.1848
2.33587
732.982
-31.7776
3.64541
761.303
-27.108
-0.94869
781.728
10.4648
-2.29267
796.056
24.8217
-0.541645
803.445
49.3145
-1.63595
56.6661
0.146444
-128.375
946.864
81.0869
186.159
-385.131
109.361
775.514
-229.362
47.9439
670.763
-67.6549
349.571
671.026
99.5234
248.385
640.257
24.4079
67.5336
700.883
6.32638
26.7406
738.243
-105.428
-42.8478
778.407
-124.738
-18.4221
785.555
-135.552
-25.8004
759.05
-90.1175
11.2964
715.619
-47.9121
9.9398
677.632
-28.5062
23.6476
665.839
-46.4928
21.1014
688.629
-74.3323
19.7645
723.829
-71.4579
9.15
748.368
-14.0386
-0.0354773
761.126
13.7316
-1.66879
766.743
46.5887
-2.89083
57.7351
-2.28475
1409.07
-985.876
100.139
1021.23
-623.594
626.308
1010.32
-547.987
329.531
966.94
-182.678
158.403
857.654
-37.4993
246.309
869.769
4.46145
7.83145
875.974
-77.0908
77.2124
905.825
-110.805
-24.4748
945.372
-133.609
-30.6756
983.191
-78.0014
-95.3687
995.728
-40.7675
-61.8873
974.898
36.8044
-63.8862
898.047
63.0501
-14.7054
813.763
48.0986
-10.3078
763.185
-31.795
8.0404
750.026
-79.5062
21.2073
757.419
-32.984
11.5528
767.483
2.65515
1.01288
775.364
38.1188
0.588335
51.3081
2.13891
3402.95
-1443.52
3062.09
-282.734
2341.64
172.459
2147.1
11.8676
1975.04
134.558
2025.53
-46.0295
1841.92
106.522
1672.98
58.1304
1489.56
49.8161
1468.6
-57.044
1553
-125.163
1701.63
-111.829
1747.34
17.3425
1661.86
133.572
1388.27
241.796
1090.21
218.56
938.796
118.427
879.855
61.5966
866.795
51.1788
48.8622
537.877
-173.639
-1083.12
386.709
169.838
-685.372
813.293
-69.2106
-513.253
926.612
-136.427
-54.8874
1022.55
-185.747
233.489
1142.78
-182.957
152.427
1184
-104.505
149.796
1208.66
-61.658
67.0885
1193.7
-14.6241
43.7935
1185.11
-8.92514
10.3128
1173.47
-6.39566
12.7584
1176.09
-16.6282
11.3328
1183.75
-21.9958
20.1319
1205.34
-32.5296
21.3894
1229.54
-32.5691
23.9764
1258.5
-34.1486
30.2855
1284.99
-28.9698
34.4402
1304.62
-21.9369
34.5285
1311.97
-8.26283
20.82
2.77238
19.5298
615.684
-255.584
-920.81
632.923
0.968088
-199.921
857.908
-437.675
-80.4215
874.419
-289.531
16.0693
804.197
-166.716
459.95
766.223
-113.933
236.665
739.366
-56.3319
138.589
759.793
-36.255
22.4488
793.813
-17.6193
17.2024
831.741
-23.6114
-4.3533
860.463
-26.1341
10.2505
879.085
-30.6674
-1.99675
887.274
-30.3529
-2.05224
888.742
-28.4525
-13.0116
881.817
-17.1903
-21.2378
871.798
-10.8543
-29.7164
857.417
2.91608
-39.4288
842.813
12.2244
-45.2795
829.479
26.3847
-61.4725
29.0441
-61.7409
1732.64
2252.35
-1580.76
1396.61
273.521
-811.021
1254.73
-223.666
-531.34
1118.1
-117.786
62.0245
959.039
23.6656
281.112
859.84
15.8132
121.169
783.064
24.9577
82.3622
757.913
-3.59744
12.0077
753.566
-17.3862
23.6304
763.361
-33.6111
6.86612
775.434
-42.6842
17.0192
787.563
-44.9828
5.69896
795.733
-40.9754
7.04547
799.511
-31.0845
-7.87295
797.594
-14.3525
-14.3514
792.669
-3.72357
-19.3747
786.134
12.5813
-23.9256
778.924
22.2746
-22.1426
772.977
34.1791
-21.8838
35.8427
-20.4131
1148.51
1394.91
780.54
1059.8
479.092
-372.602
547.124
263.982
2.55398
308.973
222.739
-174.875
344.447
31.0188
-39.6226
371.913
12.4055
-30.0971
470.367
-74.4392
13.9987
523.9
-54.246
6.76359
596.196
-96.9053
35.8487
643.588
-82.9198
28.9963
686.97
-92.9296
38.1681
715.202
-75.9581
24.0122
736.581
-65.6103
22.3606
750.195
-44.0729
5.69237
758.368
-21.7912
-3.25352
760.517
-3.8425
-7.99117
762.704
12.8339
-15.1375
762.72
22.6906
-13.7503
760.277
36.6388
-15.0414
39.5419
-12.3321
1294.03
448.046
-1990.85
1405.92
852.798
-978.959
1189.81
749.252
-506.497
1019.76
443.393
-144.391
805.497
214.514
-50.3228
699.899
100.394
-31.6176
659.343
-51.9347
15.5662
659.25
-59.9605
16.9961
676.988
-123.595
50.1492
692.7
-101.785
45.5882
706.85
-114.349
55.5652
717.604
-89.2491
43.2025
725.016
-75.479
36.5229
730.256
-48.0716
16.3414
734.906
-25.9079
4.99964
737.583
-6.04306
-1.58553
742.096
9.74291
-9.70048
744.186
20.3292
-8.437
744.97
34.6382
-8.28523
39.0575
-3.50949
-210.423
-900.717
868.067
-46.3073
731.948
227.023
402.556
361.348
251.071
447.876
390.156
46.254
455.599
156.936
46.0427
488.622
68.7013
-23.861
571.136
-145.881
10.5836
610.813
-99.8019
-4.57373
655.753
-178.128
23.3182
673.14
-125.888
27.2812
683.322
-131.675
41.9422
684.753
-92.6357
34.439
684.112
-74.3429
31.2366
674.775
-38.3138
12.5869
670.673
-22.9154
0.809171
671.237
-6.75998
-3.84387
676.249
5.55851
-9.55861
679.373
16.2613
-10.4268
681.677
30.4053
-8.23077
35.3307
-2.44212
-199.93
140.434
2142.41
314.815
605.448
-562.719
452.794
365.2
-406.185
531.914
331.822
73.5129
660.695
51.0179
58.8387
686.354
44.3172
34.6518
707.414
-23.381
26.2224
-62.6517
-19.6001
-57.4647
718.817
-33.7021
9.98735
-31.359
-26.8384
-24.418
724.844
-43.167
11.2398
-59.0625
-37.5676
-53.5212
724.469
-38.4808
7.91572
-34.6591
-31.8531
-30.2886
712.855
-32.5488
16.8369
-37.9751
-26.9276
-32.659
695.538
-21.968
12.1261
-22.0641
-17.6839
-18.8621
676.909
-14.0078
22.6003
-19.0505
-10.73
-16.7379
660.829
-4.31592
20.1927
-11.1656
-1.69889
-8.87965
650.679
-16.306
11.7435
645.585
-2.43938
9.00062
644.99
6.28888
1.72358
644.971
15.274
-3.39834
648.431
24.8134
-2.55125
28.3036
2.44999
-1203.21
86.7723
2076.63
-371.517
156.398
-637.441
129.551
129.948
-617.038
440.826
127.534
-175.176
629.727
-74.2644
-28.1063
183.018
-3.85368
11.8677
185.229
168.184
170.819
-10.2421
2.19139
-3.01425
-4.12144
189.539
-26.4468
0.666305
-0.959795
-187.387
197.048
-44.7497
2.34614
0.336073
-203.553
199.18
-40.9689
1.83941
4.10962
-192.852
193.906
-41.9423
-1.70147
3.23022
-195.94
194.091
-33.2684
-0.661574
3.11683
-190.741
189.54
-22.9338
-0.950143
2.06691
-187.656
184.919
-12.7729
-0.565053
0.331083
-180.805
180.777
-5.72628
1.10729
677.674
2.29152
11.2839
-177.067
-182.106
-166.525
-170.71
-6.75677
3.4465
-5.20754
668.569
4.09335
13.3213
658.874
14.4404
11.6467
652.109
20.6728
3.97433
651.481
23.949
4.15508
22.0117
8.33229
1095.42
-1742.35
-2577.2
1079.13
76.8435
-304.309
963.564
189.534
-205.205
983.362
81.6125
-62.6472
245.622
-35.1824
36.6964
246.725
231.644
232.884
-9.68217
261.051
-14.1119
4.51185
0.551451
8.78064
-66.5688
65.3205
-7.78057
-0.303286
1.13786
-58.1578
13.3999
57.6711
-13.5471
-0.503954
0.559974
-57.0111
9.9278
56.6093
-9.96722
-0.118715
0.263874
-53.4162
9.95259
52.8878
-9.79389
0.10582
-1.00845
-51.8501
8.95217
51.8712
-9.35345
1.38867
-1.54982
-51.0541
6.2969
51.1988
-6.76126
1.86951
-1.24879
-50.5935
3.36301
50.7314
-3.62956
1.3774
-0.279959
-49.6135
1.131
49.8265
-1.5073
0.443227
-48.6125
-0.757653
192.952
1.4583
2.31782
-49.6493
-47.2547
-48.1623
712.032
21.0248
23.4269
-187.003
-195.714
-176.421
-182.685
693.699
27.9724
20.8324
680.557
31.42
13.2996
676.916
26.2304
7.06799
17.9118
8.61627
939.283
-609.431
626.019
916.241
153.532
105.975
812.312
253.286
77.3474
851.516
44.9189
42.2997
206.776
8.78434
53.2407
202.274
195.556
189.888
4.38977
7.74506
219.489
-13.0267
-11.8202
2.49908
4.85301
-57.5211
59.0314
-5.60093
-3.26151
0.48564
11.8971
-58.9165
58.0148
-11.2031
-0.277997
-0.568335
10.9894
-56.3844
56.551
-11.4139
0.826236
-0.940254
10.3125
-56.8621
56.823
-10.6412
1.3081
-1.9124
10.3033
-56.4458
56.4622
-10.6326
2.22521
-1.71275
8.47166
-57.2222
57.561
-9.16544
2.06772
-2.2482
4.34615
-58.5911
58.8517
-4.8294
2.47091
-2.07561
0.950975
-58.9877
58.7878
-0.752125
2.07671
-57.4521
-7.67478
-2.86601
225.003
6.17801
8.91457
-59.2833
-55.5487
-57.2704
794.615
70.2419
59.1045
-216.754
-231.764
-201.189
-212.326
747.427
72.6909
48.7441
719.396
60.1029
20.9102
706.278
39.8866
1.29279
19.9222
2.26296
-321.19
426.931
-2531.22
0.00424165
-203.742
174.979
575.697
-276.685
-199.373
700.228
-137.763
59.4848
203.498
-15.6976
224.992
197.795
186.018
177.856
-52.8846
22.6541
211.238
-21.9937
44.4842
-4.79729
9.75258
-52.679
52.8566
-9.88034
4.74739
-1.38446
10.1951
-51.3776
51.8495
-11.0952
1.81266
-2.22007
11.6217
-53.685
54.1717
-12.5209
2.63258
-2.7226
12.9438
-55.8462
56.4662
-14.1083
3.2671
-2.13297
13.1463
-58.0255
58.487
-13.7883
2.31338
-0.499902
10.5398
-59.6537
59.9157
-10.6328
0.330867
1.15088
5.91041
-60.4459
60.6989
-5.93172
-1.38251
1.14136
1.23113
-61.7823
62.2239
-1.43632
-1.3777
-62.7629
0.959568
-8.07933
247.785
7.80746
-2.23144
-61.7812
-61.2609
-60.4358
864.04
101.806
21.2845
-241.889
-232.6
-224.18
-218.557
809.037
114.219
43.4273
767.58
98.8548
27.5418
739.553
65.2075
0.779679
31.1098
-0.585377
1282.01
715.863
-2563.42
1212.46
-410.716
51.9947
828.765
-234.876
159.02
690.021
-68.4504
-113.035
160.14
69.298
194.378
163.347
138.29
140.202
-26.4258
11.2121
180.228
-19.6316
14.7572
-2.05927
7.55563
-51.3995
53.237
-8.76953
1.4356
0.0725846
14.9126
-52.9107
52.7221
-15.3062
0.509648
-1.02698
16.059
-52.5698
52.5705
-16.3797
1.34708
-1.55641
15.5092
-51.9934
51.7238
-15.3725
1.68923
-0.178803
13.797
-50.9332
50.8036
-13.5401
0.0515305
1.41013
10.0888
-50.8946
51.0468
-9.8275
-1.82368
2.71709
5.76122
-51.8507
52.1971
-5.63344
-3.19126
2.81542
2.05481
-53.3989
53.8364
-2.03455
-3.27311
-54.4568
9.58377
-6.2946
216.924
4.5747
-12.4821
-52.9829
-53.1432
-51.7224
798.448
88.4717
-22.0199
-212.434
-198.512
-200.176
-187.987
785.379
112.875
5.56364
765.439
110.82
6.66644
739.457
85.8627
2.13201
45.8113
-4.47962
642.307
733.011
-2526.92
873.089
-292.337
508.499
690.216
-19.4746
189.639
662.645
-15.3999
27.7055
729.72
-1.62984
162.037
188.564
-240.5
42.814
40.537
71.6208
47.249
74.7445
185.184
176.848
173.26
13.8843
-9.23832
181.12
-39.9587
10.029
9.48955
13.8093
9.42928
14.1066
-6.67479
-159.793
164.379
-56.736
6.68311
12.2956
13.7529
11.9862
16.9209
-2.5092
-175.68
181.548
-69.4408
3.94917
14.8596
16.228
14.1233
16.2285
-3.70377
-176.786
179.697
-63.7292
4.77026
14.4952
15.3964
13.6315
13.9606
-2.28333
-182.077
184.37
-51.9422
2.58086
11.6697
13.0305
10.6906
9.99165
-0.410595
-180.763
183.237
-35.2458
-0.326404
7.72149
9.04324
6.7527
5.92247
1.48612
-184.188
187.209
-19.022
-2.67187
3.48126
5.11695
2.66655
2.65734
1.25918
-184.277
186.936
-3.86455
-3.96438
-0.125288
2.04305
-0.664007
713.781
39.5614
-19.9526
-3.88029
-18.0463
-7.16872
-20.0453
-183.753
-178.4
-173.749
-168.212
729.494
66.4561
-16.0488
739.22
93.6548
1.15773
742.804
97.3024
13.7289
737.073
87.5642
7.84623
53.4795
-3.98562
1661.12
550.957
-1431.45
737.033
122.21
537.173
781.111
-10.9465
72.7003
681.989
20.9505
52.7095
779.65
-74.5656
52.4899
779.688
-207.675
-33.6919
822.779
-138.596
65.2532
35.7774
9.73983
31.5188
7.24785
813.279
-286.311
14.8759
68.5688
81.0577
66.241
75.7279
772.374
-194.344
29.8347
67.65
48.8693
61.0892
41.4472
739.997
-212.902
13.6345
64.945
60.1311
58.825
53.1732
708.83
-119.555
21.2113
47.9488
30.7132
40.7345
23.4601
687.486
-89.4497
16.9715
34.6989
24.8667
28.7556
18.9419
677.534
-13.4865
14.6573
16.9874
-0.211638
12.8183
-3.92702
677.861
6.82425
17.3328
6.25723
-6.8373
3.76864
-8.60202
681.579
33.2303
9.32135
695.403
47.8893
13.8698
712.916
71.1564
16.288
727.124
75.7968
18.4741
737.357
72.3
8.54156
50.866
5.39228
2067.4
-730.427
1112.73
1652.59
158.897
-381.734
1382.75
118.085
-40.1521
1387.39
32.2296
-107.697
1324.49
-11.4984
47.9944
1268.57
-141.234
1.32995
1154.27
-52.7926
57.4956
1026.54
-177.381
25.5476
887.112
-86.5537
48.1742
795.204
-133.741
11.7049
734.043
-63.7687
1.60437
693.369
-53.6728
-11.2956
675.86
-2.15012
-3.60046
669.029
7.90479
5.00232
674.737
24.41
12.3062
689.368
29.2423
18.1672
708.687
47.8836
20.3501
727.822
50.7187
23.9762
740.779
54.7962
13.0607
46.1526
9.68677
1196.64
782.81
-1027.15
1389.53
339.925
-564.759
1264.13
339.707
-257.124
1244.09
72.607
-195.907
1089.33
93.1502
31.8774
1011.46
-69.8128
2.01971
891.404
24.6043
145.422
812.494
-110.111
46.5499
739.471
-31.514
56.9588
694.8
-90.9303
8.38629
662.007
-30.198
6.43025
643.79
-33.4794
-11.1321
638.836
-1.95118
1.60359
646.622
-3.96462
4.88878
660.908
5.88758
12.6829
680.482
6.77314
11.4641
698.94
26.0079
12.8182
713.644
31.6491
15.9642
721.932
43.179
9.31188
42.8065
8.16472
857.275
57.0138
185.202
1232.62
122.015
-368.16
1258.42
377.047
-582.365
1250.03
117.25
-174.726
1019.92
316.904
91.4181
891.446
37.5757
129.273
771.114
118.121
137.529
707.525
-53.1358
38.9089
675.679
-9.23299
38.4318
646.195
-61.8717
5.6425
626.328
-12.8412
15.2404
607.059
-11.4817
1.58572
598.617
4.75395
8.66454
599.46
-6.12403
3.6519
612.733
-11.401
7.66061
633.578
-16.7355
1.71556
648.532
8.85031
-0.0893724
659.242
17.8364
2.56093
663.059
36.8231
0.903371
40.9176
3.23357
-245.671
-1048.9
-939.22
156.174
36.2626
-206.732
490.089
145.412
-54.3354
446.104
151.989
358.818
556.355
234.763
220.275
507.358
83.5389
70.5668
562.735
53.9262
35.5585
570.169
-49.1628
-54.2544
598.241
-54.269
-1.45828
596.132
-59.0293
-26.5343
586.917
-6.8025
14.4726
566.522
13.8354
5.01767
554.349
17.6441
22.9305
557.512
-7.01294
18.8274
585.517
-48.8147
29.1735
615.845
-52.6762
14.7627
634.792
-12.4081
2.27515
644.467
7.05422
-0.561596
649.053
31.3271
-1.98013
37.2353
-0.284007
-527.561
-1249.43
1973.25
-2.38737
56.0039
81.3932
400.401
-47.095
119.25
444.397
127.595
138.801
608.223
172.993
144.254
584.975
145.409
-30.7907
648.898
55.7498
11.4654
673.781
-4.24454
-94.2755
712.113
-62.9273
-60.3492
713.643
-59.7123
-96.216
702.478
-30.2059
-27.3187
679.373
19.3845
-46.3302
657.551
33.3366
-8.57642
646.143
5.09495
-11.0081
644.373
-67.8996
28.8961
650.926
-76.4078
38.3855
663.385
-29.6758
16.3618
671.871
0.211754
-0.630881
678.545
27.0924
-1.85106
35.1142
-0.527924
888.907
-295.042
872.809
-210.633
826.614
171.56
954.649
11.4265
1105.84
156.358
1214.04
-8.81926
1235.58
140.736
1235.41
54.0573
1183.46
38.8305
1168.36
-101.657
1159.33
-146.332
1219.14
-152.253
1294.19
-24.3742
1269.42
163.44
1105.76
337.553
944.479
303.433
864.591
168.639
832.579
93.8203
830.24
80.6101
77.04
286.806
-325.092
-1317.29
427.325
-149.165
-676.725
552.983
-263.553
-375.358
718.674
-261.273
40.6951
883.411
-220.806
289.558
1033.24
-166.261
168.859
1101.98
-79.757
160.814
1136.77
-39.3877
71.6858
1120.95
4.68428
54.9308
1104.5
5.31529
21.4496
1084.74
3.96488
28.5499
1080.69
-7.76541
23.1486
1084.85
-12.0871
28.0552
1099.54
-18.9057
25.6057
1118.43
-16.738
21.8228
1144.42
-16.1432
20.4454
1163.31
-4.85044
20.3928
1171.36
3.44794
23.0392
1156.15
15.5655
20.4632
22.269
18.3376
-95.3487
-314.597
-2136.8
180.898
-628.731
3.3988
496.777
-515.267
-144.588
484.734
-297.584
64.4234
553.79
-156.46
326.548
592.447
-76.9783
108.724
618.602
-13.5008
46.1778
646.82
-4.10939
-41.0469
683.212
2.05693
-16.5628
713.301
-6.23084
-22.8962
738.026
-12.2653
1.7554
753.056
-18.6133
-6.17892
761.137
-18.6872
-3.53268
762.65
-16.7894
-16.6407
757.039
-7.69519
-24.6701
749.155
-3.07578
-34.899
739.611
8.24095
-42.9767
729.807
15.8783
-47.906
716.906
24.8924
-57.8983
23.9528
-52.2965
1939.19
380.821
-1724.45
1311.89
-232.571
-579.887
935.737
-204.285
-466.165
783.52
-82.0713
-1.27079
708.496
41.3194
158.356
662.125
32.176
58.3854
632.888
44.488
53.6106
622.689
16.2743
1.82277
627.542
1.97583
18.8578
637.021
-12.261
3.41734
649.709
-23.4293
15.4956
659.29
-26.6079
4.1127
665.974
-24.6346
6.30876
667.028
-18.6178
-7.09825
663.175
-7.03755
-11.1564
656.553
-0.146622
-15.6813
647.406
12.4047
-18.9424
638.675
18.7099
-16.2436
631.206
26.1308
-15.6534
25.0352
-15.3332
2136.17
218.245
-215.567
1104.6
178.424
247.97
556.258
162.623
183.992
264.566
126.225
-91.4798
281.351
7.20791
-22.2953
286.495
21.023
-24.0887
378.299
-44.1527
10.836
420.145
-15.9348
-2.87299
487.69
-59.4259
29.7049
527.48
-43.1931
20.1382
567.462
-54.7603
29.5176
590.853
-42.3636
16.3767
609.136
-37.2802
16.7233
617.836
-23.8217
2.19597
622.04
-11.0421
-3.45258
621.569
-0.381932
-7.28517
619.355
11.2566
-11.7752
615.215
18.1221
-9.02219
609.23
26.953
-9.87906
26.3728
-7.60207
1323.75
334.698
-4757.45
1300.69
504.937
-1282.41
1082.4
434.258
-559.842
903.104
299.43
-138.305
673.069
173.95
12.9709
563.452
99.4055
-0.383336
529.664
-22.3965
27.5983
524.227
-7.99551
14.4938
544.152
-69.3081
40.106
558.897
-42.8546
30.5045
577.199
-59.1199
41.6236
588.451
-39.1581
28.7445
597.655
-35.8139
25.8527
601.598
-20.4483
9.02447
603.611
-10.7991
2.74411
603.381
0.514377
-2.25215
602.575
9.84822
-7.48597
600.342
17.0438
-5.12593
597.651
25.3952
-4.03588
25.8498
-0.0989677
-1023.35
-269.531
872.167
-173.81
374.682
-492.263
309.423
180.329
21.7675
321.383
321.387
12.3371
320.378
131.565
89.4327
335.344
81.4872
-20.9095
419.069
-117.204
21.6666
444.603
-29.5989
-8.50373
491.99
-113.322
19.9458
512.254
-56.088
20.2507
534.555
-71.9615
32.4819
545.083
-38.8721
23.6252
554.216
-34.5817
20.8712
553.793
-14.4683
7.0302
553.112
-9.51384
0.205045
553.098
-0.434211
-2.88133
554.229
6.18304
-7.02478
554.312
12.8403
-6.30613
554.752
20.5002
-3.77593
21.5281
1.89894
275.837
468.873
1101.03
400.922
485.973
-799.095
317.769
275.196
-417.899
385.151
295.523
31.9948
498.463
52.0699
25.0224
500.575
85.4734
28.5535
519.897
-11.7597
12.6301
-50.6293
-11.5803
-48.9657
525.927
-11.6465
10.0681
-11.4378
-6.48035
-6.14447
540.917
-26.651
12.3
-41.8282
-22.3619
-38.5316
547.697
-19.1628
11.2906
-18.5099
-13.3641
-15.2059
550.351
-17.0433
19.3558
-25.5439
-12.7217
-21.8253
547.192
-8.27537
12.8709
-13.1205
-4.46573
-10.5962
546.384
-3.50373
18.2103
-12.9866
-1.5113
-11.3822
542.895
1.64671
14.6629
-6.11332
3.06226
-4.04502
538.912
-3.23311
9.44514
536.893
4.15323
6.43197
536.945
6.74537
1.10965
537.327
10.7698
-1.70998
540.304
14.6737
0.297894
15.5059
5.51056
-250.053
204.828
87.3952
-87.5568
283.093
-597.058
49.1924
144.121
-622.711
271.746
117.968
-220.175
419.327
-62.7464
-60.8711
126.044
11.8802
1.93804
129.5
108.631
111.561
4.96154
14.0252
8.12557
-2.03361
133.485
-15.1174
-2.04949
-1.04248
-129.215
141.239
-26.299
3.67081
-0.209642
-150.054
149.675
-27.1547
1.09236
2.6171
-146.05
150.085
-25.4055
-0.409116
1.19083
-153.009
153.262
-18.7145
0.227318
1.24415
-150.556
152.135
-11.6939
0.59486
0.82394
-151.384
151.662
-5.41244
0.807353
-1.56818
-148.532
150.207
-0.724005
2.26413
558.399
5.7782
14.1669
-146.59
-151.258
-135.636
-139.114
-2.77154
6.5735
-1.49675
552.737
11.2625
11.8743
548.625
13.3759
9.12785
546.544
13.2201
3.60505
548.377
12.6151
4.38054
10.8755
9.94002
649.109
-869.527
-2479.25
793.908
207.998
-374.014
712.568
203.82
-183.564
754.92
81.8389
-68.8709
191.534
-18.4116
19.2163
193.851
170.162
172.518
-3.95836
205.701
1.03508
0.63658
-1.51845
4.17448
-52.4598
51.5519
-3.04313
1.295
-0.342076
-45.2389
8.52358
45.0724
-8.70245
0.687461
-0.299421
-44.6423
6.90018
44.5977
-7.05166
0.495539
-0.59451
-42.7775
6.76364
42.857
-7.06396
0.815322
-1.47151
-42.6909
5.30972
43.0233
-5.72287
1.55229
-1.68595
-42.5217
3.2477
42.844
-3.56946
1.68545
-1.10329
-42.3026
0.973707
42.7136
-1.43543
1.15397
-0.548772
-41.5289
-0.255886
41.933
-0.167541
0.568095
-40.6175
-2.78674
161.046
5.24046
3.4873
-41.4671
-39.2181
-39.9065
586.697
28.2095
26.687
-155.184
-161.004
-143.513
-147.202
578.697
23.4743
18.7332
573.814
19.7611
11.642
573.865
12.8438
6.78824
8.43147
9.92984
763.916
-59.8779
-30.9883
759.217
295.968
22.7034
630.377
343.694
66.3139
657.206
89.2906
8.01876
160.026
48.6874
53.5586
154.739
140.19
134.835
9.37109
-2.50791
172.884
-7.19142
-12.5301
2.25334
1.77213
-46.1359
47.6435
-3.1881
-2.34495
-0.462943
8.06852
-46.9088
46.6379
-7.98916
0.654516
-1.41112
7.78324
-46.6079
46.8535
-8.105
1.48734
-2.19113
7.56552
-47.5085
47.646
-7.74939
2.23752