/*--------------------------------*- C++ -*----------------------------------*\
  =========                 |
  \\      /  F ield         | OpenFOAM: The Open Source CFD Toolbox
   \\    /   O peration     | Website:  https://openfoam.org
    \\  /    A nd           | Version:  10
     \\/     M anipulation  |
\*---------------------------------------------------------------------------*/
FoamFile
{
    format      ascii;
    class       volScalarField;
    location    "4.3";
    object      turbidity_0;
}
// * * * * * * * * * * * * * * * * * * * * * * * * * * * * * * * * * * * * * //

dimensions      [0 0 0 0 0 0 0];

internalField   nonuniform List<scalar> 
12920
(
-0.0138062
-0.0239406
-0.0410565
-0.063077
-0.0869619
-0.112836
-0.136218
-0.159233
-0.180461
-0.19866
-0.21589
-0.232456
-0.246999
-0.259477
-0.270655
-0.281363
-0.292351
-0.304282
-0.317762
-0.333328
-0.00942481
-0.021042
-0.0321326
-0.0463207
-0.0736281
-0.124538
-0.171055
-0.200503
-0.218946
-0.233393
-0.245267
-0.254872
-0.262837
-0.269287
-0.274888
-0.280736
-0.287137
-0.294755
-0.303054
-0.318631
-0.0122278
-0.0210857
-0.0334006
-0.0544346
-0.0857936
-0.127466
-0.166934
-0.200815
-0.228581
-0.251769
-0.270576
-0.284364
-0.293472
-0.29618
-0.295928
-0.296365
-0.299227
-0.306805
-0.319838
-0.340245
-0.0205706
-0.0320074
-0.0624336
-0.106508
-0.15313
-0.188817
-0.219534
-0.244781
-0.266328
-0.286358
-0.305265
-0.322941
-0.337703
-0.347309
-0.349644
-0.348083
-0.344925
-0.345282
-0.351862
-0.367269
-0.0137719
-0.0287029
-0.0544841
-0.0906773
-0.131463
-0.173825
-0.207097
-0.229504
-0.245635
-0.2631
-0.282886
-0.307038
-0.333492
-0.359044
-0.378594
-0.38987
-0.393818
-0.397268
-0.404114
-0.417416
-0.0319994
-0.0551222
-0.0727453
-0.104403
-0.137151
-0.162048
-0.178194
-0.191738
-0.203346
-0.217541
-0.234869
-0.259541
-0.29231
-0.33236
-0.370757
-0.400481
-0.419817
-0.433106
-0.446904
-0.464764
-0.0435208
-0.075767
-0.0820342
-0.111929
-0.131032
-0.14573
-0.15299
-0.161425
-0.16758
-0.176123
-0.186739
-0.204131
-0.230517
-0.270391
-0.319493
-0.370823
-0.415718
-0.448106
-0.474745
-0.499632
-0.0340629
-0.05923
-0.0633856
-0.083792
-0.0993648
-0.115453
-0.114809
-0.11587
-0.118271
-0.119116
-0.118188
-0.115376
-0.111181
-0.108606
-0.128847
-0.179613
-0.242938
-0.312226
-0.377493
-0.430206
-0.0222597
-0.039456
-0.0568989
-0.0737736
-0.0894688
-0.0899286
-0.0920765
-0.0965766
-0.102673
-0.105998
-0.105163
-0.101189
-0.0925627
-0.0808187
-0.077136
-0.110935
-0.160495
-0.222652
-0.286014
-0.338221
-0.0176728
-0.0422338
-0.0601188
-0.0738255
-0.0877489
-0.0863929
-0.0875221
-0.0936934
-0.101432
-0.104732
-0.107269
-0.107977
-0.103943
-0.0953084
-0.0894206
-0.109587
-0.144711
-0.191716
-0.239932
-0.280571
-0.0311111
-0.0353439
-0.0453623
-0.0602499
-0.0833777
-0.0909482
-0.100795
-0.107007
-0.112817
-0.118278
-0.12299
-0.123678
-0.11887
-0.109175
-0.098792
-0.106053
-0.132493
-0.168123
-0.206913
-0.243839
-0.0249487
-0.031298
-0.0377878
-0.052757
-0.0779414
-0.08566
-0.0976568
-0.109781
-0.123477
-0.134863
-0.144727
-0.14824
-0.141991
-0.128507
-0.110854
-0.10781
-0.130738
-0.159641
-0.192397
-0.226767
-0.0227396
-0.037388
-0.059463
-0.0839115
-0.109305
-0.137089
-0.138222
-0.143625
-0.157163
-0.173816
-0.190573
-0.1999
-0.197389
-0.179976
-0.159869
-0.160038
-0.169842
-0.188816
-0.214098
-0.243438
-0.010028
-0.0322577
-0.0641282
-0.0885987
-0.108073
-0.123709
-0.14286
-0.165445
-0.19347
-0.224506
-0.255214
-0.283284
-0.305587
-0.316204
-0.311013
-0.298963
-0.288637
-0.288662
-0.298972
-0.319227
-0.00778328
-0.0202872
-0.0362712
-0.0571106
-0.0782328
-0.100728
-0.125503
-0.154343
-0.186976
-0.221539
-0.254369
-0.281973
-0.308917
-0.333692
-0.350858
-0.361248
-0.366898
-0.373252
-0.383542
-0.40016
-0.0149583
-0.0289541
-0.0385036
-0.0517268
-0.0733617
-0.101963
-0.13501
-0.17114
-0.205692
-0.24055
-0.275199
-0.305592
-0.334828
-0.359725
-0.379552
-0.395853
-0.409521
-0.422637
-0.436576
-0.452892
-0.0242355
-0.0386559
-0.0502359
-0.0718995
-0.0958339
-0.126482
-0.154359
-0.179221
-0.206206
-0.239676
-0.281237
-0.324103
-0.361954
-0.391277
-0.413169
-0.429066
-0.44163
-0.455067
-0.471284
-0.491941
-0.0593756
-0.0674357
-0.0825895
-0.105902
-0.124722
-0.141857
-0.152452
-0.15655
-0.174827
-0.203902
-0.249729
-0.301778
-0.349584
-0.388261
-0.418921
-0.442386
-0.458706
-0.474226
-0.492969
-0.5163
-0.064441
-0.0502005
-0.0628297
-0.0857758
-0.108038
-0.123408
-0.129122
-0.128033
-0.130459
-0.137794
-0.161967
-0.199654
-0.255247
-0.315817
-0.37056
-0.421127
-0.464542
-0.494732
-0.519651
-0.544661
-0.0187605
-0.0283768
-0.0349236
-0.0418822
-0.0521688
-0.0637263
-0.0772748
-0.0955633
-0.112056
-0.118007
-0.121255
-0.134249
-0.154723
-0.177225
-0.215634
-0.290273
-0.384344
-0.461909
-0.514412
-0.550257
-0.00489362
-0.00908836
-0.0185201
-0.0278168
-0.0420342
-0.0487278
-0.0491066
-0.0415415
-0.0318209
-0.0233172
-0.0181675
-0.0166891
-0.0195756
-0.025736
-0.0347438
-0.0460255
-0.0577361
-0.067566
-0.0741459
-0.0796227
-0.00667365
-0.00875473
-0.0178274
-0.0318238
-0.0543105
-0.0646914
-0.0622327
-0.0486957
-0.0369956
-0.0252378
-0.0194353
-0.0147472
-0.0129463
-0.0128611
-0.0140731
-0.016644
-0.020664
-0.0262489
-0.0337429
-0.0437339
-0.00332587
-0.00499102
-0.013161
-0.0256804
-0.0383785
-0.0355671
-0.032848
-0.0280426
-0.0290529
-0.0284339
-0.0290123
-0.0262873
-0.0234962
-0.0208705
-0.0201398
-0.021918
-0.0264744
-0.0340827
-0.0452811
-0.0609908
-0.00516936
-0.00484271
-0.0146901
-0.021433
-0.0299409
-0.0349327
-0.04868
-0.0586222
-0.0698115
-0.0741
-0.0756217
-0.0695498
-0.0608473
-0.0491172
-0.0405273
-0.0372558
-0.0391769
-0.0462623
-0.0586778
-0.0763084
-0.00618213
-0.00865881
-0.0142052
-0.0204552
-0.028201
-0.0384808
-0.0526466
-0.0676453
-0.0825374
-0.0933573
-0.100939
-0.10231
-0.0980369
-0.0869203
-0.0741445
-0.0654395
-0.0624191
-0.0653881
-0.0743893
-0.0888713
-0.0560893
-0.0169258
-0.0182928
-0.0202257
-0.0237704
-0.0284018
-0.0334047
-0.0402195
-0.0507892
-0.0630299
-0.0751221
-0.0826862
-0.0847823
-0.079651
-0.0709331
-0.0642994
-0.0612473
-0.0627441
-0.0699011
-0.082528
-0.0406085
-0.018413
-0.0161414
-0.0305634
-0.0368898
-0.0339826
-0.0307694
-0.0289091
-0.0313513
-0.0368152
-0.0452605
-0.0535324
-0.0613611
-0.0675871
-0.0693433
-0.0681838
-0.0639717
-0.0626717
-0.0672757
-0.0783418
-0.0395693
-0.0153567
-0.0126917
-0.0183307
-0.0219494
-0.0225005
-0.0235712
-0.0246947
-0.0251936
-0.0273469
-0.029795
-0.031213
-0.0323241
-0.0374382
-0.0466082
-0.0575292
-0.0635474
-0.0660426
-0.0725435
-0.0851078
-0.0101205
-0.00901023
-0.0127406
-0.0155552
-0.0171569
-0.0177571
-0.015963
-0.0173523
-0.0225197
-0.0343827
-0.0529138
-0.0602203
-0.0477366
-0.0303649
-0.0324711
-0.050789
-0.0604406
-0.0673686
-0.0735163
-0.0813064
-0.00545762
-0.0143346
-0.0193906
-0.0167638
-0.0140729
-0.012748
-0.0131484
-0.0198111
-0.0296035
-0.0385977
-0.0552607
-0.062516
-0.0687869
-0.0713873
-0.0606852
-0.0590435
-0.0648938
-0.0659283
-0.0648288
-0.0653174
-0.00720496
-0.0196762
-0.0228385
-0.0235493
-0.0298424
-0.0330146
-0.0318364
-0.0339891
-0.048901
-0.0628911
-0.0616275
-0.0467175
-0.0338082
-0.0329072
-0.0391811
-0.0485002
-0.0583781
-0.0617933
-0.0604847
-0.060205
-0.00364775
-0.00670622
-0.00941938
-0.0119651
-0.0239479
-0.0268033
-0.0285222
-0.0262303
-0.0329006
-0.0461033
-0.043344
-0.0360477
-0.0325112
-0.0320527
-0.0345683
-0.0429358
-0.050138
-0.054481
-0.0566725
-0.0593734
-0.00255819
-0.0119539
-0.0162543
-0.0171289
-0.0256826
-0.0209682
-0.023858
-0.0273797
-0.0327429
-0.0414395
-0.0452251
-0.0473446
-0.0490847
-0.0495651
-0.0504781
-0.0523514
-0.0555783
-0.0584
-0.0600475
-0.062947
-0.00802997
-0.00911507
-0.013682
-0.014233
-0.0213787
-0.0191479
-0.0228872
-0.0241526
-0.0307893
-0.0374056
-0.0475904
-0.059291
-0.0688607
-0.0756437
-0.0756745
-0.0761082
-0.0755643
-0.0734201
-0.0699441
-0.0694311
-0.000639791
-0.00245177
-0.00564815
-0.00849987
-0.012776
-0.0137871
-0.0163575
-0.0199584
-0.0269632
-0.0330644
-0.0372392
-0.0405297
-0.04581
-0.0538764
-0.0628056
-0.0701926
-0.0742291
-0.0738491
-0.0695131
-0.0670756
-0.0015798
-0.00344915
-0.00526281
-0.00817316
-0.0141978
-0.0211367
-0.0307899
-0.0361662
-0.0451937
-0.0497026
-0.0522798
-0.0528916
-0.0545168
-0.0563111
-0.0588689
-0.0599437
-0.0590595
-0.0571662
-0.0550567
-0.0569145
-0.00235002
-0.00871624
-0.0146381
-0.0236734
-0.0337717
-0.0376747
-0.0432658
-0.0466432
-0.0585846
-0.0665068
-0.0731956
-0.0739319
-0.0727591
-0.0663936
-0.0590723
-0.0521028
-0.0474561
-0.045902
-0.0483847
-0.0549797
-0.0140195
-0.0228883
-0.029851
-0.0446575
-0.041695
-0.0292142
-0.0287707
-0.0327727
-0.0456026
-0.0592422
-0.0757989
-0.0830574
-0.0849018
-0.0774331
-0.0662988
-0.0523928
-0.0443368
-0.0436487
-0.0472517
-0.0531699
-0.00837029
-0.0199395
-0.0260905
-0.0337239
-0.0444205
-0.029942
-0.0276522
-0.0195477
-0.0231723
-0.0340978
-0.0529026
-0.0710465
-0.0868734
-0.0957497
-0.0974525
-0.0846736
-0.0639393
-0.052656
-0.0531272
-0.0579172
-0.00344358
-0.00843302
-0.0126475
-0.0158774
-0.0220098
-0.0223554
-0.0275532
-0.0269757
-0.0220998
-0.0200119
-0.0259841
-0.040294
-0.0643901
-0.100581
-0.144564
-0.182437
-0.198917
-0.201878
-0.206746
-0.21652
-0.000842696
-0.00705787
-0.0162629
-0.0219572
-0.027679
-0.0283585
-0.0273286
-0.0234051
-0.0186013
-0.013914
-0.0106866
-0.00923163
-0.00949526
-0.011118
-0.013826
-0.0173575
-0.0212061
-0.0248592
-0.0283064
-0.0329129
-0.00474208
-0.00788407
-0.0159479
-0.0213564
-0.0306379
-0.0235946
-0.0163462
-0.00995801
-0.00786745
-0.0070861
-0.00733227
-0.00819624
-0.00970069
-0.01191
-0.0147504
-0.0181832
-0.0220652
-0.0262487
-0.0306471
-0.0352649
-0.00277981
-0.00541995
-0.0114755
-0.0148056
-0.0165989
-0.0125341
-0.0107087
-0.00967751
-0.0102917
-0.0109275
-0.0118475
-0.0126781
-0.0140997
-0.0165052
-0.0201059
-0.0249626
-0.0308921
-0.0378788
-0.0457515
-0.0542455
-0.00341056
-0.00683614
-0.0127316
-0.0119875
-0.0126136
-0.0136075
-0.0178589
-0.0205605
-0.0242262
-0.0249992
-0.0252457
-0.0238566
-0.0232578
-0.0238919
-0.0266648
-0.0313523
-0.0374427
-0.0445925
-0.0523189
-0.0594572
-0.00256427
-0.00466278
-0.00837227
-0.0123023
-0.0163708
-0.0201823
-0.0258313
-0.0309731
-0.0364843
-0.0391351
-0.0401467
-0.0382306
-0.0354802
-0.0328068
-0.0323164
-0.0343318
-0.0381261
-0.0430161
-0.0485803
-0.0538037
-0.0199696
-0.0100359
-0.0127631
-0.0135598
-0.0146228
-0.0161278
-0.017702
-0.0207973
-0.0249015
-0.0292535
-0.0326885
-0.0334443
-0.0323853
-0.0304452
-0.0294806
-0.0301336
-0.0320411
-0.03479
-0.0382497
-0.041622
-0.0200158
-0.00907828
-0.00988503
-0.0140179
-0.0147083
-0.0138438
-0.0131511
-0.013958
-0.0158536
-0.0187616
-0.022017
-0.0247629
-0.0270142
-0.0285567
-0.0292512
-0.0298913
-0.0307644
-0.0323314
-0.0345898
-0.0371101
-0.0155992
-0.0047273
-0.00548316
-0.00843488
-0.00995106
-0.0109957
-0.0114065
-0.0115501
-0.0113736
-0.0119048
-0.0133696
-0.0156736
-0.019283
-0.0239261
-0.0286228
-0.0321301
-0.0348809
-0.0375666
-0.0408616
-0.044485
-0.00230916
-0.00334379
-0.00584245
-0.00733225
-0.00810725
-0.00854716
-0.0092374
-0.00993933
-0.0115802
-0.014477
-0.0158385
-0.0147504
-0.0147047
-0.0193111
-0.0282685
-0.0340783
-0.0378002
-0.0412062
-0.0442517
-0.0466433
-0.0027796
-0.00717261
-0.00871977
-0.00717529
-0.00627183
-0.00622244
-0.00677121
-0.0085927
-0.0114819
-0.015241
-0.0187103
-0.0208964
-0.022558
-0.0234943
-0.0300351
-0.0363861
-0.0380231
-0.0383078
-0.0389623
-0.0401978
-0.00477154
-0.0116153
-0.0090666
-0.00830873
-0.00911156
-0.00908541
-0.00952424
-0.0126471
-0.0172955
-0.0195583
-0.0181287
-0.0157391
-0.0170144
-0.0206456
-0.0264335
-0.0343881
-0.0372448
-0.0372695
-0.0372266
-0.0386041
-0.0040572
-0.00674376
-0.0061359
-0.00497495
-0.00771725
-0.00716313
-0.00806011
-0.00982314
-0.0123407
-0.0143577
-0.0134156
-0.0143953
-0.0175413
-0.0205546
-0.0250911
-0.0326869
-0.0352023
-0.0360409
-0.0371358
-0.0396055
-0.00285114
-0.00627447
-0.00693404
-0.00547585
-0.00732465
-0.00678376
-0.00763351
-0.00922076
-0.0118225
-0.0147769
-0.0175682
-0.0212527
-0.0253322
-0.0288199
-0.0332876
-0.0355042
-0.0366689
-0.0372652
-0.0385213
-0.0415492
-0.00180667
-0.00386482
-0.00404767
-0.00467189
-0.0061887
-0.00669617
-0.00882362
-0.0110688
-0.0143468
-0.0174019
-0.0213459
-0.0255026
-0.029088
-0.0322708
-0.0341924
-0.0355764
-0.036036
-0.0363463
-0.0376574
-0.0413406
-0.000972975
-0.0013147
-0.00216035
-0.00397357
-0.00577377
-0.00681272
-0.00858521
-0.011298
-0.014337
-0.0160636
-0.0171604
-0.0182279
-0.0200188
-0.0222424
-0.0246736
-0.0268267
-0.0284854
-0.0298864
-0.0318539
-0.035479
-0.000252513
-0.001164
-0.00252154
-0.00513256
-0.00812842
-0.0109742
-0.014887
-0.0184455
-0.0216562
-0.0223038
-0.0219738
-0.0210935
-0.0205647
-0.0201421
-0.02034
-0.0207776
-0.0218273
-0.0236485
-0.0264909
-0.0303158
-0.00102644
-0.00309093
-0.00741979
-0.0131048
-0.0167407
-0.0187698
-0.022715
-0.0262065
-0.0295829
-0.0296761
-0.0287839
-0.0262288
-0.0240142
-0.0214897
-0.020014
-0.0196578
-0.0206599
-0.0227315
-0.0255564
-0.0286124
-0.0087298
-0.0134156
-0.0152096
-0.0207971
-0.0184604
-0.016887
-0.0196661
-0.0219098
-0.0257657
-0.0271699
-0.0284038
-0.0268473
-0.0255416
-0.0234629
-0.021974
-0.0208376
-0.021203
-0.0226795
-0.024488
-0.0261782
-0.00642665
-0.0097864
-0.0114022
-0.0130757
-0.0130471
-0.00964206
-0.0103152
-0.0121104
-0.0173073
-0.0235898
-0.030401
-0.0347403
-0.0382653
-0.0405461
-0.0395832
-0.032624
-0.0257247
-0.0230036
-0.0229438
-0.0235344
-0.00252195
-0.00531986
-0.00747566
-0.00866773
-0.0112132
-0.0116482
-0.0133851
-0.0123385
-0.0129195
-0.0194271
-0.0329418
-0.0514554
-0.0734916
-0.0964452
-0.116335
-0.12187
-0.116196
-0.111973
-0.113814
-0.119942
-0.00110806
-0.00679964
-0.01523
-0.018417
-0.0212581
-0.0212225
-0.0198345
-0.0163186
-0.0123983
-0.00905769
-0.00701236
-0.00613257
-0.00614304
-0.00676521
-0.00791374
-0.00970163
-0.0123198
-0.0161329
-0.0217566
-0.0298707
-0.0039501
-0.00690291
-0.010668
-0.0111751
-0.0128417
-0.00874457
-0.00751758
-0.00708389
-0.00704496
-0.00767218
-0.00892836
-0.0109343
-0.0133367
-0.0160429
-0.0187558
-0.0214539
-0.0240059
-0.0265104
-0.0288635
-0.0307997
-0.00289074
-0.00497614
-0.00726477
-0.00782599
-0.00786918
-0.00691607
-0.00691413
-0.00739212
-0.00837231
-0.00976575
-0.0116378
-0.0140176
-0.0168706
-0.0200112
-0.0231851
-0.0261114
-0.0285772
-0.030504
-0.031796
-0.0322622
-0.00353695
-0.00555586
-0.00766865
-0.0076782
-0.00782592
-0.00830734
-0.00987219
-0.0109569
-0.0126098
-0.0137431
-0.0152805
-0.016972
-0.0192059
-0.0217243
-0.0243259
-0.0266716
-0.028563
-0.0298932
-0.0307166
-0.0308558
-0.00150517
-0.00317801
-0.00728266
-0.0107256
-0.0119772
-0.0121481
-0.0139862
-0.0152675
-0.0172437
-0.0180418
-0.0188345
-0.0191369
-0.0197724
-0.020633
-0.0218414
-0.0231529
-0.0244001
-0.0254483
-0.026429
-0.0271837
-0.010916
-0.00534404
-0.00904478
-0.0104538
-0.0107035
-0.010746
-0.0110813
-0.0123803
-0.0141797
-0.0157697
-0.0169936
-0.0173817
-0.017521
-0.0176207
-0.0179154
-0.0184117
-0.0190351
-0.0197321
-0.0205795
-0.0215286
-0.00529
-0.00493743
-0.00759934
-0.00930848
-0.00860034
-0.00853677
-0.00834718
-0.00958424
-0.0111492
-0.0130458
-0.0147107
-0.0158403
-0.0165784
-0.0169661
-0.017127
-0.0172758
-0.0175286
-0.0180259
-0.0187973
-0.019873
-0.00298805
-0.00218218
-0.00380364
-0.00610128
-0.00662536
-0.00700092
-0.0070811
-0.00733665
-0.00811043
-0.00966487
-0.0118592
-0.0141276
-0.016125
-0.0176688
-0.0187328
-0.0193883
-0.0197819
-0.0201608
-0.0208065
-0.0217014
-0.0012701
-0.0020236
-0.0036882
-0.00488881
-0.0054287
-0.00578606
-0.00632941
-0.00671786
-0.00739606
-0.0082058
-0.00952122
-0.0121106
-0.0155572
-0.0186407
-0.0216854
-0.0219745
-0.0223429
-0.0220824
-0.021586
-0.0212478
-0.00362169
-0.00411993
-0.00436159
-0.00416393
-0.00441908
-0.00471772
-0.00528913
-0.00627554
-0.00738944
-0.00879223
-0.0103684
-0.0124349
-0.0160239
-0.0205438
-0.0239576
-0.0227572
-0.0216074
-0.0199764
-0.0188545
-0.0185503
-0.00192992
-0.0045005
-0.00391175
-0.00455237
-0.00540998
-0.0056734
-0.00639761
-0.00762462
-0.00871886
-0.00964912
-0.0112337
-0.0133785
-0.0161332
-0.0198139
-0.0237628
-0.0228956
-0.0222466
-0.0210758
-0.0205935
-0.0209663
-0.0021294
-0.00386799
-0.00363201
-0.00397437
-0.00491294
-0.00505621
-0.00551538
-0.00625267
-0.00714391
-0.00834418
-0.0106517
-0.0141235
-0.0169798
-0.0194056
-0.0226784
-0.0219806
-0.0219637
-0.0219543
-0.0226304
-0.0237931
-0.00226272
-0.00388923
-0.00418812
-0.00409289
-0.00462352
-0.00504255
-0.00543475
-0.00641298
-0.00803566
-0.0103768
-0.0134356
-0.0168642
-0.0196766
-0.0217216
-0.0205184
-0.0213261
-0.0222674
-0.0234633
-0.0250337
-0.0267917
-0.000722781
-0.00261111
-0.00326112
-0.00362092
-0.00446979
-0.00533168
-0.00652854
-0.00771199
-0.00916192
-0.0104726
-0.0122456
-0.0139716
-0.0156409
-0.0172658
-0.018832
-0.0204254
-0.0220966
-0.0240988
-0.0264176
-0.029017
-0.000630236
-0.00213888
-0.00335411
-0.00423052
-0.00509456
-0.00622408
-0.00748596
-0.00854886
-0.00924068
-0.00938725
-0.00992925
-0.010746
-0.0120918
-0.0136805
-0.0155564
-0.017528
-0.0195867
-0.0217223
-0.0239657
-0.0262796
-0.000866453
-0.00149249
-0.00285104
-0.00503058
-0.00687936
-0.00872225
-0.0104865
-0.0113083
-0.0114819
-0.01083
-0.0105817
-0.0107571
-0.0115612
-0.0127253
-0.0142624
-0.0159523
-0.0178064
-0.019706
-0.0216495
-0.0235471
-0.00287825
-0.00604753
-0.00884024
-0.010287
-0.0111385
-0.0124039
-0.0139452
-0.0138817
-0.0137707
-0.0126912
-0.0122532
-0.0120994
-0.0126824
-0.0135766
-0.0148231
-0.0162393
-0.0177439
-0.0192671
-0.0208181
-0.022462
-0.0147106
-0.0111659
-0.0118937
-0.0133838
-0.0122186
-0.0119938
-0.0126322
-0.0126141
-0.0128224
-0.0126225
-0.0129515
-0.0131684
-0.0138971
-0.0146532
-0.0154338
-0.016159
-0.0170366
-0.0180945
-0.0193255
-0.0207757
-0.00691871
-0.00812904
-0.00868127
-0.00859209
-0.00791399
-0.00757084
-0.00884017
-0.0106467
-0.013105
-0.0149351
-0.0164657
-0.0181729
-0.0201684
-0.0223383
-0.0226695
-0.0213389
-0.0199255
-0.019496
-0.019383
-0.0201502
-0.00213879
-0.00483797
-0.00572316
-0.00648898
-0.00770503
-0.00760617
-0.00788932
-0.00836448
-0.0123592
-0.0200694
-0.0301311
-0.041582
-0.0552167
-0.0684405
-0.0750923
-0.0730128
-0.0704138
-0.0717358
-0.0763902
-0.0821876
-0.00155321
-0.00975612
-0.0154518
-0.0162182
-0.0162833
-0.0138269
-0.0108734
-0.00782139
-0.00613333
-0.00580132
-0.00672481
-0.00873701
-0.0117514
-0.0157733
-0.0206414
-0.0259408
-0.0313462
-0.036555
-0.0412679
-0.0458099
-0.00723294
-0.00673554
-0.00737563
-0.00748147
-0.00783448
-0.00727696
-0.00761057
-0.00904866
-0.0114012
-0.0143882
-0.0171763
-0.0197506
-0.0219263
-0.0237759
-0.0252931
-0.0264271
-0.0271277
-0.0273062
-0.0270661
-0.0262075
-0.00247335
-0.00616937
-0.00655051
-0.00617978
-0.00647729
-0.00725663
-0.00856961
-0.0104597
-0.0123893
-0.0142515
-0.015675
-0.0167142
-0.0173565
-0.0177382
-0.0180013
-0.0182119
-0.0184152
-0.0184876
-0.018558
-0.0185096
-0.00497576
-0.00623653
-0.00642839
-0.00685648
-0.00751446
-0.00855035
-0.00972434
-0.0108618
-0.0119987
-0.0129517
-0.0138334
-0.0145472
-0.0152621
-0.0159029
-0.016615
-0.0173512
-0.0180731
-0.0187186
-0.019294
-0.0197614
-0.00121924
-0.00414926
-0.0075198
-0.00867645
-0.0088882
-0.00940322
-0.0103112
-0.0110435
-0.0119109
-0.0124866
-0.0131961
-0.0138244
-0.0146454
-0.0155067
-0.0165288
-0.0176151
-0.018733
-0.0198324
-0.0209043
-0.0218909
-0.012266
-0.00544508
-0.00832916
-0.00939685
-0.00897357
-0.00928974
-0.00972694
-0.0104836
-0.0113283
-0.0120353
-0.0128586
-0.0136848
-0.0147521
-0.0159572
-0.0172988
-0.0186474
-0.0199492
-0.0211654
-0.0222759
-0.0232662
-0.000393093
-0.00285792
-0.00656433
-0.00739754
-0.00707982
-0.00799934
-0.00869363
-0.00997525
-0.0110596
-0.0120256
-0.0130371
-0.0140552
-0.015244
-0.0165021
-0.0178064
-0.0190802
-0.0202306
-0.0211883
-0.0219188
-0.0224224
-0.000207428
-0.000766225
-0.00255692
-0.0052197
-0.00568507
-0.00666962
-0.0069986
-0.00855482
-0.00994699
-0.011141
-0.0121334
-0.0129377
-0.0137609
-0.0146486
-0.0167661
-0.0177671
-0.0185804
-0.019187
-0.0194889
-0.0195188
-0.00069385
-0.00157163
-0.00307152
-0.00412135
-0.00512766
-0.00592273
-0.00655739
-0.00752978
-0.00885549
-0.0102775
-0.0116346
-0.0124773
-0.0128026
-0.013024
-0.0136456
-0.0155423
-0.0163418
-0.0168861
-0.0171372
-0.0170687
-0.00310776
-0.00329725
-0.00299778
-0.0035278
-0.00486468
-0.00568198
-0.00657142
-0.00760166
-0.00889324
-0.0104347
-0.0120936
-0.0134033
-0.0136315
-0.0131705
-0.0128598
-0.0147326
-0.0155268
-0.0163263
-0.0170011
-0.0173275
-0.000874688
-0.00280935
-0.00354538
-0.00447661
-0.00584841
-0.00648664
-0.00722071
-0.00836841
-0.00976055
-0.0112852
-0.0127562
-0.0139979
-0.0142302
-0.0136895
-0.0132523
-0.0154089
-0.01641
-0.0174643
-0.0185581
-0.0194147
-0.00121836
-0.00296976
-0.00355086
-0.00432668
-0.00544264
-0.0059599
-0.00633379
-0.00704423
-0.00831892
-0.0105332
-0.01281
-0.0140011
-0.0142022
-0.0138492
-0.0139158
-0.0170659
-0.0183674
-0.0195408
-0.0205791
-0.0213387
-0.000622995
-0.00270357
-0.00385741
-0.00431054
-0.00493222
-0.0055605
-0.00597442
-0.00738219
-0.00903123
-0.0106983
-0.0120448
-0.0130188
-0.0138747
-0.0147802
-0.0189107
-0.0205052
-0.0219402
-0.0233
-0.0244435
-0.0253147
-0.000851944
-0.0026021
-0.00352477
-0.00422218
-0.00483483
-0.00557752
-0.00679986
-0.0082861
-0.0101789
-0.0121231
-0.0140571
-0.0159749
-0.0177806
-0.0196086
-0.0213658
-0.0232237
-0.0250671
-0.0270027
-0.0289203
-0.0307849
-0.000648748
-0.00222941
-0.00412779
-0.00529579
-0.00574539
-0.00627688
-0.00704295
-0.00820182
-0.009892
-0.0119843
-0.0141742
-0.0164002
-0.0184605
-0.02049
-0.0224175
-0.0243373
-0.026178
-0.0279369
-0.0295575
-0.030942
-0.0017774
-0.00273774
-0.00446239
-0.00612906
-0.0067106
-0.00730665
-0.00800822
-0.00903302
-0.0105785
-0.0126647
-0.0148806
-0.0172482
-0.0193859
-0.0215544
-0.0234836
-0.0253584
-0.0269445
-0.0282284
-0.0291013
-0.0295012
-0.00207079
-0.00571064
-0.00703374
-0.00766221
-0.00798055
-0.00846837
-0.00914059
-0.0100455
-0.0115104
-0.0133318
-0.0154194
-0.0176604
-0.0199253
-0.0223113
-0.0246768
-0.0270669
-0.0293066
-0.0313801
-0.0330404
-0.034452
-0.0138305
-0.00852992
-0.0084437
-0.0089095
-0.0082757
-0.00896264
-0.0097579
-0.0107952
-0.0119657
-0.0132996
-0.0147862
-0.016423
-0.0181769
-0.0201282
-0.0223328
-0.0248631
-0.0277293
-0.0308174
-0.0340834
-0.0370499
-0.00613752
-0.0068192
-0.00657324
-0.00638319
-0.00680753
-0.00881179
-0.0109455
-0.0128309
-0.0141898
-0.0155306
-0.0169508
-0.0187709
-0.0205378
-0.0224034
-0.0237161
-0.0248348
-0.0255725
-0.0264268
-0.0271343
-0.0284864
-0.00670935
-0.00459535
-0.00459507
-0.0044499
-0.00473066
-0.0054113
-0.00796091
-0.0120585
-0.0166389
-0.0209238
-0.0255101
-0.0302565
-0.0359756
-0.0411527
-0.0440528
-0.0449354
-0.0465969
-0.0491638
-0.0522871
-0.0546457
-0.0180516
-0.0195389
-0.0193298
-0.00947164
-0.0105893
-0.0106055
-0.0113075
-0.0203429
-0.0188141
-0.0172294
-0.0109892
-0.0122892
-0.0116574
-0.0129235
-0.0189677
-0.0155714
-0.0144817
-0.0106408
-0.0112658
-0.00951132
-0.0106562
-0.0160391
-0.0139226
-0.013546
-0.0116326
-0.0130262
-0.0111975
-0.013218
-0.0950904
-0.0908686
-0.0931922
-0.0865891
-0.0846084
-0.0846619
-0.0855441
-0.10124
-0.0947294
-0.0994058
-0.085221
-0.0891318
-0.0889349
-0.0968963
-0.10563
-0.100553
-0.102752
-0.0911749
-0.099691
-0.0982167
-0.10027
-0.105632
-0.103268
-0.104623
-0.102449
-0.106543
-0.101069
-0.104092
-0.102571
-0.105003
-0.105275
-0.106595
-0.103541
-0.104897
-0.105275
-0.095188
-0.104926
-0.102135
-0.101356
-0.090835
-0.104684
-0.101385
-0.0837877
-0.100571
-0.0944338
-0.0859733
-0.0698328
-0.0998805
-0.0941541
-0.0731411
-0.092036
-0.0844993
-0.0648336
-0.0554104
-0.0918594
-0.0847301
-0.0915619
-0.0909543
-0.0975203
-0.0776327
-0.0815833
-0.0844507
-0.0899363
-0.0999256
-0.0999751
-0.107359
-0.0862131
-0.0969577
-0.0934107
-0.10456
-0.104131
-0.109511
-0.114384
-0.0989156
-0.10225
-0.107702
-0.114385
-0.106647
-0.115673
-0.118848
-0.103217
-0.106157
-0.11588
-0.118302
-0.108167
-0.119573
-0.120199
-0.1068
-0.106467
-0.118284
-0.114632
-0.105483
-0.119847
-0.116922
-0.105592
-0.101612
-0.112086
-0.101193
-0.0977086
-0.11525
-0.108433
-0.100076
-0.0953456
-0.0973519
-0.0887662
-0.0878525
-0.105709
-0.0968461
-0.0936988
-0.0887082
-0.0870109
-0.0836294
-0.105551
-0.100351
-0.106449
-0.0961247
-0.102033
-0.0966183
-0.103376
-0.111392
-0.108973
-0.117088
-0.104007
-0.110067
-0.106151
-0.115058
-0.116934
-0.119622
-0.126551
-0.112016
-0.117221
-0.11787
-0.125546
-0.122049
-0.128834
-0.135436
-0.118687
-0.121424
-0.127812
-0.131752
-0.124001
-0.137224
-0.13991
-0.121398
-0.11657
-0.130964
-0.116584
-0.120608
-0.139772
-0.136011
-0.113128
-0.0977584
-0.108884
-0.0851669
-0.111896
-0.133715
-0.125008
-0.0924006
-0.0812937
-0.078541
-0.0646282
-0.100307
-0.121777
-0.111902
-0.0792425
-0.0770743
-0.0617326
-0.0572304
-0.106434
-0.10966
-0.120995
-0.0929228
-0.102416
-0.100647
-0.116341
-0.120254
-0.125664
-0.139599
-0.106424
-0.118378
-0.121974
-0.13657
-0.132111
-0.144734
-0.156114
-0.121886
-0.130735
-0.141116
-0.151165
-0.142637
-0.160683
-0.171638
-0.133174
-0.137238
-0.154848
-0.162473
-0.148201
-0.175404
-0.182047
-0.136395
-0.121651
-0.164155
-0.161601
-0.144473
-0.183273
-0.182069
-0.113723
-0.0893778
-0.157839
-0.140419
-0.132163
-0.179707
-0.168447
-0.0824294
-0.0673349
-0.133175
-0.111522
-0.117083
-0.163231
-0.145805
-0.0640458
-0.0579561
-0.104579
-0.0858862
-0.0165415
-0.0151385
-0.0173786
-0.0154946
-0.0163296
-0.0143529
-0.0155128
-0.020877
-0.0196686
-0.0263784
-0.0170806
-0.0200663
-0.0165198
-0.0197202
-0.0304342
-0.0271296
-0.0307639
-0.0211438
-0.023522
-0.0206682
-0.0229845
-0.0486549
-0.0339752
-0.0482377
-0.0238745
-0.0236289
-0.0236103
-0.0250398
-0.0600991
-0.0526239
-0.0626511
-0.0231998
-0.0210616
-0.0253733
-0.0263197
-0.052373
-0.0652797
-0.0712415
-0.0201326
-0.0177578
-0.0266653
-0.0271663
-0.0336294
-0.0721755
-0.070066
-0.0174839
-0.0191249
-0.0269511
-0.0256821
-0.0276425
-0.0679655
-0.0607229
-0.0206103
-0.02681
-0.0254998
-0.0274232
-0.016959
-0.014499
-0.0188166
-0.012181
-0.0146634
-0.0131534
-0.0165076
-0.0283796
-0.021917
-0.0381202
-0.0160052
-0.0196237
-0.0181439
-0.0235215
-0.0348728
-0.0442094
-0.0604276
-0.0206056
-0.023063
-0.0250905
-0.0281366
-0.0519041
-0.0642355
-0.0664303
-0.0237578
-0.0251986
-0.0286037
-0.0278668
-0.0611607
-0.0650761
-0.0556764
-0.0254333
-0.0260085
-0.0271553
-0.0243119
-0.0671831
-0.0516434
-0.0419775
-0.0263634
-0.0278847
-0.0235267
-0.0228736
-0.0714536
-0.040376
-0.0407147
-0.0282958
-0.0286075
-0.0231769
-0.0252441
-0.0692048
-0.0423506
-0.0502817
-0.0285913
-0.0298591
-0.0262278
-0.0299338
-0.0321277
-0.0255819
-0.0257196
-0.0184734
-0.0198514
-0.0180155
-0.01872
-0.0445647
-0.0275268
-0.0344046
-0.0212506
-0.0256163
-0.019515
-0.0221812
-0.0604031
-0.0371925
-0.0460545
-0.0267958
-0.028788
-0.0230406
-0.0250733
-0.0635179
-0.048424
-0.0478936
-0.0289511
-0.02784
-0.0254727
-0.0253701
-0.0510743
-0.0451563
-0.0377398
-0.0269982
-0.023503
-0.0247314
-0.0216348
-0.0359453
-0.0358731
-0.0318132
-0.0225391
-0.0212795
-0.020748
-0.0196935
-0.0320317
-0.0309562
-0.0298737
-0.0213834
-0.0231289
-0.019844
-0.0212545
-0.0394122
-0.0299617
-0.0314412
-0.0240772
-0.0277663
-0.0219348
-0.0244361
-0.0261232
-0.0331601
-0.0280325
-0.0177582
-0.0176901
-0.0184059
-0.0175408
-0.0302045
-0.0270235
-0.0306781
-0.0182962
-0.0209451
-0.0181935
-0.0212852
-0.0433319
-0.0338399
-0.0419661
-0.0219
-0.0243891
-0.0226291
-0.0262149
-0.0456726
-0.0439523
-0.0455066
-0.0249805
-0.0253768
-0.0274891
-0.0302041
-0.0374511
-0.0452164
-0.0431219
-0.0248097
-0.0220342
-0.030766
-0.030776
-0.0331038
-0.0429233
-0.043354
-0.0212632
-0.0204969
-0.0305608
-0.0299556
-0.0318996
-0.0436457
-0.0444214
-0.0207113
-0.0221299
-0.0298576
-0.0299155
-0.0333641
-0.0446196
-0.0446553
-0.0227362
-0.0248171
-0.0299784
-0.0302621
-0.00975572
-0.00850432
-0.00889821
-0.00920947
-0.0096565
-0.00847803
-0.00872585
-0.0109875
-0.00925288
-0.0107795
-0.00975245
-0.00984139
-0.00879804
-0.00897589
-0.0137736
-0.0113944
-0.0139203
-0.0098102
-0.00959965
-0.00903173
-0.00936749
-0.0157475
-0.014975
-0.0179023
-0.00953515
-0.00959249
-0.00956849
-0.0103775
-0.015134
-0.0186547
-0.020355
-0.00976848
-0.0109771
-0.0106951
-0.0118336
-0.0143066
-0.0207393
-0.0210812
-0.0116988
-0.014548
-0.012334
-0.0146002
-0.0177112
-0.0209629
-0.0211336
-0.0156869
-0.0190045
-0.0156751
-0.0195557
-0.0248016
-0.0217375
-0.0258209
-0.0201071
-0.0230969
-0.0209029
-0.0245244
-0.00786774
-0.00696655
-0.00953986
-0.00678143
-0.00746561
-0.00661216
-0.00776235
-0.0108204
-0.0108258
-0.0148788
-0.00765337
-0.00816789
-0.00817769
-0.00924951
-0.0141277
-0.0161374
-0.0193216
-0.00835912
-0.00913958
-0.00952826
-0.0101921
-0.0130343
-0.0163154
-0.0167181
-0.0115961
-0.0175896
-0.0123417
-0.0123976
-0.014916
-0.019277
-0.0190118
-0.0143902
-0.0191889
-0.0150024
-0.0145109
-0.0222996
-0.0170211
-0.0179301
-0.012786
-0.0148081
-0.0134348
-0.0151918
-0.0230874
-0.0186184
-0.0211826
-0.0157598
-0.0194653
-0.0159326
-0.0188406
-0.0265869
-0.0221424
-0.0257102
-0.0208637
-0.0248468
-0.0200429
-0.0241124
-0.0115886
-0.00847982
-0.00991788
-0.00770729
-0.00873581
-0.00743952
-0.00788139
-0.0161791
-0.0106507
-0.0130152
-0.00909446
-0.00989131
-0.00804307
-0.00853629
-0.0197724
-0.013761
-0.0154062
-0.0100526
-0.0103488
-0.0087008
-0.009263
-0.0136274
-0.0198844
-0.0188969
-0.0140326
-0.0189295
-0.0141303
-0.0135828
-0.0128127
-0.0172775
-0.0173569
-0.0133651
-0.0164602
-0.0132223
-0.0129823
-0.0163813
-0.0138896
-0.0158092
-0.013569
-0.015352
-0.013945
-0.0159798
-0.0196349
-0.0165842
-0.0189055
-0.0160588
-0.0187349
-0.0166095
-0.0185808
-0.0241763
-0.0196789
-0.0222431
-0.019827
-0.0236158
-0.0193354
-0.022077
-0.00925
-0.0091969
-0.00953752
-0.00643319
-0.00694245
-0.00645681
-0.0070431
-0.0116682
-0.0096887
-0.0107014
-0.00719236
-0.00801215
-0.00744242
-0.00882842
-0.0141033
-0.0114269
-0.0135792
-0.00829556
-0.00921342
-0.00939284
-0.0111409
-0.0136792
-0.0142534
-0.0154244
-0.00956856
-0.0109112
-0.0118519
-0.013903
-0.013854
-0.0158278
-0.0176542
-0.0114854
-0.0136297
-0.0146024
-0.0168345
-0.0167033
-0.0185552
-0.0215174
-0.0144157
-0.0165965
-0.0176632
-0.0200445
-0.0198543
-0.0224947
-0.0249685