/*--------------------------------*- C++ -*----------------------------------*\
  =========                 |
  \\      /  F ield         | OpenFOAM: The Open Source CFD Toolbox
   \\    /   O peration     | Website:  https://openfoam.org
    \\  /    A nd           | Version:  10
     \\/     M anipulation  |
\*---------------------------------------------------------------------------*/
FoamFile
{
    format      ascii;
    class       volVectorField;
    location    "4.3";
    object      U;
}
// * * * * * * * * * * * * * * * * * * * * * * * * * * * * * * * * * * * * * //

dimensions      [0 1 -1 0 0 0 0];

internalField   nonuniform List<vector> 
12920
(
(103.445 70.2098 59.4559)
(60.0511 61.2285 -17.0327)
(172.292 8.74743 -0.384926)
(108.646 -17.4794 -3.27623)
(141.819 -18.6014 2.34281)
(121.916 -13.9383 1.38782)
(136.142 2.57796 1.04943)
(123.431 9.19344 -0.333241)
(124.022 12.2738 -0.628557)
(116.504 8.26717 -0.839914)
(118.765 5.82928 -0.58961)
(116.598 0.239619 -0.325937)
(121.156 -3.22843 -0.0153653)
(122.611 -5.42052 0.203853)
(127.106 -6.90104 0.33507)
(129.125 -7.61524 0.665601)
(131.664 -8.24477 0.983616)
(132.152 -8.1038 1.05821)
(135.563 -8.35532 0.658693)
(139.323 -7.45216 0.443537)
(213.2 -216.656 -200.063)
(77.3774 -28.4744 -24.8906)
(193.896 -2.7714 -16.6411)
(169.279 27.0269 -11.3527)
(175.681 3.08516 10.6267)
(93.2862 -14.2146 9.99884)
(91.3779 -15.005 5.83901)
(72.7847 -10.4076 3.12539)
(85.2457 -6.15843 2.20115)
(82.9675 -5.17571 1.09788)
(91.357 -4.24432 0.84836)
(92.0148 -4.11975 0.198485)
(95.6257 -3.60087 -0.0740561)
(95.432 -3.30897 -0.198987)
(95.8495 -2.5011 -0.360943)
(94.4098 -2.17661 -0.407875)
(93.4167 -1.48191 -0.525679)
(89.9183 -0.787973 -0.576573)
(90.5322 1.85914 -1.07348)
(91.3718 3.29181 -1.33778)
(161.712 158.136 17.6262)
(142.718 110.345 -30.9914)
(219.945 23.1114 -23.0371)
(180.778 -8.17138 -1.29663)
(171.631 4.56379 9.58924)
(113.456 0.797371 5.7873)
(105.086 0.283953 2.89641)
(81.6561 -4.0605 0.68267)
(86.0447 -4.50699 0.497479)
(79.5542 -5.54804 0.165859)
(84.2176 -6.09263 0.294529)
(83.1705 -6.26123 0.0753289)
(86.5279 -6.03493 0.0992679)
(86.6586 -5.06879 -0.242533)
(88.4972 -3.4863 -0.475659)
(88.0549 -2.23545 -0.563513)
(88.9685 -0.109321 -0.689241)
(87.7997 1.2742 -0.6645)
(89.8577 3.10292 -0.699514)
(93.0692 3.90476 -0.575245)
(112.894 147.355 126.393)
(36.6949 73.3413 -14.1077)
(117.253 37.1552 -9.75882)
(-11.3933 30.9721 -0.917501)
(67.9811 14.1932 0.955646)
(12.7157 4.15516 0.354235)
(59.4723 -1.57297 0.447841)
(43.3094 -4.90274 0.373136)
(64.7894 -7.93344 0.911831)
(62.5387 -9.10102 0.909964)
(72.9401 -10.0112 0.973242)
(73.6891 -9.04275 0.695411)
(79.2795 -8.05674 0.630078)
(80.144 -5.3332 0.259282)
(84.1201 -2.03899 -0.088878)
(84.883 0.19654 -0.172149)
(86.324 2.66431 -0.385102)
(86.8761 3.77407 -0.470584)
(90.307 5.90077 -0.547395)
(94.5515 6.59136 -0.41635)
(134.836 129.437 -45.0265)
(28.1108 145.827 -22.6402)
(109.812 104.197 -11.7984)
(61.6048 47.6764 -4.461)
(95.8343 2.43119 -3.06003)
(62.7241 -4.49382 -1.73505)
(80.2663 -19.399 -0.442869)
(67.3593 -16.9677 0.298321)
(78.017 -22.8768 1.1111)
(73.4449 -19.9861 1.34069)
(78.3933 -20.3942 1.5004)
(76.1271 -17.0332 1.33399)
(79.2811 -15.1249 1.13033)
(77.9336 -11.268 0.641134)
(80.7964 -7.4307 0.222073)
(81.4616 -3.41787 -0.0212916)
(83.8915 0.0121026 -0.218587)
(84.9604 1.49709 -0.301682)
(88.6848 3.88406 -0.360915)
(93.3938 5.28001 -0.176021)
(186.562 -69.3353 167.325)
(-96.2426 118.249 9.34537)
(81.0237 74.7285 6.17525)
(-4.03336 52.0033 0.65235)
(70.1681 35.7726 -0.429024)
(36.0144 17.0439 -0.599462)
(73.2881 -4.20159 -0.187521)
(66.3726 -12.598 -0.218384)
(81.1094 -20.4789 0.231439)
(79.7155 -20.8981 0.452807)
(83.2296 -21.2176 0.957908)
(79.3731 -19.178 1.01958)
(79.1717 -16.0291 1.06366)
(74.5803 -10.7496 0.44334)
(73.6189 -6.31115 -0.0394467)
(73.0534 -3.07364 -0.144661)
(74.5728 -0.016759 -0.304587)
(75.9699 1.86802 -0.416203)
(79.3211 4.91257 -0.400752)
(84.0177 6.18262 -0.218864)
(53.4931 -19.044 40.0271)
(-104.122 67.5529 0.766558)
(82.7863 14.4009 -7.35037)
(30.1481 25.3315 3.21287)
(85.9633 -9.27583 3.39386)
(67.4841 -14.7546 1.59688)
(90.8268 -38.7827 1.0847)
(82.5295 -27.2965 0.0677783)
(90.8394 -34.3294 -0.0424692)
(87.178 -26.812 -0.289558)
(89.6055 -25.8918 0.00598522)
(84.5958 -20.0673 0.111386)
(81 -16.7044 0.488514)
(73.5453 -8.96628 0.383996)
(72.1606 -6.24268 0.226167)
(69.9105 -3.54505 0.255099)
(69.8779 -1.79658 0.0772487)
(69.6025 0.406514 -0.180822)
(72.1699 3.67622 -0.198453)
(77.1705 5.28414 -0.061136)
(-46.0174 164.226 30.906)
(-174.123 21.5902 -5.25163)
(42.0356 14.2469 -6.77471)
(20.4564 7.4793 -0.816288)
(84.2325 -20.7134 1.74177)
(68.0324 -8.97515 0.647005)
(90.6532 -13.8564 -0.773648)
(88.0381 -24.5952 -0.564746)
(94.1774 -23.2658 0.232654)
(88.0022 -25.8903 0.424665)
(89.7773 -21.693 0.461932)
(88.1564 -17.5501 0.53559)
(85.8947 -11.75 0.602879)
(81.2012 -7.59558 0.49936)
(75.6563 -4.74768 0.190618)
(75.0272 -2.59286 0.391998)
(72.8821 -0.692246 0.414844)
(71.0262 1.75999 0.0754654)
(71.8106 4.37914 0.103742)
(75.9558 5.17518 0.175332)
(61.4694 -223.408 64.8657)
(-33.0592 -66.8705 -18.1471)
(120.64 -48.5417 -15.6766)
(96.2024 -35.5214 -6.90932)
(124.951 -44.6423 -0.0482803)
(85.2638 -29.9525 -0.0291006)
(99.1258 -27.9228 0.640029)
(89.2645 -31.5302 -0.185882)
(94.3189 -22.292 -0.237556)
(90.642 -22.135 -0.00449268)
(89.5805 -23.6271 0.390271)
(88.2823 -19.8504 0.550558)
(87.4067 -13.0967 0.562759)
(86.4442 -7.26107 0.242142)
(85.0063 -3.10215 0.371724)
(80.6172 -3.15628 0.508074)
(77.5008 -0.50949 0.510684)
(73.5683 2.83027 0.350561)
(73.627 4.58618 0.217329)
(77.4389 4.26307 0.1917)
(92.1625 -101.693 72.4363)
(34.2191 -23.3408 8.34738)
(112.497 16.129 -2.04537)
(69.83 -7.23305 -0.574373)
(99.9249 -9.61858 1.06884)
(72.2736 -25.4895 1.63593)
(88.6101 -28.3276 0.180525)
(91.6281 -35.7455 -0.17151)
(89.4813 -31.0453 -0.096049)
(96.2559 -24.4961 -0.0393341)
(94.6004 -24.6148 0.160354)
(97.4707 -27.0881 0.0628259)
(101.538 -23.2264 0.238732)
(106.503 -11.5052 0.470456)
(104.563 -3.05544 0.60434)
(96.2444 0.603981 1.29592)
(85.3474 3.136 1.62669)
(77.6474 5.44098 0.816582)
(76.3772 6.03679 0.168356)
(80.3725 4.58151 0.00361682)
(153.052 4.05598 -156.51)
(-86.348 -111.421 -3.78514)
(145.599 -76.6231 -9.46879)
(109.859 -63.4759 -2.88302)
(137.061 -37.3279 10.1314)
(74.9246 -32.5118 0.38838)
(71.8153 -32.4612 1.42233)
(73.3595 -29.9437 0.104671)
(85.8328 -30.9701 0.255176)
(95.6728 -33.4313 0.270292)
(100.694 -35.5575 0.149305)
(101.648 -30.6281 0.0609062)
(100.827 -24.2953 -0.202988)
(102.358 -15.8954 -0.223278)
(103.85 -6.76157 -0.136288)
(100.776 3.63935 -0.0595304)
(95.1838 8.63517 0.803091)
(85.4216 9.36637 0.881291)
(82.83 8.14845 -0.0534821)
(85.1441 4.92478 -0.168639)
(163.343 -26.2263 -125.048)
(97.3769 -110.366 -21.1351)
(173.711 -89.4169 -16.3418)
(121.99 -42.7329 -8.77827)
(131.011 -4.60658 6.55546)
(73.0775 -22.4697 3.13644)
(87.9371 -33.0137 0.137901)
(91.0463 -39.6522 -0.66232)
(90.1295 -40.2959 -0.130566)
(86.0327 -35.9061 0.187614)
(82.8414 -34.4075 0.112668)
(82.916 -30.0252 -0.0526345)
(85.7632 -22.7307 -0.282997)
(89.8499 -15.2753 -0.332873)
(90.3457 -7.45645 -0.503195)
(87.5134 4.93267 -1.20807)
(88.2337 12.1938 -0.540448)
(85.2015 14.5849 -0.154636)
(85.4017 13.587 -0.17686)
(86.6524 7.96169 -0.331292)
(392.268 -125.082 -205.885)
(110.842 -114.125 4.91963)
(157.062 -35.2421 7.19959)
(70.3069 -14.502 3.06694)
(105.867 5.0596 5.76473)
(71.4614 -26.9128 0.810884)
(88.5697 -25.8394 -1.28142)
(66.2345 -31.5912 -0.243519)
(80.7959 -38.525 -0.454485)
(79.6182 -37.1547 -0.348627)
(82.7662 -33.6238 -0.409826)
(80.4663 -26.7799 -0.421475)
(82.2162 -19.0003 -0.494971)
(81.4336 -11.5235 -0.0514448)
(76.0083 -0.076108 -0.344498)
(77.7084 5.96178 -0.825189)
(80.4885 12.4423 -0.485841)
(80.8713 14.2661 -0.0278691)
(83.2083 14.4261 0.123713)
(87.4516 10.4872 -0.210121)
(299.385 -244.375 83.903)
(119.281 -87.8208 -2.90605)
(150.844 -48.5115 13.3264)
(57.7925 -24.8676 0.799732)
(111.781 -26.8754 4.01835)
(79.5292 -34.7265 1.20673)
(103.398 -25.8878 1.84481)
(95.0034 -41.4667 0.254798)
(98.1908 -33.6445 0.045174)
(88.4742 -35.7574 -0.0809926)
(88.2711 -26.8086 0.241539)
(80.8608 -23.6722 0.362022)
(80.9181 -13.188 0.532707)
(75.3754 -7.43731 0.610961)
(75.9739 0.8237 0.166884)
(74.1258 4.78413 0.223353)
(76.1091 10.0918 0.304603)
(76.7992 12.6467 0.275495)
(80.8051 13.4461 0.0996627)
(88.3134 10.2493 0.167121)
(207.964 -41.1009 -106.059)
(155.581 48.1901 -35.7429)
(203.446 10.679 -5.36635)
(165.816 -3.73147 1.30956)
(175.57 -19.9466 4.20388)
(142.726 -30.5785 1.28717)
(140.307 -26.697 0.3381)
(118.133 -33.1749 -0.336694)
(110.199 -24.9331 -0.28815)
(93.6535 -26.7108 -0.47634)
(90.8278 -20.1229 -0.292078)
(81.4115 -17.3689 -0.679547)
(80.6563 -9.58463 -0.471255)
(76.1259 -4.34496 -0.107531)
(76.4395 1.12582 0.224668)
(75.648 3.87653 0.392884)
(76.8677 6.97969 0.491949)
(77.5927 8.63989 0.532198)
(82.159 9.71504 0.293756)
(90.547 7.67379 0.274617)
(181.972 208.177 -10.3814)
(134.234 77.7329 -0.216323)
(179.879 27.3602 -3.03326)
(146.435 4.64939 -5.2346)
(164.999 3.68944 -1.44956)
(126.417 -9.8297 -0.544658)
(122.458 -2.48215 2.59632)
(90.9107 -16.7253 0.833543)
(91.4831 -12.0789 0.657223)
(77.5737 -18.3794 0.209974)
(79.1335 -13.1244 0.144279)
(72.1701 -11.6348 -0.293976)
(73.2901 -6.01959 -0.152632)
(71.3476 -3.60217 -0.0404713)
(73.8206 -0.18926 0.137153)
(74.9648 1.05559 0.246679)
(77.3524 4.14607 0.264414)
(78.0186 4.96536 0.333789)
(82.0698 6.3433 0.224085)
(89.551 6.1641 0.15077)
(72.8697 181.155 -28.3243)
(-30.0985 29.1362 12.0467)
(154.079 45.1824 -6.23392)
(134.915 19.9811 0.316622)
(153.863 26.8257 4.03688)
(104.408 -0.364179 3.69762)
(105.563 2.82377 3.26403)
(77.3556 -15.3765 0.93588)
(85.8809 -13.2439 0.74741)
(72.885 -18.0015 0.169766)
(76.3824 -12.9474 0.435281)
(68.0046 -10.7673 0.227936)
(68.421 -6.64785 0.31606)
(64.838 -5.35712 0.16069)
(66.737 -3.82756 0.0983055)
(68.2474 -2.34668 -0.0548657)
(71.4221 1.37188 -0.115876)
(72.0175 2.76199 -0.0706047)
(75.4177 4.74136 -0.0768037)
(81.5059 5.15509 -0.0350971)
(82.748 147.476 16.6819)
(-87.2928 -1.65143 16.1595)
(157.177 43.4109 8.6168)
(21.514 18.8058 12.0442)
(107.534 38.6626 9.06879)
(35.0195 10.4604 2.53534)
(83.1903 10.9658 0.850443)
(56.2813 -8.80679 -1.29556)
(79.7744 -9.57592 -0.832944)
(69.2621 -13.8329 -0.952849)
(76.4173 -9.32624 0.348887)
(66.6209 -6.57462 0.58348)
(65.5054 -3.35371 1.01333)
(59.9851 -3.29281 0.856916)
(61.942 -3.6232 0.556198)
(64.4941 -4.14332 0.171216)
(68.0854 0.0767135 -0.0721727)
(68.913 2.08385 -0.106896)
(71.748 5.14377 -0.0980492)
(78.141 6.2065 -0.111702)
(188.956 -11.4703 -56.6254)
(55.5655 -69.0793 20.5376)
(144.28 -95.4732 18.634)
(68.0065 -40.3004 6.81924)
(113.153 -20.7132 10.3051)
(62.6211 -7.66873 1.78776)
(98.1438 -11.6599 3.74035)
(73.9489 -12.4881 0.638388)
(94.8485 -14.7686 -0.475405)
(86.723 -12.9497 -3.47236)
(97.2565 -8.50512 -3.39179)
(91.9393 -3.46352 -3.18918)
(90.577 -2.98296 -0.903878)
(78.0736 -5.92765 -0.360734)
(72.6061 -11.3786 -0.180463)
(68.6881 -10.4127 0.294939)
(69.2681 -3.726 0.181246)
(69.6003 0.429161 0.000662136)
(72.4303 4.20728 0.0724069)
(79.3595 5.40813 0.120615)
(246.012 -178.902 -75.2036)
(346.087 -53.0347 -57.502)
(263.922 -8.01716 -3.42254)
(200.14 5.39431 1.7484)
(209.677 11.5005 2.79359)
(188.435 8.07186 -2.81683)
(197.265 -3.53606 1.6088)
(166.14 -9.42622 1.745)
(152.918 -12.1061 1.80924)
(136.279 -2.98085 -1.79804)
(142.609 -0.207631 -4.17111)
(155.606 10.0657 -2.91972)
(169.611 15.2088 2.10741)
(166.69 15.4337 4.08168)
(152.521 5.49399 6.70599)
(113.382 -5.21142 6.04314)
(92.1864 -2.9824 3.03721)
(82.7499 -0.0743803 1.49405)
(81.5497 3.432 1.25641)
(88.2546 4.90037 1.22175)
(196.12 75.4753 -20.6498)
(-40.7304 87.4376 -26.0708)
(130.162 43.729 -14.5392)
(54.2927 6.71579 -3.42026)
(111.82 -10.0198 8.53537)
(96.1186 -15.8577 5.79169)
(118.521 -8.14531 5.91123)
(111.358 -4.83638 2.85546)
(117.268 0.0615987 1.73396)
(111.143 0.763428 0.25823)
(112.529 0.855491 0.148652)
(110.112 -0.799058 0.0891853)
(111.704 -1.77234 0.454142)
(112.142 -3.84043 0.605394)
(115.369 -4.69874 0.875906)
(117.246 -5.48813 1.30668)
(121.044 -5.51929 1.55177)
(122.352 -5.237 1.49231)
(126.525 -4.23987 0.942037)
(128.585 -2.51729 0.900577)
(157.396 -106.751 -90.4626)
(-0.786961 -33.4846 -11.9218)
(130.856 -52.0694 -3.71108)
(51.8209 -25.5471 0.458388)
(103.957 -24.9868 20.2434)
(60.0005 -19.5183 11.5701)
(78.1494 -13.0938 7.01772)
(62.2504 -7.71196 2.36011)
(75.4578 -4.10649 1.58319)
(72.3079 -3.55128 0.377477)
(80.0659 -3.02575 0.637305)
(79.6464 -3.25156 0.105512)
(82.537 -2.98773 -0.0453367)
(81.9594 -2.80516 -0.413553)
(82.3455 -1.94637 -0.719974)
(80.8373 -1.51502 -0.975155)
(80.3684 -0.428052 -1.27139)
(77.7226 0.757355 -1.48905)
(78.9544 2.47405 -2.1289)
(80.0836 2.87213 -2.30866)
(202.217 145.724 -117.188)
(120.003 73.5748 -30.6367)
(161.44 -11.4718 -15.1719)
(94.9706 -20.5406 7.4652)
(114.634 -0.506309 14.9664)
(74.8536 0.189062 6.5564)
(82.9513 3.0594 4.08857)
(64.9649 -0.132842 0.703912)
(72.6409 -0.923928 0.949406)
(66.7598 -2.57104 0.280645)
(72.0935 -3.68069 0.648301)
(70.54 -4.21125 0.213258)
(73.3593 -4.1342 0.246287)
(72.7619 -3.61216 -0.339831)
(73.6584 -2.2837 -0.641189)
(72.642 -1.37757 -0.798819)
(72.7812 0.414661 -1.00127)
(71.0377 1.59612 -0.930111)
(72.7679 2.75977 -0.889632)
(75.1872 2.95752 -0.771957)
(183.976 222.309 71.7917)
(56.2681 2.39956 -2.33703)
(117.24 -22.8311 8.31811)
(-21.6969 3.6516 -3.36213)
(58.5745 2.6953 -1.05651)
(3.28112 1.03604 -0.825642)
(51.0398 -2.00846 0.382589)
(33.262 -3.94149 0.213736)
(55.246 -6.26199 1.51283)
(51.9456 -7.2009 1.40466)
(62.2292 -7.73535 1.62513)
(62.2496 -7.03226 1.06759)
(66.9502 -5.96298 0.931571)
(67.1458 -4.32927 0.291543)
(69.3015 -2.12302 -0.142864)
(69.0102 -0.548082 -0.350311)
(69.8436 1.49971 -0.654316)
(69.2279 2.66058 -0.617314)
(71.3404 4.05385 -0.612263)
(74.1554 4.21377 -0.414091)
(198.561 118.667 -48.8541)
(97.5816 101.487 -24.783)
(139.707 86.4383 -9.78914)
(81.6964 43.6117 -3.30851)
(97.5359 4.30485 -3.26908)
(53.9003 -0.191547 -2.13171)
(68.5687 -14.243 -0.10797)
(52.4317 -9.99421 0.523652)
(64.1507 -15.5415 1.99078)
(59.142 -11.9682 1.92183)
(65.224 -12.8396 2.27847)
(63.3209 -10.0734 1.82481)
(66.4581 -8.90219 1.51492)
(65.4157 -6.32265 0.711101)
(67.1174 -4.08962 0.222627)
(66.5592 -1.64319 -0.112336)
(67.6878 0.315444 -0.408503)
(67.2858 1.69538 -0.397655)
(69.5796 3.27542 -0.315)
(73.0446 3.79465 -0.00835807)
(218.695 -20.1434 203.733)
(-167.499 82.8727 24.1895)
(77.5861 62.0483 16.0723)
(-6.01857 47.9738 2.31193)
(61.7615 32.1414 0.4024)
(19.6125 14.7555 -1.06169)
(56.9497 -3.25855 0.221887)
(45.2866 -7.90608 -0.141394)
(60.3967 -13.7759 0.869492)
(57.5004 -12.4462 1.15526)
(62.6791 -12.708 1.76236)
(60.6189 -10.3411 1.49243)
(62.5632 -8.41602 1.36554)
(60.8584 -5.71805 0.481596)
(60.6764 -3.25221 -0.0717848)
(60.1596 -1.31626 -0.212452)
(60.927 0.48468 -0.444317)
(60.8631 1.91528 -0.51084)
(63.0813 3.60565 -0.32451)
(67.1107 4.07123 0.00364415)
(22.8551 -150.487 143.995)
(-84.7593 53.8085 -5.58703)
(61.7992 14.6569 -13.38)
(8.42667 30.5292 3.3228)
(71.642 -2.37207 2.82475)
(47.1268 -6.44901 1.50905)
(71.1633 -31.925 1.12451)
(59.3513 -17.4696 0.2427)
(68.6371 -25.282 0.187662)
(63.6564 -16.5361 0.0461062)
(66.6923 -16.6887 0.360445)
(62.7627 -11.4157 0.185899)
(62.4905 -9.4375 0.726724)
(59.5807 -4.71965 0.587079)
(59.1602 -3.67784 0.32458)
(57.9559 -1.9649 0.350056)
(58.1804 -0.934072 0.0502349)
(57.4924 0.701637 -0.161814)
(59.5764 2.4136 -0.0159838)
(64.2756 3.1109 0.247846)
(-70.6758 162.479 133.909)
(-161.068 51.5746 -14.4863)
(26.3059 32.0906 -22.008)
(-6.27945 21.7981 -5.24209)
(63.7502 -5.62864 0.0832209)
(46.8663 3.1006 0.738497)
(73.2717 -5.97274 0.119993)
(69.1219 -16.6977 0.391065)
(74.8636 -16.5734 0.0110173)
(70.03 -17.5852 -0.382739)
(71.8064 -13.6716 -0.294083)
(69.4028 -10.2316 -0.306516)
(68.2872 -6.23212 -0.285967)
(65.7433 -3.21101 0.191463)
(61.5911 -2.18256 -0.00672923)
(61.0721 -0.733652 0.455649)
(59.8126 0.462214 0.463062)
(58.5756 1.51647 0.208345)
(59.9203 2.42349 0.345601)
(64.748 2.65639 0.557031)
(211.231 -189.379 -86.8892)
(11.6868 -47.1203 -9.71071)
(117.527 -25.6805 -6.56185)
(71.5438 -14.5126 -1.30099)
(98.7941 -26.4342 2.27778)
(93.6654 -15.0331 0.72263)
(103.245 -18.44 -0.401747)
(86.873 -25.3776 -0.642622)
(85.4571 -18.674 -0.335434)
(79.3612 -17.9389 -0.269465)
(77.4201 -16.318 0.764254)
(76.2017 -12.3142 1.07995)
(75.5882 -7.32197 0.900863)
(74.1766 -3.6813 0.202516)
(71.3429 -0.538773 0.417458)
(65.745 -0.842507 0.577249)
(63.7446 1.01372 0.726702)
(61.5033 1.99851 0.54093)
(62.6661 2.21422 0.485443)
(67.327 1.86006 0.573994)
(115.764 -226.631 41.0626)
(43.6106 12.4372 13.4796)
(104.78 38.4811 2.85142)
(61.1429 7.08965 0.854762)
(85.3327 -3.62949 2.17597)
(78.4661 -9.948 -1.68192)
(90.2234 -14.3013 -1.76169)
(87.946 -23.2451 -0.125605)
(84.5372 -22.1982 0.556697)
(85.3716 -20.0878 0.789101)
(84.8823 -19.1938 1.42575)
(86.0831 -16.1598 1.28861)
(88.1759 -9.3142 1.572)
(88.5214 -3.14331 1.38918)
(85.0314 0.846672 1.41682)
(76.0449 3.76498 1.90092)
(70.0188 3.85465 2.05511)
(65.9584 3.96631 0.929273)
(66.0433 2.96961 0.246875)
(70.0007 1.80973 0.25718)
(28.4966 6.42132 -178.896)
(-85.804 -28.1196 25.6665)
(94.9537 -16.6696 -5.07318)
(29.8936 -26.4345 2.5978)
(87.4442 -17.2825 11.2793)
(78.2428 -21.0105 8.14843)
(82.5693 -22.9766 3.39246)
(77.1018 -22.3023 1.08278)
(80.7727 -23.6555 1.76331)
(84.9133 -24.7971 1.88658)
(88.9041 -24.0428 1.4718)
(90.3517 -18.8721 0.46159)
(91.0749 -11.4641 -0.798499)
(93.1569 -4.36601 -0.824101)
(91.9832 2.38124 -0.319456)
(82.9135 9.54005 -0.0292529)
(77.0695 10.388 1.54443)
(71.2607 8.02157 1.1244)
(70.3523 5.05593 0.109105)
(72.5477 2.30325 0.081993)
(154.295 35.2854 -66.49)
(93.9188 -57.2028 0.639044)
(128.329 -73.8902 6.10661)
(45.3351 -32.9495 -4.79871)
(77.4556 -10.5386 8.6381)
(59.477 -12.5434 3.4957)
(81.962 -19.2299 1.22599)
(79.7154 -29.2522 0.309478)
(79.2911 -29.6553 0.800212)
(78.0532 -27.4414 1.04851)
(76.4122 -24.0458 0.126142)
(76.3898 -18.0157 -1.01967)
(77.9449 -11.265 -1.93672)
(80.3066 -5.36475 -2.01589)
(79.2238 0.968257 -1.76397)
(73.8256 10.1411 -1.73399)
(73.1927 12.4277 -0.20908)
(70.6386 11.8584 0.0899517)
(70.7519 8.16012 0.121209)
(72.4109 4.03284 -0.125677)
(89.2682 42.1365 -121.705)
(53.8053 -72.1897 45.2679)
(117.635 -9.76308 12.5941)
(34.5894 -11.1411 1.13809)
(88.0662 2.54266 7.21457)
(55.5271 -28.7065 1.57011)
(78.3094 -23.8082 1.36008)
(59.0529 -27.1753 1.05984)
(68.1395 -29.4275 0.539939)
(65.5626 -27.1613 0.664693)
(68.3224 -22.2433 0.419611)
(66.5245 -15.5338 0.178601)
(68.3978 -8.92162 -0.261989)
(67.7271 -3.28415 -0.613792)
(64.407 3.19111 -1.23477)
(65.8922 7.49047 -1.04768)
(67.5905 10.3327 -0.206777)
(67.2956 10.5021 0.374918)
(69.7016 9.24271 0.467455)
(73.2729 5.28191 -0.0360314)
(316.939 110.989 -14.4596)
(15.9441 -15.0872 16.4504)
(146 -25.2536 4.67079)
(33.2409 -15.8379 -1.11106)
(98.4732 -23.489 1.55474)
(58.1875 -31.2769 -1.13978)
(83.7045 -20.153 2.53207)
(73.1272 -35.6994 0.593185)
(77.2582 -25.5245 1.00768)
(67.9283 -26.7045 0.462966)
(68.6247 -16.2904 0.902437)
(62.7108 -13.1434 0.867578)
(63.1302 -4.3209 0.746239)
(61.2074 -1.97429 0.67714)
(62.2632 2.83531 0.261778)
(62.1742 5.33794 0.454874)
(64.6439 8.47724 0.574702)
(65.14 9.14355 0.622029)
(68.6988 8.481 0.456158)
(74.5836 5.58996 0.501075)
(292.873 -61.6894 49.9957)
(144.973 11.4969 -21.9504)
(172.476 -1.87 -6.02166)
(118.185 -1.93911 -8.65827)
(141.689 -10.9756 -0.162005)
(116.223 -20.9517 -0.662682)
(121.428 -17.429 1.60231)
(100.197 -25.2393 0.777463)
(92.639 -17.2537 1.32067)
(75.1761 -18.6475 0.275159)
(72.6983 -11.4772 -0.338929)
(64.1168 -8.56327 -0.699522)
(63.6314 -2.71201 -0.238657)
(60.7664 -0.2136 0.139858)
(61.455 2.49041 0.453644)
(61.83 3.77214 0.698739)
(63.9847 5.80189 0.789604)
(65.055 6.15018 0.909711)
(68.9579 6.17066 0.673777)
(75.2306 4.72859 0.692086)
(140.701 6.4187 -79.5795)
(93.8445 31.9003 -23.2289)
(154.456 20.4281 -9.77361)
(106.467 -1.59892 -9.20335)
(127.899 -3.39906 -0.578294)
(88.5154 -15.6943 0.298701)
(99.8892 -4.1875 5.6879)
(73.347 -14.7625 2.00973)
(77.5019 -6.3065 2.19792)
(63.255 -11.6305 0.221514)
(65.1874 -5.60824 0.250243)
(58.5527 -5.78443 -0.462082)
(59.8187 -1.59682 0.00656767)
(57.9556 -1.14542 0.154136)
(59.9845 1.03806 0.420265)
(60.8598 1.32215 0.44013)
(63.3282 3.64951 0.471832)
(63.9388 4.04401 0.604882)
(67.3598 4.90532 0.556987)
(73.3216 4.59332 0.603741)
(127.113 102.504 -59.216)
(44.8426 20.7871 -21.1562)
(149.231 32.3474 -33.2927)
(104.628 6.26188 -11.5961)
(125.297 17.5935 2.1231)
(76.9632 -6.0428 4.88099)
(89.2843 3.75545 5.52601)
(60.4635 -10.6745 1.74285)
(71.5555 -4.95157 1.56509)
(57.279 -9.1501 0.1231)
(62.5007 -4.27024 0.619915)
(54.9374 -4.12283 0.0566719)
(56.8181 -1.64379 0.312848)
(53.7124 -2.00356 0.171446)
(55.5936 -1.61173 0.282426)
(56.2949 -1.29342 0.0157098)
(58.7298 1.29983 -0.047874)
(58.9096 2.23716 0.105852)
(61.8521 3.78494 0.184295)
(67.476 3.97598 0.353692)
(79.6572 -62.9439 -67.4267)
(-79.4418 24.415 -13.6003)
(133.39 49.121 -8.68103)
(-4.77383 19.3299 14.2365)
(99.2138 41.2214 10.4125)
(22.4338 10.7977 2.69836)
(73.6065 14.7767 1.53636)
(40.6719 -3.61947 -2.11792)
(64.723 -1.70643 -0.464623)
(50.5345 -5.62067 -1.07538)
(59.4488 -1.87246 0.585512)
(50.9989 -1.02709 0.412626)
(52.9924 0.212741 1.00443)
(49.1045 -1.27361 0.936715)
(52.2197 -2.39656 1.10117)
(54.4153 -3.32575 0.57338)
(57.3893 -0.272118 0.127922)
(57.6816 1.15777 0.0391747)
(60.2947 3.57868 0.0982478)
(66.4989 4.23335 0.190094)
(-19.7362 -180.949 98.0141)
(-90.2301 -22.5967 24.4681)
(112.278 -31.4349 6.67229)
(-4.09214 2.49475 4.71471)
(99.4056 4.09616 8.74596)
(30.2838 4.10906 -1.27839)
(79.6535 -3.34215 2.01737)
(49.8478 -7.95393 -2.58495)
(75.2188 -9.95385 -2.0825)
(61.6292 -6.88878 -4.01507)
(70.7522 -1.34757 -1.52235)
(61.8133 2.72647 -1.87272)
(63.67 2.76059 -0.280468)
(58.3766 -1.18859 -0.494731)
(59.8778 -7.64548 0.791279)
(58.5496 -7.52423 1.39475)
(60.2945 -2.99949 0.741264)
(60.3873 -0.131992 0.161477)
(63.0292 2.69449 0.209487)
(69.7938 3.29894 0.287513)
(92.0053 -56.533 -15.9306)
(59.0054 40.0821 23.0341)
(115.792 27.0244 9.47048)
(54.6445 25.6139 -1.2858)
(130.276 31.0568 6.45218)
(95.1823 24.9843 -0.745248)
(131 14.5107 6.11955)
(111.907 5.73219 3.0795)
(120.532 -2.70673 2.20511)
(108.16 -5.34473 -2.70568)
(112.128 -5.25781 -5.71027)
(109.161 0.465831 -6.19833)
(121.059 3.54049 -1.0018)
(125.092 1.79841 6.25955)
(115.914 -5.51436 12.4807)
(93.5997 -7.63233 11.6009)
(82.816 -3.05395 6.54021)
(77.4056 -0.178461 3.48783)
(77.5596 2.77841 2.83529)
(85.0713 3.8474 2.6532)
(111.237 -37.7267 -23.3703)
(-14.1619 49.4447 -24.372)
(99.5568 25.5214 -24.6039)
(28.0245 -7.50233 -2.11297)
(96.8819 -13.3367 9.99431)
(82.6673 -15.9247 6.32553)
(109.714 -7.68294 6.11946)
(103.622 -3.94066 2.59146)
(110.445 1.34139 1.76191)
(103.355 2.03893 0.535125)
(104.167 1.81037 0.84218)
(100.75 0.126995 0.781833)
(102 -0.818429 1.10925)
(102.105 -2.09059 1.07977)
(104.282 -2.48211 0.999195)
(106.141 -2.76451 1.07997)
(109.356 -1.85442 1.164)
(109.782 -1.03304 1.26071)
(112.495 0.443143 0.725796)
(111.528 1.82113 0.67134)
(75.0253 -32.6522 -32.3258)
(-71.2075 -65.0802 0.404418)
(101.287 -65.8586 -8.60838)
(3.56034 -35.7674 -0.347966)
(75.3936 -29.0938 15.9887)
(36.9918 -16.2282 7.15837)
(65.7789 -8.71389 4.05214)
(50.0284 -4.45161 -0.495391)
(64.8957 -1.88264 -0.237033)
(60.5081 -2.18515 -0.814831)
(68.1318 -2.02098 0.11039)
(67.0283 -2.45558 -0.192913)
(69.9702 -2.23459 -0.11768)
(69.276 -2.0005 -0.655608)
(69.8217 -1.12286 -1.03786)
(68.4196 -0.70818 -1.44337)
(68.3135 0.498314 -1.84668)
(66.2768 1.52979 -2.1294)
(67.8118 2.60709 -2.77387)
(68.7535 2.49592 -2.56259)
(232.166 79.7265 -2.5221)
(127.171 1.58075 -29.5593)
(134.871 -16.8378 -26.1614)
(54.7482 -12.6459 -1.80707)
(87.4994 5.33584 7.82845)
(50.3089 3.38068 3.31802)
(67.2995 5.78086 2.56029)
(50.0629 2.28732 0.114352)
(60.1808 1.23454 0.81307)
(53.809 -0.677014 0.170953)
(59.704 -2.00915 0.670178)
(57.7117 -2.6699 0.213822)
(60.538 -2.75082 0.270239)
(59.6639 -2.37277 -0.345375)
(60.3348 -1.30344 -0.56673)
(59.1806 -0.655184 -0.744851)
(59.0839 0.800942 -0.977289)
(57.1443 1.58524 -0.909825)
(58.7022 2.3364 -0.820254)
(60.8488 2.25459 -0.468748)
(355.845 -3.38426 -14.1375)
(74.3215 -22.6989 -17.1876)
(120.944 -10.2531 -4.20746)
(-25.1262 2.28837 -7.06485)
(54.5251 0.190877 -1.89122)
(-5.6761 1.16302 -1.29191)
(42.9749 -0.934166 0.377639)
(22.5851 -2.20803 -0.155206)
(45.2062 -4.21688 1.3637)
(40.2737 -5.02444 1.06226)
(50.6237 -5.53152 1.57054)
(49.9589 -5.10199 0.959513)
(54.4076 -4.31228 0.901773)
(54.2926 -3.19048 0.207849)
(55.8423 -1.60328 -0.152575)
(55.3742 -0.562094 -0.334307)
(55.8546 1.08654 -0.607737)
(54.7531 1.94262 -0.544013)
(56.4376 2.88451 -0.434178)
(58.8037 2.78437 0.00450451)
(212.475 71.9778 -178.357)
(100.296 64.6533 -61.6565)
(129.332 50.1026 -30.8851)
(70.527 24.0868 -8.58642)
(85.7755 0.965806 -1.01058)
(38.4791 1.54669 -0.545257)
(56.4381 -10.5816 0.80266)
(38.2596 -4.74865 0.578109)
(51.3025 -10.4605 1.83395)
(45.3255 -6.69752 1.60485)
(52.2792 -8.20517 2.02884)
(50.3325 -5.92845 1.50602)
(53.6709 -5.50135 1.28908)
(52.8435 -3.66537 0.534669)
(54.123 -2.41059 0.170141)
(53.5086 -0.971659 -0.0716694)
(54.1157 0.376568 -0.37246)
(53.2015 1.43924 -0.319936)
(55.0365 2.48906 -0.0509778)
(58.1166 2.60246 0.436864)
(-44.4644 46.8528 -100.429)
(-151.786 44.6247 4.42579)
(65.8143 36.0118 3.57382)
(-19.9301 36.1896 0.988997)
(51.1835 26.102 3.71657)
(2.74706 12.9029 -0.788807)
(43.43 -1.95569 0.679818)
(28.0677 -3.52025 -0.461502)
(44.458 -8.64828 0.98462)
(40.753 -6.6883 0.941286)
(47.3193 -7.44632 1.55959)
(46.2843 -5.37565 1.16422)
(49.0699 -4.64655 1.02325)
(48.5197 -3.15233 0.335055)
(48.9803 -1.91731 0.0755217)
(48.5736 -0.74178 -0.12697)
(49.0936 0.473263 -0.35065)
(48.6146 1.47205 -0.371301)
(50.5271 2.52443 -0.00727779)
(54.3186 2.61518 0.545682)
(57.0339 -81.3963 97.6651)
(-57.0177 22.3682 -29.2994)
(52.8364 1.17533 -17.1589)
(-8.66244 26.9593 1.11223)
(58.8973 -2.00641 1.58356)
(27.5958 -2.02245 1.5887)
(53.6765 -27.6992 0.736653)
(39.1674 -9.47571 0.333572)
(50.4434 -18.8931 0.480107)
(45.1999 -9.52362 0.464511)
(49.9791 -11.2047 0.764156)
(47.1957 -6.34616 0.470239)
(48.7024 -5.71532 0.810303)
(47.6016 -2.70949 0.669222)
(47.9028 -2.34037 0.433133)
(47.1835 -1.34113 0.361422)
(47.5698 -0.743876 0.0821972)
(46.8989 0.366738 -0.0605791)
(48.8885 1.41032 0.240789)
(53.3735 1.7863 0.758902)
(28.5071 127.625 -12.4461)
(-102.698 53.4608 -36.8151)
(25.2102 29.0216 -26.1194)
(-21.3097 17.931 -9.2061)
(45.9416 -5.91087 -2.44365)
(23.1935 7.63096 -0.0664141)
(51.8391 -2.74296 0.19452)
(46.3947 -9.51951 0.694451)
(54.3764 -11.0761 0.112588)
(52.2288 -10.9906 -0.0786818)
(55.2697 -8.24877 -0.0657403)
(54.0876 -5.67203 -0.0443476)
(54.5439 -3.08999 -0.00794099)
(53.4934 -0.918091 0.286711)
(49.7864 -0.963434 0.734492)
(49.2758 -0.0514568 0.609044)
(48.686 0.437127 0.429168)
(47.9953 0.81666 0.210057)
(49.6302 1.22516 0.464358)
(54.4244 1.3687 0.985094)
(107.23 -123.974 -156.682)
(-1.93695 -22.0168 -22.0291)
(88.1152 -19.7725 -10.1066)
(47.4606 -13.0238 -3.98461)
(77.6124 -23.6529 0.216484)
(71.7937 -7.86051 -0.0523031)
(81.3183 -11.3148 0.979626)
(67.201 -17.7131 0.427284)
(66.5526 -13.8355 0.319069)
(63.456 -13.5504 0.481729)
(63.5631 -10.8894 1.0095)
(63.2787 -7.44701 1.1307)
(63.0407 -3.80943 0.706418)
(61.8757 -1.43381 0.294241)
(58.7139 1.01143 0.553747)
(52.7534 0.172095 1.31249)
(51.9217 0.804323 0.873746)
(50.6896 0.923826 0.531496)
(52.3723 0.864696 0.580454)
(57.0196 0.823702 0.991622)
(131.676 -125.635 39.0761)
(39.2878 27.4918 6.6072)
(84.7353 36.2495 2.46501)
(41.3153 5.00192 0.458322)
(67.093 -3.2905 2.43629)
(60.1281 -7.59003 -1.79372)
(73.0965 -9.8581 -1.3955)
(70.1101 -17.5339 0.40183)
(69.8936 -16.7817 1.01641)
(70.9609 -15.7578 1.3558)
(71.9251 -13.3634 1.73493)
(72.9295 -9.02626 1.71889)
(73.5473 -3.63916 1.53514)
(72.6632 -0.177377 1.16883)
(67.9409 2.78267 1.55348)
(58.8664 4.43726 2.62357)
(56.3727 3.02314 1.80838)
(54.2825 2.43654 0.736791)
(55.1071 1.34812 0.370774)
(58.9065 0.836452 0.758962)
(-31.2329 12.96 -134.084)
(-127.857 -9.65788 7.1652)
(65.8611 6.70578 -15.7862)
(2.67688 -15.4431 1.77999)
(65.187 -9.14297 7.88709)
(55.5175 -16.5744 6.35602)
(66.5014 -18.3407 3.56337)
(64.9404 -18.0426 1.80631)
(68.2707 -18.9015 1.97743)
(72.1431 -19.3507 1.49297)
(78.2589 -18.7914 -1.93364)
(80.5787 -11.1214 -0.283133)
(79.3443 -3.46764 -1.21182)
(79.1451 1.89775 -1.21866)
(74.0337 6.1518 -0.171135)
(62.9398 9.84101 1.52506)
(60.0069 7.90819 1.86617)
(57.0606 5.26834 1.08457)
(57.5679 2.66081 0.46096)
(60.2536 1.12926 0.700205)
(87.7475 -14.9245 -93.0053)
(-44.1057 -55.1185 10.7483)
(93.0899 -48.8161 8.90921)
(-3.13983 -22.2979 -3.18203)
(53.1198 -10.3606 6.70224)
(33.2897 -16.3941 2.51884)
(61.6697 -20.6572 1.97977)
(63.3653 -23.7724 1.11093)
(65.3943 -22.4609 1.26979)
(66.0647 -20.0582 1.02521)
(66.3854 -16.0391 -0.360228)
(66.6413 -10.1703 -1.76698)
(67.5946 -4.16785 -2.69595)
(69.1346 0.675805 -2.69021)
(66.0095 5.4202 -2.12805)
(58.4963 9.72295 -0.278076)
(58.5178 9.73895 0.578236)
(56.5415 7.73102 0.501041)
(57.6002 4.45532 0.568153)
(59.9468 2.22812 0.569576)
(-5.16304 19.8655 -69.8251)
(-21.0384 -42.2538 5.24999)
(94.5201 -8.75727 7.44075)
(4.88444 -9.87198 0.0127386)
(73.951 -0.91182 5.90303)
(37.5869 -30.7123 1.57011)
(62.7155 -21.7594 1.75635)
(45.563 -23.8615 0.826282)
(53.9885 -23.1473 1.00453)
(51.8203 -20.3783 0.935844)
(55.5684 -14.9838 0.511191)
(54.5345 -9.36037 -0.072083)
(56.7979 -4.14818 -0.779719)
(56.458 -0.227351 -0.995162)
(52.7785 3.82747 -0.594093)
(53.6582 6.12542 -0.340751)
(55.1574 7.56702 0.311449)
(54.9642 6.9021 0.731293)
(57.5607 5.40572 0.728498)
(60.839 2.86421 0.566995)
(92.9893 167.364 -57.909)
(-28.1987 15.2592 27.3307)
(108.229 -19.9316 7.7419)
(9.60154 -17.3181 3.15026)
(81.5396 -25.9871 1.77156)
(33.362 -31.9446 -1.8625)
(62.2992 -16.2614 2.76866)
(49.9264 -32.7372 0.483349)
(57.4018 -19.7279 1.41562)