/*--------------------------------*- C++ -*----------------------------------*\
  =========                 |
  \\      /  F ield         | OpenFOAM: The Open Source CFD Toolbox
   \\    /   O peration     | Website:  https://openfoam.org
    \\  /    A nd           | Version:  10
     \\/     M anipulation  |
\*---------------------------------------------------------------------------*/
FoamFile
{
    format      ascii;
    class       volVectorField;
    location    "4.3";
    object      U_0;
}
// * * * * * * * * * * * * * * * * * * * * * * * * * * * * * * * * * * * * * //

dimensions      [0 1 -1 0 0 0 0];

internalField   nonuniform List<vector> 
12920
(
(105.61 56.346 69.24)
(63.2329 59.1481 -16.7123)
(181.023 7.85555 0.248244)
(115.043 -18.1216 -3.181)
(147.159 -18.8202 2.36157)
(127.765 -13.8721 1.37458)
(141.466 2.93646 1.01848)
(128.246 9.43035 -0.364604)
(128.633 12.3082 -0.632737)
(120.825 8.21639 -0.827343)
(122.903 5.7623 -0.566516)
(120.598 0.161887 -0.302756)
(125.055 -3.28105 0.00250228)
(126.401 -5.44239 0.216665)
(130.787 -6.9137 0.344433)
(132.724 -7.62735 0.674949)
(135.156 -8.25271 0.988542)
(135.761 -8.13156 1.05209)
(139.142 -8.39048 0.63296)
(139.513 -7.47546 0.420365)
(217.915 -203.34 -169.729)
(93.4604 -21.659 -21.54)
(205.217 2.32218 -14.3817)
(176.147 28.7639 -11.0157)
(180.406 3.64915 11.1798)
(97.6391 -13.9899 10.0328)
(96.3287 -14.3734 5.75295)
(77.6748 -9.86777 3.10032)
(90.0172 -5.75048 2.18713)
(87.4493 -4.92469 1.08873)
(95.6211 -4.05991 0.848811)
(96.0765 -3.97027 0.204672)
(99.4904 -3.4673 -0.0591667)
(99.163 -3.19749 -0.18714)
(99.4443 -2.39945 -0.35053)
(97.9027 -2.09537 -0.400511)
(96.805 -1.45601 -0.525028)
(93.4206 -0.811533 -0.581475)
(94.0039 1.83596 -1.10974)
(91.5868 3.25527 -1.38866)
(155.899 157.592 29.9346)
(141.005 107.673 -31.5732)
(226.22 22.4196 -23.5719)
(184.504 -9.62278 -1.13626)
(176.01 5.20422 9.5927)
(117.752 1.3374 5.65313)
(109.713 0.537297 2.76446)
(86.2478 -3.65869 0.673556)
(90.5012 -4.21437 0.546167)
(83.7927 -5.30239 0.198384)
(88.3275 -5.85229 0.326441)
(87.1407 -6.04781 0.105889)
(90.3651 -5.83628 0.124062)
(90.3749 -4.9047 -0.223595)
(92.0882 -3.35971 -0.461855)
(91.5291 -2.15186 -0.562378)
(92.3195 -0.0611305 -0.685668)
(91.2887 1.24986 -0.664499)
(93.3693 3.05548 -0.734389)
(93.3857 3.86916 -0.654635)
(115.649 148.038 94.8721)
(50.097 65.3214 -17.3021)
(128.061 34.6552 -11.3234)
(-6.89595 30.2806 -1.06667)
(73.8778 14.394 0.909685)
(18.3735 4.69433 0.252188)
(64.6411 -0.898317 0.460808)
(48.2925 -4.19593 0.39141)
(69.4107 -7.315 0.899478)
(66.9676 -8.56347 0.911106)
(77.1436 -9.52048 0.971013)
(77.6808 -8.62789 0.700617)
(83.0937 -7.70747 0.635021)
(83.8196 -5.07129 0.25992)
(87.6638 -1.86548 -0.0795479)
(88.3471 0.284608 -0.159908)
(89.667 2.74353 -0.382842)
(90.3525 3.76221 -0.473972)
(93.8429 5.86448 -0.586949)
(94.9476 6.55882 -0.526609)
(151.18 101.488 -32.5905)
(53.6098 152.31 -22.3018)
(120.53 102.092 -11.467)
(69.0039 46.9167 -4.22556)
(102.351 2.60062 -2.93072)
(68.2699 -3.89924 -1.68016)
(85.4505 -18.6874 -0.292096)
(71.9365 -16.1529 0.383361)
(82.3403 -22.0557 1.14802)
(77.5446 -19.2365 1.35972)
(82.3324 -19.7367 1.51371)
(79.8837 -16.4855 1.33828)
(82.9064 -14.6868 1.13678)
(81.4489 -10.9433 0.65376)
(84.2303 -7.2063 0.224791)
(84.8756 -3.30161 -0.0109084)
(87.1852 0.0664356 -0.235273)
(88.3715 1.47407 -0.305413)
(92.2027 3.84253 -0.401945)
(93.8402 5.24097 -0.297356)
(176.113 -56.1174 170.256)
(-71.2758 123.251 10.1638)
(87.3281 76.0858 5.40991)
(3.71701 53.8204 0.788012)
(76.7654 38.3283 -0.563491)
(42.0416 18.9678 -0.62492)
(78.6214 -2.98179 -0.268573)
(71.4338 -11.4501 -0.235939)
(85.6373 -19.4005 0.220759)
(83.9029 -19.9518 0.463866)
(87.1309 -20.4381 0.973972)
(83.0228 -18.5504 1.03274)
(82.6442 -15.5393 1.06479)
(77.9285 -10.3923 0.44192)
(76.9071 -6.11435 -0.0487415)
(76.3453 -2.99738 -0.146054)
(77.7977 -0.0387164 -0.295663)
(79.3572 1.83463 -0.417689)
(82.8176 4.86768 -0.443578)
(84.5174 6.13659 -0.340258)
(68.6297 7.80039 36.5719)
(-73.5503 74.6101 -0.293823)
(89.8932 16.918 -8.09984)
(37.9112 27.4329 3.22394)
(92.9414 -7.40343 3.32733)
(72.1403 -13.0267 1.47109)
(95.3547 -36.8899 1.13438)
(86.9563 -25.5843 0.111873)
(94.9278 -32.7959 -0.0154308)
(90.9768 -25.5234 -0.266689)
(93.2039 -24.8953 0.0266969)
(87.9786 -19.2953 0.154566)
(84.2296 -16.1343 0.516625)
(76.6851 -8.68495 0.406083)
(75.2755 -6.17587 0.220408)
(73.0665 -3.55595 0.242311)
(73.0239 -1.8552 0.0719135)
(72.9552 0.372911 -0.184903)
(75.6572 3.65669 -0.249102)
(77.7314 5.25169 -0.172929)
(-19.9724 194.305 34.2139)
(-156.202 36.6541 -4.91605)
(42.6414 19.6751 -6.62391)
(28.8014 11.873 -0.946438)
(90.6448 -18.4332 1.65862)
(74.2085 -7.04577 0.831603)
(95.994 -12.3781 -0.741193)
(92.7675 -23.5159 -0.518577)
(98.2612 -22.3303 0.264561)
(91.6191 -25.2177 0.435638)
(93.2369 -21.2544 0.487814)
(91.4834 -17.3526 0.536922)
(89.0351 -11.7275 0.554317)
(83.9875 -7.78586 0.43865)
(78.7115 -4.84546 0.159017)
(78.1702 -2.65114 0.381747)
(76.0274 -0.705657 0.389367)
(74.3934 1.78411 0.0590898)
(75.2893 4.38897 0.0510408)
(76.5534 5.17022 0.0773783)
(75.9981 -178.945 67.3283)
(-21.8321 -52.1864 -16.5708)
(118.153 -37.3134 -15.7367)
(101.076 -28.7232 -6.7303)
(129.016 -40.4322 0.111771)
(88.6082 -27.609 0.0119712)
(103.104 -26.2285 0.746174)
(93.0113 -30.4643 -0.15767)
(98.1398 -21.8627 -0.223302)
(93.9208 -21.9809 0.0203245)
(92.6959 -23.4862 0.407902)
(91.331 -19.888 0.568619)
(90.4137 -13.3186 0.570561)
(89.3431 -7.52373 0.231415)
(87.7887 -3.41515 0.347663)
(83.8397 -2.96059 0.478244)
(80.6738 -0.288699 0.532246)
(76.9101 2.97057 0.332888)
(77.0615 4.64627 0.161985)
(78.0355 4.28617 0.0945413)
(78.645 -79.5175 42.7606)
(17.7186 -18.0476 3.92943)
(106.59 21.3321 -3.19987)
(70.7851 -2.31611 -0.595827)
(102.346 -6.43717 0.895205)
(75.3432 -23.0581 1.60315)
(92.0577 -26.6141 0.234657)
(94.9721 -34.4842 -0.16641)
(92.8095 -29.7357 -0.0546305)
(99.609 -23.8087 -0.0193788)
(97.7583 -24.1603 0.160863)
(100.512 -26.5188 0.04231)
(104.554 -22.552 0.222676)
(109.517 -10.9056 0.46113)
(107.442 -2.58597 0.566932)
(99.314 1.02883 1.35889)
(88.2956 3.46535 1.62847)
(80.8215 5.61672 0.791079)
(79.7441 6.12053 0.108134)
(80.9171 4.60751 -0.107088)
(126.46 -6.253 -146.015)
(-88.4449 -114.578 -11.6118)
(143.303 -74.5604 -7.63231)
(113.214 -59.6566 -2.55768)
(138.386 -33.6889 10.1391)
(76.3371 -29.5791 0.286409)
(74.1174 -29.9813 1.37647)
(76.4728 -28.3948 0.145958)
(89.0274 -29.7335 0.313321)
(98.9 -32.1755 0.272188)
(103.844 -34.425 0.15108)
(104.673 -29.6227 0.064261)
(103.766 -23.3219 -0.201724)
(105.274 -15.0016 -0.214936)
(106.768 -6.09071 -0.140854)
(103.773 4.08968 -0.0321245)
(98.0402 8.91056 0.816091)
(88.485 9.50506 0.857629)
(86.1408 8.2006 -0.119499)
(85.6112 4.91549 -0.288679)
(160.534 -28.0622 -134.546)
(90.5037 -111.388 -24.7204)
(175.104 -85.1975 -16.0778)
(124.13 -38.7181 -8.28298)
(132.374 -0.982461 6.8764)
(74.3822 -19.1065 2.97197)
(90.0712 -30.6934 0.140472)
(93.6235 -37.3459 -0.656225)
(92.9577 -38.3689 -0.100766)
(88.9426 -34.4046 0.18482)
(85.6866 -33.2511 0.109163)
(85.7932 -29.0274 -0.0438253)
(88.6534 -21.8319 -0.273237)
(92.7012 -14.4736 -0.319398)
(92.9361 -6.78457 -0.499042)
(90.4781 5.43129 -1.19435)
(91.0881 12.5024 -0.530532)
(88.2562 14.7378 -0.177928)
(88.6744 13.621 -0.233173)
(87.0822 7.90576 -0.445807)
(383.987 -111.865 -194.195)
(105.874 -104.746 2.83436)
(155.648 -27.0982 6.72192)
(71.8804 -9.46595 3.36182)
(107.998 9.13632 5.61969)
(73.0099 -22.847 0.790437)
(89.3919 -22.0705 -1.42562)
(68.2758 -28.7037 -0.328831)
(83.1418 -36.2772 -0.583562)
(82.1216 -35.3431 -0.438797)
(85.291 -32.1493 -0.486314)
(83.0539 -25.6305 -0.459196)
(84.8914 -18.0862 -0.527218)
(83.969 -10.7461 -0.0761976)
(78.6861 0.564936 -0.290659)
(80.4694 6.48806 -0.811066)
(83.222 12.7485 -0.478775)
(83.8485 14.4154 -0.0444563)
(86.4456 14.4691 0.0675699)
(87.8874 10.4607 -0.33478)
(288.699 -233.715 33.5518)
(96.6535 -71.8977 -10.5109)
(145.994 -40.8054 12.9352)
(56.6709 -19.161 1.18632)
(112.676 -22.1611 4.26015)
(80.7612 -30.5874 1.27964)
(104.425 -22.3404 1.71145)
(96.4299 -38.314 0.178083)
(99.8161 -31.0095 -0.025188)
(90.3072 -33.5678 -0.129404)
(90.2272 -25.0477 0.167648)
(83.0392 -22.2693 0.298693)
(83.1968 -12.093 0.492062)
(77.7789 -6.60936 0.647494)
(78.475 1.48138 0.180797)
(76.7145 5.25863 0.22084)
(78.7046 10.401 0.303597)
(79.6924 12.8119 0.262832)
(84.0272 13.4906 0.0471637)
(88.745 10.2397 0.053837)
(190.973 -34.2268 -102.586)
(136.52 59.3952 -35.9882)
(197.227 18.5473 -5.57838)
(165.624 2.84138 1.79731)
(176.428 -14.2768 4.37172)
(143.018 -26.0925 1.34576)
(140.578 -22.8764 0.394057)
(118.662 -29.9037 -0.30823)
(111.104 -22.3539 -0.2888)
(94.9243 -24.5773 -0.527028)
(92.2958 -18.4988 -0.31186)
(83.1715 -16.0376 -0.673895)
(82.6186 -8.55254 -0.455878)
(78.3246 -3.52205 -0.0841709)
(78.7667 1.72292 0.223664)
(78.0694 4.3092 0.390708)
(79.3324 7.26393 0.491533)
(80.3876 8.80206 0.520403)
(85.3401 9.76641 0.237272)
(90.9514 7.66639 0.158956)
(174.702 186.801 -15.2675)
(122.928 75.8691 -2.80927)
(172.757 31.7279 -3.95763)
(143.241 10.333 -5.46719)
(163.677 8.73302 -1.4869)
(125.194 -5.55767 -0.490435)
(121.796 1.0863 2.52947)
(90.8388 -13.9553 0.802317)
(91.8714 -9.79702 0.583701)
(78.4284 -16.5264 0.18641)
(80.3095 -11.5906 0.0615791)
(73.6796 -10.3378 -0.327718)
(75.0576 -4.99621 -0.178204)
(73.3714 -2.83236 -0.0473945)
(75.9992 0.356014 0.147185)
(77.2915 1.45287 0.240231)
(79.7184 4.41494 0.262717)
(80.7201 5.13302 0.32161)
(85.1679 6.41696 0.166668)
(89.9135 6.16474 0.0204865)
(68.7506 180.632 -35.3856)
(-16.3893 37.1018 10.7077)
(153.197 50.6271 -5.61414)
(135.335 24.8284 0.469983)
(153.1 30.489 4.30357)
(102.976 2.50674 3.6951)
(104.362 5.11695 3.23638)
(76.7023 -13.4724 0.911449)
(85.9586 -11.6029 0.788172)
(73.3825 -16.5546 0.164938)
(77.262 -11.7061 0.427749)
(69.1842 -9.68698 0.246685)
(69.8513 -5.81195 0.32246)
(66.5751 -4.73839 0.168244)
(68.7103 -3.33932 0.0853654)
(70.4236 -1.96019 -0.0450949)
(73.6792 1.65398 -0.120605)
(74.6237 2.94734 -0.0858993)
(78.3973 4.84771 -0.143311)
(81.8099 5.17698 -0.185718)
(76.4041 184.227 3.12292)
(-106.363 10.4361 17.0962)
(146.746 52.6166 8.64115)
(15.3471 23.5866 11.882)
(104.324 41.7076 9.09145)
(32.6184 12.5201 2.62046)
(81.7418 12.356 0.850019)
(55.7914 -7.53209 -1.24058)
(79.7325 -8.46044 -0.906454)
(69.7177 -12.7779 -0.930557)
(77.1546 -8.42569 0.32701)
(67.6763 -5.78287 0.581892)
(66.7835 -2.77768 0.99118)
(61.6026 -2.85976 0.827706)
(63.8446 -3.33381 0.547137)
(66.5919 -3.85132 0.165792)
(70.2643 0.353495 -0.0856771)
(71.4486 2.28969 -0.124908)
(74.6504 5.30295 -0.163756)
(78.3757 6.28586 -0.257793)
(182.787 -17.2351 -46.597)
(35.6332 -73.2785 22.9938)
(134.489 -89.894 18.0027)
(61.4883 -36.3431 6.37109)
(109.872 -18.1557 10.349)
(60.1938 -5.88095 1.93524)
(96.4738 -10.1948 3.74061)
(72.9146 -11.3618 0.634882)
(94.593 -13.8028 -0.529623)
(86.9324 -12.0992 -3.49782)
(97.8729 -7.81378 -3.39218)
(92.8642 -2.93746 -3.17337)
(91.697 -2.66838 -0.91405)
(79.3789 -5.80613 -0.38021)
(74.2775 -11.2186 -0.198886)
(70.6733 -10.1791 0.281897)
(71.3816 -3.44827 0.163345)
(72.1078 0.640793 -0.018992)
(75.2937 4.38639 0.030285)
(79.4714 5.5233 0.0214677)
(251.611 -182.663 -73.3441)
(345.072 -52.8096 -53.1581)
(253.941 -0.958171 -1.04048)
(190.543 8.04009 0.500814)
(204.6 12.8437 2.44664)
(185.481 8.70433 -2.96875)
(195.236 -3.4589 1.64312)
(164.319 -9.23106 1.8093)
(151.949 -11.7435 1.74346)
(136.31 -2.60586 -1.85986)
(143.192 0.122729 -4.20056)
(156.95 10.3725 -2.82512)
(170.928 15.3364 2.13032)
(168.174 15.4187 4.10723)
(153.71 5.25873 6.7045)
(114.704 -5.21375 5.96794)
(93.9898 -2.85703 2.96495)
(85.1367 0.0495306 1.4596)
(84.3278 3.53149 1.23047)
(88.2607 4.97404 1.18302)
(197.971 69.1767 -22.8419)
(-44.9172 86.3346 -24.8987)
(137.738 44.918 -13.635)
(60.6188 6.46857 -3.41591)
(117.215 -10.3719 8.55817)
(102.075 -15.9844 5.78195)
(123.922 -8.09998 5.88232)
(116.346 -4.7708 2.81217)
(122.011 0.135172 1.72774)
(115.526 0.797552 0.264729)
(116.67 0.86351 0.184018)
(114.073 -0.801167 0.131807)
(115.55 -1.78221 0.494952)
(115.891 -3.8463 0.636297)
(119.027 -4.69899 0.897964)
(120.84 -5.48811 1.32114)
(124.541 -5.51436 1.55503)
(125.967 -5.25067 1.48061)
(130.061 -4.25238 0.887718)
(128.757 -2.53324 0.818016)
(160.401 -110.291 -72.214)
(6.89358 -30.7725 -9.15545)
(140.446 -48.9284 0.117593)
(56.5036 -24.9842 0.576744)
(108.519 -24.0503 20.5474)
(65.4016 -18.9257 11.5684)
(83.3077 -12.4148 6.84784)
(67.172 -7.16284 2.30365)
(80.2342 -3.68171 1.56783)
(76.7872 -3.29549 0.392076)
(84.3056 -2.84119 0.673668)
(83.6802 -3.10217 0.152457)
(86.3864 -2.8527 0.0043429)
(85.6717 -2.69319 -0.376752)
(85.9283 -1.8385 -0.6868)
(84.3228 -1.4304 -0.951014)
(83.7538 -0.395131 -1.27416)
(81.2149 0.742122 -1.4978)
(82.409 2.4226 -2.21384)
(80.3278 2.80157 -2.45376)
(184.534 165.786 -87.7883)
(113.734 69.615 -30.3533)
(165.928 -12.8299 -15.5329)
(98.6338 -21.6317 7.2558)
(119.627 0.249285 15.0304)
(79.7001 0.737993 6.39363)
(87.8897 3.43327 3.91228)
(69.6074 0.292801 0.672474)
(77.1449 -0.627024 1.04809)
(71.009 -2.32528 0.388872)
(76.2043 -3.44711 0.747182)
(74.5014 -4.00328 0.29784)
(77.1747 -3.9452 0.317437)
(76.452 -3.45971 -0.283332)
(77.2233 -2.16496 -0.600197)
(76.0889 -1.29559 -0.796811)
(76.1144 0.453906 -0.979987)
(74.4944 1.57061 -0.931389)
(76.2156 2.6913 -0.988566)
(75.5345 2.8889 -1.02266)
(192.791 185.682 60.3393)
(75.5835 -8.90012 -3.82005)
(129.127 -25.8696 10.4251)
(-16.559 3.29919 -2.82039)
(64.5883 3.05254 -0.986947)
(8.932 1.6368 -0.959022)
(56.2097 -1.24121 0.374993)
(38.2101 -3.21237 0.258027)
(59.8466 -5.6663 1.50768)
(56.3666 -6.68218 1.42918)
(66.4151 -7.26373 1.62851)
(66.2273 -6.64033 1.09029)
(70.7446 -5.63738 0.952424)
(70.7983 -4.09607 0.317507)
(72.8213 -1.97464 -0.110434)
(72.4497 -0.471393 -0.325607)
(73.1597 1.56237 -0.64512)
(72.6526 2.63767 -0.625884)
(74.787 4.00125 -0.726719)
(74.5873 4.1565 -0.711143)
(215.072 98.1523 -23.4708)
(117.72 108.547 -23.1019)
(150.685 85.4758 -7.95796)
(88.949 43.1714 -2.74045)
(103.961 4.60217 -3.06014)
(59.4006 0.486268 -2.06649)
(73.7491 -13.5446 0.185162)
(56.9616 -9.16442 0.691712)
(68.4608 -14.698 2.10768)
(63.2557 -11.2121 1.99739)
(69.1771 -12.1828 2.32624)
(67.0942 -9.53673 1.86214)
(70.0902 -8.48164 1.55246)
(68.9251 -6.01883 0.758711)
(70.5291 -3.89921 0.252634)
(69.9404 -1.55691 -0.0935401)
(70.9497 0.35733 -0.435752)
(70.646 1.66139 -0.410631)
(73.0114 3.2212 -0.440459)
(73.5335 3.74334 -0.316501)
(154.608 -25.888 222.122)
(-133.525 87.6571 19.8602)
(82.7097 63.4364 16.8714)
(1.88538 49.8157 2.4882)
(68.1876 34.6676 0.0819901)
(25.545 16.6808 -1.15081)
(62.201 -2.00246 0.0604642)
(50.3217 -6.71698 -0.203377)
(64.8801 -12.6571 0.817759)
(61.6775 -11.4722 1.16656)
(66.5823 -11.9161 1.77346)
(64.2947 -9.71129 1.50833)
(66.0613 -7.92911 1.37163)
(64.2256 -5.38735 0.475703)
(63.9638 -3.08069 -0.10873)
(63.4468 -1.26687 -0.21828)
(64.1297 0.455126 -0.441657)
(64.1917 1.86454 -0.517092)
(66.5061 3.54403 -0.45377)
(67.6663 4.0206 -0.306231)
(55.6739 -127.54 156.46)
(-48.6963 61.4652 -6.02178)
(69.0767 17.7532 -14.3719)
(16.3217 32.6906 3.50156)
(78.5551 -0.351665 2.53784)
(51.8015 -4.57633 1.15247)
(75.7262 -29.9653 1.28219)
(63.7307 -15.7133 0.389873)
(72.6819 -23.7031 0.25294)
(67.4019 -15.2275 0.125819)
(70.2556 -15.6757 0.41888)
(66.1728 -10.6707 0.269433)
(65.7534 -8.92311 0.76549)
(62.7379 -4.50237 0.562846)
(62.2694 -3.63509 0.27467)
(61.116 -1.99196 0.316926)
(61.3259 -1.01726 0.0309761)
(60.808 0.64638 -0.180132)
(63.0053 2.37272 -0.161632)
(64.8974 3.07842 -0.0469738)
(-49.5567 184.891 149.459)
(-145.11 68.5689 -11.4132)
(26.5225 38.3202 -21.2848)
(1.72889 26.5394 -5.12861)
(70.2119 -3.13293 -0.108261)
(53.1022 5.13425 1.10933)
(78.5098 -4.27335 0.0296913)
(73.7424 -15.584 0.464225)
(78.9245 -15.5744 0.0776619)
(73.6119 -16.8638 -0.376795)
(75.2076 -13.1921 -0.223772)
(72.6453 -10.0386 -0.285452)
(71.382 -6.24102 -0.37303)
(68.5382 -3.38848 0.0570356)
(64.6422 -2.28941 -0.0614087)
(64.2126 -0.801831 0.437235)
(62.9622 0.446504 0.432912)
(61.9209 1.50937 0.165008)
(63.3657 2.41985 0.204467)
(65.41 2.64927 0.276084)
(207.423 -134.837 -61.2084)
(17.768 -32.8398 -9.71933)
(114.639 -14.7767 -5.80255)
(76.3093 -7.61968 -0.889339)
(102.862 -22.1822 2.43955)
(97.4553 -12.4652 0.716186)
(107.527 -16.6792 -0.264557)
(90.5875 -24.3463 -0.486775)
(89.1617 -18.1861 -0.154802)
(82.587 -17.6743 -0.249177)
(80.4907 -16.1589 0.87277)
(79.1969 -12.3306 1.18387)
(78.5222 -7.50329 0.890781)
(76.9978 -3.9639 0.189181)
(74.0782 -0.862982 0.387868)
(68.9778 -0.61867 0.563041)
(66.9317 1.22604 0.745043)
(64.8172 2.10936 0.482675)
(66.0901 2.25899 0.33202)
(67.9804 1.87657 0.295548)
(112.839 -211.227 -2.09194)
(34.4796 16.8862 4.98993)
(100.225 44.6654 1.94723)
(62.6318 12.0365 0.8939)
(87.8011 -0.586259 1.78581)
(81.7278 -7.44453 -1.93882)
(93.67 -12.2567 -2.00427)
(91.4059 -22.0481 -0.213367)
(87.843 -21.0894 0.709008)
(88.5306 -19.4184 0.926806)
(87.9289 -18.6771 1.4094)
(89.0453 -15.5578 1.25936)
(91.1043 -8.71699 1.5412)
(91.3753 -2.66856 1.31136)
(87.9074 1.3136 1.42784)
(79.1117 4.1993 2.01503)
(73.016 4.14008 2.04329)
(69.1357 4.11941 0.871525)
(69.3897 3.02951 0.0900755)
(70.6021 1.82988 -0.0303075)
(21.2695 -6.09752 -205.938)
(-95.8163 -30.43 10.8137)
(94.5873 -14.3226 -2.71399)
(31.8497 -22.5918 3.13486)
(88.5818 -13.8293 11.0568)
(79.9751 -18.0863 7.7145)
(85.0739 -20.3986 3.27543)
(80.149 -20.6162 1.32414)
(83.8186 -22.3719 2.01024)
(88.0316 -23.557 2.08033)
(91.9365 -22.8027 1.59318)
(93.28 -17.7551 0.465241)
(93.9327 -10.4258 -0.781458)
(96.0161 -3.4524 -0.775368)
(94.8431 3.02748 -0.265)
(85.8585 9.94321 0.055214)
(79.9481 10.6097 1.55325)
(74.3443 8.12615 1.06436)
(73.6432 5.08935 -0.0537558)
(73.0808 2.30216 -0.223018)
(159.246 30.181 -56.0232)
(92.2855 -58.3892 -5.37237)
(130.656 -71.5391 5.82789)
(47.1202 -29.874 -3.85306)
(78.7835 -7.03747 8.99725)
(60.8583 -9.00509 2.94827)
(84.2039 -16.5893 1.05241)
(82.3195 -27.1242 0.471315)
(82.0849 -27.7945 0.877389)
(80.9002 -25.9986 1.11242)
(79.2407 -22.9087 0.221727)
(79.1834 -17.0449 -0.939014)
(80.7236 -10.403 -1.84919)
(83.0407 -4.57636 -1.90749)
(81.7599 1.64332 -1.70271)
(76.7559 10.5859 -1.67216)
(76.0432 12.6802 -0.20469)
(73.6635 11.9837 0.030434)
(73.99 8.15375 -0.0379631)
(72.9084 4.00967 -0.437712)
(96.7884 43.3026 -124.079)
(56.6501 -62.9119 35.1346)
(119.898 -2.86372 11.2071)
(36.685 -6.2924 2.38814)
(90.1147 6.55229 7.14865)
(57.1264 -24.527 1.57405)
(79.1966 -19.9791 0.892474)
(60.9951 -24.281 0.815509)
(70.5318 -27.1547 0.248847)
(68.005 -25.3246 0.455402)
(70.8798 -20.7504 0.213457)
(69.1154 -14.3686 0.0481446)
(71.065 -8.04506 -0.337697)
(70.2509 -2.54728 -0.515293)
(67.1013 3.81292 -1.10314)
(68.6135 7.96828 -1.00091)
(70.3017 10.5984 -0.206158)
(70.2386 10.6434 0.33182)
(72.9096 9.26266 0.309624)
(73.7617 5.2598 -0.354881)
(324.453 131.367 -67.9)
(4.63083 -3.84249 3.7602)
(144.667 -18.52 -0.417258)
(32.3387 -10.3317 -0.496542)
(99.2743 -18.7173 1.88173)
(59.3449 -27.0971 -0.941951)
(84.6748 -16.5357 2.26909)
(74.5959 -32.4215 0.466952)
(78.9011 -22.8102 0.851621)
(69.7766 -24.4544 0.352818)
(70.5848 -14.5123 0.705905)
(64.9086 -11.7362 0.690193)
(65.4631 -3.27047 0.704279)
(63.652 -1.17674 0.7417)
(64.758 3.43815 0.300036)
(64.7638 5.78043 0.458599)
(67.2367 8.76001 0.57305)
(67.999 9.29584 0.588987)
(71.8655 8.51157 0.307897)
(75.0595 5.58315 0.193093)
(279.567 -47.7496 35.9091)
(128.963 23.6757 -28.3876)
(165.901 6.71466 -10.1568)
(118.293 4.84149 -8.55912)
(142.786 -5.06686 0.082551)
(117.03 -16.4019 -0.389693)
(121.961 -13.5084 1.87359)
(100.864 -21.937 0.905609)
(93.5739 -14.638 1.32648)
(76.4322 -16.4764 0.21485)
(74.2011 -9.8217 -0.360633)
(65.894 -7.19741 -0.680291)
(65.6057 -1.69629 -0.252234)
(62.9669 0.561635 0.178477)
(63.775 3.05903 0.461092)
(64.2521 4.18372 0.704956)
(66.4476 6.07365 0.791821)
(67.8197 6.30262 0.87949)
(72.057 6.2168 0.52385)
(75.6738 4.72105 0.368518)
(136.173 -9.75473 -110.477)
(87.9178 33.7494 -25.3634)
(149.123 26.0235 -10.7278)
(103.32 4.06748 -9.40694)
(126.545 1.60266 -0.566358)
(87.506 -11.4736 0.405846)
(99.4305 -0.552817 5.54711)
(73.4401 -11.9019 1.96724)
(77.9298 -3.94213 2.08761)
(64.1274 -9.71688 0.125762)
(66.3545 -4.04787 0.110922)
(60.093 -4.48598 -0.511786)
(61.5977 -0.600259 -0.0377658)
(59.9744 -0.39167 0.175331)
(62.1492 1.56659 0.451847)
(63.1655 1.71005 0.450517)
(65.686 3.91241 0.471828)
(66.6029 4.20647 0.57376)
(70.3729 4.9686 0.408092)
(73.7328 4.57951 0.26241)
(142.139 118.549 -72.2827)
(53.3281 29.8231 -25.0936)
(148.107 38.0637 -33.5846)
(104.301 11.0317 -11.5784)
(124.524 21.3807 2.76424)
(75.6595 -2.97468 4.86849)
(88.2269 6.20227 5.50203)
(59.8435 -8.63228 1.73302)
(71.6201 -3.24962 1.57098)
(57.7521 -7.64625 0.122897)
(63.3951 -2.99897 0.561941)
(56.1384 -3.04998 0.0998568)
(58.26 -0.807085 0.3352)
(55.4394 -1.39886 0.221606)
(57.554 -1.14367 0.296356)
(58.449 -0.924345 0.0339135)
(60.9652 1.57214 -0.0508823)
(61.4712 2.41301 0.0664656)
(64.757 3.88287 0.0292635)
(67.8577 3.98947 -0.0167559)
(59.7219 -19.1231 -54.632)
(-93.1019 37.4901 -8.52149)
(122.282 57.5837 -7.00917)
(-10.5911 24.1267 14.2735)
(96.1201 44.2811 10.6397)
(20.0294 13.0024 3.00871)
(72.0753 16.2361 1.57208)
(40.1039 -2.26364 -1.92837)
(64.5991 -0.56805 -0.612731)
(50.9756 -4.51715 -1.00753)
(60.163 -0.9659 0.525985)
(52.0935 -0.271468 0.398499)
(54.2874 0.776719 0.986057)
(50.738 -0.863214 0.919129)
(54.1298 -2.11524 1.10446)
(56.4978 -3.04809 0.572329)
(59.5455 -0.016015 0.0939974)
(60.1762 1.34801 -0.00353685)
(63.1297 3.74144 -0.0702095)
(66.8134 4.32904 -0.180063)
(-37.2272 -183.011 77.0244)
(-110.257 -23.4453 27.0015)
(101.694 -24.4789 4.70617)
(-10.0595 5.77858 4.08878)
(96.338 6.3476 8.76134)
(27.7237 5.74329 -0.926208)
(77.9275 -1.92172 1.92073)
(48.9352 -6.85374 -2.49527)
(74.9932 -8.95478 -2.08174)
(61.8099 -6.01793 -3.95282)
(71.2821 -0.610586 -1.48508)
(62.6809 3.23697 -1.87454)
(64.7882 3.07541 -0.320988)
(59.8161 -1.05841 -0.525866)
(61.5982 -7.51692 0.770759)
(60.5489 -7.31288 1.35616)
(62.4072 -2.76686 0.694738)
(62.8707 0.0603281 0.107023)
(65.8438 2.8786 0.0726831)
(69.9594 3.45106 0.0246742)
(81.3757 -62.7585 -15.4203)
(50.2412 40.0127 36.708)
(108.569 31.9943 10.1546)
(45.1378 27.7511 -2.92213)
(126.21 32.35 6.37093)
(92.2897 25.6725 -0.719138)
(129.206 14.8548 6.21213)
(110.746 6.04294 3.1237)
(120.04 -2.54963 2.14934)
(108.209 -5.15776 -2.75241)
(112.55 -5.11529 -5.72896)
(110.061 0.630725 -6.16118)
(122.411 3.60299 -0.920334)
(126.509 1.71288 6.3197)
(117.187 -5.63243 12.4605)
(95.2121 -7.51476 11.4216)
(84.736 -2.92242 6.38589)
(79.8308 -0.0622528 3.4016)
(80.3463 2.87971 2.76363)
(85.0999 3.93872 2.54867)
(117.267 -42.0174 -48.0255)
(-10.5119 50.2371 -23.4964)
(106.574 27.5647 -24.999)
(34.6403 -7.63672 -2.66145)
(102.485 -13.5097 9.82058)
(88.7596 -16.0267 6.22211)
(115.187 -7.66026 6.05126)
(108.674 -3.86736 2.53832)
(115.218 1.41933 1.74951)
(107.743 2.07812 0.526636)
(108.308 1.81623 0.860992)
(104.701 0.134356 0.825916)
(105.832 -0.81142 1.16349)
(105.832 -2.07671 1.11796)
(107.916 -2.46096 1.0233)
(109.719 -2.73909 1.09738)
(112.824 -1.82988 1.17188)
(113.348 -1.03558 1.25323)
(115.966 0.425757 0.657273)
(111.685 1.79558 0.492551)
(79.9639 -19.6451 -9.66585)
(-64.6336 -64.2012 6.29664)
(109.226 -62.9718 -7.16738)
(7.75238 -35.4479 -1.00166)
(80.3375 -27.9434 16.2165)
(42.6658 -15.554 7.06153)
(71.04 -8.03716 3.91193)
(55.0217 -3.91681 -0.565629)
(69.7026 -1.45954 -0.244637)
(65.0035 -1.91488 -0.771419)
(72.3793 -1.82511 0.179369)
(71.0688 -2.29741 -0.12869)
(73.8179 -2.09196 -0.0644116)
(72.9889 -1.87959 -0.606237)
(73.4072 -1.00692 -0.991429)
(71.9034 -0.62479 -1.41373)
(71.6992 0.538735 -1.84377)
(69.7619 1.51289 -2.13283)
(71.2289 2.52864 -2.88495)
(69.0492 2.37477 -2.87722)
(225.211 60.4111 -34.8744)
(121.871 -4.32281 -35.0013)
(139.169 -16.8386 -26.8671)
(58.5106 -12.8713 -2.03869)
(92.9547 6.11516 7.94912)
(55.3995 3.92633 3.20817)
(72.3849 6.18405 2.46526)
(54.8172 2.74831 0.0867286)
(64.7528 1.54418 0.915796)
(58.0876 -0.422487 0.318184)
(63.819 -1.77919 0.805306)
(61.6761 -2.46777 0.325042)
(64.3548 -2.56846 0.358105)
(63.353 -2.22392 -0.26872)
(63.8893 -1.18796 -0.520031)
(62.625 -0.58087 -0.729792)
(62.4203 0.836503 -0.93975)
(60.5657 1.55515 -0.911507)
(62.0735 2.24732 -0.972286)
(61.2905 2.14455 -0.967836)
(382.579 -32.1483 -8.57859)
(87.2906 -29.8115 -16.0587)
(133.121 -11.7906 -1.79284)
(-21.3959 2.07351 -6.31773)
(60.2859 0.556955 -1.85007)
(-0.132128 1.80305 -1.37588)
(48.1493 -0.0807571 0.352819)
(27.537 -1.43638 -0.105415)
(49.8 -3.60577 1.39199)
(44.7007 -4.51265 1.15464)
(54.8101 -5.07455 1.57141)
(53.9471 -4.72124 0.993702)
(58.2046 -4.00409 0.934397)
(57.9463 -2.96686 0.25874)
(59.3578 -1.46439 -0.102502)
(58.809 -0.491846 -0.307773)
(59.1623 1.13079 -0.593308)
(58.1412 1.91212 -0.56299)
(59.7994 2.81442 -0.621123)
(59.3363 2.71673 -0.530641)
(221.143 71.2785 -150.117)
(114.847 67.7448 -59.6295)
(139.608 47.6568 -29.3917)
(77.3834 23.6872 -7.85309)
(92.2748 1.10739 -0.663117)
(44.0718 2.28288 -0.377442)
(61.6722 -9.86037 1.0398)
(42.782 -3.91972 0.707234)
(55.6152 -9.61879 2.02709)
(49.4406 -5.94484 1.75325)
(56.2411 -7.55091 2.117)
(54.1257 -5.40082 1.59479)
(57.316 -5.09152 1.3596)
(56.3615 -3.38808 0.591678)
(57.5265 -2.25285 0.209004)
(56.8764 -0.903735 -0.052761)
(57.3685 0.405602 -0.391131)
(56.5252 1.40065 -0.350412)
(58.387 2.42187 -0.256473)
(58.7132 2.546 -0.0963955)
(-28.4456 40.4108 -56.0407)
(-132.964 49.3629 -4.49651)
(73.8682 36.9608 7.13789)
(-12.2649 38.0532 0.955074)
(57.5421 28.5496 3.36982)
(8.69353 14.7925 -0.851717)
(48.6371 -0.651189 0.528535)
(33.1052 -2.2813 -0.470048)
(48.9415 -7.51969 0.895562)
(44.9514 -5.70351 0.957221)
(51.2394 -6.64724 1.53189)
(49.9892 -4.74097 1.1633)
(52.5816 -4.18007 1.02051)
(51.8947 -2.87012 0.312359)
(52.2776 -1.7851 0.0391533)
(51.8737 -0.712704 -0.135519)
(52.2969 0.435309 -0.379962)
(51.904 1.41099 -0.391026)
(53.8744 2.45118 -0.210065)
(54.9891 2.56171 0.00753562)
(85.5769 -67.4312 116.845)
(-26.7835 33.0177 -27.7907)
(59.9925 3.96488 -17.182)
(-0.8164 29.3099 1.44416)
(65.6519 0.142702 1.0923)
(32.3834 0.00993313 1.25231)
(58.3575 -25.6964 0.917679)
(43.5112 -7.69584 0.495112)
(54.4578 -17.273 0.570553)
(48.9467 -8.23593 0.560321)
(53.5472 -10.192 0.856786)
(50.6145 -5.64385 0.513727)
(51.9551 -5.25212 0.788132)
(50.76 -2.51048 0.596802)
(51.0367 -2.3079 0.367925)
(50.3629 -1.37349 0.327002)
(50.7258 -0.834728 0.0485271)
(50.18 0.296441 -0.102354)
(52.2492 1.3599 0.0458498)
(54.1124 1.75182 0.220728)
(48.1999 161.368 -0.910016)
(-88.5734 68.882 -33.8652)
(24.8515 35.384 -23.9637)
(-13.6602 22.6043 -8.33469)
(52.2075 -3.33477 -2.80406)
(29.3837 9.78603 0.0989171)
(56.9004 -0.844652 0.0254614)
(50.8891 -8.38827 0.663097)
(58.4121 -10.0294 0.116526)
(55.7912 -10.2664 -0.166232)
(58.6722 -7.77098 -0.0724568)
(57.2705 -5.47836 -0.0985169)
(57.6329 -3.09223 -0.101927)
(56.3198 -1.07996 0.277611)
(52.8575 -1.03875 0.75312)
(52.4364 -0.112749 0.620386)
(51.8406 0.418214 0.438906)
(51.315 0.793776 0.156832)
(53.0179 1.21271 0.260219)
(55.2006 1.35987 0.44826)
(122.214 -93.675 -158.491)
(2.33162 -11.0507 -25.975)
(86.1447 -9.3591 -9.88161)
(52.4577 -6.24569 -4.06583)
(81.7175 -19.4235 0.0401781)
(75.7908 -5.44609 -0.0946529)
(85.8076 -9.64492 0.969185)
(70.9135 -16.6331 0.594476)
(70.1251 -13.2545 0.510724)
(66.6635 -13.2045 0.542959)
(66.6384 -10.7246 1.07538)
(66.2223 -7.45187 1.1404)
(65.9034 -3.98117 0.708248)
(64.7202 -1.70874 0.289529)
(61.4906 0.708818 0.599253)
(55.9918 0.406326 1.39143)
(55.1076 1.00003 0.858743)
(53.9771 1.02423 0.436774)
(55.7487 0.904142 0.344434)
(57.7881 0.844002 0.455601)
(130.351 -121.894 14.6841)
(33.9568 28.3629 -2.45407)
(81.9996 42.4455 2.42622)
(42.888 10.1164 0.413263)
(69.568 -0.189304 1.92681)
(63.4609 -5.03656 -2.06371)
(76.6441 -7.73013 -1.54083)
(73.5309 -16.2023 0.487531)
(73.145 -15.7097 1.17083)
(73.9903 -14.9321 1.52539)
(74.9203 -12.8896 1.69494)
(75.8187 -8.515 1.76989)
(76.3799 -3.13333 1.43178)
(75.475 0.309829 1.07819)
(70.8689 3.26869 1.741)
(61.9477 4.86374 2.7435)
(59.3846 3.29281 1.77087)
(57.4458 2.58547 0.654349)
(58.4082 1.40789 0.130229)
(59.6146 0.861083 0.210403)
(-27.0583 9.48683 -167.307)
(-119.812 -11.3514 -5.26203)
(68.6383 9.15692 -15.8448)
(4.7781 -11.2238 2.06069)
(66.3263 -5.62954 7.64631)
(57.5552 -13.7454 6.05596)
(69.3348 -15.7514 3.3659)
(67.9751 -16.2507 2.01844)
(71.275 -17.4915 2.30464)
(74.9053 -17.5439 1.9457)
(81.396 -17.2857 -1.36813)
(83.3362 -9.86545 0.282516)
(82.1982 -2.33546 -1.20069)
(81.9899 2.83913 -1.1591)
(76.882 6.81163 -0.024789)
(65.8649 10.1934 1.67792)
(62.8974 8.11122 1.85551)
(60.1367 5.37208 1.00003)
(60.8074 2.69646 0.220729)
(60.9027 1.12929 0.132968)
(85.9668 -1.41714 -97.7095)
(-54.5563 -52.5665 5.74925)
(96.0029 -46.1074 8.24959)
(-1.00434 -19.0764 -1.51409)
(54.1996 -6.89921 6.98972)
(34.7344 -12.7099 2.86983)
(64.1329 -17.9856 1.86841)
(65.9601 -21.7302 1.30685)
(68.0788 -20.7259 1.50669)
(68.8243 -18.6943 1.23545)
(69.1454 -14.9997 -0.157614)
(69.3561 -9.24518 -1.64174)
(70.3234 -3.32047 -2.52036)
(71.7959 1.47258 -2.5887)
(68.5047 6.076 -1.96527)
(61.4015 10.1192 -0.122041)
(61.3566 9.97206 0.579286)
(59.5365 7.82993 0.434772)
(60.782 4.47073 0.329391)
(60.5686 2.2139 -0.00870524)
(-0.340668 6.23391 -79.6095)
(-14.9231 -35.5947 0.673022)
(97.8054 -3.97834 5.2958)
(7.37821 -5.25792 1.96322)
(75.6456 3.1113 6.22271)
(39.0928 -26.4055 1.69335)
(63.6004 -17.8721 1.19809)
(47.5195 -21.0073 0.727689)
(56.4169 -20.8915 0.935301)
(54.264 -18.5419 0.881235)
(58.1468 -13.5301 0.380089)
(57.1518 -8.2546 -0.184735)
(59.4914 -3.31471 -0.642062)
(58.9915 0.474511 -0.83267)
(55.4715 4.40887 -0.394122)
(56.3467 6.56477 -0.254609)
(57.8477 7.81959 0.311897)
(57.8777 7.0381 0.685757)
(60.6979 5.42885 0.493672)
(61.4418 2.85542 -0.0135233)
(99.7527 192.495 -100.858)
(-23.4995 29.0461 18.2121)
(109.318 -14.4468 2.74119)
(10.9177 -12.3255 4.54462)
(82.2163 -21.2478 2.36162)
(34.4049 -27.7273 -1.50911)
(63.1542 -12.5471 2.48541)
(51.4264 -29.3675 0.460523)
(59.0599 -17.019 1.23432)