/*--------------------------------*- C++ -*----------------------------------*\
  =========                 |
  \\      /  F ield         | OpenFOAM: The Open Source CFD Toolbox
   \\    /   O peration     | Website:  https://openfoam.org
    \\  /    A nd           | Version:  10
     \\/     M anipulation  |
\*---------------------------------------------------------------------------*/
FoamFile
{
    format      ascii;
    class       volScalarField;
    location    "4.9";
    object      k;
}
// * * * * * * * * * * * * * * * * * * * * * * * * * * * * * * * * * * * * * //

dimensions      [0 2 -2 0 0 0 0];

internalField   nonuniform List<scalar> 
12920
(
3221.02
4135.76
3165.46
998.541
342.417
266.796
269.58
262.874
223.453
185.885
152.711
131.268
111.442
98.1799
90.3811
84.5805
82.3438
78.5365
76.08
68.9693
2528.8
3418.78
1523.91
733.379
453.261
342.941
267.979
247.559
217.276
207.845
193.767
182.738
163.721
152.792
146.222
144.633
143.522
141.564
140.641
140.023
3367.92
3224.94
1889.09
833.777
598.082
410.426
293.159
256.96
221.388
210.467
188.455
176.924
162.133
155.98
150.265
148.083
144.795
142.984
143.093
144.62
12349.1
5403.73
1650.84
789.349
550.12
388.23
282.659
242.209
210.767
197.001
179.984
170.315
159.022
152.343
146.126
141.82
138.093
135.829
135.519
137.117
18985
7213.1
1690.18
1068.92
680.889
472.285
351.608
286.17
255.822
231.399
210.748
195.293
177.781
168.085
159.161
151.539
144.334
138.238
134.237
133.39
917.953
1888.84
1158
930.603
677.41
563.237
431.045
382.841
330.45
297.918
245.728
207.572
186.056
176.34
170.469
163.8
156.402
146.133
135.696
126.36
600.055
1703.12
1418.64
896.355
642.101
544.244
460.77
394.311
321.303
263.956
219.196
197.96
195.244
192.57
186.292
173.258
162.405
151.147
140.015
123.31
343.609
1367.81
1663.67
1450.65
853.398
638.388
404.967
246.703
208.99
168.283
152.905
149.457
145.689
134.609
209.928
178.807
163.652
151.825
144.354
126.034
5479.26
1812.35
1701.47
1494.76
919.207
503.693
330.444
174.411
106.733
98.67
103.198
100.444
90.7762
80.1895
116.008
156.227
147.512
145.404
143.099
134.084
3693.14
1676.46
977.552
692.018
460.928
262.537
210.329
127.965
112.149
88.9938
73.2654
76.0286
71.162
60.0168
101.573
160.809
146.978
143.972
144.015
139.735
240.348
592.651
861.955
932.81
785.695
389.579
161.688
111.834
98.0267
98.1666
102.773
89.0775
82.5514
73.7844
131.016
186.201
159.024
143.143
141.319
138.535
1015.75
1984.25
1279.23
858.73
722.921
410.368
232.24
207.773
187.725
133.256
117.33
97.2772
83.7341
84.8864
151.639
196.184
165.191
143.441
137.683
134.047
2451.05
2055.99
1614.5
1008.47
808.442
685.48
354.387
244.791
217.7
205.032
189.434
167.836
163.03
159.036
242.548
201.753
177.325
154.793
141.984
131.338
3793.24
2535.86
1724.89
941.737
743.217
589.553
494.122
433.163
387.477
368.886
351.077
339.659
321.551
284.461
239.283
203.129
180.57
160.084
147.669
130.871
1249.04
1540.03
1052.56
721.093
573.594
552.771
526.294
508.401
457.833
444.802
415.167
393.99
353.84
294.589
239.038
195.954
169.912
153.017
145.249
128.789
1425.78
1501.06
1204.42
621.844
398.852
415.188
459.726
468.546
452.401
435.461
413.457
388.588
323.671
243.447
188.774
156.731
139.863
130.978
128.024
120.348
1734.31
1099.35
686.764
463.757
434.239
469.102
468.152
453.827
401.757
369.457
345.173
319.733
265.848
207.494
165.728
142.988
127.991
116.397
110.126
105.772
348.014
1860.47
1828.3
1096.35
767.335
677.407
582.838
539.985
457.899
420.315
384.571
362.366
310.865
239.991
182.994
155.525
135.918
117.151
101.904
93.0062
644.165
1807.14
1831.52
1254.82
846.096
605.15
429.02
347.556
296.13
273.98
241.374
209.05
180.267
162.471
154.96
156.604
160.91
157.631
137.945
104.763
1028.53
1164.59
1062.23
771.753
573.336
403.155
265.478
203.676
156.674
140.096
122.199
107.5
94.1495
90.5126
91.4137
98.7699
100.141
97.6926
93.3861
82.1797
7227.77
5370.54
2515.52
1019.43
670.799
630.806
593.217
509.538
407.526
349.653
312.635
290.226
263.93
243.57
226.563
215.309
210.6
204.633
200.715
187.831
12353.8
7600.16
3986.02
1989.8
1196.36
935.691
689.937
664.111
585.181
578.933
528.795
510.864
460.916
452.393
437.889
438.441
435.339
430.835
427.176
428.618
10025.4
8739.58
5033.21
2177.48
1516.34
1031.72
760.41
687.334
580.143
564.657
510.315
497.58
462.772
457.139
442.821
440.389
431.977
429.221
429.927
434.023
7294.01
7314.47
3993.1
1949.34
1415.47
981.832
737.023
650.922
566.173
545.061
498.014
479.205
451.3
439.992
425.398
419.38
412.959
411.146
412.513
418.409
38463
11478
3747.51
2661.49
1603.49
1209.38
867.032
773.093
675.38
642.016
575.353
538.771
492.782
474.842
451.32
438.553
423.812
414.572
409.111
407.288
13200.3
7414.81
3365.03
2384.8
1579.93
1420.81
1082.88
1009.4
851.543
773.006
639.74
563.379
510.613
489.956
473.528
458.501
441.203
421.725
401.068
383.148
4329.91
4571.94
3948.58
2211.93
1273.08
1301.87
1222.69
1055.86
828.401
689.787
581.923
530.813
512.2
504.093
484.312
466.14
448.785
429.556
403.011
370.472
2765.46
4137.96
4321.95
3636.74
1943.81
1631.26
1307.44
996.003
795.534
627.331
572.903
545.056
524.345
496.138
496.212
465.567
453.755
436.904
417.887
376.438
9125.27
5864.28
4815.49
3643.76
2085.9
1565.72
1292.93
990.815
659.877
567.914
539.414
519.541
487.098
432.364
383.026
398.416
409.185
424.662
425.819
407.436
11329.4
3989.53
2300.73
1735.17
1277.1
1170.41
1148.84
858.524
660.378
532.693
479.253
431.526
363.691
299.672
319.539
382.001
387.463
400.976
416.444
419.374
2790.09
5713.1
4095.09
2642.39
1778.97
1338.17
1015.02
769.874
644.739
575.8
495.974
413.374
374.642
368.548
396.164
430.761
406.99
396.784
399.285
403.689
4130.53
5674.04
3608.02
2153.02
1767.95
1562.51
1279.26
1017.41
835.414
679.947
595.444
501.091
457.721
446.514
465.972
479.696
436.618
406.424
399.517
391.429
2962.58
5156.67
3942.54
2413.61
2008.47
1698.42
1303.42
976.427
832.651
748.473
688.179
637.387
615.166
588.614
610.222
547.571
498.144
446.095
416.364
387.425
4067.2
4769.98
3458.81
2183.3
1896.16
1545.48
1334.13
1155.31
1031.77
980.813
918.662
874.854
814.345
742.748
656.776
575.143
522.64
469.056
430.115
386.057
4645
5624.82
2711.41
1963.4
1505.92
1540.13
1403.03
1366.96
1225.78
1165.14
1061.46
979.36
875.289
766.573
657.881
564.258
494.268
447.739
416.276
375.881
4965.81
4123.47
1942.33
1602.36
1052.76
1289.28
1268.04
1303.54
1225.77
1186.8
1088.78
990.158
823.947
657.55
538.597
467.354
424.018
399.543
384.063
356.111
5417.84
3948.11
2462.37
1553.82
1335.68
1379.21
1309.16
1270.96
1117.79
1061.81
964.53
898.582
744.552
590.383
479.723
424.445
382.95
352.91
334.863
319.211
557.591
5267.04
4827.73
2863.26
2065.71
1815.82
1547.35
1468.37
1270.87
1204.54
1092.11
1034.65
878.315
677.211
519.371
459.37
407.138
352.746
311.402
288.935
1720.08
4655.07
4138.59
2869.4
1999.12
1480.63
1148.53
1035.27
900.768
850.034
737.034
636.377
530.258
482.245
455.777
449.422
445.339
437.19
395.498
327.631
1659.98
1985.84
1837.38
1501.12
1086.58
706.682
495.09
408.265
363.179
330.864
298.532
262.496
236.728
225.195
222.713
214.829
192.667
168.239
161.633
152.344
1947.37
3251.92
2046.75
1178.62
913.243
799.377
678.328
551.946
438.843
384.074
353.221
332.323
311.862
295.627
283.336
270.414
264.108
251.114
243.909
225.175
12996.6
6864.1
4191.58
2379.83
1583.9
1255.08
953.195
898.91
789.043
768.411
705.178
691.764
655.008
653.262
644.632
644.7
638.657
630.097
623.397
615.213
4198.97
6419.82
6057.25
3157.75
2000.55
1350.94
1076.03
933.701
820.016
774.735
709.444
690.111
658.832
653.126
640.607
636.57
626.49
619.909
615.91
610.763
6635.6
9241.16
4924.22
2645.17
1963.07
1335.99
1107.4
932.884
824.897
756.754
694.126
661.061
633.293
620.951
608.798
602.383
595.356
591.488
589.916
589.55
25447.1
8543.66
5156.28
3107.98
2193.41
1565.3
1254.51
1072.07
939.782
845.496
758.806
704.335
659.752
637.244
614.621
600.414
586.364
576.795
570.033
564.378
16091.2
10122.5
5202.32
3277.55
2258.94
1787.08
1456.14
1271.6
1061.47
932.154
805.68
732.962
686.107
657.523
630.258
606.225
584.058
562.086
543.001
526.744
9064.11
9027.23
6218.98
3818.45
2350.9
2109.23
1660.31
1330.99
1049.68
877.698
781.392
727.539
700.851
677.378
645.32
618.434
592.039
563.803
535.067
505.034
14159.5
10239.2
6811.33
4601.1
2604.35
2147
1842.27
1336.29
1085.48
872.185
793.914
751.469
711.107
677.62
656.512
629.03
609.995
583.411
553.788
511.268
8894.18
7954.91
6483.72
4581.18
2662.92
2091.57
1798.62
1287.44
965.34
828.639
776.329
737.052
679.483
613.669
562.448
574.153
587.939
588.866
579.709
543.604
9722.53
7491.36
4346.87
2596.24
1860.23
1697.64
1634.46
1184.94
926.14
794.41
713.112
618.407
511.44
443.654
474.927
536.144
552.008
565.735
572.114
564.49
10826.7
9464.76
7385.43
3681.39
2294.97
1745.99
1446.03
1115.03
933.735
826.963
494.71
425.768
482.033
506.948
530.285
555.309
542.827
542.366
546.902
547.64
7596.72
9040.92
5593.39
3016.33
2268.51
2070.06
1705.29
1272.75
1028.31
886.748
771.385
676.518
630.755
608.314
602.906
600.261
564.61
543.612
537.327
529.323
4650.06
6738.77
5343.63
3245.98
2639.05
2194.89
1795.68
1335.24
1107.11
982.015
900.628
844.191
808.232
763.969
743.77
679.69
623.774
575.876
547.126
522.398
8697.79
7167.73
4658.34
3023.96
2621.26
2095.86
1793.04
1545.29
1355.96
1261.99
1155.27
1075.85
979.89
888.406
798.457
718.116
654.262
595.873
556.726
521.419
18456.2
12120.2
4648.04
2944.09
2488
2286.69
1997.95
1841.35
1602.93
1464.8
1296.8
1160.4
1024.29
903.028
803.904
712.233
635.795
581.428
545.331
511.796
14690.4
6455.21
3519.5
2532.37
2178.28
2173.58
1998.01
1864.73
1655.7
1517.82
1325.18
1152.36
963.134
815.566
717.566
638.441
582.211
543.631
517.439
490.67
8354.72
6388.49
4038
2575.23
2285.19
2104.48
1923.71
1796.55
1576.11
1459.68
1270.41
1124.44
929.883
767.464
653.98
576.125
524.492
489.363
467.578
449.291
3617.54
8011.63
6967.38
3936.74
2867.07
2476.7
2108.23
1959.11
1682.42
1548.31
1338.48
1198.23
982.246
803.09
667.585
584.365
521.496
473.802
441.574
419.205
5253.14
6379.72
5168.84
3499.41
2487.63
1863.3
1536.01
1385.9
1218.74
1093.02
923.182
794.234
682.366
623.514
578.37
551.616
527.306
500.402
465.861
432.455
2639.88
2051.62
1919.64
1619.52
1118.06
719.934
564.468
483.37
448.211
388.134
343.923
296.435
266.628
246.46
226.147
194.692
172.576
168.394
175.489
172.788
2153.23
2171.29
1754.64
1232.93
1003.01
839.235
678.276
532.81
434.015
385.439
362.609
339.837
322.906
306.456
293.485
279.334
271.714
255.507
247.529
226.692
22563.1
6136.7
3866.96
2510.04
1831.41
1399.43
1161.63
1022.65
954.878
885.12
847.844
819.947
808.797
804.807
805.826
804.53
799.429
787.934
779.077
761.661
12726.8
10155.1
6287.74
3293.44
2376.52
1572
1345.09
1093.67
1016.53
911.735
871.833
829.672
817.941
803.078
799.937
790.548
782.592
770.804
763.243
749.899
13950.2
10793.2
5462.37
3257.94
2392.8
1609.48
1412.77
1114.09
1028.24
895.714
849.924
795.38
781.134
760.75
755.919
745.963
741.52
733.888
729.981
723.276
30668.5
9862.84
5828.91
3550.39
2761.41
1815.45
1605.5
1262.21
1142.35
970.561
900.741
821.76
793.592
759.851
745.165
726.476
716.502
704.668
697.084
689.06
26095.6
10206.3
5868.2
3756.21
2900.82
2022.72
1784.54
1414.72
1216.45
1026.83
932.003
849.704
815.986
774.207
746.697
715.435
694.131
670.963
654.969
641.876
27363.3
10347
7003.84
4314.57
3186.74
2490.19
1948.04
1479.08
1206.52
1007.35
934.896
865.118
841.236
796.426
762.353
724.035
694.206
661.181
634.862
611.521
29419.9
13337.6
8019.9
4715.62
3075.69
2442.54
2088.66
1513.91
1247.47
1031.38
951.411
898.049
848.077
806.888
776.917
743.959
717.257
680.786
647.886
612.998
6829.29
8827.35
7907.38
5144.5
3153.01
2453.68
2100.42
1449.6
1151.41
1010.88
946.709
888.487
814.689
752.586
708.469
722.354
721.303
703.93
679.554
640.412
17720.6
9508.47
5918.55
3342.66
2274.67
2076.95
1955.52
1367.68
1108.28
989.018
892.886
764.092
645.089
600.963
624.571
678.654
691.548
692.702
688.196
667.027
14650.9
14267.3
10382.3
4818.58
2812.28
2039.34
1685.15
1314.41
1112.6
989.195
703.884
586.854
596.186
620.85
638.152
662.202
658.596
660.202
663.469
656.317
23186.6
11886.4
7405.12
3821.31
2683.44
2375.98
1898.14
1396.98
1145.29
1001.27
875.626
787.658
742.811
711.712
691.012
686.346
661.874
649.937
646.209
637.501
13380.5
8734.53
6820.42
3992.2
3259.12
2561.27
2058.55
1529.79
1265.16
1120.15
1032.62
969.409
919.55
859.179
816.676
758.264
707.402
670.509
648.572
630.229
22204.8
9029.72
5845.05
3775.98
3291.67
2461.67
2118.77
1768.47
1558.38
1410.12
1283.61
1173.91
1065.33
967.952
878.489
800.82
738.245
687.167
655.121
631.196
45876.8
17514.7
6275.13
3725.27
3376.8
2714.62
2454.8
2094.23
1831.73
1598.22
1406.75
1234.56
1096.57
978.065
885.422
795.268
726.895
677.146
644.809
622.507
25042.6
9976.69
4935.53
3340.35
3191.05
2664.18
2501.53
2138.53
1917.29
1644.41
1418.51
1196.56
1030.67
901.682
819.393
741.104
688.457
648.05
620.456
601.046
27945
9020.88
5353.91
3338.6
3087.08
2523.12
2396.59
2070.1
1860.12
1605.02
1374.24
1156.8
980.854
838.936
748.966
673.023
626.714
592.376
570.183
556.294
20321.2
14389.5
9049.61
4597.74
3531.45
2786.53
2500.67
2158.22
1904.18
1629.74
1385.52
1164.91
980.013
834.459
738.435
662.292
607.022
566.699
540.479
524.19
8692.62
8062.79
6089.4
3803.65
2849.76
2042.96
1861.54
1559.54
1406.22
1153.71
985.026
828.812
746.444
689.09
651.073
615.772
584.784
554.523
529.083
508.646
1566.51
2045.62
2249.19
1639.91
999.952
681.249
599.699
505.118
466.088
375.128
329.421
275.327
248.028
213.54
187.276
170.033
170.135
173.499
177.402
161.079
2530.6
1971.15
1548.46
1244.6
989.891
789.259
584.67
462.191
389.182
354.517
334.044
307.116
288.53
272.025
259.128
246.668
236.567
219.209
209.096
185.995
23964.4
6439.83
3845.76
2994.16
2250.52
1599.08
1482.32
1129.24
1185.36
977.441
1024.44
922.499
963.926
920.828
947.282
924.264
928.806
904.797
891.615
861.884
13432.5
10340.5
6873.2
3841.97
3100.21
1895.14
1777.28
1268.39
1288.86
1043.12
1068.19
956.472
983.447
932.509
948.985
919.549
919.659
895.781
883.688
862.588
59548.4
16618.8
7041.68
4294.67
3017.34
2053.92
1816.04
1310.44
1281.47
1024.12
1026.18
918.422
930.913
885.273
894.619
871.101
872.666
856.231
848.904
836.934
48544.6
14537.7
7270.42
4581.84
3696.58
2152.69
2126.29
1476.19
1418.14
1104
1077.33
939.045
937.65
874.086
873.639
840.428
838.034
817.65
809.17
798.588
20130.5
11039.9
7426.44
4444.9
3833.37
2409.01
2260.56
1589.09
1425.13
1138.71
1078.68
961.203
943.544
878.479
856.746
813.245
796.937
769.553
755.983
745.192
41369.6
11812.4
8079.51
4337.46
4370.08
2830.73
2419.81
1709.89
1429.27
1170
1107.57
997.042
978.667
900.848
870.113
812.002
785.461
745.574
723.495
706.835
19817.5
11530.1
9026.32
4479.23
3918.02
2993.44
2276.91
1691.15
1412.09
1185.89
1120.92
1036.36
992.854
927.853
881.368
833.962
797.356
754.857
723.761
699.799
7103.03
12129.1
10779.4
5301.08
3894.24
2881.53
2400
1591.52
1334.86
1187.24
1121.25
1031.69
954.116
888.878
851.744
833.569
813.82
777.083
747.938
716.324
15029.8
12100.9
7988.08
4440.1
2788.79
2454.48
2250.47
1556.38
1310.67
1177.96
1052.49
889.159
789.489
766.061
781.854
797.184
794.677
779.968
763.967
736.486
14997.2
17189.1
14205.9
6268.07
3705.58
2379.68
1905.78
1515.89
1299.67
1129.12
922.716
757.776
734.572
753.242
762.809
761.109
755.935
751.648
746.629
730.631
30719.1
16821.5
9903.41
5268.21
3290.83
2658.17
2091.69
1548.1
1290.11
1114.45
981.66
894.149
854.365
814.672
786.938
764.486
746.653
737.131
731.232
718.959
40893.8
12743.6
8706.69
5290.06
4151.52
2965.63
2312.01
1693.88
1431.73
1254.15
1168.65
1086.37
1024.92
946.464
873.229
820.395
776.805
750.048
732.033
717.666
57195
14046.7
7456.32
5059.46
4008.5
3031.94
2557.4
1970.53
1755.4
1509.86
1385.36
1239.15
1127.23
1022.41
931.791
860.996
806.406
764.504
739.005
723.846
32585.8
13748
7536.82
4811.04
4227.91
3176.02
2882.65
2237.38
2001.82
1655.48
1474.99
1273.26
1144.9
1027.7
938.763
855.807
800.13
757.269
729.956
717.4
29515.5
12049.2
6081.14
4626.19
4032.02
3117.63
2919.92
2279.32
2087.84
1663.28
1458.11
1203.77
1076.01
953.276
885.845
813.099
771.532
733.303
708.192
696.958
24722.2
11822.2
6333.88
4404.77
3677.06
2936.05
2740.76
2190.93
2020.79
1593.16
1388.15
1116.43
997.639
872.95
812.565
744.19
710.042
676.835
657.405
650.195
36709.9
15256.9
9117.42
4779.67
4048.92
2932.28
2752.41
2172.95
1997.61
1545.85
1349.29
1062.95
959.853
835.136
785.098
716.473
677.699
642.784
622.881
614.656
17412.2
9444.53
6642.45
4392.45
3144.79
2255.2
2107.45
1626.06
1501.03
1106.21
994.728
799.606
777.405
714.303
700.902
653.729
628.949
597.501
579.828
570.701
910.191
2516.17
2615.41
1714.83
924.047
650.733
598.57
479.009
419.412
315.008
266.405
214.472
188.712
165.426
161.147
158.895
161.154
159.426
153.116
127.699
734.906
812.356
541.37
944.928
879.505
941.145
666.233
642.494
479.386
389.415
853.15
763.794
598.345
503.002
556.24
879.272
786.649
952.885
659.97
971.788
868.409
417.769
755.261
674.366
592.865
517.065
835.34
755.541
189.248
242.969
143.595
970.714
929.977
971.527
854.451
114.16
129.085
106.355
836.586
574.246
762.153
586.331
97.9355
102.07
95.7311
541.376
490.743
555.189
481.338
101.844
89.8783
75.2824
476.13
463.425
458.913
417.251
101.74
72.6594
71.1193
459.319
450.433
409.624
392.616
92.7689
71.6386
72.4835
448.015
432.117
386.843
359.626
82.7485
71.7162
64.0239
423.486
387.898
346.421
295.039
64.5037
61.3959
48.2171
375.82
347.792
279.118
256.237
139.393
142.945
114.828
949.603
794.858
821.667
680.454
115.513
113.389
106.619
730.533
600.281
643.156
561.355
96.455
99.7965
80.8878
568.6
477.688
533.101
466.03
73.8724
80.9046
93.5659
451.66
411.295
457.751
436.394
75.5185
94.5457
89.2722
404.416
381.654
421.836
368.784
73.5881
85.2184
81.0034
371.811
333.445
352.934
318.415
62.145
79.6332
72.4679
317.567
270.95
309.037
297.461
48.0316
71.0349
59.3501
261.465
253.314
298.419
307.726
114.513
250.963
202.232
841.243
685.72
1034.36
931.741
103.291
202.195
190.079
647.824
567.718
895.059
785.422
93.8974
181.929
145.561
544.083
497.333
745.26
624.039
102.873
134.727
119.845
491.463
462.103
595.482
538.958
93.8988
117.539
101.321
446.338
390.967
519.607
450.016
84.2257
94.4243
83.5587
375.54
344.104
429.168
390.721
76.0728
82.5093
81.3679
336.28
324.938
384.236
373.875
62.1202
81.5529
76.0269
323.483
322.833
372.389
372.048
204.639
263.51
129.252
1088.96
940.218
1053.5
838.875
199.294
135.045
128.879
907.164
800.601
804.133
697.89
145.049
122.243
110.113
756.901
629.388
662.564
607.03
118.478
113.029
117.239
600.99
546.584
602.082
569.135
104.683
115.548
100.808
528.305
460.247
551.907
502.681
84.3058
96.9659
87.0406
439.38
402.813
489.224
464.718
84.1344
87.3923
86.9706
397.822
390.548
460.611
451.991
77.8448
88.645
74.6669
389.832
388.579
448.163
447.623
1130.07
1193.68
999.829
1681.46
1413.51
1571.79
1278.8
701.818
893.038
689.766
1230.22
954.548
1152.99
919.893
586.931
651.832
563.404
902.924
796.857
871.586
764.17
547.196
539.475
496.852
772.286
737.733
740.519
694.362
523.217
488.043
464.471
724.873
697.136
681.045
637.965
498.273
455.834
418.667
690.106
654.401
621.736
559.663
445.355
401.856
341.58
638.51
587.168
535.128
462.581
396.355
323.807
294.42
573.351
537.858
445.145
422.155
936.012
1000.69
809.082
1530.98
1223.09
1366.64
1101.28
699.016
763.064
662.498
1122.78
919.227
1037.94
898.038
558.61
630.91
556.262
870.754
760.321
858.863
770.905
489.362
545.05
495.334
736.507
680.587
752.986
572.201
444.987
471.792
404.509
661.106
597.766
519.67
419.256
382.883
386.45
348.263
575.93
502.669
402.053
392.624
309.623
339.809
335.167
476.399
413.063
397.823
429.262
289.9
338.785
349.267
405.647
410.083
439.458
459.058
815.875
1211.73
1052.47
1360.95
1107.66
1524.3
1280.95
672.291
1004.74
872.39
1046.54
911.514
1212.37
1038.32
586.01
827.014
701.493
875.263
793.738
986.539
866.842
519.804
673.026
608.203
773.624
588.89
838.91
752.123
430.004
585.092
509.926
539.063
453.2
721.959
641.062
381.183
488.71
448.11
442.873
452.201
620.38
578.783
368.502
440.826
428.611
457.234
472.395
570.535
554.502
366.447
426.471
420.103
476.04
478.808
550.509
537.37
1063.41
1291.44
980.347
1632.1
1299.98
1734.01
1295.74
884.03
933.822
802.777
1227.75
1044.64
1221.13
1041.32
707.373
763.82
697.783
990.973
873.836
991.981
901.279
617.786
690.484
646.222
846.804
765.511
883.467
815.329
522.02
627.845
575.885
736.836
659.938
794.104
738.501
463.595
563.392
538.329
640.526
602.381
726.979
699.044
448.124
534.554
523.467
594.951
579.291
693.425
673.423
437.788
519.695
507.438
575.071
558.058
667.19
641.841
1467.91
1674.89
1340.67
2029.88
1581.34
1923.37
1479.95
1019.24
1212.6
977.623
1413.27
1168.35
1348.27
1116.96
852.542
928.181
820.561
1109.93
991.838
1068.48
967.877
790.577
797.6
750.131
968.796
923.79
946.549
894.29
745.359
735.349
686.352
907.44
867.096
875.361
808.513
696.638
667.816
599.098
854.359
802.542
782.92
699.921
627.172
573.147
501.174
783.901
732.954
673.411
612.633
577.103
485.097
462.41
720.458
687.283
601.561
587.171
1289.69
1461.43
1174.32
1881.33
1441.02
1669.18
1342.64
975.387
1107.29
958.842
1327.86
1113.54
1268.59
1105.66
817.515
918.408
828.502
1066.03
966.843
1064.43
975.486
825.437
775.08
794.658
848.278
771.784
828.831
848.998
677.682
690.349
669.952
762.783
634.185
737.93
716.288
538.807
382.646
406.932
732.447
639.668
494.447
508.341
449.738
418.91
459.876
613.265
565.742
518.752
555.301
448.236
470.932
489.598
562.293
567.82
564.876
580.542
1179.43
1596.06
1329.68
1633.85
1342.35
1751.77
1434.46
971.709
1256.71
1075.43
1271.84
1113.28
1353
1162.64
848.015
1023.73
907.606
1073.05
981.943
1113.51
1002.94
821.231
747.108
846.696
866.698
793.656
691.728
889.087
632.643
453.014
648.094
388.476
618.019
358.183
661.456
472.714
654.153
613.028
526.273
557.444
736.427
697.312
502.728
604.717
587.805
566.326
588.758
689.296
670.69
509.191
583.233
566.942
593.099
595.188
664.59
643.613
1350.43
1836.77
1366.3
1858.44
1457.62
2062.45
1521.22
1081.63
1288.26
1097.75
1370.04
1169.05
1434.56
1227.51
914.411
1046.47
949.099
1118.46
1007.98
1171.83
1058.53
800.896
929.817
856.821
977.297
882.858
1034.75
954.992
695.37
835.223
779.635
853.128
780.956
933.381
878.193
638.556
768.552
739.399
763.591
726.524
867.417
834.619
613.404
733.039
710.052
718.194
696.389
825.805
793.756
587.89
702.823
673.322
689.07
662.666
783.428
745.32
1610.82
2002.4
1517.7
2307.44
1696.24
2246.04
1637.61
1209.85
1385.61
1157.56
1547.71
1334.35
1506.36
1291.77
1033.65
1110.27
1012.39
1279.81
1162.91
1248.87
1153.16
963.588
990.972
935.888
1136.81
1086.78
1128.7
1060.3
902.915
915.388
842.142
1070.48
1011.63
1033.94
938.886
833.516
814.313
728.787
990.408
930.933
905.366
820.255
764.821
703.265
647.985
912.719
863.688
799.442
759.15
719.253
638.472
624.954
850.05
818.15
752.49
742.865
1482.16
1723.89
1388.21
2167.35
1612.58
1868.65
1531.56
1154.67
1312.94
1148.05
1497.53
1292.8
1455.43
1287.95
1011.45
1106.84
1014.28
1249.77
1151.2
1244.87
1133.54
920.788
984.721
780.96
1124.59
1041.64
1095.77
946.932
797.651
715.21
584.502
1008
891.698
889.324
740.719
669.869
562.325
549.491
853.094
764.439
706.637
667.44
603.792
556.273
587.619
746.852
721.839
670.753
693.411
604.963
596.198
609.303
720.285
722.741
699.218
706.821
1386.11
1796.54
1463.92
1839.14
1526.14
1949.87
1573.9
1153.37
1380.47
1189.18
1452.8
1286.74
1484.92
1290.01
1016.59
1140.79
1029.12
1242.89
1125.85
1241
1114.32
766.595
996.352
890.813
1086.55
930.01
1075.18
963.216
599.198
857.597
778.222
874.993
745.428
929.577
848.948
589.66
759.395
721.338
717.202
689.885
830.436
797.764
616.858
713.603
694.702
693.778
711.145
791.616
771.683
621.81
688.14
665.37
713.804
711.765
763.775
737.614
1486.81
2119.6
1560.29
2029.36
1591.96
2281.28
1671.91
1195.24
1471.67
1261.67
1496.63
1292.75
1576.73
1366.85
1033.45
1204.78
1087.73
1242.69
1116.42
1310.26
1176.92
905.179
1062.77
982.658
1078.65
977.499
1148.41
1071.22
804.722
960.954
905.882
948.471
878.258
1049.8
990.164
751.244
895.123
861.018
861.895
828.704
978.366
941.114
719.772
851.299
816.248
820.541
793.155
928.333
882.673
683.385
805.117
764.511
783.26
751.391
869.195
823.469
1735.81
2347.97
1692.15
2749.37
1981.52
2812.09
1990.73
1387.46
1561.36
1350.84
1848.63
1662.46
1852.77
1628.92
1215.37
1308.79
1209.78
1584.87
1431.25
1576.58
1451.44
1137.32
1183.26
1109.08
1409.39
1348.97
1417.83
1318.59
1055.61
1080.47
977.891
1322.6
1224.28
1280.57
1152.84
971.78
942.898
859.948
1201.33
1137.64
1114.03
1029.82
903.399
840.696
803.263
1118.37
1054.47
1011.73
972.76
856.66
796.879
786.721
1040.84
1001.55
966.19
946.1
1671.65
1926.96
1595.77
2652.92
1983.96
2259.98
1923.81
1353.66
1519.32
1349.5
1857.7
1634.68
1836.71
1633.88
1207.13
1304.09
1182.56
1582.01
1450.16
1577.45
1416.33
1088.54
1141.93
995.629
1411.94
1295.12
1363.66
1202.74
928.917
938.48
785.259
1250.58
1104.16
1141.64
973.525
804.771
749.774
711.301
1061.39
978.593
935.536
894.413
767.654
715.265
736.643
966.096
942.256
897.614
909.243
766.761
741.548
746.317
939.377
927.081
910.23
898.836
1590.36
2023.09
1631.3
2262.16
1922.25
2406.8
1962.86
1346.29
1539.49
1340.71
1835.19
1629.13
1850.63
1611.41
1171.83
1289.83
1153.28
1570.52
1402.15
1547.24
1376.09
977.254
1111.38
996.399
1347.1
1184.54
1321.8
1189.81
787.85
962.326
880.145
1125.72
974.093
1149.42
1053.96
730.078
861.67
831.729
940.58
907.248
1030.15
993.965
751.277
826.206
805.426
910.378
917.846
986.093
958.021
749.069
797.02
769.133
916.464
896.915
946.337
907.058
1646.22
2342.3
1722.65
2467.85
1975.09
2728.43
2069.06
1341.53
1623.09
1413.15
1855.25
1608.22
1915.05
1669.83
1154.89
1356.21
1216.21
1545.2
1377.29
1605.31
1451.74
1010.99
1185.49
1109.46
1324.01
1204.38
1382.72
1304.4
910.491
1087.53
1025.31
1168.98
1084.93
1267.84
1202
862.625
1012.58
974.098
1062.41
1023.01
1168.35
1127.08
825.247
960.12
910.671
1011.1
973.669
1102.29
1047.93
781.429
896.32
848.789
959.492
914.479
1023.94
968.03
792.837
755.623
705.691
786.384
741.067
808.572
754.748
816.388
798.82
741.817
856.126
765.822
853.324
715.599
746.573
640.476
632.983
432.463
706.445
668.395
540.465
875.763
898.324
924.974
945.015
878.81
899.062
921.554
843.591
834.862
903.664
852.273
858.075
804.998
890.296
867.493
894.201
946.986
870.97
902.444
746.998
914.733
800.832
470.621
790.182
763.82
723.605
576.488
857.515
639.386
666.769
567.829
685.516
599.047
712.063
605.977
539.16
581.338
427.93
370.874
527.727
600.733
318.134
479.721
449.768
398.311
347.15
479.421
457.277
317.891
725.594
809.806
824.827
812.457
783.159
765.447
772.076
685.39
726.329
794.986
691.781
755.22
648.796
731.185
595.39
408.687
727.73
552.226
656.219
362.954
670.899
533.875
387.996
580.835
524.321
507.968
356.004
617.847
750.684
641.996
685.649
440.35
735.008
532.084
698.432
867.89
866.627
849.959
914.359
832.839
904.548
883.546
826.915
758.515
818.644
817.119
795.076
788.032
850.522
863.803
906.744
878.407
961.681
736.824
928.174
909.936
787.764
468.817
757.811
780.917
563.689
731
840.629
900.389
944.948
966.81
938.535
937.842
912.877
929.196
857.494
844.239
843.902
903.407
816.712
878.61
885.833
613.324
424.323
575.028
375.4
595.241
354.601
591.384
721.381
724.849
725.371
784.871
694.068
752.877
754.754
694.479
643.728
698.26
704.224
667.237
670.858
727.786
658.854
417.664
546.987
734.973
387.733
690.615
697.758
637.045
412.086
519.139
650.352
384.469
616.523
669.934
747.839
811.449
806.199
805.097
780.187
781.228
772.844
720.332
731.179
720.606
778.476
696.494
754.424
744.489
304.659
398.841
315.862
661.68
675.204
675.362
719.411
235.173
247.364
205.882
592.523
515.74
659
533.781
170.623
180.532
163.333
485.938
459.756
483.281
466.356
161.038
156.065
155.905
410.484
378.613
431.364
428.944
148.069
155.511
159.805
385.333
393.844
424.289
422.697
148.853
159.364
157.766
390.809
387.39
414.171
408.931
138.952
152.786
146.49
389.518
382.613
394.698
378.37
116.553
140.401
120.722
368.742
385.863
353.948
360.107
453.018
459.733
385.408
917.15
869.363
900.024
851.026
419.764
263.524
297.249
431.129
412.92
431.042
233.753
339.506
156.947
136.523
354.254
324.45
374.849
122.574
245.109
97.1109
91.0869
216.818
214.649
247.626
87.8532
240.352
98.1737
86.4375
216.402
217.08
243.547
85.453
239.331
103.093
85.2692
229.962
236.818
238.649
85.3818
231.85
98.1416
83.1595
256.171
256.924
236.603
80.8584
219.923
87.6522
78.9742
252.729
247.28
224.318
78.3814
188.447
76.7961
72.504
227.94
221.229
196.799
69.5605
90.7603
101.309
78.6359
277.675
290.422
235.4
249.127
275.042
221.767
254.091
689.974
805.701
720.496
836.5
402.572
172.247
178.593
398.664
408.222
382.642
155.962
358.021
121.905
126.835
372.172
356.779
368.727
123.352
304.21
108.328
114.51
318.777
305.047
320.283
109.145
218.872
81.7791
81.7469
249.552
231.247
230.535
75.9707
220.526
73.2649
76.3645
210.95
209.865
218.206
79.2426
205.83
75.8584
79.9482
208.461
205.573
212.075
78.2502
177.042
68.3314
71.9238
187.016
178.573
185.831
68.5261
156.567
58.8525
61.0429
155.472
152.924
157.981
60.3821
81.7684
115.537
101.157
232.846
246.841
267.595
290.595
310.711
474.991
408.484
849.273
820.805
913.514
935.344
375.855
129.624
179.859
345.833
366.739
355.535
144.833
347.564
109.572
120.808
331.452
320.085
358.879
118.119
324.809
92.7077
111.529
282.079
270.273
325.509
113.028
303.69
100.975
110.673
274.957
278.698
306.861
109.683
287.568
101.952
108.688
277.357
272.089
295.366
107.065
237.971
86.4841
90.8825
236.727
230.502
245.645
87.8345
215.728
80.2274
82.856
214.86
208.878
220.742
81.0454
202.204
71.2646
75.6208
196.288
191.387
204.218
74.787
109.003
143.599
116.084
299.711
316.186
325.083
340.018
386.33
357.154
380.928
1061.76
1122.67
930.498
934.861
476.953
204.07
217.035
482.795
511.133
463.073
180.186
536.25
208.025
194.145
556.29
553.921
534.318
198.879
453.907
174.195
184.129
497.411
465.611
487.141
170.106
341.266
124.697
125.26
369.18
349.723
352.316
120.614
320.898
115.228
119.245
324.928
315.133
330.436
118.1
257.86
90.3309
100.046
265.658
249.48
273.822
92.7883
240.493
83.6444
86.1586
232.354
230.989
241.945
85.9005
239.938
85.3283
86.4837
231.386
232.156
240.063
86.5847
118.83
152.493
138.776
349.961
356.905
356.382
340.249
274.783
356.357
252.215
762.775
737.63
780.976
803.171
229.448
245.511
234.29
681.421
640.742
774.594
694.809
210.848
219.731
202.67
600.743
574.573
642.719
609.162
199.246
200.11
195.794
554.79
536.477
589.312
558.032
177.318
191.985
183.443
512.935
488.069
534.478
518.485
164.362
183.543
182.844
468.029
457.881
498.01