/*--------------------------------*- C++ -*----------------------------------*\
  =========                 |
  \\      /  F ield         | OpenFOAM: The Open Source CFD Toolbox
   \\    /   O peration     | Website:  https://openfoam.org
    \\  /    A nd           | Version:  10
     \\/     M anipulation  |
\*---------------------------------------------------------------------------*/
FoamFile
{
    format      ascii;
    class       volScalarField;
    location    "4.9";
    object      omega;
}
// * * * * * * * * * * * * * * * * * * * * * * * * * * * * * * * * * * * * * //

dimensions      [0 0 -1 0 0 0 0];

internalField   nonuniform List<scalar> 
12920
(
264.607
291.077
248.199
136.538
81.1714
72.7755
73.2439
72.2856
66.5736
60.7233
55.0419
51.0298
47.0242
44.1427
42.3579
40.9794
40.4344
39.4847
38.8588
36.9901
226.266
260.012
172.892
120.443
94.8766
82.5104
72.9333
70.0947
65.6786
64.2486
62.0373
60.2309
57.002
55.0659
53.8735
53.5806
53.3729
53.0058
52.8335
52.7158
262.355
253.077
192.522
128.267
108.873
90.1822
76.2527
71.4173
66.3053
64.6479
61.1655
59.258
56.7264
55.6385
54.6115
54.2124
53.6071
53.2715
53.2924
53.5761
504.683
323.065
179.516
124.863
104.431
87.7451
74.8905
69.3344
64.6903
62.5309
59.7714
58.1362
56.177
54.9828
53.85
53.0489
52.3472
51.9168
51.8587
52.1659
626.452
370.162
180.598
145.67
116.24
96.7826
83.5399
75.3933
71.2891
67.7935
64.6852
62.2591
59.4013
57.7574
56.2029
54.8365
53.5146
52.371
51.6087
51.4477
139.926
192.853
150.808
135.905
116.007
105.761
92.5198
87.2142
81.0203
76.9118
69.8319
64.1791
60.7738
59.1696
58.1746
57.0206
55.7125
53.8446
51.8826
50.0672
115.413
184.933
168.06
133.239
112.923
103.994
95.6576
88.4612
79.8432
72.339
65.9479
62.6941
62.2785
61.8472
60.8216
58.6477
56.7775
54.7663
52.7008
49.4543
75.1104
166.092
182.519
169.516
129.804
112.616
179.386
139.598
128.529
115.393
110.09
108.908
107.542
103.384
64.5653
59.5819
56.9981
54.8925
53.5191
49.9969
313.986
187.286
183.782
172.335
134.743
199.386
323.533
234.441
183.664
176.773
180.618
178.239
169.646
159.501
95.9725
55.6933
54.1184
53.7236
53.293
51.5743
277.148
180.043
138.938
116.925
95.2862
143.519
257.754
201.28
188.884
167.917
152.573
155.517
150.394
138.137
89.8462
56.5057
54.019
53.461
53.4614
52.6507
67.4463
108.502
130.959
136.508
125.238
176.694
227.798
188.413
176.348
177
180.867
168.274
162.01
153.132
102.039
60.7987
56.1784
53.3014
52.9602
52.4304
147.785
199.31
160.2
130.824
119.932
180.659
272.13
257.176
244.219
205.571
193.131
175.71
163.108
164.246
109.749
62.3987
57.2505
53.3482
52.2709
51.5721
214.092
202.75
179.787
141.99
126.924
116.754
168.056
139.364
131.478
127.608
122.633
115.44
113.805
112.401
69.3803
63.2708
59.3123
55.4106
53.0708
51.0426
271.711
226.439
186.166
137.043
121.584
108.296
99.0877
92.7881
87.7456
85.6211
83.5256
82.1517
79.9116
75.1322
68.8987
63.4837
59.8537
56.3539
54.124
50.9498
167.215
175.043
144.321
119.561
106.731
104.856
102.353
100.561
95.4197
94.0343
90.8394
88.4658
83.8149
76.4477
68.8606
62.3474
58.0621
55.1017
53.6827
50.545
166.472
173.701
155.145
110.84
88.8844
90.8475
95.6411
96.5254
94.8305
93.026
90.6544
87.8512
80.1155
69.4717
61.1834
55.7562
52.6757
50.978
50.3995
48.8632
179.12
146.531
116.241
95.8183
92.9034
96.5932
96.4919
94.9627
89.3091
85.6451
82.7945
79.6586
72.5998
64.1287
57.322
53.2517
50.3846
48.0488
46.7407
45.8081
81.9714
192.128
189.87
147.345
123.359
115.95
107.615
103.535
95.3481
91.3328
87.3893
84.8055
78.5043
68.9477
60.2184
55.5308
51.9121
48.1953
44.9541
42.9506
113.965
190.053
191.098
158.393
129.778
109.662
92.2863
83.0386
76.6718
73.744
69.2027
64.3802
59.7886
56.7658
55.4516
55.7561
56.5109
55.9194
52.2849
45.5711
144.161
152.045
145.532
124.066
106.795
89.4812
72.5937
63.5685
55.7728
52.737
49.2594
46.1919
43.2365
42.403
42.6229
44.3007
44.5938
44.0387
43.0538
40.3818
149.939
129.936
87.9977
56.2
46.1206
44.803
43.4288
40.2238
35.9639
33.3227
31.5148
30.3625
28.9506
27.8099
26.8231
26.1506
25.8644
25.4935
25.2462
24.4179
359.299
190.746
104.449
66.9366
49.5236
45.0733
39.941
37.7733
35.6961
35.2531
35.0091
34.6223
33.6624
32.3792
31.104
29.9771
29.2747
28.7684
28.4652
28.2943
346.963
213.037
108.644
64.2006
50.192
44.616
39.6396
37.2438
35.1988
33.6335
31.9332
30.6809
29.5642
28.6958
28.1212
27.5977
27.3141
27.0451
26.7512
26.8042
167.067
173.968
89.5305
62.9842
52.2032
45.6433
41.4361
37.6212
34.4782
31.3977
29.2284
27.8713
27.231
26.9789
26.9336
26.7949
26.7299
26.6679
26.442
26.4092
537.632
237.871
112.104
78.4477
60.5228
50.9469
46.6063
42.5366
39.2087
35.3815
32.4726
30.4168
29.1542
28.4934
28.1323
27.8114
27.5086
27.1832
26.6707
26.0986
304.111
173.078
113.643
88.6123
68.5515
57.8009
50.6044
46.2318
41.7569
38.3445
35.4507
32.8516
31.1584
29.8808
29.0415
28.4547
27.9421
27.3842
26.8297
25.5342
191.59
170.321
134.824
106.711
89.0672
73.1087
58.935
49.5435
41.1612
35.9768
32.6893
31.2907
30.5268
30.0387
29.559
28.9518
28.6096
28.002
27.5117
25.7922
183.654
197.189
143.841
98.5189
81.7516
72.6803
72.5405
63.5952
47.5315
36.3374
33.707
31.6487
31.4241
31.2323
29.2527
29.1309
29.0264
28.8518
28.7644
27.3181
223.072
206.903
131.837
90.7335
64.5039
66.2823
70.3988
66.1156
45.1534
36.3728
33.6464
32.2791
32.0039
31.0309
28.7263
27.4014
27.8167
28.1103
28.77
28.4959
266.699
142.233
100.923
63.3067
51.9874
55.1543
58.3271
50.69
40.9322
35.3595
33.0313
33.2448
33.2312
31.5433
28.6365
26.7061
26.9938
27.1349
27.6033
28.1614
170.862
174.102
116.847
78.5864
58.2297
58.7362
54.5284
45.0211
41.2312
37.1806
36.2514
35.152
31.8738
29.4759
27.1861
27.1804
27.1276
26.7923
26.7154
27.0103
247.735
131.57
88.785
65.1358
53.8972
60.8498
60.4362
51.4294
48.8157
43.1127
36.5974
32.7428
29.9357
29.5428
30.1338
30.0985
29.4334
27.9877
26.7206
26.2145
164.101
118.755
87.5849
66.5059
57.8153
52.9538
57.5904
47.5392
42.5178
39.2043
37.2801
35.9075
35.336
35.4692
34.1499
33.1307
31.3515
29.4795
27.499
25.7433
212.408
138.862
96.2273
67.3619
58.6182
54.0645
48.6268
45.9056
42.1639
40.9066
39.5435
38.9392
38.189
37.6209
36.5076
34.6098
31.8581
29.4433
27.5509
25.5477
239.794
141.997
90.5926
74.948
67.7992
60.9311
54.1385
49.9796
46.1828
44.7338
43.066
41.8941
40.7414
39.4126
37.7419
34.9869
30.907
27.8972
26.3841
25.1059
166.428
147.187
99.1482
86.3462
70.3785
63.1967
57.0239
52.0484
48.7705
47.01
45.4579
44.0493
42.3589
39.8114
36.5862
32.5258
28.9175
26.3711
25.0853
24.3533
205.272
117.804
75.1843
62.3503
58.3519
54.4556
52.8453
50.7315
49.2105
48.1962
47.5078
46.9609
45.5651
41.4991
34.7655
29.5511
26.7351
25.0163
24.0285
23.1024
150.227
148.743
106.625
75.7255
64.0581
59.2012
54.7429
52.7178
49.3688
48.1879
47.5373
48.1541
48.5845
47.9697
41.6416
32.1639
27.927
26.4096
25.3463
23.1204
200.053
115.521
95.9327
79.5499
63.7696
53.9451
47.5646
44.6327
42.7989
40.9992
39.4705
38.3999
37.416
34.8932
31.4024
29.5938
29.3357
29.919
31.3516
30.617
73.8884
79.3735
76.5156
69.1873
58.8235
47.4042
39.6614
36.0159
33.9712
32.4219
30.7926
28.8721
27.4197
26.7482
26.5986
26.1172
24.7244
23.1058
22.6486
21.9904
77.2143
101.533
80.0469
60.9786
53.851
50.4092
46.4208
41.8621
37.3258
34.9332
33.5009
32.4934
31.4746
30.6441
29.9998
29.3074
28.9623
28.2378
27.8277
26.7342
279.488
142.972
95.5129
62.9485
47.4105
40.5458
35.6344
33.3518
30.7604
30.3005
29.3469
29.2033
28.4786
28.0224
27.3768
27.1082
26.8683
26.8391
26.8463
26.9942
146.243
150.398
123.846
61.0166
44.783
36.4771
33.081
30.7277
28.8312
27.7278
26.4212
25.9051
25.2308
24.9757
24.6891
24.5921
24.5039
24.5157
24.5385
24.6904
162.602
149.888
79.8302
52.9057
44.6282
36.6263
34.0899
30.6735
28.3393
26.1657
24.7302
23.9747
23.6396
23.6016
23.6254
23.686
23.7402
23.7892
23.7844
23.8823
345.481
145.138
96.0241
62.3057
49.7666
40.8976
37.5506
34.083
31.2601
28.4116
26.4346
25.1972
24.5413
24.312
24.1518
24.0777
23.9395
23.7842
23.5234
23.3788
207.185
168.244
115.022
78.1888
56.4781
45.1729
39.8192
36.3003
32.5117
29.8763
27.7481
26.4188
25.656
25.2075
24.8154
24.4705
24.1459
23.7462
23.31
22.7322
195.931
195.005
134.189
101.64
73.3712
56.5569
44.4781
37.1676
31.6834
28.3501
26.7496
26.1253
25.9748
25.8342
25.5436
25.1917
24.842
24.2798
23.7415
22.7145
372.365
276.618
151.898
92.9399
65.7763
53.9415
52.4615
41.7326
34.5814
29.1391
27.5551
27.0268
26.83
26.7626
26.7862
26.4359
26.1968
25.6465
25.13
23.7812
167.221
158.745
129.775
84.9185
56.5062
51.5552
51.1627
42.5764
33.2433
29.4983
28.3914
28.2478
28.1568
27.7371
27.3831
27.2417
26.9491
26.5285
26.3105
25.4242
163.894
135.495
78.2946
51.5855
42.4373
43.9159
44.9661
37.6497
32.4092
29.7243
30.4403
32.734
33.2238
31.4923
27.8751
26.6123
26.5123
26.3726
26.4067
26.2067
277.343
170.747
114.41
64.7039
46.4806
42.8964
41.4192
36.2515
33.6928
31.7599
74.4024
56.1227
32.6417
26.6527
25.0992
25.4069
25.2157
25.1815
25.3711
25.5531
182.642
147.042
84.5191
53.5347
44.4208
46.569
45.0571
38.9249
35.9703
32.3874
29.3281
27.1503
25.8403
25.6289
25.992
26.0236
25.3245
24.7306
24.4868
24.4567
163.801
120.538
83.5936
56.8796
48.8753
44.0612
43.4818
37.5129
33.646
31.3248
29.8896
29.1103
28.8559
28.7427
28.28
27.274
26.0459
24.8833
24.0055
23.4301
258.885
111.898
77.2268
56.1505
49.7253
44.4392
40.3869
37.4448
34.8039
33.7014
32.5941
32.0568
31.34
30.5826
29.4429
27.9212
26.2223
24.7262
23.6488
22.8648
374.632
220.205
89.1205
64.6766
55.9905
50.0904
44.2769
41.7992
38.5357
37.0542
35.3457
34.1182
32.8457
31.4614
29.9421
27.7342
25.3912
23.8628
22.9848
22.4677
235.368
120.3
78.9703
65.1197
57.9111
51.7405
46.3815
43.4931
40.5833
39.2447
37.3403
35.7408
33.7257
31.3153
28.9226
26.3153
24.2777
22.9882
22.2902
21.9745
152.859
118.358
75.9062
58.3286
53.0239
48.2234
45.1779
43.5755
41.5172
41.0225
39.7799
38.7227
36.0659
31.6934
27.517
24.5839
22.9918
22.0329
21.4475
21.0788
153.806
166.971
129.482
75.078
60.8123
54.5844
49.2852
47.0735
43.7578
42.9539
41.6113
41.363
39.9622
35.8813
29.9614
25.7031
23.7108
22.7252
21.9911
21.0925
302.309
127.621
93.3087
72.5721
58.1636
48.193
42.4667
40.1763
37.7721
36.8063
35.0333
33.5398
31.1946
28.957
26.981
26.0027
25.5717
25.5183
25.662
25.2159
92.3718
80.3135
78.1854
71.8317
59.6584
47.8451
42.3547
39.1935
37.7346
35.1138
33.0471
30.6815
29.0978
27.9767
26.7902
24.8509
23.3986
23.1185
23.6
23.4174
78.7213
83.03
74.4107
62.5068
56.4467
51.638
46.4107
41.1317
37.1265
34.999
33.9444
32.8609
32.0289
31.2023
30.533
29.7868
29.3756
28.4825
28.0324
26.8231
322.116
112.036
78.0837
57.793
49.0765
40.059
37.5524
33.1511
32.1042
30.539
30.3198
29.8269
29.7791
29.6953
29.7781
29.9432
30.1533
30.4326
30.6834
30.9984
219.022
158.059
94.0038
56.2583
47.015
36.2268
34.5495
30.4562
29.7546
27.8231
27.4407
26.6801
26.6868
26.5496
26.6969
26.7866
27.0037
27.1847
27.3825
27.5706
248.101
133.664
77.1125
54.6707
46.0085
36.395
35.0399
30.1625
29.1207
26.4027
25.9345
25.032
25.1998
25.1328
25.4151
25.5516
25.8194
25.9536
26.1289
26.3065
332.047
141.964
88.9033
58.8701
51.362
39.0459
37.7188
32.599
30.8697
27.5569
26.7552
25.5176
25.5616
25.3542
25.515
25.5071
25.5932
25.5667
25.5599
25.6107
284.177
147.178
102.939
67.545
55.0539
41.7424
39.3246
33.8707
31.1952
28.2222
27.2392
26.2047
26.1902
25.9351
25.8812
25.642
25.5276
25.2639
25.0588
24.9012
359.515
170.544
122.106
82.5045
64.5966
49.3188
41.2902
34.0063
30.5337
27.605
27.3134
26.7463
27.1611
26.9592
26.8947
26.4991
26.181
25.6579
25.2251
24.7685
415.177
230.682
130.871
76.6525
58.2464
47.6225
44.739
35.8407
32.1141
28.8372
28.3602
28.3205
28.296
28.3229
29.3677
28.4399
27.8483
27.0303
26.4003
25.544
129.119
149.406
129.62
81.5143
55.9324
47.9798
45.5917
36.1183
31.8439
30.4643
30.2402
30.5223
30.388
30.2571
30.6906
30.6447
29.6332
28.6338
28.0167
26.9968
242.935
134.993
84.0815
54.3739
42.8902
42.9215
43.031
35.3815
32.5093
31.5521
33.2157
34.8755
34.8543
33.2563
31.7456
30.7956
29.9596
29.2663
28.9472
28.1914
179.547
185.475
144.218
76.4314
48.5251
40.9238
38.6491
35.0546
33.4041
33.1513
54.647
44.4782
33.3996
29.8383
29.3071
29.0262
28.4317
28.2733
28.3159
28.0465
276.081
156.588
101.562
57.1956
44.8926
44.2892
41.0731
36.0071
33.5787
31.5405
29.9585
28.8325
28.3474
28.2813
28.5673
27.998
27.2854
27.0525
27.1008
27.0536
238.959
129.74
93.7206
58.4744
51.3003
43.8766
41.2148
35.5494
32.4898
30.7666
29.8887
29.4205
29.2697
28.9678
28.6437
27.6583
26.8656
26.2857
26.0131
25.8844
412.934
125.969
80.6616
56.9471
51.5992
42.6267
39.8829
35.7105
33.9989
32.5318
31.86
31.202
30.5878
29.7215
28.7831
27.6854
26.6777
25.8424
25.3746
25.2188
483.344
230.602
93.7603
62.2775
56.7726
46.9953
43.7989
39.9562
37.5178
35.4278
33.9826
32.5445
31.4073
30.1018
28.8812
27.2668
26.0252
25.2532
24.8422
24.8027
281.984
140.917
79.2111
60.3606
57.3035
47.8756
45.6152
41.3275
39.6187
37.2741
35.5342
33.4156
31.646
29.6825
28.1907
26.5207
25.4647
24.807
24.4544
24.4485
317.194
137.159
82.0307
58.1051
55.0273
46.5854
45.6214
42.0155
40.9746
39.1418
37.4206
34.9732
32.3224
29.3466
27.2047
25.4917
24.6118
24.0523
23.7367
23.7263
297.841
228.135
142.471
76.118
63.1924
52.8724
49.5619
45.327
43.4805
41.3027
39.5894
37.2842
34.5786
31.159
28.4147
26.3871
25.261
24.5367
24.0474
23.8517
301.687
133.904
98.0389
71.3075
59.3697
46.9401
44.1687
39.75
38.6381
36.0857
34.5581
32.4395
30.8782
29.5789
28.5688
27.8616
27.2817
26.89
26.6597
26.5465
69.638
80.6957
84.7419
72.2724
56.3992
46.5393
43.6538
40.0661
38.4747
34.5186
32.3408
29.5692
28.0616
26.0326
24.3727
23.2268
23.2347
23.4648
23.7243
22.604
93.9662
78.9181
70.1115
62.8851
56.0835
50.0641
43.0819
38.3085
35.1646
33.5615
32.5812
31.234
30.2732
29.3919
28.6846
27.9857
27.4043
26.3777
25.7603
24.2928
297.91
113.744
74.6588
66.2175
59.636
46.5693
48.4195
37.3713
40.9133
34.4773
37.3701
34.132
36.1733
34.9099
36.385
36.1261
37.147
37.3093
37.8297
37.9026
177.1
133.034
93.8951
63.4634
61.5507
43.5468
46.2419
35.1448
38.0975
31.883
33.8839
30.9321
32.4014
31.2364
32.341
32.0097
32.7613
32.7569
33.0395
33.0508
581.423
196.637
93.9277
70.8476
56.9292
45.8074
44.7272
34.6962
36.1832
30.354
31.5978
29.1726
30.4087
29.6165
30.6108
30.4549
31.1297
31.1583
31.4569
31.5483
440.423
193.295
100.215
71.1847
68.2313
45.1235
49.1868
36.3266
37.7527
31.2038
32.1933
29.4694
30.6498
29.6423
30.5344
30.1808
30.7142
30.5683
30.7499
30.7939
201.811
145.217
106.564
71.4836
68.5659
47.7093
48.6893
36.9384
35.9044
31.0556
31.3385
29.7402
30.5604
29.9834
30.413
30.1081
30.3257
30.0919
30.126
30.1152
430.406
161.082
119.938
69.9748
78.2678
52.7142
50.6733
38.5551
35.7922
31.4987
32.2632
30.8423
32.1232
31.2966
31.6497
30.9423
30.9267
30.3572
30.1779
29.9829
277.172
160.774
124.562
66.7771
68.464
56.4826
46.4102
38.8067
36.4918
33.354
34.1911
33.6706
34.4594
34.1218
34.6687
33.0425
32.3335
31.5043
31.0302
30.5835
168.892
190.89
152.288
75.9711
69.769
55.3623
50.8263
39.6075
38.3207
37.8302
38.5453
38.6152
38.7546
38.6765
38.3907
35.4815
34.0679
32.9025
32.3444
31.6074
288.419
168.184
106.145
71.2821
51.8888
51.1783
50.5127
42.49
41.2986
40.9112
41.478
41.754
41.7748
41.3294
39.5559
35.7282
34.4017
33.5728
33.1719
32.392
184.612
193.892
169.795
93.7917
64.0563
47.4207
43.8542
42.6726
41.8229
40.8882
42.8665
41.7174
40.8419
40.0686
38.1506
34.2637
33.2304
32.8697
32.7223
32.22
272.852
188.49
124.127
76.9341
54.0608
50.1405
45.619
42.2846
40.5514
39.0741
38.2676
37.9007
38.1229
38.152
36.474
32.7867
31.9438
31.7448
31.7173
31.4875
445.547
170.238
111.586
72.7139
65.3886
50.4289
46.4316
39.2529
37.4907
35.6062
35.4781
34.9161
34.9849
34.5374
32.6448
31.5917
31.0605
30.8112
30.6875
30.6495
640.327
185.855
95.4817
71.3771
60.3462
49.2614
46.4455
37.9767
37.3365
34.4761
34.578
33.4917
33.2112
32.4084
31.7371
31.1265
30.6836
30.2381
30.0963
30.2101
322.921
172.367
102.75
70.8734
65.7191
50.1135
49.0875
40.9661
39.9714
36.4387
35.8175
34.0637
33.4893
32.4078
31.6674
30.6426
30.1515
29.736
29.6076
29.8615
289.529
151.6
87.2088
71.4062
64.0555
50.3164
49.9612
41.9892
42.1775
37.8197
37.2054
34.4516
33.6905
32.087
31.4672
30.399
30.0554
29.6136
29.455
29.6792
249.022
149.34
89.5954
69.0781
60.9246
49.6627
50.1165
42.7364
43.8857
39.2628
38.6636
34.9414
33.8166
31.6993
31.0112
29.8193
29.4917
29.0226
28.8875
29.0838
404.775
211.559
122.712
72.1033
68.1592
52.8931
53.078
45.0097
46.0115
40.6979
40.3319
36.0631
35.1263
32.7759
32.1776
30.8299
30.283
29.6143
29.3258
29.3681
373.484
158.079
101.267
76.6192
64.3611
50.1458
50.085
41.4149
43.1852
37.2047
38.2596
34.7476
35.5373
34.0258
34.2838
33.2134
32.9215
32.3181
32.2387
32.5423
52.4967
89.6768
91.4243
73.9436
54.2216
45.4883
43.607
39.0164
36.4858
31.6289
29.0742
26.0923
24.4665
22.9084
22.6075
22.4516
22.6103
22.4894
22.0376
20.1267
29.9045
32.4448
74.7792
30.546
31.6931
33.5741
84.6458
32.2997
73.149
59.8608
32.4107
34.2071
82.0234
60.2338
72.6531
32.5445
30.5816
32.7052
80.0132
31.3418
30.5406
67.9676
29.9727
28.1913
79.4711
64.2252
30.1745
28.9399
244.24
277.174
213.171
85.2284
80.2821
72.418
67.1794
189.786
202.186
184.061
77.1592
59.146
62.1499
49.2275
176.173
180.398
174.391
53.3
44.1948
46.2653
40.0657
179.639
168.879
154.5
41.8773
39.1188
38.9286
37.1505
179.439
151.837
150.337
38.3377
36.377
36.8192
36.4892
171.449
150.93
151.806
36.0029
35.673
36.5055
36.4241
162.044
150.99
142.616
35.4762
34.5135
36.2653
34.8771
142.986
139.684
123.728
34.1897
32.1205
34.2115
31.3796
209.916
213.458
190.692
67.5038
60.6567
57.5489
51.0833
191.669
189.458
183.618
57.3315
48.3625
49.6421
46.3727
174.897
177.56
160.314
46.1645
40.7969
45.712
41.6275
153.14
160.481
172.672
39.571
37.0838
40.1305
38.0925
155.021
173.513
168.475
36.6512
36.4729
38.137
38.119
152.951
164.622
160.548
36.56
36.4649
37.8864
36.1288
140.533
159.144
151.805
36.2561
34.7029
35.4158
33.7006
123.488
150.277
137.257
34.0222
31.4089
33.3713
31.1003
190.646
283.394
254.15
63.8462
51.9815
69.9527
60.8123
181.039
254.123
246.236
50.194
46.6981
58.9359
55.6828
173.278
240.758
214.979
45.9049
42.2661
54.9281
51.1636
180.97
206.821
195.179
41.1106
39.3778
48.9955
42.7942
172.751
193.296
179.353
39.1305
38.3171
41.3831
38.0435
163.667
173.137
162.934
37.8438
35.3753
36.8511
33.695
155.503
161.92
160.812
34.6019
33.0538
33.0974
32.3246
140.397
161.002
155.262
32.7756
30.6781
32.2665
31.4035
255.268
291.137
202.591
70.0917
59.8426
75.4529
55.7207
251.719
206.78
202.015
58.2308
56.1125
53.7115
50.4567
214.475
196.818
187.297
55.6595
52.0492
49.6386
45.9995
194.061
189.771
193.177
49.6796
43.1897
45.1106
42.9242
182.318
191.713
179.053
41.7361
38.3779
42.543
41.0208
163.648
175.578
166.449
37.182
34.1666
40.55
39.2451
163.514
166.805
166.451
33.6101
33.0738
39.1398
39.1029
157.056
167.972
154.132
33.0997
32.1338
39.3408
38.6865
69.5071
61.5834
58.7763
55.0652
50.4716
48.3918
43.8858
49.9495
54.4863
43.5434
46.6114
37.0531
41.1202
34.8551
38.275
40.9864
35.8583
34.9248
31.0518
33.4276
30.5297
34.2076
34.8797
33.2902
30.2023
29.0954
29.9571
29.195
32.4466
33.0079
32.8328
28.7843
28.4143
29.1979
29.7729
32.1483
32.9046
33.0006
28.4378
28.4307
30.0595
30.6351
31.2843
32.9243
31.9558
28.3391
27.9473
30.6821
30.4284
29.8029
31.4781
29.6225
27.8136
27.1764
30.1428
28.4933
53.5421
51.1866
45.7913
46.9761
41.6532
42.9712
38.1453
42.9173
44.516
41.4946
39.5893
34.7172
37.121
34.682
36.4106
40.7493
37.3601
33.4952
30.829
33.9982
31.8828
33.3183
36.1527
35.1655
30.2204
29.7986
31.9794
46.0326
33.0817
35.4265
35.5333
30.1049
31.5297
47.0366
45.9998
33.344
35.3472
33.8016
31.9502
32.5134
44.5732
37.895
32.0775
33.1098
31.0565
32.4952
31.7618
35.6596
29.8987
29.6701
30.5027
28.5071
31.0499
28.5673
28.5116
25.7548
46.4824
58.5896
53.3438
43.2684
38.5105
45.3611
42.0014
41.9728
51.9378
49.2315
37.5135
35.3335
41.0438
38.8241
38.2541
48.5393
44.9356
34.7275
32.7557
38.0913
35.1441
36.2703
42.965
37.6178
32.3327
47.269
33.937
31.2535
35.6338
36.4146
33.5483
48.8901
48.1421
30.5409
28.5631
32.72
32.5605
30.017
44.5089
34.133
27.8983
26.2783
29.9135
29.5186
28.8517
31.8268
27.4414
25.9391
25.4148
28.0338
28.7958
28.6556
26.6005
25.1345
25.3508
25.302
52.672
62.8088
50.2621
47.4543
41.8122
48.0504
40.7143
49.3811
48.3259
45.1033
40.8699
38.6892
39.5738
36.6092
45.1478
44.1045
40.916
37.9262
34.9713
35.6736
33.3167
37.803
40.1145
37.9907
33.8016
30.8778
32.7861
31.0665
33.7178
37.4853
36.0493
30.1253
28.2039
30.6179
29.4728
30.3729
35.582
34.4459
27.614
26.294
29.2058
28.5526
29.5187
34.3211
34.2876
26.0523
25.804
28.4994
28.4804
29.4807
34.4524
34.5014
25.8149
25.8273
28.5603
28.5209
46.5419
45.9307
41.2309
46.2714
39.7096
43.253
37.4266
34.9188
38.745
33.4854
36.7664
32.4491
35.5203
32.2746
30.1567
32.3118
29.9397
31.5707
29.9821
31.6391
30.4829
28.6365
29.4814
29.0174
29.7109
29.3608
30.2953
30.4186
28.1999
29.1014
29.921
29.3019
29.4492
30.6719
31.6417
28.2424
30.242
30.8726
29.513
29.4448
31.9044
32.3717
27.8432
30.9406
30.7407
29.3959
29.255
32.4015
32.089
27.1652
30.4317
28.7561
29.195
28.8154
31.78
30.6499
39.5516
41.5082
36.8782
42.7612
36.732
39.5197
35.3767
33.4362
35.9083
33.6396
35.1989
32.4144
34.5924
32.8952
30.2017
33.0119
31.4017
31.8365
30.7001
32.464
31.8007
30.6499
29.4974
30.1027
29.6341
30.3145
29.565
30.0874
38.6224
31.0537
34.6939
31.0566
36.1518
31.801
36.8245
33.2559
54.9758
40.7973
34.4675
34.6013
53.111
39.4053
32.326
37.428
30.1889
34.4784
33.267
36.7305
31.264
28.8415
28.6583
25.8592
32.5575
30.738
30.1433
28.2335
37.1694
43.0618
39.9496
38.743
35.4689
39.7327
36.8102
34.2621
39.0417
36.8792
34.7672
33.2873
36.0545
34.212
32.1097
36.1594
33.5299
32.86
32.0205
33.6386
31.8902
55.8707
55.5585
32.8889
38.1743
40.1352
222.004
33.2939
50.9403
73.9978
43.6989
179.913
42.5372
168.782
53.8392
35.732
27.5814
26.1149
52.4074
35.6717
28.4982
27.5151
27.5455
25.8087
25.3224
33.2199
29.2246
27.3304
27.0396
25.2056
25.2574
25.183
28.54
27.5493
26.995
26.9062
39.8431
45.7557
39.2059
41.4111
36.8493
42.8562
36.725
36.7261
38.0753
35.2171
36.0377
34.0394
35.7783
33.2304
33.3552
34.2851
32.1975
33.4233
31.6724
32.4812
30.9889
29.9786
31.7113
30.1033
31.0905
29.665
30.6105
29.3742
27.6518
29.6791
28.6531
29.2515
28.1901
29.0776
28.438
26.0431
28.4321
27.8854
27.8923
27.2965
28.3139
28.0098
25.6242
27.84
27.8113
27.1982
27.0906
27.985
27.924
25.6215
27.8596
27.7709
27.0849
27.0208
27.8998
27.6353
38.8531
43.4824
37.3151
48.1541
39.8351
48.3518
40.6996
32.5482
35.548
32.7729
37.7431
35.8002
39.271
37.6604
30.6692
32.2797
31.4275
35.692
35.3209
37.5417
37.2959
30.2345
31.3007
31.4942
35.1643
35.3384
37.254
37.4658
30.4729
31.7411
32.5964
35.6216
35.9355
37.6363
38.033
30.4206
32.8092
33.1965
35.8693
35.8033
38.1224
38.4514
30.3052
33.2158
32.9142
35.9009
35.952
38.4561
38.3011
29.8646
32.6569
31.7229
35.8834
35.4501
38.2087
37.6866
36.8156
39.5374
35.6374
47.3561
40.6444
42.1195
39.8028
32.9657
34.9318
33.4655
39.4999
38.0874
39.4105
38.7059
31.6481
33.1051
32.4678
37.9544
37.57
38.4542
37.8403
32.5968
33.3023
54.5842
37.5348
38.0042
37.887
41.3753
34.6754
54.6415
48.4973
38.2924
38.7897
41.8306
40.9769
34.966
45.5728
37.8012
38.8241
39.0816
40.3271
39.0631
33.8097
36.0134
32.0674
39.0518
38.6406
38.8309
37.7803
31.8113
31.2073
29.6567
38.4768
37.7906
37.5166
36.7128
35.6773
39.5082
36.7144
41.3696
39.756
42.2521
40.1368
33.7711
36.022
34.3413
39.4396
38.7961
39.6281
38.4267
32.5726
33.8345
32.298
38.5131
37.7295
38.0758
36.8773
54.2907
31.8187
31.1006
37.7394
40.9711
36.5011
35.8542
49.1382
30.8007
29.7655
41.3003
40.3404
35.6893
35.1607
35.0895
29.4002
28.6512
39.5579
38.0448
35.0177
35.1868
30.3848
28.5249
28.3231
37.85
36.9783
35.2232
35.2132
28.9967
28.292
28.1672
36.7885
36.1762
35.2193
34.8884
36.771
42.7517
36.7007
43.2624
40.0728
45.5904
39.3334
34.1354
35.7585
33.3238
39.4486
37.9771
38.3175
36.3676
32.0462
32.6388
31.3067
37.6164
36.4726
35.9587
34.9553
30.3084
30.9519
29.838
36.0912
35.2866
34.5717
33.941
29.0724
29.5873
29.0627
35.1009
34.6606
33.8295
33.5521
28.4097
28.9573
28.7064
34.5908
34.7935
33.4258
33.3687
28.2865
28.687
28.6235
34.8144
34.8583
33.3523
33.3092
28.1752
28.5824
28.2564
34.8745
34.5685
33.2181
32.7127
41.5663
51.8803
43.4527
63.2929
52.5933
70.7634
57.8113
38.3081
42.1038
40.8119
51.5624
51.929
56.2118
54.5485
37.9987
40.7894
40.6123
50.4956
48.7551
54.1634
55.0393
38.1817
40.578
40.8001
48.9705
49.3856
55.4748
55.8021
38.7499
40.954
41.2084
49.2632
48.4285
55.7604
54.7302
38.608
41.2506
41.3721
48.3559
48.5158
54.0744
52.0067
38.776
41.3432
41.1784
48.5854
48.2893
51.8234
51.4754
38.0716
41.1138
40.4187
48.2193
47.0368
51.4483
49.9669
43.5487
44.3334
42.9224
67.9245
58.5021
58.9713
58.658
41.3529
42.6315
42.102
57.0204
55.2444
57.9977
56.7894
40.949
41.8245
41.1714
55.1824
56.9011
57.4037
59.4551
41.2642
41.1204
43.0554
57.3413
57.7311
59.3615
60.267
41.751
43.4002
42.7944
57.8019
56.8534
60.6776
60.4385
41.846
42.3639
41.7426
55.9924
52.8335
59.3384
54.0611
41.4338
41.5592
40.8063
52.375
51.8133
52.8645
51.6266
40.5102
40.6361
39.689
51.7432
50.0862
51.4591
49.4706
42.9135
44.9648
43.1283
59.0037
58.8778
60.7026
59.4425
42.1407
42.6212
41.4372
58.2437
56.8843
58.1282
55.4245
40.9964
41.1153
39.9238
57.4534
59.4026
55.2273
56.5711
42.6222
39.5577
38.9738
59.2712
60.0436
56.5619
56.2194
42.2106
38.8464
38.4508
60.3553
60.0765
55.9285
54.888
40.9962
38.3659
38.6195
58.9717
53.6123
53.814
50.4414
40.1987
38.6205
38.5696
52.3635
51.1803
49.8593
49.5522
39.2157
38.5716
37.9368
51.0355
49.1044
49.498
47.9009
42.9473
47.8325
41.6777
61.0581
59.1631
63.1272
58.4703
40.8657
40.4711
38.6845
57.6032
54.6318
54.5004
51.2815
39.4436
38.3656
37.4065
54.1175
54.7785
50.8865
50.5776
38.4114
36.9446
36.4939
54.5806
54.0238
48.2009
47.8076
37.9367
36.4045
36.1607
53.6732
52.6732
47.1284
47.1422
38.1304
35.9971
36.007
51.7383
49.4031
46.0551
46.1536
38.1395
35.9843
35.9529
49.1093
48.9937
45.7645
46.0068
37.5622
35.8558
35.1735
48.9522
47.4482
45.6051
44.147
32.4252
29.5584
33.111
30.3596
31.3421
29.7792
34.8476
36.8335
30.8685
54.6244
37.1147
33.1606
31.0949
168.483
46.8108
43.8676
71.0437
190.795
38.659
54.8503
211.237
31.1289
29.9115
30.6177
30.9661
29.9417
30.3806
31.6366
33.2378
30.9807
30.9847
35.7989
30.2697
35.8345
33.5208
37.9832
38.1883
31.7635
62.6579
31.4144
175.289
35.462
48.908
199.881
48.8633
82.499
57.019
219.127
43.1263
40.1443
31.716
38.1203
33.1504
37.4314
32.5572
40.4948
63.215
47.2603
70.9626
176.704
49.8587
59.3726
161.961
65.2202
50.6585
65.7961
83.3409
51.3706
60.6404
112.113
39.5861
31.7345
33.1127
37.5123
32.5046
37.8379
38.9154
40.9197
33.7852
33.7494
39.9781
33.2439
41.0367
39.8587
64.1114
186.266
51.78
79.1833
61.0277
173.751
53.652
65.2572
83.6907
51.9247
70.2685
59.9908
120.77
53.9265
59.1011
68.3817
44.4353
191.509
43.9134
205.635
57.2296
33.7006
32.578
31.8191
31.6927
33.1065
31.9852
31.2286
34.2961
33.1604
31.1866
30.3074
33.3626
34.0671
30.79
56.7224
39.18
61.5546
32.7371
217.07
33.3369
41.9758
60.9582
196.936
77.0458
47.6941
211.065
59.2046
46.9682
33.6733
31.3015
31.774
31.058
31.7313
30.9862
32.9039
34.5061
30.3039
33.834
30.8388
34.3575
30.6868
33.7741
47.6625
75.3052
39.4556
105.335
41.3968
159.156
44.6144
32.689
32.6244
29.3769
29.7801
31.9609
33.4384
29.2467
31.8537
30.4724
28.7786
28.1676
31.2465
31.0169
28.6998
53.0788
185.888
78.072
46.8415
175.058
55.9548
45.6551
49.4023
98.0235
75.8597
41.1789
156.822
45.1895
44.0846
33.1166
29.8572
33.5316
29.78
33.8183
29.3906
33.0181
32.2879
28.4224
31.5934
29.3593
31.4112
28.9015
32.3742
155.319
178.046
158.445
103.149
96.4539
101.707
95.0989
136.34
140.078
127.678
85.1568
73.7134
88.7957
73.1616
116.143
119.583
113.85
68.5422
57.7212
62.1613
55.3625
112.991
111.298
111.267
51.5485
51.0096
48.7587
46.0674
108.398
111.174
112.713
48.0864
43.5991
44.6431
43.3274
108.698
112.544
111.974
43.0369
43.055
42.9178
42.8214
105.045
110.175
107.881
42.0527
41.4278
42.6071
42.1284
96.1555
105.619
97.9121
41.1232
35.888
41.6215
36.111
189.108
190.486
174.306
104.066
92.3511
98.708
82.0294
144.424
288.61
306.847
167.931
153.868
164.495
271.908
100.723
222.511
207.642
118.818
115.49
109.898
196.699
79.3481
175.311
169.993
100.286
95.8169
83.2072
167.064
68.2365
176.416
165.604
82.9731
81.0349
69.1174
164.659
64.607
180.596
164.405
76.7413
73.8509
65.5645
164.52
62.7513
176.237
162.34
65.0687
63.4102
62.632
160.133
62.3697
166.762
158.38
60.2161
59.382
62.7056
157.807
58.1827
156.112
151.753
56.7562
55.3175
59.7139
148.659
84.8565
89.7131
79.0034
34.896
30.532
34.8866
29.9249
147.16
132.541
141.698
76.7203
69.1018
65.7912
67.0565
104.212
233.243
237.534
132.9
114.375
122.601
221.9
79.8777
196.664
200.442
87.968
82.9454
83.0876
197.845
76.1561
185.559
190.706
77.3138
74.5981
77.4169
186.129
66.4263
160.907
160.759
66.9683
65.5149
69.2204
155.204
62.985
152.612
155.938
62.9192
62.788
62.9686
158.863
63.2562
155.331
159.474
63.0098
62.9784
63.5909
157.759
58.63
147.35
151.2
61.6535
60.347
60.1273
147.558
53.6941
136.801
139.332
56.0436
54.0892
54.7252
138.572
80.5775
95.8305
89.6199
35.5059
30.9055
35.8527
31.6789
157.548
194.591
180.425
97.9144
78.6122
103.012
82.8071
114.235
203.309
240.16
130.962
102.16
138.395
215.342
83.5206
186.494
196.423
81.7958
79.9453
86.4428
194.2
74.9055
171.686
188.952
75.4949
72.7684
76.7883
190.3
70.6166
179.376
187.634
67.0893
66.743
71.4899
186.799
68.6981
180.114
185.952
66.9731
66.8227
69.2256
184.526
64.0645
165.84
169.936
65.1605
63.4724
66.2541
167.09
58.6298
159.705
162.288
59.4929
58.6309
59.4076
160.503
57.0235
150.504
155.034
57.3522
57.3232
57.3093
154.189
93.0121
106.816
95.9724
36.0189
31.7187
37.3907
34.123
175.181
168.977
174.183
87.3523
86.688
81.786
85.416
122.606
254.872
263.247
143.934
120.251
145.313
239.403
96.1569
257.296
248.06
98.582
97.1525
97.2041
251.146
92.915
235.156
241.649
95.0947
93.7429
94.6772
232.166
82.7369
198.904
199.264
86.8468
83.7788
86.4539
195.772
73.3873
191.4
194.764
74.8571
72.9721
74.7379
193.798
65.8749
169.327
178.18
66.8228
64.6818
67.972
171.602
60.995
163.026
165.427
59.9208
59.3419
61.4058
165.184
61.0325
164.665
165.75
59.0615
59.1573
60.8659
165.84
97.0953
110.033
105.023
40.3944
37.5568
47.3393
48.1098
147.756
168.602
141.821
91.7971
73.4086
94.2328
70.3462
134.916
139.685
136.506
63.2098
60.7047
63.3266
61.1881
129.407
132.241
127.036
57.2512
55.2318
59.172
54.3831
125.778
126.145
124.798
53.3472
51.9542
53.2169
53.4407
118.646
123.588
120.828
50.817
49.7853
53.2397
52.1078
114.263