/*--------------------------------*- C++ -*----------------------------------*\
  =========                 |
  \\      /  F ield         | OpenFOAM: The Open Source CFD Toolbox
   \\    /   O peration     | Website:  https://openfoam.org
    \\  /    A nd           | Version:  10
     \\/     M anipulation  |
\*---------------------------------------------------------------------------*/
FoamFile
{
    format      ascii;
    class       surfaceScalarField;
    location    "4.9";
    object      phi;
}
// * * * * * * * * * * * * * * * * * * * * * * * * * * * * * * * * * * * * * //

dimensions      [0 3 -1 0 0 0 0];

internalField   nonuniform List<scalar> 
38556
(
2952.85
-787.807
628.908
3413.92
-515.503
54.4387
2656.73
-207.794
964.975
1763.44
189.045
704.246
1075.67
388.853
298.918
837.461
208.889
29.3223
710.919
209.474
-82.9331
674.288
148.832
-112.201
655.706
124.632
-106.05
664.807
83.4437
-92.544
672.023
46.7586
-53.9753
690.514
18.9417
-37.4321
702.251
-4.99235
-6.74461
719.756
-19.4142
1.9085
732.186
-29.6643
17.2339
748.076
-34.6103
18.7208
764.929
-38.1419
21.2892
790.554
-37.3685
11.7429
818.291
-32.5583
4.82168
-23.976
2.81187
-672.536
107.668
1022.01
-172.876
-165.561
-849.602
98.3206
153.187
-632.177
262.247
139.008
-113.89
493.259
256.208
-98.3663
514.029
191.801
-3.68127
542.22
178.513
2.77006
552.263
151.223
-12.4337
570.935
93.6364
12.3242
583.918
68.1948
2.26655
585.59
16.2624
28.8238
581.26
5.08681
18.1842
563.778
-21.3508
33.8407
544.177
-25.7826
25.9696
521.243
-37.2022
30.4718
506.693
-40.7377
20.6777
498.977
-48.8513
18.4252
500.179
-50.8997
12.329
510.44
-54.499
11.68
-43.7062
6.33382
-634.777
-679.312
2311.78
133.335
-754.001
-179.672
574.913
291.235
-579.627
540.126
197.912
-24.1162
614.748
237.699
-56.1125
548.326
229.743
28.4789
539.11
153.009
34.7208
512.058
160.325
17.9496
502.282
71.0865
32.3263
480.002
73.6888
16.7859
458.502
12.2955
25.4663
437
12.8168
13.7722
419.655
-23.7753
19.7692
408.075
-24.5767
10.3744
402.662
-45.8414
14.0526
402.566
-48.9988
8.35663
406.458
-63.2709
10.5279
413.783
-64.2363
6.01164
426.446
-70.8654
3.70298
-54.6047
-2.378
1558.59
-1319.74
-129.574
731.327
-209.742
283.007
652.4
438.411
-68.2491
479.748
364.422
6.1417
460.948
262.922
-6.42337
402.709
258.262
29.7204
425.252
96.8821
33.5837
394.656
166.799
24.1216
391.728
46.254
27.7605
359.431
98.4585
7.52786
347.692
16.2366
7.79779
331.836
31.0178
-2.34497
334.102
-29.2695
3.22835
337.625
-30.5691
2.46924
348.432
-64.7779
8.1293
360.219
-68.1463
7.36049
372.371
-85.1315
9.70789
384.073
-84.1219
8.18422
396.861
-90.1656
6.51134
-68.0819
0.663835
1751.15
-1307.22
-1901.4
1057.11
185.472
298.832
726.651
378.58
390.287
653.804
466.178
-28.9094
670.123
224.944
21.6586
641.505
309.089
-22.2079
625.751
86.6192
26.0165
590.054
190.624
11.8726
544.024
67.7763
24.5076
491.762
144.183
6.53748
444.195
56.0166
7.78656
406.151
73.3069
-4.24477
384.198
-7.83346
0.516854
376.841
-22.4579
-0.754277
378.047
-70.5778
4.59396
383.546
-76.6344
2.98959
388.836
-96.6202
6.19803
393.284
-94.2421
5.67267
394.73
-97.601
5.98957
-70.9807
-2.24843
1032.81
298.643
2350.88
727.022
485.204
6.05102
776.78
398.224
-69.4017
747.721
476.321
18.915
710.067
290.126
-27.5277
660.369
387.807
-29.0202
643.301
91.6292
12.0584
586.731
255.176
-7.98165
550.132
96.2458
8.12965
499.266
205.798
-10.7501
453.788
92.6481
8.84662
413.855
109.158
4.08295
385.056
5.14013
15.8255
372.411
-16.5618
6.74863
374.025
-73.1671
0.97563
380.892
-82.163
-1.33866
385.913
-101.329
-0.312058
390.004
-98.3584
0.0257203
385.328
-97.2417
4.31597
-66.8635
-3.91049
690.353
2657.42
3302.53
560.372
518.215
96.9704
881.309
41.6149
35.672
1069.21
117.254
171.162
1065.93
122.001
171.406
965.973
410.983
76.7851
788.311
68.9694
57.0775
38.7391
68.3258
36.1788
628.994
81.3731
44.6696
101.286
84.5518
102.613
496.602
69.4375
31.375
32.942
66.2598
28.6242
410.695
67.4747
8.87077
78.2655
65.2554
71.8386
356.302
52.529
19.5091
17.3935
44.1431
13.4665
343.248
30.557
13.8096
26.1561
28.1937
23.4945
353.011
7.25403
12.7912
-15.6237
5.57945
-14.6239
370.969
-8.15424
4.87401
-14.2318
-5.92835
-11.0788
386.748
-93.8227
4.87572
399.913
-95.8218
0.494287
408.695
-111.884
1.77228
413.152
-104.068
1.25301
403.099
-93.6051
6.41629
-58.1459
-2.93754
861.179
718.047
-2034
1011.35
435.911
-67.8701
1022.95
161.011
-130.994
1117.42
188.29
-165.509
996.387
275.42
-32.3837
218.449
124.907
-3.81925
215.841
209.899
204.157
149.348
131.599
156.988
189.197
90.9138
7.3072
-152.426
137.311
78.8587
17.6288
-127.486
100.411
87.6928
8.82052
-68.5881
70.4646
67.3093
-1.71105
-74.8186
70.6359
59.198
-2.48627
-64.9057
76.4333
23.5632
-4.53371
-87.3602
94.8155
2.63605
-2.83739
-95.6866
103.776
-16.4617
0.218036
422.642
-24.3847
2.31053
-105.728
-108.468
-95.7949
-98.4566
-34.025
-21.6634
-30.255
439.237
-115.891
3.47414
451.586
-127.045
2.81183
461.097
-117.034
3.4551
452.194
-95.0365
10.334
-52.1242
2.46221
871.56
164.862
-4317.03
434.975
455.28
417.217
647.084
291.521
-342.619
640.776
380.708
-186.11
180.273
486.752
-249.969
161.457
172.632
165.053
205.899
134.573
-35.2915
-28.7229
-53.03
49.9171
31.6452
0.190567
-36.892
-23.6415
34.3406
25.8469
0.345911
-27.0734
-26.4091
24.9482
27.3177
1.21665
-18.542
-20.2191
18.241
20.4452
0.0748983
-19.2644
-16.029
20.5915
15.1026
-0.400644
-22.5837
-7.11054
24.3336
6.04812
-0.687537
-27.7265
-0.787197
28.9377
-0.42025
-0.00374269
-28.636
3.58595
29.0852
-4.10301
0.0677687
-28.5978
114.543
-27.0826
0.623001
-28.6264
-27.6309
-27.6129
438.096
-129.975
-0.801955
-110.704
-108.028
-103.434
-101.046
449.713
-139.688
1.02563
468.516
-130.492
-5.34447
481.18
-110.194
2.49294
-54.9347
-1.37274
1133
582.538
780.591
1010.87
87.7844
489.623
107.617
314.178
880.597
-117.428
436.135
169.618
-2.97027
451.608
67.3334
-97.9208
15.3386
-64.0654
-140.991
28.4094
120.367
-10.7553
-42.6623
-23.1154
26.3307
41.2931
-1.84614
-36.4722
-30.9438
30.3173
37.3692
-0.270458
-29.6457
-27.2303
25.6267
30.7271
0.522309
-19.0953
-24.1533
24.674
18.2948
0.279898
-9.37597
-26.4859
27.0847
7.97938
0.797834
-0.800491
-28.8998
29.4762
-0.562776
0.786889
3.08717
-30.5399
30.5858
-3.6345
0.501377
3.44135
-29.2653
28.6255
-3.17537
0.373829
-26.9895
27.1446
100.743
-25.2136
1.41086
-26.0099
-26.1919
-24.8939
363.002
-138.238
-4.58512
-94.5292
-85.7379
-90.2575
-79.6291
376.859
-147.595
-5.94969
404.771
-139.034
-19.3692
445.159
-125.853
-24.7291
-64.9616
-16.2884
2522.15
609.989
-62.2347
2034.61
287.311
288.014
954.92
705.821
688.049
591.166
630.887
169.002
74.8767
608.154
60.9808
108.028
78.5481
112.187
-96.5595
74.783
106.032
-9.37822
-28.6506
-14.03
14.1881
27.2276
1.2649
-32.2873
-17.6545
18.68
30.1241
1.13763
-28.5181
-21.6405
22.7
26.4917
0.96692
-14.6779
-26.5621
27.6571
14.2149
-0.631946
-5.87759
-27.6523
27.2336
6.44282
-0.14649
1.76052
-25.6518
24.9426
-1.27827
0.226954
2.42788
-22.874
22.4106
-1.58616
-0.378322
2.09753
-21.504
21.1958
-1.82569
0.0363448
-20.2495
23.5697
80.6255
-25.1115
-1.42463
-19.5157
-19.3716
-18.5222
320.433
-144.031
-12.9465
-80.1867
-79.5219
-72.2322
-69.7529
333.564
-154.863
-5.86297
348.622
-146.722
-7.37054
376.403
-130.098
-23.5362
-67.867
-23.0404
109.596
457.986
2520.94
-76.5816
668.616
-195.128
-180.723
714.06
95.9018
-255.07
636.033
69.2011
-49.4257
629.408
-44.1151
-71.0637
-51.3746
-60.3456
-109.919
-15.8801
88.4482
-12.0746
-27.4986
-16.3099
20.2799
24.5224
-0.9939
-27.9153
-28.0525
30.1961
27.7502
-1.9785
-25.3723
-34.7244
35.3968
25.4531
-0.753199
-18.2961
-33.5055
31.924
19.452
0.425616
-10.0359
-26.6231
25.5672
10.8943
0.197548
-2.00902
-22.2673
20.9895
3.1789
0.107984
-0.294552
-18.2379
17.9327
0.586486
0.0132848
2.01898
-18.1203
18.584
-2.21644
-0.266197
-20.6632
26.7347
87.9397
-29.8177
-4.11048
-21.394
-19.0486
-19.6404
340.381
-148.026
-6.2628
-86.4327
-89.6386
-73.9308
-80.1207
343.854
-160.537
2.20151
341.388
-151.399
7.14282
343.464
-127.016
-5.15711
-57.0868
-21.7354
-1677.2
-566.584
-1373.07
-527.908
-138.436
-342.237
-117.579
416.006
-112.275
19.6685
474.445
24.3399
239.191
459.185
-49.2991
55.9801
96.8827
-42.8175
-46.7366
20.805
-34.3375
22.6703
64.7623
45.9991
55.9831
-11.1327
49.4494
74.081
-1.35403
-21.3889
-12.0856
-21.5892
-24.217
-28.1848
37.8965
86.4369
1.90372
-26.1617
-23.0123
-24.6613
-21.9467
-60.1747
73.3204
70.9996
2.94817
-23.4913
-20.0736
-21.5818
-16.777
-68.0756
72.1788
59.984
0.525117
-16.8978
-15.3694
-15.5681
-9.67638
-80.9803
87.5415
32.6254
-1.38741
-10.1306
-8.72497
-9.26724
-3.94586
-83.9147
85.3424
15.6807
-1.14571
-4.39501
-3.49796
-4.12393
0.150964
-86.7569
92.8217
-2.03611
-2.5741
-0.97134
0.229438
-0.863665
3.41588
-91.9113
97.7538
-14.5077
-3.71663
2.73754
3.452
2.77642
381.642
-106.335
-13.3624
32.1076
27.066
29.6662
24.251
-98.6866
-102.969
-82.5361
-90.8437
385.869
-150.766
-1.48626
376.411
-155.164
4.08482
353.221
-138.052
9.84337
327.732
-106.183
4.65661
-40.2211
-13.5421
-84.1399
-853.931
-2271.74
-133.529
-375.067
286.019
-100.809
205.471
177.815
-98.0009
384.914
86.7225
29.7683
336.12
-4.70442
-26.6442
150.932
2.36361
98.4191
374.017
-3.42287
-93.6494
-154.875
-95.8981
-151.235
146.366
138.945
13.7307
-66.6214
-42.762
-55.5944
-35.6451
237.941
207.679
1.69098
-64.4671
-90.2624
-60.9645
-85.251
295.394
102.597
-5.56302
-48.2346
-35.7953
-40.768
-29.69
342.188
95.6379
-14.2741
-28.9047
-38.0335
-25.6128
-35.6062
376.477
25.44
-24.7965
-11.1885
-8.49731
-7.75275
-7.49374
406.281
6.54419
-35.7984
3.73961
-4.53511
4.53501
-4.28978
426.733
-68.4529
-23.818
17.7084
18.2224
18.2646
17.6235
431.85
-105.603
-5.84925
412.729
-141.684
10.0386
380.145
-129.363
6.78302
346.072
-106.84
2.86022
315.364
-75.298
-0.177024
-24.5839
-7.50115
935
-146.008
4032.65
488.631
-236.693
307.994
443.232
62.9467
187.924
405.496
265.944
156.706
335.042
263.995
142.579
269.561
183.643
32.7698
336.349
245.436
61.7925
350.077
133.151
-7.93378
389.804
167.615
0.337079
418.928
103.057
-29.5846
442.008
103.97
-31.4128
462.299
57.3524
-52.2036
482.094
24.2307
-37.4808
485.951
-52.3693
-19.9407
463.997
-87.6934
4.04471
405.638
-102.208
18.8823
338.286
-76.75
14.7388
297.04
-66.8338
1.23995
276.053
-48.4341
-5.87661
-17.8122
-7.59893
113.878
-1669.78
275.569
551.986
-726.178
51.3771
629.807
-217.882
203.008
747.115
24.6826
123.953
516.57
172.079
322.461
443.192
129.096
127.925
385.827
171.764
131.038
419.246
71.5229
28.2096
448.038
105.547
33.2754
487.511
68.9886
-5.40372
506.199
91.5262
-6.24357
524.694
71.1702
-32.3136
519.309
46.3982
-16.7821
492.235
-30.6911
5.39525
441.772
-70.1221
32.8916
374.773
-67.8517
32.6433
315.843
-40.6637
22.8435
279.301
-38.2591
7.96809
260.892
-28.6033
-1.4218
-12.7912
-5.58313
504.897
140.479
-2451.27
12.4869
157.939
-391.707
9.48454
47.2231
-262.103
52.0101
59.4825
-77.3256
159.264
34.4644
30.3608
257.22
17.8806
13.2592
369.098
8.05826
51.8272
453.604
-23.0889
10.1059
515.642
-7.14644
50.6561
569.696
-14.4959
29.4309
601.838
17.0113
42.3721
618.821
25.4581
28.7299
583.115
49.3393
32.7646
496.641
18.1376
37.6452
387.809
-8.7389
47.4487
317.501
-22.1829
24.6385
275.546
-13.0503
14.3426
244.817
-15.7744
8.24425
224.672
-15.264
6.80515
-5.68404
-4.49779
-494.945
-22.7307
1849.98
-376.083
496.922
-457.846
219.989
270.334
-819.182
351.073
120.667
-192.268
410.528
103.61
-128.6
511.419
22.1343
-105.145
520.526
26.1254
-27.174
578.427
-28.9779
-52.0129
592.662
-18.8638
-2.51719
640.655
-37.6299
-24.8593
680.747
-15.122
-7.95863
732.044
-9.93832
-15.9006
739.616
35.4429
6.32452
674.271
51.6741
31.8081
530.079
71.6939
63.7587
418.123
54.1981
35.5756
356.703
39.9053
8.46488
310.095
17.0293
13.804
259.357
11.5012
23.9723
11.0985
6.38305
-1156.63
-1528.8
6473.48
-888.529
88.7531
140.063
-232.675
-6.26536
-379.254
-48.609
-5.44965
-57.9494
162.614
7.31813
-114.931
255.3
-12.4042
-58.1481
313.745
-26.5084
-5.81115
367.995
-64.1213
-19.106
382.013
-58.8818
26
408.558
-61.4705
-2.70468
418.942
-29.3575
3.85105
436.175
-10.7952
-16.3755
443.107
18.212
10.2985
438.877
45.4569
10.4472
427.948
78.6889
3.93473
427.535
78.9552
-24.3443
444.653
67.1434
-44.3569
470.458
30.1462
-38.922
463.352
13.0501
5.55769
0.874514
19.972
-864.909
516.141
-125.99
-650.166
210.901
-343.157
228.763
-23.3114
348.728
-112.647
439.72
-103.396
446.849
-33.6378
470.573
-87.8454
419.825
-8.1332
398.272
-39.9175
379.821
-10.9071
390.398
-21.3718
415.411
-6.80105
465.372
-4.50484
541.442
2.61899
658.618
-38.2209
785.288
-59.5262
883.361
-67.9273
959.132
-62.7204
-42.0577
1594.16
-1625.51
-1379.9
1626.06
-635.154
657.688
1607.31
-125.045
1108.77
1380.41
154.91
776.239
1039.14
300.41
339.774
880.017
154.841
33.6038
722.734
150.018
-75.6671
655.009
78.1064
-122.582
593.32
55.4424
-99.8038
571.327
21.2408
-91.7915
560.749
-4.12985
-39.267
568.61
-17.6539
-27.6398
580.124
-29.4289
11.1705
599.979
-32.4014
14.4553
618.726
-35.0584
33.5455
641.81
-33.0369
28.6731
664.831
-33.7937
32.0617
688.273
-31.936
20.2372
710.038
-30.1803
13.2371
-24.5954
9.9751
21.65
-1447.71
706.232
19.2541
-783.303
-699.058
124.116
-111.345
-750.739
248.629
82.436
-165.928
390.064
205.924
-145.315
410.549
142.8
-12.1242
438.004
125.186
0.145972
426.893
95.663
-18.8785
434.874
43.8959
15.8892
429.48
33.3755
-4.47374
427.806
-2.69025
29.0586
418.187
-2.3033
12.4522
409.438
-20.9942
34.155
399.807
-17.8673
21.0666
393.843
-25.8787
27.2557
391.838
-26.3092
15.9555
394.041
-32.8689
15.2979
400.699
-33.4546
7.18912
410.618
-35.7085
7.28879
-27.5853
-1.0037
208.709
-264.207
1376.36
545.298
-811.314
-488.25
394.701
126.329
-666.704
424.677
94.8736
-66.5298
468.106
194.969
-88.5877
416.418
187.7
35.2678
425.822
111.188
39.3141
389.706
129.453
20.2761
383.979
43.6445
38.3044
354.579
64.0262
15.5348
338.423
10.4146
28.5173
316.71
20.4194
12.7627
306.789
-13.3381
22.0338
298.017
-8.32112
9.60059
298.09
-26.5699
14.6702
299.489
-26.5324
7.18116
305.065
-38.6646
10.7477
311.634
-38.0742
4.06227
320.128
-42.6987
2.19865
-31.0794
-7.42576
1819.63
293.557
2091.83
661.845
-12.8151
642.293
341.658
277.745
100.521
288.488
168.093
-13.9072
342.096
167.212
-32.2739
291.414
219.431
48.6711
334.08
72.5608
29.5459
293.644
168.403
25.608
297.746
40.7613
26.5414
259.978
105.29
4.03233
252.775
16.5552
8.85966
234.469
41.7777
-5.39658
237.759
-17.9881
4.58834
238.658
-7.98795
1.23709
248.968
-38.2153
9.46426
257.579
-35.2337
7.45114
267.477
-49.3112
10.4566
275.858
-45.7093
7.43845
284.749
-51.2157
6.1367
-35.1403
-4.91266
591.155
-156.874
-1180.86
156.292
251.748
469.133
584.106
76.4889
163.729
451.837
198.749
72.7039
518.416
71.6986
50.5923
457.849
258.303
-0.513614
465.061
52.877
38.4874
419.249
213.452
12.6351
385.628
70.0559
28.8338
332.976
159.962
4.51716
298.564
47.7404
11.0133
267.699
73.1105
-4.71268
256.376
-9.04706
2.89899
251.582
-1.82121
-2.12668
255.893
-43.8755
5.94233
260.009
-39.6621
3.3024
264.871
-55.2989
7.32355
268.1
-48.5903
5.32441
270.61
-53.4755
5.73985
-35.1295
-7.47761
542.251
718.456
68.2668
690.476
419.415
-309.841
698.627
83.3411
-84.4051
622.03
257.816
36.4457
526.36
153.412
-13.5714
432.744
341.874
-18.9751
438.545
46.8004
12.3344
366.929
284.356
-7.26861
344.871
89.4278
10.8154
296.216
211.904
-14.0375
274.085
66.5152
12.2035
252.91
95.5837
2.78448
248.429
-2.72562
13.9851
245.766
3.35872
4.23091
247.899
-47.929
2.89632
252.796
-45.6514
-0.24621
255.346
-59.2759
1.11539
257.452
-51.4095
0.738851
255.769
-52.325
4.84819
-32.1817
-9.02756
1167.08
1452.68
1294.34
1046.28
74.2686
562.911
942.802
-165.435
387.931
1017.61
134.232
219.939
884.281
217.181
240.966
704.873
512.87
85.1977
530.65
73.171
76.869
31.9128
68.6704
27.477
396.129
94.52
52.7134
108.184
99.0881
109.041
309.521
60.662
41.9564
25.5171
55.5697
23.7061
256.461
64.7358
10.3457
68.4992
64.2351
66.0193
236.952
36.0624
20.4418
8.92166
32.252
7.85481
236.838
26.2066
13.5205
21.6681
26.2977
21.8151
248.383
5.1256
12.3861
-13.1458
5.48065
-11.3255
260.688
-1.92436
9.4148
-8.07008
0.857369
-4.35017
270.678
-59.7001
6.65672
276.212
-53.4172
2.72613
277.118
-62.9272
4.51749
274.987
-50.5941
2.56825
265.4
-45.0598
8.73832
-24.0078
-7.95907
1254.81
-293.793
720.426
1335.86
-479.956
405.304
1054.24
-25.4994
10.6911
929.389
242.453
-148.876
675.557
424.924
13.7047
133.957
164.362
-7.29862
127.178
116.245
108.518
185.261
168.314
188.072
-21.8944
107.561
104.599
16.8618
-30.7135
-75.4086
77.308
90.555
32.7792
-15.9837
-78.0393
62.1596
76.2153
16.31
3.31097
-43.2549
50.071
58.3101
-3.70134
1.37233
-55.995
54.784
38.7294
-2.8283
5.13736
-50.9106
60.2487
17.2241
-5.49288
2.94927
-67.6871
71.5785
1.26143
-2.9765
-0.143337
-70.5916
77.3231
-9.17678
0.664231
310.213
-14.9305
4.56187
-78.6494
-81.1891
-69.9733
-72.3836
-23.5787
-11.8779
-19.5814
321.619
-66.6135
5.26412
323.163
-67.5126
5.85297
319.277
-50.3414
7.08861
302.069
-32.0917
14.5737
-11.8328
-1.84824
782.162
-279.864
-2075.16
754.738
52.5824
-87.8973
633.395
303.069
-549.845
547.185
420.687
-278.136
124.263
548.842
-291.232
122.17
110.233
107.864
57.437
134.255
157.913
-60.9803
2.67414
-33.9329
-35.072
32.0815
38.1184
-3.86902
-3.83607
-21.909
-24.8535
19.5872
26.1199
4.89136
-3.63935
-17.1166
-22.4308
16.8072
22.8242
3.55533
-0.696692
-13.855
-15.8611
14.4049
15.525
0.482919
0.221652
-17.0557
-10.3744
18.2504
9.44975
-0.49179
1.06055
-19.1863
-3.95154
20.2129
3.05546
-1.19101
0.0737548
-21.7733
-0.108032
22.4421
-0.539303
-0.0952721
-0.00494934
-22.123
2.26307
22.7049
-2.97032
0.130296
-22.7683
0.333442
91.5874
-18.1922
0.671516
-22.9534
-21.7065
-21.9023
337.333
-75.0409
1.07173
-87.8021
-86.4971
-78.6672
-77.8131
340.112
-71.9266
2.66047
342.256
-53.9808
-3.84864
334.311
-25.9018
4.24741
-2.29765
-6.25887
-518.032
-769.52
-500.96
-320.797
214.105
130.866
-179.921
540.709
502.08
-229.636
515.406
124.616
3.78733
516.741
-19.2548
-59.2711
-1.35021
-54.1131
15.2875
-151.287
24.5949
131.784
-16.5928
5.96977
-43.5627
-17.5963
20.4602
41.0138
-6.28478
-2.18606
-32.2486
-21.2263
20.5098
32.4966
2.65458
-1.79353
-23.2389
-19.0928
18.9292
23.201
1.99514
-1.11737
-13.7745
-19.3461
19.7541
13.2423
1.24157
-1.57604
-7.13173
-21.4055
21.9532
6.61202
1.54806
-1.54429
-1.73115
-23.5134
23.7515
1.68022
1.35712
-1.13994
0.908314
-24.4227
24.3167
-0.843156
1.18075
-0.541042
2.84185
-23.4732
23.1789
-2.58561
0.57907
-21.9632
-1.92031
19.2683
82.6902
-18.583
2.08742
-20.7872
-20.9261
-19.866
290.892
-82.241
-7.57289
-78.6
-68.7116
-70.9167
-62.4762
302.45
-78.3993
-11.0347
317.455
-65.9376
-22.4171
325.187
-36.2499
-22.1131
-2.42775
-20.2602
314.742
606.763
782.712
-73.7942
747.837
142.818
335.719
833.834
-14.5888
197.198
675.862
147.066
33.4441
591.173
23.1839
59.2899
23.5885
44.2394
4.6949
-110.32
37.3279
110.024
-8.28334
-4.86334
-28.4515
-10.0452
11.8793
27.0208
4.45986
-3.01652
-28.708
-15.9229
16.8797
27.45
3.31776
-1.7701
-22.0717
-19.1304
19.7607
21.4006
1.81094
0.260197
-12.3003
-20.7847
20.9489
12.0022
-0.126237
-0.636169
-5.58719
-20.3671
20.1612
5.51935
0.909917
-0.0768216
-1.38472
-19.41
19.2035
1.66732
0.000739318
0.934443
-0.339928
-17.973
17.5494
0.665098
-0.83599
-0.253411
1.70228
-16.5636
16.4065
-1.60267
0.310908
-15.7953
1.9078
17.3627
60.7874
-18.0235
-2.01269
-14.9669
-15.0389
-14.2206
226.068
-90.172
-16.3743
-58.8501
-55.3902
-52.3049
-48.1638
239.4
-87.9024
-9.69215
259.24
-78.0256
-15.1215
275.796
-49.5624
-26.7804
-7.35566
-29.2111
-492.212
-413.161
1475.05
-654.293
933.189
-218.398
-404.502
772.424
-92.4805
-378.837
641.812
77.5873
-74.7196
555.617
-84.8766
-74.4788
-78.7909
-74.5292
9.27864
-97.7774
-38.6626
60.3224
-7.88065
0.799752
-23.4166
-9.08462
12.5137
19.9115
-0.723702
2.59179
-24.5678
-16.8393
17.5747
23.4863
-2.24573
0.670742
-19.7814
-19.0452
19.3177
19.1871
-0.348859
-1.37451
-12.9525
-18.1708
17.6956
13.413
1.38922
-0.281888
-7.11976
-16.0043
15.4992
7.66124
0.245516
-0.0854701
-3.00625
-13.5991
13.2356
3.44857
0.00665706
0.214667
-1.16032
-12.8167
12.8577
1.19092
-0.286233
0.771158
1.70636
-13.1966
13.447
-1.87052
-0.857415
-13.8499
5.38925
19.3686
56.9275
-22.6659
-5.41554
-13.9295
-12.9274
-12.8971
206.903
-95.9328
-8.09196
-54.0616
-54.8036
-45.4676
-44.9801
216.235
-95.3339
0.301247
225.199
-81.4475
1.60085
232.017
-50.8732
-10.6643
-8.76788
-28.4058
-1123.51
-793.275
521.335
-517.049
285.81
-301.324
-290.985
588.28
-154.194
-144.343
462.489
57.0208
94.9694
368.719
-101.714
14.4701
28.7877
-53.1709
-14.2362
24.627
-9.13943
22.5627
22.8989
3.74692
11.6048
-14.3174
-5.2669
10.8206
76.0985
4.9398
-21.3931
-14.9432
-21.4682
-19.4666
-3.66756
8.85411
7.066
61.4584
5.01551
-20.412
-19.0214
-19.8264
-15.8536
-3.82337
-29.6708
37.0872
57.5687
4.11922
-17.2627
-15.3911
-16.7737
-12.0262
-0.242208
-29.924
35.3528
42.6858
0.0159137
-12.3051
-11.6248
-11.9323
-6.81601
2.14085
-43.7188
47.7973
24.4911
-2.3288
-7.50537
-6.65801
-7.40228
-2.77555
2.54355
-44.3438
48.0935
9.72865
-3.35245
-3.54843
-2.78088
-3.5646
0.317859
4.24579
-50.6699
55.6763
-3.50228
-4.8107
-0.725635
0.257078
-0.788523
3.1737
5.29143
-53.6667
57.9588
-14.3851
-6.20585
2.46479
3.05245
2.31657
207.938
-81.3267
-12.9799
24.7758
18.653
22.0253
15.7805
-56.6791
-59.2719
-45.5934
-46.6837
215.374
-104.69
-0.164406
213.318
-94.1335
4.94065
207.621
-73.9475
8.04041
199.821
-38.1464
-0.270151
-5.37074
-19.7189
-75.2012
-581.131
3413.55
-427.689
192.06
732.257
-385.898
415.071
309.234
-237.323
305.806
94.8301
-71.4316
240.208
-42.0845
-141.629
60.0014
41.3472
-3.07981
330.014
-8.68956
-91.3373
-140.257
-94.5999
-137.102
33.5899
78.0154
13.4696
-38.4456
-23.1167
-31.8459
-21.0157
115.064
177.221
5.08996
-55.2022
-76.9988
-55.2393
-74.654
152.77
66.8373
-8.43308
-31.3451
-22.0544
-27.7217
-20.5514
187.325
74.4253
-15.4289
-22.1144
-31.9608
-22.0727
-31.6774
202.068
9.5551
-31.3913
-3.37137
-5.7697
-2.8992
-5.6636
214.946
-20.0376
-33.4847
5.89605
-2.85003
5.36398
-3.56408
219.437
-75.128
-19.7184
18.0838
16.1307
17.4142
14.9096
223.966
-88.893
-2.81244
221.073
-103.691
11.9321
206.884
-79.6662
6.50497
190.425
-57.2576
2.62928
178.819
-25.1473
-1.56982
-1.24928
-13.4556
-508.766
-605.777
2250.85
-256.617
506.123
-258.218
57.0231
402.665
-113.31
85.847
345.438
88.25
148.033
242.379
78.2229
96.568
139.498
4.73776
209.117
223.138
56.1197
200.824
101.23
-22.8549
230.906
145.247
2.22928
238.407
67.5013
-37.7495
246.582
68.1197
-33.2819
247.947
11.6912
-55.7048
248.356
-22.7527
-35.1749
245.097
-76.0185
-15.7913
236.57
-81.4833
5.16249
211.443
-79.6013
19.9201
180.722
-48.0883
13.8816
160.791
-36.6493
0.562381
151.737
-17.2494
-4.71961
-1.73387
-12.3452
-1084.73
-832.049
-166.548
-436.419
2.4981
-93.3083
61.8541
-4.89137
112.291
178.607
189.494
163.144
203.301
240.688
299.459
201.485
166.348
102.891
229.297
199.311
127.052
253.063
92.0405
13.6333
275.99
120.682
34.9125
290.137
62.1677
-14.2177
292.69
68.4779
-9.1551
288.236
19.3333
-35.5013
270.936
-10.8035
-11.4316
252.954
-59.5492
6.90759
234.139
-62.2536
32.4769
202.38
-47.8836
32.6849
172.445
-19.2764
23.967
152.286
-16.1634
7.64087
142.478
-8.07931
-0.78338
-0.665934
-10.6507
170.968
-110.43
-565.094
-77.9439
279.552
-419.85
-70.7213
77.4857
-351.703
-86.5502
157.692
-29.6945
67.9682
114.441
2.08923
128.529
108.173
10.8728
231.47
92.4102
55.7876
287.596
43.1407
2.88015
338.665
68.375
51.8943
369.791
42.8288
17.6436
382.788
64.0169
33.8364
377.728
42.2119
10.9112
333.019
34.0018
32.6682
272.426
-4.44201
43.1304
214.246
-9.04463
52.4204
172.898
-9.81169
27.9147
148.242
2.75047
16.9717
129.079
2.10782
9.13526
117.36
3.09685
7.34881
4.58496
-10.9818
272.111
-791.586
1278.04
252.851
303.743
-462.779
177.09
271.753
-937.688
262.287
152.974
-272.747
281.637
135.027
-168.537
348.653
66.5712
-130.559
353.061
80.4688
-19.6409
392.442
17.7719
-66.0248
399.868
52.677
5.75451
425.402
25.196
-32.7604
437.123
52.4823
-8.14484
445.974
40.3662
-22.9061
419.941
55.7214
10.6385
360.008
49.5897
37.7088
281.873
55.097
77.7523
226.083
42.0439
39.51
192.556
33.2599
11.4827
168.394
25.7679
14.3055
143.37
27.5252
24.5683
22.3791
-3.70238
-1231.22
-354.695
4150.89
-690.304
348.95
-446.057
-291.296
29.7557
-536.265
-86.3887
-4.52096
-105.362
78.4929
9.28948
-154.076
139.576
9.42782
-62.0877
183.105
18.3811
12.7473
216.529
-4.11608
-30.6423
241.05
28.6795
25.477
262.8
21.9717
-21.2303
271.946
49.3661
-2.17896
273.251
47.8218
-25.1361
269.083
63.7072
6.48065
263.346
63.5263
2.2479
257.796
68.9321
-4.35086
255.469
51.1083
-31.0811
256.066
28.0719
-39.7658
259.941
15.3629
-32.3918
254.697
22.6658
15.6604
28.9346
14.9261
1130.01
792.617
512.821
315.973
226.723
-27.3029
181.365
17.5259
164.194
-86.1861
160.343
-90.1178
144.52
0.566194
144.47
-91.911
165.68
-0.664221
192.116
-44.382
228.315
2.26
261.74
-6.97503
299.928
18.7187
352
6.94914
415.004
8.54692
469.812
-41.9196
504.42
-66.0624
519.2
-67.3451
536.104
-56.9581
-34.1167
759.667
-217.218
-2828.13
833.95
16.9924
566.413
1191.42
131.208
620.097
1159.73
222.122
585.8
943.078
270.451
285.977
823.637
119.273
33.7722
671.819
115.003
-38.8521
592.203
45.8989
-88.8655
515.83
29.8822
-53.3129
478.678
5.31026
-59.9493
464.501
-15.6813
-9.40921
467.3
-20.1868
-10.2519
480.207
-26.6557
24.9187
499.384
-24.5157
19.7949
520.765
-24.3684
36.533
545.324
-21.0986
25.2118
570.692
-21.7009
28.3954
593.536
-20.1315
17.5242
613.341
-19.9679
13.4008
-16.7237
10.7187
181.913
-587.522
1783.16
240.045
-630.183
-110.015
115.475
-195.075
-299.886
234.031
56.1433
-118.505
298.226
170.349
-109.409
310.117
110.966
-15.708
338.039
96.1726
-8.94613
313.639
71.6235
-20.2023
322.36
25.7801
11.2695
304.198
26.466
-7.46689
302.308
-5.81461
21.0811
287.75
4.4812
2.34226
285.695
-12.6932
22.2485
280.414
-6.55103
8.38238
282.945
-14.2199
14.577
285.429
-13.6671
6.03942
291.916
-19.7507
6.86089
299.212
-19.9845
-0.253879
307.291
-22.1428
1.38417
-16.7566
-7.95362
2275.9
356.119
924.632
1666.58
-458.407
-50.6998
622.835
186.008
-4.04608
437.525
83.4569
91.4663
370.115
183.889
-34.7174
316.559
164.586
35.2034
330.764
90.6288
30.653
287
118.999
16.6638
285.332
35.8765
29.8763
249.868
68.329
9.13627
238.771
13.0827
20.7165
215.605
32.5156
7.89492
210.098
1.43065
13.4168
201.233
7.31625
4.5983
203.961
-12.5384
10.2599
204.566
-10.9523
3.86159
210.486
-21.8801
6.95742
215.187
-20.7695
0.145958
220.252
-25.6406
0.631345
-17.5237
-11.1002
1105.32
986.759
2402.26
466.719
207.111
615.377
280.064
222.81
250.374
210.646
129.463
9.50426
241.562
147.124
-26.4247
197.489
205.007
52.323
244.913
61.4077
11.3434
197.98
170.594
20.9466
210.734
36.082
13.5817
170.506
112.235
0.35343
169.495
17.2249
5.72853
149.477
53.927
-6.78962
153.916
-2.75807
4.33791
151.53
10.7566
0.183142
160.338
-18.9512
7.06886
165.384
-13.0866
4.5391
173.246
-26.6224
7.33759
178.909
-22.5856
3.59165
185.043
-29.3933
3.75493
-18.0373
-9.71707
-951.277
560.795
-1096.46
-354.99
96.1914
-16.2348
216.952
-214.174
28.7705
241.79
104.878
72.4509
380.525
43.402
15.5798
314.121
258.634
12.2634
341.069
46.5703
26.3768
286.394
230.216
7.68795
266.158
63.5213
21.6298
215.906
166.219
0.786084
194.016
41.1452
8.98228
166.65
80.1515
-3.57101
161.132
3.55204
2.10717
154.957
15.5002
-0.695795
159.28
-22.4563
5.12493
160.788
-13.7863
2.49409
164.789
-28.687
5.38726
166.566
-21.6967
2.65828
168.71
-29.6274
3.83
-16.9226
-11.4404
808.484
1063.13
531.287
911.263
-104.283
-212.146
632.024
-129.234
109.894
520.243
150.924
102.18
386.171
120.091
43.8126
279.524
345.821
0.483959
301.663
36.9939
-0.227953
220.003
308.878
-4.27066
212.101
75.9335
6.30515
165.85
211.762
-13.3289
158.571
51.9792
8.64846
143.435
98.2036
-0.131827
146.638
4.98271
9.352
144.912
20.2474
1.20907
147.857
-25.0851
2.58049
150.992
-17.2021
0.0347638
152.637
-30.5668
1.34962
153.647
-22.4174
0.450215
153.033
-27.8021
3.63675
-14.7301
-12.3509
638.11
661.386
4601.98
742.955
-422.18
775.963
712.076
-276.015
565.591
747.584
147.45
187.903
617.683
252.191
238.768
444.7
541.2
62.8018
334.359
60.1937
69.772
22.0287
52.9442
19.2657
233.485
104.574
34.7214
109.581
106.103
107.485
187.827
49.0432
30.5163
20.4522
44.5183
19.0182
151.075
63.6162
6.10561
63.5392
63.5105
62.088
145.674
27.8184
12.2634
6.16442
25.4053
6.16975
144.971
27.3638
8.83283
23.0418
28.7528
24.4363
154.955
6.54041
9.38633
-8.89623
7.07826
-6.724
161.52
5.41686
6.06373
0.667628
8.34313
2.60557
168.428
-30.3485
5.01223
169.725
-18.8198
3.0475
167.491
-28.6962
4.88024
163.487
-17.2202
1.37547
156.248
-19.0139
7.18912
-7.76557
-12.0358
2084.75
-680.116
508.764
1566.39
-293.181
794.663
1010.66
34.1588
256.248
738.98
303.764
-33.506
440.994
473.348
90.5345
70.067
176.604
-7.2756
64.0232
56.2516
50.497
194.416
177.171
193.141
-23.7421
46.5509
90.6131
16.8389
-29.6612
-21.6445
34.1927
95.2734
26.4138
-14.3285
-42.6471
34.0679
61.9232
10.0277
3.79361
-21.696
30.3324
54.417
-3.23079
3.32351
-37.5865
36.9546
29.4382
-4.31134
5.28894
-32.75
40.8577
18.4899
-4.52267
2.79379
-46.9286
48.7328
4.56504
-2.62264
-0.843228
-46.6721
52.3432
-0.161612
0.750522
199.425
-5.78073
3.97183
-52.8967
-54.829
-43.7325
-45.1917
-13.8607
-2.75133
-10.1406
205.005
-23.9594
4.82396
200.318
-23.8961
5.73983
192.673
-9.44585
6.95909
177.649
-2.66188
13.2454
4.64276
-8.0185
964.807
-303.152
-2057.29
968.614
339.023
-723.909
656.096
450.399
-653.566
488.411
464.41
-271.097
80.5247
560.512
-193.341
83.5114
68.2713
71.0481
57.2052
79.4414
169.057
-48.5752
1.72518
-31.3016
-19.6856
15.7478
35.8181
-2.30385
-5.73332
-7.68857
-23.334
7.71027
23.6373
5.40836
-2.99177
-10.6287
-18.7688
11.0193
18.8984
2.4716
-0.14714
-9.45677
-13.3668
10.3397
12.6842
-0.0531777
0.839114
-13.065
-8.18132
13.9022
7.50877
-1.00381
1.29559
-13.7565
-3.95127
14.5299
3.12615
-1.24385
0.265929
-15.5638
-1.37487
16.0663
0.823107
-0.216718
-0.206048
-15.6198
0.368734
16.2263
-1.11022
0.341111
-16.2653
-0.669351
64.5063
-8.3283
1.57133
-16.4032
-15.0455
-15.1467
221.438
-27.4801
1.41518
-60.3191
-59.3795
-49.8545
-48.7076
219.007
-21.8186
3.01386
213.939
-6.7765
-1.45001
200.389
10.7678
4.36759
16.7221
-11.801
-110.116
-119.497
2640.3
-271.033
386.054
244.752
-202.904
625.936
258.414
-246.595
554.73
77.9874
-22.8621
536.962
-63.0762
-61.6988
-32.4613
-62.2022
10.9632
-158.661
-0.406271
135.855
-10.6122
4.77243
-41.2743
-10.0942
12.1903
38.9255
-4.51976
-3.143
-26.6613
-12.8867
12.7639
26.8653
3.06182
-2.05666
-18.4522
-13.2736
13.5502
18.3064
1.92588
-1.21891
-11.3477
-14.3942
14.7547
11.1649