/*--------------------------------*- C++ -*----------------------------------*\
  =========                 |
  \\      /  F ield         | OpenFOAM: The Open Source CFD Toolbox
   \\    /   O peration     | Website:  https://openfoam.org
    \\  /    A nd           | Version:  10
     \\/     M anipulation  |
\*---------------------------------------------------------------------------*/
FoamFile
{
    format      ascii;
    class       volScalarField;
    location    "4.9";
    object      turbidity;
}
// * * * * * * * * * * * * * * * * * * * * * * * * * * * * * * * * * * * * * //

dimensions      [0 0 0 0 0 0 0];

internalField   nonuniform List<scalar> 
12920
(
-0.0363353
-0.0605334
-0.0764809
-0.0977787
-0.12189
-0.132826
-0.130029
-0.130364
-0.1425
-0.16423
-0.197838
-0.235417
-0.276704
-0.313235
-0.344685
-0.372514
-0.397222
-0.418667
-0.436967
-0.452712
-0.0423215
-0.0576026
-0.0694161
-0.11514
-0.135728
-0.16234
-0.177548
-0.193428
-0.215501
-0.242008
-0.271848
-0.301723
-0.332727
-0.365524
-0.400848
-0.43647
-0.469734
-0.498021
-0.520218
-0.53531
-0.0792949
-0.0535374
-0.0604494
-0.119642
-0.146714
-0.181207
-0.210515
-0.235037
-0.264764
-0.294852
-0.330149
-0.363923
-0.398791
-0.431519
-0.462609
-0.490857
-0.516237
-0.538561
-0.556816
-0.567012
-0.0820178
-0.0697848
-0.0684475
-0.118451
-0.161606
-0.202932
-0.237739
-0.272887
-0.309971
-0.352007
-0.389301
-0.42309
-0.44852
-0.469733
-0.485335
-0.500781
-0.516445
-0.53524
-0.556093
-0.577306
-0.0438872
-0.0438138
-0.0623548
-0.0960441
-0.135152
-0.171248
-0.199216
-0.230361
-0.257424
-0.292762
-0.327145
-0.360645
-0.389064
-0.410215
-0.423363
-0.436386
-0.451349
-0.473095
-0.501319
-0.534958
-0.0156419
-0.0606225
-0.0819026
-0.104144
-0.127562
-0.151319
-0.177565
-0.201496
-0.227457
-0.254006
-0.28891
-0.324931
-0.346148
-0.356531
-0.357862
-0.363407
-0.37548
-0.397883
-0.430545
-0.474142
-0.0135741
-0.0516885
-0.0701325
-0.0887146
-0.108609
-0.137444
-0.168511
-0.205753
-0.246449
-0.286547
-0.312164
-0.31674
-0.28992
-0.270864
-0.261113
-0.267842
-0.283391
-0.308288
-0.342586
-0.390142
-0.0143671
-0.0350491
-0.0574033
-0.0784579
-0.10101
-0.12634
-0.131932
-0.151758
-0.191261
-0.226832
-0.237443
-0.195481
-0.158511
-0.133414
-0.139191
-0.172513
-0.204982
-0.235591
-0.266052
-0.300273
-0.0455916
-0.0532401
-0.0653922
-0.0872505
-0.112288
-0.121281
-0.127474
-0.135603
-0.161931
-0.183609
-0.183243
-0.152854
-0.119472
-0.0982938
-0.101222
-0.161787
-0.202862
-0.232996
-0.257662
-0.279923
-0.0226505
-0.0420906
-0.0808359
-0.146296
-0.188269
-0.151504
-0.13725
-0.138708
-0.148403
-0.149388
-0.129025
-0.108145
-0.0999763
-0.0953226
-0.118539
-0.199259
-0.24242
-0.265705
-0.279478
-0.291624
-0.0094289
-0.021397
-0.042073
-0.0822996
-0.119453
-0.121997
-0.130055
-0.139292
-0.1368
-0.11582
-0.10258
-0.102693
-0.10815
-0.113888
-0.160403
-0.248456
-0.299097
-0.326527
-0.330339
-0.32479
-0.0274222
-0.0533881
-0.0753814
-0.109811
-0.126484
-0.109287
-0.104671
-0.0941781
-0.0908548
-0.0919756
-0.0984873
-0.108682
-0.12755
-0.151092
-0.202716
-0.300792
-0.356595
-0.394401
-0.405485
-0.389837
-0.0823826
-0.0636596
-0.0727557
-0.100055
-0.119324
-0.141029
-0.135371
-0.12139
-0.122276
-0.12741
-0.13746
-0.152716
-0.175316
-0.202819
-0.284986
-0.342797
-0.39423
-0.438204
-0.46712
-0.466322
-0.0594336
-0.0731705
-0.080612
-0.11065
-0.140311
-0.173356
-0.183803
-0.207368
-0.217564
-0.231037
-0.239308
-0.247327
-0.259573
-0.283977
-0.320261
-0.362736
-0.410465
-0.458849
-0.500778
-0.527116
-0.0270892
-0.0490356
-0.0741246
-0.0948888
-0.119285
-0.150638
-0.181141
-0.197714
-0.206864
-0.20531
-0.205691
-0.20901
-0.226818
-0.261183
-0.304347
-0.354141
-0.410624
-0.466504
-0.512405
-0.548385
-0.0240546
-0.0420047
-0.0589466
-0.0779917
-0.101562
-0.136626
-0.169606
-0.191943
-0.205372
-0.211502
-0.215919
-0.222945
-0.245386
-0.280179
-0.323292
-0.375407
-0.434964
-0.495171
-0.546335
-0.585571
-0.0182725
-0.0398915
-0.076328
-0.109709
-0.132763
-0.150889
-0.16594
-0.179837
-0.195286
-0.210247
-0.225297
-0.242368
-0.265238
-0.298403
-0.345887
-0.404261
-0.464375
-0.520672
-0.572483
-0.614719
-0.0210135
-0.0432498
-0.0520156
-0.0748099
-0.0883447
-0.100024
-0.118652
-0.138949
-0.164308
-0.186274
-0.206693
-0.224456
-0.243526
-0.267487
-0.304774
-0.357483
-0.414969
-0.471081
-0.529197
-0.587859
-0.0308457
-0.0496524
-0.0531355
-0.079352
-0.0959547
-0.11864
-0.146373
-0.170815
-0.197472
-0.223566
-0.25003
-0.274406
-0.298372
-0.318633
-0.332252
-0.333412
-0.335854
-0.354567
-0.390484
-0.432935
-0.0726392
-0.0533177
-0.0592279
-0.0866455
-0.0980288
-0.108594
-0.125745
-0.141854
-0.171344
-0.199712
-0.231057
-0.257729
-0.282448
-0.29783
-0.302307
-0.291008
-0.280354
-0.273903
-0.275021
-0.285269
-0.025153
-0.0338463
-0.0461563
-0.043774
-0.0302709
-0.0167822
-0.011957
-0.0110163
-0.0134627
-0.0196758
-0.0299575
-0.0425686
-0.0574667
-0.0724342
-0.087182
-0.0944113
-0.0950304
-0.0875739
-0.0774587
-0.0689168
-0.0459415
-0.0161163
-0.0117489
-0.0170163
-0.0198509
-0.0235878
-0.0271846
-0.0280501
-0.0377331
-0.0457576
-0.0652445
-0.0807979
-0.100762
-0.112217
-0.118832
-0.11554
-0.109029
-0.0985929
-0.0863416
-0.0711628
-0.0738291
-0.0176008
-0.0109804
-0.0150914
-0.0162842
-0.0246765
-0.0361453
-0.0378703
-0.0504009
-0.0535776
-0.0668868
-0.0751935
-0.0888744
-0.0954792
-0.102017
-0.101343
-0.0995833
-0.0907256
-0.076566
-0.0613354
-0.00399077
-0.0219624
-0.0187617
-0.0307925
-0.0408947
-0.0529028
-0.0691558
-0.0702335
-0.0721303
-0.0624353
-0.0609599
-0.0633322
-0.0747047
-0.0885323
-0.103541
-0.114009
-0.121016
-0.121763
-0.112902
-0.0985844
-0.024249
-0.0274692
-0.0282327
-0.0261319
-0.0414394
-0.0499662
-0.0625279
-0.0666448
-0.066167
-0.0567801
-0.0514465
-0.0498511
-0.0548882
-0.0621814
-0.0735379
-0.0850623
-0.0966186
-0.105179
-0.107116
-0.10201
-0.0225686
-0.0265777
-0.0321005
-0.0350169
-0.0411959
-0.0402429
-0.0441683
-0.0388867
-0.0364574
-0.0353891
-0.0450439
-0.0514751
-0.0542182
-0.0496975
-0.0466188
-0.0492081
-0.0558428
-0.0657585
-0.076517
-0.0799463
-0.00997787
-0.0129863
-0.0208798
-0.0378998
-0.0533926
-0.055691
-0.0554681
-0.0486332
-0.0470547
-0.0464334
-0.0523595
-0.0516513
-0.0449621
-0.038859
-0.0367701
-0.036685
-0.0401504
-0.0466542
-0.0584018
-0.0675753
-0.0116481
-0.0180613
-0.0151094
-0.0196642
-0.0337089
-0.0435387
-0.05555
-0.0725704
-0.0634436
-0.0484753
-0.0419737
-0.0390835
-0.0374263
-0.0373612
-0.0324385
-0.0349619
-0.0381882
-0.0428536
-0.0503407
-0.0561773
-0.0145201
-0.0260593
-0.0172333
-0.0187882
-0.0305669
-0.0391072
-0.0457896
-0.0759728
-0.0849499
-0.0769409
-0.0761339
-0.0817534
-0.0782358
-0.0687304
-0.0508391
-0.0396795
-0.0406545
-0.0426517
-0.048908
-0.056375
-0.0187424
-0.0372793
-0.0513908
-0.0565727
-0.0732901
-0.056693
-0.048757
-0.064989
-0.0859225
-0.107523
-0.105329
-0.0922338
-0.084231
-0.0738649
-0.0516805
-0.0362864
-0.0355813
-0.0349878
-0.0363204
-0.0408565
-0.0123091
-0.0175932
-0.0275269
-0.0258772
-0.0300738
-0.0367782
-0.0567243
-0.0823185
-0.0900942
-0.0719272
-0.0594641
-0.0605647
-0.059034
-0.0560647
-0.0393643
-0.0371436
-0.0381083
-0.0364706
-0.0338983
-0.0336742
-0.016482
-0.0121878
-0.0153074
-0.0172956
-0.0173843
-0.0208505
-0.0243441
-0.0304743
-0.0420909
-0.0567444
-0.049345
-0.0598429
-0.0536941
-0.0401318
-0.0382114
-0.0483165
-0.0541379
-0.0545316
-0.0469402
-0.0413742
-0.0176383
-0.01296
-0.00925572
-0.0095144
-0.0102148
-0.0117696
-0.0190494
-0.0294628
-0.0295504
-0.0283936
-0.0299843
-0.0316881
-0.0307764
-0.033678
-0.0471365
-0.0582254
-0.0662262
-0.0714991
-0.0657258
-0.0574538
-0.0122694
-0.0304141
-0.0186621
-0.0160618
-0.0152965
-0.0191199
-0.017178
-0.0198582
-0.0161439
-0.0139641
-0.0146701
-0.0186355
-0.0267988
-0.0400423
-0.0556661
-0.0693927
-0.0693995
-0.0680957
-0.0683317
-0.0697476
-0.0190139
-0.0166638
-0.0221947
-0.0307377
-0.0439709
-0.0374229
-0.030261
-0.0179675
-0.0120601
-0.0102266
-0.0122226
-0.01935
-0.0326798
-0.0520428
-0.0722313
-0.0848028
-0.0785912
-0.0656222
-0.0612314
-0.0676234
-0.00905283
-0.0190658
-0.0372612
-0.0438947
-0.0591446
-0.0552573
-0.0496506
-0.0348282
-0.026137
-0.0198436
-0.021343
-0.0319513
-0.052389
-0.079453
-0.103198
-0.112123
-0.104753
-0.0868634
-0.0734957
-0.0730125
-0.00829051
-0.0156948
-0.0281937
-0.0360185
-0.0400552
-0.0344023
-0.0378292
-0.0395601
-0.0484542
-0.0550084
-0.0644471
-0.075816
-0.0939762
-0.110322
-0.118532
-0.113453
-0.108629
-0.102585
-0.0944503
-0.0826005
-0.00744666
-0.00758358
-0.00872744
-0.0118336
-0.0116101
-0.0107861
-0.0109205
-0.0119656
-0.0155698
-0.0215193
-0.0317471
-0.0468959
-0.0702926
-0.0951064
-0.108505
-0.098962
-0.0976399
-0.116462
-0.134248
-0.125516
-0.0415533
-0.00777404
-0.00920462
-0.00988206
-0.0093903
-0.0108229
-0.0159441
-0.0234203
-0.0355071
-0.0427953
-0.0541814
-0.0657265
-0.0773921
-0.0754922
-0.0628622
-0.0535781
-0.0561532
-0.0743494
-0.115473
-0.150399
-0.050465
-0.0287447
-0.0133196
-0.00994917
-0.0102604
-0.013845
-0.0219171
-0.0303159
-0.0384954
-0.043974
-0.049478
-0.0527761
-0.0538969
-0.0506635
-0.0450561
-0.039163
-0.0360314
-0.0363728
-0.042234
-0.0534603
-0.0030218
-0.0234298
-0.025329
-0.0191527
-0.013168
-0.00992114
-0.00869402
-0.00917099
-0.0118777
-0.0166131
-0.0226086
-0.0279481
-0.0330509
-0.0364025
-0.0387869
-0.0382414
-0.0359347
-0.0319543
-0.0278887
-0.0246211
-0.00643511
-0.00760459
-0.00947042
-0.00898815
-0.00991254
-0.0116687
-0.0139759
-0.0167342
-0.021562
-0.0254288
-0.0314535
-0.0345198
-0.0375881
-0.0354284
-0.0320255
-0.0266436
-0.0227317
-0.0194054
-0.0174923
-0.0167682
-0.00837825
-0.00590104
-0.00653653
-0.00829463
-0.00851814
-0.0103843
-0.0138067
-0.0151734
-0.0191383
-0.0206164
-0.024654
-0.0259502
-0.028585
-0.0281866
-0.0285003
-0.0269701
-0.0261502
-0.0244966
-0.0236305
-0.0241015
-0.00388404
-0.0139515
-0.0118633
-0.0127623
-0.012931
-0.0172159
-0.0227684
-0.022042
-0.0227645
-0.0217074
-0.0241656
-0.0271936
-0.0317442
-0.0356583
-0.0392776
-0.040645
-0.0408031
-0.0392034
-0.0367607
-0.0353602
-0.0118732
-0.0204461
-0.0156699
-0.0133554
-0.0170374
-0.019879
-0.0245436
-0.0244075
-0.0238488
-0.0226913
-0.0237697
-0.0264702
-0.0296129
-0.0334761
-0.0370673
-0.0401163
-0.0418074
-0.0417881
-0.0404397
-0.0392051
-0.00774161
-0.0168821
-0.0193446
-0.0177936
-0.0169997
-0.0145789
-0.0156568
-0.0156488
-0.0162722
-0.0176506
-0.0195072
-0.0209577
-0.021551
-0.0227366
-0.0243198
-0.0267865
-0.0292143
-0.0313816
-0.0328741
-0.0332252
-0.00710869
-0.0105304
-0.0142996
-0.0237408
-0.030979
-0.0245343
-0.0205936
-0.0173515
-0.0170566
-0.0172466
-0.0168313
-0.0165539
-0.0154902
-0.0157059
-0.0168593
-0.0189237
-0.0217939
-0.0251515
-0.028754
-0.031024
-0.0177044
-0.0142434
-0.00967401
-0.0106737
-0.0178127
-0.0186123
-0.0222977
-0.0230077
-0.0186823
-0.0155121
-0.0135764
-0.0121361
-0.011705
-0.0124839
-0.0134324
-0.0153963
-0.0180069
-0.021402
-0.0255731
-0.0292675
-0.00540178
-0.00879065
-0.00874169
-0.0107582
-0.0155039
-0.0175169
-0.0186084
-0.027498
-0.0234786
-0.0217514
-0.0198587
-0.0185801
-0.016839
-0.0158477
-0.0156036
-0.0155911
-0.0175507
-0.0204712
-0.0248971
-0.0295451
-0.00688985
-0.0193112
-0.0201595
-0.0218393
-0.0231662
-0.0211847
-0.0178434
-0.0240803
-0.0304917
-0.0365103
-0.0353924
-0.0315991
-0.0260033
-0.0198196
-0.0153665
-0.0144062
-0.0159108
-0.0182333
-0.0217373
-0.0262608
-0.00932159
-0.0105176
-0.0109057
-0.0115818
-0.0132077
-0.0165872
-0.022684
-0.0322958
-0.0343296
-0.0294329
-0.0241001
-0.0197643
-0.016407
-0.01489
-0.014003
-0.0161325
-0.0173516
-0.0188785
-0.0211013
-0.0243919
-0.00738104
-0.00977106
-0.0080573
-0.008553
-0.00886612
-0.00994422
-0.010927
-0.0149165
-0.019643
-0.0198142
-0.0183209
-0.0161627
-0.0134064
-0.013707
-0.0170765
-0.0208428
-0.0222479
-0.0232282
-0.0241535
-0.0258737
-0.00905348
-0.0108806
-0.00745172
-0.00615666
-0.00580281
-0.00550106
-0.00663729
-0.00858914
-0.00940954
-0.010499
-0.0109963
-0.0117471
-0.0132948
-0.0158869
-0.0209413
-0.0239277
-0.0262968
-0.0281264
-0.0289824
-0.0300599
-0.0196346
-0.010879
-0.00756395
-0.00689602
-0.00646966
-0.00651946
-0.00564241
-0.00571361
-0.00600502
-0.00709789
-0.00921781
-0.0124463
-0.0161373
-0.0201375
-0.0233116
-0.0255723
-0.0261865
-0.0278675
-0.0303177
-0.0327188
-0.0168133
-0.0130653
-0.0127743
-0.0144469
-0.0167412
-0.0121813
-0.00872957
-0.00668697
-0.006101
-0.007562
-0.0106249
-0.0155451
-0.021036
-0.0260716
-0.0288068
-0.0285793
-0.0253336
-0.0237331
-0.0251182
-0.0284386
-0.0111756
-0.0112564
-0.0176133
-0.0228412
-0.0289988
-0.0202249
-0.0155488
-0.011023
-0.00981424
-0.0115961
-0.0160339
-0.0230031
-0.0310466
-0.037469
-0.0405926
-0.0379246
-0.0316694
-0.0259299
-0.0237717
-0.0247068
-0.00266583
-0.00945375
-0.0136806
-0.0162438
-0.0152366
-0.0125397
-0.0137218
-0.0149275
-0.0191822
-0.0231804
-0.0295903
-0.0366709
-0.0454029
-0.0484379
-0.0453373
-0.0384266
-0.0331897
-0.0288814
-0.0259912
-0.0242581
-0.00265129
-0.00431121
-0.0055407
-0.00695731
-0.0067454
-0.00684208
-0.00762847
-0.00986897
-0.0139542
-0.0202418
-0.028849
-0.0379382
-0.047007
-0.0502798
-0.0464413
-0.0372796
-0.0343445
-0.0362355
-0.0371004
-0.032419
-0.0351307
-0.00544697
-0.00638442
-0.00729985
-0.00779402
-0.0100585
-0.0140913
-0.0195316
-0.0256804
-0.0308091
-0.0350303
-0.035321
-0.0338491
-0.0291963
-0.0267442
-0.0274713
-0.0319752
-0.0398992
-0.0536124
-0.0597841
-0.02515
-0.0161608
-0.00967769
-0.00716963
-0.0082525
-0.0120163
-0.0178324
-0.0219888
-0.025833
-0.0273027
-0.0282244
-0.0270509
-0.0256767
-0.0229226
-0.0215903
-0.0229856
-0.027563
-0.0353127
-0.0456413
-0.0565785
-0.00239811
-0.0111772
-0.0125386
-0.0104931
-0.00869203
-0.00741734
-0.0071936
-0.00855144
-0.0111888
-0.0141994
-0.0170013
-0.0189341
-0.0206882
-0.0211118
-0.0209745
-0.0195664
-0.0177817
-0.0157266
-0.0139008
-0.0124931
-0.00958545
-0.00923807
-0.00787644
-0.00753123
-0.00760794
-0.00878233
-0.0102343
-0.011463
-0.0128766
-0.0128296
-0.0135524
-0.0126559
-0.0126336
-0.0118482
-0.0119701
-0.0125275
-0.0138156
-0.0155004
-0.0174939
-0.019578
-0.00383625
-0.00782234
-0.00921276
-0.00843607
-0.0075387
-0.00801667
-0.0090332
-0.00947452
-0.0105427
-0.0105633
-0.0116615
-0.0118055
-0.0130087
-0.0137666
-0.0152786
-0.0167893
-0.0187454
-0.0207852
-0.0229467
-0.0248809
-0.00752171
-0.0110476
-0.0100287
-0.0104107
-0.0089632
-0.00956768
-0.010824
-0.0109492
-0.011995
-0.0124288
-0.0139784
-0.0151441
-0.0169609
-0.0182943
-0.019849
-0.0209814
-0.0222334
-0.0234708
-0.0248308
-0.0262882
-0.0143076
-0.0149749
-0.0106405
-0.00882801
-0.00915671
-0.0104231
-0.011974
-0.0123344
-0.0130568
-0.0138496
-0.0150606
-0.0165938
-0.0180284
-0.0193997
-0.0205083
-0.0212896
-0.0218137
-0.0222127
-0.0227693
-0.0237632
-0.0199588
-0.0156187
-0.0153549
-0.0101835
-0.00857998
-0.00831236
-0.00923611
-0.0103584
-0.0109835
-0.012114
-0.0127778
-0.0139912
-0.0147898
-0.0159259
-0.0167421
-0.0175025
-0.0180433
-0.0184934
-0.0189788
-0.0196204
-0.0138448
-0.00853957
-0.0148489
-0.0166931
-0.016193
-0.0109431
-0.00977251
-0.0098569
-0.00968239
-0.0103658
-0.0102822
-0.0112397
-0.0118946
-0.0132106
-0.0144697
-0.0157245
-0.0167807
-0.017526
-0.0182077
-0.0186819
-0.00645918
-0.00580226
-0.00553744
-0.00723722
-0.0101276
-0.00910815
-0.0100413
-0.0104277
-0.00931493
-0.00858033
-0.00811724
-0.00804769
-0.00849715
-0.00952024
-0.0125431
-0.0145675
-0.0164455
-0.018048
-0.0193925
-0.0203094
-0.00144382
-0.00243409
-0.00330255
-0.00526659
-0.00743163
-0.00825435
-0.00883156
-0.0106138
-0.00944106
-0.00816882
-0.00718895
-0.00695992
-0.00739528
-0.00830399
-0.00992931
-0.0140161
-0.0163793
-0.0187062
-0.0208008
-0.0221468
-0.00809584
-0.00870735
-0.00718946
-0.00823147
-0.00775609
-0.00923092
-0.00849938
-0.0102946
-0.0120385
-0.0116421
-0.00976556
-0.0084032
-0.00818788
-0.00889077
-0.0105592
-0.0144197
-0.0165142
-0.0186663
-0.0205745
-0.0217656
-0.00881567
-0.0135261
-0.0124608
-0.00783117
-0.0068725
-0.00839398
-0.0106969
-0.0135836
-0.0131893
-0.0105155
-0.00866729
-0.0078319
-0.0079383
-0.00893909
-0.011752
-0.0153793
-0.0170094
-0.0186903
-0.0202321
-0.0213136
-0.0172692
-0.0111384
-0.00826911
-0.00617374
-0.00560977
-0.00593027
-0.00632525
-0.00798768
-0.00829587
-0.00749397
-0.0070161
-0.00750579
-0.0087942
-0.0106512
-0.0137656
-0.0164611
-0.0178953
-0.0191958
-0.0203184
-0.0212348
-0.0112461
-0.00981263
-0.00654415
-0.00477773
-0.00420518
-0.00396041
-0.00441407
-0.00546026
-0.00610101
-0.00683102
-0.00768189
-0.00875889
-0.010028
-0.0115556
-0.014309
-0.016116
-0.0178412
-0.0193478
-0.0206262
-0.021843
-0.023898
-0.00696761
-0.00523
-0.00453407
-0.00425529
-0.00419488
-0.00438223
-0.00507131
-0.00615467
-0.00750839
-0.00878174
-0.0100891
-0.0111092
-0.0121685
-0.01339
-0.0147858
-0.0162916
-0.0180992
-0.0200622
-0.0220953
-0.0277862
-0.0135677
-0.00797817
-0.0080496
-0.00775423
-0.0060337
-0.00499909
-0.00534115
-0.00642166
-0.00839377
-0.010161
-0.0117863
-0.0125668
-0.0129862
-0.0131931
-0.0135529
-0.0142427
-0.0157342
-0.0177916
-0.0201264
-0.0131731
-0.0103543
-0.01066
-0.0117835
-0.0119401
-0.00785597
-0.00658543
-0.00681225
-0.00822232
-0.0107922
-0.013123
-0.0150042
-0.0160489
-0.0161872
-0.015886
-0.0149086
-0.0143876
-0.0148621
-0.0162356
-0.0180972
-0.0141126
-0.00965947
-0.00897863
-0.00902787
-0.00790751
-0.00746835
-0.00848052
-0.0102343
-0.0129529
-0.0155301
-0.0182475
-0.0194829
-0.0206082
-0.0190801
-0.0170326
-0.0154115
-0.015121
-0.0155994
-0.016652
-0.0181042
-0.00657108
-0.00658138
-0.00636686
-0.00592089
-0.00584873
-0.00685313
-0.00868272
-0.0117403
-0.0156371
-0.0191996
-0.0222899
-0.0230467
-0.023598
-0.0211869
-0.0184573
-0.0161084
-0.0161642
-0.0171372
-0.0181315
-0.0189472
-0.0141285
-0.00429365
-0.00564569
-0.00668341
-0.00811546
-0.0108062
-0.0139811
-0.0165346
-0.0185283
-0.0184511
-0.0179354
-0.016458
-0.0159751
-0.0161856
-0.0172938
-0.0191264
-0.0217132
-0.0251966
-0.030226
-0.0334568
-0.00987684
-0.00958991
-0.00536356
-0.00561822
-0.00883124
-0.0116797
-0.0145983
-0.015179
-0.0158948
-0.0150656
-0.0148489
-0.0140302
-0.01434
-0.0158009
-0.0197535
-0.0263228
-0.0347973
-0.0445438
-0.0552197
-0.0683948
-0.0047968
-0.0105622
-0.00798256
-0.00625843
-0.00506764
-0.00512018
-0.0071568
-0.0101004
-0.0122018
-0.0127654
-0.0127409
-0.0119565
-0.0114465
-0.0105688
-0.0103681
-0.0105429
-0.011602
-0.0134596
-0.0162301
-0.0197013
-0.0154108
-0.00882666
-0.00628973
-0.00601695
-0.00627832
-0.00747245
-0.00836373
-0.00894298
-0.00979643
-0.0108547
-0.0124773
-0.014386
-0.0164295
-0.0185654
-0.0204653
-0.0222792
-0.0237923
-0.0251223
-0.0261743
-0.0268832
-0.00472871
-0.0118943
-0.00921742
-0.00732831
-0.00702732
-0.00754035
-0.00828135
-0.00912715
-0.0103423
-0.0116651
-0.0130642
-0.014432
-0.0155089
-0.0164495
-0.0170989
-0.0176234
-0.0180077
-0.0183088
-0.0185753
-0.0188905
-0.0275026
-0.0114792
-0.00737421
-0.00696944
-0.00730567
-0.00815104
-0.00904964
-0.0098565
-0.0108823
-0.0118408
-0.0127814
-0.0136538
-0.0144209
-0.0151415
-0.015837
-0.0164939
-0.0171701
-0.0178047
-0.0184446
-0.0190775
-0.028522
-0.00878807
-0.00605065
-0.00660703
-0.00745344
-0.0085773
-0.0094012
-0.0101617
-0.0109224
-0.0117311
-0.0124873
-0.0132606
-0.01403
-0.0147886
-0.0156325
-0.0164673
-0.0174093
-0.0183615
-0.0193797
-0.0202758
-0.00441932
-0.00977743
-0.00687529
-0.00579338
-0.00675908
-0.00812027
-0.0087105
-0.00969561
-0.0104083
-0.0112924
-0.0120785
-0.0129286
-0.0138111
-0.0147601
-0.015836
-0.016978
-0.018188
-0.0193877
-0.0205263
-0.0214166
-0.0131064
-0.00901409
-0.0110041
-0.00788995
-0.00752869
-0.00759532
-0.00804405
-0.00915445
-0.00991628
-0.0109367
-0.0117831
-0.0127668
-0.0137506
-0.0148196
-0.0159268
-0.0171332
-0.0183151
-0.0194578
-0.0204092
-0.0211155
-0.00302708
-0.00398666
-0.00489893
-0.00535479
-0.0061842
-0.00699754
-0.00723062
-0.00878209
-0.00885732
-0.00972229
-0.0102896
-0.011173
-0.0119499
-0.0128621
-0.0151082
-0.0161285
-0.0170987
-0.0179912
-0.0186748
-0.0191383
-0.000574001
-0.00244284
-0.00380915
-0.00468053
-0.0054255
-0.00643172
-0.00687051
-0.00722107
-0.00729293
-0.00754535
-0.00845576
-0.00957265
-0.0107817
-0.0119112
-0.0128498
-0.0145675
-0.0154096
-0.0162147
-0.0168423
-0.0172228
-0.0035316
-0.00784643
-0.00640887
-0.00540055
-0.00558896
-0.00639399
-0.00658374
-0.00639828
-0.00614853
-0.00662997
-0.00788314
-0.00952923
-0.0111177
-0.0123341
-0.0128309
-0.0138669
-0.0146149
-0.0154368
-0.0161996
-0.0167794
-0.00661934
-0.024258
-0.0236593
-0.0105109
-0.00612029
-0.0059553
-0.00635183
-0.00638911
-0.00628557
-0.00680188
-0.00775678
-0.00941434
-0.0112993
-0.0127478
-0.01328
-0.014243
-0.015
-0.0159184
-0.0168799
-0.0177602
-0.0192309
-0.0185467
-0.0114792
-0.00618015
-0.0051668
-0.00527868
-0.00543911
-0.00566681
-0.00595199
-0.00675977
-0.00812568
-0.00989551
-0.0116416
-0.0128935
-0.0138655
-0.0158732
-0.0166698
-0.017638
-0.0186011
-0.0195251
-0.0196984
-0.00762567
-0.00543956
-0.00417305
-0.00414692
-0.00463373
-0.00509803
-0.00616734
-0.00708632
-0.00846274
-0.00991624
-0.0115329
-0.0129917
-0.014301
-0.0173934
-0.0185829
-0.0197455
-0.0209929
-0.0220881
-0.0230916
-0.025018
-0.00475372
-0.00391134
-0.0035601
-0.00396533
-0.00485195
-0.00585802
-0.00695579
-0.00827279
-0.00971359
-0.0114187
-0.0132249
-0.0150845
-0.0169207
-0.0186865
-0.0204783
-0.0222514
-0.0240042
-0.0256316
-0.0270445
-0.0102138
-0.00743422
-0.00518705
-0.00466507
-0.00440255
-0.00504277
-0.00591532
-0.00707162
-0.00826777
-0.00976068
-0.0114505
-0.0133996
-0.0154052
-0.0174652
-0.019468
-0.021444
-0.0233704
-0.0251429
-0.0266857
-0.0278219
-0.0160087
-0.00881393
-0.00686319
-0.0058829
-0.00554114
-0.00593303
-0.00674167
-0.0080495
-0.00913451
-0.0105746
-0.0121309
-0.0139775
-0.0159322
-0.0180202
-0.0200664
-0.0221648
-0.0241194
-0.0258261
-0.0270351
-0.0276913
-0.00952387
-0.0103833
-0.00722423
-0.00614791
-0.0064597
-0.00754679
-0.0085128
-0.0096184
-0.0106887
-0.0117294
-0.0131518
-0.0146371
-0.016539
-0.018532
-0.0208055
-0.023273
-0.0256985
-0.0279974
-0.0298725
-0.0310872
-0.0076016
-0.00531488
-0.004553
-0.00502766
-0.0064175
-0.00822628
-0.00989867
-0.0110239
-0.0120847
-0.0127915
-0.0138024
-0.0147391
-0.0160798
-0.0174301
-0.0191873
-0.0214044
-0.0238365
-0.0264524
-0.0290836
-0.0312149
-0.00640226
-0.00384715
-0.00492558
-0.00613265
-0.00788174
-0.00907421
-0.0102981
-0.0108024
-0.0118454
-0.0128362
-0.0142846
-0.0158845
-0.0175075
-0.019237
-0.0210115
-0.023098
-0.0253785
-0.0277534
-0.0300729
-0.032
-0.0019124
-0.0049712
-0.00421579
-0.00493973
-0.00740499
-0.00819208
-0.00882356
-0.00870497
-0.00944665
-0.0101804
-0.0121308
-0.0148989
-0.0187532
-0.0235461
-0.0287054
-0.0341301
-0.0398128
-0.0459623
-0.0532926
-0.0618006
-0.0360467
-0.0328904
-0.0290949
-0.0155183
-0.0139756
-0.0154182
-0.0130526
-0.0327389
-0.027983
-0.0244296
-0.0133818
-0.0116388
-0.0121786
-0.0101281
-0.0257313
-0.0218893
-0.019835
-0.014135
-0.0121586
-0.0107957
-0.00935584
-0.0206448
-0.0194465
-0.0178178
-0.0115747
-0.0100007
-0.00902214
-0.00866814
-0.131741
-0.129899
-0.134599
-0.115644
-0.129286
-0.11162
-0.130749
-0.152497
-0.136822
-0.146322
-0.135264
-0.154176
-0.136106
-0.148627
-0.178286
-0.149762
-0.155355
-0.161767
-0.170366
-0.151532
-0.153518
-0.187299
-0.154346
-0.143499
-0.170325
-0.160316
-0.151763
-0.141045
-0.162326
-0.137694
-0.118604
-0.153946
-0.134814
-0.136322
-0.122363
-0.12681
-0.113326
-0.103025
-0.129265
-0.117044
-0.118514
-0.110023
-0.102437
-0.100768
-0.0953694
-0.113517
-0.104491
-0.107936
-0.103487
-0.0903651
-0.0939936
-0.0932703
-0.10228
-0.0990295
-0.102822
-0.104696
-0.137215
-0.149908
-0.146931
-0.117178
-0.132426
-0.137457
-0.142694
-0.145849
-0.146728
-0.146905
-0.137038
-0.1473
-0.143896
-0.145261
-0.151311
-0.146219
-0.134755
-0.149563
-0.149737
-0.143972
-0.131321
-0.135338
-0.127947
-0.110747
-0.147227
-0.134449
-0.125507
-0.111915
-0.112006
-0.107264
-0.102496
-0.129535
-0.116997
-0.109372
-0.107225
-0.1014
-0.102436
-0.104267
-0.114044
-0.108121
-0.107616
-0.107273
-0.0962194
-0.104828
-0.105931
-0.10672
-0.10401
-0.106896
-0.110961
-0.0966947
-0.107053
-0.117723
-0.103958
-0.10809
-0.114139
-0.126151
-0.138157
-0.105173
-0.0982544
-0.121252
-0.133884
-0.0890235
-0.0762428
-0.138799
-0.097261
-0.0958209
-0.135914
-0.135448
-0.0746674
-0.0768475
-0.12186
-0.09526
-0.0935034
-0.132709
-0.117876
-0.0795228
-0.0902442
-0.104228
-0.0934063
-0.0960615
-0.113195
-0.105306
-0.0931227
-0.0984806
-0.101794
-0.0975675
-0.103627
-0.104454
-0.106584
-0.100175
-0.110664
-0.106924
-0.106603
-0.117992
-0.108027
-0.109037
-0.115403
-0.126601
-0.11165
-0.122192
-0.136311
-0.109596
-0.117301
-0.128991
-0.133877
-0.12859
-0.142057
-0.162604
-0.121002
-0.132788
-0.135156
-0.141546
-0.0960397
-0.121905
-0.105807
-0.0877135
-0.0700845
-0.11551
-0.102649
-0.091266
-0.102318
-0.0972364
-0.0671983
-0.0718563
-0.100544
-0.102741
-0.0911387
-0.0971923
-0.0996607
-0.0769958
-0.0912663
-0.103925
-0.10307
-0.0966302
-0.10131
-0.106651
-0.0942624
-0.0985707
-0.101818
-0.101134
-0.105384
-0.109315
-0.121057
-0.100017
-0.11174
-0.104051
-0.117526
-0.122294
-0.126903
-0.145257
-0.117404
-0.130764
-0.123213
-0.136044
-0.144672
-0.152782
-0.173338
-0.133105
-0.136318
-0.139872
-0.149865
-0.172411
-0.182045
-0.205878
-0.137127
-0.144122
-0.156313
-0.176892
-0.0633061
-0.0450398
-0.0599244
-0.0400919
-0.0415668
-0.0386811
-0.0404398
-0.0853812
-0.0686916
-0.083803
-0.043475
-0.0415293
-0.0400276
-0.0393658
-0.0803029
-0.0859406
-0.0982466
-0.0401574
-0.0374557
-0.0397813
-0.0432196
-0.0744048
-0.104128
-0.111937
-0.0361142
-0.0324214
-0.0444074
-0.0455168
-0.0815694
-0.110807
-0.102243
-0.031251
-0.0286167
-0.0451137
-0.0426919
-0.0798633
-0.0990121
-0.0907304
-0.0277624
-0.0257443
-0.0415689
-0.037517
-0.071411
-0.0882471
-0.0798396
-0.0250793
-0.0232401
-0.0358792
-0.0303556
-0.0625695
-0.0764799
-0.0677667
-0.0226851
-0.0221235
-0.0285784
-0.0251012
-0.0580839
-0.0630824
-0.0773992
-0.0411103
-0.0417075
-0.0496803
-0.0477104
-0.0812332
-0.0836278
-0.100286
-0.0411522
-0.0409852
-0.0474595
-0.0484162
-0.102991
-0.103464
-0.0959219
-0.0419394
-0.0464387
-0.0485207
-0.0453924
-0.108245
-0.089689
-0.0729376
-0.0473882
-0.0469926
-0.0439169
-0.0394189
-0.0950851
-0.0698309
-0.0669254
-0.0461825
-0.043171
-0.0382187
-0.034276
-0.0860242
-0.0665713
-0.0639205
-0.042004
-0.0379221
-0.0327079
-0.0285438
-0.0770316
-0.0628339
-0.0597841
-0.036237
-0.0303623
-0.0272671
-0.0244763
-0.0663501
-0.0593104
-0.0573824
-0.0284966
-0.0249901
-0.0240312
-0.0237309
-0.0765949
-0.0278874
-0.0320673
-0.0417467
-0.0450687
-0.0245783
-0.0265102
-0.0912468
-0.0340197
-0.040133
-0.0453836
-0.0456159
-0.0278117
-0.0323283
-0.0766548
-0.042696
-0.0526677
-0.0451435
-0.0418338
-0.0332722
-0.0333517
-0.0616544
-0.0544037
-0.0513799
-0.0404534
-0.036505
-0.0328464
-0.0315465
-0.0597883
-0.0510546
-0.0587378
-0.035076
-0.0304663
-0.0311836
-0.0292047
-0.0598983
-0.061337
-0.0593278
-0.0291822
-0.0259506
-0.0281762
-0.0251386
-0.0564452
-0.0561734
-0.0454683
-0.0251021
-0.0237397
-0.024442
-0.0237417
-0.0505433
-0.0424974
-0.0376031
-0.0236474
-0.0239179
-0.0239425
-0.0256793
-0.0287091
-0.0229718
-0.0359684
-0.0208768
-0.0238828
-0.0158881
-0.021471
-0.0379781
-0.0391097
-0.0496328
-0.0251914
-0.0295451
-0.0225253
-0.0235518
-0.0557449
-0.0508576
-0.0446833
-0.0302859
-0.0306582
-0.0236798
-0.0245583
-0.050241
-0.0402624
-0.0348336
-0.0305136
-0.0304346
-0.0248144
-0.0252684
-0.0571273
-0.0355712
-0.0397394
-0.030339
-0.0289292
-0.0253254
-0.0252549
-0.0572812
-0.0401248
-0.0379801
-0.0280303
-0.0252318
-0.0249124
-0.024138
-0.0427586
-0.0365414
-0.0342223
-0.0245702
-0.0241075
-0.0243111
-0.0262553
-0.0367823
-0.0343729
-0.0371216
-0.024472
-0.0269084
-0.0278419
-0.0328908
-0.0255288
-0.0172654
-0.0222701
-0.0157446
-0.0146152
-0.0151521
-0.0137106
-0.0241217
-0.0239106
-0.0263662
-0.0148476
-0.0141483
-0.0135135
-0.0137285
-0.0226213
-0.0275966
-0.0323628
-0.0136212
-0.0120695
-0.0139571
-0.0143223
-0.0201099
-0.0334676
-0.0341094
-0.0113947
-0.00988495
-0.0141461
-0.0129558
-0.0190983
-0.0337101
-0.03158
-0.00942632
-0.00860807
-0.0124613
-0.0109888
-0.0172551
-0.0305624
-0.0268753
-0.00845006
-0.00837068
-0.0105184
-0.00953406
-0.0159936
-0.0254573
-0.0212003
-0.00842867
-0.00885539
-0.00938179
-0.00943102
-0.0163031
-0.0199997
-0.0179833
-0.00904826
-0.00975297
-0.00956306
-0.0101562
-0.0223541
-0.0235205
-0.0312614
-0.0151166
-0.013999
-0.0164673
-0.0168059
-0.0285641
-0.0332833
-0.0373505
-0.0139118
-0.0148053
-0.0172023
-0.0180646
-0.0357338
-0.037682
-0.035248
-0.0152708
-0.0157965
-0.0179267
-0.015969
-0.0284394
-0.0367266
-0.038035
-0.0275665
-0.0375325
-0.0275715
-0.0289184
-0.0256994
-0.0346237
-0.0351148
-0.0261762
-0.0340775
-0.0254951
-0.0264682
-0.0275704
-0.0231393
-0.0195634
-0.0110767
-0.00984293
-0.00978769
-0.00913309
-0.0211673
-0.018415
-0.0160449
-0.00962867
-0.00955341
-0.00910168
-0.00945454
-0.0175844
-0.0157077
-0.0151511
-0.0096606
-0.0101989
-0.00966993
-0.0104128
-0.0305733
-0.0139133
-0.0164384
-0.0159253
-0.0170402
-0.012406
-0.0135549
-0.0345577
-0.0175158
-0.0210764
-0.0173607
-0.0174661
-0.0136677
-0.0130369
-0.0315455
-0.0221326
-0.0226237
-0.017074
-0.0147266
-0.012674
-0.0113293
-0.0190204
-0.0287398
-0.0268991
-0.0222259
-0.0259759
-0.0216985
-0.019852
-0.0159046
-0.0227264
-0.0229163
-0.0183046
-0.0220653
-0.017431
-0.0165945
-0.017193
-0.0169499
-0.0144154
-0.00956547
-0.00896716
-0.00876798
-0.00961465
-0.0150439
-0.0138416
-0.0133286
-0.00902343
-0.00966315
-0.0100337
-0.0114786
-0.0145613
-0.0135173
-0.0147865
-0.00996085
-0.0108963
-0.0119973
-0.013551
-0.0138726
-0.00728962
-0.0113764
-0.00970003
-0.011429
-0.00644567
-0.007974
-0.0185364
-0.0120291
-0.0129479
-0.011578
-0.0113667
-0.0082405
-0.00876226
-0.0203246
-0.013027
-0.0131311
-0.0112349
-0.010586
-0.00895628
-0.00928547
-0.0185491
-0.0129663
-0.0130263
-0.0102414
-0.00922696
-0.00926575
-0.00928011
-0.0169863
-0.0130676
-0.0129627
-0.00901304
-0.00898123
-0.00940256
-0.0100576
-0.0138475
-0.0127619
-0.0126732
-0.00917256
-0.0102011
-0.0104586
-0.0117263
-0.0133691
-0.0129521
-0.0142088
-0.0106601
-0.0122082
-0.0123217
-0.0140431
-0.015328
-0.0149512
-0.0170623
-0.0127764
-0.0145194
-0.0148581
-0.0169193
-0.0103784
-0.00828731
-0.00940789