/*--------------------------------*- C++ -*----------------------------------*\
  =========                 |
  \\      /  F ield         | OpenFOAM: The Open Source CFD Toolbox
   \\    /   O peration     | Website:  https://openfoam.org
    \\  /    A nd           | Version:  10
     \\/     M anipulation  |
\*---------------------------------------------------------------------------*/
FoamFile
{
    format      ascii;
    class       volVectorField;
    location    "4.9";
    object      U;
}
// * * * * * * * * * * * * * * * * * * * * * * * * * * * * * * * * * * * * * //

dimensions      [0 1 -1 0 0 0 0];

internalField   nonuniform List<vector> 
12920
(
(294.917 -145.608 30.0504)
(342.261 -175.966 -26.1108)
(369.011 -82.882 11.9141)
(208.031 14.1313 17.8651)
(157.458 43.292 7.63844)
(83.4717 25.6591 0.354987)
(96.5417 23.7963 -2.92512)
(65.8588 16.3101 -3.84427)
(80.2645 13.9278 -3.89455)
(66.4982 9.59867 -3.40074)
(76.7491 6.21107 -2.28265)
(70.655 3.27891 -1.6035)
(77.064 0.77785 -0.664386)
(74.6507 -1.09714 -0.225333)
(78.483 -2.43616 0.245823)
(78.1718 -2.96223 0.411265)
(80.7578 -3.21993 0.49019)
(82.3976 -2.75703 0.178226)
(84.4335 -1.52572 -0.0675912)
(85.7258 -0.619836 -0.0956644)
(-29.4039 44.0287 70.3889)
(-88.9047 84.3385 -32.3299)
(79.3341 42.9934 -15.2366)
(-29.1289 25.5365 -1.79754)
(91.4912 35.2869 -1.6362)
(33.533 19.0537 -0.00408785)
(80.3047 20.0368 0.0465847)
(48.3971 15.4499 -0.43238)
(72.4675 12.2316 0.25402)
(57.3518 8.2683 0.160391)
(69.2404 3.87328 0.936832)
(60.6409 1.13028 0.738707)
(65.117 -1.14128 1.16015)
(58.6938 -2.45865 1.00575)
(59.1832 -3.27139 1.13551)
(55.0413 -3.84206 0.834625)
(55.3813 -4.34628 0.711157)
(54.3273 -4.66278 0.544833)
(54.3233 -4.87991 0.514748)
(54.1474 -4.0438 0.397697)
(24.3259 -50.6692 125.454)
(-88.1848 -115.665 11.9257)
(144.354 0.650212 -14.2252)
(7.14733 12.6338 1.75)
(109.024 24.3019 -0.481921)
(39.137 24.3386 0.886995)
(81.4939 20.1355 1.13195)
(45.1737 17.7475 0.600118)
(67.4977 9.39099 1.00629)
(47.7858 7.61275 0.630702)
(57.9148 1.46887 0.848347)
(45.8986 1.18837 0.521642)
(50.6481 -1.85763 0.644847)
(43.8501 -1.78912 0.387424)
(46.5359 -3.51825 0.471984)
(43.6821 -3.82582 0.311724)
(45.6344 -5.13737 0.349845)
(45.3283 -5.35189 0.235091)
(45.9327 -5.90487 0.144839)
(45.7262 -4.61191 -0.0230137)
(360.236 -24.8325 -117.01)
(-10.3492 0.225913 -5.10203)
(166.851 70.7942 -7.74278)
(1.97224 40.7193 0.835394)
(98.4123 34.0895 0.448442)
(16.4887 29.6823 0.825059)
(73.2948 16.7062 1.25481)
(29.5442 19.3762 0.851205)
(58.3567 8.75452 1.048)
(34.0722 10.3653 0.365975)
(46.8191 3.21541 0.297622)
(34.0294 3.453 -0.0236029)
(40.8809 -1.31138 0.0844029)
(35.9036 -1.98782 0.0724845)
(40.1264 -4.88147 0.250205)
(38.8663 -5.45224 0.246915)
(41.7621 -7.17235 0.309531)
(42.1626 -7.34423 0.287522)
(43.0851 -8.20955 0.216886)
(42.6463 -6.2495 0.096361)
(291.368 -181.278 46.3038)
(70.4333 -20.2207 21.3916)
(147.021 35.0725 17.0473)
(24.8022 43.2096 -2.45535)
(108.485 28.8601 -0.106957)
(47.419 31.1675 -1.30009)
(86.7214 10.1158 0.570593)
(55.1448 19.9237 0.403571)
(70.9056 5.59284 0.782933)
(50.8141 13.3229 0.288113)
(56.148 2.93159 0.200461)
(43.2667 5.43425 -0.188966)
(46.131 -2.49887 -0.019507)
(40.4191 -2.43745 -0.0650728)
(43.2691 -6.92972 0.112981)
(41.4415 -7.28869 0.0837907)
(43.6472 -9.27708 0.168687)
(43.3334 -9.09962 0.179934)
(43.6039 -9.63236 0.184337)
(41.5725 -7.28951 -0.0208075)
(252.329 -69.8401 264.725)
(2.29387 89.3078 12.4708)
(131.741 71.0295 5.43872)
(43.4557 72.1956 2.35)
(108.03 34.2026 0.44566)
(51.5325 43.0884 -1.00737)
(85.7564 16.7969 0.363778)
(56.6034 25.3384 -0.307888)
(68.114 13.7295 0.135107)
(52.9311 19.4648 -0.371073)
(55.1452 11.6602 0.169543)
(45.1609 11.632 0.140363)
(45.5806 3.14937 0.578499)
(40.6454 -0.232994 0.23246)
(42.138 -6.05247 -0.0188549)
(41.4111 -7.23034 -0.0960865)
(43.0464 -9.43441 -0.0767951)
(43.0885 -9.355 -0.0570614)
(43.0885 -9.64026 0.0982635)
(39.979 -6.81572 -0.109371)
(184.683 169.569 264.492)
(-13.8805 26.4475 -8.08853)
(125.699 21.1076 -2.74537)
(71.3405 36.0701 5.49128)
(135.048 33.0583 6.13085)
(95.6196 44.056 3.09234)
(100.83 10.4773 1.9133)
(67.7642 32.987 1.32357)
(64.0401 11.249 0.793699)
(45.087 26.3495 0.166055)
(44.222 10.4737 0.542464)
(35.9842 13.4676 0.466426)
(40.1844 0.00462323 0.447924)
(39.0683 -0.499901 0.214167)
(42.9315 -7.09974 0.149089)
(42.8504 -8.0554 -0.0266317)
(45.2185 -10.0304 -0.0140403)
(45.2769 -9.73107 -0.0282048)
(45.3834 -9.50051 0.121198)
(41.0451 -6.43352 -0.0759823)
(209.963 292.487 -71.6803)
(45.2348 94.4918 -5.79311)
(130.789 0.0275443 -5.09186)
(87.2596 3.47929 -5.52668)
(128.741 6.10613 -1.39022)
(83.5342 50.3744 0.0369829)
(87.479 41.9824 -0.567498)
(59.112 35.8653 1.062)
(53.0063 39.1204 0.628088)
(28.9162 29.3526 -0.170653)
(34.0124 28.1709 -0.569878)
(30.8914 13.272 -0.699754)
(41.1765 5.63874 -0.426535)
(43.3276 -3.52866 0.106458)
(45.7366 -10.2177 0.217511)
(46.7009 -10.0027 0.153301)
(49.1218 -11.5196 0.0538487)
(49.6624 -10.5565 0.02567)
(50.4496 -8.91374 0.232844)
(45.5269 -5.1205 0.0865654)
(266.817 -53.5535 -162.19)
(-63.9464 38.0787 20.7481)
(117.865 51.5924 -5.20405)
(26.5218 49.5107 -5.39799)
(87.8595 59.1386 -7.96171)
(68.5853 57.1762 -4.18412)
(82.6286 55.2963 0.316816)
(59.254 43.3759 0.267825)
(44.6848 48.3292 0.345029)
(32.0738 36.4086 -0.235845)
(35.4263 28.944 -0.524347)
(40.8868 14.2328 -0.5232)
(49.5728 3.42479 -0.0390226)
(49.7276 -3.97776 0.0973163)
(49.1188 -8.62764 0.361265)
(46.597 -11.9818 0.0867512)
(48.7141 -13.0265 0.0646388)
(49.4339 -12.2432 -0.205185)
(51.9885 -9.72419 0.0107559)
(49.5089 -5.17652 -0.00724381)
(169.481 66.062 55.241)
(83.528 50.6014 33.9896)
(91.8575 20.8172 37.6832)
(-69.3201 39.1373 6.58563)
(45.1121 48.3424 4.67224)
(-22.9557 61.495 -1.34328)
(37.2336 72.4479 -0.747354)
(50.9394 63.969 -0.498997)
(44.9859 52.0046 0.153957)
(41.9252 32.7208 0.041806)
(46.2431 16.555 0.337433)
(50.3988 2.08597 0.271439)
(52.3633 -3.45523 0.205746)
(49.8056 -3.69577 0.173057)
(44.7528 -9.71716 0.183537)
(39.1343 -12.8523 0.0254274)
(40.8429 -14.0885 -0.0283782)
(42.393 -13.2887 -0.574785)
(46.0114 -12.0095 -0.970343)
(48.0032 -5.72865 -0.549826)
(344.821 71.3417 59.576)
(174.365 -14.8704 64.07)
(172.332 50.7589 51.6614)
(31.517 56.9035 10.9391)
(71.9898 52.3777 3.78045)
(11.9675 43.7062 -2.25996)
(14.4435 48.8445 -0.118417)
(30.36 51.8463 0.381591)
(37.5314 46.1988 0.413303)
(46.2872 25.0139 -0.347064)
(46.9665 12.1175 -0.120077)
(43.5747 -0.0459085 0.126001)
(39.3198 -0.994393 -0.199021)
(37.4815 -1.36302 -0.0116022)
(34.84 -8.61517 -0.174606)
(34.7231 -13.5959 -0.226359)
(36.3238 -14.5506 -0.112124)
(37.8609 -13.9348 -0.0796809)
(39.0081 -12.8129 -0.756863)
(40.9487 -7.13184 -0.750247)
(148.8 21.4968 78.7101)
(-95.214 74.1927 6.6666)
(63.9763 98.3959 13.1249)
(-89.0469 76.6754 3.11866)
(31.3415 77.3311 -0.160045)
(-45.0646 46.7283 -2.44413)
(25.5652 45.7316 -0.504079)
(47.5903 47.228 -1.03539)
(58.3117 43.5473 -0.418549)
(54.9031 32.8248 0.100222)
(44.3619 19.0838 0.100893)
(37.5974 6.20417 -0.0144418)
(31.5529 2.00247 0.0195954)
(32.3296 -1.82447 -0.111478)
(37.264 -10.0414 -0.459416)
(36.6978 -13.8818 -0.0503968)
(37.8595 -15.5354 0.126655)
(38.0319 -14.8246 0.357774)
(37.1072 -12.8819 -0.0854886)
(35.9956 -6.3203 -0.677033)
(-87.3866 60.0022 -80.0776)
(-182.359 42.2303 -5.10619)
(46.9202 50.8872 0.746025)
(-60.9616 56.0601 1.1266)
(57.6135 51.1146 -0.273643)
(-0.458241 5.63486 -1.49627)
(29.5555 34.6429 -1.12565)
(12.6115 37.7355 0.187294)
(31.5037 34.6713 0.478396)
(28.8935 25.8154 0.17054)
(37.2615 16.153 -0.107186)
(35.7098 8.24793 -0.0278553)
(38.6277 1.73691 -0.225183)
(39.7683 -3.96682 -0.550935)
(40.5097 -10.0356 -0.339855)
(41.8777 -14.6307 -0.112023)
(41.679 -15.7304 0.0613635)
(40.4377 -14.9431 0.328867)
(36.914 -12.1956 0.254586)
(32.8125 -4.96577 -0.419436)
(109.543 -138.783 -128.099)
(-95.4543 -56.3906 3.9485)
(58.686 31.7765 8.5822)
(-69.1698 42.4212 2.98751)
(46.1883 46.9823 1.73756)
(-33.9939 23.0919 0.299308)
(24.8174 60.0388 -0.25938)
(-0.456337 18.3224 0.371401)
(28.512 30.2417 0.246754)
(24.6421 13.4499 -0.0917209)
(37.1466 13.187 -0.479696)
(36.8638 4.39266 -0.846328)
(43.1013 1.96594 -1.31416)
(43.9377 -6.05861 -1.08906)
(46.9757 -9.81957 -0.343393)
(45.4468 -14.4229 0.279237)
(43.1531 -14.5522 0.202702)
(39.5374 -12.1321 0.0450416)
(36.1432 -8.76044 -0.0012572)
(30.9246 -2.95273 -0.31201)
(211.029 -2.61933 186.268)
(-3.34792 -3.45742 28.4039)
(97.6079 25.8901 13.725)
(-1.32601 39.7294 6.9908)
(72.6527 23.4807 6.49364)
(3.35352 12.5398 2.10107)
(46.2336 18.1227 2.39939)
(26.7519 12.492 0.152521)
(43.307 14.4611 0.0477042)
(39.9507 9.86043 -0.890697)
(47.026 8.84097 -1.11023)
(46.6291 4.6743 -1.74588)
(50.7294 1.66453 -1.63608)
(51.2148 -6.02723 -0.97924)
(51.3833 -10.0352 0.0211076)
(47.2966 -12.9877 0.625153)
(39.641 -10.5819 0.528431)
(34.3195 -8.76833 0.0388845)
(31.2159 -6.04482 -0.280691)
(27.7491 -1.8699 -0.369245)
(32.579 -28.1155 -28.6622)
(-10.7621 -33.2017 -14.8725)
(85.3551 -8.1768 2.41644)
(56.0412 15.7347 4.63915)
(81.8615 32.8162 11.9453)
(30.645 27.72 5.95035)
(53.102 33.5529 4.91642)
(31.2451 18.3155 1.39989)
(50.9232 21.3819 1.12878)
(45.0843 13.703 -0.00994701)
(54.7591 14.0187 -0.178302)
(52.2972 9.29892 -0.925445)
(56.7321 5.83024 -0.784271)
(52.8623 -3.08814 -0.0228934)
(50.7148 -6.53679 1.13923)
(43.3951 -6.62343 1.15023)
(37.0766 -4.11556 0.787897)
(32.1361 -4.1327 0.296701)
(29.6211 -3.34112 -0.0865591)
(26.0698 -1.59494 -0.306987)
(113.877 -149.168 -135.112)
(-62.5193 -63.3035 -14.1163)
(53.3984 -8.11941 -1.33545)
(-51.689 3.36312 -2.9285)
(45.7235 8.13194 1.5185)
(-6.83142 4.0256 0.81877)
(49.2579 2.96223 1.7762)
(32.2851 -0.285845 0.662723)
(56.5132 1.93225 1.69273)
(53.049 2.21898 1.23052)
(63.2943 6.03102 1.57377)
(62.8133 6.30232 1.28635)
(64.9688 4.96401 1.163)
(57.4192 -1.73089 1.21867)
(46.8683 -6.61042 1.52255)
(36.2362 -6.32276 0.794905)
(32.5232 -3.4861 0.454981)
(28.3669 -3.14619 0.280672)
(26.2191 -2.14638 0.211583)
(21.9983 -0.852081 -0.264434)
(43.1345 102.354 -90.9007)
(-129.829 88.5962 -21.3913)
(48.7572 29.7928 -27.3191)
(-6.26547 17.1857 -5.60594)
(61.4701 8.66268 -3.41797)
(30.3171 5.74228 -3.25549)
(64.1032 4.68868 -1.16841)
(48.447 -0.813967 -1.62594)
(65.4144 0.337303 -0.29591)
(59.9531 -2.23004 -0.725298)
(70.1593 -0.016933 -0.253445)
(72.2002 0.314392 -0.447088)
(78.1825 5.61919 0.156122)
(75.5712 6.3213 0.849489)
(64.2654 5.61649 1.82853)
(47.5421 2.37969 1.13532)
(41.4145 1.29038 0.207257)
(35.9 0.312377 0.441583)
(31.7838 -0.6918 0.812607)
(23.265 -0.183966 0.228077)
(-17.2507 -57.5745 143.884)
(-201.963 29.4718 15.3627)
(12.0738 31.4036 -10.5128)
(-72.753 13.3489 -1.01918)
(42.2604 15.5183 -3.54205)
(-5.57887 4.49359 -1.98652)
(45.7033 3.79875 -0.532124)
(24.5673 -3.05545 -0.567159)
(46.3019 -2.31158 0.910101)
(36.4194 -4.38452 0.292608)
(46.7106 -1.69255 0.331379)
(42.7125 -1.04242 -0.345728)
(48.0913 2.04155 0.395459)
(46.0704 4.54655 0.517564)
(46.3533 9.1321 0.315865)
(44.7414 8.7309 -0.700284)
(46.0256 6.94993 -1.6404)
(49.0207 3.32118 -1.55452)
(50.8595 3.15381 -0.105592)
(44.9363 2.41707 0.541324)
(-104.984 -176.802 -58.6112)
(-101.637 6.19331 -57.6861)
(56.7029 -20.6341 -14.7954)
(-28.3111 -7.71119 -0.854973)
(56.6418 -7.78812 -3.7316)
(19.739 -3.51219 -4.17907)
(58.936 -7.16364 -2.2801)
(38.443 -9.24171 -3.19193)
(53.264 -8.97346 -0.576342)
(37.1838 -7.60861 -1.24587)
(43.7505 -3.82472 -0.634513)
(37.7779 -0.691401 -1.10067)
(43.6983 1.81569 -0.897997)
(44.9574 4.67189 -0.698163)
(52.8079 6.73934 -0.517566)
(61.2691 7.2026 -1.70954)
(76.0787 6.58395 -2.05648)
(87.5241 2.80894 -2.46892)
(95.1603 -0.499685 -2.4506)
(99.7466 -2.16103 -1.66824)
(265.635 -96.2935 47.9239)
(117.822 -83.3091 38.9422)
(224.035 -24.2457 63.0638)
(143.474 17.967 38.6191)
(144.022 34.3408 15.1811)
(89.794 21.1565 1.68275)
(98.6474 18.2734 -3.65473)
(65.925 9.70799 -5.24431)
(76.3689 7.19921 -4.64408)
(57.8082 3.18607 -4.09999)
(66.7854 0.384247 -2.03904)
(58.2639 -1.5161 -1.39809)
(65.0371 -3.1597 0.125336)
(62.1728 -3.69754 0.368312)
(66.9718 -4.19099 1.13167)
(66.949 -3.72322 1.0749)
(70.6923 -3.63572 1.19658)
(72.3853 -3.1249 0.737166)
(73.9596 -2.64449 0.429324)
(74.538 -2.17743 0.295411)
(84.2612 -169.616 -0.512356)
(-60.3039 -34.9641 -37.1028)
(80.0739 2.90746 -36.0115)
(-22.5802 15.0842 -7.7115)
(82.4926 27.3441 -6.25607)
(20.9583 12.7388 -0.462373)
(72.639 13.7425 0.111753)
(34.7578 7.93219 -0.675668)
(61.1653 5.22669 0.70657)
(41.1266 2.34476 0.0155585)
(54.5823 -0.422022 1.39489)
(43.4564 -1.39589 0.724245)
(49.5634 -2.28171 1.56588)
(43.1211 -2.48189 1.05736)
(45.7314 -2.59864 1.31066)
(42.7841 -2.76757 0.805801)
(44.4893 -3.06092 0.741225)
(44.0154 -3.2059 0.412006)
(44.5663 -3.29451 0.371481)
(43.8654 -2.60518 0.083447)
(65.0881 -141.35 94.9665)
(19.1266 -115.861 -22.6229)
(116.143 -15.6867 -36.0586)
(-2.54907 8.62262 -4.52454)
(95.9867 21.7602 -4.31733)
(22.0865 21.078 1.27614)
(72.4038 15.7978 1.65006)
(31.1627 14.3482 0.818268)
(57.1445 6.56212 1.69174)
(34.1028 6.7178 0.798803)
(46.429 1.26558 1.31284)
(32.9735 2.238 0.60459)
(39.3109 -0.657414 0.954612)
(32.239 -0.173627 0.398003)
(35.9354 -1.90623 0.66792)
(33.039 -2.00883 0.338092)
(35.4114 -3.22448 0.466917)
(34.9908 -3.33307 0.194689)
(35.6299 -3.75359 0.0763634)
(34.6629 -2.85368 -0.348034)
(403.121 114.321 101.742)
(9.94752 -12.6253 28.0695)
(127.354 55.093 1.50513)
(-25.5791 21.7785 -0.724207)
(88.5129 27.8632 -1.31144)
(1.95024 24.6221 1.54537)
(65.8222 12.7738 1.47576)
(18.0637 16.6404 1.06899)
(49.7935 6.26102 1.4037)
(23.2631 9.31198 0.285903)
(37.5857 2.54115 0.448816)
(23.7858 3.96228 -0.134383)
(31.3274 -0.30047 0.203069)
(25.7322 -0.125691 0.0913142)
(30.2152 -2.56478 0.418425)
(28.4994 -2.71948 0.32994)
(31.2751 -4.14842 0.437032)
(31.2857 -4.12573 0.303706)
(32.021 -4.74413 0.191325)
(31.1536 -3.32383 -0.178543)
(217.917 -1.65589 -98.0109)
(-106.609 27.7004 11.7884)
(150.031 17.6946 13.3165)
(-6.6766 23.5756 -0.0560204)
(100.021 15.9878 1.48081)
(24.7097 28.4518 -0.596553)
(73.2427 9.03749 1.66972)
(35.8188 22.9596 0.516014)
(56.1265 6.80859 1.22899)
(33.473 15.6948 0.236972)
(41.5543 3.56085 0.42095)
(28.2534 6.95335 -0.183764)
(33.197 -1.17181 0.170183)
(27.2968 0.195341 -0.0237416)
(31.0341 -3.88153 0.265379)
(28.8412 -3.39161 0.144559)
(31.2093 -5.11584 0.297337)
(30.61 -4.62996 0.201156)
(30.9923 -5.3161 0.164235)
(29.2212 -3.64223 -0.336565)
(140.636 -26.5745 -47.0407)
(2.00646 54.7948 -12.6929)
(128.416 15.8504 -8.12441)
(28.8286 37.8052 0.439284)
(97.6681 12.1083 -1.94136)
(23.7751 35.5732 -1.35568)
(68.4139 9.99075 0.541704)
(32.1267 26.736 -0.438676)
(48.6168 12.9147 0.465605)
(30.8588 20.1675 -0.541524)
(36.3371 9.43464 0.557542)
(27.5205 10.1011 0.174246)
(30.6671 1.61477 0.743001)
(27.6825 0.832827 0.27901)
(29.3726 -3.66078 0.108766)
(28.4644 -3.64154 -0.0238176)
(29.9779 -5.29866 0.0216056)
(29.6367 -4.66941 0.0101344)
(29.6881 -5.12202 0.122874)
(27.318 -3.28969 -0.441204)
(187.734 212.826 18.8929)
(69.0771 43.6819 12.032)
(137.579 10.8432 8.41051)
(71.7509 26.6745 8.68319)
(124.429 28.8847 8.68548)
(68.9942 42.6187 3.28172)
(75.3131 7.62996 2.84377)
(41.1242 37.3397 2.11006)
(44.0954 10.7808 1.78878)
(26.9847 26.8219 0.421474)
(31.1993 7.70534 0.946859)
(24.6651 12.2894 0.585444)
(29.8807 -0.0273853 0.531486)
(28.0744 1.5743 0.211273)
(31.5116 -4.36992 0.249259)
(30.6758 -4.2573 0.0747594)
(32.2966 -5.71721 0.140043)
(31.5248 -4.99572 0.0841545)
(31.1671 -5.02485 0.255553)
(27.5907 -3.01902 -0.364205)
(187.928 65.073 -37.7828)
(108.152 -22.1677 -1.21407)
(150.038 -23.0267 -5.20818)
(74.205 16.8509 -8.27367)
(104.575 29.8891 -1.7609)
(42.9282 71.9358 -0.460673)
(57.1305 45.6749 3.15859)
(31.8959 41.452 5.21186)
(34.1773 34.0276 2.72617)
(20.2212 27.5464 -0.717234)
(26.6244 19.9156 -0.298607)
(24.7046 11.3793 -0.876569)
(32.1937 4.13803 -0.513428)
(32.6836 -0.538751 0.0726229)
(34.2926 -6.03575 -0.0350262)
(35.3996 -5.24674 0.140528)
(36.652 -5.99036 0.166577)
(36.1685 -4.55262 0.211086)
(35.2909 -3.65977 0.459114)
(30.6024 -1.67653 -0.0523965)
(142.949 -51.586 -143.291)
(14.6501 -30.3325 5.72421)
(112.717 32.5591 -19.1797)
(25.9845 46.8583 -10.2612)
(70.6134 64.4573 -12.3306)
(43.095 69.864 -10.1823)
(54.5573 63.6161 -2.03486)
(34.699 44.6269 2.68623)
(29.771 40.7587 2.22653)
(24.8912 28.8017 0.301057)
(31.2824 19.4437 -0.23982)
(34.2577 8.57041 -0.735307)
(38.7214 2.15356 -0.0893488)
(38.7839 -2.19502 0.019372)
(39.5113 -4.93496 0.0693681)
(36.7156 -6.78941 -0.166525)
(38.1554 -6.6042 0.00534254)
(37.7997 -4.86812 -0.258183)
(38.1082 -2.36367 0.0918405)
(33.9777 -0.558222 -0.212057)
(76.2425 -28.0444 -37.6112)
(-145.858 37.6794 7.59843)
(59.8453 38.7143 28.041)
(-85.4175 48.4312 5.39939)
(36.248 55.762 1.19312)
(-14.9475 64.0291 -3.05917)
(28.6308 71.9781 -3.90436)
(34.7393 55.4904 1.55652)
(32.4358 40.1214 1.20582)
(33.6469 24.0601 0.733939)
(37.4903 13.3244 1.00684)
(40.7619 4.61645 1.00714)
(41.9953 0.373515 0.756378)
(40.2924 -2.99779 0.361782)
(36.0352 -6.76359 0.294985)
(31.7198 -7.0018 -0.379895)
(33.5818 -6.9115 -0.468973)
(34.547 -5.33305 -1.0248)
(36.1626 -2.47642 -1.14306)
(33.8193 0.202246 -0.882142)
(180.588 -32.1189 -17.2363)
(-134.966 32.5581 -38.5609)
(101.376 78.3591 4.35706)
(-20.1232 65.0462 4.40236)
(47.9386 57.2173 1.25353)
(-1.52352 47.6915 -1.32585)
(12.3456 47.5498 3.19787)
(27.3488 47.5305 2.07038)
(32.891 37.4993 1.16223)
(35.7026 21.8721 -0.0913034)
(35.2412 11.2564 0.484086)
(33.5822 3.9534 0.0561087)
(30.9457 2.0784 -0.489206)
(28.9277 -1.11814 0.188732)
(26.7902 -5.94651 -0.372859)
(25.0979 -8.15454 -0.77304)
(26.6632 -7.84443 -0.395626)
(28.3437 -7.24063 -0.576045)
(30.3565 -4.41257 -1.28625)
(29.4466 -0.563291 -1.23069)
(116.701 114.162 140.934)
(-194.669 115.562 -22.9815)
(28.1169 97.114 -3.7862)
(-99.4459 76.3452 2.47469)
(13.6143 69.6178 -2.83612)
(-50.3205 38.0953 -1.51388)
(14.2822 37.6233 -0.371708)
(28.2141 41.3599 -1.54156)
(32.2471 33.7564 -0.3207)
(30.4452 23.3695 0.907804)
(27.1886 14.0027 0.16487)
(23.5198 7.28535 -0.0127464)
(22.5886 3.0649 -0.225946)
(23.5047 -1.42076 -0.516181)
(24.7487 -7.18364 -0.939882)
(22.7711 -8.45749 -0.398549)
(24.5622 -8.78019 0.0188776)
(25.3819 -7.74822 0.145484)
(26.1338 -5.18227 -0.524434)
(24.6147 -0.791943 -1.23189)
(-27.8943 -179.224 -8.96089)
(-155.756 56.835 -21.4607)
(25.8873 62.1785 -8.64917)
(-76.0656 58.1705 1.25054)
(44.9552 44.0068 -3.31836)
(-18.2452 0.070446 -2.08574)
(14.0904 33.6982 0.819787)
(-1.98843 30.7242 0.661488)
(17.6257 26.9653 0.75748)
(13.1702 19.9958 0.0855282)
(21.2888 12.5605 -0.344751)
(19.8677 6.81767 -0.487154)
(23.9468 1.16915 -0.783214)
(24.0252 -3.652 -0.977546)
(22.6776 -7.10273 -0.705365)
(24.3758 -9.59966 -0.00509604)
(24.5328 -9.40674 0.240747)
(24.4453 -8.0038 0.38434)
(23.2923 -4.63832 -0.0395818)
(20.6945 -0.839609 -0.907538)
(159.045 30.8955 -24.5101)
(-137.78 11.2534 29.4314)
(28.4925 54.7782 8.13899)
(-91.4791 37.5407 3.23393)
(36.1339 37.5076 -0.609328)
(-46.3377 14.2022 1.11341)
(14.3943 52.4946 -0.243146)
(-11.6137 9.79292 0.580267)
(16.8989 25.0846 0.0101623)
(10.7606 8.76282 -0.370384)
(22.0518 10.6202 -0.68195)
(20.2532 1.99005 -1.3085)
(24.4395 0.304209 -1.45128)
(23.6271 -6.06621 -0.85334)
(25.2747 -7.69705 -0.154541)
(24.953 -10.168 0.515199)
(24.7325 -8.61426 0.323947)
(22.6957 -6.21636 0.109199)
(21.2351 -2.7084 -0.161019)
(18.3394 -0.114649 -0.582099)
(40.4212 -110.685 127.133)
(-120.334 43.0068 -7.96747)
(62.5208 41.3492 1.27926)
(-46.7629 29.809 5.14432)
(55.7645 14.0906 4.7176)
(-19.2821 7.50517 0.535407)
(34.7884 16.9397 2.59913)
(11.5524 10.7913 -0.756857)
(28.5902 13.7124 0.0703138)
(22.1692 8.42655 -1.49056)
(28.2805 7.54288 -1.40112)
(25.723 2.47281 -2.37208)
(28.1144 -1.15109 -1.57969)
(26.5531 -7.3954 -0.67036)
(27.306 -8.76991 0.281199)
(25.26 -9.59639 0.884554)
(22.2181 -6.53131 0.640087)
(19.5737 -4.72573 0.010247)
(18.0469 -2.02524 -0.376766)
(15.8338 -0.0285131 -0.526415)
(-18.6111 -19.6376 9.82121)
(-153.809 51.6873 10.7827)
(42.3022 33.5368 13.7428)
(-25.2137 39.8322 5.93447)
(49.593 38.5745 13.854)
(-2.20838 25.3857 4.43645)
(37.8327 30.551 5.69003)
(13.724 14.1666 0.796323)
(35.1778 17.8597 1.55858)
(25.5685 8.60956 -0.464426)
(34.4901 8.633 -0.302023)
(29.3094 2.24451 -1.48489)
(31.9727 -0.954174 -0.483134)
(27.2759 -6.57008 0.432448)
(27.9013 -6.5191 1.50547)
(24.0512 -5.44347 1.48283)
(21.3496 -2.36839 1.04569)
(18.5326 -2.0958 0.29856)
(17.1456 -1.10025 -0.151516)
(14.6513 -0.20744 -0.449487)
(95.538 -27.8699 -128.263)
(-79.2677 -21.773 -26.8147)
(49.8877 -11.5492 -17.2755)
(-66.8108 11.8743 -4.06464)
(38.1951 14.1335 0.60596)
(-20.4077 12.6266 0.219254)
(37.3886 11.0312 2.29182)
(15.2007 7.22034 0.271512)
(40.1561 8.25078 2.38095)
(33.282 6.08804 1.08612)
(42.7634 6.9654 1.72209)
(39.0837 4.40273 0.9539)
(40.2113 1.21483 1.45394)
(31.6515 -4.21358 1.83857)
(27.3069 -5.03818 2.30702)
(20.474 -3.4648 1.19398)
(18.7533 -0.852979 0.712176)
(15.9919 -0.69134 0.349233)
(14.752 -0.202784 0.200129)
(11.7428 0.203617 -0.438595)
(131.88 -83.1077 116.773)
(-6.75258 69.8487 -20.3493)
(44.4203 37.4198 -40.7957)
(-11.4203 26.2208 -10.9206)
(50.0066 16.3466 -6.57411)
(13.2864 12.5906 -5.33922)
(48.5116 10.7722 -1.09011)
(29.2425 5.38571 -2.61628)
(47.2539 7.31098 0.0728444)
(38.8016 4.47851 -1.20751)
(47.9856 6.86583 -0.278427)
(44.9455 5.13111 -0.822382)
(47.8642 6.49273 0.342891)
(41.476 4.70091 1.66551)
(35.1377 3.98298 3.34409)
(26.4189 2.12402 1.73236)
(23.5401 2.12498 0.460942)
(20.2811 1.65702 0.61997)
(18.409 1.19697 0.950702)
(13.2647 0.870057 0.0314197)
(-38.7885 -8.53403 249.22)
(-161.225 13.7175 -10.8952)
(-4.06218 24.5344 -22.9392)
(-68.2729 10.012 -3.78684)
(33.4956 12.8837 -5.70836)
(-16.7331 4.58683 -2.88241)
(33.8592 6.66838 -0.0830964)
(7.98514 1.54852 -1.10459)
(32.4107 4.25209 1.15328)
(21.0766 1.99961 -0.546198)
(32.6041 4.28611 -0.0470672)
(26.769 3.52502 -0.956285)
(31.046 5.14931 0.427953)
(27.7326 5.76262 0.335959)
(29.1092 7.42885 0.000593478)
(27.4434 6.55859 -1.26855)
(28.4546 4.78706 -1.93986)
(28.3233 3.71876 -1.62369)
(28.9465 4.46403 0.424719)
(24.9399 3.57359 0.925969)
(177.11 24.6786 56.5912)
(32.947 71.3939 2.07818)
(58.269 -5.89662 -12.8798)
(-26.967 -4.96013 -1.1944)
(45.0237 -4.81338 -5.41592)
(-10.667 0.759921 -4.41006)
(32.6354 -0.603376 -0.791681)
(0.25553 -0.606291 -3.99241)
(25.4729 2.21325 -0.200876)
(12.1893 2.95618 -1.96935)
(26.9876 5.89788 -0.210284)
(23.4808 6.28208 -0.631098)
(31.9467 7.73451 0.350589)
(33.2192 7.04234 0.311748)
(41.6549 6.49126 0.725615)
(46.8837 3.78904 -1.3954)
(52.4656 0.919779 -2.76969)
(54.6459 -0.556426 -3.04108)
(54.8951 0.105439 -2.65349)
(55.296 2.09922 -1.71341)
(204.673 27.4558 -126.759)
(8.27827 37.6842 25.4537)
(171.937 36.8972 31.1726)
(110.61 37.3224 25.1998)
(132.501 34.7534 12.1642)
(82.1896 18.0397 1.03921)
(94.935 14.9478 -2.47912)
(59.3657 6.82794 -4.64543)
(70.4281 5.08918 -3.36034)
(48.1335 1.5531 -3.30871)
(57.9982 -0.796423 -1.01819)
(47.6561 -2.02799 -0.777928)
(55.3298 -3.12986 0.808727)
(51.791 -3.05999 0.78802)
(57.1749 -3.1646 1.56705)
(57.0466 -2.50805 1.2028)
(61.2271 -2.43085 1.33968)
(62.9586 -1.98825 0.842983)
(64.403 -1.84489 0.572997)
(64.7531 -1.62743 0.399774)
(74.5244 -49.4014 95.6668)
(-12.3136 -31.1199 -3.82598)
(74.9439 -10.8569 -22.6323)
(-17.534 9.1187 -4.95375)
(74.9095 21.49 -5.2588)
(8.98363 8.59385 -0.82601)
(65.09 10.1558 -0.196135)
(21.7112 4.38505 -0.954245)
(51.7278 2.33176 0.628085)
(27.6449 0.459658 -0.262473)
(42.9441 -1.4371 1.12209)
(29.5472 -1.39142 0.320374)
(37.1683 -1.74219 1.20619)
(30.3791 -1.53328 0.604584)
(34.3572 -1.47721 0.884858)
(31.6441 -1.5909 0.44425)
(34.0904 -1.84381 0.444729)
(33.7194 -1.98492 0.0904642)
(34.3597 -2.06999 0.0695925)
(33.2876 -1.62038 -0.401402)
(270.667 -75.1027 11.3799)
(210.064 -91.2307 -3.78637)
(152.506 -13.7263 -12.0702)
(8.68001 6.09153 0.217645)
(87.5716 20.1729 -2.59778)
(10.1894 19.1091 1.5076)
(64.5792 13.5921 1.48409)
(19.4124 13.228 0.807994)
(48.4464 5.77761 1.58209)
(22.5591 7.25497 0.626071)
(36.8755 1.91218 1.17916)
(22.0418 3.55709 0.499978)
(29.6552 0.482697 0.77837)
(22.0336 1.18209 0.35037)
(26.4385 -0.646993 0.531617)
(23.2119 -0.634072 0.213848)
(25.8616 -1.81445 0.349781)
(25.1994 -1.8833 0.0242565)
(25.7344 -2.34643 -0.0750971)
(24.3819 -1.75482 -0.685514)
(283.891 165.92 96.2585)
(-21.5254 32.6767 40.7843)
(118.45 66.0555 9.88041)
(-30.1438 20.754 -0.440547)
(78.1843 27.0756 -1.41509)
(-8.70092 22.0076 2.28825)
(57.8157 10.8315 0.902791)
(7.27294 15.631 0.931451)
(41.5699 5.37119 0.986714)
(13.3111 9.60592 0.0875336)
(29.3265 2.84381 0.386433)
(14.6431 5.02142 -0.245589)
(22.9694 0.839828 0.206389)
(16.6539 1.4807 0.0535526)
(21.3349 -0.867792 0.366983)
(19.051 -0.830146 0.249572)
(21.773 -2.1737 0.349585)
(21.4053 -2.1058 0.149536)
(22.011 -2.74928 0.0556001)
(20.908 -1.77569 -0.540837)
(5.65342 80.3809 -8.01072)
(-176.047 31.7766 21.6284)
(103.978 -5.74214 1.99387)
(-37.5275 16.222 4.52586)
(89.4689 12.4163 1.55607)
(6.82715 28.1089 0.503282)
(62.8212 8.35022 1.47934)
(20.5949 24.4033 0.408544)
(44.8218 6.61239 1.14108)
(20.2775 16.7123 0.117246)
(31.0416 3.62673 0.427552)
(17.2192 8.22027 -0.103718)
(23.5778 0.121491 0.203891)
(17.1575 2.40782 -0.0227419)
(21.308 -1.6083 0.239649)
(18.625 -0.729817 0.110115)
(21.045 -2.51255 0.240985)
(20.1755 -2.00828 0.0732236)
(20.5524 -2.96465 0.0518219)
(18.9475 -1.77077 -0.676415)
(134.819 50.6029 22.6297)
(54.4651 10.4219 -11.7378)
(123.975 -9.09774 4.26542)
(18.6326 21.973 4.60794)
(87.1345 7.62618 1.45607)
(5.02034 35.9321 -0.18912)
(56.7074 7.97489 0.352717)
(15.4117 28.526 -0.301012)
(35.82 11.8149 0.386211)
(16.2915 20.3422 -0.612109)
(24.3399 8.07255 0.45022)
(15.5737 10.1994 0.0668444)
(20.1492 2.04069 0.544477)
(17.089 2.67265 0.134195)
(19.1819 -1.43763 0.138326)
(18.0058 -0.831861 -0.0119553)
(19.502 -2.5096 0.0263106)
(18.9454 -1.86424 -0.0561092)
(18.9957 -2.70359 0.0338794)
(17.0986 -1.52265 -0.776006)
(105.045 197.381 131.716)
(20.3359 -9.0121 45.1035)
(120.586 -3.74293 24.3877)
(41.5666 20.4088 9.36431)
(101.225 26.3876 11.1108)
(37.8313 43.0544 3.43208)
(54.5572 5.27947 3.41447)
(21.6787 40.3965 1.84669)
(30.891 9.34734 1.62443)
(14.9351 26.5834 0.305846)
(21.7613 6.29041 0.748624)
(15.0684 12.6589 0.45211)
(20.5842 0.898793 0.481506)
(18.0238 3.8927 0.347712)
(21.3007 -1.80729 0.295819)
(19.9069 -1.13542 0.164838)
(21.2431 -2.69776 0.183406)
(20.1029 -1.92203 0.0378858)
(19.6755 -2.49556 0.167256)
(16.8694 -1.28856 -0.745126)
(297.266 -71.5424 130.792)
(143.823 -56.7453 40.2246)
(159.716 -27.4824 7.72994)
(55.7728 25.7281 -3.55327)
(85.528 39.0974 2.83918)
(14.1589 77.0404 -0.203712)
(33.5435 39.2588 3.6877)
(12.4163 45.7278 4.16435)
(20.888 27.808 1.98961)
(11.6869 27.0089 -0.748241)
(19.3071 15.8203 -0.586722)
(16.877 11.8732 -0.814689)
(23.2096 4.82444 -0.4114)
(22.5486 2.71286 0.102609)
(23.2187 -2.49534 0.352881)
(23.9324 -1.11948 0.322239)
(24.3352 -2.03151 0.302464)
(23.4299 -0.826911 0.296778)
(22.1758 -0.931195 0.436226)
(18.494 -0.136133 -0.463811)
(132.672 5.40977 -52.0304)
(61.1698 32.635 -9.49488)
(114.683 47.2554 -22.812)
(25.9024 49.7897 -12.5)
(59.6797 64.6534 -10.9136)
(21.9182 74.6997 -8.72443)
(28.6437 59.4718 -1.12757)
(13.3235 41.4984 3.38148)
(19.9148 34.4667 1.65596)
(17.7935 24.2477 0.012214)
(24.308 15.775 -0.616392)
(25.0175 8.28604 -0.771346)
(28.2944 3.65611 -0.144532)
(28.0661 0.775597 0.146111)
(28.5942 -0.997012 0.210917)
(25.1906 -2.06505 0.197436)
(26.1014 -1.67331 0.214608)
(25.2357 -0.187023 -0.116341)
(24.5128 0.977837 0.0644121)
(20.5515 1.22772 -0.621506)
(115.785 -44.2724 88.3096)
(-120.43 46.6207 16.5463)
(46.4442 52.1856 15.2523)
(-75.2493 54.3392 4.49467)
(22.0785 58.6199 -2.23397)
(-22.0931 65.8016 -1.63878)
(15.8042 68.0433 -2.9306)
(21.6427 46.1331 2.01217)
(23.233 32.1333 1.25684)
(25.2317 20.2641 0.585567)
(28.247 12.2941 0.599317)
(30.0667 6.27049 0.839851)
(30.1833 2.66722 0.718551)
(28.7822 -0.596906 0.526551)
(26.0128 -2.70143 0.338084)
(22.1949 -1.94975 -0.244189)
(23.4356 -1.61239 -0.462042)
(23.549 -0.244503 -0.862953)
(23.6853 1.59704 -0.899478)
(20.5358 2.23415 -1.23662)
(173.934 27.3945 -33.9409)
(-91.0366 49.9881 34.7369)
(51.6325 80.9579 -8.95939)
(-36.8943 66.9288 5.4756)
(32.2126 57.3264 0.548095)
(-14.2472 47.3444 -0.677523)
(4.86871 45.7166 2.87194)
(19.5088 42.1724 2.38434)
(23.5724 31.2724 1.10923)
(25.424 19.2719 1.49209)
(26.2165 13.5824 2.60416)
(24.8148 7.45318 -0.0180258)
(21.6056 4.25298 -0.123347)
(20.5437 0.417449 0.248614)
(18.715 -2.6531 -0.273146)
(15.8407 -3.53927 -0.535628)
(17.2867 -2.86213 -0.456683)
(18.6803 -2.36297 -0.774653)
(19.7562 0.15077 -1.15156)
(17.6007 1.71603 -1.58615)
(173.315 80.4751 -5.89901)
(-132.131 97.8458 6.926)
(12.5949 98.8091 -4.49386)
(-94.9074 71.9475 4.41658)
(0.298219 63.839 -3.82219)
(-54.4534 34.1736 0.553331)
(4.86197 35.1847 0.48138)
(13.9218 37.6748 -0.363489)
(16.7158 29.086 0.371919)
(16.6244 20.963 0.59917)
(15.7919 13.8133 0.0339976)
(14.3107 8.7457 -0.192739)
(14.5001 4.35182 -0.386152)
(15.0397 0.142553 -0.597931)
(14.8821 -3.91494 -0.684451)
(12.0334 -4.04605 -0.206688)
(13.859 -3.96908 -0.0406757)
(14.8402 -3.17473 -0.153672)
(15.7538 -0.888132 -0.67109)
(13.7602 1.19812 -1.60226)
(52.6868 59.7821 91.1653)
(-122.994 69.5469 1.46704)
(20.3917 70.4104 -2.97551)
(-75.2566 56.7315 4.39145)
(33.8822 40.3958 -3.73899)
(-30.9909 -1.02374 -1.449)
(1.88334 35.9841 0.900969)
(-12.3247 27.701 0.798713)
(6.59286 25.0796 0.715579)
(1.91517 17.8511 -0.0348789)
(10.0346 12.3948 -0.324986)
(8.4414 6.84526 -0.571518)
(12.2522 2.19509 -0.746058)
(11.7029 -2.17612 -0.922505)
(9.61385 -3.55636 -0.320219)
(11.6402 -5.41952 0.0544784)
(12.1134 -4.55343 0.119932)
(12.6586 -3.57708 0.0920673)
(12.3859 -0.894836 -0.268263)
(10.3497 0.645901 -1.35599)
(-115.636 50.4596 218.374)
(-215.724 25.4266 16.1947)
(5.74263 54.2567 11.7232)
(-92.3311 33.6133 4.47064)
(23.0236 33.5354 -2.10459)
(-56.0301 12.3612 2.31504)
(4.57834 49.8848 -0.0355425)
(-22.8967 6.46123 0.771076)
(6.17423 24.2033 0.172381)
(-1.82874 7.39326 -0.371303)
(9.29523 10.8893 -0.49062)
(6.3351 1.9751 -1.29699)