/*--------------------------------*- C++ -*----------------------------------*\
  =========                 |
  \\      /  F ield         | OpenFOAM: The Open Source CFD Toolbox
   \\    /   O peration     | Website:  https://openfoam.org
    \\  /    A nd           | Version:  10
     \\/     M anipulation  |
\*---------------------------------------------------------------------------*/
FoamFile
{
    format      ascii;
    class       volVectorField;
    location    "4.9";
    object      U_0;
}
// * * * * * * * * * * * * * * * * * * * * * * * * * * * * * * * * * * * * * //

dimensions      [0 1 -1 0 0 0 0];

internalField   nonuniform List<vector> 
12920
(
(302.471 -140.814 4.94255)
(351.89 -179.661 -28.098)
(377.695 -78.5394 13.4232)
(208.956 18.1585 17.9615)
(161.266 42.9283 6.96734)
(88.1161 25.4981 0.167901)
(102.02 23.6179 -2.95566)
(71.3443 16.2052 -3.87682)
(86.2227 13.7793 -3.91272)
(72.5229 9.48434 -3.41571)
(83.1188 6.062 -2.27231)
(77.1277 3.13882 -1.59374)
(83.7158 0.658237 -0.656399)
(81.3754 -1.19699 -0.218266)
(85.3174 -2.51792 0.251363)
(85.1032 -3.02466 0.413193)
(87.7344 -3.26091 0.488994)
(89.2279 -2.75271 0.177075)
(91.085 -1.48313 -0.0582778)
(92.8951 -0.572941 -0.0745344)
(-32.4986 49.8562 70.0859)
(-91.9891 88.8876 -33.1049)
(85.8128 45.6328 -14.7679)
(-21.1187 26.6185 -1.79735)
(97.2916 34.9323 -1.65468)
(38.6432 18.6213 -0.0618079)
(85.9666 19.6986 0.0814976)
(53.968 15.1086 -0.439586)
(78.4394 11.8813 0.258153)
(63.3958 7.95616 0.147159)
(75.5847 3.5912 0.944145)
(67.1321 0.864651 0.74091)
(71.7866 -1.36525 1.16723)
(65.4288 -2.65328 1.00416)
(66.0127 -3.43441 1.13732)
(61.9781 -3.97584 0.83108)
(62.37 -4.44957 0.710696)
(61.1896 -4.6997 0.549983)
(60.9951 -4.84245 0.529297)
(61.2467 -3.96837 0.434695)
(24.9587 -43.7913 144.207)
(-81.6465 -111.25 11.939)
(152.589 5.10031 -15.1386)
(11.4845 14.2893 1.58605)
(114.177 24.4895 -0.600902)
(43.7892 23.8486 0.845573)
(87.197 19.5081 1.12487)
(50.7329 17.1556 0.581802)
(73.5292 8.75231 1.02719)
(53.8716 7.09232 0.634604)
(64.2969 1.02075 0.868747)
(52.389 0.806089 0.516984)
(57.3347 -2.21546 0.647149)
(50.6165 -2.10467 0.373748)
(53.4127 -3.78268 0.474947)
(50.6668 -4.03647 0.306721)
(52.6802 -5.30186 0.349813)
(52.2631 -5.44576 0.236637)
(52.6581 -5.9183 0.155791)
(52.7794 -4.56308 0.0229866)
(370.159 -13.9444 -131.667)
(-18.3015 4.02245 -3.33663)
(171.986 72.4219 -8.55948)
(5.48782 39.7604 0.708026)
(102.735 32.9808 0.273039)
(20.8121 28.9449 0.764697)
(78.9164 15.661 1.30705)
(35.1222 18.6016 0.832566)
(64.3836 7.96087 1.09217)
(40.2599 9.69272 0.364677)
(53.252 2.61905 0.32257)
(40.5824 2.91291 -0.0122323)
(47.6001 -1.80846 0.0959576)
(42.741 -2.41765 0.0693932)
(47.0704 -5.23319 0.257927)
(45.9155 -5.73602 0.245227)
(48.875 -7.39545 0.308998)
(49.1754 -7.49605 0.287691)
(49.8855 -8.27776 0.221688)
(49.7104 -6.23876 0.145455)
(296.007 -188.517 48.5938)
(60.2163 -13.759 21.2038)
(151.081 38.6859 16.5717)
(27.9698 43.3408 -2.84034)
(113.578 28.1746 -0.109894)
(52.4515 30.4087 -1.36757)
(92.4128 9.03486 0.639031)
(61.0372 18.9456 0.40222)
(77.0415 4.60231 0.793211)
(57.1082 12.4399 0.278251)
(62.6499 2.09631 0.195462)
(49.8523 4.68717 -0.207533)
(52.9189 -3.1918 -0.0126858)
(47.3303 -3.00796 -0.0746398)
(50.2871 -7.38443 0.117219)
(48.5541 -7.65516 0.0818505)
(50.8224 -9.55807 0.168633)
(50.4142 -9.29559 0.177133)
(50.4703 -9.73543 0.184688)
(48.6718 -7.31208 0.0297639)
(238.817 -51.0952 283.791)
(8.22345 90.4267 11.784)
(133.854 69.6928 6.33718)
(44.4285 71.5315 2.61191)
(111.734 32.1719 0.635714)
(55.7446 41.5357 -1.05932)
(91.1414 15.3388 0.45094)
(62.2862 23.9817 -0.334552)
(74.2066 12.3922 0.131226)
(59.2814 18.3144 -0.389004)
(61.7327 10.5756 0.167512)
(51.8444 10.7321 0.138821)
(52.4639 2.36575 0.598341)
(47.7278 -0.884304 0.231093)
(49.2831 -6.57274 -0.0125806)
(48.6378 -7.66182 -0.0975852)
(50.3192 -9.75604 -0.0790709)
(50.2654 -9.58592 -0.0622409)
(50.0399 -9.77353 0.100579)
(47.147 -6.85618 -0.0506549)
(137.507 168.208 259.707)
(-18.1237 15.3932 -10.311)
(129.823 15.3598 -3.32636)
(75.1759 32.8384 5.65088)
(139.668 30.1659 6.3939)
(101.206 41.6239 3.13641)
(106.421 7.98443 1.92786)
(73.4633 30.9331 1.30379)
(70.2046 9.34734 0.80396)
(51.5334 24.8352 0.156276)
(50.9549 9.11772 0.550813)
(42.9037 12.3372 0.463496)
(47.2593 -0.891258 0.443025)
(46.2376 -1.26136 0.228556)
(50.1596 -7.67602 0.152591)
(50.1601 -8.51554 -0.0256114)
(52.5799 -10.3751 -0.0166985)
(52.5344 -9.98766 -0.0318152)
(52.4135 -9.65795 0.121305)
(48.3014 -6.49245 -0.0138177)
(216.81 280.627 -47.23)
(71.365 88.499 -3.17197)
(138.516 -6.04033 -5.08138)
(91.1762 -1.09428 -5.62735)
(132.955 2.46487 -1.39486)
(88.1228 47.3686 0.0557827)
(92.8213 38.4948 -0.574568)
(64.8566 32.5638 1.04929)
(59.233 36.1171 0.60988)
(35.5802 26.5147 -0.175158)
(40.8981 25.5274 -0.576628)
(38.0252 10.7695 -0.698004)
(48.4262 3.34405 -0.425635)
(50.6398 -5.58856 0.113955)
(53.1942 -10.8529 0.219046)
(54.1302 -10.5269 0.154369)
(56.5968 -11.9058 0.0529854)
(57.028 -10.8331 0.0250123)
(57.582 -9.07315 0.233234)
(52.9025 -5.17756 0.155007)
(249.713 -41.3257 -112.063)
(-60.1293 34.5129 21.9765)
(120.543 45.3991 -4.6516)
(31.0063 44.3725 -5.44907)
(93.026 54.2663 -7.99324)
(74.9605 51.9992 -4.19134)
(89.3036 50.9644 0.319622)
(65.2315 39.8256 0.229364)
(51.0915 45.1562 0.319125)
(39.0876 33.4701 -0.234441)
(42.5555 26.2001 -0.537146)
(48.218 11.6301 -0.521899)
(57.1517 1.03028 -0.0550532)
(57.1721 -6.0778 0.0998714)
(56.5378 -10.5695 0.384589)
(54.2302 -12.5458 0.0944896)
(56.326 -13.4489 0.0644922)
(56.9233 -12.5355 -0.205638)
(59.2474 -9.87643 0.0114176)
(57.0307 -5.22426 0.0514685)
(178.54 50.0366 35.7576)
(94.7398 42.4941 33.7475)
(98.3535 14.0382 36.8375)
(-64.1164 33.9231 5.86581)
(50.2557 43.9199 4.86319)
(-17.4295 57.4478 -1.2628)
(43.49 69.3001 -0.79612)
(57.7479 61.1441 -0.500033)
(52.2023 49.7117 0.150298)
(49.3961 30.6127 0.0485362)
(53.744 14.8111 0.343459)
(58.1204 0.75815 0.238514)
(59.9204 -4.69651 0.213777)
(57.4367 -4.72205 0.169364)
(52.405 -10.5776 0.199576)
(46.8628 -13.4788 0.0273223)
(48.5918 -14.5518 -0.0309122)
(50.0251 -13.6014 -0.581669)
(53.4064 -12.1688 -0.969655)
(55.684 -5.76136 -0.495115)
(365.031 50.7373 90.7501)
(184.191 -19.8161 70.3807)
(176.694 47.4268 51.7356)
(38.0503 51.3554 10.8056)
(78.9828 48.2265 3.63546)
(20.7193 40.0148 -2.29484)
(22.8096 45.2152 -0.146774)
(37.8594 48.8336 0.374294)
(45.1342 43.5699 0.401739)
(54.1011 22.7205 -0.351925)
(54.7648 10.2019 -0.116693)
(51.243 -1.61237 0.130253)
(47.0707 -2.27492 -0.211668)
(45.3656 -2.43728 -0.0102045)
(42.6995 -9.51892 -0.157241)
(42.6109 -14.27 -0.221304)
(44.2137 -15.0499 -0.113006)
(45.6205 -14.2643 -0.079702)
(46.5092 -12.979 -0.759269)
(48.7282 -7.15854 -0.697136)
(154.898 -1.8642 84.956)
(-84.4177 67.6915 6.32809)
(66.0991 95.3895 13.4789)
(-83.074 72.1621 3.07135)
(38.5662 72.9024 -0.0267387)
(-37.9079 43.2226 -2.31474)
(33.6876 42.3782 -0.507986)
(55.528 44.2972 -1.04987)
(66.3264 41.0194 -0.416341)
(62.8254 30.6317 0.10971)
(52.3642 17.2182 0.0927408)
(45.7551 4.48803 -0.0405066)
(39.4283 0.762958 0.0150188)
(40.3752 -2.95067 -0.110714)
(45.2739 -10.8785 -0.439204)
(44.8226 -14.6055 -0.0376748)
(45.9017 -16.0704 0.135664)
(45.944 -15.1794 0.363891)
(44.7332 -13.0454 -0.0955698)
(43.8653 -6.35058 -0.622077)
(-85.8769 50.8966 -50.586)
(-164.043 37.4972 -3.27215)
(52.9628 45.4014 0.505824)
(-54.0987 51.311 1.20252)
(64.9996 46.458 -0.142015)
(8.64419 1.87364 -1.58552)
(38.5162 30.8525 -1.06614)
(21.2502 34.798 0.175035)
(39.7984 32.0415 0.463632)
(37.4483 23.6667 0.160054)
(45.6271 14.2856 -0.11776)
(44.0614 6.66629 -0.0150455)
(46.8552 0.391427 -0.222199)
(48.1289 -5.0507 -0.545504)
(48.8386 -10.9583 -0.329967)
(50.1069 -15.3533 -0.112437)
(49.8977 -16.2811 0.0640849)
(48.525 -15.304 0.333671)
(44.6865 -12.3604 0.250983)
(40.7858 -4.99791 -0.358714)
(102.739 -132.098 -124.656)
(-88.6254 -61.8903 6.07746)
(62.0228 27.6026 9.69753)
(-61.2672 37.1913 2.75867)
(53.5394 42.6016 2.48243)
(-25.0671 19.1382 0.649581)
(33.937 56.071 -0.0881105)
(8.82197 15.5494 0.307626)
(37.3401 27.4428 0.217943)
(33.6594 11.2873 -0.117506)
(45.9155 11.2674 -0.497512)
(45.6382 2.87198 -0.888804)
(51.7059 0.70106 -1.29871)
(52.5013 -7.06317 -1.08801)
(55.4236 -10.6957 -0.334731)
(53.843 -15.1008 0.28083)
(51.5322 -15.0615 0.202229)
(47.8017 -12.4618 0.0461469)
(44.0752 -8.92887 -0.0131443)
(39.0111 -2.986 -0.242568)
(178.09 -64.9248 182.818)
(-1.83123 -23.6058 24.1783)
(104.264 13.9711 12.8312)
(4.72532 31.4667 6.59327)
(81.5045 17.5167 6.4975)
(13.1428 8.24093 1.8975)
(55.9905 14.3474 2.4748)
(36.6352 9.66237 0.0713627)
(52.697 11.9967 0.0271885)
(49.3807 7.86924 -0.914367)
(56.1656 7.15314 -1.1156)
(55.7257 3.29556 -1.73232)
(59.6333 0.468534 -1.68142)
(59.9591 -7.00094 -0.977527)
(59.9907 -10.8305 0.0309888)
(55.8354 -13.5902 0.629383)
(48.1371 -11.0202 0.527503)
(42.7265 -9.06395 0.0375588)
(39.2914 -6.19182 -0.291374)
(35.9514 -1.906 -0.295204)
(51.1503 -30.3582 -34.4725)
(18.3665 -45.3711 -16.2307)
(101.262 -21.1634 2.96366)
(70.4457 8.10692 4.87316)
(93.7572 26.5657 12.0123)
(41.5647 23.7885 5.81047)
(63.757 30.0308 4.94958)
(41.5864 15.7435 1.3358)
(60.6223 19.156 1.11317)
(54.8556 11.9924 -0.0368879)
(64.1622 12.5665 -0.188531)
(61.5824 8.13975 -0.906309)
(65.7772 4.75883 -0.760386)
(61.7718 -3.95685 -0.0103844)
(59.4701 -7.19862 1.15582)
(52.0694 -7.11507 1.15659)
(45.7153 -4.48869 0.791654)
(40.677 -4.39104 0.295994)
(37.8085 -3.48204 -0.101394)
(34.3609 -1.63818 -0.229528)
(107.628 -150.905 -138.362)
(-65.2748 -75.0171 -16.5285)
(63.4135 -15.3413 -0.516412)
(-39.0345 -2.76073 -3.18573)
(57.7811 2.27511 1.5959)
(5.82403 0.234107 0.663424)
(60.3716 -0.373984 1.74437)
(43.4617 -2.8249 0.681683)
(66.7802 -0.0890377 1.67611)
(63.2471 0.660873 1.20405)
(72.9998 4.75272 1.53088)
(72.303 5.28527 1.2618)
(74.2017 4.10198 1.16453)
(66.4085 -2.4961 1.22803)
(55.6675 -7.17712 1.52695)
(45.0117 -6.71255 0.790744)
(41.2733 -3.7823 0.456127)
(37.0031 -3.35915 0.283211)
(34.495 -2.29296 0.209549)
(30.3819 -0.91796 -0.17837)
(50.8838 67.5886 -143.02)
(-115.499 68.6569 -24.4028)
(69.2241 18.5625 -27.2632)
(9.4868 10.3681 -5.92634)
(75.8873 3.63676 -3.34198)
(44.0192 2.33085 -3.25442)
(76.1116 1.88542 -1.15097)
(60.052 -2.82264 -1.59876)
(76.062 -1.26878 -0.261939)
(70.4124 -3.41696 -0.690891)
(80.1283 -1.03492 -0.218815)
(82.0015 -0.42848 -0.44221)
(87.6115 5.07062 0.163243)
(84.7781 5.87312 0.860916)
(73.1391 5.22497 1.84843)
(56.4047 2.10529 1.12543)
(50.2284 1.09005 0.201298)
(44.5811 0.152072 0.443956)
(40.0913 -0.848941 0.809502)
(31.7503 -0.296332 0.325754)
(-19.7251 -69.7585 113.331)
(-183.622 25.0758 11.9238)
(36.2998 28.4986 -10.9831)
(-54.1154 10.2915 -1.36435)
(57.688 12.793 -3.58664)
(9.31241 2.43335 -2.04486)
(58.216 2.05315 -0.345745)
(36.8944 -4.31739 -0.554029)
(57.2832 -3.29926 0.949602)
(47.126 -5.06577 0.286231)
(56.7534 -2.24228 0.345687)
(52.5688 -1.43599 -0.338745)
(57.5815 1.74832 0.402134)
(55.3687 4.38167 0.52383)
(55.4218 8.99512 0.316472)
(53.7363 8.61189 -0.711556)
(54.9442 6.83486 -1.65423)
(57.7685 3.21507 -1.54137)
(59.2153 3.02487 -0.0801123)
(53.5477 2.27268 0.615056)
(-113.221 -164.929 -73.2333)
(-98.2488 7.72885 -60.5703)
(78.0005 -18.2768 -16.0271)
(-12.4063 -7.84749 -1.19641)
(72.0096 -7.91312 -3.74785)
(34.4589 -4.07616 -4.25209)
(71.7431 -7.49169 -2.29636)
(50.7797 -9.64566 -3.21083)
(64.3897 -9.27295 -0.548116)
(47.9551 -7.81786 -1.23459)
(53.8452 -3.97836 -0.614624)
(47.6778 -0.786843 -1.10048)
(53.2442 1.73775 -0.894373)
(54.3586 4.61767 -0.699952)
(62.0225 6.70289 -0.527424)
(70.4497 7.1693 -1.73404)
(85.172 6.52815 -2.07595)
(96.3735 2.72812 -2.47062)
(103.587 -0.593516 -2.42343)
(108.579 -2.24774 -1.60268)
(264.06 -78.7063 27.3074)
(124.475 -82.9174 40.3417)
(231.595 -22.2971 64.4212)
(148.621 19.2073 38.0026)
(149.171 34.0415 14.2712)
(94.393 20.9307 1.29679)
(104.141 18.0767 -3.73446)
(71.3844 9.5785 -5.31109)
(82.2931 7.04717 -4.68018)
(63.8075 3.07233 -4.14144)
(73.1415 0.240329 -2.01591)
(64.725 -1.64611 -1.38294)
(71.6835 -3.26845 0.140112)
(68.9007 -3.78489 0.376188)
(73.8104 -4.2633 1.1416)
(73.8864 -3.77851 1.07512)
(77.6761 -3.67479 1.19577)
(79.2139 -3.12758 0.741721)
(80.6085 -2.6132 0.454169)
(81.6915 -2.13072 0.342957)
(89.4017 -169.47 -13.19)
(-62.0052 -32.8319 -36.1335)
(87.056 5.1849 -35.6801)
(-14.5549 15.9871 -7.70797)
(88.352 27.1512 -6.24393)
(26.0342 12.3348 -0.600736)
(78.3078 13.3807 0.164118)
(40.2801 7.57152 -0.710076)
(67.1152 4.88779 0.716878)
(47.1508 2.04737 0.00217035)
(60.9165 -0.683901 1.43468)
(49.9357 -1.65211 0.731468)
(56.2205 -2.49382 1.58147)
(49.8539 -2.67442 1.05113)
(52.5618 -2.75483 1.31537)
(49.7235 -2.89919 0.796941)
(51.4799 -3.16168 0.742398)
(50.8766 -3.24006 0.423616)
(51.2446 -3.25592 0.401457)
(50.9346 -2.52096 0.158615)
(68.4764 -149.325 115.826)
(23.0672 -111.885 -22.1406)
(123.228 -11.2711 -37.5398)
(2.33443 10.2671 -4.78809)
(101.155 21.881 -4.51915)
(26.7906 20.5874 1.18946)
(78.1342 15.1731 1.629)
(36.7182 13.7649 0.770802)
(63.1826 5.95887 1.75094)
(40.1832 6.22336 0.815747)
(52.8021 0.841509 1.37378)
(39.4523 1.87053 0.602265)
(45.986 -1.00544 0.958183)
(39 -0.485412 0.365508)
(42.8069 -2.16486 0.676429)
(40.0155 -2.21674 0.321674)
(42.4513 -3.38708 0.46568)
(41.9232 -3.42824 0.194469)
(42.3674 -3.76898 0.0738484)
(41.6813 -2.80322 -0.265972)
(401.516 109.808 77.2656)
(11.5756 -12.3875 28.1934)
(131.769 56.601 0.685691)
(-21.4105 20.8275 -0.987306)
(92.8608 26.8568 -1.63932)
(6.37858 23.8882 1.39373)
(71.4534 11.7707 1.61434)
(23.6355 15.8727 1.00329)
(55.8139 5.46959 1.5166)
(29.4384 8.63716 0.292844)
(44.0114 1.9419 0.516479)
(30.3265 3.42198 -0.104354)
(38.0298 -0.787967 0.236051)
(32.5621 -0.547801 0.0965033)
(37.1513 -2.90924 0.436915)
(35.5397 -2.9979 0.322317)
(38.3763 -4.3662 0.433931)
(38.2896 -4.27525 0.297708)
(38.8357 -4.81387 0.177647)
(38.1887 -3.31403 -0.105594)
(222.947 4.76593 -136.249)
(-119.186 31.4552 11.9263)
(154.535 20.9469 11.6505)
(-3.7324 23.6769 -0.690265)
(105.193 15.4748 1.27181)
(29.6296 27.7797 -0.794173)
(78.9303 8.03186 1.80398)
(41.6661 22.0227 0.492836)
(62.2549 5.81959 1.25514)
(39.7574 14.8101 0.221017)
(48.0507 2.72237 0.419935)
(34.8456 6.20509 -0.215349)
(39.9856 -1.85022 0.190208)
(34.2021 -0.362672 -0.0377101)
(38.0464 -4.32317 0.274872)
(35.9433 -3.74755 0.1352)
(38.3736 -5.3877 0.294633)
(37.6835 -4.82082 0.186718)
(37.8755 -5.41523 0.137556)
(36.2975 -3.66335 -0.253142)
(138.993 -34.3854 -31.7741)
(5.34743 54.9627 -6.2289)
(130.057 13.8306 -6.03539)
(29.3837 37.1812 1.29277)
(101.243 10.2216 -1.70175)
(27.7424 34.1623 -1.48955)
(73.7678 8.57722 0.697594)
(37.7085 25.4158 -0.520124)
(54.6779 11.5992 0.469226)
(37.1852 19.0271 -0.582579)
(42.9084 8.35193 0.564354)
(34.2179 9.20638 0.1665)
(37.5576 0.852929 0.808206)
(34.7413 0.212217 0.297444)
(36.5028 -4.17177 0.124862)
(35.6656 -4.06114 -0.0304329)
(37.2356 -5.61275 0.015815)
(36.8032 -4.89136 -0.0104833)
(36.6573 -5.24978 0.0949497)
(34.4634 -3.33031 -0.341549)
(189.33 202.155 7.60927)
(66.3325 30.8624 12.5207)
(142.194 4.70284 7.56675)
(75.6073 23.6032 8.79959)
(128.81 26.0022 9.05121)
(74.3895 40.2523 3.3317)
(80.8729 5.1616 2.88623)
(46.885 35.3307 2.05021)
(50.3204 8.88186 1.81752)
(33.4856 25.2833 0.397166)
(37.9698 6.34711 0.972983)
(31.6027 11.1647 0.57541)
(36.9569 -0.915773 0.534915)
(35.2291 0.831628 0.210018)
(38.7169 -4.93019 0.261487)
(37.9641 -4.70903 0.073773)
(39.646 -6.05621 0.127917)
(38.7728 -5.24659 0.0727482)
(38.2165 -5.17858 0.239078)
(34.8282 -3.08119 -0.257923)
(197.249 58.6858 7.03951)
(119.427 -27.2079 3.88289)
(157.436 -27.938 -4.83169)
(77.4223 12.9664 -8.47042)
(108.409 26.474 -1.79603)
(47.3501 68.9557 -0.433608)
(62.332 42.1969 3.26413)
(37.5948 38.1544 5.17565)
(40.4632 30.9854 2.65133)
(26.8548 24.6799 -0.72611)
(33.5246 17.3014 -0.320575)
(31.7788 8.88865 -0.862231)
(39.393 1.89878 -0.545237)
(39.966 -2.57911 0.0934126)
(41.7322 -6.65998 -0.0325709)
(42.8199 -5.75888 0.144267)
(44.1131 -6.3655 0.167838)
(43.5149 -4.82493 0.210081)
(42.437 -3.81848 0.44632)
(37.9624 -1.74898 0.0539889)
(141.193 -67.6383 -131.139)
(11.9607 -36.9402 4.73468)
(115.783 26.0821 -18.3109)
(30.1495 41.6513 -10.2005)
(75.7263 59.7187 -12.4697)
(49.3208 64.7412 -10.2384)
(60.9504 59.3793 -2.05008)
(40.8729 41.073 2.61272)
(36.2664 37.6154 2.12665)
(31.8279 25.8929 0.250892)
(38.3239 16.7355 -0.285982)
(41.383 6.08611 -0.701434)
(46.0861 -0.146375 -0.116966)
(46.1256 -4.23527 0.0136927)
(46.9174 -6.84831 0.0750973)
(44.3388 -7.34474 -0.137665)
(45.7503 -7.02268 0.0100022)
(45.2727 -5.14713 -0.25854)
(45.3732 -2.5189 0.0701456)
(41.4656 -0.625282 -0.113253)
(87.5913 -43.4539 -50.1645)
(-130.047 32.5192 9.44321)
(65.9848 32.7479 27.183)
(-80.1819 43.4415 4.41326)
(41.6752 51.3884 1.64986)
(-9.40368 60.0674 -2.98923)
(34.8742 68.5794 -3.88384)
(41.5097 52.6982 1.52244)
(39.5273 37.7713 1.18852)
(40.922 22.0569 0.733214)
(44.8513 11.6646 1.03394)
(48.2378 3.28022 1.04267)
(49.4315 -0.847625 0.750147)
(47.8613 -4.02912 0.356741)
(43.671 -7.58605 0.321378)
(39.4413 -7.61542 -0.382862)
(41.3238 -7.36554 -0.481741)
(42.1695 -5.63266 -1.03516)
(43.5576 -2.62759 -1.15329)
(41.4532 0.156921 -0.769537)
(190.478 -33.5158 -19.6613)
(-132.544 31.0693 -38.0116)
(103.589 74.2758 3.14888)
(-13.0301 59.6975 4.33073)
(54.6291 53.1212 0.930841)
(6.88376 44.006 -1.33956)
(20.2543 44.0087 3.16722)
(34.7678 44.5847 2.03651)
(40.3881 34.9675 1.123)
(43.2276 19.6874 -0.0152285)
(42.889 9.32545 0.410842)
(41.1908 2.50785 0.101424)
(38.5616 0.867736 -0.35418)
(36.6911 -2.16915 0.199088)
(34.5986 -6.82396 -0.35279)
(32.9782 -8.81033 -0.769746)
(34.5492 -8.32975 -0.409959)
(36.1076 -7.56175 -0.579854)
(37.881 -4.56424 -1.29714)
(37.1889 -0.593346 -1.11326)
(119.296 95.255 132.131)
(-187.333 109.29 -22.1616)
(30.9538 93.6986 -3.20629)
(-94.001 71.7077 2.53263)
(21.0967 65.259 -2.61408)
(-43.612 34.6847 -1.3248)
(22.044 34.2471 -0.268369)
(35.9053 38.4471 -1.57007)
(40.007 31.2059 -0.315852)
(38.2634 21.2238 0.911113)
(35.031 12.2026 0.131135)
(31.4766 5.67832 -0.151325)
(30.3606 1.79287 -0.271849)
(31.39 -2.5267 -0.499782)
(32.6959 -7.99132 -0.925689)
(30.8841 -9.16484 -0.372702)
(32.5988 -9.30057 0.0347618)
(33.2945 -8.09715 0.157257)
(33.7884 -5.34279 -0.554311)
(32.4601 -0.822309 -1.11413)
(-13.4215 -185.701 32.1541)
(-142.915 52.188 -14.1549)
(31.7987 57.0683 -9.88083)
(-69.6391 53.4441 1.30805)
(52.3344 39.6159 -2.84706)
(-9.16674 -3.67206 -2.1923)
(22.9959 29.8525 1.02515)
(6.54493 27.7962 0.540394)
(25.8668 24.3789 0.706329)
(21.6573 17.8929 0.0944663)
(29.5697 10.7133 -0.376003)
(28.1543 5.26869 -0.477974)
(32.1394 -0.137591 -0.831021)
(32.3264 -4.71427 -0.957626)
(30.9781 -8.00073 -0.678416)
(32.5813 -10.3125 -0.0166218)
(32.7397 -9.94673 0.238833)
(32.531 -8.35787 0.38923)
(31.0974 -4.80739 -0.0800744)
(28.6406 -0.870305 -0.80166)
(125.071 23.8803 -15.0322)
(-133.356 4.33504 29.1594)
(31.2914 50.8482 8.12056)
(-84.5823 32.0051 2.72452)
(43.9706 33.055 0.451572)
(-37.768 10.0692 1.48968)
(23.399 48.5171 0.354546)
(-2.42719 6.97375 0.527193)
(25.7033 22.2593 -0.0396518)
(19.7489 6.59093 -0.442292)
(30.7666 8.69689 -0.706609)
(28.9942 0.487986 -1.37555)
(33.0152 -0.969961 -1.44302)
(32.1373 -7.0591 -0.851477)
(33.6953 -8.55604 -0.130465)
(33.3324 -10.8292 0.515038)
(33.1003 -9.11211 0.316329)
(30.9488 -6.54277 0.107741)
(29.194 -2.87999 -0.212756)
(26.4007 -0.147489 -0.486219)
(27.3538 -149.556 127.978)
(-116.874 22.4976 -12.1783)
(69.5648 29.0632 0.0356622)
(-40.5483 21.5578 4.40928)
(64.3181 7.81482 4.85365)
(-9.45645 3.03121 0.0496443)
(44.5211 13.122 2.87417)
(21.3879 7.97407 -0.949421)
(37.9649 11.2579 0.0549011)
(31.5726 6.4382 -1.5417)
(37.384 5.85151 -1.39285)
(34.752 1.11645 -2.36427)
(36.9534 -2.3429 -1.65032)
(35.2699 -8.34718 -0.675413)
(35.8929 -9.5432 0.299697)
(33.7876 -10.1899 0.891492)
(30.7212 -6.96063 0.637032)
(27.9719 -5.01861 -0.00161383)
(26.1453 -2.17375 -0.43327)
(24.0045 -0.0643391 -0.428459)
(2.37712 -26.1265 26.8601)
(-126.702 39.9656 9.47127)
(57.4284 21.2105 15.275)
(-11.2772 32.203 5.83902)
(61.0975 32.3015 13.9416)
(8.86291 21.472 4.04583)
(48.4728 26.9804 5.8641)
(24.0639 11.6496 0.596001)
(44.8367 15.6143 1.56597)
(35.3158 6.88295 -0.530142)
(43.8594 7.13995 -0.310348)
(38.5613 1.04416 -1.51463)
(40.9503 -2.01269 -0.447266)
(36.1579 -7.39249 0.447133)
(36.6475 -7.17324 1.54598)
(32.7277 -5.93433 1.49979)
(29.9902 -2.73903 1.06077)
(27.0634 -2.34922 0.299244)
(25.3604 -1.2364 -0.224977)
(22.9123 -0.245725 -0.350955)
(86.8359 -54.653 -158.01)
(-77.9376 -34.8967 -34.0405)
(61.5478 -19.2227 -16.8701)
(-54.7844 5.42187 -4.99847)
(50.3355 8.3173 1.10744)
(-7.79501 8.94345 -0.172957)
(48.4996 7.74618 2.33663)
(26.3717 4.75762 0.171479)
(50.3473 6.27377 2.37753)
(43.4448 4.56496 1.01364)
(52.4152 5.687 1.66746)
(48.5569 3.3525 0.957182)
(49.4121 0.328161 1.49629)
(40.669 -4.93898 1.84704)
(36.1338 -5.58498 2.32747)
(29.2577 -3.85475 1.18907)
(27.503 -1.15144 0.707661)
(24.6229 -0.902384 0.345885)
(23.0594 -0.34577 0.14534)
(20.0889 0.145994 -0.331456)
(158.42 -133.698 85.3765)
(26.6077 50.038 -26.6672)
(65.7421 25.915 -41.8484)
(4.49473 19.5635 -11.919)
(64.6149 11.3583 -6.41074)
(27.0972 9.2749 -5.40279)
(60.5396 8.09617 -0.994328)
(40.9044 3.41551 -2.59492)
(57.8981 5.7621 0.166619)
(49.2611 3.33283 -1.16765)
(57.8858 5.90088 -0.212747)
(54.6611 4.39946 -0.829995)
(57.2354 5.91327 0.365871)
(50.6434 4.22698 1.70238)
(44.0982 3.60247 3.38107)
(35.3118 1.86072 1.73213)
(32.3618 1.9296 0.461038)
(28.9639 1.50682 0.62704)
(26.765 1.05302 0.925258)
(21.7163 0.749848 0.16104)
(-23.8905 18.3384 211.258)
(-128.592 9.67734 -15.8735)
(21.3392 21.1129 -24.2291)
(-49.611 6.93303 -4.67428)
(49.1263 10.1482 -5.63331)
(-1.77209 2.51584 -3.13883)
(46.3307 4.93483 0.28212)
(20.251 0.300084 -1.09311)
(43.3391 3.28323 1.28009)
(31.7729 1.32985 -0.54948)
(42.6215 3.73923 0.0226338)
(36.5995 3.13652 -0.957883)
(40.5054 4.85189 0.439931)
(37.0214 5.56963 0.32808)
(38.1756 7.27493 0.00755796)
(36.4252 6.43081 -1.28064)
(37.3389 4.67913 -1.95808)
(37.0236 3.62933 -1.60421)
(37.293 4.35551 0.459955)
(33.5317 3.42013 1.08395)
(180.72 51.3015 28.316)
(42.6333 76.3406 -3.41098)
(80.454 -4.21532 -16.3648)
(-10.6673 -5.12167 -1.92705)
(60.4271 -4.89445 -5.2857)
(3.99935 0.207712 -4.60759)
(45.2621 -0.978148 -0.646087)
(12.5994 -0.986411 -4.05764)
(36.528 1.93037 -0.0157599)
(23.0033 2.76982 -1.96868)
(37.0702 5.75078 -0.149757)
(33.3876 6.18122 -0.642706)
(41.4838 7.65117 0.359899)
(42.6068 6.97717 0.299768)
(50.8418 6.42881 0.714135)
(55.9689 3.72729 -1.43645)
(61.4135 0.86409 -2.80762)
(63.3697 -0.598772 -3.03448)
(63.2371 0.0587363 -2.60144)
(64.0665 2.03741 -1.58574)
(209.369 37.0616 -127.15)
(15.0475 40.0274 29.2853)
(181.03 36.4623 31.6781)
(116.985 37.2658 24.6234)
(138.101 34.4017 11.5877)
(87.0064 17.7336 0.726576)
(100.507 14.7491 -2.56925)
(64.8417 6.70092 -4.73889)
(76.3595 4.95033 -3.38714)
(54.1387 1.4552 -3.35757)
(64.3653 -0.92685 -0.986739)
(54.1158 -2.15153 -0.76903)
(61.9736 -3.23149 0.829913)
(58.5193 -3.14396 0.793522)
(64.0111 -3.23256 1.57931)
(63.9833 -2.562 1.19854)
(68.214 -2.46916 1.33756)
(69.7923 -1.99196 0.852542)
(71.0573 -1.81698 0.60964)
(71.8893 -1.57714 0.47509)
(77.0177 -42.6721 84.3371)
(-11.7749 -28.859 -0.243016)
(81.0014 -9.65074 -23.4147)
(-9.54715 9.70622 -4.5607)
(80.6653 21.2812 -5.03525)
(14.0422 8.18111 -1.05011)
(70.7604 9.78727 -0.12811)
(27.2167 4.01815 -1.03051)
(57.6756 2.0174 0.684269)
(33.6663 0.182599 -0.258669)
(49.2631 -1.6783 1.19617)
(36.0065 -1.64264 0.342958)
(43.8118 -1.95032 1.22289)
(37.108 -1.73093 0.592651)
(41.183 -1.63003 0.886721)
(38.5796 -1.72541 0.427045)
(41.0801 -1.94378 0.444458)
(40.581 -2.02086 0.093833)
(41.0445 -2.04212 0.0949826)
(40.3264 -1.53347 -0.300706)
(273.507 -71.394 3.9645)
(212.421 -86.9196 -5.13295)
(157.709 -8.73393 -12.6282)
(13.6635 7.59364 -0.354625)
(92.6714 20.2158 -2.77678)
(14.9328 18.6173 1.3749)
(70.3171 13.0038 1.50755)
(24.9848 12.6506 0.742218)
(54.4953 5.21293 1.67577)
(28.6363 6.77607 0.649145)
(43.2375 1.50246 1.28609)
(28.5016 3.20136 0.530432)
(36.3134 0.145427 0.829077)
(28.79 0.878208 0.325075)
(33.3033 -0.899626 0.544237)
(30.1771 -0.840579 0.183705)
(32.8955 -1.97652 0.342215)
(32.1187 -1.98274 0.00453258)
(32.4784 -2.37467 -0.120619)
(31.3812 -1.7122 -0.641942)
(287.893 154.487 103.549)
(-21.5501 33.1245 41.5558)
(121.927 67.0585 9.91656)
(-26.0179 19.7146 -0.332148)
(82.3879 26.0332 -1.68779)
(-4.14989 21.2453 2.18673)
(63.4321 9.86553 1.07778)
(12.8245 14.868 0.821498)
(47.5901 4.5763 1.10596)
(19.4708 8.92579 0.123607)
(35.7414 2.23561 0.49616)
(21.1692 4.47837 -0.228344)
(29.6553 0.362871 0.248343)
(23.4707 1.06772 0.0679556)
(28.254 -1.20818 0.393326)
(26.0769 -1.10487 0.239174)
(28.8634 -2.38881 0.343612)
(28.3936 -2.2575 0.136035)
(28.8292 -2.8221 -0.0223454)
(27.9317 -1.76985 -0.549796)
(3.47398 93.0745 -26.3759)
(-175.973 35.7897 21.5051)
(107.134 -2.57675 1.03285)
(-33.8824 16.4868 4.52815)
(94.5628 11.9979 1.41037)
(11.8024 27.4746 0.237433)
(68.5223 7.35855 1.63884)
(26.3999 23.4828 0.357079)
(50.9429 5.60771 1.19405)
(26.5536 15.8192 0.132276)
(37.5308 2.78217 0.480223)
(23.8137 7.46728 -0.0982392)
(30.3621 -0.537577 0.261394)
(24.0528 1.86098 -0.0348013)
(28.3081 -2.04273 0.249259)
(25.7149 -1.08064 0.0914334)
(28.1969 -2.78012 0.236063)
(27.2307 -2.20037 0.0511549)
(27.4454 -3.06643 -0.0537536)
(26.0151 -1.78696 -0.679692)
(136.942 57.0104 56.4173)
(54.977 8.91761 -3.89225)
(123.799 -11.0038 6.85757)
(18.824 21.4718 5.52393)
(90.4347 5.95466 1.6035)
(8.93538 34.6079 -0.373396)
(62.043 6.55661 0.441282)
(20.9415 27.2084 -0.411787)
(41.8675 10.5047 0.405058)
(22.6086 19.1953 -0.659463)
(30.9059 7.0016 0.478454)
(22.2824 9.3132 0.0648432)
(27.0414 1.29007 0.62135)
(24.1251 2.05654 0.163309)
(26.2911 -1.93814 0.155342)
(25.1915 -1.24318 -0.0211648)
(26.7441 -2.82103 0.0175487)
(26.0923 -2.08195 -0.0794096)
(25.9807 -2.82566 -0.0664455)
(24.2363 -1.56223 -0.758699)
(87.2442 192.009 117.483)
(14.1483 -22.1503 48.0872)
(124.55 -9.94041 23.5545)
(45.3788 17.0955 9.39052)
(105.437 23.4594 11.3305)
(43.1855 40.7352 3.44334)
(60.1402 2.88254 3.44217)
(27.499 38.3663 1.75711)
(37.1552 7.44695 1.65919)
(21.4582 25.0357 0.267812)
(28.5377 4.93244 0.790294)
(21.9993 11.5476 0.428337)
(27.6456 0.00127601 0.475717)
(25.1677 3.15527 0.336495)
(28.4993 -2.36179 0.320881)
(27.1786 -1.57827 0.162455)
(28.5795 -3.03023 0.156369)
(27.3395 -2.16464 0.026211)
(26.7388 -2.64203 0.0973167)
(24.0947 -1.35594 -0.711041)
(311.228 -83.539 138.919)
(147.523 -61.2811 39.1764)
(165.985 -31.8536 7.96174)
(58.5394 21.9959 -3.96337)
(89.2676 35.6687 2.8947)
(18.6153 74.0448 -0.148668)
(38.7783 35.7883 3.98268)
(18.0342 42.4336 3.93015)
(27.2402 24.7071 1.93511)
(18.304 24.1217 -0.785832)
(26.2141 13.2073 -0.621562)
(23.9147 9.41577 -0.779847)
(30.3781 2.61306 -0.423503)
(29.815 0.708858 0.0979828)
(30.6491 -3.11841 0.382139)
(31.3383 -1.61428 0.343004)
(31.7789 -2.39709 0.311431)
(30.7581 -1.09637 0.292908)
(29.3298 -1.09322 0.375653)
(25.846 -0.215384 -0.442105)
(127.977 -18.766 -65.7166)
(55.9466 27.3543 -10.2681)
(118.18 40.1374 -21.9824)
(30.1798 44.2264 -12.3571)
(64.8015 59.9166 -11.1002)
(28.2288 69.5416 -8.71038)
(34.915 55.2581 -1.04317)
(19.3006 38.0334 3.21082)
(26.4033 31.3579 1.52693)
(24.618 21.3831 -0.089639)
(31.2692 13.1105 -0.650031)
(32.0353 5.87612 -0.722719)
(35.5589 1.40572 -0.164338)
(35.3407 -1.25952 0.133831)
(35.9899 -2.89332 0.178082)
(32.8094 -2.61618 0.265945)
(33.6746 -2.08664 0.223262)
(32.682 -0.466593 -0.117923)
(31.7781 0.821382 -0.0165458)
(28.0267 1.1631 -0.591216)
(122.15 -65.1663 68.8836)
(-106.018 40.8118 16.3623)
(52.0562 45.5048 14.0261)
(-70.018 49.218 3.9129)
(27.638 54.2021 -2.01142)
(-16.6032 61.8642 -1.42489)
(22.2013 64.6158 -2.88519)
(28.3216 43.3745 1.97284)
(30.1949 29.824 1.22037)
(32.3848 18.312 0.582623)
(35.5071 10.7141 0.626571)
(37.4313 4.94479 0.88332)
(37.5743 1.50231 0.776439)
(36.3117 -1.61475 0.525926)
(33.6267 -3.50052 0.348787)
(29.911 -2.56068 -0.246349)
(31.1611 -2.06559 -0.475078)
(31.1502 -0.539359 -0.860943)
(31.0858 1.45037 -0.949742)
(28.134 2.19317 -1.15843)
(175.508 22.1196 -2.95013)
(-73.5569 47.655 37.7334)
(54.8928 76.5533 -9.11013)
(-29.08 61.7977 5.26104)
(39.0002 53.1798 0.286711)
(-6.03836 43.6341 -0.639688)
(12.4146 42.3107 2.88313)
(26.7623 39.2957 2.34165)
(30.9113 28.8053 1.07637)
(32.6989 17.4241 0.896433)
(33.9357 11.505 2.25582)
(32.4983 5.92128 -0.314677)
(29.201 2.99413 -0.120411)
(28.2145 -0.606727 0.275266)
(26.4843 -3.51452 -0.282731)
(23.7115 -4.18048 -0.537367)
(25.1636 -3.33438 -0.492061)
(26.4356 -2.67468 -0.777422)
(27.2925 -0.00389708 -1.18771)
(25.3043 1.6844 -1.49442)
(183.575 84.4114 4.60244)
(-125.325 93.9278 8.68894)
(15.6181 95.5568 -4.23818)
(-89.1986 67.3729 4.7276)
(7.77297 59.7207 -3.77433)
(-47.6114 30.702 0.46561)
(12.1642 31.8535 0.70606)
(21.4358 34.8131 -0.364298)
(24.3557 26.5767 0.375176)
(24.3262 18.8756 0.588968)
(23.5397 12.0677 0.0102936)
(22.1171 7.23883 -0.265433)
(22.2241 3.04715 -0.409084)
(22.8269 -0.941233 -0.565183)
(22.7909 -4.71108 -0.715913)
(20.1487 -4.74886 -0.178655)
(21.8875 -4.48124 -0.0211452)
(22.7364 -3.52041 -0.123929)
(23.423 -1.06046 -0.74057)
(21.5781 1.15659 -1.51893)
(54.7766 51.1121 113.548)
(-119.031 63.7668 11.3869)
(24.425 65.039 -4.68356)
(-68.3959 51.956 4.42301)
(41.3995 36.1515 -2.94959)
(-22.0015 -4.90715 -1.44975)
(10.7787 32.1808 1.1815)
(-4.03205 24.8904 1.11769)
(14.8499 22.4957 0.675097)
(10.3235 15.7855 -0.0582612)
(18.2735 10.5567 -0.389202)
(16.6755 5.30026 -0.603431)
(20.4157 0.921351 -0.834756)
(19.9392 -3.24031 -0.908818)
(17.8918 -4.42918 -0.293612)
(19.8268 -6.13269 0.0214874)
(20.3168 -5.09043 0.088904)
(20.7274 -3.9364 0.105107)
(20.2054 -1.07498 -0.386827)
(18.2861 0.596739 -1.31834)
(-115.175 42.3311 229.907)
(-203.913 15.45 16.851)
(9.83383 50.5125 11.1888)
(-84.9465 27.9078 4.46312)
(31.1763 29.0575 -1.71508)
(-47.6392 8.03511 2.39967)
(13.65 46.0454 0.622499)
(-13.9711 3.5176 0.820863)
(14.923 21.3926 0.302847)
(7.13546 5.22143 -0.463222)
(17.9781 8.98372 -0.531781)
(15.0434 0.484624 -1.32892)