/*--------------------------------*- C++ -*----------------------------------*\
  =========                 |
  \\      /  F ield         | OpenFOAM: The Open Source CFD Toolbox
   \\    /   O peration     | Website:  https://openfoam.org
    \\  /    A nd           | Version:  10
     \\/     M anipulation  |
\*---------------------------------------------------------------------------*/
FoamFile
{
    format      ascii;
    class       volScalarField;
    location    "4.2";
    object      k;
}
// * * * * * * * * * * * * * * * * * * * * * * * * * * * * * * * * * * * * * //

dimensions      [0 2 -2 0 0 0 0];

internalField   nonuniform List<scalar> 
12920
(
1844.05
2558.62
1929.63
1389
976.975
605.891
366.312
268.454
223.813
210.55
201.428
192.237
178.279
160.859
144.658
128.831
117.052
100.98
93.861
78.6888
491.997
1696.77
1676.94
1155.65
687.324
522.693
428.606
406.259
370.799
354.44
324.042
303.176
276.466
255.282
231.188
209.056
186.346
172.687
162.014
137.566
439.273
2238.14
2360.23
1705.27
972.363
642.796
475.078
411.089
357.541
336.053
309.574
299.235
281.34
271.316
255.827
243.583
231.115
217.747
205.056
169.537
1620.53
1889.6
1908.77
1163.51
679.834
487.176
379.444
330.099
285.745
265.266
253.28
252.619
252.67
252.362
249.334
244.736
240.978
232.05
215.198
174.127
787.583
971.234
1220.36
986.055
660.02
477.572
390.901
330.261
279.828
247.76
224.609
214.755
212.301
213.987
218.832
220.513
220.137
213.754
200.053
167.255
382.462
1547.55
1616.22
1164.96
823.975
671.001
569.712
467.334
386.997
312.946
254.189
216.569
195.787
185.991
184.944
185.294
184.954
180.319
171.596
147.665
3682.8
3436.47
2093.57
1277.63
882.489
768.128
683.597
612.385
528.724
418.554
326.647
254.558
204.496
174.506
160.599
155.644
154.034
149.877
142.735
124.07
8622.18
7008.1
3304.07
1543.9
900.345
741.197
479.619
368.414
351.504
291.828
235.793
201.187
168.733
135.57
189.331
157.877
142.76
131.617
119.888
105.573
8822.06
4851.52
3423.07
1988.72
1108.61
577.949
307.544
132.685
128.356
127.263
126.523
136.674
130.99
114.94
161.957
181.623
146.069
122.378
106.611
95.9293
888.294
3382.42
2966.52
1551.87
910.138
480.391
276.296
187.329
143.304
133.347
132.95
120.961
116.835
107.126
153.003
164.1
134.897
114.386
105.189
97.0955
1935.76
1884.85
1801.18
1205.31
917.183
513.896
257.964
124.063
128.574
166.237
186.694
172.542
145.579
117.465
167.779
164.278
120.521
108.43
106.106
102.307
568.567
845.158
956.828
1057.86
1006.07
577.871
305.624
173.439
150.998
156.951
168.728
169.063
158.917
138.518
215.404
197.066
145.2
129.324
127.026
121.14
358.833
1038.34
1420.12
1275.28
976.411
852.195
518.825
328.381
277.18
248.131
219.288
193.846
163.406
156.62
239.189
191.277
162.876
153.947
152.226
143.337
115.121
818.897
899.496
898.987
887.93
860.074
716.304
524.707
414.405
349.112
293.183
245.444
213.263
192.831
175.661
164.206
158.304
157.267
159.248
156.797
349.367
856.004
860.183
844.476
802.988
788.236
721.673
514.706
386.798
338.984
297.716
263.832
232.105
208.986
189.505
176.566
170.594
169.144
168.43
160.871
17669.9
7601.64
3428.58
1796.86
1108.59
731.49
492.571
356.697
287.384
261.689
242.884
231.589
215.009
204.907
194.431
184.797
178.908
171.904
167.309
150.407
3263.14
3346.69
2336.52
1372.89
818.299
579.349
415.507
317.24
247.268
205.732
186.717
179.449
176.323
175.216
173.404
168.608
163.751
153.21
143.959
119.142
897.533
976.725
881.755
800.797
672.836
549.351
425.124
353.018
259.11
195.731
162.766
151.386
149.464
150.687
150.598
147.634
141.279
132.34
125.599
110.576
1275.42
1579.11
1073.62
700.775
548.721
529.87
493.998
466.838
397.728
302.004
198.293
143.907
123.852
118.379
120.742
122.202
120.794
115.613
109.929
103.012
912.613
1318.19
1120.75
729.113
531.774
447.084
425.239
390.646
334.255
287.077
262.168
237.292
170.459
95.2832
64.9496
58.3407
57.6282
56.5414
55.7918
55.1203
4376.05
4882.11
3949.32
2998.35
2236.8
1503.68
953.72
675.034
555.612
521.54
494.591
463.803
414.437
362.326
316.877
275.774
238.93
212.168
201.167
174.502
2805.39
6611.19
4595.15
2525.74
1549.94
1290.85
1098.36
1059.54
974.519
933.892
850.368
792.236
714.951
653.001
587.719
534.55
487.764
456.386
428.245
401.908
3162
6673.17
5352.51
3702.49
2177.65
1568.27
1209.6
1084.64
954.528
903.396
830.977
793.832
740.199
703.895
661.302
629.844
598.26
572.512
548.151
491.363
6999.79
5182.41
4486.72
2710.37
1700.72
1257
1004.71
895.025
783.387
752.225
719.484
716.849
707.333
695.221
675.554
659.754
647.659
626.749
594.182
518.086
14862.4
6823.25
3718.35
2782.36
1769.6
1250.81
991.821
861.679
727.362
673.221
622.353
611.398
611.038
614.57
619.74
618.773
613.907
595.396
565.669
496.669
3292.21
4404.38
4245.37
2925.35
2028.81
1684.03
1373.76
1154.33
921.007
772.114
653.678
587.021
551.77
531.93
528.202
523.939
519.415
505.237
484.214
425.977
5162.25
5834.37
4860.72
3082.99
2282.74
2063.33
1766.15
1573.88
1228.44
976.347
759.157
614.706
523.16
468.073
447.175
436.4
429.719
415.67
395.227
355.994
32588.2
18990.7
8600.16
4419.05
2547.5
2126.46
1692.62
1548.86
1342.09
1062.66
848.767
688.424
561.253
458.419
428.935
399.296
379.917
360.345
332.915
310.575
24050.8
14469.2
9090.47
5913.8
3346.39
2188.46
1454.31
1201.35
966.041
806.536
724.958
670.864
592.557
501.949
431.072
383.994
344.559
316.391
294.807
287.108
3296.85
7966.63
7062.9
4167.93
2520.18
1782.46
1351.38
1200.87
917.436
783.864
721.253
665.176
603.21
521.899
426.129
347.748
312.736
298.11
291.909
291.789
2505.18
5515.02
4938.4
3275.81
2260.5
1655.51
1174.48
940.836
921.045
932.195
859.25
701.022
559.713
453.333
450.119
326.96
300.627
301.395
307.643
306.272
6692.64
3638.48
2748.45
2735.22
2414.31
1812.43
1362.52
1138.17
1044.61
945.622
862.226
769.037
678.891
585.226
510.768
397.359
371.983
366.73
363.772
341.223
2127.04
2789.9
3500.13
2940.35
2456.9
2124.27
1612.7
1277.14
1059.92
920.878
785.481
675.801
588.712
537.213
496.706
449.559
434.483
430.542
424.179
390.642
1549.92
2537.59
2438.29
2440.84
2381.93
2306.31
1881.54
1418.68
1145.99
948.973
790.967
659.375
581.699
523.083
479.435
455.629
453.445
455.456
457.91
441.554
6540.66
4234.54
2921.39
2236.36
2080.74
2135.93
1940.54
1418.34
1096.53
934.4
810.252
715.407
637.486
579.534
532.248
504.341
493.656
489.607
485.996
455.73
28312.8
14217.5
8889.37
5108.92
2969.29
1971.19
1314.97
1011.41
863.588
783.724
706.562
661.479
608.79
580.969
546.945
522.795
504.715
485.8
471.157
419.926
4503.48
5899.98
5481.92
3576.71
1976.25
1405.98
981.407
813.083
681.531
616.699
567.248
538.64
516.437
504.854
488.343
467.416
445.063
415.417
391.106
335.508
1324.51
2568.89
2387.67
2099.76
1689.94
1237.07
892.38
759.332
597.079
519.085
454.457
434.881
424.532
422.654
415.684
400.684
382.57
364.043
348.065
319.246
686.401
4345.99
3242.25
1898.73
1386.16
1243.73
923.28
840.41
708.993
609.073
459.546
369.541
331.726
328.553
334.291
333.757
325.387
316.096
305.764
298.016
2274.75
2995.51
2626.62
1972
1470.93
1176.44
932.139
668.737
471.237
363.558
303.253
229.152
155.58
122.97
122.661
129.13
131.991
130.477
127.644
126.982
12671.5
7162.47
4742.94
3426.41
2422.53
1607.95
1069.92
785.88
653.542
604.923
556.86
502.774
439.738
381.231
331.939
290.927
261.52
234.614
219.038
180.538
24368.9
12035.1
6206.17
3310.79
2200.47
1818.39
1526.41
1459.79
1325.06
1249.33
1117.76
1014.72
894.411
803.303
718.251
654.938
604.846
569.524
540.456
529.618
12557.5
10575.7
7106.78
4446.38
2761.48
2067.87
1673.41
1505.63
1335.37
1248.21
1133.53
1052.66
961.049
893.581
827.603
779.628
737.251
703.031
671.687
633.546
11251.8
7729.91
5694.27
3308.62
2316.09
1724.83
1496.61
1328.63
1186.06
1120.84
1045.87
1001.85
945.532
902.099
858.353
822.146
789.041
750.023
712.675
657.164
26450
8889.96
5267.95
3429.32
2391.32
1730.79
1471.14
1296.29
1124.35
1033.38
936.786
895.293
853.925
827.839
802.908
777.843
752.634
716.966
686.635
634.124
2062.74
5697.86
5501.1
3489.17
2691.4
2087.03
1777.29
1512.8
1249.88
1067.66
915.294
825.954
764.765
725.512
699.809
676.1
656.29
628.75
604.559
557.958
7677.74
8449.92
6496.87
4123.05
3290.57
2716.77
2239.06
1885.66
1467.57
1174.81
940.2
795.015
694.596
637.03
604.55
581.794
563.085
541.605
520.63
497.217
13939.9
12897.5
8620.18
5654.24
3708.75
3037.48
2420.7
2098.61
1672.39
1301.13
1044.21
846.78
698.965
593.6
550.966
524.619
503.149
484.601
468.178
462.958
15808.9
12753.1
10779.3
8033.69
4728.68
3265.26
2323.39
1860.43
1433.55
1164.79
1002.16
867.682
736.123
618.021
528.325
480.965
458.05
442.528
435.131
437.976
5925.22
10540.9
9147.28
5463
3461.03
2706.25
2144.22
1723.17
1344.7
1138.16
1002.42
884.658
761.704
644.843
516.513
447.052
430.416
425.552
424.874
427.863
3399.58
6333.62
6257.39
4652.6
3113.09
2398.55
1871.2
1562.71
1413.91
1291.02
893.642
638.658
533.592
521.456
513.591
441.616
435.435
436.158
435.25
427.583
10802.3
6026.82
4568.44
3929.56
3117.63
2546.67
2100.79
1784.07
1553.15
1313.94
1114.91
948.054
805.042
679.929
566.685
529.188
515.428
500.638
483.293
436.153
5579.8
4628.32
4566.69
3828.08
3346.62
2856.26
2289.72
1842.59
1477.99
1215.27
1003.92
855.261
755.312
684.123
638.275
609.794
595.342
568.876
543.104
475.237
5381.58
4235.31
3791.77
3820.55
3678.17
3290.54
2449.93
1841.13
1454.14
1186.1
995.555
872.259
788.63
729.373
684.877
655.432
640.161
615.64
593.793
530.451
13876.3
9336.99
4883.66
4353.83
3894.28
3487.9
2537.23
1829.97
1418.14
1185.69
1028.9
927.155
850.064
791.728
741.614
700.235
672.729
638.96
611.829
538.065
18378
13951.4
8335.36
5446.56
3635.64
2530.83
1779.4
1379.36
1166.66
1037.5
941.216
879.172
821.502
777.57
729.646
687.408
650.653
607.707
574.943
496.085
22822.4
9418.13
5880.54
3842.6
2526.14
1757.27
1316.76
1079.18
944.473
854.652
795.567
749.43
712.88
678.038
640.662
601.034
562.86
521.494
488.129
436.108
3100.57
3091.43
3224.85
2960.46
2287.25
1493.76
1095.6
897.954
778.41
702.819
650.055
616.771
592.049
573.047
548.832
525.318
501.513
481.009
462.698
439.705
701.041
4448.19
4272.68
2596.96
1778.95
1379.78
987.215
830.993
692.639
611.645
521.754
475.933
459.1
458.317
456.423
448.715
439.225
433.339
428.143
428.006
2672.64
3495.5
2838.47
2086.47
1638.62
1294.05
932.188
553.152
338.971
248.32
207.272
179.304
162.49
162.701
167.49
168.998
169.156
167.89
169.435
171.005
5677.05
5690.14
4446.56
3050.64
2121.74
1436.01
1016.84
788.535
671.48
607.488
539.472
464.666
395.593
339.113
297.183
263.627
237.223
212.038
194.748
169.558
11825.7
10277.7
7132.38
3455.97
2606.95
2162.51
1938.06
1872.58
1723.66
1607.96
1425.4
1248.96
1083.27
953.583
852.764
783.644
733.825
704.42
690.731
698.328
19833.4
11439.1
7744.13
4486.66
3311.73
2513
2186.6
1959.37
1775.76
1642.39
1491.45
1348.85
1222.49
1113.15
1027.45
960.292
911.211
872.45
843.474
825.709
11652.8
8022.31
6599.88
3684.95
2923.85
2080.72
1982.5
1745.23
1617.51
1517.9
1413.16
1315.4
1223.86
1139.74
1072.01
1010.72
962.097
912.976
875.116
839.373
7812.93
7635.56
6589.66
3624.61
3034.01
2116.94
1960.26
1713.3
1541.19
1407.58
1285.93
1201.63
1127.85
1064.61
1013.29
963.157
923.267
879.563
847.406
810.756
5941.46
6982.45
6589.54
3912.47
3332.76
2349.07
2196.01
1852.17
1600.63
1374.58
1205.09
1090.25
1008.63
944.961
898.464
855.278
822.541
787.552
759.903
730.095
8550.38
10042.2
7674.26
4679.92
4190.38
3127.42
2647.24
2140.16
1721.1
1383.28
1156.27
1000.75
898.062
830.707
786.537
751.381
726.088
702.322
684.638
674.975
13618.4
11801.7
10162
6281.15
4704.08
3595.76
2905.76
2422.63
1881.96
1482.3
1192.12
976.737
828.219
727.525
703.373
680.417
662.345
649.847
645.038
649.062
20877.9
17757.6
13970.1
9410.87
5653.74
4029.16
2946.86
2297.25
1754.79
1421.88
1181.57
984.286
820.337
700.994
623.693
621.33
614.543
612.381
613.22
624.663
11363.8
13465
11228.7
6402.15
4260.18
3354.11
2680.66
2103.36
1684.95
1405.24
1187.38
984.749
812.699
693.599
600.412
594.999
590.941
591.275
592.865
602.127
8740.95
10266.9
8718.65
5390.75
3904.64
3084.6
2451.08
2057.19
1786.9
1523.57
1127.06
765.126
580.854
578.399
578.651
603.767
601.632
596.56
587.202
579.022
8726.9
8180.7
6527.39
4616.25
3807.31
3157.89
2696.4
2298.27
1913.33
1542.71
1248.12
1023.22
840.623
717.636
662.525
702.6
679.862
641.988
605.416
558.066
10776.2
7707.46
6425.7
4470.95
4191.3
3521.46
2853.06
2248.37
1773.94
1414.27
1164
1003.28
903.056
828.786
837.843
809.994
773.456
713.488
658.174
579.26
10498.4
6502.07
5893.77
5145.59
4792.72
3879.37
2905.97
2183.76
1741.77
1421.24
1230.71
1109.83
1033.51
975.076
930.617
883.267
840.719
778.413
723.748
629.805
11993.8
8085.78
6718.22
6082.58
5382.91
4162.35
2978.19
2183.96
1749.41
1455.9
1292.74
1179.26
1105.02
1035.84
978.14
913.03
860.556
791.092
733.478
633.236
12512
12581.3
8142.25
5387.53
4201.92
2948.45
2231.35
1730.19
1496.35
1310.29
1209.73
1123.74
1063.63
996.767
936.413
866.397
807.395
737.437
682.353
597.868
32776.9
9088.53
6638.18
4099.21
3121.97
2066.2
1694.29
1377.51
1244.52
1111.41
1048.6
976.053
928.915
865.389
811.872
749.709
701.221
650.231
612.349
567.286
15006.1
6813.91
5489.58
4072.12
2917.77
1750.08
1389.68
1123.13
1025.87
912.367
862.539
805.515
774.832
738.882
707.615
676.533
652.451
632.855
614.88
600.418
6640.09
7284.51
6085.96
2977.03
2060.56
1432.33
1075.86
895.888
815.465
714.446
655.075
609.047
598.454
595.313
593.614
586.919
586.103
587.545
590.775
599.865
2824.4
4394.22
3315.46
2084.64
1584.84
1159.09
728.836
413.583
289.378
235.179
209.725
194.269
190.946
186.642
184.389
178.132
174.676
173.151
176.498
176.8
5218.29
3861.65
2773.61
1984.53
1523.92
1141.73
864.267
705.983
605.549
515.508
430.29
347.874
286.545
237.417
204.219
180.941
166.663
158.052
153.051
151.305
20816.8
10435.3
7098.64
3308.92
3418.36
2481.98
2730.16
2381.65
2412.98
2139.32
1985.05
1637.53
1477.08
1276.65
1188.82
1102.52
1070.12
1053.2
1055.6
1096.81
42474.9
13769.1
8805.82
4383.21
4321.85
2907.53
3046.11
2510.68
2500.1
2207.26
2103.9
1825.89
1716.03
1520.26
1440.62
1335.49
1292.55
1244.43
1229.53
1230.99
8334.25
9251.31
7989.1
4120.84
3829.85
2353.41
2702.67
2148.05
2266.14
2029.13
1991.88
1795.31
1715.27
1557.68
1486.06
1386.56
1333.65
1271.75
1241.65
1227.85
6268.57
9987.86
7294.14
4174.78
4036.44
2466.05
2756.14
2186.55
2212.39
1937.68
1875.33
1685.26
1622.27
1486.87
1430.8
1339.35
1296.71
1240.26
1213.16
1196.52
3633.37
7733.76
8247.87
4418.31
4355.03
2549.88
2882.86
2188.68
2148.95
1799.01
1701.79
1519.85
1450.2
1347.7
1289.78
1222.23
1182.29
1139.06
1112.57
1105.22
15463.1
11844.2
8833.27
5310.2
5303.08
3372.19
3331.99
2451.81
2234.15
1724.46
1606.88
1383.98
1320.7
1216.14
1172.14
1112.62
1087.77
1060.15
1049.28
1055.73
21233.3
12284.5
12173.5
6396.74
6044.98
3743.34
3375.78
2706.46
2243.53
1797.68
1531.1
1294.55
1166.77
1061.01
1092.99
1053.45
1030.9
1023.64
1023.66
1040.82
20871.9
15381.4
15938.3
9353.88
6543.35
4560.17
3581.32
2747.21
2176.97
1808.4
1503.01
1269.74
1106.41
1006.25
990.513
1011.68
994.016
993.485
996.601
1020.03
17906.6
15139.3
13291.7
6639.98
5247.05
3801.74
3234.83
2653.44
2211.86
1811.89
1465.33
1180.21
1056.32
999.897
987.245
997.951
969.161
963.078
963.316
981.201
19618.3
10981.5
9991.1
5528.19
4948.05
3767.89
3108.14
2686
2327.02
1869.97
1454.94
1040.61
864.174
919.704
969.148
1008.77
978.111
948.962
935.244
933.092
14171.7
8847.87
8529.07
4951.19
4735.42
3791.19
3416.4
2936.29
2399.99
1884.72
1500.53
1238.71
1108.96
1040.52
1056.87
1107.62
1042.36
966.533
916.036
875.325
12145.2
9654.58
8345.23
4943.34
5360.01
4162.86
3513.18
2684.09
2203.11
1747.85
1526.07
1354.72
1278.82
1200.58
1284.28
1222.43
1144.48
1034.82
954.483
875.425
11710.1
8355.95
8041.96
5664.29
5913.45
4249.78
3481.68
2561.72
2205.03
1783.51
1672.3
1515.27
1486.27
1416.55
1385.4
1304.09
1232.72
1117.37
1030.53
923.595
12757.1
8646.61
9189.07
6394.19
6531.31
4449.85
3668.21
2585.05
2301.25
1862.36
1763.28
1602.37
1560.33
1466.16
1412.58
1310.14
1238.3
1121.37
1037.63
925.833
10142.9
11579.8
9697.44
5314.04
5195.16
3396.23
3019.26
2191.94
2074.85
1734.41
1684.93
1534.06
1503.66
1396.54
1344.57
1224.87
1156.95
1047.66
982.219
898.905
15599.1
10450.1
8898.77
4444.82
4259.92
2418.64
2409.58
1818.54
1793.15
1521.41
1499.16
1363.84
1336.28
1229.65
1181.67
1079.45
1038.57
968.376
935.037
895.042
8345.95
8854.69
8733.78
4784.67
4064.7
2033.23
2045.41
1557.33
1543.17
1282.52
1272.38
1152.44
1156.55
1094.65
1077.51
1027.06
1015.74
991.666
980.042
977.361
14536.1
11865.8
8304.37
3152.04
2802.55
1540.69
1543.53
1183.58
1223.34
996.616
1000.17
911.165
945.435
931.241
949.024
939.62
955.207
966.117
987.661
1014.04
3592.97
5811.34
3399.44
1809.96
1272.34
803.791
464.388
319.365
273.179
235.46
214.936
199.424
190.5
181.621
175.872
169.788
167.244
165.979
166.182
166.113
1034.3
1250.12
966.736
1337.4
1190.64
1416.91
1114.55
913.746
878.964
700.282
1143.27
1006.93
990.375
746.89
996.141
1332.6
1182.28
1458.73
1107.09
1506.73
1297.02
696.32
1132.56
990.885
987.3
739.064
1231.7
1050.08
146.653
289.386
197.078
1066.24
1033.52
1021.49
1018.21
125.15
187.596
162.661
983.286
848.295
995.412
844.151
127.398
150.217
134.447
810.018
711.177
786.224
682.163
124.906
134.177
130.887
686.71
634.738
665.741
620.036
134.903
126.458
118.136
625.817
602.686
605.605
576.682
134.272
117.73
117.607
593.006
548.871
570.105
541.36
118.896
117.332
111.907
530.668
473.268
528.416
478.639
81.197
109.055
77.8062
451.196
399.731
459.748
397.363
196.907
261.964
144.767
990.007
1024.94
902.413
805.227
158.524
129.83
119.851
1001.04
833.908
773.254
722.825
131.803
122.27
149.897
770.552
676.687
722.551
753.287
134.762
160.294
180.521
664.095
632.715
764.48
762.659
122.718
181.041
171.053
619.365
583.507
743.904
651.619
117.766
163.266
143.554
574.747
543.153
619.046
531.022
110.358
136.122
116.911
529.815
479.955
503.147
432.616
79.6119
111.008
77.5667
460.723
408.008
414.131
407.667
139.663
278.809
177.996
864.292
765.876
938.981
894.061
120.857
164.25
152.184
742.995
741.876
874.693
860.071
158.69
153.153
163.374
758.224
797.114
858.682
837.57
185.245
166.941
178.11
803.771
794.498
828.564
797.597
179.976
180.91
180.66
774.557
680.403
782.88
722.579
152.316
177.087
166.004
646.067
550.652
700.424
635.121
123.582
161.98
145.648
519.817
437.116
612.916
540.741
78.1314
138.454
108.59
413.879
392.256
516.503
465.762
189.863
404.838
251.194
1023.01
950.439
1069.64
991.354
152.057
224.503
177.69
921.847
879.646
951.997
863.876
154.176
174.827
162.995
867.516
822.751
834.331
767.651
165.914
163.915
158.547
808.595
771.962
750.507
704.445
170.753
158.173
149.085
758.241
706.519
685.501
627.825
161.858
144.428
130.669
688.143
633.439
609.005
554.38
144.664
125.344
118.099
614.091
550.473
538.198
498.754
110.777
118.248
99.6767
530.694
479.064
488.916
468.75
1267.78
1403.26
1241.41
2120.34
1837.24
2018.72
1715.95
1016.07
1195.27
997.797
1726.6
1420.98
1618.91
1341.46
837.065
932.001
807.517
1338.58
1140.42
1264.71
1100.01
739.029
784.36
725.22
1091.39
979.152
1060.15
964.734
685.37
708.676
671.404
947.748
860.335
938.979
868.262
614.152
660.755
618.571
831.524
741.631
844.269
764.288
525.457
601.047
540.362
711.204
624.328
735.87
650.731
435.102
518.679
437.976
597.199
528.769
622.029
533.81
1249.46
1234.83
1017.85
1965.7
1717.11
1785.65
1516.53
987.322
972.03
889.52
1618.81
1331.13
1447.78
1294.66
803.035
880.171
884.78
1253.9
1099.61
1261.96
1183.04
737.479
887.604
855.953
1063.7
973.757
1168.96
987.096
677.605
825.09
712.101
946.44
870.65
918.304
746.397
620.932
675.342
578.338
846.017
765.861
700.871
605.779
543.059
549.064
478.324
737.487
654.754
584.677
551.849
445.295
462.554
452.391
627.684
539.671
549.901
541.493
974.052
1249.45
1112.29
1704.56
1478.84
1791.12
1630.05
915.542
1084.06
1045.12
1426.76
1331.56
1585.98
1479.09
933.326
1034.81
983.487
1309.62
1235.15
1439.55
1305.19
891.658
965.473
908.449
1215.28
1028.57
1261.26
1132.2
740.256
885.544
805.87
952.361
762.477
1088.37
960.651
593.159
778.94
700.642
708.876
589.813
920.907
807.243
474.538
674.289
592.902
561.496
513.222
770.448
668.796
434.093
566.73
500.436
511.632
523.371
638.342
564.562
1177.65
1473.85
1260.33
1932.04
1701.23
2057.85
1788.45
1067.39
1197.33
1062.1
1644.15
1499.28
1699.24
1472.81
968.894
1016.48
916.69
1448.23
1290.81
1396.03
1217.83
883.801
888.344
817.4
1242.4
1111.14
1165.59
1033.01
792.075
790.564
716.291
1069.55
954.06
990.316
881.491
702.016
692.682
629.179
919.047
820.298
850.571
769.973
607.163
610.415
562.692
788.119
697.241
746.626
684.428
515.217
550.065
509.244
669.27
584.475
665.747
609.359
1982.92
2198.66
1836.33
2802.22
2354.53
2619.26
2155.99
1524.27
1726.77
1432.79
2196.69
1788.56
2019.32
1686.87
1217.08
1353.62
1177.78
1677.77
1421.18
1599.36
1387.8
1038.54
1133.34
1026.15
1356.97
1188.54
1329.58
1181.84
900.278
996.475
912.29
1136.53
995.745
1137.07
1007.4
768.573
883.726
792.285
952.997
831.894
965.217
843.891
645.215
761.031
670.025
795.134
700.287
806.622
707.862
547.733
639.941
550.21
673.845
607.733
677.885
597.089
1832.45
1952.22
1652.58
2552.33
2137.22
2368.79
2020.83
1422.94
1577.86
1405.46
2005.48
1680.5
1929.12
1704.82
1178.93
1365.28
1261.55
1596.02
1393.4
1643.3
1474.83
1184.79
1101.18
1155.7
1206.92
1120.65
1165.43
1224.67
1004.36
972.092
999.9
1052.8
962.233
1017.85
1045.88
792.879
652.78
586.827
962.964
837.879
687.998
614.67
673.305
576.057
565.685
800.44
705.115
604.781
597.806
554.089
566.128
550.38
676.399
595.53
596.848
568.228
1620.21
1962.76
1775.86
2302.83
2008.45
2410.69
2186.18
1445.03
1726.46
1594.89
1934.25
1750.25
2116.95
1901.52
1313.26
1545.36
1384.58
1692.77
1519.65
1822.03
1582.43
1325.23
1213.61
1318.72
1343.27
1271.14
1155
1383.22
1026.02
821.526
1078.59
722.041
1012.44
648.379
1100.45
549.94
946.96
821.789
669.478
562.733
993.467
834.428
517.332
781.987
675.567
548.841
550.034
787.326
678.465
532.922
644.755
569.723
557.86
557.287
651.977
592.437
1846.51
2239.29
1933.9
2541.83
2253.85
2687.32
2314.13
1613.41
1835.4
1580.7
2170.28
1914.41
2187.11
1848.25
1370.12
1494.02
1292.86
1825.18
1566.26
1739.53
1474.81
1162.04
1233.28
1082.78
1487.44
1278.14
1396.94
1199.85
986.601
1035.47
918.417
1216.2
1053.26
1143.16
1008.39
839.758
885.714
800.668
1004.67
870.029
971.591
877.434
709.085
776.225
710.63
829.196
727.73
851.282
780.247
590.809
690.776
629.225
699.585
619.132
759.025
698.946
2464.85
2751.66
2261.15
3389.15
2815.16
3167.9
2643.96
1869.9
2118.58
1775.98
2615
2152.64
2491.23
2127.37
1489.48
1685.52
1460.48
2039.26
1764.86
2029.28
1756.22
1238.25
1396.93
1231.89
1680.94
1452.42
1669.72
1436.13
1029.56
1181.08
1035.35
1386.4
1212.65
1365.63
1174.08
857.498
988.933
860.162
1159.21
1024.48
1118.43
994.564
726.512
822.475
726.077
989.812
907.559
966.269
896.238
633.561
697.573
619.085
883.363
817.168
874.186
809.936
2238.7
2506.88
2141.17
3069.46
2614.45
2936.55
2563.4
1772.05
2044.66
1806.05
2477.09
2138.21
2462.88
2198.08
1467.18
1737.71
1544.11
2041.97
1762.89
2108.16
1819.78
1240.49
1480.09
1230.04
1674.51
1437.4
1719.66
1451.29
1033.67
1119.66
847.887
1363.8
1158.09
1352.73
1058
850.476
778.199
650.112
1096.85
965.642
969.041
794.852
720.538
630.603
614.93
940.951
885.292
778.018
792.725
616.321
613.629
583.807
866.299
807.658
795.936
775.214
2136.19
2569.84
2324.06
2916.4
2582.34
3082.44
2807.69
1852.55
2247.46
2002.01
2493.93
2244.11
2707.53
2373.99
1585.68
1912.66
1645.97
2152.27
1850.24
2256.78
1896.82
1235.98
1561.75
1332.14
1746.69
1458.24
1783.12
1489.01
843.911
1262.12
1068.28
1358.01
1055.84
1405.62
1177.77
605.255
1007.63
839.409
960.186
764.509
1107.56
945.34
571.397
791.693
689.664
744.139
764.785
914.673
866.571
573.794
666.831
613.324
774.702
768.775
855.308
821.129
2390.28
2844.8
2437.03
3202.23
2864.45
3350.51
2828.58
2012.02
2298.76
1932.89
2743.69
2367.53
2654.39
2217.71
1628.95
1816.53
1533.83
2241.94
1877.46
2092.58
1763.44
1314.37
1449.94
1239.91
1764.55
1478.67
1663.11
1426.65
1074.72
1181.16
1042.8
1401.07
1203.18
1369.45
1230.75
881.699
1005.15
909.297
1145.29
1013.85
1191.69
1098.98
743.394
883.085
812.543
985.325
923.834
1076.67
1014.84
641.324
791.736
730.067
905.992
849.597
995.362
937.656
2959.58
3348.93
2818.63
4295.56
3415.18
3921.74
3439.19
2283.58
2663.8
2293.3
3174.06
2766.29
3275.26
2903.8
1898.77
2193.16
1901.87
2695.27
2391.39
2805.25
2472.03
1568.32
1806.83
1548.37
2284.25
2078.03
2361.34
2081.97
1325.41
1471.99
1268.06
2030.68
1836.45
2002.71
1784.26
1137.22
1211.3
1105.71
1776.96
1676.97
1732.42
1683.16
1029.95
1084.67
1025.93
1659.17
1583.15
1669.29
1605.12
936.519
1005.91
941.244
1561.74
1524.42
1588.86
1560.52
2788.89
3114.63
2749.06
3756.1
3407.22
3650.53
3393.12
2311.53
2650.09
2380.4
3278.88
2951.29
3308.48
3056.12
1910.53
2283.94
1960.14
2843.77
2496.62
2943.51
2564.69
1545.67
1847.17
1552.39
2381.79
2083.39
2429.1
2094.36
1243.09
1450.76
1141.9
1995.24
1751.17
1983.3
1626.28
1069.46
1049.3
894.859
1693.08
1652.44
1537.53
1492.05
1016.47
893.951
933.838
1655.88
1604.52
1529.45
1551.36
940.044
937.445
910.133
1589.89
1560.79
1546.75
1534
2774.5
3298.62
3013.08
3674.55
3428.94
3928.97
3687.8
2425.87
2905.15
2546.99
3350.4
3099.08
3565.11
3178.27
1986.83
2420.82
2027.78
2981.83
2582.31
3035.78
2580.04
1557.99
1902.37
1586.18
2440.73
2094.49
2437.72
2102.55
1138.97
1498.86
1260.85
1983.12
1621.35
2013.85
1761.86
867.384
1189.31
1051.64
1526.37
1471.33
1698.85
1650.16
910.459
1034.75
1003.98
1507.05
1532.89
1653.06
1599.35
903.817
993.875
953.741
1530.87
1522.07
1585.25
1562.21
3065.48
3562.39
2986.39
4088.53
3719.08
4178.38
3446.89
2532.28
2800.3
2351.04
3569.88
3131.86
3248.52
2842.09
2007.1
2225.86
1882.85
2992.48
2542.5
2731.66
2355.53
1580.27
1776.7
1537.35
2405.19
2093.91
2243.53
2050.26
1296.6
1483.2
1346
2017.1
1809.67
2011.93
1868.68
1128.79
1306.34
1218.37
1760.99
1723.64
1827.84
1776.47
1057.18
1199.1
1140.68
1710.28
1639.22
1764.75
1701.44
981.068
1121.27
1059.7
1621.32
1587.9
1679.58
1654.63
1139.01
1067.19
1040.02
1089.35
1081.83
1127.07
1091.26
1207.4
1188.52
1184.36
1308.31
1148.9
1257.38
1161.41
1126.43
1019.53
1073.48
794.253
1089.56
1036.68
949.141
1245.91
1272.4
1286.26
1354.52
1226.43
1289.89
1305.02
1196.57
1140.99
1238.06
1197.09
1183.49
1144.34
1253.05
1270.5
1358.12
1384.12
1344.74
1321.19
1200.07
1333.6
1189.36
831.013
1179.2
1245.94
1096.08
988.761
1262.87
965.431
943.06
896.502
949.442
927.932
983.831
928.739
916.55
956.03
798.788
693.057
904.421
965.318
606.715
857.223
819.494
730.675
581.006
857.632
828.819
570.162
1047.14
1099.29
1097.49
1141.05
1059.12
1093.55
1088.7
1002.11
979.704
1052.22
985.97
1019.53
957.841
1037.64
965.149
716.039
1098.74
900.843
1019.54
632.554
1032.32
895.644
579.682
909.563
821.921
859.575
582.456
966.01
1250.79
1101.91
1144.06
829.807
1209.97
966.243
1174.28
1342.05
1333.72
1282.16
1395.32
1286.07
1396.81
1337.57
1284.05
1182.34
1232.16
1224.84
1235.4
1224.06
1280.83
1378.04
1394.29
1371.47
1497.36
1209.65
1443.16
1427.23
1296.82
856.596
1241.39
1262.41
1004.8
1213.7
1346.87
1393.16
1452.35
1509.13
1434.14
1454.69
1387.34
1440
1328.53
1262.25
1297.88
1364.41
1262.18
1324.08
1369.55
959.94
736.764
885.739
565.531
949.925
597.783
882.227
1103.39
1128.19
1083.68
1169.68
1073.46
1163.81
1115.95
1045.11
968.383
1036.37
1014.25
1020.59
986.608
1064.1
1050.33
740.953
895.135
1176.59
664.316
1132.18
1089.23
976.42
573.176
797.192
919.036
600.978
889.734
1005.15
1130.3
1201.95
1226.66
1168.94
1196.15
1143.6
1155.9
1066.19
1033.1
1016.31
1108.44
1001.43
1087.29
1086.13
385.003
443.714
358.435
863.716
975.309
839.901
896.42
360.19
327.448
316.422
1049.99
1054.9
888.995
866.68
324.621
294.554
271.625
1030.36
942.944
807.655
724.096
256.949
252.257
239.431
856.215
752.373
663.273
626.437
216.081
228.899
222.358
672.632
606.952
596.079
569.92
184.943
213.822
204.85
545.857
498.161
539.281
509.764
148.316
190.164
173.306
441.268
404.055
465.226
435.056
93.0143
160.654
128.39
339.448
343.315
377.565
382.275
417.078
531.058
414.907
1061.07
961.991
954.595
879.866
432.178
220.996
288.163
426.33
429.195
423.365
238.806
431.551
124.568
170.137
450.436
452.094
435.835
161.956
396.538
128.231
145.354
433.485
421.18
407.389
141.642
367.332
125.704
137.773
387.623
375.861
375.531
136.317
338.776
129.516
127.171
363.536
364.873
339.586
126.609
343.906
136.673
130.814
367.073
364.63
344.134
131.974
322.126
127.046
130.214
338.607
328.632
329.668
127.665
280.105
109.49
116.391
289.651
280.407
288.67
111.85
121.103
154.404
112.283
330.73
337.606
323.963
331.892
388.901
493.656
389.081
842.145
820.579
867.438
830.398
409.532
233.858
273.638
396.139
416.164
396.201
229.372
427.574
180.82
172.669
467.752
466.87
431.354
162.242
356.283
134.284
129.451
395.462
371.139
362.184
128.472
381.623
135.121
138.273
359.07
358.692
371.633
144.969
371.031
129.462
147.353
342.414
332.285
379.167
145.856
327.379
119.852
133.652
313.465
311.837
336.091
130.386
300.072
115.793
121.478
304.48
299.88
306.573
119.033
264.147
104.653
108.476
270.544
264.36
270.497
105.105
104.149
161.542
124.689
318.242
315.16
356.072
302.386
392.804
514.739
402.139
880.76
816.423
893.358
844.73
348.199
200.912
261.837
365.06
339.776
368.684
208.61
328.915
117.816
138.915
299.954
302.369
325.045
132.815
414.391
140.123
143.646
365.286
392.822
392.222
151.018
475.109
173.79
168.799
453.9
469.538
462.61
175.098
488.479
186.463
188.666
485.68
481.608
491.459
188.684
427.753
165.12
177.507
428.807
407.752
444.872
171.569
357.047
137.648
155.328
349.138
326.804
376.352
148.806
273.053
108.501
127.475
268.924
247.819
295.092
117.659
137.35
197.759
159.878
355.937
330.689
396.912
358.768
455.379
611.697
521.162
994.016
943.162
1013.37
966.703
447.222
249.426
315.799
439.256
430.401
453.658
261.254
410.299
162.889
177.411
406.378
406.693
411.88
164.912
412.447
151.313
147.554
423.892
431.217
411.385
146.075
417.832
160.136
147.535
442.39
446.035
415.224
149.528
424.519
170.8
155.869
452.516
452.136
424.659
157.175
403.412
166.667
156.929
434.592
426.246
410.921
155.462
369.44
155.668
149.49
398.958
387.478
379.961
145.893
331.88
134.91
133.348
344.768
336.45
336.727
132.294
166.588
205.87
167.408
428.497
379.96
406.919
410.018
391.485
528.02
405.882
851.497
830.987
853.478
822.747
297.097
365.866
325.552
790.747
748.758
751.454
672.498
261.009
303.91
280.196
708.197
675.356
627.285
588.364
234.481
258.616
239.681
653.243
619.804
553.013
505.718
205.923
217.397
196.925
582.823
547.888
470.754
439.556
177.402
178.637
164.285