/*--------------------------------*- C++ -*----------------------------------*\
  =========                 |
  \\      /  F ield         | OpenFOAM: The Open Source CFD Toolbox
   \\    /   O peration     | Website:  https://openfoam.org
    \\  /    A nd           | Version:  10
     \\/     M anipulation  |
\*---------------------------------------------------------------------------*/
FoamFile
{
    format      ascii;
    class       volScalarField;
    location    "4.2";
    object      k_0;
}
// * * * * * * * * * * * * * * * * * * * * * * * * * * * * * * * * * * * * * //

dimensions      [0 2 -2 0 0 0 0];

internalField   nonuniform List<scalar> 
12920
(
1962.13
2619.57
1923.9
1390.24
975.728
602.559
364.202
267.812
223.945
210.949
201.853
192.533
178.403
160.865
144.613
128.785
116.957
100.877
93.7656
78.6097
543.759
1720.14
1688.2
1152.44
686.373
523.012
429.354
407.147
371.458
354.944
324.387
303.418
276.591
255.314
231.109
208.893
186.166
172.573
161.787
137.303
496.082
2289.52
2393.48
1707.07
971.966
642.511
475.366
411.608
358.06
336.597
310.035
299.672
281.708
271.63
256.058
243.802
231.281
217.87
205.009
169.236
1543.84
1907.32
1921.52
1164.24
679.675
487.302
379.71
330.362
286.007
265.643
253.807
253.19
253.191
252.831
249.701
245.097
241.276
232.163
215.017
173.807
778.165
961.857
1229.86
987.353
659.676
477.102
390.61
330.02
279.625
247.71
224.71
215.006
212.675
214.413
219.252
220.863
220.426
213.789
199.891
167.027
402.222
1566.46
1620.55
1162.11
823.859
670.327
568.788
466.65
386.286
312.311
253.746
216.426
195.811
186.185
185.202
185.537
185.148
180.357
171.55
147.514
3501.59
3465.45
2105.72
1280.42
883.739
769.696
685.161
612.275
527.851
417.438
325.764
253.91
204.094
174.387
160.653
155.794
154.175
149.934
142.701
123.966
8765.09
6932.61
3250.09
1515.3
891.338
740.07
481.611
370.664
352.709
291.663
235.765
201.135
168.46
135.226
189.003
157.777
142.753
131.577
119.78
105.512
8192.89
4817.45
3388.41
1973.54
1099.93
576.328
307.616
132.176
128.612
127.419
127.149
137.164
131.083
114.889
161.68
181.361
145.857
122.208
106.481
95.8786
935.262
3439.95
2963.99
1527.67
901.038
478.3
277.618
187.809
142.633
133.551
132.686
120.883
116.852
107.038
152.123
163.695
134.708
114.262
105.117
97.0551
1872.92
1916.18
1802.31
1199.84
915.411
513.712
257.375
123.75
129.128
166.793
186.965
172.208
145.218
117.011
167.99
163.106
120.149
108.385
106.11
102.311
657.008
852.988
964.558
1065.27
1008.89
575.638
305.352
173.179
151.206
157.504
169.351
169.249
159.008
138.356
215.39
196.045
144.823
129.327
127.096
121.177
351.345
1059.49
1437.08
1281.58
978.219
852.069
518.027
327.747
276.979
248.149
219.295
193.788
163.28
156.745
239.074
190.984
162.794
154.055
152.351
143.355
131.334
836.934
906.537
904.924
893.618
863.384
713.768
522.932
413.789
348.766
292.779
245.127
213.124
192.778
175.631
164.235
158.412
157.436
159.459
156.91
339.817
828.777
854.413
842.51
805.17
791.8
721.84
511.692
385.991
338.881
297.583
263.69
231.992
208.92
189.488
176.637
170.756
169.343
168.616
160.916
15861.9
7347.57
3371.99
1776.03
1101.64
727.715
490.82
355.806
287.22
261.905
243.07
231.714
215.116
205.023
194.528
184.906
179.033
172.02
167.389
150.311
3340.86
3432.4
2341.52
1368.05
814.688
577.892
414.447
316.37
246.652
205.469
186.769
179.616
176.531
175.42
173.579
168.73
163.827
153.2
143.853
118.927
879.089
967.016
882.394
804.57
673.564
549.165
424.62
352.026
257.906
194.966
162.602
151.513
149.734
150.951
150.807
147.72
141.3
132.326
125.518
110.48
1328.96
1596.52
1057.31
697.736
549.744
532.401
495.74
467.521
396.998
300.163
196.884
143.414
123.727
118.559
120.991
122.36
120.872
115.6
109.889
102.999
918.807
1309.03
1094.44
715.663
527.653
447.339
426.413
391.012
334.017
287.098
262.561
237.009
168.403
94.0707
64.6697
58.3809
57.7005
56.5993
55.8378
55.164
4501
4926.71
3983.88
3019.8
2244.83
1499.72
948.774
672.953
555.561
522.212
495.264
464.017
414.203
361.926
316.472
275.323
238.548
212.049
201.092
174.35
3154
6637.71
4614.56
2521.95
1550.69
1292.48
1100.16
1061.19
975.833
934.822
850.877
792.538
714.909
652.763
587.305
534.106
487.373
456.042
427.898
401.703
3659.66
6688.84
5400.19
3712.11
2179.48
1568.13
1210.37
1085.51
955.385
904.211
831.683
794.476
740.67
704.329
661.613
630.17
598.526
572.758
548.129
491.023
7230.92
5229.2
4514.99
2712.91
1699.32
1256.94
1004.96
895.537
784.063
753.243
720.709
718.042
708.317
696.051
676.227
660.44
648.238
627.036
593.924
517.548
15292.4
6731.29
3755.35
2794.55
1770.7
1249.01
990.838
860.968
726.996
673.296
622.784
612.224
611.959
615.572
620.592
619.56
614.488
595.536
565.406
496.249
3246.81
4422.56
4251.32
2917.91
2027.64
1681.53
1370.41
1151.19
919.155
770.976
653.118
586.952
552.042
532.471
528.793
524.482
519.832
505.386
484.128
425.604
4993.92
5854.87
4841.31
3088.46
2283.31
2064.94
1766.94
1572.41
1225.62
973.856
757.369
613.7
522.662
468.097
447.461
436.765
430.008
415.778
395.088
355.871
33473.7
18865.7
8545.37
4366.2
2522.35
2121.39
1694.54
1552.07
1343.42
1061.89
848.132
687.614
560.389
457.693
428.783
399.371
379.992
360.268
332.721
310.544
23426.5
14396.4
9113.98
5906.75
3326.84
2175.46
1448.52
1198.74
965.392
806.259
725.653
671.145
592.229
501.307
430.671
383.689
344.373
316.2
294.665
287.141
3576.6
8109.94
7072.2
4128.03
2503.53
1775.18
1354.95
1200.96
915.334
783.872
720.951
665.354
602.852
521.271
424.554
347.22
312.563
298.055
291.918
291.82
2439.1
5521.63
4955.54
3263.67
2252.78
1651.48
1171.49
940.622
922.465
933.216
858.89
700.122
558.686
452.867
450.193
325.897
300.518
301.444
307.783
306.29
6666.37
3541.5
2743.78
2743.7
2417.38
1809.53
1360.3
1136.84
1045.46
946.869
862.975
769.267
678.751
584.952
509.9
396.788
371.954
366.87
363.888
341.079
2114.77
2821.82
3529.84
2949.25
2462.56
2123.13
1609.76
1276.32
1059.67
921.011
785.411
675.587
588.653
537.253
496.395
449.505
434.77
430.834
424.379
390.475
1633.61
2564.02
2449.67
2451.58
2394.02
2311.31
1874.52
1414.36
1143.99
947.655
789.648
658.585
581.26
522.885
479.336
455.894
453.88
456.006
458.378
441.692
5885.9
4041.01
2882.26
2213.21
2082.45
2143.64
1939.06
1411.58
1094.16
933.495
809.484
715.018
637.18
579.445
532.282
504.684
494.197
490.19
486.461
455.7
28280.9
14146.7
8943.95
5085.92
2951.21
1961.48
1310.52
1010.27
863.708
783.908
706.667
661.748
609.025
581.298
547.184
523.143
505.072
486.118
471.3
419.583
4696.24
6039.04
5563.64
3565.37
1966.86
1401.74
978.938
811.861
681.115
616.619
567.413
539.005
516.917
505.337
488.655
467.637
445.129
415.36
390.827
335.107
1348.3
2566.96
2394.63
2111.53
1689
1234.1
890.148
757.84
595.542
518.246
454.38
435.361
425.222
423.288
416.013
400.868
382.634
364.056
347.946
319.149
666.225
4372.84
3211.48
1890.9
1387.98
1242.75
921.346
839.816
707.813
606.893
457.222
368.312
331.824
329.155
334.852
334.091
325.479
316.178
305.806
298.12
2426.81
3017.76
2617.99
1965.04
1470.78
1176.1
928.878
665.005
468.928
362.694
302.192
227.468
154.307
122.948
122.974
129.539
132.209
130.583
127.734
127.086
12675.8
7095.73
4770.1
3442.4
2424.21
1603.25
1066.06
784.359
653.645
605.43
557.129
502.613
439.311
380.744
331.532
290.649
261.326
234.501
218.855
180.222
23283.9
12015.6
6206.93
3303.88
2200.48
1819.06
1527.54
1460.73
1325.52
1249.26
1117.19
1013.97
893.424
802.37
717.324
654.161
604.224
568.973
540.08
529.461
12475.3
10648.5
7172.47
4456.11
2762.64
2067.71
1673.67
1505.7
1335.36
1248.02
1133.15
1052.26
960.569
893.192
827.217
779.38
737.014
702.802
671.348
633.233
10938.8
7806.21
5722.46
3309.88
2315.29
1725.16
1497.11
1328.88
1186.32
1121.13
1046.15
1002.03
945.538
902.117
858.298
822.129
788.902
749.731
712.18
656.727
24865.7
8639.47
5303.96
3430.68
2391.19
1729.09
1470.16
1295.45
1123.69
1032.88
936.558
895.402
854.037
828.07
803.02
777.919
752.513
716.699
686.22
633.76
1978.27
5710.18
5507.79
3478.39
2690.21
2083.85
1774.7
1510.54
1248.03
1066.31
914.37
825.529
764.594
725.544
699.864
676.141
656.231
628.578
604.24
557.632
7257.97
8455.89
6504.51
4134.82
3288.84
2714.97
2236.35
1881.75
1464.16
1172.06
938.276
793.845
693.945
636.872
604.533
581.816
563.038
541.469
520.424
497.08
13721.4
12999
8557.94
5612.02
3685.87
3029.25
2420.18
2098.39
1671.36
1299.38
1042.91
845.384
697.97
593.009
550.826
524.514
503.03
484.444
468.055
462.951
16036
12756.4
10851.7
8071.28
4716.2
3250.29
2315.23
1856.15
1431.63
1163.67
1001.72
866.88
735.166
617.17
527.908
480.725
457.869
442.375
435.07
437.995
6562.2
10759.6
9145.75
5418.19
3445.72
2700.07
2145.17
1720.11
1342.44
1137.16
1002.01
884.249
760.817
643.729
515.328
446.66
430.261
425.469
424.814
427.827
3331.75
6386.41
6277.69
4642.47
3104.64
2393.19
1867.84
1561.84
1413.68
1289.86
892.702
637.474
532.896
522.079
512.224
441.182
435.323
436.104
435.194
427.423
11151.7
5991.52
4573.44
3937.3
3117.38
2543.89
2098.03
1782.76
1552.93
1313.7
1114.34
947.509
804.393
679.172
565.318
529.033
515.325
500.53
483.061
435.674
5621.62
4628.96
4588.98
3837.33
3349.81
2852.36
2286.03
1841.11
1476.53
1214.18
1002.97
854.59
755.01
683.833
638.013
609.752
595.329
568.735
542.814
474.629
5628.16
4200.11
3799.24
3831.87
3686.72
3284.75
2440.73
1835.27
1450.51
1183.79
993.832
871.335
788.011
728.994
684.651
655.438
640.225
615.666
593.666
529.959
13766.5
9360.69
4839.6
4343.02
3900.61
3485.96
2525.1
1822.14
1414.02
1183.6
1027.52
926.497
849.6
791.458
741.411
700.205
672.754
638.92
611.619
537.477
19631.7
14003.8
8335.87
5431.67
3624.87
2521.2
1773.71
1376.61
1165.56
1036.82
940.887
879.051
821.443
777.507
729.503
687.311
650.493
607.477
574.518
495.389
22640.9
9452.81
5901.39
3834.41
2518.32
1751.5
1314.16
1077.71
943.954
854.307
795.566
749.527
713.04
678.094
640.549
600.846
562.545
521.109
487.606
435.679
3068.67
3079.99
3232.69
2970.79
2283.46
1487.87
1092.74
896.287
777.701
702.435
650.144
617.071
592.426
573.28
548.826
525.244
501.362
480.844
462.47
439.547
674.145
4507.01
4281.05
2583.14
1774.99
1376.45
984.198
829.29
691.265
610.256
520.833
475.884
459.679
458.904
456.75
448.829
439.292
433.407
428.221
428.133
2888.27
3520.93
2820.37
2081.64
1637.09
1291.07
926.419
547.993
336.756
247.571
206.956
179.003
162.636
163.079
167.887
169.288
169.382
168.062
169.62
171.164
5528.93
5671.87
4465.97
3056.58
2118.32
1432.48
1014.81
787.989
671.803
607.57
539.197
464.101
395.055
338.744
296.932
263.433
237.041
211.872
194.515
169.419
11240
10310.5
7137.58
3446.12
2606.78
2162.88
1938.57
1872.08
1722.26
1605.51
1422.4
1245.91
1080.25
951.017
850.583
781.886
732.381
703.273
689.877
697.615
19553.3
11557.8
7792.87
4496.72
3313.07
2513.64
2185.83
1957.62
1773.97
1639.99
1488.89
1346.22
1219.94
1110.88
1025.38
958.537
909.626
871.055
842.175
824.572
11593.5
8095.26
6621.88
3690.77
2923.62
2081.81
1982.88
1744.87
1616.85
1516.6
1411.65
1313.56
1221.94
1137.9
1070.21
1009.07
960.474
911.438
873.656
838.112
7544.02
7560.9
6592.77
3630.31
3031.87
2116.4
1958.52
1711.46
1539.44
1405.5
1284.13
1199.89
1126.18
1063.05
1011.7
961.666
921.76
878.134
846.036
809.563
5917.29
7014.27
6605.64
3903.45
3330.69
2346.56
2193.47
1850.1
1598.4
1372.23
1203.11
1088.59
1007.11
943.611
897.152
854.025
821.291
786.32
758.691
729.025
8704.73
10022.9
7712.98
4691.83
4187.59
3124.64
2642.65
2134.68
1716.71
1379.57
1153.48
998.625
896.474
829.48
785.422
750.341
725.061
701.323
683.69
674.131
13698.2
11879.1
10161.6
6245.28
4684.2
3587.43
2903.72
2420.11
1878.95
1479.33
1189.64
974.514
826.704
726.482
702.443
679.473
661.44
649.004
644.281
648.374
20791.5
18174.2
14100.7
9442.76
5639.8
4010.04
2937.1
2291.4
1751.48
1419.33
1179.48
982.163
818.598
699.768
622.808
620.496
613.743
611.615
612.491
624.033
11249.6
13633.9
11233.1
6358.68
4243.08
3345.95
2679.1
2098.48
1681.51
1402.68
1185.48
982.911
810.981
691.963
599.125
594.072
590.108
590.472
592.089
601.444
8924.45
10362.8
8747.78
5387.55
3898.56
3078.19
2446.39
2054.54
1784.13
1520.86
1124.52
762.448
579.658
578.034
577.324
602.848
600.756
595.677
586.301
578.194
8719.86
8217.71
6526.09
4615.95
3805.33
3155.32
2693.15
2296.15
1910.96
1540.13
1245.92
1021.34
838.857
716.057
661.302
701.54
678.696
640.774
604.142
556.982
11023.7
7733.2
6449.19
4477.78
4192.16
3514.58
2848.27
2245.31
1770.58
1411.49
1161.81
1001.69
901.865
827.672
836.733
808.782
772.084
712.003
656.599
577.945
9567.75
6475.76
5902.02
5155.38
4794.58
3865.99
2895.17
2176.06
1736.28
1417.37
1227.95
1107.87
1031.91
973.66
929.286
881.919
839.287
776.946
722.111
628.371
12270.7
8042.78
6715.34
6093.55
5386.97
4148.02
2963.4
2174.58
1743.59
1452.16
1290.17
1177.43
1103.45
1034.35
976.616
911.56
859.036
789.549
731.764
631.751
13822.2
12634.2
8097.96
5381.74
4194.87
2936.9
2223.82
1725.11
1493.37
1307.87
1208.13
1122.31
1062.37
995.355
934.925
864.887
805.812
735.892
680.707
596.503
32003.6
9153.13
6636.07
4089.52
3113.93
2058.18
1691.09
1374.54
1242.95
1109.79
1047.6
974.981
927.922
864.146
810.528
748.343
699.845
648.914
611.061
566.238
14855.8
6678.09
5483.5
4083
2909.03
1742.06
1386.5
1120.36
1024.49
910.995
861.81
804.826
774.271
738.047
706.653
675.558
651.488
631.927
613.973
599.649
6425.2
7360.21
6098.16
2962.72
2055.34
1427.3
1072.99
893.749
814.106
712.685
654.126
608.723
598.65
595.311
593.323
586.527
585.691
587.14
590.335
599.5
3083.39
4445.15
3287.57
2073.88
1581.44
1153.75
722.862
410.418
288.425
234.922
209.711
194.432
191.227
186.857
184.557
178.225
174.807
173.305
176.677
176.949
5381.54
3861.44
2769.64
1982.62
1524.41
1141.98
864.371
706.254
605.797
515.103
429.814
347.384
286.118
237.091
204.003
180.808
166.598
158.03
153.058
151.35
20740.3
10496.7
7129.21
3314.46
3434.52
2489.85
2739.84
2387.83
2416.84
2140.71
1984.31
1635.26
1474.65
1274.27
1186.78
1100.79
1068.71
1052.17
1054.85
1096.35
42949.1
13720.3
8876.6
4369.12
4343.47
2920.97
3057.6
2518.25
2504.79
2209.54
2104.57
1825.22
1714.92
1518.74
1439.21
1334.07
1291.3
1243.38
1228.71
1230.24
8617.49
9236.36
8069.48
4112.41
3842.7
2356.73
2709.03
2151.97
2269.54
2031.66
1993.19
1795.48
1714.89
1556.82
1485.04
1385.36
1332.43
1270.63
1240.76
1227.02
6272.63
9829.98
7317.96
4126.69
4047.83
2470.86
2761.82
2190.78
2214.71
1938.81
1875.59
1684.92
1621.56
1485.82
1429.64
1338.07
1295.44
1239.1
1212.21
1195.53
3913.88
7781.26
8265.02
4413.59
4355.1
2549.13
2882.27
2190.16
2149.79
1799.51
1701.8
1519.63
1449.65
1346.97
1288.85
1221.18
1181.18
1138.01
1111.67
1104.26
15866.4
11904.6
8931.23
5276.12
5311.06
3381.04
3331.08
2452.77
2232.52
1722.98
1605.28
1382.65
1319.45
1214.94
1170.99
1111.43
1086.6
1059.06
1048.38
1054.71
21645.9
12330.3
12173
6375.95
6021.73
3736.38
3375.83
2703.85
2240.11
1793.68
1527.28
1291.05
1163.73
1058.27
1091.72
1052.17
1029.64
1022.51
1022.67
1039.7
21327.7
15581.9
16057.1
9410.63
6540.28
4553.94
3570.78
2738.75
2171.06
1802.97
1497.96
1265.03
1102.27
1002.66
987.463
1010.22
992.528
992.074
995.336
1018.64
17254.7
15274.3
13208.8
6573.14
5217.05
3792.13
3229.81
2645.91
2205.29
1806.25
1460.22
1175.61
1051.72
995.84
983.91
995.981
967.274
961.339
961.744
979.575
19813.2
11066.1
9989.66
5539.06
4944.99
3772.07
3101.48
2679.44
2320.26
1863.64
1449.65
1035.72
860.3
916.256
965.764
1006.58
975.78
946.789
933.331
931.128
14140.8
8857.24
8490.86
4929.81
4719.17
3789.44
3411.87
2931.2
2393.44
1878.43
1495.27
1233.88
1104.18
1036.43
1053.55
1104.99
1039.51
963.759
913.568
873.053
12263
9681.92
8356.19
4957.03
5354.47
4151.04
3510.13
2680.06
2198.1
1743.2
1522.21
1351.38
1275.72
1197.55
1281.93
1219.55
1141.14
1031.5
951.44
872.747
11424.9
8399.27
8030.33
5665.33
5897.64
4230.3
3468.98
2550.96
2197.69
1777.7
1668.45
1511.99
1483.53
1413.89
1382.68
1301.01
1229.33
1113.91
1027.15
920.531
12575.3
8670.53
9190.88
6390.53
6514.79
4419.34
3648.34
2572
2292.98
1856.26
1759.04
1598.96
1557.33
1463.15
1409.53
1306.87
1234.75
1117.81
1034.14
922.608
10804.1
11607.2
9615.68
5298.06
5181.56
3379.75
3008.38
2183.93
2069.03
1729.38
1681.2
1530.74
1500.66
1393.25
1341.24
1221.34
1153.42
1044.25
979.012
895.892
15620
10443.7
8893.83
4442.41
4246.18
2403.81
2402.04
1810.6
1788.05
1516.63
1495.68
1360.62
1333.33
1226.39
1178.48
1076.24
1035.51
965.507
932.439
892.44
8632.58
8918.13
8729.25
4776.04
4044.56
2021.02
2039.47
1550.93
1538.73
1278.05
1269.38
1149.68
1154.12
1091.74
1074.69
1024.25
1013.08
989.162
977.751
974.859
15053.4
12130.5
8305.84
3144.97
2791.6
1531.53
1538.52
1177.93
1219.3
992.14
997.365
909.082
944.091
929.378
947.005
937.467
953.146
964.109
985.707
1011.75
4004.37
5933.7
3329.26
1797.48
1268.24
799.424
461.562
318.611
273.134
235.492
215.054
199.567
190.634
181.73
175.969
169.89
167.368
166.111
166.314
166.239
1033.71
1249.68
965.845
1335.3
1189.05
1414.1
1112.5
913.44
877.917
699.566
1141.86
1005.58
988.148
745.452
995.518
1332.26
1181.53
1457.24
1106.06
1504.58
1294.91
695.197
1131.72
990.069
986.211
736.632
1229.68
1048.18
146.1
290.529
197.517
1060.32
1030.24
1021.61
1018.74
125.463
187.828
161.766
980.6
847.506
995.356
841.47
127.697
149.484
134.497
809.336
710.78
783.981
682.094
125.39
134.282
130.711
686.32
635.312
665.809
619.775
135.586
126.178
118.174
626.559
603.34
605.422
577.014
134.502
117.831
117.733
593.45
548.742
570.436
541.32
118.915
117.445
111.838
530.442
472.746
528.233
478.126
80.9745
109.052
77.3458
450.613
399.237
459.204
396.105
197.677
261.922
144.936
993.244
1026.8
901.532
805.974
157.661
130.084
120.148
1001.72
831.486
774.206
723.729
131.886
122.599
150.581
768.48
676.775
723.597
754.704
134.669
160.985
180.803
664.291
632.39
765.743
762.925
122.527
181.184
170.641
618.944
583.618
743.533
650.74
117.764
162.879
143.201
574.958
543.081
618.259
530.246
110.204
135.716
116.611
529.597
479.389
502.339
431.981
79.3149
110.615
77.6043
460.203
406.489
413.73
408.488
139.178
278.66
177.712
861.56
764.709
935.816
892.097
121.178
163.926
152.327
742.791
743.43
873.54
860.804
159.152
153.41
163.766
759.87
798.572
859.678
838.883
185.707
167.405
178.756
805.131
795.074
830.021
798.794
179.704
181.479
180.892
774.511
679.503
783.763
722.679
152.054
177.117
166.03
645.183
549.682
700.464
634.967
123.275
161.986
145.319
518.766
436.241
612.639
540.145
78.0523
138.178
108.58
413.137
393.083
515.957
465.561
189.523
403.218
250.199
1020.55
948.23
1068.38
990.595
152.126
223.664
177.141
920.472
880.211
951.879
864.293
154.616
174.256
162.81
868.464
823.999
834.905
768.355
166.549
163.635
158.53
810.02
773.207
751.349
705.15
171.08
157.933
148.969
759.259
706.925
686.192
628.094
161.985
144.16
130.409
688.494
633.535
609.271
554.383
144.397
125.056
118.091
614.037
550.153
538.269
498.892
110.799
118.241
99.764
530.469
478.925
489.162
468.803
1264.94
1402.79
1241.18
2112.04
1833.24
2015.58
1712.96
1015.61
1194.43
994.995
1722.59
1419.2
1615.71
1338.53
836.91
929.716
807.241
1336.82
1139.39
1262.37
1099
739.699
784.205
725.004
1090.44
978.953
1059.31
964.329
685.927
708.575
671.672
947.594
859.961
938.718
868.031
613.955
660.975
618.348
830.981
740.875
843.934
763.558
524.891
600.688
539.724
710.396
623.481
735.08
649.74
434.544
517.971
436.703
596.372
528.282
620.936
532.719
1250.68
1234.43
1018.53
1967.26
1715.53
1784.92
1516.26
984.779
972.788
890.143
1616.41
1328.37
1447.45
1294.38
802.909
881.067
885.815
1251.75
1098.76
1261.78
1182.76
737.181
888.407
855.849
1062.99
973.323
1168.63
986.57
677.753
824.595
711.321
946.142
870.55
917.651
745.931
620.731
674.661
577.636
845.831
765.202
700.562
605.421
542.424
548.34
477.874
736.734
653.867
584.371
552.207
443.749
462.476
452.941
626.684
538.29
550.429
541.366
972.964
1245.77
1110.35
1701.18
1477.64
1786.44
1628.29
916.796
1082.95
1045.88
1426.17
1331.87
1584.97
1479.28
934.46
1035.77
984.666
1309.89
1235.29
1439.75
1305.39
891.754
966.747
909.315
1214.93
1027.69
1261.41
1131.88
739.329
886.104
805.827
951.163
761.247
1087.89
960.066
592.17
778.87
700.375
707.838
588.882
920.34
806.474
473.783
673.89
592.296
560.632
513.311
769.612
668.008
434.931
566.138
500.086
512.084
523.653
637.533
563.72
1175.45
1471.6
1258.67
1929.23
1699.2
2055.63
1786.87
1067.93
1196.46
1061.93
1642.91
1499.36
1698.43
1472.19
969.993
1016.44
916.894
1448.38
1291
1395.57
1217.35
884.774
888.693
817.719
1242.62
1111.04
1165.33
1032.68
792.341
790.878
716.285
1069.33
953.752
990.078
881.19
702.005
692.738
629.075
918.736
819.882
850.39
769.74
606.85
610.384
562.71
787.641
696.703
746.444
684.278
514.766
550.155
509.025
668.665
583.49
665.583
608.936
1978.83
2195.13
1832.52
2792.36
2349.1
2613.66
2150.48
1522.33
1722.93
1429.79
2191.16
1785.4
2014.16
1683.32
1216.03
1351.18
1176.49
1674.74
1419.05
1596.25
1385.47
1038.16
1132.24
1025.56
1354.78
1186.98
1327.48
1180.25
899.641
996.011
911.807
1134.9
994.058
1135.56
1005.88
767.657
883.142
791.384
951.234
830.322
963.673
842.311
644.319
760.098
668.922
793.637
699.087
805.093
706.38
547.236
638.762
549.149
672.78
607.1
676.452
596.027
1829.98
1951.35
1651.81
2551.11
2132.83
2366.84
2018.43
1420.06
1577.03
1404.74
2000.96
1677.06
1926.64
1702.55
1177.78
1364.64
1260.73
1592.95
1391.11
1641.02
1472.42
1183.48
1100.28
1154.7
1205.59
1119.67
1164.24
1223.29
1004.35
971.786
999.812
1052.17
962.338
1017.3
1045.73
792.048
652.528
586.72
961.562
836.385
686.783
614.041
672.305
575.992
566.115
798.995
703.679
604.385
597.695
552.752
566.604
549.977
674.939
594.326
596.634
566.935
1618.8
1958.14
1774.1
2298.49
2005.94
2405.66
2184.01
1444.87
1725.39
1594.7
1932.17
1748.32
2115.2
1899.88
1312.89
1545.17
1384.3
1690.7
1516.73
1820.27
1580.3
1323.81
1212.4
1318.48
1342.29
1270.54
1154.86
1382.41
1023.22
820.766
1076.61
719.089
1010.14
645.533
1097.96
549.129
946.149
820.785
667.524
561.455
991.555
832.571
517.587
780.97
674.662
547.997
550.126
785.56
677.046
532.921
643.832
568.674
557.871
556.43
650.619
591.137
1844.5
2236.87
1931.96
2538.78
2251.63
2685.13
2311.81
1613.2
1834.18
1579.62
2168.49
1912.85
2185.46
1846.17
1369.86
1493.12
1291.91
1823.44
1564.28
1737.48
1472.6
1161.53
1232.59
1082.06
1485.47
1276.26
1395.03
1198.12
986.049
1034.92
917.88
1214.43
1051.73
1141.68
1007.07
839.143
885.344
800.29
1003.19
868.572
970.484
876.497
708.406
775.935
710.349
827.778
726.421
850.452
779.386
589.585
690.452
628.72
698.259
617.754
758.157
698.156
2459.19
2745.46
2255.21
3377.59
2807.31
3159.26
2635.97
1866.48
2113.06
1772.12
2606.95
2147.25
2483.72
2121.42
1487.04
1682.04
1457.72
2033.99
1760.35
2023.64
1751.43
1236.26
1394.39
1229.83
1676.31
1448.24
1665.15
1432.02
1027.51
1179.09
1033.39
1382.24
1208.8
1361.63
1170.31
855.665
986.975
858.278
1155.43
1021.17
1114.76
991.048
725.155
820.658
724.39
986.671
904.866
962.88
893.18
632.732
695.971
617.865
880.806
815.034
871.27
807.479
2233.83
2504.47
2138.18
3064.46
2607.37
2930.79
2557.66
1768.27
2041.67
1803.18
2470.19
2132.32
2457.16
2192.44
1464.43
1734.82
1541.18
2036.37
1758.06
2102.58
1814.6
1238.42
1477.13
1227.44
1669.9
1433.33
1714.71
1447.05
1031.85
1117.21
845.777
1359.83
1154.41
1348.68
1054.25
848.69
776.168
648.988
1093.26
962.228
965.414
792.012
718.886
629.787
614.453
937.6
882.212
775.428
790.39
614.98
613.047
582.396
863.315
805.153
793.51
772.687
2133.2
2564.58
2321.58
2909.23
2576.53
3075.41
2802.69
1849.95
2245.29
1999.75
2488.26
2238.42
2702.51
2368.57
1582.2
1910.25
1643.17
2146.55
1844.79
2251.17
1891.34
1233.39
1558.98
1329.58
1741.61
1453.91
1777.85
1484.57
841.162
1259.68
1065.96
1353.79
1051.72
1401.42
1173.81
603.576
1005.3
837.199
956.15
761.408
1103.58
941.509
571.042
789.604
688.003
741.436
762.6
910.994
863.536
572.683
665.261
611.922
772.459
766.356
852.415
818.635
2387.82
2842.08
2434.24
3196.88
2859.84
3346.57
2823.66
2009.86
2296.59
1930.1
2739.17
2362.25
2649.9
2212.46
1626.34
1813.9
1530.98
2236.47
1872.15
2087.32
1758.3
1312.01
1447.48
1237.74
1759.45
1474.34
1658.43
1422.58
1072.78
1179.28
1041.09
1396.97
1199.46
1365.65
1227.4
879.875
1003.67
908.043
1141.62
1010.23
1188.56
1096.2
741.796
881.92
811.378
981.796
920.744
1073.93
1012.18
639.841
790.577
729.075
903.014
847.006
992.734
935.388
2951.37
3340.69
2810.07
4276.89
3396.36
3907.77
3422.99
2277.63
2655.64
2286.45
3159.72
2759.18
3260.62
2894.05
1893.66
2186.58
1896.15
2690.21
2386.91
2797.17
2467.57
1563.28
1801.27
1543.17
2283.07
2077.83
2357.92
2080.32
1320.69
1466.88
1263.32
2031.95
1836.9
2001.58
1783.83
1132.97
1206.65
1101.01
1778.97
1679.16
1732.34
1683.93
1026.28
1080.07
1021.8
1662.57
1586.09
1670.73
1607.65
933.164
1001.95
937.588
1565.74
1529.19
1591.81
1563.49
2781.23
3108.69
2742.55
3727.08
3390.86
3629.95
3374.76
2304.7
2643.51
2373.69
3264.02
2941.3
3291.8
3044.41
1904.71
2277.35
1953.81
2835.57
2491.79
2933.23
2557.99
1540.45
1841.01
1547
2377.91
2081.27
2423.49
2090.59
1238.37
1445.59
1137.14
1993.62
1750.36
1979.85
1623.82
1064.86
1044.71
890.962
1692.58
1652.76
1535.61
1491.37
1012.28
890.13
930.241
1656.87
1606.8
1529.82
1553.29
936.329
933.829
906.458
1592.57
1565.13
1548.92
1535.81
2767.91
3292.36
3007.53
3643.35
3409.89
3903.48
3666.7
2419.06
2899.44
2540.47
3332.99
3086.47
3545.7
3163.05
1980.21
2414.06
2021.11
2970.7
2574.92
3022.14
2570.71
1552.53
1895.89
1580.62
2434.54
2090.42
2429.5
2097.49
1133.94
1493.53
1255.84
1979.34
1618.31
2009.47
1758.93
863.3
1184.29
1046.67
1523.87
1470.14
1696.12
1648.05
907.014
1029.88
999.838
1507.02
1534.54
1651.57
1599.34
900.229
989.895
950.086
1532.79
1525.39
1585.63
1562.69
3060.61
3558.71
2981.33
4050.76
3697.65
4157.97
3424.45
2525.93
2795.58
2344.72
3550.05
3116.48
3231.71
2825.22
2000.61
2219.5
1876.53
2978.39
2532.85
2719.07
2345.08
1574.77
1770.9
1532.2
2396.6
2088.5
2235.27
2043.47
1291.79
1478.26
1341.53
2012.41
1806.69
2006.88
1865.15
1123.94
1302.04
1214.37
1758.25
1721.49
1824.91
1774.47
1052.95
1195.12
1136.81
1708.72
1638.85
1763.25
1700.59
977.271
1117.44
1056.12
1621.3
1589.88
1678.86
1653.66
1138.11
1066.43
1039.65
1088.54
1081.05
1126.03
1090.81
1206.63
1187.58
1184.47
1307.48
1148.12
1255.86
1160.77
1126.5
1019.45
1073.1
793.317
1089.01
1037.71
948.624
1244.36
1270.72
1284.33
1352.37
1224.91
1288.18
1303.02
1195.37
1139.83
1236.31
1195.67
1182.11
1143.5
1251.31
1269.91
1355.82
1381.86
1342.08
1319.43
1198.45
1331.85
1189.31
829.488
1178.38
1243.69
1096.96
987.553
1261.27
965.452
942.788
896.573
948.86
928.15
983.299
928.533
918.491
956.4
797.747
691.961
905.167
966.906
605.723
859.192
820.461
729.611
580.33
858.628
830.173
569.41
1046.63
1098.31
1096.16
1139.84
1058.21
1092.95
1087.6
1001.59
978.771
1050.89
984.939
1018.63
957.28
1036.56
966.613
714.437
1098.42
898.833
1020.89
631.08
1032.23
897.052
578.833
909.4
820.227
860.457
581.21
965.961
1248.92
1101.51
1142.38
827.439
1208.72
964.798
1172.05
1341.02
1333.27
1281.69
1394.43
1285.54
1395.87
1336.58
1282.89
1181.48
1231.55
1223.66
1234.76
1222.75
1279.74
1376.1
1392.6
1371.38
1494.52
1209.57
1440.88
1424.76
1294.9
853.98
1240.54
1259.86
1003.12
1211.43
1344.48
1391.45
1450.83
1506.89
1432
1453.01
1385.78
1437.73
1326.72
1260.61
1295.54
1362.28
1260.33
1322.47
1367.21
957.257
735.866
883.492
563.747
947.611
593.941
878.953
1101.83
1127.12
1082.8
1168.48
1072.26
1162.36
1114.75
1043.46
966.936
1035.52
1013.15
1019.29
984.803
1062.95
1047.44
737.843
893.844
1173.73
661.233
1129.54
1086.11
973.329
571.016
794.971
915.358
596.969
885.668
1001.83
1128.26
1200.34
1224.3
1166.99
1194.22
1142.03
1153.43
1064.11
1031.62
1013.78
1106.54
999.247
1085.78
1083.6
387.89
444.426
359.49
866.914
978.896
840.887
897.362
361.924
328.749
317.32
1052.57
1056.79
890.837
868.765
325.329
294.862
271.708
1032.03
943.794
808.714
724.696
256.943
252.316
239.566
855.679
751.747
663.81
627.247
216.179
229.082
222.536
671.803
606.163
596.791
570.406
184.824
213.932
204.796
545.219
497.313
539.454
509.649
147.977
189.972
172.998
440.397
402.975
464.824
434.509
92.6737
160.36
128.03
338.609
342.505
376.95
381.751
416.346
530.723
415.575
1051.47
954.59
950.198
878.43
431.362
220.846
287.944
424.744
427.837
422.172
238.645
430.452
124.578
169.492
449.147
451.25
434.452
161.351
396
128.57
144.817
433.068
420.685
406.465
141.367
367.117
125.979
137.771
387.12
375.46
375.57
136.275
339.607
130.291
127.281
364.207
365.705
340.142
126.853
344.73
137.148
131.282
367.721
365.007
345.035
132.363
322.196
127.142
130.33
338.516
328.384
329.837
127.725
279.839
109.409
116.369
289.258
279.938
288.472
111.754
120.889
153.886
112.273
330.29
337.12
323.456
331.579
389.493
491.333
388.426
838.14
820.92
863.058
828.728
411.52
235.335
274.829
397.748
418.985
397.398
230.592
428.25
181.077
173.252
468.366
467.163
432.52
162.299
356.57
134.012
129.414
393.792
370.455
361.913
128.597
381.857
135.181
138.803
359.363
358.904
372.592
145.159
370.009
129.123
147.124
341.677
331.538
378.382
145.506
327.059
119.823
133.357
313.607
312.072
335.52
130.185
300.026
115.778
121.388
304.571
299.762
306.627
118.942
263.932
104.589
108.271
270.296
264.138
270.174
104.993
103.843
161.549
124.199
316.867
314.389
354.994
300.596
392.021
514.519
401.684
878.687
813.727
891.243
841.972
346.377
200.242
261.414
363.672
337.894
367.29
208.083
328.492
117.864
138.441
299.732
302.493
324.232
132.711
415.507
140.624
144.011
366.97
394.333
393.416
151.328
476.666
174.432
169.265
455.403
471.078
463.988
175.722
489.105
186.664
189.023
486.395
481.922
492.409
188.982
427.343
164.831
177.312
427.967
407.006
444.432
171.419
356.174
137.225
155.109
348.134
325.703
375.688
148.482
271.922
108.126
127.015
267.837
246.89
294.03
117.242
137.067
197.821
159.428
356.3
328.802
396.784
356.631
454.502
609.92
519.746
993.988
940.937
1014.12
965.003
445.751
249.2
315.453
438.413
429.206
452.739
260.791
410.153
162.723
177.08
405.768
406.341
411.364
164.716
413.254
151.583
147.58
424.782
432.23
412.035
146.22
419.184
160.727
147.922
443.752
447.488
416.501
149.977
425.599
171.305
156.344
453.753
453.263
425.827
157.615
403.89
166.843
157.223
435.024
426.644
411.483
155.695
369.462
155.693
149.588
399.086
387.431
380.143
145.888
331.962
134.857
133.357
344.563
336.333
336.75
132.376
166.134
205.959
167.028
428.021
377.86
406.546
409.231
390.875
527.049
404.433
850.848
829.97
852.626
820.908
296.846
364.24
325.206
790.518
748.994
750.738
672.455
260.983
303.26
279.944
708.585
676.038
627.638
588.968
234.475
258.135
239.344
654.066
620.525
553.963
506.129
206.015
216.915
196.582
583.321
548.273
471.377
440.09
177.158
178.208
163.919
516.977
480.656
423.6
395.2
158.563