/*--------------------------------*- C++ -*----------------------------------*\
  =========                 |
  \\      /  F ield         | OpenFOAM: The Open Source CFD Toolbox
   \\    /   O peration     | Website:  https://openfoam.org
    \\  /    A nd           | Version:  10
     \\/     M anipulation  |
\*---------------------------------------------------------------------------*/
FoamFile
{
    format      ascii;
    class       volScalarField;
    location    "4.2";
    object      omega;
}
// * * * * * * * * * * * * * * * * * * * * * * * * * * * * * * * * * * * * * //

dimensions      [0 0 -1 0 0 0 0];

internalField   nonuniform List<scalar> 
12920
(
197.251
227.914
195.32
166.035
139.098
109.309
84.982
72.8736
66.6387
64.6761
63.2663
61.7885
59.478
56.4789
53.55
50.5346
48.1581
44.7252
43.1198
39.4815
103.839
184.687
182.965
151.17
116.664
101.838
92.2706
89.8527
85.8244
83.8949
80.2024
77.5669
74.0584
71.1529
67.6961
64.3602
60.7584
58.4982
56.6406
52.179
99.1819
213.073
217.856
183.985
138.829
112.874
97.0889
90.3437
84.2624
81.6978
78.4082
77.0866
74.7403
73.3912
71.2565
69.5303
67.7213
65.7285
63.7591
57.9297
174.967
194.476
195.199
151.942
116.093
98.3003
86.7723
80.9376
75.3085
72.5779
70.9427
70.8564
70.8565
70.8061
70.3665
69.7147
69.1691
67.8504
65.2968
58.707
124.22
138.105
156.165
139.924
114.372
97.2661
88.009
80.8957
74.4636
70.0854
66.7524
65.2951
64.9403
65.2051
65.9367
66.1786
66.1131
65.1101
62.9582
57.5504
89.3076
176.244
179.261
151.803
127.815
115.292
106.201
96.1947
87.5205
78.6954
70.9341
65.5104
62.3123
60.7615
60.6007
60.6555
60.592
59.8029
58.3244
54.0844
263.505
262.141
204.341
159.342
132.379
123.542
116.561
110.187
102.308
90.9812
80.3724
70.957
63.6167
58.8047
56.4417
55.5816
55.292
54.5262
53.1949
49.58
416.902
370.769
253.865
173.342
132.946
121.141
195.449
171.465
167.261
152.099
136.749
126.307
115.594
103.565
61.2195
55.9341
53.2044
51.0793
48.7358
45.741
403.064
309.075
259.211
197.824
147.686
213.806
312.406
204.782
202.002
201.063
200.85
208.61
203.933
190.922
113.244
59.9691
53.7799
49.2272
45.9507
43.603
136.183
261.175
242.434
174.049
133.668
194.776
296.783
244.103
212.729
205.849
205.186
195.841
192.545
184.283
109.846
56.9736
51.6836
47.6
45.6554
43.8697
192.715
194.928
189.047
154.247
134.73
201.858
285.758
198.148
202.408
230.061
243.599
233.757
214.647
192.677
115.432
56.871
48.8108
46.3597
45.8705
45.042
114.141
130.055
138.299
145.34
141.441
213.678
311.255
234.403
219.028
223.545
231.802
231.729
224.608
209.514
130.707
62.3496
53.5889
50.6407
50.202
49.0191
83.4685
144.945
168.809
159.414
139.275
129.985
202.704
161.233
148.221
140.295
131.886
123.979
113.802
111.502
68.8528
61.5395
56.8165
55.2705
54.9639
53.3166
51.0323
128.825
134.075
133.956
133.116
130.845
118.969
101.831
90.5827
83.1615
76.1948
69.7189
65.0087
61.8279
59.0141
57.0674
56.0466
55.8738
56.2315
55.7802
82.0877
128.196
130.164
129.254
126.357
125.304
119.64
100.73
87.4871
81.9745
76.8174
72.3107
67.8254
64.3644
61.298
59.183
58.1894
57.9481
57.8236
56.4878
560.833
381.705
258.582
187.664
147.8
120.126
98.6544
83.9967
75.468
72.0656
69.4258
67.7847
65.3118
63.7612
62.1078
60.5524
59.583
58.4043
57.6127
54.5947
257.386
260.888
215.479
164.705
127.102
107.048
90.6546
79.2051
69.9355
63.8306
60.8566
59.6799
59.1651
58.9787
58.6685
57.8431
56.9965
55.117
53.4091
48.562
132.03
138.475
132.278
126.31
115.57
104.353
91.7604
83.5494
71.5132
62.1777
56.783
54.8126
54.4899
54.7108
54.6848
54.1222
52.933
51.2245
49.8894
46.8056
162.335
177.927
144.796
117.625
104.408
102.748
99.1476
96.2845
88.7258
77.1497
62.4828
53.3275
49.5322
48.4867
48.9815
49.2579
48.9573
47.8778
46.6802
45.1931
134.979
161.113
147.317
119.127
102.289
94.1832
91.954
88.0543
81.3842
75.4519
72.1557
68.5548
57.7871
43.19
35.8101
34.0244
33.8256
33.5012
33.2751
33.0737
119.501
125.024
112.427
97.8823
84.3931
68.9796
54.8652
46.207
41.9838
40.7042
39.64
38.3692
36.2512
33.8864
31.6871
29.5554
27.5108
25.9378
25.2588
23.5194
130.852
168.201
122.758
89.7385
70.3791
58.5425
50.5206
46.1356
43.0268
41.6564
39.94
38.8297
37.1496
35.6827
34.1011
32.5934
31.2472
29.8948
28.9717
27.8697
120.432
169.499
143.908
95.1874
69.3904
55.6463
48.369
44.1527
40.8647
39.1501
37.7108
37.0899
36.2924
35.6912
35.0428
34.468
34.0499
33.5081
33.1849
32.057
194.487
167.718
108.67
72.2225
56.3939
49.9705
47.1162
43.1534
40.3046
37.972
36.6129
35.6306
35.4038
35.3118
35.3072
35.3243
35.427
35.4933
35.4338
34.1463
456.575
260.852
160.628
89.7017
60.7841
52.5289
50.1787
46.7078
43.2192
39.7766
36.9505
34.8248
33.9069
33.5663
33.7314
34.1179
34.4551
34.52
34.4696
33.282
188.348
152.753
110.999
78.2403
65.6619
60.3796
57.0941
54.6911
50.6124
44.6831
39.144
34.9504
32.2054
30.8754
30.5992
30.6261
30.7668
30.7204
30.5511
29.53
188.522
142.202
119.588
91.5867
76.7108
66.4578
60.7942
58.9757
55.6838
49.2418
41.7397
35.9665
32.1718
30.0629
28.861
27.9505
27.6444
27.2333
26.9995
26.2313
576.074
356.703
177.443
113.542
82.7892
68.2276
68.3549
63.6657
58.984
53.4505
47.3633
40.3641
35.9693
33.337
30.1227
28.4583
26.6771
25.6231
25.0611
24.656
434.153
285.706
179.139
128.076
87.3089
79.3424
68.7254
58.9054
49.2333
43.9825
40.7592
38.3714
36.6193
35.4877
33.1961
28.4612
26.2503
24.6884
23.6405
23.3564
135.941
183.383
152.167
106.53
80.2493
76.5802
70.4264
62.0602
52.4386
44.7855
43.9794
43.3751
41.5779
39.0786
36.9419
28.6008
25.3821
24.0429
23.5672
23.4965
143.44
176.996
130.91
90.4743
70.2548
69.2666
65.6426
57.3523
52.5371
48.704
46.6222
45.3638
44.0468
42.7502
41.9169
34.0233
27.5639
25.2451
24.8462
24.5825
257.991
143.603
102.973
87.8473
73.4842
72.5956
69.5365
61.3859
54.5761
48.101
43.9368
41.2947
40.2051
39.7463
36.6574
32.9462
29.772
27.3388
26.7167
25.9109
153.793
122.8
99.1951
81.5107
72.2526
61.6272
62.6218
57.9807
51.6669
47.2997
43.2424
39.8217
36.3044
33.2818
29.9873
30.1827
29.6359
28.4415
28.2125
27.8633
154.549
120.902
102.368
93.9262
84.8565
73.0164
61.0595
52.1891
47.514
43.4347
40.4502
37.2185
33.95
31.372
30.3482
29.8456
29.4583
29.2583
29.3676
29.6363
252.261
147.998
123.171
101.83
90.9392
78.6666
63.5877
52.1069
45.5275
41.2086
38.2446
35.7961
34.1452
33.0675
32.1474
31.4239
31.1091
30.9913
30.9327
30.6479
329.447
223.265
197.286
134.437
88.2459
64.8033
53.9821
46.6203
41.1857
37.2556
34.97
33.7941
33.2514
32.649
32.1137
31.3941
31.0744
30.6814
30.4605
29.5213
181.974
183.886
162.299
105.315
72.6971
56.1217
48.768
42.9899
38.7053
34.5748
32.2592
30.9616
30.506
29.9477
29.5977
29.03
28.6766
27.8617
27.2637
25.3866
218.763
148.568
108.048
80.5229
56.7106
47.3206
41.7865
39.5136
36.8573
33.8464
31.8815
30.1205
28.974
27.83
27.2038
26.7064
26.3103
25.5596
25.0422
23.6489
119.561
130.419
105.035
83.5678
63.9577
53.939
45.2553
42.4355
40.3674
39.9642
38.5496
33.8096
29.9028
27.1505
25.6964
24.9282
24.5911
24.1998
23.9502
23.2578
87.7473
97.8493
91.1379
78.959
68.3109
61.0854
54.2869
45.9333
38.5717
33.9223
30.964
26.8643
22.1263
19.7504
19.7525
20.2729
20.4808
20.3544
20.1311
20.08
200.541
150.042
123.021
104.507
87.7002
71.3208
58.1576
49.8853
45.5393
43.8276
42.043
39.933
37.3338
34.7562
32.4323
30.3668
28.7943
27.2765
26.3508
23.9122
374.16
190.382
107.493
71.8067
58.7448
50.9743
45.1305
41.8896
38.7368
37.5418
35.7644
34.9019
33.4673
32.5038
31.4368
30.5221
29.7446
28.762
27.9521
27.0729
230.557
170.269
121.3
78.5183
57.3005
47.067
41.3962
38.1974
35.5581
34.3872
33.155
32.6402
31.8346
31.3874
30.8066
30.3682
30.0459
29.551
29.2081
28.3081
231.123
169.968
98.8989
60.0124
48.2777
41.405
39.1326
36.3274
34.182
32.8013
31.7117
31.2892
30.9499
30.8384
30.74
30.6709
30.6018
30.3783
30.0349
28.8156
620.887
251.044
129.773
68.5996
50.3298
42.3447
40.0839
37.4556
34.7829
32.7247
30.8626
29.9211
29.4205
29.3137
29.3749
29.4649
29.4874
29.3208
29.0221
28.0291
157.099
131.05
93.6234
62.0907
54.5312
48.0303
45.0176
41.937
38.0036
34.3425
31.0922
29.0547
27.6803
27.017
26.8338
26.7123
26.6504
26.4246
26.1994
25.5319
191.663
130.65
99.1968
76.7786
65.3951
55.7986
49.8516
46.8782
41.7933
36.5751
31.8868
28.8956
26.9448
25.8344
25.1739
24.6811
24.4371
24.1434
24.0113
23.7421
221.132
198.86
140.831
104.067
74.6704
60.8842
54.718
50.3037
46.1142
40.7556
35.5783
31.2324
28.5619
26.9931
26.1088
24.8113
23.8509
23.3522
23.2024
23.2982
225.824
199.784
178.889
137.924
87.8623
68.3001
54.4338
47.6215
41.3349
37.4233
34.5456
32.0471
30.2557
28.9268
27.5773
25.5836
24.1468
23.3234
23.0177
23.0896
105.074
169.234
148.74
99.9386
71.9493
62.8453
54.8262
47.4036
41.4652
37.8871
37.1242
36.2693
34.4938
32.4372
29.6878
26.4936
24.758
23.9298
23.6492
23.6004
90.5912
133.6
125.962
88.1458
62.7464
55.0724
49.4176
45.0317
42.7624
39.0429
93.686
80.7864
59.373
47.2763
37.97
30.386
27.0755
25.2736
24.6512
23.9065
189.379
131.746
97.3463
75.7753
60.892
55.4098
51.5881
47.1937
44.2867
40.4888
37.1418
35.358
35.3425
35.8744
34.1541
30.5695
27.8103
25.8843
25.1838
23.9762
143.689
129.059
96.338
70.5907
61.6791
53.3787
48.9668
45.2537
41.0879
37.7312
34.6133
32.4032
30.5766
29.126
28.4275
27.9794
27.0545
26.2089
25.852
24.9636
178.375
136.486
98.7537
86.1143
75.5473
63.2382
50.9739
43.0985
38.6451
35.0512
32.393
30.2896
28.6963
27.634
27.2712
27.032
26.8837
26.7523
26.683
26.2638
304.153
222.378
132.19
110.545
94.4946
74.4481
54.9517
43.7382
37.7157
34.0187
31.5582
29.947
28.91
28.3185
27.9553
27.6568
27.5472
27.3952
27.2003
26.4281
218.145
192.485
146.463
102.892
73.49
54.4867
44.3752
38.1646
34.133
31.4817
29.8254
28.9843
28.4063
28.0216
27.6321
27.2486
27.0228
26.5802
26.2247
25.0614
332.235
182.889
121.371
79.4033
57.2153
44.5786
38.9214
34.4538
31.4838
29.0597
27.7598
26.9639
26.4948
26.0626
25.6601
25.188
24.813
24.0856
23.5931
22.3913
127.315
120.415
103.819
78.0072
54.4075
40.7967
35.0254
31.4265
29.116
27.2903
26.1155
25.3097
24.6619
24.2439
23.8768
23.5986
23.3013
22.9187
22.5964
22.0125
91.4076
119.423
97.147
64.3529
53.8475
48.0916
40.5709
34.6642
30.7513
28.8583
27.0227
25.6446
24.5002
23.6777
23.1832
22.9638
22.9054
22.9194
22.9299
23.0332
95.727
105.693
94.5951
81.2678
72.0694
64.0015
54.215
41.6968
32.6868
28.0263
25.6244
23.8312
22.7156
22.7465
23.0794
23.1755
23.1819
23.0914
23.1982
23.3035
132.445
134.146
119.035
98.4766
81.9807
67.4156
56.7423
50.0006
46.1675
43.905
41.3608
38.3727
35.4034
32.7832
30.6933
28.9101
27.4238
25.927
24.8423
23.1844
197.188
150.239
109.016
67.5355
62.9917
54.5875
50.772
47.172
44.9048
43.6777
42.0493
41.0158
39.6507
38.7384
37.681
36.7694
35.8935
34.946
34.1621
34.279
259.778
154.586
107.21
69.0299
59.5534
48.7002
45.9718
42.1629
40.8194
39.4319
38.582
37.7212
36.8642
36.1652
35.459
34.8285
34.3202
33.7184
33.2307
32.885
224.13
140.031
93.265
56.9473
51.6159
41.5049
41.8534
39.1454
38.3807
37.0593
36.5989
36.0627
35.6393
35.2376
34.8827
34.4616
34.1226
33.5086
33.0213
32.369
260.044
154.069
97.4404
57.0471
52.7893
42.1839
42.0153
39.2212
37.8692
35.856
34.9032
34.1379
33.7782
33.4804
33.3058
33.0551
32.8489
32.3932
32.0547
31.6572
179.567
144.831
94.5673
57.9639
55.3842
45.6422
45.229
41.561
38.9824
35.9722
34.0357
32.6648
31.822
31.2502
30.956
30.6156
30.4327
30.1272
29.9031
29.9089
166.182
139.19
100.108
69.767
66.4501
53.4554
50.2053
44.5938
40.867
36.3558
33.8394
31.7587
30.7741
29.9729
29.5181
29.0278
28.8627
28.7714
28.8318
29.2535
209.737
167.725
137.739
92.1662
73.2307
59.4803
53.2308
49.2935
43.7239
39.5338
35.5482
33.0677
31.4506
30.621
32.2369
30.0473
29.1234
29.0037
29.1172
29.6669
260.98
247.138
199.842
132.223
84.9694
66.4327
53.5682
48.122
42.8759
40.0309
37.2022
35.0524
33.2825
32.1169
33.0276
33.1506
30.6483
29.8399
29.793
30.0992
161.517
187.234
160.678
96.368
69.4684
60.0743
52.3087
46.9831
43.8585
41.122
39.1476
37.5122
36.0102
34.532
34.7897
34.8426
31.8683
30.6261
30.2383
30.3143
154.897
154.69
129.908
82.7822
63.3806
55.0439
48.5307
46.1828
45.2277
42.5013
63.2935
59.8976
49.2955
42.6154
38.7277
36.3972
32.9157
30.9696
30.1204
29.7638
141.012
133.541
100.732
70.2271
60.2678
54.3607
50.5905
48.4768
46.2011
42.94
39.8967
38.5746
38.9817
39.2491
38.7311
36.374
32.9765
30.7976
29.7079
28.827
159.176
137.154
101.921
67.5701
63.4697
54.5494
49.5611
45.7097
41.6677
39.017
36.6551
35.7125
35.0981
34.7144
35.6085
33.5676
32.2628
30.9645
30.1586
28.9216
195.296
121.192
103.252
81.7574
73.7652
60.0696
50.7861
43.4589
39.7516
35.9898
34.3896
32.9395
32.6
32.2931
32.307
32.1316
31.9374
31.4246
30.9489
29.826
197.992
148.42
120.725
103.619
89.6761
67.8692
53.6446
44.3769
39.6324
35.8447
34.0679
32.7741
32.3969
32.1342
32.0931
31.9449
31.8053
31.3458
30.8356
29.6213
182.799
164.748
117.106
81.8997
68.257
51.8994
45.5946
39.0252
36.4275
33.5426
32.6736
31.7769
31.6432
31.406
31.2799
30.9531
30.6624
29.9967
29.4354
28.3568
391.285
150.352
107.546
68.8573
57.2914
43.7223
40.6971
35.5529
33.8745
31.3317
30.7775
29.9853
29.8475
29.4674
29.251
28.7558
28.4465
27.9004
27.5391
27.3506
286.334
153.824
115.156
78.7114
60.144
42.9875
38.3631
32.8618
31.3779
29.0534
28.6461
28.0271
28.0848
27.9451
28.0393
27.9022
28.0121
28.0084
28.0675
28.3927
221.243
154.196
112.401
64.4403
59.4643
49.7254
41.6832
34.2067
31.3254
28.6817
28.0091
27.3664
27.9755
28.1494
28.7521
29.0615
29.7037
30.2922
30.7908
31.8443
98.9076
118.757
102.13
81.1162
70.8341
60.5023
47.8898
36.0852
30.2505
27.3009
25.7945
24.837
24.6315
24.3484
24.198
23.7794
23.5502
23.4488
23.6759
23.6941
130.668
110.685
93.7405
79.3112
69.5452
60.1929
52.3679
47.3365
43.8409
40.4261
36.928
33.1986
30.1292
27.4267
25.441
23.951
22.9906
22.3916
22.0365
21.9133
280.44
140.053
119.946
69.6535
84.1505
61.6285
73.3103
62.9854
70.0182
65.8676
68.7221
66.2615
66.5288
64.5157
63.6759
61.525
60.6169
59.066
58.5948
59.1281
468.336
174.702
112.6
67.0311
79.4161
57.2539
67.4001
56.8501
62.8176
58.1845
60.9214
58.3957
59.0527
57.256
56.8702
55.4259
54.9842
54.031
54.0007
54.2129
161.993
137.71
102.789
62.0476
67.7822
46.7963
59.769
48.7817
57.2224
53.1392
56.8893
55.226
56.3686
55.2736
55.182
54.2106
53.7886
52.8445
52.6933
52.9492
173.462
145.603
95.2548
62.2175
73.1596
48.8376
62.3282
50.4236
57.7695
52.7082
55.9472
53.7089
54.8497
53.6101
53.7652
52.8907
52.6824
52.0753
52.0692
52.5767
136.316
129.565
108.662
61.736
73.6753
48.4281
61.7689
49.0205
54.4607
50.4022
52.7445
51.3786
51.9474
51.2028
51.0709
50.4673
50.3393
50.1242
50.1866
50.9624
254.934
147.059
109.049
70.8318
84.1584
57.7603
66.9461
52.3418
56.0035
50.1005
52.4245
50.1111
51.1185
50.083
50.1483
49.4571
49.4691
49.4451
49.6277
50.6316
253.747
160.844
149.142
83.5654
90.4319
62.757
62.5172
56.3277
55.2641
52.6466
53.1505
52.0172
52.0135
51.441
54.6214
51.2644
50.1444
50.0961
50.2174
51.2657
257.477
211.206
195.695
113.712
98.6787
76.9753
68.9854
62.7222
60.8458
60.2938
58.7774
57.8479
56.9002
56.6473
59.8893
55.2479
52.004
51.2326
51.2329
51.9324
240.152
198.341
169.172
88.9857
82.1759
66.5208
63.8614
67.0289
67.2553
65.1375
62.6155
61.8775
61.8708
60.9783
62.8165
57.1357
53.2323
52.0575
51.7117
51.9708
253.369
146.755
130.226
76.6013
79.5982
66.6801
61.998
66.7729
68.6621
64.7705
62.4163
62.0988
64.5235
63.0619
63.3345
57.6196
54.0581
52.2552
51.7231
51.4808
175.713
124.936
112.506
67.4597
72.4059
62.9913
64.7218
67.6718
66.861
64.5248
63.1937
63.1475
63.4169
62.2687
62.7396
57.9224
54.3969
52.2688
51.4549
50.4746
207.333
144.27
114.476
67.2209
79.6861
63.782
61.8872
56.6687
57.0001
55.0111
56.0617
55.7938
56.6192
56.2435
57.8161
55.1791
54.4015
52.7775
52.0422
50.5512
217.55
128.409
114.253
76.6482
84.0451
63.9687
63.0125
54.9921
54.6438
50.1597
51.2383
49.8791
51.7673
51.8325
53.2252
53.3882
53.9473
53.4139
52.983
51.5307
190.785
128.8
127.4
89.2356
95.1481
68.4777
69.1863
57.7081
56.848
51.1616
51.3172
49.6208
50.9072
51.0443
52.2201
52.5891
53.3278
52.8914
52.6631
51.481
190.394
151.288
122.549
73.1034
82.6265
60.3187
64.786
52.7591
54.6973
48.2612
50.0176
47.7863
50.0205
49.7233
51.2893
51.1435
51.71
51.1728
51.0546
50.3894
214.751
145.101
122.552
68.1052
78.2118
52.1062
61.193
48.0555
52.221
45.6677
48.2754
46.0175
48.4639
47.9901
49.2898
48.9215
49.4496
49.0688
49.1842
49.0962
167.603
144.689
133.862
79.4184
82.0204
55.0309
61.1994
47.5941
51.0363
43.442
46.3406
44.0711
47.5095
47.2353
48.8996
48.6389
49.4284
49.4123
49.6372
50.314
231.785
177.252
134.423
68.1101
82.6714
55.3723
64.1823
48.1081
52.6378
43.3993
47.1198
45.0449
49.5232
50.3018
52.6169
52.7243
53.8909
54.6393
55.5993
57.1657
112.715
137.208
102.776
75.5174
63.4331
50.3621
38.2675
31.794
29.4377
27.334
26.1209
25.1629
24.5932
24.012
23.6284
23.2166
23.0436
22.957
22.971
22.9658
37.1686
39.6387
80.4527
39.1086
37.9896
40.6568
90.0627
36.5915
82.8933
74.4278
37.7396
36.7603
91.4632
78.223
90.8053
40.9748
38.5023
40.0726
98.0905
41.614
39.3775
84.996
37.8375
36.8058
98.2442
84.4707
38.8486
38.3136
215.298
303.606
250.333
82.878
68.1928
83.8776
71.6111
199.514
244.116
226.547
64.9938
55.4759
69.0583
61.5988
201.283
217.777
206.573
53.7193
48.745
58.4251
50.5908
199.456
206.409
203.648
47.9948
45.5065
49.3821
48.565
207.407
200.086
193.634
44.8475
43.1154
48.4842
47.3329
206.576
193.352
193.27
42.7409
41.4908
46.7407
44.6695
194.238
193.034
188.369
41.1493
40.243
43.9927
42.0592
160.284
186.008
156.651
39.9652
37.7029
41.705
39.534
250.434
288.272
214.439
83.8453
72.3582
81.3103
68.1173
223.654
203.155
195.242
69.6592
61.6716
64.9959
58.1731
204.56
197.224
218.587
58.3706
50.3862
56.5136
53.2062
206.713
226.02
239.551
49.294
48.8893
52.7079
51.7352
197.17
239.803
232.699
49.0848
48.9764
51.5862
50.4363
193.296
227.337
213.152
48.6781
47.3805
49.8776
48.4359
186.988
207.507
192.347
46.792
44.4011
48.1424
46.9934
158.633
187.336
156.913
43.7301
40.6689
46.4834
44.9431
210.136
297.34
237.451
81.2938
67.5922
83.6628
71.5679
196.078
228.055
219.839
64.6942
59.4462
68.5889
61.8136
224.721
220.619
227.946
58.2363
54.7371
60.1115
54.9677
242.778
230.467
238.158
53.8084
51.9802
53.6235
50.4423
238.799
239.965
239.571
51.592
50.0687
49.5106
47.3128
219.643
237.056
229.514
49.5031
48.0172
46.8416
45.7855
197.766
226.701
214.722
47.6336
46.6513
45.5934
45.1932
157.365
209.38
185.605
46.2008
44.5374
45.1289
42.5439
245.214
357.672
281.746
86.8843
73.1893
92.7168
77.8836
219.693
266.388
237.069
69.9091
62.7313
73.0596
64.9634
221.485
235.13
227.278
60.6172
54.5437
62.4151
57.3708
229.876
227.852
224.27
53.0735
49.8153
55.8456
52.7001
232.98
223.847
217.402
48.8584
46.6672
51.4537
48.2747
226.701
213.864
203.409
46.1468
45.0999
47.2565
44.8839
214.04
199.19
193.564
44.8571
44.2508
43.9115
40.6416
187.492
193.687
177.911
44.0563
41.7362
39.664
35.9636
61.895
69.6957
63.4795
56.2895
50.9151
56.6426
50.7835
51.0269
61.5038
55.1013
49.0402
43.6084
49.1817
44.4331
44.8738
52.4489
45.9551
42.3297
38.9322
42.8751
39.2972
41.5071
44.8449
43.683
38.1763
35.897
38.569
37.2675
38.8861
43.4669
42.2022
35.2214
33.249
36.9287
35.6836
36.9988
41.6376
39.7952
32.6946
31.2762
35.2115
33.765
35.7823
39.1928
37.5773
30.8955
29.9331
33.2997
32.0465
34.6161
37.2732
36.5152
29.6474
28.5575
31.7513
30.3127
64.2104
67.2279
60.0514
57.2651
51.3086
53.8776
48.1964
55.1894
57.7602
52.4664
49.5639
44.4979
46.9191
43.8263
45.8194
51.1204
48.1122
42.8971
39.3459
43.0072
41.0082
43.97
47.5399
46.5374
38.6625
37.8102
40.4962
52.584
43.6564
46.5082
45.9823
37.7521
37.2664
55.013
56.3774
42.1356
45.6649
44.6749
36.9762
35.7723
55.8086
51.3174
39.5819
44.4193
43.3999
35.2771
33.6868
49.5051
44.4861
37.6573
42.9513
43.2188
33.2923
31.1984
42.7871
39.0941
59.367
67.4565
62.6609
51.6591
47.5609
52.6844
49.6191
53.4829
60.6164
55.732
46.5958
44.586
48.696
46.3987
49.6138
54.3637
50.0038
43.993
42.1944
45.6072
42.8703
46.8742
48.7543
45.5468
41.0007
54.3414
41.9281
39.2488
45.701
44.5824
42.3642
56.8756
58.7166
38.4779
37.0758
44.3391
41.9096
41.1006
57.9509
53.4497
36.9394
37.1899
43.1444
40.9902
40.9253
51.652
46.4774
37.4271
38.152
42.6291
40.9338
40.1089
45.1679
40.5176
38.3567
38.1732
63.5982
69.9963
64.3425
53.9567
49.9016
53.6385
49.2838
56.229
61.7962
56.3295
48.8835
46.4664
48.2134
45.4583
49.4654
54.3599
50.007
45.5523
42.4028
44.2158
41.0449
44.8832
48.7141
45.8454
41.3915
38.6524
40.0542
37.6471
41.7866
44.8017
42.1848
37.8416
36.1222
36.8429
34.9145
40.3902
41.3967
39.517
35.8053
35.5092
34.396
33.1604
39.8752
38.7878
36.317
35.5421
35.8479
32.7393
31.4796
39.1112
35.5716
33.4546
35.9271
36.1993
31.0983
29.9552
49.3893
54.3428
48.6587
53.0207
48.5351
51.8289
46.8466
42.5851
47.0954
42.7576
46.9844
42.6696
45.5964
42.516
38.1811
41.4317
38.4132
41.5104
38.9464
41.6582
39.5416
35.2457
37.7552
36.4589
38.2768
36.1841
38.9119
37.2976
32.6027
36.1067
34.8735
35.4702
33.6489
36.813
35.3756
30.6485
34.4184
33.0343
33.1447
31.7538
34.9181
33.6745
29.2299
32.5877
31.3386
31.3314
30.2614
33.2747
32.1073
27.8772
31.0014
29.5301
29.9528
28.8553
31.7194
30.2988
49.09
51.562
46.4201
51.9694
47.0402
49.4236
45.4502
42.8116
45.2848
42.5708
45.7333
42.637
44.7205
43.043
38.5068
41.845
40.1334
41.8167
39.7414
42.5556
41.0411
38.1768
37.4481
38.1128
37.652
38.1077
37.226
37.9223
41.8656
37.0158
40.4938
36.9446
40.7743
36.7942
41.7783
34.9989
72.0928
58.7653
36.356
35.0147
72.7994
55.2285
32.8743
54.8981
45.9061
34.5426
33.078
51.0488
42.5131
30.3228
43.378
38.1496
32.6031
30.6908
40.3323
35.3568
45.8564
50.4056
47.7797
47.7535
45.1201
48.74
47.091
43.3063
47.0154
45.0732
44.6727
43.6743
46.7051
45.3401
41.1719
44.3639
41.8657
43.2705
41.8147
44.725
42.4656
47.1809
61.0187
40.8909
45.5714
42.9551
286.261
40.5783
56.2055
92.3366
47.9486
244.356
48.933
226.138
55.0953
63.5761
36.7938
37.3998
77.7876
59.0925
38.3826
39.2118
49.5983
37.7165
38.5702
54.8398
46.0029
39.5133
39.9415
40.1017
38.7657
38.276
43.8085
37.131
39.8919
38.1673
48.0501
51.1484
47.421
49.7788
47.4385
49.6244
46.6912
45.1108
46.4683
43.8762
46.9365
45.2927
45.8302
43.0193
41.4316
42.6952
39.7341
44.5485
42.064
41.9747
39.4548
37.8973
38.8151
36.5379
41.2134
38.8317
38.7504
36.7158
35.6065
35.7884
34.0361
38.1724
36.9476
36.132
34.9081
35.246
33.5942
32.5312
36.8077
36.9334
34.6443
33.968
35.7705
32.1867
31.1523
37.0965
37.4278
33.7665
33.1891
36.1465
30.8375
29.8427
37.4308
36.8361
33.0062
32.2299
49.627
52.1873
47.894
61.9488
58.8257
59.4603
59.0856
43.9717
46.8528
44.2965
57.1567
54.0302
59.0119
58.6003
40.6372
43.5841
41.6346
53.9851
53.8203
58.4796
56.9255
37.9074
40.9433
39.0496
53.2937
51.5116
55.9099
53.4278
35.5216
38.487
36.9299
51.3116
50.7698
52.9213
51.9461
33.6699
36.4771
35.4206
50.314
49.1079
51.9106
52.1047
32.3815
35.092
34.1921
48.933
48.6319
52.0692
51.6215
30.8407
33.8677
32.4639
48.4048
47.7131
51.4293
51.2562
48.046
49.9911
46.7035
58.6706
59.1298
56.9974
58.3754
44.5166
46.1869
45.0177
59.363
59.5066
59.1285
60.4254
41.8379
44.6209
42.9194
59.3836
56.7945
60.13
56.8101
39.5345
42.2573
59.4078
55.5911
52.8858
55.5405
54.2671
37.9304
61.5703
60.3549
52.2816
51.1027
54.4122
53.701
36.3653
58.0716
49.4802
51.1845
52.2477
53.1197
54.1435
34.9126
47.0297
41.5985
52.4594
52.1286
54.457
54.3053
32.7782
40.1295
36.2222
51.9065
51.6074
53.843
52.8224
46.4365
49.5841
48.4884
56.1992
58.3033
57.7466
60.3164
45.5664
48.2486
47.0658
59.1488
60.5549
60.6521
60.4662
43.59
46.4778
44.2044
60.2334
57.0479
60.1449
57.2257
60.9699
43.3295
40.9783
55.8124
54.3621
56.2162
53.8149
62.4351
40.4275
39.7645
54.5208
54.007
53.314
52.584
51.6056
39.7875
40.4911
53.4924
54.6897
52.8421
54.7037
44.0633
40.7881
41.1036
55.0743
55.0267
55.1188
55.1875
37.7298
41.0195
39.0943
54.5724
53.2726
54.8943
53.8527
48.8513
50.4468
47.8169
58.6385
60.3706
57.9929
55.9846
46.9296
46.9283
44.0167
60.4121
59.5477
55.0796
52.7549
43.7896
43.0295
40.7843
59.1377
56.8715
52.6712
51.9307
40.5409
40.1254
38.1838
55.9029
53.9131
51.4895
50.4867
38.7027
37.6788
36.7436
53.5947
53.2779
50.6319
51.0487
38.795
36.5528
35.9947
53.4734
54.564
51.0262
50.8955
39.269
35.8478
35.4581
54.78
54.6276
50.9636
50.9416
38.198
35.3206
34.3383
54.3535
53.5921
50.7855
50.1591
64.6692
65.6622
66.5451
96.5074
85.6962
89.0462
93.0565
60.4288
66.5936
66.2864
83.3627
83.6759
92.9684
93.4184
60.8737
66.2085
65.4606
85.7
85.7045
93.9786
98.3933
58.7989
64.8866
63.2076
85.3846
87.3983
99.9204
103.275
58.3444
62.8789
62.0327
88.5595
87.8649
103.849
102.864
56.8681
61.6998
61.2209
87.4721
87.6681
101.367
94.756
56.8362
61.1148
60.5583
88.1025
87.4362
93.4072
91.175
55.8678
60.396
60.1581
87.4552
87.5315
91.0133
91.6893
66.5347
62.3246
65.7905
84.4429
92.6123
82.5229
91.9438
67.3248
66.797
68.4591
93.5609
95.2324
93.7215
98.1125
66.0636
68.5342
65.865
96.264
103.097
100.774
113.037
63.0201
64.6244
62.578
105.34
109.371
116.918
122.964
61.8433
62.4189
61.6184
109.949
108.922
123.55
121.426
61.8619
61.9441
63.9057
107.18
98.1317
118.55
105.054
61.1998
64.0446
63.1578
95.4919
91.9081
100.329
92.9878
60.5313
62.6334
61.4273
91.6138
91.9417
92.305
92.1367
65.6946
63.949
67.6011
82.9445
91.7846
85.1687
92.7872
68.5963
68.1036
68.2775
93.5807
98.1892
93.6833
95.752
65.9399
68.0629
65.9369
100.898
113.154
96.8847
103.563
62.5905
65.025
63.4067
117.013
122.583
105.735
108.87
61.7212
63.167
62.8933
123.215
121.723
109.373
109.291
64.2975
63.1827
64.0652
118.772
105.2
108.037
99.5393
63.6293
64.167
63.2777
100.439
92.8374
96.6654
92.1915
61.6528
62.8585
61.6416
92.1293
91.8588
91.6243
91.4983
67.5133
63.5378
61.1625
86.7595
91.9272
83.3794
80.2213
67.1284
60.3148
58.9738
92.3878
93.7815
79.8866
83.0404
65.2434
59.3012
58.901
94.3464
98.6851
84.512
84.8714
63.2996
58.4374
57.6803
100.185
102.671
84.8035
86.6775
63.0896
57.947
58.3326
103.181
103.152
87.6957
87.4385
63.4323
58.2752
58.2069
102.23
96.1753
87.36
88.2911
62.6141
58.4149
58.4139
94.7022
91.7137
88.7516
88.116
61.3474
58.2539
57.4747
91.2938
91.4176
88.0079
88.4732
39.4886
37.2224
39.77
37.0121
38.6404
37.0373
41.1339
46.7869
38.9254
54.7522
44.6458
40.9723
39.2002
214.111
65.2982
52.9487
73.526
258.26
47.4088
73.7474
279.514
38.531
38.0136
38.5831
39.3377
37.5642
38.2801
39.2666
39.7763
37.2434
38.2201
40.737
37.3298
41.2884
39.7798
47.3471
45.7008
40.0967
59.6599
39.5591
221.478
42.4432
64.2624
265.127
54.4102
81.7898
71.9815
286.382
49.1428
41.9464
36.8495
40.6703
36.2997
40.8302
36.604
41.312
71.0923
55.1529
82.8875
241.193
55.6063
73.0807
223.343
70.1108
53.8678
80.9445
116.919
55.5812
61.4129
149.95
41.8248
37.1049
37.4508
41.1316
36.8977
41.7887
41.1638
41.8472
36.3158
37.1342
40.6455
36.6567
41.1704
41.0739
68.8231
246.054
55.6935
92.4317
70.6704
228.933
55.6521
67.9307
118.893
53.2243
88.0806
60.2552
154.23
55.3459
52.1058
82.5153
47.0491
262.12
45.4714
276.448
54.2466
40.3173
41.057
40.1028
40.5587
40.4916
40.5676
39.725
40.2575
39.9102
39.2654
38.2639
40.1631
40.2015
38.9516
47.4453
46.7099
64.629
41.5177
277.621
40.7903
43.8807
52.9777
265.4
88.9469
49.585
281.129
55.5383
47.2492
40.513
40.7368
41.622
40.7793
40.7258
39.9178
41.14
40.5305
38.5272
40.9755
40.0263
40.5576
39.1758
40.9982
55.8366
94.4377
50.7786
153.711
49.6891
205.442
58.7961
40.3141
39.7102
37.3269
37.6797
39.6739
40.1812
37.2627
40.5071
40.0666
36.972
36.9559
39.7351
41.173
37.0048
58.1957
246.694
96.1945
51.0762
228.247
56.7196
52.7909
57.8622
141.999
95.5009
55.5249
195.039
61.0138
54.0205
40.8957
37.9915
41.0263
38.5022
40.6248
37.6331
41.2918
41.1889
37.4421
42.3281
38.3254
41.9819
37.4428
41.6768
175.404
187.752
168.861
108.32
91.3269
105.914
88.0958
169.431
161.48
158.648
81.8589
76.4504
76.5513
69.7563
160.637
152.931
146.804
74.5428
70.4722
64.7403
60.5181
142.759
141.468
137.847
68.1836
65.3902
57.466
55.6774
130.946
134.797
132.857
63.2704
58.6272
54.4355
53.2273
121.078
130.264
127.452
54.8559
50.9793
52.02
50.6204
108.338
122.752
117.14
48.6855
45.7176
49.2384
47.326
85.7361
112.78
100.772
44.5024
37.2202
46.2867
41.2649
181.724
205.173
181.556
120.101
95.4719
120.726
97.5997
144.496
264.704
302.252
164.337
139.654
165.082
275.164
100.297
198.809
231.894
94.5747
84.8624
106.312
226.256
84.6817
201.97
214.351
75.1406
73.1763
87.9193
211.783
80.8961
199.924
209.072
73.0211
73.2287
81.0456
207.933
78.0869
203.316
200.954
72.7305
72.3445
79.4003
200.616
74.864
208.598
204.088
72.5738
72.4165
75.5551
204.927
72.6105
200.845
203.347
71.7581
70.9456
73.2952
201.305
69.7694
186.313
192.147
69.1424
67.7845
70.7399
188.299
97.9215
110.48
94.3677
43.6583
39.5992
44.2345
38.6119
175.766
197.412
175.525
117.853
96.8567
114.104
93.9869
142.283
273.249
295.289
162.846
145.332
160.837
270.482
103.416
239.688
234.453
111.562
105.164
110.265
226.92
82.3192
206.2
202.631
88.6148
83.5787
85.9641
201.991
81.4426
207.103
209.861
79.7146
80.3186
80.3045
214.617
87.7741
202.411
216.071
84.5083
84.736
87.6877
214.877
84.4871
194.979
205.7
83.6363
82.6457
85.669
203.236
80.6909
191.659
196.247
80.6631
79.5567
81.6746
194.26
76.4798
182.162
185.341
75.7053
73.8449
77.9108
182.514
90.7555
113.198
99.253
48.1793
41.2872
53.5773
51.9386
176.336
202.016
178.496
117.321
95.416
118.882
97.2653
138.787
252.054
287.991
160.533
138.837
160.265
256.941
100.928
193.377
209.579
104.499
99.0741
106.741
205.196
87.9524
211.227
213.755
88.5616
87.2494
89.448
219.118
87.0377
235.279
231.754
86.5022
86.9624
86.7576
236.141
88.2694
243.398
244.926
88.9459
88.9194
88.3325
244.895
84.6372
228.689
237.193
86.3079
84.9652
85.9469
233.213
80.1081
208.657
221.837
80.9542
80.0218
81.3561
217.046
77.0039
185.217
200.744
76.7345
75.8096
77.8333
192.866
104.268
125.263
112.452
50.7164
53.3853
48.2955
50.1256
189.869
219.949
203.04
124.768
102.97
122.655
109.285
151.321
281.183
316.361
172.723
150.656
173.082
287.648
107.031
227.217
237.028
112.303
104.749
114.48
228.603
91.4244
219.301
216.386
92.4718
89.8125
94.5511
215.387
85.1382
225.821
216.637
85.2036
84.6806
85.9641
218.138
82.3404
233.135
222.719
83.2932
82.7637
83.0083
223.623
79.5853
230.076
223.344
81.3021
80.7553
80.2276
222.256
76.4024
222.254
217.853
79.4718
78.6337
77.4019
215.142
72.0018
206.849
205.695
76.3998
74.8942
73.2306
204.937
114.793
127.813
115.101
45.6426
42.4185
41.6313
36.3093
176.078
204.461
179.106
113.323
94.4584
113.18
98.4893
153.445
169.973
160.607
81.2764
74.1481
85.8594
82.546
143.877
155.093
149.012
68.5969
65.5166
76.5991
74.142
136.375
143.09
137.783
62.3728
60.4654
69.0556
66.9845
127.831
131.169
124.87
57.6554
55.4028
62.6368
60.2165
118.54
118.891
114.025