/*--------------------------------*- C++ -*----------------------------------*\
  =========                 |
  \\      /  F ield         | OpenFOAM: The Open Source CFD Toolbox
   \\    /   O peration     | Website:  https://openfoam.org
    \\  /    A nd           | Version:  10
     \\/     M anipulation  |
\*---------------------------------------------------------------------------*/
FoamFile
{
    format      ascii;
    class       surfaceScalarField;
    location    "4.2";
    object      phi_0;
}
// * * * * * * * * * * * * * * * * * * * * * * * * * * * * * * * * * * * * * //

dimensions      [0 3 -1 0 0 0 0];

internalField   nonuniform List<scalar> 
38556
(
1638.53
-305.338
151.55
1808.58
-304.34
134.291
1466.36
-30.8841
373.108
1344.44
-48.9901
170.911
1188.26
27.7853
128.393
1168.84
9.40656
10.012
1155.56
27.9844
-14.7012
1199.78
-14.108
-30.116
1237.44
-22.3041
-15.3487
1302.27
-62.5094
-2.3238
1357.35
-63.9533
8.87329
1416.95
-69.8347
10.2287
1465.11
-67.229
19.0739
1501.03
-64.1055
28.1846
1524.3
-58.8384
35.5689
1541.03
-52.5506
35.8234
1551.81
-41.6567
30.871
1559.95
-26.9047
18.7678
1550.81
-5.75601
14.8928
9.82718
9.38888
1731.14
-912.529
1611.53
1121.84
-255.987
560.946
804.413
-87.2726
373.817
734.881
-231.958
252.5
711.554
-151.609
202.722
779.773
-152.461
93.6482
862.491
-104.846
50.112
953.321
-112.945
8.00777
1023.1
-105.956
13.8687
1074.94
-104.056
-10.2875
1105.44
-90.7489
-3.71009
1122.13
-74.5028
-12.0153
1125.3
-57.488
-12.9169
1121.74
-39.9081
-20.6385
1107.25
-18.7904
-25.5508
1091.53
-5.19451
-31.6377
1077.4
11.8733
-39.4031
1069.18
30.8891
-49.5675
1073.58
50.3401
-60.5004
52.1623
-44.7788
1638.76
183.798
-53.3561
1288.29
97.7824
-3.29579
861.748
8.17515
331.09
829.191
-189.296
-10.1057
771.618
-154.169
60.1329
811.387
-180.905
-11.3242
841.746
-161.729
26.5245
894.46
-166.89
1.23089
939.443
-162.04
11.0999
984.875
-148.964
-0.523909
1019.28
-129.401
4.24977
1047.34
-92.1923
-10.3729
1064.99
-64.886
-10.2546
1076.39
-28.7741
-22.5269
1085.4
-6.05814
-21.7495
1091.38
11.2254
-22.3979
1096.51
31.9242
-25.1829
1102.53
45.7542
-20.8829
1108.35
61.2115
-16.6902
63.4456
-10.4629
705.167
709.565
-1804
192.008
135.267
475.674
420.939
-19.0401
-201.716
478.728
-224.091
-22.9938
558.027
-217.36
-16.1072
615.812
-238.494
-0.195681
704.366
-287.251
36.9681
772.317
-258.304
23.463
844.443
-266.883
32.718
900.099
-224.218
19.5975
947.329
-199.538
22.9059
990.714
-140.351
4.77474
1027.22
-105.302
3.91283
1052.81
-47.854
-6.51032
1073.3
-14.6538
-11.9005
1091.88
6.35906
-13.7143
1113.96
29.5165
-19.6728
1130.75
44.1184
-15.1543
1131.55
66.6884
-6.27088
71.202
-0.0236599
810.3
-1613.62
2549.34
585.601
-29.8395
389.806
390.788
-96.8678
272.641
423.187
-246.63
-9.8603
558.787
-400.165
47.2041
678.715
-390.935
32.5131
785.576
-469.499
75.3867
851.905
-388.337
63.7035
893.327
-378.882
70.5778
924.294
-308.608
53.423
944.981
-267.952
47.7274
971.299
-195.017
28.3485
994.14
-145.365
17.2216
1022.02
-79.7043
3.97191
1050.53
-38.0878
-5.07641
1071.67
-6.97925
-7.80545
1095.35
17.3481
-11.5084
1109.53
37.8517
-7.91454
1108.46
65.2374
2.52099
70.9491
7.2356
653.475
-166.768
3097.52
570.19
72.1461
-18.7003
804.599
68.5988
-399.875
829.622
-245.093
-26.5601
871.823
-435.841
-6.52444
930.376
-422.864
-26.624
986.111
-542.031
16.7972
994.815
-419.888
22.8464
983.368
-421.751
54.316
964.523
-339.074
49.3111
946.725
-297.226
47.0715
935.494
-208.19
24.4037
933.744
-153.231
9.61616
936.349
-86.3235
4.01423
954.074
-51.2669
-4.54625
971.004
-14.2303
-9.6788
990.895
9.23604
-11.7787
1000.1
37.843
-9.19435
1000.15
65.0209
0.163565
67.4221
5.64175
-1360.95
92.3895
-2415.58
-402.562
-598.601
-287.645
392.787
-599.361
-127.389
717.383
-648.455
78.7657
958.396
-760.083
83.2297
1069.81
-523.347
-10.9317
1131.84
-137.716
3.80864
-164.211
-141.913
-164.027
1156.75
-117.293
-1.12461
-110.265
-113.674
-102.444
1118.56
-100.062
25.1084
-113.746
-90.8249
-104.035
1066.35
-84.0986
25.7228
-82.7825
-73.2387
-72.4685
989.61
-63.8125
36.8157
-72.2058
-55.6097
-65.6749
940.35
-45.5257
22.0507
-50.4246
-39.928
-45.1023
916.212
-33.2566
12.8977
-42.4076
-28.3412
-37.9851
904.168
-20.8894
13.5693
-27.4379
-15.9086
-23.6125
904.804
-59.8183
7.91463
906.014
-17.7628
2.32245
916.587
4.14502
-5.48138
924.2
35.6465
-5.4166
930.781
57.1093
1.3301
55.2772
7.95607
-265.579
-750.27
1385.64
523.869
-547.079
-840.97
1289.04
-934.761
-429.776
1306.28
-733.485
67.798
1283.54
-794.253
56.9092
308.303
-114.542
-6.70206
301.705
309.064
304.996
-95.8216
-139.567
-107.246
292.009
-120.493
-0.929331
-275.123
294.17
-129.569
-6.77169
-303.125
308.651
-102.099
-3.48868
-298.779
300.32
-84.4156
-1.22345
-288.509
282.014
-61.0127
3.69543
-264.997
263.009
-46.7772
3.23948
-253.761
253.961
-34.7094
1.25201
-245.357
249.001
-25.8589
1.32537
951.743
-14.3421
15.6449
-241.947
-254.538
-227.344
-238.531
-21.8347
-10.3094
-18.3615
933.238
-11.3852
12.1281
919.936
15.6672
1.77973
916.114
39.1573
0.311181
920.742
47.2177
5.26328
33.3329
14.5758
-376.798
-2184.33
-1066.29
85.4322
-483.516
-525.793
940.432
-980.402
-809.359
1103.52
-702.57
-193.998
277.964
-733.798
-80.0383
253.718
306.008
285.408
298.963
-127.112
-8.42933
27.0117
-80.6373
78.7411
-24.3316
-0.783805
-67.5714
29.5642
66.0097
-27.5803
-0.422216
-63.6596
25.3227
65.1905
-27.1768
0.323255
-65.0346
20.6129
66.5569
-23.0412
0.906014
-66.5277
14.909
68.0181
-17.0771
0.677713
-67.3602
10.5031
68.6199
-11.8905
0.127661
-67.6525
7.42521
68.7066
-8.44342
-0.0359349
-67.3368
5.35292
68.3478
-6.3233
-0.0406105
-66.3737
267.839
-20.0343
2.95343
-68.3733
-64.3645
-65.9886
968.691
6.64326
17.8012
-255.729
-261.286
-241.051
-246.454
941.265
33.1518
9.94125
930.292
44.7875
5.34313
934.847
40.3951
2.26803
12.2022
12.1415
669.655
-1525.05
1141.23
1011.05
-370.565
-454.342
1384.34
-582.525
-771.17
1455.08
-515.543
-257.77
312.494
-508.297
-59.7673
300.483
343.058
333.315
156.563
275.624
-138.781
19.0866
27.6668
-70.1773
69.8879
-28.5244
1.14696
25.2627
-77.9058
79.2317
-25.2592
-1.32939
26.0363
-77.4782
76.1762
-24.4643
-0.269992
25.274
-74.567
74.6991
-25.9611
0.555027
20.5337
-77.5509
78.9202
-23.1793
1.27627
13.2561
-81.9307
82.508
-15.1136
1.28015
8.61322
-82.6977
82.137
-9.01024
0.95774
6.402
-79.0288
77.9698
-6.21409
0.871026
-74.0557
20.2215
284.679
-14.232
9.07109
-78.1635
-71.7192
-75.8016
1003.07
54.8124
30.647
-268.217
-289.275
-253.344
-271.054
970.033
55.4951
10.6981
964.701
51.221
-1.10091
974.053
39.1272
-8.08457
5.33209
-2.72339
241.283
-2462.7
-2580.73
283.095
-445.48
33.1024
1021.82
-581.51
-739.742
1074.78
-407.388
-161.111
265.429
-437.062
-65.2973
246.855
284.897
271.658
118.739
267.436
-118.149
-2.59645
28.8902
-68.7631
67.4248
-28.0745
0.522595
25.3364
-67.3385
68.2976
-27.3707
1.07523
28.5815
-76.6638
79.3205
-31.5721
0.333789
29.2598
-83.0362
83.227
-29.3522
-0.098361
26.2842
-82.8309
82.5938
-25.8849
-0.162211
18.5415
-82.3279
82.3289
-18.4827
-0.0598553
12.1995
-83.1342
83.7782
-12.8627
0.0191168
6.95557
-85.5514
85.8997
-7.75436
0.450581
-84.9403
8.56162
330.512
-7.10043
3.98609
-84.9674
-83.0766
-82.9748
1099.58
109.335
47.0166
-309.744
-307.039
-291.839
-292.497
1040.4
98.563
16.1086
1022.53
76.5681
-7.4715
1018.76
52.639
-9.7454
14.4587
-6.24881
2406.15
-939.089
1377.9
2130.88
-102.022
-68.1938
1616.5
-95.4132
28.2842
1394.27
-177.011
-8.14754
284.206
-266.224
49.3623
286.956
304.502
298.409
134.017
268.7
-127.021
8.5102
34.3366
-70.5415
71.5513
-35.5009
0.154594
32.1416
-77.9441
78.8972
-32.2421
-0.852652
32.192
-77.153
75.6044
-30.6161
-0.0273888
27.4101
-71.7566
71.4634
-26.896
-0.220851
23.0788
-72.0635
72.6539
-22.8049
-0.864334
16.8782
-74.8977
75.5386
-16.4298
-1.08942
12.6419
-76.9106
77.398
-12.1209
-1.00847
8.97154
-78.4664
78.388
-8.31855
-0.574535
-76.5015
4.59861
302.338
0.902558
-8.20017
-74.9047
-75.0813
-73.1512
1118.02
120.988
-1.4038
-294.39
-282.219
-281.93
-269.728
1082.09
131.267
3.22268
1049.96
113.525
-4.82526
1032.72
82.9227
-13.0461
35.3745
-9.35024
1400.43
-301.811
-1450.86
1100.55
-2.30418
200.163
1032.32
-61.5428
34.3539
1077.3
-210.162
-11.8227
1153.05
-386.814
44.8355
292.303
-522.086
-15.058
125.207
153.586
110.082
142.124
286.011
290.477
290.404
35.0858
284.5
-125.403
-3.5987
32.312
36.0258
33.381
29.8597
-275.504
275.094
-116.18
-0.819277
28.8736
29.9695
28.7067
29.2166
-278.736
280.623
-114.115
-0.985507
28.0482
28.5849
27.3638
26.1642
-277.204
276.053
-95.9177
-2.49596
24.6165
25.2076
23.5762
21.4465
-276.664
278.574
-77.1962
-3.48963
19.2115
20.1802
17.9374
15.1398
-278.673
279.793
-51.002
-3.72438
12.8483
13.9061
11.7129
10.1714
-278.378
276.524
-29.9155
-2.14766
7.774
9.16601
6.80595
5.45649
-271.494
268.979
-6.12646
-4.66249
2.22745
4.25705
1.3634
1053.9
60.9301
-14.8075
-7.2148
-23.7274
-12.6882
-26.8761
-265.786
-260.897
-253.075
-249.755
1070.12
99.3109
5.45197
1065.83
126.445
9.10973
1060.84
122.613
-4.09373
1060.89
98.084
-15.2075
52.6008
-13.7495
1568.95
1221.46
629.266
1421.75
168.85
-23.9527
1374.46
-38.4493
24.2007
1421.44
-248.971
-8.16882
1366.54
-388.056
56.1358
1304.78
-455.928
-4.39886
1243.95
-400.896
14.7752
122.864
106.463
116.623
101.006
1200.36
-435.136
6.32487
118.592
122.109
114.467
117.231
1147.55
-358.912
15.7785
109.281
95.9957
102.675
87.988
1116.68
-314.588
6.84463
91.8098
85.5892
83.7456
77.4759
1079.08
-220.364
17.1702
71.8589
56.8439
63.8091
48.2825
1044.79
-147.833
22.0192
49.3541
37.8028
41.8083
31.1389
1023.84
-49.5248
12.9629
26.1278
7.36275
21.2448
2.76828
1013.06
-5.05738
16.8288
6.03583
-3.51269
3.05988
-6.56884
1019.06
41.8585
13.0681
1034.16
68.6771
15.5357
1053.37
96.7124
10.5218
1071.37
97.729
6.88905
1093.78
82.7176
-7.04849
54.2796
-10.0471
1370
1243.35
-363.097
1923.14
-0.378752
-383.911
1830.86
-110.77
164.596
1805.4
-280.104
56.5916
1622.28
-234.233
29.3033
1489.91
-285.311
-38.251
1368.2
-258.991
-20.197
1270.47
-318.807
-18.5964
1181.36
-270.547
0.746226
1128.18
-243.551
-17.8576
1088.49
-165.95
-14.724
1059.14
-106.311
-12.1713
1052.24
-46.0792
3.45201
1046.32
-12.2313
13.1003
1049.2
26.1884
12.7836
1062.25
39.74
15.8852
1081.91
62.1223
14.9334
1104.63
65.333
9.6804
1122.58
64.0999
0.662929
53.6699
-2.76779
1495.38
397.243
-5701.49
1742.15
78.6703
-325.816
1517.33
62.4501
51.6023
1382.28
-141.415
-3.63948
1253.4
-111.171
5.81929
1208.95
-221.304
-19.5579
1154.73
-228.984
24.2067
1110.45
-287.061
12.5393
1061.87
-236.982
15.0069
1032.56
-206.739
-7.49989
1014.16
-140.176
-7.37631
1013.43
-97.4
-8.17192
1026.05
-62.6382
3.9312
1041.85
-34.215
6.1843
1055.08
5.56318
7.39587
1066.82
20.4262
7.57245
1079.75
43.7125
5.48508
1092.44
48.7813
3.85522
1097.51
59.1443
-0.110927
58.0956
-1.6055
487.262
-1376.68
1433.73
895.201
-641.87
312.601
1122.99
-276.975
111.632
1202.5
-217.082
-3.84236
1155.65
-129.078
64.7546
1136.79
-209.473
7.03017
1108.95
-222.838
21.6968
1070.74
-247.135
-1.71583
1019.29
-201.054
15.5254
974.682
-165.583
3.45013
944.85
-114.384
4.04037
939.411
-95.4715
3.51108
952.657
-82.4035
6.51922
974.119
-53.6233
-2.05428
990.328
-8.32951
-2.31596
998.484
14.6112
-2.34078
1004.17
42.4988
-4.46867
1006.29
50.0027
-3.34785
999.495
66.9312
-0.989625
68.0637
-1.55546
-446.997
-2655.4
1166.8
393.577
-1228.98
-253.461
875.163
-629.779
-128.781
813.335
-284.5
129.246
966.252
-204.509
-77.4863
1016.49
-179.867
-79.8431
1060.07
-199.769
-66.6514
1068.02
-202.844
-52.2407
1027.84
-158.803
-2.06825
969.066
-115.612
8.80229
913.654
-88.7668
29.7953
896.815
-103.31
24.677
908.153
-120.426
26.685
932.998
-88.9918
10.5237
949.702
-25.5633
0.529506
957.603
10.761
-4.05073
964.401
41.8544
-6.15314
966.227
52.7573
-4.58155
963.047
74.0992
-3.98725
74.7375
-4.18333
1721.73
-2700.88
-2097.16
1369.97
-714.216
-163.006
1361.11
-498.98
-121.936
1161.74
-366.506
281.37
1103.17
-436.168
290.232
1103.57
-185.6
5.33592
1170.23
-144.395
-122.033
1240.72
-81.1069
-192.227
1276.08
-44.6699
-149.498
1263.52
33.314
-136.366
1174.05
41.1764
-40.4767
1069.34
4.77304
-3.37066
996.648
-89.6501
41.9184
965.914
-97.9249
39.6672
957.161
-33.0453
16.2343
958.1
8.01218
1.81011
966.396
33.853
-0.294151
972.907
46.126
0.119762
975.046
68.9277
3.03276
70.9772
2.60721
2810.76
-2167.09
3257.04
-1160.5
3145.02
-386.955
2804.96
-26.4425
2119.63
249.155
1806.46
127.57
1717.67
-55.6007
1761.14
-124.582
1905.01
-188.535
2090.9
-152.58
2126.48
5.59957
1953.06
178.192
1561.76
301.651
1240.34
223.495
1102.85
104.442
1052.05
58.8165
1041.2
44.7021
1042.51
44.8115
1058.42
53.0214
53.7525
486.662
167.369
1251.84
741.598
-488.625
367.979
966.693
-408.503
556.516
1174.46
-328.199
291.344
1205.49
-170.154
267.512
1221.36
-95.6491
89.797
1169.26
-1.61549
39.0147
1165.03
-17.4202
-8.4728
1169.5
-23.0878
3.26915
1207.41
-47.6089
7.37883
1243.31
-50.239
23.2123
1290.11
-56.8528
20.287
1331.81
-52.5368
29.902
1373.62
-47.9889
34.3667
1407.24
-37.3339
39.2823
1430.94
-29.5865
41.7094
1440.94
-13.5268
34.3984
1437.75
-1.52366
23.4816
1399.98
22.3586
30.3048
28.185
20.3578
940.129
-607.695
4981.11
727.091
-370.422
655.781
613.583
-202.849
281.67
588.665
-233.648
182.867
610.939
-102.604
112.897
683.707
-89.668
14.8998
767.952
-52.0807
16.3319
842.185
-71.483
-12.1619
897.036
-77.0944
13.0244
937.192
-87.2077
-10.8453
962.134
-79.2346
0.344079
975.942
-66.1654
-16.5106
980.354
-49.3275
-20.5382
980.34
-34.7687
-33.8444
972.371
-12.0856
-42.83
964.534
-1.47736
-51.9108
956.57
16.3084
-61.2735
949.691
28.92
-73.1318
945.776
39.2923
-73.519
34.9946
-46.7782
1675.5
204.164
3052.69
972.255
10.3826
319.141
634.73
-89.0732
554.839
604.707
-218.299
4.56882
595.854
-136.619
103.001
651.35
-140.75
-15.7378
709.022
-123.571
40.3427
767.671
-138.818
9.91611
815.312
-139.324
25.6887
853.632
-131.388
5.33687
880.405
-112.249
10.4911
898.064
-85.7324
-8.46477
908.036
-60.9609
-8.59301
911.567
-35.0759
-25.7504
912.029
-9.80239
-24.4953
911.935
2.61698
-26.3976
911.46
20.5407
-28.9406
910.872
31.1914
-22.5664
909.893
40.3019
-16.7208
37.5041
-9.5031
236.164
938.078
-739.532
317.126
56.5405
348.555
334.904
-140
-168.567
365.701
-262.15
-9.94034
431.637
-208.736
-9.92634
486.727
-204.076
8.04092
595.789
-245.977
50.3116
660.999
-212.132
31.5683
731.987
-222.182
44.5873
777.389
-181.059
23.8661
817.846
-158.131
28.3306
846.146
-115.836
6.57859
867.887
-84.9003
6.11109
882.053
-46.0614
-9.6904
893.197
-19.2569
-13.59
900.173
-2.16706
-15.9065
905.835
15.7129
-20.5064
907.653
29.1913
-14.9721
904.304
43.3056
-5.92638
41.8244
1.40436
1359.24
797.712
-27.705
958.376
304.519
542.695
454.698
-81.3036
717.623
382.134
-260.073
60.6269
443.452
-370.573
147.723
533.034
-305.643
44.4984
651.065
-388.856
100.234
717.142
-289.604
75.0981
768.746
-289.541
86.3331
799.684
-219.557
60.9828
821.927
-188.199
55.5519
839.608
-135.573
30.4046
851.724
-98.697
18.9022
863.466
-56.6425
2.81141
874.433
-29.0322
-6.26789
881.363
-7.57391
-9.32852
888.077
9.68957
-12.1988
890.148
26.1887
-6.98288
889.749
42.6626
3.56218
42.0702
9.11196
1680.61
1485.99
2014.5
1308.94
416.793
240.693
788.967
199.333
-160.541
687.815
-231.704
46.2225
675.264
-399.49
34.9437
694.043
-338.746
-12.2998
751.719
-456.858
27.1234
754.971
-298.455
28.4459
774.827
-318.906
63.825
778.877
-228.98
54.6847
787.842
-202.209
52.1161
792.211
-141.23
25.6918
796.695
-103.968
10.4027
798.316
-56.9981
2.74875
806.611
-35.6424
-6.23084
812.012
-12.4936
-10.16
818.963
2.5441
-11.5844
822.506
21.5205
-8.06931
826.511
37.0651
1.75689
35.6034
9.187
-1227.39
1613.76
-2478.31
-591.06
-10.6869
-496.498
207.193
-313.301
-413.007
464.497
-515.552
105.309
736.403
-678.682
90.5155
806.25
-417.37
-2.15408
854.952
-120.221
22.0215
-147.17
-115.245
-141.138
868.162
-92.1779
15.823
-80.8845
-83.7332
-71.8176
844.386
-73.7666
43.0741
-88.7702
-66.8921
-83.6657
821.656
-56.7902
36.431
-56.7872
-51.3979
-51.9833
800.919
-42.7593
42.8458
-54.2331
-39.217
-51.2931
787.305
-31.0719
23.3253
-36.3432
-28.0189
-33.456
779.941
-20.7668
15.6921
-31.2672
-18.0803
-29.2842
777.035
-11.21
15.5881
-18.6179
-9.76599
-16.5169
779.329
-37.29
7.26842
780.402
-13.2549
2.01111
784.964
-2.29682
-5.20294
789.838
14.7809
-3.55034
799.715
25.7991
2.71898
23.956
11.3562
2410.46
1224.16
-3606.74
1465.58
207.659
-114.438
1260.04
-443.087
-94.4454
1188.49
-537.819
161.614
1105.87
-648.83
109.679
262.909
-103.841
10.3141
262.74
249.138
249.384
-83.0198
-94.2821
-71.547
-3.13514
247.557
-104.443
2.70959
7.94634
-227.54
240.196
-107.388
-5.39159
5.42886
-241.795
242.858
-77.9277
-2.33082
2.17612
-230.811
233.847
-64.8083
2.80608
-2.98307
-226.874
226.235
-45.5519
6.4145
-2.24018
-215.464
218.115
-35.1182
3.63556
-0.263795
-211.887
214.21
-24.3519
1.52608
-1.56772
-206.753
211.414
-16.8203
2.51656
807.844
-5.48495
23.6716
-204.722
-215.651
-194.516
-203.908
-13.0326
-4.20512
-11.64
801.236
-6.8264
12.3076
796.1
2.21504
2.40365
797.555
11.8023
1.83433
809.881
13.3035
5.43346
9.89313
16.7344
1297.13
-1529.58
-1252.14
1162.47
-413.805
230.337
1160.78
-637.054
-613.703
1146.45
-452.946
-264.542
281.673
-524.835
-123.405
261.088
271.846
251.214
13.3578
311.718
-128.158
-19.0852
1.96745
23.7862
-83.4348
81.6095
-22.2355
-1.69288
-0.674271
-68.8902
25.1283
66.5814
-23.5679
1.42266
-1.07307
-61.4351
20.0781
62.1217
-21.2645
1.57282
-2.11122
-60.1684
16.0139
61.165
-17.3429
2.44366
-1.49127
-60.15
11.1538
61.131
-12.3945
1.75097
-0.386791
-59.2902
7.85153
60.0964
-8.8217
0.550695
0.232223
-58.3577
5.246
59.2523
-6.25539
-0.117409
-0.013583
-57.2729
3.42957
58.1749
-4.52644
0.208461
-55.8975
-4.13675
226.526
-9.86912
6.20947
-57.7651
-54.4237
-56.1286
837.775
6.87548
25.0838
-216.942
-224.336
-205.193
-212.288
830.388
8.9333
10.61
828.782
12.2427
6.50852
837.179
3.92937
3.24569
-0.833613
13.4433
1832.54
-1112.68
1168.5
1703.82
-420.615
-318.806
1465.2
-380.695
-788.913
1382.41
-305.54
-322.383
309.913
-328.258
-65.7965
299.155
296.958
285.836
-10.0516
133.911
280.87
-92.6206
-2.19588
-2.73839
23.2805
-69.5932
69.3425
-22.2571
1.96571
0.857079
20.7425
-72.7192
72.8232
-21.34
-0.363504
-1.30721
21.0685
-70.1746
69.3489
-20.7602
1.82461
-2.15201
18.3488
-68.0619
68.0924
-18.7938
2.56641
-2.92425
13.1259
-68.9384
69.2972
-13.6723
3.11172
-2.50849
8.23978
-69.7628
69.693
-8.18499
2.52351
-1.65059
5.49274
-68.7469
68.2912
-4.94181
1.55528
-1.64181
3.79723
-66.5468
65.8572
-3.1563
1.69047
-62.3589
-15.0865
7.65834
241.575
-1.51271
18.2426
-65.0888
-60.5068
-62.9225
887.694
46.1815
32.4144
-232.179
-245.643
-220.216
-230.729
872.425
26.1859
8.71427
867.136
18.7231
-2.29239
867.934
2.77181
-7.72446
-5.13876
-0.553869
917.33
-1005.95
-1623.54
1033.8
-155.026
-348.955
963.324
-253.156
-796.806
953.896
-233.149
-224.075
247.9
-314.068
-69.1106
234.274
237.587
223.759
4.28029
83.7597
259.51
-90.3249
-9.32494
-0.551529
23.4151
-68.4347
67.9164
-22.5945
0.249202
-2.62062
22.1442
-66.3423
66.6525
-22.7329
2.89919
-2.13836
22.4358
-70.0296
71.0369
-23.8456
2.54087
-0.791298
20.4826
-72.0559
71.7995
-20.7093
1.27444
-0.0242315
15.5601
-71.4156
71.5016
-15.5888
-0.0331691
0.25137
9.43798
-72.6843
73.2537
-9.74285
-0.515814
0.0319634
4.53445
-74.8964
75.3385
-4.87652
-0.131974
-0.831544
1.79065
-75.9589
75.8641
-1.64936
0.785032
-73.6159
-8.56262
-7.41462
279.002
14.1496
14.3185
-74.4603
-71.1861
-72.2306
959.218
93.5186
57.4913
-260.673
-266.549
-242.103
-247.705
925.444
58.746
17.3226
903.955
37.9105
-5.1696
890.931
13.8021
-7.75188
0.424519
-3.98078
1313.28
-436.299
-669.227
1494.3
126.44
-530.686
1274.03
40.9138
-45.5093
1127.98
-83.3133
-11.9354
260.811
-220.711
75.0487
254.254
249.595
244.276
-6.22538
98.4175
256.311
-88.7901
1.09875
-1.51797
27.2705
-67.8924
69.3989
-28.4245
1.16543
-0.968178
26.2609
-72.4182
72.3385
-26.7092
1.49617
-0.889801
25.01
-70.2774
69.3671
-24.2717
1.06174
0.686995
19.6993
-67.1375
66.7337
-19.1842
-0.798277
2.54978
14.4742
-66.0376
65.9957
-14.0827
-2.89941
3.09809
9.55877
-66.1136
66.328
-9.31314
-3.55811
3.04266
5.54398
-67.1035
67.4861
-5.45403
-3.51526
2.5009
1.603
-68.2554
68.559
-1.49655
-2.91096
-67.9194
11.4581
-17.0666
265.597
16.7473
-11.268
-66.4525
-66.1841
-64.9116
966.649
94.6676
17.3403
-259.218
-247.973
-243.223
-236.128
937.11
81.4802
10.0276
912.747
59.7478
-2.29919
892.794
31.8475
-11.1389
12.9592
-8.48754
7.38736
556.659
-1502.46
360.827
140.165
-167.003
801.238
-68.5682
-296.575
877.567
-162.047
-9.41804
1003.97
-331.234
28.9586
256.822
-447.769
-6.92996
98.3262
129.202
96.7334
124.469
251.054
246.914
240.088
29.7124
1.32178
250.409
-105.051
-2.61742
27.5411
28.8709
26.6353
24.6585
-4.48773
-240.653
239.442
-93.6743
4.79082
23.5424
23.7213
22.6603
22.682
-2.0897
-242.188
242.92
-86.7618
2.22671
21.2578
21.6906
20.2631
18.1394
0.335513
-237.969
235.999
-64.1836
-0.996929
16.3401
17.0427
15.2925
13.4092
3.2635
-236.832
237.997
-47.37
-4.72784
11.3426
12.4585
10.4593
8.77916
4.3544
-235.642
235.053
-27.1879
-6.21659
6.75429
8.05849
6.04716
5.02329
4.65764
-235.829
236.589
-10.9675
-7.80839
2.44368
4.08594
1.8057
1.20341
7.20935
-235.209
236.161
1.50313
-9.34986
-0.955029
0.746445
-1.30891
922.955
55.0812
-1.95497
-14.2006
-27.0597
-15.2604
-25.3573
-234.316
-230.47
-223.569
-220.655
934.635
72.0006
16.4383
931.935
80.0523
13.238
924.206
66.17
-2.78664
911.59
42.9937
-13.7384
24.8566
-13.8654
1276.23
2053.93
-150.101
1211.42
415.707
-234.681
1230.04
2.34599
-65.331
1283.57
-149.134
-74.6189
1227.21
-273.738
55.0059
1136.01
-353.821
-7.15278
1056.27
-297.986
40.1495
99.9117
82.2974
94.4123
75.7377
1000.93
-331.259
22.1877
95.0903
96.486
88.986
90.1742
951.064
-231.783
23.9994
80.204
63.889
73.2757
56.0555
918.355
-195.475
12.6477
62.1643
55.5661
55.4365
49.2134
892.902
-107.588
16.5733
44.1538
28.4028
38.2067
22.8747
879.703
-66.6094
19.2605
27.9049
17.1344
24.3988
13.129
878.093
-16.7305
14.2138
11.3939
-1.72843
10.3865
-2.96179
885.819
4.6783
19.7434
0.768967
-8.57717
0.319374
-7.83066
898.488
36.0651
19.4153
914.761
50.1953
21.0681
928.856
62.5845
13.8949
937.319
55.349
9.24619
937.411
43.3161
-7.46287
31.4943
-10.7144
1494.53
298.337
-2676.85
2033
-133.666
-373.009
1990.89
-151.987
361.041
1948.45
-191.347
141.24
1698.58
-132.303
137.74
1465.2
-189.51
30.818
1239.51
-156.845
64.3484
1090.91
-215.073
13.8173
1002.9
-152.518
9.49448
944.408
-139.996
-14.8436
909.306
-75.7128
-11.4979
888.893
-53.0113
-5.35623
888.816
-18.999
5.79757
895.072
-3.44517
14.9676
905.173
21.3628
17.3851
921.692
29.3174
20.2436
937.415
44.328
17.4672
947.155
42.8836
12.4055
946.313
43.3293
1.49166
37.9014
-2.65833
1033.16
-586.33
-7795.73
1546.63
-252.612
-720.337
1567.1
-19.346
-101.504
1407.51
-111.642
76.2407
1198.64
-60.4974
142.882
1094.42
-143.591
38.7502
1013.18
-117.128
65.7195
958.194
-166.978
19.4347
914.869
-113.105
18.9185
883.893
-106.277
-10.2427
866.368
-60.4023
-5.16132
865.225
-54.4116
-5.62901
875.106
-33.6517
8.70269
887.771
-17.9365
8.01062
899.485
5.66525
11.38
910.722
16.4028
9.2495
918.934
34.3866
7.215
923.015
36.9682
5.68945
918.153
46.3093
1.77042
44.4315
-0.672142
1099.43
-732.378
2367.78
1194.32
-396.164
361.261
1008.78
-117.511
395.334
986.284
-151.003
58.0168
944.156
-75.8023
122.187
927.332
-136.308
16.5716
919.048
-121.764
34.6166
888.404
-133.285
-4.76458
862.76
-84.9682
13.0334
833.425
-70.0473
-3.44492
819.836
-45.8017
3.0286
818.994
-53.0836
3.02486
830.437
-48.7675
10.1928
843.756
-35.14
1.83037
852.396
-5.06349
-0.227252
857.952
9.91807
-1.41304
860.481
30.6522
-3.26313
860.474
35.8624
-2.2356
855.332
50.507
-0.0449711
49.3672
-1.09453
816.37
-1554.66
-94.95
752.275
-597.767
12.2373
828.25
-241.692
-80.575
792.446
-110.568
124.616
852.38
-106.368
-106.856
852.967
-120.471
-96.2669
866.918
-138.076
-64.2901
853.646
-120.413
-51.8407
828.336
-61.8961
0.169897
795.168
-31.133
3.05634
775.705
-24.6227
28.0795
777.997
-54.7379
24.0389
799.216
-76.7144
33.413
820.909
-61.6193
15.3103
831.87
-19.0765
3.58165
837.379
4.49012
-4.13203
841.727
26.7134
-6.56246
843.377
34.7741
-5.14352
843.491
51.6769
-5.27136
49.588
-5.18902
848.779
-1528.2
-1415.07
540.812
-320.137
-132.668
716.513
-50.7697
-488.558
709.348
110.11
67.8559
883.696
-37.4005
46.9174
919.532
-30.2464
-120.726
960.258
-131.371
-169.463
956.1
-116.528
-191.954
936.423
-79.8303
-111.887
900.192
-29.4574
-101.81
871.153
-14.9903
-21.07
853.053
-49.2678
9.25937
852.54
-104.6
70.3173
858.049
-79.6008
52.1393
859.425
-25.2675
21.0494
860.564
4.21587
0.946087
866.052
23.6318
-2.70125
872.156
32.5949
-3.80509
877.485
51.1811
-1.79958
50.4667
-2.63419
2267.89
-2981.42
2133.05
-1345.8
1991.25
-295.927
1940.52
134.398
1809.17
343.107
1718.74
187.76
1559.59
-27.8252
1471.48
-153.002
1428.57
-225.457
1448.62
-202.08
1473.68
-34.4556
1409.4
193.206
1238.26
368.189
1095.89
286.264
1027.55
147.516
1001.54
89.0407
999.299
70.5762
1006.11
70.5949
1028.3
82.0112
82.5897
1082.46
-511.99
179.92
632.819
-546.935
1364.56
914.629
-407.453
682.159
1110.47
-283.546
379.048
1160.64
-106.233
323.579
1173.94
-48.4604
124.959
1113.99
16.1213
82.837
1096.8
-7.99592
16.7199
1087
-13.8367
26.8971
1110.57
-36.5138
20.3245
1139.15
-38.8986
33.5365
1176.38
-40.6632
23.7166
1210.21
-33.3437
29.4183
1246.33
-26.2416
24.4813
1273.62
-12.3559
24.3537
1287.52
-2.15828
29.963
1284.53
11.1979
26.1966
1260.6
21.7693
25.6431
1197.76
44.0724
49.0657
32.1332
36.4731
779.588
-739.812
-359.502
421.28
-228.586
695.74
454.392
-209.421
50.5259
458.653
-170.837
65.8976
525.301
-33.1823
-26.8013
596.636
-42.499
-62.3962
676.144
-22.82
-24.2349
733.167
-49.2628
-27.918
780.805
-58.5586
10.1074
814.526
-71.4609
-9.61903
838.213
-65.8951
3.65433
851.211
-54.5984
-15.5733
856.94
-38.859
-20.7519
857.626
-24.5703
-36.2017
853.128
-6.6095
-44.0786
849.32
1.61198
-51.8729
842.193
16.3568
-59.3056
831.662
24.0017
-64.8329
821.592
31.1998
-50.5763
23.5207
-30.5996
-148.054
-180.488
505.736
216.228
-229.837
-43.8912
347.731
-162.996
376.911
401.506
-199.081
-20.9636
470.992
-92.9087
93.2418
530.908
-103.277
-14.8753
601.036
-93.9525
41.3473
656.559
-105.673
10.8034
704.183
-111.606
31.1112
737.083
-107.649
8.62484
760.769
-93.62
14.5301
773.339
-72.0118
-3.62147
779.95
-50.6293
-3.43345
779.258
-30.5526
-19.0762
776.174
-10.5895
-17.4314
772.278
-1.24272
-19.6471
767.536
13.1414
-20.9826
763.67
20.3386
-15.0371
761.48
26.7242
-10.0549
21.5959
-4.88125
-74.0577
389.703
-1388.16
239.526
-389.225
194.36
220.449
-193.31
-119.176
261.847
-257.233
6.81427
335.39
-169.072
-7.30624
385.494
-159.408
14.0676
498.511
-194.434
37.7766
555.281
-159.304
28.4295
626.47
-179.786
41.5787
664.758
-141.725
19.6537
702.339
-128.221
25.3501
723.439
-92.52
5.98706
739.787
-68.2174
7.35144
747.587
-40.9542
-7.08899
752.814
-20.096
-9.31047
753.833
-6.44256
-11.7259
752.863
7.27197
-13.6667
749.896
17.3578
-9.02404
746.092
26.8826
-2.28071
23.1944
2.82527
793.513
-545.889
-5162.84
-156.557
-158.02
1261.56
244.309
-198.551
321.997
180.353
-265.576
132.926
327.408
-312.541
144.136
398.93
-223.201
36.7698
533.047
-318.883
90.5668
594.773
-206.336
60.4039
652.823
-223.344
71.8405
682.99
-157.119
46.2098
707.461
-141.709
44.5693
720.543
-97.2015
22.0043
729.718
-73.7415
15.2509
735.439
-45.3181
1.45425
738.974
-26.1726
-3.72566
739.752
-9.6042
-6.94518
739.768
2.85043
-7.79332
738.255
14.9859
-3.09766
738.679
25.7095
4.31116
22.9587
8.61056
955.037
80.3497
343.978
738.427
251.814
47.4698
508.383
111.646
-240.694
472.239
-219.571
36.3614
512.229
-330.135
12.5468
510.446
-237.631
3.9131
591.313
-390.058
17.4314
591.189
-198.059
20.293
630.213
-248.168
49.6246
644.607
-156.725
39.8966
667.058
-151.758
39.7143
675.944
-97.5559
17.1605
683.486
-78.8047
7.92405
686.14
-46.0009
0.777387
690.33
-32.0978
-4.49565
692.415
-14.8242
-7.02489
694.986
-4.07004
-7.23571
696.683
8.80236
-3.58263
701.806
19.2033
3.14035
17.5633
9.44393
-1212.54
110.471
-2977.98
-566.866
-121.64
-768.721
55.7709
-362.212
-561.786
278.996
-455.86
118.373
551.445
-603.031
90.9629
595.764
-295.64
11.5364
649.788
-101.509
32.03
-129.521
-97.5976
-125.463
664.749
-66.5573
23.6125
-52.4165
-58.4945
-43.3413
666.685
-54.5232
41.6146
-73.8993
-49.3194
-70.9027
668.242
-40.6899
32.8887
-40.9439
-36.6928
-36.4127
671.792
-31.5101
34.6152
-44.7506
-28.1581
-42.6588
671.77
-21.2042
17.7727
-27.1341
-19.3401
-24.3029
673.395
-14.5951
13.7816
-25.8587
-13.266
-24.7989
674.239
-7.87069
12.8454
-15.0046
-7.16422
-14.0627
676.648
-32.8128
5.57423
677.828
-15.4976
1.50453
681.177
-8.54045
-4.08155
685.133
1.73461
-0.438568
694.61
9.12855
3.31703
9.53708
10.6511
1300.12
41.8539
-3175.05
975.925
22.552
65.5666
961.651
-400.765
-41.6182
906.834
-425.687
186.258
886.601
-572.997
99.8778
207.48
-69.7116
19.0466
209.341
192.403
193.801
-49.4086
-60.7644
-40.9117
-7.89869
194.069
-85.481
5.28148
5.39483
-172.875
186.617
-84.9119
-0.782782
1.62554
-190.6
192.289
-59.6535
1.81586
-4.10851
-181.212
188.135
-50.9633
7.4584
-6.32638
-185.435
188.284
-35.2877
7.25553
-2.87287
-180.332
185.543
-27.675
4.13331
-1.52788
-180.745
184.508
-18.92
2.08881
-2.74881
-177.902
183.054
-13.4253
3.15144
698.549
-3.00634
25.6964
-176.812
-185.691
-167.575
-175.25
-11.1573
-2.86155
-11.0322
696.463
-11.3141
10.2099
696.052
-8.52392
2.7977
699.086
-2.10657
2.64207
709.88
-0.413038
4.18103
2.21087
13.4716
1113.53
-1369.36
-960.424
1463.27
-293.883
197.027
1265.07
-449.458
-366.814
1131.43
-330.915
-225.673
248.849
-450.526
-33.3557
227.546
232.08
210.439
18.8379
270.317
-97.947
-12.0712
-0.487976
17.6401
-70.8314
68.1914
-15.3349
0.822792
-1.82942
-57.1164
20.6206
55.988
-19.6776
2.0148
-1.90476
-52.933
15.843
53.7832
-16.9032
2.11476
-2.40039
-52.1324
12.5467
53.1039
-13.5732
2.45534
-1.78175
-52.2136
8.49854
53.1538
-9.49307
1.83611
-0.524059
-51.2847
5.9751
52.1249
-6.85511
0.563884
0.00406183
-50.3797
3.91693
51.2302
-4.84381
0.0723727
-0.493119
-49.2029
2.4718
50.0226
-3.36442
0.566016
-47.8792
-7.39176
194.765
-6.26076
8.006
-49.4864
-46.632
-48.127
731.197
-5.40495
29.4782
-186.667
-194.451
-176.7
-183.684
729.285
-6.67763
10.6759
730.466
-3.14067
6.36201
736.923
-5.87073
2.24603
-2.33545
10.7556
2184.72
-1225.78
1359.27
1964.13
-210.895
-181.211
1398.35
-249.42
-423.165
1176.5
-218.999
-212.451
255.962
-278.509
-29.4285
246.058
238.158
227.936
5.93693
111.361
229.601
-77.3331
-13.604
-2.50461
16.6278
-58.2953
58.547
-16.2854
1.91042
-1.15689
16.501
-60.9895
61.0709
-16.9491