/*--------------------------------*- C++ -*----------------------------------*\
  =========                 |
  \\      /  F ield         | OpenFOAM: The Open Source CFD Toolbox
   \\    /   O peration     | Website:  https://openfoam.org
    \\  /    A nd           | Version:  10
     \\/     M anipulation  |
\*---------------------------------------------------------------------------*/
FoamFile
{
    format      ascii;
    class       volScalarField;
    location    "4.2";
    object      turbidity;
}
// * * * * * * * * * * * * * * * * * * * * * * * * * * * * * * * * * * * * * //

dimensions      [0 0 0 0 0 0 0];

internalField   nonuniform List<scalar> 
12920
(
-0.0212304
-0.0390892
-0.058633
-0.088452
-0.114242
-0.134343
-0.150841
-0.166055
-0.181505
-0.195935
-0.208476
-0.219764
-0.230542
-0.241486
-0.253234
-0.266362
-0.28137
-0.298693
-0.318692
-0.342379
-0.0139338
-0.0571677
-0.0936111
-0.117931
-0.140839
-0.160366
-0.175099
-0.186554
-0.197683
-0.206803
-0.217022
-0.225588
-0.233907
-0.241237
-0.24947
-0.259437
-0.271705
-0.287582
-0.311843
-0.350074
-0.0145652
-0.0502252
-0.0755099
-0.0971559
-0.123845
-0.152215
-0.17854
-0.200933
-0.220379
-0.23473
-0.245446
-0.249796
-0.252644
-0.253676
-0.257578
-0.265102
-0.277308
-0.296275
-0.323552
-0.358745
-0.0207389
-0.0497079
-0.075502
-0.116011
-0.153045
-0.18427
-0.211294
-0.235174
-0.256661
-0.275748
-0.291438
-0.301492
-0.306242
-0.30463
-0.302205
-0.302316
-0.307228
-0.320689
-0.343634
-0.374184
-0.0223718
-0.0340847
-0.0714713
-0.132234
-0.168782
-0.193074
-0.208935
-0.226762
-0.24469
-0.267238
-0.292042
-0.316794
-0.336556
-0.348268
-0.353028
-0.355927
-0.361089
-0.372607
-0.39068
-0.414334
-0.0186199
-0.0683074
-0.086882
-0.118568
-0.138821
-0.15553
-0.169044
-0.184664
-0.200088
-0.221772
-0.249979
-0.286807
-0.325188
-0.358678
-0.380985
-0.394552
-0.405439
-0.419407
-0.438765
-0.462529
-0.0530558
-0.0716965
-0.0892627
-0.102647
-0.116209
-0.130193
-0.1405
-0.151578
-0.161113
-0.174705
-0.193422
-0.2253
-0.267463
-0.3168
-0.364573
-0.403194
-0.428894
-0.450879
-0.473584
-0.496559
-0.0785838
-0.044388
-0.0581588
-0.0790227
-0.099962
-0.11634
-0.116844
-0.116669
-0.116045
-0.113727
-0.10892
-0.103359
-0.103975
-0.115501
-0.165904
-0.237341
-0.30858
-0.369438
-0.414967
-0.443749
-0.0505747
-0.0424256
-0.0498319
-0.0693168
-0.0939871
-0.100696
-0.109033
-0.113121
-0.110198
-0.10368
-0.0930926
-0.0809831
-0.0711514
-0.0655489
-0.0734589
-0.146213
-0.215078
-0.277295
-0.322331
-0.34773
-0.0202257
-0.0319231
-0.0429664
-0.0649639
-0.0925622
-0.0981063
-0.102787
-0.104884
-0.107261
-0.10605
-0.100823
-0.0928056
-0.0842778
-0.0769041
-0.0781584
-0.127781
-0.179604
-0.225793
-0.260304
-0.286209
-0.0439995
-0.0411669
-0.0473352
-0.0706251
-0.0993186
-0.106286
-0.114826
-0.118865
-0.120206
-0.119176
-0.114392
-0.105101
-0.0933692
-0.0818783
-0.0768152
-0.11018
-0.151383
-0.190544
-0.225411
-0.258493
-0.0147569
-0.0316463
-0.0501241
-0.0732079
-0.10114
-0.107988
-0.117913
-0.125995
-0.133295
-0.135868
-0.132895
-0.123469
-0.111214
-0.0976022
-0.0825474
-0.102465
-0.136207
-0.172041
-0.208509
-0.247731
-0.0197322
-0.0467619
-0.0621042
-0.0863439
-0.111881
-0.134499
-0.139701
-0.150571
-0.16371
-0.173921
-0.177767
-0.169589
-0.152849
-0.130765
-0.121727
-0.138765
-0.164147
-0.193456
-0.225418
-0.262638
-0.013373
-0.0400295
-0.062407
-0.0812785
-0.100009
-0.122003
-0.14983
-0.179523
-0.208366
-0.234889
-0.25845
-0.277612
-0.284884
-0.27944
-0.26715
-0.261395
-0.265848
-0.280283
-0.301541
-0.33108
-0.012255
-0.0310697
-0.0495763
-0.0681807
-0.0868274
-0.109436
-0.139834
-0.173168
-0.206032
-0.233344
-0.258071
-0.282473
-0.304549
-0.321011
-0.331378
-0.339488
-0.348248
-0.361159
-0.378562
-0.400496
-0.0304192
-0.0410949
-0.0577383
-0.0793116
-0.105401
-0.13112
-0.15674
-0.184784
-0.217646
-0.249884
-0.279271
-0.304715
-0.327351
-0.346258
-0.362453
-0.377311
-0.391273
-0.406518
-0.42491
-0.448009
-0.0341601
-0.0545782
-0.0648493
-0.0808352
-0.101909
-0.123388
-0.146751
-0.175613
-0.214884
-0.259425
-0.30106
-0.334352
-0.359211
-0.37781
-0.392349
-0.405532
-0.419534
-0.438019
-0.463745
-0.495522
-0.029043
-0.051997
-0.0704858
-0.0926375
-0.100986
-0.110069
-0.124493
-0.147764
-0.187337
-0.236203
-0.286409
-0.330116
-0.36492
-0.389875
-0.406941
-0.421232
-0.43802
-0.46006
-0.48863
-0.521961
-0.0150454
-0.031576
-0.0525042
-0.0781849
-0.0927654
-0.093831
-0.0916184
-0.0968093
-0.116896
-0.150452
-0.202346
-0.262376
-0.32005
-0.374884
-0.415681
-0.442236
-0.464271
-0.487711
-0.514272
-0.54351
-0.00815408
-0.0161851
-0.0245394
-0.0384223
-0.0596769
-0.0819819
-0.091654
-0.0929462
-0.0944844
-0.103953
-0.119787
-0.141879
-0.189556
-0.274166
-0.365027
-0.431111
-0.473446
-0.503018
-0.527658
-0.550947
-0.0142465
-0.0293541
-0.0363373
-0.0419778
-0.0413575
-0.0320358
-0.0223666
-0.0152549
-0.0122068
-0.0123845
-0.0163628
-0.0228093
-0.0320987
-0.0430651
-0.0544303
-0.0644969
-0.0722614
-0.0764519
-0.0811951
-0.0890455
-0.00852657
-0.0279389
-0.0264929
-0.0365714
-0.0415064
-0.0318779
-0.0229949
-0.0152557
-0.0127924
-0.0115066
-0.0112111
-0.0114916
-0.0126385
-0.0150012
-0.0187746
-0.0240836
-0.0310758
-0.0400551
-0.0523009
-0.0677537
-0.00524515
-0.0183503
-0.0215107
-0.0173532
-0.020873
-0.020038
-0.022207
-0.0223896
-0.0235987
-0.0224857
-0.0207036
-0.0185084
-0.0175804
-0.018749
-0.0224972
-0.029168
-0.0391399
-0.0532425
-0.0730251
-0.0984371
-0.0124998
-0.0227509
-0.0172851
-0.0230247
-0.0335446
-0.0430176
-0.0572253
-0.0610895
-0.0646471
-0.0604687
-0.0546769
-0.0444021
-0.0369203
-0.0330576
-0.0340342
-0.0399722
-0.0509661
-0.0674763
-0.0905262
-0.115151
-0.0201631
-0.0202609
-0.0294261
-0.0356892
-0.0431124
-0.057606
-0.0720743
-0.0822571
-0.0900176
-0.0928113
-0.091565
-0.0833322
-0.073008
-0.0631217
-0.0588519
-0.0604101
-0.0676156
-0.0802972
-0.0993841
-0.118268
-0.0120976
-0.0143266
-0.0177449
-0.0234581
-0.0296758
-0.0367862
-0.0457584
-0.0570285
-0.0673633
-0.0751493
-0.0798658
-0.0791534
-0.0727235
-0.0652809
-0.0595844
-0.0582338
-0.0619235
-0.0710892
-0.0872226
-0.105633
-0.0132871
-0.0271497
-0.0277895
-0.0251606
-0.0258231
-0.024688
-0.0276846
-0.0349676
-0.0435816
-0.0500289
-0.0556371
-0.061252
-0.0654898
-0.0675195
-0.0641992
-0.0596719
-0.0596786
-0.0663589
-0.0801434
-0.0968012
-0.0265217
-0.0193234
-0.0177721
-0.019348
-0.0226172
-0.0224346
-0.0229342
-0.024011
-0.0272686
-0.0311817
-0.0323057
-0.0316275
-0.0400687
-0.0576868
-0.0620773
-0.0639841
-0.0648659
-0.0718778
-0.085722
-0.101932
-0.0201678
-0.0143117
-0.0118198
-0.0128888
-0.015708
-0.0180791
-0.0222079
-0.0318061
-0.0433457
-0.0515415
-0.0422086
-0.0258025
-0.0225918
-0.0338281
-0.0584989
-0.0629482
-0.0681144
-0.0746327
-0.0819604
-0.0892694
-0.00996449
-0.0116626
-0.00979151
-0.0108758
-0.0149959
-0.019627
-0.0248507
-0.0260309
-0.0421982
-0.0550778
-0.0632622
-0.0679832
-0.0659268
-0.0635636
-0.0673246
-0.0630783
-0.0626874
-0.0630543
-0.0645188
-0.0672059
-0.00261169
-0.00540645
-0.00664314
-0.0104194
-0.0167292
-0.0212825
-0.0325474
-0.0553543
-0.0573935
-0.043514
-0.0321362
-0.0314598
-0.0405513
-0.0539844
-0.0611524
-0.0628197
-0.0610666
-0.0583259
-0.0585338
-0.0628459
-0.00433383
-0.00313894
-0.00563611
-0.00764027
-0.0147218
-0.0193626
-0.0270375
-0.0375294
-0.0427503
-0.0365367
-0.0320644
-0.0316172
-0.0345782
-0.0385384
-0.0460662
-0.0549406
-0.0571517
-0.0571346
-0.0594861
-0.0669964
-0.0078684
-0.0171452
-0.00837562
-0.0105598
-0.0141122
-0.0170465
-0.0202212
-0.0309589
-0.0375514
-0.0404217
-0.0452611
-0.0499681
-0.0521678
-0.0516063
-0.0552195
-0.059182
-0.0604999
-0.0602988
-0.0633122
-0.0723631
-0.00397605
-0.00823573
-0.0129718
-0.0157123
-0.0182607
-0.0189534
-0.0254963
-0.0329603
-0.0409241
-0.0485097
-0.0599673
-0.0703668
-0.0745695
-0.0767221
-0.076833
-0.0753982
-0.0712522
-0.0667948
-0.0663947
-0.0741149
-0.00283201
-0.0050819
-0.0108973
-0.0126756
-0.0123385
-0.0143957
-0.0217496
-0.0310847
-0.0364517
-0.0386584
-0.0411052
-0.0454117
-0.0528563
-0.0609873
-0.066302
-0.0679075
-0.065793
-0.0618799
-0.0609167
-0.0681909
-0.00825193
-0.0135584
-0.0168402
-0.0151295
-0.0156122
-0.021681
-0.0349184
-0.0460214
-0.0513854
-0.0524644
-0.0533149
-0.0545138
-0.056957
-0.0564434
-0.0547928
-0.0510591
-0.0482553
-0.0481005
-0.054011
-0.0662554
-0.0118869
-0.0221899
-0.0236086
-0.0212611
-0.0276894
-0.0322971
-0.0462097
-0.0579259
-0.0699374
-0.073395
-0.0738985
-0.0706851
-0.0655442
-0.0565629
-0.0484371
-0.0432492
-0.0426335
-0.0469657
-0.0567264
-0.0682676
-0.014704
-0.0136178
-0.0151538
-0.0180967
-0.0179508
-0.0222544
-0.0336946
-0.0479821
-0.0668572
-0.0770222
-0.0817422
-0.0751346
-0.0646917
-0.0500666
-0.0412164
-0.0393032
-0.0420992
-0.0479248
-0.0556183
-0.0627308
-0.000787412
-0.0100097
-0.0261524
-0.0312201
-0.0211947
-0.0117485
-0.0139342
-0.0223967
-0.0403643
-0.0616153
-0.0844638
-0.096447
-0.0960433
-0.0776883
-0.0556393
-0.0452362
-0.0461778
-0.0522163
-0.060682
-0.0653527
-0.00195559
-0.00689998
-0.0141721
-0.0188321
-0.021363
-0.0182812
-0.0131582
-0.0123902
-0.0182063
-0.0317526
-0.0561992
-0.0926872
-0.133383
-0.161721
-0.169735
-0.172307
-0.178734
-0.191159
-0.206161
-0.220545
-0.0135451
-0.0183108
-0.024658
-0.0273188
-0.0267557
-0.0209319
-0.0144278
-0.00965973
-0.00741764
-0.00702626
-0.00806881
-0.0101141
-0.0131292
-0.0167089
-0.020486
-0.0240931
-0.0272758
-0.0307893
-0.0375023
-0.0489048
-0.0122211
-0.012013
-0.00955027
-0.0100663
-0.00949274
-0.00715804
-0.00634651
-0.00604973
-0.00640097
-0.00722716
-0.00850233
-0.0104464
-0.0130882
-0.0164233
-0.0202996
-0.0245839
-0.0291132
-0.0338517
-0.0389631
-0.0434777
-0.00512377
-0.00973457
-0.0114676
-0.00964683
-0.00893753
-0.00807182
-0.00874534
-0.00956141
-0.0105719
-0.0112633
-0.01229
-0.0141022
-0.0171277
-0.0215115
-0.027187
-0.0340262
-0.0419148
-0.0507464
-0.0602905
-0.0687588
-0.00550749
-0.0100243
-0.00966106
-0.010709
-0.0121988
-0.014873
-0.019951
-0.0209881
-0.0222497
-0.0211474
-0.020673
-0.0208644
-0.0231245
-0.0272872
-0.0331734
-0.0403477
-0.0483654
-0.0565993
-0.0643711
-0.0686596
-0.0103215
-0.0136509
-0.0177473
-0.01875
-0.0194857
-0.025498
-0.0308653
-0.033874
-0.0358577
-0.0347931
-0.032888
-0.0303614
-0.0296843
-0.0311397
-0.0347089
-0.0395171
-0.0449928
-0.0505507
-0.0561495
-0.0595689
-0.00436402
-0.00990669
-0.0114805
-0.0136921
-0.0152534
-0.018624
-0.0212298
-0.0255582
-0.0290467
-0.0309112
-0.0310681
-0.0296773
-0.0283725
-0.0284089
-0.0297594
-0.0321505
-0.0351725
-0.0385046
-0.0421998
-0.0445279
-0.00644236
-0.0126767
-0.0108908
-0.0115951
-0.0117275
-0.0122509
-0.0134602
-0.0166764
-0.0196551
-0.0223389
-0.0246119
-0.0264214
-0.0276554
-0.028577
-0.0292853
-0.0304969
-0.0324108
-0.0348287
-0.037485
-0.0393277
-0.00286107
-0.00728278
-0.00998188
-0.0114563
-0.0116399
-0.0107399
-0.010611
-0.0107778
-0.012206
-0.0138874
-0.0162908
-0.0202272
-0.0255185
-0.0301534
-0.0326042
-0.0350563
-0.0381363
-0.0417987
-0.0454502
-0.0480249
-0.00241725
-0.00487992
-0.00684454
-0.00882963
-0.00954387
-0.00979202
-0.0101591
-0.0122023
-0.0135061
-0.013236
-0.0122213
-0.0152575
-0.0225521
-0.0304455
-0.035293
-0.0380299
-0.0420719
-0.0455598
-0.047666
-0.0481038
-0.00179075
-0.00342411
-0.00446596
-0.00566414
-0.00691216
-0.00731286
-0.00862216
-0.0106696
-0.0155275
-0.0186379
-0.02114
-0.0217118
-0.0244834
-0.0329559
-0.0385159
-0.0361354
-0.0371897
-0.038934
-0.0407025
-0.0421266
-0.000592532
-0.00155338
-0.00323975
-0.00556096
-0.00780438
-0.00898094
-0.0117675
-0.0167064
-0.0167303
-0.0150612
-0.0162358
-0.0196784
-0.0237207
-0.029139
-0.0401283
-0.0369854
-0.0357314
-0.0362698
-0.0387545
-0.0419964
-0.00251037
-0.00270621
-0.00321566
-0.0037285
-0.00568203
-0.00671504
-0.00911937
-0.0124296
-0.0131283
-0.0126106
-0.0156473
-0.0201028
-0.0230408
-0.0261411
-0.0344075
-0.0365163
-0.0357852
-0.0364854
-0.0399487
-0.0448493
-0.00258656
-0.00539196
-0.00474342
-0.00475932
-0.00551997
-0.00698399
-0.00799881
-0.0107009
-0.0137362
-0.0173077
-0.0225221
-0.0274733
-0.0313461
-0.034855
-0.0374187
-0.0373545
-0.0366301
-0.0377739
-0.0420689
-0.0481191
-0.00151044
-0.00283201
-0.00479959
-0.00581836
-0.00672437
-0.00813824
-0.0111947
-0.0143253
-0.0177406
-0.0212722
-0.0255319
-0.02925
-0.0319286
-0.0339749
-0.0349777
-0.0347456
-0.0345298
-0.0363485
-0.0414603
-0.0492431
-0.00332942
-0.00509935
-0.00663868
-0.00578261
-0.00562206
-0.00781752
-0.0118342
-0.0150037
-0.0164803
-0.0170399
-0.0179704
-0.0191144
-0.0211786
-0.0231729
-0.0249485
-0.0261661
-0.0276323
-0.0304102
-0.0354293
-0.0420312
-0.00459326
-0.00999913
-0.0102239
-0.00893895
-0.00985606
-0.0138003
-0.018851
-0.0220678
-0.0226519
-0.0221119
-0.0212556
-0.0201624
-0.0195834
-0.0189821
-0.0192565
-0.0202559
-0.0225392
-0.0260492
-0.0308658
-0.0357233
-0.0174758
-0.0211656
-0.0152915
-0.0125619
-0.0161319
-0.0209844
-0.0273984
-0.0301919
-0.0310412
-0.0289756
-0.0264854
-0.0234009
-0.0208639
-0.0189875
-0.0187668
-0.0201479
-0.0227066
-0.0258636
-0.0293012
-0.0321015
-0.00317132
-0.00922602
-0.0130471
-0.0150378
-0.0152868
-0.0176352
-0.0228342
-0.0263714
-0.0289595
-0.0277818
-0.02615
-0.0231475
-0.0206165
-0.0189674
-0.0192507
-0.0208278
-0.0228876
-0.0248598
-0.0265882
-0.0278088
-0.00105964
-0.00391901
-0.00729144
-0.00825327
-0.00703138
-0.00783572
-0.0111816
-0.016854
-0.0258288
-0.0322232
-0.0378675
-0.03895
-0.0351334
-0.0276182
-0.0225234
-0.0212882
-0.0219436
-0.0228709
-0.0236774
-0.0241817
-0.00151819
-0.0043543
-0.0088244
-0.011506
-0.0120487
-0.00988674
-0.00827816
-0.0112514
-0.0219777
-0.0391004
-0.0611333
-0.0819696
-0.0966666
-0.097306
-0.0923292
-0.09223
-0.0972596
-0.106
-0.115428
-0.124232
-0.00727593
-0.0163966
-0.021677
-0.022614
-0.0197892
-0.0142392
-0.00964823
-0.00670579
-0.00537777
-0.00506728
-0.005399
-0.00610866
-0.00723145
-0.00884289
-0.0111883
-0.0146457
-0.0197146
-0.0271971
-0.0375769
-0.0503966
-0.00144005
-0.00418354
-0.00603152
-0.00655762
-0.00692005
-0.00610503
-0.00582227
-0.00631057
-0.00740849
-0.00921574
-0.0114452
-0.0141133
-0.0169255
-0.0197826
-0.0225728
-0.0253541
-0.0280095
-0.0303652
-0.0319372
-0.0320373
-0.00323113
-0.00650335
-0.00716281
-0.006219
-0.00622125
-0.00644494
-0.00719646
-0.00824345
-0.00970963
-0.0116418
-0.0142039
-0.0172836
-0.020713
-0.0240573
-0.0271243
-0.0296161
-0.0314839
-0.032576
-0.0330323
-0.0324337
-0.00215914
-0.00560443
-0.00641065
-0.0071774
-0.00763594
-0.00884486
-0.010708
-0.0116832
-0.0131791
-0.0145876
-0.0166694
-0.0192062
-0.0220706
-0.0248442
-0.0272943
-0.0291648
-0.0304238
-0.0310143
-0.0313018
-0.0305278
-0.00294333
-0.0107431
-0.0109332
-0.0112022
-0.0105562
-0.0129536
-0.0145834
-0.0156811
-0.0168026
-0.017291
-0.0180599
-0.0190611
-0.0204135
-0.0218816
-0.0232954
-0.0245021
-0.0255026
-0.02628
-0.027201
-0.0274503
-0.00395719
-0.00903545
-0.0107894
-0.0106577
-0.00970408
-0.0111021
-0.0117366
-0.0135348
-0.0151434
-0.0161114
-0.0166791
-0.0169801
-0.0172868
-0.0177428
-0.0182431
-0.0188298
-0.0194814
-0.020216
-0.0212066
-0.0220708
-0.00445102
-0.0085277
-0.0081629
-0.00784733
-0.00749134
-0.00819766
-0.00871899
-0.0108071
-0.0127117
-0.0144294
-0.015623
-0.0163355
-0.0166728
-0.0168648
-0.0170265
-0.0173275
-0.0178445
-0.0185667
-0.0195642
-0.0207029
-0.00192646
-0.00421505
-0.00630872
-0.0068896
-0.00674797
-0.00670183
-0.00680801
-0.00754175
-0.00960093
-0.0118391
-0.0142969
-0.0164169
-0.0179104
-0.0189299
-0.0192053
-0.0196013
-0.0200716
-0.0207111
-0.0214401
-0.0221201
-0.00295634
-0.00476261
-0.00520734
-0.00549857
-0.00571546
-0.00595047
-0.0065292
-0.00726315
-0.00808145
-0.00965621
-0.0128409
-0.0164751
-0.0194123
-0.0218596
-0.0241261
-0.0221687
-0.0220102
-0.0214828
-0.0208457
-0.020466
-0.00121743
-0.00249901
-0.00336844
-0.00414449
-0.00502371
-0.00542858
-0.00626233
-0.00752794
-0.00914187
-0.0107979
-0.0133336
-0.0178094
-0.0223363
-0.0248657
-0.0250078
-0.0205969
-0.0192794
-0.0183526
-0.018089
-0.018433
-0.000685978
-0.00238855
-0.00415489
-0.00524314
-0.00600072
-0.00645631
-0.00750394
-0.00883476
-0.0100685
-0.0119645
-0.01414
-0.0171514
-0.0212137
-0.0251778
-0.0262294
-0.0210628
-0.0201841
-0.0201342
-0.0207528
-0.021633
-0.00103315
-0.00278663
-0.00347638
-0.00401726
-0.00491488
-0.00538255
-0.00612474
-0.00710924
-0.00841211
-0.0113012
-0.0152835
-0.0181709
-0.0206071
-0.0237492
-0.0256696
-0.0213306
-0.0213886
-0.0223605
-0.0238528
-0.0251689
-0.00184108
-0.00449097
-0.0042707
-0.00405856
-0.00452468
-0.00533764
-0.00579331
-0.00739605
-0.00990874
-0.013408
-0.0172979
-0.0204297
-0.0224866
-0.0237883
-0.021016
-0.0217892
-0.0230798
-0.0250005
-0.0271107
-0.0286531
-0.00120337
-0.0017618
-0.00278954
-0.00387562
-0.0049488
-0.00600214
-0.00727273
-0.0084965
-0.0101204
-0.0115936
-0.0134079
-0.0150427
-0.0165817
-0.0181212
-0.0197409
-0.0214951
-0.0236566
-0.0263101
-0.0292244
-0.0318171
-0.00236328
-0.00359175
-0.00420538
-0.00471713
-0.00576572
-0.00732149
-0.00844683
-0.00883104
-0.00913337
-0.00943083
-0.0102695
-0.0113406
-0.0129716
-0.014761
-0.0168101
-0.0189468
-0.0212542
-0.0236782
-0.0262198
-0.028527
-0.00204307
-0.00692253
-0.00692794
-0.00707766
-0.00830639
-0.0100776
-0.0111612
-0.0111694
-0.0106873
-0.01035
-0.0104399
-0.0110332
-0.0122165
-0.013712
-0.0155359
-0.0174762
-0.0194976
-0.0214509
-0.023437
-0.025183
-0.0121266
-0.0146668
-0.0102629
-0.00941094
-0.0116003
-0.0132511
-0.0143806
-0.0137239
-0.01288
-0.0120014
-0.0118188
-0.0122084
-0.0131376
-0.0144218
-0.0159563
-0.0175646
-0.0191385
-0.0206471
-0.0221863
-0.0237651
-0.00585984
-0.00983758
-0.013085
-0.0128065
-0.011648
-0.0118751
-0.0126958
-0.0127719
-0.0126731
-0.0124652
-0.0127677
-0.0133116
-0.0139935
-0.0148018
-0.0157623
-0.0168094
-0.0178926
-0.0190483
-0.0203603
-0.021852
-0.0021121
-0.00453165
-0.00562774
-0.00569643
-0.00582025
-0.00723179
-0.00998342
-0.0126731
-0.0148445
-0.0164053
-0.0180558
-0.0193889
-0.0191733
-0.0182564
-0.017689
-0.0179474
-0.0182372
-0.0188746
-0.0197919
-0.0210072
-0.00156784
-0.00367987
-0.00633249
-0.00775256
-0.00710759
-0.00566343
-0.00661224
-0.011869
-0.0209881
-0.030848
-0.0432652
-0.0527927
-0.0572805
-0.056445
-0.0569761
-0.061052
-0.0672331
-0.0743078
-0.0806339
-0.086038
-0.00845679
-0.0153438
-0.0169578
-0.0141997
-0.0107214
-0.00715104
-0.00520587
-0.0046282
-0.00519987
-0.00675016
-0.00920353
-0.0127923
-0.0172958
-0.0225731
-0.028137
-0.0335859
-0.0387145
-0.0435447
-0.0478722
-0.0513297
-0.00409919
-0.00506862
-0.00687085
-0.00673562
-0.006298
-0.00656532
-0.0081111
-0.0108741
-0.0138209
-0.0168515
-0.0195137
-0.021831
-0.0237462
-0.0252676
-0.0263278
-0.0268764
-0.0269295
-0.02648
-0.0257036
-0.0247035
-0.00558272
-0.00527504
-0.00565487
-0.00591508
-0.00658229
-0.00785013
-0.00957494
-0.011642
-0.0135997
-0.015306
-0.0164795
-0.0172173
-0.0175924
-0.0178254
-0.0180057
-0.0181751
-0.0183209
-0.0183645
-0.0184109
-0.0183306
-0.000722148
-0.00417095
-0.00584639
-0.00681456
-0.00774384
-0.0089707
-0.0101947
-0.0113453
-0.0124288
-0.0133656
-0.0141771
-0.0148609
-0.0155469
-0.01624
-0.0169931
-0.017742
-0.0184526
-0.0190535
-0.0195896
-0.0198853
-0.00157868
-0.00808439
-0.00895169
-0.00855669
-0.00863109
-0.00980054
-0.0105279
-0.011312
-0.0120088
-0.0126094
-0.013329
-0.0140661
-0.0149933
-0.0159815
-0.0170875
-0.0182089
-0.0193373
-0.0204201
-0.0214654
-0.0223298
-0.000767413
-0.00683687
-0.011167
-0.00971834
-0.00870431
-0.00946746
-0.00995747
-0.0107482
-0.0115451
-0.0122084
-0.0130793
-0.0140589
-0.0152921
-0.0166144
-0.0180052
-0.0193485
-0.0206186
-0.021786
-0.0228451
-0.0237781
-0.00402931
-0.00723846
-0.00745757
-0.00659548
-0.00681512
-0.00821622
-0.00911811
-0.010424
-0.0114537
-0.0124069
-0.0134336
-0.0145614
-0.0158444
-0.0171807
-0.0185038
-0.0197464
-0.0208075
-0.021652
-0.0222635
-0.0226829
-0.00294701
-0.00916702
-0.00689349
-0.00536594
-0.00562369
-0.00683636
-0.00739741
-0.00915239
-0.0105975
-0.0116999
-0.0125601
-0.0132337
-0.0141219
-0.0150239
-0.017262
-0.0181994
-0.0189527
-0.0194459
-0.0195735
-0.0194483
-0.00165421
-0.0032069
-0.00347397
-0.00429056
-0.00560644
-0.00637138
-0.00718497
-0.00841174
-0.009888
-0.0113597
-0.0123883
-0.0127467
-0.0128658
-0.0129705
-0.0137824
-0.0157795
-0.0165802
-0.0171048
-0.0171902
-0.0169175
-0.000810555
-0.00158176
-0.00261713
-0.00374655
-0.00553479
-0.00649326
-0.0074697
-0.00869431
-0.0102867
-0.0120179
-0.0134344
-0.0139733
-0.0134317
-0.0126824
-0.0127166
-0.0147923
-0.0158455
-0.0167699
-0.0173282
-0.0174385
-0.00185209
-0.00349257
-0.00412466
-0.00488775
-0.00642982
-0.00730031
-0.00834207
-0.00967683
-0.0112303
-0.0127354
-0.0140333
-0.0147952
-0.0140674
-0.0133183
-0.0133699
-0.0156138
-0.0168259
-0.0180833
-0.019149
-0.0198302
-0.00233916
-0.00314253
-0.00346438
-0.00432874
-0.00566512
-0.00625263
-0.00674067
-0.00774826
-0.00984342
-0.0125007
-0.0140982
-0.0145012
-0.0141265
-0.0136115
-0.0145166
-0.0177698
-0.0190219
-0.0201842
-0.0211099
-0.0216871
-0.0012202
-0.00407239
-0.00430911
-0.00434342
-0.00494375
-0.00573803
-0.00628388
-0.00805341
-0.00990139
-0.0114663
-0.0125861
-0.0134447
-0.0144027
-0.0155404
-0.019881
-0.0214251
-0.022813
-0.0240749
-0.025064
-0.025743
-0.00107636
-0.00276906
-0.00333744
-0.00419568
-0.00485611
-0.00569353
-0.00714064
-0.00880438
-0.0108222
-0.0128452
-0.0147937
-0.0167606
-0.0185964
-0.0204926
-0.0223258
-0.0242558
-0.0261607
-0.0281168
-0.0300211
-0.0317858
-0.00346192
-0.0041466
-0.00509532
-0.00572323
-0.00592726
-0.00636278
-0.00724666
-0.00863159
-0.0105439
-0.0127793
-0.0150021
-0.0172335
-0.0192955
-0.0213729
-0.0233504
-0.0253294
-0.0271852
-0.028901
-0.0304151
-0.0316529
-0.00110801
-0.00500732
-0.0061528
-0.00661388
-0.00686118
-0.00734963
-0.00807282
-0.00941538
-0.0112296
-0.0134748
-0.0157551
-0.0181186
-0.0202843
-0.0224758
-0.0244422
-0.0262803
-0.0277737
-0.0288875
-0.0295129
-0.0296695
-0.00301731
-0.00789371
-0.0071505
-0.00743005
-0.00790087
-0.00848561
-0.00921881
-0.0103694
-0.0120208
-0.0139823
-0.0161811
-0.018445
-0.0208318
-0.023287
-0.0257531
-0.0281655
-0.0303787
-0.0323946
-0.0339386
-0.0352401
-0.00166252
-0.00865949
-0.00869529
-0.00792374
-0.0081699
-0.00908654
-0.0100108
-0.0110877
-0.0123352
-0.013733
-0.0152324
-0.0169116
-0.0187598
-0.0208545
-0.0233138
-0.026034
-0.029109
-0.0323605
-0.0356835
-0.0386719
-0.00558215
-0.00789239
-0.00573813
-0.00542491
-0.00665693
-0.00947773
-0.0119372
-0.0134295
-0.0146508
-0.0161705
-0.0176075
-0.0194301
-0.0206845
-0.0219599
-0.023051
-0.0241969
-0.0250371
-0.0260292
-0.0269945
-0.0283314
-0.00231761
-0.00432487
-0.00434376
-0.00387749
-0.00398057
-0.00631067
-0.0107272
-0.01546
-0.0199963
-0.0240314
-0.029049
-0.0329327
-0.035931
-0.0379827
-0.0407797
-0.0441449
-0.0476375
-0.0507835
-0.0529732
-0.0533521
-0.0206566
-0.0161652
-0.0171774
-0.011369
-0.0127588
-0.0124919
-0.0139434
-0.0216588
-0.0178061
-0.020152
-0.0133902
-0.0162922
-0.0144749
-0.0163479
-0.0157157
-0.0125684
-0.0140544
-0.0125683
-0.0141965
-0.0121705
-0.0147194
-0.0186706
-0.0149847
-0.0180876
-0.0147378
-0.0164853
-0.0155142
-0.0174597
-0.112973
-0.106199
-0.107056
-0.101648
-0.108911
-0.102344
-0.100807
-0.111259
-0.107034
-0.107331
-0.109972
-0.109044
-0.100448
-0.104516
-0.105712
-0.10737
-0.106168
-0.108287
-0.104103
-0.105693
-0.106156
-0.0960488
-0.105256
-0.101231
-0.101673
-0.0905835
-0.105368
-0.101286
-0.0839556
-0.0994854
-0.0932814
-0.0855299
-0.0681415
-0.099532
-0.0933669
-0.0732555
-0.0909779
-0.0841376
-0.0622532
-0.0497026
-0.091024
-0.0838003
-0.0665533
-0.0820159
-0.0765205
-0.0480456
-0.0511132
-0.081554
-0.0765068
-0.0640756
-0.0749634
-0.0711622
-0.0543403
-0.0686433
-0.0755969
-0.076179
-0.104231
-0.108996
-0.113724
-0.0996501
-0.0981492
-0.105497
-0.111328
-0.10686
-0.114385
-0.115773
-0.0981259
-0.103514
-0.112386
-0.114118
-0.106784
-0.116116
-0.115892
-0.105055
-0.105852
-0.114181
-0.111643
-0.102451
-0.115341
-0.112302
-0.105005
-0.100749
-0.109673
-0.10089
-0.0949499
-0.110711
-0.104089
-0.0990897
-0.0941278
-0.0975854
-0.0886831
-0.0863414
-0.101376
-0.092751
-0.0925102
-0.0878639
-0.0863284
-0.0815989
-0.0785816
-0.0898413
-0.0816835
-0.0863947
-0.0825274
-0.0806686
-0.0788979
-0.0726411
-0.0792266
-0.0728851
-0.0815297
-0.0804791
-0.0784915
-0.0778708
-0.118364
-0.115806
-0.121445
-0.111636
-0.116425
-0.112229
-0.119036
-0.11995
-0.123193
-0.128104
-0.117204
-0.118317
-0.121164
-0.126695
-0.119783
-0.129363
-0.130856
-0.118256
-0.11514
-0.127721
-0.124348
-0.115984
-0.130585
-0.128073
-0.112665
-0.10106
-0.119961
-0.0995161
-0.107784
-0.126575
-0.120094
-0.0966381
-0.0851925
-0.0921944
-0.0752065
-0.0963597
-0.117412
-0.108899
-0.0823648
-0.0770865
-0.0712672
-0.063633
-0.0845928
-0.105946
-0.0968866
-0.0762555
-0.075249
-0.0623607
-0.0616539
-0.0745522
-0.0937047
-0.0838201
-0.0751232
-0.0751258
-0.061845
-0.0622654
-0.123964
-0.129137
-0.138749
-0.114322
-0.121503
-0.126606
-0.136561
-0.131754
-0.142011
-0.149815
-0.123977
-0.130327
-0.139591
-0.146036
-0.135762
-0.153043
-0.159577
-0.131488
-0.127938
-0.148139
-0.149914
-0.134235
-0.161518
-0.163855
-0.123339
-0.102674
-0.14852
-0.138529
-0.126295
-0.163362
-0.157873
-0.0953495
-0.078295
-0.13333
-0.118234
-0.114364
-0.154478
-0.143188
-0.0742526
-0.0661364
-0.113037
-0.100259
-0.101202
-0.138375
-0.122144
-0.0644868
-0.06163
-0.095672
-0.0809581
-0.0862497
-0.115917
-0.0969358
-0.060842
-0.0591848
-0.0761029
-0.0642726
-0.0290632
-0.0225592
-0.0256612
-0.0210701
-0.0241835
-0.020797
-0.023288
-0.0401245
-0.0270652
-0.0369882
-0.0245549
-0.0235527
-0.0238005
-0.0246443
-0.0507815
-0.0418139
-0.0531492
-0.0227966
-0.0200323
-0.0246826
-0.0245336
-0.0461804
-0.0561168
-0.063706
-0.018973
-0.0160358
-0.0246074
-0.0251024
-0.029199
-0.065337
-0.0654081
-0.0153677
-0.0155123
-0.0250751
-0.023913
-0.0219146
-0.06372
-0.0560346
-0.01641
-0.0215461
-0.0234422
-0.0238852
-0.0298111
-0.0536121
-0.0508392
-0.0239216
-0.0317936
-0.0249884
-0.0310666
-0.0500583
-0.0518255
-0.0595665
-0.034432
-0.0414997
-0.0336682
-0.0407619
-0.0245373
-0.0270607
-0.0417928
-0.0197616
-0.0218872
-0.0225458
-0.0264468
-0.0371228
-0.046402
-0.0557568
-0.0226578
-0.0243706
-0.0270494
-0.0268678
-0.0527683
-0.056127
-0.0494384
-0.0245778
-0.0245867
-0.0262505
-0.0238965
-0.061272
-0.0464575
-0.0394903
-0.0247103
-0.0259956
-0.0232751
-0.0225357
-0.0674486
-0.0388556
-0.0399239
-0.0265598
-0.0273629
-0.0227456
-0.0244559
-0.0668889
-0.0412746
-0.0484616
-0.0272517
-0.0270687
-0.0253133
-0.0285006
-0.0635471
-0.0514803
-0.0598019
-0.0275665
-0.0320663
-0.0296007
-0.0333617
-0.0671106
-0.0621003
-0.0681947
-0.0344908
-0.0420387
-0.0351818
-0.0438821
-0.0509061
-0.0296719
-0.0393205
-0.0261807
-0.0293805
-0.0241302
-0.0262842
-0.0590334
-0.0419799
-0.0458179
-0.0295041
-0.0278288
-0.0265978
-0.0263659
-0.0474462
-0.045204
-0.0392259
-0.0268606
-0.0239077
-0.0259361
-0.0238487
-0.0339449
-0.0371085
-0.0319107
-0.0231342
-0.0219414
-0.0229686
-0.0208394
-0.03067
-0.0307351
-0.0292512
-0.0219534
-0.0229282
-0.0206367
-0.0216633
-0.0374786
-0.0293642
-0.0311327
-0.0236736
-0.0267077
-0.0223526
-0.0246451
-0.0508491
-0.0321034
-0.0358573
-0.0278482
-0.0316661
-0.0253987
-0.0277893
-0.0622525
-0.0373883
-0.0435163
-0.0333144
-0.0413453
-0.0288318
-0.0341976
-0.0350386
-0.0209778
-0.0257105
-0.0211593
-0.0243126
-0.0195343
-0.0222299
-0.0428121
-0.0292761
-0.0369403
-0.0250174
-0.0258669
-0.0234568
-0.0264726
-0.0381151
-0.0384912
-0.0386122
-0.0257408
-0.0241638
-0.0275821
-0.0294235
-0.032843
-0.0385156
-0.0395707
-0.0233087
-0.0214142
-0.0296506
-0.029921
-0.0313448
-0.0403599
-0.042822
-0.0213172
-0.0226478
-0.0301578
-0.0314161
-0.0336438
-0.0438136
-0.0466757
-0.0233953
-0.0255766
-0.0319162
-0.0328545
-0.0375556
-0.0473963
-0.0476985
-0.0261798
-0.027905
-0.0329256
-0.0328347
-0.0425854
-0.0472792
-0.0462234
-0.0286893
-0.0331309
-0.0330229
-0.0350545
-0.0117905
-0.00991806
-0.0110377
-0.00985286
-0.00988188
-0.009414
-0.00922669
-0.0131847
-0.0117113
-0.0147375
-0.00978022
-0.00925907
-0.0092013
-0.00948335
-0.0135532
-0.0156752
-0.0177713
-0.00913325
-0.00927725
-0.0096727
-0.0104339
-0.0122475
-0.0183305
-0.0193329
-0.0095832
-0.011556
-0.010757
-0.0121895
-0.0139984
-0.0193363
-0.0189473
-0.0125497
-0.0160245
-0.0129439
-0.0163629
-0.0205145
-0.0190799
-0.0218775
-0.0172086
-0.0204187
-0.01782
-0.0222071
-0.0285984
-0.0236883
-0.0305421
-0.021396
-0.0240893
-0.023458
-0.0261748
-0.03494
-0.0328123
-0.0375486
-0.024961
-0.0275649
-0.0267724
-0.028119
-0.00977299
-0.0102158
-0.0137701
-0.00764385
-0.00821006
-0.00852582
-0.00936871
-0.0144455
-0.0148702
-0.0167114
-0.00849492
-0.00949302
-0.00959046
-0.0103173
-0.017915
-0.016742
-0.0163331
-0.00984886
-0.0109738
-0.0106283
-0.0118615
-0.0154095
-0.0193546
-0.0182562
-0.0147943
-0.0188943
-0.0154465
-0.0147124
-0.0180423
-0.0214528
-0.0211636
-0.0169451
-0.0218646
-0.0172607
-0.0174805
-0.0232082
-0.0210438
-0.0237035
-0.017636
-0.0222016
-0.0172288
-0.0207586
-0.0305676
-0.0246307
-0.0286344
-0.0236516
-0.0269661
-0.0221662
-0.0264549
-0.0386321
-0.0307279
-0.0393917
-0.0276632
-0.0287186
-0.0277523
-0.030662
-0.0158125
-0.0108794
-0.0133841
-0.00993994
-0.0102429
-0.00895943
-0.00898004
-0.0171389
-0.0139189
-0.0142398
-0.0102424
-0.0104409
-0.00902178
-0.00944215
-0.0154242
-0.0139115
-0.0126661
-0.0106632
-0.0119201
-0.00974688
-0.0113991
-0.0127092
-0.0152451
-0.0140782
-0.0127697
-0.0140129
-0.0131104
-0.0122345
-0.0155382
-0.0169345
-0.0149314
-0.014915
-0.015674
-0.0156439
-0.0147571
-0.0227361
-0.0190429
-0.0214509
-0.0172729
-0.020435
-0.0180165
-0.0198789
-0.0273405
-0.022182
-0.0247886
-0.0216923
-0.025708
-0.0206548
-0.0235521
-0.0373788
-0.0260222
-0.0317943
-0.027031
-0.0303902
-0.0246866
-0.0282111
-0.0117389
-0.00807897
-0.00947671
-0.00742801
-0.00825379
-0.00747484
-0.00853553
-0.0133112
-0.0102982
-0.012268
-0.00851114
-0.0093672
-0.0090945
-0.010927
-0.0124502
-0.0129158
-0.0144715
-0.00975192
-0.0114967
-0.0117409
-0.0139702
-0.0145963
-0.0153071
-0.0183751
-0.0122962
-0.0150829
-0.0148452
-0.0177712
-0.0190812
-0.0197014
-0.023655
-0.015999
-0.0182339
-0.0188687
-0.0217218
-0.0224343
-0.0249015
-0.0276083
-0.0188197
-0.0205167
-0.0225017
-0.0244022
-0.0251256
-0.0282268
-0.0298134
-0.0211799
-0.0237144
-0.0250217
-0.0270904