/*--------------------------------*- C++ -*----------------------------------*\
  =========                 |
  \\      /  F ield         | OpenFOAM: The Open Source CFD Toolbox
   \\    /   O peration     | Website:  https://openfoam.org
    \\  /    A nd           | Version:  10
     \\/     M anipulation  |
\*---------------------------------------------------------------------------*/
FoamFile
{
    format      ascii;
    class       volVectorField;
    location    "4.2";
    object      U_0;
}
// * * * * * * * * * * * * * * * * * * * * * * * * * * * * * * * * * * * * * //

dimensions      [0 1 -1 0 0 0 0];

internalField   nonuniform List<vector> 
12920
(
(228.585 -183.818 -17.853)
(168.58 -98.434 -6.93449)
(210.414 -4.71579 1.83107)
(140.907 8.64568 -1.21781)
(155.095 17.1454 -1.66912)
(125.129 14.6677 -2.76786)
(134.862 15.3856 -1.97321)
(126.385 6.42438 -1.39665)
(135.355 3.51973 -0.688007)
(134.993 -3.6915 -0.10846)
(143.327 -5.52228 0.152295)
(145.783 -7.82763 0.197444)
(152.546 -8.77086 0.437368)
(154.772 -9.05769 0.776842)
(158.256 -9.50464 1.07078)
(159.004 -9.20216 1.1316)
(160.77 -8.82545 0.957169)
(160.586 -8.36769 0.508772)
(162.313 -6.572 0.33244)
(162.486 -3.18459 0.24595)
(344.557 5.54079 -128.121)
(125.586 -10.5776 -4.52823)
(154.86 -12.7555 8.03283)
(68.3536 -22.4168 8.65302)
(109.213 -11.3464 7.92078)
(76.0721 -10.7452 4.27394)
(105.554 -6.63122 2.09734)
(97.4735 -7.66317 0.450456)
(114.186 -6.81639 0.355323)
(112.773 -6.57679 -0.397503)
(119.613 -5.42447 -0.245362)
(118.807 -4.64707 -0.376911)
(120.384 -3.51857 -0.357912)
(118.886 -2.84663 -0.524901)
(118.292 -1.60529 -0.659304)
(115.586 -0.783828 -0.778529)
(114.399 0.988304 -1.0576)
(112.077 3.30143 -1.34247)
(112.651 5.52953 -1.86565)
(116.813 5.22817 -1.53998)
(330.817 -234.065 -66.5152)
(144.288 -56.7012 -6.81852)
(165.314 -14.8324 7.98444)
(80.2511 -25.9528 -2.12961)
(117.06 -19.4226 0.167889)
(81.8762 -17.6427 -0.760649)
(104.025 -12.4284 0.444493)
(93.3139 -11.9773 -0.00660551)
(105.751 -10.8638 0.13992)
(103.306 -10.6185 -0.142511)
(110.41 -9.33846 0.00832312)
(110.115 -7.33442 -0.407576)
(113.634 -5.57526 -0.399119)
(113.066 -3.28618 -0.721369)
(114.95 -1.04893 -0.763288)
(114.342 0.624241 -0.769055)
(115.183 2.44329 -0.856879)
(114.821 3.65738 -0.766761)
(116.26 5.02606 -0.654973)
(119.9 5.36863 -0.419896)
(241.572 302.302 -91.1823)
(-21.6146 79.3724 19.696)
(126.071 24.9719 -8.10329)
(27.4831 -8.23844 -1.57709)
(99.7916 -5.08413 -0.647439)
(53.9292 -11.5991 -0.0698781)
(91.8626 -12.9371 1.11836)
(76.647 -13.9209 0.679899)
(95.9536 -14.2664 0.928187)
(92.9785 -12.7553 0.604966)
(102.508 -11.3109 0.73812)
(102.771 -7.07015 0.143847)
(108.896 -4.30031 0.104479)
(109.596 -0.916497 -0.169382)
(112.798 1.51071 -0.327893)
(113.434 3.28605 -0.442816)
(115.787 5.33662 -0.707688)
(117.239 6.46557 -0.603157)
(119.029 7.80858 -0.265325)
(121.402 7.52604 -0.0316556)
(168.636 -64.207 37.9825)
(14.7725 -6.46361 8.35238)
(142.96 -4.79772 -2.40204)
(10.1778 -23.614 -3.42654)
(93.9897 -31.3398 -0.64687)
(57.6105 -29.1524 0.57028)
(95.3396 -35.3683 2.0174)
(86.1742 -29.2662 1.93567)
(100.403 -30.7161 2.12938)
(96.2718 -24.5768 1.71315)
(102.694 -21.916 1.53696)
(100.883 -15.4248 0.960351)
(105.862 -12.2325 0.599517)
(105.383 -6.04014 0.140871)
(110.073 -2.61215 -0.14994)
(110.851 0.277457 -0.221193)
(113.749 2.4747 -0.399413)
(115.025 3.76471 -0.324971)
(116.476 6.38507 0.0559419)
(118.964 7.08005 0.226661)
(144.464 -174.445 155.975)
(12.3695 65.4337 -13.2007)
(153.506 34.6928 -25.3801)
(59.6785 -1.29335 -4.77911)
(120.434 -24.5994 -1.68436)
(84.2978 -27.2649 -1.3414)
(115.511 -37.1933 0.160428)
(101.933 -31.9421 0.53122)
(110.345 -32.056 1.57315)
(101.738 -27.2012 1.54568)
(103.71 -23.7288 1.50667)
(98.4567 -17.4526 0.86707)
(100.125 -11.8283 0.336346)
(97.8043 -6.28142 0.165135)
(100.01 -2.99606 -0.132223)
(100.795 0.280287 -0.316482)
(103.147 3.00543 -0.41028)
(104.159 5.27207 -0.356854)
(104.94 7.5654 -0.0375062)
(108.372 7.47062 0.13474)
(-28.4331 102.956 -71.7706)
(-160.862 -18.5652 -12.2779)
(95.9739 0.810028 2.63915)
(25.3235 -30.519 2.20033)
(119.065 -44.6534 2.97795)
(97.9421 -40.5274 -0.306713)
(123.705 -56.697 -0.272183)
(118.546 -38.1824 -0.394883)
(122.936 -40.3981 0.481698)
(113.758 -29.9754 0.657717)
(109.819 -26.9541 1.15971)
(99.3472 -16.8586 0.758516)
(98.816 -13.0434 0.384986)
(94.711 -6.75386 0.460885)
(95.9655 -4.45555 0.311142)
(94.4648 -1.25961 0.0997646)
(95.624 1.19306 -0.20412)
(96.1761 4.09777 -0.243956)
(97.1441 6.53224 0.00770303)
(101.819 6.45322 0.200971)
(36.1284 113.673 162.59)
(-85.0893 -22.539 -38.4639)
(173.433 -68.2674 -28.1568)
(101.941 -54.749 -2.40262)
(152.325 -65.7658 0.336673)
(117.93 -35.5917 -0.87919)
(127.869 -40.1072 -0.882019)
(116.656 -41.7971 -1.08291)
(128.17 -32.6119 -0.230502)
(124.636 -30.3928 0.154116)
(119.317 -21.1042 0.847174)
(109.953 -16.5722 0.745873)
(106.453 -12.0524 0.447161)
(103.251 -8.92475 0.301466)
(100.381 -4.36176 0.759213)
(98.5345 -0.367783 0.572668)
(96.0104 2.06489 0.0820072)
(95.5305 4.83757 -0.0192435)
(95.5113 5.99225 0.158517)
(100.858 5.02746 0.451883)
(62.1415 -191.49 -5.8197)
(-156.298 -41.3596 -35.8832)
(137.126 -89.0447 -24.9787)
(69.5395 -61.9407 -5.01344)
(131.429 -72.5735 -0.716088)
(105.751 -37.4586 -1.97117)
(130.804 -32.0644 -0.160581)
(109.948 -38.4733 0.111447)
(106.82 -35.4662 0.274035)
(109.212 -30.6419 0.395185)
(111.62 -22.1011 0.339929)
(112.826 -15.4837 0.132545)
(113.12 -10.9546 0.0786)
(112.67 -8.26641 0.0973416)
(110.688 -6.87863 0.54518)
(102.344 0.527807 0.69527)
(98.3328 3.61624 0.402038)
(96.7575 4.91586 0.182561)
(96.391 4.57514 0.0801129)
(102.19 2.05615 0.390921)
(62.3161 -103.774 65.5932)
(-10.3837 -26.1814 -26.8081)
(158.423 -52.3332 -28.6624)
(118.45 -41.3976 -9.20085)
(151.957 -40.6474 -2.34574)
(107.791 -53.1724 3.18564)
(111.816 -36.4236 0.345307)
(127.792 -32.7548 -0.597794)
(125.089 -33.3978 -0.242234)
(122.076 -35.2408 0.150847)
(128.242 -29.7614 0.530038)
(134.928 -18.2346 0.558238)
(135.53 -10.5616 0.421793)
(129.293 -7.63829 0.369099)
(121.709 -5.57231 1.01039)
(106.388 3.7988 1.29406)
(100.462 5.4974 0.496197)
(99.5497 5.74955 0.0384972)
(99.8005 4.54533 -0.248403)
(105.972 0.734813 -0.130736)
(162.072 -296.81 -78.7369)
(-115.563 -49.4552 12.6749)
(144.864 -62.8701 -19.1147)
(68.9222 -48.2946 -2.33758)
(122.55 -49.0512 -0.979374)
(96.5549 -37.2302 -0.819369)
(107.423 -38.2873 0.869062)
(108.93 -34.7241 0.441837)
(126.411 -43.6866 -0.00114767)
(135.083 -42.1318 -0.107502)
(134.662 -37.8385 -0.087797)
(134.273 -26.2523 -0.0353355)
(136.268 -17.3013 -0.0244816)
(140.246 -9.32513 0.125746)
(138.32 -2.01906 0.41269)
(117.075 9.98347 1.74382)
(108.32 7.80107 0.671979)
(105.052 6.10082 -0.232208)
(105.164 4.24898 -0.362396)
(108.995 0.672679 -0.253646)
(269.576 -211.91 25.9557)
(188.122 -43.4621 4.17087)
(194.826 -30.0187 3.95603)
(124.39 -19.0249 0.312373)
(136.531 -21.1751 0.958711)
(98.542 -46.5723 1.09062)
(111.804 -51.7026 -0.202711)
(125.406 -46.4332 -0.584246)
(123.216 -45.779 -0.128875)
(115.746 -38.9183 -0.0910425)
(117.455 -33.0214 -0.328633)
(122.552 -23.6562 -0.430605)
(125.838 -17.3293 -0.386669)
(127.966 -12.0869 -0.197027)
(123.699 0.448826 -0.968931)
(115.545 14.1473 -0.189405)
(113.213 13.7674 0.0962143)
(107.983 10.5758 -0.165191)
(107.147 7.12551 -0.492593)
(109.32 2.53961 -0.367598)
(213.035 -29.556 -27.8173)
(57.9237 10.1124 16.4209)
(139.122 2.56574 12.3833)
(74.04 -11.8441 0.920998)
(124.913 -28.734 1.87017)
(105.442 -48.6132 -0.834578)
(117.04 -45.5032 -1.10466)
(109.369 -42.4253 -0.977461)
(112.872 -41.124 -0.736902)
(111.114 -35.8819 -0.804179)
(112.468 -28.0231 -0.752722)
(113.46 -18.2494 -0.682265)
(113.199 -10.4668 -0.17482)
(109.563 -2.9648 -0.549327)
(106.408 8.81211 -0.486803)
(108.944 12.4485 0.0578307)
(109.588 14.2561 0.266951)
(108.016 13.3728 -0.123177)
(108.926 10.2245 -0.569233)
(112.733 4.81887 -0.515084)
(191.101 -2.16935 49.9388)
(114.294 -2.16878 3.20523)
(162.086 -3.51262 1.13908)
(120.156 -20.8806 0.762321)
(148.276 -41.8109 2.14833)
(125.495 -50.7843 0.102034)
(129.31 -42.4171 0.0463917)
(119.172 -46.6442 -0.0657828)
(119.63 -35.9478 0.388084)
(111.293 -31.7624 0.11741)
(113.223 -21.2834 0.567604)
(105.474 -14.9039 0.855078)
(106.245 -3.51482 0.440843)
(102.199 0.818888 0.549272)
(104.094 5.66151 0.373567)
(103.948 9.2876 0.467206)
(106.953 12.4872 0.334731)
(107.721 12.2213 0.222844)
(110.83 10.0438 -0.241962)
(117.027 5.94611 -0.358376)
(180.117 155.011 59.509)
(150.564 20.8833 -15.6806)
(212.13 -10.894 -11.441)
(168.843 -35.4674 -5.90318)
(178.66 -35.0287 -2.82227)
(146.688 -36.6782 -3.2277)
(145.334 -32.3941 -2.46617)
(128.079 -35.4313 -1.34933)
(124.306 -30.7606 -0.0976539)
(112.955 -26.8775 -0.686233)
(113.554 -18.7329 -0.661486)
(106.436 -11.3852 -0.598492)
(107.711 -3.4129 0.0355173)
(105.852 0.419199 0.402655)
(106.677 4.63026 0.36465)
(106.942 6.02586 0.478525)
(109.217 8.12697 0.486324)
(110.777 8.21238 0.322996)
(114.003 7.04752 0.0188686)
(119.265 5.08742 -0.0936501)
(260.604 175.131 -105.761)
(99.5061 28.3181 -2.25457)
(199.309 9.73266 1.09431)
(121.714 -12.6692 -4.21654)
(140.697 -8.8283 -3.98804)
(112.851 -18.7495 -2.40046)
(122.76 -18.1654 -0.154977)
(109.19 -26.6469 0.33055)
(111.134 -21.3698 0.549323)
(102.771 -19.4026 -0.0992246)
(104.379 -12.0581 -0.238837)
(100.783 -7.45148 -0.360283)
(103.906 -3.33307 0.0210768)
(104.266 -1.05652 0.169887)
(107.066 2.24259 0.198509)
(107.44 3.27759 0.232109)
(109.277 5.3476 0.168473)
(110.028 5.61361 0.106487)
(112.001 6.20785 -0.0591187)
(116.006 5.7917 -0.0828926)
(134.317 -108.891 7.20749)
(-1.22079 -24.1459 -1.23138)
(148.855 1.6452 -7.83965)
(93.3879 -16.4045 -4.27369)
(133.644 -12.152 0.245269)
(102.291 -25.1456 -0.00361644)
(119.382 -25.4852 0.467375)
(104.162 -28.1114 0.00917124)
(108.183 -23.1643 0.603446)
(97.3674 -19.2678 0.338824)
(98.0625 -13.491 0.263818)
(93.2297 -9.87721 0.152977)
(96.6255 -7.29653 0.148764)
(96.8789 -4.03576 -0.104207)
(100.69 0.191914 -0.107301)
(100.692 1.85568 -0.0940483)
(102.17 4.20364 -0.184566)
(101.925 4.69801 -0.162567)
(102.751 5.94845 -0.0865467)
(105.525 5.93355 -0.0621827)
(48.3336 -198.093 132.173)
(-73.9176 -102.141 -23.0702)
(149.487 -41.2201 -7.13625)
(37.503 -20.7514 3.2063)
(115.336 -9.62615 -2.53357)
(85.4172 -16.2438 -2.67364)
(112.041 -19.1521 -2.46058)
(102.619 -21.1095 -2.00333)
(109.121 -16.4375 -0.236847)
(98.2179 -12.8752 0.394875)
(95.9438 -8.16354 1.11765)
(89.0929 -7.86896 0.862732)
(92.2191 -7.87751 0.805787)
(92.3905 -5.52839 0.226328)
(96.8057 -0.966638 -0.0616564)
(96.4222 1.87467 -0.169235)
(98.1254 4.93974 -0.230025)
(97.929 5.76274 -0.17222)
(98.5584 7.70183 -0.136327)
(102.363 7.80563 -0.122746)
(294.258 -334.017 -171.806)
(72.983 -153.949 -18.8857)
(196.105 -93.784 2.47667)
(91.0305 -39.861 12.6715)
(133.865 -31.5501 14.0299)
(94.2385 -19.3661 2.5918)
(120.641 -19.9846 -3.63623)
(116.22 -18.3902 -7.21771)
(129.97 -14.1783 -6.86397)
(126.829 -9.1633 -6.57741)
(125.906 -8.58138 -2.31489)
(110.802 -11.9284 -0.568295)
(104.595 -15.5272 0.926246)
(97.4791 -11.6405 1.06339)
(98.0943 -3.5152 0.372448)
(96.4642 0.781046 0.00700207)
(98.0209 3.811 -0.0228493)
(98.3209 5.06325 0.0310052)
(99.3494 7.30074 0.158667)
(103.884 7.18402 0.16464)
(198.431 -89.7244 -53.0744)
(298.735 39.7324 -34.7125)
(348.891 6.38501 -17.4046)
(298.906 -26.1548 -7.11315)
(251.578 -54.0436 3.68991)
(179.376 -17.7443 0.681174)
(175.868 -8.8107 -3.06548)
(169.852 2.19343 -4.44074)
(180.061 5.42922 -6.62742)
(201.867 15.9358 -4.69658)
(215.66 16.9938 1.7908)
(210.98 13.1962 5.99852)
(180.836 -1.7739 8.67477)
(133.663 -7.2903 6.36835)
(116.155 -2.65204 2.72087)
(107.254 1.14332 1.46081)
(105.765 3.2067 1.0922)
(105.377 4.35105 1.13729)
(106.117 6.63833 1.39792)
(113.766 7.10949 1.42458)
(91.8361 -123.218 52.0628)
(33.9149 -94.3828 16.7751)
(139.485 -67.1026 28.551)
(108.853 -47.2746 14.213)
(152.768 -25.9725 11.5723)
(131.134 -11.497 3.60773)
(139.128 4.44687 0.56878)
(124.931 2.7924 -1.1207)
(129.804 1.69616 -0.609473)
(126.831 -1.73105 -0.123438)
(132.536 -3.23686 0.526562)
(133.798 -5.49151 0.605736)
(139.226 -6.20511 1.0663)
(141.519 -6.36224 1.45853)
(146.122 -6.1127 1.75976)
(147.756 -5.69856 1.70853)
(149.986 -4.29988 1.51336)
(149.211 -3.61071 1.00595)
(149.306 -0.0681401 0.8605)
(145.381 1.99266 0.514459)
(275.614 0.572721 261.453)
(54.2796 -47.8373 52.9261)
(132.967 -28.1753 22.363)
(49.1599 -21.2638 11.4982)
(99.0119 -6.31147 8.13566)
(65.5426 -5.87158 2.83502)
(96.9816 -2.4734 1.76476)
(86.8811 -4.81355 0.0939953)
(102.584 -5.11931 0.657474)
(99.2112 -5.86152 -0.452474)
(105.67 -5.07883 -0.0623784)
(104.146 -4.4352 -0.615737)
(105.903 -3.17895 -0.711111)
(104.481 -2.35083 -1.16745)
(104.55 -0.707405 -1.42332)
(102.52 0.336083 -1.72716)
(102.189 2.06946 -2.10497)
(100.267 3.52865 -2.63861)
(100.693 4.62589 -3.02256)
(103.266 3.7289 -2.02154)
(353.088 -111.924 136.939)
(105.269 -46.3884 21.8958)
(145.307 -27.3113 23.0906)
(52.3356 -26.7644 2.03162)
(99.9718 -14.2662 4.59913)
(63.1598 -10.9496 -0.461296)
(90.8449 -6.54769 1.57636)
(79.9759 -7.74151 0.259342)
(93.7704 -7.90263 0.8753)
(90.4198 -8.31683 0.114153)
(97.129 -7.59467 0.314125)
(95.6967 -6.01957 -0.44255)
(98.2958 -4.42833 -0.431564)
(97.1457 -2.85333 -1.04567)
(97.9628 -0.73474 -1.02456)
(96.7799 0.551601 -1.11589)
(97.083 2.24861 -1.18259)
(96.1039 3.03519 -0.914882)
(96.774 3.72251 -0.690335)
(99.7297 3.43891 -0.357451)
(151.408 131.145 -102.548)
(10.4735 36.3075 13.1192)
(115.92 9.65184 -11.063)
(16.9448 -13.7448 -1.08646)
(89.1588 -6.86569 -0.763291)
(38.5477 -11.5801 0.022111)
(81.5404 -12.7756 2.08496)
(65.0961 -13.6893 1.19205)
(85.4448 -13.5697 1.68538)
(80.9842 -12.0098 0.912132)
(90.0874 -9.95547 1.06541)
(89.3337 -7.25908 0.195497)
(93.5898 -4.80787 0.166677)
(93.2973 -2.3221 -0.396704)
(95.2845 0.0028431 -0.55256)
(95.0928 1.54165 -0.683)
(96.0267 3.22792 -0.873388)
(95.6429 4.1637 -0.606823)
(96.2544 4.93096 -0.214865)
(98.7877 4.2779 0.0846018)
(270.788 145.466 103.711)
(74.6268 14.381 19.424)
(151.45 -17.1221 28.0324)
(10.6801 -25.8518 1.49785)
(86.1892 -27.8514 4.55015)
(41.587 -22.9115 1.74504)
(82.814 -28.3691 4.07183)
(71.7243 -21.1002 3.14042)
(88.1048 -22.9735 3.50037)
(83.6948 -17.1957 2.51058)
(90.5046 -15.4235 2.25084)
(88.5488 -10.7285 1.24718)
(92.0457 -8.05686 0.730899)
(90.8703 -4.3534 0.102657)
(93.2054 -2.10743 -0.293453)
(92.7909 0.0579762 -0.365058)
(94.0135 1.75541 -0.50426)
(93.6084 3.05006 -0.282032)
(94.2713 4.56718 0.214372)
(97.5031 4.44702 0.44986)
(220.369 123.372 36.973)
(140.625 115.032 4.19888)
(160.604 49.5359 -8.15692)
(46.9833 -1.77303 1.60524)
(106.138 -23.2265 1.60481)
(58.8874 -20.4263 -0.942409)
(94.4977 -29.7436 1.15062)
(76.1684 -22.167 1.20215)
(88.6181 -22.7294 2.76562)
(81.9476 -17.4674 2.36859)
(86.6258 -14.7489 2.23933)
(83.9922 -10.659 1.12226)
(86.223 -7.12302 0.461405)
(84.5957 -4.03585 0.155831)
(85.8539 -1.89303 -0.266416)
(85.7515 0.299575 -0.416515)
(86.6291 2.11149 -0.519078)
(86.5881 3.61975 -0.353942)
(87.2379 4.85067 0.10513)
(91.4596 4.32016 0.420781)
(12.9092 156.565 -63.6755)
(-196.043 3.13398 -4.60859)
(84.3837 13.4562 -10.6496)
(-3.64798 -26.1058 2.57329)
(101.133 -39.8929 3.4541)
(71.3024 -31.8658 -0.50544)
(98.2125 -47.4539 0.45358)
(88.9545 -24.7795 0.209817)
(95.3217 -29.6961 1.51564)
(86.8238 -18.6517 1.31073)
(88.2656 -17.6621 1.71691)
(83.508 -11.1023 1.0022)
(84.3426 -8.66086 0.672497)
(82.2582 -4.26063 0.726276)
(83.2699 -3.08194 0.352761)
(82.3402 -0.952967 0.109266)
(82.8653 0.599698 -0.222045)
(82.8853 2.41977 -0.156985)
(83.7774 3.62943 0.173971)
(89.0712 3.23271 0.518523)
(420.179 363.859 -46.271)
(77.8956 95.0503 -9.05761)
(173.231 -25.2223 -8.46644)
(96.7054 -39.6065 5.81281)
(135.895 -56.3906 3.84227)
(98.5233 -26.4992 -0.17328)
(111.054 -35.1612 0.0987712)
(97.4419 -34.2438 -1.0379)
(102.851 -23.0763 -0.454613)
(97.6374 -20.4457 0.108703)
(95.9393 -13.97 0.897088)
(91.4571 -11.533 0.59562)
(90.2032 -7.85394 0.184542)
(88.1361 -5.48293 0.333902)
(85.4842 -2.05118 0.755775)
(84.8128 0.232931 0.467158)
(83.651 1.14602 0.0932306)
(83.4904 2.25494 0.091195)
(84.0777 2.60033 0.313507)
(90.1997 1.97437 0.774875)
(233.072 -24.2039 -89.7644)
(11.7332 10.3713 -3.87718)
(155.914 -42.5688 -32.9514)
(89.824 -40.3002 -11.2889)
(121.243 -53.0657 -5.88838)
(113.184 -36.5988 -3.29621)
(136.833 -29.6387 -1.41677)
(112.191 -33.9263 0.724963)
(102.895 -28.4615 0.889693)
(101.293 -23.0808 1.48947)
(101.271 -16.1883 1.07316)
(99.8049 -11.6141 0.312943)
(98.4257 -8.20858 -0.0973006)
(96.7433 -6.02513 0.0755636)
(93.8687 -3.22732 0.966705)
(87.9467 1.20216 0.740663)
(86.8262 1.63933 0.415665)
(86.3193 1.89845 0.29881)
(86.6531 1.12541 0.184473)
(92.4481 0.400276 0.631771)
(163.991 -170.761 0.506305)
(101.419 -65.6078 -15.6297)
(170.637 -44.7228 -31.5625)
(120.552 -22.4827 -11.7153)
(136.556 -22.2645 -2.51769)
(114.38 -34.2163 -0.0159675)
(112.48 -28.3673 1.26122)
(119.223 -27.1997 -0.352505)
(114.577 -27.8806 1.07765)
(112.456 -25.0032 1.54586)
(114.576 -17.3898 2.01051)
(115.452 -9.84814 1.7136)
(113.53 -6.01393 1.09822)
(110.045 -3.9677 1.14594)
(102.166 -0.648319 2.8806)
(93.2716 3.17586 1.20438)
(90.7108 2.48902 0.390106)
(89.956 2.16812 -0.0870967)
(89.9959 0.605411 -0.351838)
(94.586 -0.304741 -0.043932)
(109.587 -104.5 -58.6299)
(21.1917 -19.0491 -14.4453)
(137.162 -28.4063 -39.0597)
(64.8934 -27.6244 -10.776)
(104.693 -31.7887 -3.98899)
(95.3093 -26.8207 -1.42578)
(109.637 -30.1881 0.209271)
(107.748 -30.1876 1.84152)
(115.16 -32.2737 1.57296)
(118.612 -29.1805 0.593293)
(118.832 -21.9623 0.154743)
(120.294 -12.6052 -0.0963268)
(123.483 -5.38018 -0.0584935)
(124.91 -1.11044 0.50514)
(118.306 6.69494 1.90362)
(100.567 8.88403 2.13581)
(96.9287 4.87512 0.636467)
(93.6628 3.12914 -0.334049)
(92.9669 0.803488 -0.404203)
(95.6854 -0.458438 -0.188932)
(128.629 -140.406 74.0722)
(104.682 -15.7552 -10.86)
(157.798 -7.16816 0.604697)
(95.2874 -7.11537 -0.149843)
(114.142 -15.5331 3.03559)
(96.5429 -30.0703 0.0789422)
(109.688 -39.4887 0.729234)
(116.903 -38.1213 0.889089)
(113.376 -35.5616 0.719876)
(109.303 -27.5734 -0.439727)
(108.296 -19.8579 -1.71557)
(108.766 -12.6215 -2.11195)
(110.632 -6.82204 -2.09215)
(112.428 -1.12752 -1.73277)
(108.242 9.06336 -1.92192)
(100.61 12.1069 0.14056)
(97.9622 8.72403 0.197854)
(94.4305 5.78361 -0.214382)
(93.4647 2.77553 -0.545221)
(95.1164 0.833288 -0.340123)
(62.2614 32.3757 -54.4444)
(-42.4831 27.342 -0.768883)
(118.251 5.26125 -9.10434)
(49.2439 -6.59582 -0.904802)
(110.801 -23.8346 1.51841)
(90.5421 -42.3248 -0.399209)
(104.105 -38.1665 -0.616446)
(95.6704 -33.4363 0.780649)
(98.4702 -30.6022 0.359938)
(95.4077 -22.639 -0.0915636)
(96.9279 -15.6738 -0.65989)
(95.8336 -8.74121 -0.896935)
(96.9259 -3.17111 -1.12084)
(96.1699 2.0763 -1.40503)
(93.9329 8.0889 -0.641302)
(95.4684 9.15835 0.421281)
(96.2246 9.31267 0.485884)
(94.8104 7.40064 -0.195731)
(94.9553 4.3526 -0.640959)
(96.947 2.04236 -0.547747)
(154.903 85.1452 9.12495)
(88.7465 5.3234 -5.50633)
(147.266 -7.33937 1.99448)
(105.199 -16.9292 -0.97592)
(136.47 -35.383 2.47632)
(109.746 -42.1224 -0.430341)
(111.833 -31.7645 1.11567)
(99.626 -35.393 0.646442)
(99.7937 -22.4625 0.944637)
(92.2655 -19.2983 0.494014)
(93.0888 -9.34001 0.8849)
(88.8348 -5.8762 0.985922)
(90.2718 0.114392 0.594597)
(89.4079 1.82873 0.794933)
(91.7731 5.14784 0.682804)
(92.4379 7.09456 0.793139)
(94.8646 8.13894 0.530362)
(95.1548 6.89685 0.352192)
(96.7605 4.89275 -0.311339)
(99.9261 3.17659 -0.397069)
(200.987 244.934 -1.4938)
(140.815 57.8411 4.76443)
(228.009 0.843194 22.7921)
(184.851 -17.4353 9.56914)
(191.007 -18.2701 5.14599)
(149.47 -24.9036 -0.0139287)
(137.559 -22.3914 0.922646)
(110.22 -25.9176 -0.0849313)
(106.661 -18.8631 0.205494)
(95.262 -15.5646 -0.730031)
(94.9297 -8.27232 -0.5304)
(89.7045 -4.13011 -0.28191)
(90.8196 -0.7736 0.271438)
(90.4785 1.34117 0.639611)
(92.1686 3.96755 0.664872)
(92.9524 4.50466 0.803468)
(95.3839 5.62506 0.723916)
(96.0009 5.05861 0.483922)
(97.5122 4.31657 0.0847121)
(100.614 3.29994 -0.048532)
(164.574 -84.6344 -250.366)
(58.7552 -41.019 -14.123)
(201.7 -10.6781 2.5363)
(128.685 -12.5367 3.70843)
(139.294 -3.05211 4.24305)
(103.123 -10.7295 0.911532)
(110.119 -7.01714 2.25514)
(93.7204 -15.1773 0.731855)
(96.5637 -9.41445 0.752486)
(88.2176 -9.88717 -0.48489)
(89.6441 -4.27037 -0.32497)
(86.4115 -3.7232 -0.312473)
(89.1031 -0.982024 0.285585)
(89.3005 -0.236286 0.328061)
(91.6275 1.9292 0.412228)
(92.1018 2.69686 0.379859)
(93.7272 4.27824 0.289046)
(93.7326 4.26069 0.241019)
(94.6914 4.78405 0.097809)
(97.556 4.43267 0.0343798)
(190.143 -87.7102 102.462)
(60.0635 -30.4251 25.5175)
(150.134 6.02153 17.9463)
(69.5093 -8.63718 4.03951)
(115.142 -5.26161 5.13413)
(78.673 -16.9232 0.559605)
(101.655 -14.1538 1.24998)
(84.2005 -15.5941 -0.198566)
(92.1542 -10.4333 0.570157)
(82.4519 -8.71374 -0.102923)
(85.2346 -5.32161 0.0748326)
(81.4634 -5.00366 0.0688496)
(84.6993 -3.57735 0.346861)
(84.7093 -2.1005 -0.0290204)
(87.1453 0.503246 -0.0727779)
(87.0195 1.6254 -0.0780565)
(88.1332 3.39772 -0.153292)
(87.6174 3.68034 -0.0754852)
(88.1945 4.79844 0.042606)
(91.3613 4.55911 0.0137861)
(219.173 -94.5187 -38.0122)
(9.61408 -42.5692 2.73429)
(137.147 -10.3471 -3.35428)
(40.2714 -10.6333 6.97906)
(108.288 -2.10352 -4.03912)
(69.5121 -9.19539 -3.99786)
(95.9225 -9.70122 -2.87607)
(80.3125 -10.6009 -2.23231)
(89.0876 -5.7034 0.0561901)
(78.8274 -4.20395 0.259556)
(81.1662 -2.50906 1.26464)
(76.7257 -4.2751 1.09505)
(81.1978 -4.89647 1.35346)
(81.8965 -3.79952 0.627714)
(85.1972 -0.634003 0.119976)
(84.7723 1.15448 -0.147033)
(86.0652 3.36632 -0.24563)
(85.7659 3.94746 -0.164777)
(86.4127 5.56923 -0.143264)
(90.7017 5.43495 -0.13317)
(243.532 -208.117 -25.8606)
(-36.0921 -75.817 6.30071)
(131.427 -35.7234 -14.4779)
(24.4008 -8.69151 8.36324)
(111.059 -16.6088 8.56039)
(73.1093 -14.0483 -2.32269)
(105.352 -17.0799 -6.3971)
(89.7319 -12.4102 -8.32378)
(99.9941 -5.64873 -5.21883)
(89.3379 -0.838363 -4.46517)
(91.4316 -1.2076 -1.0132)
(85.2739 -5.77259 0.25234)
(87.4933 -9.6927 2.55616)
(86.1327 -7.84844 2.15318)
(88.2157 -2.54311 0.950765)
(87.0564 0.23687 0.14424)
(88.1963 2.35344 0.0246135)
(88.3311 3.27497 0.0241767)
(89.4064 4.93983 0.139364)
(94.4129 4.52465 0.120943)
(231.214 4.90297 -158.449)
(190.724 45.958 -64.9239)
(232.944 41.4772 -14.0957)
(180.421 38.1899 4.29192)
(198.527 13.8111 14.9237)
(170.371 10.3626 8.8342)
(167.69 -8.98779 -1.38475)
(146.349 -10.9454 -5.71769)
(145.84 -10.1463 -8.65104)
(141.152 -4.86657 -7.78875)
(148.5 -1.47512 -1.43605)
(147.736 -3.80502 8.11919)
(135.498 -10.6839 15.5141)
(114.485 -7.49754 11.4615)
(106.717 -2.09085 5.66121)
(101.739 0.918587 3.25359)
(101.276 2.6147 2.49525)
(101.555 3.43283 2.45354)
(102.7 5.4544 2.84868)
(111.187 5.6621 2.90299)
(247.628 -251.182 58.4896)
(14.9356 -119.323 23.5968)
(137.49 -76.3931 20.1035)
(99.4279 -48.3724 9.81863)
(148.982 -23.2521 10.0452)
(126.267 -7.86768 3.83863)
(134.403 5.62793 2.72257)
(118.571 3.56243 0.410548)
(122.546 2.59045 0.75687)
(117.567 -0.544276 0.66588)
(122.551 -1.81602 1.28081)
(123.067 -3.03577 0.97677)
(127.296 -3.22901 1.29943)
(129.186 -2.94272 1.26591)
(133.07 -1.96504 1.35708)
(134.163 -1.10977 1.62259)
(134.957 0.302446 1.25251)
(132.983 1.38734 0.910202)
(130.084 4.99688 1.53857)
(124.248 3.8543 1.16438)
(326.701 -6.46539 144.94)
(-20.264 -25.2488 27.023)
(118.846 -20.6758 -0.0688924)
(30.8282 -12.3089 3.14054)
(91.1751 2.02653 0.612174)
(55.9435 -1.08779 -1.92405)
(89.209 0.424473 -0.607098)
(76.0325 -3.40474 -1.06218)
(91.727 -4.13191 0.425001)
(86.858 -5.20834 -0.449146)
(93.5611 -4.40002 0.127668)
(91.551 -3.73549 -0.703444)
(93.6407 -2.38163 -0.953475)
(92.1652 -1.48224 -1.57581)
(92.4709 0.0150048 -1.98226)
(90.9085 0.997677 -2.34961)
(90.8793 2.42494 -2.77741)
(88.8271 3.24747 -3.21545)
(88.6618 3.93562 -2.79131)
(90.5426 2.68261 -1.60754)
(118.464 -149.827 36.889)
(-25.3989 -45.1194 5.56843)
(114.102 -34.4803 19.2874)
(22.6477 -24.0601 -0.978628)
(88.3708 -8.295 4.07332)
(49.1599 -5.50769 -0.922553)
(80.8646 -2.53717 1.64531)
(68.348 -4.87164 0.484596)
(83.2584 -5.67782 1.26171)
(78.7191 -6.34356 0.350351)
(85.6021 -5.95366 0.529788)
(83.378 -4.68882 -0.261117)
(85.796 -3.43901 -0.265208)
(84.2039 -2.08501 -0.980222)
(84.5461 -0.358194 -0.919402)
(83.1473 0.555225 -1.04993)
(83.0073 1.87917 -1.13428)
(81.5981 2.33147 -0.857971)
(82.0108 2.77832 -0.564468)
(84.908 2.1907 -0.24174)
(111.905 94.8679 15.3366)
(4.79191 -10.1932 17.9267)
(101.663 1.91402 -4.97994)
(5.51696 -13.6436 -0.0913185)
(80.7597 -4.25001 -0.473889)
(26.8602 -9.55131 0.338047)
(72.9716 -10.7805 2.01225)
(54.1079 -11.5736 1.33567)
(75.5402 -11.4959 1.92981)
(69.7576 -10.0865 0.941329)
(78.964 -8.38213 1.16391)
(77.4591 -6.25028 0.276939)
(81.0401 -4.16643 0.283207)
(80.3382 -2.45853 -0.385078)
(81.5838 -0.52507 -0.50448)
(80.9511 0.672215 -0.606962)
(81.1786 2.08788 -0.754382)
(80.1335 2.68995 -0.532055)
(80.3762 3.17716 -0.106933)
(83.1529 2.39854 0.118104)
(435.162 25.5874 -158.835)
(-136.861 -42.4984 25.3487)
(137.811 -23.8323 23.9066)
(-21.3851 -24.7282 3.36175)
(78.047 -22.3203 7.337)
(26.0123 -16.923 1.61254)
(72.1879 -22.5811 4.25251)
(58.7015 -14.8396 2.95435)
(76.8754 -17.356 3.41509)
(71.8049 -12.067 2.25555)
(79.2684 -11.5434 2.12228)
(76.9958 -7.67395 1.06731)
(79.9409 -5.92505 0.700219)
(78.6989 -3.47029 0.0970466)
(80.0265 -1.79448 -0.209643)
(79.1493 -0.262482 -0.320877)
(79.5827 1.12749 -0.430039)
(78.6529 2.11947 -0.182916)
(79.0629 3.0341 0.276112)
(82.6021 2.57624 0.505858)
(198.172 -38.2688 85.6119)
(55.6608 68.3399 16.8676)
(132.008 24.7679 -7.22474)
(17.2689 -4.09008 1.70913)
(93.8621 -20.2016 1.20566)
(37.9873 -13.3024 -0.14786)
(79.9474 -23.6874 0.988946)
(58.5596 -14.89 1.00962)
(73.9826 -16.2098 2.46939)
(67.8291 -11.3227 2.04539)
(74.1753 -9.9832 1.97966)
(72.479 -6.81999 0.943027)
(74.6889 -4.96468 0.441175)
(73.7043 -3.18168 0.105758)
(74.5156 -1.62639 -0.214666)
(74.1561 -0.0370087 -0.310247)
(74.5187 1.24998 -0.383132)
(74.1806 2.26106 -0.203738)
(74.7143 2.98171 0.19467)
(79.1441 2.35987 0.528832)
(3.81273 78.0286 -86.1918)
(-183.825 26.2487 -27.9849)
(70.2289 20.1126 -25.9262)
(-22.6104 -20.7103 4.19439)
(86.2487 -32.592 4.00505)
(48.9692 -22.9079 0.201078)
(79.2111 -40.5635 1.27395)
(67.2779 -14.8323 1.07528)
(76.83 -22.8583 1.9623)
(70.0916 -11.9606 1.66105)
(74.6111 -13.1637 1.71497)
(71.6436 -7.54179 0.964722)
(73.401 -6.68295 0.725024)
(72.1122 -3.42482 0.709998)
(73.0114 -2.62562 0.307469)
(72.2892 -1.10716 0.0859456)
(72.7045 -0.134245 -0.150492)
(72.5806 1.13006 -0.024607)
(73.3594 1.88531 0.232214)
(78.5532 1.56296 0.582827)
(246.28 105.936 -174.537)
(16.492 41.5686 7.37111)
(144.795 -41.834 0.908038)
(61.9618 -36.8475 6.60144)
(116.397 -50.8415 4.67023)
(74.3858 -17.0126 0.648431)
(90.5582 -28.5279 0.934458)
(76.0831 -25.1704 -0.460135)
(82.8909 -15.9871 0.00346167)
(78.516 -15.1447 0.949612)
(80.2673 -10.3611 1.15609)
(78.0271 -8.69871 0.55786)
(78.2297 -5.76695 0.254503)
(76.8454 -4.0612 0.479167)
(74.502 -1.56476 1.22998)
(74.1355 -0.0882489 0.492911)
(73.6804 0.077415 0.158176)
(73.667 0.796299 0.18783)
(74.3267 0.952786 0.33277)
(80.0252 0.741148 0.728864)
(156.68 -42.7677 4.98325)
(48.7447 24.5013 23.7704)
(165.577 -19.6926 -20.4732)
(97.3414 -26.0781 -11.0488)
(111.459 -43.5506 -3.86026)
(98.6783 -24.8961 -2.87801)
(116.561 -20.7046 0.419092)
(94.6024 -28.162 1.25237)
(89.6351 -22.3968 1.33478)
(88.5243 -17.9178 1.58106)
(88.678 -12.3174 1.18756)
(87.1134 -9.07367 0.368537)
(85.7332 -6.32861 0.0116072)
(83.8355 -4.47527 0.381779)
(81.2729 -1.92688 1.29956)
(77.1083 0.231058 1.26509)
(76.6766 0.0187813 0.499797)
(76.4963 0.283472 0.349634)
(76.9639 -0.139118 0.249446)
(82.1632 0.0596949 0.607444)
(227.523 -163.617 50.6248)
(145.524 -61.6822 -16.6273)
(175.897 -42.0449 -29.2489)
(101.643 -20.0725 -12.7723)
(115.705 -19.2147 -2.39298)
(93.1116 -28.6767 -1.78332)
(96.0591 -19.7769 1.36561)
(100.766 -21.176 0.916678)
(99.7268 -21.7847 1.90895)
(99.5741 -17.6284 2.10977)
(100.102 -10.8938 2.03321)
(99.1368 -6.16282 1.43607)
(96.9059 -3.84567 0.652085)
(93.593 -1.70697 1.37356)
(87.4476 1.07081 2.97868)
(81.9469 1.40698 1.39964)
(80.1206 0.576911 0.39799)
(79.3484 0.451802 0.00744525)
(79.2391 -0.488643 -0.136061)
(83.299 -0.315506 0.0991592)
(220.701 -82.5321 -66.4197)
(127.71 7.3693 -13.8061)
(153.595 -7.2372 -21.4783)
(64.8082 -17.5445 -6.29394)
(93.3049 -25.3612 -0.649783)
(80.8742 -20.7342 -1.14023)
(94.4828 -23.894 0.937295)
(96.5001 -25.1654 2.25938)
(102.093 -24.2862 2.07902)
(103.515 -18.9928 0.483541)
(107.032 -14.0949 -1.86239)
(109.277 -5.28189 -0.591207)
(108.702 0.0869057 -0.679842)
(106.199 3.29526 0.642508)
(95.8913 8.20567 3.21057)
(85.514 4.97904 2.46378)
(83.776 2.27873 0.790674)
(81.3294 1.00959 -0.0382248)
(80.8272 -0.471977 -0.103511)
(83.6916 -0.607848 -0.00204974)
(101.714 -95.9424 -55.5821)
(30.7446 -26.2072 -29.7155)
(132.48 -17.1695 -5.47667)
(67.1013 -11.3714 -0.177595)
(96.5385 -15.045 2.99567)
(80.2318 -28.5312 0.120103)
(95.3039 -33.8363 1.47037)
(100.73 -29.9148 1.57969)
(99.5877 -25.7208 0.872182)
(97.5612 -18.4565 -0.599857)
(96.2112 -11.6087 -2.18301)
(95.9114 -5.53284 -2.76225)
(96.9248 -0.344788 -2.83847)
(97.7357 4.47217 -2.35409)
(92.4052 10.5554 -0.636198)
(85.9857 7.34745 1.27528)
(84.1796 4.66922 0.649129)
(81.8918 2.67921 0.0778058)
(81.1094 0.783117 -0.284927)
(83.0025 0.178316 -0.189179)
(111.466 -45.3642 -17.3448)
(54.6035 -14.3659 0.0717212)
(117.163 -5.91781 -8.78008)
(42.7397 -6.91274 0.587962)
(98.7339 -20.7002 1.42795)
(74.8343 -38.1252 0.0103371)
(90.1757 -31.6831 0.211284)
(81.4722 -26.2884 1.10497)
(85.2587 -22.7517 0.514175)
(82.5671 -14.7226 -0.181515)
(84.5585 -9.55414 -0.90458)
(83.4234 -4.07067 -1.34862)
(85.2853 -0.349365 -1.49434)
(84.9346 3.31519 -1.42855)
(82.4491 5.65578 0.490322)
(83.2005 5.41956 0.94088)
(84.149 5.37849 0.611019)
(82.8547 3.60214 0.0366278)
(82.6239 1.91763 -0.395827)
(84.1844 0.921313 -0.423901)
(177.567 164.115 28.5751)
(91.2261 47.5104 -5.92923)
(145.487 6.11995 -3.76045)
(83.304 -15.094 -3.46997)
(115.716 -32.0205 2.48995)
(85.8864 -36.9449 -0.0042685)