/*--------------------------------*- C++ -*----------------------------------*\
  =========                 |
  \\      /  F ield         | OpenFOAM: The Open Source CFD Toolbox
   \\    /   O peration     | Website:  https://openfoam.org
    \\  /    A nd           | Version:  10
     \\/     M anipulation  |
\*---------------------------------------------------------------------------*/
FoamFile
{
    format      ascii;
    class       volScalarField;
    location    "9.3";
    object      k;
}
// * * * * * * * * * * * * * * * * * * * * * * * * * * * * * * * * * * * * * //

dimensions      [0 2 -2 0 0 0 0];

internalField   nonuniform List<scalar> 
12920
(
151.377
643.527
734.304
647.873
494.104
440.355
391.518
343.694
294.904
257.531
229.786
210.285
195.12
178.761
155.872
131.861
113.722
106.046
105.244
102.629
629.438
1819.1
1733.84
1275.3
859.842
654.883
470.541
402.673
343.556
322.117
290.356
267.111
239.98
219.179
203.189
198.137
198.375
201.676
207.757
202.694
1638.2
2710.43
2287.75
1565.41
1055.07
777.493
560.085
459.873
387.169
355.158
317.672
292.908
266.162
243.947
220.512
198.368
183.483
169.328
164.625
156.044
333.391
868.025
1043.1
1032.59
811.745
570.31
407.836
342.991
288.797
264.849
237.853
221.515
203.09
188.049
172.794
159.028
147.761
139.05
135.105
132.336
168.168
1161.81
1439.15
1194.07
762.962
542.467
399.45
331.825
273.714
244.699
216.371
200.559
184.212
172.582
161.9
152.729
144.481
136.376
132.31
128.967
3595.82
3002.74
1760.71
1124.97
673.17
481.321
389.982
335.34
278.048
244.822
215.984
200.768
187.538
177.473
167.343
155.874
143.753
132.06
126.262
123.333
2522.82
1454.38
1030.27
732.114
553.641
474.954
427.718
346.139
300.123
245.462
217.692
193.641
177.569
163.988
149.153
134.705
122.2
113.14
109.249
108.491
4857.79
4022.06
1720.98
892.712
642.079
545.043
319.133
228.751
212.156
175.839
153.765
130.295
118.163
106.8
161.832
130.513
107.676
94.4358
89.39
88.9433
10248.2
5989.36
2278.08
997.041
682.997
356.585
282.146
150.584
161.16
149.535
110.255
86.5361
85.8647
80.5881
123.334
147.6
116.547
93.4367
79.1695
72.2398
4206.3
4370.81
2188.99
1156.26
749.409
414.729
232.385
161.799
159.796
167.298
161.47
134.534
75.6564
66.925
109.1
139.68
119.547
95.3671
75.1384
62.0316
7114.38
3920.93
2405.1
1466.59
916.532
434.847
204.954
121.385
174.25
221.317
233.433
206.333
89.1668
58.2981
84.8215
120.032
105.986
87.7375
74.4099
63.7678
1239.56
1646.07
2073.79
1903.4
1386.23
750.718
391.397
136.801
78.1797
122.643
170.016
122.291
79.8399
60.8821
95.1231
132.688
115.823
95.8125
86.7051
81.5982
195.652
883.831
1395.89
1418.8
1256.12
937.23
566.919
360.793
228.196
170.769
166.075
147.735
103.612
82.4146
123.683
116.269
113.307
111.438
110.889
107.291
637.533
944.362
1129.88
1069.21
831.056
694.958
562.717
428.42
334.541
277.372
233.8
200.93
172.367
148.288
123.305
106.543
101.095
101.654
102.116
98.334
1483.22
1406.85
1322.03
1094.01
847.081
713.182
541.535
437.919
342.113
291.394
251.766
235.11
223.049
203.324
165.186
128.175
105.014
93.7765
90.9185
86.3154
264.942
1598.14
1849.77
1447.28
1052.46
846.343
637.328
505.632
390.737
328.545
280.405
254.301
225.581
197.765
163.275
132.247
109.006
96.8382
92.1578
91.219
768.001
1117.26
1627.97
1305.5
855.97
641.966
484.209
409.985
346.878
310.56
271.862
239.873
202.932
168.5
140.524
121.711
109.448
101.401
97.4215
97.0472
302.25
1735.04
1682.3
971.444
690.744
527.564
405.056
350.722
299.442
269.798
235.73
204.86
174.824
150.093
130.229
117.081
109.234
103.875
100.252
97.9225
839.839
1487.44
1340.97
1035.42
708.254
528.067
377.568
295.885
247.808
228.928
206.236
184.279
160.219
139.002
121.986
111.217
106.259
104.2
103.663
102.505
1825.91
1027.01
323.596
274.324
318.816
358.504
357.799
312.451
212.958
155.709
129.348
114.5
103.833
93.627
86.1168
77.5705
71.5195
63.2368
59.7426
53.1378
476.474
1523.78
1415.03
1262.84
1021.49
882.393
718.283
599.245
523.017
490.379
471.9
456.019
429.814
386.927
325.817
265.879
228.562
215.429
213.47
205.401
6238.01
5814.8
3846.14
2959.54
1805.81
1487.75
1123.26
994.267
857.561
813.921
741.559
703.031
651.121
618.149
589.042
580.527
579.739
582.79
581.567
564.282
7557.53
6946.96
5391.26
3887.28
2424.47
1885.85
1381.69
1170.24
980.929
903.009
807.794
756.051
693.427
649.167
603.114
563.734
531.195
504.058
490.211
477.876
4353.56
4565.83
2717.36
2591.36
1901.2
1470.2
1081.09
935.574
798.657
737.336
660.659
616.652
564.973
528.396
491.839
461.8
436.908
419.444
410.946
406.891
2820.84
4272.04
3347.44
2525.33
1776.87
1362.96
1021.59
877.947
736.468
674.124
597.303
563.92
520.497
497.299
469.602
448.881
428.679
410.109
400.82
392.748
13836.8
5629.41
3378.12
2639.51
1513.84
1233.35
992.478
876.464
728.249
651.886
581.688
545.607
515.337
494.458
472.311
448.83
422.013
396.112
383.48
374.273
5508.37
2006.21
2327.64
1767.42
1413.52
1250.34
1114.44
884.521
740.023
615.301
549.854
502.233
467.716
441.139
412.074
383.106
356.162
337.855
330.358
327.077
3265.23
3156.12
2526.21
2068.49
1585.16
1395.91
1149.69
1021.61
770.336
641.522
549.218
475.864
429.497
382.276
369.418
324.144
289.234
269.945
264.766
265.31
16332.9
7033.52
3559.05
2123.37
1626.14
1337.91
1178.58
1006.21
869.117
726.227
555.956
454.671
416.855
375.028
341.4
321.007
273.433
235.21
214.677
209.742
12024.7
9812.83
5045.95
2822.97
1713.42
1459.81
1200.46
1030.11
914.902
829.81
709.632
519.961
360.347
317.969
305.07
301.798
278.231
225.752
189.817
176.985
25304.2
12023.7
5665.47
3222.31
1855.34
1274.88
914.288
904.492
994.409
1026.27
918.441
709.046
390.095
260.566
234.449
261.318
249.346
218.638
198.6
185.404
2619.26
4671.02
4797.37
4099.13
2920.43
2032.94
1296.07
723.25
662.253
901.91
884.106
649.653
403.785
298.55
274.86
294.538
275.059
254.184
250.726
245.043
968.484
2235.83
3447.77
3457.15
3039.3
2314.27
1711.17
1316.14
924.829
809.776
663.407
497.158
360.985
296.194
305.924
304.938
305.677
310.235
319.238
315.894
1827
3132.91
3149.01
2868.33
2247.92
1859.94
1472.05
1129.19
884.498
720.143
592.201
507.392
436.355
383.626
333.727
302.617
293.496
296.073
300.939
290.504
3673.06
3682.8
3583.6
2808.54
2100.06
1795.27
1348.22
1138.53
897.631
775.197
664.719
611.315
559.2
507.955
429.776
346.973
298.972
277.371
270.364
259.676
3795.54
5827.39
5294.93
3636.23
2637.34
2125.03
1576.11
1309.18
1002.23
866.788
734.16
659.074
577.049
517.11
442.46
374.204
317.373
291.898
282.025
279.71
4585.02
6119.09
5247.07
3330.07
2202.38
1697.27
1296.7
1121.56
923.502
831.613
710.418
627.605
533.769
462.514
399.378
360.275
333.387
315.701
305.84
304.714
2150.97
5988.35
4223.73
2291.11
1714.69
1304.44
1065.64
942.464
796.886
725.65
617.01
546.249
470.345
423.335
380.604
355.815
338.117
326.501
317.992
312.277
1888.57
5531.4
3898.86
2844.85
1750.41
1241.19
888.691
772.571
644.192
604.242
533.016
489.031
433.315
395.83
361.451
342.692
332.187
327.012
324.907
320.015
3797.24
2931.9
1588.03
919.927
589.077
557.211
552.453
502.967
358.843
288.923
258.167
244.827
231.489
218.287
205.355
187.245
174.188
158.1
150.759
135.594
98.4265
1149
1605.12
1454.59
1168.44
1056.03
882.017
741.745
664.175
616.674
570.237
515.206
451.619
383.255
326.24
282.612
261.053
238.484
226.849
198.183
10649.7
7136.04
4623.95
3364.66
2202.76
1762.3
1337.63
1208.17
1053.28
1014.17
939.52
898.925
842.234
810.849
782.738
773.286
762.393
755.755
739.011
702.982
24776.4
11873.5
6076.71
4557.88
3022.23
2332
1734.07
1484.14
1257.83
1156.57
1035.25
964.692
886.21
833.643
784.606
749.556
721.056
697.556
682.991
668.844
5916.35
6694.86
4714.73
3592.96
2582.88
1934.49
1482.04
1269.05
1095.61
1002.41
898.972
834.935
767.933
722.184
679.677
648.338
624.264
609.428
602.37
599.141
4937.91
7360.87
5188.8
3345.44
2409.78
1764.86
1395.55
1179.45
1015.23
922.239
829.054
775.703
720.117
684.682
650.364
624.396
602.725
586.835
578.841
570.952
16425.5
6545.51
4616.13
3133.31
2149.61
1656.07
1395.92
1173.45
981.405
874.843
787.195
738.498
694.25
663.092
632.448
604.6
580.142
560.395
551.453
540.352
21761.9
4323.55
3982.15
2543.29
2184.32
1735.82
1490.25
1150.59
961.824
809.699
728.864
672.75
627.358
593.252
558.179
529.245
506.759
492.235
485.913
480.53
6672.33
3845.28
3539.37
2853.39
2301.69
1919.97
1687.41
1372.06
1027.36
842.978
722.623
634.231
576.674
519.777
483.108
444.514
419.458
406.375
402.231
402.268
18328.6
6460.04
4139.2
2645.66
2239.35
1919.04
1774.13
1421.16
1148.2
921.004
730.528
615.846
554.694
496.867
447.326
414.167
371.252
342.935
329.361
327.774
18651.9
11737.5
5737.98
3347.84
2387.86
2065.72
1807.72
1494.69
1282.06
1091.95
852.567
589.186
471.597
437.097
415.167
401.691
359.925
315.139
289.906
283.778
27156.2
9804.43
6605.52
3762.74
2498.95
1892.39
1660.06
1535.07
1471.34
1364.71
839.14
604.854
421.48
332.86
336.947
373.398
350.181
324.304
306.688
293.972
4967.69
6231.46
6210.3
5020.96
3525.61
2563.16
1913.35
1451.39
1400.4
1366.04
1123.56
776.714
519.184
409.519
387.261
416.16
403.883
395.404
390.499
370.295
2280.09
4471.1
4972.42
4707.85
3932.18
2922.75
2289.26
1775.9
1367.06
1151.73
860.495
630.716
483.315
421.387
438.541
443.588
453.847
462.817
464.441
445.919
9034.43
8469.2
6823.17
4478.69
3265.88
2488.67
1946.32
1503.81
1187.97
959.45
772.415
658.819
567.38
506.489
458.93
437.277
432.685
435.432
434.768
413.889
4902.76
6836.79
6417.99
4073.13
2975.66
2308.33
1795.48
1496.31
1206.51
1028.86
871.235
779.286
692.218
617.487
540.767
477.321
440.089
419.14
409.31
395.851
7443.59
9701.32
7755.14
4846.13
3474.4
2659.39
1981.87
1628.39
1299.72
1114.25
939.114
829.563
726.148
652.563
580.551
526.555
483.439
460.155
445.899
440.237
6147.19
9175.46
7623.54
4348.43
2887.56
2155.12
1714.39
1474.88
1240.03
1089.27
925.288
814.742
710.358
641.58
583.722
548.939
521.054
503.615
492.829
488.143
11850.3
8730.31
5287.98
2944.74
2228.3
1684.72
1444.64
1268.87
1102.57
992.241
857.314
772.475
687.651
636.409
589.523
561.858
538.706
522.804
512.57
502.786
10990.9
8312.71
4633.01
3443.77
2224.79
1636.96
1178.41
1055.94
918.427
862.598
767.908
714.911
650.377
613.198
575.041
552.072
532.555
517.467
508.034
490.661
3819.83
3073.06
1750.03
1255.25
827.325
660.522
603.208
511.984
414.142
365.402
333.441
309.814
286.662
263.351
243.746
222.001
207.968
189.986
181.337
161.928
3348.59
3201.7
1859.92
1331.73
1190.66
1079.29
914.635
792.181
708.136
626.444
540.567
449.127
378.509
324.975
290.158
261.868
242.031
219.125
207.537
186.151
12207
8013.07
4902.84
3272.82
2337.18
1852.59
1496.9
1404.48
1269.32
1237.95
1165.19
1108.88
1051.32
1016.13
986.901
966.781
942.297
924.145
889.774
861.17
36242.3
10003.1
6718.75
4546.69
3397.68
2529.89
2027.55
1740.75
1536.55
1392.32
1263.87
1162.65
1080.5
1018.38
972.828
938.343
913.45
892.964
878.725
867.357
20955.3
9798.98
6262.74
4073.91
3183.07
2189.37
1825.42
1513.42
1362.42
1218.9
1114.5
1023.34
955.974
902.076
863.416
834.37
816.142
805.334
800.213
798.052
14131.8
9180.96
6047.14
3812.31
2948.27
2022.13
1716.85
1406.5
1268.17
1129.18
1039.84
961.075
905.87
860.132
827.287
800.135
782.579
770.507
763.696
758.266
14798.5
7363.98
5630.61
3477.63
2789.75
1951.46
1736.27
1390.76
1201.83
1056.7
972.309
908.039
862.57
823.723
792.302
765.315
746.437
732.475
724.981
716.057
18785.3
7471.29
5070.67
3198.48
2839.81
2071.19
1779.8
1346.09
1141.55
963.224
888.797
823.23
779.762
741.032
707.738
682.712
666.505
656.121
650.86
647.946
20587.1
7428.42
5168.22
3384.4
3004.56
2349.85
2008.47
1549.38
1181.18
974.835
851.625
761.878
703.315
645.132
607.981
579.996
565.12
558.696
557.129
559.586
19335.2
9312.53
4938.25
3243.23
2724.58
2323.86
2162.05
1629.39
1285.2
1024.88
840.48
729.011
659.493
600.77
551.655
522.533
490.516
475.582
470.093
474.006
15382
9867.81
6275.42
3709.94
2977.03
2467.46
2186.82
1794.51
1498.72
1214.91
907.181
653.168
572.035
551.672
534.093
509.644
463.808
435.058
422.567
424.616
23168.7
10222.9
7177.32
4078.31
3042.91
2397.04
2211.36
1988.49
1793.68
1528.64
968.13
598.134
478.13
458.579
487.445
509.116
478.709
456.496
441.233
433.677
5234.74
8380.59
7977.91
5671.17
4051.03
2964.8
2434.09
2042.38
1853.57
1573.89
1162.29
799.205
596.672
528.564
533.709
578.731
571.241
557.56
541.591
506.224
9991.48
10272.9
7549.77
5885.18
4663.08
3326.13
2654.59
2068.64
1635.4
1299.3
948.892
719.305
600.245
560.168
601.519
616.019
631.053
632.175
622.647
579.104
14382.1
14376.1
10457.2
5895.89
4202.03
2914.34
2310.49
1746.9
1411.55
1116.83
914.51
784.814
695.218
637.123
602.203
591.241
590.201
589.772
582.438
552.843
11249.8
11439.9
9142.29
5088.38
3796.28
2631.03
2154.07
1735.41
1450.46
1211.94
1039.31
915.774
815.428
733.552
667.543
621.224
594.119
578.358
567.757
557.309
7492.94
10317.5
9374.84
5894.03
4272.23
2961.1
2306.04
1830.49
1540.51
1292.65
1115.36
975.902
873.465
794.733
732.935
688.961
658.081
641.949
629.86
627.513
9638.25
10542.7
9075.97
5110.81
3525.59
2443.27
2069.96
1712.99
1501.1
1282.63
1118.78
985.769
890.217
820.557
771.38
739.746
716.79
704.343
695.995
693.246
13707.5
10554.1
6494.2
3494.96
2696.19
1965.27
1789.47
1520.05
1378.06
1214.02
1084.33
980.706
902.312
845.072
801.217
771.153
748.543
733.727
723.639
716.057
14339.3
10188.2
5616.12
3494.31
2260.37
1719.07
1444.03
1307.09
1195.68
1107.34
1008.83
941.488
877.561
835.151
795.053
765.176
739.497
719.327
702.195
682.701
8023.26
5607.01
1910.86
1242.1
1004.54
731.576
591.831
502.778
445.669
402.378
365.103
331.119
301.269
273.777
251.362
228.544
212.681
192.523
183.149
163.639
1220.22
2003.37
1485.57
1247.84
1121.42
972.167
849.501
721.993
587.975
460.946
372.285
311.332
273.8
247.522
229.242
213.737
199.601
187.456
178.278
167.296
29966.8
12192.7
5693.73
3130.18
3014.91
2091.87
2097.68
1832.46
1803.77
1641.56
1600.04
1475.89
1437.8
1361.15
1340.39
1295.99
1265.99
1225.72
1181.21
1147.3
33835.1
12326.6
8115.08
4664.7
4385.95
2867.51
2721.34
2159.51
2076.03
1762.39
1675.61
1475.59
1422.99
1319.87
1294.97
1248.53
1235.18
1211.45
1198.82
1186.09
27112.9
14000.5
8342.79
4642.88
4285.88
2493.15
2464.33
1870.87
1827.93
1546.76
1483.81
1317.06
1275.98
1191.57
1172
1137.49
1130.71
1120.18
1115.66
1113.09
29193.4
10999.4
7992.39
4577.59
4069.22
2468.87
2350.12
1777.58
1721.46
1454.88
1402.21
1254.52
1222.72
1147.38
1128.46
1092.47
1084.71
1072.86
1067.12
1064.13
22418.2
9654.28
7096.79
4107.88
3947.07
2385.01
2377.39
1763.04
1615.38
1349.32
1299.22
1190.39
1159.09
1100.42
1074.36
1045.43
1032.84
1022.5
1014.85
1010.15
15769.2
10540.5
6802.2
4089.44
4051.27
2635.13
2393.06
1730.28
1491.81
1236.35
1189.84
1085.72
1062.15
1004.54
977.882
951.154
942.197
933.747
930.543
932.601
48682.9
11541.1
7487.13
4121.45
4379.5
3121.2
2353.65
1728.28
1360.4
1121.46
1021.32
928.017
884.222
825.96
866.239
838.055
824.388
824.592
825.397
834.748
10217.2
11252.1
6892.77
4179.51
3621.54
2842.83
2561.97
1778.68
1404.47
1129.91
974.264
880.105
826.405
777.832
745.52
761.918
730.446
724.824
726.666
742.736
12003.8
10235
7981.97
4445.58
4098.75
2914.25
2547.66
2069.53
1671.92
1277.96
966.92
781.294
758.552
768.289
743.774
738.609
687.723
674.054
673.894
689.776
16212.5
11869
8556.86
4675.57
3944.33
2886.93
2669.74
2386.87
2051.39
1563.95
1055.6
739.363
674.436
720.552
727.423
762.022
716.913
695.259
686.237
690.458
19942.3
13540.7
11099.2
6463.89
5223.82
3437.77
2971.39
2516.93
2152.77
1642.86
1144.43
853.906
776.571
770.521
783.739
880.732
851.771
815.865
780.103
748.871
54336.5
21321.3
11707
6890.34
6102.15
3894.01
3060.13
2321.12
1879.79
1389.79
1068.32
865.941
807.082
784.69
913.983
926.149
927.794
911.111
869.307
813.769
18920.5
17273.8
15498.5
7874.53
6035.54
3487.32
3039.35
2128.86
1829.49
1366.36
1205.73
1018.42
952.982
884.74
869.763
861.052
860.779
851.043
829.672
807.494
25478.6
14961.3
12561.4
6200.45
5317.08
3098.17
2880.91
2119.98
1905.03
1496.6
1353.53
1159.02
1064.17
963.515
911.784
875.678
860.112
849.155
837.771
838.258
7774.49
14030.7
12905.4
7274.14
5801.67
3391.01
3004.7
2157.98
2004.21
1581.93
1461.61
1231.44
1160.62
1048.05
1006.8
961.632
947.681
938.895
931.404
939.044
4250.23
11771.8
11732.5
6337.89
4866.18
2905.57
2771.16
2102.35
1983.95
1590.47
1485.77
1265.3
1207.35
1103.98
1074.83
1037.02
1026.92
1019.46
1013.5
1019.72
18040.8
11793.1
7838.16
4246.82
3570.75
2425.11
2418.84
1899.5
1859.54
1547.62
1481.2
1293.92
1252.47
1156.25
1130.76
1084.73
1073.04
1058.72
1049.04
1052.04
17543.7
8917.58
6340.6
3527.32
2860.57
1965.91
2039.4
1684.44
1700.88
1469.75
1426.98
1272.94
1238.49
1152.05
1125.5
1072.11
1051.31
1024.78
1002.07
994.437
7338.1
2363.43
1578.59
1321.23
866.448
641.183
548.485
487.591
437.795
382.97
339.031
297.84
267.38
239.364
217.107
195.838
179.633
165.255
156.296
144.549
923.578
1322.02
935.395
1193.82
978.965
1432.96
990.63
642.709
809.715
615.239
894.773
678.218
826.647
519.893
970.197
1390.31
1224.95
1500.51
1023.24
1559.7
1284.77
654.922
1151.06
894.624
865.076
591.519
1183.79
890.731
151.97
230.862
157.876
866.087
848.525
1026.19
896.222
162.469
154.603
150.031
846.343
795.756
861.921
782.118
151.952
150.948
156.573
761.066
672.139
764.021
710.947
122.45
155.307
140.568
649.259
527.189
688.007
606.313
89.905
137.213
120.797
491.835
412.934
576.019
470.202
85.925
109.131
77.9641
398.425
375.54
431.993
344.371
83.3089
73.6137
72.1005
368.401
342.168
328.603
306.195
59.6408
72.2842
57.7758
332.15
311.015
300.6
290.59
164.33
215.91
134.428
940.167
898.45
747.075
783.753
158.593
136.453
168.793
871.228
800.873
801.48
846.73
167.567
179.594
209.237
786.006
746.446
859.339
883.964
162.127
214.047
223.639
729.67
667.582
883.582
841.746
148.815
223.302
214.05
640.381
526.462
811.01
696.617
85.2789
200.861
106.798
478.741
345.674
636.565
393.459
66.8943
86.3465
60.7042
318.224
282.866
333.924
239.449
56.4661
57.1269
39.5198
278.214
276.884
224.542
200.367
120.444
288.931
136.483
618.9
681.768
693.593
507.805
158.688
110.319
81.0305
713.434
813.583
448.795
446.965
213.546
81.4256
133.055
843.353
901.335
497.07
751.324
233.716
160.067
197.623
907.097
878.93
804.047
840.411
220.752
197.784
172.711
849.35
734.411
826.247
707.611
111.147
159.391
99.0954
675.042
417.24
644.978
419.533
61.5994
84.2013
63.5377
352.556
249.938
366.643
278.449
40.5067
62.8042
50.5994
232.098
201.268
263.484
238.523
179.263
498.082
273.683
948.24
648.115
1144.81
992.184
81.1987
236.422
166.015
535.91
441.793
905.922
712.602
95.9977
143.408
90.7144
459.485
674.943
647.489
593.482
169.906
85.4193
100.379
737.883
787.489
604.167
632.628
138.831
105.78
106.112
774.586
641.75
620.469
511.525
88.8682
101.809
81.214
576.817
398.24
475.447
354.492
62.4474
71.9374
57.0465
354.952
274.798
323.611
256.984
48.6276
52.5605
39.0974
260.946
237.425
244.91
228.972
1029.81
1299.6
1066.35
1631.53
1409.39
1773.86
1451.18
915.967
1021.56
917.459
1341.94
1164.98
1383.75
1219.73
757.128
890.683
812.926
1096.45
930.08
1170.86
1030.89
594.032
783.74
683.566
884.82
737.75
984.59
834.802
471.109
646.051
522.276
696.365
602.495
779.864
621.092
426.749
481.771
393.065
583.239
541.738
578.597
496.796
386.253
376.496
349.246
526.419
484.271
480.241
446.545
342.139
342.512
321.288
471.078
435.656
437.696
413.207
1067.09
1016.24
974.219
1671.85
1456.19
1518.43
1442.05
937.453
979.79
998.191
1398.03
1250.82
1422.51
1366.78
852.801
1003.04
1004.9
1207.8
1083.92
1347.85
1270.38
746.175
997.947
918.725
1042.22
893.59
1248.92
991.172
571.035
874.194
728.487
830.638
634.104
889.763
676.318
387.374
662.744
425.542
579.41
467.954
609.819
427.574
323.41
366.06
266.994
448.026
416.816
382.534
313.252
307.596
251.413
221.497
410.798
399.924
305.164
300.636
885.394
1006.24
700.023
1473.62
1407.88
1535.73
1280
973.746
637.507
643.499
1396.6
1376.22
1234.42
1239.1
1027.25
705.652
919.438
1368.4
1315.07
1272.49
1316.75
961.245
956.036
958.687
1294.08
1041.35
1306.56
1181.56
775.23
928.74
781.777
942.925
736.661
1118.56
884.878
454.244
707.068
470.467
670.882
475.7
793.163
559.378
280.196
415.275
318.061
425.05
331.705
505.591
403.14
220.676
300.224
262.655
315.228
293.456
382.516
345.498
844.188
1616
1261.93
1760.5
1360.69
2120.17
1729.31
636.194
1152.8
907.985
1276.05
1225.08
1598.11
1338.33
857.695
835.334
765.938
1242.93
1285.3
1269.26
1161.38
913.442
770.477
757.685
1277.28
1152.16
1140.64
990.701
722.482
727.936
584.471
1087.97
847.23
928.359
718.395
450.866
539.823
402.92
760.96
547.045
659.617
500.983
314.74
368.773
297.58
497.878
403.308
464.891
391.56
263.488
284.155
260.184
384.831
350.006
378.425
359.374
1500.37
1910.72
1549.15
2062.54
1695.9
2186.49
1782.21
1222.64
1476
1294.63
1590.11
1342.81
1694
1465.5
969.203
1239.49
1082.11
1258.98
1056.41
1394.18
1191.88
772.804
1030.69
866.811
1002.61
856.95
1126.34
931.177
635.759
807.816
642.745
814.878
721.624
866.491
700.416
571.49
601.147
523.175
700.782
650.054
663.028
594.858
510.493
507.068
472.749
631.737
585.341
580.647
549.295
457.75
463.628
435.04
571.555
532.547
540.652
512.38
1558.26
1676.66
1572.25
2105.76
1807.83
2043.91
1903.08
1331.13
1545.34
1467.65
1730.03
1520.68
1857.66
1717.81
1139.46
1440.57
1337.33
1454.35
1259.31
1667.55
1499.18
1153.37
1042.23
1163.44
1133.28
1115.43
1077.56
1208.36
778.215
777.429
877.623
868.516
784.248
788.72
881.692
488.765
546.509
404.574
631.111
555.787
462.325
413.648
443.055
372.352
328.099
543.582
522.468
410.713
412.568
422.025
324.819
323.327
517.734
503.129
417.055
428.761
1555.06
1732.77
1462.95
2087.93
1929.86
2192.76
1947.01
1488.55
1419.57
1408.27
1889.07
1770.29
1898.09
1809.77
1388.7
1424.76
1418.61
1725.65
1565.4
1779.32
1630.74
1390.47
1293.49
1393.4
1413.98
1341.81
1235.9
1454.9
1004.68
751.861
1087.78
681.617
1007.81
603.651
1093.17
461.661
801.938
576.344
541.854
464.975
805.042
614.489
345.521
524.803
425.583
448.103
419.12
572.866
496.66
315.165
405.523
366.893
416.71
420.031
482.308
460.458
1525.89
2272.51
1847.41
2304.47
1979.24
2589.85
2147.16
1395.11
1717.75
1457.27
1913.2
1798.21
2019.28
1744.19
1392.77
1385.85
1258.58
1763.97
1612.48
1662.39
1461.7
1198.09
1225.88
1037.31
1540.65
1262.84
1392.87
1115.64
863.271
966.35
744.271
1163.12
876.526
1029.56
794.271
566.689
683.419
525.142
795.201
613.147
733.886
590.717
427.335
489.493
419
574.125
503.855
560.698
506.081
372.798
406.499
386.007
490.973
467.993
497.681
487.318
1741.98
2270.69
1844.28
2424.67
1860.9
2485.94
2023.65
1370.06
1751.47
1508.4
1726.43
1440.81
1913.75
1622.69
1079.58
1432.62
1217.26
1360.21
1151.25
1533.9
1278.67
881.729
1147.52
946.21
1093.17
963.267
1197.25
990.572
749.969
881.709
721.284
930.244
853.468
933.404
802.796
677.869
685.645
621.141
833.039
787.153
774.907
734.445
614.598
608.283
580.458
773.376
736.521
730.401
719.601
558.697
572.347
540.794
722.98
683.96
712.582
681.72
1876.56
2155.44
1996.56
2427.78
2079.11
2455.99
2265.58
1570.26
1945.72
1786.65
1980.17
1704.57
2198.11
1976.92
1286.25
1728.57
1531.63
1615.19
1345.65
1891.21
1593.71
989.887
1456.97
1064.29
1256.62
1018.16
1480.43
1123.56
697.737
912.602
588.145
945.678
776.049
1002.73
726.803
582.713
530.277
454.463
741.057
698.057
671.114
598.995
555.546
449.591
454.592
698.176
703.539
600.6
637.373
532.946
460.68
468.051
701.896
679.735
645.479
646.807
2035.23
2341.99
2083.22
2534.38
2330.13
2716.17
2448.83
1847.45
2030.21
1912.44
2266.99
2057.65
2378.43
2169.06
1599.27
1868.26
1676.56
1972.81
1667.6
2084.99
1763.67
1113.6
1591.6
1286.21
1549.63
1167.79
1637.88
1262.3
661.263
1179.76
886.041
1045.35
768.136
1150.9
885.271
494.819
804.592
628.941
707.669
615.074
821.669
712.764
458.295
592.37
529.7
612.223
636.603
700.318
689.697
459.66
518.714
497.366
642.57
641.899
686.962
675.684
2110.12
2688.97
2231.78
2804.11
2467.59
2980.81
2465.22
1901.16
2103.35
1817.73
2383.75
2154.15
2325.08
1999.34
1659.28
1731.43
1505.86
2067.63
1747.36
1902.17
1593.17
1266.41
1425.67
1128.7
1622.22
1250.66
1480.81
1154.96
876.471
1040.71
808.613
1143.07
888.617
1072.29
871.395
630.786
750.005
616.61
828.645
726.947
823.015
734.755
538.66
589.472
543.44
714.465
700.2
720.963
701.49
505.283
536.465
525.192
696.65
684.065
697.749
696.879
1921.03
2591.02
2111.42
3579.95
2666.93
3604.62
3120.49
1482.66
1992.7
1679.64
2508.64
2225.09
2959.46
2565.55
1190.3
1585.08
1309.73
2181.15
1874.77
2449.92
2011.35
1004.15
1223.06
1015.12
1814.09
1710.15
1887.69
1643.78
900.898
961.331
841.733
1712.61
1613.16
1593.34
1489.75
838.244
816.947
789.29
1606.96
1578.98
1487.53
1608.07
791.698
789.197
782.989
1592.04
1536.18
1620.03
1605.51
734.636
775.525
737.138
1535.54
1486.8
1595.35
1587.05
2176.18
2593.74
2384.64
3587.26
3248.54
3625.49
3553.29
1768.85
2310.15
2062.03
3099.99
2705.03
3462.78
3116
1373.94
1963.67
1620.89
2554.37
2072.55
2942.23
2365.39
1034.98
1494.25
1131.24
1930.67
1632.19
2164.9
1691.36
812.089
1017.84
761.981
1564.42
1424.46
1570.32
1309.82
753.42
710.793
658.255
1415.74
1549.57
1276.89
1405.95
770.393
665.903
716.372
1609.74
1612.37
1518.66
1600.94
736.182
722.933
711.242
1602.93
1570.61
1595.6
1569.87
2455.77
2871.51
2591.4
3698.33
3652.35
3991.12
3838.22
2149.13
2513.33
2269.84
3571.8
3240.51
3741.17
3414.3
1696.78
2170.94
1798.07
3066.07
2465.54
3246.58
2613.66
1172.18
1656.58
1257.93
2251.55
1730.42
2391.06
1851.89
795.021
1146.95
896.433
1602.54
1336.31
1725.29
1483.36
670.153
840.737
762.384
1299.26
1419.3
1458.93
1581.63
715.583
760.097
763.121
1529.67
1605.74
1646.69
1639.69
707.237
761.494
740.879
1598.18
1560.6
1630.25
1611.95
2608.71
3133.46
2569.7
4237.14
3858.47
4337.4
3563.66
2252.42
2420.1
2076.72
3729.32
3372.39
3386.41
3030.62
1782.45
1974.33
1630.87
3231.12
2601.97
2934.1
2411.59
1250.6
1505.96
1176.25
2385.12
1875.89
2238.82
1906.05
905.77
1096.48
908.998
1759.61
1539.49
1846.82
1653.91
781.077
864.003
793.063
1520.53
1644.67
1621.15
1583.47
773.309
782.745
770.221
1653.75
1639.63
1596.14
1565.33
750.291
766.308
761.1
1631.27
1631.44
1572
1561.08
1078.32
986.476
968.432
946.559
1050.82
1016.05
984.015
1230.88
1242.01
1256.02
1371.4
1190.6
1291.46
1221.69
1104.08
971.01
1110.04
724.326
1093.34
947.966
950.808
1182.44
1166.97
1127.14
1272.55
1105.65
1244.56
1202.92
1100.99
964.621
1056.15
1015.44
1039.05
999.518
1118.71
1259.71
1403.73
1354.8
1340.54
1328.41
1236.94
1279.46
1128.91
751.074
1018.19
1181.58
964.032
968.367
1165.19
683.235
706.237
620.058
650.84
696.356
715.042
603.263
664.553
848.813
702.65
585.494
734.558
798.519
477.935
553.46
578.485
649.334
460.454
645.636
493.626
438.507
781.886
882.074
813.34
904.94
800.376
890.169
797.87
683.426
662.244
739.779
623.079
725.762
603.869
701.189
665.014
600.679
868.144
702.548
804.484
487.229
735.889
544.236
408.957
539.033
606.022
474.882
415.739
622.896
1289.81
1140.71
1170
794.623
1258.13
981.859
1186.6
1408.59
1398.39
1347.57
1459.74
1354.45
1464.89
1402.91
1335.34
1224.76
1291.52
1255.63
1295.01
1252.37
1333.9
1431.85
1455.28
1391.46
1541.31
1269.29
1504.75
1457.97
1321.39
809.995
1211.38
1225.73
1003.1
1206.32
1346.28
1450.51
1515.91
1561.33
1476.21
1519.53
1445.62
1478.8
1364.3
1274.99
1277.87
1383.47
1269.78
1364.22
1381.66
922.272
687.569
850.668
543.759
931.251
586.231
833.514
1076.89
1148.74
1070.81
1171.59
1069.22
1165.79
1082.64
985.304
894.258
985.32
896.91
985.132
890.901
990.662
999.445
685.064
740.248
1108.93
594.686
1099.32
1000.77
909.804
511.245
650.767
810.085
566.105
817.393
903.675
1075.85
1181.81
1173.33
1082.74
1173.3
1085.81
1070.01
979.172
894.826
877.717
984.28
884.684
989.466
970.813
228.143
318.004
260.068
582.817
702.862
587.44
688.048
230
244.17
235.082
701.922
592.954
690.948
666.026
187.478
224.424
224.665
550.507
512.736
608.755
589.99
168.452
218.881
195.999
485.148
448.87
547.371
484.549
140.473
170.485
156.128
414.097
382.635
428.038
390.143
125.415
146.147
140.922
358.511
341.432
364.797
352.523
111.679
133.729
125.991
317.977
304.592
331.439
318.439
85.9309
119.395
94.3721
276.91
288.008
289.56
301.344
353.889
370.361
344.324
749.17
741.493
806.256
985.323
363.936
214.996
251.481
364.483
364.473
360.666
196.896
427.047
154.036
143.478
416.962
440.894
413.589
144.171
422.664
157.2
148.081
442.636
430.65
426.146
150.224
387.522
144.295
150.59
407.483
390.291
406.359
146.723
273.637
100.157
110.162
303.762
278.615
294.605
102.448
223.064
85.3012
88.1426
243.13
237.162
232.845
84.1397
212.023
85.4589
81.6169
231.229
227.232
212.497
82.1677
199.778
78.6339
81.3171
207.549
202.078
203.232
79.4678
95.9642
121.294
93.0181
256.975
262.718
252.566
264.301
349.222
411.658
321.93
782.478
824.263
719.189
682.058
369.515
187.547
229.349
365.81
394.849
355.595
179.801
460.791
159.671
161.816
455.745
454.241
454.229
164.389
472.965
163.974
171.654
443.945
445.852
467.619
176.247
479.348
165.719
183.99
441.415
434.336
480.068
185.035
458.919
160.261
186.54
411.325
401.135
466.831
186.216
329.141
116.92
161.26
325.506
284.114
379.645
138.615
172.455
70.243
81.0702
187.3
175.466
192.637
71.7431
149.132
67.1048
61.3154
166.807
166.418
150.003
61.1748
88.6163
89.3378
69.0405
231.793
251.186
190.581
206.278
311.415
510.182
388.233
729.017
589.909
830.704
678.638
243.397
159.628
208.151
265.653
254.183
270.209
162.058
238.157
128.017
104.851
304.82
351.02
222.099
104.596
451.709
190.158
145.823
470.985
504.299
397.428
169.528
571.726
228.299
216.651
566.236
576.729
555.341
225.961
563.402
231.869
231.091
575.687
563.385
575.084
228.699
422.085
176.854
197.538
490.296
422.589
484.428
173.459
179.591
75.2505
90.4556
206.252
176.257
210.193
75.8257
143.793
55.0613
61.1493
138.032
131.762
147.648
59.0698
62.6659
95.6699
69.7184
175.817
186.151
193.739
202.94
583.204
784.658
667.359
1193.08
1004.94
1222.73
1073.5
460.809
300.745
403.85
485.549
422.711
519.236
316.947
232
108.764
155.702
233.585
190.707
269.125
127.586
180.87
78.579
85.6758
162.363
172.151
179
81.1718
353.406
147.674
99.4666
350.858
408.645
295.984
124.111
372.673
167.254
141.524
450.867
440.678
388.428
136.557
268.833
108.619
107.683
326.691
289.122
292.575
100.7
180.452
71.7065
79.3257
202.43
181.042
201.448
71.1098
144.674
60.2193
58.2317
154.272
151.51
148.965
56.3532
70.7132
85.9061
70.4901
203.588
214.011
199.564
215.066
444.39
564.241
440.066
939.461
937.328
940.518
919.824
290.237
337.838
285.201
887.472
735.945
810.791
639.225
186.78
238.933
194.172
587.884
534.525
596.884
543.73
167.833
173.899
167.106
515.846
499.93
518.746
472.61
161.418
158.093
144.657
470.964
432.23
441.446
396.202
123.054
127.606
113.199
372.488
312.191
349.777
305.384