/*--------------------------------*- C++ -*----------------------------------*\
  =========                 |
  \\      /  F ield         | OpenFOAM: The Open Source CFD Toolbox
   \\    /   O peration     | Website:  https://openfoam.org
    \\  /    A nd           | Version:  10
     \\/     M anipulation  |
\*---------------------------------------------------------------------------*/
FoamFile
{
    format      ascii;
    class       volScalarField;
    location    "9.3";
    object      nut;
}
// * * * * * * * * * * * * * * * * * * * * * * * * * * * * * * * * * * * * * //

dimensions      [0 2 -1 0 0 0 0];

internalField   nonuniform List<scalar> 
12920
(
0.470242
2.13741
1.82114
1.86623
1.272
1.23109
1.039
0.944287
0.797083
0.719604
0.644588
0.598296
0.553461
0.506683
0.442414
0.380047
0.33408
0.315416
0.309891
0.301734
1.15176
7.72039
5.12338
6.10977
3.22132
3.24521
1.98726
1.8458
1.4339
1.3553
1.16535
1.07325
0.948912
0.871711
0.805927
0.789585
0.790144
0.807684
0.829788
0.823083
3.07181
7.11383
5.62723
5.02829
3.24331
2.99745
2.13242
1.97753
1.60933
1.5501
1.35296
1.27479
1.14954
1.06886
0.969512
0.886815
0.827761
0.772229
0.749653
0.725873
0.850096
4.41978
3.44649
6.66052
3.50734
3.61068
1.98773
1.95429
1.44031
1.38216
1.17156
1.10821
0.995043
0.929989
0.850827
0.787403
0.72982
0.688234
0.666618
0.669252
0.223207
2.86522
3.81258
6.35472
3.1743
3.2694
1.9236
1.88207
1.37196
1.30427
1.08172
1.02185
0.912241
0.862452
0.803007
0.762434
0.717519
0.678819
0.657679
0.661954
10.0741
12.2509
6.20984
7.54807
3.03259
3.56104
2.0306
2.08367
1.54928
1.41609
1.17783
1.0853
0.971628
0.90482
0.838713
0.77664
0.71134
0.654872
0.628903
0.640622
11.175
8.67185
4.04886
6.08061
2.51533
3.54224
2.31527
2.50736
1.84163
1.61856
1.27804
1.12698
0.970064
0.880698
0.775266
0.696824
0.626958
0.582344
0.564495
0.582711
8.80601
14.2228
6.43382
6.47574
2.86189
3.29819
0.837617
0.832853
0.670889
0.564028
0.443383
0.362815
0.310567
0.275185
0.840425
0.676706
0.558628
0.495325
0.474062
0.491854
16.4447
17.3441
9.44953
7.12597
3.66794
1.33995
0.359313
0.203461
0.203454
0.186806
0.140752
0.112198
0.107304
0.0986641
0.2995
0.740254
0.593195
0.481987
0.416076
0.39998
5.63432
14.7174
7.69302
7.24701
3.37056
1.10609
0.285396
0.193377
0.190633
0.205363
0.196763
0.157341
0.0882467
0.0783312
0.255018
0.673021
0.582962
0.476816
0.385378
0.338087
19.1716
14.1526
9.75223
8.6177
4.34699
1.31197
0.252527
0.133982
0.18664
0.237334
0.240472
0.20208
0.0968089
0.067208
0.198808
0.580209
0.515511
0.434209
0.376689
0.344603
4.09482
9.03802
8.30325
9.77532
5.28365
1.46954
0.344007
0.130545
0.0774453
0.115252
0.160644
0.124021
0.0926954
0.0766093
0.244759
0.670076
0.57431
0.471831
0.42805
0.425181
0.463512
6.61264
6.16616
8.41312
5.22392
4.46229
1.1663
0.764221
0.472122
0.384079
0.385029
0.373101
0.2703
0.224472
0.685821
0.628989
0.58689
0.55268
0.532421
0.527984
1.44147
3.52265
3.13875
4.37147
2.95038
3.26096
2.53956
2.29286
1.73022
1.55513
1.25228
1.11162
0.935698
0.815529
0.669868
0.579125
0.543261
0.526979
0.507751
0.496702
2.28712
5.28919
4.89126
7.44129
3.52224
4.03494
2.4234
2.28686
1.68266
1.5351
1.28094
1.21344
1.12142
1.01478
0.820563
0.648342
0.549243
0.499654
0.484608
0.472443
0.311866
3.9292
4.73292
5.44846
3.63934
3.66454
2.49844
2.25651
1.69028
1.56595
1.30882
1.23354
1.07268
0.952155
0.783866
0.644462
0.54467
0.498514
0.481579
0.494662
1.14008
4.98925
5.31683
6.23749
3.34207
3.28509
2.05021
1.98589
1.53293
1.47623
1.24156
1.13524
0.944344
0.800022
0.668716
0.590425
0.534509
0.500161
0.483457
0.498439
1.0867
9.31689
6.4996
7.03617
2.97235
3.51164
1.84969
1.88847
1.37431
1.31885
1.07473
0.960732
0.800541
0.700025
0.605541
0.55249
0.516322
0.493518
0.476957
0.480451
3.98321
8.71405
4.88497
5.34732
2.73584
2.64112
1.57135
1.43065
1.08613
1.07138
0.910542
0.834913
0.708755
0.623292
0.543036
0.498221
0.474532
0.46715
0.465514
0.478017
3.75126
7.18246
0.853673
1.02705
0.95921
1.26665
1.13717
1.09168
0.721219
0.576236
0.470161
0.426209
0.377248
0.340488
0.307915
0.276653
0.253973
0.225219
0.213285
0.19584
1.21513
7.3438
8.45907
10.4256
7.46793
7.76438
5.85157
5.15986
4.34736
4.24187
4.05543
3.9706
3.70734
3.32635
2.79878
2.32256
2.02845
1.91641
1.87148
1.79832
15.9979
32.9864
29.909
30.7132
23.8895
25.1935
22.4669
21.4321
19.8952
19.5999
18.789
18.3716
17.664
17.2279
16.8025
16.8155
16.9402
17.1487
17.2424
16.9481
22.9288
44.5883
41.4426
37.5313
28.1857
27.3557
25.2958
24.8674
23.2828
22.4821
21.1476
20.3128
19.2502
18.5654
17.8924
17.5692
17.4103
17.2592
17.1432
16.7297
24.8359
27.5325
23.2685
28.8153
26.306
26.3601
23.7527
23.1121
21.7025
20.9307
19.6858
18.9273
18.0455
17.5604
17.1201
16.8126
16.5369
16.3337
16.2264
16.042
7.04677
22.0433
25.3546
28.9731
27.7799
26.408
22.9498
22.2333
20.3789
19.6479
18.0932
17.6624
16.8406
16.754
16.3808
16.2459
15.9813
15.6474
15.5465
15.4956
42.6125
29.709
27.8366
31.1864
23.202
23.3764
21.5923
21.9371
20.5062
19.5143
18.268
17.6658
17.0476
16.6989
16.2658
15.8364
15.1639
14.6657
14.6329
14.9451
17.3917
12.2893
22.5632
22.8891
22.5977
23.5131
24.5627
22.7697
21.3576
19.0427
17.9404
16.9399
16.3422
15.7848
15.1028
14.4402
13.7854
13.5834
13.7693
14.075
13.9206
18.8285
21.8322
26.1781
24.6535
26.549
20.6052
21.3865
19.6037
18.2188
16.4393
15.0882
14.2002
13.3052
14.2159
12.6975
11.7896
11.7539
12.2256
12.6697
48.2332
38.6492
34.0039
27.8265
26.4338
22.2088
19.1043
19.4112
19.2829
18.3667
16.0787
14.6987
14.1043
13.0548
12.857
12.8041
11.0267
10.0254
10.1384
10.76
32.0156
59.3067
45.425
35.7969
25.886
22.4793
19.9518
20.6301
21.0524
21.5065
19.3547
13.4801
10.2883
11.0992
11.5009
11.8833
11.0294
9.30365
8.76732
9.34343
60.7055
56.1884
51.3529
39.9762
26.1531
18.2733
13.0848
15.3066
20.1477
23.1653
19.9574
14.7508
9.52395
8.89464
8.99761
10.6853
10.2254
9.1841
9.0566
9.58295
9.00491
33.8283
41.9698
43.1241
37.1466
25.7316
15.9776
9.26115
10.7264
17.8982
18.5031
13.8189
11.7216
11.6851
11.9373
12.7382
11.6576
10.8521
10.9237
11.2134
3.81874
16.7644
30.5083
37.6116
39.2245
35.7843
25.5611
20.2356
16.4599
16.8672
15.9349
14.2935
12.9145
12.1488
13.6914
13.3662
13.1312
13.0714
12.9753
12.6725
10.8602
17.8235
24.0916
30.4917
31.7557
30.9548
28.7718
25.2316
22.1271
19.4475
18.0878
16.9695
15.8562
14.7334
13.661
13.0862
13.0037
13.0626
12.8074
12.0821
12.1572
22.6503
32.4152
33.0246
30.4074
29.5347
25.3733
24.2208
21.8149
20.8775
19.5574
18.678
17.6119
16.329
14.3178
12.4983
12.3039
12.6834
12.7466
12.4259
8.64631
36.399
44.4875
41.2467
36.6125
32.8764
27.4059
24.8204
21.5965
21.148
19.9447
18.9377
17.3783
16.2603
14.5402
13.1081
12.1849
12.3793
12.8182
13.0915
7.1489
21.7236
47.545
42.5543
35.1676
30.3418
25.4411
23.7366
21.2147
20.7251
19.0748
17.9413
16.1553
14.907
13.6314
13.1536
12.9593
12.8919
12.9476
13.2145
7.48371
42.5629
45.98
35.038
31.2184
27.1135
24.2289
22.7252
19.9913
18.9563
16.8299
15.6898
14.3355
13.8211
13.236
13.156
13.1036
13.171
13.1772
13.2184
4.40855
35.4035
34.7304
32.3692
27.9145
24.4224
20.5215
19.3102
16.8334
16.5641
15.3358
14.8669
13.9645
13.4276
12.7626
12.5232
12.4429
12.6196
12.8032
13.1335
10.4723
15.5125
8.9397
6.2288
3.82403
4.52432
5.11991
5.49594
3.68551
3.18045
2.73382
2.64993
2.44118
2.31837
2.15861
1.97263
1.82958
1.66697
1.59087
1.47792
0.341765
7.6946
9.3838
12.1652
8.26581
9.02091
7.0545
6.44099
5.67054
5.51449
5.05216
4.62002
4.03579
3.45727
2.97898
2.62708
2.43712
2.22676
2.10292
1.88521
44.8745
51.0838
46.5434
44.6651
36.7806
34.4642
29.3074
27.8654
25.8587
25.5551
24.844
24.4078
23.7919
23.582
23.3698
23.4083
23.3011
23.3135
22.9937
21.6418
70.1243
54.1434
54.0152
52.3204
44.8265
42.6728
38.5473
36.3874
33.7269
32.103
30.1818
28.8043
27.4659
26.5737
25.9373
25.6695
25.418
25.1645
24.8304
24.3155
20.8004
54.7515
51.7151
51.0997
45.7832
42.9624
38.8001
36.4448
33.921
32.1609
30.2044
28.8474
27.6152
26.8384
26.1724
25.6798
25.2784
24.9737
24.7417
24.4736
14.7954
50.838
50.2341
50.6509
47.0877
42.5188
38.1534
35.5784
32.8019
30.9437
28.8852
27.7541
26.6211
26.0508
25.4565
25.0455
24.6456
24.3089
24.1942
23.9447
56.2473
51.2161
51.7009
50.1709
42.7331
39.8998
37.4383
35.3049
32.4969
30.422
28.5024
27.3052
26.2231
25.487
24.7583
24.1285
23.5581
23.2169
23.2428
23.1936
55.2259
39.149
50.925
44.5147
43.4324
40.7175
39.2402
35.5716
32.2378
29.3283
27.3604
25.9834
24.81
23.8873
22.9162
22.2068
21.7674
21.6628
21.8125
21.8215
24.8538
26.5894
39.2211
45.5032
44.2761
43.6473
38.7811
35.8266
31.8166
28.335
25.7784
23.7974
22.5231
21.0463
19.8067
18.9507
18.6688
18.8699
19.2506
19.5003
59.9202
54.4302
54.6765
46.4715
45.7288
41.2689
38.6306
34.918
31.7541
28.6385
25.185
22.6711
21.2278
19.7484
18.1735
16.8472
16.0329
15.7994
16.0379
16.4901
71.4192
72.3892
64.0753
53.3137
45.5256
41.5668
38.7623
36.4637
34.6277
32.3879
24.9392
16.1884
15.0636
16.2515
15.8901
15.3989
14.7874
14.0312
13.8504
14.2937
68.6946
69.8127
66.2461
56.4835
44.4873
36.3208
31.7715
32.85
34.9319
35.339
7.63915
8.33417
10.5068
10.5874
11.8643
13.96
13.8716
13.8149
13.9853
14.3363
29.3912
50.0986
56.6764
59.5903
52.3089
42.3684
33.0141
26.5846
29.194
31.9171
28.4177
22.6773
19.4197
17.2934
16.2335
16.613
16.351
16.2731
16.3477
16.3929
8.83112
36.1508
46.5765
55.0883
56.1045
51.7481
43.3844
35.8477
32.1758
29.7404
26.3568
22.8271
20.2054
18.6924
19.0512
19.1906
19.2502
19.1724
18.9178
18.2821
43.7209
48.2079
55.8412
55.3366
53.3262
49.3234
44.6057
39.7172
34.9843
31.0562
27.7186
25.3513
23.2654
21.7648
20.6515
20.1019
19.8696
19.6105
19.0083
18.0844
9.2874
45.9992
60.8041
56.9052
51.6629
47.2651
42.4475
39.6114
35.7603
32.7776
29.7821
27.4409
25.2746
23.3542
21.5386
20.3755
20.0526
19.8416
19.5283
18.8872
17.2648
49.2241
56.7166
57.8555
53.7795
48.6317
42.6069
39.2496
35.783
33.336
30.3692
27.8974
25.5758
23.9095
22.3395
21.3479
20.7129
20.6125
20.5068
20.3323
11.9856
42.3264
61.5577
59.6974
51.9608
45.1477
39.9755
37.489
34.631
32.3764
29.4418
27.1079
24.9192
23.5291
22.4414
21.9647
21.5798
21.348
21.2101
21.0869
20.3285
50.7835
57.2036
49.2847
44.5237
39.9785
37.407
35.1454
32.2418
30.0968
27.3578
25.5166
23.8385
22.9319
22.1689
21.8419
21.5416
21.3257
21.1955
20.9151
36.9736
42.9221
42.3593
41.2395
35.8882
28.0541
29.1664
29.0587
27.244
26.4236
24.6983
23.6063
22.2845
21.4628
20.6273
20.181
19.8248
19.6038
19.4728
19.0869
15.1128
20.8928
10.6182
8.72326
5.31856
4.82662
4.84183
5.79185
4.59525
4.32159
3.7415
3.56159
3.20981
2.97831
2.73298
2.4981
2.33091
2.12913
2.0251
1.86018
4.5405
13.6299
9.46951
8.3651
7.75317
8.41096
7.11191
6.7514
6.04128
5.5399
4.78702
4.09215
3.50725
3.11949
2.83011
2.59319
2.40147
2.18566
2.08556
1.98914
35.9153
49.8302
52.856
46.9406
37.485
33.9038
28.8117
28.2278
26.6541
26.5437
25.8675
23.6773
23.3419
22.6935
22.6973
22.4899
22.1959
21.903
21.2439
20.8598
77.6744
72.1243
66.2598
61.3844
53.8129
48.6613
42.5585
39.6023
36.5279
34.5602
32.5983
31.0225
29.7762
28.8408
28.2347
27.7877
27.3643
27.0274
26.6317
26.3012
58.3528
73.2043
70.1234
64.3753
56.6992
50.4962
44.8351
41.4982
38.2742
35.9363
33.662
31.916
30.5167
29.4659
28.6595
28.0294
27.5674
27.2244
26.9926
26.6714
63.597
69.7252
69.1692
63.8251
57.0006
50.152
44.7189
40.8491
37.6752
35.124
32.877
31.2583
29.9499
28.9822
28.2358
27.6188
27.1733
26.8135
26.5824
26.2608
58.667
68.3835
69.6327
62.3129
54.9756
48.8054
44.9918
40.4918
37.1329
34.4494
32.2292
30.6246
29.311
28.2732
27.4299
26.7523
26.2825
25.9326
25.7741
25.435
52.8194
65.2894
67.5769
58.2057
55.2824
49.5806
45.2469
40.3183
35.6785
32.782
30.341
28.6818
27.2244
26.1007
25.2178
24.6684
24.3409
24.1324
24.0311
23.8406
56.7479
53.4093
58.8781
58.1089
56.0654
52.6923
47.3323
41.3852
35.4013
30.8528
28.2592
25.8136
24.2888
22.4764
20.1965
20.625
20.8816
21.0358
21.1321
21.1586
46.9555
66.5042
66.7203
58.3202
55.592
51.5221
48.1915
40.695
35.0828
29.787
25.9416
23.0809
21.2473
19.5446
17.2283
16.9134
17.4733
17.7046
17.7898
17.8817
71.7154
78.1104
73.7063
63.439
57.1863
52.5352
48.6752
42.9638
37.8499
32.5703
24.6446
17.8927
16.6413
16.4395
15.3387
15.6141
15.9109
15.8168
15.6641
15.6911
92.3473
80.1544
76.1182
65.5781
55.9056
49.3388
45.9713
43.6051
40.7758
36.323
15.4922
10.76
11.7627
12.2452
13.1261
15.1148
15.7725
16.0183
15.9714
15.8127
19.2688
62.912
68.0563
69.9461
61.794
53.2102
46.4685
41.5727
39.9231
36.4764
30.1082
23.8131
18.7683
15.9919
15.3058
17.401
18.2844
18.4478
18.4368
17.8857
35.8489
56.0016
62.8773
67.9165
65.2694
60.0889
52.1961
44.7835
39.8814
34.0987
28.5217
23.336
20.073
18.572
19.411
20.489
20.9819
20.9307
20.6375
19.5951
60.5869
63.4598
65.1981
66.9774
64.5746
58.951
51.9364
46.331
39.9308
34.9343
30.0956
27.2704
24.8462
23.429
22.5049
22.074
21.71
21.2205
20.7656
19.7291
38.7547
63.3287
71.2709
69.0182
63.6702
56.857
50.9128
46.5899
41.3977
36.8058
32.8292
29.7613
27.3326
25.4577
24.0521
23.0678
22.3145
21.6925
21.1555
20.4287
30.8796
64.4558
67.8824
69.5161
63.7931
57.0851
50.8937
46.4541
41.9456
37.5929
33.6728
30.489
28.1621
26.4307
25.1776
24.321
23.6287
23.1146
22.6399
22.2156
16.5903
58.1624
70.716
69.1686
60.6677
52.984
47.7947
44.3838
40.5077
36.6898
33.1046
30.1993
28.136
26.6588
25.6808
25.011
24.4534
24.0408
23.7204
23.3533
50.32
57.5084
61.9066
56.7941
51.0665
46.7383
43.9264
40.7817
37.6691
34.5783
31.5999
29.2797
27.5641
26.3062
25.4223
24.7615
24.2344
23.778
23.4473
23.032
53.5126
49.6432
47.5227
45.1781
38.1474
35.7708
34.4836
34.1373
32.1141
30.4503
28.2794
26.6371
25.1844
24.1363
23.2078
22.4475
21.8111
21.141
20.5935
20.0943
11.7922
25.5048
10.7771
7.81401
6.6891
4.94932
5.55201
6.24809
5.27215
5.04826
4.3246
3.9999
3.54609
3.2477
2.95582
2.69124
2.49047
2.24553
2.12324
1.94417
2.1498
8.39355
3.53278
4.0258
3.12673
3.17439
2.67389
2.52837
2.0729
1.78212
1.46955
1.32401
1.18433
1.12132
1.04756
0.993614
0.92973
0.891024
0.856984
0.871164
62.5897
60.8063
23.9692
32.3368
13.959
13.9421
10.413
10.6915
9.49956
9.46263
8.90779
8.6881
8.40112
8.20987
8.07665
7.90944
7.69852
7.54079
7.28135
7.52931
87.5903
77.976
42.6658
51.6136
23.1293
21.0162
15.2831
14.496
12.4713
11.7994
10.6636
9.97364
9.41932
9.01786
8.77246
8.55312
8.3883
8.26487
8.14087
8.43891
51.077
82.3263
54.1435
69.9141
26.7197
28.0201
16.0703
15.936
12.4367
11.8019
10.3218
9.64434
9.005
8.60313
8.34085
8.15008
8.02128
7.95698
7.88683
8.20628
71.6018
76.4329
42.6558
55.3171
23.3218
24.3166
15.0536
14.8268
11.7646
11.3344
9.92255
9.42664
8.78169
8.45688
8.16827
7.98075
7.83136
7.75468
7.66854
7.97261
32.6599
76.9349
49.0064
66.6423
25.6159
34.6716
16.4246
16.3487
12.1544
11.098
9.82681
9.17774
8.62171
8.20185
7.9183
7.6978
7.53903
7.44784
7.35714
7.63976
37.0033
54.0901
49.6573
61.9719
25.6906
34.7744
17.5825
17.6584
12.0078
11.0329
9.32037
8.74939
8.03213
7.65066
7.27325
7.10023
6.958
6.89173
6.83082
7.13782
87.8793
56.7983
44.9275
64.1138
27.4279
31.0738
46.1973
39.7808
32.5282
28.3289
25.3431
23.0041
21.427
20.0198
6.48964
6.25667
6.13351
6.11953
6.10681
6.44219
17.4056
55.1526
56.1447
61.0059
30.374
51.2606
46.5862
37.6385
30.6107
24.9043
21.4537
19.1016
17.7309
16.5969
15.4732
5.69495
5.48605
5.40309
5.40347
5.76652
36.0885
83.2607
53.6523
66.8972
29.4772
53.4893
48.2421
39.5122
32.5385
25.7756
19.7599
15.6367
14.7614
14.9327
14.594
5.56244
5.15404
5.03626
5.02571
5.37844
35.7624
84.9855
73.4607
67.6573
31.9671
53.0865
49.2346
42.8284
37.0102
29.4504
20.4668
14.5048
12.6526
13.5114
14.0744
5.72159
5.34319
5.16265
5.09506
5.39864
32.6133
72.1776
59.376
69.5773
32.0474
53.1545
50.3435
43.73
38.4752
31.1832
23.0346
17.2571
15.1587
14.9341
15.3447
6.43962
6.2245
5.90957
5.64861
5.76705
94.6058
73.9972
70.4628
77.9431
38.5249
36.0185
52.7632
45.683
38.0261
30.3279
23.7157
19.4681
17.865
17.3302
6.88885
6.84066
6.70701
6.49986
6.18001
6.14525
39.4449
69.8588
66.3641
57.7696
30.7589
27.9348
20.5072
18.1959
13.7225
11.3591
9.05765
8.02302
7.21926
6.85287
6.59692
6.50107
6.35757
6.19689
6.01199
6.14872
61.1542
76.4286
77.0215
76.5663
32.0519
34.7714
18.8559
18.4799
13.6506
11.8764
9.86838
8.82392
7.88201
7.29988
6.89561
6.60953
6.4162
6.29492
6.19472
6.48112
12.1697
34.6907
42.4913
42.4844
28.6413
26.8191
18.3745
17.492
13.5672
12.2255
10.1818
9.17313
8.28768
7.76137
7.35267
7.11575
6.92934
6.85429
6.78591
7.13149
7.37739
35.7356
42.3164
42.6367
25.2938
24.8241
16.7722
17.0259
13.0099
12.0011
10.0739
9.21567
8.44473
8.01351
7.7017
7.50325
7.35236
7.29025
7.22632
7.57703
50.581
61.9161
39.6757
58.1201
20.93
27.7491
14.9895
16.2736
12.0686
11.6982
9.84476
9.2498
8.51605
8.15561
7.83623
7.62166
7.467
7.38056
7.30013
7.6421
26.846
47.3381
26.3581
30.6698
14.872
17.3156
11.6868
12.6787
10.2431
10.1373
8.84425
8.46502
7.89368
7.60647
7.3214
7.06025
6.8645
6.71287
6.55059
6.80723
12.0393
11.8984
4.73768
8.52164
3.43815
4.40027
2.52272
2.91802
2.13637
2.07464
1.65191
1.51278
1.29958
1.18351
1.05593
0.956298
0.8692
0.798471
0.753306
0.72323
27.6399
34.237
10.407
33.4099
27.6403
35.6536
11.5026
17.6299
8.7249
7.72553
24.867
18.4921
9.65661
7.27058
9.20972
32.9311
30.4616
37.3425
10.9603
36.8843
32.3585
7.27998
28.963
23.9956
8.86122
6.91121
30.5741
25.5058
0.207417
0.30827
0.193215
11.1792
13.7721
14.2399
15.2507
0.20987
0.187446
0.178987
14.4994
15.1613
15.3762
15.5221
0.190748
0.180331
0.191311
15.0436
14.7089
15.7186
16.1221
0.155716
0.191534
0.176236
14.5527
12.9594
15.9879
15.135
0.117657
0.172175
0.1493
12.6241
11.8284
14.6637
12.0346
0.10902
0.133842
0.0943192
11.6585
11.3646
10.9486
8.9636
0.102663
0.0886722
0.0859495
11.2565
10.5638
9.07819
9.60001
0.0720187
0.0857745
0.0674849
10.3359
10.2199
9.59706
9.89366
0.19645
0.263884
0.157425
13.2049
15.3796
9.8833
12.2625
0.188911
0.158614
0.190693
15.6266
16.0414
13.1712
15.7843
0.204571
0.201991
0.234675
16.2778
16.8699
16.559
18.2871
0.199109
0.239735
0.243298
16.8652
16.2508
18.5419
17.7597
0.175703
0.239424
0.219266
15.6693
12.5406
16.8721
13.8223
0.0993026
0.20316
0.114382
11.1791
8.18232
12.3417
7.71417
0.0786955
0.0950853
0.0697338
8.05556
8.7112
7.15647
7.01905
0.0655548
0.0655534
0.0452404
8.83734
9.47638
6.93095
6.96709
0.135391
0.296307
0.136862
7.51242
9.8816
7.06521
5.6999
0.170133
0.112573
0.0811479
10.9437
14.4648
5.2546
6.42882
0.229217
0.0801139
0.128529
15.5688
17.9764
7.63543
13.5799
0.243698
0.154344
0.188149
18.3649
17.8929
14.9907
16.1499
0.218189
0.188083
0.164479
17.1072
14.2495
15.8435
12.9759
0.116287
0.153781
0.106284
12.7478
7.93275
11.7799
8.601
0.0707584
0.0937755
0.0770224
7.37706
7.32687
8.43548
8.81859
0.0465767
0.0767765
0.0620285
7.21351
7.03273
8.95877
9.26029
0.164044
0.441937
0.262929
9.32104
7.1932
11.0662
11.337
0.0814002
0.228638
0.162264
6.16026
6.09607
10.8024
9.25075
0.0903494
0.141749
0.0925399
6.76659
11.9073
8.92263
10.2468
0.160299
0.0867712
0.103442
13.5134
15.0037
10.9442
12.1021
0.135336
0.110318
0.120684
14.7089
11.8648
12.0419
11.0261
0.100704
0.118408
0.0998887
10.7711
9.12673
10.7271
9.45905
0.0774069
0.0895558
0.0742971
8.89109
9.00697
9.18635
8.79436
0.0608619
0.0690822
0.0516702
9.12812
9.32304
8.78188
9.17138
19.0057
21.0087
20.3818
33.5755
32.4058
34.9545
33.4308
19.5749
20.3632
20.2597
31.8683
30.1269
32.9331
31.6342
18.6965
20.4077
20.6581
29.4413
27.6392
31.339
30.1925
16.5438
20.4539
19.1572
26.9356
24.4534
29.5708
26.6053
14.953
18.409
14.8803
23.7069
21.822
25.0193
19.8153
14.2848
13.6314
11.5553
21.381
20.4644
18.4746
16.869
13.3398
11.6814
12.1409
20.1166
19.0818
16.9205
17.1187
12.2254
12.1261
11.7306
18.7194
17.8212
17.0615
16.6595
20.518
16.2338
17.0278
34.4084
33.6244
30.266
30.6568
20.8353
17.8603
20.4877
33.2548
32.3263
31.052
32.4008
21.5734
21.321
23.174
32.1349
31.268
32.8267
33.1546
20.3145
23.414
21.1983
30.7385
26.8943
32.618
17.1026
15.0213
19.557
15.5106
24.6599
17.7061
14.2671
11.1057
10.3193
14.0445
9.48677
16.169
14.1562
10.967
10.0048
10.9638
9.01733
8.56947
14.327
15.2439
9.72408
9.66113
11.2483
8.44172
8.06691
15.4428
15.8894
9.83926
10.581
14.2513
12.5127
8.86934
26.6931
28.0781
24.7925
21.5507
18.9655
8.28618
10.1419
28.7706
31.144
21.3643
24.2157
22.7552
11.8407
18.0656
31.8915
32.9812
25.8679
29.7331
21.4033
19.4455
20.3781
32.868
16.9715
30.3383
28.8062
16.2452
19.731
16.1962
14.3626
11.8101
27.4789
22.6337
9.96587
14.6766
11.4709
11.9594
11.5492
21.0358
18.2244
9.0975
11.2718
11.4129
11.3319
10.712
17.741
16.4684
8.10183
11.4235
10.8704
10.5593
10.4065
16.0102
14.9002
10.5895
20.4967
16.8614
28.3939
22.704
35.347
30.5317
9.67879
15.7973
13.4524
21.8012
23.5323
28.7696
26.188
16.3872
13.1165
14.6278
24.8273
28.4987
25.9826
26.5621
19.122
15.2328
15.921
29.1278
27.8912
26.5863
24.9998
15.078
15.5948
14.2131
26.6612
22.2802
24.2069
21.774
11.9757
13.7739
12.3463
21.0403
18.69
21.0396
18.9298
11.6627
12.0006
11.5421
18.1844
16.9689
18.4129
17.2948
11.082
11.4585
11.2448
16.5919
15.4562
17.033
16.5982
35.7711
39.4261
36.7718
43.5494
41.7745
47.2316
43.0371
32.6091
36.1001
34.2954
40.2146
36.4553
41.7497
38.2409
29.4733
33.7975
32.0248
35.1441
31.4287
37.1197
33.5698
25.9907
31.2349
27.7444
30.303
27.3795
32.3407
28.0534
23.1557
25.9606
20.5567
26.4812
24.235
26.2678
21.4696
21.6208
19.2687
17.8875
23.6645
22.3463
20.4719
19.1256
20.1324
17.9149
17.9995
21.8752
20.6155
18.9208
18.3629
18.7118
17.9168
17.3669
20.1941
19.166
18.165
17.3886
37.0049
35.0387
34.6021
47.1173
43.4889
44.9569
43.1986
35.0264
34.7907
35.4587
42.3383
39.1116
42.6507
40.8816
33.1039
35.6221
35.0011
38.0481
34.6293
40.1827
37.3315
32.3436
31.3859
33.3408
33.3729
31.821
32.1418
34.2616
15.93
22.0101
20.6936
24.8849
17.2105
21.8784
19.4306
14.803
7.92955
8.56274
17.3535
16.5592
6.98901
8.74724
16.0583
8.67061
9.53902
16.6513
16.8919
9.49171
11.2369
16.6053
9.95667
11.0359
16.9031
16.8081
11.7213
12.7604
32.3743
29.9461
26.3918
43.2909
42.2541
41.7327
39.1843
34.4706
26.3083
28.8218
41.9417
40.8583
38.871
38.9223
35.001
30.1131
32.764
40.3492
37.8127
38.9358
37.7584
28.9152
21.5621
34.4041
31.0312
31.2548
4.18141
35.7967
18.3281
6.95008
21.5557
1.81362
20.1168
1.70436
19.4201
10.3467
22.4765
19.5878
7.49006
10.1564
24.0573
20.4344
10.5571
18.9517
17.1939
10.7334
11.6095
19.3704
16.7827
10.8237
16.629
15.384
11.8161
12.4289
16.166
15.1624
27.2647
40.0326
34.366
43.5238
39.5003
47.5756
43.2809
28.171
32.6694
30.2028
38.8746
38.4881
41.7569
39.0093
31.7327
29.8747
29.7861
38.4429
37.2763
38.212
35.8118
29.7878
29.5151
27.2422
36.3867
32.2098
34.7338
30.744
23.915
26.2878
23.5079
30.5599
25.8105
29.3913
25.4268
20.0656
22.6442
20.2708
24.4341
20.7855
24.2069
21.0387
17.7667
19.6502
18.303
19.7487
17.3403
20.199
18.4154
16.012
17.9797
17.4488
16.7985
15.6856
18.0595
17.5339
42.4131
48.8094
43.7826
48.6922
41.183
49.6353
42.4849
36.5434
42.2728
38.1934
39.112
34.031
40.4464
35.0409
30.9511
36.8851
32.8532
32.1912
27.3922
33.3225
28.3781
26.8443
31.5233
27.2441
26.1756
23.4159
26.8572
22.7525
23.6535
25.5821
21.2426
22.5185
20.3998
21.4592
18.3054
21.7262
20.3155
18.758
19.8913
18.7598
17.5614
16.2049
19.9577
18.4524
17.7068
18.3308
17.338
15.9999
15.6137
18.6426
17.4889
16.8101
17.0128
16.2293
15.4662
14.8129
44.3403
47.2835
44.7602
49.9099
43.3218
50.0967
45.3819
39.1136
43.9308
41.3333
41.3681
36.0662
43.8392
39.3368
33.9075
40.3645
36.9091
34.3433
29.3588
37.7752
32.6008
27.0634
35.1828
18.0495
27.735
23.0329
30.7384
23.1683
18.9186
15.2256
10.4875
21.4127
17.5354
20.653
15.3525
16.7411
9.94588
10.3951
16.6812
15.219
14.3619
12.6049
16.4908
10.8343
11.9309
15.0731
15.0237
12.4564
13.02
16.2994
12.2734
13.0505
14.9971
14.616
13.2158
13.4581
44.2164
45.1964
42.1153
50.0567
45.7082
50.2899
45.8645
41.5897
41.5932
40.6679
44.3264
40.1764
44.6516
41.2025
37.5456
40.2781
37.9878
38.6873
33.5413
39.8902
35.06
18.4637
36.809
31.8931
31.671
24.0242
33.1307
27.1788
10.9119
30.0784
25.0001
21.5245
16.2218
25.2827
20.3227
11.5308
23.5369
19.6061
15.1598
12.9955
18.889
15.6896
12.1187
18.4603
15.9441
12.7312
12.9752
15.1374
14.5199
12.7333
15.4269
14.7274
13.1167
13.3154
14.4439
14.2352
42.3357
50.8719
45.1587
51.1332
45.9992
53.7851
47.3229
40.3368
43.6447
40.6195
44.691
41.1632
45.6679
41.4711
37.6599
39.6164
36.443
39.8616
35.0355
39.8198
34.4908
31.8076
35.1283
30.6765
33.126
27.1752
32.6173
27.0241
25.2492
29.1956
24.8325
25.2865
20.3051
25.2396
20.6623
19.8465
23.5372
20.2792
18.9181
16.0261
19.5247
17.3424
16.4468
19.4344
17.6961
15.5472
14.9408
16.8613
16.1788
15.1948
17.3775
17.0521
14.8508
14.5562
16.0596
16.0356
39.7317
47.8409
40.6217
11.5284
9.13795
11.1797
10.0187
32.4277
38.6206
33.2475
8.62077
7.47538
9.66563
8.75203
26.0603
31.5462
26.5937
7.62828
6.94385
8.52898
6.19768
22.3091
25.0392
20.9978
6.90842
6.69344
5.73637
5.10851
19.5626
19.8326
17.0989
6.95504
6.70659
5.0349
5.13865
18.1129
16.5121
15.6703
6.81708
6.72677
5.44272
7.51019
16.8929
15.5922
15.4081
6.94316
6.76094
7.49148
7.38627
15.9606
15.2779
14.7116
6.88093
6.63651
7.37398
7.54813
41.4556
48.9918
43.7583
11.269
10.264
11.8916
11.0747
34.253
42.1863
37.6114
9.9551
9.09771
10.845
9.50861
27.4587
36.0324
30.5389
8.31216
5.88796
8.37973
5.99074
21.1808
28.5295
21.9016
5.39691
4.63287
5.41343
4.18746
16.3696
19.6955
14.8918
4.50402
4.48799
3.91209
3.50917
14.7534
13.9007
12.4729
4.77561
7.00406
3.71275
5.99829
14.9422
12.4934
13.4023
7.65122
7.49752
7.24494
7.70781
14.5601
13.5956
13.7589
7.46767
7.49597
7.64334
7.67158
44.2814
49.9242
44.9485
12.6405
11.3497
13.2665
11.9011
38.5388
43.6513
39.8818
11.1128
9.77355
11.6045
10.6591
31.4992
38.4445
33.2008
8.63982
6.20337
9.72062
6.95102
22.6548
31.0838
24.8327
5.59405
4.26501
6.27726
5.0355
15.5956
22.9403
18.2215
3.96824
3.53111
4.79717
4.55114
12.7095
17.0103
14.8812
3.73557
6.03667
4.8333
7.15302
13.3517
14.6772
14.5926
7.28816
7.75123
7.91235
7.67824
13.6487
14.5785
14.4241
7.66997
7.59936
7.62921
7.7086
45.087
52.5139
46.4759
12.5966
11.8854
12.8715
11.5563
39.9047
44.7981
40.2715
11.5462
10.5137
10.8576
9.31002
33.2396
38.4804
32.8907
10.2181
7.32331
9.19751
8.13737
24.9169
30.9518
25.28
6.65247
5.55574
7.79243
7.30754
18.3819
23.563
19.4701
5.36563
5.21777
7.40148
7.123
15.367
18.5097
16.8814
5.5225
7.851
7.12971
7.04325
14.9762
16.5307
16.1143
7.7688
7.60162
7.16471
6.9816
14.7206
16.0228
16.0818
7.55386
7.6584
7.05156
6.95099
28.6205
29.7473
24.7904
27.8722
29.0601
30.2703
23.6113
28.0995
33.7811
22.4456
31.0259
30.4817
34.4541
5.57111
16.9202
16.8994
14.2873
1.97782
23.1329
12.0054
2.77214
32.4524
33.7017
31.976
34.3781
32.3239
34.5917
32.302
28.5442
27.8483
29.9987
24.5619
30.3355
23.5201
29.0345
27.5319
30.9785
34.9266
23.4442
34.7922
5.50901
30.812
16.7606
2.5721
17.2661
14.7038
11.9765
3.43277
22.9809
13.4429
19.5218
13.0563
17.5974
14.7166
19.417
11.8805
7.18484
12.9716
7.62374
1.5674
10.4699
9.17465
1.36902
5.98657
8.47881
7.24912
4.16333
9.16774
5.83824
2.43937
16.0988
24.8565
22.2488
20.744
21.9803
19.4429
17.6313
13.709
17.9232
20.1388
13.6788
19.6594
12.1657
15.3402
7.45898
2.06932
13.8178
8.37786
9.32388
1.83608
11.4887
6.16278
3.89303
8.78822
7.58916
5.96252
2.23549
9.77933
23.4867
12.7741
23.3474
2.12525
26.4448
2.77335
20.948
34.2879
33.9498
32.5936
34.9208
33.0482
35.719
34.2377
32.1808
29.6261
31.723
31.6062
31.4419
30.1345
33.0747
29.6592
31.069
22.6171
37.0185
4.4741
36.6879
32.9774
23.8814
2.66897
14.4284
24.4274
3.45216
21.264
27.6706
35.1244
36.2525
37.2415
35.6443
36.8378
35.266
35.5117
32.7855
32.2464
30.8711
34.0898
30.5492
33.8749
33.1974
17.86
6.44167
17.9517
3.51216
18.9795
2.13901
16.5455
26.4315
27.8403
27.3353
29.9776
26.1015
28.1902
28.2777
24.8143
22.7674
25.664
24.9543
24.445
23.1461
26.591
18.3049
2.25133
7.58014
22.1336
2.0956
19.5444
20.2687
17.7668
3.61437
6.66914
17.6335
2.70303
16.4204
18.8737
26.6973
30.5259
28.7726
28.8044
28.4949
28.7826
26.8915
25.056
25.4745
23.5666
27.1066
23.4171
27.0902
25.173
0.756612
0.834281
0.774047
6.28075
9.58325
6.47399
9.14753
0.743813
0.810048
0.740689
11.392
10.0887
10.8939
11.2394
0.615448
0.625628
0.62217
10.2074
10.7641
11.0307
11.1955
0.511243
0.616549
0.543178
10.4661
9.77548
10.7476
9.9641
0.400207
0.455203
0.4185
9.31502
9.07609
9.30564
8.95029
0.338763
0.39105
0.370584
8.62265
8.25566
8.64224
8.50654
0.292024
0.341617
0.318894
7.85791
7.85905
8.17223
8.0547
0.219261
0.302304
0.239283
7.26971
8.80753
7.45576
9.28055
0.885377
1.57094
0.998103
7.92374
8.53195
8.77404
11.7246
2.6898
0.300465
0.325852
2.35346
2.70881
2.32546
0.239535
4.71597
0.208411
0.173018
4.43528
4.83963
4.36002
0.174354
5.06921
0.199539
0.17528
5.18657
5.14231
5.03556
0.179226
4.94728
0.182044
0.181886
5.26917
5.11361
5.10795
0.179546
4.04842
0.130519
0.139011
4.48949
4.32851
4.1167
0.13256
3.66491
0.110933
0.114071
4.3073
4.23415
3.77939
0.10895
3.68488
0.106921
0.101068
4.13854
4.04339
3.66589
0.101651
3.53818
0.0966649
0.0982337
3.69715
3.60324
3.57162
0.0962659
0.234972
0.294039
0.226702
7.42327
8.57122
7.44577
9.06726
0.82937
1.06392
0.754328
7.51401
9.78871
6.88066
7.79593
2.87805
0.225829
0.2792
2.42975
3.13279
2.34458
0.219346
5.27097
0.190441
0.194738
5.02543
5.21808
4.99573
0.195985
5.72406
0.197234
0.202941
5.43853
5.5014
5.6419
0.209105
5.9059
0.204051
0.220397
5.58648
5.56962
5.87086
0.221748
5.73673
0.193162
0.217866
5.45807
5.35456
5.83106
0.214505
4.0984
0.136065
0.179331
4.36763
3.83964
4.714
0.153802
2.62533
0.0823811
0.0919184
2.76346
2.82832
2.63465
0.0823522
2.89686
0.0785301
0.0711026
3.12148
3.15147
2.82706
0.0707822
0.207599
0.206703
0.159829
6.99848
8.78782
6.03314
8.0324
0.764625
1.32557
0.830203
6.93503
6.26991
7.08326
6.38843
1.8144
0.190777
0.252073
1.82345
1.95631
1.82868
0.187606
2.52519
0.139006
0.112276
3.20102
3.88903
2.17045
0.110466
5.22985
0.203567
0.151658
5.42151
5.77862
4.62677
0.175829
6.31331
0.243595
0.223855
6.3246
6.41328
6.17703
0.231634
6.11997
0.235839
0.229498
6.34993
6.21127
6.25908
0.225159
4.38817
0.174189
0.190341
5.32353
4.49605
5.18407
0.168307
2.36479
0.084068
0.0973789
2.40449
2.37592
2.37533
0.0846752
2.7659
0.0635137
0.071202
2.48466
2.51257
2.66338
0.0692434
0.146779
0.231587
0.168655
5.72192
7.52202
6.51577
8.38103
1.03789
1.55108
1.17093
8.59969
8.73983
8.80904
9.01379
2.65696
0.263174
0.353335
2.45419
2.42915
2.61983
0.275704
1.79225
0.106983
0.14606
1.69268
1.52792
1.929
0.122785
1.95834
0.0755952
0.085476
1.67853
1.94286
1.77901
0.0799765
4.45622
0.139103
0.0936265
4.36826
4.98417
3.76029
0.11698
4.19786
0.158188
0.134606
5.17199
4.87927
4.47549
0.131765
3.43635