/*--------------------------------*- C++ -*----------------------------------*\
  =========                 |
  \\      /  F ield         | OpenFOAM: The Open Source CFD Toolbox
   \\    /   O peration     | Website:  https://openfoam.org
    \\  /    A nd           | Version:  10
     \\/     M anipulation  |
\*---------------------------------------------------------------------------*/
FoamFile
{
    format      ascii;
    class       surfaceScalarField;
    location    "9.3";
    object      phi;
}
// * * * * * * * * * * * * * * * * * * * * * * * * * * * * * * * * * * * * * //

dimensions      [0 3 -1 0 0 0 0];

internalField   nonuniform List<scalar> 
38556
(
1505.33
514.481
-983.279
1742.22
-44.9449
-191.94
1805.27
-346.282
283.234
1893.46
-340.627
252.435
1924.99
-229.816
198.285
1998.56
-237.583
164.009
2023.93
-185.295
159.927
2050.43
-167.448
140.949
2035.01
-90.7835
106.2
2013.91
-64.0031
85.1087
1996.37
-44.5716
62.111
1995.97
-44.0552
44.4498
2003.99
-41.5234
33.5053
2014.75
-36.2892
25.5327
2003.71
-21.0015
32.0353
1970.43
-12.4665
45.7517
1933.42
-15.0225
52.0286
1933.41
-36.0304
36.0429
1984.86
-51.3198
-0.133501
-37.8673
-2.98522
1927.12
547.566
735.368
1857.39
-312.368
337.159
1708.17
-490.403
293.334
1603.04
-311.928
76.4317
1402.41
-201.245
172.066
1334.82
-168.664
-1.33309
1319.98
-155.938
-14.5191
1348.68
-137.078
-59.0692
1399.85
-97.0099
-44.9376
1450.42
-67.9436
-46.6278
1487.86
-42.2542
-39.7626
1513.73
-28.189
-41.7375
1526.13
-17.9169
-36.0092
1531.59
-11.3674
-30.3774
1533.58
-3.77423
-19.2138
1535.99
-1.87113
-13.0058
1536.41
0.363723
-15.8084
1536.23
-7.90105
-27.9473
1548.75
-9.55578
-54.288
1.62612
-51.5894
2051.52
-148.218
-610.659
2394.67
-20.6805
-634.844
2183.31
-209.108
-69.9332
2080.02
-91.856
-116.784
1817.64
1.69661
59.4398
1648.07
-32.051
32.9565
1508.95
-49.3405
32.5218
1454.32
-60.9511
-21.4909
1430.5
-40.879
-32.3154
1428.76
-21.1483
-45.0594
1430.4
-1.12513
-42.7655
1432.13
13.657
-43.5788
1428.24
23.6172
-37.6393
1419.83
31.5945
-34.5559
1401.89
37.2666
-23.0966
1377.93
37.0199
-14.9319
1356.67
33.3325
-11.7134
1348.19
16.3103
-15.7306
1354.98
7.00735
-23.3485
10.4319
-16.5775
2704.13
788.525
-188.545
2225.71
230.49
227.248
1471.41
-112.518
657.715
1261.22
-37.7278
156.059
1118.73
4.08684
140.104
1086.99
-25.1212
24.805
1109.97
-82.689
10.3665
1123.46
-61.2288
-13.2102
1165.8
-65.6853
-17.528
1190.37
-30.4734
-15.2463
1217.75
-17.8492
-10.6628
1230.51
12.1593
-11.2538
1239.03
22.5158
-7.42051
1240.37
36.5865
-6.33027
1239.49
40.503
-2.36393
1237.28
41.3709
-2.13588
1235.47
36.6824
-1.53769
1235.24
18.2037
-1.66309
1241.16
3.7974
-2.71251
5.56471
-0.952799
3495.1
693.855
92.4541
2991.2
483.692
250.693
1848.33
316.484
713.872
1406.58
126.864
277.158
1228.79
72.9029
108.974
1148.14
30.4298
25.1007
1145.82
-104.895
24.5201
1141.48
-61.564
4.67742
1166.39
-92.6322
2.04092
1183.52
-48.2068
0.601444
1209.03
-48.7096
5.34884
1225.77
-8.78047
4.20172
1238.53
3.68249
6.07412
1242.21
32.549
0.358213
1242.07
39.356
1.28428
1241.58
41.6812
0.17448
1241.38
35.8502
1.03679
1239.64
17.8778
2.06649
1238.47
1.3157
3.65216
2.93998
2.40142
1814.07
897.92
499.815
1626.7
300.258
370.806
1180.93
287.145
475.114
1140.88
33.4493
133.464
1048.9
18.8377
146.043
1011.69
42.7925
24.852
1055.81
-191.736
42.7144
1034.35
-38.9569
-1.14114
1058.69
-115.22
-1.75411
1079.48
-55.408
-13.5887
1116.7
-76.9035
-9.02669
1156.6
-37.5472
-11.1349
1198.57
-31.221
-7.06891
1226.18
13.1233
-8.18471
1243.65
27.0977
-5.20513
1253.32
33.9022
-1.8915
1256.19
29.7398
3.23565
1249.71
17.5722
6.78929
1236.23
6.20771
8.58692
7.62244
3.13413
1308.17
-294.695
926.986
1154.87
-437.459
891.022
978.963
-252.024
715.075
1005.63
-227.152
233.932
1052.79
-189.027
160.704
980.616
52.4545
62.5145
957.458
-28.3259
13.073
-62.267
-30.3179
-60.7394
913.375
-24.6176
-8.45521
29.5775
-19.3025
27.9241
934.366
-9.97779
-36.4683
-35.557
-17.6242
-36.5844
971.863
-34.147
-13.7289
-7.82756
-32.269
-4.93331
1029.58
-31.5541
-15.5318
-30.6921
-29.2909
-27.5557
1080.74
-31.3153
-9.45348
-13.3409
-27.7832
-6.81429
1124.79
-23.7762
-10.6973
-12.1962
-21.4152
-7.18462
1165.42
-15.8237
-5.12196
2.05905
-12.739
4.12326
1190.25
7.67279
-5.41031
1199.17
23.735
1.25464
1201.48
22.319
5.10539
1194.5
16.2456
8.30665
1185.78
6.86753
8.06401
8.10295
3.22156
1120.48
-2201.36
-452.983
1413.83
-1046.01
315.193
1243.79
-523.263
441.281
1211
-342.936
148.574
1166.02
-269.102
125.052
281.269
-10.1624
16.81
273.09
275.714
266.501
59.9685
-7.53539
62.8225
247.965
0.891538
4.08694
-206.743
209.768
-24.4239
-3.2187
-224.171
227.076
-10.9915
-1.89083
-223.367
234.538
-41.6399
-3.67769
-249.716
259.021
-39.7839
-1.07503
-263.258
272.211
-42.3155
2.04685
-281.061
286.237
-30.8388
1.88711
-289.574
293.323
-19.8545
0.282691
1188.06
-11.0492
-0.213417
-293.628
-299.701
-284.775
-288.417
3.8545
-10.5457
4.08328
1187.52
21.7642
2.51454
1177.88
24.9508
7.01001
1159.72
24.7519
9.65176
1145.86
13.5365
7.18838
11.1022
1.15171
1198.28
-1417.64
-2954.12
1247.78
-951.518
-143.986
1016.78
-437.272
145.006
970.938
-354.767
57.6745
212.097
-264.094
132.748
187.425
230.465
203.194
237.557
-35.7114
0.0885953
-5.19884
-72.0879
68.6956
8.23432
0.35681
-68.0979
3.42671
69.0336
-3.63234
-0.730042
-73.1641
5.92311
74.1188
-6.66777
-0.210075
-75.084
8.73229
75.2494
-8.56745
-0.330151
-73.4992
9.40418
72.6246
-8.71116
0.181514
-70.9628
10.6932
71.5807
-11.4726
0.161436
-73.6995
8.66704
74.6898
-9.80787
0.150493
-76.223
5.40508
76.364
-5.36821
-0.177849
-77.1832
308.913
-11.2376
-0.28902
-78.1013
-76.2017
-76.9497
1217.94
17.1239
4.24097
-306.814
-310.189
-298.56
-301.982
1202.45
31.6402
8.80575
1177.14
39.6746
10.3815
1152.06
29.0018
9.61853
18.7292
3.36368
2139.32
190.621
-932.62
1588.16
-413.279
12.9196
1385.44
-230.244
-4.30103
1307.86
-310.658
33.4713
297.179
-255.15
94.6872
291.005
310.297
305.745
51.2901
295.523
-43.8682
-5.76558
8.22065
-76.2735
75.2918
-5.91961
-1.31934
5.20672
-77.6737
78.1645
-4.80708
-0.890411
5.6999
-78.6253
77.9345
-4.76887
-0.240237
5.01345
-76.0337
75.7242
-3.88873
-0.81527
5.16835
-76.1473
76.8639
-4.43463
-1.45033
11.4276
-79.6631
80.1558
-10.9653
-0.955018
11.8224
-80.3389
79.7244
-11.9357
0.727786
5.40435
-79.4041
79.6962
-5.6709
-0.02557
-80.7512
5.4358
323.404
-5.62822
-0.712354
-81.6297
-79.4329
-80.6857
1276.52
22.6284
-3.5261
-322.32
-325.572
-312.45
-318.161
1254.92
47.2974
5.94645
1217.15
64.658
12.7833
1180.69
53.7299
11.7349
31.857
4.00584
-430.223
-529.845
-601.01
270.201
-418.285
-695.419
941.099
-441.149
-459.993
1022.51
-364.827
-27.2415
262.669
-381.052
50.9766
277.723
272.189
284.855
53.8076
274.819
-71.864
5.90641
9.0319
-75.5481
76.1183
-11.6226
2.02051
5.75665
-83.1808
85.0709
-7.45996
-0.186834
3.02447
-87.9313
88.0145
-2.0641
-1.04359
0.391858
-88.268
88.5693
0.724942
-1.41815
2.7311
-91.2998
92.6529
-2.02204
-2.06214
8.16403
-97.3203
97.7388
-7.50656
-1.07599
9.94056
-88.9398
85.5226
-8.68768
2.16437
6.76769
-81.1244
80.9502
-7.21364
0.620087
-80.7934
5.577
320.485
-3.78463
-0.704435
-80.7037
-80.2395
-79.8367
1265.91
19.5253
-6.06901
-319.526
-314.637
-313.903
-308.668
1254.46
55.8383
2.91024
1227.65
83.7257
7.73466
1194.48
82.9734
3.9298
56.986
-6.62816
965.002
-325.12
493.926
962.759
-373.106
-42.9357
1320.24
-372.359
-426.268
1467.83
-359.417
-153.003
383.962
-365.91
-85.2905
375.26
394.074
384.682
110.7
392.422
-110.954
-8.20467
31.1617
-103.089
103.064
-32.2553
1.11888
14.7037
-97.5304
93.9757
-15.3553
4.20628
6.36215
-92.8938
95.3543
-10.4372
1.6145
-1.70574
-101.34
101.683
1.30244
0.0600245
0.214345
-101.863
101.697
-0.366187
0.317033
6.52823
-96.9905
92.3095
-3.77694
1.92971
3.55214
-82.8247
80.3881
-2.41729
1.30178
5.66891
-74.9261
73.8741
-4.61855
0.00173122
-74.1546
4.08352
292.283
0.147045
-2.19444
-73.236
-73.8728
-73.056
1219.32
-18.9841
-7.30388
-298.28
-290.874
-294.193
-290.16
1241.71
32.1186
1.32846
1243.13
78.7416
3.56524
1232.28
99.7383
-5.91904
81.5984
-15.0426
696.161
-1935.44
-465.86
968.099
-860.87
215.825
1067.41
-590.599
118.928
1209.97
-470.344
-31.633
1360.14
-438.726
-77.3554
357.718
-513.551
-65.2067
118.384
156.951
112.708
148.529
349.834
351.228
343.547
30.6171
356.817
-106.183
-10.7409
26.458
32.2529
28.4973
18.3999
-365.353
368.036
-72.5935
-3.69176
17.9278
19.0327
18.2412
14.7132
-378.098
370.328
-53.9621
5.11036
13.4706
14.9061
13.5327
2.3129
-359.353
342.666
1.08328
7.17711
1.46745
2.63786
2.00773
-1.07371
-340.493
326.137
11.6107
6.88206
-1.315
-0.685826
-1.06221
-2.28706
-314.728
300.567
16.3483
5.17699
-1.70397
-1.96966
-1.40381
-0.758482
-297.348
287.648
7.28995
2.40272
0.486153
-0.480789
0.760636
0.570355
-283.288
273.83
1.22911
0.762082
3.2087
0.610084
3.07751
1110.89
-31.8763
-8.55395
-1.97336
15.4808
-2.50054
12.3372
-273.788
-277.486
-269.506
-273.021
1147.48
-47.6982
-7.87765
1203.42
-18.9304
-4.89402
1261.22
25.4863
-4.54001
1300.25
71.3867
-10.6865
73.1046
-5.39248
1800.19
-3354.94
-452.722
2513.9
-1695.25
120.673
2135.07
-675.784
464.025
1810.32
-437.209
291.609
1579.81
-326.684
118.467
1412.32
-365.397
19.3323
1299.57
-167.634
-15.4822
85.0584
68.6014
80.9822
61.2298
1221.86
-207.698
2.98816
63.0402
81.1515
59.1885
79.0397
1177.74
-48.0377
-4.81086
31.9922
21.2842
28.9557
14.7385
1159.42
-22.681
18.3745
-5.39489
17.1637
-6.37323
17.2281
1153.3
54.4216
7.16098
-16.4446
-12.5294
-15.406
-11.0863
1147.86
36.1466
-5.87579
-18.2225
2.94628
-15.6433
6.0946
1142.08
40.4758
-18.2754
-11.0922
1.62128
-9.56152
2.61482
1141.72
0.711883
-23.2899
-4.17401
15.4991
-3.63684
15.2492
1141.97
-21.0068
-11.1279
1141.3
-46.0323
-0.990125
1163.41
-40.7674
-0.269568
1216.01
-20.689
-6.42601
1266.63
28.4529
-7.68612
51.0639
2.96006
1054.16
-2278.85
-3000.03
1059.85
-1609.91
-91.0354
1190.03
-1064.49
258.532
1271.14
-656.017
137.69
1331.49
-449.82
62.794
1327.12
-388.498
27.4638
1335.97
-211.618
35.1404
1286.88
-178.245
19.6307
1258.67
-47.5433
27.718
1234.34
-4.72884
6.37992
1238.12
57.4462
-6.8056
1249.84
47.8286
-23.4039
1273.05
53.7029
-36.4384
1288.45
20.8533
-35.5337
1275.24
7.22954
-15.034
1227.63
-10.9292
12.5079
1177.12
-6.5699
16.312
1156.99
-3.73158
3.17409
1162.74
25.1743
-2.4737
44.6236
-3.04152
3473.11
355.734
1114.06
2267.31
-522.451
118.342
1856.74
-374.365
-279.561
1677.53
-376.275
-100.523
1613.06
-308.839
-76.5164
1591.81
-323.95
-43.2949
1567.79
-161.595
-26.0101
1523.37
-121.853
-11.9715
1442.78
14.3804
18.6707
1383.46
41.6852
12.9076
1350.59
86.4157
3.90217
1339.41
72.5403
-13.5321
1338.73
67.0931
-12.7097
1335.49
40.5706
-16.4803
1321.67
25.322
-4.269
1284.14
15.8571
10.7385
1230.96
21.4607
25.1471
1192.39
18.0203
16.817
1178.51
31.7051
7.35283
40.1149
3.91475
1271.82
-139.343
-3949.5
1506.46
-20.8398
-736.249
1535.5
64.7911
-468.198
1485.07
-181.646
-144.198
1422.51
-187.223
-59.0583
1405.87
-265.286
-42.0231
1418.74
-141.717
-32.7496
1416.53
-94.1066
-25.5406
1407.2
24.6397
-0.930419
1389.02
58.096
1.77363
1375.76
95.413
4.2609
1365.85
84.3248
-1.87751
1356.17
74.6332
2.14032
1340.49
52.7094
3.54148
1316.68
33.5064
15.6277
1291.03
22.4701
19.0367
1271.92
22.0973
18.4741
1256.45
17.9861
15.5058
1250.25
22.4925
15.4154
26.9957
11.9241
330.877
329.996
1290.67
362.091
-102.023
49.9685
1028.42
11.9955
-613.534
1019.87
-116.632
-56.4595
1187.76
-208.419
-146.695
1199.22
-215.72
-61.0326
1275.73
-176.381
-41.8416
1304.75
-98.5359
-24.5872
1341.01
-11.3839
-0.235952
1359.95
34.8043
4.34286
1370.82
66.8762
17.6723
1372.81
66.0172
16.3129
1367.15
59.4628
20.8349
1357.39
46.5555
15.9168
1341.19
32.5529
17.1515
1324.85
23.2197
15.5836
1315.06
15.3696
16.5212
1309.58
10.6596
12.8104
1310.59
8.60735
12.8736
10.1989
12.4883
-354.479
-107.971
-538.67
769.514
-568.042
-657.975
1318.32
-117.317
-419.491
1357.98
-14.5523
-141.745
1360.98
-47.5832
-163.831
1366.2
-81.1264
-139.816
1383.91
-98.7766
-95.3132
1380.33
-63.0172
-31.9411
1381.53
-28.3895
15.8067
1390.57
9.30086
16.4623
1399.38
37.4879
20.584
1403.93
47.8742
13.5936
1403.03
47.2948
13.064
1400.55
37.3274
11.7089
1395.62
24.3107
13.1751
1392.75
11.5512
14.5349
1390.63
2.72065
14.7678
1387.33
0.420299
13.5444
1382.59
2.05589
11.2889
8.44921
3.50308
1197.67
-758.381
1404.43
-774.805
1586.06
-298.95
1521.12
50.3847
1581.55
-108.004
1675.72
-175.305
1755.55
-178.601
1765.07
-72.5386
1674.48
62.1968
1604.72
79.0661
1569.15
73.0552
1569.53
47.4944
1579.91
36.9138
1601.22
16.0187
1619.9
5.62809
1630.18
1.26937
1630.71
2.19746
1625.8
5.32946
1616.22
11.6368
12.2673
1868.98
-631.16
235.065
1987.64
-355.8
45.2092
2120.56
-220.587
370.897
2190.73
-164.91
347.174
2098.69
-72.9772
363.306
2084.16
-98.2193
276.755
2054.78
-59.6786
248.989
2048.21
-55.8038
203.323
2013.31
-9.91346
151.012
1984.81
2.94313
110.665
1958.9
17.677
70.3467
1950.41
13.0905
39.8461
1943.34
13.9247
26.6568
1935.39
13.2108
20.2673
1909.38
19.1743
38.873
1879.91
19.2794
55.9352
1862.45
14.5997
54.893
1862.4
6.23033
29.8611
1864.53
9.34105
-11.6004
13.8921
-16.0576
1543.75
288.694
158.197
1264.77
-93.8163
354.154
1200.98
-158.728
295.267
1138.64
-26.6307
0.491094
1161.99
-19.9022
95.6461
1189.46
-38.1003
-88.926
1241.49
-32.4876
-93.7376
1290.05
-26.9568
-136.474
1343.42
1.91503
-110.134
1385.55
16.5404
-102.362
1413.25
30.6948
-80.4729
1426.93
32.1335
-74.4635
1429.56
33.2292
-57.9441
1427.69
32.4583
-47.7503
1423.11
31.474
-26.9375
1419.85
28.5184
-18.9862
1416.62
25.5844
-23.559
1415.59
16.1313
-36.8202
1416.39
16.9688
-62.7194
18.9042
-56.5912
2272.11
-118.852
-2778.1
2244.53
-95.353
-605.733
1780.89
-127.637
362.619
1615.64
29.271
-7.43609
1457.92
79.6343
117.622
1384.43
41.8502
26.4934
1325.44
29.6017
29.4316
1298.9
16.6145
-38.5257
1284.1
31.4033
-47.0069
1277.68
37.8648
-59.9581
1272.95
43.4601
-50.8007
1266.73
44.7136
-49.9469
1257.83
43.867
-39.3705
1247.56
43.4318
-35.265
1237.06
41.1849
-22.3041
1229.99
36.9488
-16.2926
1226.85
31.4558
-14.4412
1227.08
17.3459
-17.1752
1232.12
14.0805
-25.5072
15.6027
-17.2123
595.7
199.638
360.551
746.906
84.6902
-104.002
959.11
-87.7132
405.587
980.874
21.6998
141.866
981.516
64.2122
154.884
974.153
45.659
28.3594
1021.46
-21.6658
14.3249
1034.09
11.6954
-20.9214
1075
-9.40896
-17.6277
1091.02
28.1718
-21.5735
1111.89
25.8507
-13.9234
1118.37
41.0424
-14.0602
1124.04
39.3332
-8.55724
1124.33
44.231
-7.41665
1125.11
40.9073
-2.86774
1125.97
36.5914
-2.63626
1128.81
29.4617
-2.38486
1132.58
14.4404
-2.52405
1139.06
9.32857
-4.44015
11.7438
-2.07448
1734.42
-120.901
1083.71
1545.38
153.881
370.548
1224.59
256.066
690.88
1142.26
115.548
265.637
1058.81
118.319
138.32
1006.78
83.552
39.2414
1035.16
-56.014
30.4811
1032.48
8.92569
10.1307
1058.65
-34.6748
1.13178
1068.05
18.8333
0.545521
1087.38
5.8652
6.00391
1095.77
34.2548
2.5962
1104.4
30.9696
5.81475
1106.42
43.389
-0.827904
1107.71
39.7659
1.14326
1108.62
35.9804
-0.126548
1111.94
25.6581
1.52135
1114.79
11.2051
2.4434
1118.24
6.02762
3.51022
9.37142
2.16023
422.589
388.476
829.292
779.997
-64.1333
231.412
758.723
250.793
501.661
842.619
13.6994
151.417
859.9
71.3599
175.722
852.849
83.4234
32.0309
946.736
-154.545
47.3584
931.32
30.6599
-7.45926
965.735
-73.2617
2.41816
983.304
0.029863
-12.3548
1017.69
-32.055
-5.48812
1043.72
5.56864
-8.48609
1068.85
3.89494
-5.11826
1085.07
26.1155
-7.1302
1095.6
27.4336
-3.41092
1102.99
27.4903
-0.791829
1107.87
19.5535
4.4664
1109.04
9.72593
7.09339
1107.85
7.56122
8.25011
10.5757
2.73584
28.9518
-43.7019
572.132
347.495
-288.906
797.253
732.176
-72.2559
653.442
810.408
-122.199
291.599
938.741
-75.388
179.119
860.951
139.624
84.1038
857.356
-23.5109
16.8134
-53.537
-25.5697
-52.0723
822.359
-6.9589
0.419723
32.7379
-1.68107
32.6841
854.437
-17.7516
-37.8573
-33.1953
-20.2257
-32.7786
893.311
-26.0431
-4.67725
-1.16242
-22.6854
1.99522
946.268
-25.1967
-10.7204
-22.1833
-22.8367
-19.6069
989.6
-23.0129
-2.34316
-2.05168
-19.9049
0.0964163
1024.14
-15.7945
-8.69771
-2.22211
-13.8127
-0.814277
1051.71
-9.70696
-1.84229
6.07653
-8.44692
7.34055
1066.34
10.7029
-3.30941
1073.43
18.5581
3.09414
1077.94
14.1096
6.04143
1078.13
9.84234
8.00653
1078.89
7.08049
7.77999
9.75319
2.92843
1263.83
-1144.36
-161.067
1088.82
-453.671
654.976
954.586
-249.874
753.128
990.893
-205.105
195.173
1024
-146.04
162.598
245.314
20.8726
32.3129
236.108
237.127
227.647
75.599
28.0093
77.4435
-9.43167
218.897
5.20076
7.13625
6.79254
-189.579
197.785
-16.2245
-5.73356
3.78259
-209.124
212.208
-20.303
-4.31494
6.61203
-209.243
219.126
-36.2047
-6.33318
1.98059
-231.776
238.613
-32.0746
-1.94
-1.92753
-241.897
249.883
-31.2506
2.17959
-0.720994
-257.965
262.025
-20.3773
1.24412
0.615036
-264.741
267.743
-13.1383
-0.185313
1077.24
-9.27701
4.76996
-267.112
-272.422
-259.655
-263.9
4.65455
-8.96311
5.15773
1075.54
18.5268
4.24556
1070.79
17.8441
8.02314
1064.27
16.2825
9.73098
1060.62
10.1531
7.76125
9.83653
1.29952
168.647
-62.7298
-3220.8
406.25
-354.433
-480.827
593.26
-265.279
-26.5983
668.202
-283.755
61.3837
203.497
-192.899
97.879
175.645
199.018
171.771
-3.92799
229.185
-8.1403
7.25279
-0.915842
-6.80409
-65.707
62.7693
9.9583
0.699357
0.690274
-60.6117
3.21366
60.9443
-3.73319
-0.503321
0.107417
-64.961
6.04792
65.5172
-6.49236
-0.219152
0.842567
-65.3629
8.2458
65.3835
-8.18666
-0.922347
0.0472478
-65.2641
8.46202
65.4753
-8.65402
-0.0664346
-0.108072
-65.8261
8.32001
66.6018
-9.23744
0.24984
-0.226597
-68.554
6.1105
69.2513
-6.95631
0.375061
0.482536
-70.3502
3.56842
70.3017
-3.61499
-0.387499
-70.9286
0.81819
283.443
-10.0067
0.220175
-71.8958
-69.9761
-70.9515
1108.48
21.2086
10.5007
-280.893
-286.334
-272.984
-277.209
1093.93
29.6861
11.5059
1079.54
28.8848
12.174
1068.75
19.3305
11.2282
13.5211
4.0984
1678.18
41.0364
-748.394
1341.81
-333.68
328.534
1075.73
-209.353
205.85
1008.8
-269.34
85.9912
263.016
-215.288
105.285
259.433
250.756
247.383
2.44281
31.2499
265.569
-32.8012
-3.44522
-0.311318
3.2032
-71.4486
72.1084
-3.79154
0.239825
0.00982009
3.94865
-73.5312
73.7795
-4.53035
0.32356
0.39417
5.33721
-74.2287
73.9106
-5.04902
-0.364333
2.12385
5.47505
-72.6484
72.2631
-4.8478
-2.36584
3.32586
6.6543
-72.0331
71.9989
-6.33667
-3.60935
0.959836
10.0223
-72.1441
72.2971
-10.4225
-0.712602
-1.35883
8.29959
-73.5276
73.906
-8.70672
1.38758
-0.146113
3.77916
-74.8657
75.0031
-3.99073
0.220272
-75.022
0.064916
4.38053
298.652
-3.24986
0.68349
-76.3711
-73.88
-75.2581
1157.77
32.9821
5.06813
-296.239
-303.041
-286.599
-292.264
1133.31
49.1644
10.9323
1109.04
50.9513
14.9862
1091.4
36.023
12.6823
21.275
4.30299
1107.01
-1638.71
-1743.14
622.203
-633.974
89.6823
748.136
-445.114
-350.164
763.911
-328.097
15.7399
226.717
-332.035
32.3233
236.475
214.588
221.531
-13.4485
45.6768
244.622
-60.3034
10.1698
-6.99341
9.39214
-70.5576
73.2415
-12.0405
6.95789
-3.74965
8.37188
-80.4952
81.6571
-10.6624
4.87827
-0.287422
5.5548
-82.9339
82.9988
-6.13496
0.802744
2.74761
4.07592
-82.7801
82.6872
-4.15197
-2.57867
4.61053
6.68971
-82.9614
83.2827
-6.61928
-5.00224
0.62974
10.3314
-82.922
81.9443
-9.63059
-0.352885
-4.33406
8.39266
-78.3977
77.7365
-7.67633
4.27895
-0.86495
4.16458
-77.2001
77.278
-4.0524
0.67477
-76.8944
1.78818
0.457172
303.423
2.13875
-2.85115
-76.4879
-75.9641
-75.6093
1170.45
35.2289
0.320304
-301.417
-296.985
-291.512
-289.169
1152.14
61.5306
8.85483
1130.24
68.8499
11.7277
1108.03
58.4753
3.68729
34.1504
-7.49586
1237.92
-605.306
462.659
1279.7
-452.291
-266.397
1255.3
-361.386
-485.589
1288.56
-339.312
-175.052
341.017
-329.338
-119.822
333.504
325.502
320.373
14.4657
90.6796
349.172
-92.0715
-21.2295
-2.54813
26.5127
-93.6684
95.4912
-27.1216
1.33428
-11.4549
16.9682
-96.4026
94.8752
-16.2
12.2141
-7.62892
8.18872
-92.3731
92.3421
-8.99513
8.46637
-1.78623
3.25085
-91.4057
90.5277
-2.73356
2.14697
-1.61119
5.61719
-87.9105
86.4903
-4.60285
2.01711
-4.1671
5.97751
-81.0168
78.5726
-3.83405
4.46784
-3.06795
4.36181
-73.9714
72.866
-3.25711
3.0687
0.389673
3.28425
-71.4648
71.1502
-2.82741
-0.531926
-71.4482
3.28616
-2.07842
280.125
5.78955
-3.90175
-70.7903
-70.7935
-70.1881
1141.96
6.30149
-3.6407
-283.636
-280.329
-277.55
-275.176
1154
48.5316
2.28333
1157.66
65.4862
3.2657
1147.92
68.2262
-5.92218
46.2619
-16.675
378.85
-902.549
-2215.38
647.333
-558.181
53.2322
978.999
-548.488
-25.6359
1105.39
-444.178
-53.1566
1205.46
-395.273
-111.493
309.555
-451.092
-82.5133
103.458
136.785
101.124
132.495
301.462
298.304
290.674
25.466
11.3285
304.385
-79.929
-17.8532
21.4353
24.5777
20.1453
12.3429
1.1723
-302.342
302.17
-47.0876
-0.977931
12.2827
11.1483
11.291
8.21381
-8.07233
-315.069
313.935
-28.1884
7.11042
7.91008
7.26709
6.89356
1.27031
-11.0836
-307.161
295.748
5.24226
12.6706
1.13668
1.09425
1.08225
0.00597914
-10.5004
-296.869
287.412
8.29719
12.0716
-0.295306
0.0872319
-0.209897
-0.933836
-8.49318
-279.28
269.799
10.4627
9.76126
-0.325734
-0.779469
-0.210856
0.110796
-2.78857
-271.274
265.183
3.72935
2.48302
1.22827
0.156291
1.1723
0.335568
0.149827
-264.233
258.744
1.24413
-0.975922
2.32838
0.258103
2.14856
1054.07
-27.5003
-8.03157
-4.54479
8.74947
-5.68694
7.83653
-260.032
-261.976
-254.965
-256.473
1091.39
-29.0762
-9.82189
1135.32
3.71989
-4.00881
1170.77
29.3312
-3.8322
1187.17
49.2336
-8.09548
43.4702
-5.76865
667.957
-1555.84
-86.4723
1100.92
-751.583
-118.889
1462.32
-493.987
48.1289
1477.97
-344.061
175.843
1397.69
-252.053
55.5258
1253.2
-287.978
0.704733
1155.52
-97.4992
-20.3718
61.4961
45.2992
54.5013
38.7746
1087.71
-155.13
4.57767
47.6754
67.7434
42.5271
63.4047
1055.72
-2.01734
-7.06256
17.3348
4.92636
12.5632
1.43685
1047.38
-21.4182
20.0727
-5.37884
18.3988
-4.37882
19.4142
1048.57
36.9989
7.68226
-12.6547
-7.88181
-11.5218
-6.64788
1045.43
2.60846
-9.33581
-11.0054
11.5158
-9.23807
12.7141
1040.63
2.70753
-18.2709
-6.42257
6.8642
-5.71226
7.36618
1038.35
-29.4922
-19.6826
-2.20672
16.2492
-2.11493
16.2346
1042.96
-32.4591
-10.7805
1055.54
-42.7051
0.0555947
1087.32
-29.0731
0.748311
1126.16
-10.1144
-5.82618
1150.1
21.9511
-4.33779
31.8536
4.84415
475.207
-1721.31
-2598.01
520.71
-979.577
91.4561
1013.03
-763.123
35.3524
1106.65
-443.43
143.435
1164.62
-292.037
44.8063
1139.45
-260.396
25.0506
1162.05
-118.468
33.5119
1121.44
-112.148
17.2526
1117.79
1.00574
28.3487
1105.38
-8.48914
5.8573
1111.44
32.3987
-8.26169
1114.41
3.44145
-27.2009
1118
0.901503
-38.2263
1112.38
-26.3964
-33.0062
1100.25
-25.0115
-10.3566
1085.9
-30.261
14.4159
1076.6
-18.2951
14.8359
1075.86
-11.1657
4.96156
1083.89
12.2435
-0.799464
23.507
-1.9434
2186.21
133.817
-2995.08
2115.27
-33.3795
-756.92
1741.51
-131.182
-537.737
1560.15
-217.736
-144.86
1454.06
-172.112
-90.3501
1384.25
-176.337
-57.5451
1321.16
-59.6503
-21.7369
1268.07
-63.3348
-7.69616
1222.65
39.3971
25.6966
1194.33
19.9284
12.8158
1183.57
42.7186
4.34457
1176.36
11.8905
-14.78
1171.39
5.53322
-12.3621
1161.57
-17.543
-15.5209
1150.13
-16.2659
-1.5687
1135.13
-15.3524
10.8254
1119.76
-2.64399
24.8681
1107.28
0.9834
17.1463
1105.53
12.1108
9.23983
17.6183
5.88923
1333.6
1156.29
-5759.46
1541.4
770.432
-1747.86
1472.51
323.705
-854.197
1369.13
-16.1711
-242.391
1297.91
-69.9331
-90.0163
1266.95
-145.647
-41.7461
1258.36
-51.3881
-32.4296
1236.73
-45.6647
-21.5767
1231.61
38.3633
5.22354
1220.17
30.0222
3.11549
1217.35
44.2236
5.57882
1208.8
21.0867
-2.52646
1200.17
13.9023
2.4075
1186.92
-1.82049
1.07057
1176.68
-3.00735
12.6026
1168.62
-4.26383
16.0135
1163.25
1.33008
19.8727
1159.59
3.54368
16.6004
1162.92
8.1297
16.0636
11.5822
12.9871
-166.261
123.48
3378.62
493.906
319.92
-159.686
923.927
181.485
-901.336
953.198
-20.5444
-81.3573
1079.68
-141.726
-201.389
1083.3
-160.425
-49.8739
1155.14
-123.288
-41.7773
1171.75
-65.7189
-21.1405
1206.53
-3.05673
6.39833
1221.74
12.3518
6.80237
1236.06
26.971
20.608
1239.11
19.1395
15.2072
1237.12
15.7573
20.9764
1229.7
7.69938
13.811
1221.32
5.79645
16.7312
1214.59
3.81234
14.2355
1211.56
4.02853
16.8557
1210.75
4.06887
13.095
1214.94
4.02859
12.7808
6.01543
12.6662
959.533
642.173
1232.38
1185.55
298.226
-862.3
1445.43
269.439
-767.325
1496.65
110.907
-324.418
1399.37
-32.4509
-175.818
1328.15
-118.553
-110.467
1289.61
-129.255
-50.8094
1275.59
-73.2744
-10.3644
1282.74
-31.8225
37.4255
1291.39
-8.28844
28.4441
1300.41
8.21929
30.3246
1303
13.1751
16.9603
1302.45
12.836
16.5373
1299.03
11.2455
11.5825
1294.99
9.54517
13.4709
1291.94
8.8514
12.5441
1289.53
8.23332
12.9718
1288.26
9.13303
9.75272
1286.91
9.47825
7.18161
10.2089
-1.14402
2024.41
-2930.46
1842.58
-294.743
2036.4
-223.337
2117.97
79.727
1995.89
-18.3778
1837.25
-135.218
1657.5
-128.103
1582.48
-70.797
1530.35
82.5032
1515
86.1341
1510.48
85.7886
1517.82
53.3304
1525.31
42.2658
1531.86
20.7098
1533.65
13.381
1534.95
8.82646
1534.97
10.4109
1536.63
12.8037
1540.94
16.7969
17.0245
3282.27
38.8566
1387.58
3007.59
4.23911
315.646
2592.44
15.231
770.813
2438.67
-21.3393
522.282
2256.71
56.7249
488.546
2170.3
28.581
334.582
2059.47
72.6034
287.218
1993.89
60.4049
208.493
1921.95
83.9403
139.016
1880.01
69.6998
82.9065
1840.5
69.1905
40.6615
1809.58
57.7296
13.0414
1767.75
53.2641
15.2164
1725.04
47.1852
15.7933
1686.96
41.1614
35.7967
1665.54
34.1856
43.1648
1653.87
32.1082
34.4607
1641.24
25.6571
16.8317
1607.65
33.0412
-11.0543
31.3101
-19.03
595.603
-815.065
44.5837
828.607
-36.2508
161.64
995.981
25.4237
117.7
985.701
76.9536
-87.5214
1098.27
65.5627
-25.7647
1153.42
36.5598
-152.055
1226.43
46.9802
-141.124
1268.67
47.763
-166.073
1306.01
64.9591
-128.493
1324.94
64.1041
-115.688
1331.66
65.8912
-83.9027
1327.69
58.4736
-71.2298
1317.08
53.3551
-47.4314
1304.95
47.519
-35.9508
1293.76
42.9192
-17.5093
1287.62
36.9482
-15.6087
1283.16
33.605
-20.5905
1278.52
24.3004
-30.8236
1269.36
26.6056
-47.1223
22.9716
-39.9484
1254.04
-1168.93
-1056.15
1031.69
-376.766
-42.8717
1210.45
-180.826
390.107
1215.76
33.0601
31.1481
1203.95
99.9295
95.0664
1191.46
75.0795
0.465595
1183.5
76.8118
7.56508
1173.54
63.5615
-44.3698
1165.37
69.3242
-43.1991
1154.77
65.5153
-50.7704
1146.63
61.6561
-38.4223
1135.85
56.2112
-36.9082
1125.77
50.2289
-26.1619
1115.83
45.8583
-23.6658
1109.94
40.5966
-14.0889
1107.99
34.1815
-11.5786
1108.5
29.134
-10.4847
1109.77
17.4365
-11.5781
1112.04
17.1008
-18.2728
16.2443
-11.4353
785.025
-864.172
1271.13
640.531
-234.031
-102.243
768.696
-133.713
230.309
798.491
19.3888
125.743
860.278
84.6618
108.365
869.92
73.5679
20.2291
934.678
20.4376
5.94086
945.503
51.4848
-19.6692
984.54
26.7248
-14.0652
993.718
52.3522
-17.5882
1011.18
40.4827
-10.2119
1013.8
49.7376
-10.206
1018.98
41.6952
-5.20149
1019.25
42.9827
-4.8139
1021.95
36.4096
-1.38096
1024.46
30.6375
-1.60267
1028.89
23.6895
-1.37073
1032.98
12.577
-1.75075
1038.23
11.1648
-3.75849
12.5738
-1.80994
1820.4
-165.851
1864.93
1413.48
-44.2551
587.695
1062.35
212.938
695.366
994.07
114.016
239.285
943.935
144.547
128.57
902.718
109.957
44.0687
944.571
-22.7862
31.8516
937.861
54.843
13.4823
964.422
-3.46811
4.7632
966.636
48.8063
1.87758
982.142
25.6405
5.34086
986.388
46.6899
1.39731
994.434
35.3142
4.15024
996.135
41.2964
-0.843263
999.129
33.403
1.156
1001.51
28.1333
-0.00552021
1006.69
18.4263
1.60615
1010.74
9.28342
1.68702
1015.26
7.99982
2.15466
10.9138
0.911347
-91.5239
250.431
-1855.51
336.087
-70.388
-170.065
526.135
228.985
295.565
644.584
19.3546
127.63
737.35
105.951
121.551
741.796
106.052
31.4902
860.663
-130.775
36.4802
844.373
70.1095
-6.43583
884.107
-47.8663
7.0828
895.629
32.1529
-7.22376
926.995
-10.5988
-0.614379
945.761
23.3318
-3.89359
965.093
12.5008
-1.63709
976.46
26.8108
-4.01231
984.601
23.2543
-1.4035
991.3
20.7983
-0.155349
997.167
13.2796
3.74617
1000.77
7.73486
5.03837
1003.55
8.22713
5.24015
10.917
1.00135
-221.674
-134.219
-1744.48
-29.0392
-16.6251
550.855
518.825
16.6201
317.943
649.516
-72.319
252.581
817.616
-4.02472
120.994
749.979
176.608
81.1848
774.818
-24.5783
10.044
-48.5857
-27.5423
-48.1379
748.25
5.68972
7.74959
36.6327
9.47716
37.5478
788.599
-19.4637
-26.4103
-30.2632
-20.5158
-29.4192
824.431
-17.382
4.73776
7.84388
-14.539
10.9826
871
-19.178
-4.93513
-14.6729
-17.5212
-11.5803
906.957
-15.6888
3.84143
4.18191
-13.5308
6.2277
936.459
-11.2693
-3.78599
-0.394871
-10.2061
-0.0430871
956.855
-7.22942
1.42406
7.99087
-6.66767
9.05523
967.395
10.2494
-0.844199
972.662
15.2735
3.35195
978.114
9.58599
4.28262
981.161
7.64239
5.05181
985.329
6.88634
4.95313
9.58471
1.39385
-208.089
-1157.91
1545.9
283.241
-79.9392
226.96
658.064
-143.59
538.515
788.989
-151.264
143.194
891.877
-68.7291
124.415
212.422
39.6445
36.0894
203.292
204.799
195.432
82.9373
42.9594
83.2231
-8.2432
191.339
1.42655
3.32185
5.27083
-167.711
180.352
-9.41081
-2.8117
5.70253
-192.399
195.841
-22.4498
-6.15814
5.99572
-192.868
202.85
-29.531
-3.829
2.16261
-214.363
220.182
-25.6686
-1.49049
-1.93636
-223.482
230.669
-23.5264
2.5873
-1.08834
-237.215
241.054
-15.2651
1.24582
-0.0617376
-242.548
245.198
-10.6173
0.799996
979.52
-8.50914
9.50921
-243.834
-248.588
-235.899
-239.493
5.05726
-8.37084
5.62617
977.197
17.3303
4.5118
975.613
12.8697
6.32322
975.196
11.2595
6.53133
976.799
7.78135
5.26296
8.37562
0.647159
-162.116
-841.185
-2004.53
227.721
-238.736
-711.867
427.986
-186.677
-183.776
515.87
-231.832
54.0678
179.356
-142.46
33.4168
154.387
171.889
148.432
-12.1703
202.655
15.3067
13.2086
-1.40667
-6.36766
-57.7825
55.0345
9.73209
0.790269
0.0499764
-52.9902
3.48285
53.4941
-4.096
0.0592949
0.58682
-58.1904
5.7997
58.6281
-6.13539
-0.688843
1.0563
-58.2463
7.53693
58.3602
-7.71681
-0.990335
0.265897
-59.5053
7.18413
59.9486
-7.68333
-0.20995
-0.390649
-60.8313
6.60435
61.488
-7.35242
0.482037
-0.224266
-63.5355
4.79395
63.783
-5.05833
0.241122
0.151799
-64.7263
2.66075
64.6272
-2.71542
0.00195373
-65.0719
-1.04673
259.084
-8.68899
2.2767
-66.0567
-64.0315
-64.9743
1002.38
22.2606
15.2118
-255.602
-260.4
-246.555
-249.469
992.296
23.7565
10.7078
986.464
19.506
9.75979
984.36
12.7592
8.35409
9.6936
2.76834
1071.03
552.388
-781.335
874.441
-168.466
454.858
809.558
-158.03
242.085
781.376
-225.387
107.728
222.034
-186.466
73.4057
217.792
211.205
206.232
-2.22192
14.46
226.682
-20.3841
3.49843
-2.53823
-0.44213
-63.4547
64.6058
-0.817975
2.64722
-1.1114
3.93471
-66.7508
66.995
-4.35134
1.28381
0.339087
5.59442
-67.5977
67.4992
-5.48959
-0.34538
2.45453
5.95068
-66.9481
66.6554
-5.5918
-2.5207
-66.1593
3.85256
7.21947
65.9545