/*--------------------------------*- C++ -*----------------------------------*\
  =========                 |
  \\      /  F ield         | OpenFOAM: The Open Source CFD Toolbox
   \\    /   O peration     | Website:  https://openfoam.org
    \\  /    A nd           | Version:  10
     \\/     M anipulation  |
\*---------------------------------------------------------------------------*/
FoamFile
{
    format      ascii;
    class       surfaceScalarField;
    location    "9.3";
    object      phi_0;
}
// * * * * * * * * * * * * * * * * * * * * * * * * * * * * * * * * * * * * * //

dimensions      [0 3 -1 0 0 0 0];

internalField   nonuniform List<scalar> 
38556
(
2038.67
1020.85
109.501
2106.29
35.801
-103.423
2085.04
-265.177
286.431
2123.67
-285.33
246.699
2119.12
-191.421
195.974
2167.86
-212.487
163.743
2172.22
-165.109
160.75
2182.61
-151.506
141.117
2153.4
-76.043
105.245
2121.52
-52.6131
84.5006
2094.5
-35.2106
62.2314
2086.57
-36.531
44.4535
2088.58
-35.1355
33.1279
2094.17
-30.7906
25.2001
2078.4
-16.3432
32.112
2041.49
-9.02333
45.9398
2002.5
-12.7904
51.7738
2001.96
-34.7645
35.3096
2052.85
-50.3105
-0.584598
-37.4457
-3.60679
2049.3
377.145
-20.8761
2089.7
-186.972
182.378
1922.59
-395.277
297.203
1802.98
-231.991
66.2723
1578.01
-139.73
173.284
1493.16
-122.714
-4.92991
1462.76
-118.969
-15.7409
1477.76
-107.185
-59.3183
1517.09
-71.6798
-43.687
1557.65
-47.0513
-46.1216
1586.33
-24.335
-39.5634
1604.21
-12.8226
-41.5884
1609.43
-4.24655
-36.1028
1609.16
-0.0847698
-30.4403
1607
4.68482
-18.8669
1606.28
4.74356
-13.0482
1604.28
5.61553
-16.3996
1602.62
-4.41055
-28.7036
1614.4
-7.45986
-54.6283
2.43164
-51.9305
2482.35
537.514
-175.869
2655.09
235.473
-595.182
2391.41
-59.5489
-72.0576
2263.83
13.6877
-118.091
1978.11
81.6813
64.3059
1793.13
28.8324
33.4395
1641.77
-0.687927
33.0696
1575.01
-16.8626
-23.5591
1540.98
-5.56821
-32.0791
1530.25
8.36822
-44.6906
1524.1
23.6045
-41.7857
1518.79
35.779
-43.294
1509.09
42.65
-37.1991
1495.97
47.2115
-34.1745
1473.81
49.8052
-22.9657
1446.62
46.8643
-14.9271
1423.2
40.716
-11.6762
1413.11
21.3028
-15.6242
1418.79
10.1561
-23.2951
11.6228
-16.667
2631.33
990.24
-1171.53
2368.59
403.754
94.457
1626.21
27.8336
655.002
1419.21
73.1686
147.512
1268.17
95.5275
137.196
1226.53
46.4799
23.9951
1237.24
-19.3015
7.90752
1240.81
-6.78281
-13.6533
1272.69
-18.1857
-19.2652
1288.49
8.72038
-16.148
1307.98
15.1902
-11.0793
1314.08
40.8432
-11.1615
1316.9
46.9946
-7.16371
1313.29
57.0478
-6.22669
1308.45
56.9668
-2.32119
1303.24
54.2184
-2.14133
1299.31
46.1394
-1.49428
1297.58
24.5466
-1.52212
1302.75
7.72741
-2.73493
6.65683
0.00141355
3485.97
1316.53
-56.5836
3070.3
676.783
142.644
1948.73
450.979
698.421
1533.35
228.02
260.531
1360.25
162.53
106.09
1272.94
110.709
23.0812
1260.5
-26.962
20.1082
1248.5
1.00666
4.20607
1263.99
-31.8956
-1.78282
1274.52
-2.16745
0.364657
1292.78
-6.46434
3.38944
1304.44
24.3192
4.86077
1312.46
32.4132
6.56849
1311.3
57.9057
0.303428
1307.53
59.4708
1.26623
1304.4
57.2021
0.140968
1302.36
47.2561
0.919491
1299.25
25.603
2.05746
1297.27
5.9328
3.77361
4.38229
2.92547
1492.55
581.073
227.216
1646.4
254.986
267.949
1285.54
358.262
453.573
1263.26
127.025
123.273
1169.66
112.73
143.409
1125.46
131.201
23.7038
1161.88
-109.954
46.5676
1132.27
33.8487
-3.22385
1150.71
-50.1513
-0.188235
1164.6
-1.7603
-14.2974
1196.17
-27.0401
-10.9984
1231.06
1.0608
-11.6253
1268.99
1.56671
-7.08414
1291.98
43.3635
-8.45402
1305.94
50.8692
-5.35727
1312.99
52.0652
-1.91239
1313.82
43.1862
3.23955
1305.97
26.674
6.78269
1291.7
11.6979
8.50833
9.33743
3.67577
1313.04
-757.839
19.7172
1230.33
-472.493
810.19
1098.12
-184.873
675.346
1127.54
-117.753
215.354
1166.19
-74.1723
148.252
1083.94
153.881
59.5684
1052.51
-2.94416
10.3138
-41.1209
-5.07774
-39.6897
999.829
-1.35007
-14.573
50.7097
2.98415
48.7561
1016.47
8.25049
-36.4312
-19.796
1.9488
-20.7623
1047.8
-15.6144
-8.75038
0.909624
-13.0775
3.44332
1100.94
-16.7664
-14.7278
-18.8817
-13.8725
-15.9346
1148.02
-18.401
-4.56324
-6.87553
-13.9995
-2.1808
1190.5
-11.4977
-9.65249
-7.59478
-7.73593
-4.42988
1224.33
-4.49616
-4.87713
8.99933
-1.44579
11.3553
1246.97
33.5211
-5.29511
1254.13
43.6656
1.24137
1254.78
37.3878
5.14719
1246.75
26.5338
8.17373
1237.54
13.0877
7.81603
10.1486
3.63337
1649.17
-1998.95
-538.482
1731.93
-897.316
342.057
1438.14
-341.889
450.807
1345.61
-178.046
152.82
1272.45
-120.972
119.959
296.225
21.3921
9.49876
301.564
290.532
294.731
93.0283
23.5269
95.8363
269.966
19.6489
3.66602
-226.731
230.171
-1.55724
-3.2327
-244.026
247.359
6.41743
-1.50057
-241.346
254.825
-24.5161
-4.57729
-265.465
276.706
-25.8455
-2.16111
-278.749
289.725
-30.4742
1.09678
-294.751
302.991
-20.5157
0.777835
-302.112
308.914
-11.3413
0.0429778
1238.03
-0.625477
-0.0360687
-308.821
-312.462
-299.676
-301.191
9.08588
-0.125825
9.34634
1236.79
42.2329
2.66455
1226.07
40.9129
7.19578
1207.4
35.5358
9.67022
1193.63
19.9539
6.90738
13.0234
1.90472
1709.72
-1028.7
-2352.18
1519.1
-674.917
-31.7819
1181.09
-176.806
172.923
1090.17
-153.037
65.9148
229.893
-96.8836
136.267
218.964
247.105
233.852
256.802
-4.74965
-0.767784
-12.3383
-75.4986
73.2794
14.2701
0.287424
-72.6466
-3.02279
73.9313
2.48247
-0.744323
-77.3685
-0.309932
78.827
-0.818707
-0.329791
-78.7284
3.61727
79.3516
-3.87124
-0.36925
-76.8848
5.33757
76.3447
-4.89992
0.102477
-74.2827
7.41293
75.0927
-8.32374
0.10075
-76.8589
5.6773
78.1735
-7.06557
0.0737123
-78.9159
1.95
80.0441
-2.94977
-0.128383
-80.3096
322.423
-3.12757
-0.22895
-80.6646
-79.2928
-79.4253
1262.36
38.8303
4.25738
-318.911
-321.005
-310.535
-312.761
1246.29
48.0567
8.91932
1220.45
50.8628
10.516
1195.35
35.4406
9.61592
20.6707
3.67863
2584.97
847.247
323.256
1727.89
44.2444
137.911
1473.29
50.2225
27.5773
1379.91
-97.3514
37.6917
305.406
-77.7699
95.6333
313.902
317.927
327.929
7.96412
311.51
-8.49938
-5.56776
-0.724536
-78.4326
78.9674
1.38194
-1.19218
-1.57322
-81.2695
81.5759
2.05585
-0.789059
-0.322728
-81.659
81.0466
1.16065
-0.225518
-0.0798295
-79.1521
78.8315
1.04392
-0.643454
0.816335
-79.346
80.0211
-0.102192
-1.38923
8.11799
-82.6653
83.1025
-7.68684
-0.868314
8.84767
-83.0767
82.4654
-8.95806
0.721645
2.87415
-82.2009
82.4843
-3.14138
-0.0161517
-83.7593
-2.34029
333.962
2.11822
-0.787306
-83.851
-82.4427
-82.8997
1315.84
45.1355
-3.48154
-333.747
-334.263
-323.81
-326.842
1293.64
64.1772
6.07356
1255.49
76.0908
12.9257
1219.1
60.0873
11.7387
33.592
4.28246
-244.805
90.2786
356.53
372.178
-69.1623
-503.577
993.987
-150.643
-420.943
1070.55
-143.995
-29.9246
266.364
-204.244
56.8995
295.144
276.273
302.349
11.3158
285.598
-37.2004
6.65047
0.0981191
-76.7902
78.8063
-4.25938
2.14518
-1.22719
-85.8056
87.617
-0.000379968
-0.583893
-2.81213
-90.3047
90.2837
3.95885
-1.12572
-4.65334
-90.527
90.8951
5.61557
-1.33032
-1.36635
-93.7066
95.1221
1.98314
-2.03233
4.83929
-99.7883
100.058
-4.1215
-0.987873
7.00318
-90.884
87.5459
-5.78508
2.12007
4.31034
-83.3711
83.2378
-4.78988
0.612845
-83.4366
-2.2519
329.587
3.66844
-0.407176
-82.5773
-82.8779
-81.7048
1300.12
42.1101
-6.20678
-329.407
-321.856
-323.794
-315.834
1288.52
72.7097
3.07257
1261.43
95.2491
7.93343
1228.2
89.2657
4.05251
58.4668
-6.44597
713.235
-227.601
-549.384
887.743
-61.4192
-182.252
1300.17
-135.288
-427.785
1468.9
-161.135
-151.589
379.496
-194.161
-81.866
381.064
389.854
390.272
68.7146
396.406
-77.8532
-7.77101
22.1307
-102.793
104.04
-24.6821
1.30379
7.40885
-98.3829
94.929
-8.12272
4.16773
-0.104622
-94.4892
97.2091
-4.33125
1.71599
-6.57443
-102.865
103.182
6.18586
0.071473
-4.01136
-103.452
103.315
3.8392
0.308723
2.99018
-98.3249
93.5531
-0.123987
1.90555
0.63679
-84.3525
81.9519
0.362404
1.40138
3.31174
-76.5941
75.5988
-2.28093
-0.0354668
-76.3981
-3.24309
299.987
7.02593
-1.94873
-74.7835
-76.0868
-74.5528
1248.33
0.983561
-6.97337
-307.152
-295.638
-302.837
-294.601
1271.44
48.3233
1.27673
1272.9
90.1978
3.58514
1261.73
106.156
-5.71211
83.5515
-15.1976
690.222
-1712.13
186.203
946.516
-616.463
298.75
1032.69
-369.648
148.188
1185.98
-292.107
-22.323
1346.64
-280.374
-74.4389
352.434
-388.914
-60.7093
86.7892
120.606
81.8106
112.375
351.317
345.881
345.046
23.2634
356.98
-80.3027
-9.57964
17.376
25.1723
19.5255
12.5975
-366.272
369.143
-47.8478
-2.48343
10.6081
13.2592
10.9952
9.84296
-379.885
372.116
-32.2895
5.84799
7.09658
10.0698
7.20121
-1.93113
-361.049
344.73
19.6636
7.67046
-4.1447
-1.43402
-3.50446
-4.37259
-342.893
328.342
26.6599
7.27089
-5.60559
-3.94446
-5.45793
-4.99564
-318.227
304.067
28.5828
5.54176
-5.30442
-4.63561
-5.02946
-2.85855
-301.737
292.17
17.5887
2.73571
-2.82265
-2.52062
-2.55519
-0.395395
-287.945
279.074
9.0287
0.758881
-0.0229779
-0.345011
-0.153008
1133.14
-8.37641
-11.5471
-3.8027
6.90535
-5.97749
1.55059
-280.503
-279.923
-276.031
-275.434
1171.84
-28.9725
-8.74283
1229.34
-3.85046
-5.33264
1287.58
36.5489
-4.58889
1326.28
77.9507
-10.4935
75.1083
-5.07345
2042.76
-2911.26
1105.22
2520.51
-1413.2
318.992
2078.28
-454.465
527.044
1746.28
-276.161
316.056
1527.37
-192.789
131.324
1376.87
-260.045
21.6361
1272.97
-63.6011
-14.9828
60.4542
36.4297
56.2982
29.3018
1204.48
-130.353
4.76043
43.6058
56.3325
39.7857
54.3555
1167.95
30.5386
-1.397
14.8396
-6.54874
11.7611
-12.6646
1156.99
37.5007
19.9572
-18.8034
-4.13538
-19.7038
-3.85823
1156.12
100.864
7.35872
-27.3344
-27.6517
-26.2424
-26.1205
1155.91
74.847
-4.83835
-26.5795
-10.918
-24.0905
-8.21531
1155.4
72.9737
-18.3034
-17.7556
-10.6149
-16.1418
-9.64013
1156.18
25.6112
-21.2671
-8.62325
6.11333
-7.9035
5.28862
1158.86
-0.123811
-10.9311
1160.24
-29.5448
-0.814759
1184.24
-27.9931
0.146604
1238.6
-10.8825
-6.93203
1289.21
34.7992
-7.46042
53.1072
3.58471
1068.63
-1956.34
-1860.97
917.646
-1411.1
148.878
1089.28
-884.981
258.886
1190.28
-518.026
140.863
1268.7
-333.112
61.9056
1276.93
-298.922
30.6415
1299.79
-131.651
45.1947
1258.61
-113.334
24.1534
1239.76
22.1779
27.2125
1224.74
44.8236
7.69702
1235.15
96.8169
-6.36271
1252.54
80.2704
-22.8144
1280.79
80.6495
-35.9257
1298.67
42.3986
-34.6645
1287.45
25.1457
-14.0526
1241.49
3.04623
13.3761
1192.83
4.08091
16.5835
1174.56
4.01181
3.37824
1181.06
30.2258
-1.93529
46.2249
-2.2206
2943.78
87.2701
892.924
1991.78
-542.252
83.1514
1693.15
-287.62
-298.73
1554.77
-302.306
-77.3428
1523.86
-240.335
-61.8687
1525.04
-264.396
-35.7077
1520.94
-99.9876
-27.5617
1482.92
-70.5656
-4.74869
1416.62
63.2191
25.2628
1366.63
80.6185
14.1907
1340.94
118.356
4.15263
1336.36
98.5569
-13.7057
1340.99
88.6893
-12.6712
1341.69
57.9864
-16.2909
1330.3
39.897
-3.36082
1294.77
27.5571
11.0257
1243.28
30.4015
25.1617
1206.23
24.411
16.655
1193.53
35.5765
7.35065
41.3458
4.23606
1321.59
-199.783
-3490.11
1457.92
96.6679
-775.244
1449.18
215.874
-494.752
1388.33
-62.4951
-178.965
1341.07
-111.143
-81.9342
1336.76
-210.926
-49.1519
1365.88
-92.8775
-36.2348
1375.71
-51.8238
-28.569
1376.57
61.9075
0.444428
1367.39
88.1679
1.63647
1361.59
119.969
4.1874
1358.42
104.401
-2.67124
1354.13
91.0765
1.90227
1342.75
66.0579
3.3071
1322.28
44.5188
15.8487
1299.34
31.2879
19.2026
1282.36
28.8733
18.5141
1268.24
22.852
15.6756
1262.86
25.3843
15.5689
27.9982
11.9673
416.346
1125.98
827.029
139.402
259.716
113.897
863.588
162.239
-670.552
881.439
-1.54797
-78.7977
1081.72
-157.701
-153.721
1114.56
-175.943
-67.8245
1212.09
-140.479
-49.9336
1259.13
-67.3909
-31.4735
1304.79
16.4942
-0.241118
1334.04
54.7514
4.16309
1353.11
83.3188
17.5774
1362.14
79.5061
15.8682
1362.31
70.5441
20.3653
1357.08
55.559
15.7248
1344.6
39.9068
17.0929
1331.3
28.9966
15.5957
1323.79
19.7004
16.6777
1319.74
13.7565
13.1508
1321.43
10.4433
13.2534
10.9148
12.643
-587.631
672.882
-73.2964
598.757
-299.396
-627.276
1144.74
31.517
-415.264
1226.86
50.0557
-133.72
1250.14
-5.99399
-174.985
1279.49
-59.0122
-146.279
1316.14
-80.2117
-96.925
1327.48
-46.304
-32.4262
1342.85
-14.5859
15.7176
1361.88
20.1508
15.5677
1379.34
46.1518
19.7089
1391.15
54.9933
12.701
1396.23
52.9887
12.4701
1398.62
41.9177
11.2553
1397.74
27.8175
12.9725
1398
14.3611
14.376
1397.99
4.88538
14.8198
1396.19
1.83353
13.7253
1392.2
2.78465
11.6492
8.7153
4.04559
503.489
-1150.7
1058.7
-854.604
1363.71
-273.498
1358.34
55.4224
1467.5
-115.148
1588.89
-180.406
1687.3
-178.617
1710.3
-69.3062
1631.07
64.6388
1572.81
78.4165
1547.32
71.6374
1556.14
46.1815
1573.14
35.9873
1599.76
15.2906
1622.44
5.14604
1635.6
1.1918
1637.91
2.57876
1634.15
5.59289
1625.14
11.7954
12.3294
2387.97
-298.023
1040.08
2365.06
-246.328
165.813
2411.97
-138.917
378.439
2421.82
-109.816
346.663
2288.2
-36.3385
365.938
2249.1
-73.592
276.435
2199.86
-39.8186
249.806
2178
-40.1615
203.137
2130
2.82317
150.425
2091.58
13.3811
109.543
2057.63
26.8044
69.374
2042.15
20.6725
39.2596
2028.49
20.4416
26.3408
2014.81
18.6896
20.1979
1983.97
23.621
39.3309
1951.24
22.5854
56.0846
1931.52
17.0568
54.4332
1929.4
8.05259
29.3769
1929.88
10.6729
-11.734
14.2124
-16.9894
1776.21
134.661
-683.982
1502.77
-7.58564
217.077
1427.22
-60.118
293.958
1339.37
51.0485
-6.74845
1341.4
36.9917
97.9231
1349.89
1.97743
-88.9849
1385.02
0.562066
-91.2579
1419.05
1.88997
-135.393
1460.09
26.9947
-108.9
1491.43
37.9025
-101.983
1509.91
48.7586
-80.0017
1516
47.1117
-74.1127
1512.49
45.7319
-57.8814
1505.61
42.8093
-47.6868
1496.95
40.0397
-26.6183
1490.37
35.2306
-19.1168
1484.31
30.6521
-23.9353
1481.32
19.5479
-37.2113
1481.14
19.1048
-62.8728
19.5617
-57.0732
2750.42
366.67
-2062.1
2509.63
136.517
-498.497
1988.22
11.3748
377.86
1798.45
136.816
-14.0908
1621.19
162.402
116.155
1531.68
102
22.9278
1458.57
79.3971
27.342
1419.91
57.33
-40.3311
1394.42
67.5047
-47.1076
1378.62
68.803
-59.7877
1365.87
69.9865
-50.2586
1352.68
66.8048
-49.8048
1338.01
62.3186
-39.1127
1323.07
58.643
-35.0695
1308.74
53.6007
-22.1924
1298.6
46.7428
-16.2974
1293.11
38.8477
-14.3885
1291.57
22.4236
-16.9626
1295.49
17.222
-25.3271
16.6551
-17.3469
746.017
579.219
-115.664
899.034
282.438
-204.48
1125.48
43.4997
396.434
1142.02
133.317
134.472
1131.72
155.558
154.34
1112.96
118.544
26.2041
1148.49
38.1699
13.6115
1150.3
64.398
-22.5355
1181.54
35.5779
-18.5809
1188.36
68.0488
-22.2101
1201.64
59.6035
-13.9782
1201.35
69.9798
-14.0424
1201.39
63.5309
-8.41793
1196.81
64.3863
-7.39478
1193.72
57.2072
-2.83494
1191.7
49.3362
-2.71397
1192.49
38.939
-2.37981
1194.69
21.0267
-2.32592
1200.26
13.3037
-4.38118
12.9551
-0.661201
1766.42
377.365
861.333
1670.69
337.051
183.758
1350.91
388.134
673.565
1276.29
219.054
249.415
1191.9
211.347
134.695
1131.34
165.194
36.989
1150.42
13.3399
25.8635
1138.91
71.1137
8.99338
1156.17
17.7809
-1.24641
1158.45
65.8813
0.251985
1171.33
44.7589
5.36064
1173.83
69.6909
2.64252
1177.7
60.4527
5.78085
1175.07
68.3802
-1.06396
1172.87
59.6754
0.998571
1171.26
51.4304
-0.345809
1172.66
37.122
1.3365
1174.08
19.2392
2.42454
1176.72
10.8684
3.57051
10.85
3.17969
247.191
-112.579
-106.002
849.366
-84.7409
87.5661
876.099
321.315
493.659
966.419
108.205
143.802
981.726
165.333
174.115
967.366
173.693
29.5655
1053.11
-73.7915
47.9541
1028.96
103.13
-11.0929
1056.83
-7.97499
-2.2946
1067.94
53.4265
-12.9544
1096.79
12.6006
-7.68813
1117.32
45.7527
-8.22572
1138.6
36.4236
-4.33417
1150.01
56.0893
-7.567
1157.2
50.9512
-3.82372
1162.09
45.6265
-0.996334
1165.09
33.0233
4.33379
1164.99
19.0573
7.05945
1163.06
13.1713
8.13945
12.3348
3.80362
-65.8907
-557.586
-795.072
437.561
-347.4
569.397
855.439
-36.595
615.378
932.873
-35.5306
281.655
1054.22
23.9153
168.321
963.904
243.994
79.5849
951.805
0.692857
13.6272
-32.7962
-1.51306
-31.3898
909.808
13.0058
-5.75314
53.4111
16.7907
53.0993
936.977
1.64682
-37.5839
-17.6722
-0.683178
-17.282
968.182
-6.83266
-4.45207
12.6637
-3.97942
16.0713
1017.73
-8.28737
-13.7002
-12.5941
-6.23338
-10.864
1055.73
-7.76914
0.190065
6.26918
-5.11207
9.6155
1088.83
-2.94145
-6.80039
1.40625
-1.2394
3.24313
1109.79
1.28072
-1.39591
13.3351
2.38874
14.6481
1122.37
36.3943
-3.32424
1128.01
38.3724
2.86041
1131.12
29.0822
5.98017
1130.22
20.2185
7.91414
1130.4
13.3139
7.48704
11.7355
3.84636
1838.54
-937.852
400.881
1384.51
-329.69
778.371
1144.35
-97.3402
751.717
1124.72
-58.3989
195.317
1130.66
-17.9962
155.933
260.358
51.7035
25.1831
264.183
252.054
255.405
107.611
58.7714
108.884
-8.72513
241.002
22.7306
6.04351
6.71854
-209.86
217.756
4.26016
-5.86886
3.61326
-228.631
232.184
-1.00348
-4.51525
7.55269
-226.694
238.273
-19.3379
-6.62732
3.66844
-247.902
256.65
-17.9828
-2.7217
-0.504368
-256.579
266.771
-19.1926
1.73585
0.261734
-271.897
278.483
-10.0662
0.277372
0.898881
-277.2
282.959
-4.8254
-0.551681
1126.78
1.04652
4.82244
-281.955
-285.193
-274.439
-276.58
9.87356
1.48026
10.5192
1124.63
38.8449
4.34896
1119.08
33.6985
8.12852
1112.01
27.1782
9.78197
1108.09
16.6565
7.47941
11.8334
2.62836
603.329
491.274
-3362.28
674.63
-74.4029
-358.371
766.311
-21.9161
5.81791
790.07
-86.3762
70.1327
219.194
-28.7688
96.06
205.865
214.465
201.525
-1.63897
248.664
17.5923
6.28024
-0.592794
-13.3648
-69.0234
67.1578
15.4722
0.350968
0.730036
-64.9216
-2.7742
65.6922
1.84959
-0.575979
0.393831
-68.811
0.230559
69.8858
-1.20455
-0.494648
1.04675
-68.8362
3.55953
69.2624
-3.89988
-1.13258
0.235811
-68.5206
4.56597
69.0808
-5.10209
-0.259905
0.0776623
-68.975
5.02898
70.048
-6.23302
0.0534427
-0.0137067
-71.3923
2.92167
72.6681
-4.32995
0.146171
0.499309
-72.8507
0.320868
73.8402
-1.37348
-0.436237
-73.9602
0.763724
296.684
-1.90916
0.0889161
-74.3114
-72.9743
-73.3347
1152.38
42.8598
10.2213
-292.824
-296.947
-284.807
-287.786
1137.43
45.907
11.6676
1122.73
40.0236
12.3721
1111.93
25.8553
11.2094
15.4919
4.8176
2054.29
728.036
-863.086
1494.6
81.9318
541.269
1165.97
65.2965
268.992
1083.58
-50.6777
84.3795
271.656
-34.8923
102.174
282.098
259.525
269.887
1.56284
-6.68419
280.321
0.461486
-4.00485
-0.0646445
-4.39324
-73.8299
75.8506
2.58809
-0.150854
0.0889242
-2.1164
-77.0955
77.2146
1.72697
0.181379
0.316692
-0.168002
-77.289
76.9513
0.5004
-0.311358
1.8608
0.847855
-75.651
75.2471
-0.180684
-2.12403
3.30847
2.90224
-74.9301
74.8571
-2.5967
-3.54104
0.746016
6.80874
-74.9454
75.0869
-7.21623
-0.479997
-1.37293
5.44475
-76.2902
76.642
-5.83898
1.4154
-0.185823
1.39371
-77.5389
77.646
-1.57872
0.263752
-77.9206
0.0728687
-3.02667
308.978
3.92468
0.707225
-78.5362
-76.7894
-77.4096
1196.67
55.4457
4.85285
-307.507
-311.505
-297.794
-300.783
1171.86
65.7503
11.0357
1147.51
62.1811
15.1247
1130.05
42.4666
12.588
23.1067
5.02642
1129.59
-1308.29
-1131.67
686.41
-266.881
288.412
802.356
-157.046
-314.546
807.969
-105.657
19.4415
230.575
-155.06
44.0839
253.599
218.391
238.386
-14.7836
3.91764
255.397
-26.5145
12.5584
-7.34224
0.936079
-71.9315
75.9501
-5.01485
7.40232
-3.64904
1.82158
-83.0678
84.1272
-4.00335
4.77139
-0.0295198
-0.229809
-85.2735
85.2726
-0.252069
0.512315
2.80381
-0.569808
-85.0077
84.908
0.608868
-2.74321
4.63458
2.87791
-85.1435
85.4658
-2.85348
-4.98133
0.423931
7.12036
-85.0335
84.0234
-6.39677
-0.137388
-4.23149
5.55688
-80.5257
79.8917
-4.85778
4.16642
-0.832647
1.74704
-79.412
79.5004
-1.64642
0.643646
-79.4697
1.63154
-7.01143
312.317
9.52772
-2.79912
-78.304
-78.4896
-77.402
1204.07
57.8028
0.0905995
-311.172
-304.057
-301.268
-296.228
1185.83
78.0668
8.99626
1163.99
80.0438
11.9075
1141.91
64.7031
3.901
35.6238
-6.93057
1079.16
-257.594
-19.4511
1192.06
-156.348
-405.688
1230.19
-120.981
-501.978
1287.6
-140.579
-174.071
336.489
-156.444
-114.894
338.988
320.803
325.727
13.2428
49.963
352.918
-59.9225
-19.7128
-3.00321
17.9353
-93.5981
96.7993
-19.9255
1.79213
-11.6804
10.1461
-97.685
96.0932
-9.39116
12.5172
-7.62621
2.31947
-93.7872
93.8062
-3.15356
8.44128
-1.49574
-1.36049
-92.8267
91.9208
1.94658
1.81555
-1.72946
1.81462
-89.3414
87.9116
-0.761208
2.10583
-4.11189
2.62011
-82.4005
79.964
-0.479342
4.40763
-2.98526
1.62354
-75.4994
74.442
-0.556164
2.97523
0.435314
0.970989
-73.1244
72.8443
-0.552158
-0.574098
-73.6144
2.94991
-9.48603
287.571
13.0328
-3.61509
-72.2681
-72.9196
-71.6507
1170.19
26.7417
-3.86611
-292.102
-284.691
-286.02
-279.427
1183.17
64.158
2.20761
1186.96
76.4392
3.40402
1177.16
74.3751
-5.58363
48.0778
-16.9941
264.711
-662.067
-625.356
598.192
-331.404
140.324
940.873
-334.597
19.1235
1079.46
-264.056
-37.4369
1189.54
-233.833
-107.123
304.001
-325.906
-76.8515
72.3141
100.883
70.1262
96.8526
302.711
292.732
291.966
18.5263
9.55043
303.959
-54.0388
-15.9049
12.7274
17.6395
11.5425
6.70156
-0.863296
-302.657
302.714
-22.2928
1.65759
5.0892
5.56899
4.08212
3.4083
-9.33337
-316.886
315.807
-6.18042
9.40381
1.0957
2.56257
0.122581
-2.61462
-11.8287
-309.057
297.811
23.0597
13.5717
-4.11845
-2.71502
-4.10812
-3.05452
-11.1568
-299.325
289.799
23.1816
12.7756
-4.69245
-2.93845
-4.58914
-3.43593
-9.0687
-282.754
273.474
22.7243
10.3434
-4.08762
-3.24057
-3.95492
-1.72841
-3.26553
-275.441
269.611
13.8519
2.90143
-2.12802
-1.64514
-2.15625
-0.601354
0.148752
-268.713
263.879
8.94327
-1.00444
-0.910907
-0.662074
-1.07983
1076.45
-2.74926
-11.0637
-8.84085
-1.78467
-10.1091
-2.66949
-266.407
-264.263
-261.336
-258.776
1115.4
-9.96087
-10.993
1160.56
18.1781
-4.51059
1196.45
39.7275
-3.76659
1212.72
55.4157
-7.80387
45.3034
-5.03978
636.417
-1121.51
661.446
1050.01
-500.974
74.9706
1405.85
-277.979
114.587
1420.58
-181.709
218.978
1346.94
-109.02
80.152
1218.63
-180.643
4.68038
1128.99
22.8726
-27.6043
36.3829
11.7662
29.0972
2.14731
1069.56
-74.7971
6.02875
28.0661
43.1078
23.0083
38.7722
1046.62
68.6392
-5.1353
3.41159
-19.3521
-4.73735
-21.2828
1044.55
38.2158
23.2062
-18.5213
-2.39063
-17.3805
-1.10771
1051.11
83.3736
8.03572
-23.5402
-22.9302
-22.4114
-21.727
1053.2
41.5695
-5.85981
-19.3866
-3.62281
-17.465
-2.16119
1053.67
35.1993
-16.9174
-12.7396
-6.37029
-11.9198
-6.02101
1051.98
-3.63328
-18.6835
-5.34481
6.64665
-5.12236
6.55674
1059.52
-11.3485
-9.87211
1074.38
-25.9857
0.348263
1107.76
-16.0661
1.00926
1147.86
-1.19857
-6.1074
1171.71
27.9482
-3.83508
33.7969
5.65025
402.481
-1592.56
-1527.85
396.19
-775.684
429.879
906.611
-581.259
51.7453
1026.32
-298.193
137.64
1101.96
-165.345
42.5855
1089.31
-167.208
29.8631
1124.47
-7.79187
40.6961
1092.3
-40.6583
22.1876
1099.26
59.3171
29.5681
1095.32
40.5987
9.2566
1108.01
71.681
-7.3613
1116.18
36.3109
-25.7262
1124.48
28.1172
-37.1369
1121.42
-2.18447
-33.0596
1112.02
-6.55848
-9.4377
1099.88
-15.6575
15.1841
1092.46
-7.02159
14.9573
1093.13
-3.47684
4.98888
1102.01
17.0493
0.0804665
25.0275
-0.362187
2027.94
89.691
-2503.09
1947.42
150.671
-762.682
1589.79
21.1322
-543.492
1437.62
-85.1287
-138.237
1362.72
-51.8216
-100.491
1314.12
-109.559
-44.7552
1274.07
28.4749
-23.7844
1226.16
9.21054
-6.70899
1195.65
84.9681
30.1295
1177.4
58.5754
14.4635
1173.61
74.4772
5.14246
1172.72
38.3745
-14.8809
1172.83
27.8067
-12.4722
1166.84
3.06335
-15.5401
1158.3
-0.0248254
-1.3612
1145.83
-3.28083
11.1205
1132.32
6.71953
24.9328
1121.24
7.17313
17.0801
1120.57
15.8834
9.192
18.8453
6.51129
1383.66
1198.95
-4415.75
1473.13
843.891
-1557.94
1375.06
444.674
-820.221
1271.05
99.587
-259.677
1217.78
31.2458
-111.725
1197.01
-86.2131
-51.7314
1203.99
17.6467
-32.3831
1195.28
11.5742
-22.2253
1200.16
73.922
6.61286
1198.09
59.705
2.57252
1202.59
68.4392
5.72878
1200.86
41.4401
-4.00932
1197.51
30.7401
2.32449
1188.76
12.786
2.33445
1181.9
9.37373
13.3096
1176.38
5.182
16.2579
1173.31
8.09658
20.2042
1171.18
8.3673
16.6193
1175.49
10.9339
16.2015
12.5446
13.1776
-158.67
895.523
4146.4
319.771
557.355
-78.008
766.133
285.835
-958.075
815.151
81.1829
-109.412
972.115
-88.8819
-190.557
997.096
-119.54
-59.4791
1090.54
-85.5194
-40.2106
1125.99
-32.1432
-23.2089
1169.61
22.4636
7.59592
1195.16
32.3371
5.98858
1217.77
43.2615
20.1389
1227.89
32.7812
14.4041
1231.88
27.1779
19.9386
1228.92
17.117
14.3561
1224.3
13.4916
17.5983
1220.41
9.85918
14.8058
1219.71
8.52634
16.9538
1220.65
7.26991
13.302
1225.77
5.84971
13.2197
6.73856
13.0297
757.496
1337.93
1222.38
1000.11
539.936
-852.472
1276.9
350.482
-756.698
1366.38
158.193
-300.214
1288.22
8.33397
-194.039
1239.23
-98.6751
-118.156
1220.16
-110.311
-53.0646
1222.2
-55.8688
-10.7331
1243.67
-17.9946
34.701
1262.27
4.52289
24.7791
1279.97
16.7508
28.5271
1289.81
20.2657
15.3711
1295.32
18.6596
15.4813
1296.75
16.0652
10.8738
1296.6
13.4621
13.1568
1296.57
11.9438
12.3221
1296.6
10.4685
12.8411
1297.1
10.6085
9.89286
1296.59
10.0473
7.95714
10.3457
0.15606
1403.24
-3611.8
1525.42
-436.85
1829.52
-227.115
1962.62
80.5128
1878.07
-22.2675
1741.08
-142.083
1581.65
-129.506
1524.71
-68.2304
1487.28
84.0687
1484.25
85.9714
1489.16
83.4838
1504.27
51.3375
1517.99
40.9204
1529.54
19.8077
1535.26
12.8895
1539.73
8.66546
1542.13
10.6491
1545.28
13.0478
1550.11
17.0103
17.0506
3658.22
215.042
713.562
3364.6
101.63
357.796
2863.08
86.438
793.521
2663.73
21.101
524.919
2442.42
93.746
493.498
2332.85
53.226
332.781
2202.87
92.3657
287.419
2122.75
76.0219
207.234
2038.54
96.8107
137.825
1986.73
79.935
81.4159
1938.31
77.9461
39.845
1900.03
65.0005
12.5407
1851.53
59.5496
15.2967
1803.49
52.3343
15.9039
1761.42
45.359
36.0363
1736.99
37.47
43.0492
1722.73
34.6825
34.0051
1708.02
27.553
16.5384
1672.57
34.4036
-10.6916
31.5008
-19.5758
1014.62
-764.357
111.547
1104.26
86.0713
142.99
1231.97
131.348
121.343
1189.89
160.03
-103.603
1278.44
127.076
-23.9539
1313.6
82.0013
-152.917
1369.21
85.6607
-140.16
1396.7
78.5766
-165.446
1421.59
90.4671
-127.447
1429.82
84.884
-115.162
1427.48
83.5118
-83.22
1415.95
73.1248
-70.7122
1399.21
65.7161
-47.3012
1382.21
57.7054
-36.0601
1367.23
51.3181
-17.5961
1357.86
43.603
-15.8826
1350.65
38.6866
-20.7276
1344.11
27.7613
-30.8814
1333.72
28.7573
-46.8361
23.5553
-40.392
1545.81
-896.428
-418.089
1232.98
-126.854
27.2495
1417.36
-30.375
355.202
1403.36
138.562
21.3824
1370.32
183.706
92.5668
1340.47
137.335
-2.56062
1317.76
129.471
6.23955
1294.83
106.485
-45.3043
1275.5
106.113
-43.4247
1255.3
96.2674
-50.976
1239.09
87.711
-38.241
1221.37
77.9626
-36.9208
1205.65
68.4683
-26.1455
1191.09
60.9427
-23.7471
1181.16
52.9671
-13.9189
1175.92
43.972
-11.4219
1174.26
36.5026
-10.5496
1173.94
22.5366
-11.4164
1175.1
20.2004
-17.9272
17.0894
-11.4042
1015.03
-527.134
2048.93
822.144
-9.82052
-128.625
935.574
-0.101768
252.731
957.942
130.184
120.482
1010.42
178.517
107.055
1007.99
148.074
17.8913
1062.27
83.0985
5.70109
1060.99
106.294
-21.0563
1091.06
72.031
-14.5773
1090.55
92.792
-18.2169
1100.58
74.301
-10.6069
1096.4
78.5176
-10.411
1095.99
65.7851
-5.32339
1091.42
63.0719
-4.95384
1090.29
52.6915
-1.43245
1089.93
43.4074
-1.79154
1092.3
33.2397
-1.48783
1094.77
19.2674
-1.52687
1098.97
15.1534
-3.53443
13.823
-0.47926
1820.65
-18.219
554.167
1533.91
142.231
318.443
1192.64
340.53
674.207
1128.92
218.814
224.5
1077.02
240.616
124.498
1026.98
193.855
41.2493
1060.46
47.3669
28.1122
1043.41
120.006
12.3318
1062.28
48.1665
3.74629
1056.37
97.6827
1.27186
1066.02
65.2536
4.75746
1064.06
82.0821
1.03969
1067.34
64.5378
3.74741
1064.49
66.147
-1.28973
1064.14
53.2527
0.79232
1063.9
43.6494
-0.348906
1067.03
30.0206
1.4216
1069.67
17.4206
1.63672
1073.32
12.8594
2.20876
12.3985
2.1322
-190.545
-308.238
-1486.39
402.392
-94.6633
-268.476
641.298
288.44
306.843
766.747
112.513
124.654
859.586
200.285
121.607
856.581
197.603
28.8219
967.051
-50.4598
35.3109
941.872
143.525
-9.43376
974.652
9.6304
3.46226
979.113
88.3002
-8.03346
1005.61
32.4198
-1.35152
1018.61
64.7089
-3.85322
1034.48
46.0646
-1.73288
1040.96
56.5172
-4.41672
1045.71
46.5927
-1.91636
1049.91
38.9664
-0.506605
1053.96
26.8184
3.48432
1056.31
17.1387
4.99547
1058.35
13.8818
5.07432
12.6755
2.236
-97.9695
-334.412
-2549.01
60.9129
-68.8241
384.675
635.938
48.4092
280.383
773.536
13.4079
243.163
934.776
92.3422
115.023
853.124
280.34
78.4997
868.688
-0.893229
8.00797
-28.1227
-3.78203
-27.6063
837.139
23.174
4.09095
57.0405
27.1691
57.8461
870.18
-0.272082
-29.5388
-15.2636
-1.24491
-14.6744
899.132
0.636024
3.96717
22.1201
2.91878
25.2541
942.379
-2.8315
-7.71601
-7.11804
-1.37986
-5.48273
972.779
-1.52408
5.25027
14.1038
0.407147
16.2625
999.813
0.802906
-2.22849
5.52396
1.80995
6.32117
1014.36
3.38648
1.72653
15.2224
3.9034
16.3382
1023.15
35.665
-1.18601
1026.82
35.0307
3.11819
1030.85
24.5163
4.25614
1032.91
17.9923
4.99885
1036.46
13.0891
4.73584
11.5228
2.51988
270.882
-1041.75
1753.32
593.378
-29.4327
416.484
844.828
3.24567
545.431
925.648
-15.3557
143.261
999.015
55.3495
119.558
227.656
70.4388
31.5766
230.753
219.992
222.641
113.926
73.6287
113.926
-7.10806
213.455
17.9227
2.49338
5.10106
-188.181
200.141
8.92383
-2.81078
5.93328
-211.816
215.881
-3.73437
-6.53589
5.53382
-210.187
221.084
-13.0165
-2.77821
2.29762
-230.932
238.685
-11.6142
-1.26758
-2.18656
-237.491
246.655
-11.5636
3.06128
-0.432269
-251.502
256.979
-4.99879
0.757021
0.368395
-255.333
260.203
-2.19962
0.347421
1028.68
1.824
9.40407
-258.604
-261.224
-250.642
-252.17
10.2719
1.98492
10.9601
1025.94
37.5427
4.58215
1023.56
28.6769
6.34814
1022.61
22.1881
6.53592
1023.79
14.3325
5.05556
10.4483
2.04322
283.146
-286.75
-1906.39
472.04
67.6238
-644.321
597.345
39.2564
-155.499
636.461
-40.426
56.0873
194.734
14.1511
30.5087
183.573
187.258
177.646
-11.4551
222.11
41.8728
12.6449
-1.06014
-12.3878
-61.0421
59.3181
14.6844
0.48756
0.144114
-57.1209
-2.33101
58.143
1.21786
-0.053064
0.750753
-61.8379
0.24714
62.8158
-1.15608
-0.819679
1.25594
-61.5455
2.85885
62.1823
-3.59422
-1.15738
0.482766
-62.577
3.22219
63.5047
-4.21963
-0.413028
-0.182211
-63.7451
3.05528
64.9432
-4.37006
0.298881
-0.146182
-66.0894
1.19758
67.3003
-2.46168
0.199329
0.303915
-67.2482
-0.437134
68.0904
-0.498353
-0.210627
-68.0414
-0.886462
272.185
-0.784527
2.056
-68.4003
-66.988
-67.3161
1045.94
43.7033
14.594
-267.394
-270.832
-258.281
-259.968
1035.56
39.9028
10.8268
1029.43
30.6973
9.98436
1027.21
19.3679
8.39578
11.7072
3.74639
1251.99
1348.72
-159.927
951.528
217.494
691.862
896.842
92.4686
270.466
855.551
-10.8356
96.0799
230.525
-11.5513
64.9745
240.148
219.469
228.312
-1.12592
-21.9773
241.131
10.5107
1.98626
-2.2712
-7.72478
-65.9099
68.3582
5.1278
2.41987
-0.880968
-1.72374
-70.1992
70.3128
1.45195
1.03916
0.345923
0.417057
-70.6334
70.5062
-0.271647
-0.364134
2.32999
1.65404
-69.883
69.5675
-1.24757
-2.42088
-69.0088
3.62163
3.53219
68.771
-3.51001
-3.40607
-68.8451