/*--------------------------------*- C++ -*----------------------------------*\
  =========                 |
  \\      /  F ield         | OpenFOAM: The Open Source CFD Toolbox
   \\    /   O peration     | Website:  https://openfoam.org
    \\  /    A nd           | Version:  10
     \\/     M anipulation  |
\*---------------------------------------------------------------------------*/
FoamFile
{
    format      ascii;
    class       volScalarField;
    location    "9.3";
    object      turbidity_0;
}
// * * * * * * * * * * * * * * * * * * * * * * * * * * * * * * * * * * * * * //

dimensions      [0 0 0 0 0 0 0];

internalField   nonuniform List<scalar> 
12920
(
-0.0121844
-0.0344252
-0.0562288
-0.0784395
-0.0996207
-0.120962
-0.139512
-0.156519
-0.172
-0.188132
-0.204076
-0.219137
-0.233008
-0.246201
-0.259669
-0.274999
-0.292415
-0.310019
-0.323832
-0.334803
-0.0143944
-0.0300454
-0.0482976
-0.0743577
-0.108917
-0.144626
-0.174665
-0.192239
-0.20707
-0.216604
-0.227107
-0.239219
-0.255702
-0.274999
-0.295555
-0.312299
-0.323266
-0.329366
-0.331448
-0.338223
-0.0111387
-0.0226374
-0.0413846
-0.0648012
-0.0951242
-0.132292
-0.166278
-0.187759
-0.201297
-0.209459
-0.219013
-0.230773
-0.248018
-0.270702
-0.301327
-0.336682
-0.37205
-0.404703
-0.432115
-0.458341
-0.00867398
-0.0285243
-0.0572406
-0.0957377
-0.132495
-0.17269
-0.210886
-0.238798
-0.263201
-0.281369
-0.300258
-0.319093
-0.342508
-0.370359
-0.404805
-0.443537
-0.485517
-0.527727
-0.562991
-0.589357
-0.010201
-0.0335726
-0.0610703
-0.0943299
-0.130934
-0.168051
-0.205635
-0.238998
-0.268084
-0.292729
-0.314907
-0.336163
-0.358641
-0.383846
-0.41305
-0.445802
-0.480974
-0.517095
-0.553198
-0.587368
-0.0263
-0.0463829
-0.0644494
-0.0927439
-0.124191
-0.161148
-0.195478
-0.225744
-0.250813
-0.274385
-0.296255
-0.317629
-0.340181
-0.3642
-0.391408
-0.422272
-0.455735
-0.492136
-0.531857
-0.57217
-0.0462624
-0.0629496
-0.0915559
-0.123377
-0.150095
-0.175271
-0.189416
-0.210637
-0.211668
-0.232378
-0.243594
-0.272147
-0.304621
-0.346492
-0.389123
-0.429043
-0.467723
-0.506872
-0.546333
-0.583686
-0.0491517
-0.0760451
-0.0902331
-0.108471
-0.131073
-0.159442
-0.16052
-0.157032
-0.160953
-0.141128
-0.133771
-0.129831
-0.135095
-0.153775
-0.197452
-0.255245
-0.305449
-0.349849
-0.392101
-0.435004
-0.0384801
-0.0606455
-0.0721655
-0.0959643
-0.123348
-0.122723
-0.134783
-0.124279
-0.114703
-0.109066
-0.109059
-0.106962
-0.104672
-0.100192
-0.111908
-0.15479
-0.20101
-0.245037
-0.288014
-0.332058
-0.0187689
-0.0443579
-0.0666787
-0.0915089
-0.116371
-0.115014
-0.108135
-0.0985439
-0.0984692
-0.102324
-0.0994632
-0.0912417
-0.0946641
-0.103172
-0.109804
-0.135242
-0.169569
-0.207891
-0.249462
-0.292699
-0.052271
-0.0548604
-0.0619424
-0.090076
-0.115739
-0.116713
-0.11512
-0.108979
-0.0998692
-0.0906918
-0.0816653
-0.0783414
-0.088294
-0.112834
-0.123835
-0.134465
-0.160115
-0.192771
-0.230233
-0.269365
-0.033841
-0.0558852
-0.055276
-0.0715494
-0.0907707
-0.0947123
-0.0998401
-0.105962
-0.110614
-0.100966
-0.0921321
-0.0916501
-0.110853
-0.140204
-0.147216
-0.160949
-0.175322
-0.195452
-0.219544
-0.246531
-0.0181863
-0.0521829
-0.0630491
-0.0759015
-0.0892023
-0.111656
-0.113896
-0.120558
-0.13333
-0.139072
-0.142751
-0.154127
-0.181418
-0.214857
-0.280041
-0.302022
-0.293506
-0.280736
-0.277487
-0.286394
-0.0221909
-0.0494861
-0.0704
-0.0916977
-0.114271
-0.137665
-0.1649
-0.200223
-0.228652
-0.252823
-0.271083
-0.29819
-0.331877
-0.375094
-0.420534
-0.454512
-0.463597
-0.446061
-0.4278
-0.422823
-0.0253388
-0.0561854
-0.0814114
-0.103464
-0.122756
-0.141212
-0.166326
-0.195282
-0.227785
-0.253291
-0.270388
-0.280909
-0.294245
-0.317384
-0.357892
-0.408662
-0.460707
-0.500105
-0.516362
-0.522243
-0.013077
-0.0453813
-0.063243
-0.0871647
-0.107352
-0.125808
-0.145911
-0.168552
-0.196241
-0.225025
-0.250121
-0.269052
-0.292944
-0.32458
-0.367822
-0.418456
-0.473429
-0.524512
-0.560119
-0.578928
-0.015317
-0.0349623
-0.0558202
-0.0850059
-0.112823
-0.137019
-0.16287
-0.18563
-0.210427
-0.235379
-0.260658
-0.287364
-0.319354
-0.35797
-0.402528
-0.451279
-0.500259
-0.545315
-0.582395
-0.609957
-0.0169796
-0.0577372
-0.0533971
-0.0863708
-0.109797
-0.14024
-0.173382
-0.200845
-0.227433
-0.252338
-0.278252
-0.307904
-0.342311
-0.38174
-0.424699
-0.469336
-0.513264
-0.554462
-0.591399
-0.623173
-0.0407608
-0.0459893
-0.0568156
-0.0722174
-0.0888052
-0.118938
-0.162919
-0.208447
-0.24472
-0.272941
-0.29938
-0.327781
-0.358469
-0.390552
-0.4225
-0.453054
-0.481183
-0.506243
-0.527378
-0.542948
-0.0296059
-0.030114
-0.0477948
-0.0676351
-0.0739551
-0.0842673
-0.109355
-0.147607
-0.190523
-0.234577
-0.272731
-0.302744
-0.326033
-0.345143
-0.362347
-0.380303
-0.401077
-0.425558
-0.45304
-0.481747
-0.00390933
-0.0133703
-0.0228411
-0.0278806
-0.0356978
-0.0459028
-0.0578579
-0.0673375
-0.0729835
-0.0741062
-0.0721861
-0.0696731
-0.0695601
-0.0734407
-0.0823581
-0.0932014
-0.100009
-0.0984353
-0.0905155
-0.084754
-0.0108099
-0.00918838
-0.0179012
-0.0187622
-0.0288147
-0.024968
-0.02526
-0.0250871
-0.0255124
-0.0260972
-0.0282282
-0.0313687
-0.035733
-0.0405574
-0.0455137
-0.0497167
-0.0534259
-0.057188
-0.0616518
-0.0675361
-0.00317329
-0.00548224
-0.00843808
-0.0109006
-0.0193605
-0.0209379
-0.0202505
-0.0175686
-0.016495
-0.0168265
-0.0187606
-0.0220798
-0.0270372
-0.0335913
-0.0419151
-0.051562
-0.0619283
-0.0725808
-0.0825499
-0.0928634
-0.00993013
-0.0249601
-0.0331491
-0.0278794
-0.0358096
-0.0328559
-0.0340085
-0.0312721
-0.0296895
-0.0290155
-0.0300117
-0.032468
-0.0365785
-0.0417513
-0.047862
-0.054419
-0.0614017
-0.0684774
-0.0755554
-0.0840044
-0.00490455
-0.019778
-0.0247644
-0.0219781
-0.0234772
-0.0224126
-0.027907
-0.0280724
-0.032476
-0.0366222
-0.0444616
-0.0499564
-0.057224
-0.0619231
-0.0680585
-0.0729417
-0.0781005
-0.0823803
-0.083993
-0.0821063
-0.0145435
-0.0190373
-0.0171922
-0.0202344
-0.0349646
-0.0323673
-0.0313921
-0.0256662
-0.0242248
-0.0263662
-0.0305058
-0.0363697
-0.0437867
-0.0528007
-0.063912
-0.0769356
-0.0919026
-0.101814
-0.101239
-0.0888915
-0.0260439
-0.0498539
-0.0444498
-0.0447971
-0.0389988
-0.0273249
-0.0172004
-0.0162006
-0.0188321
-0.0235085
-0.0291625
-0.0367414
-0.0461703
-0.0579021
-0.0717534
-0.0852842
-0.0955435
-0.0954818
-0.08569
-0.070083
-0.00417183
-0.0306762
-0.0295012
-0.0253082
-0.0249115
-0.0185475
-0.0241517
-0.0190977
-0.0190017
-0.023664
-0.0283414
-0.0325661
-0.0388946
-0.0500509
-0.0671453
-0.0783993
-0.0824924
-0.076363
-0.0623213
-0.0472518
-0.0109021
-0.0255352
-0.017061
-0.0180837
-0.0191897
-0.016844
-0.0195398
-0.0179327
-0.0176866
-0.0223803
-0.0423531
-0.0492903
-0.0409487
-0.0392322
-0.0532781
-0.064358
-0.0691464
-0.0652672
-0.0550193
-0.0422833
-0.00417006
-0.00809646
-0.014497
-0.019809
-0.0316404
-0.0284927
-0.0228889
-0.015497
-0.0149492
-0.0172365
-0.0250558
-0.0491774
-0.0705951
-0.0552191
-0.0425979
-0.0443628
-0.0507943
-0.0537098
-0.0511913
-0.0441529
-0.0148291
-0.00987077
-0.011442
-0.0224943
-0.044131
-0.054471
-0.0699653
-0.0663663
-0.03505
-0.0186099
-0.0183908
-0.0417798
-0.0835886
-0.0914887
-0.0559005
-0.0360229
-0.0396413
-0.0442468
-0.0458131
-0.0459525
-0.00479542
-0.00744229
-0.00876488
-0.0159421
-0.0283527
-0.0374207
-0.0552928
-0.0884778
-0.100666
-0.0812355
-0.0717091
-0.0878507
-0.0979557
-0.0782589
-0.0578683
-0.0415885
-0.0406313
-0.0419137
-0.0442448
-0.0476957
-0.0139668
-0.0205538
-0.0146606
-0.0134162
-0.0170545
-0.0245095
-0.0311326
-0.05377
-0.0761612
-0.0816335
-0.0719278
-0.062721
-0.0597669
-0.0615425
-0.0605735
-0.0569477
-0.0527799
-0.0507124
-0.0514899
-0.0556689
-0.0132348
-0.0294087
-0.0354132
-0.0309189
-0.0258914
-0.0241829
-0.030679
-0.0387552
-0.0446467
-0.0465496
-0.0443478
-0.0467827
-0.0545403
-0.0650122
-0.0742004
-0.0789569
-0.0767965
-0.0741993
-0.0767949
-0.0856622
-0.00885737
-0.0233631
-0.0271218
-0.0230157
-0.0224194
-0.0218754
-0.0311389
-0.0336843
-0.0370494
-0.0342709
-0.0351624
-0.0403383
-0.0512025
-0.0685544
-0.0915284
-0.111976
-0.110389
-0.0943173
-0.0813086
-0.0746715
-0.00507119
-0.00942114
-0.0103382
-0.0111668
-0.0136914
-0.0180938
-0.0252057
-0.0313783
-0.0378776
-0.0363981
-0.0373144
-0.0453495
-0.0604878
-0.0811941
-0.106868
-0.131032
-0.143142
-0.132931
-0.110824
-0.0896727
-0.00718901
-0.0113262
-0.00978284
-0.0113573
-0.0163911
-0.0235769
-0.0322586
-0.0390422
-0.045551
-0.0493998
-0.058281
-0.0732603
-0.0953323
-0.119646
-0.143677
-0.159953
-0.167901
-0.168003
-0.161462
-0.148299
-0.0184389
-0.00745529
-0.00694617
-0.0106752
-0.0156892
-0.0229489
-0.0322546
-0.0413444
-0.05396
-0.0668428
-0.0847423
-0.103573
-0.123847
-0.141125
-0.156686
-0.166764
-0.173014
-0.174936
-0.175877
-0.175225
-0.00843861
-0.00669379
-0.00672439
-0.00792613
-0.0108196
-0.0180254
-0.0304359
-0.0431821
-0.0585848
-0.0690472
-0.0825692
-0.0959975
-0.111382
-0.125207
-0.136042
-0.139287
-0.133941
-0.11997
-0.100755
-0.0791451
-0.0120316
-0.0119628
-0.0139838
-0.0145037
-0.0111362
-0.0114712
-0.0221891
-0.0432295
-0.0718339
-0.0898486
-0.0969981
-0.0947421
-0.0889821
-0.0792819
-0.0708096
-0.0665646
-0.0668537
-0.0703268
-0.0764034
-0.0811605
-0.0017174
-0.00548676
-0.0106153
-0.0140344
-0.0190447
-0.0262489
-0.0342225
-0.03919
-0.0394075
-0.0361994
-0.0323863
-0.0302954
-0.0312855
-0.0349635
-0.0405329
-0.0454367
-0.0473763
-0.0463518
-0.0447601
-0.0439342
-0.00613053
-0.00575782
-0.00887341
-0.00921905
-0.0113618
-0.0116793
-0.013616
-0.0145391
-0.0158878
-0.0170928
-0.0190269
-0.0214588
-0.0244249
-0.0273874
-0.0301022
-0.0320716
-0.033451
-0.0343231
-0.0351602
-0.0360966
-0.007763
-0.00643627
-0.00796185
-0.0093798
-0.0109527
-0.00988957
-0.00918985
-0.00916372
-0.0102797
-0.0120021
-0.0143357
-0.0169984
-0.0201034
-0.0234044
-0.0269584
-0.0303753
-0.0334867
-0.0361757
-0.0382581
-0.0401103
-0.0055122
-0.011326
-0.014089
-0.0122014
-0.0132769
-0.0111645
-0.0108361
-0.0109315
-0.0118909
-0.0132648
-0.0150948
-0.0169968
-0.0189656
-0.0207097
-0.0222592
-0.0234972
-0.0245955
-0.0255414
-0.0266827
-0.0281341
-0.00361159
-0.00956198
-0.0101158
-0.00851586
-0.00858718
-0.00861975
-0.0103906
-0.0117836
-0.0143459
-0.0166219
-0.0195995
-0.0218296
-0.0240813
-0.0252757
-0.0261243
-0.0261233
-0.0257445
-0.0248549
-0.0237092
-0.0226345
-0.0125272
-0.00938519
-0.00724132
-0.00910982
-0.0130705
-0.0113004
-0.0114716
-0.012256
-0.0150226
-0.0177698
-0.0211548
-0.0241755
-0.0273224
-0.0299447
-0.0321306
-0.0332914
-0.0333077
-0.0311571
-0.0271998
-0.0225808
-0.02878
-0.0316302
-0.0136046
-0.0156294
-0.0112882
-0.00908503
-0.0090619
-0.0119705
-0.0159935
-0.0202643
-0.0244982
-0.0282471
-0.0314048
-0.0336396
-0.0346631
-0.0338285
-0.0311152
-0.0264563
-0.0214948
-0.0174033
-0.00382524
-0.0184948
-0.0128817
-0.00925205
-0.00784055
-0.00711281
-0.00754264
-0.0109684
-0.014085
-0.0170502
-0.0215669
-0.0263182
-0.0316528
-0.0362313
-0.0337565
-0.0318955
-0.0277177
-0.0222355
-0.0173257
-0.0142063
-0.00499176
-0.0105781
-0.00571922
-0.00643814
-0.0064799
-0.00666304
-0.00705738
-0.00759677
-0.00894389
-0.0116951
-0.0156271
-0.0179461
-0.0223233
-0.0302063
-0.0362149
-0.0288301
-0.0257307
-0.021161
-0.0172406
-0.014905
-0.00408912
-0.00557491
-0.00739091
-0.0093025
-0.0130886
-0.0111946
-0.00934141
-0.00800321
-0.00849723
-0.0105595
-0.0150103
-0.0212558
-0.0219306
-0.0207305
-0.0233433
-0.0227538
-0.0233774
-0.0223115
-0.0206215
-0.0192234
-0.00378919
-0.0056201
-0.00774697
-0.0143927
-0.0240806
-0.0273114
-0.0333095
-0.027338
-0.0151191
-0.0112226
-0.013739
-0.0214603
-0.0271544
-0.0235877
-0.0190902
-0.0215648
-0.0250501
-0.0277612
-0.0293421
-0.0299301
-0.00188924
-0.00352163
-0.00545855
-0.0116504
-0.0215498
-0.0283282
-0.038991
-0.0583686
-0.0508736
-0.030196
-0.0250774
-0.0297066
-0.0313339
-0.0293145
-0.0257184
-0.0281771
-0.0309864
-0.0344603
-0.0376742
-0.0395586
-0.00384691
-0.0074203
-0.00596623
-0.00704107
-0.0108204
-0.0161824
-0.0203306
-0.0306228
-0.0338943
-0.0302434
-0.0272114
-0.0295476
-0.0335985
-0.0366163
-0.0384065
-0.0394878
-0.0410842
-0.0433756
-0.0460315
-0.048143
-0.00829563
-0.0161143
-0.0128454
-0.0116038
-0.0126536
-0.0152629
-0.0187735
-0.0205325
-0.0217055
-0.0237832
-0.0266712
-0.030456
-0.034245
-0.0376811
-0.0400711
-0.0414438
-0.0425669
-0.0440562
-0.0461237
-0.0475429
-0.00592808
-0.0151618
-0.0104076
-0.00990947
-0.0114844
-0.0134957
-0.0169047
-0.0180045
-0.0198599
-0.0220518
-0.0257541
-0.0305205
-0.0359477
-0.0413903
-0.0455669
-0.0466015
-0.0424713
-0.0373816
-0.0345959
-0.0332074
-0.00602132
-0.00981088
-0.0093362
-0.00945433
-0.0105665
-0.0126047
-0.0153637
-0.0178017
-0.0207855
-0.0243661
-0.02965
-0.0362958
-0.0432286
-0.0490042
-0.0535211
-0.0551757
-0.0527802
-0.0456295
-0.038514
-0.0338264
-0.00347089
-0.00687265
-0.00761141
-0.010128
-0.0140222
-0.0181076
-0.0213325
-0.0240843
-0.0274498
-0.0322576
-0.0391364
-0.0469055
-0.0549666
-0.0611519
-0.0656625
-0.0664474
-0.0649491
-0.0614262
-0.0572223
-0.0529285
-0.0197401
-0.00725968
-0.00588064
-0.00926809
-0.0129047
-0.0173075
-0.0217743
-0.0260348
-0.0320434
-0.0386416
-0.0471894
-0.0549973
-0.0623147
-0.0664806
-0.0687674
-0.0680468
-0.0665032
-0.0644641
-0.0636772
-0.0638951
-0.0146318
-0.00675618
-0.00414628
-0.00518268
-0.00737757
-0.0121002
-0.0189552
-0.0258698
-0.0332177
-0.0390272
-0.0455623
-0.0507665
-0.0550083
-0.0562395
-0.0547489
-0.0497129
-0.0428109
-0.035316
-0.0293845
-0.0258933
-0.0050291
-0.00474234
-0.00431415
-0.00424566
-0.00372299
-0.00472412
-0.0103544
-0.0209459
-0.0332173
-0.0384991
-0.0394693
-0.0370707
-0.0344419
-0.0317006
-0.0298465
-0.0287099
-0.0281154
-0.0277457
-0.0275636
-0.0271648
-0.0090874
-0.00921064
-0.00955769
-0.0112183
-0.015328
-0.0205205
-0.0242552
-0.0242979
-0.0215668
-0.0183912
-0.0168531
-0.0174155
-0.0197673
-0.0226599
-0.0252414
-0.0265933
-0.0263565
-0.0249534
-0.0231994
-0.0210653
-0.00513262
-0.00615514
-0.00821061
-0.00974904
-0.0116697
-0.0121458
-0.0127952
-0.0125411
-0.0126876
-0.0132312
-0.0144202
-0.0157639
-0.0170376
-0.0178155
-0.0181209
-0.0178871
-0.0173243
-0.0165025
-0.0157552
-0.0150288
-0.00781552
-0.009583
-0.0109275
-0.0105107
-0.00933568
-0.0079592
-0.00794473
-0.00848939
-0.00956642
-0.0107052
-0.0119427
-0.0129865
-0.0139192
-0.0146009
-0.0151158
-0.015404
-0.0155511
-0.0156424
-0.0157796
-0.0162091
-0.00696386
-0.00890493
-0.0102295
-0.00905196
-0.00803435
-0.00716875
-0.00749977
-0.00814456
-0.00906209
-0.0098778
-0.0106294
-0.0111555
-0.0115008
-0.0116677
-0.0117487
-0.0118049
-0.0119567
-0.0122382
-0.0127533
-0.0135056
-0.00509331
-0.00613894
-0.00660107
-0.00629274
-0.00643963
-0.00701527
-0.00845753
-0.00948069
-0.0108059
-0.0115913
-0.0123382
-0.012497
-0.0124692
-0.0120255
-0.011557
-0.0110438
-0.0107159
-0.0105421
-0.0106233
-0.0109528
-0.00447728
-0.00463227
-0.00480865
-0.005939
-0.00711993
-0.00801142
-0.00980296
-0.0111068
-0.0129329
-0.0138018
-0.0145489
-0.0145834
-0.0143241
-0.0136449
-0.0128269
-0.0119017
-0.0110573
-0.0101976
-0.00959035
-0.00938414
-0.0103876
-0.0111751
-0.00512253
-0.00657417
-0.00621967
-0.00739713
-0.00924907
-0.0115614
-0.0132463
-0.0145544
-0.0148371
-0.0148297
-0.0140849
-0.0132002
-0.0121155
-0.0109137
-0.00983756
-0.00899306
-0.00866502
-0.00883348
-0.00812954
-0.00986126
-0.00580302
-0.00471778
-0.00498949
-0.00634399
-0.00738895
-0.0112606
-0.0128098
-0.0141237
-0.015284
-0.0158567
-0.0153482
-0.0144428
-0.0105266
-0.00969004
-0.00897532
-0.00855821
-0.00860012
-0.009036
-0.00311565
-0.00399661
-0.00340166
-0.00414265
-0.00486397
-0.00593366
-0.00676736
-0.00793934
-0.00932787
-0.0104273
-0.0120339
-0.0134628
-0.0145358
-0.0144621
-0.011817
-0.00933053
-0.00929011
-0.00927583
-0.00952861
-0.00996763
-0.00173001
-0.00410166
-0.0051836
-0.00614735
-0.00742344
-0.00698292
-0.00680687
-0.00709283
-0.00825376
-0.0102729
-0.0124948
-0.0134766
-0.0130021
-0.0124793
-0.0105323
-0.0108749
-0.0117983
-0.0124734
-0.0131138
-0.0137171
-0.00363415
-0.00454313
-0.00629599
-0.00919787
-0.0120867
-0.0130777
-0.0144637
-0.0114686
-0.00953676
-0.0106174
-0.013778
-0.0174155
-0.0170209
-0.0137902
-0.0121775
-0.0161886
-0.0181265
-0.0191051
-0.0193647
-0.0193095
-0.000774468
-0.002359
-0.00425566
-0.00865584
-0.0138872
-0.0170266
-0.0221186
-0.0256617
-0.0168967
-0.013202
-0.0157794
-0.0205056
-0.0222516
-0.020912
-0.0200758
-0.026586
-0.0288311
-0.0293869
-0.0282081
-0.025845
-0.00378721
-0.00440114
-0.00433433
-0.00559839
-0.00808525
-0.0107371
-0.0124621
-0.0152817
-0.0155931
-0.0165962
-0.0192679
-0.0219572
-0.0243824
-0.0275589
-0.0307444
-0.03369
-0.0354906
-0.0356827
-0.0343454
-0.0315503
-0.0105513
-0.0139537
-0.0113656
-0.0090676
-0.00932538
-0.0108237
-0.0122433
-0.0138117
-0.0153639
-0.0171961
-0.0186061
-0.0197498
-0.0208081
-0.0217393
-0.0228082
-0.0235085
-0.0242694
-0.0244325
-0.024282
-0.0231929
-0.0114509
-0.0147516
-0.00959871
-0.0083899
-0.0095183
-0.0109343
-0.0125037
-0.0139236
-0.0157194
-0.0175343
-0.0190715
-0.0202678
-0.0209999
-0.0213327
-0.0212542
-0.0205811
-0.019193
-0.017993
-0.0174916
-0.0172555
-0.00269829
-0.00605733
-0.00756812
-0.00895766
-0.00995017
-0.0111363
-0.0127407
-0.0147995
-0.0171319
-0.0194935
-0.021523
-0.0230207
-0.0238877
-0.0240922
-0.0241368
-0.0236519
-0.0226708
-0.021249
-0.0202782
-0.0199252
-0.00268596
-0.00512382
-0.00675402
-0.00950018
-0.0120707
-0.0141779
-0.0157165
-0.0174266
-0.0196391
-0.0218702
-0.0242684
-0.0259028
-0.0272905
-0.0278004
-0.0282887
-0.0280978
-0.0279304
-0.0276018
-0.0273907
-0.0271987
-0.0130366
-0.00614185
-0.00555785
-0.00907513
-0.0119056
-0.0143227
-0.0163511
-0.0183288
-0.0211426
-0.0234289
-0.026131
-0.0274193
-0.028493
-0.0283265
-0.0284226
-0.0284077
-0.0291352
-0.0302333
-0.0317888
-0.0333845
-0.00860977
-0.00502082
-0.00397053
-0.00632879
-0.00959278
-0.0136544
-0.0175811
-0.0204009
-0.0231374
-0.0242071
-0.0248211
-0.0237377
-0.0223698
-0.0202137
-0.0184042
-0.0168127
-0.0161097
-0.016337
-0.0174915
-0.0194197
-0.00616036
-0.00412109
-0.00289058
-0.00357383
-0.00506674
-0.00810152
-0.0124796
-0.0160944
-0.0192734
-0.0200045
-0.0200244
-0.0191951
-0.0184514
-0.017605
-0.0169084
-0.0162501
-0.0156521
-0.0150394
-0.014474
-0.0140054
-0.00279777
-0.00753933
-0.00985062
-0.0122638
-0.0145641
-0.014972
-0.0140091
-0.012031
-0.0108718
-0.0110042
-0.0120878
-0.0130653
-0.0135937
-0.0133309
-0.0125087
-0.0113316
-0.0101812
-0.00950537
-0.00954322
-0.0101247
-0.00985581
-0.00730333
-0.00831729
-0.00890604
-0.00977529
-0.00936312
-0.00939723
-0.00950185
-0.00997399
-0.0103128
-0.0103785
-0.0100741
-0.00970461
-0.0093856
-0.00926897
-0.0093938
-0.00975803
-0.0103338
-0.0110305
-0.0117934
-0.0063265
-0.00775722
-0.00832081
-0.00715479
-0.00688866
-0.00695959
-0.00758294
-0.00805871
-0.00842983
-0.00852839
-0.00858506
-0.00867237
-0.00890843
-0.00928398
-0.00977141
-0.0103165
-0.0108606
-0.0113869
-0.0118513
-0.0122936
-0.0062702
-0.00871512
-0.00888219
-0.00741198
-0.00660646
-0.00664339
-0.00704641
-0.00732155
-0.0075315
-0.00765224
-0.00782721
-0.00808854
-0.00847362
-0.00893713
-0.00945117
-0.00995628
-0.0104297
-0.0108452
-0.0112166
-0.0115306
-0.00704194
-0.00596877
-0.00668269
-0.00624578
-0.00633887
-0.00680088
-0.00729827
-0.00750413
-0.00758647
-0.0075391
-0.00755588
-0.0076504
-0.00790658
-0.00827313
-0.00873359
-0.00922892
-0.00972457
-0.0101879
-0.0106114
-0.0109504
-0.00367817
-0.00348671
-0.00446497
-0.0053892
-0.00635537
-0.00722848
-0.00751723
-0.00760841
-0.00753982
-0.00737616
-0.00729336
-0.00732164
-0.00752221
-0.00786686
-0.00833148
-0.00886781
-0.0094421
-0.0100224
-0.0105835
-0.0110415
-0.00239944
-0.00364704
-0.0039725
-0.00482779
-0.00580584
-0.00675772
-0.00687451
-0.007125
-0.0068937
-0.00702835
-0.00692233
-0.00710718
-0.00731824
-0.00771715
-0.00822477
-0.00881391
-0.00947204
-0.0101725
-0.0108703
-0.0114511
-0.0116992
-0.00529356
-0.00357358
-0.0039961
-0.0049782
-0.00615691
-0.0064976
-0.0071227
-0.00688496
-0.0069402
-0.00673649
-0.00674699
-0.00675145
-0.00702956
-0.00822318
-0.00880233
-0.00941913
-0.0100592
-0.0106785
-0.0111848
-0.000705886
-0.00237895
-0.0029832
-0.00388694
-0.00489415
-0.00589106
-0.00633832
-0.00676486
-0.00705387
-0.00702459
-0.00649243
-0.00605299
-0.00605431
-0.00637799
-0.00734699
-0.00899671
-0.00949465
-0.00997228
-0.0104124
-0.0107665
-0.0011423
-0.00375887
-0.00456215
-0.00525253
-0.00595924
-0.00609461
-0.00638293
-0.00704121
-0.00838408
-0.00946683
-0.00916527
-0.00749947
-0.0066313
-0.0069796
-0.0086628
-0.0105664
-0.0110347
-0.0113461
-0.0115425
-0.0116753
-0.00113847
-0.00411547
-0.00565256
-0.0069305
-0.00781508
-0.00814496
-0.00847537
-0.00869611
-0.00988468
-0.0118538
-0.0135707
-0.0126096
-0.0100485
-0.00961432
-0.0112394
-0.0125057
-0.012765
-0.0128178
-0.0128433
-0.0129399
-0.00107036
-0.00215624
-0.00429838
-0.00738773
-0.00921323
-0.0102249
-0.0109909
-0.0106881
-0.0108904
-0.0126054
-0.0146635
-0.0151528
-0.0144568
-0.0145908
-0.0159306
-0.0148349
-0.0138473
-0.0128957
-0.0123122
-0.0120958
-0.00651569
-0.00410107
-0.00310152
-0.0053046
-0.00773355
-0.00919821
-0.00972371
-0.0106892
-0.0115033
-0.0126132
-0.0135089
-0.014926
-0.0167319
-0.0188444
-0.0156044
-0.0151341
-0.0142957
-0.0133082
-0.0125024
-0.0119091
-0.00643929
-0.00755603
-0.00732575
-0.00724401
-0.0083532
-0.00933726
-0.00996522
-0.0105848
-0.0108885
-0.0111354
-0.0112242
-0.0112293
-0.0113188
-0.0112834
-0.0113219
-0.0111008
-0.0109457
-0.0107759
-0.0107121
-0.0106559
-0.0215757
-0.0166883
-0.00997264
-0.00820424
-0.00887596
-0.00974629
-0.0103528
-0.0109083
-0.0112176
-0.0113865
-0.0113547
-0.011306
-0.0111271
-0.010897
-0.010623
-0.0103177
-0.0100077
-0.00981847
-0.00982349
-0.00999894
-0.00188745
-0.00585298
-0.00701566
-0.00829747
-0.00933615
-0.0102441
-0.0110214
-0.0116921
-0.0121482
-0.0123731
-0.0124102
-0.0124266
-0.0122745
-0.0120997
-0.0118862
-0.0115916
-0.0112463
-0.010877
-0.0106989
-0.0107828
-0.000366504
-0.0024077
-0.00578457
-0.00889017
-0.0101619
-0.0109142
-0.0115719
-0.0121562
-0.0128382
-0.0132593
-0.0137016
-0.013956
-0.0141544
-0.0141702
-0.0141054
-0.0138287
-0.0134661
-0.0130131
-0.0126585
-0.0125539
-0.00313089
-0.00270027
-0.00528909
-0.00851281
-0.00990456
-0.01063
-0.011228
-0.0117864
-0.0126483
-0.0131508
-0.0140437
-0.0146266
-0.0154792
-0.0160813
-0.0166732
-0.0169942
-0.0171484
-0.0170591
-0.0169213
-0.0168623
-0.00184272
-0.00234306
-0.00487178
-0.00831109
-0.0103077
-0.0116746
-0.0123929
-0.0120744
-0.0118724
-0.0110851
-0.0110566
-0.0113164
-0.0124129
-0.013933
-0.0158273
-0.017873
-0.0199625
-0.0220282
-0.0239839
-0.0257156
-0.00417302
-0.00248665
-0.0032534
-0.00541589
-0.00763382
-0.00986971
-0.0117108
-0.0122484
-0.0126305
-0.0121059
-0.0115208
-0.0106179
-0.00990794
-0.00932732
-0.00919257
-0.00955366
-0.0105722
-0.0122945
-0.014751
-0.0178122
-0.0136013
-0.0104895
-0.0122934
-0.0103327
-0.0121953
-0.0105645
-0.0125978
-0.0198978
-0.0134853
-0.0188934
-0.0128328
-0.0143123
-0.0135856
-0.0164948
-0.0125975
-0.0228309
-0.0198261
-0.0107884
-0.0127066
-0.0134611
-0.0143598
-0.019045
-0.0207281
-0.026204
-0.0137164
-0.0170105
-0.0153006
-0.0191326
-0.127691
-0.11026
-0.102539
-0.132022
-0.120914
-0.100302
-0.0922835
-0.11732
-0.101274
-0.0999682
-0.113298
-0.10047
-0.0911386
-0.0882458
-0.109745
-0.100203
-0.102763
-0.0978581
-0.0902513
-0.0856704
-0.0741319
-0.109147
-0.10379
-0.104468
-0.089993
-0.0984914
-0.0714487
-0.0682333
-0.107636
-0.10333
-0.0974747
-0.101361
-0.104703
-0.0687672
-0.0796148
-0.10542
-0.0959309
-0.096744
-0.103911
-0.0957251
-0.0856173
-0.101226
-0.101248
-0.098566
-0.102912
-0.0918168
-0.0815409
-0.104178
-0.102828
-0.101503
-0.10308
-0.100225
-0.0801082
-0.0847312
-0.0999312
-0.0919116
-0.0999562
-0.11093
-0.103238
-0.099335
-0.0879637
-0.107588
-0.101539
-0.0978116
-0.101157
-0.0967134
-0.0857039
-0.080758
-0.0988221
-0.0824874
-0.101543
-0.0957521
-0.0931719
-0.077437
-0.0627352
-0.0736967
-0.0467987
-0.101222
-0.0919033
-0.086194
-0.058272
-0.0504525
-0.0399851
-0.0290047
-0.0928589
-0.08413
-0.0799443
-0.0505268
-0.0636856
-0.028852
-0.0423698
-0.0922508
-0.0796469
-0.0840465
-0.0717679
-0.0953456
-0.0518014
-0.0848796
-0.102031
-0.0883188
-0.10427
-0.101223
-0.107748
-0.0954151
-0.117404
-0.102096
-0.108086
-0.110395
-0.1064
-0.0986127
-0.120454
-0.116764
-0.110811
-0.107696
-0.107511
-0.112578
-0.110107
-0.105634
-0.105807
-0.102271
-0.108398
-0.107767
-0.108222
-0.0935126
-0.107183
-0.110345
-0.0929794
-0.105769
-0.0973483
-0.0843739
-0.0527461
-0.109534
-0.0989917
-0.083669
-0.0946351
-0.0880773
-0.0445992
-0.0319464
-0.0936221
-0.0826188
-0.078378
-0.0864756
-0.084426
-0.0318164
-0.0459761
-0.0825365
-0.0884704
-0.0834183
-0.0845975
-0.0915897
-0.0551921
-0.0874854
-0.092062
-0.112192
-0.107879
-0.0987025
-0.125844
-0.0983762
-0.122344
-0.121179
-0.13708
-0.11648
-0.132192
-0.135822
-0.125967
-0.123432
-0.135832
-0.124949
-0.103854
-0.105183
-0.1092
-0.0972864
-0.10226
-0.102285
-0.106962
-0.110925
-0.111049
-0.119626
-0.104635
-0.112205
-0.109212
-0.118278
-0.103781
-0.122522
-0.123918
-0.113526
-0.110599
-0.121184
-0.1247
-0.093737
-0.121244
-0.114146
-0.108084
-0.101553
-0.123642
-0.118905
-0.0908081
-0.112097
-0.111958
-0.100376
-0.101641
-0.117437
-0.12025
-0.103339
-0.11403
-0.131111
-0.104554
-0.123636
-0.124065
-0.143308
-0.134904
-0.139368
-0.170371
-0.131376
-0.142451
-0.150102
-0.164242
-0.142164
-0.179346
-0.200888
-0.139993
-0.12751
-0.165699
-0.167404
-0.0189496
-0.0145389
-0.0141762
-0.0128528
-0.0109942
-0.0105235
-0.00999568
-0.0175083
-0.0143364
-0.0157837
-0.0109082
-0.0119327
-0.0101926
-0.0111243
-0.0195723
-0.0155551
-0.0167593
-0.0123737
-0.0145123
-0.0114194
-0.0127414
-0.0374892
-0.0183838
-0.0267022
-0.0156767
-0.0196468
-0.0135345
-0.0171488
-0.0495027
-0.0306235
-0.0474898
-0.0207119
-0.0227328
-0.0187292
-0.0237578
-0.0431522
-0.0542595
-0.0656208
-0.0231812
-0.0252455
-0.0250722
-0.0261903
-0.0382311
-0.0641615
-0.0507947
-0.0265395
-0.0327545
-0.0258997
-0.0259532
-0.0473976
-0.046742
-0.0426879
-0.0353432
-0.0446179
-0.0267006
-0.0311566
-0.0163995
-0.0436778
-0.0465029
-0.0183873
-0.0134051
-0.0293881
-0.0266695
-0.0148673
-0.0425153
-0.0261352
-0.0128226
-0.0121202
-0.0248876
-0.0182891
-0.016259
-0.0221532
-0.0161714
-0.0119695
-0.0121579
-0.0162045
-0.0123072
-0.0222667
-0.0154261
-0.015813
-0.0126131
-0.0155528
-0.0119244
-0.0131017
-0.0411073
-0.0171692
-0.0304974
-0.0171297
-0.0232433
-0.0143296
-0.0212871
-0.069067
-0.0397031
-0.0721912
-0.0252572
-0.0279162
-0.0246968
-0.0327896
-0.0603545
-0.080217
-0.0883463
-0.0275444
-0.0258358
-0.0333514
-0.0304362
-0.0457317
-0.0863261
-0.0716635
-0.0257934
-0.0281327
-0.0289011
-0.0250362
-0.0707088
-0.0699859
-0.0884372
-0.0504875
-0.042094
-0.0565977
-0.0643521
-0.0430301
-0.0929723
-0.096839
-0.0383586
-0.0260946
-0.0656837
-0.0589659
-0.0207417
-0.0934491
-0.0688854
-0.0223659
-0.0148778
-0.0533724
-0.0360248
-0.0171419
-0.0596572
-0.0466554
-0.0137941
-0.0139679
-0.0318693
-0.0263238
-0.0323023
-0.0481757
-0.0658076
-0.0150588
-0.021906
-0.0265379
-0.0320883
-0.0752039
-0.0733811
-0.0936687
-0.0254082
-0.0339197
-0.0345834
-0.0381879
-0.0929448
-0.0965986
-0.0869324
-0.034573
-0.0316257
-0.0378053
-0.0346207
-0.0788358
-0.0814828
-0.0712463
-0.0300014
-0.025584
-0.0332881
-0.0290511
-0.0814814
-0.0397016
-0.0564044
-0.049626
-0.063708
-0.0383722
-0.0488785
-0.100421
-0.0650191
-0.0849505
-0.0671617
-0.0669755
-0.0526576
-0.0581541
-0.0879081
-0.0905227
-0.0977477
-0.0630745
-0.046193
-0.0580054
-0.0512562
-0.0704797
-0.0977147
-0.0932764
-0.0410782
-0.0328152
-0.0478174
-0.0390087
-0.0832503
-0.0918324
-0.0870416
-0.0324983
-0.0360252
-0.0367652
-0.0340372
-0.0982123
-0.0857808
-0.0796614
-0.0373258
-0.0385529
-0.0347286
-0.0408908
-0.0833959
-0.0771622
-0.0679856
-0.0383616
-0.0366871
-0.0432458
-0.0477169
-0.0703781
-0.0672736
-0.0679461
-0.0356945
-0.0318567
-0.0481955
-0.0478471
-0.00742987
-0.00651222
-0.00679918
-0.00669823
-0.00743208
-0.00622316
-0.00664536
-0.00860346
-0.00692615
-0.00764333
-0.00784622
-0.00928108
-0.00691417
-0.00793924
-0.0107551
-0.00802405
-0.00982993
-0.00956259
-0.0105227
-0.0083317
-0.00971159
-0.0147911
-0.0106998
-0.0141559
-0.01099
-0.0128424
-0.0102498
-0.0119635
-0.017395
-0.0155506
-0.0195577
-0.0134918
-0.0157768
-0.0125071
-0.0137938
-0.0208252
-0.0204343
-0.0207467
-0.0166343
-0.0194483
-0.0140987
-0.0149734
-0.0281808
-0.0204614
-0.0209116
-0.020233
-0.0221103
-0.0153432
-0.0165771
-0.0363108
-0.0217782
-0.0261591
-0.0224866
-0.023501
-0.0169539
-0.0178544
-0.00814975
-0.0168767
-0.0178479
-0.00819212
-0.00758065
-0.0122225
-0.011391
-0.00823025
-0.0166728
-0.0121561
-0.00768263
-0.00830562
-0.0109154
-0.00979192
-0.00987307
-0.0111108
-0.0101936
-0.00859183
-0.00980052
-0.00963491
-0.0100344
-0.0109571
-0.0113938
-0.0103349
-0.0104172
-0.011025
-0.0111096
-0.0103313
-0.0150179
-0.0166015
-0.0143419
-0.0139045
-0.015965
-0.0150582
-0.0137337
-0.022414
-0.0211754
-0.0261057
-0.0145729
-0.0148234
-0.0171871
-0.0175706
-0.0205959
-0.026277
-0.0238553
-0.0148986
-0.0154625
-0.0171948
-0.015473
-0.0233
-0.0227225
-0.0201756
-0.0157317
-0.0165522
-0.0149516
-0.0142104
-0.0300785
-0.0427494
-0.054402
-0.0218582
-0.0161075
-0.0317736
-0.0311949
-0.0177165
-0.0555417
-0.0474209
-0.0145896
-0.0113764
-0.0294844
-0.0213081
-0.0114129
-0.041906
-0.0262056
-0.0107876
-0.0104112
-0.0186388
-0.0139526
-0.0121092
-0.0113603
-0.013016
-0.0110074
-0.0127501
-0.011217
-0.0120901
-0.0158534
-0.0152095
-0.0150013
-0.0136547
-0.0167641
-0.0150034
-0.0143708
-0.026884
-0.028111
-0.0308244
-0.0179436
-0.0189345
-0.0203976
-0.0228525
-0.0247618
-0.0306193
-0.0283038
-0.0186456
-0.0166686
-0.0230352
-0.0217944
-0.020588
-0.0273368
-0.0242903
-0.0159359
-0.0145217
-0.0210574
-0.0189601
-0.0551405
-0.0271712
-0.0365925
-0.0332523
-0.0352933
-0.0256381
-0.0278053
-0.0554453
-0.0404233
-0.0443957
-0.0340725
-0.0255464
-0.0273302
-0.0235326
-0.0344494
-0.043964
-0.0377015
-0.0223161
-0.015817
-0.0219631
-0.0181718
-0.0248029
-0.0350961
-0.0290757
-0.0149196
-0.0153382
-0.0175026
-0.0183656
-0.0285528
-0.0280325
-0.0280238
-0.016246
-0.0201205
-0.0193674
-0.0240808
-0.0313837
-0.0290423
-0.0327554
-0.0214832
-0.024502
-0.0258385
-0.0299881
-0.0299913
-0.0337156
-0.0356193
-0.0248611