/*--------------------------------*- C++ -*----------------------------------*\
  =========                 |
  \\      /  F ield         | OpenFOAM: The Open Source CFD Toolbox
   \\    /   O peration     | Website:  https://openfoam.org
    \\  /    A nd           | Version:  10
     \\/     M anipulation  |
\*---------------------------------------------------------------------------*/
FoamFile
{
    format      ascii;
    class       volScalarField;
    location    "9.3";
    object      turbidity;
}
// * * * * * * * * * * * * * * * * * * * * * * * * * * * * * * * * * * * * * //

dimensions      [0 0 0 0 0 0 0];

internalField   nonuniform List<scalar> 
12920
(
-0.0121698
-0.0341175
-0.0558664
-0.0780709
-0.0993245
-0.12072
-0.139372
-0.156427
-0.171909
-0.187996
-0.203939
-0.219039
-0.23296
-0.24618
-0.25963
-0.274883
-0.292227
-0.30984
-0.323791
-0.334843
-0.0142417
-0.0298953
-0.0480359
-0.0738858
-0.10822
-0.144037
-0.174259
-0.192045
-0.206982
-0.21664
-0.227128
-0.23917
-0.255529
-0.274753
-0.295316
-0.312203
-0.32333
-0.329527
-0.331604
-0.338229
-0.0112942
-0.0224317
-0.0409634
-0.0641632
-0.0943316
-0.131425
-0.165655
-0.187554
-0.201302
-0.20956
-0.219061
-0.230745
-0.247847
-0.270378
-0.300822
-0.336085
-0.371479
-0.404191
-0.431694
-0.457987
-0.00865073
-0.027969
-0.0564496
-0.0950659
-0.13201
-0.172243
-0.210511
-0.238595
-0.263055
-0.281351
-0.300228
-0.319021
-0.342318
-0.37004
-0.40433
-0.442953
-0.484862
-0.527102
-0.56255
-0.589149
-0.00991956
-0.0324361
-0.0599151
-0.0935784
-0.130374
-0.167605
-0.205221
-0.238691
-0.267866
-0.292619
-0.314849
-0.336123
-0.358565
-0.383694
-0.412799
-0.445467
-0.480583
-0.516681
-0.552783
-0.587001
-0.0254844
-0.0460435
-0.0643274
-0.0925606
-0.123959
-0.160848
-0.195233
-0.225562
-0.25069
-0.274266
-0.296151
-0.317548
-0.340087
-0.364071
-0.391209
-0.421994
-0.455396
-0.491711
-0.531344
-0.571651
-0.0458436
-0.0630333
-0.0912264
-0.123131
-0.149947
-0.175199
-0.189514
-0.210637
-0.21186
-0.232282
-0.243533
-0.271788
-0.304143
-0.345913
-0.388572
-0.428564
-0.467266
-0.506404
-0.545866
-0.583277
-0.0494145
-0.075512
-0.0901197
-0.108411
-0.130964
-0.159268
-0.160524
-0.157108
-0.161181
-0.141406
-0.13393
-0.129891
-0.134921
-0.153212
-0.196624
-0.254439
-0.304812
-0.349336
-0.391624
-0.434524
-0.0374483
-0.0601661
-0.0723049
-0.0959219
-0.123256
-0.122801
-0.134838
-0.124562
-0.114899
-0.109075
-0.109015
-0.106956
-0.104704
-0.100273
-0.111646
-0.154238
-0.200421
-0.244512
-0.287512
-0.331545
-0.0178447
-0.0437552
-0.0664304
-0.0912961
-0.116199
-0.115127
-0.10842
-0.0986589
-0.0983668
-0.102201
-0.0995729
-0.0913201
-0.0943359
-0.103017
-0.109885
-0.135011
-0.1692
-0.207443
-0.248955
-0.292173
-0.0535066
-0.0548034
-0.0619034
-0.0898737
-0.11553
-0.116676
-0.115167
-0.109149
-0.100112
-0.0909109
-0.0818426
-0.0783212
-0.087723
-0.112318
-0.124047
-0.134519
-0.159964
-0.192458
-0.229819
-0.268899
-0.0334428
-0.055868
-0.0554363
-0.0714752
-0.0905861
-0.0945598
-0.0997096
-0.10567
-0.110649
-0.101277
-0.0923094
-0.0915443
-0.110044
-0.13969
-0.147556
-0.161222
-0.175446
-0.195438
-0.219432
-0.24632
-0.0191308
-0.0521329
-0.0633983
-0.0762159
-0.0894578
-0.111675
-0.113914
-0.120522
-0.133216
-0.13899
-0.142662
-0.153742
-0.180717
-0.214136
-0.279501
-0.302104
-0.294134
-0.281384
-0.277904
-0.28657
-0.0225131
-0.0491431
-0.0699575
-0.0913719
-0.114001
-0.137448
-0.164591
-0.199784
-0.228418
-0.252691
-0.270987
-0.297902
-0.331399
-0.374418
-0.419885
-0.454174
-0.463873
-0.446841
-0.428476
-0.42325
-0.0247503
-0.0556471
-0.081024
-0.10324
-0.122638
-0.141108
-0.166084
-0.194922
-0.227425
-0.253139
-0.270427
-0.281046
-0.294267
-0.317123
-0.357262
-0.407854
-0.459913
-0.49966
-0.516399
-0.522473
-0.0119011
-0.0436997
-0.0625864
-0.0866422
-0.107077
-0.125695
-0.145758
-0.168352
-0.195902
-0.224697
-0.249947
-0.268986
-0.292741
-0.324142
-0.367134
-0.417604
-0.4725
-0.523736
-0.559729
-0.578921
-0.0160198
-0.0346163
-0.0552559
-0.0843897
-0.11236
-0.136744
-0.162582
-0.185429
-0.210212
-0.235162
-0.260431
-0.287085
-0.318936
-0.357384
-0.401803
-0.450469
-0.499466
-0.544644
-0.581934
-0.60973
-0.0167529
-0.0579144
-0.0533411
-0.0861017
-0.109472
-0.139794
-0.172934
-0.200571
-0.227227
-0.252144
-0.278008
-0.307549
-0.341824
-0.381127
-0.424006
-0.468617
-0.51258
-0.55386
-0.590913
-0.62282
-0.0417193
-0.0458474
-0.0567206
-0.0721441
-0.0885917
-0.118297
-0.161882
-0.207518
-0.244187
-0.272638
-0.29911
-0.327453
-0.358081
-0.390136
-0.422097
-0.452699
-0.480899
-0.506046
-0.527293
-0.543025
-0.0298676
-0.0303055
-0.0476408
-0.0675265
-0.0741191
-0.0841877
-0.108718
-0.146628
-0.189511
-0.233612
-0.272021
-0.302318
-0.325825
-0.345066
-0.362319
-0.380233
-0.400898
-0.425254
-0.452642
-0.481319
-0.00376298
-0.0129628
-0.0226103
-0.0278767
-0.0355894
-0.0456726
-0.0575754
-0.0671457
-0.0729478
-0.0742497
-0.072425
-0.0699061
-0.0696761
-0.0733784
-0.0821249
-0.0929491
-0.0999463
-0.0986406
-0.0908024
-0.08496
-0.0104628
-0.00933558
-0.0178317
-0.0188117
-0.0288478
-0.0250349
-0.0252298
-0.0250599
-0.0254808
-0.0260682
-0.0281707
-0.0312749
-0.0356035
-0.0404138
-0.0453759
-0.049605
-0.0533229
-0.057068
-0.0614959
-0.0673363
-0.00342097
-0.00541337
-0.00834749
-0.010812
-0.019173
-0.0209569
-0.0203575
-0.017636
-0.01652
-0.0168165
-0.0187125
-0.0219951
-0.0269099
-0.0334208
-0.041699
-0.0513105
-0.0616551
-0.0722962
-0.0822701
-0.0925763
-0.00962374
-0.0247403
-0.0333197
-0.0281696
-0.0358829
-0.0329723
-0.0340116
-0.0313141
-0.0297072
-0.0290129
-0.0299743
-0.0323974
-0.0364723
-0.0416215
-0.0477146
-0.0542641
-0.0612394
-0.0683134
-0.0753892
-0.0838101
-0.00471345
-0.0193319
-0.0250998
-0.0224365
-0.0236942
-0.0225212
-0.0278776
-0.0280862
-0.0323848
-0.0365278
-0.0443055
-0.049841
-0.0570795
-0.0617981
-0.0679107
-0.072817
-0.077981
-0.0822974
-0.0839893
-0.0821762
-0.0144311
-0.0192491
-0.0177001
-0.0203793
-0.0349306
-0.0324565
-0.0315143
-0.0257781
-0.0242484
-0.0263281
-0.0304247
-0.0362567
-0.0436366
-0.0526091
-0.0636669
-0.0766402
-0.091581
-0.101637
-0.101322
-0.0892004
-0.0266226
-0.0499461
-0.0449721
-0.0450918
-0.0394238
-0.0277454
-0.0174301
-0.0162296
-0.0187855
-0.0234253
-0.0290551
-0.03659
-0.0459724
-0.0576495
-0.071448
-0.0849914
-0.0953533
-0.0955502
-0.08598
-0.0704657
-0.00422103
-0.0301675
-0.0300043
-0.0256205
-0.0251695
-0.0187553
-0.0241313
-0.019196
-0.0189621
-0.0235622
-0.0282685
-0.032503
-0.0387436
-0.0497698
-0.0668489
-0.0781634
-0.0824367
-0.0765524
-0.0626758
-0.0475947
-0.0103059
-0.0252174
-0.0173024
-0.0181705
-0.0194861
-0.0169934
-0.0194227
-0.0180433
-0.0177083
-0.0221418
-0.0419314
-0.0493612
-0.041205
-0.0391452
-0.0528934
-0.0641258
-0.0690659
-0.0653935
-0.0552901
-0.0425824
-0.0040641
-0.0079958
-0.0143169
-0.0197482
-0.0315939
-0.0286399
-0.0231338
-0.0155978
-0.0149438
-0.0171351
-0.0247482
-0.0483461
-0.0705237
-0.0557735
-0.0425793
-0.0442325
-0.0506695
-0.0536885
-0.051295
-0.044329
-0.0147729
-0.00995692
-0.011379
-0.0222876
-0.0437779
-0.0542027
-0.0699367
-0.0671831
-0.0360403
-0.0188685
-0.0182819
-0.0408426
-0.0828478
-0.0916666
-0.0562994
-0.0360756
-0.0395757
-0.0441726
-0.0457951
-0.0459463
-0.00484831
-0.00745365
-0.00873607
-0.0157352
-0.0279535
-0.0368723
-0.054391
-0.0877418
-0.100741
-0.0820939
-0.0717086
-0.087478
-0.0980859
-0.0787172
-0.0580036
-0.0417026
-0.0406567
-0.0418985
-0.0441916
-0.0476117
-0.014005
-0.0207362
-0.0150656
-0.0135761
-0.0170244
-0.0243151
-0.0307965
-0.053101
-0.0756649
-0.0816907
-0.072301
-0.0629933
-0.0598445
-0.0614796
-0.0605738
-0.0570276
-0.0528586
-0.050748
-0.0514612
-0.055561
-0.0130699
-0.0291464
-0.0355487
-0.0313623
-0.0262391
-0.0242645
-0.030514
-0.0385648
-0.0445177
-0.0465839
-0.0444272
-0.0467289
-0.0543687
-0.064782
-0.0740086
-0.0788801
-0.0768552
-0.0742412
-0.0767088
-0.0854528
-0.0085373
-0.0230102
-0.0271266
-0.0232261
-0.0225149
-0.0219372
-0.0310228
-0.0336871
-0.0370809
-0.0343636
-0.0351515
-0.0402199
-0.0509487
-0.0681508
-0.0910097
-0.111606
-0.110543
-0.0946991
-0.0815908
-0.0748249
-0.00522903
-0.00929833
-0.0102879
-0.0111343
-0.0136163
-0.0179794
-0.0250127
-0.0312199
-0.0377798
-0.036482
-0.037308
-0.0451562
-0.0601248
-0.0807056
-0.106274
-0.130539
-0.143026
-0.133288
-0.111376
-0.09018
-0.00668172
-0.0110609
-0.00979035
-0.0113059
-0.0162507
-0.023386
-0.0320323
-0.038866
-0.0453829
-0.0493022
-0.05806
-0.0728831
-0.0947978
-0.119075
-0.143183
-0.159676
-0.167833
-0.168115
-0.161731
-0.148697
-0.0176156
-0.00756565
-0.00695189
-0.0106073
-0.0155745
-0.0227756
-0.0320436
-0.0411312
-0.0536582
-0.0665346
-0.0843465
-0.103156
-0.123422
-0.140768
-0.156391
-0.166608
-0.172972
-0.174985
-0.17596
-0.175348
-0.00801057
-0.00672937
-0.00668729
-0.00787664
-0.0107233
-0.0178011
-0.0300802
-0.0428521
-0.0582599
-0.0688446
-0.0823094
-0.0957121
-0.111048
-0.124908
-0.135836
-0.139293
-0.134184
-0.120441
-0.101357
-0.079753
-0.0118251
-0.0118728
-0.0138309
-0.0145199
-0.0112704
-0.0114424
-0.0217769
-0.042513
-0.0710861
-0.0895198
-0.0970268
-0.0950019
-0.0893356
-0.0796736
-0.0711175
-0.0667201
-0.0668744
-0.0702687
-0.0763092
-0.0811109
-0.00160001
-0.0052474
-0.0103884
-0.0139441
-0.018916
-0.0260264
-0.0339867
-0.0390925
-0.0394959
-0.0364063
-0.0325879
-0.0304064
-0.0312716
-0.0348487
-0.0403712
-0.0453215
-0.0473666
-0.0464156
-0.0448086
-0.0439528
-0.00613001
-0.00578445
-0.00887272
-0.00921339
-0.0113613
-0.0116836
-0.0135993
-0.0145405
-0.0158854
-0.0170793
-0.0189861
-0.0213951
-0.024345
-0.027308
-0.0300342
-0.0320241
-0.033417
-0.0342954
-0.0351266
-0.0360605
-0.00734831
-0.00649288
-0.00795152
-0.00934385
-0.0109325
-0.00992246
-0.00921825
-0.00916997
-0.0102603
-0.0119665
-0.0142851
-0.0169382
-0.0200327
-0.023328
-0.0268766
-0.0302954
-0.0334122
-0.0361089
-0.0382009
-0.0400609
-0.00523029
-0.0112198
-0.0141981
-0.0122729
-0.0133232
-0.0112127
-0.010846
-0.0109261
-0.0118688
-0.0132338
-0.0150552
-0.0169558
-0.0189249
-0.0206748
-0.0222305
-0.0234758
-0.0245775
-0.0255249
-0.0266617
-0.028107
-0.00346394
-0.0094089
-0.0102988
-0.00862549
-0.00863707
-0.00863468
-0.0103683
-0.011758
-0.0142947
-0.0165724
-0.0195386
-0.0217801
-0.0240344
-0.0252465
-0.0261047
-0.0261214
-0.0257532
-0.0248763
-0.023738
-0.0226615
-0.0128702
-0.00945249
-0.00737248
-0.00912095
-0.0130778
-0.0113339
-0.0114825
-0.0122412
-0.0149751
-0.0177174
-0.0210914
-0.0241143
-0.027258
-0.0298867
-0.0320815
-0.0332631
-0.0333091
-0.0312094
-0.0272923
-0.0226801
-0.0293719
-0.0318797
-0.0139708
-0.0157631
-0.0114495
-0.00915946
-0.00906305
-0.0119242
-0.0159273
-0.0201905
-0.0244223
-0.0281758
-0.0313425
-0.0335938
-0.0346409
-0.0338473
-0.0311773
-0.0265613
-0.0216055
-0.017491
-0.00384524
-0.0186311
-0.0131632
-0.0093637
-0.00791933
-0.00714197
-0.00753884
-0.010898
-0.0140361
-0.0169754
-0.0214807
-0.026207
-0.0315479
-0.0361409
-0.0337469
-0.0319371
-0.0278106
-0.0223563
-0.0174315
-0.0142709
-0.00476445
-0.0104634
-0.00574673
-0.00645612
-0.00651852
-0.00667661
-0.00705136
-0.00758674
-0.00891473
-0.0116188
-0.015562
-0.0179064
-0.0221908
-0.0300278
-0.0360912
-0.0288482
-0.0258045
-0.0212647
-0.0173284
-0.0149547
-0.00384722
-0.00556216
-0.00739145
-0.00930446
-0.0130948
-0.0112693
-0.00940937
-0.00802602
-0.00847553
-0.0104983
-0.0148789
-0.0211401
-0.0219942
-0.0207227
-0.0232423
-0.022713
-0.0233712
-0.0223423
-0.0206629
-0.0192535
-0.00399394
-0.00561234
-0.00770776
-0.0143095
-0.0239639
-0.0272764
-0.0334177
-0.0277646
-0.015431
-0.0112453
-0.0136351
-0.0212526
-0.0271666
-0.0237001
-0.0191211
-0.0215053
-0.0249769
-0.0277037
-0.029306
-0.0299138
-0.00187844
-0.00350139
-0.00539971
-0.0114705
-0.0212517
-0.0279638
-0.0384804
-0.0581178
-0.0514645
-0.0306819
-0.0250937
-0.029643
-0.0313594
-0.029372
-0.0257754
-0.028153
-0.030921
-0.0343799
-0.0375987
-0.0395114
-0.00383046
-0.00745474
-0.00604485
-0.0070488
-0.010747
-0.0160543
-0.0201473
-0.0303892
-0.0338735
-0.0303782
-0.0272759
-0.0294913
-0.0335222
-0.036561
-0.0383776
-0.0394612
-0.0410418
-0.0433183
-0.0459661
-0.0480912
-0.00837528
-0.0160152
-0.0129156
-0.0117028
-0.0126396
-0.0151902
-0.0186928
-0.0204917
-0.0216826
-0.0237518
-0.0266178
-0.0303812
-0.0341684
-0.0376133
-0.0400255
-0.0414203
-0.0425448
-0.0440238
-0.04608
-0.047517
-0.00545224
-0.0150112
-0.010458
-0.00995383
-0.011461
-0.013456
-0.016847
-0.017987
-0.019834
-0.0220103
-0.0256798
-0.0304222
-0.0358324
-0.0412765
-0.045485
-0.0466042
-0.0425766
-0.0374911
-0.0346566
-0.0332416
-0.00520116
-0.00946744
-0.00933515
-0.00945029
-0.0105382
-0.0125634
-0.0152987
-0.0177509
-0.0207295
-0.0242933
-0.029537
-0.0361552
-0.0430824
-0.0488837
-0.0534316
-0.0551616
-0.0528759
-0.0458077
-0.0386738
-0.0339311
-0.0031122
-0.00667438
-0.00757246
-0.0100495
-0.0139192
-0.0180086
-0.021256
-0.0240225
-0.027373
-0.0321523
-0.0389848
-0.0467351
-0.0547944
-0.0610212
-0.0655861
-0.0664603
-0.0650215
-0.0615366
-0.0573445
-0.0530437
-0.0195307
-0.00746571
-0.00592216
-0.00920972
-0.0128287
-0.0172095
-0.0216809
-0.0259452
-0.0319175
-0.0385006
-0.0470139
-0.0548359
-0.062175
-0.0664058
-0.0687444
-0.0680895
-0.0665728
-0.0645386
-0.0637241
-0.0639186
-0.0149557
-0.00697624
-0.0042405
-0.00516911
-0.00732334
-0.0119656
-0.0187617
-0.0256985
-0.0330645
-0.0389058
-0.0454288
-0.0506561
-0.0549248
-0.0562249
-0.0548057
-0.0498546
-0.0429985
-0.0355115
-0.0295379
-0.025979
-0.00516152
-0.0047852
-0.00432149
-0.00426721
-0.00374971
-0.0046777
-0.0101207
-0.0206015
-0.0329317
-0.0384374
-0.0395381
-0.0371988
-0.0345637
-0.0318011
-0.0299138
-0.0287523
-0.0281429
-0.0277687
-0.0275858
-0.0271948
-0.0086795
-0.00916845
-0.00955325
-0.0111698
-0.0151779
-0.0203369
-0.024157
-0.0243548
-0.0217161
-0.0185336
-0.0169197
-0.0174014
-0.0196978
-0.022577
-0.0251769
-0.0265702
-0.026377
-0.0249996
-0.0232474
-0.0211199
-0.00481761
-0.00615627
-0.00819238
-0.00972518
-0.0116483
-0.0121596
-0.0128206
-0.0125795
-0.0127079
-0.0132271
-0.0143936
-0.0157311
-0.0170087
-0.0178001
-0.0181188
-0.0178978
-0.0173425
-0.0165248
-0.0157758
-0.0150471
-0.00788211
-0.00956066
-0.010888
-0.0105145
-0.00936811
-0.00799745
-0.00795682
-0.00848574
-0.00954963
-0.0106846
-0.0119201
-0.0129675
-0.013903
-0.0145893
-0.0151076
-0.0153997
-0.015549
-0.0156407
-0.0157763
-0.0161999
-0.00721162
-0.00888469
-0.0102334
-0.00907536
-0.00806267
-0.00718552
-0.00749602
-0.0081339
-0.00904685
-0.00986394
-0.0106174
-0.0111477
-0.0114967
-0.0116669
-0.0117497
-0.011806
-0.0119557
-0.012234
-0.0127446
-0.0134922
-0.00504389
-0.00615958
-0.00664477
-0.00631155
-0.00644605
-0.00700712
-0.00843393
-0.00946115
-0.0107817
-0.0115751
-0.0123241
-0.0124928
-0.0124698
-0.0120332
-0.0115659
-0.0110535
-0.0107228
-0.0105462
-0.0106229
-0.0109476
-0.00432754
-0.00463898
-0.00483199
-0.00593937
-0.0071194
-0.00799906
-0.00977825
-0.0110826
-0.0129037
-0.013784
-0.0145349
-0.0145805
-0.0143273
-0.0136554
-0.0128406
-0.0119179
-0.011074
-0.0102153
-0.00960347
-0.00938873
-0.010113
-0.0113713
-0.00517335
-0.006605
-0.00623822
-0.00738401
-0.00922134
-0.0115266
-0.0132199
-0.0145341
-0.0148316
-0.0148306
-0.0140971
-0.0132161
-0.0121347
-0.0109367
-0.00985876
-0.00901013
-0.00867239
-0.00883098
-0.00822384
-0.009891
-0.00590063
-0.00474312
-0.00499396
-0.00632693
-0.00735702
-0.0112039
-0.0127881
-0.0140906
-0.0152661
-0.0158476
-0.0153609
-0.0144599
-0.0105455
-0.00970735
-0.00899064
-0.00856759
-0.00860036
-0.00902836
-0.00296114
-0.00397065
-0.00340697
-0.00414452
-0.00486199
-0.00591073
-0.00674957
-0.00791685
-0.00930989
-0.0104003
-0.0120049
-0.0134343
-0.0145219
-0.0144707
-0.0118408
-0.00933584
-0.00929438
-0.00927836
-0.00952531
-0.00995998
-0.0016641
-0.00410399
-0.00518448
-0.00614899
-0.00742401
-0.00700188
-0.00681363
-0.00708358
-0.00822496
-0.010231
-0.0124589
-0.0134763
-0.0130186
-0.0124886
-0.0105399
-0.0108583
-0.0117834
-0.0124625
-0.013103
-0.013706
-0.00349494
-0.0045311
-0.00627258
-0.00917351
-0.0120651
-0.0130917
-0.01454
-0.0115745
-0.00956185
-0.010579
-0.0137007
-0.0173689
-0.0170701
-0.0138534
-0.0121763
-0.0161439
-0.0180889
-0.0190859
-0.0193587
-0.0193092
-0.000719097
-0.00231708
-0.00420783
-0.00855106
-0.013756
-0.0168824
-0.0219263
-0.0258203
-0.0171232
-0.0132262
-0.0156994
-0.0204244
-0.0222526
-0.0209461
-0.0200728
-0.0265276
-0.0287818
-0.0293705
-0.0282267
-0.0258863
-0.00388874
-0.00447072
-0.00438431
-0.00559756
-0.008048
-0.0106899
-0.0123992
-0.0152379
-0.0155951
-0.0165717
-0.0192213
-0.0219155
-0.0243361
-0.0274966
-0.0306746
-0.0336319
-0.0354531
-0.0356755
-0.034368
-0.0316012
-0.0103697
-0.0138037
-0.0113903
-0.00912466
-0.00932133
-0.0107914
-0.012216
-0.0137852
-0.0153373
-0.0171676
-0.0185831
-0.0197302
-0.0207896
-0.0217229
-0.022789
-0.0234951
-0.0242572
-0.0244312
-0.0242882
-0.023217
-0.0108766
-0.014663
-0.00965197
-0.00841484
-0.00950098
-0.0109113
-0.0124795
-0.0139005
-0.0156897
-0.0175036
-0.019044
-0.0202467
-0.0209861
-0.0213268
-0.0212567
-0.0205998
-0.0192232
-0.0180166
-0.0175022
-0.0172612
-0.00241167
-0.00583663
-0.00749226
-0.00891424
-0.00992601
-0.0111155
-0.0127083
-0.0147622
-0.0170895
-0.0194515
-0.0214857
-0.0229936
-0.0238726
-0.0240897
-0.0241383
-0.0236673
-0.0226998
-0.0212814
-0.0202986
-0.0199332
-0.00247028
-0.00494085
-0.00668306
-0.00942061
-0.0120086
-0.0141342
-0.015685
-0.0173941
-0.0195973
-0.0218286
-0.0242241
-0.0258717
-0.0272655
-0.0277908
-0.0282861
-0.0281093
-0.0279438
-0.0276154
-0.0274011
-0.0272072
-0.0126816
-0.00629629
-0.005584
-0.00901756
-0.0118542
-0.0142805
-0.016318
-0.0182947
-0.0210932
-0.0233873
-0.026085
-0.0273969
-0.0284794
-0.0283336
-0.0284282
-0.0284136
-0.0291282
-0.0302169
-0.0317631
-0.0333585
-0.00834334
-0.00513488
-0.00402047
-0.00627629
-0.00950894
-0.0135565
-0.017494
-0.0203412
-0.0230886
-0.0241907
-0.0248184
-0.0237658
-0.022406
-0.0202623
-0.0184476
-0.0168496
-0.0161276
-0.0163336
-0.0174679
-0.0193797
-0.00589586
-0.00420744
-0.00294037
-0.00355478
-0.00502125
-0.00801377
-0.0123596
-0.0160114
-0.0192206
-0.0200097
-0.0200493
-0.0192294
-0.0184812
-0.0176318
-0.0169305
-0.0162704
-0.0156713
-0.015059
-0.0144927
-0.0140218
-0.00260549
-0.00748285
-0.009795
-0.0121843
-0.0145005
-0.0149839
-0.0140767
-0.0121154
-0.0109181
-0.0110044
-0.0120626
-0.0130428
-0.0135833
-0.0133381
-0.0125296
-0.0113611
-0.0102086
-0.009521
-0.00954262
-0.0101135
-0.00996855
-0.00734474
-0.00832123
-0.00892362
-0.00979835
-0.00939855
-0.0094197
-0.00950893
-0.00996838
-0.0103081
-0.0103799
-0.0100822
-0.00971385
-0.00939333
-0.00927271
-0.00939279
-0.00975229
-0.0103241
-0.0110185
-0.0117807
-0.00647358
-0.00776031
-0.00832012
-0.00717681
-0.00690277
-0.00696389
-0.00757717
-0.0080533
-0.00842626
-0.00852871
-0.00858591
-0.00867201
-0.00890534
-0.00927836
-0.00976385
-0.010308
-0.010852
-0.0113787
-0.011844
-0.0122869
-0.00592339
-0.00867692
-0.00887835
-0.00742508
-0.00661582
-0.00664369
-0.00704248
-0.0073188
-0.00752971
-0.00765132
-0.0078253
-0.00808512
-0.00846828
-0.00893053
-0.00944382
-0.00994899
-0.0104228
-0.0108391
-0.0112112
-0.011526
-0.00704607
-0.00598078
-0.00667467
-0.00625258
-0.00633814
-0.0067946
-0.00729192
-0.00750149
-0.00758554
-0.00754006
-0.00755606
-0.00764941
-0.00790333
-0.00826812
-0.00872721
-0.00922195
-0.00971754
-0.0101812
-0.0106052
-0.0109455
-0.00344342
-0.00349326
-0.00446991
-0.0053874
-0.00634772
-0.0072194
-0.0075139
-0.00760708
-0.00754145
-0.00737849
-0.00729497
-0.00732146
-0.00751955
-0.00786215
-0.00832497
-0.00886023
-0.00943393
-0.010014
-0.0105753
-0.0110348
-0.00247007
-0.0036496
-0.00397436
-0.00482778
-0.00579773
-0.00674816
-0.00687242
-0.00712363
-0.00689612
-0.00702819
-0.00692356
-0.00710559
-0.00731534
-0.00771185
-0.00821761
-0.0088056
-0.00946263
-0.0101623
-0.0108601
-0.0114426
-0.0119519
-0.00528699
-0.00358921
-0.00399376
-0.00496871
-0.00614461
-0.00648864
-0.00711852
-0.00688903
-0.00693657
-0.00674027
-0.00674566
-0.00675128
-0.00702354
-0.00821617
-0.00879407
-0.00941024
-0.0100499
-0.0106695
-0.0111774
-0.000673298
-0.00233762
-0.00297808
-0.00388329
-0.0048871
-0.00587228
-0.00633181
-0.00675953
-0.00705183
-0.00702976
-0.00650214
-0.00605669
-0.00605214
-0.00637147
-0.00733705
-0.00898964
-0.00948745
-0.00996532
-0.010406
-0.0107613
-0.00108954
-0.0037456
-0.00455697
-0.0052509
-0.00595536
-0.00609279
-0.00637792
-0.00702789
-0.00836188
-0.00945917
-0.00918621
-0.00752976
-0.00663764
-0.00696935
-0.00864988
-0.0105573
-0.0110278
-0.0113416
-0.0115397
-0.0116733
-0.00108466
-0.00409933
-0.00563783
-0.00692658
-0.0078127
-0.00814726
-0.00848291
-0.00868941
-0.00985764
-0.0118185
-0.0135547
-0.0126518
-0.0100826
-0.0096087
-0.0112244
-0.0124972
-0.0127617
-0.0128175
-0.0128429
-0.0129384
-0.00105528
-0.00214654
-0.00425479
-0.00733829
-0.00918348
-0.0101953
-0.0109773
-0.0107098
-0.0108771
-0.01257
-0.0146366
-0.0151612
-0.0144649
-0.0145799
-0.0159165
-0.0148422
-0.0138626
-0.0129106
-0.0123209
-0.012099
-0.00642169
-0.00418484
-0.00314448
-0.00528915
-0.00770843
-0.00918105
-0.00970933
-0.0106751
-0.0114913
-0.0125973
-0.0134972
-0.0149041
-0.0167005
-0.0188146
-0.0155964
-0.01514
-0.0143082
-0.0133234
-0.0125145
-0.011918
-0.00700878
-0.00763272
-0.00735008
-0.00724942
-0.00833567
-0.00932266
-0.00995625
-0.0105777
-0.0108845
-0.0111339
-0.0112241
-0.0112294
-0.011318
-0.0112841
-0.0113214
-0.0111039
-0.0109484
-0.0107784
-0.0107132
-0.0106572
-0.020753
-0.016586
-0.0100091
-0.00822216
-0.00886918
-0.00973701
-0.010346
-0.0109024
-0.0112145
-0.0113854
-0.0113554
-0.0113075
-0.0111301
-0.010901
-0.0106273
-0.0103234
-0.0100132
-0.00982159
-0.00982354
-0.00999645
-0.00167837
-0.00560069
-0.00696802
-0.00826911
-0.00931734
-0.0102305
-0.0110096
-0.0116827
-0.0121427
-0.0123712
-0.0124105
-0.0124274
-0.0122775
-0.0121034
-0.0118903
-0.0115973
-0.0112533
-0.0108835
-0.0107021
-0.0107821
-0.000395376
-0.00226646
-0.0056644
-0.00882171
-0.0101383
-0.010902
-0.0115616
-0.012147
-0.0128286
-0.0132533
-0.0136957
-0.0139526
-0.0141522
-0.0141707
-0.0141079
-0.0138346
-0.0134734
-0.0130212
-0.0126652
-0.0125568
-0.00309771
-0.00270735
-0.00525364
-0.00847416
-0.0098864
-0.0106226
-0.0112211
-0.0117792
-0.0126364
-0.0131428
-0.0140311
-0.0146168
-0.015467
-0.0160721
-0.0166651
-0.01699
-0.0171472
-0.0170613
-0.0169246
-0.0168645
-0.0017188
-0.00233312
-0.00482967
-0.00825471
-0.010274
-0.0116525
-0.0123858
-0.0120828
-0.0118813
-0.0111012
-0.0110608
-0.0113128
-0.0123956
-0.0139079
-0.0157964
-0.0178395
-0.0199282
-0.0219942
-0.0239514
-0.0256869
-0.00436271
-0.0025237
-0.00324417
-0.0053758
-0.00759421
-0.00983018
-0.0116816
-0.0122412
-0.0126297
-0.0121204
-0.0115382
-0.010639
-0.00992546
-0.00934068
-0.00919685
-0.00954716
-0.0105519
-0.0122588
-0.0146993
-0.0177475
-0.01349
-0.0104717
-0.0122134
-0.0102902
-0.0121448
-0.0105289
-0.0125289
-0.0197526
-0.013374
-0.0186928
-0.0127841
-0.0142863
-0.0135067
-0.0164281
-0.0125271
-0.0232295
-0.0198577
-0.0107642
-0.0126371
-0.0135153
-0.0143099
-0.0188568
-0.0206777
-0.0260518
-0.0136331
-0.0169248
-0.0152258
-0.019028
-0.127944
-0.110467
-0.102688
-0.13211
-0.121381
-0.100538
-0.0924594
-0.117484
-0.101359
-0.0999393
-0.113867
-0.100726
-0.0912325
-0.08836
-0.1098
-0.100138
-0.10262
-0.0981006
-0.0903646
-0.0858798
-0.0743619
-0.109089
-0.103651
-0.104458
-0.0899625
-0.0981617
-0.0715608
-0.0680724
-0.107634
-0.103387
-0.0975911
-0.101076
-0.104654
-0.0684928
-0.0789066
-0.105424
-0.0959907
-0.0965254
-0.103968
-0.0960887
-0.0848767
-0.100743
-0.101347
-0.0982984
-0.102777
-0.0922285
-0.0817793
-0.103864
-0.103043
-0.101345
-0.103028
-0.10033
-0.0802398
-0.0844335
-0.100237
-0.0921101
-0.100142
-0.11117
-0.103491
-0.0997398
-0.0882872
-0.107852
-0.101827
-0.0977523
-0.101381
-0.0968331
-0.0859276
-0.0809269
-0.099178
-0.0832972
-0.101397
-0.0958367
-0.093238
-0.0777041
-0.0630866
-0.0746349
-0.0475792
-0.101272
-0.0919959
-0.0863612
-0.0585498
-0.0504178
-0.0406241
-0.0291784
-0.0929896
-0.0842917
-0.0799831
-0.0503314
-0.0628518
-0.0288375
-0.0416017
-0.0920078
-0.0796306
-0.0836955
-0.0708267
-0.0945729
-0.0508171
-0.0837528
-0.101786
-0.0878156
-0.103733
-0.100608
-0.107732
-0.0943615
-0.116884
-0.102164
-0.107685
-0.110435
-0.106549
-0.098863
-0.120165
-0.117067
-0.110951
-0.107608
-0.107317
-0.112627
-0.11023
-0.105575
-0.105619
-0.102512
-0.108223
-0.107878
-0.108439
-0.0943122
-0.106966
-0.110313
-0.0931969
-0.105998
-0.0976701
-0.0854146
-0.0537707
-0.109664
-0.0995819
-0.0838735
-0.0949396
-0.0882958
-0.0454359
-0.0321754
-0.0942827
-0.0829084
-0.0784077
-0.0866551
-0.0844679
-0.0318238
-0.0452455
-0.0826339
-0.0882743
-0.0830382
-0.0845945
-0.0910968
-0.0542789
-0.0863745
-0.0917513
-0.111375
-0.107211
-0.0979261
-0.125011
-0.0972974
-0.121762
-0.120314
-0.136884
-0.116517
-0.131578
-0.135926
-0.12562
-0.123706
-0.135926
-0.125245
-0.10361
-0.105172
-0.10919
-0.0971362
-0.102029
-0.102198
-0.106855
-0.110803
-0.110991
-0.11939
-0.104351
-0.111954
-0.109053
-0.117995
-0.104089
-0.122319
-0.124111
-0.113391
-0.110848
-0.120928
-0.124723
-0.0939718
-0.121544
-0.114416
-0.108391
-0.10179
-0.123764
-0.119122
-0.0907994
-0.112299
-0.111823
-0.100544
-0.101521
-0.117596
-0.120033
-0.102696
-0.113759
-0.130418
-0.104264
-0.122884
-0.123687
-0.142678
-0.134198
-0.138509
-0.169497
-0.130633
-0.14241
-0.149473
-0.163981
-0.142333
-0.178505
-0.200513
-0.140203
-0.127838
-0.165527
-0.167389
-0.0191074
-0.0145915
-0.0142115
-0.0129426
-0.0110226
-0.010581
-0.0100016
-0.0175303
-0.014341
-0.0157948
-0.0109158
-0.0118964
-0.0101847
-0.0111015
-0.019458
-0.0155978
-0.0166655
-0.0123345
-0.0144305
-0.0113959
-0.0126823
-0.0370104
-0.0182265
-0.0263619
-0.0155764
-0.0195403
-0.0134545
-0.0170073
-0.049439
-0.0302103
-0.046812
-0.0206235
-0.022694
-0.0185714
-0.0236097
-0.0434287
-0.0535801
-0.0655668
-0.0231493
-0.0251633
-0.0249603
-0.0262174
-0.0382355
-0.0643953
-0.0513189
-0.0264235
-0.0325438
-0.0259432
-0.0259252
-0.0470841
-0.0471704
-0.042696
-0.0351119
-0.0443404
-0.0266327
-0.0309936
-0.0165769
-0.0437986
-0.0470825
-0.0186315
-0.0135013
-0.0295783
-0.0269209
-0.014874
-0.0432659
-0.0267974
-0.0128807
-0.0121384
-0.0251657
-0.0185598
-0.0161899
-0.0226371
-0.0163196
-0.0119828
-0.0121292
-0.016444
-0.0124015
-0.0220377
-0.0155142
-0.0157554
-0.0125623
-0.0154221
-0.01197
-0.013029
-0.0403758
-0.0170333
-0.0298154
-0.0169695
-0.0230365
-0.0142118
-0.0209997
-0.0686734
-0.0387654
-0.0712446
-0.0250756
-0.0279254
-0.0243682
-0.0326679
-0.06091
-0.0795002
-0.0883881
-0.0276038
-0.0258813
-0.0333428
-0.0305846
-0.0459193
-0.0865761
-0.0722368
-0.0258009
-0.0280275
-0.0290545
-0.0251372
-0.0712864
-0.0692907
-0.0878714
-0.0506294
-0.0425266
-0.0562473
-0.0641788
-0.04419
-0.0925577
-0.097077
-0.0388388
-0.0265693
-0.0656803
-0.05959
-0.0211295
-0.0940212
-0.0701357
-0.0227894
-0.0150834
-0.054125
-0.0366484
-0.0171333
-0.0607978
-0.0469552
-0.013923
-0.0139222
-0.0323579
-0.0264511
-0.031618
-0.0481526
-0.0652401
-0.0149597
-0.0216331
-0.0265625
-0.0319125
-0.0742462
-0.0727473
-0.0932391
-0.025089
-0.0338032
-0.0344099
-0.0382151
-0.0929412
-0.0964326
-0.0874705
-0.0345701
-0.031781
-0.037883
-0.0347366
-0.0793442
-0.0819681
-0.0714555
-0.0301618
-0.0257081
-0.0334055
-0.0291728
-0.0805949
-0.0391429
-0.0554207
-0.0490398
-0.0632145
-0.0379241
-0.0484058
-0.100237
-0.0640492
-0.0842505
-0.0668158
-0.0672938
-0.0522541
-0.0580522
-0.0887225
-0.0899546
-0.0976638
-0.0635956
-0.0468644
-0.0580453
-0.0516071
-0.0707345
-0.0978032
-0.0935192
-0.0416602
-0.0330159
-0.0481995
-0.0393332
-0.0829075
-0.0920888
-0.0872749
-0.0325797
-0.0359469
-0.0370334
-0.034097
-0.0981081
-0.086028
-0.0799474
-0.03727
-0.038596
-0.0346964
-0.0406987
-0.0839756
-0.0775129
-0.0681499
-0.0384102
-0.0367589
-0.0430475
-0.0476355
-0.0705129
-0.0673332
-0.067884
-0.0357791
-0.0319723
-0.048141
-0.0478904
-0.00742754
-0.00651371
-0.00680052
-0.0066936
-0.00741156
-0.00622153
-0.00663164
-0.00857369
-0.00692314
-0.00762138
-0.00781961
-0.00924782
-0.00689602
-0.00791202
-0.0106916
-0.00799404
-0.00976824
-0.00953816
-0.0104922
-0.00830204
-0.00967266
-0.0147135
-0.0106249
-0.0140402
-0.0109526
-0.0127906
-0.0102081
-0.01192
-0.0173575
-0.0154248
-0.0194573
-0.0134374
-0.0157088
-0.0124664
-0.0137689
-0.0207197
-0.0203682
-0.0207837
-0.0165601
-0.019374
-0.0140785
-0.0149478
-0.0280037
-0.0205026
-0.0208717
-0.0201649
-0.02207
-0.0153123
-0.0165424
-0.036147
-0.0217026
-0.0260116
-0.0224546
-0.0234874
-0.0169223
-0.0178368
-0.00818679
-0.0169441
-0.018036
-0.0082415
-0.00758287
-0.0122777
-0.0114582
-0.00821767
-0.0168977
-0.0123367
-0.00767625
-0.00828701
-0.0109815
-0.00982674
-0.00982365
-0.0112377
-0.0102036
-0.00856945
-0.00976302
-0.00965565
-0.0100126
-0.0109023
-0.0113186
-0.0102857
-0.0103668
-0.0109621
-0.01105
-0.0102869
-0.0149026
-0.0164538
-0.0142138
-0.0138118
-0.0158107
-0.0149583
-0.0136349
-0.0224478
-0.0209618
-0.0260442
-0.0145582
-0.0148239
-0.0171381
-0.0175923
-0.0206241
-0.0262884
-0.0239643
-0.0148948
-0.0154423
-0.0172339
-0.0155248
-0.0231972
-0.022832
-0.0202349
-0.0157092
-0.0165329
-0.014996
-0.0142192
-0.0304557
-0.0424149
-0.0542774
-0.0220229
-0.0162974
-0.0317474
-0.0313856
-0.0181041
-0.0556211
-0.0480644
-0.0147591
-0.0114668
-0.0297583
-0.0216552
-0.011492
-0.0426294
-0.0267434
-0.0108509
-0.0104068
-0.018938
-0.0140577
-0.0121189
-0.0113537
-0.0131268
-0.011013
-0.0127968
-0.0111989
-0.0121418
-0.0157239
-0.0150719
-0.0148954
-0.0135576
-0.0166103
-0.0148815
-0.0142738
-0.0268238
-0.0279761
-0.0308304
-0.0178739
-0.0189418
-0.0203005
-0.0228149
-0.0248746
-0.030663
-0.0283862
-0.0186767
-0.0167335
-0.0230248
-0.0218455
-0.0206665
-0.0274207
-0.0243758
-0.0159973
-0.0145467
-0.0211146
-0.0190067
-0.0546912
-0.0268903
-0.0361502
-0.0330425
-0.0353481
-0.0254477
-0.0277653
-0.055879
-0.0400393
-0.0443591
-0.0342509
-0.0259172
-0.0273652
-0.0236726
-0.0350501
-0.0440461
-0.0379871
-0.0226646
-0.0159723
-0.022112
-0.018277
-0.0249078
-0.0353932
-0.0292637
-0.015011
-0.0152966
-0.0175692
-0.0183268
-0.0284748
-0.0281714
-0.0280023
-0.0161759
-0.0200132
-0.0192892
-0.0239458
-0.0313902
-0.0289781
-0.0326705
-0.0213777
-0.0244473
-0.0256984
-0.0299049
-0.0300425
-0.0336463
-0.035572
-0.0248349
-0.0240844
-0.0306688