/*--------------------------------*- C++ -*----------------------------------*\
  =========                 |
  \\      /  F ield         | OpenFOAM: The Open Source CFD Toolbox
   \\    /   O peration     | Website:  https://openfoam.org
    \\  /    A nd           | Version:  10
     \\/     M anipulation  |
\*---------------------------------------------------------------------------*/
FoamFile
{
    format      ascii;
    class       volScalarField;
    location    "2.3";
    object      k;
}
// * * * * * * * * * * * * * * * * * * * * * * * * * * * * * * * * * * * * * //

dimensions      [0 2 -2 0 0 0 0];

internalField   nonuniform List<scalar> 
12920
(
7498.89
6267.44
2322.33
956.322
644.816
538.801
448.686
392.924
358.665
330.054
294.761
251.102
200.939
151.943
117.361
100.026
94.1867
90.722
85.1569
65.1694
10184.1
6262.77
2252.54
935.146
621.664
577.504
540.136
517.985
479.448
450.096
379.237
289.926
212.165
159.249
135.605
122.902
116.153
107.674
103.956
97.9457
3992.27
3141.72
1711.46
1076.48
810.617
668.598
504.635
416.683
354.645
335.28
316.709
280.088
227.441
184.528
156.599
135.356
123.965
114.536
110.858
102.601
962.677
1542.66
1589.42
963.818
595.654
450.073
376.169
342.927
305.498
280.485
252.608
228.268
198.623
167.973
141.66
118.961
103.812
92.6442
89.3323
83.1
1062.54
2529.66
2351.04
1450.4
832.865
607.328
514.25
460.29
405.16
360.924
313.136
272.577
230.201
185.965
148.744
115.334
89.6845
65.785
54.9131
40.3991
988.43
2478.82
1618.86
966.219
877.306
741.952
623.613
536.453
460.702
427.776
380.862
307.792
246.424
203.474
160.488
117.39
78.9762
46.0603
27.0206
13.8582
475.345
2855.5
2776.06
1716.11
1143.33
887.098
702.165
610.615
515.011
461.479
439.491
390.804
292.854
220.195
162.781
103.907
51.2001
23.4341
13.7257
11.2403
3533.41
4590.71
3434.52
1841.49
1153.36
884.509
502.128
343.679
342.314
274.688
252.575
263.209
236.853
165.443
158.837
82.5642
41.0105
26.8414
26.0764
31.5204
1480.95
2868.27
2482.33
1470.84
1095.28
629.436
379.077
225.895
190.503
192.219
149.721
156.556
176.596
138.166
137.111
81.2579
48.57
46.1989
57.276
73.4223
273.715
1058.15
1390.86
1239.21
1062.22
617.58
340.989
224.295
155.057
170.233
141.956
119.482
161.26
152.991
191.747
127.406
98.8156
100.827
110.727
115.325
48.1286
445.306
882.13
1030.27
1007.26
679.016
426.45
288.736
139.542
118.311
122.518
91.756
115.62
132.047
201
210.433
162.002
135.625
125.745
119.498
426.86
1202.63
1306.69
1145.23
936.798
564.457
338.248
228.686
166.129
115.947
106.912
108.939
107.958
101.533
166.568
223.252
170.501
135.889
125.972
126.213
565.96
1777.38
1685.68
1475.38
1124.94
855.477
518.435
254.458
142.656
128.584
128.199
137.872
146.626
147.709
197.335
170.857
141.001
122.362
117.697
112.738
5808.1
5505.63
2972.48
1639.05
1108.33
848.47
559.186
360.781
257.912
196.628
172.043
149.714
143.026
132.256
128.615
120.873
115.517
103.653
92.8659
70.1287
4510.38
4574.94
2802.2
1800.59
1210.49
855.934
543.361
343.402
232.206
182.36
154.054
135.563
122.467
111.297
105.143
98.4832
91.4786
80.2216
67.5697
55.0517
1002.5
2675.18
2628.72
1678.95
921.228
585.027
399.513
301.137
227.093
193.49
164.815
146.06
128.563
114.405
103.891
94.143
87.5657
76.5965
70.3488
59.7189
2112.4
1933.07
1609.09
919.176
629.204
432.786
345.414
277.965
237.434
213.976
185.514
163.591
137.341
115.689
98.6137
86.0661
78.8214
66.9736
60.3465
43.5997
3003.65
1613.44
1575.69
1160.34
667.248
467.143
353.053
318.18
274.549
253.037
222.674
207.915
188.446
169.858
145.649
118.414
99.2354
79.3307
71.3322
54.8664
2916.47
1344.69
1611.7
1385.02
977.983
653.216
406.424
316.121
256.181
220.978
184.689
165.442
150.995
139.367
125.736
106.801
92.6901
75.8127
68.8296
53.6805
700.101
909.872
1002.75
946.898
764.705
627.842
518.025
415.071
347.353
295.715
232.362
162.687
113.882
84.9277
69.556
59.01
54.1673
49.236
46.9987
41.4722
9709.27
5240.44
2099.75
1544.62
1143.22
939.515
860.869
825.769
752.786
663.261
538.312
406.146
294.008
231.871
216.138
217.278
219.383
215.936
202.731
156.554
11241.3
5134.93
2462.04
1655.55
1335.58
1382.14
1304.72
1270.28
1174.35
1108.63
934.235
689.263
498.133
411.546
392.434
373.495
355.438
329.83
320.881
300.737
7035.14
7075.39
4365.82
2524.05
1866.51
1597.21
1210.38
1091.57
968.247
931.661
847.921
742.563
607.505
512.753
448.374
398.82
372.372
349.098
338.731
310.216
6244.09
4911.11
3682.1
2054.74
1507.65
1135.23
954.357
895.391
786.971
745.839
661.276
616.025
535.988
461.62
396.135
340.819
304.144
280.622
272.957
249.381
5190.25
6475.61
5650.39
3271.95
1930.08
1447.24
1246.34
1157.03
1016.67
933.135
806.311
725.505
609.708
492.956
395.423
304.778
238.485
187.453
166.766
119.715
3561.01
7688.3
4529.36
2349.91
2161.96
1798.67
1530.89
1352.61
1175.84
1081.59
946.775
787.916
648.734
534.929
408.983
272.807
162.362
92.4397
56.4862
26.9967
3378.91
7575.44
6603.79
4013.63
2731.21
2143.03
1689.89
1483.77
1239.83
1136.52
1027.45
867.209
701.642
537.145
365.471
196.848
90.3088
42.9902
25.897
21.5608
16683.8
9655.3
6891.95
4221.35
2762.61
2096.18
1614.72
1408
1282.11
1046.86
986.891
895.337
717.741
540.772
324.641
161.252
86.0969
61.9667
63.2563
81.8326
2442.77
6173.13
5591.49
3648.15
2663.3
2103.43
1710.48
1471.29
1170.82
1045.54
867.225
844.714
748.904
580.285
377.706
171.64
134.406
138.429
175.439
209.944
986.209
2416.36
3269.75
3044.62
2460.85
1935.14
1617.48
1322.68
1013.68
956.386
753.168
718.384
712.963
604.975
449.833
304.779
298.323
312.419
345.238
366.062
28.5597
640.069
2267.08
2864.71
2542.33
2129.15
1781.14
1485.44
894.554
788.303
615.723
471.056
493.224
544.61
498.489
454.817
409.288
389.397
390.474
394.279
630.659
2989.78
3451.85
3014.31
2235.8
1781.3
1450.01
1227.61
953.425
733.962
582.109
546.048
491.34
427.325
446.454
476.856
402.865
376.927
382.382
399.412
2782.8
5597.22
4817.74
3838.72
2792.4
2108.51
1454.23
971.358
609.28
550.18
505.763
501.223
501.962
480.785
458.535
399.776
347.215
335.945
338.105
335.065
21189.3
10852.6
6224.13
3916.2
2707.97
2045.71
1306.04
858.273
643.908
509.946
451.399
394.746
371.388
346.661
332.155
315.913
308.281
288.091
265.537
212.249
4777.14
9853.65
7045.28
4484.17
2883.44
2013.64
1216.92
817.176
583.277
481.014
408.791
362.82
326.397
300.119
286.226
273.214
258.584
231.609
196.616
170.168
1892.89
6785.12
5159.94
2861.63
1747.63
1325.94
922.815
737.952
571.85
502.476
428.014
383.347
338.083
306.281
279.305
258.047
240.333
214.229
195.338
163.344
5003.09
4674.41
3473.26
2002.67
1474.43
1065.19
863.639
696.151
594.034
526.99
454.218
404.587
343.767
299.067
259.462
226.872
201.519
166.827
148.788
106.641
2448.6
3773.65
3868.78
2670
1586.03
1153.96
891.199
787.077
656.341
593.925
518.195
485.835
437.364
400.358
350.178
297.133
253.549
204.994
185.327
143.63
1472.32
3420.35
4668.02
3566.18
2318.52
1510.75
965.306
798.253
621.414
525.928
426.445
380.558
344.978
319.741
290.582
254.867
227.197
187.772
168.26
123.901
332.907
1251.28
1940.88
1988.55
1654.59
1225.52
910.239
720.708
597.857
481.374
351.328
250.475
194.858
159.205
134.349
116.511
106.878
97.4234
93.1059
82.5414
2533.13
2980.25
2421.82
1889.25
1298.19
1002.17
872.775
780.907
675.139
561.595
446.952
358.568
307.491
289.092
284.114
277.711
265.984
235.364
215.464
169.033
16307.9
5270.35
3415.68
2600.75
1971.71
1831.94
1548
1458.52
1283.24
1194.51
994.934
870.002
769.638
720.26
678.222
626.735
582.222
530.016
504.495
449.877
6140.95
8001.26
5415.07
3266.05
2470.73
2025.65
1594.96
1439.59
1261.79
1182.85
1031.73
921.548
803.232
724.822
658.352
602.005
561.546
520.202
497.984
443.184
5792.49
7428.9
5451.05
2963.37
2116.99
1580.11
1399.33
1273.54
1127
1056.95
933.352
852.52
742.989
655.818
575.505
509.98
465.623
431.244
412.936
358.551
7079.01
7900.47
7015.07
4400.08
2678.09
1940.08
1661.32
1489.26
1296.37
1182.22
1028.53
918.728
777.826
651.138
532.173
431.287
363.795
307.773
276.359
195.722
13379.6
11779.7
6386.94
3280.5
2772.1
2097.11
1902.11
1627.85
1408.41
1251.62
1073.95
925.014
780.729
644.08
490.617
353.013
243.578
163.958
107.813
54.4951
7782.97
9915.04
8200.65
5120.76
3519.05
2633.48
2082.99
1769.16
1489.38
1331.9
1144.48
960.969
787.535
616.719
421.51
245.621
132.318
77.1854
52.5171
45.8519
15431.3
10255.7
8034.21
5286.18
3555.51
2595.27
2137.09
1845.84
1580.53
1326.82
1199.4
1019.06
813.585
626.062
355.462
208.127
134.559
107.631
108.807
131.427
15075.7
7925.67
6898.36
4636.61
3424.4
2791.49
2303.47
1901.33
1558.27
1313.97
1152.51
1035.2
852.033
656.416
400.328
251.249
232.981
240.038
276.859
296.624
3624.94
4134
4930.91
4195.41
3131.85
2536.64
2201.45
1720.18
1418.8
1250.2
1030.63
945.79
839.922
680.813
498.342
457.648
470.606
495.331
524.399
528.377
396.678
4198.19
5016.43
4433.51
3169.05
2661.57
2199.13
1679.95
1248.6
1116.22
683.791
460.11
587.711
657.218
613.204
610.526
607.217
612.909
632.501
635.008
914.874
4444.35
5406.56
4232.99
2912.47
2338.23
1933.54
1567.1
1241.74
968.813
811.883
737.68
638.068
572.961
613.861
650.313
625.006
624.151
631.224
625.223
8056.06
9662.87
6906.57
5158.2
3644.59
2681.38
2000.17
1347.1
917.18
788.32
706.972
678.678
662.919
638.831
619.491
580.808
555.105
537.987
530.817
511.24
14703
10254.4
7144.25
4868.18
3473.47
2479.69
1599.07
1086.43
852.935
680.488
607.282
536.934
513.391
487.845
479.637
465.625
458.776
437.205
420.588
385.886
18273.5
11976.1
7238.05
5075.79
3487.77
2312.69
1452.37
1012.79
779.488
642.717
554.558
487.67
450.313
420.708
407.812
393.361
381.904
359.327
339.476
321.239
8082.61
9889.15
5718.34
3387.15
2363.72
1627.61
1182.78
921.077
753.42
647.518
557.949
490.09
435.853
394.177
364.313
338.029
317.306
289.567
272.741
244.215
7725.77
7339.04
4637.19
2745.17
2039.62
1409.51
1142.49
907.854
774.066
670.394
574.939
503.029
427.491
372.317
323.282
282.647
249.499
208.911
189.416
152.373
5304.74
5156.06
4984.32
3751.14
2263.68
1546.8
1179
993.148
821.606
730.171
635.875
582.801
512.323
457.536
395.598
344.024
302.503
254.669
232.251
184.345
1267.4
5564.28
5884.14
4837.27
3091.98
1868.82
1157.25
910.254
685.131
581.456
488.749
455.965
416.207
385.326
347.714
310.067
278.237
236.055
212.703
159.599
121.928
662.781
2010.17
2250.3
1865.55
1274.21
940.209
751.512
611.063
472.701
351.924
271.449
220.908
183.245
158.808
138.528
128.466
115.611
109.24
92.7234
4613.24
3370.58
2915.16
2013.41
1317.61
923.531
728.051
591.717
499.215
434.316
388.555
359.621
342.313
326.412
310.222
284.431
259.07
222.299
202.521
160.702
9643.62
6515.52
4649.43
3051.44
2426.77
2021.24
1692.95
1532.15
1344.75
1246.16
1119.53
1053.67
989.392
941.05
887.523
823.134
768.136
703.802
666.304
593.598
11731.2
8548.03
6377.4
3719.53
3037.83
2342.36
1950.58
1709.49
1519.6
1364.54
1205.5
1079.11
977.38
899.086
834.531
775.488
731.582
679.193
645.98
568.359
9203.08
9901.87
6161.59
3398.85
2642.64
1909.97
1791.6
1556.27
1413.46
1270.48
1129.26
1005.93
889.595
794.538
718.321
656.222
613.764
571.645
540.602
458.728
10892.7
10410
8740.64
4868.58
3275.9
2331.39
2059.95
1781.39
1573.64
1387.63
1205.02
1040.59
880.159
743.85
630.175
542.721
483.881
427.909
384.769
294.267
30493.6
15167.8
7791.02
3980.98
3307.94
2320.58
2223.21
1856.3
1609.13
1389.43
1193.43
1018.22
841.571
680.764
530.266
421.157
333.917
264.024
198.438
150.168
5538.53
11304.2
9663.83
5915.41
4266.86
3002.61
2446.66
1982.22
1698.33
1461.33
1228.07
1016.7
803.074
610.81
427.911
291.864
205.117
162.036
138.467
136.75
8775.1
10553.7
9622.03
6176.14
4294.84
2967.15
2448.73
2078.66
1738.57
1478.56
1275.08
1037.41
814.564
604.132
365.833
266.506
213.086
192.452
193.015
210.145
11396
10079
8737.14
5519.17
4198.19
3294.26
2635.16
2116.75
1727.34
1442.8
1261.96
1064.3
836.32
629.089
402.385
368.04
361.702
360.971
371.752
366.082
11507.3
7796.16
7596.79
5150.19
3772.79
2946.9
2533.31
1943.47
1618.16
1373.13
1166.7
1006.75
840.71
680.557
561.195
641.881
675.184
687.16
689.266
649.776
6602.83
8537.59
8141.32
5420.82
3831.38
3029.61
2395
1807.43
1467.71
1261.76
915.978
670.803
689.266
714.191
714.094
804.895
837.871
861.947
867.709
832.616
9444.23
9946.95
8373.3
4952.9
3494.19
2716.6
2213.06
1680.15
1313.85
1091.75
959.602
855.582
744.798
710.738
764.179
843.647
852.243
858.104
853.984
808.274
19026.8
12101
8649.01
5835.28
4401.6
3117.33
2361.28
1533.35
1122.81
945.692
851.451
808.266
777.031
759.857
758.249
737.152
729.387
713.22
702.933
671.052
23587.8
11035.4
8278.14
5449.84
4142.09
2717.89
1830.72
1276.76
1031.91
826.32
746.266
658.574
639.197
611.029
608.467
602.163
599.699
586.885
577.709
570.154
26338.6
11189.8
7767.71
5313.01
4012.38
2465.54
1694.84
1199.88
967.622
782.513
684.469
593.955
560.54
527.605
519.12
508.14
502.798
492.796
487.011
487.978
21874.4
9556.73
6278.43
3788.38
2876.9
1837.45
1444.88
1089.86
932.288
775.682
678.651
579.617
524.404
471.677
444.929
417.523
399.338
377.114
363.157
347.468
20796.9
12191.5
6157.16
3392.18
2555.31
1684.27
1419.56
1091.46
949.196
790.48
684.08
577.944
496.709
428.094
377.34
336.251
305.906
277.332
263.458
248.146
14314.5
8480.95
7015.13
4581.36
2878.36
1823.98
1451.08
1165.33
993.591
858.782
756.923
666.464
581.855
508.785
446.614
399.73
362.414
325.689
306.214
274.931
4954.9
8722.05
8475.54
5949.57
3785.86
2071.14
1274.81
958.699
747.422
653.427
572.185
536.146
491.909
451.755
409.259
372.949
340.035
307.225
281.85
238.449
218.028
2135.27
2826.32
2630.36
1734.43
1083.99
816.312
647.847
515.788
399.331
314.546
252.132
208.249
175.165
155.161
136.875
128.396
114.688
107.465
88.2597
1718.77
3330.6
3038.97
1887.56
1095.12
732.647
559.184
476.668
430.864
398.964
374.824
347.747
321.303
285.838
250.639
216.131
189.28
166.045
147.476
128.526
7380.65
8417.22
5916.64
3208.66
3178.42
2255.23
2211.92
1796.42
1759.02
1534.35
1502.67
1385.4
1354.23
1270.27
1223.04
1125.41
1072.86
987.968
938.193
849.016
8649.65
10063.3
7949.72
4170.39
4067.79
2802.6
2685.88
2173.15
2072.9
1729.92
1612.55
1375.01
1311.79
1191.57
1150.34
1072.64
1033.54
957.874
903.552
802.016
38820.7
15877
7845.55
3851.86
3513.8
2287.04
2475.17
1949.2
1928.02
1621.98
1510.23
1266.72
1179.04
1044.65
993.791
921.732
884.799
821.075
759.31
671.126
26550.2
12169.1
10137.7
4920.08
4367.8
2856.84
2826.86
2310.04
2162.59
1780.68
1594.31
1287.86
1120.14
943.239
853.073
766.183
714.243
642.605
582.643
541.861
30238.4
16271.3
8632.85
4574.03
4139.42
2655.86
2869.01
2204.05
2063.09
1702.18
1512.73
1226.36
1006.16
807.338
676.28
588.86
523.385
469.552
430.51
432.168
17969.7
13992.5
11748.5
6329.86
5433.48
3408.32
3127.63
2381.85
2177.78
1773.4
1525.36
1203.28
913.287
683.509
535.649
450.972
408.382
384.94
371.636
383.92
11248
12752.6
11870
6494.97
5307
3337.81
2886.78
2391.82
2071.72
1760.81
1514.36
1177.33
909.75
650.85
531.91
454.588
412.254
393.244
388.564
400.393
21141.3
14514.1
11659
6069.22
5276.82
3921.7
3128.43
2436.85
1999.56
1694.69
1456.81
1170.53
907.563
689.187
589.376
647.58
613.586
571.826
552.445
506.386
16251.5
11725.9
10709.4
5932.36
4659.52
3365.72
2958.22
2309.42
1916.36
1597.38
1345.34
1100.09
942.809
824.302
824.242
1012.26
1020.17
1008.3
965.503
819.335
14004.3
12272.8
11982.3
6329.44
4963.68
3589.43
2834.07
2180.42
1773.67
1465.52
1201.18
930.268
881.123
925.033
1006.19
1205.69
1229.57
1242.24
1225.39
1090.57
21756.3
15120.8
11684.9
5633.96
4413.42
3123.17
2677.99
1976.11
1575.02
1324.44
1186.18
1050.71
980.662
980.263
1083.34
1219.51
1221.64
1219.38
1191.02
1059.96
37078
18368.8
11191.2
6320.95
5581.59
3603.67
2800.66
1810.2
1455.55
1211.39
1131.29
1057.9
1030.69
1008.57
1061.12
1032.86
1030.78
1015.19
995.973
939.805
22079.2
14362
10233.9
5977.08
5290.16
2973.54
2350.22
1604.33
1407.6
1118.44
1053.11
917.606
913.074
871.229
881.35
872.162
875.525
870.149
869.889
884.731
32409.8
14733.9
9128.96
5775.1
4867.75
2645.23
2254.51
1538.72
1370.66
1064.54
978.756
831.769
811.661
762.982
761.172
752.136
755.161
757.564
762.186
784.576
19506.1
10644.4
7609.41
4385.61
3809.05
2160.9
2014.27
1396.62
1322.81
1037.99
968.081
790.489
753.973
665.683
653.046
615.42
605.611
583.041
570.369
569.684
27148.7
10558.4
7366.63
4153.56
3385.95
2006.56
1943
1404.39
1322.95
1038.09
958.119
763.567
700.527
584.376
550.405
499.12
485.141
466.205
461.381
464.121
16936.7
10565.4
9749.21
5419.21
3851.16
2133.41
2019.46
1478.67
1403.17
1128.55
1063.79
874.6
808.845
674.798
639.52
576.844
561.595
532.629
522.097
508.915
12098.7
12445.6
11525.8
6784.16
4830.52
2172.82
1701.07
1118.53
1039.54
846.812
825.096
743.518
716.505
635.966
612.113
564.14
552.376
530.609
512.126
506.755
1039.87
3097.41
3467.26
2903.84
1558.46
851.978
595.98
453.727
362.493
286.047
233.617
191.054
163.729
142.347
129.112
114.908
107.711
92.9025
85.6855
68.2511
1073.78
1153.88
808.047
1346.57
1182.97
1254.88
934.144
963.01
709.678
545.973
1140.45
1034.47
813.694
663.686
786.927
1015.35
863.537
1237.78
902.416
1109.72
979.583
500.41
829.878
746.275
795.661
610.66
945.765
843.047
239.734
366.728
247.989
1375.97
1347.92
1374.29
1260.9
193.811
232.179
176.469
1287.98
1058
1175.26
938.508
188.92
167.631
171.086
1017.56
946.692
894.585
864.589
173.248
180.659
175.073
929.476
791.403
859.972
742.649
140.887
149.196
121.255
754.803
748.941
682.244
648.119
177.178
129.147
163.907
750.899
719.864
663.89
675.852
152.515
166.183
160.43
686.242
576.967
664.086
589.401
93.8921
153.846
112.376
529.424
411.597
555.595
450.276
235.051
371.336
276.538
1340.88
1224.83
1408.43
1344.15
165.815
262.087
166.839
1150.35
908.663
1269.03
876.874
158.501
132.615
114.312
855.346
826.148
745.487
668.858
168.386
123.764
135.508
825.831
715.346
686.392
623.995
111.635
125.381
93.4986
648.054
604.304
554.826
449.074
158.126
94.1073
123.874
620.961
649.826
448.834
495.104
158.303
132.319
141.224
644.971
585.702
513.829
532.575
110.73
140.974
114.764
557.081
452.659
528.012
475.254
304.615
413.606
305.062
1457.97
1411.02
1402.86
1307.76
186.391
289.942
230.773
1339.23
924.368
1243.74
981.838
110.317
187.179
116.958
759.553
643.483
838.183
667.132
128.876
118.703
116.399
658.599
599.594
645.54
541.551
92.2091
109.738
103.869
540.854
429.397
516.153
475.05
107.804
103.144
102.402
419.359
433.91
465.014
430.093
130.831
102.868
103.323
449.349
490.962
415.339
387.246
111.781
104.091
91.5306
493.965
471.701
386.599
402.031
243.341
373.226
229.678
1157.35
1096.98
946.611
815.635
195.537
195.875
106.465
1052.14
869.089
744.218
555.164
115.636
98.009
82.4963
760.172
665.377
518.593
462.583
108.382
81.9703
85.2237
627.566
518.263
453.258
439.75
108.267
87.606
93.7543
502.227
483.105
437.414
444.669
109.304
97.5345
108.336
477.84
451.635
447.794
454.349
102.711
109.98
108.214
437.808
391.47
452.859
432.612
87.9911
105.469
76.6401
382.774
382.694
421.993
391.646
1550.22
1676.3
1453.85
2190.44
1931.71
2154.18
1823.86
1217.3
1350.73
1095.41
1825.9
1555.55
1690.54
1421.97
1073.46
1051.72
1005.74
1491.04
1320.38
1378.39
1275.82
898.245
988.758
844.086
1267.97
1131.53
1228.3
1059.85
850.017
790.971
756.454
1103.34
1037.75
1021.21
966.134
788.41
762.969
750.813
1008.52
894.049
950.089
873.809
628.659
730.736
640.534
841.929
702.431
837.472
712.996
450.459
602.518
480.9
650.626
504.414
667.564
524.775
1414.51
1694.61
1515.28
2087.21
1771.48
2089.06
1759.77
1065.31
1419.69
1010.05
1647.83
1389.15
1628.9
1269.2
969.35
889.491
815.372
1344.82
1247.25
1202.92
1120.29
813.256
817.699
705.269
1201.86
1024.29
1095.58
828.91
709.622
632.539
512.519
978.463
920.129
738.936
578.206
725.28
509.465
549.558
909.097
853.716
574.017
649.106
638.054
569.806
586.85
824.489
715.287
676.112
682.173
483.274
579.556
511.61
673.845
533.142
666.088
596.776
1581.13
1715.34
1468.94
2136.49
1789.94
2044.64
1700.41
1044.95
1394.57
1119.57
1656.17
1257.01
1607.76
1318.96
788.225
1001.8
805.032
1177.21
1087.85
1231.31
1035.88
680.105
761.158
626.542
1057.64
806.051
972.122
815.914
487.527
598.031
546.681
716.036
535.811
782.742
706.243
475.839
532.616
482.576
500.961
521.115
679.983
588.48
542.213
462.272
429.443
566.956
638.282
557.373
527.554
508.927
429.237
442.193
638.22
599.545
530.484
558.44
1277.44
1307.67
1066.47
1844.85
1588.66
1776.05
1491.52
1039.47
968.394
712.023
1521.56
1305.72
1336.61
973.437
795.67
651.389
567.384
1227.49
997.242
900.873
789.676
601.127
551.809
522.258
927.807
788.224
761.76
704.51
554.411
515.674
514.262
764.918
716.249
690.426
670.405
508.831
514.831
514.81
699.113
632.906
665.933
653.403
436.207
511.516
486.378
607.392
542.967
645.468
615.273
422.673
475.318
438.261
537.444
548.421
605.434
585.355
2012.46
2269.42
1904.54
2553.74
2189.19
2529
2087.5
1628.83
1765.72
1496.82
2068.06
1778.94
1939.46
1661.69
1368.82
1450.96
1328.62
1692.33
1469.28
1603.35
1429.79
1182.55
1275.02
1109.37
1412.59
1283.1
1368.12
1214.4
1070.08
1072.77
1006.55
1241.84
1113.23
1175.71
1068.68
906.548
984.225
891.131
1063.15
903.313
1029.79
897.365
708.975
850.715
719.115
844.552
695.392
849.784
710.432
502.975
672.562
526.671
639.711
479.057
664.269
527.637
1849.23
2167.37
1800.67
2454.98
2027.86
2337.71
1912.98
1463.89
1666.78
1336.93
1890.33
1630.98
1781.69
1511.39
1302.41
1281.65
1184.01
1576.13
1408.58
1460.02
1315.27
1197.75
1190.48
1218.98
1288.24
1159.41
1227.42
1258.9
974.622
1000.65
969.104
1074.31
930.244
1042.9
1013.45
873.363
551.872
671.884
1000.19
886.518
667.58
732.381
723.414
698.051
698.478
845.23
721.983
740.143
724.392
537.793
680.755
613.442
680.564
550.725
709.18
661.349
1818.32
2104.85
1737.61
2338.47
1902.49
2244.92
1828.15
1313.23
1636.78
1336.82
1764.51
1472.16
1700.94
1392.63
1149.69
1255.23
1078.27
1419.86
1278.6
1329.79
1166.23
1057.61
1025.05
1083.79
1152.84
1020.17
944.247
1126.59
741.864
607.868
791.721
533.639
724.094
470.011
815.628
532.914
716.247
615.815
582.014
638.372
804.943
694.125
657.993
584.43
558.615
664.969
700.166
667.967
651.855
618.673
562.983
590.164
699.172
675.151
658.695
686.567
1646.13
1905.83
1582.36
2139.09
1768.67
2192.66
1747.05
1322.12
1409.5
1036.19
1649.9
1354.33
1542.61
1177.75
1034.15
962.38
844.998
1288.04
1117.08
1109.37
973.208
835.576
814.326
751.356
1062.65
950.315
937.249
865.193
757.518
735.537
710.638
926.171
855.864
846.633
811.92
664.579
705.119
689.029
829.319
743.716
803.184
777.552
576.789
680.118
650.031
718.72
676.649
766.807
740.343
583.431
641.236
622.487
676.13
691.65
734.775
729.174
2241.81
2611.13
2142.16
2958.62
2463.92
2922.91
2376.64
1817.94
1992.11
1707.5
2318.55
1982.83
2219.27
1901.43
1499.31
1643.87
1456.93
1888.97
1653.66
1821.13
1595.44
1307.65
1394.37
1241.03
1591
1425.92
1527.47
1353.7
1118.92
1199.45
1077.5
1366.49
1175.71
1298.55
1127.04
895.926
1033.64
891.506
1104.97
912.392
1069.36
913.853
685.458
843.207
705.396
850.522
692.039
868.638
745.661
470.908
660.639
532.014
636.036
497.387
708.281
615.187
2082.2
2399.22
1959.65
2813.01
2314.54
2665.47
2196.44
1678.17
1829.85
1563.96
2172.43
1877
2065.97
1776.43
1436.36
1508.49
1344.88
1798.14
1571.15
1698.35
1478.26
1211.25
1286.02
1041.24
1502.06
1325.21
1409.7
1216.55
1046.34
940.399
760.606
1269.07
1100.44
1139.25
937.714
882.83
739.416
749.765
1046.52
909.107
891.497
829.123
720.095
751.034
732.808
872.661
773.118
826.116
822.823
559.121
720.189
678.77
742.19
655.455
817.87
796.754
1943.77
2304.29
1865.9
2673.92
2177.14
2593.34
2078.22
1523.33
1731.44
1422.84
2037.66
1734.26
1922.71
1592.76
1308.87
1360.17
1192.46
1656.51
1442.42
1518.5
1323.16
1011.13
1137.82
1013.11
1378.03
1190.59
1268.65
1146.53
707.318
979.111
870.96
1115.04
905.109
1109.49
982.292
674.253
831.02
720.308
853.544
792.337
937.848
841.991
714.792
696.613
683.725
795.12
821.026
830.838
836.435
694.664
691.042
716.635
824.672
819.525
845.199
868.888
1809.28
2285.1
1785.21
2516.51
2012.41
2604.9
1936.66
1378.96
1579.22
1222.95
1857.65
1535.93
1733.45
1404.58
1143.66
1154.35
1011.56
1464.69
1279.57
1336.69
1171
984.13
974.201
900.002
1228.73
1123.52
1127.97
1049.12
884.167
880.953
843.57
1095.84
1002.32
1031.3
986.537
768.241
833.749
804.726
968.27
890.187
971.228
933.077
710.462
793.666
769.258
876.186
865.474
923.517
906.167
724.253
764.721
759.015
868.174
882.548
902.502
896.133
2590.73
3088.26
2515.51
3751.85
3098.28
3700.65
3127.84
2090.55
2355.19
2024.09
2922.21
2615.46
2968.48
2632.87
1760.32
1939
1697.12
2555.03
2320.89
2549.53
2275.83
1518.87
1625.24
1437.34
2252.72
2100.39
2199.34
2001.48
1246.59
1376.37
1186.4
2059.69
1800.48
1937.17
1726.4
969.372
1125.26
977.958
1731.58
1531.71
1672.88
1596.37
743.121
936.247
819.287
1491.63
1302.53
1566
1460.87
553.419
784.629
698.231
1278.83
1170.91
1439.56
1406.14
2451.25
2810.41
2338.99
3539.29
3062.42
3368.45
2984.63
2001.93
2207.69
1903.86
2931.38
2627.28
2864.14
2556.52
1670.3
1815.72
1571.26
2530.76
2246.26
2442.48
2149.56
1407.03
1498.03
1300.75
2167.27
1962.41
2068.81
1858.27
1157.86
1224.24
1012.71
1894.08
1683.41
1777.67
1541.56
971.995
961.931
900.183
1631.9
1589.33
1497.59
1536.51
852.167
905.155
916.424
1585.22
1509.91
1586.62
1622.15
743.809
913.392
892.82
1492.41
1456.58
1620.06
1615.88
2322.29
2759.98
2213.27
3484.48
2985.98
3431.3
2857.32
1861.27
2050.27
1709.95
2846.57
2521.07
2684.34
2369.1
1534.98
1630.11
1418.48
2407.08
2118.06
2284.78
2031.05
1275.64
1361.32
1234.51
2040.42
1838.52
1966.74
1838.11
984.621
1195.17
1059.13
1760.1
1522.57
1796.57
1647.1
871.399
1013.59
935.706
1477.43
1525.16
1612.74
1640.44
920.116
933.954
948.45
1582.25
1640.68
1670.65
1689.87
918.592
957.25
976.149
1645.91
1650.69
1700.22
1733.63
2137.76
2758.13
2026.97
3360.19
2736.81
3320.76
2487.01
1647.69
1826.67
1510.15
2571.84
2292.19
2297.53
2114.2
1377.59
1443.7
1269.73
2235.75
2004.75
2067.93
1893.99
1215.4
1224.1
1145.56
1944.1
1840.97
1824.81
1807.83
1085.39
1130.31
1082.78
1813.06
1703.42
1798.45
1748.49
988.578
1065.48
1026.51
1679.3
1707.63
1706.66
1709.96
976.393
1019.47
1003.83
1713.47
1713.65
1704.57
1695.83
991.457
1000.43
988.955
1721.82
1753.91
1682.2
1694.88
1131.7
1129.52
1024.08
1115.94
1092.1
1168.55
1066.24
1157.18
1180.41
1070.39
1190.5
1119.51
1222.23
1030.27
1060.15
937.29
938.106
665.152
1033.99
957.152
820.085
1230.9
1319.35
1286.81
1320.09
1258.88
1291.6
1259.87
1167.58
1151.96
1231.96
1140.64
1202.22
1105.44
1199.79
1198.18
1216.39
1291.68
1172.08
1259.48
1051.31
1232.12
1103.71
695.553
1066.52
1066.06
1005.25
848.978
1152.47
948.309
980.203
894.789
995.244
907.656
1018.13
929.264
838.392
858.944
620.212
567.248
806.723
883.298
479.198
804.385
769.586
562.691
484.319
777.219
798.143
464.852
1013.32
1110.46
1103.31
1088.47
1076.6
1053.49
1045.7
982.113
1018.33
1068.79
976.879
1046.98
956.064
1009.63
886.612
589.448
993.46
730.807
933.443
515.51
939.879
845.004
518.007
873.153
686.5
832.655
497.428
897.917
973.623
902.562
863.644
638.386
940.933
769.715
892.973
1032.36
1050.78
955.88
1050.93
991.981
1090.18
994.374
975.287
880.075
904.768
906.065
933.69
922.234
945.915
1096.57
1189.51
1150.63
1192.2
987.499
1162.43
1131.93
1016.07
669.945
1024.98
990.267
806.062
936.689
1062.71
1067.56
1081.57
1152.39
1059.38
1123.03
1028.28
1099.42
1013.46
944.502
999.071
1016.43
962.083
982.762
1048.54
680.934
536.764
604.704
406.821
665.576
408.921
604.758
826.125
831.463
800.775
872.244
787.012
872.743
841.853
782.475
704.065
773.926
781.79
746.454
734.562
812.619
780.33
565.164
715.202
914.336
502.398
856.812
839.87
713.147
448.837
642.286
699.393
441.151
635.661
769.42
864.238
910.682
949.765
912.917
912.377
879.059
900.586
817.315
813.802
798.299
879.136
765.924
847.466
850.862
356.714
493.41
416.687
912.916
957.084
931.681
1026.81
343.739
395.691
384.864
1018.62
1024.23
1045.86
1025.44
316.548
371.03
360.799
1003.76
913.917
973.365
910.708
253.793
338.417
291.612
821.065
778.464
825.355
742.031
256.786
266.117
266.088
769.364
760.137
706.344
706.543
259.783
272.347
272.981
734.961
692.702
701.019
679.942
194.089
262.549
227.007
585.801
495.444
620.58
537.012
131.022
196.626
136.305
381.089
310.68
466.933
379.691
536.96
629.994
548.164
1146.84
1207.57
1159.75
1215.45
599.547
308.883
370.852
586.407
605.816
570.001
309.366
613.997
213.22
229.769
687.451
678.219
632.586
214.917
517.592
187.106
186.864
600.801
587.918
524.148
185.888
526.419
191.25
193.078
580.048
570.834
528.03
193.008
389.772
137.782
156.599
451.864
434.211
415.369
141.237
449.116
167.996
146.94
468.246
479.216
426.285
162.988
443.815
173.395
176.483
461.578
446.038
454.859
175.128
341.418
126.233
149.723
331.847
301.479
368.182
135.337
91.5283
165.244
97.3153
289.14
189.519
344.336
226.871
532.928
613.705
542.443
1147.58
1215.82
1153.87
1230.47
595.343
281.544
340.321
570.063
606.325
563.392
280.027
575.145
208.848
222.013
612.756
581.937
603.6
208.201
384.464
152.991
141.729
436.648
429.811
394.217
137.469
443.182
175.655
156.557
466.265
475.403
430.67
163.157
298.41
117.944
133.341
365.91
320.429
344.729
110.822
349.534
138.088
109.845
346.217
380.774
314.007
126.974
397.224
161.849
154.528
415.052
413.87
396.234
156.163
360.428
145.688
150.834
377.604
362.223
373.106
144.971
113.32
196.638
139.635
379.591
274.237
387.079
356.094
596.536
646.796
576.125
1180.14
1240.58
1156.35
1230.95
671.52
366.154
426.954
627.661
668.324
629.851
367.075
716.695
273.259
294.105
724.84
702.824
735.492
279.329
300.059
115.275
150.619
362.032
301.056
382.101
119.462
346.13
127.339
116.67
330.841
356.924
321.737
123.987
282.116
107.049
117.919
319.574
278.134
311.735
106.751
243.751
92.8813
92.5573
242.208
246.654
243.068
92.6702
273.208
122.199
104.775
291.878
304.335
265.433
109.761
302.148
131.942
122.346
326.146
325.807
298.871
123.434
143.855
187.359
151.43
393.885
393.693
378.662
400.997
481.644
583.115
489.545
984.106
1004.77
939.239
900.504
453.85
287.822
335.268
502.462
523.384
469.861
280.066
350.24
217.117
193.351
539.258
526.583
380.641
175.348
229.111
135.637
123.337
319.383
260.481
230.827
110.93
285.965
115.54
104.328
318.981
321.671
293.696
98.9163
280.207
106.971
100.104
290.178
287.909
276.596
103.608
293.515
109.811
112.276
287.749
287.374
292.902
113.575
280.279
105.775
113.549
275.787
267.021
288.414
111.436
242.093
100.858
102.314
247.179
242.242
249.878
99.5374
142.205
159.731
121.084
345.548
384.563
343.632
366.637
379.986
529.239
377.653
771.012
696.309
807.615
708.528
174.247
249.043
191.683
556.328
424.466
548.732
428.936
133.246
163.578
139.215
367.459
359.994
371.592
344.296
127.852
125.295
123.179
359.931
356.782
325.658
294.882
131.087
119.622
113.472
354.7
359.745
288.464