/*--------------------------------*- C++ -*----------------------------------*\
  =========                 |
  \\      /  F ield         | OpenFOAM: The Open Source CFD Toolbox
   \\    /   O peration     | Website:  https://openfoam.org
    \\  /    A nd           | Version:  10
     \\/     M anipulation  |
\*---------------------------------------------------------------------------*/
FoamFile
{
    format      ascii;
    class       volScalarField;
    location    "2.3";
    object      k_0;
}
// * * * * * * * * * * * * * * * * * * * * * * * * * * * * * * * * * * * * * //

dimensions      [0 2 -2 0 0 0 0];

internalField   nonuniform List<scalar> 
12920
(
8036.89
6273.26
2206.54
932.756
642.009
538.604
448.752
393.715
359.512
330.632
294.974
250.872
200.344
151.311
117.037
100.025
94.3402
90.8613
85.1823
65.0164
10650.5
6360.72
2223.83
924.794
621.656
579.988
542.342
519.711
480.954
450.893
378.764
289.108
211.391
158.832
135.503
122.91
116.175
107.691
103.972
97.9722
4280.3
3139.61
1708.91
1079.44
813.461
669.567
504.758
416.939
355.099
335.943
317.104
279.885
227.093
184.304
156.46
135.275
123.935
114.531
110.856
102.598
979.339
1560.17
1602.7
960.747
594.673
450.329
376.561
343.3
305.833
280.765
252.858
228.391
198.594
167.842
141.505
118.818
103.701
92.5744
89.2851
83.0763
1095.56
2550.76
2357.63
1443.12
829.901
607.233
514.781
460.783
405.523
361.082
313.191
272.565
230.078
185.776
148.528
115.108
89.4634
65.5931
54.753
40.2983
1023.13
2484.67
1616.71
967.295
879.001
743.411
624.287
537.015
461.278
428.353
380.916
307.437
246.255
203.332
160.23
117.096
78.6671
45.8071
26.864
13.7926
562.341
2909.7
2773.84
1696.49
1139.41
886.626
702.557
611.21
515.362
462.214
440.24
390.701
292.329
219.848
162.412
103.389
50.8163
23.2789
13.6833
11.2399
3674.1
4597.93
3438.75
1834.91
1150.89
884.748
503.505
344.077
342.625
274.13
252.974
263.743
236.506
165.042
158.119
82.0143
40.7847
26.82
26.1288
31.6139
1553
2852.63
2469.95
1461.95
1095.34
630.964
381.346
224.972
190.255
192.704
148.859
157.805
176.973
137.842
136.356
80.6956
48.4985
46.3027
57.5347
73.5604
265.34
1041.86
1389.13
1243.95
1065.76
621.198
343.736
224.145
155.381
171.524
140.496
120.541
161.856
153.239
191.374
127.265
99.0493
101.067
110.946
115.427
52.8797
453.776
890.176
1034.65
1011.39
683.303
430.781
289.399
137.821
119.457
122.26
92.0678
116.303
132.457
201.289
210.557
161.993
135.567
125.718
119.495
413.223
1217.35
1316.74
1150.43
939.925
568.543
342.373
230.271
165.538
116.596
107.118
109.198
108.227
101.871
166.99
223.405
170.324
135.783
126.032
126.304
550.214
1781.8
1694.47
1481.2
1128.32
856.13
520.507
253.524
142.827
128.881
128.468
138.128
146.783
147.814
197.274
170.623
140.85
122.373
117.771
112.795
5855.35
5609.9
2985.95
1639.77
1109.25
848.886
558.872
360.512
257.887
196.718
172.198
149.861
143.171
132.355
128.697
120.941
115.575
103.63
92.7608
70.0295
4821.91
4604.85
2788.59
1796.54
1212.03
856.278
543.239
343.084
232.077
182.41
154.157
135.668
122.573
111.393
105.227
98.534
91.4769
80.1673
67.4984
55.017
1013.5
2734.13
2667.01
1670.81
918.369
584.801
399.471
301.291
227.207
193.642
164.943
146.163
128.643
114.469
103.951
94.1863
87.5848
76.5826
70.3294
59.7038
2117.25
1955.26
1617.35
923.8
631.383
433.809
346.055
278.366
237.77
214.229
185.678
163.664
137.35
115.673
98.6212
86.0941
78.8334
66.9632
60.3141
43.534
2971.52
1603.65
1578.54
1162.32
667.143
467.554
353.487
318.732
274.995
253.427
223.008
208.23
188.676
169.961
145.631
118.347
99.176
79.2915
71.3028
54.8477
2798.62
1326.43
1614.32
1389.87
979.756
653.263
406.189
316.232
256.261
220.915
184.723
165.549
151.142
139.46
125.747
106.757
92.6356
75.7816
68.8025
53.6588
743.319
921.475
1007.13
948.048
763.688
628.94
518.912
415.684
348.058
296.026
231.877
162.029
113.494
84.7638
69.4972
59.0007
54.1873
49.264
47.0249
41.4902
9846.5
4915.65
2051.41
1537.72
1139.28
940.144
863.727
828.204
754.073
663.205
536.897
404.15
292.424
231.471
216.524
217.846
219.898
216.277
202.704
156.174
11293.5
5087.62
2457.69
1657.04
1343.43
1388.98
1309.66
1273.52
1176.81
1109.99
932.106
685.683
495.791
410.878
392.337
373.414
355.278
329.751
320.816
300.677
6868.98
7172.49
4366.9
2533
1872.58
1600.22
1211.39
1092.9
969.688
932.858
848.258
741.954
606.589
512.201
447.974
398.581
372.267
349.057
338.673
310.099
6338.38
4897.39
3706.57
2049.62
1509.86
1135.91
955.756
896.481
787.881
746.566
661.868
616.272
535.75
461.238
395.702
340.435
303.863
280.472
272.826
249.205
5602.73
6606.91
5647.26
3248.42
1922.07
1447.06
1248.14
1158.71
1017.77
933.778
806.555
725.533
609.217
492.368
394.718
304.06
237.871
186.957
166.294
119.289
3425.95
7699.34
4531.07
2352.84
2164.88
1802.42
1533.52
1354.53
1177.59
1083.05
947.156
787.601
648.395
534.479
408.039
271.63
161.485
91.8614
56.1122
26.8128
3735.61
7705.17
6589.19
3980.06
2722.84
2141.69
1690.58
1485.85
1241.26
1138.3
1028.52
867.114
700.979
536.234
363.957
195.505
89.6152
42.6963
25.7955
21.5487
17310.8
9659.74
6911.49
4211.86
2758.86
2097.06
1616.17
1411.35
1283.85
1047.53
988.721
895.946
716.995
539.937
322.995
160.24
85.6927
61.9356
63.3509
82.021
2469.8
6176.47
5597.89
3631.91
2663.09
2107.05
1714.12
1470.6
1172.16
1046.12
867.705
846.249
748.909
579.562
376.309
170.96
134.521
138.757
176.042
210.24
1217.37
2417.89
3273.25
3056.42
2465.42
1939.1
1620.15
1321.84
1015.2
958.096
752.158
720.547
713.839
604.841
448.894
305.082
298.861
313.046
345.795
366.408
35.1862
686.819
2309.23
2871.88
2547.71
2135.33
1785.93
1484.64
889.98
789.849
614.667
472.071
494.778
545.284
498.769
455.028
409.178
389.382
390.499
394.329
592.309
2987.31
3467.87
3025.48
2239.39
1786.23
1455.35
1231.46
953.655
733.06
582.39
546.745
491.948
427.804
446.98
476.768
402.419
376.93
382.544
399.637
2519.34
5621.96
4845.78
3854.57
2802.24
2109.23
1453.19
968.206
609.781
551.134
506.457
501.807
502.367
480.973
458.558
399.308
347.146
336.155
338.305
335.208
21398.3
11008.6
6273.55
3926.88
2713.27
2046.26
1304.43
857.798
644.274
510.307
451.883
395.122
371.736
346.947
332.387
316.137
308.46
288.039
265.348
211.943
5173.71
9947.8
7081.09
4491.02
2891.33
2015.17
1216.95
816.682
583.356
481.282
409.13
363.132
326.676
300.372
286.463
273.365
258.582
231.443
196.383
170.062
2099.59
6888.62
5176.22
2850.43
1748.67
1326.62
923.073
738.285
572.249
502.865
428.377
383.628
338.319
306.457
279.444
258.127
240.335
214.137
195.206
163.242
4834.94
4679.99
3478.77
2009.59
1477.96
1067.63
865.007
697.175
594.779
527.574
454.586
404.808
343.827
299.083
259.453
226.837
201.414
166.667
148.595
106.4
2309.95
3805.35
3870.48
2671.07
1584.21
1154.29
892.219
788.031
657.079
594.649
518.814
486.452
437.78
400.595
350.153
296.963
253.334
204.822
185.167
143.488
1449.35
3413.01
4663.27
3576.01
2318.76
1509.35
964.778
798.368
621.169
525.451
426.143
380.681
345.174
319.897
290.583
254.765
227.034
187.587
168.078
123.702
381.713
1295.5
1967.7
1999.92
1651.62
1223.64
909.61
720.864
598.042
480.474
349.912
249.636
194.538
159.048
134.27
116.509
106.912
97.4756
93.1575
82.5846
2678.08
2944.09
2412.92
1884.61
1292.67
1001.81
874.278
781.847
674.99
560.523
445.597
357.707
307.415
289.538
284.682
278.17
266.234
235.275
215.302
168.785
15206.8
5296.81
3411.35
2604.51
1975.5
1834.41
1549.76
1459.46
1283.76
1194.27
993.362
869.134
769.289
720.372
678.182
626.534
581.926
529.774
504.267
449.667
5887.53
8063.43
5415.57
3273.6
2473.63
2026.62
1595.18
1440.16
1262.36
1183.28
1031.51
921.234
802.904
724.664
658.092
601.782
561.381
520.087
497.87
442.995
5384.53
7463.58
5468.56
2955.43
2116.87
1580.09
1400.7
1274.49
1127.9
1057.68
933.755
852.644
742.773
655.503
575.11
509.64
465.39
431.086
412.776
358.225
7196.81
7946.42
7040.56
4385.79
2669.86
1938.12
1662.39
1490.1
1296.9
1182.78
1028.77
918.734
777.415
650.543
531.397
430.602
363.237
307.249
275.803
195.042
11892.3
11905.9
6412.39
3280.86
2773.45
2098.91
1904.5
1628.97
1409.55
1252.37
1074.12
925.092
780.512
643.453
489.516
351.918
242.65
163.16
107.18
54.1458
7647.77
10006.3
8187.91
5091.59
3508.49
2629.45
2082.98
1770.44
1490.49
1332.96
1144.7
960.862
787.116
615.737
419.964
244.257
131.538
76.7631
52.3112
45.7818
14610.1
10284.5
8060.98
5280.48
3551.66
2594.19
2137.88
1849.76
1582.17
1328.31
1200.8
1019.17
813.171
625.287
353.947
207.213
134.138
107.561
108.861
131.617
15126.7
7828.21
6898.84
4630.16
3424.55
2794.22
2308.05
1902.22
1559.94
1314.16
1153.96
1035.98
851.817
655.758
399.044
251.04
233.327
240.521
277.438
296.91
3422.97
4121.06
4931.43
4210.5
3134.64
2538.09
2203.27
1719.55
1421.23
1250.57
1031.6
947.27
840.372
680.576
498.098
458.476
471.434
496.151
525.114
528.89
420.476
4263.59
5041.85
4435.82
3168.32
2664.19
2200.38
1677.6
1249.62
1116.92
684.443
460.122
589.073
657.931
613.922
611.028
607.624
613.333
633.034
635.447
850.445
4431.14
5435.22
4243.19
2911.57
2338.89
1935.5
1568.26
1242.48
968.278
812.583
738.75
638.922
573.778
614.598
650.509
625.23
624.449
631.603
625.535
8059.65
9741
6957.4
5180.74
3654.6
2681.12
2000.15
1346.22
918.076
789.233
707.751
679.401
663.513
639.328
619.766
580.757
555.198
538.064
530.912
511.35
14756.1
10339.5
7185.23
4882.04
3478.59
2478.8
1597.52
1085.96
853.551
680.859
607.802
537.344
513.835
488.215
479.949
465.846
458.894
437.133
420.484
385.761
18392
12052.6
7263.62
5089.96
3498.8
2314.57
1452.57
1012.75
779.83
643.084
554.95
488.015
450.661
421.02
408.085
393.541
381.959
359.265
339.392
321.229
8766.82
9871.32
5720.42
3380.84
2365.34
1626.84
1182.92
921.344
753.92
647.923
558.321
490.361
436.081
394.346
364.447
338.087
317.289
289.475
272.647
244.141
7590.44
7314.5
4647.56
2754.57
2042.56
1412.34
1143.78
908.967
774.755
670.939
575.236
503.187
427.51
372.295
323.218
282.528
249.308
208.662
189.172
152.145
4837.13
5107.34
4989.7
3755.64
2261.52
1546.31
1179.7
993.771
822.157
730.729
636.368
583.206
512.493
457.57
395.472
343.869
302.296
254.42
231.997
184.064
1243.7
5555.05
5904.88
4853.43
3093.43
1865.93
1155.49
909.419
684.347
580.972
488.705
456.216
416.34
385.403
347.64
309.94
278.034
235.788
212.414
159.265
119.815
680.163
2045.83
2263.59
1863.18
1270.85
939.109
751.236
610.428
471.435
350.895
270.95
220.664
183.11
158.754
138.533
128.511
115.654
109.271
92.7086
4859.35
3398.5
2923.89
2007.59
1312.25
921.633
727.364
591.201
498.819
434.191
388.673
360.011
342.836
326.912
310.575
284.591
259.04
222.183
202.342
160.525
9664.24
6572.33
4651.34
3056.16
2426.48
2019.33
1691.27
1529.61
1342.59
1244.1
1117.78
1052.63
988.615
940.279
886.509
822.107
767.09
702.864
665.424
592.862
10655.4
8541.69
6380.37
3728.79
3036.89
2339.58
1947.68
1706.53
1517.15
1362.11
1203.3
1077.36
975.902
897.773
833.211
774.323
730.5
678.213
645.064
567.497
9179.37
9828.28
6144.08
3393.25
2638.96
1908.82
1790.34
1554.87
1412.15
1268.81
1127.71
1004.46
888.166
793.261
717.133
655.227
612.903
570.845
539.838
457.865
10909
10452.3
8759.65
4845.25
3264.57
2326.04
2057.82
1778.61
1571.28
1385.53
1203.04
1038.84
878.504
742.372
628.833
541.681
482.978
427.056
383.865
293.403
31218.5
15437.5
7843.03
3986.68
3306.15
2321.01
2222.67
1855.35
1607.77
1387.9
1191.82
1016.78
840.099
679.27
528.853
420.045
332.938
263.115
197.622
149.708
6081.62
11467.6
9624.37
5878.1
4252.03
2995.98
2444.24
1980.64
1696.9
1460.02
1226.33
1015.12
801.55
609.213
426.343
290.728
204.355
161.513
138.125
136.58
9050.57
10617.2
9652.75
6171.56
4289.24
2963.52
2447.04
2080.82
1738.76
1478.95
1274.86
1036.53
813.697
603.004
364.688
265.791
212.661
192.235
192.871
210.157
10970.2
9976.73
8756.15
5518.93
4197.41
3293.75
2637.38
2117.09
1727.59
1442.8
1262.53
1064.07
835.726
628.356
401.798
368.062
361.892
361.121
371.768
366.024
10285.1
7883.43
7620.96
5171.16
3772.66
2944.62
2532.66
1942.37
1619.12
1373.14
1167.77
1007.37
840.767
680.486
561.629
642.232
675.355
687.122
689.098
649.465
6220.41
8689.76
8178.61
5418.28
3828.27
3029.07
2393.34
1805.9
1468.88
1261.43
916.981
671.719
690.13
714.923
714.851
804.735
837.559
861.519
867.132
832.048
8415.12
9955.78
8413.45
4958.43
3488.43
2713.92
2212.73
1679.55
1315.01
1091.71
960.501
856.667
745.782
711.78
764.837
843.09
851.599
857.363
853.25
807.512
18545.8
12200.2
8687.63
5869.41
4410.36
3117.76
2362.41
1533.57
1123.54
946.139
851.873
808.696
777.387
760.252
757.74
736.402
728.564
712.344
702.116
670.356
22639.2
11131.6
8302.61
5467.18
4142.66
2714.99
1828.09
1276.03
1031.71
826
746.014
658.315
638.957
610.746
608.097
601.71
599.115
586.202
577.064
569.67
26778
11193.4
7803.63
5340.43
4023.63
2469.44
1694.2
1199.55
967.093
782.177
684.116
593.68
560.289
527.359
518.853
507.8
502.37
492.322
486.583
487.667
20926.6
9573.27
6276.66
3793.29
2875.09
1836.43
1443.79
1089.45
931.892
775.34
678.294
579.276
524.081
471.356
444.617
417.168
398.962
376.714
362.796
347.185
21004
12331.8
6165.85
3403.84
2557.02
1688.17
1419.68
1091.87
948.911
790.19
683.588
577.466
496.193
427.641
376.895
335.83
305.466
276.919
263.079
247.887
14659.5
8500.36
7013
4588.46
2874.82
1822.52
1450.42
1164.66
993.074
858.304
756.473
665.925
581.207
508.195
446.012
399.202
361.872
325.158
305.697
274.513
4466.2
8771.1
8524.83
5981.87
3790.72
2068.1
1272.14
957.181
746.203
652.633
571.795
535.915
491.505
451.334
408.745
372.474
339.52
306.69
281.239
237.903
224.924
2186.72
2853.81
2640.45
1726.23
1080.68
815.33
647.226
514.901
398.562
314.023
251.841
208.072
175.084
155.142
136.89
128.431
114.7
107.46
88.1963
1848.82
3371.23
3048.55
1874.4
1089.25
730.771
558.525
476.664
431.081
399.315
375.168
348.016
321.423
285.778
250.451
215.918
189.072
165.868
147.3
128.433
7413.77
8376.12
5974.36
3210.06
3192.37
2265.67
2219.59
1803.29
1765.3
1540.4
1508.88
1391.53
1360.28
1275.71
1228.07
1129.82
1077.06
991.748
941.41
851.971
9060.18
10066
8006.49
4181.32
4089.77
2817.69
2697.29
2183.18
2081.48
1736.79
1618.95
1380.4
1317.26
1196.41
1155.16
1077.12
1037.87
961.742
906.824
804.896
37763
15858.4
7808.41
3843.62
3523.12
2292.1
2486.46
1957.9
1936.51
1628.86
1516.39
1271.53
1183.71
1048.72
997.86
925.527
888.454
824.314
761.925
673.51
26954.2
12053.6
10098.1
4916.26
4375.39
2869.29
2840.01
2321.05
2172.54
1788.03
1600.56
1292.18
1123.98
946.385
856.17
769.067
716.947
644.941
584.609
544.038
30418.2
16372.3
8685.62
4562.56
4158.4
2655.85
2884.98
2213.82
2073.22
1709.51
1518.77
1230.46
1009.2
809.633
678.412
590.899
525.239
471.271
432.124
434.096
18195.8
13743.1
11658.3
6317.87
5447.2
3421.43
3147.34
2393.8
2190.63
1781.69
1531.91
1207.23
915.755
685.035
537.182
452.495
409.898
386.421
373.104
385.666
10974.8
12897.2
11927
6513.51
5329.12
3340.01
2888.25
2394.31
2070.59
1758.63
1510.8
1173.33
906.04
647.752
533.831
456.184
413.744
394.737
390.111
402.138
21771.9
14731.4
11705.4
6082.06
5309.22
3934.11
3128.01
2433.2
1994.7
1690.11
1451.93
1165.53
903.16
685.848
587.349
650.975
616.599
574.404
554.765
508.39
16116.5
11714.8
10871.6
5932.78
4688.72
3364.19
2952.89
2303.6
1911.6
1594.14
1342.86
1097.17
938.772
821.057
822.35
1018.11
1025.87
1013.76
970.217
822.81
14294.4
12443
12120
6351.07
5009.74
3599.17
2829.88
2175.39
1769.85
1463.1
1199.72
929.008
877.967
921.503
1003.55
1212.86
1236.66
1249.19
1231.78
1095.66
21608.5
15080.9
11805.2
5592.32
4438.43
3121.09
2675.41
1972.6
1571.65
1321.74
1184.13
1048.58
977.213
976.675
1080.13
1226.56
1228.42
1225.96
1196.96
1064.8
37639
18627.2
11366.4
6309.42
5649.6
3623.46
2805.67
1810.19
1453.91
1209.36
1128.68
1055.34
1027.75
1005.65
1066.68
1038.11
1035.9
1020.2
1000.61
944.266
22145.5
14166.4
10390.5
5971.33
5337.94
2983.22
2359.83
1609.66
1414.5
1122.98
1058.26
921.64
917.419
875.422
885.722
876.478
879.847
874.51
874.157
889.464
33772.5
14739.1
9235.31
5764.61
4923.63
2639.11
2272.21
1543.84
1378.99
1069.19
983.826
835.475
815.578
766.561
764.822
755.806
758.904
761.398
765.977
788.758
18611.1
10518.6
7705.2
4372.34
3841.96
2162.3
2026.38
1400.43
1330.2
1042.23
973.25
793.964
757.681
668.669
656.11
618.228
608.406
585.708
572.924
572.383
27819.9
10556.1
7436.29
4133.89
3418.86
1998.36
1957.6
1405.64
1331.07
1041.91
963.196
766.748
703.806
586.791
552.779
501.203
487.234
468.237
463.391
466.283
17132.4
10611
9863.3
5432.57
3884.33
2138.11
2034.38
1485.9
1412.42
1134.53
1070.06
878.954
812.966
677.886
642.54
579.486
564.239
535.138
524.504
511.418
12828.9
12826.4
11740.7
6839.01
4883.83
2182.21
1713.7
1125.19
1046.42
851.924
830.253
747.753
720.38
639.114
615.106
566.832
555.009
533.103
514.387
509.266
1073.25
3143.42
3495.54
2909.78
1551.02
849.431
595.323
453.537
362.335
285.93
233.495
190.94
163.659
142.316
129.088
114.887
107.674
92.831
85.6063
68.1449
1074.11
1154.16
808.861
1346.7
1183.93
1255.01
936.09
964.668
710.322
546.662
1141.68
1035.56
814.902
663.578
788.126
1014.67
863.697
1238.16
903.625
1109.53
980.213
499.419
830.438
747.293
796.345
610.734
946.696
844.246
239.292
369.281
247.795
1378.91
1348.95
1373.73
1259.3
193.233
231.681
176.12
1287.43
1058.39
1173.29
938.216
189.442
167.923
172.278
1018.76
948.382
895.609
866.962
172.111
181.687
174.894
930.657
790.194
861.738
740.393
141.572
147.817
121.582
754.869
750.959
680.81
649.76
177.685
130.237
164.594
752.658
720.428
666.193
677.09
152.485
166.769
160.656
686.459
576.322
664.858
589.373
93.7868
154.038
112.11
528.706
410.479
555.312
449.68
235.358
375.427
277.226
1341.29
1224.26
1410.75
1344.85
165.449
262.314
164.891
1149.32
908.063
1267.94
870.549
159.813
131.623
115.017
856.261
828.822
741.627
671.589
168.247
125.065
135.842
827.946
712.835
688.601
622.163
111.898
124.781
93.7435
646.223
605.769
552.997
450.004
158.858
94.455
124.712
623.316
651.175
450.033
496.868
158.579
133.05
141.665
646.043
585.796
515.371
533.399
110.422
141.396
114.615
557.01
451.965
528.613
475.387
305.774
418.082
306.943
1459.66
1412.25
1405.23
1309.69
183.559
290.914
229.675
1338.74
916.028
1245.74
976.92
110.927
185.263
117.667
753.305
645.681
833.539
667.885
129.197
119.48
116.36
660.532
598.189
645.803
541.034
92.4269
109.765
104.065
539.466
429.963
515.967
475.51
108.558
103.38
102.76
420.419
435.528
465.572
430.782
131.308
103.296
103.734
450.846
491.866
416.054
387.87
111.574
104.512
91.5555
494.649
471.878
387.242
402.67
245.298
376.739
230.894
1160.07
1100.21
944.132
812.49
196.149
196.182
106.765
1055.74
866.731
741.849
555.124
116.425
98.4714
83.0066
758.227
665.848
519.984
463.007
108.539
82.345
85.7644
627.301
518.129
453.922
440.262
108.509
87.9695
94.2035
502.43
483.657
438.104
445.182
109.577
97.8506
108.616
478.428
452.25
448.344
454.837
103.046
110.243
108.436
438.343
392.021
453.297
433.019
88.0357
105.67
76.5422
383.242
383.357
422.177
392.234
1550.52
1677.68
1452.37
2195.14
1932.7
2155.09
1822.54
1217.92
1348.97
1095.85
1826.63
1557.44
1689.3
1423.76
1074.73
1053.31
1008.03
1492.9
1320.98
1380.75
1277.16
897.611
990.142
842.555
1268.16
1132.62
1228.77
1060.05
851.749
790.343
758.27
1104.84
1039.12
1022.19
967.874
788.719
765.039
751.833
1009.51
893.996
951.649
874.398
628.035
731.377
640.431
841.753
701.847
837.795
712.723
449.108
602.178
480.034
649.976
503.05
667.128
523.976
1414
1699.52
1515.85
2088.95
1770.59
2092.06
1758.93
1065.53
1418.47
1005.08
1647.11
1391
1627.02
1268.48
971.905
886.884
817.876
1347.29
1248.71
1204.08
1121.57
811.423
819.606
703.729
1202.41
1024.19
1096.02
828.688
711.307
631.152
513.5
979.132
921.918
738.797
578.85
726.594
510.825
551.309
910.756
854.539
574.648
650.585
638.1
571.351
587.668
825.034
715.212
677.409
682.878
482.278
580.113
511.505
673.588
532.28
666.483
597.18
1581.97
1720.92
1471.15
2138.52
1788.85
2047.6
1701.42
1037.9
1396.89
1116.43
1653.89
1255.19
1608.44
1318.51
790.278
999.575
805.232
1177.44
1088.63
1230.9
1035.67
678.913
760.704
626.098
1058.14
806.174
971.334
815.897
488.183
597.955
547.257
716.059
536.055
783.121
707.16
477.328
533.277
483.269
501.394
522.506
680.91
589.203
543.111
462.967
430.062
568.402
639.073
557.974
528.186
508.869
429.863
442.661
638.916
599.945
531.107
559.261
1281.05
1309.22
1064.61
1847.51
1590.76
1775.09
1489.86
1038.63
966.674
712.692
1523.55
1306.97
1335.17
973.906
795.274
652.985
568.251
1228.1
996.748
902.228
790.315
601.036
552.601
523.028
927.057
788.45
762.453
705.302
555.083
516.47
514.97
765.507
717.247
691.314
671.21
509.514
515.481
515.505
700.099
633.772
666.735
654.327
436.768
512.059
486.929
608.167
543.617
646.186
616.08
423.136
475.6
438.698
538.13
549.284
605.964
586.358
2013.6
2270.52
1903.21
2557.13
2189.89
2528.7
2085.86
1630.71
1764.6
1498.7
2068.88
1780.27
1938.33
1662.97
1369.2
1453.22
1329.66
1693.14
1469.37
1604.69
1430.15
1183.84
1275.34
1109.97
1412.84
1284.3
1368.3
1215.46
1071.25
1073.99
1008.14
1242.88
1113.5
1176.99
1069.62
906.414
985.588
891.597
1063.27
902.868
1030.51
897.463
708.372
850.943
718.817
844.101
694.681
849.779
710.145
501.572
672.128
525.92
638.998
477.839
663.936
527.442
1848.28
2169.61
1799.52
2455.17
2026.51
2337.72
1911.66
1465.88
1665.01
1337.28
1889.55
1632.48
1780.62
1512.73
1303.53
1283.35
1184.63
1577.67
1408.98
1461.65
1316.07
1197.64
1190.35
1219.25
1288.5
1159.14
1227.41
1259.06
975.834
1002.1
969.737
1075.45
931.432
1044.39
1014.31
874.063
551.98
673.234
1001.08
886.832
668.163
733.317
723.316
699.221
699.156
845.403
721.915
740.986
724.981
536.951
681.168
613.87
680.458
550.462
709.81
662.263
1816.82
2107.23
1737.97
2337.53
1900.76
2244.89
1827.42
1312.61
1636.79
1336.53
1762.84
1473.21
1700.02
1393.45
1149.6
1255.43
1078.09
1421.38
1279.58
1331.14
1166.18
1056.99
1027.42
1082.84
1153.27
1018.97
948.734
1125.38
742.908
608.29
792.094
534.297
724.584
470.059
816.59
534.424
717.263
616.6
583.059
639.461
806.115
695.093
658.76
585.062
559.302
665.982
700.938
668.882
652.796
619.057
563.684
590.947
699.945
675.952
659.667
687.731
1647.45
1905.83
1580.75
2138.97
1768.35
2191.44
1746.65
1323.04
1408.16
1037.27
1649.54
1355.35
1541.67
1178.74
1033.82
963.818
845.794
1289.43
1117.04
1110.67
973.743
835.941
815.046
752.262
1062.57
951.029
937.856
866.073
758.603
736.477
711.556
927.105
857.059
847.528
812.811
665.52
705.986
690.063
830.479
744.798
804.012
778.594
577.559
680.919
650.924
719.745
677.732
767.654
741.289
584.21
641.848
623.379
677.229
692.836
735.526
730.34
2241.94
2610.09
2140.1
2957.52
2460.97
2917.66
2371.35
1818.71
1990.63
1708.23
2315.55
1980.07
2214.57
1898.3
1499.1
1644.61
1456.99
1885.75
1650.86
1818.04
1593.05
1308.49
1394.42
1241.93
1588.2
1423.56
1525.38
1352.37
1118.77
1200.5
1078.12
1363.83
1172.68
1297.19
1125.33
895.28
1034.07
891.422
1102.06
909.617
1067.53
911.661
684.655
843.06
705.083
847.99
689.85
866.484
743.891
469.757
660.331
531.922
634.212
495.992
706.716
614.681
2080.42
2398.59
1958.17
2808.12
2309.6
2661.95
2192.53
1679.12
1828.76
1565.01
2168.08
1874.04
2062.39
1774.04
1436.47
1509.67
1345.18
1795.27
1568.95
1696.17
1476.64
1212.11
1286.11
1042.55
1500.16
1324.21
1408.17
1215.99
1047.12
941.376
761.065
1268.08
1099.19
1138.77
937.243
882.963
740.303
750.549
1045.13
907.208
891.154
828.214
720.01
751.753
733.361
870.733
771.466
824.929
821.418
558.951
720.794
679.594
740.721
654.554
816.543
796.061
1941.9
2303.77
1864.86
2669.6
2173.03
2590.18
2075.01
1524.24
1730.37
1423.64
2033.93
1731.99
1919.64
1590.87
1309.28
1361.3
1192.33
1654.47
1440.92
1516.73
1321.52
1012.46
1137.64
1013.74
1376.67
1190.1
1267.24
1145.88
707.86
980.011
872.1
1114.7
904.831
1109
982.013
675.158
832.128
721.257
853.41
791.639
937.52
841.127
715.515
697.532
684.648
794.103
819.669
829.761
835.218
695.349
691.991
717.629
823.362
818.508
843.964
867.902
1808.55
2284.23
1784.39
2514.29
2009.63
2602.65
1934.89
1379.89
1578.25
1223.91
1855.06
1534.24
1731.39
1403.51
1143.56
1155.4
1012
1462.97
1277.92
1335.71
1169.47
984.822
974.668
900.825
1227.34
1122.77
1126.52
1047.94
885.282
881.747
844.368
1095.22
1001.84
1030.15
985.246
769.267
834.453
805.665
967.705
889.139
969.867
931.814
711.524
794.395
770.099
874.987
864.27
922.063
904.81
725.206
765.372
759.935
866.909
881.438
901.035
894.997
2587.4
3083.05
2508.93
3773.53
3122.08
3708.74
3153.29
2086.25
2349.04
2019.07
2934.16
2640.68
2992.34
2655.98
1755.86
1934
1693.2
2571.42
2344.22
2572.33
2297.27
1514.39
1621.66
1434.4
2266.68
2126.87
2219.91
2023
1241.53
1373.34
1183.01
2076.73
1821.04
1958.14
1744.58
964.661
1121.67
973.686
1742.72
1547.94
1689.22
1608.8
739.326
932.033
815.794
1499.75
1311.72
1576.77
1468.22
550.466
781.385
695.734
1282.47
1184.54
1446.2
1417.87
2445
2806.96
2333.86
3529.85
3082.16
3371.97
3002.93
1997.02
2202.67
1899.62
2952.5
2650.15
2882.92
2577.8
1666.63
1811.7
1568.39
2553.12
2267.58
2463.58
2169.93
1404.56
1495.44
1298.97
2188.02
1983.61
2088.31
1877.96
1155.12
1222.61
1011.17
1914.86
1701.46
1796.74
1557.7
968.04
960.419
897.458
1648.64
1602.01
1512.94
1549.49
848.703
901.884
912.861
1596.58
1518.11
1598.54
1632.46
740.773
909.946
889.719
1500.22
1470.35
1630.41
1632.06
2316.99
2756.7
2209.05
3490.86
3006.33
3449.17
2870.93
1857.21
2046.04
1706.32
2865.58
2541.25
2695.27
2382.08
1532.24
1626.62
1415.56
2427.31
2137.81
2299.43
2047.68
1273.99
1358.71
1232.64
2059.48
1857.39
1983.45
1854.98
983.286
1193.43
1057.56
1778.54
1538.41
1813.48
1662.34
868.916
1011.88
932.831
1492.34
1537.74
1627.32
1652.09
916.535
930.648
944.923
1593.9
1651.24
1682.16
1700.96
915.067
953.674
972.457
1656.88
1668.93
1712.05
1752.66
2134.18
2757.5
2024.71
3358.49
2741.81
3328.96
2468.86
1644.31
1824.12
1508.06
2576.38
2301.27
2289.51
2114.14
1374.64
1441.59
1267.05
2247.35
2018.88
2075.3
1891.4
1213.28
1221.36
1142.86
1958.84
1856.25
1830.91
1812.8
1083.43
1127.55
1079.85
1828.68
1717.19
1810.55
1750.44
985.391
1062.42
1023.39
1692.67
1719.22
1716.23
1716.05
972.877
1016.07
1000.49
1725.16
1725.07
1717.64
1702.29
987.593
996.928
985.394
1734.29
1774.38
1695.28
1711.46
1131.82
1129.37
1024.14
1116.59
1091.8
1168.71
1066.7
1157.49
1181.61
1071.1
1190.46
1119.98
1222.73
1034.3
1060.68
937.19
939.471
667.712
1033.98
957.59
824.577
1230.95
1319.53
1286.99
1320.29
1258.97
1291.71
1260.13
1168.03
1152.83
1232.51
1141.54
1202.64
1106.21
1200.39
1197.57
1216.02
1290.68
1174.08
1258.72
1055.44
1231.66
1104.31
697.984
1067.5
1069.13
1005.85
853.558
1153.42
949.63
981.882
896.296
996.739
909.2
1019.75
930.519
838.868
858.904
620.523
568.433
806.862
883.622
479.206
804.578
770.681
562.821
483.766
777.79
799.147
465.029
1014.58
1111.71
1104.67
1089.59
1078.09
1054.57
1046.88
983.28
1019.64
1070.07
977.852
1048.48
957.11
1010.66
887.615
590.344
994.428
731.52
934.202
515.685
941.044
845.871
517.034
873.729
686.048
833.454
497.659
899.024
973.707
904.46
863.661
640.504
940.492
773.71
893.617
1032.12
1050.47
955.247
1050.41
991.704
1089.85
993.934
975.355
880.173
904.515
906.408
933.564
922.561
945.847
1096.71
1190.46
1149.71
1191.94
992.061
1162.34
1132.29
1016.99
672.196
1026.28
991.731
810.324
938.053
1064.07
1067.35
1081.25
1152.18
1059.32
1122.84
1028.06
1099.21
1013.68
945.018
999.796
1016.72
962.661
982.889
1048.82
682.495
536.613
605.545
405.974
666.373
409.016
605.648
826.929
831.831
801.588
872.972
787.639
873.338
842.789
783.323
704.892
774.874
782.892
747.233
735.464
813.661
781.811
566.138
715.745
915.849
502.937
858.229
841.43
714.952
448.669
642.421
700.161
441.269
636.516
770.715
865.242
911.551
950.725
914.014
913.21
880.101
901.694
818.33
814.969
799.433
880.294
766.933
848.586
852.014
357.155
494.795
417.575
912.776
958.628
932.405
1028
344.129
396.194
385.34
1021.81
1027.12
1047.05
1026.86
316.046
371.724
361.489
1005.91
914.093
974.739
911.462
253.882
338.464
291.13
821.36
780.088
824.684
741.722
257.558
266.485
266.841
771.285
761.888
707.452
708.03
260.153
273.221
273.685
736.136
692.975
702.297
680.793
193.646
262.861
226.484
585.038
493.755
620.208
536.193
130.825
196.149
135.789
380.128
309.53
466.145
378.208
537.774
632.583
549.556
1147.42
1209.53
1159.84
1215.99
598.769
309.983
373.229
586.732
605.914
570.08
310.862
611.517
211.934
229.35
686.562
677.248
630.495
214.206
518.425
187.175
187.151
601.313
589.247
524.16
186.363
527.234
191.582
193.752
581.49
571.839
529.097
193.605
389.578
137.631
155.738
450.796
434.769
413.281
141.112
450.859
168.901
148.097
470.393
480.829
428.48
164.157
444.053
173.69
177.066
462.479
446.233
455.623
175.534
340.636
125.939
149.778
331.222
300.58
367.82
135.129
90.7541
164.672
96.6809
288.076
188.301
342.995
225.407
534.521
617.709
544.744
1148.79
1218.09
1155.4
1233.61
595.244
283.108
343.222
569.341
605.456
563.216
281.922
572.792
208.153
222.115
610.892
579.291
601.964
207.758
385.764
153.664
141.893
436.843
431.018
394.245
138.189
444.534
176.405
157.97
468.45
476.587
433.177
164.01
297.261
117.392
132.017
362.185
319.334
341.153
110.323
351.622
139.262
110.654
348.613
382.858
316.114
128.199
398.086
162.35
155.142
416.004
414.684
397.235
156.678
360.534
145.823
151.08
377.685
362.224
373.245
145.172
112.824
196.574
139.379
378.509
273.286
386.537
355.911
599.502
650.527
579.278
1180.23
1242.39
1157.08
1233.56
672.886
369.525
431.185
629.035
669.057
631.563
370.47
714.424
272.884
294.863
723.306
699.841
734.503
279.178
297.221
114.95
148.461
356.773
299.507
375.015
118.683
347.302
128.084
117.756
333.836
358.28
324.763
124.649
281.249
106.653
117.697
317.843
276.868
310.509
106.548
244.442
93.3109
92.8572
242.805
247.648
243.616
93.015
274.176
122.833
105.388
293.064
305.409
266.445
110.356
302.649
132.339
122.798
326.711
326.336
299.542
123.82
143.702
187.739
151.464
393.852
393.96
378.871
401.506
484.594
586.611
492.055
985.838
1008.44
939.532
900.456
456.057
291.093
339.229
504.512
525.415
471.896
283.241
351.027
218.736
194.907
540.921
527.973
381.803
176.726
230.244
135.199
123.778
315.192
260.536
230.967
111.557
286.138
115.963
104.545
320.667
322.422
294.708
99.0915
280.672
107.181
100.439
290.298
288.141
277.018
103.926
293.878
110.064
112.531
288.088
287.715
293.269
113.836
280.513
106.094
113.801
276.116
267.379
288.729
111.664
242.392
101.226
102.609
247.542
242.662
250.171
99.8432
142.288
160.094
121.286
345.969
385.12
343.816
366.925
380.071
531.377
377.771
768.286
693.176
805.117
704.519
173.842
248.255
191.679
553.745
423.723
546.871
427.82
133.588
163.805
139.627
367.839
360.807
371.416
344.537
128.112
125.527
123.547
360.823
357.489
326.264
294.928
131.315
119.922
113.782
355.337
360.236
288.84
293.057
141.665
113.244
113.2
367.199
373.077