/*--------------------------------*- C++ -*----------------------------------*\
  =========                 |
  \\      /  F ield         | OpenFOAM: The Open Source CFD Toolbox
   \\    /   O peration     | Website:  https://openfoam.org
    \\  /    A nd           | Version:  10
     \\/     M anipulation  |
\*---------------------------------------------------------------------------*/
FoamFile
{
    format      ascii;
    class       volScalarField;
    location    "2.3";
    object      nut;
}
// * * * * * * * * * * * * * * * * * * * * * * * * * * * * * * * * * * * * * //

dimensions      [0 2 -1 0 0 0 0];

internalField   nonuniform List<scalar> 
12920
(
7.77281
16.9804
5.33409
3.91815
2.50154
2.65171
2.01265
1.8451
1.53242
1.38489
1.18415
1.01864
0.82729
0.677334
0.570918
0.535576
0.533057
0.55237
0.5304
0.417445
16.193
17.6343
9.71449
6.9056
3.5801
4.64061
3.42858
3.55595
3.01239
2.8919
2.33915
1.83677
1.34667
1.09976
0.974643
0.942572
0.918612
0.892975
0.866452
0.83721
9.73297
12.5914
8.93257
7.35781
5.12997
5.69373
3.52801
3.328
2.66557
2.69701
2.49176
2.30939
1.87518
1.60751
1.39062
1.26833
1.18856
1.12588
1.07544
0.988939
4.6282
8.77056
7.1398
6.98289
4.75175
4.7628
3.35543
3.82945
2.74426
2.73525
2.27941
2.19159
1.86751
1.675
1.46017
1.32121
1.18031
1.0551
0.978297
0.863495
2.61814
11.2479
9.04089
8.57397
5.19025
5.53465
4.05468
4.23366
3.36502
3.19145
2.60053
2.35154
1.96057
1.74022
1.4879
1.27687
1.00905
0.750183
0.613665
0.45001
2.33993
8.35941
9.04144
6.97655
6.64509
6.11091
5.6049
5.19856
4.68563
4.64152
3.74487
3.09687
2.29929
2.00676
1.63858
1.25956
0.925339
0.600172
0.382513
0.21287
0.732955
11.8878
9.93361
9.35654
6.49654
6.6903
5.83454
5.54647
5.09454
4.82031
4.40956
4.07947
2.78334
2.14119
1.62235
1.16434
0.753403
0.433102
0.287057
0.240731
8.76889
15.2035
13.1355
9.65398
7.63467
6.67785
2.51262
2.08037
1.72701
1.35063
1.25503
1.31684
1.11569
0.740791
1.71219
1.04989
0.693132
0.52876
0.527531
0.611304
2.12074
12.0598
9.45978
8.63861
7.29771
2.62462
0.638301
0.392479
0.364978
0.358641
0.294216
0.359905
0.418954
0.309842
0.627273
1.05311
0.738968
0.789693
0.950675
1.27378
0.532342
3.81289
8.38027
7.89017
7.30679
2.78223
0.909811
0.446307
0.283485
0.308545
0.277032
0.280639
0.397797
0.370998
0.935735
1.4923
1.20568
1.25275
1.25066
1.28408
0.108273
2.66998
3.45074
7.1928
7.11257
2.75201
0.692125
0.421974
0.25666
0.233618
0.281283
0.238504
0.288379
0.316969
0.974065
2.21735
1.69357
1.36622
1.15461
1.03785
1.27175
3.36476
7.07425
7.58242
6.86189
2.65805
0.804511
0.383173
0.234623
0.243259
0.323237
0.323193
0.295135
0.239339
0.728962
2.04761
1.56102
1.25841
1.15349
1.15522
2.16193
9.4557
9.19606
8.60877
7.5207
6.56573
2.28152
1.29608
1.13343
1.27176
1.27
1.31719
1.15015
0.87667
2.19674
1.78492
1.46789
1.35076
1.32092
1.26688
16.4019
16.5072
12.2158
9.08963
7.47306
6.53967
5.31184
4.26706
3.60662
3.14823
2.9442
2.74638
2.68432
2.5816
2.26454
1.92142
1.63125
1.40781
1.19893
0.86376
11.8613
15.1399
11.9166
9.53982
7.8082
6.56867
5.23525
4.16339
3.42296
3.03214
2.78635
2.61364
2.48408
2.3681
2.18584
1.84829
1.50511
1.22031
0.980442
0.801847
1.83291
11.4892
11.4308
9.22396
6.82658
5.43271
4.48882
3.89597
3.38327
3.1225
2.88187
2.71305
2.54547
2.40129
2.01275
1.77981
1.56722
1.35185
1.21228
1.08145
5.5057
6.92076
8.98511
6.79132
5.62328
4.66625
4.16977
3.74134
3.45787
3.283
3.05732
2.87162
2.63167
2.41191
1.89599
1.66094
1.47995
1.26061
1.08964
0.796701
4.23495
8.76622
8.9061
7.64308
5.80126
4.85153
4.21694
4.00226
3.71793
3.56945
3.34852
3.23563
2.70909
2.41259
1.92522
1.5752
1.29942
1.08159
0.955208
0.746393
3.5852
4.3209
9.00692
8.34284
7.01644
5.73928
4.52856
3.99204
3.59378
3.33873
2.84367
2.58506
2.14198
2.00568
1.70397
1.44298
1.19356
0.954117
0.822635
0.630553
0.908645
4.60844
4.31837
6.04567
3.80747
3.40944
2.44326
2.04224
1.63958
1.44334
1.17167
1.01235
0.791976
0.663125
0.555487
0.493433
0.457441
0.4225
0.392504
0.346671
12.6368
21.3425
14.5183
17.7724
13.1984
15.6849
12.8216
12.8096
9.93731
8.38954
6.34445
4.77059
3.46203
2.98792
3.15165
3.56918
3.81219
4.03746
3.87706
3.06668
22.9813
21.7933
20.2136
17.9247
18.3557
21.7121
22.8808
23.4706
22.3837
21.2066
17.9738
13.5444
10.6829
10.3436
11.0934
11.5051
11.6777
11.6842
12.0377
12.3428
18.7427
49.6142
44.6898
30.9864
26.8996
25.7875
22.1677
21.6896
20.861
20.7918
19.6801
17.9256
15.4655
14.0934
13.4355
13.1445
13.242
13.3432
13.4627
13.083
18.1715
26.7471
32.1335
28.2827
26.3057
21.3618
18.8969
18.4972
16.8225
16.3603
15.0345
14.9283
14.0906
13.4624
13.0331
12.7171
12.4827
12.4001
12.4667
11.7975
14.9138
27.0609
41.9824
38.622
29.6888
24.8024
23.4395
22.8266
20.9488
19.7419
17.3713
16.2926
14.5822
13.392
12.6233
11.3217
9.95617
9.04021
8.75295
7.10952
13.5158
56.6789
50.9409
33.001
34.8377
30.7227
28.6753
26.5311
24.4056
23.1828
20.9569
18.1653
15.9303
14.8987
12.7795
9.20676
6.30995
4.75291
3.62019
2.40922
9.17272
46.3428
49.9847
45.6266
40.528
35.3754
31.5018
28.6673
25.7422
24.4493
23.301
20.5189
17.6517
14.3214
10.2784
6.30779
4.27569
3.10521
2.33487
2.07271
37.3388
44.8744
49.3702
46.0797
40.7196
35.5396
25.4724
25.0575
24.4081
21.7737
21.8916
21.2101
17.726
13.7608
9.01935
5.78287
4.84679
4.52343
4.79013
5.68167
6.24954
36.7369
46.1819
41.845
38.3796
29.7235
24.8865
24.1889
22.1147
20.3464
17.1955
19.8413
18.7871
14.8295
9.97476
6.55668
7.06188
7.83902
9.44968
10.2574
3.31681
16.4055
32.8498
38.2853
37.5819
29.1856
24.7111
21.7978
17.1114
19.1819
15.5442
17.3872
18.6703
16.3992
13.0567
11.2476
12.2326
12.9008
13.9982
13.9067
0.115297
2.9978
20.2283
33.318
35.9993
28.4089
23.4657
20.4572
12.2594
15.7233
14.7354
11.849
12.3292
14.7019
14.8878
14.8149
14.078
13.8883
13.9462
13.7715
2.18284
20.8908
34.4521
36.5193
31.053
24.2832
18.4708
15.5967
10.7864
11.9886
16.2256
16.3156
14.3747
11.6334
12.6364
13.9247
11.8436
11.6162
12.8507
14.0164
13.0899
41.7076
40.7904
37.9837
33.6697
31.5297
21.8614
15.0314
12.8917
14.6392
15.8603
16.7683
16.6363
15.127
13.6898
11.7378
10.4067
11.186
12.6663
13.322
63.3149
59.4022
48.3865
40.0195
35.1343
32.3608
24.3108
18.0812
15.5425
14.3086
14.4482
13.9091
13.6004
12.8666
12.0866
11.5165
11.4791
11.5585
11.0367
9.39379
19.4211
51.7764
45.1269
40.9347
34.163
31.0691
24.219
19.5014
16.2659
15.3036
14.23
13.5994
12.5554
11.984
11.6357
11.3575
10.8934
10.1242
8.92191
8.4768
5.586
32.394
33.1982
24.777
22.0332
23.4201
20.9438
19.2516
16.9651
16.2717
15.0173
14.2224
13.1632
12.4508
11.7471
11.3089
10.9382
10.3666
9.92795
9.17909
21.8884
36.7296
39.0001
29.1904
26.3264
24.0756
22.5533
20.1305
18.8439
17.4677
16.0291
14.7608
13.2992
12.1524
11.1859
10.3547
9.65719
8.5752
7.95806
6.33882
5.81855
28.9258
39.778
36.9362
26.975
22.29
20.5037
19.8605
18.5515
17.791
16.6872
16.0344
14.8045
13.7395
12.2925
10.9217
9.83579
8.75656
8.53089
6.96343
10.5105
19.2156
39.299
39.5989
33.1353
25.7562
20.0244
18.4534
16.4369
15.2272
13.8413
13.434
13.0226
12.5858
11.7953
10.7469
9.84817
8.57469
7.8672
6.08948
0.693092
9.46327
21.6836
24.964
22.8571
19.6689
15.6025
13.1968
9.70674
7.55619
5.40221
4.90966
4.47819
4.12562
3.53346
3.17696
2.91668
2.65468
2.42786
2.12464
4.70375
30.8363
21.2245
24.4323
16.168
17.7005
14.0747
12.6235
9.57616
7.50531
5.67594
4.60715
4.17804
4.44657
4.90362
5.20061
5.1274
4.7483
4.38347
3.52522
25.1885
42.8822
38.4404
36.0419
33.8277
35.2056
33.4743
32.4831
29.4231
27.4867
23.3561
21.2771
20.2798
20.1868
20.1574
20.1635
19.6719
18.8615
18.6406
17.4131
20.1851
59.2793
59.2983
48.7318
44.1504
40.9311
36.4745
34.7149
32.3253
30.881
27.9265
25.8107
23.9557
22.9423
22.282
21.5908
21.0639
20.2695
19.7573
18.076
19.1828
53.816
56.6667
50.9494
44.9622
37.6364
34.6334
32.6038
29.9734
28.6299
26.3286
25.2395
23.7656
22.6874
21.6462
20.5325
19.7184
18.7792
18.0921
15.8528
29.828
50.5188
59.6408
59.306
49.7649
42.243
39.0994
36.4657
33.1755
30.7983
27.6185
25.8366
23.7334
22.0168
20.0323
17.7718
15.9762
14.2046
13.0657
9.82143
26.6577
71.0669
70.469
56.5675
54.0395
46.3984
43.9746
39.8449
36.3315
33.2779
29.6361
26.618
24.1552
21.9391
18.3645
14.3857
11.0209
8.35734
6.13552
3.62729
23.3787
61.6729
62.493
62.8765
59.4031
53.172
47.418
42.3355
38.2731
35.422
32.0794
28.0986
24.356
20.2013
15.0268
10.5502
7.31305
4.95158
3.62123
3.20359
34.2865
58.6655
61.3593
62.1779
59.0937
53.4273
45.6839
41.4211
37.2452
34.2831
32.8249
29.8081
24.9211
19.9303
12.8987
9.60988
7.58118
6.59974
6.73024
7.8077
24.3215
46.7278
61.2598
59.2713
56.8655
51.4327
46.0419
40.7363
35.8763
31.8739
29.9508
30.0096
26.1683
20.7901
13.7934
11.0694
11.2583
11.7433
13.2237
13.8031
7.05298
27.6666
49.4397
58.1963
55.4307
50.1192
44.4778
37.0148
31.8043
30.5976
26.0957
26.7852
26.0276
22.1716
17.5083
17.1934
18.0128
18.9712
19.834
19.2574
3.00188
14.6743
48.2108
59.2968
53.9874
47.7356
41.0977
32.7666
25.7319
30.0111
8.84868
6.61896
12.7185
19.9927
20.1846
19.7203
19.9791
20.411
21.0343
20.8729
2.12411
36.7304
52.695
58.691
50.0581
42.5364
34.8362
27.932
20.0161
25.4541
26.3219
23.743
18.4675
15.4524
17.6271
19.259
19.04
19.9193
20.8313
20.9351
17.8556
63.4506
58.6945
56.2037
51.0301
47.6405
38.2003
27.9502
25.8923
26.2914
25.8469
25.1432
23.9626
21.8628
20.4239
19.1387
18.7793
19.5758
20.1488
19.6978
89.5678
73.7722
63.7272
57.2358
52.5151
47.906
37.3333
30.4133
27.1696
24.9629
24.0041
22.4483
21.5703
20.4543
19.8206
19.1932
19.0031
18.5777
18.1013
16.6417
58.2306
73.0952
63.3466
59.3179
52.4446
46.6955
37.1539
31.0094
27.2993
25.1039
23.1313
21.3905
20.0738
19.0923
18.5512
17.9736
17.4729
16.5864
15.86
15.1076
41.2896
43.5787
54.7693
46.8466
43.7608
39.8878
34.0305
30.2097
27.3125
25.24
23.1562
21.215
19.6162
18.2319
17.2793
16.3554
15.7135
14.6467
14.0066
12.5511
20.2704
56.9396
59.5069
50.977
45.6544
38.951
34.7571
30.7887
28.2413
25.7373
23.4218
21.177
19.0844
17.2439
15.7093
14.1754
12.9204
11.0719
10.096
8.04664
20.2463
32.212
49.2986
55.5234
44.4414
36.3032
31.8582
29.0727
26.5461
24.8389
23.2498
21.93
20.113
18.3266
16.4871
14.8818
13.6275
11.8475
10.989
8.76939
5.49976
30.7525
50.5867
53.5405
45.4217
35.8786
27.2994
23.4129
19.6861
18.0546
16.8624
16.8179
16.5095
16.0093
15.0886
13.9461
12.8622
11.2223
10.2757
8.01381
0.488395
3.20988
23.3894
26.5537
24.264
20.0668
15.6145
12.139
8.78918
6.81096
5.51134
5.46105
5.10891
4.87457
4.39402
4.05156
3.77837
3.40914
3.08514
2.59321
13.9634
26.0486
30.2668
25.2279
16.1423
14.0369
11.8575
9.36052
7.79303
6.40273
5.9257
5.59916
5.70555
5.78014
5.57735
5.20406
4.79964
4.17673
3.82566
3.11023
37.7974
54.3867
52.2078
47.4263
42.0995
40.8014
36.4531
34.7365
31.2516
28.796
27.0583
24.2065
23.6464
22.2433
21.5529
20.474
19.7604
18.3903
17.8092
16.2088
21.9315
61.9074
67.706
58.9975
53.2237
48.6751
43.3133
41.0023
37.6583
35.0547
31.9803
29.5755
27.8519
26.4587
25.3169
24.0306
22.9882
21.5114
20.6041
18.2162
19.1719
68.7382
73.3665
62.0744
54.2686
47.0752
43.8319
40.4916
37.4245
34.9498
31.9895
29.7434
27.5531
25.6407
23.9451
22.3088
20.9731
19.479
18.2969
15.3033
63.1014
64.3913
72.9832
69.6851
59.445
51.8946
47.6052
43.9604
39.8536
36.6246
32.9506
30.0514
27.0427
24.2325
21.4558
18.9444
16.905
14.8394
13.3043
10.0284
85.7475
80.1888
74.0951
66.5626
62.887
54.4092
51.3266
46.6147
41.914
37.8683
33.543
30.0082
26.3298
22.7113
18.7219
15.4012
12.3582
9.67032
7.39761
5.59189
14.3728
70.5809
72.6236
74.2168
69.2779
62.0432
54.3812
48.8752
43.7532
39.641
34.6363
30.1325
25.2223
20.4619
15.5291
11.2094
8.21218
6.45287
5.55795
5.46087
32.0455
68.0188
70.8241
73.1926
69.2054
62.6667
55.1904
48.8285
43.5584
39.6558
36.0193
30.9998
25.643
20.1529
13.2342
10.3848
8.49691
7.72736
7.91039
8.67005
39.4835
51.2667
67.7148
70.2803
67.5347
62.6761
56.131
47.9004
41.8941
37.3379
34.7576
31.1548
25.8989
20.421
13.9869
12.6787
13.0746
13.554
14.1576
14.2492
21.6012
48.8258
64.9591
70.0381
65.2221
59.9534
53.9215
44.6953
39.0051
35.2862
31.137
28.5214
25.1896
21.1938
17.5312
19.1815
20.5297
21.3353
21.3484
20.2891
17.1889
50.6649
67.8303
71.5539
63.8382
56.7184
49.4603
40.4875
35.6552
33.8339
15.6071
12.3558
17.3179
20.5903
20.3888
21.7388
22.9072
23.7836
23.9201
22.6694
17.4653
48.2619
73.9672
71.0483
60.6494
52.7604
44.8753
36.5267
31.5408
31.3238
28.7586
24.6653
20.1831
18.8685
20.2971
22.3594
23.1925
23.7059
23.8863
22.7351
51.5037
73.5693
72.5672
69.3223
62.7703
56.0845
47.2456
37.7305
33.4042
30.6294
28.3272
26.5613
25.0765
23.6721
22.7866
22.5076
22.6577
22.5672
22.2919
21.1915
82.5594
80.2912
76.3722
69.9931
63.4424
55.6644
44.278
37.6713
33.3332
30.1454
27.8229
25.4086
24.2399
22.9782
22.3425
21.8213
21.4153
20.7724
20.2049
19.1306
90.6257
82.7181
77.3519
71.2614
63.2296
53.5962
43.0287
36.7508
32.6203
29.3305
26.6279
24.0519
22.7024
21.3494
20.7653
20.0084
19.4313
18.5575
17.9844
17.1012
51.2855
77.3527
66.7718
63.8821
56.6337
47.6015
40.2149
35.3649
31.7355
28.732
25.8644
23.1245
21.2603
19.4664
18.389
17.2197
16.3455
15.1668
14.3779
13.1355
61.4841
59.018
67.858
62.2655
54.11
45.2218
39.6321
34.8953
31.3969
28.2966
25.3366
22.5295
20.0668
17.7797
15.9103
14.1842
12.7694
11.2074
10.3622
9.21445
47.9635
50.0316
60.1696
62.9333
51.8113
43.0913
36.5586
32.5974
28.9329
26.6362
24.6453
22.6813
20.659
18.5516
16.7073
15.0417
13.6089
12.0144
11.0743
9.56668
14.0319
51.0848
58.4337
60.2332
48.4577
37.8954
27.1473
22.5836
19.0249
18.0963
17.2675
16.1994
16.3965
15.5691
14.6537
13.4507
12.2134
10.8826
9.90886
8.22509
0.673888
25.6354
29.7025
28.7383
23.4365
17.9351
12.1078
8.80564
7.1533
5.73399
5.15706
4.75982
4.41514
4.23925
3.98888
3.74457
3.5843
3.24334
2.96323
2.49586
3.05703
30.0702
12.477
15.6796
6.43861
8.12891
4.93973
6.10791
4.64064
5.22455
4.47353
4.50998
3.87757
3.43589
2.82399
2.44681
2.14505
1.93198
1.694
1.5165
19.1748
32.4449
55.5276
50.2044
36.6109
38.6349
31.399
30.9512
27.6735
26.5382
24.7568
23.7706
22.5776
21.3658
20.3367
18.9641
18.1179
16.8992
16.1303
14.8219
14.8595
61.693
69.1448
62.9264
52.1817
47.4171
40.4123
38.3659
34.4561
31.8849
29.0341
26.3763
24.8562
23.1081
22.0537
20.7389
19.8387
18.4734
17.455
15.6327
77.3513
70.8872
54.271
60.4636
51.4099
48.5493
41.5812
40.7928
35.2957
33.3365
29.3726
26.2154
23.9301
21.7513
20.4185
19.0151
17.994
16.5934
15.2843
13.4593
64.0397
76.6284
60.5724
71.63
47.6189
50.2819
44.1539
42.2695
37.1233
33.7025
29.7192
25.8551
22.7151
19.8858
17.8324
16.0584
14.7317
13.2586
12.0604
11.1678
71.2115
86.2706
79.8542
55.8582
60.2493
54.8606
47.6854
46.0471
39.0948
35.0786
30.077
25.733
21.3146
17.7831
14.9496
13.0064
11.3869
10.2298
9.4686
9.34676
32.5183
54.0412
54.618
80.7218
62.9206
59.4439
50.8343
47.1574
40.6982
35.7254
30.0518
25.1338
19.6359
15.5819
12.3628
10.4606
9.40421
8.9369
8.84693
9.03337
45.3745
76.6367
80.5482
80.8662
69.2359
59.5694
53.7547
48.4827
40.975
36.5233
30.8779
25.7986
20.4537
15.7405
11.9718
10.7824
10.0912
9.79586
9.89324
10.1319
40.2835
74.4542
80.3457
78.0458
68.1507
62.0045
51.4918
43.1757
36.7497
32.2495
28.225
23.7945
19.191
15.1048
12.1978
14.1062
14.0916
13.6218
13.4435
12.8602
61.0967
55.2768
76.407
66.3119
65.5296
60.9038
51.3341
38.9596
33.2898
29.2865
25.4411
21.402
18.3098
16.204
15.6969
19.6524
20.3733
20.3107
19.4993
17.3954
47.5861
65.0152
79.8021
78.5577
62.1108
53.4972
45.8588
35.9657
30.7809
27.7568
22.667
17.4522
16.3489
17.2658
18.1858
21.7696
22.6724
22.7859
22.3122
20.2627
72.9976
49.6542
83.9235
43.205
59.4205
51.9953
43.3112
34.19
28.596
24.6412
22.1111
19.5329
17.9441
17.8602
19.0209
21.7651
22.4127
22.4191
21.9179
19.8708
99.6979
85.1257
81.5638
61.8501
63.9511
52.0215
44.4224
37.2018
29.5016
26.4644
23.5513
22.3916
21.0946
20.683
20.7416
20.705
20.4983
20.0725
19.6314
18.3988
54.0037
49.1395
84.1878
66.2313
64.2849
53.9084
42.2254
36.6945
31.5142
28.1631
25.2282
22.921
21.5684
20.538
19.8011
19.2749
18.7776
18.3399
18.0669
17.5931
87.4845
82.3361
83.4994
56.946
63.2922
35.3371
39.6865
33.9597
29.7124
26.2241
23.5477
21.0644
19.8897
18.7479
18.1814
17.5969
17.0748
16.6511
16.4656
16.188
66.2311
32.3415
79.4181
47.0004
55.0392
45.5482
36.9207
33.8937
28.6216
26.0644
22.5699
19.8311
18.0798
16.4691
15.5985
14.76
14.2326
13.6276
13.2236
12.8351
79.0359
68.5126
74.9905
33.981
51.3055
23.3429
36.0648
30.1449
27.9627
25.3033
21.7817
18.7795
16.5517
14.356
13.2064
12.1306
11.6228
11.1392
10.9345
10.7254
44.3496
64.7974
69.7375
68.2883
50.108
41.3881
34.0739
31.0337
26.5818
24.3402
21.5894
19.0911
17.1175
14.8748
13.7768
12.5799
12.0299
11.4107
11.0981
10.8001
33.3012
58.1821
66.9761
64.5693
48.4404
34.5057
24.5317
19.6052
17.2936
16.0978
15.1529
14.5356
13.6253
12.4855
11.7446
10.8554
10.4008
9.89183
9.43509
9.18966
2.2364
31.0157
19.4856
30.2222
14.3254
14.4399
6.39321
6.32232
4.24083
4.12481
3.22059
2.9889
2.51457
2.41445
2.12051
1.90755
1.69871
1.42944
1.22022
0.976484
26.9543
29.3937
10.4785
34.8293
31.448
33.0696
10.6552
26.4152
9.21458
7.74576
30.5374
29.0892
9.0365
9.1091
10.0652
25.92
26.4821
32.6902
10.255
31.5006
29.3715
7.07347
25.7799
22.601
9.09283
8.12574
28.2434
23.6899
0.401497
0.680111
0.46378
16.2422
18.8069
16.9786
18.1835
0.359096
0.434099
0.326609
18.8176
17.9639
17.5556
14.6754
0.341432
0.30585
0.302681
17.6506
16.9303
14.2021
15.1402
0.320893
0.319691
0.312594
16.5902
13.9783
15.4036
13.2935
0.302319
0.277301
0.264327
13.4478
15.1606
12.215
13.1533
0.420126
0.293613
0.400311
15.7395
15.8176
14.1566
15.3687
0.354832
0.405559
0.38981
15.205
12.9763
15.2469
13.9074
0.205895
0.368393
0.26377
11.9033
9.31493
13.1908
11.148
0.49857
0.769983
0.475141
17.0338
17.5082
16.2419
16.6877
0.305481
0.430972
0.29119
16.8143
13.5436
15.9659
11.1111
0.286961
0.25156
0.226266
12.9957
14.6131
9.69171
11.6676
0.314952
0.245059
0.292356
15.1304
13.3646
12.8877
13.067
0.254189
0.280382
0.235059
12.1225
12.7002
11.744
10.2612
0.390852
0.240416
0.312715
13.6382
15.0053
10.4801
11.6906
0.389438
0.330641
0.34754
14.9963
13.9465
12.1461
12.8942
0.258372
0.343396
0.278096
13.3675
11.2844
12.8691
12.3168
0.447163
0.647239
0.447945
15.7485
16.8142
14.7462
14.8684
0.306296
0.41567
0.309758
16.2927
11.2151
14.3236
11.0225
0.217259
0.256128
0.199341
9.32916
10.3876
9.11606
7.44798
0.285407
0.226204
0.296645
11.8231
12.8066
9.03532
12.2703
0.235093
0.293899
0.287576
11.8043
10.0706
12.3972
12.3197
0.275492
0.286131
0.278748
10.0008
10.3922
12.171
11.2694
0.318776
0.270843
0.248213
10.7179
11.8834
10.7922
9.72628
0.263651
0.243766
0.207388
12.0696
12.2743
9.6908
10.524
0.442018
0.720021
0.496397
12.3789
12.3816
9.84885
9.5204
0.274542
0.419418
0.312796
11.9734
9.68551
9.05408
7.6956
0.209449
0.317177
0.306299
8.26132
7.37033
7.5703
8.82675
0.315365
0.328056
0.402249
8.86437
12.3119
9.5998
11.2356
0.325353
0.405475
0.41727
12.5831
12.9217
11.5738
12.5501
0.311086
0.425925
0.380324
12.8952
12.2317
12.8579
13.2472
0.250134
0.387554
0.289314
11.7835
10.1169
13.1803
12.2447
0.194073
0.288404
0.171238
9.80602
10.0698
11.8194
10.834
24.5121
25.2783
23.8867
41.6465
38.6528
41.6103
37.2634
22.5204
22.8033
19.0704
37.5253
34.1392
35.301
30.5236
20.8879
18.5047
19.3358
33.1989
30.5104
29.8707
29.2
17.5363
19.439
16.7394
29.54
27.3574
28.5509
25.3163
19.257
15.7212
17.1139
27.4041
28.4781
24.7936
26.2522
19.5461
18.1529
19.2582
28.3896
26.3691
26.7386
26.2557
16.0529
18.9773
17.082
25.1608
21.4242
25.528
22.3861
11.2276
16.1461
12.9963
19.9266
15.6205
21.1146
17.206
22.951
23.5905
21.5469
40.4113
35.8384
38.0421
32.814
17.7318
20.2933
14.4192
33.8415
29.1008
30.6209
24.4282
18.7957
12.972
15.6472
28.6094
28.8008
23.9222
26.4613
16.7343
16.9143
16.2081
28.3644
24.8477
27.2098
16.3893
16.4031
14.6273
12.3891
23.9357
24.6695
14.2868
10.8371
18.7807
12.4679
13.6529
25.2497
25.5505
10.783
14.9771
17.1706
14.3863
15.7968
25.0964
22.5852
17.2347
20.7722
13.1959
15.8098
14.5435
21.483
17.6596
20.8619
19.8353
21.5845
21.7159
18.8759
37.4704
32.2953
34.2642
28.6617
14.1728
17.9328
13.4509
30.0825
23.0798
26.8582
19.4005
14.121
11.4345
9.9729
22.141
25.027
17.8419
20.5388
16.0278
12.2502
15.9297
26.5671
16.346
22.8186
24.5691
12.1932
16.0332
15.6703
14.2121
10.3113
24.1332
21.7758
11.8781
15.3496
13.6924
9.50383
10.5948
20.5831
16.183
14.3329
12.8696
11.3921
12.6605
18.3164
14.7629
13.6226
14.5002
11.3935
12.1848
19.2241
19.6891
14.0251
16.0968
16.2511
17.3433
14.7546
31.0162
26.6348
30.8762
26.6916
12.3321
13.6382
11.0612
25.1936
18.7839
24.3196
19.928
9.77385
10.7071
12.3627
17.4064
20.0309
19.9441
22.3106
15.9461
13.3337
15.1061
22.3922
24.6063
23.055
23.9188
16.4495
15.432
16.3084
24.5251
23.4093
23.9799
24.0116
15.1069
16.5434
16.631
22.7177
19.3416
23.8982
23.0707
12.0196
16.4535
15.0211
17.9708
14.7796
22.5807
20.407
11.6592
14.4606
12.7181
14.6059
15.5981
19.7118
18.0248
42.0963
45.7671
40.5624
54.4522
48.8102
53.767
47.1973
36.9404
38.4655
33.627
47.0124
42.4455
44.8699
39.8756
32.8592
32.9096
31.6164
41.1503
37.6265
38.872
36.1551
29.9329
30.7872
27.6917
36.6665
34.8125
35.1256
32.5249
30.345
27.2827
28.2208
34.4077
32.5964
32.0067
30.7985
27.4521
28.4278
27.3067
31.5967
27.9277
30.1969
27.4298
22.2829
26.4423
23.0815
26.5398
22.5178
26.2943
22.7414
16.2081
21.7933
17.7979
21.0383
16.8333
21.5429
18.0264
39.1153
41.7586
35.7469
52.3428
45.8947
48.9715
42.3141
32.3253
33.4886
27.8456
43.6477
39.0073
40.1873
35.9272
31.2579
27.5678
29.2585
38.1566
35.7989
35.4773
34.5524
30.4194
29.5635
30.4186
32.4511
29.069
31.3203
32.1985
23.4925
25.8294
23.3875
27.9271
22.5426
27.5777
24.2687
26.6014
8.23237
15.0929
28.7423
26.9147
10.7347
18.0193
23.2967
17.7468
21.5532
26.0171
23.0033
19.8634
21.9962
18.3408
21.6207
20.6088
21.9471
18.6719
21.9357
21.0781
35.0886
37.7562
31.4269
48.1084
41.446
44.9307
38.2476
26.3022
29.3931
21.9173
39.2329
34.6252
35.9629
30.3805
27.9962
20.5943
24.1934
34.2379
33.8267
29.9576
31.5084
24.2519
17.2381
27.9645
26.7276
25.0931
3.6393
29.4961
12.793
8.06862
17.6643
2.53352
15.4371
2.43566
14.9827
10.0284
21.0917
16.274
8.54728
13.8761
21.9593
17.7459
19.0571
14.904
14.2865
16.0757
20.2583
16.9715
17.0722
20.4868
14.8284
16.953
20.817
21.1297
17.5492
19.0382
29.6531
35.2707
29.9781
43.1237
37.0356
44.1123
37.4714
21.2638
27.4373
23.2631
34.8747
29.566
35.0423
31.4697
23.6593
23.2954
25.17
29.2123
30.9385
31.2728
30.6051
26.5852
25.6277
25.9239
30.922
29.5063
30.2012
28.9899
24.673
25.8447
25.4943
28.8332
26.0441
28.5578
27.3019
19.8642
25.2902
24.1784
24.7904
20.9184
26.8738
25.3619
15.5273
23.634
21.4377
19.8728
18.161
24.8114
23.0691
16.5236
20.7743
19.1759
18.1919
19.0148
22.62
21.7722
49.8008
55.3061
48.205
54.6701
47.6088
54.1201
45.081
43.2263
45.812
40.7446
45.8119
41.1734
42.6929
37.8651
38.2788
39.6564
36.669
39.4442
35.629
36.6452
33.5815
35.336
35.642
33.0944
34.7541
32.1197
32.7034
30.0864
32.3071
32.46
30.5739
31.0372
27.6345
29.1396
26.0221
27.3
29.7551
26.5818
26.4172
22.7089
24.8438
21.3829
21.8817
25.4056
21.9067
21.3764
17.8987
20.4011
17.7225
16.4429
20.7615
17.5139
16.6528
13.5028
16.8829
14.6649
46.9847
50.3983
43.5021
53.8141
44.3359
50.1587
41.3751
39.9785
41.4278
37.3035
41.9071
37.1893
39.297
35.0935
36.2842
36.6868
35.0477
36.0342
33.3444
34.2137
32.0237
32.0968
33.8345
18.3115
32.4796
29.656
31.2285
26.3751
29.1076
15.7819
13.6055
28.621
25.5071
24.2057
20.0687
26.1653
14.3723
19.1264
24.416
21.1561
19.4181
18.5704
22.1955
20.3046
21.55
20.315
18.1099
18.4944
18.4718
18.2101
21.4574
20.7048
17.4177
15.3961
18.3862
17.8895
42.6089
46.4325
39.6617
48.3384
40.4104
45.9617
38.4996
36.1926
37.4754
32.5891
38.4721
34.3609
36.6652
32.4928
34.4022
32.2035
32.3163
33.5077
31.4185
31.4888
29.062
17.9759
31.9297
29.4741
30.6891
25.9281
28.3794
26.1027
12.3534
28.3516
23.8889
23.7131
19.1983
25.2278
22.0117
15.8319
22.2787
18.4458
18.3319
17.3853
20.8376
18.1683
20.2071
17.7903
17.8341
17.4501
18.1244
17.8223
17.8778
20.8194
18.2192
19.4207
18.2455
18.1659
18.0666
18.5144
38.6236
46.03
39.1005
45.1591
38.1422
45.9363
39.667
31.8571
36.8539
33.264
36.2985
32.043
37.5304
32.3794
31.7259
32.7596
31.193
30.9925
28.2202
30.8406
27.7114
29.4767
30.5802
29.0297
27.4588
25.4409
26.966
25.1315
25.879
28.5045
27.0652
24.7995
22.5143
24.4554
23.1436
21.0868
26.6053
25.1387
21.6269
19.3477
22.8048
21.8731
18.8368
24.6276
23.1188
18.9322
18.5448
21.4894
20.8035
19.4974
22.7549
22.1181
18.5808
18.7482
20.6678
20.4916
44.8953
51.0203
41.8394
27.7747
34.2165
28.03
32.5059
38.5175
39.634
35.1051
25.5025
32.0889
31.2906
29.482
33.1155
33.8961
30.6443
24.2716
27.6384
28.3671
24.2925
29.4022
29.6846
26.9024
21.1874
23.7316
23.1
20.0689
24.9228
25.9256
22.9106
21.3999
20.0708
19.1787
17.0205
20.3828
21.8769
19.1517
17.8759
17.0417
16.6637
16.8812
16.1712
18.3866
16.2941
15.8252
14.7144
16.7137
15.8149
12.5555
15.6467
13.975
13.5168
13.2067
15.5654
15.0079
41.2534
47.9589
38.7072
21.4805
29.4864
25.5893
26.8361
34.4687
36.7013
32.5406
29.5092
29.0074
26.5502
25.865
30.2053
31.4361
28.8778
27.6457
23.1543
24.5468
20.5119
26.4573
28.3349
24.8567
21.9295
18.9536
19.2515
16.4989
22.4147
23.1362
19.1146
18.0853
15.9721
15.6339
13.534
18.891
18.1926
16.9652
15.6488
16.4014
13.3332
14.9267
16.719
17.0071
17.2992
16.7059
16.2232
15.9895
17.0202
14.6883
17.2742
16.9576
16.0313
15.5215
17.0292
16.9855
37.8027
43.7443
36.2026
22.9832
27.2243
28.4529
23.2404
31.885
34.4395
30.1938
26.2387
24.8073
21.6664
21.0262
28.2554
29.054
26.0297
23.5512
20.0682
20.6407
18.6288
24.395
25.2599
23.1255
18.8402
16.2786
18.1918
17.2865
18.4753
22.3713
19.7646
15.4463
13.319
16.7658
15.29
16.2124
18.8337
17.1259
13.0964
14.7485
15.1097
16.4462
17.1458
17.0148
17.2759
15.857
17.1079
17.0716
17.5156
17.2305
17.431
17.7528
17.1769
17.2155
17.5989
17.7995
36.0139
43.9907
37.8237
20.142
20.0625
25.1626
12.3698
29.7629
35.6121
30.1427
19.1192
19.1988
13.5153
14.4673
25.4709
28.6155
25.6814
19.8018
17.8762
16.9131
13.0509
22.7016
24.9926
23.274
17.6996
17.3149
16.0622
15.2361
20.2066
22.6181
21.535
17.361
16.4512
18.7537
14.3051
18.1542
21.2168
20.3889
16.3489
17.5006
17.8629
15.9708
17.8154
20.0319
19.5766
17.6629
17.7732
18.341
16.3649
17.9606
19.4632
19.3213
17.8081
17.9132
18.1052
18.0242
28.0089
28.2359
24.8967
28.7719
27.0986
30.0168
25.6494
24.0275
29.8151
19.1968
26.5874
26.6149
31.0672
5.09754
16.9464
18.245
12.9875
2.80733
21.6524
14.3609
3.14693
31.7444
33.8732
33.7452
34.5428
32.7397
33.5837
32.9679
29.352
30.2998
32.606
28.7056
31.5059
26.9722
30.9781
25.0858
27.7281
33.8324
19.8987
32.4088
5.05814
29.9992
18.1891
2.85995
20.7582
13.4578
15.4921
3.18871
24.4472
23.1444
26.0217
22.6807
27.7156
22.2757
27.5568
23.536
13.8018
16.4571
8.02247
2.59484
15.6035
13.7299
2.41223
13.6351
15.771
7.47413
4.63306
15.2061
15.2144
3.43036
24.7267
29.4334
29.8967
27.1419
28.9467
25.5667
26.1512
24.2379
28.6092
29.4376
25.3981
28.7022
24.4589
25.5086
14.8092
2.63539
19.0574
8.10368
14.8672
2.49103
18.2551
14.593
4.8892
18.4725
8.12796
16.1324
3.48548
17.8164
20.053
12.0191
20.0083
2.76816
22.5617
3.10918
17.3392
28.8971
26.8098
26.7869
28.4758
27.1488
29.3383
28.831
27.581
25.1742
26.8798
27.8923
26.4356
25.9756
28.5627
25.2393
27.1964
18.596
32.7247
3.92763
31.6682
28.9403
20.4023
2.84521
12.5064
20.9813
3.19015
17.2467
24.5214
30.2259
30.3551
32.2473
31.095
31.1739
30.2717
31.2136
28.6162
28.8394
27.759
30.3622
26.7907
29.722
29.6244
11.2991
6.99384
11.6057
3.32481
13.5671
2.39857
9.17824
22.0751
23.6726
24.8905
26.9503
21.9945
24.1239
25.8828
20.1748
18.2913
23.8883
23.0512
20.3035
17.82
24.6215
12.4295
2.61539
8.36104
17.9729
2.52384
14.632
15.5503
10.9391
3.73962
7.60282
12.0399
2.63081
9.28834
13.4987
22.3832
27.762
25.4922
26.9081
24.6126
26.5346
23.2353
20.324
23.3828
18.9599
25.3641
17.9906
25.0688
21.0851
2.11936
2.12214
1.996
8.18038
11.2515
8.52205
11.689
1.85473
1.84104
1.71053
14.0537
14.9579
13.6148
14.2971
1.46527
1.54171
1.46829
15.056
14.3999
14.1141
13.5664
1.19277
1.39809
1.25269
13.4235
13.0087
12.4098
11.3904
1.23506
1.19442
1.2382
13.2198
13.4343
11.4106
11.9936
1.2549
1.32315
1.36331
13.0596
12.4286
12.1881
12.1385
0.909569
1.2606
1.08379
10.6231
9.23682
11.2478
10.141
0.590171
0.89208
0.627939
7.09898
5.89859
8.97713
7.46268
1.80791
2.50496
2.06619
9.20028
12.0772
9.44464
12.4155
3.83876
0.502507
0.588077
3.18739
3.86778
3.12027
0.499546
5.70526
0.377504
0.396832
6.23649
6.77274
5.48128
0.384133
5.61066
0.343868
0.351094
7.14082
7.08945
5.60443
0.340691
5.61001
0.342921
0.343026
6.78698
6.51615
5.69818
0.338143
4.16249
0.270694
0.286588
5.20151
5.14007
4.3474
0.267373
5.38078
0.383669
0.329865
5.79497
5.94312
5.0746
0.375531
5.42674
0.405642
0.42289
5.61891
5.45326
5.51351
0.416051
4.44956
0.282621
0.345582
4.0213
3.65188
4.6777
0.307197
0.471354
0.790993
0.501403
5.79564
3.95596
7.23458
4.92695
2.58822
2.77257
2.60959
9.87587
13.0342
9.69449
12.5537
3.91005
0.682579
0.815649
3.22966
4.09467
3.16752
0.65859
5.08829
0.396904
0.415353
5.46761
5.38295
5.16496
0.374919
4.18365
0.278189
0.26157
4.51048
4.6723
3.97523
0.257087
5.32125
0.318969
0.296981
5.38506
5.48238
5.17793
0.311092
3.76315
0.243418
0.278502
4.20249
3.81738
4.18842
0.242748
4.84735
0.333145
0.265987
4.67083
5.06252
4.42416
0.312946
5.14711
0.401686
0.38379
5.27567
5.26483
5.14876
0.389355
4.7973
0.352951
0.368473
4.9121
4.79402
4.88811
0.354102
0.571229
0.98508
0.70591
8.38951
6.49869
8.82678
8.68621
1.97516
2.4931
1.9603
9.40451
11.6928
9.21043
11.5316
3.98421
0.555621
0.640096
3.21627
3.93947
3.22889
0.553686
5.67286
0.399951
0.431991
5.48658
5.55704
5.58147
0.409369
2.70317
0.2256
0.258689
3.13909
2.95737
3.22536
0.221239
4.14224
0.257142
0.225642
4.03961
4.40827
3.703
0.250634
3.90747
0.254386
0.282575
4.11889
3.70618
4.17656
0.263221
3.58836
0.243801
0.244524
3.52209
3.66077
3.52411
0.247389
4.04917
0.302594
0.264528
4.25168
4.37134
3.96178
0.271799
4.32119
0.318375
0.290768
4.54223
4.52376
4.30381
0.292153
0.702096
0.874769
0.711178
9.08123
10.5171
8.79637
10.7746
2.31044
2.7033
2.06973
8.35718
9.73832
7.9342
8.29899
2.73575
0.610095
0.727478
2.81606
3.28945
2.58355
0.592978
2.62673
0.333345
0.327894
4.05823
4.0858
2.75348
0.280821
1.88673
0.199183
0.190076
2.48908
2.0544
1.8659
0.183626
3.66033
0.280609
0.272451
3.33029
3.85116
3.24981
0.300502
4.34446
0.326726
0.359528
4.29641
4.34134
4.24482
0.369467
4.57739
0.32363
0.372884
4.39525
4.40044
4.57221
0.365025
4.34303
0.27733
0.329156
4.23837
4.10872
4.47743
0.305979
3.79075
0.231852
0.245551
3.83368
3.7608
3.9031
0.229918
0.612026
0.735785