/*--------------------------------*- C++ -*----------------------------------*\
  =========                 |
  \\      /  F ield         | OpenFOAM: The Open Source CFD Toolbox
   \\    /   O peration     | Website:  https://openfoam.org
    \\  /    A nd           | Version:  10
     \\/     M anipulation  |
\*---------------------------------------------------------------------------*/
FoamFile
{
    format      ascii;
    class       volScalarField;
    location    "2.3";
    object      omega;
}
// * * * * * * * * * * * * * * * * * * * * * * * * * * * * * * * * * * * * * //

dimensions      [0 0 -1 0 0 0 0];

internalField   nonuniform List<scalar> 
12920
(
399.208
352.697
209.176
136
112.83
103.345
94.332
88.3581
84.433
80.9707
76.4799
70.5313
63.0295
54.776
48.1745
44.5358
43.2518
42.4468
41.0989
35.906
459.557
355.148
209.994
135.418
111.028
107.242
103.703
101.516
97.6579
94.5567
86.6642
75.7156
64.7439
56.1209
51.8357
49.3683
47.9968
46.2111
45.4061
44.0765
291.335
249.513
184.084
146.304
127.006
115.227
100.045
90.9268
83.9131
81.6185
79.297
74.4981
67.1054
60.4537
55.7003
51.7922
49.5739
47.6559
46.885
45.1051
139.355
175.89
178.271
138.026
108.591
94.4976
86.4118
82.5073
77.875
74.6152
70.8099
67.2968
62.7536
57.6907
52.9714
48.5396
45.3468
42.8451
42.077
40.5877
147.392
224.9
216.219
169.163
128.283
109.732
101.034
95.5881
89.6733
84.6172
78.8062
73.5175
67.545
60.6946
54.2699
47.7759
42.119
36.0649
32.9503
28.2682
142.437
221.968
179.049
138.495
132.023
121.414
111.262
103.193
95.6395
92.163
86.9101
78.0789
69.8792
63.4978
56.3674
48.1866
39.4959
30.1385
23.0802
16.5378
105.598
240.204
234.529
183.413
150.313
132.595
118.031
110.091
101.091
95.7364
93.433
88.0192
76.1363
66.0263
56.7498
45.2785
31.7437
21.4851
16.4722
14.9292
269.917
301.951
261.13
190.749
151.068
132.454
199.842
165.201
164.852
147.457
141.652
144.636
136.964
114.415
55.9947
40.3274
28.4383
23.0613
22.7623
25.0377
175.485
237.836
221.309
170.263
147.377
223.711
347.837
267.165
245.688
247.264
217.321
223.757
236.957
209.126
103.997
40.0019
31.0113
30.3011
33.7769
38.1925
72.5365
143.734
165.969
157.057
145.374
221.973
330.239
266.673
222.031
233.285
211.138
195.564
226.611
220.496
123.205
50.2355
44.3181
44.7672
46.9042
47.842
32.3817
94.8585
132.86
143.236
141.617
232.805
369.695
303.015
209.11
194.697
196.987
170.919
192.093
205
126.356
64.6161
56.6765
51.8481
49.9291
48.6777
90.5206
155.369
161.587
151.038
136.522
212.357
329.583
270.293
229.173
192.337
184.355
186.134
185.303
179.78
115.088
66.5582
58.1157
51.8894
49.9916
50.0454
104.453
187.969
183.304
171.381
149.579
130.294
203.188
141.806
106.437
101.107
100.945
104.671
107.9
108.279
62.5448
58.1667
52.8487
49.2605
48.3253
47.2933
340.747
333.529
243.33
180.321
148.31
129.742
105.272
84.5503
71.5106
62.4565
58.4345
54.5129
53.2822
51.2302
50.5172
48.9714
47.8728
45.3314
42.8882
37.2646
309.218
302.178
235.152
188.744
155.029
130.306
103.789
82.4813
67.8378
60.1423
55.2888
51.8673
49.3007
46.9986
45.6793
44.2027
42.5904
39.8707
36.5849
33.0297
141.765
232.844
229.968
182.02
134.947
107.686
89.0017
77.2945
67.1223
61.9663
57.1903
53.8362
50.5066
47.6431
45.4014
43.2165
41.6744
38.9691
37.3443
34.4078
204.9
196.905
179.084
135.346
111.893
92.748
82.8377
74.2956
68.6648
65.177
60.6787
56.9682
52.1878
47.893
44.2222
41.3183
39.5376
36.4396
34.5832
29.3812
242.742
178.324
176.922
151.816
115.018
96.2878
83.7225
79.5002
73.8445
70.8895
66.4992
64.258
61.1666
58.0537
53.7382
48.4433
44.3465
39.6523
37.6018
32.9788
235.574
162.18
178.916
166.013
139.384
113.815
89.7469
79.1879
71.2847
66.1863
60.5224
57.2953
54.7454
52.5872
49.9349
46.0101
42.8592
38.7648
36.9367
32.6194
121.407
135.175
141.318
137.111
123.059
111.676
101.438
90.7898
83.0771
76.6162
67.8086
56.6829
47.4397
40.9978
37.1227
34.2046
32.7796
31.2551
30.5365
28.6832
176.749
124.884
80.6755
69.848
60.1215
54.6151
52.3484
51.2607
48.9128
45.8711
41.2725
35.8086
30.4595
27.0997
26.2101
26.29
26.4135
26.1951
25.3598
22.2597
215.679
179.72
121.801
92.3616
72.7609
63.6573
57.0225
54.1222
52.4642
52.2776
51.9775
50.8893
46.6291
39.7877
35.3754
32.4634
30.4374
28.2288
26.6565
24.3654
164.582
142.608
97.6916
81.4567
69.3881
61.9372
54.601
50.3269
46.4141
44.809
43.0851
41.4247
39.2813
36.3825
33.3723
30.3412
28.1205
26.163
25.1608
23.7115
312.302
183.613
114.588
72.6501
57.3128
53.143
50.5032
48.4069
46.7809
45.5884
43.984
41.2657
38.0386
34.2897
30.3946
26.8002
24.3653
22.6305
21.8949
21.1385
248.098
239.297
134.589
84.7174
65.0105
58.3509
53.1727
50.6878
48.5313
47.2668
46.4163
44.5298
41.8119
36.8098
31.3248
26.9197
23.9535
20.7355
19.0525
16.8386
185.115
135.647
88.9141
71.2071
62.0581
58.5454
53.387
50.9821
48.1793
46.6551
45.1772
43.3748
40.7233
35.9044
32.003
29.6312
25.7312
19.4491
15.6031
11.2056
122.919
163.465
132.116
87.9668
67.3906
60.5797
53.644
51.7582
48.1634
46.4846
44.0949
42.264
39.7494
37.5065
35.5573
31.2072
21.1214
13.8445
11.0914
10.4022
381.472
215.163
139.597
91.6098
67.8446
58.9814
63.391
56.1908
52.528
48.0789
45.0808
42.2128
40.4908
39.2979
35.9939
27.8845
17.7637
13.699
13.2055
14.4029
176.995
168.036
121.076
87.1825
69.3937
70.7665
68.7314
60.8249
52.9433
51.3868
50.4332
42.5736
39.8628
39.1304
37.8662
26.1779
19.0327
17.6589
18.5656
20.4676
124.132
147.289
99.5363
79.5246
65.4796
66.3046
65.4555
60.6793
59.2399
49.8586
48.4534
41.3168
38.187
36.8905
34.4522
27.0972
24.3875
24.217
24.6631
26.3226
46.0138
131.307
112.075
85.9806
70.6216
74.9466
75.9039
72.6121
72.9687
50.1358
41.7852
39.7551
40.0046
37.0434
33.4831
30.7
29.0729
28.0378
27.9987
28.63
171.864
126.437
100.193
82.5401
71.9996
73.3552
78.503
78.7095
88.3917
61.2215
35.8761
33.4679
34.1809
36.7324
35.3309
34.2453
34.0155
32.4485
29.7558
28.496
120.139
134.201
118.11
101.062
82.935
66.8737
66.5204
64.6218
47.2613
37.5826
31.8886
29.8911
30.1727
31.7832
33.4946
34.0589
33.3647
30.0326
26.6933
25.1512
294.838
182.697
128.634
97.8572
77.0748
63.2157
53.7226
47.4677
41.4289
35.6392
31.2425
28.3805
27.3072
26.9427
27.4812
27.4313
26.856
24.9246
24.0593
22.5946
126.46
187.402
156.122
109.544
84.4024
64.8116
50.2468
41.9034
35.8588
31.4315
28.7275
26.6792
25.9966
25.0433
24.5989
24.0559
23.7377
22.8767
22.0374
20.0745
110.708
173.751
155.429
115.495
79.3183
56.6153
44.0614
38.332
33.7075
30.8804
28.5013
26.9538
25.684
24.5993
23.7764
22.8181
21.9719
20.6654
19.6756
17.7953
198.988
124.343
89.0576
68.607
56.0058
44.2434
38.2933
34.582
31.5239
30.1694
28.337
27.4095
25.8488
24.6098
23.1956
21.91
20.8672
19.4546
18.6965
16.8235
170.817
130.46
97.2591
72.2868
58.7965
51.7702
43.4653
39.6303
35.3795
33.3834
31.0533
30.2996
29.5427
29.1392
28.4872
27.2057
25.7782
23.4103
21.7242
20.6263
140.081
132.316
108.427
90.0577
69.9713
58.6558
48.2064
43.2577
37.806
34.5387
30.8095
28.3281
26.4906
25.4049
24.6354
23.7155
23.07
21.8984
21.3875
20.3467
34.8004
64.1113
79.0124
79.6567
72.3886
62.3078
53.7209
47.8236
43.5593
39.0437
33.3192
28.1429
24.8438
22.4636
20.6397
19.2263
18.4174
17.5859
17.1919
16.1869
92.178
96.6476
87.4957
77.326
64.0411
56.3778
52.6672
49.8054
46.2769
42.1709
37.5999
33.6883
31.2304
30.3088
30.0535
29.7078
29.0634
27.3214
26.136
23.141
271.708
122.903
88.8565
72.1591
58.2867
52.0353
46.2444
44.9009
43.6135
43.4579
42.5984
40.8891
37.951
35.3312
32.9869
31.0827
29.5967
28.1004
27.0642
25.8356
140.825
134.976
91.3191
67.0209
55.9616
49.4891
43.7281
41.4688
39.0341
38.3035
36.9446
35.704
33.5299
31.5933
29.5463
27.8825
26.6591
25.6642
25.2051
24.5177
153.464
138.043
96.1949
58.1631
47.0838
41.9836
40.4042
39.0611
37.6
36.9178
35.4501
33.7772
31.2633
28.9067
26.5869
24.8377
23.6136
22.9639
22.8241
22.6175
177.365
156.387
117.622
74.1928
53.8148
45.9267
42.4896
40.8401
39.0761
38.386
37.2406
35.5592
32.7735
29.5746
26.5658
24.2681
22.7711
21.6671
21.1516
19.928
293.516
165.754
90.6348
57.9926
51.2977
45.1978
43.2547
40.8548
38.7656
37.611
36.2378
34.7515
32.3214
29.3576
26.7155
24.5392
22.1014
19.6184
17.572
15.0236
144.374
160.768
131.225
81.4415
59.2403
49.5276
43.9282
41.789
38.9144
37.6008
35.6765
34.1999
32.3344
30.5287
28.0505
23.2811
18.0934
15.588
14.5026
14.3127
274.379
174.817
130.937
85.017
60.1674
48.5757
46.78
44.5628
42.4359
38.7018
36.5393
34.1875
32.6464
31.4125
27.558
21.6576
17.7491
16.3083
16.1669
16.833
404.737
169.614
112.608
78.227
60.2193
54.2746
50.03
46.674
43.4346
41.2241
38.4801
34.4958
32.5598
31.5735
29.0232
22.6975
20.6941
20.4405
20.9365
21.4897
250.065
144.42
99.7359
72.0907
56.5003
50.6121
49.4956
46.4727
44.6105
40.8596
39.4942
35.3101
32.2704
30.7065
28.4632
26.6176
26.1263
26.1097
26.4394
27.4376
132.143
159.379
104.052
74.768
58.6997
55.7564
53.5098
51.2702
48.5233
37.1935
77.276
69.5139
46.2093
32.8729
30.3798
30.9592
30.3925
30.0285
30.07
30.4225
93.2135
120.999
102.601
72.1234
58.1818
54.97
55.5038
56.1041
62.037
38.0612
30.8443
31.0694
34.5508
37.079
34.8249
33.7667
32.826
31.3339
30.3017
29.8648
167.559
152.29
117.67
91.7769
71.4203
56.2837
52.3601
48.1963
35.4228
29.984
27.3523
26.9925
27.6647
29.2201
30.3316
30.3472
29.5593
27.4822
26.3449
25.9542
162.734
139
112.107
85.0548
66.1422
51.7617
42.8324
35.7222
31.393
27.2599
25.2991
23.9187
23.8009
23.8505
24.1989
24.2599
24.1422
23.5338
23.2352
23.1878
228.138
163.842
114.261
85.5693
66.5039
49.5272
39.0905
32.6607
28.5534
25.6023
23.9743
22.7984
22.4329
22.0355
21.983
21.8856
21.8569
21.6639
21.4045
21.2635
141.926
149.767
104.408
72.303
54.0145
40.8046
34.7564
30.4894
27.5852
25.6544
24.095
23.1011
22.219
21.6202
21.0838
20.6677
20.1932
19.7701
19.4724
19.4577
210.716
128.892
77.927
53.8512
44.6752
36.1868
32.8708
29.4866
27.409
26.0475
24.5471
23.7535
22.4
21.5912
20.5791
19.9393
19.3104
18.8685
18.7614
18.9362
167.962
129.073
101.105
67.5596
50.9363
42.6079
37.0077
34.1608
30.9502
29.3963
27.3497
26.5755
25.4722
24.9657
23.9945
23.1171
22.198
21.4956
21.1348
21.0214
100.927
131.502
116.318
90.3479
68.0728
52.0875
42.3911
38.8782
34.8028
32.2055
28.9846
27.1119
25.2102
24.0689
23.0448
22.2332
21.6322
21.0344
20.6997
19.9155
19.4971
46.4539
80.5658
84.745
76.8853
63.4985
54.585
48.8207
44.0081
38.6747
33.366
29.3197
26.4595
24.103
22.4429
20.9649
20.1923
19.1556
18.6195
17.1505
124.167
103.839
96.3155
79.8092
64.5244
54.0748
48.0387
43.3095
39.782
37.1155
35.1162
33.7966
32.9806
32.2056
31.3906
30.0487
28.6681
26.5504
25.3372
22.5677
169.538
119.8
89.0561
64.3407
57.6437
49.5385
46.4419
44.1077
43.0296
42.4403
41.3748
40.5456
39.1466
38.11
37.0193
36.1032
35.2967
34.5939
33.9981
33.5007
251.025
138.078
94.1926
63.0455
57.0766
48.1225
45.0342
41.6926
40.3524
38.9259
37.695
36.4868
35.092
33.9807
32.9634
32.2709
31.8242
31.5369
31.352
31.2008
214.271
144.052
83.9837
54.7544
48.6956
40.5728
40.8743
38.4343
37.7682
36.3514
35.3008
33.8203
32.2865
30.9874
29.9987
29.4154
29.2643
29.3467
29.5461
29.9758
172.622
161.668
119.762
69.8654
55.108
44.9255
43.2716
40.5226
39.4855
37.888
36.5704
34.6271
32.547
30.6964
29.3709
28.6481
28.6235
28.8359
28.9206
29.3434
355.621
189.15
105.149
59.8081
52.6013
42.6505
43.3149
39.8222
38.3913
36.6911
35.5791
33.9316
31.9626
29.9748
28.3233
27.3458
27.0198
27.1324
26.8247
26.8547
118.504
160.16
133.067
79.7044
61.5905
48.3955
44.991
40.5567
38.816
36.8641
35.4561
33.741
31.8398
29.8511
27.4891
25.393
24.9771
25.1107
24.9133
25.0417
143.35
155.158
135.858
84.382
62.0594
47.3481
44.3687
42.5706
39.9134
37.2848
35.3999
33.4649
31.7656
29.9775
27.643
25.6631
25.078
24.9053
24.4002
24.238
185.836
167.336
129.029
78.5308
62.1633
52.5601
46.9466
44.1907
41.2311
38.6416
36.3073
34.1615
32.2917
30.806
28.7686
29.0283
27.6645
26.6319
26.2581
25.6914
303.962
159.673
116.947
73.5341
57.8453
49.1532
46.9814
43.4826
41.4858
38.9141
37.47
35.298
33.3753
32.1112
32.0112
33.4636
32.8881
32.2077
32.2865
32.0258
258.323
168.511
120.025
75.7585
60.017
53.4149
48.4226
44.6417
41.1641
37.2927
58.6898
54.2905
39.8007
34.6857
35.0238
37.0258
36.5768
36.2412
36.2754
36.1634
296.365
171.663
113.203
69.7117
57.613
51.4893
49.3158
45.9978
41.6554
34.8538
33.3675
34.6877
36.902
37.668
37.6496
37.7312
36.7465
35.9964
35.7521
35.3287
261.11
164.485
119.186
84.1762
70.1224
55.5828
49.9788
40.6396
33.6129
30.8753
30.0577
30.4302
30.9864
32.0993
33.2761
32.7512
32.1915
31.6043
31.5331
31.6661
265.88
137.442
108.392
77.8625
65.289
48.8263
41.346
33.892
30.9575
27.4111
26.822
25.9193
26.3696
26.5917
27.2336
27.5952
28.0033
28.2531
28.5925
29.8032
290.631
135.276
100.42
74.5565
63.4572
46.0022
39.3885
32.649
29.6632
26.6791
25.7049
24.6947
24.6907
24.7129
24.9994
25.3963
25.8757
26.5551
27.0797
28.5347
295.235
120.489
85.3443
59.3026
50.7984
38.6007
35.929
30.8176
29.3768
26.9971
26.2388
25.065
24.6658
24.2304
24.1955
24.2469
24.4311
24.8644
25.2579
26.4527
338.249
206.573
90.736
54.4793
47.2243
37.2447
35.8184
31.2781
30.2321
27.9355
26.9997
25.6528
24.7527
24.0777
23.7166
23.7059
23.9562
24.7454
25.4248
26.9301
298.447
169.512
116.589
72.797
55.5546
42.3283
39.6919
35.7492
34.3413
32.2412
30.7127
29.3839
28.1648
27.4253
26.7316
26.5747
26.6306
27.1083
27.6509
28.7384
184.822
170.737
145.045
98.7755
78.127
54.6541
46.9591
42.451
39.2866
36.1083
33.1366
31.1955
29.545
28.5287
27.9287
27.7272
27.8411
28.2308
28.4443
28.9905
26.7137
83.2937
95.1543
91.5281
74.0056
58.5549
50.8607
45.3152
40.4182
35.5602
31.5643
28.2669
25.6934
23.5689
22.186
20.8402
20.186
19.0765
18.4645
16.7279
76.5884
103.421
98.3473
77.1163
58.7868
48.1511
42.0956
38.8885
36.9824
35.5937
34.5007
33.2288
31.9341
30.1113
28.1888
26.1734
24.4923
22.9402
21.618
20.1862
138.332
139.299
106.553
63.9119
78.2538
58.3729
68.9189
58.0405
63.5631
57.8168
60.6974
58.2818
59.9812
59.4534
60.1397
59.3442
59.2156
58.4623
58.1635
57.2812
168.736
154.98
114.972
66.2741
77.9543
59.1052
66.4619
56.6428
60.1605
54.2551
55.5398
52.1304
52.7752
51.565
52.1612
51.7211
52.0969
51.8515
51.7647
51.3037
501.875
223.975
107.415
60.5242
66.3642
47.1076
59.5261
47.7829
54.6249
48.6547
51.4163
48.3199
49.2704
48.0272
48.6712
48.4736
49.172
49.482
49.679
49.8633
303.189
158.807
127.681
68.6874
76.5785
56.8165
64.0229
54.6503
58.2543
52.8353
53.6457
49.8105
49.3127
47.4329
47.8382
47.7122
48.4833
48.4671
48.3102
48.5202
303.987
183.524
108.108
66.238
68.705
48.411
60.1654
47.8652
52.7716
48.5246
50.2952
47.657
47.2051
45.3992
45.2375
45.2746
45.9638
45.9005
45.4672
46.2372
273.287
184.291
145.16
78.4158
80.1488
57.3368
61.5259
50.5085
53.5104
49.6397
50.7577
47.8748
46.511
43.8655
43.3275
43.1117
43.4255
43.0731
42.0073
42.5002
182.888
166.404
146.912
80.3175
76.651
54.3006
53.7029
49.3335
50.5606
48.2104
49.0436
45.6356
44.4786
41.3486
44.4301
42.1601
40.8529
40.1439
39.2757
39.5182
257.719
194.94
145.111
77.7648
77.4287
63.2487
60.7559
56.4403
54.4103
52.5493
51.6142
49.1933
47.2911
45.6271
48.3181
45.9074
43.5427
41.9787
41.0938
39.3762
263.224
172.821
140.163
76.5694
71.1056
55.2629
57.6269
59.2774
57.5661
54.5433
52.8806
51.401
51.492
50.8704
52.5098
51.5081
50.0739
49.6438
49.5148
47.1008
294.295
188.768
150.15
80.5706
79.9166
67.0956
61.8
60.625
57.6224
52.7985
52.9922
53.3038
53.8951
53.5759
55.3283
55.3843
54.2319
54.5178
54.9204
53.8216
298.041
181.874
139.233
74.5298
74.2745
60.0664
61.8314
57.798
55.0782
53.749
53.6465
53.7918
54.651
54.8855
56.9553
56.0304
54.5065
54.39
54.3402
53.3425
371.904
215.784
137.208
82.7948
87.2791
69.2728
63.0461
48.659
49.3379
45.7744
48.0349
47.2451
48.8604
48.7635
51.1589
49.8846
50.2864
50.5759
50.7338
51.0796
242.168
164.508
121.56
77.0903
82.2924
55.1591
55.6588
43.7213
44.6655
39.7131
41.7432
40.0334
42.3339
42.4203
44.5102
45.2485
46.6261
47.4458
48.1483
50.2884
370.464
178.948
109.33
74.9178
76.9092
53.1658
56.8078
45.3102
46.1309
40.594
41.5649
39.487
40.8081
40.6969
41.8654
42.7426
44.2266
45.4964
46.2897
48.4666
264.07
131.302
95.8145
63.0436
69.2062
47.442
54.5567
41.2059
46.2172
39.8241
42.8926
39.861
41.7026
40.4202
41.866
41.6951
42.5509
42.7837
43.1326
44.3849
343.499
154.11
98.2342
63.2153
65.996
46.7967
53.8752
42.5858
47.3112
41.0259
43.9874
40.6596
42.3237
40.706
41.6771
41.1455
41.7403
41.8527
42.1948
43.2731
283.467
163.052
139.799
79.3578
76.8572
51.5465
59.267
47.6474
52.7869
46.3659
49.2736
45.812
47.2525
45.3651
46.4199
45.8543
46.6833
46.678
47.0439
47.1212
206.788
213.908
172.088
105.068
99.7208
62.9698
69.3417
57.0526
60.1111
52.6042
54.4514
51.1515
52.5864
50.9365
52.1188
51.9687
53.1092
53.6411
54.2788
55.1441
58.3532
99.8657
105.311
96.0827
70.1493
51.9134
43.4602
37.9334
33.9055
30.1194
27.2179
24.613
22.7869
21.2492
20.2375
19.092
18.4829
17.1618
16.4804
14.7039
39.8371
38.9575
77.1147
38.6619
37.6168
37.9467
87.6699
36.4567
77.0168
70.4866
37.3461
35.562
90.0453
72.8597
78.1828
39.1723
32.6084
36.5848
87.9976
35.2285
33.3514
70.7447
32.1908
33.0195
87.5042
75.1513
33.4863
35.5867
275.537
342.29
280.389
84.7155
71.6714
80.9423
69.343
247.603
271.12
236.385
68.4456
58.8959
66.9452
63.9509
245.162
230.819
233.794
57.6503
55.9169
62.9895
57.1055
233.679
240.094
235.565
56.0257
56.6167
55.8293
55.8655
211.936
216.564
196.406
56.1282
49.4004
55.8528
49.2743
237.433
203.275
228.519
47.7078
45.5104
46.8961
43.9759
219.953
230.024
225.769
45.1328
44.463
43.5555
42.3804
172.499
221.07
188.598
44.4771
44.1868
42.12
40.3907
273.262
345.126
296.573
78.7188
69.9574
86.7161
80.5475
229.112
288.487
228.725
68.4151
67.0917
79.484
78.9188
225.178
204.354
191.038
65.8177
56.5347
76.9201
57.3262
231.051
199.215
207.641
54.5808
53.5254
53.2595
47.7533
188.424
199.008
172.474
53.4586
47.5823
47.2432
43.7643
224.502
173.121
198.917
45.5309
43.3066
42.8274
42.3505
224.305
205.458
212.006
43.0086
41.9964
42.3041
41.3036
187.173
211.804
190.693
41.6741
40.1139
41.0294
38.5859
311.47
364.205
312.065
92.578
83.9185
95.1334
87.9553
241.326
303.807
269.943
82.1983
82.4214
86.8313
89.0755
187.611
242.443
193.218
81.4171
61.9473
91.9458
89.5722
202.498
194.703
192.148
55.7044
46.8192
71.4463
44.135
171.259
186.624
181.709
45.8185
42.6387
41.6346
38.5601
185.587
181.108
180.562
41.9327
41.7535
38.2068
38.1648
204.109
181.032
181.416
41.9253
41.3151
38.4851
39.8144
188.147
182.095
170.435
40.9263
38.43
39.8935
38.2013
278.973
345.729
270.659
93.4933
88.5981
96.1139
85.6724
249.464
249.485
184.047
87.8731
89.7309
82.197
72.1405
192.195
176.754
162.283
92.0157
90.2778
68.5037
52.4069
185.574
161.635
164.956
70.7965
42.0946
47.2154
39.1391
185.546
167.064
172.882
39.9127
37.387
37.7934
35.4315
186.455
176.197
185.636
37.0557
36.9235
34.8264
34.2978
180.814
187.021
185.482
37.1542
38.6947
34.3587
35.3306
167.126
183.101
155.835
39.0346
38.0041
35.7033
36.1497
63.2433
66.3136
60.8647
52.5959
49.9759
51.7704
48.9451
54.0529
59.2338
57.4404
48.6579
45.5649
47.8893
46.5859
51.3914
56.8351
52.0145
44.9124
43.2764
46.1453
43.6924
51.222
50.8647
50.425
42.9236
41.3611
43.0214
41.8642
44.1407
50.3125
44.2012
40.2618
36.4401
41.1885
36.802
40.3359
42.0302
38.9867
35.5243
33.9051
35.5324
33.2807
39.1618
38.5058
37.4976
33.4619
32.7868
32.806
31.8499
40.1207
37.3165
37.0027
32.6511
32.2918
31.6162
30.4996
61.6319
71.8345
70.3248
51.6491
49.4297
54.9144
53.6286
60.0791
69.9587
70.049
48.6925
47.7358
53.1957
51.9566
51.5731
68.5702
52.1098
47.0062
43.3061
50.2848
42.3368
48.5981
48.3438
43.5135
42.3723
41.2228
40.264
50.5764
43.2613
43.2437
41.3687
40.8787
37.2982
51.7215
53.3542
38.6183
40.8621
40.2522
36.0042
33.4129
53.2334
43.3398
37.1596
39.6076
37.15
32.8529
31.6706
39.2298
32.8406
36.6231
36.6581
35.1778
31.3663
30.1899
31.9285
30.0866
73.253
78.9903
77.8209
57.0181
55.424
59.6727
59.3269
73.7291
77.7664
83.2339
55.0542
54.4637
59.861
67.9859
55.8192
87.6119
80.722
53.1689
43.4669
69.012
50.4353
42.4329
62.1343
39.3316
39.8099
49.3118
42.6022
33.209
39.9835
37.2995
34.8863
50.3823
51.9637
32.4342
32.4324
40.0603
34.6991
35.244
52.7115
49.186
33.0359
36.3641
37.83
35.9197
37.6965
44.7813
34.8476
37.755
38.7263
35.0978
37.674
36.2904
33.199
30.4506
37.8238
34.6925
78.6063
75.3988
72.2807
59.4801
59.6459
57.5215
55.8797
84.2897
71.0059
64.3712
60.3949
69.5126
54.9603
48.8477
81.4081
60.8373
45.8947
70.5194
49.7852
45.17
35.3946
37.6973
41.3846
34.5727
41.4344
32.0334
33.041
29.4543
33.7038
33.416
31.5335
31.1893
30.5968
28.7919
27.92
33.6821
31.12
30.9548
30.7739
32.7225
27.8654
28.3217
36.2914
31.0885
32.3797
33.7988
36.7376
28.5849
30.1502
36.2523
32.87
34.4596
36.7963
35.1595
30.7142
32.4751
47.8061
49.5863
46.9534
46.8988
44.8511
47.0362
44.2291
44.0935
45.9041
44.5126
43.9897
41.9111
43.2241
41.6719
41.6573
44.0891
42.0233
41.1255
39.0491
41.247
39.546
39.5068
41.4139
40.0616
38.5253
36.8575
38.9493
37.3377
35.2639
39.3206
35.6669
36.0921
34.1519
36.7332
34.6991
33.0229
34.6218
32.6341
33.6477
32.3447
34.1026
32.7149
31.817
32.1725
31.1554
31.822
30.8819
32.3181
31.2396
31.0322
30.8609
29.5918
30.407
28.4589
30.8347
29.2702
47.2764
51.9025
50.3729
46.9019
44.1851
47.7361
45.2091
45.2862
49.7715
48.0122
43.3087
41.8123
44.3347
42.0681
41.6666
46.4908
40.4673
41.3069
39.347
41.1537
38.0659
39.3745
40.2687
40.0736
39.6979
39.8848
39.1894
39.0982
41.4865
38.741
41.4368
38.4683
41.266
37.8167
41.7594
32.8314
67.0368
44.5165
34.7985
32.938
62.1887
40.6444
31.0522
39.3339
32.4072
32.4875
31.386
37.2616
32.9326
29.3222
31.4863
29.7661
31.0093
29.4949
32.3299
31.3762
51.8208
55.7485
55.2905
48.6084
45.903
49.9641
47.7978
49.9286
55.6858
60.9937
44.9753
42.5169
47.297
45.8396
41.066
60.9502
44.5689
41.4704
37.7984
44.389
37.0134
43.6094
59.4645
38.7561
43.1328
39.8781
259.459
37.4452
57.9901
75.3373
44.8203
210.631
46.9061
192.971
54.4382
53.1408
33.9587
37.8405
68.0935
46.0053
36.6561
39.1148
34.5275
39.2129
39.1007
41.365
34.5619
39.3581
38.1823
30.1987
37.9665
34.8117
33.5866
31.9527
37.5342
36.0626
55.5131
54.0345
52.7837
49.6035
47.7559
49.7062
46.6235
62.1772
51.3716
44.5421
47.3094
45.8068
44.0215
37.4249
43.7098
41.3121
33.5716
44.0923
36.1065
35.4741
31.7989
31.4301
31.7752
28.9831
34.3656
32.2071
31.0335
29.8447
30.7024
28.4599
27.8744
32.1217
32.8621
29.6463
29.7385
33.4562
27.8811
28.4977
33.4532
35.5531
29.8873
30.6583
37.1468
28.7771
30.3218
36.166
37.2584
30.9055
32.0924
35.3089
30.8668
32.4619
37.1666
36.3742
32.4835
33.491
45.0156
47.2124
44.4386
54.1178
51.7536
54.0079
52.7194
42.0564
43.4844
41.9073
50.6102
48.158
51.9823
50.2159
39.168
41.4529
39.7319
47.8896
46.4134
49.6964
47.5093
37.0061
39.1217
37.4996
45.7788
44.394
46.7067
44.9939
34.6338
36.9517
35.2425
44.0274
42.5448
44.563
43.3108
32.8178
34.7383
33.5382
41.8277
40.1777
43.0431
42.7375
31.3256
33.1898
32.2
39.7878
38.6641
42.5779
42.0742
28.6389
31.8204
30.3767
38.194
36.8358
41.9525
41.9497
44.3165
47.6053
45.0473
52.2727
52.2046
53.1407
53.086
41.9768
44.1695
41.9253
51.8391
50.4715
52.5732
50.6198
39.5864
41.1181
38.3729
49.9011
47.1189
49.6395
46.1613
37.7373
38.009
56.8625
46.2463
44.6861
45.1414
46.125
35.9471
59.587
55.9043
44.3403
43.1426
47.0652
46.7252
33.7405
51.4472
39.2006
42.8621
42.9714
45.9105
44.6477
32.4433
36.9885
34.005
42.9565
42.6904
44.6684
44.5447
30.7039
33.5636
32.7832
42.6112
42.5727
44.4828
44.5374
45.619
49.6266
47.0454
55.3166
53.8758
56.4239
53.9804
42.0897
46.202
43.66
52.9645
50.4718
52.4397
49.0189
38.046
42.2367
36.8995
49.4365
45.9098
48.2236
45.5288
56.249
35.635
34.3727
44.9029
45.9189
44.7033
43.9237
57.2568
34.5346
36.4588
47.0221
47.1452
43.9788
44.6259
42.5884
37.3011
39.0499
46.5606
45.5751
45.0074
46.344
35.3733
39.157
38.3381
45.5655
45.2995
46.6179
46.7862
33.3663
37.9294
36.9005
45.1987
45.1134
46.7824
46.9303
46.8439
49.6437
45.6569
55.7254
52.7607
56.7068
48.8229
43.2859
42.8507
36.7651
51.1771
47.9334
46.1878
43.3789
36.0482
35.2369
32.429
47.2594
45.3422
43.3418
42.257
33.3867
31.8573
31.0028
44.7482
44.1619
41.8294
41.745
34.1655
30.9058
31.1681
44.1882
44.5192
42.1708
42.6267
36.4323
31.3377
32.0114
44.7715
46.01
42.5888
42.6586
37.7167
32.2267
33.2741
46.2801
46.6695
42.9754
43.5584
37.1462
33.6069
34.3165
46.7243
47.0737
43.667
43.7317
57.7061
60.53
60.123
85.4147
80.8057
85.553
89.8993
54.2753
59.4236
57.6581
79.3144
81.5069
89.4887
89.3045
53.157
57.2041
55.3814
83.7054
83.9733
89.8765
93.6846
51.6582
54.7502
53.428
84.1545
88.5058
95.2094
99.7304
50.0181
53.0892
51.7838
90.3344
89.7061
101.007
101.43
47.5584
51.4359
51.0637
89.6454
89.8804
100.39
94.5653
45.9535
50.92
50.2811
90.4875
88.5206
93.6958
92.3729
44.0778
50.1465
49.9628
89.039
88.6603
92.485
93.6935
59.4194
58.6005
60.4278
80.5945
88.7811
80.8053
90.302
58.0797
60.153
58.5071
89.4537
90.5727
91.1657
93.632
55.2982
57.7591
54.4107
91.5428
97.0124
95.7405
104.796
53.1812
52.8688
52.3298
98.8287
103.537
107.462
112.63
51.6561
52.9146
52.9809
104.73
105.397
113.706
113.903
51.4529
52.8747
53.0606
104.283
96.902
112.321
102.937
50.97
53.2222
52.9748
94.8899
93.0712
99.229
95.3077
50.6397
52.876
52.6503
93.0937
93.8428
95.1343
95.1324
61.432
63.0936
61.1355
87.3027
92.1426
89.3866
91.282
58.3744
59.5324
56.6327
92.158
93.9679
90.1729
91.6696
54.3251
56.1062
54.4946
96.1984
105.543
93.6372
101.113
52.2913
53.8924
53.3833
108.302
112.941
103.025
106.332
53.294
53.4243
53.587
113.95
114.316
107.157
107.724
53.7489
53.8175
54.637
112.812
103.411
106.736
99.7458
53.6642
54.8908
54.9002
99.7825
95.9024
97.8611
96.4784
53.3119
54.9165
54.9855
95.8211
95.8837
96.6092
97.398
59.3594
62.698
53.5899
87.3347
87.2882
83.8019
76.1005
55.3605
51.2935
50.0999
86.737
89.993
75.1117
83.1633
54.0847
50.4515
49.4417
91.7135
97.8865
85.3807
85.6317
53.538
48.9784
49.2203
99.4435
102.471
85.0192
89.3489
53.7146
49.9736
50.28
103.31
103.544
90.6302
90.3495
54.4544
50.2186
50.3468
102.716
97.5753
89.6708
92.1241
54.8063
50.8922
51.2768
97.0094
96.4178
92.9376
92.9372
55.2019
51.4012
51.1846
96.6876
97.9116
92.9125
94.0336
40.405
40.0032
41.1331
38.7858
40.301
38.93
41.5698
48.1607
39.5909
55.7586
43.5212
42.0633
39.3413
202.11
62.559
51.3725
72.2314
236.934
47.7539
66.6498
260.599
38.7754
38.9496
38.1331
38.2161
38.4513
38.459
38.215
39.7787
38.0188
37.783
39.7359
38.1587
40.9843
38.7303
47.7634
43.8685
38.1788
58.9022
38.8624
207.845
41.0716
60.68
243.204
51.3781
79.2149
64.8879
266.246
47.1413
40.9735
37.6687
39.4515
35.9091
40.7464
36.9466
39.4827
60.7453
52.1929
77.3093
218.606
51.7014
64.3337
198.654
58.9937
48.7976
75.2852
104.536
51.1123
52.4599
135.511
40.9809
37.728
36.9042
40.103
37.1927
41.2057
39.9869
40.5198
35.5945
36.3071
38.4627
36.4774
39.0886
39.5799
59.869
223.667
52.1298
90.1821
62.7853
206.947
51.4858
57.9048
105.949
47.2678
84.4616
51.6139
142.714
50.3983
48.5524
75.094
43.1642
230.618
41.705
247.562
51.5003
35.7254
39.1938
35.6846
36.9059
36.5386
37.159
34.4897
35.3608
34.9595
33.6597
32.4844
35.3195
35.5039
33.1172
43.4471
43.7377
61.8753
36.4313
251.424
36.7065
39.1125
49.8017
235.464
81.9565
47.1977
252.673
54.3112
43.338
35.3194
35.6306
35.7361
34.0692
36.0247
33.9684
35.2224
35.4156
32.7504
35.9909
33.4769
35.9111
33.0651
35.3943
60.2643
76.748
52.104
122.359
49.0579
170.485
65.8904
37.4234
35.1235
32.1719
32.3649
35.7822
36.1775
32.5256
38.7847
38.4917
32.3977
33.9153
36.7648
41.2212
33.0045
62.7805
216.091
85.5398
50.873
199.061
58.5574
54.0098
65.1924
120.022
84.4801
58.0894
167.687
68.4364
56.9993
38.6111
32.8032
37.2571
33.9272
37.0694
33.1288
38.7594
40.2143
34.8034
42.1047
34.6607
42.5736
33.8056
40.3537
168.312
198.106
181.992
111.598
85.0626
109.326
87.8443
165.214
177.272
174.827
72.4803
68.4743
76.8182
71.7232
158.329
171.71
169.33
66.6684
63.4671
68.964
67.1298
141.906
163.848
151.96
61.1662
59.8418
66.5081
65.1453
142.93
145.386
145.483
58.1979
56.582
61.9023
58.9099
143.648
147.212
147.337
56.2775
55.7345
57.5164
56.0155
123.934
144.394
134.031
55.1439
53.6379
55.1735
52.9548
101.867
124.732
103.781
53.6822
52.6703
52.0136
50.8787
206.531
223.998
208.781
124.652
99.988
122.795
97.8978
156.182
313.606
344.115
183.977
156.631
182.677
314.051
107.619
259.308
269.752
110.23
100.139
115.408
260.694
92.2517
243.691
243.675
84.1361
82.9286
93.5238
243.161
93.8356
246.543
247.936
85.4649
87.6029
92.6664
247.842
93.6391
208.965
222.286
86.8717
84.4758
95.5442
211.591
83.4666
231.49
216.765
80.8021
80.6338
84.0037
228.216
81.7829
234.749
237.019
82.1473
81.7929
82.4989
235.991
76.7307
199.892
217.991
82.5223
82.5545
78.7101
207.057
84.8435
114.287
87.5701
49.8893
47.9072
47.5959
46.047
205.905
221.349
207.865
116.201
93.279
119.023
98.0164
152.26
299.703
329.992
176.508
148.077
177.865
299.075
113.033
256.985
265.463
112.07
108.107
116.864
256.74
91.8968
220.802
212.176
96.8074
91.9912
99.1684
209.389
83.2852
236.583
223.883
86.5849
86.7146
83.1742
228.127
79.2977
192.997
204.677
87.0699
83.9397
82.3054
187.103
72.1083
210.2
187.374
74.1232
75.2144
70.9755
201.68
77.1742
226.956
221.861
78.6728
78.6103
76.9572
222.956
75.1315
215.094
218.937
76.8723
75.5571
76.3292
214.613
94.5991
124.867
105.144
45.2459
42.1988
43.8528
40.9953
218.062
227.153
214.353
125.486
106.098
125.548
106.746
168.545
342.403
369.868
195.152
169.648
195.068
342.84
126.337
294.242
305.862
132.111
126.475
131.774
297.616
111.003
190.974
217.032
115.33
101.798
118.468
194.05
83.5611
201.613
193.302
81.8992
80.967
86.8855
198.885
72.1991
183.981
193.268
77.5875
75.046
74.6391
183.884
67.9283
172.065
171.649
68.7683
67.3776
68.973
171.791
67.4725
197.412
182.857
68.6501
69.6205
66.9984
187.117
69.9225
204.908
197.384
71.803
72.0214
69.4433
198.204
106.762
122.029
109.608
43.3735
37.4337
43.0475
37.2169
196.053
215.705
197.557
117.756
103.177
118.379
108.508
165.896
303.9
328.066
178.428
159.11
181.866
299.774
133.337
263.436
248.673
132.88
128.881
138.24
236.791
121.433
207.11
198.17
128.314
126.792
123.709
188.133
78.1253
191.815
182.125
95.7818
83.5256
90.3732
177.311
64.4975
184.409
178.512
67.5396
66.3181
65.1608
181.585
64.1229
186.87
188.952
65.4681
65.3059
64.0613
190.045
64.5354
183.468
190.015
65.0692
64.9888
64.415
188.223
63.8641
179.21
180.43
64.4758
64.4123
64.0203
177.981
106.235
112.687
98.0825
42.3138
36.2979
41.1089
35.6284
173.627
205.299
173.101
113.733
98.62
112.467
97.2131
117.425
140.325
123.303
87.0873
70.9488
82.9385
71.5503
102.937
113.985
105.238
59.9391
55.9497
64.7441
61.2308
100.805
99.7823
98.9923
50.5229
45.0768
54.0802
48.9153
102.057
97.5294
94.9997
42.3479
40.5288
46.4907
42.2648
106.003
94.7748