/*--------------------------------*- C++ -*----------------------------------*\
  =========                 |
  \\      /  F ield         | OpenFOAM: The Open Source CFD Toolbox
   \\    /   O peration     | Website:  https://openfoam.org
    \\  /    A nd           | Version:  10
     \\/     M anipulation  |
\*---------------------------------------------------------------------------*/
FoamFile
{
    format      ascii;
    class       volScalarField;
    location    "2.3";
    object      omega_0;
}
// * * * * * * * * * * * * * * * * * * * * * * * * * * * * * * * * * * * * * //

dimensions      [0 0 -1 0 0 0 0];

internalField   nonuniform List<scalar> 
12920
(
409.292
352.354
204.772
134.652
112.667
103.357
94.3596
88.4576
84.5384
81.0461
76.5127
70.5045
62.9421
54.6688
48.1142
44.5398
43.2892
42.4806
41.1061
35.8661
467.677
358.722
209.081
134.85
111.085
107.481
103.92
101.696
97.8202
94.648
86.6208
75.6198
64.6347
56.054
51.8197
49.3715
48.0026
46.2156
45.4105
44.0836
298.224
249.606
184.082
146.586
127.265
115.349
100.091
90.9763
83.9805
81.7096
79.3542
74.4789
67.0612
60.4221
55.6792
51.7794
49.5696
47.6559
46.8854
45.1044
140.512
176.699
178.93
137.839
108.525
94.5319
86.4596
82.5539
77.9198
74.6552
70.848
67.3184
62.7543
57.6727
52.9463
48.5137
45.3252
42.8307
42.0672
40.5816
148.217
225.719
216.628
168.915
128.104
109.73
101.085
95.6393
89.7146
84.6372
78.8155
73.5196
67.5308
60.6679
54.2346
47.7331
42.0706
36.0151
32.9045
28.235
144.904
222.097
178.906
138.508
132.128
121.522
111.317
103.247
95.701
92.2259
86.919
78.039
69.86
63.4799
56.3265
48.1306
39.4231
30.0597
23.0164
16.5008
111.119
241.815
234.233
182.414
150.093
132.578
118.079
110.143
101.122
95.8128
93.5115
88.0071
76.077
65.9801
56.6905
45.1711
31.6302
21.4175
16.4482
14.9295
271.253
301.602
261.214
190.394
150.918
132.489
200.16
165.339
164.948
147.33
141.786
144.799
136.873
114.298
55.8743
40.1988
28.3641
23.0532
22.7844
25.0731
180.055
237.356
220.92
169.838
147.397
224.15
349.133
266.714
245.645
247.63
216.768
224.668
237.278
208.946
103.721
39.8685
30.9909
30.3339
33.8508
38.2261
73.0589
143.161
165.989
157.351
145.593
222.611
331.666
266.589
222.308
234.12
210.066
196.469
227.034
220.687
123.092
50.2104
44.3694
44.8185
46.9488
47.8605
34.714
96.0483
133.591
143.602
141.92
233.52
371.57
303.313
207.863
195.615
196.742
171.206
192.668
205.328
126.457
64.6367
56.6757
51.8371
49.9233
48.678
89.4152
156.246
162.144
151.338
136.723
213.079
331.564
271.235
228.76
192.853
184.536
186.354
185.532
180.08
115.238
66.5822
58.0868
51.8703
50.004
50.0637
106.733
188.612
183.77
171.683
149.785
130.333
203.563
141.528
106.502
101.23
101.057
104.777
107.973
108.324
62.5372
58.1287
52.8225
49.2639
48.341
47.3062
350.29
336.954
243.438
180.236
148.342
129.761
105.235
84.516
71.5089
62.4724
58.4636
54.5426
53.3116
51.2519
50.5353
48.9868
47.886
45.3271
42.8643
37.2395
320.102
302.656
234.791
188.508
155.121
130.343
103.773
82.4427
67.8208
60.1513
55.3084
51.8881
49.3237
47.0206
45.6993
44.2153
42.5908
39.8578
36.5661
33.0199
142.181
235.497
231.59
181.416
134.713
107.656
88.9993
77.3171
67.1415
61.9909
57.2137
53.8563
50.5242
47.6586
45.416
43.2273
41.6793
38.9651
37.3385
34.4018
208.369
197.949
179.501
135.661
112.065
92.8448
82.9157
74.3477
68.711
65.216
60.7052
56.982
52.192
47.8926
44.2251
41.3258
39.5408
36.4364
34.5732
29.3577
240.779
178.068
177.11
152
115.041
96.3359
83.779
79.5702
73.9052
70.9458
66.5511
64.3089
61.2058
58.0732
53.7362
48.4306
44.3343
39.6431
37.5943
32.9728
230.693
161.473
179.025
166.322
139.523
113.839
89.7369
79.2074
71.2982
66.1782
60.5315
57.3168
54.773
52.6058
49.9375
46.0008
42.8468
38.7569
36.9293
32.6131
125.213
135.964
141.62
137.207
123.012
111.794
101.542
90.8693
83.1691
76.6601
67.7403
56.5726
47.3634
40.9615
37.1088
34.203
32.7862
31.2642
30.5451
28.6899
176.825
121.168
80.0348
69.7393
60.0424
54.646
52.438
51.3349
48.9544
45.8697
41.2203
35.7248
30.3821
27.0799
26.2346
26.3244
26.4443
26.2155
25.358
22.234
214.217
180.675
121.482
92.0705
72.5731
63.6159
57.0023
54.1839
52.5504
52.3723
52.0693
50.9531
46.581
39.7331
35.3381
32.4376
30.4121
28.203
26.6295
24.3498
155.053
143.705
97.7226
81.5266
69.3233
61.926
54.5853
50.3439
46.4395
44.8508
43.1194
41.4502
39.2878
36.3717
33.3463
30.3129
28.0959
26.1439
25.1473
23.7037
318.922
182.271
113.926
72.4947
57.2498
53.1926
50.5364
48.4541
46.8253
45.6335
44.0066
41.2732
38.0301
34.2664
30.36
26.7694
24.3432
22.6147
21.8867
21.133
265.048
243.253
132.327
84.295
64.9586
58.3867
53.2032
50.7366
48.5821
47.3252
46.4656
44.5621
41.8123
36.7754
31.2794
26.8884
23.925
20.7078
19.0289
16.8214
181.386
136.325
88.7916
71.3097
62.0592
58.6137
53.4069
51.0305
48.2254
46.6998
45.2187
43.4103
40.725
35.8775
31.9916
29.617
25.6854
19.3959
15.5607
11.1804
126.006
165.779
131.288
87.4522
67.2663
60.5792
53.6628
51.8027
48.2013
46.5219
44.121
42.2884
39.7632
37.5182
35.5641
31.1462
21.0208
13.7962
11.0762
10.4014
396.86
215.828
139.79
91.4229
67.781
59.0261
63.3906
56.2813
52.5923
48.0984
45.0952
42.2331
40.5159
39.3302
35.9931
27.7671
17.7011
13.6841
13.2126
14.42
178.862
167.458
120.458
87.0032
69.3571
70.7661
68.7683
60.8349
53.005
51.4672
50.4446
42.5453
39.8802
39.1725
37.9036
26.0954
19.0108
17.6783
18.5957
20.4871
137.928
148.218
99.5124
79.6559
65.5198
66.3162
65.5342
60.8144
59.298
49.8837
48.5327
41.2899
38.2058
36.9173
34.4635
27.0748
24.4046
24.2389
24.6867
26.3483
51.407
133.215
111.441
85.8821
70.6635
75.0424
76.0577
72.8508
73.0548
49.9112
41.7876
39.7786
40.0475
37.066
33.4967
30.7151
29.0819
28.0503
28.0142
28.6449
171.152
126.787
100.415
82.7543
72.0372
73.4116
78.7494
79.0357
88.9378
60.4618
35.8623
33.49
34.2227
36.7796
35.3618
34.2752
34.0397
32.4409
29.7461
28.4965
118.669
134.885
118.642
101.494
83.0434
66.917
66.4826
64.6662
47.2364
37.5638
31.8954
29.9102
30.1953
31.8165
33.5211
34.07
33.3609
29.9876
26.6685
25.144
294.626
184.321
129.202
98.0362
77.0618
63.2
53.7506
47.4862
41.4378
35.6389
31.2437
28.3863
27.3206
26.9525
27.4803
27.4263
26.841
24.907
24.0506
22.5907
131.343
189.487
156.903
109.706
84.4774
64.8274
50.2218
41.9101
35.8568
31.4357
28.7326
26.6882
26.0086
25.0545
24.6077
24.0613
23.7402
22.8726
22.0308
20.0682
112.338
173.602
155.087
115.122
79.0258
56.4936
44.0319
38.3436
33.7175
30.8936
28.5108
26.9641
25.6913
24.6068
23.7826
22.823
21.9726
20.6619
19.6689
17.7902
195.521
124.472
89.3172
68.6942
56.0379
44.2803
38.3155
34.6113
31.5431
30.1905
28.3506
27.4203
25.8545
24.6143
23.1981
21.9116
20.8664
19.4518
18.6923
16.8171
168.256
130.593
97.4406
72.3495
58.8384
51.8145
43.4884
39.6593
35.3976
33.4001
31.0694
30.3212
29.5641
29.1596
28.5015
27.2134
25.7747
23.4014
21.7201
20.6305
142.936
131.62
108.415
90.1272
69.9762
58.6693
48.2005
43.2688
37.8032
34.5255
30.7913
28.319
26.4907
25.4103
24.6409
23.7203
23.0722
21.8999
21.3892
20.3497
36.7946
65.1009
79.5075
79.8621
72.3219
62.2659
53.7056
47.8306
43.5666
39.0075
33.2535
28.0978
24.8245
22.4531
20.634
19.2263
18.4202
17.5903
17.1964
16.1909
93.0869
96.1501
87.4063
77.2646
63.936
56.3821
52.7169
49.8346
46.2727
42.1348
37.5474
33.6519
31.2293
30.3332
30.0838
29.7325
29.0773
27.317
26.127
23.125
247.526
124.04
88.7781
72.1141
58.2249
52.0251
46.2517
44.9363
43.6644
43.5069
42.6322
40.8995
37.9359
35.3121
32.9665
31.0673
29.5821
28.0876
27.0525
25.8312
135.286
135.826
91.4111
67.1344
55.9685
49.4942
43.7287
41.4869
39.0586
38.3307
36.9654
35.7123
33.5262
31.5834
29.5314
27.8704
26.6506
25.66
25.2042
24.5201
140.976
138.395
96.0542
58.0392
47.0819
42.008
40.4363
39.0935
37.6315
36.946
35.4666
33.782
31.2559
28.8937
26.5725
24.8277
23.6076
22.9631
22.8266
22.6209
180.516
156.278
117.681
73.9487
53.7208
45.9213
42.5154
40.8738
39.1099
38.4234
37.2683
35.571
32.7656
29.556
26.5466
24.256
22.7615
21.6598
21.1449
19.9199
272.052
167.636
90.7608
58.0139
51.3196
45.2349
43.2937
40.889
38.8
37.6454
36.265
34.7698
32.3203
29.3456
26.7038
24.5245
22.0797
19.5941
17.5518
15.0051
140.448
162.441
130.986
81.0261
59.1077
49.498
43.9421
41.8252
38.9429
37.6293
35.6967
34.2187
32.346
30.5352
28.033
23.2295
18.0525
15.5723
14.4917
14.3097
256.515
175.743
131.387
84.9588
60.1231
48.5811
46.8014
44.6366
42.4836
38.7286
36.5591
34.2049
32.67
31.4318
27.5251
21.6129
17.7286
16.3039
16.1693
16.8432
401.54
166.593
112.584
78.2001
60.2322
54.3087
50.0971
46.7088
43.4799
41.2554
38.4775
34.4971
32.5787
31.597
29.0119
22.6798
20.7049
20.4594
20.9579
21.5063
228.303
145.117
100.095
72.2667
56.5495
50.6392
49.5522
46.5254
44.64
40.8874
39.519
35.3078
32.285
30.7225
28.4649
26.6369
26.1508
26.1357
26.4676
27.4657
136.133
158.109
103.382
74.6692
58.7083
55.8103
53.5765
51.3457
48.4687
37.1499
77.2406
69.6721
46.2071
32.8911
30.4084
30.9908
30.4203
30.0549
30.0959
30.4482
82.7797
121.013
102.967
72.241
58.2112
55.0202
55.6198
56.2642
62.1236
37.8873
30.8529
31.0976
34.6018
37.1299
34.8641
33.7966
32.844
31.3415
30.313
29.8814
166.221
153.221
118.497
92.2233
71.569
56.3022
52.3983
48.2261
35.4131
29.9855
27.3654
27.011
27.6875
29.2482
30.3463
30.3551
29.5508
27.4682
26.3444
25.9631
163.337
139.795
112.705
85.2786
66.2031
51.7594
42.8377
35.7229
31.401
27.2635
25.3084
23.9296
23.815
23.863
24.2067
24.2646
24.1424
23.5321
23.2374
23.1915
227.355
164.955
114.62
85.783
66.6187
49.5449
39.0945
32.6666
28.5589
25.6098
23.9841
22.8096
22.4453
22.047
21.9932
21.8938
21.8622
21.6654
21.4051
21.2661
145.568
148.172
104.045
72.1011
53.9143
40.7645
34.7605
30.4988
27.5966
25.6658
24.1055
23.1112
22.2281
21.6288
21.0907
20.6731
20.1956
19.771
19.474
19.4624
210.749
128.785
78.114
53.9558
44.7037
36.2253
32.8919
29.5093
27.4238
26.0625
24.5581
23.7626
22.4052
21.5959
20.5824
19.9419
19.3109
18.8687
18.7629
18.9412
158.959
128.546
101.437
67.5946
50.9506
42.6282
37.0309
34.1804
30.9627
29.4069
27.3582
26.586
25.4824
24.9753
23.9995
23.1198
22.198
21.4955
21.1365
21.0243
101.05
131.225
116.634
90.6001
68.1157
52.0852
42.3931
38.8843
34.7951
32.1904
28.968
27.1029
25.2031
24.0672
23.0426
22.2321
21.6303
21.0325
20.6975
19.9111
18.5259
46.9008
81.2059
84.9602
76.8365
63.4207
54.5572
48.8141
43.9867
38.6245
33.3193
29.2942
26.4457
24.0945
22.4393
20.9654
20.1958
19.1591
18.6221
17.1491
127.978
104.373
96.4937
79.7344
64.4299
54.0382
48.0265
43.2967
39.7709
37.1133
35.1239
33.8164
33.0065
32.2308
31.4089
30.0578
28.6672
26.5443
25.3269
22.5565
169.273
120.693
89.1481
64.3869
57.5875
49.4942
46.3984
44.0651
42.9974
42.4057
41.3379
40.5061
39.1004
38.0638
36.9719
36.0596
35.2506
34.5494
33.9525
33.4625
228.088
138.209
94.3018
63.1768
57.0491
48.0821
44.9766
41.6393
40.3025
38.8795
37.6481
36.4398
35.0456
33.9365
32.9202
32.2334
31.7898
31.5067
31.3239
31.1825
214.313
143.285
83.6697
54.722
48.652
40.5733
40.8469
38.4168
37.7374
36.3242
35.2639
33.7814
32.2451
30.9491
29.9643
29.3874
29.2367
29.322
29.5268
29.9649
174.591
162.435
119.496
69.5916
54.9764
44.8608
43.2211
40.4855
39.4439
37.8514
36.5278
34.583
32.5017
30.6571
29.3387
28.6265
28.6005
28.8147
28.9006
29.3268
365.931
192.218
105.938
59.913
52.5616
42.6673
43.2951
39.8145
38.3702
36.6706
35.5508
33.8987
31.9254
29.9407
28.294
27.3253
26.998
27.11
26.8007
26.8371
122.953
162.103
132.447
79.2654
61.4245
48.3181
44.96
40.5421
38.793
36.8417
35.4264
33.7105
31.8104
29.8227
27.4547
25.3696
24.9574
25.0898
24.893
25.0295
144.76
156.251
136.343
84.3485
61.994
47.3053
44.3549
42.6122
39.9176
37.2885
35.3931
33.4621
31.7653
29.9741
27.6205
25.6483
25.0616
24.8867
24.3789
24.2266
183.488
166.626
129.321
78.5527
62.1562
52.5577
46.9665
44.2027
41.2375
38.644
36.3084
34.1676
32.3015
30.8115
28.7667
29.0202
27.647
26.6126
26.2464
25.6903
271.662
161.92
117.534
73.7876
57.853
49.1434
46.992
43.4773
41.49
38.9196
37.4828
35.3075
33.387
32.1222
32.0221
33.4556
32.879
32.1987
32.2786
32.0213
242.107
169.55
120.295
75.7792
59.9868
53.4104
48.4136
44.6263
41.1398
37.269
58.6872
54.3544
39.8184
34.7119
35.0444
37.0232
36.5695
36.2296
36.2605
36.153
272.455
172.066
113.741
69.7855
57.5671
51.4773
49.347
46.0116
41.6022
34.8296
33.3794
34.7123
36.9339
37.7035
37.6676
37.7143
36.726
35.9726
35.7298
35.3126
257.984
165.782
119.882
84.61
70.225
55.5727
49.9834
40.6274
33.5979
30.8692
30.049
30.4293
30.9851
32.1063
33.255
32.7239
32.1579
31.574
31.5072
31.6494
255.785
138.715
108.813
78.0848
65.2936
48.7952
41.3081
33.8736
30.9388
27.3946
26.8045
25.9066
26.3545
26.5779
27.2159
27.5746
27.977
28.2223
28.559
29.7698
294.208
135.317
100.837
74.8388
63.564
46.0332
39.3649
32.6328
29.6373
26.6602
25.6855
24.68
24.6754
24.6992
24.9837
25.3775
25.8496
26.5223
27.0437
28.5021
282.95
120.679
85.2287
59.3137
50.7271
38.5809
35.8988
30.8097
29.3566
26.9838
26.2208
25.0497
24.6492
24.2155
24.1787
24.2296
24.4093
24.841
25.2345
26.4351
342.381
208.729
90.8326
54.6029
47.2226
37.2886
35.7989
31.2811
30.2106
27.921
26.9773
25.6335
24.732
24.0603
23.7008
23.6917
23.9378
24.7284
25.4088
26.9228
309.265
169.849
116.64
72.8949
55.5149
42.3133
39.6712
35.7333
34.3149
32.214
30.6821
29.3549
28.1364
27.401
26.7097
26.5563
26.6099
27.0872
27.6286
28.724
176.474
171.98
145.687
99.2359
78.2439
54.6451
46.925
42.4081
39.2277
36.0481
33.0848
31.1526
29.5008
28.4947
27.8876
27.6895
27.8023
28.1934
28.405
28.9569
27.039
84.0117
95.5941
91.6847
73.8513
58.4733
50.8349
45.2951
40.3853
35.5274
31.5394
28.2515
25.6831
23.5639
22.1849
20.8414
20.1889
19.0775
18.4641
16.722
78.6882
103.965
98.529
76.927
58.6709
48.1081
42.08
38.8931
36.995
35.6117
34.5186
33.2435
31.9421
30.1104
28.1807
26.1628
24.4811
22.93
21.607
20.1803
136.602
137.975
107.325
63.8656
78.6303
58.5804
69.2747
58.2512
63.8613
58.044
60.9758
58.5358
60.2719
59.7337
60.4262
59.616
59.4894
58.7291
58.4184
57.5331
170.642
155.115
115.741
66.4212
78.3942
59.3647
66.8113
56.8716
60.446
54.4666
55.7794
52.3349
52.9981
51.7775
52.3849
51.94
52.3209
52.0706
51.9738
51.5135
491.254
224.006
107.193
60.4267
66.6077
47.203
59.8142
47.945
54.8803
48.8396
51.6438
48.5123
49.4829
48.227
48.8805
48.68
49.3859
49.6943
49.8806
50.0683
307.856
157.727
127.63
68.7243
76.952
57.028
64.3771
54.883
58.55
53.0563
53.8878
50.0067
49.5191
47.6243
48.0386
47.9103
48.6885
48.6668
48.499
48.7151
308.765
184.54
108.746
66.1014
69.0275
48.4468
60.4758
48.0239
53.0116
48.712
50.5045
47.8374
47.3893
45.5717
45.4135
45.4532
46.1476
46.0775
45.6321
46.4139
277.225
181.419
144.328
78.317
80.5132
57.5287
61.8774
50.7185
53.7781
49.8503
50.981
48.057
46.6863
44.0183
43.4897
43.2739
43.5851
43.2224
42.1482
42.6551
178.395
167.93
147.808
80.4838
76.9934
54.3661
53.6623
49.3136
50.4672
48.0821
48.8408
45.4179
44.2572
41.1614
44.5959
42.3073
40.9891
40.2767
39.4076
39.6615
265.93
197.346
145.701
77.8904
77.8632
63.46
60.7074
56.3194
54.1818
52.305
51.3164
48.9021
47.0077
45.3947
48.1752
46.0951
43.7118
42.1361
41.2437
39.5167
263.827
173.749
141.965
76.6048
71.4865
55.2476
57.4514
59.0192
57.2826
54.2699
52.6032
51.0875
51.1802
50.6059
52.3528
51.7435
50.302
49.8697
49.7327
47.2997
303.103
189.426
151.379
80.7871
80.5394
67.3612
61.686
60.3741
57.3412
52.5937
52.7945
53.0597
53.5952
53.2828
55.1506
55.6533
54.4925
54.782
55.1807
54.0776
294.441
181.641
140.687
74.0603
74.6559
60.1039
61.7346
57.5959
54.825
53.4685
53.3442
53.4997
54.3478
54.5814
56.7503
56.3075
54.7693
54.652
54.5934
53.5943
375.064
219.129
138.954
82.7523
88.104
69.6082
63.1146
48.5938
49.1557
45.6008
47.8122
47.0393
48.6194
48.5376
51.3875
50.1133
50.5182
50.81
50.9607
51.3202
242.188
163.392
123.035
77.0567
82.9073
55.3217
55.8799
43.8422
44.8375
39.8408
41.9003
40.1755
42.4954
42.5879
44.7033
45.4468
46.8344
47.6627
48.3675
50.5411
386.372
179.136
110.327
74.7976
77.5739
53.1175
57.1808
45.4563
46.3658
40.7473
41.745
39.6398
40.9761
40.861
42.0394
42.9234
44.421
45.7021
46.4978
48.7012
253.781
128.529
96.8623
62.8775
69.7193
47.5204
54.8536
41.3077
46.4392
39.9613
43.0876
40.0152
41.8816
40.5803
42.0409
41.8641
42.7274
42.9597
43.3081
44.5747
350.039
154.204
99.0279
62.684
66.4962
46.5765
54.211
42.6374
47.5545
41.1576
44.1867
40.8146
42.5036
40.8646
41.8432
41.3036
41.9042
42.0149
42.3563
43.4448
291.444
163.717
141.146
79.4864
77.3999
51.6682
59.6137
47.8208
53.0585
46.5547
49.5076
46.0052
47.4639
45.5555
46.6193
46.0444
46.8807
46.8722
47.2349
47.3147
218.871
219.26
173.961
105.674
100.615
63.2422
69.8152
57.3652
60.481
52.8813
54.7589
51.4119
52.8604
51.1823
52.3778
52.2207
53.3694
53.8988
54.5325
55.4125
58.3908
100.484
105.731
96.196
70.0093
51.8505
43.4424
37.9285
33.9005
30.1149
27.2123
24.6071
22.7835
21.248
20.2367
19.0912
18.4805
17.156
16.4735
14.6933
39.8725
38.8986
76.8331
38.676
37.6355
37.8936
87.3625
36.4493
76.8557
70.832
37.3633
35.5722
89.8661
73.0805
78.097
38.99
32.5949
36.5288
88.0794
35.1874
33.3597
70.7171
32.1966
33.048
87.6214
75.227
33.4972
35.6165
275.383
343.555
280.355
84.7507
71.6196
81.0627
69.407
247.375
270.845
236.199
68.3971
58.8996
67.0201
64.0557
245.592
231.059
234.616
57.6932
55.9865
63.0502
57.1265
232.917
240.75
235.401
56.1056
56.6608
55.8846
55.9693
212.545
215.581
196.696
56.1469
49.3215
55.9427
49.189
237.802
204.147
229.04
47.6625
45.5213
46.8561
43.9916
219.981
230.437
225.934
45.1407
44.5008
43.576
42.4088
172.417
221.222
188.333
44.5153
44.222
42.1507
40.4161
273.445
346.915
296.879
78.9205
70.0936
87.0663
80.7976
228.909
288.53
227.382
68.5748
67.2212
79.738
79.0811
226.147
203.627
191.645
65.8608
56.5228
76.9094
57.1196
230.916
200.251
207.883
54.6093
53.6203
53.1313
47.7601
188.672
198.509
172.705
53.5466
47.5175
47.2583
43.7462
225.041
173.453
199.599
45.5077
43.3297
42.8356
42.3974
224.511
206.033
212.351
43.0351
42.023
42.3497
41.3356
186.865
212.132
190.512
41.7022
40.1418
41.0597
38.5933
312.029
366.284
313.048
92.9076
84.1474
95.4373
88.2276
239.457
304.339
269.245
82.4534
82.649
87.144
89.5418
188.135
241.175
193.795
81.5194
61.5754
92.4473
89.104
202.739
195.307
192.113
55.4432
46.79
70.4457
44.0289
171.465
186.653
181.876
45.8151
42.6298
41.5964
38.5745
186.243
181.309
180.872
41.9417
41.8048
38.2263
38.1973
204.491
181.403
181.778
41.9739
41.3479
38.5296
39.8621
187.917
182.466
170.402
40.9578
38.4372
39.9375
38.2231
280.123
347.214
271.25
93.9203
88.9404
96.5162
85.9105
249.802
249.576
184.28
88.2333
90.1609
82.394
72.2785
192.833
177.158
162.737
92.5171
89.8203
68.7414
52.278
185.717
161.99
165.403
69.7548
42.0115
47.1225
39.1458
185.749
167.411
173.262
39.8934
37.4076
37.8021
35.4614
186.682
176.484
185.882
37.0783
36.9532
34.8427
34.3318
181.109
187.244
185.665
37.1914
38.7457
34.3863
35.3795
167.119
183.267
155.685
39.0822
38.0316
35.7449
36.1962
63.2651
66.3239
60.9184
52.6586
50.0083
51.8065
48.9782
54.1024
59.3041
57.5413
48.6842
45.6132
47.9328
46.6509
51.4695
56.9037
52.0377
44.9601
43.3123
46.1937
43.7235
51.2696
50.9143
50.5159
42.9605
41.3647
43.0617
41.9094
44.0878
50.391
44.1311
40.2522
36.4274
41.209
36.7794
40.3487
41.992
38.997
35.5179
33.9191
35.5205
33.2919
39.2004
38.5217
37.5252
33.4796
32.8127
32.8211
31.8712
40.1795
37.3472
37.0476
32.6787
32.302
31.6376
30.5011
61.7461
72.0148
70.5338
51.7288
49.4881
55.0367
53.7289
60.1977
70.1783
70.1947
48.7619
47.7996
53.2968
51.9913
51.5656
68.577
51.9261
47.0371
43.3217
50.231
42.255
48.6833
48.2306
43.5204
42.4017
41.2698
40.2061
50.4832
43.2072
43.2618
41.3729
40.9142
37.2813
51.6916
53.5096
38.6329
40.8834
40.2902
35.9948
33.4236
53.3587
43.3528
37.1845
39.637
37.173
32.8671
31.6896
39.2341
32.8551
36.6657
36.6811
35.2025
31.3853
30.1932
31.9444
30.0992
73.4619
79.1343
78.0882
57.1346
55.5343
59.8
59.4881
73.9172
78.0593
83.7705
55.166
54.5115
60.0498
68.2754
55.4926
88.1517
79.929
53.1223
43.3201
69.1585
50.0059
42.4111
61.3853
39.25
39.7276
49.1801
42.325
33.1846
39.9937
37.2732
34.9021
50.334
52.0398
32.4334
32.4558
40.1039
34.7211
35.2823
52.831
49.2237
33.0657
36.4169
37.8515
35.9685
37.74
44.7843
34.8587
37.8245
38.7806
35.1211
37.7149
36.3264
33.2142
30.4653
37.8696
34.7333
78.9222
75.5185
72.3801
59.6595
59.8249
57.6609
55.9638
84.8037
71.1379
64.4743
60.5998
69.8237
55.0425
48.8926
80.595
61.0048
45.7539
70.6901
49.3479
45.1945
35.3377
37.6329
41.2968
34.5667
41.1644
32.016
33.0072
29.4633
33.7226
33.4202
31.5498
31.1931
30.6194
28.8046
27.9389
33.7128
31.1342
30.981
30.7989
32.7669
27.8861
28.352
36.3434
31.1128
32.4211
33.85
36.7916
28.6141
30.1884
36.288
32.908
34.5154
36.8436
35.1984
30.7518
32.5172
47.8428
49.612
46.9788
46.946
44.8754
47.0485
44.2293
44.1441
45.9383
44.5665
44.0134
41.9398
43.2317
41.6977
41.6879
44.1318
42.0523
41.1458
39.0583
41.2684
39.5606
39.5127
41.4489
40.0932
38.5378
36.8657
38.9655
37.3514
35.2612
39.3319
35.6545
36.0979
34.1579
36.7427
34.7054
33.0384
34.6177
32.6465
33.6583
32.3563
34.112
32.7286
31.8391
32.1878
31.1736
31.837
30.8911
32.3326
31.2508
31.0428
30.8781
29.5967
30.4155
28.4494
30.844
29.2794
47.3198
51.9824
50.4446
46.9355
44.192
47.7686
45.2209
45.3354
49.8418
48.0228
43.3226
41.8348
44.3453
42.0664
41.6847
46.4527
40.4066
41.3246
39.3594
41.1433
38.0543
39.3711
40.3012
40.0828
39.7209
39.8883
39.2149
39.1062
41.5212
38.7449
41.4634
38.488
41.298
37.8258
41.7898
32.8433
67.3143
44.5326
34.8094
32.9514
62.3707
40.663
31.069
39.3399
32.4226
32.5019
31.3991
37.2775
32.9541
29.3249
31.503
29.7838
31.0213
29.5036
32.3524
31.4086
51.8983
55.8296
55.414
48.6275
45.9108
49.9915
47.8278
49.9461
55.8325
61.1454
44.9808
42.506
47.3334
45.8404
40.9583
61.022
44.2825
41.4458
37.7876
44.3348
36.9435
43.3219
58.9814
38.6218
42.9876
39.673
260.182
37.3382
57.744
75.3844
44.7535
210.793
46.8486
193.013
54.1895
53.1599
33.9915
37.896
68.2279
46.0231
36.6903
39.1596
34.5414
39.2857
39.1538
41.3805
34.5878
39.3982
38.2275
30.2162
38.015
34.8558
33.6142
31.9826
37.5784
36.1153
55.65
54.1069
52.8348
49.6564
47.7946
49.7375
46.6432
62.3458
51.4191
44.5375
47.3554
45.8139
44.0263
37.4145
43.4213
41.3025
33.526
44.0382
36.038
35.4625
31.787
31.4232
31.7531
28.9923
34.3278
32.2174
31.0333
29.8565
30.7257
28.4748
27.8937
32.1387
32.8888
29.6613
29.7544
33.503
27.9015
28.5275
33.4833
35.5921
29.9052
30.6828
37.1964
28.8063
30.358
36.2062
37.2987
30.9307
32.119
35.3503
30.9021
32.5009
37.2108
36.4205
32.5117
33.5218
45.0254
47.2017
44.419
54.0245
51.6449
53.8237
52.5025
42.0725
43.474
41.9166
50.4981
48.0088
51.7697
50.0124
39.167
41.4589
39.7355
47.7209
46.2393
49.4906
47.3181
37.0086
39.1277
37.5072
45.6062
44.2098
46.5189
44.8127
34.6345
36.9577
35.248
43.8392
42.3627
44.3805
43.1325
32.8231
34.7462
33.5486
41.6596
40.0227
42.8665
42.5811
31.3293
33.201
32.209
39.6475
38.5476
42.4281
41.9341
28.6247
31.8287
30.3814
38.1004
36.7619
41.8181
41.8609
44.3043
47.6151
45.038
52.1229
52
53.0275
52.8912
41.9833
44.1602
41.9144
51.6315
50.2641
52.3668
50.4057
39.5897
41.1034
38.3628
49.695
46.9439
49.4381
46.0299
37.75
37.9989
56.8406
46.0888
44.5523
45.0261
46.0383
35.9558
59.6304
56.039
44.2079
43.0034
46.9908
46.6533
33.7509
51.5328
39.2164
42.7035
42.813
45.8329
44.4997
32.4545
37.0036
34.0252
42.803
42.5409
44.5053
44.3779
30.707
33.5848
32.8062
42.4672
42.4654
44.3185
44.4028
45.6038
49.631
47.0473
55.1828
53.6727
56.2885
53.802
42.0708
46.2059
43.6375
52.7522
50.2568
52.2534
48.818
38.0344
42.184
36.8531
49.2366
45.7802
48.0212
45.3552
56.1593
35.6084
34.3792
44.7915
45.8288
44.5382
43.7638
57.3428
34.5437
36.485
46.948
47.0764
43.8202
44.4806
42.604
37.3306
39.0842
46.4871
45.4335
44.8585
46.1771
35.3983
39.1892
38.3752
45.4047
45.1321
46.4461
46.6143
33.3876
37.9663
36.9388
45.032
44.9667
46.6096
46.7765
46.854
49.6466
45.6571
55.639
52.6077
56.6545
48.7355
43.2658
42.8399
36.7441
51.0124
47.7418
46.087
43.2021
36.0024
35.2191
32.4159
47.0563
45.1631
43.1625
42.0711
33.3945
31.853
31.0085
44.5749
43.9866
41.6538
41.5497
34.1876
30.9133
31.1773
44.012
44.3562
41.9797
42.4348
36.4629
31.3481
32.0289
44.6042
45.8297
42.4027
42.4678
37.7497
32.2439
33.2928
46.0974
46.4931
42.7834
43.3721
37.1807
33.627
34.3362
46.5464
46.9131
43.486
43.5623
57.5945
60.3557
59.8653
86.641
81.8317
86.3976
91.3085
54.0655
59.163
57.3859
80.1381
82.7832
90.829
90.5937
52.9109
56.923
55.0959
84.8701
85.2466
91.1536
95.0931
51.3676
54.4597
53.1209
85.2411
90.0065
96.6455
101.31
49.7096
52.774
51.4647
91.6605
91.0574
102.603
102.955
47.258
51.117
50.7505
90.7511
91.0834
101.819
95.5582
45.6935
50.6118
50.0195
91.4253
89.4059
94.6102
93.1309
43.8445
49.8899
49.7082
89.6911
89.7602
93.2044
94.6714
59.1682
58.5012
60.1921
80.7339
90.0116
81.2087
91.4419
57.8022
59.9045
58.2389
90.7
91.854
92.3217
94.9166
55.0164
57.4741
54.1835
92.8535
98.4868
97.1125
106.335
52.908
52.6607
52.129
100.336
105.191
108.98
114.29
51.361
52.7167
52.7459
106.404
107.025
115.382
115.593
51.1376
52.6267
52.7494
105.83
97.9901
113.975
104.173
50.7028
52.9193
52.6863
95.8343
93.8624
100.279
96.177
50.3685
52.5888
52.3692
93.8618
94.9281
96.0007
96.3309
61.1931
62.9663
60.9238
87.9285
93.376
90.3169
92.2995
58.1106
59.3038
56.3733
93.3383
95.2184
91.0748
92.6476
54.0987
55.8453
54.2129
97.5469
107.081
94.7108
102.481
52.0894
53.6075
53.0818
109.827
114.572
104.446
107.823
53.0637
53.12
53.2855
115.599
115.981
108.659
109.17
53.4417
53.5121
54.343
114.44
104.622
108.128
100.763
53.3699
54.5876
54.5978
100.816
96.7784
98.7761
97.3689
53.0182
54.6128
54.6865
96.7099
97.1361
97.5214
98.6905
59.1779
62.7533
53.5125
87.7019
87.9526
84.3784
75.5154
55.108
51.1745
49.8946
87.3715
90.8401
74.9854
83.5989
53.8152
50.2473
49.2264
92.6338
99.0706
86.1511
85.9318
53.2398
48.7637
48.9627
100.694
103.791
85.7091
89.9906
53.4164
49.7148
50.0231
104.657
104.815
91.6055
90.8544
54.1589
49.9636
50.074
103.956
98.494
90.5205
92.8391
54.5057
50.6096
50.9987
97.9281
97.3241
93.9732
93.6756
54.8959
51.1235
50.8951
97.6245
99.2325
93.9338
95.3085
40.3944
40.0411
41.1477
38.8128
40.2998
38.9574
41.5905
48.4439
39.5809
55.2099
43.4133
41.9811
39.3373
202.543
62.8794
51.3208
71.7446
237.349
47.6036
66.8767
261.31
38.7694
38.9681
38.1472
38.2237
38.4701
38.4661
38.2129
39.7673
38.0407
37.7989
39.7499
38.1796
41.0043
38.7215
47.9565
43.7446
38.1465
57.9944
38.8456
208.29
40.9781
61.0117
243.646
51.4042
78.6835
65.1866
266.971
47.0519
41.0082
37.6629
39.4622
35.91
40.7733
36.9493
39.504
60.9266
52.2232
77.2438
218.85
51.7553
64.5427
198.734
59.1687
48.8845
75.5009
105.228
51.1751
52.5819
135.565
41.0151
37.7466
36.9187
40.1291
37.2061
41.2348
40.0163
40.5564
35.6016
36.3189
38.4875
36.4865
39.1136
39.6118
60.0509
223.898
52.1975
90.0911
62.9376
207.074
51.5721
58.0842
106.573
47.3464
84.7208
51.7405
142.803
50.4945
48.4053
74.9067
43.085
231.007
41.5727
248.187
51.3136
35.6569
39.0398
35.5848
36.7899
36.4476
37.0555
34.4263
35.3253
34.9417
33.6149
32.4804
35.2722
35.4773
33.09
43.1684
43.5876
61.2828
36.3998
252.119
36.6474
38.9498
49.5132
235.896
81.7769
47.074
253.362
53.9795
43.1718
35.2717
35.5605
35.6961
34.0487
35.9599
33.9311
35.1925
35.3767
32.7548
35.9777
33.4728
35.8854
33.0516
35.3673
59.8722
76.8742
52.1236
123.047
48.983
170.496
65.8809
37.43
35.1152
32.1859
32.375
35.7928
36.172
32.5395
38.8033
38.5295
32.4176
33.9456
36.7843
41.2627
33.0283
62.4911
216.319
85.6755
50.8055
199.196
58.2805
53.9576
64.8417
120.817
84.7186
58.0594
167.737
68.3998
56.9335
38.6165
32.8135
37.2649
33.9469
37.071
33.146
38.7726
40.232
34.8342
42.136
34.6864
42.6113
33.8314
40.3735
168.488
198.431
182.181
111.833
85.1276
109.501
87.8888
165.345
177.368
174.926
72.4978
68.5226
76.8293
71.7421
158.228
171.867
169.481
66.696
63.4472
69.0049
67.1711
141.96
163.839
151.835
61.1334
59.7925
66.5378
65.1065
143.164
145.491
145.69
58.1759
56.5887
61.8337
58.8811
143.758
147.44
147.515
56.2924
55.757
57.5199
56.0224
123.81
144.482
133.892
55.1227
53.6754
55.1827
52.9571
101.808
124.589
103.59
53.6892
52.6822
52.0216
50.9139
206.804
224.483
209.081
124.884
100.002
123.009
97.9996
156.737
314.296
345.312
184.528
157.07
183.315
314.86
107.473
258.65
269.514
109.964
99.7498
115.366
260.281
92.3026
243.857
243.882
83.9927
82.8623
93.5211
243.476
94.0298
246.823
248.365
85.5667
87.6671
92.7855
248.221
93.5078
208.938
221.744
86.7245
84.238
95.5627
211.536
83.4848
232.137
217.637
80.746
80.583
84.0079
229.02
81.7995
234.96
237.406
82.0222
81.7732
82.5192
236.313
76.6982
199.759
218.035
82.4646
82.4945
78.7045
206.9
84.4989
114.094
87.2924
49.8615
47.8178
47.6
45.9889
206.218
222.033
208.307
116.657
93.4843
119.616
98.3696
153.079
300.611
331.403
177.472
148.749
178.887
300.12
113.261
256.552
265.511
112.261
108.286
117.106
256.439
91.7051
221.305
212.366
96.6978
91.9291
98.9522
209.962
83.4025
237.074
224.844
86.6997
86.838
83.2904
228.718
79.1458
192.602
203.672
87.113
83.7644
82.3078
186.732
72.2502
211.055
188.109
74.1746
75.3482
71.0293
202.638
77.2335
227.319
222.31
78.7267
78.6621
77.0327
223.332
75.1334
215.202
219.128
76.8842
75.5523
76.3414
214.773
94.398
124.854
105.05
45.2267
42.142
43.8286
40.9499
218.599
227.84
214.986
126.044
106.404
126.059
107.027
169.384
343.937
371.71
196.128
170.507
196.013
344.428
126.701
293.95
306.23
132.295
126.831
131.994
297.473
110.825
190.752
215.47
114.81
101.28
118.333
193.466
83.3847
202.174
194.161
81.8443
80.9123
86.643
199.383
72.1201
183.675
193.083
77.501
74.9459
74.5077
183.716
67.9159
172.474
171.923
68.72
67.3991
68.9499
172.109
67.5715
197.934
183.395
68.773
69.7245
67.0832
187.629
69.9743
205.225
197.755
71.8623
72.0654
69.5123
198.521
106.701
122.159
109.612
43.3576
37.3787
43.0475
37.1921
196.641
216.279
198.037
118.097
103.57
118.762
108.869
166.763
305.606
329.956
179.404
159.955
182.771
301.442
133.767
264.445
249.675
133.308
129.328
138.684
237.744
121.78
206.797
198.534
128.797
127.091
124.248
188.687
77.6758
192.145
182.307
95.1139
83.0018
89.7272
177.493
64.521
184.59
178.826
67.5061
66.3164
65.165
181.877
64.1433
187.097
189.175
65.4909
65.328
64.0807
190.266
64.561
183.744
190.226
65.0996
65.0276
64.4384
188.415
63.9093
179.536
180.687
64.5298
64.4662
64.0669
178.253
106.257
112.818
98.1548
42.3299
36.2905
41.1718
35.685
173.613
205.691
173.088
113.974
98.8537
112.759
97.3988
117.288
140.091
123.254
87.0694
70.8604
82.955
71.5415
103.075
114.06
105.374
59.9199
55.9398
64.7679
61.2805
100.915
99.8799
99.1178
50.4972
45.0526
54.0608
48.95
102.167
97.656
95.1276
42.3545
40.5401
46.5104
42.2873
106.07
94.8611
94.8402
39.7034
39.682
39.1757
38.5524
108.767