/*--------------------------------*- C++ -*----------------------------------*\
  =========                 |
  \\      /  F ield         | OpenFOAM: The Open Source CFD Toolbox
   \\    /   O peration     | Website:  https://openfoam.org
    \\  /    A nd           | Version:  10
     \\/     M anipulation  |
\*---------------------------------------------------------------------------*/
FoamFile
{
    format      ascii;
    class       surfaceScalarField;
    location    "2.3";
    object      phi;
}
// * * * * * * * * * * * * * * * * * * * * * * * * * * * * * * * * * * * * * //

dimensions      [0 3 -1 0 0 0 0];

internalField   nonuniform List<scalar> 
38556
(
3226.57
-1943.36
1704.53
3117.61
-1398.96
1507.92
2194.64
393.376
529.599
1690.96
609.967
-106.293
1459.23
494.447
-262.714
1470.61
207.36
-218.741
1485.19
83.9717
-98.5486
1540.38
-54.3975
-0.788666
1587.45
-101.769
54.698
1624.17
-122.942
86.2147
1631.73
-111.467
103.914
1623.49
-96.9222
105.16
1565.86
-36.4064
94.0388
1459.32
30.245
76.2922
1332.74
69.0075
57.5769
1229.44
77.9356
25.3625
1144.57
77.1868
7.68401
1080.56
67.9386
-3.93026
1042.03
49.0857
-10.5548
22.9566
-0.856631
1373.64
-1475.13
-1743.97
1398.52
-1033.04
-390.799
1258.18
-0.675475
534.396
1207.03
269.438
391.683
1113.36
266.726
321.389
1138.68
88.3348
93.7
1145.39
-2.24611
79.5088
1175.43
-74.7528
-9.68374
1189.3
-109.358
-6.28174
1212.24
-118.928
-26.9526
1216.01
-104.757
-10.4751
1209.69
-83.4614
-7.14336
1149.38
-9.86587
33.7706
1072.42
56.7509
50.4517
1019.87
75.1113
46.4457
979.434
72.1193
46.2526
945.183
69.2717
42.1656
914.925
59.8439
38.3529
888.009
49.8869
26.1148
35.0958
9.19742
-336.935
249.716
507.301
49.8508
-57.5307
-1362.3
680.92
-264.292
-367.452
889.529
-50.8437
111.673
1004.5
20.0431
131.713
1043.39
-8.92727
58.3695
1024.6
-50.8567
67.3966
1019.86
-94.8476
24.8405
1003.05
-109.058
16.5045
996.373
-97.8975
-14.3495
983.839
-70.3297
-21.8932
970.369
-33.8962
-36.0949
938.936
36.4559
-14.8888
904.885
79.6283
11.1737
868.97
85.409
25.6175
835.897
77.5687
27.6226
815.62
67.4155
22.1337
803.181
56.389
15.8933
796.919
49.9067
6.24274
41.2259
2.14365
1442.62
-419.786
224.049
1286.18
-31.7774
130.693
652.245
-163.952
533.594
577.756
-66.8523
90.4976
620.086
-128.758
106.472
679.328
-124.797
56.6282
748.871
-209.132
88.7318
794.775
-193.975
53.2235
829.051
-210.295
66.9624
852.977
-173.183
51.3593
861.43
-144.783
65.9998
857.129
-74.0943
44.4993
838.305
17.1404
38.1397
801.512
83.2694
33.1519
755.171
99.8327
31.9165
717.304
90.1859
25.2504
706.055
59.6909
18.9733
708.784
38.0248
15.6354
724.995
29.5537
4.1417
33.2614
1.14697
356.214
-772.481
1552.96
877.461
-197.587
-355.438
1035.34
66.8695
-388.696
1008.11
7.47023
-47.1004
934.804
-78.152
22.7027
902.188
-126.343
34.1617
877.827
-229.12
44.3491
884.587
-222.998
22.2616
890.674
-243.726
27.3434
912.36
-211.787
16.9188
933.39
-193.735
27.9216
948.238
-107.187
18.2452
914.256
20.7261
30.3962
841.313
118.549
37.6633
769.514
138.565
33.0674
724.927
114.382
20.3913
712.294
50.3539
21.9694
703.254
30.5723
16.4929
693.361
30.5301
8.91602
34.2002
12.5064
-657.766
-1905.3
3188.13
-199.923
-541.733
-113.697
308.278
-320.219
-121.113
398.145
-139.355
56.958
597.742
-301.528
23.78
652.512
-170.845
-10.2694
712.416
-315.014
25.9912
727.395
-229.041
-8.93506
755.353
-270.203
-1.48119
785.74
-226.735
-15.4392
818.384
-209.021
-17.358
853.276
-125.635
-16.4448
853.137
9.52207
11.3425
806.824
146.351
18.5101
774.294
158.45
12.6449
728.271
122.893
37.5125
656.575
58.4968
63.5526
582.919
55.1696
49.0584
524.257
55.7098
33.4828
39.0854
26.6378
1846.67
24.9937
2684.46
1262.78
400.319
-358.166
1199.41
344.098
-600.945
1142.23
170.951
-253.13
999.243
-20.0577
-138.48
900.622
8.39245
-80.6168
788.716
-15.1611
-63.4428
-48.2938
-21.1532
-55.0568
758.655
-38.6721
-35.1415
-45.5866
-38.874
-40.7062
752.629
-58.3269
-18.4685
-72.1882
-50.8934
-64.3003
775.978
-62.5295
-26.808
-59.8778
-52.8627
-48.0059
795.675
-54.1695
-41.4197
-54.3561
-39.1396
-39.6331
831.995
-36.2056
-60.5192
-30.2128
-19.3641
-15.6528
844.302
1.75857
-25.4822
-3.8068
16.5046
8.241
818.379
31.4711
26.8473
35.2146
39.0024
39.739
763.54
172.966
40.3225
638.494
165.952
81.9874
501.306
118.312
77.3727
418.862
101.922
35.6916
382.799
70.4055
21.3671
24.262
24.9217
0.590269
1548.11
1031.25
482.654
917.844
-999.588
679.439
852.852
-705.539
757.571
389.923
-297.104
748.631
138.858
-149.977
179.574
25.8077
-75.696
189.713
175.174
182.706
20.0665
33.841
25.8379
160.318
9.13353
-5.03908
-152.185
160.183
-42.078
-4.59179
-180.719
186.602
-60.0437
-4.16659
-191.792
189.765
-63.12
2.61725
-193.226
189.343
-52.2989
2.01251
-193.321
193.747
-31.8897
-4.74245
-200.206
203.455
1.14888
-2.63988
-206.551
204.107
29.9361
3.97905
680.96
51.1022
53.5785
-199.736
-197.573
-188.724
-180.781
49.8164
54.0212
50.3021
544.258
232.967
69.6859
450.043
182.39
30.1381
421.305
142.768
-12.1088
427.8
95.8203
-31.9093
29.3914
-6.72951
382.038
1803.67
3681.65
537.111
1178.8
-416.028
851.036
780.487
-241.56
916.409
417.173
-92.6225
221.79
191.998
-21.8912
209.954
232.677
220.739
231.815
24.9908
-9.20814
-3.42004
-64.1244
64.3421
4.97895
-1.77664
-64.2029
10.0496
61.4348
-5.81084
-1.47061
-57.6057
16.9881
56.4354
-15.5474
-0.27042
-58.5161
17.7492
58.6316
-18.2817
0.417025
-58.5736
13.8958
56.3504
-12.4842
0.811627
-51.4562
8.39415
49.8932
-7.28891
0.457697
-48.9689
-0.578705
49.1571
1.20263
-0.812089
-50.4722
-6.13239
50.7004
6.15109
-0.246886
-51.0203
184.543
56.8232
9.06065
-50.7044
-49.3912
-48.2089
549.752
281.768
47.7008
-169.014
-165.343
-161.059
-150.837
487.462
240.135
4.54457
474.665
193.132
-37.5671
482.143
144.496
-56.1536
75.9308
-38.4911
-338.751
411.817
3584.3
-253.518
706.204
387.361
334.184
421.594
-228.808
485.158
286.291
-20.0907
137.126
164.563
-56.57
143.771
141.325
146.941
-30.5558
147.792
35.5553
-15.6653
-5.8605
-42.424
43.9928
6.4434
-2.15167
1.2882
-54.7639
57.9261
-2.8033
-1.6471
16.8954
-59.1382
58.7432
-16.7799
0.279592
21.0474
-58.5764
58.7085
-20.8614
-0.318166
11.5146
-58.674
56.6953
-10.3386
0.802727
3.81881
-50.6202
49.5404
-2.54593
-0.193111
-2.4707
-47.8964
47.873
3.46283
-0.968726
-6.66999
-48.1243
48.3595
7.78419
-1.34947
-48.4122
-57.8256
184.677
61.268
-1.78483
-47.8659
-45.4045
-44.6517
625.893
307.876
-0.286101
-171.909
-169.936
-154.606
-155.264
611.28
279.339
-24.5914
640.251
201.761
-37.6001
685.261
128.411
-28.9252
78.315
-8.12437
819.325
1037.24
1216.16
955.901
1082.18
-512.555
883.023
686.277
-191.806
924.473
352.942
-108.101
228.085
209.879
-8.24547
216.896
225.298
217.124
-27.4986
247.046
18.9565
-10.4191
0.733783
-67.9664
69.9859
-0.0716227
-2.68163
6.16005
-75.1131
75.0995
-3.9653
-2.18116
11.3449
-62.3316
56.4308
-7.5555
2.11139
20.7653
-53.803
53.7895
-20.8938
0.141971
8.55325
-51.061
50.0127
-8.42326
0.918337
0.827763
-45.8725
45.1228
-0.846582
0.768541
-6.93342
-46.0021
46.4487
7.49055
-1.00367
-11.1368
-47.1756
47.2606
12.3136
-1.26172
-46.6556
-66.9142
180.957
72.7113
-4.72072
-46.7171
-44.1971
-44.4631
697.803
309.153
-15.6039
-175.573
-179.239
-160.609
-168.055
730.686
268.516
-22.0602
792.666
157.462
-17.6821
855.928
70.1436
-4.99395
39.2829
19.3092
-1793.6
829.812
1679.12
-503.884
355.879
-563.412
253.357
175.68
-246.642
529.762
92.3863
-15.8495
160.735
1.49905
80.135
161.118
165.164
170.99
-5.53601
177.988
-11.148
-0.569058
0.562761
-48.1313
50.4668
-2.32326
-0.57501
-1.71813
-63.1078
68.9433
-3.54976
-0.567599
3.03005
-76.7828
74.7414
-5.12081
4.13213
12.9881
-57.0925
50.9416
-7.39417
0.556976
5.74552
-41.021
40.3854
-4.88255
-0.227338
0.798664
-41.1055
41.5123
-0.64734
-0.558133
-6.39991
-42.4463
43.5432
5.80841
-0.505365
-14.4839
-46.2199
47.0732
14.337
-0.706441
-48.1513
-76.8047
196.703
73.1002
-3.3048
-48.2255
-46.5641
-46.7524
812.252
260.461
8.677
-195.19
-200.837
-184.539
-191.67
831.201
220.185
29.382
841.308
117.62
29.7356
843.192
55.4777
12.7826
37.9378
7.83603
-243.679
652.657
-852.984
254.083
147.133
-289.016
443.293
35.6602
-49.1902
659.855
-43.1564
-81.0202
722.45
-103.35
42.2544
199.423
-232.767
-6.49434
35.9293
51.0209
32.1819
48.8095
200.412
195.435
198.499
10.6063
215.702
-55.4001
-0.0283847
8.81226
10.8846
8.84639
11.3757
-198.331
167.775
-26.6057
8.83998
11.2523
12.7083
12.9857
4.7261
-133.73
133.44
-18.4593
8.77242
-1.06651
6.16519
0.151595
3.47444
-111.292
106.641
-11.1635
7.44852
0.64971
3.57408
0.667976
5.44026
-98.8921
107.597
-21.7878
0.0295606
1.68789
4.93236
0.992571
1.86858
-99.8352
111.504
-4.11126
-3.92027
-2.90776
1.0288
-3.6274
-3.02763
-117.446
140.879
5.20998
-6.95222
-6.89947
-4.31143
-7.45242
-11.4484
-150.048
169.751
31.9204
-1.79075
-13.067
-11.9811
-13.3363
710.738
162.451
35.0817
-69.9695
-74.9691
-65.6353
-67.8508
-174.132
-148.065
-163.993
-143.656
744.042
167.678
59.4791
735.981
159.376
68.8697
710.502
96.4625
46.6356
693.717
50.7749
21.4881
30.1177
16.2219
-92.8706
557.586
-468.802
324.056
52.7483
-322.542
551.093
-118.136
-73.2416
732.49
-204.833
-19.7196
751.24
-154.368
32.2676
713.235
-171.606
-23.1553
613.043
15.1127
-0.914578
46.7886
-1.72622
44.1053
-3.17388
570.061
-47.7053
38.4332
12.8712
8.05842
15.8292
15.4953
514.703
28.1906
45.1561
10.5655
-20.0972
12.7558
-21.2127
469.491
-29.6564
41.6098
9.2544
8.70949
8.96172
6.33242
426.598
13.4991
33.0007
14.8737
-13.1757
11.7965
-17.1008
413.672
-0.0257581
25.4774
5.43506
-8.96634
2.83915
-11.8333
421.96
31.2487
18.6993
-0.330288
-25.7803
-4.28234
-27.8436
459.208
39.559
25.9048
-20.3688
-30.1109
-21.9446
-30.2878
508.735
72.334
40.5906
557.019
84.4334
34.9609
597.941
87.6325
30.8217
617.318
49.6382
27.4471
628.993
6.20776
32.8914
-16.1589
44.253
773.107
1526.41
631.621
928.139
475.409
-577.693
870.437
78.2199
-138.653
884.636
-75.3789
-143.653
695.897
4.50002
29.8707
610.314
-35.7939
-50.2299
545.17
54.9082
25.3487
495.407
4.47883
-2.42127
453.127
43.686
26.7851
416.403
-8.26506
15.3322
403.166
6.4242
20.3118
406.877
-17.5281
13.7918
420.33
-0.218066
18.0143
439.862
4.94879
15.0776
470.821
25.1603
16.2146
515.224
22.9292
17.1008
557.207
25.1468
20.5028
572.313
6.7119
27.8202
559.382
-19.029
38.1683
-32.1927
32.9029
1733.8
1314.96
1187.39
1746.55
45.6054
417.057
1295
74.9536
454.813
1083.29
-86.4487
222.784
726.56
124.879
236.352
584.135
33.6361
72.995
491.66
112.103
35.2803
466.059
34.4312
-4.35167
448.149
48.0351
13.5614
442.348
-1.63779
-0.825989
447.835
-7.1105
8.04763
461.769
-32.4834
1.02134
475.274
-21.8034
8.0803
491.015
-14.4515
3.65931
505.67
5.86738
4.63795
519.683
9.56733
-0.651553
529.136
16.943
-1.24892
524.023
17.2492
-5.42456
497.951
16.1676
-9.12492
13.6078
-21.255
-264.427
644.825
-753.144
-155.569
-377.591
314.338
186.099
17.1884
-283.903
106.736
-80.9523
73.8669
184.78
21.88
24.9542
140.796
60.0011
17.6193
231.268
41.9442
-20.3135
253.339
39.2888
-26.9286
311.955
18.7671
-29.3477
355.316
-7.06435
-37.9346
408.598
-35.1415
-25.251
446.512
-53.741
-16.6562
473.817
-43.645
-5.46322
490.556
-28.2679
-2.92225
498.533
-3.39313
1.28364
503.071
6.42477
-1.39583
505.66
24.4185
-10.0644
502.667
37.5504
-17.308
493.489
49.1568
-23.8114
54.2114
-28.0298
1076.3
1784.9
-4553.16
-57.5786
224.754
531.534
477.923
-84.2816
-434.031
482.338
-41.8933
-43.4749
536.711
-60.5722
28.0801
543.254
35.4372
18.0208
517.815
54.0896
13.2937
514.582
73.2097
-30.688
519.888
44.5941
-31.1333
541.059
14.7309
-42.9655
572.131
-28.154
-38.0597
609.064
-48.9577
-41.7166
640.815
-43.4378
-31.9577
669.448
-26.6982
-30.203
685.805
-4.75298
-14.9974
687.022
9.88058
-4.67239
667.983
33.9701
9.48668
641.331
52.5927
11.6104
624.442
63.2336
2.812
63.0819
5.58232
1055.62
-369.624
-3750.58
73.2493
337.357
869.771
671.145
-362.054
-320.123
658.736
-71.7764
42.2918
699.023
-83.7804
-17.0787
674.315
65.5803
-5.43536
602.643
100.587
25.1754
543.349
147.562
-15.0593
500.73
127.952
-40.7385
485.563
110.252
-80.3546
514.719
14.0741
-71.3843
559.014
-23.8011
-69.4518
589.849
-14.7382
-59.5345
613.431
4.55044
-54.8303
631.549
19.0708
-41.9418
646.794
26.5115
-31.8761
659.716
35.875
-14.8267
666.135
44.493
1.68064
670.751
48.0862
10.532
42.8156
20.9714
919.614
1010.93
1179.13
77.8396
1179.06
-361.984
1365.48
-258.195
1403.65
-121.954
1481.31
-12.0739
1468.64
113.259
1467.69
148.511
1435.74
159.9
1397.95
148.043
1249.71
162.308
1076.19
149.722
964.059
97.3945
903.088
65.5212
869.75
52.4081
847.856
48.4057
832.251
51.48
825.169
51.5755
825.083
48.1714
43.9997
2994.01
-485.766
-3645.24
1770.12
311.446
2420.36
1708.27
424.812
166.639
1543.24
274.784
-216.049
1362.92
222.07
-304.454
1316.07
70.6819
-242.583
1292.34
16.3121
-91.1298
1347.73
-52.8331
-3.34577
1404.73
-61.5614
59.262
1471.45
-56.0341
75.5334
1498.74
-22.6401
99.2602
1481.98
7.85748
114.064
1398.22
52.8496
124.945
1286.22
67.4233
120.876
1189.48
56.7306
97.5811
1130.44
40.3779
44.0291
1086.14
33.3619
18.6195
1045.37
28.4813
8.35446
1011.06
23.1544
0.599364
16.8751
5.56438
-286.672
-228.544
294.168
90.3542
-476.46
20.081
616.839
-67.8202
500.544
811.552
90.0984
381.654
875.112
141.37
338.53
917.583
41.0968
80.8137
934.534
1.33845
77.531
954.159
-38.3099
-43.8326
963.414
-47.318
-29.7798
978.986
-37.1667
-61.3918
981.512
-13.5851
-22.0562
975.803
15.0376
-8.61459
952.615
64.0699
45.7388
919.435
81.5931
69.4614
879.962
76.11
66.5396
846.233
63.3586
57.0009
821.44
54.6148
45.7052
801.352
46.301
40.6209
783.199
43.5249
23.8972
34.079
8.11543
-164.56
-901.49
587.739
89.5633
-732.878
-1360
506.151
-400.841
-451.02
697.585
-88.8445
99.1823
811.418
19.0534
140.198
843.189
10.463
57.2325
836.867
-9.12171
84.1788
832.903
-31.8329
22.327
818.43
-31.9499
15.61
806.22
-15.9736
-23.3328
787.441
4.46652
-21.1655
766.637
34.1647
-34.4177
744.569
76.173
-4.92394
728.511
90.4252
18.3991
714.698
85.9737
29.567
702.87
74.4484
28.3606
693.571
61.2168
24.8306
686.475
51.2417
18.048
683.058
47.4397
5.74541
37.7041
5.42046
568.605
-1557.62
1390.36
449.46
-706.059
223.019
416.979
-292.006
457.24
389.362
-30.0359
59.3063
496.836
-61.6932
79.7447
544.072
-40.5126
60.3678
623.19
-103.122
103.614
656.49
-65.3525
53.443
686.348
-68.9824
74.1377
695.566
-24.4541
50.6208
697.68
0.515009
67.8375
686.562
48.0455
41.7367
670.003
88.4905
42.381
649.411
107.902
36.2667
630.097
102.049
35.1565
617.933
82.9999
28.862
617.392
57.0064
23.7247
623.696
41.8344
18.7388
636.678
34.7033
3.89644
30.6962
6.02251
2568.74
-812.575
543.182
1866.89
-325.075
-34.574
1144.87
108.529
-67.2058
927.158
91.4377
49.1352
795.064
23.5193
69.584
752.521
-5.85041
42.0424
736.373
-103.512
60.8869
740.961
-72.1303
24.452
745.305
-78.4979
32.5151
755.171
-31.1518
13.7499
753.76
-0.303273
30.1509
732.343
73.5774
14.1299
696.032
123.552
31.6457
659.716
145.121
36.7603
628.589
132.522
33.7211
613.613
91.0412
27.3265
617.074
46.2721
29.242
618.285
36.0795
21.0372
616.351
35.0348
10.5182
31.9146
21.2447
-1075.47
-961.648
1386.61
-412.687
-223.106
-878.445
4.89896
-128.186
-301.984
152.607
-3.05931
3.74669
416.128
-168.97
-47.2514
443.804
-41.7536
-2.04231
534.387
-206.47
38.3655
547.861
-86.396
-8.14223
585.989
-122.16
4.05252
615.529
-57.4281
-18.7028
642.767
-23.9618
-20.9374
649.996
65.0658
-15.1619
646.129
132.274
6.48779
627.283
166.566
15.9102
611.741
144.4
16.3086
594.706
96.3151
49.2742
576.015
57.2961
71.2194
543.624
60.8997
56.6288
503.353
58.6955
50.0932
36.2236
49.1714
2086.93
858.065
1561.08
1725.09
390.395
-609.823
1217.61
317.194
-538.849
1021.51
204.035
-264.124
818.292
32.1552
-136.385
682.427
103.713
-90.2183
577.739
-7.77681
-60.6555
-46.0133
-6.65434
-44.1251
560.362
-23.2911
-22.9441
-23.5608
-17.8769
-16.4883
570.44
-31.7268
-8.68726
-46.4909
-24.0101
-39.7916
603.833
-30.4116
-21.6682
-26.1491
-21.7341
-17.6665
626.713
-13.1623
-42.0833
-18.2958
-2.92235
-11.7979
637.776
10.4769
-56.6808
7.33846
17.2214
15.1281
640.929
31.0655
-22.8867
28.5713
35.2953
31.5927
632.587
44.5363
24.7398
43.0928
45.664
43.7218
599.951
166.839
50.5193
528.739
149.94
99.5751
455.47
117.875
90.0628
403.025
110.123
38.9125
379.098
79.8649
24.1245
30.5
38.8865
903.683
1060.15
1185.08
876.881
481.013
-1063.4
712.084
511.464
-735.013
678.992
267.443
-327.42
587.047
140.037
-165.914
134.247
41.6001
-80.4097
143.613
122.942
131.314
37.2592
42.5827
41.9165
4.81597
117.873
12.9621
-9.18094
8.15796
-110.11
119.123
-33.402
-7.06072
7.92486
-135.684
137.153
-36.3099
-4.81069
0.645318
-141.37
143.675
-36.275
2.91302
4.20685
-151.859
152.116
-15.0386
-2.58668
15.3077
-155.184
156.404
6.63976
-12.6911
10.5952
-160.049
158.979
33.1013
-11.5608
0.131843
-160.136
158.75
47.8494
-2.05891
527.78
55.2687
63.2377
-156.177
-150.758
-140.266
-132.332
50.2312
54.3186
49.1143
455.671
213.888
77.8466
404.048
173.774
25.861
379.814
141.633
-19.3849
378.346
90.7793
-41.3555
30.0132
-4.70646
1867.48
1380.75
5700.66
1076.25
898.13
-41.9231
769.074
554.614
22.4702
716.622
311.181
-83.9088
181.712
164.446
-8.96678
171.358
167.828
158.39
12.9855
193.532
36.4297
-19.6347
3.41969
-5.7728
-52.4527
51.5837
7.41916
-4.19709
2.69036
-47.1555
8.77959
44.7984
-6.44699
-2.66579
0.957998
-43.4517
12.609
42.8939
-12.3542
-0.65503
-0.423587
-43.9337
10.7247
43.2672
-10.4949
0.860306
-1.76639
-41.857
5.80621
40.854
-5.33024
2.29348
0.88001
-39.7116
-1.19439
39.3325
1.42681
-0.733359
3.42883
-38.7659
-6.81198
38.5599
7.23398
-3.64484
2.75588
-38.9179
-11.2277
38.2958
11.9932
-2.89918
-38.2782
-8.75844
138.978
62.5699
9.59131
-37.3715
-36.2191
-35.2429
452.062
249.096
47.1542
-131.951
-126.311
-116.926
-111.535
432.523
206.257
-8.39859
425.297
159.158
-47.8651
421.537
105.922
-67.5372
49.1124
-40.6003
186.939
-617.301
7105.5
301.177
429.299
741.955
270.064
305.641
51.278
362.639
213.205
-14.6898
107.852
127.082
-77.2921
112.743
98.0924
102.038
21.6666
-31.1762
116.955
30.1007
-29.695
4.86292
-5.02894
-33.9043
35.9128
3.77959
-5.62213
3.34891
4.21264
-43.1853
44.4529
-5.38523
-3.44394
-0.838161
14.2409
-45.8006
46.0393
-14.5005
0.859041
0.276198
12.4586
-46.1652
46.0912
-12.5993
-0.0615905
-2.09475
4.39686
-43.9931
42.984
-3.64202
2.34899
0.519972
-2.1931
-40.0275
39.419
2.77961
-0.498004
2.85774
-7.23163
-37.956
37.7171
7.77905
-3.16629
3.28827
-11.4577
-36.9737
36.8161
11.8635
-3.5364
-35.578
2.6049
-63.0213
136.589
64.5203
-2.63473
-35.2716
-33.6965
-33.5117
513.288
251.05
-10.8616
-131.029
-133.656
-117.8
-122.181
534.38
197.21
-36.6362
567.861
129.429
-41.3528
592.19
86.5358
-33.8673
56.7102
-8.11029
3434.96
61.0439
4134.01
2119.48
656.373
575.851
1035.37
674.966
522.976
743.651
349.526
47.2972
169.826
176.962
57.1758
161.566
152.493
144.464
19.7896
-20.1379
181.515
14.2747
-25.6154
5.85074
2.59055
-49.6359
50.5929
-2.26017
-7.13808
5.12671
7.79561
-52.3181
52.0988
-7.36252
-5.34051
-3.94081
12.5947
-47.8787
45.7254
-10.8265
4.32598
-1.98739
12.4964
-42.7191
42.2772
-12.2551
2.18798
-2.68639
2.30366
-40.5642
40.206
-2.26927
3.01017
-1.12388
-4.24541
-39.9148
40.0475
4.49677
0.739809
3.14875
-9.67029
-39.9682
39.5773
10.4292
-3.51682
2.81158
-13.4502
-38.0214
37.5537
14.0678
-2.96136
-36.4737
5.43781
-66.2958
143.71
67.4943
-6.09784
-37.1189
-34.988
-35.6674
605.83
223.612
-25.6217
-143.059
-151.28
-132.806
-141.229
654.381
157.486
-30.8865
700.522
81.8626
-16.2568
735.438
51.0921
-4.46563
44.9029
25.2051
-619.367
-525.017
2571.65
-339.097
186.473
-373.782
158.246
304.757
-373.777
331.433
206.445
-45.955
119.119
62.9064
61.6841
125.308
106.068
113.444
-6.79939
2.18221
136.923
-12.971
-0.215721
-0.613997
6.16995
-38.4078
41.2421
-8.43839
0.0481247
-0.156038
9.51039
-49.3218
52.245
-12.4515
0.17395
-9.78305
7.33331
-57.734
56.6561
-7.04871
10.5764
-7.28408
7.97342
-41.7932
38.1419
-5.08209
8.04403
0.656185
0.89082
-33.4292
33.3557
-0.597419
-0.87608
2.03941
-4.63928
-34.0162
34.6285
4.45037
-2.46284
2.03213
-10.7653
-36.6649
37.7206
10.1177
-2.44032
2.19212
-15.3532
-39.889
40.4523
15.0363
-2.43854
-40.8245
3.71071
-67.6712
168.849
59.8921
-3.51663
-41.1234
-39.4851
-39.8313
701.29
174.963
17.5536
-168.096
-174.323
-157.393
-161.707
720.462
133.532
34.1646
726.71
72.6527
32.6974
724.624
51.8148
14.1455
47.2789
14.89
655.047
-928.1
422.169
579.551
55.7777
-82.8241
506.152
225.26
103.706
619.042
117.679
-105.144
580.881
17.7776
125.544
150.107
-176.656
15.0537
31.6763
47.7193
32.4832
49.7486
150.959
135.594
137.701
9.6502
-3.74861
161.424
-43.2525
1.23344
7.59997
9.59587
7.60509
11.6724
-16.185
-134.79
113.63
-23.985
17.8543
10.7553
11.1338
9.9148
6.31466
-16.6776
-98.095
100.397
-21.2555
20.0857
1.47434
6.17327
1.58328
2.95149
-12.0622
-80.6139
83.025
-7.95204
12.7394
-0.321407
2.77038
-0.536832
2.52082
0.464491
-81.8858
93.9616
-12.1383
-1.90809
-1.38271
2.1117
-1.74372
-1.87442
8.14311
-88.7089
100.737
5.72996
-10.6477
-5.44681
-2.34076
-5.59185
-6.34458
9.2903
-105.371
123.387
12.7908
-10.214
-8.48798
-6.53369
-8.51687
-11.3574
1.70585
-127.125
143.336
30.3197
-1.44726
-12.4026
-11.042
-11.9866
588.933
130.345
50.5171
-53.6825
-56.9154
-46.6905
-49.0489
-145.414
-128.984
-133.77
-120.207
624.046
122.088
77.2409
630.332
118.006
78.1087
622.749
75.5674
51.3046
618.2
52.3486
25.5025
42.6557
26.4728
92.5397
-1244.65
-1008.24
20.2948
-140.706
-53.813
353.342
-108.841
-72.187
541.704
-111.221
20.8185
566.594
-60.9297
86.0846
497.909
-122.947
-8.17935
396.353
69.2386
16.9295
30.6365
-18.2925
26.5779
-24.4487
342.871
-13.4961
42.6166
13.5486
16.4118
13.3247
19.5099
314.432
53.1297
54.4413
10.0053
-26.4473
9.19061
-26.7244
297.312
-12.4652
47.8564
7.61288
4.4618
7.35429
3.9095
293.631
32.1209
33.7604
8.06186
-21.2961
6.22577
-22.1912
308.898
12.0451
27.4259
0.176963
-14.2768
-0.559954
-14.6008
338.306
41.6869
21.9554
-7.99218
-29.0086
-8.68492
-28.6658
385.184
43.0432
33.5639
-20.8545
-30.1485
-18.8002
-27.7766
435.163
71.8244
49.132
476.769
73.0796
42.3632
512.508
76.6109
36.4784
535.072
47.0409
33.409
559.983
23.7352
36.5935
19.0837
57.4241
1670.26
-1146.28
1676.23
1019.27
-80.455
13.0461
645.151
8.30988
118.312
556.953
-64.3641
-102.312
414.449
7.17169
104.273
338.34
-45.0657
-52.0017
322.943
63.9508
46.0338
297.571
2.22516
7.23022
293.348
48.9715
35.1665
282.79
-5.42548
18.8502
290.623
17.8072
26.7929
305.452
-4.88035
15.8874
327.541
16.5905
21.0221
352.307
16.7756
16.5791
383.573
34.9435
21.8297
423.538
29.5372
20.6782
463.32
32.0635
25.2684
488.223
17.9927
31.9654
503.999
7.43594
38.6909
7.72092
42.7622
1219.37
283.02
1870.33
1028.23
-217.395
745.138
643.118
75.869
772.361
566.813
-48.2787
283.003
425.46
104.254
280.624
363.855
10.5423
78.9923
321.751
95.2287
46.1059
302.549
14.9179
2.15776
306.426
39.3646
19.2905
309.885
-11.0534
1.34366
325.534
-4.75654
14.962
342.017
-24.4638
4.12245
357.565
-3.41545
12.5384
373.934
0.346715
3.71868
390.859
13.6739
8.98334
404.675
14.9329
0.136452
415.755
20.3051
-0.570894
418.21
17.948
-7.83497
415.792
14.7265
-13.9977
10.3572
-16.6413
-945.592
108.406
-1692.18
-242.854
-311.501
-294.293
-91.079
71.7868
-431.596
-78.0876
-51.5511
64.1475
45.3847
20.6755
-14.9403
37.6095
29.8273
6.11003
140.201
11.1877
-38.8643
160.346
1.87579
-34.0311
227.965
-18.0966
-39.5062
265.07
-43.1414
-42.951
312.027
-54.7976
-22.1677
342.132
-55.3979
-15.8259
367.773
-34.9641
0.443756
382.925
-16.3472
-1.37987
391.214
6.15188
0.516205
396.48
13.5988
-5.32822
398.682
22.0122
-13.9733
397.497
23.8342
-22.009
396.227
22.2992
-30.1136
15.3752
-28.5463
-293.656
-161.324
-2662.01
-173.451
-167.941
267.769
241.413
-82.9128
-694.195
249.411
-9.41278
-93.6118
382.97
-42.8803
-41.9222
403.236
28.7549
-1.17361
404.91
18.3056
4.50199
407.089
17.3468
-48.3385
414.918
-14.1101
-42.9482
427.937
-41.0605
-58.0652
448.765
-70.4935
-43.1915
469.828
-72.4307
-45.7474
487.14
-54.208
-30.0256
501.009
-31.549
-28.8699
509.303
-5.71798
-11.4219
512.33
11.6484
-5.74906
513.928
25.0519
4.84929
511.736
31.9689
5.668
510.562
31.1402
-4.8556
24.4543
2.88356
-881.933
-1054.24
-3507.07
-364.948
-108.799
293.644
422.363
-222.584
-967.762
463.162
60.224
-68.144
542.196
0.788339
-139.781
524.099
99.1554
-57.7392
506.458
87.0209
-25.8988
493.021
111.052
-95.3267
487.454
75.7339
-125.016
487.994
50.8047
-172.76
507.974
-40.1812
-121.677
526.122
-64.8846
-95.1452
532.38
-48.8975
-71.1034
537.139
-28.7612
-62.3769
542.935
-8.62273
-44.8336
551.515
3.12617
-31.9333
565.015
12.509
-15.7841
578.616
19.4172
0.631231
592.614
19.8597
7.81444
15.6681
25.2369
2655.11
3506.77
2058.11
566.038
1358.16
115.381
1277.3
-117.103
1211.94
-55.8143
1258.28
40.7503
1270.66
187.892
1315.08
215.148
1319.03
231.682
1297.05
220.827
1170.61
248.569
1029.83
225.616
934.767
143.561
878.445
93.0821
844.308
77.9227
820.94
74.8999
806.732
78.197
801.048
76.6765
799.977
69.1024
62.9954
1536.69
924.342
-1299.09
1767.8
373.963
1815.28
1652.41
169.528
112.503
1535.14
14.9751
-113.755
1302.82
87.5305
-159.657
1190.89
23.5083
-154.168
1119.45
14.5825
-34.2712
1131.64
-6.48527
-9.04673
1140.88
1.09489
48.9195
1146.83
18.5331
51.0522
1123.49
41.5731
81.0335
1090.86
58.3075
88.3795
1046.17
60.1802
109.454
1019.47
50.28
97.2987
1007.22
37.7397
72.0873
995.503
22.9199
32.8294
980.032
18.679
15.4113
960.265
17.2882
10.8332
934.854
20.2561
5.75519
19.2349
7.28916
-699.791
444.435
-1937.11
-100.6
-207.63
2.4833
461.693
-66.2821
174.061
579.146
40.7846
238.392
695.391
97.6851
212.129
734.091
39.1165
26.5068
753.985
17.9132
54.3063
761.631
-2.9866
-54.9769
764.065
-0.76022
-30.3591
764.379
12.7729
-55.9461
757.073
37.5856
-10.7618
743.136
62.4831
1.1465
729.507
75.899
43.6487
718.721
76.237
54.2905
705.091
66.6805
51.2293
692.225
54.4292
38.3571
681.258
46.2364
29.1147
672.948
40.7395
25.4799
665.303
40.162
11.6361
30.9858
8.00804
276.121
-529.13
86.6242
217.428
-508.788
-1000.15
413.925
-322.423
-391.375
552.449
-60.0209
61.4641
657.871
35.5955
96.865
684.585
29.4827
40.1525
684.436
24.7733
77.4669
678.133
13.5913
12.0525
662.5
14.2685
16.2139
643.227
29.1859
-20.4725
621.119
49.8693
-11.3414
598.049
74.3804
-23.2442
581.742
84.72
2.56202
574.391
86.8878
15.0989
570.408
77.5724
22.6578
569.182
64.3918
19.6236
568.864
53.6983
17.6868
567.988
46.3275
13.3364
568.735
43.1097
2.05034
31.2402
12.0427
152.795
-1089.57
-762.101
396.547
-279.286
-250.236
378.721
-176.645
329.288
321.708
4.11523
52.1832
391.554
-12.2089
57.7025
418.352
13.2871
49.7657
498.376
-28.7805
77.1432
516.239
9.60717
39.5646
540.294
4.67119
59.6797
538.702
45.7014
35.6975
539.921
66.2784
50.2089
527.879
100.738
27.4206
518.234
104.288
32.4571
510.06
105.985
25.3441
505.262
92.4836
25.0434
505.93
71.8606
20.7257
513.626
51.1394
18.5874
523.387
41.4975
13.8079
536.008
34.3116
0.0733503
24.4272
13.9288
1331.87
-200.669
356.397
1263.92
-22.3994
-223.506
968.462
174.494
-122.889
819.506
135.605
66.6014
677.608
90.3526
108.919
631.173
63.2641
38.5008
614.477
-16.4415
65.2435
609.998
16.8839
21.6543
604.643
11.5625
30.9794
593.606
59.7733
10.7147
575.962
88.8698
25.2036
549.101
133.661
8.06838
523.385
138.586
23.0642
506.425
136.246
23.4588
496.631
112.099
23.8997
499.627
75.232
20.9588
511.717
46.8445
21.4473
517.58
41.9025
14.7693
521.48
35.7368
5.19309
26.5957
28.1646
-323.996
-1503.5
-1273.86
-235.246
-404.223
-585.372
24.736
-103.582
-283.89
96.3109
50.3291
17.4477
289.652
-77.1859
-73.0538
297.753
34.5012
18.6192
414.788
-127.902
32.7913
420.816
6.82527
-4.1116
461.118
-30.3175
5.63007
475.966
45.0764
-18.853
493.424
59.3968
-8.92239
488.851
132.615
-9.54348
483.304
146.859
3.76169
473.561
152.412
9.4876
468.47
119.468
14.0303
472.012
82.7938
38.1707
476.32
64.2005
49.5546
466.354
69.0259
39.4721
449.528
60.8144
41.8414
37.3577
59.0301
1328.62
-388.925
-1194.7
1513.69
-58.2311
-1140.88
1140.65
242.391
-511.781
921.668
209.116
-203.933
685.262
88.6326
-65.7973
534.728
152.305
-57.489
441.409
1.09571
-29.4796
-35.9286
2.03502
-32.9623
426.431
-2.6233
-6.43189
-2.53299
4.7415
5.70567
443.966
-9.15305
3.91925
-27.0871
-2.21477
-22.0034
469.854
-4.22851
-4.33114
-2.88984
4.8406
4.12866
481.422
13.918
-29.9678
-0.361062
18.7314
3.42469
477.923
25.3293
-33.0978
27.7022
28.6248
30.8742
470.827
39.4329
-15.7653
34.2228
40.0573
33.1209
463.207
44.4509
16.0575
41.1288
43.2171
39.9179
443.507
148.691
40.9958
418.604
136.33
70.9419
394.695
117.461
60.711
364.046
111.517
27.07
350.121
80.9848
17.8798
38.5849
46.2985
779.61
-1302.5
-2126.07
854.245
-223.605
-972.664
700.869
310.605
-649.849
615.8
214.266
-247.501
472.637
158.695
-92.8124
97.7238
48.9857
-53.4099
105.398
87.1577
93.2082
52.6167
52.8513
60.001
9.85702
80.4999
20.3551
-11.8924
8.30643
-71.8761
83.5391
-17.6396
-4.95315
5.46057
-99.608
101.64
-13.4826
-3.1628
-1.98753
-105.117
110.301
-12.6108
5.18636
4.14948
-118.902
119.667
10.7142
-1.7112
11.2935
-121.116
120.751
22.8145
-8.41372
12.6208
-122.784
118.225
43.0137
-11.6423
3.24286
-118.237
114.427
48.9915
-3.9737
372.955
51.8036
46.7219
-110.202
-103.321
-95.8826
-87.6958
45.3484
49.391
42.81
353.794
186.183
47.1555
332.632
154.938
9.5455
314.128
127.122
-16.4857
309.765
76.1381
-32.1452
28.7163
10.1354
945.816
516.385
125.66
123.479
383.981
172.827
563.049
370.3
-476.795
509.272
266.39
-82.256
136.17
168.232
-10.7919
128.187
122.206
114.997
16.723
143.143
41.6455
-16.3563
2.50906
-7.62898
-38.6436
37.0476
9.03528
-2.31944
2.69893
-32.5229
6.27653
31.0876
-5.18935
-2.35079
0.514726
-31.3308
7.25263
31.1823
-7.49085
-0.128011
-1.12368
-31.4854
4.8168
30.9387
-4.60326
1.45687
-1.76597
-30.8595
-1.04211
30.9595
0.556379
2.15172
0.988553
-30.5955
-4.89396
30.324
5.15377
-0.976917
4.0933
-29.7211
-9.65929
29.1287
10.0441
-3.88572
2.97934
-28.5771
-12.1276
27.586
13.0039
-2.86455
-26.7895
-9.65386
96.3456
58.7276
8.64239
-26.0784
-25.0673
-24.3229
350.995
202.651
28.7829
-94.4928
-91.6371
-82.8736
-80.0881
349.132
160.048
-11.6458
343.518
121.982
-37.1105
330.996
74.2302
-53.1077
29.5234
-19.7691
-431.678
-494.339
3378.78
-206.213
250.606
649.866
123.977
190.094
-98.7062
227.835
188.874
-41.0325
74.2006
110.616
-69.0209
76.8762
62.2884
63.8147
28.164
-35.1458
81.8614
28.5932
-29.2722
3.97426
-5.80968
-24.8897
26.8526
3.71216
-3.8397
2.7434
4.59117
-32.1303
32.6836
-5.56444
-2.32345
-0.894894
9.42936
-33.5408
33.8468
-9.72544
0.885002
-0.759117
5.61982
-34.3256
34.1119
-5.61174
0.964745
-32.5958
-2.5693
-0.137753
32.231
0.573264
2.4986
-31.0949
0.732531
-5.05311
5.50007
-0.776698
30.6921
3.46994
-9.35917
-29.3296
28.9804
9.65714
-3.41866
3.50855
-12.374
-27.6579
27.2749