/*--------------------------------*- C++ -*----------------------------------*\
  =========                 |
  \\      /  F ield         | OpenFOAM: The Open Source CFD Toolbox
   \\    /   O peration     | Website:  https://openfoam.org
    \\  /    A nd           | Version:  10
     \\/     M anipulation  |
\*---------------------------------------------------------------------------*/
FoamFile
{
    format      ascii;
    class       surfaceScalarField;
    location    "2.3";
    object      phi_0;
}
// * * * * * * * * * * * * * * * * * * * * * * * * * * * * * * * * * * * * * //

dimensions      [0 3 -1 0 0 0 0];

internalField   nonuniform List<scalar> 
38556
(
2683.92
-2350.39
1370.26
2693.3
-1546.05
1536.66
1899.06
316.659
477.582
1475.72
549.261
-125.924
1300.88
444.499
-269.655
1341.49
173.825
-214.433
1377.35
60.6927
-96.5508
1444.84
-69.7867
2.28756
1502.46
-112.872
55.2592
1546.82
-130.682
86.317
1560.11
-116.948
103.66
1555.56
-100.613
105.166
1499.67
-38.1516
94.0416
1394.56
29.1379
75.9682
1270.91
67.2771
56.3789
1170.55
76.0937
24.2601
1088.56
75.3162
6.67983
1027.59
65.9797
-5.01329
992.223
47.0916
-11.7239
20.8121
-3.64856
1084
-1984.31
-2003.4
1138.86
-1260.56
-340.354
1071.2
-113.016
497.34
1040.21
187.866
392.388
980.437
199.207
305.062
1024.49
37.0749
92.701
1046.79
-35.3508
73.7379
1087.52
-100.955
-9.55827
1111.25
-129.148
-7.46083
1140.4
-133.413
-26.4119
1149.15
-115.252
-10.4478
1145.35
-90.7952
-6.02289
1087.4
-14.6937
34.4988
1012.93
52.818
50.7876
963.131
71.1523
45.9237
924.896
68.5695
45.7589
892.694
66.0523
41.4661
864.905
56.8684
36.9007
840.726
47.3499
23.9205
33.0154
3.64501
-589.829
-99.8031
-896.09
-123.665
-268.585
-1458.14
528.369
-398.533
-366.517
759.616
-154.625
111.244
892.45
-56.4239
122.798
939.716
-69.0114
58.8198
937.284
-98.8601
65.9417
940.494
-130.433
26.2674
931.733
-136.382
15.9939
929.861
-118.064
-13.4768
921.681
-85.0921
-21.9806
910.156
-44.507
-34.763
881.694
27.0304
-13.2621
849.709
73.1324
11.6698
815.895
79.9943
24.972
784.644
72.9893
26.8312
766.323
63.4637
20.9096
756.292
52.9904
13.9091
752.415
47.3743
3.85283
39.5948
-4.75114
1305.05
-599.736
381.43
1181.24
-226.298
81.5212
538.925
-304.28
548.066
485.319
-187.375
86.3552
535.505
-216.56
109.951
600.207
-196.382
62.6681
677.229
-262.494
86.6117
726.564
-235.886
56.1186
765.907
-242.306
66.5811
792.819
-198.066
53.0903
804.12
-163.397
67.0031
800.568
-87.4043
46.4497
785.214
1.39328
40.9904
749.655
75.2604
33.4315
705.381
93.3505
30.9175
669.507
84.8061
24.0578
660.056
55.4575
17.4568
664.793
34.9085
13.3453
682.937
27.6806
1.54933
31.9533
-6.14395
215.564
-1224.34
1119.29
755.524
-411.646
-354.613
926.468
-82.58
-392.643
914.993
-123.659
-52.2399
855.295
-174.666
17.8033
827.059
-206.191
38.0454
813.279
-293.071
44.3569
822.95
-270.792
25.2336
833.241
-280.704
28.1083
856.899
-240.497
18.7735
879.511
-215.743
29.734
894.09
-123.18
21.1974
861.818
0.855566
32.8097
790.005
109.114
37.9597
720.465
130.95
31.94
677.894
108.198
19.179
666.686
46.2241
20.4421
659.733
27.7897
14.0724
652.659
28.7467
6.00701
31.7782
5.07565
-640.342
-1994.51
2607.65
-217.512
-648.992
-185.483
295.898
-457.186
-138.804
367.653
-270.429
75.0146
556.183
-398.951
35.7542
608.568
-254.095
-4.48143
666.791
-372.798
21.5051
679.191
-276.174
-7.01785
707.156
-306.576
-2.09386
737.853
-255.062
-16.1318
770.469
-231.672
-16.6875
805.155
-142.889
-14.9777
804.37
-9.77081
11.4116
759.049
135.89
18.545
727.891
150.045
12.0632
682.65
116.55
36.8887
612.738
54.4677
61.6685
542.517
52.172
45.839
488.537
53.1614
29.5653
35.9013
19.1558
1514.56
-297.129
1839.77
1196.87
195.296
-526.601
1170.89
196.343
-627.546
1104.75
39.9382
-244.237
961.755
-122.915
-133.036
859.929
-76.4011
-75.8678
748.176
-31.849
-62.7939
-60.8073
-37.954
-67.6411
717.548
-52.7262
-34.6269
-55.1673
-52.7985
-50.2263
710.908
-68.0736
-19.9622
-79.6585
-60.5993
-71.6425
733.097
-70.4521
-27.2132
-65.4393
-60.8654
-53.2807
752.079
-60.0039
-44.2844
-58.1653
-45.0969
-43.1038
787.961
-41.2186
-62.6268
-32.0628
-25.0047
-17.8572
799.3
-7.21409
-22.1944
-6.19819
8.58466
5.91204
772.809
27.0711
28.1294
33.8498
35.0639
38.2666
719.043
163.441
40.3712
596.227
158.376
80.9898
463.962
112.197
74.5362
387.265
96.9153
31.9532
356.202
67.0102
17.214
23.1773
17.5907
-190.753
879.426
-249.165
451.501
819.584
-1266.54
679.387
753.488
-785.031
747.594
293.057
-321.325
744.556
22.2818
-142.159
175.5
-2.64424
-55.2292
185.003
171.527
178.427
1.98339
5.48708
8.10085
156.256
-7.98196
-4.62307
-147.742
153.105
-53.5446
-4.54403
-173.413
178.258
-68.7678
-4.15035
-183.27
180.424
-70.2621
2.65576
-184.038
179.64
-57.9147
2.3081
-184.064
183.54
-36.5127
-4.18128
-191.633
192.511
-4.80638
-3.28482
-196.761
193.802
26.2696
3.76122
640.676
47.6577
54.9579
-190.788
-186.553
-180.163
-170.128
48.3749
50.6384
48.7684
506.913
223.927
68.2114
417.043
174.426
27.6412
391.328
137.559
-14.9292
400.363
93.2285
-35.2532
29.6907
-16.6634
150.208
1093.98
3489.54
453.568
982.981
-466.756
862.386
604.009
-259.34
921.546
295.717
-61.8203
216.99
94.0749
-25.1317
209.267
228.367
220.261
227.116
-3.49316
-9.27706
2.04189
-63.1722
63.4842
-0.67926
-1.67465
-63.1343
12.885
60.0006
-8.30792
-1.44334
-56.0952
19.0376
54.8209
-17.4767
-0.286559
-56.7495
19.3646
56.7851
-19.8007
0.400434
-56.5847
15.2288
54.2618
-13.7499
0.843908
-49.38
9.49416
47.6395
-8.30735
0.553671
-47.1012
1.55791
46.7808
-0.469993
-0.767461
-48.2867
-4.82856
48.263
5.21965
-0.367442
-48.7847
175.481
53.3741
8.70469
-48.1284
-47.2484
-45.7405
515.164
272.954
46.9884
-160.783
-155.572
-153.314
-141.51
454.58
232.733
2.27671
444.099
188.285
-40.2445
454.155
142.248
-59.0752
77.9306
-49.1467
-70.7692
-383.735
3191.76
-68.9029
593.719
387.396
428.291
374.763
-267.948
527.426
238.995
-42.4136
141.837
99.8128
-80.0148
154.761
146.507
158.598
-8.26521
154.49
12.4233
-16.8117
-1.29995
-42.3613
44.2572
1.17667
-1.77271
3.3772
-53.4941
56.5709
-4.77852
-1.67555
18.6718
-57.4841
56.9742
-18.455
0.293083
22.3683
-56.5696
56.7622
-22.1352
-0.425611
12.5417
-56.438
54.3635
-11.3002
0.833005
4.85848
-48.2947
47.2216
-3.56744
-0.21795
-0.933555
-45.6219
45.4158
2.28598
-1.14634
-5.83359
-45.6147
45.8249
6.98073
-1.35737
-46.0383
-54.6995
175.18
58.6469
-2.06148
-45.4679
-43.1121
-42.4473
590.345
299.531
0.218078
-162.888
-161.249
-145.942
-147.061
576.199
272.936
-26.0571
606.696
197.431
-39.6433
654.072
126.564
-31.6921
79.6374
-17.8084
1214.04
866.128
2150.89
1093.98
919.014
-205.242
952.541
609.363
-93.1559
949.13
294.951
-52.5452
230.133
145.571
-3.26411
224.008
227.875
224.62
-9.13998
251.941
-2.42567
-10.2421
3.89499
-67.564
69.7194
-3.39025
-2.66016
7.78582
-73.9839
73.9265
-5.56699
-2.16143
12.9455
-60.3091
54.5296
-9.21782
2.05188
21.8158
-51.9146
51.8721
-21.8741
0.100806
9.39066
-48.8979
47.8377
-9.1976
0.867161
1.93476
-43.7572
43.0092
-1.97271
0.785932
-5.9394
-43.7615
44.1528
6.52476
-0.976565
-10.3719
-44.7889
44.8591
11.5506
-1.24884
-44.3823
-64.4202
172.003
70.726
-5.09003
-44.4577
-42.0031
-42.3754
663.472
302.073
-15.1927
-167.039
-170.997
-152.532
-160.254
695.531
263.454
-22.5768
758.238
153.907
-19.1838
823.631
68.6247
-7.45383
39.2727
10.3381
-1466.22
841.235
2163.13
-389.536
324.416
-482.083
350.773
89.5424
-220.489
596.154
26.8725
22.6976
172.66
-41.692
72.8622
174.919
177.599
185.377
11.4988
182.281
-19.1787
-1.94057
3.01546
-48.3529
50.6027
-4.30125
-0.964064
1.01147
-62.263
67.7661
-4.80852
-1.70605
4.13676
-75.2735
72.7975
-5.93984
4.2791
13.7617
-54.8718
48.6864
-8.15639
0.58014
6.4422
-39.0761
38.4161
-5.52801
-0.254226
1.85301
-39.1113
39.3714
-1.64296
-0.470135
-5.51878
-40.3558
41.4054
4.97157
-0.502377
-13.8046
-44.0321
44.8346
13.7249
-0.722735
-45.9587
-74.9011
187.652
72.4319
-3.79454
-46.1201
-44.5074
-44.802
777.915
256.464
9.68478
-186.446
-194.149
-176.117
-185.279
795.186
216.55
29.6334
806.593
114.408
28.0931
811.594
53.7242
9.89908
37.0323
-1.31662
211.25
648.556
547.179
451.887
134.221
-50.4418
543.339
10.5904
-12.4992
704.348
-49.1003
-85.0367
743.789
-101.317
20.1834
199.043
-219.294
-3.92304
35.4598
51.643
32.617
49.6259
202.227
195.746
200.646
10.9974
213.289
-55.928
0.764038
9.43618
11.0223
9.46181
11.5714
-196.052
162.185
-25.3152
10.2219
11.4161
12.9332
13.0392
4.1928
-130.201
126.89
-18.8358
9.21019
1.04049
5.57348
2.12938
3.04088
-106.917
100.019
-11.8332
7.27826
2.64711
3.13257
2.63274
4.94288
-94.6134
101.158
-22.4128
-0.414347
3.73603
4.49351
3.11047
2.0008
-94.466
105.026
-5.84398
-4.5541
-1.31251
1.24333
-2.0931
-2.64388
-110.537
133.293
1.74082
-6.22768
-5.34614
-4.05495
-6.22336
-11.2549
-142.982
160.99
31.9909
-1.59632
-12.5572
-11.7437
-12.8468
679.313
161.129
36.7637
-69.1429
-73.3228
-64.7659
-65.8572
-166.018
-143.023
-156.129
-138.948
710.49
164.904
60.3842
702.252
156.213
68.5738
678.733
93.4816
44.4453
665.799
48.8052
17.8536
29.1309
7.02125
486.456
531.186
756.358
545.735
150.174
-75.2324
675.15
-13.9859
-104.838
795.866
-152.262
-17.555
778.881
-120.738
36.4069
714
-133.185
-21.2287
599.798
12.3297
2.70307
43.478
8.09952
40.913
6.67807
545.858
-43.7883
38.3698
8.59774
16.8823
11.6173
22.2616
489.358
13.8263
47.1142
9.22313
-11.7396
11.175
-13.0988
438.926
-34.8036
38.6011
7.2519
17.0619
6.97654
15.3438
401.494
1.45854
28.5791
13.2514
-5.98037
10.3884
-10.2648
390.74
-8.46352
21.5812
4.50065
-2.89896
1.81184
-5.77757
399.549
24.7942
16.1508
-1.85237
-19.6006
-5.69657
-22.6044
435.254
36.0269
25.3076
-22.1233
-25.5361
-23.5861
-25.7936
483.458
72.5805
40.3449
529.678
83.6939
34.9895
569.328
86.5354
30.0269
589.452
48.1711
25.1869
604.36
4.3173
29.5798
-17.1099
34.9138
1056.88
2110.76
501.053
976.482
691.732
-461.161
893.423
174.311
-105.239
881.215
4.47671
-144.531
682.974
45.536
31.9676
590.86
-10.0535
-31.0172
526.066
60.4678
16.6556
470.313
6.62062
5.34451
428.458
36.0955
19.5853
394.882
-16.8575
15.63
382.423
-1.50238
15.4203
384.038
-20.2431
10.1643
397.796
-3.01734
14.0538
416.86
2.6718
14.2909
447.362
25.5799
16.499
490.285
23.588
17.1824
530.52
26.7571
19.5435
547.135
5.72961
25.8273
537.032
-18.2737
32.6932
-32.9296
23.1207
1991.47
1300.88
1927.22
1823.79
224.633
634.78
1334.26
217.308
446.534
1072.24
34.3664
232.131
717.815
174.282
225.674
550.769
81.3281
75.665
467.231
116.282
27.7232
432.916
40.9345
0.0011882
421.702
42.1883
5.12156
415.278
-7.27876
-3.15462
423.923
-13.4795
3.33213
434.597
-30.9177
0.000412016
447.927
-19.8019
3.45373
462.191
-12.7566
1.16431
479.395
4.58401
3.79185
493.665
10.7507
-1.43236
503.692
19.6896
-2.95935
500.022
19.3076
-9.90798
477.884
17.8706
-14.0065
14.4565
-32.7164
74.7134
1207.92
-26.9692
-38.1729
-58.013
395.532
198.314
172.936
-192.115
155.281
32.0961
45.3034
188.671
79.9775
60.9138
185.564
82.3565
2.07945
235.433
67.2329
-0.820205
253.194
46.8575
-23.6838
304.956
24.6178
-34.1912
340.065
-5.99398
-36.394
387.719
-33.45
-27.684
422.821
-49.6772
-16.3423
447.569
-40.1646
-4.38533
462.286
-25.3147
-2.15954
471.624
-3.87059
-0.883354
476.941
7.88368
-2.4496
480.612
27.9579
-11.9393
479.615
40.9601
-20.6555
473.538
52.1482
-28.2004
57.5096
-40.1489
817.309
2128.57
-4459.15
-177.17
452.388
484.078
393.488
37.3929
-435.115
436.71
20.3029
-31.4291
500.142
1.94929
14.5959
502.177
61.1818
19.1404
484.728
75.9087
8.77321
478.047
86.5273
-32.9897
485.661
53.4117
-36.4073
505.198
16.3995
-41.9304
536.736
-25.7119
-39.2761
574.035
-46.0164
-40.9605
606.03
-40.7252
-31.4344
634.348
-24.8484
-28.7842
650.234
-4.89906
-14.8572
652.365
11.1832
-5.43094
635.66
36.3206
8.34281
612.329
55.2953
8.99513
599.088
65.9595
-0.570235
66.0808
-4.77041
726.086
-56.1233
-2794.17
-45.3092
451.104
772.68
552.094
-235.355
-324.655
562.958
-32.0789
41.5181
631.433
-42.6192
-23.9069
614.23
82.8067
-4.42171
554.851
114.537
20.7506
502.662
153.468
-14.7521
466.398
133.231
-43.5553
453.361
112.326
-82.8895
483.361
14.9754
-70.6875
526.359
-20.8078
-68.2061
556.707
-11.7017
-59.3721
580.499
5.63382
-54.2736
597.93
20.6469
-42.978
613.671
28.1136
-32.6715
628.094
37.8455
-15.9477
637.01
46.7552
-0.375869
644.64
50.1238
8.20628
45.334
14.6502
592.28
1668.84
879.427
163.956
1008.82
-364.744
1227.92
-251.181
1306.9
-121.598
1397.79
-8.08591
1399.26
113.067
1403.39
149.333
1376.88
159.746
1340.29
148.911
1193.63
161.643
1024.27
148.544
917.384
95.1887
859.487
63.5299
828.788
51.3463
809.016
47.8859
796.343
50.5189
792.713
50.3853
795.857
46.9792
40.9942
2351.54
-643.74
-3916.22
1352.51
203.675
2332.02
1438.23
309.542
82.3233
1341.89
210.148
-239.738
1208.17
174.798
-310.733
1188.38
42.3886
-237.03
1186.32
-5.3686
-89.1275
1255.14
-66.9979
0.47408
1322.1
-71.87
60.164
1394.48
-62.9272
76.8688
1426.16
-27.2827
99.2536
1413.03
3.89165
114.413
1332.12
50.3462
124.598
1223.01
65.0831
119.998
1129.89
54.232
95.2691
1073.64
38.225
42.2807
1031.57
31.463
17.2877
993.35
26.5902
6.61889
961.746
21.2962
-1.41559
14.5183
0.169814
-750.976
-817.331
-136.835
-153.171
-713.954
-20.5306
443.051
-192.149
402.809
666.021
8.28741
371.278
750.067
78.2401
317.574
809.328
-5.22769
81.0564
839.991
-31.2747
68.9805
869.593
-63.1827
-42.9753
888.163
-66.133
-31.7677
909.671
-50.6635
-60.1835
916.996
-23.6241
-21.4317
914.065
6.82264
-6.02262
893.824
58.6109
46.475
863.293
77.0097
69.3924
826.298
71.901
65.2494
794.724
59.6665
55.8915
772.119
51.3267
44.207
754.553
43.3064
37.7511
738.432
41.0617
20.2761
31.8349
-2.01056
-207.153
-928.656
-50.0834
-71.0092
-947.361
-1360.88
360.877
-533.523
-457.029
577.82
-195.7
98.2878
703.076
-56.4346
132.217
745.006
-48.8536
60.5152
753.049
-55.1801
81.8044
757.316
-66.2889
25.1065
750.734
-58.4609
14.904
743.265
-35.869
-20.8018
729.247
-12.0608
-19.5261
710.75
21.596
-31.04
691.755
67.5721
-3.22856
677.896
83.707
18.8321
666.06
80.4486
28.2593
655.651
69.7961
27.1118
647.78
57.2199
22.8875
642.695
47.82
14.4799
641.179
44.9437
1.48689
36.0316
-7.71332
397.417
-1943.55
260.326
307.697
-918.824
142.705
307.628
-423.733
438.344
298.442
-148.555
48.3957
414.302
-149.554
87.2106
471.771
-112.634
68.9799
555.187
-155.982
103.997
592.694
-106.609
58.9315
626.972
-100.307
74.1498
639.481
-49.326
54.0383
644.619
-19.9892
69.794
635.122
31.8614
45.6814
621.553
77.7854
44.346
602.481
99.535
36.6757
584.883
95.4065
33.5571
574.068
77.5812
27.0884
574.596
52.8394
21.309
582.247
38.7758
14.7388
596.698
32.789
-0.747968
29.2764
-8.15205
2437.18
-1119.7
767.037
1691.77
-548.506
20.4735
1023.41
-61.6901
-86.3239
832.625
-54.4606
44.4489
717.409
-78.8681
62.3337
681.118
-85.6446
47.3469
674.773
-166.597
61.3175
682.469
-119.282
30.2105
690.879
-115.173
34.564
702.933
-60.1887
17.5819
703.433
-23.9636
33.2087
682.888
55.0142
18.59
648.813
110.678
33.9922
613.842
135.068
37.3987
584.443
124.649
32.0961
570.717
84.9027
25.5837
574.883
42.226
26.8899
577.491
33.2671
16.9728
577.709
33.1091
5.46867
29.4513
6.43914
-977.829
-786.991
1576.92
-383.382
-343.337
-985.099
-25.1163
-263.323
-295.437
116.462
-137.194
16.17
376.84
-268.233
-35.2577
410.444
-125.979
2.24911
494.122
-263.517
34.746
505.782
-133.961
-3.99912
542.96
-158.05
3.60452
572.809
-85.6723
-20.4971
599.355
-47.731
-19.4659
606.973
44.3478
-11.9293
603.45
117.763
7.84903
585.166
155.526
16.3704
570.332
135.659
15.8865
553.775
90.0306
48.3186
535.739
53.3506
68.5802
505.164
57.869
51.8114
468.451
56.0824
43.3053
33.0326
33.2075
1983.62
691.278
925.177
1678.29
167.065
-731.673
1182.78
160.779
-556.136
979.701
70.8545
-249.206
782.444
-79.399
-124.612
646.61
-1.88886
-64.1251
542.411
-24.6264
-58.8063
-58.5873
-23.4528
-56.6383
525.596
-37.3427
-22.6627
-33.2472
-31.8782
-26.6418
534.035
-41.5431
-10.5829
-53.6445
-33.8517
-46.8293
565.831
-38.7101
-21.5288
-31.1962
-30.1626
-23.0833
587.364
-20.1052
-44.4697
-21.587
-11.3252
-16.0616
599.61
0.45781
-52.3657
3.45241
7.65803
10.2719
601.509
26.3914
-19.2883
26.2523
30.8911
29.4241
592.677
40.6278
26.4274
41.5118
41.7566
42.1639
560.839
157.044
50.8245
491.467
142.402
97.9907
421.33
111.969
86.0555
372.611
105.324
33.2168
352.65
76.5983
16.659
28.9921
23.1015
870.033
778.342
-930.504
879.551
308.577
-1417.57
716.293
398.399
-859.393
674.206
152.132
-360.515
585.557
21.5836
-154.493
131.019
13.9215
-63.0154
139.215
120.427
127.653
18.6555
17.2387
23.3247
4.72727
115.51
-4.57311
-9.2716
8.04821
-107.633
113.862
-44.9192
-6.70113
7.67553
-130
130.158
-45.1783
-4.19823
0.355009
-134.795
135.9
-43.6431
3.47361
3.35743
-144.645
143.662
-20.9744
-1.50495
13.9708
-147.9
147.402
-0.807439
-12.2074
12.4686
-152.49
149.911
28.6734
-12.1708
0.0514107
-151.802
149.845
44.2422
-1.70959
493.435
51.7497
65.9705
-148.698
-141.151
-133.183
-123.337
48.7194
50.7815
47.7155
423.684
204.897
75.4657
374.752
165.828
22.7147
352.874
136.457
-24.1847
354.135
88.276
-48.1918
30.2308
-23.8251
1781.49
736.655
4988.47
1056.51
702.779
-135.981
778.041
370.263
47.2647
720.264
185.565
-37.4764
178.176
62.9462
-18.2384
170.961
164.797
158.074
13.0149
190.614
7.81243
-19.3436
2.78384
-0.263627
-52.1815
51.1719
1.77569
-3.28636
2.57192
-46.7978
11.8391
44.0715
-9.15954
-2.52512
0.92337
-42.691
14.8349
41.8938
-14.3859
-0.575172
-0.441547
-42.8611
12.5513
41.9829
-12.1283
0.896835
-1.93553
-40.6416
7.36893
39.4353
-6.71712
2.4901
0.643181
-38.5871
1.13047
37.8195
-0.382813
-0.623212
3.64852
-37.5125
-5.58804
37.0093
6.19672
-3.75404
2.71239
-37.4157
-10.2152
36.5787
11.1329
-2.79307
-36.6015
-8.67351
131.349
59.034
9.93275
-35.3983
-34.5692
-33.3234
423.47
240.11
46.7491
-125.384
-118.023
-110.989
-104.047
403.494
198.766
-10.6856
397.644
154.254
-52.1921
396.613
103.851
-73.6191
51.2345
-61.339
490.344
-706.663
6946.13
490.496
280.633
809.389
367.538
243.031
-17.7582
410.699
133.386
-33.3951
114.599
33.9648
-100.942
125.593
105.252
115.164
24.0615
-8.00549
125.564
4.66693
-31.6879
4.36761
-0.227115
-34.7151
36.9255
-1.08499
-5.2659
3.34091
6.60498
-42.8414
43.9739
-7.65992
-3.41843
-0.841781
16.1219
-45.0094
45.144
-16.2871
0.872459
0.284806
13.9177
-45.0796
44.9058
-13.983
-0.0456372
-2.17265
5.71121
-42.625
41.559
-4.90137
2.42887
-0.0341549
-0.0809706
-38.7634
38.114
0.840849
-0.076339
2.88066
-6.20637
-36.5244
36.2316
6.77519
-3.1566
3.22765
-10.6023
-35.3838
35.1709
11.0252
-3.43769
-33.8011
2.568
-59.6818
128.731
61.7276
-2.12819
-33.5596
-31.9862
-31.8695
482.91
242.483
-8.80023
-123.411
-126.487
-110.82
-115.546
502.745
190.626
-37.7516
536.536
125.47
-44.6495
562.906
85.18
-39.3911
58.2434
-27.3104
3470.17
-230.138
5070.26
2126.1
458.999
960.461
1083.47
586.678
605.833
761.122
292.513
110.674
172.905
85.9162
55.6147
168.867
156.402
152.117
15.9264
-2.0571
187.729
-7.42427
-21.2686
5.60907
4.92501
-49.9554
51.2799
-4.91466
-6.94385
5.08589
9.66846
-52.1159
51.6943
-9.05806
-5.27466
-4.08163
14.188
-46.9374
44.7053
-12.3637
4.48945
-1.88054
13.6146
-41.6556
41.1446
-13.3032
2.08004
-2.50907
3.48115
-39.2927
38.8754
-3.36542
2.81061
-1.13998
-2.86626
-38.4967
38.5567
3.15502
0.791228
3.06373
-8.6605
-38.3756
37.9798
9.41013
-3.4175
2.75936
-12.634
-36.4519
35.9807
13.2516
-2.90571
-34.764
5.77243
-63.5701
136.471
65.2582
-6.19084
-35.5059
-33.3469
-34.1243
574.122
216.196
-22.434
-135.866
-144.178
-125.998
-134.551
620.907
152.355
-31.0913
667.833
79.0388
-19.6785
704.736
50.1366
-9.31306
45.0437
7.39145
-139.733
-228.418
2159.29
-106.049
103.359
-160.127
265.954
300.508
-306.322
407.157
182.769
-8.76224
132.317
6.50584
38.6086
140.116
119.767
128.621
-3.35163
16.3746
143.157
-20.4681
-3.39542
-0.010182
7.69067
-39.1575
42.0069
-10.0541
-0.475807
0.256853
10.5179
-49.2242
51.9349
-13.34
-0.14546
-9.72565
8.31973
-56.8028
55.4612
-7.84919
10.5967
-7.04303
8.86043
-40.4814
36.8866
-5.94822
7.72559
0.725774
1.98622
-32.4264
32.3104
-1.6609
-0.935079
2.08184
-3.45343
-32.88
33.4101
3.35077
-2.50931
2.05247
-9.85263
-35.3726
36.3455
9.28399
-2.45667
2.21707
-14.5826
-38.4136
38.9038
14.3322
-2.45685
-39.2013
4.13746
-65.5294
161.104
59.041
-3.74154
-39.5923
-37.8653
-38.3523
669.616
170.786
21.0797
-160.418
-168.754
-149.971
-156.459
686.801
130.011
34.7924
694.753
70.0418
29.1378
695.59
50.3655
8.83348
46.587
-3.40353
834.849
-892.871
1395.36
710.84
16.2884
160.639
602.357
233.547
162.944
669.372
112.855
-82.1377
607.823
-8.24098
96.4795
151.571
-165.833
20.0407
31.7787
48.81
32.7199
50.6502
154.264
138.089
141.81
10.2242
-4.80413
160.55
-44.2983
2.65048
8.49405
10.2547
8.50033
11.8955
-18.9394
-134.795
110.701
-23.0854
21.5289
11.019
11.396
10.2795
5.86403
-17.5324
-96.6863
96.3503
-21.7014
21.1497
3.35437
5.76887
3.43291
2.71145
-11.6063
-78.4422
78.97
-9.41197
12.2024
1.62743
2.5773
1.37183
2.50545
1.35348
-79.5401
89.4934
-13.4113
-2.61658
0.212772
2.18464
-0.181832
-1.51598
8.33744
-84.4329
95.6795
2.40196
-10.6437
-3.79894
-1.93897
-4.0884
-6.09931
8.9321
-100.036
117.209
11.4709
-9.91571
-7.62179
-6.2713
-7.66818
-11.0778
1.29542
-121.467
135.943
30.0953
-0.813204
-11.8385
-10.7505
-11.3874
561.396
128.534
54.7101
-53.1187
-54.5943
-46.1788
-46.1135
-138.411
-125.292
-127.131
-117.037
594.126
119.134
79.3067
599.949
114.95
77.8125
593.786
72.8944
47.7553
592.211
50.6399
19.1552
41.7486
8.11015
440.246
-1329.34
-962.991
271.51
-18.6773
128.469
483.338
4.52286
-87.6418
614.47
-45.4756
9.64384
596.726
-28.9655
74.8765
509.483
-95.6129
-4.20647
389.117
73.1866
21.7952
27.5431
-9.61743
23.9714
-13.8101
333.505
-23.0654
49.3332
9.84556
23.0406
9.79668
25.0312
302.114
45.8141
51.8221
8.41701
-16.5219
7.63793
-18.6635
283.217
-21.879
41.9607
5.81967
13.3907
5.55875
12.6464
281.703
18.5242
25.496
7.05137
-12.6644
6.10633
-14.4204
298.045
2.52188
22.4516
-0.894354
-8.31149
-1.75675
-8.77144
324.403
36.858
18.5053
-8.37208
-24.2921
-8.92567
-23.9806
367.315
39.8836
33.5697
-22.4299
-25.7329
-20.34
-22.5543
414.689
72.1187
49.3857
453.779
72.2476
42.786
487.761
75.5278
35.4671
510.401
45.7915
29.6496
537.398
23.1864
30.0367
18.2411
38.5558
2020.5
-349.773
2424.94
1045.67
232.379
262.604
673.965
120.509
150.483
567.475
22.6608
-106.177
414.499
52.9348
103.043
336.356
-21.083
-27.403
320.437
72.9127
32.8484
288.909
3.92435
9.88282
285.007
44.0045
25.2962
276.002
-12.9966
15.7535
282.823
10.133
16.9901
294.36
-10.1794
11.3287
315.151
12.4152
17.7054
337.699
14.7956
16.8307
366.926
37.6253
21.765
404.456
31.6688
20.2314
441.752
34.0577
23.7176
466.486
19.0496
27.8354
484.079
7.43405
30.8532
6.78795
23.4122
1377.89
250.465
4008.01
1095.93
-26.1706
1175.29
687.439
229.878
745.656
574.317
64.6714
303.243
433.059
160.909
258.958
350.392
55.8635
81.3853
312.863
102.373
35.7924
287.603
24.7437
4.44204
295.012
33.1804
8.53688
297.464
-18.8209
0.218383
314.003
-10.8634
7.78898
326.114
-24.0957
1.80596
340.642
-6.59185
7.93271
355.06
-1.54603
3.088
373.166
14.9393
8.37147
386.609
17.2091
-0.415743
397.352
23.42
-3.06438
400.376
20.2451
-14.1276
400.606
16.4693
-23.2718
11.0698
-37.8204
-653.363
839.64
-453.6
-164.71
-25.297
-93.9955
-25.2089
215.089
-316.826
-56.4034
63.2946
77.8747
92.6733
72.8075
-0.0610678
96.3695
60.0291
-5.78232
164.037
34.5616
-0.676214
187.136
10.5934
-32.6332
236.22
-8.23807
-41.8562
264.245
-41.1396
-42.1012
303.186
-50.0272
-27.4602
329.615
-51.1502
-15.7179
350.948
-32.0734
-0.236388
363.309
-14.832
-1.2344
373.03
5.21723
-0.882795
378.333
16.33
-6.87417
381.112
25.411
-16.7089
380.934
27.0663
-27.2994
382.211
25.2022
-38.2106
18.7597
-50.2156
-461.048
234.361
-3934.45
-232.103
104.076
125.76
189.059
31.205
-672.394
261.467
50.861
-91.4032
361.432
21.9661
-34.5285
378.706
56.8909
5.00486
382.589
36.9862
2.46545
381.56
26.0451
-47.4123
390.55
-10.5092
-43.1259
401.29
-36.9078
-56.9027
422.181
-66.3438
-43.8504
443.316
-69.1302
-44.1154
460.388
-51.3539
-29.2261
473.88
-29.6734
-27.4354
481.512
-5.66009
-11.6121
485.346
13.1531
-6.08782
488.313
27.2021
3.58537
488.256
34.4728
1.64521
489.797
33.9766
-10.8858
28.0417
-16.4286
-1157.48
-938.82
-3922
-426.757
44.8682
101.169
331.186
-87.7082
-963.686
397.911
103.857
-78.2031
485.408
43.0541
-132.492
477.15
115.5
-54.7724
466.136
100.525
-31.7745
457.355
116.082
-96.0081
454.634
80.3908
-131.734
456.32
52.4544
-173.938
477.519
-37.6478
-120.582
495.759
-61.5537
-94.0227
502.602
-45.4505
-72.1187
507.873
-26.2132
-63.0043
513.528
-7.28629
-47.0065
522.664
3.88533
-32.5404
537.207
14.4117
-17.7002
552.556
21.834
-3.08632
568.661
22.0571
4.02081
18.7593
13.2447
2182.94
4651.21
1698.72
693.044
1170.14
76.1262
1137.87
-115.057
1117.32
-57.9904
1178.34
46.3947
1204.31
187.619
1252.25
217.474
1260.97
231.422
1239.85
222.485
1115.99
247.852
979.381
223.6
889.026
140.093
835.674
90.6691
804.003
75.7304
782.679
73.0955
771.383
76.2264
769.048
74.5541
771.002
67.0823
57.097
1027.77
571.813
-2302.53
1455.31
255.283
1649.2
1408.39
63.1533
66.0858
1337.25
-37.4028
-131.195
1149.25
43.2188
-165.952
1064.41
-4.67712
-147.509
1015.32
-6.71323
-33.3259
1040.42
-19.6545
-4.97072
1060.22
-8.95463
49.3195
1072.71
11.3181
53.0575
1054.31
36.5752
81.075
1025.14
54.8203
88.7691
984.546
57.0728
108.115
961.286
47.6687
95.5893
951.405
35.331
69.8196
941.371
20.8536
31.4607
927.446
16.7954
14.4177
909.828
15.3128
8.92383
886.674
18.3174
3.42031
16.2084
-0.576607
-1044.17
-177.141
-2411.48
-253.504
-418.416
-137.496
308.563
-176.877
80.7719
451.577
-38.1662
229.028
577.9
30.4639
204.006
632.134
-8.15321
30.2988
664.319
-19.5567
49.6384
681.705
-27.2908
-52.7252
692.832
-19.5641
-32.2855
699.332
-2.58654
-52.779
697.078
26.7075
-9.3103
686.353
55.3643
4.15886
676.144
70.2017
43.5552
667.784
71.6055
53.8154
656.355
62.4589
49.5502
645.148
50.7293
37.2231
635.66
42.9292
27.5616
629.129
37.6674
21.9275
622.663
37.5712
7.48783
28.3596
-7.48107
233.116
-640.392
829.074
45.6285
-728.94
-862.865
273.674
-459.302
-402.65
439.912
-169.688
63.5719
553.53
-47.0896
96.1522
593.404
-34.1473
46.6356
605.034
-26.2811
76.8979
607.357
-22.1636
17.6558
599.611
-15.0342
18.1207
585.294
6.80353
-15.8755
568.185
32.9029
-8.61175
547.997
63.1315
-18.6194
535.028
76.0257
3.91644
529.829
80.1486
15.4881
527.392
71.9852
21.1703
527.1
59.691
18.4413
527.703
49.659
15.5556
528.113
42.8674
8.86944
529.813
40.5402
-3.18212
29.411
-7.74903
159.344
-1134.48
-864.836
307.415
-462.891
-271.415
281.295
-308.38
313.542
225.388
-116.713
51.3268
311.528
-102.11
56.0909
354.802
-62.4894
54.0481
434.733
-82.6398
80.425
459.169
-35.4682
47.7999
486.654
-29.3185
60.9494
489.091
17.3918
41.0124
493.286
45.0492
53.4526
483.439
86.2452
32.415
476.515
93.3614
33.9344
469.65
97.4786
26.2102
466.023
85.7741
23.3959
467.331
66.472
18.9988
475.419
47.0457
15.8348
485.658
38.4954
8.87215
498.892
32.3947
-5.83724
22.8199
-7.65507
1146.84
-409.98
352.286
1129.07
-193.937
-230.712
860.893
4.25163
-130.776
733.267
-11.3713
66.7338
604.567
-15.9528
104.877
565.529
-22.5526
46.4482
556.618
-79.7089
67.2976
555.788
-33.9687
29.5408
554.587
-29.2329
35.6792
546.542
25.5747
17.444
531.418
64.5016
28.8806
506.308
116.054
13.8911
483.077
125.246
25.3387
467.432
125.949
24.5736
458.811
104.233
22.2574
462.241
69.3671
19.2588
474.239
42.8948
19.0434
480.506
39.0228
10.1786
485.353
33.5533
-0.536807
23.9623
5.05244
-288.902
-1700.01
-576.419
-226.216
-559.282
-682.441
-21.7164
-243.181
-252.503
64.6418
-85.6781
4.11867
254.415
-177.305
-63.6784
275.68
-56.3532
14.785
379.496
-184.524
35.7449
385.908
-43.9852
-0.39456
424.041
-67.3241
3.56205
440.202
0.759585
-11.8431
456.829
30.6993
-2.28956
452.683
113.632
-5.36143
447.842
132.16
5.77606
438.522
141.211
10.4281
433.844
110.709
14.0896
437.392
76.7063
37.4307
441.439
60.2484
47.1796
431.918
65.9062
34.4497
417.108
58.1032
33.5652
34.1725
33.0224
1302.98
-876.277
-1736.47
1498.91
-233.25
-1253.64
1121.62
76.1678
-498.191
884.984
70.9006
-169.149
654.571
-27.0919
-44.4124
501.514
66.3192
-33.7406
411.597
-16.1664
-28.5458
-48.3835
-15.0642
-45.2527
399.047
-16.9148
-3.50787
-15.9186
-10.0082
-7.74808
413.648
-19.4363
3.31413
-34.1686
-13.0719
-29.146
437.901
-13.8747
-8.52921
-11.4204
-6.98068
-4.2168
449.022
2.8487
-27.0174
-6.41733
7.98368
-2.28925
446.706
18.396
-28.7086
23.9195
22.4559
27.5206
438.77
35.0304
-13.0519
32.1015
35.6615
31.0657
430.998
40.4213
17.5562
39.7003
39.1375
38.5952
412.199
139.06
41.2718
388.436
128.842
69.6187
365.414
111.773
57.5531
336.628
106.88
21.0293
325.829
77.8552
7.70613
36.6002
21.2299
941.845
-1256.14
-3456.29
916.595
-331.146
-1294.43
723.986
152.299
-742.915
622.154
78.5116
-266.294
473.816
37.9546
-71.2012
95.9845
28.4206
-35.2995
102.143
86.4886
90.9212
33.6845
33.5941
41.1829
8.8698
80.4582
0.662411
-10.1724
7.54219
-72.0481
80.5707
-29.2011
-3.77851
4.29358
-95.5621
96.0749
-22.685
-1.55774
-2.99815
-100.592
104.17
-20.3678
5.91338
3.54631
-113.225
112.471
1.61793
-1.56147
12.1914
-115.247
113.456
17.289
-9.29356
12.4422
-116.458
110.944
39.0592
-10.9573
2.58346
-111.728
107.135
45.5526
-3.12234
349.212
48.157
49.6517
-104.717
-96.0196
-91.2004
-81.5076
44.0633
45.7248
41.6662
330.529
177.384
45.6072
310.343
147.204
7.4692
293.147
122.059
-22.1672
291.739
73.7969
-42.7254
28.7693
-16.1349
782.958
9.33575
-197.226
74.1088
207.236
34.4856
557.861
176.798
-460.986
519.515
135.943
-56.5622
133.807
65.4614
-23.3218
128.019
120.281
114.986
17.7765
142.803
18.4162
-16.7685
2.02315
-2.24014
-38.7325
36.6803
4.32497
-2.05581
2.4446
-32.5188
9.47167
30.6982
-8.01343
-2.08218
0.316366
-30.9381
9.62313
30.5029
-9.61551
0.111232
-1.26546
-30.8688
6.8232
30.0396
-6.35473
1.62618
-2.10402
-30.2364
1.52091
29.9565
-1.2342
2.0972
1.03686
-29.9024
-3.10825
29.2198
3.78128
-1.0273
3.97889
-28.7665
-8.51718
27.9662
9.06814
-3.72956
2.6568
-27.5078
-11.0338
26.276
12.1152
-2.50644
-25.5985
-10.6278
90.5991
55.1847
10.1367
-24.6365
-23.9333
-22.9674
330.701
193.723
30.2081
-90.2124
-85.659
-79.5191
-75.1095
327.05
152.715
-12.5458
321.842
117.211
-42.1354
312.756
72.3455
-63.0819
31.8392
-48.448
-283.613
-463.741
3938.76
10.893
9.61508
712.504
236.976
50.899
-117.941
292.062
86.308
-38.8455
82.8899
20.4598
-87.5241
91.0492
71.5241
78.1821
30.0293
-13.2463
91.9639
4.06358
-29.9205
4.96908
-1.38254
-26.3629
28.4191
-0.804579
-4.83817
2.71056
7.20717
-32.2712
32.6909
-8.03779
-2.29966
-0.892535
11.4567
-33.2825
33.5001
-11.6663
0.884529
-0.755205
7.27362
-33.6896
33.4008
-7.20096
0.971297
-31.7627
-2.65033
1.49684
31.4141
-1.17265
2.6747
-30.1898
0.608658
-3.66729
4.16083
-0.671362
29.7589
3.37879