/*--------------------------------*- C++ -*----------------------------------*\
  =========                 |
  \\      /  F ield         | OpenFOAM: The Open Source CFD Toolbox
   \\    /   O peration     | Website:  https://openfoam.org
    \\  /    A nd           | Version:  10
     \\/     M anipulation  |
\*---------------------------------------------------------------------------*/
FoamFile
{
    format      ascii;
    class       volVectorField;
    location    "2.3";
    object      U_0;
}
// * * * * * * * * * * * * * * * * * * * * * * * * * * * * * * * * * * * * * //

dimensions      [0 1 -1 0 0 0 0];

internalField   nonuniform List<vector> 
12920
(
(293.689 -267.563 229.132)
(218.789 -159.412 71.1035)
(242.015 41.6959 22.2707)
(117.124 68.1756 -2.30246)
(128.554 63.5883 -8.94737)
(107.43 35.8039 -7.13626)
(126.192 24.2599 -3.63021)
(123.61 4.53485 -0.42283)
(136.917 -1.90891 1.38196)
(139.316 -5.41976 2.94737)
(145.016 -4.70222 3.77314)
(144.271 -3.95719 3.83896)
(143.713 -0.794141 2.85161)
(134.334 2.97106 1.79813)
(122.684 7.04053 1.11036)
(110.143 9.07181 0.438152)
(102.643 9.05806 -0.0682714)
(94.1935 8.23891 -0.579644)
(91.4924 5.55983 -0.811506)
(84.5441 1.5391 -0.352072)
(173.425 -251.705 -166.644)
(20.3451 -175.916 -67.179)
(134.829 5.55521 11.3116)
(61.3694 34.5021 12.4739)
(98.7611 21.1958 8.87241)
(74.9822 -2.21075 3.03026)
(94.5791 -14.0216 2.28941)
(90.3925 -19.5613 0.211225)
(99.1761 -21.6805 0.171478)
(99.0889 -21.5803 -0.374177)
(104.133 -19.4776 -0.207792)
(102.802 -16.9187 -0.0688867)
(103.16 -7.33878 0.800238)
(92.2242 2.45011 1.36569)
(88.2363 6.01174 1.14508)
(82.8753 5.822 1.32508)
(80.615 5.75552 1.34189)
(76.9271 4.80632 1.21396)
(76.144 3.78771 0.866847)
(69.6199 2.56155 0.20248)
(-2.67189 -97.4044 -84.3816)
(-152.29 -58.8064 -55.3593)
(72.2105 -32.4049 -12.8379)
(18.467 -1.71505 3.44453)
(86.8354 13.0062 3.62322)
(69.0974 7.06557 1.95925)
(85.9798 3.24501 1.90093)
(77.7868 -4.34327 0.948284)
(83.3387 -6.87695 0.621944)
(79.4521 -7.29108 -0.241475)
(82.0573 -5.21514 -0.709272)
(79.4564 -2.50987 -1.3653)
(79.5588 3.77985 -0.793863)
(74.7083 7.3888 0.180349)
(73.0686 7.57294 0.790758)
(68.5523 7.32422 0.914945)
(66.8484 7.00392 0.662116)
(65.42 6.23268 0.448972)
(65.981 5.44255 0.147204)
(62.247 3.93139 -0.144531)
(170.614 64.3115 27.9617)
(48.4187 -13.4305 9.89302)
(106.702 -65.5395 23.3416)
(-10.2502 -38.8138 6.42191)
(63.934 -31.8788 4.26761)
(26.3145 -25.4512 2.28125)
(61.5955 -27.7317 2.56031)
(52.1502 -24.9718 1.9101)
(66.5519 -23.5249 2.13155)
(63.8274 -18.8331 1.87117)
(70.622 -13.9356 2.36858)
(67.7451 -7.89677 1.67852)
(69.7612 1.23568 1.25798)
(65.299 6.12888 1.05442)
(62.5938 7.47113 1.00039)
(56.9833 6.51517 0.733355)
(55.3801 5.07802 0.480178)
(55.569 3.92837 0.390043)
(57.4738 3.78312 0.0497472)
(56.8738 3.88403 -0.246214)
(12.7152 -188.609 45.4825)
(-14.1323 -52.2489 -44.6926)
(118.993 1.11365 -20.7504)
(51.5682 -7.77106 -2.90685)
(91.2621 -12.7317 1.2011)
(60.821 -19.6409 1.59253)
(74.7763 -29.2986 1.27474)
(66.0894 -27.2507 0.726865)
(73.3178 -28.9987 0.763829)
(71.0536 -24.3235 0.59215)
(77.0795 -21.6217 0.861799)
(76.9905 -11.7438 0.714473)
(79.7354 -0.667959 1.06313)
(71.1871 7.61055 1.33366)
(65.1616 10.0491 1.06273)
(57.6861 9.5269 0.428445)
(56.6107 5.34594 0.474827)
(55.8526 2.5866 0.351016)
(56.3525 1.41608 0.152316)
(51.9935 2.33851 0.111571)
(40.9224 -176.397 77.7113)
(-160.485 -74.5248 4.54064)
(87.5043 -42.4938 -1.01992)
(-32.369 -31.5921 2.07208)
(72.1629 -38.1843 1.19239)
(28.7609 -29.0793 -0.398703)
(62.7452 -36.516 0.154388)
(50.4747 -32.0076 -0.421031)
(60.9407 -31.5665 -0.302943)
(58.909 -27.4081 -0.579104)
(66.1586 -24.4584 -0.787951)
(66.5053 -15.2104 -0.661501)
(72.8601 1.50318 0.431904)
(66.8323 12.5948 0.644168)
(63.6914 14.7306 0.239015)
(60.9593 10.9334 0.869869)
(54.6432 3.14032 1.90501)
(47.1213 2.45483 1.37039)
(41.6667 3.99682 0.755402)
(33.7089 3.86083 0.465928)
(259.899 -226.014 61.3445)
(47.7668 -63.4363 -4.20369)
(147.289 -48.7309 -16.8375)
(84.5429 -27.6786 -7.13724)
(104.371 -38.7629 -3.8532)
(73.1173 -25.3166 -2.60685)
(71.6524 -42.4826 -2.30038)
(57.8257 -27.7632 -1.39237)
(62.2673 -34.3545 -0.847795)
(59.2586 -27.2179 -0.867578)
(65.4729 -25.131 -1.38944)
(64.377 -15.593 -2.29909)
(71.7302 -2.54145 -0.874522)
(67.6737 13.2059 0.825535)
(65.7049 13.7238 1.07657)
(57.545 11.2113 2.25689)
(40.8757 6.98522 2.21616)
(31.0198 7.41667 1.0207)
(26.4637 6.28656 0.556658)
(22.3686 3.15475 0.452633)
(14.6001 129.345 -0.440162)
(-36.9578 90.7013 -44.4363)
(105.044 80.9671 -30.0179)
(34.5103 32.5545 -11.3747)
(84.8001 5.42378 -5.15611)
(52.8215 7.11429 -2.27882)
(59.2147 2.45393 -1.23278)
(48.148 -16.5741 -0.36721)
(61.7896 -21.0455 -0.107303)
(62.3333 -25.4206 1.01461)
(62.4802 -19.3758 1.24264)
(62.9353 -12.6433 0.55868)
(66.7536 1.67413 0.541449)
(68.5105 14.6919 0.837906)
(60.2788 17.3703 1.65504)
(47.1797 18.9195 1.97096)
(33.584 14.4121 0.928105)
(29.0829 11.2722 -0.364124)
(29.499 6.72369 -0.947503)
(28.3012 1.32639 -0.411267)
(68.3056 175.922 116.487)
(-58.5178 101.92 -40.1856)
(119.431 71.0688 -21.2803)
(57.4367 31.0379 -4.54112)
(99.1906 7.55651 -1.26598)
(70.1696 1.97954 -1.53733)
(90.0381 3.81121 -1.53611)
(88.9497 -14.7766 -0.712586)
(78.8509 -25.3759 0.0151257)
(81.0282 -27.5225 0.335424)
(79.0873 -19.3604 0.525075)
(67.2885 -10.7044 0.665256)
(64.8076 2.69377 0.117426)
(67.2814 12.4351 0.282279)
(64.8964 24.9034 1.23865)
(45.3453 24.5962 1.68661)
(37.1368 19.454 0.394275)
(33.6053 15.6108 -1.07066)
(36.0436 11.5609 -1.7246)
(32.7353 4.49692 -1.4775)
(159.065 -29.7036 105.014)
(-135.465 74.9434 3.14605)
(77.1631 35.948 -12.5881)
(8.95554 25.2555 -2.14621)
(73.2278 13.5052 -2.84105)
(41.9892 7.52941 -2.30355)
(58.2913 5.51808 -1.13782)
(79.4652 -4.82108 -0.841804)
(82.1647 -31.3243 0.0631721)
(80.9782 -36.9153 -0.245552)
(79.4208 -20.1466 0.319702)
(66.4049 -6.79118 -0.106358)
(62.994 3.44497 -0.349636)
(63.1805 10.0115 -0.627504)
(62.1071 21.8274 -0.317784)
(50.7146 28.5292 0.369978)
(47.7672 26.215 -0.520396)
(47.9039 21.4242 -1.14767)
(54.9654 16.5231 -0.927253)
(54.1382 10.9793 -0.439415)
(218.244 73.9 99.0586)
(31.2495 68.6773 -43.1744)
(123.693 54.5216 -22.5095)
(68.9523 31.4187 -7.68117)
(99.976 17.0399 -2.52251)
(82.4244 5.52546 -1.23038)
(99.6751 -4.49334 -1.62115)
(110.372 -11.792 -1.0648)
(81.7362 -18.6428 0.661617)
(73.8296 -35.6361 -0.129068)
(67.9316 -15.4272 0.281615)
(59.6173 -2.49943 0.334084)
(60.705 10.3306 -0.317264)
(61.8736 17.473 -0.567245)
(59.9719 26.7328 -0.763879)
(56.0999 30.8363 -0.177172)
(57.3214 27.9151 -0.5056)
(62.6874 17.7846 -0.598218)
(70.8626 8.6064 -0.198294)
(72.3608 4.93112 0.44269)
(-115.364 95.2615 112.261)
(-165.224 88.8224 -19.7905)
(62.0791 61.8132 -8.64129)
(9.66713 34.1603 1.48341)
(80.3708 18.7513 2.34669)
(56.7386 -2.57889 -1.13379)
(69.4656 -3.21924 -0.530993)
(96.0398 -0.189732 -1.24926)
(111.422 -8.10744 1.60945)
(73.542 -18.009 -0.278069)
(52.0082 -8.98563 -0.128204)
(53.1666 -1.8558 -0.158731)
(55.4896 9.05116 -0.169121)
(61.1243 22.1686 -0.316126)
(64.8825 30.7681 -0.618981)
(67.1841 29.6031 0.286187)
(69.0775 24.6236 0.920352)
(71.033 12.8328 0.956668)
(72.3042 5.07349 0.415901)
(68.412 2.87765 -0.0259084)
(111.003 -10.0726 2.37826)
(-17.0029 -21.567 -19.9218)
(83.9295 -27.7641 -6.43546)
(31.6487 -15.6261 -3.78185)
(82.1794 -18.6188 -1.75121)
(61.4357 -32.1303 -1.37429)
(75.3589 -16.6345 -0.69002)
(65.7743 -15.2775 0.252702)
(42.5171 -3.85718 0.629609)
(30.6259 -3.21305 0.761506)
(29.5638 -5.50256 0.0238948)
(28.6905 1.67201 -0.477938)
(38.2242 7.63841 -0.77669)
(49.7088 18.1021 -0.372169)
(55.4169 24.1332 1.0572)
(60.8482 21.9095 1.70114)
(61.755 18.8934 2.16557)
(59.4743 10.2159 1.45508)
(57.8941 5.75611 0.556351)
(53.4156 4.57592 0.18526)
(132.004 144.943 78.027)
(-4.60339 48.9299 -1.15374)
(91.2712 35.0939 -1.9568)
(46.7383 8.33165 -0.949824)
(89.4056 5.87879 0.168006)
(60.1677 -5.33468 -1.14692)
(62.8374 11.3038 -0.0643372)
(43.7855 -1.36938 1.00361)
(46.1659 6.55751 1.41313)
(34.1556 -2.81235 1.24771)
(33.3353 2.68082 0.903918)
(27.058 -0.276665 0.72763)
(29.2495 5.32503 0.488329)
(29.8465 5.42622 0.720084)
(36.2765 8.74664 1.18848)
(40.1193 11.5533 1.00925)
(45.598 12.6442 0.868683)
(48.5377 8.65591 0.722967)
(50.6284 4.13138 0.96927)
(48.1943 1.29011 1.11881)
(140.984 84.0604 -44.3576)
(57.2606 25.2655 -39.9084)
(118.977 -10.5998 -13.2792)
(55.9016 -14.5345 -6.08966)
(88.6695 -14.0285 -0.337915)
(40.2251 -10.9757 -1.16534)
(53.8922 -2.41421 -0.0972008)
(35.5579 -2.75248 -0.0430066)
(37.766 0.548573 0.48811)
(28.6406 -1.42545 0.495927)
(29.3387 0.720983 0.472657)
(26.5142 0.972359 0.294978)
(28.6325 2.70019 0.377176)
(29.4693 4.23602 0.424247)
(32.4222 6.99313 0.439234)
(36.2038 5.97429 0.480172)
(41.2548 5.20126 0.539946)
(44.8351 1.40295 0.789095)
(45.606 -2.80206 1.1659)
(39.4853 -4.62741 0.743483)
(318.962 217.728 102.292)
(148.245 101.554 21.8442)
(167.114 38.7081 8.96098)
(94.71 18.741 6.38758)
(90.5353 32.7192 7.34517)
(37.5577 17.7352 2.797)
(48.2634 25.3198 0.768102)
(26.5893 11.6209 -0.204957)
(36.8232 13.4354 0.0189676)
(27.3194 3.88448 -0.0951351)
(33.3346 3.15368 0.0271602)
(30.2895 -1.56647 -0.0494868)
(34.4076 -0.702407 -0.00230503)
(33.8827 -1.44537 -0.0355101)
(36.9048 0.144405 0.0151107)
(37.9797 0.271086 -0.110163)
(39.8635 1.02091 -0.150067)
(40.4728 0.505683 -0.305399)
(40.1949 -0.572355 -0.327439)
(32.6926 -1.87073 -1.08529)
(151.324 199.965 0.755289)
(-142.06 -9.54128 11.6987)
(76.6524 29.7675 -5.30077)
(-54.7326 3.17212 0.134229)
(43.6939 15.3636 2.39154)
(-22.5959 5.95879 0.105966)
(25.1817 5.19471 -0.173948)
(1.64806 1.4404 -0.732577)
(21.7356 0.0381911 -1.12919)
(16.8703 -2.03019 -1.08975)
(27.1074 -2.79495 -0.974922)
(27.9892 -2.67603 -0.638569)
(33.763 -1.52807 -0.277291)
(34.0772 0.424231 -0.126231)
(36.5619 2.45737 -0.0964444)
(36.5216 3.26551 -0.0493821)
(37.6017 3.83221 -0.372418)
(37.8078 3.92156 -0.663175)
(38.5137 4.45776 -0.893344)
(33.2894 4.88924 -1.22471)
(287.982 162.441 -312.249)
(-184.037 8.20819 -0.0912811)
(83.868 8.53761 -13.3232)
(-14.5022 3.94425 -0.355189)
(54.6663 6.58301 1.37641)
(24.0227 16.9054 1.19889)
(45.4861 16.7266 0.381814)
(28.9382 14.3574 -0.912865)
(39.8348 9.9739 -1.1028)
(34.3713 4.22765 -1.33153)
(42.1812 -0.624795 -1.3377)
(43.0488 -5.0321 -1.43921)
(49.1963 -5.00978 -1.22691)
(50.7705 -4.28786 -1.11215)
(54.6948 -2.06204 -0.691859)
(54.635 -0.709212 -0.31017)
(54.9537 2.34533 0.318581)
(51.8288 4.61105 0.38377)
(51.3265 6.17851 0.0427298)
(45.6119 6.68588 -0.0498178)
(352.786 120.745 -156.613)
(-179.799 65.2755 31.0888)
(99.36 -3.25498 2.72127)
(0.139463 2.53081 4.53186)
(69.6392 -2.94862 0.875074)
(33.7998 1.48586 0.2897)
(54.666 2.11195 1.13917)
(33.0744 5.30666 0.569508)
(39.4941 2.17146 -0.0397911)
(29.7559 0.373737 -1.10379)
(35.8163 -3.62614 -1.47772)
(37.9875 -3.58664 -1.91394)
(44.3785 -2.49862 -1.84799)
(45.3285 -0.0771947 -1.74695)
(49.0564 1.7346 -1.4546)
(49.5677 3.51747 -1.19942)
(52.0835 5.2444 -0.605246)
(53.1001 6.70491 -0.0460868)
(54.9049 7.18229 0.271009)
(51.0582 6.63013 0.469061)
(138.02 -146.646 -82.5535)
(28.4313 -1.74839 -25.3443)
(94.9439 -41.5462 -19.604)
(86.4634 -7.82599 -10.4392)
(120.358 -3.71705 -5.78597)
(116.28 15.8204 -2.36878)
(131.872 23.8364 1.74873)
(125.618 27.8314 3.40954)
(128.987 26.5563 4.26102)
(124.282 23.6321 4.21454)
(120.744 7.84415 4.36354)
(96.8374 0.224734 3.81934)
(86.234 0.73897 2.47112)
(76.4524 1.80855 1.73012)
(74.3293 2.66942 1.3877)
(70.9919 2.29282 1.27552)
(70.163 2.4654 1.34319)
(69.112 2.75607 1.36957)
(70.4229 2.90732 1.32148)
(65.9698 2.43042 1.17734)
(451.706 -63.1511 -145.185)
(6.77846 29.8382 78.1318)
(171.649 37.1082 11.4418)
(97.7953 23.6625 -8.01472)
(121.178 26.8012 -12.9666)
(96.3876 15.3057 -9.86241)
(106.652 10.808 -4.02412)
(105.049 -0.896216 0.708556)
(117.689 -2.96126 3.04888)
(122.469 -4.20338 3.88755)
(131.208 -0.630951 4.41705)
(131.039 1.90943 4.63296)
(128.184 5.2668 4.65881)
(116.264 6.15844 4.34206)
(106.324 4.53391 3.43866)
(98.2172 2.94673 1.52089)
(95.115 2.22624 0.610009)
(90.2818 1.99929 0.164532)
(88.5511 0.943556 -0.158983)
(81.4355 0.172487 0.0181952)
(-38.3373 -98.1921 51.5675)
(-137.642 -14.1527 35.6711)
(60.1051 6.61177 21.3703)
(10.8453 11.1587 18.4578)
(76.3269 3.49353 14.4856)
(51.403 -8.26352 4.16843)
(75.4948 -12.7516 3.38447)
(68.2708 -13.5596 -0.893133)
(77.8419 -12.3854 -0.703209)
(75.8791 -9.1703 -1.75852)
(81.1328 -5.48152 -0.655158)
(79.1483 -1.04772 -0.38094)
(80.2966 4.26106 1.88208)
(76.2851 6.41742 2.76243)
(74.1309 5.91721 2.54221)
(69.5087 4.37738 2.32989)
(67.8401 3.81982 1.96491)
(65.4637 3.16499 1.71618)
(65.4303 3.24486 1.01932)
(59.8796 2.66843 0.0367365)
(51.9135 -56.3571 27.684)
(-119.921 -112.231 -63.879)
(56.8689 -47.5878 -21.305)
(1.02757 -11.5314 4.34054)
(70.3784 7.92482 5.15745)
(48.2605 4.74924 2.95885)
(68.2237 3.20108 3.35476)
(58.8246 -2.48414 1.27059)
(65.7327 -3.29672 0.719614)
(60.8279 -2.84397 -0.762291)
(63.3325 -0.334365 -0.955749)
(59.5194 2.56167 -1.42868)
(59.4693 6.53227 -0.321409)
(56.6978 8.19786 0.73856)
(56.6454 7.80905 1.17086)
(54.9217 6.99834 1.20326)
(54.5516 6.0002 0.983286)
(53.8449 5.16821 0.630455)
(54.6847 4.73996 0.144417)
(51.2469 3.58647 -0.293472)
(104.639 -157.339 -0.219283)
(-66.5224 -102.28 -3.18761)
(82.3887 -77.6257 16.3502)
(-31.0288 -36.6527 1.88852)
(55.1807 -26.5081 3.46094)
(11.562 -18.3537 2.84956)
(51.3141 -18.5101 4.00356)
(38.3056 -13.6808 2.6042)
(53.6732 -11.1273 3.1197)
(48.9456 -6.19231 2.43303)
(54.8009 -2.3784 3.04834)
(51.5892 1.65044 2.05603)
(52.6639 5.76032 1.84843)
(49.6021 7.40394 1.56176)
(48.7182 7.34644 1.42824)
(46.5925 6.21988 1.16418)
(46.5305 4.8447 0.87491)
(47.1852 3.95984 0.628966)
(49.2439 3.99901 0.0578216)
(47.811 3.51524 -0.299425)
(269.329 -186.793 62.5641)
(150.768 -101.59 19.9027)
(141.875 -7.85422 -6.15536)
(48.1253 -1.3321 0.101463)
(79.3955 -3.41893 0.998332)
(45.0231 -8.73879 1.69834)
(61.6571 -16.5433 2.12163)
(51.6268 -11.8259 1.21952)
(59.7274 -12.2987 1.39007)
(56.1172 -6.01715 0.849595)
(61.1251 -1.94479 1.48054)
(57.6043 4.34948 0.928273)
(56.717 8.21677 1.47655)
(51.4141 11.1056 1.67082)
(49.4833 10.5912 1.43836)
(45.9772 8.41077 1.06898)
(46.7295 5.07771 1.13625)
(47.2106 3.31989 0.734436)
(48.417 2.20995 0.304995)
(44.8871 2.17471 0.238292)
(-6.03351 -184.35 114.095)
(-177.166 -56.329 -22.9724)
(55.6756 -25.171 -9.06834)
(-57.4206 -17.4108 2.22129)
(59.3595 -22.9141 0.207241)
(5.71723 -13.8143 -0.0295007)
(47.0307 -23.4209 1.03337)
(31.8827 -16.2523 -0.291322)
(44.8629 -14.4511 -0.0861567)
(42.0705 -8.36777 -0.833006)
(49.8216 -3.12927 -0.684878)
(48.4585 5.74245 -0.508184)
(51.0459 12.1839 0.414642)
(48.2567 14.2207 0.792284)
(47.2727 12.9564 0.657966)
(45.6116 7.46238 2.04236)
(43.9719 2.65068 3.02011)
(42.2181 2.77948 2.26424)
(39.0249 4.06545 1.58722)
(32.3208 3.55741 1.00832)
(283.938 21.3905 58.4731)
(133.855 -16.2926 -32.073)
(157.527 -25.6095 -27.4737)
(75.9878 -12.0296 -11.7832)
(89.6251 -26.5759 -6.35761)
(51.6701 -13.2695 -3.7113)
(50.9025 -33.0158 -2.99049)
(37.3935 -13.9546 -1.47845)
(44.2804 -21.0187 -0.928431)
(41.7634 -11.2501 -1.33855)
(49.3057 -7.86809 -2.19246)
(47.4507 3.15387 -2.63516)
(50.8292 9.70611 -0.761363)
(48.6875 15.4758 1.34631)
(48.4647 12.669 2.08327)
(42.8555 9.4379 4.15842)
(34.384 7.26419 3.74066)
(28.8434 8.22322 1.50917)
(25.6793 6.80467 0.806093)
(22.4116 2.88098 0.893576)
(122.364 124.556 34.9946)
(31.971 37.9239 -50.1109)
(114.864 49.6907 -33.1864)
(33.4172 23.5518 -13.83)
(71.5878 8.03495 -6.9398)
(34.0468 13.6164 -2.8192)
(42.5249 2.36297 -1.45506)
(32.2397 -14.1685 -1.36724)
(42.9436 -11.7245 -1.0372)
(43.3185 -14.352 0.261545)
(47.9267 -4.06464 -0.325546)
(48.5905 3.0004 -2.18324)
(50.4578 15.6639 -2.21118)
(49.7963 21.5492 -0.284922)
(42.219 17.1919 2.67052)
(35.4738 17.5386 3.46457)
(28.3957 14.0809 1.24589)
(25.6565 12.1407 -0.860526)
(25.1149 8.13305 -1.86058)
(23.3417 2.75404 -0.997947)
(276.316 109.861 131.955)
(43.913 57.26 -4.12576)
(118.228 40.7537 6.57508)
(41.706 18.9909 0.170001)
(75.0982 5.15679 -0.395679)
(58.8389 8.82799 -2.72107)
(72.9726 7.66417 -2.04363)
(63.9866 -14.4731 -1.88302)
(58.7689 -20.0729 -0.687814)
(58.8881 -16.4124 0.298248)
(54.7901 -7.79155 1.34495)
(51.7207 2.50061 -0.525436)
(50.2089 13.3904 -2.50931)
(49.6944 21.2545 -1.87067)
(44.6321 27.2925 1.20271)
(32.6919 22.1818 2.06041)
(31.193 18.0689 -0.271827)
(29.1727 14.526 -2.16802)
(31.0444 9.17452 -2.97812)
(26.106 3.1716 -2.54236)
(170.884 -10.8946 228.918)
(-35.8514 71.3317 24.9064)
(71.2596 29.7143 -7.25477)
(2.3746 18.974 -1.65583)
(56.9136 9.53905 -3.56798)
(33.4358 5.32467 -4.42921)
(47.2175 1.36159 -2.91094)
(61.2188 -11.4733 -2.20178)
(63.2393 -26.8205 0.4506)
(63.0594 -23.0072 -0.165075)
(58.3697 -8.68714 1.44936)
(52.0664 1.87647 -0.102217)
(48.6731 10.4401 -1.94854)
(46.6429 17.0417 -2.2338)
(42.2072 23.7492 -0.61548)
(37.5535 24.3833 -0.461629)
(39.1583 20.8459 -1.61)
(41.6554 15.7319 -2.0239)
(47.0514 11.2319 -1.60163)
(43.7935 6.9855 -1.05136)
(521.178 -57.4677 81.1164)
(205.265 18.5212 14.4378)
(163.464 39.9463 14.8707)
(56.1181 23.2734 2.9273)
(75.7815 7.9949 2.63624)
(59.3396 3.88607 -3.06068)
(71.8856 -7.95445 -3.70204)
(75.2179 -15.5467 -3.43396)
(64.66 -22.019 2.74452)
(57.567 -22.0475 1.06322)
(54.0472 -5.37641 1.47257)
(52.5457 5.58274 0.723854)
(51.5145 14.3877 -2.02431)
(48.1218 20.6353 -1.83217)
(45.0357 25.558 -1.17972)
(45.4943 23.5856 -1.18141)
(49.8555 16.8404 -1.35998)
(55.1057 9.11381 -0.933398)
(60.242 5.64509 -0.396238)
(59.2244 4.65557 0.332935)
(64.1609 26.8711 38.094)
(-112.024 64.4785 -18.9083)
(57.6372 70.1291 -17.1038)
(-7.12437 41.2566 -0.386241)
(59.164 18.9534 2.00197)
(42.8139 -4.31127 -0.135512)
(55.9419 -13.3645 0.177374)
(72.9154 -18.9624 -0.0944126)
(82.2195 -12.8526 6.41855)
(52.4227 -11.6556 4.80293)
(42.4904 -1.81403 -0.60674)
(43.6713 6.48936 -1.50171)
(47.856 15.6064 -1.49966)
(52.1162 23.3369 -1.56404)
(53.7701 26.4893 -0.867108)
(56.1007 19.737 0.373827)
(58.3192 13.5424 1.41729)
(59.9438 6.5954 1.29533)
(60.8523 4.35623 0.366008)
(56.6415 4.30165 -0.149645)
(214.583 -148.452 88.7754)
(34.123 -29.7712 7.43791)
(96.0891 -0.170784 6.54405)
(32.3653 6.01465 -2.46608)
(73.4836 -6.98197 3.14446)
(42.4903 -26.76 1.25161)
(55.9262 -12.1388 0.549351)
(39.3457 -11.3261 3.29184)
(30.5582 -5.23961 3.37018)
(20.3436 -1.10249 2.19126)
(24.542 -1.21657 -0.142269)
(25.0239 5.90431 -1.50088)
(33.4209 10.4066 -1.53273)
(40.3371 16.6082 -0.241404)
(43.8049 17.9028 1.76302)
(48.6319 14.7193 3.06802)
(50.4637 12.7231 3.32278)
(50.0702 7.62045 2.10571)
(50.1504 5.80541 0.8607)
(46.4624 5.06638 0.320302)
(151.45 -29.6667 14.4771)
(-48.8476 41.4817 -1.42733)
(69.8509 44.1659 -7.88409)
(25.7134 19.5592 -0.290737)
(73.6626 14.6738 2.7214)
(38.5128 0.0839066 -0.583037)
(42.8964 19.5228 0.881076)
(20.5651 0.837774 2.18431)
(26.0669 10.0466 2.34973)
(15.9507 -1.82038 1.90121)
(19.5727 4.64368 1.1949)
(16.3365 0.994478 1.01896)
(20.9319 6.46397 0.789496)
(22.7547 5.37173 1.30038)
(29.4828 8.55375 1.99803)
(32.9158 9.68706 1.77215)
(37.3757 10.5978 1.51625)
(40.1992 7.15275 1.27847)
(42.974 4.44686 1.38861)
(42.4494 3.32689 1.63761)
(338.929 -108.15 46.2531)
(83.1626 -8.27834 -6.13312)
(108.638 -16.3167 2.0797)
(20.0489 -10.614 -5.13721)
(62.3463 -8.54776 3.96146)
(9.74579 -7.95582 -0.757352)
(32.7379 2.74299 1.34122)
(14.2058 -0.00643748 0.602935)
(21.9702 3.83816 1.11335)
(14.9322 0.346812 0.786962)
(18.5833 2.57797 0.746528)
(16.7394 2.10732 0.467793)
(19.9365 4.1219 0.647396)
(21.2101 5.02625 0.667944)
(24.4813 7.09944 0.860073)
(27.7133 5.58371 0.882428)
(32.243 5.06447 1.004)
(35.7581 2.42682 1.25114)
(38.3064 0.467134 1.4474)
(36.1061 0.404924 1.06152)
(272.613 -30.0833 89.7271)
(60.2991 33.3577 41.3852)
(102.961 33.4916 26.9118)
(26.5722 17.6476 11.866)
(58.1487 28.0501 10.5449)
(11.4151 12.31 3.40124)
(33.3407 22.9681 1.2414)
(9.70551 8.17941 -0.0895988)
(23.9196 11.9653 0.316181)
(14.2062 2.63633 -0.0336608)
(22.2045 3.59763 0.239025)
(18.8564 -0.561851 0.030612)
(23.5707 1.21712 0.218348)
(22.7382 0.416136 0.0870502)
(26.1226 2.12105 0.268996)
(27.033 2.00537 -0.0316981)
(28.9386 2.51631 -0.130217)
(29.6734 1.95798 -0.543416)
(30.6866 1.48442 -0.817414)
(26.5839 1.06879 -1.58515)
(-4.83997 165.454 -23.852)
(-138.288 2.18022 19.3322)
(51.8219 39.9231 -4.68768)
(-79.6488 10.8008 3.86359)
(33.3327 16.5547 2.06492)
(-32.5605 5.42389 -0.155488)
(17.8535 4.44702 -0.320948)
(-5.61271 0.280515 -1.29307)
(15.3374 -0.648169 -1.67907)
(9.12278 -2.57041 -1.63811)
(19.1455 -2.69373 -1.18847)
(18.5732 -2.21603 -0.678766)
(24.0807 -0.563826 -0.0552241)
(23.9645 1.01176 -0.0209695)
(26.4021 2.61796 -0.0362462)
(26.502 2.89396 -0.162975)
(27.4365 3.01762 -0.624542)
(27.5974 2.64203 -1.04127)
(28.5785 2.13057 -1.37792)
(24.738 1.27528 -2.03843)
(29.9356 70.1677 -104.087)
(-168.242 1.60969 24.0992)
(59.1968 4.14962 -22.9733)
(-34.4646 2.73727 -1.53107)
(41.0355 3.1449 -0.591084)
(9.12121 10.8716 0.326743)
(35.1548 8.77027 -0.130246)
(18.2948 6.40332 -1.855)
(30.7823 3.23567 -1.74519)
(23.896 -0.864886 -2.14493)
(31.507 -4.15533 -1.82826)
(30.3606 -5.81324 -1.86039)
(35.267 -4.30983 -1.30501)
(35.0421 -2.69395 -1.18947)
(37.7968 -0.230934 -0.492406)
(37.2288 1.39536 -0.137269)
(38.4032 2.68171 0.338407)
(38.4322 3.16119 0.319587)
(39.5675 3.13799 -0.12474)
(35.3577 2.56342 -0.394671)
(39.1559 -91.2407 -156.34)
(-231.469 4.54536 12.1826)
(69.7828 1.21484 -29.6773)
(-19.2761 9.67911 -0.85409)
(56.0916 4.53157 -3.2674)
(17.4431 5.85086 -0.65071)
(43.4195 2.00353 0.521225)
(26.1769 1.27381 -1.63732)
(37.0471 -3.66868 -3.57975)
(29.8258 -5.65647 -5.75858)
(36.4668 -8.56294 -4.30811)
(36.2482 -7.51829 -3.5787)
(39.9365 -5.36419 -2.93601)
(38.7995 -2.66995 -2.62063)
(40.8563 -0.260542 -1.98895)
(40.613 1.7701 -1.41716)
(42.5524 3.09814 -0.69137)
(44.1672 3.99464 -0.0233542)
(46.7359 3.83372 0.367994)
(43.9468 3.15893 0.680556)
(352.867 -90.9872 218.931)
(148.772 -2.40733 47.1691)
(129.915 -15.0823 -5.01305)
(84.2461 12.1429 -8.99159)
(104.296 5.70694 -3.96712)
(94.0073 17.9504 1.75345)
(110.083 21.1029 7.26411)
(108.087 24.3359 8.45848)
(116.118 21.8322 8.45484)
(113.847 17.7264 7.68575)
(110.965 2.14971 8.57138)
(90.9954 -4.02714 8.11831)
(83.025 -3.22262 5.1653)
(73.9501 -2.20435 3.34324)
(72.0334 -0.898969 2.70602)
(68.2919 -0.668552 2.54082)
(67.5434 -0.0536072 2.68172)
(66.6881 0.496168 2.6451)
(68.0725 0.6444 2.42478)
(63.3267 0.590711 2.0892)
(129.641 -8.83713 -163.566)
(55.9678 21.7868 72.5415)
(159.485 -4.68382 -5.87853)
(99.0573 -12.6913 -10.6499)
(119.69 7.45035 -11.0317)
(86.1224 7.09683 -8.49284)
(92.1439 7.45651 -2.92476)
(85.5321 3.6345 -0.510555)
(94.3676 3.60077 1.91147)
(93.5322 4.11911 2.45241)
(95.8798 5.22996 3.54802)
(91.8678 5.92299 4.34894)
(89.681 4.88641 5.30803)
(84.9282 3.12185 5.26547)
(85.0299 1.70545 4.14076)
(83.6573 0.0978177 1.84705)
(83.0855 0.00185655 0.759945)
(81.3521 0.0857048 0.326986)
(80.6863 0.458604 -0.0150178)
(74.2635 0.604661 -0.0581625)
(-16.3119 61.2564 -139.32)
(-171.692 11.4422 -34.2958)
(61.6585 3.88561 5.9984)
(-14.145 -0.844193 11.8101)
(61.5607 -2.63719 10.2755)
(32.1842 -8.5358 2.08743)
(59.9434 -9.75744 2.23671)
(48.9378 -8.41649 -2.21728)
(59.5531 -5.85413 -1.65777)
(55.1296 -1.89495 -2.73146)
(59.6615 1.49271 -0.93966)
(56.5026 4.4163 -0.102963)
(57.3252 5.99914 1.89043)
(55.5894 5.96682 2.73367)
(55.652 4.9746 2.60933)
(53.8683 3.7591 2.09198)
(53.3896 3.11547 1.53361)
(52.4478 2.81603 1.24457)
(53.2659 3.13809 0.545933)
(48.8719 2.56519 -0.304887)
(103.21 -47.764 21.4452)
(-89.3855 -84.5478 -42.8748)
(52.2837 -38.8001 -15.3774)
(-10.9994 -10.1315 3.95054)
(57.8397 7.52131 4.50098)
(31.8882 4.85141 2.59208)
(54.5013 4.78209 3.25811)
(43.2241 0.41832 0.976644)
(51.4233 0.433976 0.627711)
(44.9029 1.26509 -0.817888)
(47.5629 3.19361 -0.674741)
(43.0185 5.54225 -1.01566)
(43.2714 7.07399 0.0295469)
(41.4018 7.58339 0.711142)
(42.165 6.87676 1.02122)
(41.4963 5.85284 0.93457)
(42.0724 5.02959 0.796746)
(42.0626 4.39578 0.460347)
(43.3207 4.164 -0.075221)
(40.2158 2.99262 -0.431972)
(73.723 -145.978 -28.6973)
(-61.6169 -92.5531 5.44967)
(78.9412 -70.3462 19.8348)
(-33.0532 -31.8116 2.68894)
(48.0259 -21.7314 3.35577)
(-1.09987 -12.3869 2.92079)
(41.6934 -11.4697 3.65759)
(24.3973 -6.18642 2.20496)
(40.9587 -3.91483 2.67685)
(33.6733 0.297648 1.90507)
(39.9066 2.74628 2.44347)
(36.1936 5.6713 1.60253)
(37.6007 6.84429 1.60439)
(35.5716 7.31886 1.29208)
(36.067 6.60257 1.16847)
(35.3426 5.35547 0.948187)
(36.2834 4.31863 0.767438)
(37.3857 3.74543 0.474961)
(39.5338 3.69112 -0.169797)
(37.8483 2.78386 -0.457059)
(125.515 -40.8373 -27.9965)
(52.4916 -16.4028 -20.3161)
(121.16 4.55615 -5.27612)
(38.5757 2.01266 2.96751)
(69.5536 2.22676 3.58395)
(32.6391 -1.07548 2.27063)
(51.0498 -7.58746 2.54256)
(38.8383 -1.6572 1.18557)
(47.2116 -2.6251 1.28663)
(41.4049 3.65154 0.583947)
(44.5172 5.49375 1.15508)
(39.7416 9.75552 0.621997)
(39.0369 10.1913 1.18908)
(35.745 10.8268 1.25273)
(35.6798 9.45093 1.0489)
(34.4577 7.09659 0.938437)
(36.3326 4.47351 0.97026)
(37.2408 3.48163 0.557339)
(38.8025 2.44416 0.0831571)
(35.9143 1.61581 0.152971)
(89.5065 -173.577 0.647552)
(-134 -64.3832 -47.6979)
(58.2876 -22.9199 -13.8936)
(-58.0439 -10.4062 -0.791672)
(49.8132 -12.4587 -2.48027)
(-9.94366 -3.27314 0.322735)
(37.4044 -13.6138 0.999687)
(19.0634 -5.09591 -0.279684)
(33.746 -3.68147 -0.0224264)
(29.4936 2.37057 -0.837568)
(35.932 6.47552 -0.597497)
(33.6047 11.4325 -0.462817)
(34.8879 13.0611 0.152135)
(33.0394 12.7138 0.430931)
(32.8576 10.0828 0.541105)
(32.3921 5.7421 1.81602)
(33.6292 3.39193 2.45551)
(33.4825 3.74987 1.83973)
(32.9597 3.91405 1.82332)
(28.0656 3.01464 1.51248)
(172.564 -150.28 -4.54161)
(99.7298 -49.5824 -33.2256)
(153.087 -24.317 -21.0352)
(68.0123 -5.63479 -9.07451)
(79.143 -18.8913 -4.08487)
(36.2014 -4.74819 -2.56064)
(38.1062 -26.0816 -2.07977)
(24.0321 -3.25922 -0.601013)
(32.3137 -12.0415 -0.266939)
(29.6566 -0.774743 -0.589507)
(35.7377 0.796432 -1.47371)
(33.182 9.68928 -1.59982)
(34.3296 11.6939 -0.75085)
(32.2844 14.2074 0.749435)
(32.1403 10.6236 1.91204)
(29.0286 8.5431 3.65975)
(27.2736 7.86295 3.10858)
(24.5552 8.84379 1.10493)
(22.666 7.37485 0.508641)
(19.9427 3.64296 0.810262)
(150.555 -41.1328 -148.129)
(32.1055 -27.3607 -61.2393)
(118.53 32.5216 -35.3402)
(31.836 17.6609 -13.8664)
(62.8809 10.9533 -5.36069)
(20.2583 18.9319 -2.5887)
(29.0055 4.50441 -1.76834)
(18.5353 -7.07019 -1.16039)
(29.2665 -2.79593 -0.589975)
(29.956 -4.61333 0.607492)
(35.5038 5.51291 -0.456911)
(35.3608 10.7065 -1.97261)
(35.3516 19.6921 -1.98629)
(33.2902 21.9911 -0.539953)
(24.7592 15.7151 2.50938)
(23.587 15.7385 2.48407)
(21.3364 13.4437 0.532947)
(19.5438 11.8386 -1.10043)
(19.0598 7.83805 -1.96555)
(16.6936 3.48678 -1.09733)
(258.377 -133.348 227.837)
(-120.475 -2.62843 4.45089)
(107.424 17.7011 -5.56016)
(15.4036 10.6533 -1.45834)
(59.18 5.48915 -1.15406)
(40.5647 13.649 -2.70102)
(51.0098 10.9159 -1.47469)
(42.4347 -11.7013 -1.66956)
(40.9337 -12.3147 -0.233917)
(40.0996 -7.34668 0.840467)
(39.3633 1.36451 1.27041)
(38.3278 9.38284 -0.801977)
(36.322 18.0353 -2.51458)
(33.6264 22.7765 -1.67637)
(27.8359 25.7807 1.57504)
(22.127 18.4716 1.48769)
(22.8739 14.9898 -0.637309)
(21.8647 11.9504 -2.0541)
(22.9288 6.59941 -2.85669)
(17.1813 2.15038 -2.54219)
(103.523 66.6182 232.941)
(-110.598 40.8648 34.0763)
(60.5797 15.6448 -2.10695)
(-9.59564 15.9853 -1.66067)
(44.9066 9.74477 -4.29919)
(20.2831 6.15755 -4.58101)
(34.2772 1.83717 -2.86871)
(44.1526 -12.2554 -1.62652)
(45.1041 -18.8434 0.417717)
(44.9162 -11.7799 0.369409)
(41.537 -1.35667 1.71206)
(38.9219 6.69767 -0.331728)
(35.7869 13.5275 -2.16582)
(32.5598 18.3192 -2.07853)
(28.3537 21.339 -0.0555032)
(27.4401 18.8428 -0.502851)
(30.2796 14.7428 -1.50462)
(32.674 10.9315 -1.59752)
(36.3108 7.49217 -1.53835)
(31.5472 4.16705 -1.26834)
(289.678 -95.4345 187.974)
(-28.7227 4.03317 56.587)
(105.187 22.3566 25.4434)
(18.2693 17.2502 4.96699)
(54.349 5.08254 1.91356)
(36.3584 0.271395 -2.86581)
(46.1562 -11.3501 -3.45281)
(47.005 -16.6548 -2.31621)
(42.055 -18.0971 2.88141)
(42.9624 -12.8351 1.63893)
(42.4538 1.07283 2.11797)
(43.2919 8.79513 -0.0812587)
(37.903 15.6946 -1.97465)
(35.1206 19.9463 -1.81624)
(33.7602 20.6908 -0.967747)
(35.4436 14.6204 -0.891045)
(39.1425 8.89863 -1.20284)
(42.809 4.81271 -0.66703)
(46.3292 4.03766 -0.369818)
(43.6554 3.69789 0.137052)
(250.006 -91.8716 77.9652)
(25.4379 42.1589 -0.50669)
(68.351 65.8191 -3.52878)
(-15.8262 42.446 -1.15686)
(46.2008 19.9832 0.43967)
(25.4117 -6.45053 -0.755672)
(36.2412 -18.2275 0.614611)
(42.6381 -16.9772 0.181379)
(38.9387 -11.2834 7.60625)
(34.6292 -4.68129 3.54291)
(33.0367 3.21359 -1.19621)
(34.32 10.3164 -2.19102)
(37.2366 16.0799 -1.88674)
(39.4411 19.4936 -1.49638)
(41.1091 18.6265 -0.325158)
(41.878 10.0914 1.07182)
(43.1144 6.46997 1.31154)
(44.7601 3.44745 1.00825)
(45.9789 3.47229 0.292449)
(41.8864 3.99247 -0.220993)
(130.103 -173.298 64.1941)
(-40.6101 12.9841 8.77456)
(73.8752 19.4526 9.65823)
(-3.82329 14.3794 -2.61064)
(53.4197 -3.01872 4.4882)
(19.3556 -24.8787 0.981332)
(34.8391 -8.20139 1.07762)
(15.8166 -7.23059 4.33713)
(18.2143 -3.67076 3.54658)
(12.0639 1.10974 1.6622)
(18.6425 1.75289 -0.614849)
(18.659 7.28559 -1.72998)
(25.8157 9.82175 -1.40226)
(29.8562 12.5915 0.210109)
(30.7806 12.1544 2.34943)
(34.271 8.85188 3.16852)
(36.6334 8.31354 2.84914)
(37.4656 5.19458 1.67837)
(38.7336 4.86481 0.632459)
(35.6933 4.23869 0.225737)
(65.6546 -78.7009 -73.1443)
(-57.9013 50.1579 5.71152)
(51.7935 49.7654 -0.333197)
(6.74498 24.6786 2.08033)
(59.7146 19.164 4.29604)
(19.7242 3.52617 0.391968)
(28.0433 24.6748 1.46152)
(4.38153 0.741862 2.11343)
(13.1267 11.6269 1.88725)
(4.36601 -1.63401 1.58037)
(10.523 5.6725 0.844336)
(8.12273 1.01936 0.828144)
(13.5595 6.19961 0.747357)
(15.1381 4.26583 1.37314)
(21.2141 6.95889 1.86476)
(24.0722 7.37664 1.58994)
(27.8021 8.12689 1.28998)
(30.4554 5.30048 1.07283)
(33.091 4.04946 1.00771)
(32.6352 3.53904 1.35168)
(84.7243 -8.11687 43.1792)
(-56.0739 16.7432 13.8098)
(71.281 -6.10286 6.35529)
(-25.0074 -3.35288 -3.14261)