/*--------------------------------*- C++ -*----------------------------------*\
  =========                 |
  \\      /  F ield         | OpenFOAM: The Open Source CFD Toolbox
   \\    /   O peration     | Website:  https://openfoam.org
    \\  /    A nd           | Version:  10
     \\/     M anipulation  |
\*---------------------------------------------------------------------------*/
FoamFile
{
    format      ascii;
    class       volScalarField;
    location    "6.6";
    object      k_0;
}
// * * * * * * * * * * * * * * * * * * * * * * * * * * * * * * * * * * * * * //

dimensions      [0 2 -2 0 0 0 0];

internalField   nonuniform List<scalar> 
12920
(
1238.57
743.081
638.292
466.021
331.727
252.502
197.676
164.403
144.669
137.581
131.101
128.508
125.403
123.649
121.956
121.969
122.409
119.788
112.362
90.9787
1364.47
1627.82
1853.3
1422.94
804.897
486.843
333.071
262.955
216.578
197.558
195.242
197.577
199.902
201.061
200.073
198.777
194.574
183.988
158.626
108.76
650.724
1148.08
1711.65
1547.23
1010.96
620.8
410.755
313.174
242.796
203.508
169.577
151.711
135.226
124.584
114.966
107.896
102.942
97.7758
91.0113
78.7102
492.046
1758.34
1754.24
1448.56
939.259
600.062
391.149
284.24
214.586
172.045
140.908
121.36
105.883
96.5047
88.0925
82.0685
76.3956
71.3283
67.9015
64.8503
8477.02
4116.45
2209.44
1439.29
928.366
654.336
456.998
339.249
277.56
232.403
193.524
154.666
119.818
98.5799
86.1128
79.6936
74.8156
70.9275
68.4082
66.1615
2152.86
1823.98
1358.35
1171.38
822.468
620.463
483.423
419.544
366.776
330.481
306.688
274.948
226.771
166.472
118.608
91.6841
80.9934
76.1296
74.5961
73.711
3576.61
3673.84
3226.18
1787.44
878.414
609.729
478.361
410.832
349.52
303.105
267.858
247.767
229.373
193.085
147.372
109.658
90.8711
83.8599
82.3849
82.6991
9266.31
6814.84
3806.8
1913.8
993.525
665.133
410.125
243.658
235.465
197.266
180.401
165.121
152.434
130.419
142.212
104.458
91.1379
85.3936
82.3213
82.1718
1418.51
2558.29
2326.15
1487.69
946.629
532.007
321.778
159.886
161.964
167.781
163.172
144.779
137.322
126.678
120.772
102.103
93.1592
89.8298
86.4726
81.2626
2254.77
2609.59
1962.35
1137.72
772.744
458.854
303.571
224.131
223.715
218.694
160.06
118.079
132.418
134.623
184.032
136.885
106.72
96.4322
90.1396
80.7469
10896.2
3658.67
1992.54
1078.36
650.196
325.519
184.205
119.415
141.134
133.439
67.7052
80.1766
97.8431
104.119
176.158
158.635
112.845
96.3128
89.467
80.6765
5767.51
1598.19
1255.13
1148.13
737.53
318.211
182.459
79.8051
52.8852
35.0085
51.1996
99.2614
102.87
85.3978
130.707
136.121
111.318
103.298
97.0042
82.7888
416.507
1301
1771.27
1374.29
914.166
687.69
410.546
221.54
157.513
139.444
131.845
131.369
126.574
117.056
150.579
129.01
119.225
109.538
96.6462
79.2294
917.666
1687.28
1582.62
1097.7
760.176
536.695
452.248
335.751
265.019
198.248
163.941
139.47
133.594
128.751
123.437
118.91
112.541
101.688
87.9365
77.3063
219.716
1409.81
1417.08
892.399
628.174
446.681
372.477
291.449
231.777
189.111
154.32
130.192
116.886
107.758
101.684
97.2928
92.1357
87.2602
83.0094
81.9585
1293.78
2585.7
1966.86
1076.42
737.668
493.604
363.488
287.585
227.686
194.507
160.108
140.03
121.832
111.794
103.543
98.4729
94.1319
91.8056
91.4114
94.448
8150.15
4644.11
1962.59
964.766
667.329
365.677
281.74
215.058
196.359
170.514
153.915
142.259
130.333
123.469
116.37
112.593
110.066
109.867
110.555
114.106
3924.12
2502.51
1372.03
939.036
668.778
450.204
301.099
233.068
191.764
176.525
161.916
157.503
151.738
149.99
147.215
145.806
144.995
145.205
146.611
149.371
561.093
1740.43
1466.15
895.434
647.601
447.5
304.862
245.707
203.867
181.962
162.538
153.786
151.447
152.307
153.846
156.853
159.277
162.167
166.009
164.732
1501.74
2057.23
1493.21
862.467
578.484
444.222
348.115
282.888
229.844
185.48
144.481
113.848
96.2958
89.8094
87.8943
86.1051
85.2884
83.8433
82.4608
77.0959
334.097
1366.8
1380.21
946.379
600.766
467.576
365.132
317.055
286.189
277.524
268.188
265.573
264.591
265.737
269.208
273.343
271.961
264.52
247.591
192.815
1289.81
4774.41
4508.99
2898.47
1626.98
1073.18
718.196
622.226
537.186
517.593
504.755
507.846
506.05
504.03
494.786
486.031
464.771
434.989
395.587
324.918
217.357
2747.05
3835.88
3469.78
2078.23
1338.25
869.707
765.146
613.106
532.739
445.814
406.17
364.491
342.155
320.476
305.599
293.23
280.876
267.488
244.283
268.243
4514.22
4648.33
3429.33
1979.66
1363.02
896.869
724.146
553.367
452.818
370.504
322.881
282.759
261.877
242.091
230.423
218.286
208.205
201.267
194.526
7724.11
7545.04
5225.58
3383.08
2061.56
1507.14
1063.61
839.934
687.793
587.109
488.542
409.953
320.53
272.491
236.202
224.673
214.316
206.533
201.191
196.912
19750.2
7302.33
4339.27
3050.68
1918.02
1484.13
1188.29
1034.13
891.764
818.191
749.785
690.671
560.874
389.048
279.67
242.752
229.92
221.68
217.277
216.319
7844.1
8591.17
6876.81
3882.39
1983.3
1531.56
1226.49
1046.06
894.154
784.074
686.139
645.083
588.559
485.13
360.669
278.175
250.477
242.059
240.323
242.528
12639.5
12444.8
7611.95
4152.11
2198.66
1595.35
1236.82
1048.3
877.255
728.266
651.073
597.425
543.04
453.926
326.734
268.35
250.397
241.591
238.244
241.751
7417.5
6762.25
4722.93
3478.05
2068.3
1584.98
1218.09
1055.75
927.68
812.542
707.945
653.365
618.327
518.33
323.714
260.058
247.544
238.662
233.157
233.12
8712.82
6712.7
4636.87
2624.89
1754.58
1511.83
1375.01
1234.78
1098.77
911.417
658.181
602.066
597.2
544.674
397.537
288.439
258.346
246.673
238.169
233.014
48811.4
13396.1
4968.66
2431.74
1551.48
1080.81
897.42
761.067
670.111
557.953
419.016
416.215
389.606
420.685
414.115
300.685
267.432
255.944
246.125
237.487
5113.96
3200.96
3387.27
2872.49
1786.21
1132.94
912.131
619.294
424.593
338.794
446.701
470.59
400.09
327.095
313.382
290.82
285.449
280.512
264.858
238.929
1077.8
3590.28
4413.67
3246.56
2198.44
1666.16
1272.82
894.646
628.934
532.889
473.715
432.521
389.39
341.67
334.252
321.607
313.594
294.197
260.163
229.121
1842.03
4321.45
3901.83
2737.18
1902.95
1403.98
1156.15
855.778
654.225
496.934
417.25
365.733
343.08
332.683
316.156
309.15
296.733
277.017
248.951
231.341
833.577
4358.21
3855.51
2132.6
1578.42
1124.31
963.06
748.365
584.909
484.636
397.776
346.005
312.548
291.853
277.26
268.767
258.801
251.651
245.997
246.716
3024.1
7451.72
4896.77
2614.35
1746.07
1168.63
891.926
715.982
569.823
495.347
412.179
372.098
329.271
309.945
290.016
281.631
274.013
272.903
273.91
282.393
14224.1
5612.09
3968.02
2394.72
1612.85
884.699
723.525
556.354
512.307
446.717
409.964
384.926
360.912
348.513
334.837
329.284
325.656
326.016
328.128
336.357
4638.6
3143.09
2611.89
2264.39
1599.71
1089.51
739.585
602.188
504.087
467.173
434.044
425.013
414.927
413.547
410.5
410.156
409.938
411.257
414.918
425.564
1078.51
4145.67
3674.82
2295.05
1578.25
1186.01
804.796
688.792
547.37
498.99
437.435
418.258
411.444
417.455
424.071
436.689
445.825
457.338
468.978
475.442
3042.22
3319.57
2627.09
1746.51
1251.87
966.555
759.924
619.627
501.845
395.012
291.951
215.932
175.215
165.8
167.783
174.266
177.925
180.659
181.317
178.077
94.5348
920.83
1672.26
1311.34
832.593
635.294
525.748
469.437
425.393
393.686
364.736
341.696
324.942
311.424
304.449
292.027
281.152
254.945
232.212
178.085
4778.94
5672.89
5258.18
3361.75
2085.27
1490.44
1096.34
930.289
780.95
737.604
691.034
681.937
661.018
648.99
621.853
596.904
555.161
508.656
461.46
419.352
884.587
4578.66
5020.68
4204.62
2441.83
1872.28
1328.38
1086.59
824.181
700.225
589.907
537.183
483.108
453.574
424.308
406.018
389.421
373.059
361.268
345.18
1922.39
7104.08
6179.06
4033.53
2468.22
1798.5
1261.26
977.162
741.025
598.681
494.728
430.813
382.128
354.295
330.37
316.133
302.877
293.942
288.882
285.594
8208.48
9784.95
6982.45
4088.09
2593.49
1865.24
1385.09
1073.16
875.902
718.081
595.603
497.185
413.952
365.768
330.21
313.525
299.352
291.191
286.001
284.796
16506.6
10887.8
6226.55
3766.15
2541.91
1902.2
1564.67
1305.05
1100.07
958.964
839.183
724.037
583.336
465.465
389.568
348.234
324.681
311.723
306.604
306.803
10159.7
11572.6
7962.3
4295.7
2631.7
2026.85
1623.71
1328.65
1115.69
968.643
846.491
768.85
658.823
547.195
450.247
386.004
356.631
342.291
338.331
340.581
8973.12
9965.53
7701.38
4526.34
2821.29
2164.05
1807.9
1452.89
1174.49
959.258
846.205
752.861
659.468
532.891
408.637
367.847
349.156
340.117
338.949
342.701
10800.2
8099.06
5804.47
3866.89
2595.86
2131.27
1832.09
1517.74
1227.39
1016.56
886.815
804.464
710.668
556.719
387.23
349.068
335.223
328.005
325.351
325.518
10541.5
8232.77
5634.66
3267.36
2372.34
2009.63
1906.71
1590.89
1298.67
1023.96
840.943
773.293
705.209
589.551
425.135
358.685
339.975
329.492
322.166
318.7
19487.8
10325.6
5962.14
3226.58
2157.66
1560.33
1417.55
1128.75
919.002
785.384
551.944
384.051
434.615
497.273
445.374
366.334
351.652
340.319
329.348
322.279
8361.87
6190.07
5512.27
3761.66
2442.12
1683.92
1428.39
1028.52
776.446
687.692
679.255
584.874
459.141
386.735
376.964
388.366
382.52
365.541
340.724
322.781
6048.63
5883.67
6138.09
4370.03
2912.16
2129.48
1723.21
1220.7
875.098
732.322
625.827
556.086
494.677
445.056
437.268
422.03
401.385
370.59
340.194
320.332
12233
7909.27
5564.5
3686.6
2568.07
1830
1472.25
1055.39
818.424
636.755
552.658
492.289
462.895
443.404
420.495
404.799
381.589
360.483
340.103
331.029
3042.07
7009.98
5370.51
2976.45
2136.23
1464.31
1266.12
954.441
756.913
615.607
523.222
460.415
424.893
399.962
382.251
370.841
360.366
354.443
351.881
355.437
4174.13
8559.2
6329.85
3512.23
2261.43
1447.71
1162.94
894.48
738.621
627.837
540.319
489.68
446.309
424.53
404.551
396.727
390.733
390.902
393.301
402.898
11259.6
10400
6661.4
3648.44
2129.58
1205.25
984.383
753.368
689.803
600.08
557.57
525.617
500.33
487.14
473.715
468.702
465.277
465.837
467.756
474.855
9966.88
7207.71
4576.07
3161.06
2065.88
1353.49
975.009
791.762
682.395
628.974
592.689
581.311
573.231
574.395
574.237
576.247
576.821
578.652
580.38
583.94
12632.1
7514.79
5060.42
3112.11
2036.68
1497.29
1017.3
857.107
677.499
615.358
548.859
538.633
538.892
558.29
575.159
602.285
617.023
633.961
641.902
643.482
4343.08
4004.72
3025.47
2106.94
1559.34
1215.36
974.696
786.925
623.415
474.065
354.572
279.993
243.288
228.239
221.171
214.072
209.331
204.729
202.949
197.659
1105.09
2544.41
2467.31
1530.22
1002.23
757.625
643.178
565.575
507.329
456.373
416.531
378.287
348.735
316.05
288.297
252.28
226.051
194.437
178.016
145.935
11225.7
8967.13
6537.14
3711.77
2632.28
1794.93
1438.75
1214.03
1041.08
962.408
879.599
839.076
788.525
748.434
700.931
652.462
603.232
563.02
531.817
516.926
2286.76
7493.37
6680.14
4286.67
2896.73
2146.15
1651.27
1282.21
1015.73
850.207
732.446
651.147
589.304
543.189
509.76
484.416
467.978
453.213
446.463
440.49
8554.7
9924.77
7376.99
4215.17
2969.81
2076.71
1583.08
1163.03
914.129
720.493
611.862
523.816
474.457
435.94
412.566
395.305
384.201
377.225
375.428
377.384
10937.4
11094.1
8407.6
4571.27
3165.52
2153.13
1704.83
1260.12
1049.37
818.048
689.834
566.773
497.877
445.147
415.038
395.202
382.739
375.665
373.238
375.533
11899.4
12877.1
8169.39
4279.99
3213.18
2236.05
1924.07
1531.31
1285.39
1045.08
887.635
723.694
604.98
514.032
464.732
430.929
411.54
399.89
396.722
398.663
16580.2
13385.1
8258.46
4449.84
3313.91
2420.31
1959.43
1540.38
1291.66
1081.66
933.551
802.66
680.15
577.966
510.352
469.051
449.567
438.178
435.372
437.772
8827.14
9882.71
7973.85
4579.7
3464.68
2652.86
2204.1
1669.84
1345.51
1088.95
944.149
802.637
682.005
554.272
478.966
453.822
442.331
438.142
438.218
441.166
10384.6
9825.52
6814.58
4152.08
3082.88
2538.19
2251.8
1712.59
1356.66
1113.29
963.482
835.83
691.296
544.137
442.485
429.162
420.142
417.321
416.944
417.237
14416.5
8925.31
6485.7
3877.89
2880.98
2328.66
2221.32
1729.99
1351.76
1094.03
935.965
807.604
686.172
558.832
452.061
428.446
416.247
408.691
405.103
404.715
14125.5
11102.4
7137.29
3911.34
2667.65
1908.13
1745.29
1364.57
1121.19
975.142
733.123
501.828
486.664
503.22
454.976
438.208
427.554
415.912
408.535
407.002
27999.7
10371.5
7529.28
4415.94
3018.79
2105.02
1793.64
1301.25
1024.43
895.135
780.149
619.347
485.092
438.624
445.344
473.094
455.933
431.809
414.392
407.77
19413.1
9711.24
8722.32
5387.65
3662.47
2541.09
1994.51
1399.4
1033.16
854.954
722.767
640.78
575.973
533.276
523.27
495.156
467.81
438.861
418.688
411.4
18639.7
8756.8
7211.47
4614.37
3270.58
2179.28
1756.09
1224.81
969.721
747.652
674.651
591.288
565.661
529.657
504.283
480.2
459.012
442.028
430.63
430.308
14577.7
11034.1
7149.27
3704.41
2684.28
1761.86
1554.5
1127.43
912.446
720.936
635.806
555.658
524.927
492.8
477.245
464.664
457.845
455.028
455.556
463.129
10545.4
11087.5
7729.74
4138.31
2763.09
1699.78
1434.01
1050.36
902.91
742.31
662.637
593.931
557.806
531.342
516.618
509.201
506.994
507.924
510.718
519.942
16188.6
12312.4
8768.96
4447.1
2576.09
1480.48
1226.22
917.711
854.401
731.355
697.261
650.872
633.574
616.551
608.129
601.939
600.316
600.263
601.117
605.602
12066.7
8010.42
6325.76
3789.36
2494.78
1544.48
1198.19
935.792
851.524
768.963
748.614
726.845
728.146
728.915
733.15
736.315
737.96
737.952
735.839
730.053
9328.33
7377.87
6220.23
3673.56
2449.12
1645.37
1151.77
929.603
770.043
707.483
663.802
664.57
674.644
709.379
734.689
765.479
783.694
798.566
800.287
793.863
2804.65
4361.95
3457.33
2210.54
1633.29
1262.73
998.986
779.375
595.81
446.186
348.691
294.933
267.053
249.687
238.47
228.712
224.058
218.802
215.646
206.186
8056.91
4232.77
2907.67
1537.85
1073.91
787.282
666.174
575.445
508.316
444.879
383.542
319.943
264.375
216.742
183.445
158.698
142.976
129.849
121.902
111.715
12653.5
11969.6
9572.1
4424.39
3956.03
2195.68
2180.81
1686.65
1628.94
1382.59
1310
1133.76
1077.22
956.565
910.276
822.047
777.983
731.069
717.952
727.381
27083.6
12965.7
9892.23
4609.35
4204.09
2593.67
2391.57
1649.19
1505.06
1153.61
1079.48
892.314
848.227
747.892
724.418
674.555
663.876
644.663
645.585
653.581
36740.8
14113.2
9504.11
4424.15
4158.88
2463.18
2274.23
1481.7
1335.54
975.2
906.2
738.373
707.85
633.119
619.998
587.118
580.151
568.876
569.981
581.452
21034.9
12522.1
10635.2
5108.69
4443.94
2598.93
2417.39
1615.87
1475.61
1067.45
973.206
765.725
729.169
641.64
626.736
592.586
586.355
574.842
575.26
583.768
27532
13827.8
10160.1
4738.77
4539.32
2706.35
2672.3
1975.97
1747.62
1287.54
1130.86
881.167
794.83
694.514
668.932
633.484
620.905
606.637
603.428
609.387
52423
20542.3
10812.4
4810.5
4791.25
3046.9
2713.25
1947.57
1722.34
1345.77
1205.59
977.762
867.701
755.376
713.008
679.784
672.288
659.867
656.332
660.209
20851.5
12057.6
9663.74
4847.27
4847.27
3421.46
2674.37
1933.92
1614.33
1291.25
1130.21
916.422
790.511
666.103
695.231
673.528
664.392
660.941
658.001
660.285
9893.72
11010.2
9233.67
4740.75
4219.28
3116.71
2758.01
1911.11
1554.52
1279.35
1090.96
896.235
739.227
621.323
594.713
647.232
630.192
626.794
625.024
625.863
39556.1
11932
8202.33
4601.38
3781.85
2677.13
2588.97
1965.8
1551.5
1270.79
1042.29
838.212
713.775
626.149
594.1
636.017
610.969
602.466
601.511
604.703
25976.7
11669.4
8981.09
4599.92
3641.73
2290.51
2095.76
1698.32
1425.5
1180.37
904.961
631.2
571.696
592.412
589.29
643.34
616.581
604.676
603.441
608.353
24994.5
12567.5
9752.8
4838.01
3999.85
2552.55
2263.77
1627.41
1317.87
1096.01
885.277
694.764
607.109
588.709
617.976
680.737
640.755
615.941
608.984
612.506
17467.8
12786.9
12135.9
5780.84
5047.52
3112.24
2345.61
1592.73
1284.03
1025.42
915.106
804.483
754.309
695.212
745.403
690.157
655.652
630.06
620.821
624.571
17429.9
11277.8
10309.9
5020.85
4516.47
2610.4
2377.03
1610.21
1355.11
1006.23
967.953
823.926
813.193
743.409
723.209
678.344
668.02
649.522
648.144
655.768
10966.1
13718.3
10331.7
4368.67
3755.13
2172.57
2185.54
1476.78
1290.11
953.656
905.84
771.371
759.021
707.996
700.601
682.132
684.769
683.152
687.155
701.752
37277.3
15463.4
9592.86
4565.41
3684.93
2011.34
2003.45
1381.58
1305.31
1005.17
965.574
828.756
821.445
768.926
772.526
755.935
762.995
759.675
763.646
773.66
22370.9
14631.4
11507.1
5183.01
3491.53
1846.93
1761.17
1218.59
1234.46
1000.47
1011.89
911.797
925.962
885.271
894.747
878.031
884.646
878.747
879.531
880.602
23852.4
9916.56
8989.08
4265.18
3515.62
1829.4
1753.25
1231.65
1259.24
1069.47
1107.63
1029.73
1069.97
1041.14
1070.13
1057.78
1068.93
1058.51
1051.12
1031.56
19853.4
12881.8
9203.36
4245.16
3510.01
1841.74
1595.99
1062.74
1067.25
932.535
987.637
955.912
1020.05
1033
1087.88
1104.09
1136.28
1135.9
1125.58
1092.06
3245.12
3966.25
3042.4
2054.18
1504.8
1103.96
811.061
563.144
415.361
330.349
288.407
259.364
240.001
225.895
218.608
212.535
208.788
200.354
193.962
177.604
872.21
849.714
640.011
1074.09
952.164
953.62
769.968
786.526
579.121
461.162
919.152
833.74
668.698
521.728
612.794
681.839
686.892
932.906
734.644
865.255
806.773
424.929
680.549
606.95
638.722
469.694
773.544
642.385
181.496
302.758
204.045
861.517
859.784
1084.36
1057.22
157.6
200.53
205.055
849.951
818.287
1044.14
1004.74
167.347
207.36
215.161
798.24
740.86
984.623
891.204
166.885
215.555
192.585
722.213
655.471
850.254
681.192
148.511
171.457
129.871
635.212
593.26
626.991
555.678
139.123
127.624
132.258
585.605
571.584
553.62
557.218
130.821
135.544
137.698
560.883
510.79
555.497
525.72
80.0156
135.994
114.539
479.574
354.479
507.622
424.907
223.479
246.748
163.706
1123.8
1098.89
862.163
813.818
225.562
165.049
189.041
1076.77
1009.71
794.588
759.94
221.012
192.353
181.752
984.681
886.714
746.177
662.503
186.99
173.541
112.43
843.07
653.744
621.101
437.322
118.676
91.2408
76.6628
592.209
527.124
398.12
385.214
128.978
82.1025
104.59
527.638
538.078
394.373
403.983
135.37
108.155
114.487
537.263
514.818
406.354
422.51
108.006
116.404
99.6612
501.799
426.766
425.844
419.505
120.072
156.208
85.4188
676.578
654.789
594.992
481.794
135.079
71.733
52.448
631.334
595.054
415.314
290.834
139.514
48.7483
42.5789
587.375
531.812
255.882
200.124
81.0153
38.9171
37.7565
498.642
356.101
201.033
276.504
68.4241
43.3186
88.24
341.59
363.421
328.694
407.206
96.3348
96.9808
102.542
370.686
362.318
408.399
374.708
101.555
101.032
88.1846
359.413
370.263
355.052
307.559
93.7311
85.181
69.3158
380.766
399.899
299.243
300.397
98.9
350.676
177.318
688.638
567.556
848.499
775.272
60.8484
147.272
90.5849
487.749
366.277
698.046
510.144
36.4011
84.6922
75.1093
325.242
235.29
472.943
405.27
39.3699
75.8747
92.182
234.775
317.313
406.017
424.399
91.7662
93.5807
94.1626
360.599
417.324
420.804
398.009
104.146
94.7811
95.6643
417.145
384.893
393.354
371.81
89.3973
94.9685
86.9274
367.486
313.334
361.657
320.921
69.4405
84.0463
59.8631
299.974
289.897
306.904
275.39
1093.72
1362.19
1250.3
1686.65
1523.63
1794.17
1620.42
965.212
1221.83
1140.49
1436.21
1237.55
1550.86
1361.21
841.039
1106.28
975.897
1175.93
1023.95
1296.19
1097.69
731.605
923.637
742.115
980.921
882.609
1031.52
869.187
662.316
693.004
631.607
854.635
795.341
835.888
783.511
633.428
628.32
623.066
781.05
731.411
772.525
732.005
554.114
616.487
572.883
703.095
602.376
711.622
627.539
375.937
549.561
438.53
557.341
422.839
590.451
454.564
1271.38
1082.7
956.382
1793.18
1606.74
1453.9
1259.12
1134.49
922.938
851.91
1532.18
1337.71
1193.86
1036.25
966.193
828.05
724.018
1273.65
1074.53
989.834
843.635
711.314
676.46
504.445
1006.4
838.369
803.592
637.413
602.774
469.655
443.552
804.651
755.358
589.561
493.221
601.854
443.529
443.656
745.841
710.813
476.63
504.058
562.766
446.897
466.506
693.959
622.77
521.64
539.205
444.929
468.229
445.234
591.283
468.017
536.099
490.59
799.333
819.059
627.831
1298.05
1125.47
1231.69
989.654
687.214
548.426
398.019
1054.24
901.684
889.149
706.548
595.549
360.358
303.244
863.659
749.437
668.274
603.583
433.04
304.591
381.829
720.924
597.487
601.878
629.268
417.73
422.869
466.707
557.993
461.481
631.002
584.933
391.612
462.425
407.824
430.176
406.915
555.327
453.419
409.337
384.1
333.429
423.075
480.831
421.142
376.313
427.961
326.319
324.983
488.659
479.969
375.117
379.868
709.545
1151.99
949.415
1316.3
1049.03
1556.45
1268.22
467.945
846.8
621.776
941.981
744.554
1136.08
868.291
338.972
572.285
483.451
698.117
617.843
797.911
675.697
415.019
482.397
489.936
615.201
635.696
665.82
637.389
475.892
481.212
448.37
635.11
591.567
613.852
556.494
421.099
440.916
412.013
566.537
479.828
542.089
494.352
340.361
398.891
352.815
451.07
385.601
476.04
422.003
312.317
337.818
300.162
375.567
365.856
406.89
379.128
1620.76
1911.52
1696.91
2142.55
1810.75
2168.37
1851.11
1296.21
1614.58
1395.63
1674.69
1408.44
1733.53
1448.19
1061.76
1324.07
1115.69
1330
1139.09
1366.16
1154.44
916.538
1050.33
900.892
1091.55
984.484
1097.11
972.42
821.512
870.04
813.794
949.087
861.01
940.414
857.386
743.175
799.202
745.912
833.998
739.189
830.851
742.145
602.42
721.156
626.295
699.227
585.581
708.064
598.611
428.634
586.679
453.196
545.324
453.172
560.291
457.95
1676.8
1552.98
1331.06
2143.02
1817.89
1772.75
1495.22
1369.07
1257.82
1080.54
1701.34
1418.52
1406.13
1195.45
1090.22
1029.67
878.229
1337.93
1130
1138.46
999.323
946.963
964.041
974.993
1040.03
920.328
985.495
995.316
796.484
817.886
791.268
872.214
765.059
847.981
824.367
726.033
453.184
517.914
807.734
726.313
520.788
553.828
623.455
536.874
548.624
696.604
599.658
557.442
548.487
467.124
542.969
491.953
565.677
467.933
537.601
486.028
1206.52
1358.43
1085.38
1668.92
1398.45
1642.44
1320.85
960.878
982.366
795.991
1309.64
1119.4
1213.88
1017.32
797.317
756.982
686.66
1071.42
955.604
973.634
882.769
764.017
739.787
720.742
830.332
703.02
725.71
786.313
603.741
506.933
625.995
440.274
588.733
389.671
655.147
405.466
571.074
457.86
445.649
463.115
593.709
467.15
492.416
425.372
386.084
476.684
502.495
440.713
416.564
482.481
385.818
389.46
502.257
478.67
416.911
419.625
1137.75
1672.23
1338.08
1701.81
1355.47
1918.19
1490.22
823.665
1203.08
930.349
1239.78
1020.3
1351.56
1073.41
693.607
855.374
726.399
969.543
871.874
992.611
849.681
687.435
713.822
672.689
853.38
792.358
827.472
751.221
614.471
645.909
581.63
762.869
653.797
718.111
638.784
488.898
565.419
513.569
614.088
504.892
618.677
560.541
395.472
494.163
440.011
476.946
427.791
540.644
492.242
376.098
425.539
398.219
422.276
416.692
480.798
463.902
1856.99
2254.78
1890.86
2587.39
2006.94
2546.62
2053.13
1437.22
1762.87
1461.8
1839.73
1554.62
1899.4
1565.13
1161.62
1378.56
1169.81
1476.06
1269.26
1480.97
1271.9
1001.44
1114.55
990.07
1212.43
1078.27
1213.04
1061.31
866.72
955.443
860.671
1033.6
902.78
1013.91
878.075
731.814
830.127
732.011
858.145
737.682
835.593
722.805
581.083
696.66
589.072
701.219
606.12
690.087
602.637
462.332
553.472
462.686
578.111
526.143
577.232
520.417
1854.49
1838.04
1542.49
2459.18
2012.49
2059.95
1736.92
1433.13
1450.59
1234.53
1869.28
1545.95
1641.9
1415.1
1147.5
1176.73
1036.11
1462.55
1255.57
1351.26
1180.31
971.843
997.252
847.777
1197.57
1044.75
1126.8
959.015
837.77
760.251
589.098
995.042
853.867
883.193
687.586
717.124
569.295
559.791
811.488
707.293
645.164
583.24
590.603
558.453
545.302
679.717
604.28
578.764
572.046
471.239
534.733
485.853
581.209
524.395
564.363
527.088
1454.18
1733.04
1388.89
1979.63
1668.98
2021.95
1628.78
1170.43
1281.05
1080.13
1579.69
1375.78
1517.27
1298.35
999.736
1034.37
934.031
1317.53
1156.57
1243.21
1094.28
819.289
910.819
831.102
1107.13
935.675
1047.4
901.391
535.03
791.789
648.174
857.633
643.989
847.348
677.784
480.74
597.549
473.282
594.904
530.539
625.81
525.64
503.879
449.839
430.536
530.639
544.034
514.125
511.544
478.747
431.044
432.324
543.249
521.299
512.922
511.618
1418.93
2003.8
1531.3
2111.67
1645.69
2295.5
1675.44
1076.41
1391.49
1112.13
1517.67
1274.55
1525.71
1249.63
918.953
1030.86
883.996
1217.09
1071.25
1174.81
1009.56
814.679
858.294
771.753
1025.3
885.868
967.568
854.353
660.874
737.282
655.395
838.6
697.861
821.135
735.195
510.843
634.497
576.059
654.416
564.831
710.409
653.798
443.197
556.504
511.547
549.751
530.011
638.382
602.547
431.888
500.903
482.976
527.019
519.072
591.397
570.405
2084.42
2696.35
2151.11
3669.17
2666.03
3661.92
2979.7
1629.46
1990.95
1649.15
2479.85
2311.38
2791.47
2448.17
1341.24
1564.94
1348.34
2264.2
1994.77
2369.16
2056.21
1137.04
1284.74
1116
1913.78
1815.4
1966.02
1756.66
945.657
1063.16
911.253
1781
1575.85
1695.44
1509.17
773.624
864.974
754.563
1515.93
1423.22
1466.6
1456.35
647.146
724.744
644.823
1402.55
1294.11
1439.1
1364.75
571.373
622.039
567.569
1280.17
1263.58
1349.07
1349.74
2111.82
2174.9
1848.69
3351
2966.92
2892.18
2763.96
1635.81
1754.81
1523.95
2809.33
2481
2687.17
2441.29
1334.18
1455.5
1263.56
2372.88
2046.61
2312.78
1980.81
1097.96
1200.65
1009.76
1953.95
1724.2
1878.54
1603.5
884.265
931.643
724.768
1654.58
1456.6
1506.69
1250.28
736.846
678.295
615.869
1414.43
1421.75
1210.9
1278.37
646.727
615.625
617.638
1435.27
1375.76
1348.62
1371.8
570.877
611.135
571.013
1361.22
1352.85
1361.47
1342.26
1785.47
2160.93
1746.99
2787.1
2708.41
2941.05
2619.58
1488.79
1634.33
1408.54
2642.86
2417.34
2512.7
2299.85
1240.79
1348.74
1176.53
2290.54
1956.84
2204.29
1882.18
985.273
1119.58
948.867
1854.07
1570.57
1785.88
1556.32
682.814
889.859
712.161
1470.94
1206
1487.3
1290.95
568.772
660.532
574.734
1165.46
1243.69
1256.67
1320.54
593.151
569.215
572.156
1319.93
1354.58
1359.01
1340.67
565.431
572.882
564.411
1348.49
1342.61
1337.23
1348.79
1758.53
2441.99
1750.31
3072.94
2572.96
3195.55
2255.91
1377.17
1595.89
1325.13
2437
2210.93
2108.93
1968.05
1151.13
1254.95
1079.75
2156.83
1850.57
1953.09
1696.49
936.021
1030.64
912.566
1759.24
1567.23
1629.92
1589.7
737.876
881.438
793.401
1516.07
1355.18
1600.04
1464.05
617.566
766.388
711.045
1327.51
1390.51
1433.65
1419.92
591.942
697.319
661.851
1388.7
1353.93
1431.61
1357.92
573.364
649.356
621.283
1348
1371.58
1348.13
1337.01
902.772
913.328
826.396
902.624
870.65
940.377
859.999
905.292
910.928
803.094
881.505
868.786
938.354
802.103
841.668
745.803
720.739
544.785
809.4
766.716
659.571
973.262
1056.42
1027.13
1039.83
1006.49
1016.78
998.518
933.587
929.391
987.907
920.11
965.336
892.002
961.027
938.292
910.819
998.556
924.499
967.147
831.378
968.18
882.562
575.895
861.916
871.689
808.571
696.839
924.14
775.286
801.077
735.353
809.499
747.893
828.024
758.323
674.97
694.634
518.734
474.92
658.766
710.467
402.773
645.276
627.936
477.818
392.699
635.33
644.357
380.011
824.077
898.348
889.313
880.584
871.712
854.84
845.853
797.686
824.867
861.187
786.537
847.801
775.13
814.779
712.306
487.977
802.565
599.223
750.539
419.251
757.048
677.926
408.278
696.541
552.46
669.433
396.675
719.959
734.854
675.682
656.536
518.253
681.378
607.619
699.55
755.478
687.495
682.186
751.972
685.216
760.802
748.107
748.113
680.785
686.689
736.539
684.205
734.864
744.749
829.091
877.948
905.085
901.709
788.467
848.23
883.635
795.43
544.406
835.599
802.466
654.252
750.308
852.107
816.295
812.942
880.737
849.638
825.593
803.615
865.483
802.465
775.89
814.473
831.776
779.671
793.14
845.356
555.68
450.728
502.145
331.079
550.134
333.529
486.608
676.268
669.412
663.622
719.298
645.782
710.652
693.401
635.392
575.235
638.507
623.031
614.601
586.508
661.032
629.375
455.742
564.732
739.369
397.633
693.414
669.251
569.401
347.852
497.332
532.073
343.335
494.709
600.175
701.348
749.941
772.369
734.118
745.232
716.68
721.413
652.028
634.436
606.395
689.949
596.344
677.849
665.658
287.712
399.047
291.706
649.765
672.374
641.922
664.252
245.071
242.858
235.962
660.849
601.235
668.41
659.067
213.168
231.222
228.663
570.443
552.243
629.927
613.155
192.058
223.554
218.025
524.522
482.288
580.868
559.742
171.796
214.89
212.27
469.465
457.879
540.149
525.407
161.191
206.738
200.723
447.475
431.033
513.415
503.176
140.84
194.027
178.508
403.144
380.119
482.936
454.964
99.8028
161.644
117.152
331.029
303.144
397.161
324.258
436.447
519.012
434.519
867.185
782.558
912.801
942.231
376.029
260.483
304.787
414.915
386.847
403.304
242.328
395.446
150.534
150.775
343.66
350.745
369.857
148.742
497.738
165.15
170.633
396.254
401.69
488.894
177.946
488.166
168.653
189.021
419.857
420.376
496.894
188.996
405.568
157.423
172.099
407.452
396.558
427.085
162.393
364.283
141.509
142.596
378.265
374.37
367.837
140.329
362.026
136.084
139.086
366.164
361.689
362.626
139.195
330.815
117.85
134.937
322.959
303.108
342.053
132.02
80.0095
154.191
88.3089
246.27
189.734
292.695
219.438
421.693
421.597
359.268
855.254
981.309
774.539
815.06
512.508
256.058
299.13
488.795
520.86
473.314
251.349
613.828
226.116
225.986
595.141
607.044
600.832
230.409
597.066
222.874
228.041
606.622
601.594
606.235
224.861
532.134
214.586
214.589
569.923
549.587
553.26
209.186
296.519
136.956
141.522
395.765
345.209
342.51
119.302
299.478
119.156
106.288
312.75
318.493
283.661
110.246
326.645
134.639
126.356
342.891
343.72
324.525
128.958
320.307
132.959
130.417
335.966
329.746
324.556
129.506
110.191
190.084
135.575
340.543
271.316
363.073
327.874
253.813
304.928
228.523
604.014
585.502
562.857
541.039
233.592
152.235
173.675
268.904
270.931
243.047
140.244
190.703
121.11
94.1373
299.316
315.093
198.67
87.5913
213.424
143.009
91.463
355.129
355.345
207.898
94.5612
163.34
121.146
92.0998
314.973
274.368
199.31
82.8586
131.278
63.0308
53.5272
149.843
148.784
119.895
53.9422
233.018
88.4978
86.0608
211.397
227.326
222.556
92.5573
224.791
99.3
96.2218
238.753
239.945
231.599
94.6311
229.315
106.448
94.3756
250.549
257
224.156
95.6562
140.031
150.346
130.59
348.487
336.003
300.574
312.469
264.609
428.761
407.24
614.472
627.719
720.433
700.493
327.372
150.202
205.569
271.823
271.713
317.857
181.025
237.556
70.6219
107.33
191.158
173.224
262.753
93.9908
154.038
45.4483
67.8503
121.884
91.7898
182.657
57.8496
116.029
34.9315
41.9965
65.9977
68.4267
113.4
42.1797
227.439
67.9073
69.1951
156.541
197.71
202.938
81.1477
260.866
103.286
100.403
257.845
261.036
259.417
103.08
238.675
99.1548
102.282
248.671
236.994
248.791
99.0392
194.646
82.5093
85.4087
202.302
195.338
203.41
81.3112
110.783
120.409
87.8567
256.402
268.026
238.446
246.598
304.776
419.142
294.343
693.996
688.271
720.29
739.251
188.418
226.86
211.989
607.726
521.186
668.038
510.593
144.056
191.591
146.486
433.793
402.341
467.228
405.434
136.578
130.706
126.763
380.272
372.112
383.63
337.895
131.704
117.346
105.352
349.807
338.501
312.964
295.611
129.657
102.273
100.182
329.579