/*--------------------------------*- C++ -*----------------------------------*\
  =========                 |
  \\      /  F ield         | OpenFOAM: The Open Source CFD Toolbox
   \\    /   O peration     | Website:  https://openfoam.org
    \\  /    A nd           | Version:  10
     \\/     M anipulation  |
\*---------------------------------------------------------------------------*/
FoamFile
{
    format      ascii;
    class       volScalarField;
    location    "6.6";
    object      nut;
}
// * * * * * * * * * * * * * * * * * * * * * * * * * * * * * * * * * * * * * //

dimensions      [0 2 -1 0 0 0 0];

internalField   nonuniform List<scalar> 
12920
(
2.51471
3.61698
1.69075
2.21586
1.15741
1.14835
0.802296
0.761898
0.633302
0.634119
0.584712
0.579299
0.551056
0.537312
0.509565
0.493458
0.464626
0.43633
0.398876
0.338193
2.097
6.4217
5.3715
6.33861
2.99026
2.37283
1.50377
1.46146
1.17122
1.20971
1.1721
1.25165
1.23595
1.25644
1.22064
1.20807
1.15672
1.0771
0.886633
0.595959
1.44544
7.57167
5.39386
7.44033
3.6718
2.62315
1.66946
1.55481
1.27812
1.31275
1.10908
1.09694
0.966844
0.927388
0.842125
0.798182
0.753425
0.716714
0.647859
0.549774
0.833351
9.25356
5.62474
8.17556
3.85322
3.50476
2.02632
1.9427
1.39801
1.35969
1.07162
1.02418
0.868132
0.826012
0.736432
0.694225
0.644529
0.610772
0.574671
0.532227
15.7384
14.469
8.59245
8.56904
4.26762
4.16202
2.51766
2.24633
1.71047
1.62363
1.31228
1.1471
0.88657
0.789235
0.699702
0.671269
0.62837
0.605415
0.576389
0.54093
4.41525
9.88588
5.17812
7.69443
4.0963
4.91166
2.78622
2.71453
2.16601
2.02602
1.8182
1.65038
1.34932
1.02143
0.783126
0.689158
0.65643
0.63962
0.626178
0.59881
11.8821
13.3441
11.5069
9.60057
3.89116
3.94527
2.86276
2.7887
2.21372
1.98185
1.65749
1.52817
1.37046
1.16143
0.905166
0.743426
0.674614
0.657621
0.650123
0.630563
20.055
18.2736
13.8728
9.88413
4.89028
4.17723
1.12824
0.878427
0.779517
0.713248
0.605203
0.531766
0.463281
0.393056
0.986626
0.768641
0.70607
0.673769
0.644028
0.616936
2.75557
7.93262
7.32007
8.48746
4.45086
1.54468
0.407519
0.241558
0.26529
0.274031
0.251682
0.211704
0.193991
0.17809
0.37611
0.765709
0.730188
0.703385
0.663056
0.606835
5.21212
10.1924
8.77111
7.58203
5.16035
2.0081
0.460082
0.281052
0.262875
0.266411
0.210854
0.162218
0.18786
0.194705
0.555434
0.958759
0.789473
0.718526
0.661439
0.58741
22.2639
13.799
7.94834
7.39487
4.07606
1.63537
0.335125
0.175517
0.185238
0.167429
0.0911897
0.117061
0.148284
0.156445
0.531915
1.0694
0.787711
0.688987
0.637566
0.577133
8.50358
8.24477
6.29288
7.57234
5.37614
2.00561
0.350987
0.135703
0.0854644
0.0535271
0.0763515
0.162231
0.169254
0.136871
0.420064
0.958624
0.793835
0.749089
0.704853
0.608922
0.707173
5.10733
8.62702
8.31733
4.95079
5.8127
1.40304
1.05467
0.698882
0.684762
0.548838
0.533548
0.48235
0.442294
1.15805
0.977071
0.881882
0.818463
0.722653
0.609625
2.55306
9.19253
8.85444
7.45358
4.73864
5.20509
3.61779
3.866
2.52396
2.21009
1.57944
1.40818
1.19813
1.15011
1.02135
0.970221
0.890193
0.808222
0.693987
0.620846
0.44503
7.77852
8.42749
6.72057
4.47851
4.74723
3.116
3.61393
2.21725
2.16461
1.57033
1.41028
1.16556
1.07002
0.960563
0.904633
0.830392
0.782846
0.727625
0.701629
3.54578
11.4077
9.96499
7.35898
5.56801
4.99219
3.27841
3.80854
2.16923
2.2518
1.56697
1.50021
1.18282
1.11909
0.971694
0.924608
0.8572
0.833216
0.808254
0.80954
19.6569
15.1652
8.97471
6.99147
5.44737
4.30245
2.728
3.29337
2.01784
2.26705
1.58258
1.59284
1.28447
1.23486
1.08791
1.04331
0.986514
0.973781
0.95072
0.942218
6.46663
8.85944
5.63298
6.87974
4.82035
4.77222
2.62491
2.88981
1.77187
1.90016
1.4912
1.53767
1.35211
1.34802
1.24748
1.22361
1.17796
1.16045
1.13054
1.088
1.26668
9.29235
8.55795
6.71963
4.50752
4.75852
2.48334
2.74901
1.75527
1.7839
1.36377
1.32651
1.19038
1.18718
1.13993
1.14571
1.12889
1.12477
1.109
1.03749
2.57141
10.0416
6.15355
4.46068
2.44643
2.20213
1.56846
1.35263
1.03059
0.846227
0.641467
0.520689
0.448547
0.444858
0.438546
0.432589
0.424016
0.40821
0.386651
0.341356
0.713511
12.5885
10.0417
11.7655
5.86891
5.934
4.17063
4.22671
3.58164
3.70445
3.45141
3.48207
3.3864
3.39752
3.34029
3.30137
3.13942
2.94923
2.7011
2.20549
3.46959
30.9773
36.0389
34.548
23.6457
18.1444
13.97
14.6594
15.1543
16.0612
16.2566
16.3783
16.33
16.2194
15.8877
15.598
14.9897
14.3732
13.1706
10.2971
0.866284
16.7731
31.7135
36.7206
26.3188
18.0703
13.41
14.8825
15.9714
16.9544
16.2606
15.6103
14.7519
14.1873
13.5986
13.0637
12.5232
11.9548
11.3232
10.6368
0.969313
21.431
40.3943
37.9591
25.8177
21.2859
17.5942
18.2594
17.4818
16.3699
14.8411
13.7527
12.7323
12.2262
11.763
11.534
11.2246
10.9383
10.6541
10.522
19.1382
52.8463
49.4343
39.5167
29.4026
26.1299
22.7067
21.2168
19.3762
17.9957
15.7215
14.1898
11.7485
11.0232
10.3607
10.7826
10.9392
10.9356
10.9106
10.8076
30.7669
47.304
40.3737
36.8727
29.2518
27.2728
25.3263
24.0175
22.0925
20.6812
19.0006
17.4082
14.1021
9.92531
7.99596
9.20509
10.6634
11.2818
11.4095
11.3404
29.7444
49.0148
48.9517
41.2178
28.4326
27.1862
25.3303
23.4382
21.7836
19.4304
17.1944
16.047
14.6651
12.1561
9.45054
8.80965
9.99098
11.1107
11.6509
11.7034
56.1549
56.3496
52.0749
41.4478
27.9262
25.8428
20.1985
19.5052
19.3536
18.2708
16.9317
15.7221
14.1337
11.8449
9.97509
9.87903
10.8119
11.3637
11.5044
11.5888
22.3552
37.938
33.5333
33.9904
26.5031
21.4486
17.2986
17.3533
19.3785
19.2776
17.8867
16.9042
15.7435
12.8803
8.95926
10.1425
10.9619
11.1981
11.1123
11.2536
16.1477
46.233
46.0577
31.7029
27.2864
24.233
21.4106
20.8528
19.9243
18.3831
14.6067
15.3896
16.1801
14.8776
11.1166
10.0516
10.6252
10.8912
10.715
10.828
67.1694
55.0975
49.5793
31.8935
26.6088
19.3938
15.2354
13.852
13.0609
11.2327
8.87452
10.9684
10.4554
12.0182
12.3464
9.77618
10.0993
10.6252
10.5568
10.7332
8.8598
21.8225
31.6489
37.1718
30.3582
20.7854
16.9797
12.3989
9.37073
7.4761
12.0034
14.977
12.9369
10.1367
10.1148
10.3738
11.0448
11.5223
11.1991
10.8165
3.84674
27.4242
42.3896
40.5935
33.9958
30.6523
22.1941
16.5616
16.1134
15.9446
15.5937
15.304
14.3407
12.8017
12.8924
12.2962
12.1675
11.872
10.8396
10.5498
3.74307
29.6479
40.8418
37.0869
32.5199
28.2375
25.1688
20.5136
18.3751
15.4886
14.7469
13.4655
13.154
12.7967
12.1696
12.0018
11.829
11.5149
10.7303
10.9599
3.60613
36.3335
46.0172
33.5797
31.2026
25.9212
23.8709
20.2931
17.7231
16.3102
14.6882
13.7225
12.8238
12.2495
11.8356
11.7853
11.6929
11.7436
11.7982
12.0748
7.25481
49.1173
47.5305
37.6818
33.6273
26.2111
22.8859
20.025
17.877
16.7209
15.2617
14.6879
13.7667
13.514
13.0321
12.9728
12.8632
12.9797
13.1107
13.4205
54.7192
39.5009
33.7045
32.863
33.0073
22.3158
20.4234
17.1835
17.2322
16.1397
15.7385
15.3978
15.0521
14.9171
14.7045
14.6711
14.6526
14.6873
14.7507
14.8014
12.1347
19.9604
21.0733
29.4292
30.6784
25.0549
19.9515
17.9024
16.563
16.1439
15.8849
15.9458
16.0183
16.1559
16.2357
16.2785
16.2735
16.2803
16.2959
16.1848
4.56473
29.7221
36.5645
31.3226
28.6743
24.576
20.2672
18.4045
16.2775
15.446
14.6472
14.5086
14.7761
15.1533
15.4873
15.9361
16.2085
16.4427
16.6807
16.4496
7.03269
32.1703
28.2485
23.5454
17.5897
17.4674
11.2039
10.0987
7.20443
5.94479
4.17556
3.25814
2.65754
2.64281
2.60989
2.68717
2.69256
2.66698
2.57844
2.43166
0.437377
6.08933
12.5003
17.8314
8.8883
9.13892
6.45506
6.63692
5.46148
5.32823
4.70057
4.48583
4.15967
4.00349
3.79304
3.56902
3.30206
2.9039
2.69694
2.22926
12.3778
41.9065
46.7359
44.8442
36.39
31.4332
27.4044
26.5736
24.9008
24.171
22.8705
22.4058
21.6886
21.2045
20.327
19.5698
18.0989
15.9616
14.1142
13.3356
2.51282
34.1644
42.755
49.2309
35.8
30.7671
27.3782
28.2729
27.2616
26.0607
24.0769
22.6634
21.2484
20.2549
19.2405
18.4321
17.6437
16.9293
16.4386
16.2169
8.43096
45.7109
59.6591
52.8894
40.0364
35.4396
32.0352
30.8665
28.0296
25.2829
22.6509
20.8262
19.3403
18.4208
17.6628
17.1534
16.6811
16.3528
16.1389
16.1164
20.6055
65.1434
68.9772
58.4575
46.5787
40.9974
36.6594
33.4521
29.9315
26.8491
23.2872
20.9308
18.5799
17.7415
17.1065
16.9942
16.7518
16.5586
16.4092
16.3241
72.5535
70.0625
64.5141
57.5586
48.6398
43.724
40.2864
36.8941
33.2356
30.0367
26.6673
23.2666
19.213
16.4729
16.1154
16.8596
17.2553
17.2017
17.0547
16.9353
39.7135
71.2195
69.3361
60.0214
48.5404
44.9931
40.8945
36.9622
33.3008
29.6688
26.3224
23.8661
20.7168
18.0109
16.6668
16.6766
17.265
17.5392
17.5613
17.4796
43.6963
65.3407
68.9171
58.7316
47.1309
44.875
38.8667
35.5668
32.9632
29.524
26.7995
24.1811
21.2689
17.8984
16.5044
16.6987
17.0785
17.1844
17.1973
17.2338
31.2316
55.1137
57.1956
55.3369
47.6455
41.6964
37.3998
34.4454
32.458
29.5881
27.0533
25.202
22.4347
18.3591
14.9286
15.6459
15.9434
16.1033
16.1233
16.3954
34.5387
61.7902
67.3452
55.8515
49.2939
43.1747
39.3515
35.4367
31.3873
27.1429
23.6954
23.1668
22.5584
19.6224
15.4007
14.778
14.883
15.0762
15.0727
15.571
52.8603
64.8055
67.881
54.7892
46.3189
36.1281
31.1403
26.3843
22.6775
20.7059
8.10133
5.69623
9.87172
15.6732
15.3564
13.89
14.3487
14.8649
14.9367
15.482
22.0502
41.7934
54.7823
56.8528
49.4894
39.6081
34.0882
26.3365
21.035
18.946
21.9886
20.3495
15.4092
12.5116
13.3725
15.2725
15.9791
16.2233
15.7408
15.9242
27.647
33.7923
54.5075
60.4226
52.5802
47.1495
39.2569
30.5412
27.7119
25.523
23.8926
22.2741
20.4779
18.5083
18.2243
17.8131
17.4764
16.9068
16.2282
16.457
27.0909
27.4893
49.8061
56.4553
51.5383
44.7518
38.5005
32.3006
28.4912
25.1949
23.3053
21.5707
20.4942
19.6873
18.775
18.3561
17.8332
17.4749
17.1178
17.4318
9.6001
53.5254
66.0201
55.0804
49.3666
41.3362
37.4492
31.6496
28.1489
25.5896
23.3266
21.7568
20.5317
19.6966
19.0612
18.8006
18.5946
18.5833
18.6602
18.8776
13.0675
61.1514
61.0364
54.9061
49.8503
40.6456
35.9965
31.1485
28.1483
25.99
23.9797
22.9089
21.6895
21.1718
20.5465
20.371
20.2473
20.3145
20.4262
20.6745
52.9169
62.104
55.2564
52.8847
48.997
37.1087
32.8171
28.2834
27.2488
25.5687
24.7539
24.141
23.6056
23.3163
22.9881
22.8442
22.7085
22.6746
22.6076
22.4197
20.8362
35.57
38.8274
47.277
45.5033
37.5205
30.9133
27.31
25.5039
24.49
24.1129
23.9977
24.1208
24.2836
24.4512
24.5458
24.5446
24.4695
24.3187
23.8376
33.886
34.0507
42.8802
44.4121
39.9924
34.0993
26.5963
23.7861
20.7858
19.978
19.2697
19.5152
20.1128
20.9091
21.5929
22.5446
22.9886
23.3533
23.4502
23.0756
9.83967
32.6882
26.1192
25.8238
21.1569
19.5744
14.1329
12.6417
8.94576
7.16537
5.17555
4.35218
3.78284
3.67421
3.48152
3.36872
3.24193
3.12152
3.01766
2.83464
2.11561
15.0484
19.9047
21.9046
11.3302
11.482
8.26512
8.17252
6.59012
6.10395
5.25426
4.73816
4.18296
3.66848
3.22795
2.76514
2.5099
2.26446
2.21235
1.97762
38.9635
56.6179
55.6028
51.1216
45.0045
38.8903
34.2566
31.8481
27.944
26.2211
23.9504
22.8924
21.7268
19.5969
18.2297
16.4133
15.2587
14.4889
14.1263
14.5215
11.7294
50.9475
57.6539
57.1282
45.8515
41.9387
37.6097
35.0715
31.5131
28.8411
26.0481
24.2869
22.6219
21.4392
20.3508
19.5333
18.8878
18.3959
18.1534
18.0793
24.8064
56.9174
70.0247
62.1358
50.7661
45.8129
40.5453
36.7594
31.9067
28.4203
25.2708
23.1192
21.3787
20.1924
19.2518
18.5923
18.078
17.7559
17.6361
17.5495
40.7675
69.8191
77.4688
69.1113
57.087
49.9021
43.7267
38.9066
34.3347
30.121
26.4464
23.6751
21.6383
20.3806
19.4644
18.8224
18.291
17.9563
17.7885
17.6539
28.0573
82.512
79.209
70.0281
59.6097
52.6178
47.4806
42.7733
38.1599
33.6899
29.5462
25.6996
22.6181
20.809
20.1181
19.6619
19.1708
18.7099
18.5111
18.3164
40.8181
85.6296
83.4027
71.5718
60.4824
54.843
48.3672
43.4525
38.3835
34.2227
30.1148
26.8729
23.808
21.7913
20.5697
20.0722
19.7641
19.4105
19.2324
19.0368
36.125
70.4943
80.6855
71.355
60.4046
56.3867
50.0539
43.767
38.9817
34.1099
30.6879
26.9873
23.8538
20.7148
18.7887
18.8924
18.8907
18.8443
18.8301
18.8203
60.859
71.8047
74.397
68.8813
60.4606
54.3241
49.5389
42.7544
37.5149
32.8356
29.8106
26.8283
23.4383
19.7218
16.8183
16.4713
17.0126
17.4137
17.604
17.8357
39.0102
70.662
75.2091
68.5331
59.2696
52.4461
49.0591
41.7359
35.2701
30.5327
27.046
24.5134
22.0687
18.9923
15.8163
15.3306
15.8401
16.3227
16.6297
17.0789
31.1139
75.9378
79.2633
67.4693
55.6241
45.6615
40.9706
34.4399
29.4887
26.9318
13.3058
10.6994
13.9382
16.0891
15.0251
15.0442
15.7977
16.3289
16.5954
17.0728
52.6262
68.5415
73.0217
69.1951
59.2705
49.4635
43.249
34.4138
28.539
26.1266
24.7519
19.9809
15.5714
14.0946
14.7698
16.6801
17.2521
17.3611
17.2916
17.5703
65.5958
58.3013
66.5083
71.4854
62.8858
55.3809
46.9718
37.6166
32.3686
28.2187
25.5239
22.9295
21.1974
19.6568
19.1878
19.1101
18.8159
18.441
18.2151
18.3757
31.7367
53.5071
65.31
69.831
61.6179
52.7966
44.9172
37.8629
32.6637
29.3808
26.7139
24.4711
23.1828
21.9827
21.0108
20.3297
19.8379
19.5471
19.4252
19.5409
48.1787
63.6893
74.1154
66.6483
57.8503
48.409
43.6735
36.9536
32.8772
29.5503
26.8796
24.8638
23.5326
22.3868
21.6958
21.2488
20.9663
20.89
20.8935
21.0452
40.4408
72.3404
69.4327
63.6438
56.9782
47.2908
42.1162
36.1131
32.6277
29.8528
27.4477
25.9784
24.6018
23.8709
23.1959
22.931
22.7738
22.7604
22.7723
22.8458
72.9216
74.0312
68.2532
62.8039
55.5234
43.3251
38.0676
33.1937
31.5068
29.2645
28.2398
27.3065
26.6449
26.1887
25.764
25.4893
25.2871
25.1265
24.9521
24.7076
47.6763
50.1468
57.3531
59.6663
51.673
41.8749
34.7881
30.8403
28.8294
27.5032
26.8986
26.4864
26.549
26.7354
26.8718
27.0065
27.0038
26.8571
26.5865
26.0343
30.6467
49.9887
53.4406
52.9115
44.1266
36.1454
26.894
23.9873
21.078
20.8647
20.4074
20.8772
21.2326
22.2955
23.0154
23.823
24.4082
24.3049
24.3471
23.7444
10.5333
28.9917
30.6451
26.4906
21.3808
19.1916
13.4898
10.8378
7.88028
6.06805
4.84509
4.33125
3.97538
3.77757
3.56089
3.39279
3.29085
3.17281
3.10275
2.91861
12.8717
25.5901
9.49863
15.4383
4.8221
5.58541
3.3187
3.28185
2.51475
2.31051
1.90677
1.66862
1.38963
1.20618
1.04679
0.963109
0.909363
0.892711
0.845373
0.776383
32.6913
42.3529
33.8846
36.2962
21.8655
21.6309
14.6187
15.1124
12.0141
11.7982
10.3371
9.79649
9.08941
8.63254
8.22243
7.82125
7.59596
7.55446
7.44357
7.44881
57.733
68.2863
39.4046
45.8689
24.2746
25.79
17.0111
16.1386
12.3351
11.745
10.15
9.70497
8.84509
8.52779
8.11925
7.97226
7.89168
7.91995
7.75326
7.62399
85.4657
77.1103
43.0936
59.7593
25.6411
31.06
17.7254
17.6176
12.3737
11.8101
9.66534
9.28034
8.32151
8.13089
7.6778
7.56571
7.47546
7.55562
7.43002
7.2946
50.2393
65.0504
58.2087
73.9576
31.7051
33.4795
20.2096
18.785
13.9289
12.7346
10.42
9.6299
8.61156
8.3805
7.88185
7.72852
7.57626
7.58163
7.41046
7.27415
90.7601
90.9706
62.0211
72.6692
34.1313
44.8909
23.2255
23.9304
17.5789
15.1722
12.5408
10.8435
9.66314
9.01912
8.52457
8.09501
7.9871
7.95815
7.79942
7.62649
109.34
93.5523
59.813
72.9689
32.4741
42.2757
26.5448
24.4518
19.0014
16.6992
13.6515
11.9094
10.2897
9.59288
8.92219
8.62792
8.46914
8.41068
8.21329
8.02615
55.5163
77.938
75.779
74.8493
39.8791
39.9405
48.2926
42.9313
35.851
31.3861
27.2491
22.9804
20.6476
18.2554
9.0022
8.60501
8.52646
8.48245
8.2781
8.08051
20.5621
72.3567
61.6835
72.6331
36.0261
52.3605
46.7597
39.2006
32.4686
27.8981
24.5315
21.2412
18.117
15.5417
13.9326
8.39276
8.23938
8.09916
7.90313
7.75735
89.6122
64.27
77.3461
61.3009
44.6069
51.6626
46.0858
35.8114
29.3322
25.4619
22.0324
18.5419
16.0174
14.2757
13.2362
8.25836
7.98464
7.8638
7.68961
7.61457
58.756
85.0311
74.2639
70.6625
36.7356
45.2427
40.0025
31.0241
26.4652
24.1744
19.3099
13.9566
12.5766
13.1476
12.9825
8.43356
8.11555
7.94868
7.74141
7.68623
68.206
85.3918
84.12
74.6866
49.3077
47.5526
39.6342
30.6033
25.6413
22.4291
19.0431
15.2722
13.3637
13.0806
13.5796
8.97415
8.51758
8.19013
7.94511
7.87398
55.2922
78.6851
83.3798
78.6228
44.6144
52.3936
43.8961
36.0519
28.2736
24.6727
21.2576
19.5408
18.0011
17.092
10.2006
9.34759
8.82463
8.60016
8.3012
8.21603
37.2897
76.175
75.9936
74.8589
45.6944
50.5294
32.6744
36.8159
22.953
23.4631
15.5988
15.0733
12.1923
11.7705
10.2703
9.79249
9.34081
9.2291
8.92361
8.79783
17.7814
70.1984
80.1304
70.5718
42.7297
46.5324
28.48
36.516
20.7074
21.9992
15.2393
14.6921
12.285
11.7907
10.8413
10.5261
10.1532
10.1303
9.78689
9.63832
90.9839
82.4941
77.2234
68.9796
49.031
45.4509
30.8947
34.8902
20.9014
24.4586
15.5361
15.9895
12.8168
12.943
11.5804
11.6239
11.1511
11.1943
10.8086
10.6181
89.4742
82.3678
77.2311
66.0519
48.2754
41.6665
27.1657
31.7394
19.3579
24.7524
16.013
17.3928
14.2437
14.5027
13.1895
13.1301
12.6335
12.5788
12.1188
11.7783
82.4948
65.3393
66.4693
64.7587
38.8158
38.0605
23.9551
28.7069
17.9621
20.8463
15.8349
16.8986
14.9263
15.3003
14.3725
14.4516
14.0128
13.9273
13.3633
12.7728
41.9591
65.3138
59.97
54.919
33.6319
30.7971
16.5437
16.7081
11.6276
12.8158
11.0354
11.8122
11.2249
11.8448
11.8685
12.3182
12.471
12.6052
12.2315
11.6946
7.30756
27.8394
15.06
16.7646
8.29815
7.76962
4.70192
3.77171
2.56389
2.29216
1.91293
1.83171
1.62984
1.56491
1.48754
1.47835
1.45466
1.42144
1.37449
1.27501
24.31
21.9326
9.43009
30.2694
27.5869
26.2623
9.34175
23.126
8.42344
6.97858
26.7526
25.1032
8.15184
7.98002
9.21925
17.614
20.064
23.0482
8.80248
24.6443
24.6525
6.27205
20.7482
19.2671
7.67684
6.97413
23.8419
19.5707
0.263663
0.399302
0.254666
9.61377
11.2757
12.9615
14.4222
0.258463
0.244085
0.2416
12.0931
14.3083
14.7941
15.5655
0.276226
0.245395
0.267556
14.7101
15.162
15.7072
15.7487
0.262378
0.27275
0.255224
15.2377
14.598
15.485
13.2715
0.220444
0.230606
0.179556
14.3579
13.7527
12.5927
12.4641
0.197884
0.176461
0.185088
13.5974
13.1285
12.7273
13.1818
0.184126
0.190524
0.197566
12.778
11.3278
13.191
12.5093
0.11488
0.194697
0.164649
10.5513
7.98442
12.037
9.998
0.289651
0.384138
0.236849
14.7272
15.9528
12.0288
12.9547
0.265532
0.235937
0.252164
16.1058
15.9386
13.112
13.3105
0.265324
0.250013
0.225666
15.8587
15.4568
13.1599
11.9929
0.240274
0.21464
0.147466
15.0374
12.2949
11.2707
8.0571
0.162546
0.121346
0.106125
11.5084
11.7691
7.49182
8.75908
0.181512
0.115074
0.154451
12.1448
12.9334
9.34932
10.1303
0.196802
0.160876
0.171479
13.0299
12.6063
10.3124
11.0742
0.15565
0.173843
0.148416
12.2618
10.3386
11.19
11.2833
0.181576
0.298093
0.141214
9.63987
10.3711
9.00375
8.19537
0.182131
0.116556
0.0781094
10.3064
10.3931
7.27106
5.27163
0.174914
0.0698718
0.0597341
10.3832
9.65311
4.67155
3.72921
0.107382
0.0555938
0.0546206
9.0873
6.53943
3.76191
5.75953
0.0978558
0.0627589
0.138171
6.45834
8.70476
7.60013
11.1983
0.145885
0.154656
0.166388
9.22373
9.33369
11.4699
10.71
0.153424
0.162805
0.139588
9.28688
9.76755
10.1189
8.62033
0.138817
0.133489
0.107366
10.1278
10.8949
8.38294
8.75241
0.166195
0.564597
0.339309
10.6796
9.72745
10.7284
11.3168
0.101042
0.289999
0.193595
8.6924
7.12878
10.9233
10.232
0.0560378
0.183133
0.162198
6.50234
4.80311
10.2853
10.2842
0.0590697
0.160862
0.179852
4.80897
7.3493
10.5776
11.5354
0.147451
0.181145
0.176361
8.95098
11.6972
11.7709
12.0473
0.172508
0.178375
0.174278
11.9519
11.3107
12.1438
11.8151
0.144045
0.173141
0.154043
10.7972
9.07039
11.5746
10.4318
0.107719
0.149334
0.103873
8.67013
8.55752
10.0114
9.28635
16.8213
19.7427
19.4154
31.9897
31.1219
33.9698
32.6415
19.1792
19.6102
19.8541
30.874
30.2979
32.0781
30.1996
19.4234
19.8515
19.4668
29.9568
28.3432
29.5814
27.3927
18.2393
19.0001
16.4453
27.7327
25.9075
26.4345
23.8624
17.1158
15.8209
15.852
25.3962
24.1839
23.4195
23.1475
16.2189
16.1146
16.4933
23.7887
22.2152
23.1449
22.6035
13.8248
16.404
15.271
21.381
18.5459
22.1384
19.8286
9.34265
14.5906
11.2546
17.3569
14.2405
18.757
15.2038
20.9163
18.33
17.2212
35.2171
33.2969
30.9076
27.8216
20.1455
17.0625
16.564
32.5174
30.0154
26.8534
24.392
19.0309
16.2474
14.6241
29.2293
26.5594
23.5931
20.7291
15.2827
13.7057
10.4262
25.4471
22.5296
19.8485
13.4174
15.0029
9.96106
10.8841
21.9952
21.7926
12.1787
9.70551
16.1347
11.1931
11.664
21.9279
21.9593
9.31921
11.845
15.4032
11.9635
13.2667
21.7163
19.967
13.5341
16.8442
11.705
13.4594
12.7767
19.0351
15.6339
17.2273
16.3566
14.1974
14.8442
12.0569
27.2351
24.6133
27.5742
23.3949
13.2341
10.7753
8.02798
23.5527
21.0595
21.4916
17.4559
11.9483
7.30657
6.13929
20.3773
18.0643
16.4978
14.731
8.82852
6.16181
8.60225
17.6215
12.6182
14.7281
17.5823
10.7385
10.5775
14.0606
11.5951
9.2656
18.7253
18.8246
10.4758
14.2387
12.6592
8.49402
8.68153
17.8476
13.8621
11.4585
11.7893
9.87851
9.80379
14.0783
12.623
11.0493
12.4129
9.64651
9.84329
15.0846
15.9288
11.1747
12.356
13.7731
19.1129
16.2856
30.3206
25.2354
33.3923
28.6102
10.0971
15.2892
14.0288
23.2124
19.3045
26.6685
23.8433
7.49022
13.9168
13.4565
18.2788
16.1802
23.1626
21.7004
10.3458
13.7347
14.706
16.1854
18.9629
21.7147
22.1229
14.7828
14.9359
15.1351
20.0088
20.5077
22.0372
21.5108
13.6678
15.1709
14.5883
19.7953
16.4981
21.2265
19.7157
10.6365
14.2209
12.6595
15.2619
12.4466
19.0803
16.8745
9.62233
12.1196
10.7584
12.0494
12.0505
16.196
15.0056
35.0912
38.5071
36.137
46.9653
43.0437
47.2686
43.106
33.1071
35.2984
32.6979
41.5927
38.1619
41.476
37.0486
30.342
31.874
29.1716
36.9706
33.6054
35.7348
32.1057
27.6173
28.1465
25.6701
32.6218
30.3859
31.0638
28.7156
25.6744
25.2119
24.6428
29.6942
27.7395
28.0891
26.5013
23.3374
24.5129
23.5925
27.0134
24.6116
25.9752
24.0322
19.5175
23.0146
20.4964
23.6769
20.7976
23.2366
20.5823
15.3223
19.4046
15.9272
19.8372
17.8094
19.6363
17.1278
36.4598
34.5406
30.6189
47.3928
42.7092
41.8305
36.8103
32.3501
29.4682
26.5283
40.9958
36.3898
35.2653
31.3249
28.2743
25.6153
22.5154
35.0128
31.2839
30.1947
27.4675
26.0477
26.0976
25.7371
28.5362
24.6179
27.5597
27.2407
20.3924
23.3264
20.5678
25.0231
19.8951
24.5413
21.1087
22.9053
6.95792
11.857
24.7397
23.3771
9.25324
14.8873
20.5841
13.9491
17.4938
22.7532
20.4589
16.2355
17.9752
16.33
17.8334
16.7847
19.6069
17.2686
17.974
16.938
27.5826
31.5944
26.6603
39.144
34.5676
39.6072
34.1023
23.4695
24.7136
20.5042
33.0573
29.3389
32.1103
27.6653
20.0708
19.4927
17.6156
28.3418
26.0506
26.5963
24.6596
16.3361
14.5181
18.1617
19.9866
17.0588
3.19096
20.6378
10.6671
7.4703
13.9629
1.60544
12.8261
1.47095
11.9355
8.13677
17.9719
13.6633
7.49624
11.5989
17.9315
14.122
14.7233
12.5239
11.3942
13.0384
15.9211
13.4086
13.0545
16.3548
11.6687
12.8365
16.3507
16.4944
13.2654
14.0398
28.4104
38.0675
31.6974
41.7283
35.3184
40.2923
37.8987
22.1159
29.6809
26.4476
33.168
28.4902
35.8389
31.7268
18.9332
25.5833
23.8051
27.3518
25.2739
30.4582
27.744
21.2836
23.7124
23.7473
25.1545
25.2337
27.2571
26.074
21.3281
23.5388
22.636
24.813
21.7231
25.4879
23.5014
16.642
22.2336
20.5061
20.3899
16.631
22.8506
20.959
12.807
19.8323
17.623
15.6631
14.0076
20.3137
18.5307
12.5545
16.9736
15.8268
13.8634
14.0796
18.0829
17.5209
44.3899
49.0738
44.1466
48.996
43.6287
48.6009
41.9123
38.8549
42.3045
37.4281
41.6904
36.9125
39.7018
34.1857
33.8599
36.0075
32.2512
35.0758
31.0968
32.6652
29.2339
30.5559
31.2287
28.8569
30.1561
27.7965
28.4112
26.033
27.6348
28.165
26.2493
26.8304
24.2609
25.184
22.5833
24.3816
25.6028
23.3849
23.4212
20.9768
21.6904
19.0298
20.6244
22.5548
19.9553
20.0506
17.6638
18.2782
16.2432
17.953
19.0827
16.8801
16.9834
15.6852
15.6455
14.1383
43.632
43.3781
38.0051
48.5868
41.1702
43.8714
36.5175
36.7287
36.3544
32.1659
38.8807
33.3869
34.5822
30.1971
31.508
30.9959
28.3348
31.9019
28.8758
29.1742
27.295
27.9174
27.4963
16.1031
28.0946
25.5675
26.7074
22.6839
25.0365
14.0215
11.7711
24.6231
21.8837
20.7725
16.7326
22.7638
12.414
15.8341
21.038
18.5014
16.058
14.9755
19.7771
16.6118
17.5427
17.8179
16.075
14.8562
14.785
16.9456
17.4675
16.5181
15.544
14.1185
14.6634
13.8644
36.032
41.3039
35.5664
42.072
35.1839
41.3199
34.438
30.5195
33.5592
29.0884
33.3361
29.3254
32.4345
28.3563
27.2361
28.0157
26.0244
28.416
26.7866
27.3693
25.5411
15.3083
25.8726
25.0816
26.2998
22.2237
25.0872
22.7442
10.529
24.0304
19.5345
20.2303
15.704
21.56
17.5334
13.076
17.9605
14.3706
14.8309
13.5489
16.2134
13.4574
15.8128
13.7251
13.3948
13.5316
13.9427
13.1054
13.0301
16.0933
13.5492
14.164
14.0011
13.6452
13.1173
13.2332
36.5757
44.7569
38.8756
42.0457
34.9291
43.1559
37.7394
29.6763
36.8282
32.5384
32.8524
28.4594
35.7395
30.8351
26.3816
31.1514
28.1001
27.3878
25.1719
29.0519
25.5298
25.4225
27.4979
25.9872
24.6382
22.4301
24.8335
22.7267
21.318
25.2897
23.0542
21.4379
18.086
21.8109
19.5805
16.4301
22.3769
20.586
16.9621
14.5342
19.0452
17.8453
14.2034
19.9818
18.391
14.1055
13.5883
17.3876
16.4062
14.2811
18.0068
17.5676
13.5536
13.4601
16.1664
15.8598
41.2052
45.9642
38.7904
18.9835
18.2862
17.2202
17.7685
34.28
36.6311
31.4252
15.9738
14.0871
17.6236
16.7326
28.775
30.0282
26.7069
14.3885
14.5009
16.7485
12.9959
25.5172
25.845
23.3856
13.5925
13.3852
12.2169
10.8534
22.031
22.5321
20.0059
13.5329
13.4638
10.6247
10.4573
18.94
19.195
17.0366
12.9401
12.948
10.9249
13.6028
16.1038
16.4409
14.8196
13.0689
12.913
13.5273
12.9535
14.5989
14.3463
13.2258
12.7381
12.4712
12.8013
12.4433
38.0184
41.5788
33.8366
20.1997
18.1435
19.3135
18.4523
30.6832
32.0185
28.0699
18.0604
17.3218
18.6047
17.0286
26.2604
27.0248
24.9526
16.1586
12.1763
14.8453
10.8673
22.9544
24.5319
21.3962
11.4038
9.89568
10.1251
8.29422
19.3567
19.7949
15.8639
9.55161
9.18102
7.79372
6.96822
16.4994
14.942
13.6044
9.62677
12.9385
7.38099
10.9603
14.6938
13.5891
13.7119
13.3257
12.9805
11.9999
12.7967
13.2025
13.6288
13.0062
12.8424
12.4555
12.7399
12.4098
32.7178
39.1741
32.1258
22.1928
18.7381
21.3791
18.8491
27.4356
30.3193
26.646
18.814
17.0729
18.6028
18.1635
24.5369
25.7163
23.3901
14.8133
10.7261
16.5179
11.8539
20.9679
22.7792
20.2474
9.95732
8.17986
10.9696
9.69075
15.0054
19.1615
15.6898
7.68846
6.82775
9.40829
9.20348
12.5393
14.5857
12.6448
7.29106
10.6284
9.85111
11.8287
13.103
12.486
12.6094
11.7154
12.6425
12.4767
12.6304
12.8436
12.6751
12.7192
12.6238
12.3718
12.6177
12.4954
32.5044
42.457
35.5067
27.7675
19.2457
31.1008
18.8005
26.6287
33.5066
28.5885
18.6607
17.9391
21.5153
16.8375
23.1285
26.8841
23.6731
17.7826
12.9819
18.3054
15.4084
19.9825
22.9836
20.8146
12.1083
11.1013
17.2953
15.9151
16.1564
19.9683
18.103
10.9105
10.9265
15.5086
14.6781
13.606
17.6493
16.625
11.5519
12.8108
14.3384
13.8891
13.1052
16.241
15.4947
12.9014
12.815
13.7474
13.3967
12.9449
15.282
14.9901
12.7746
12.6189
13.2403
13.0432
24.4774
25.154
21.726
25.7296
23.2458
26.6441
22.4065
23.168
23.8251
16.2661
21.3271
22.4049
25.2512
4.50514
16.625
15.8855
11.5565
2.02538
19.1881
12.7681
2.59762
27.2602
29.5919
29.396
29.2872
28.6768
28.4458
28.212
25.6423
26.8292
28.5364
24.8413
27.7834
23.4096
26.8379
24.1394
22.1552
27.8513
17.2498
26.6018
4.49962
26.1595
17.093
2.61109
17.6787
11.7857
13.2366
2.89593
21.7796
19.9281
23.1549
19.6409
24.1003
19.555
24.2381
20.1627
11.0321
14.0904
7.43531
1.74596
13.2204
11.4681
1.57761
10.62
12.9693
6.94785
3.92653
12.7464
12.0891
3.1065
21.3076
26.0494
26.0704
23.4591
25.4632
22.0783
22.5606
20.7612
24.7673
25.5249
21.8151
25.0369
20.9301
21.9301
11.8143
2.40711
15.9847
7.38766
12.1526
2.25498
15.1929
11.4796
4.12017
15.4416
7.28541
13.0032
2.84655
14.7486
14.3528
10.8571
14.912
1.91161
15.8242
2.37178
13.1276
20.2361
17.2928
18.0729
20.3538
17.5524
20.1129
20.8559
20.2818
18.4636
19.0641
22.138
18.0271
20.0675
21.5711
17.7969
21.1133
17.5979
24.9714
3.51234
22.9584
23.0377
15.1255
2.57355
11.1924
17.3077
2.8821
13.5274
19.9809
22.6127
22.7744
24.6319
24.825
22.6572
23.1505
24.5732
22.2103
23.6672
22.9086
24.9209
21.4924
23.5569
23.9633
9.73752
6.42565
9.96508
2.83602
11.633
1.53385
7.79523
18.2504
18.5268
20.8211
22.2269
17.9585
19.3939
21.7326
16.7959
15.4771
20.2795
19.4474
16.995
14.8281
20.7598
10.5049
2.32262
7.05186
15.0317
2.1612
12.0116
13.0589
9.45556
3.14456
6.39404
10.1978
2.32629
7.89537
11.4635
18.5983
23.2406
21.2935
22.6391
20.2725
22.3052
19.3739
16.8617
19.5123
15.564
21.2176
14.8276
21.062
17.4729
0.966497
1.08969
0.875357
6.59823
7.94862
6.37203
7.51641
0.819319
0.864463
0.851945
9.3561
9.00369
9.24723
10.7054
0.773598
0.802113
0.799829
8.90381
9.42335
11.0187
11.2242
0.659286
0.80614
0.764755
9.81531
9.13545
11.1145
10.942
0.567663
0.706519
0.674076
9.14164
9.1323
10.6743
10.3725
0.501235
0.641252
0.609704
8.99549
8.59284
10.0595
9.76361
0.427504
0.568779
0.523624
8.03418
7.60025
9.23072
8.70336
0.300852
0.473
0.359462
6.65845
6.32478
7.57003
6.35035
1.05348
1.52939
1.14866
7.27819
7.65257
7.7626
9.66863
2.45261
0.350202
0.37214
2.43723
2.47718
2.3611
0.302374
3.85208
0.240061
0.204523
2.93792
3.22469
3.32806
0.205981
5.40702
0.275859
0.249299
4.07432
4.23886
5.22747
0.264136
5.76032
0.276024
0.285715
4.84758
4.98586
5.74188
0.285374
5.11048
0.241256
0.252252
5.16866
5.15068
5.3027
0.235661
4.80566
0.205353
0.202481
5.12627
5.08507
4.83566
0.1989
4.7229
0.192062
0.194383
4.89774
4.80507
4.75061
0.194913
4.28507
0.16721
0.188537
4.17072
3.91095
4.42362
0.186098
0.262955
0.471867
0.293585
4.94984
4.3242
5.94034
4.91122
1.33233
1.91322
1.16033
8.29271
11.4269
7.55336
9.68566
3.67224
0.361541
0.450236
2.97181
3.67309
2.90425
0.360207
5.93411
0.274806
0.292869
5.4268
5.73886
5.63742
0.289598
5.98352
0.262384
0.27156
5.99842
6.00979
6.02356
0.267059
5.52946
0.265144
0.258928
5.88216
5.73031
5.70445
0.254377
3.45784
0.184733
0.186125
4.41077
4.09155
3.7387
0.16046
4.21509
0.164834
0.145756
4.29542
4.39748
3.97405
0.15237
4.60962
0.193515
0.181649
4.69491
4.71231
4.56795
0.18743
4.49776
0.19369
0.190694
4.6123
4.52794
4.572
0.190293
0.345978
0.572067
0.414611
7.17939
6.08049
8.08024
7.09618
0.924018
1.53093
0.901507
6.78662
7.34716
6.4604
7.14649
1.93344
0.25586
0.309552
2.03
2.24298
1.83497
0.237104
2.03505
0.173083
0.135616
3.14877
3.48049
2.0265
0.122129
2.53788
0.183349
0.11818
4.08341
4.05997
2.46336
0.120222
1.93228
0.153888
0.117024
3.53296
3.0855
2.34137
0.107967
2.02537
0.0863722
0.0741944
1.81348
2.01392
1.68996
0.0766676
3.71768
0.131748
0.130061
3.22941
3.53338
3.55084
0.142209
3.64703
0.150646
0.148681
3.78274
3.82796
3.72443
0.146112
3.77089
0.159432
0.143209
3.99496
4.06957
3.6965
0.14445
0.422346
0.460921
0.403232
8.24327
7.60785
7.55455
7.68776
1.00645
2.08413
1.31263
6.81245
8.51376
7.43735
7.74694
2.65697
0.26196
0.365326
2.05806
2.29619
2.34957
0.300957
2.68011
0.1194
0.184875
2.15563
2.0828
2.76179
0.164105
2.23856
0.0713564
0.121354
1.60379
1.24066
2.52855
0.101882
2.022
0.0531353
0.0690465
1.00873
1.14339
1.89636
0.0685391
3.79568
0.103804
0.110343
2.81645
3.45305
3.47859
0.131659
4.22994
0.170874
0.170388
4.16195
4.20852
4.1989
0.176308
3.948
0.162121
0.173352
4.03968
3.8818
4.0809