/*--------------------------------*- C++ -*----------------------------------*\
  =========                 |
  \\      /  F ield         | OpenFOAM: The Open Source CFD Toolbox
   \\    /   O peration     | Website:  https://openfoam.org
    \\  /    A nd           | Version:  10
     \\/     M anipulation  |
\*---------------------------------------------------------------------------*/
FoamFile
{
    format      ascii;
    class       volScalarField;
    location    "6.6";
    object      p;
}
// * * * * * * * * * * * * * * * * * * * * * * * * * * * * * * * * * * * * * //

dimensions      [0 2 -2 0 0 0 0];

internalField   nonuniform List<scalar> 
12920
(
-2.17474e+06
-2.02626e+06
-1.85855e+06
-1.67405e+06
-1.59017e+06
-1.46885e+06
-1.37832e+06
-1.27323e+06
-1.17966e+06
-1.07994e+06
-984821
-885992
-788724
-689408
-590297
-489825
-390118
-289487
-186315
-77818
-2.07038e+06
-1.85268e+06
-1.78599e+06
-1.65046e+06
-1.57009e+06
-1.45831e+06
-1.37202e+06
-1.27024e+06
-1.17845e+06
-1.07981e+06
-985342
-886992
-789868
-690420
-590951
-490350
-390388
-289714
-186315
-77637.2
-1.85482e+06
-1.74652e+06
-1.76147e+06
-1.61909e+06
-1.55684e+06
-1.45051e+06
-1.36588e+06
-1.26518e+06
-1.1736e+06
-1.07619e+06
-983517
-885981
-789882
-690555
-591142
-490142
-390128
-289204
-186044
-77375.9
-1.89932e+06
-1.68238e+06
-1.67145e+06
-1.57109e+06
-1.52106e+06
-1.42696e+06
-1.35108e+06
-1.25789e+06
-1.17111e+06
-1.07566e+06
-981953
-884059
-788003
-688959
-589755
-489188
-389074
-288553
-185679
-77003.6
-1.46848e+06
-1.55345e+06
-1.65446e+06
-1.56719e+06
-1.52398e+06
-1.42749e+06
-1.35319e+06
-1.26075e+06
-1.17327e+06
-1.07711e+06
-982994
-883838
-784850
-684842
-586573
-486289
-386950
-287287
-184977
-76576.4
-1.52372e+06
-1.5386e+06
-1.61991e+06
-1.55049e+06
-1.50663e+06
-1.42397e+06
-1.35732e+06
-1.26624e+06
-1.1789e+06
-1.08319e+06
-987588
-887932
-787748
-686094
-584354
-483689
-384977
-286539
-184464
-76106.2
-1.71958e+06
-1.62013e+06
-1.62026e+06
-1.55498e+06
-1.5192e+06
-1.43589e+06
-1.36282e+06
-1.27181e+06
-1.18664e+06
-1.0891e+06
-994386
-892968
-791970
-688682
-586535
-485093
-385566
-286396
-184171
-75739.9
-1.84508e+06
-1.75638e+06
-1.70803e+06
-1.60659e+06
-1.55079e+06
-1.45681e+06
-1.39386e+06
-1.3034e+06
-1.21331e+06
-1.11881e+06
-1.02176e+06
-919439
-816813
-714532
-588274
-486921
-387049
-287141
-184293
-75575.9
-2.27506e+06
-1.84108e+06
-1.75445e+06
-1.63654e+06
-1.57805e+06
-1.49848e+06
-1.42482e+06
-1.33079e+06
-1.23553e+06
-1.13679e+06
-1.0377e+06
-935270
-831613
-728365
-612675
-488773
-388339
-287953
-184405
-75295
-2.04027e+06
-1.91024e+06
-1.8695e+06
-1.70771e+06
-1.63738e+06
-1.54117e+06
-1.45471e+06
-1.35385e+06
-1.25112e+06
-1.14664e+06
-1.04287e+06
-940597
-836831
-732661
-616975
-491346
-390273
-289048
-184627
-74946.9
-2.11989e+06
-1.962e+06
-1.89554e+06
-1.74826e+06
-1.67918e+06
-1.57943e+06
-1.48816e+06
-1.37903e+06
-1.2695e+06
-1.16024e+06
-1.05256e+06
-947130
-844022
-739951
-622455
-495181
-392823
-290436
-185215
-74903.8
-2.38628e+06
-2.01582e+06
-1.95528e+06
-1.79972e+06
-1.71716e+06
-1.60485e+06
-1.50779e+06
-1.39821e+06
-1.29036e+06
-1.17837e+06
-1.06896e+06
-961120
-854231
-748207
-628742
-500273
-396038
-292463
-186143
-74955.6
-2.25811e+06
-2.08412e+06
-1.99223e+06
-1.84624e+06
-1.75046e+06
-1.61293e+06
-1.5276e+06
-1.40878e+06
-1.2962e+06
-1.1847e+06
-1.07391e+06
-962236
-852719
-744614
-611983
-504978
-399752
-294708
-187361
-75129.6
-2.51135e+06
-2.16123e+06
-2.05133e+06
-1.88627e+06
-1.78591e+06
-1.644e+06
-1.53042e+06
-1.40536e+06
-1.29054e+06
-1.17393e+06
-1.06146e+06
-948032
-837885
-727030
-618405
-509887
-403344
-297006
-188668
-75331.1
-2.73811e+06
-2.28543e+06
-2.14487e+06
-1.94385e+06
-1.81911e+06
-1.67016e+06
-1.55159e+06
-1.42203e+06
-1.30368e+06
-1.18471e+06
-1.07108e+06
-957298
-845373
-733858
-623893
-514286
-406559
-299110
-189863
-75479.9
-2.56039e+06
-2.26858e+06
-2.12905e+06
-1.94246e+06
-1.83407e+06
-1.68638e+06
-1.57069e+06
-1.43803e+06
-1.31949e+06
-1.19614e+06
-1.08172e+06
-965270
-852434
-739273
-628548
-517803
-409215
-300906
-190866
-75614.3
-2.28065e+06
-2.24355e+06
-2.17382e+06
-1.98333e+06
-1.85938e+06
-1.70785e+06
-1.58208e+06
-1.44913e+06
-1.32858e+06
-1.20418e+06
-1.08797e+06
-970160
-856625
-742933
-631583
-520418
-411276
-302270
-191582
-75692.7
-2.35605e+06
-2.20757e+06
-2.15799e+06
-1.99354e+06
-1.86947e+06
-1.71911e+06
-1.59165e+06
-1.45745e+06
-1.33538e+06
-1.21032e+06
-1.09247e+06
-973947
-859807
-745621
-633849
-522209
-412712
-303189
-192004
-75630.9
-2.60717e+06
-2.34745e+06
-2.2514e+06
-2.04684e+06
-1.90088e+06
-1.73665e+06
-1.60052e+06
-1.46249e+06
-1.33855e+06
-1.21306e+06
-1.09479e+06
-976016
-861424
-747110
-635200
-523287
-413549
-303649
-192083
-75459.3
-3.06715e+06
-2.51213e+06
-2.28739e+06
-2.07367e+06
-1.9129e+06
-1.74588e+06
-1.60792e+06
-1.46869e+06
-1.34264e+06
-1.21629e+06
-1.09716e+06
-977953
-862985
-748238
-636102
-523951
-413978
-303746
-191981
-75293.4
-2.32052e+06
-2.02616e+06
-1.8641e+06
-1.67536e+06
-1.59068e+06
-1.46921e+06
-1.37867e+06
-1.27345e+06
-1.1799e+06
-1.0801e+06
-984941
-886071
-788759
-689455
-590326
-489893
-390152
-289524
-186316
-77853.3
-2.12932e+06
-1.85374e+06
-1.78444e+06
-1.64805e+06
-1.56811e+06
-1.45701e+06
-1.37205e+06
-1.27025e+06
-1.17868e+06
-1.08004e+06
-985524
-887158
-790045
-690589
-591112
-490497
-390476
-289790
-186391
-77625.5
-1.98043e+06
-1.76068e+06
-1.75957e+06
-1.6233e+06
-1.55706e+06
-1.44922e+06
-1.36404e+06
-1.26379e+06
-1.1729e+06
-1.07568e+06
-982941
-885495
-789646
-690441
-591050
-490109
-390121
-289258
-186087
-77368.2
-1.9308e+06
-1.66968e+06
-1.67122e+06
-1.56941e+06
-1.52043e+06
-1.42594e+06
-1.35133e+06
-1.25842e+06
-1.17153e+06
-1.07584e+06
-982278
-884319
-788105
-688974
-589760
-489177
-389078
-288595
-185733
-77009.5
-1.58654e+06
-1.58784e+06
-1.65423e+06
-1.56776e+06
-1.52359e+06
-1.42847e+06
-1.35419e+06
-1.261e+06
-1.17351e+06
-1.07723e+06
-983152
-883990
-785230
-685078
-586610
-486338
-386974
-287298
-185000
-76585.4
-1.57397e+06
-1.53493e+06
-1.62552e+06
-1.55119e+06
-1.50817e+06
-1.4249e+06
-1.35802e+06
-1.26635e+06
-1.17903e+06
-1.08323e+06
-987656
-887825
-787438
-685895
-584370
-483735
-385014
-286554
-184508
-76123.3
-1.77747e+06
-1.63264e+06
-1.62305e+06
-1.55675e+06
-1.52062e+06
-1.43637e+06
-1.363e+06
-1.27195e+06
-1.18673e+06
-1.08909e+06
-994158
-892449
-791394
-688202
-586422
-485046
-385582
-286398
-184199
-75768.9
-1.92763e+06
-1.75642e+06
-1.70923e+06
-1.60875e+06
-1.55123e+06
-1.45721e+06
-1.39427e+06
-1.30358e+06
-1.21371e+06
-1.1192e+06
-1.0215e+06
-919842
-816660
-713819
-588191
-486877
-387019
-287156
-184379
-75638.4
-2.16378e+06
-1.83153e+06
-1.74637e+06
-1.63272e+06
-1.57772e+06
-1.49877e+06
-1.42549e+06
-1.33094e+06
-1.23578e+06
-1.13741e+06
-1.03757e+06
-935136
-831843
-728029
-612404
-488693
-388339
-287991
-184515
-75325.2
-2.07064e+06
-1.91762e+06
-1.87022e+06
-1.70735e+06
-1.63811e+06
-1.54148e+06
-1.45552e+06
-1.3538e+06
-1.25095e+06
-1.14649e+06
-1.0431e+06
-940403
-836482
-732877
-616530
-491193
-390248
-289096
-184626
-74992.2
-2.23176e+06
-1.96152e+06
-1.89607e+06
-1.74787e+06
-1.6791e+06
-1.57905e+06
-1.48886e+06
-1.37931e+06
-1.26903e+06
-1.15942e+06
-1.05188e+06
-947198
-844350
-740052
-622153
-494982
-392766
-290453
-185198
-74913.6
-2.31526e+06
-2.03575e+06
-1.95232e+06
-1.7996e+06
-1.71739e+06
-1.60509e+06
-1.50857e+06
-1.39817e+06
-1.28936e+06
-1.17803e+06
-1.06886e+06
-961063
-854269
-748165
-628390
-500093
-396005
-292444
-186163
-75004.9
-2.25064e+06
-2.07412e+06
-1.99636e+06
-1.84733e+06
-1.75078e+06
-1.61351e+06
-1.52809e+06
-1.40881e+06
-1.29663e+06
-1.1849e+06
-1.07381e+06
-962290
-852771
-744519
-611747
-504906
-399707
-294699
-187376
-75152.1
-2.4918e+06
-2.16009e+06
-2.05179e+06
-1.88769e+06
-1.78566e+06
-1.64418e+06
-1.5305e+06
-1.4054e+06
-1.29073e+06
-1.17392e+06
-1.06162e+06
-948248
-837886
-727027
-618413
-509881
-403333
-297003
-188665
-75329.3
-2.69661e+06
-2.26827e+06
-2.14419e+06
-1.94326e+06
-1.81889e+06
-1.66936e+06
-1.55089e+06
-1.42192e+06
-1.30367e+06
-1.18477e+06
-1.07113e+06
-957348
-845401
-733877
-623911
-514293
-406559
-299116
-189884
-75507.8
-2.56761e+06
-2.27983e+06
-2.12903e+06
-1.94341e+06
-1.83342e+06
-1.68634e+06
-1.57127e+06
-1.43802e+06
-1.31962e+06
-1.19638e+06
-1.08182e+06
-965230
-852482
-739344
-628590
-517818
-409223
-300914
-190899
-75661.9
-2.34344e+06
-2.26069e+06
-2.17469e+06
-1.98022e+06
-1.85939e+06
-1.70781e+06
-1.58225e+06
-1.44918e+06
-1.32897e+06
-1.20435e+06
-1.08825e+06
-970067
-856749
-742988
-631632
-520444
-411279
-302289
-191611
-75724.1
-2.36377e+06
-2.22081e+06
-2.15777e+06
-1.99355e+06
-1.86947e+06
-1.71885e+06
-1.59146e+06
-1.4574e+06
-1.33526e+06
-1.21018e+06
-1.09226e+06
-973759
-859702
-745589
-633844
-522211
-412701
-303200
-192040
-75673.2
-2.59737e+06
-2.34894e+06
-2.25225e+06
-2.04687e+06
-1.90089e+06
-1.737e+06
-1.60099e+06
-1.46282e+06
-1.33843e+06
-1.21291e+06
-1.09458e+06
-975865
-861285
-747002
-635137
-523245
-413529
-303663
-192116
-75498.3
-3.05742e+06
-2.5041e+06
-2.28768e+06
-2.07385e+06
-1.91293e+06
-1.74585e+06
-1.60787e+06
-1.46861e+06
-1.34249e+06
-1.21618e+06
-1.09711e+06
-977954
-862935
-748176
-636092
-523909
-413955
-303747
-191994
-75308
-2.19034e+06
-1.98935e+06
-1.86506e+06
-1.6762e+06
-1.59018e+06
-1.46895e+06
-1.37929e+06
-1.27389e+06
-1.18025e+06
-1.08029e+06
-985005
-886244
-788797
-689542
-590349
-489891
-390187
-289578
-186266
-77760.4
-1.91514e+06
-1.84683e+06
-1.78374e+06
-1.64504e+06
-1.56526e+06
-1.45502e+06
-1.37107e+06
-1.26946e+06
-1.17851e+06
-1.07978e+06
-985365
-886980
-790062
-690719
-591284
-490584
-390490
-289827
-186354
-77538.8
-1.91497e+06
-1.76327e+06
-1.76096e+06
-1.62339e+06
-1.55604e+06
-1.44762e+06
-1.36271e+06
-1.26307e+06
-1.17247e+06
-1.07542e+06
-982535
-885109
-789442
-690263
-590869
-490002
-390086
-289345
-186138
-77341.4
-1.88724e+06
-1.66175e+06
-1.67598e+06
-1.56722e+06
-1.52037e+06
-1.4262e+06
-1.35191e+06
-1.25877e+06
-1.17185e+06
-1.07602e+06
-982687
-884659
-788255
-688968
-589732
-489134
-389063
-288674
-185784
-77014
-1.59912e+06
-1.59975e+06
-1.65476e+06
-1.56965e+06
-1.52424e+06
-1.42905e+06
-1.35507e+06
-1.26124e+06
-1.17381e+06
-1.07737e+06
-983370
-884174
-785775
-685413
-586721
-486415
-387023
-287314
-185028
-76589.5
-1.59836e+06
-1.56827e+06
-1.63111e+06
-1.55288e+06
-1.51026e+06
-1.42559e+06
-1.35885e+06
-1.26639e+06
-1.1792e+06
-1.08321e+06
-987649
-887642
-787043
-685638
-584468
-483844
-385139
-286553
-184551
-76148.2
-1.85541e+06
-1.64368e+06
-1.62595e+06
-1.55872e+06
-1.52142e+06
-1.43652e+06
-1.36296e+06
-1.27203e+06
-1.18653e+06
-1.08883e+06
-993615
-891636
-790701
-687816
-586261
-484987
-385540
-286390
-184249
-75785.3
-1.94096e+06
-1.74461e+06
-1.71369e+06
-1.6103e+06
-1.55145e+06
-1.45752e+06
-1.3945e+06
-1.30404e+06
-1.21422e+06
-1.11932e+06
-1.02076e+06
-919087
-815898
-713367
-588203
-486837
-386954
-287159
-184497
-75654.3
-2.09183e+06
-1.82526e+06
-1.7434e+06
-1.63117e+06
-1.57806e+06
-1.49883e+06
-1.42631e+06
-1.33102e+06
-1.23632e+06
-1.13817e+06
-1.03803e+06
-935061
-831390
-727945
-612116
-488677
-388339
-288071
-184560
-75362.3
-2.20592e+06
-1.92523e+06
-1.86944e+06
-1.70729e+06
-1.63875e+06
-1.54151e+06
-1.45627e+06
-1.35357e+06
-1.25074e+06
-1.14663e+06
-1.04319e+06
-939897
-836739
-732939
-616133
-491126
-390249
-289202
-184723
-75044.3
-2.29632e+06
-1.98014e+06
-1.90145e+06
-1.7489e+06
-1.67931e+06
-1.57893e+06
-1.48907e+06
-1.3788e+06
-1.2678e+06
-1.1549e+06
-1.05115e+06
-947881
-844842
-740120
-621693
-494873
-392703
-290430
-185105
-74870.5
-2.3179e+06
-2.04384e+06
-1.95412e+06
-1.80165e+06
-1.71821e+06
-1.60538e+06
-1.50963e+06
-1.39773e+06
-1.28771e+06
-1.1773e+06
-1.06847e+06
-960924
-854361
-748100
-627970
-500011
-395920
-292372
-186129
-75008.5
-2.16039e+06
-2.05748e+06
-1.99058e+06
-1.84618e+06
-1.75076e+06
-1.614e+06
-1.52846e+06
-1.40931e+06
-1.29678e+06
-1.18493e+06
-1.07369e+06
-962426
-852928
-744371
-611574
-504826
-399625
-294655
-187378
-75163.4
-2.37496e+06
-2.12428e+06
-2.04013e+06
-1.88627e+06
-1.7845e+06
-1.6439e+06
-1.53056e+06
-1.4051e+06
-1.29096e+06
-1.17379e+06
-1.06172e+06
-948560
-837899
-727068
-618460
-509879
-403278
-296970
-188667
-75337.9
-2.67122e+06
-2.26008e+06
-2.14238e+06
-1.94204e+06
-1.81821e+06
-1.66874e+06
-1.55047e+06
-1.42191e+06
-1.30376e+06
-1.18496e+06
-1.07121e+06
-957163
-845405
-733933
-623969
-514300
-406540
-299119
-189902
-75538.6
-2.48287e+06
-2.28185e+06
-2.1308e+06
-1.9442e+06
-1.83256e+06
-1.68615e+06
-1.57135e+06
-1.43794e+06
-1.31994e+06
-1.19661e+06
-1.08214e+06
-965071
-852635
-739482
-628653
-517835
-409237
-300920
-190899
-75689.7
-2.4309e+06
-2.27254e+06
-2.17448e+06
-1.97999e+06
-1.8587e+06
-1.70797e+06
-1.58244e+06
-1.44921e+06
-1.32899e+06
-1.20435e+06
-1.08816e+06
-969871
-856833
-743004
-631751
-520501
-411290
-302317
-191636
-75745.1
-2.37124e+06
-2.21673e+06
-2.15581e+06
-1.99227e+06
-1.8688e+06
-1.71849e+06
-1.59114e+06
-1.45735e+06
-1.33509e+06
-1.20998e+06
-1.09186e+06
-973526
-859280
-745220
-633740
-522199
-412687
-303224
-192075
-75696
-2.58548e+06
-2.32634e+06
-2.24966e+06
-2.04712e+06
-1.90049e+06
-1.7372e+06
-1.60116e+06
-1.46312e+06
-1.3383e+06
-1.21285e+06
-1.09449e+06
-975886
-861336
-747008
-635032
-523111
-413434
-303635
-192114
-75502.4
-3.00837e+06
-2.49075e+06
-2.2852e+06
-2.07307e+06
-1.91269e+06
-1.74585e+06
-1.60815e+06
-1.46868e+06
-1.34262e+06
-1.21627e+06
-1.09718e+06
-978056
-862980
-748236
-636021
-523851
-413898
-303761
-192003
-75356.7
-2.15439e+06
-1.96739e+06
-1.86275e+06
-1.67632e+06
-1.58944e+06
-1.46788e+06
-1.37937e+06
-1.27374e+06
-1.1803e+06
-1.08013e+06
-984828
-886074
-788733
-689494
-590391
-489952
-390116
-289654
-186346
-77690.9
-1.88078e+06
-1.8345e+06
-1.78058e+06
-1.64242e+06
-1.56351e+06
-1.45388e+06
-1.36986e+06
-1.26851e+06
-1.17813e+06
-1.07937e+06
-985112
-886748
-789897
-690797
-591387
-490605
-390423
-289877
-186494
-77486.6
-1.92977e+06
-1.75412e+06
-1.75617e+06
-1.62012e+06
-1.55421e+06
-1.44664e+06
-1.36253e+06
-1.26312e+06
-1.17259e+06
-1.07569e+06
-982635
-885128
-789456
-690163
-590755
-489952
-390109
-289456
-186227
-77286.7
-1.74543e+06
-1.66067e+06
-1.66793e+06
-1.56641e+06
-1.52095e+06
-1.4265e+06
-1.35246e+06
-1.25896e+06
-1.17216e+06
-1.07622e+06
-983100
-884961
-788444
-688977
-589719
-489120
-389053
-288779
-185865
-76987.9
-1.73395e+06
-1.62461e+06
-1.65541e+06
-1.5704e+06
-1.52481e+06
-1.42945e+06
-1.35575e+06
-1.26145e+06
-1.17421e+06
-1.07754e+06
-983632
-884364
-786257
-685650
-586845
-486473
-387086
-287359
-185113
-76583.4
-1.67687e+06
-1.58348e+06
-1.63357e+06
-1.55493e+06
-1.51198e+06
-1.4261e+06
-1.35914e+06
-1.26635e+06
-1.17943e+06
-1.0832e+06
-987689
-887564
-787034
-685608
-584668
-484009
-385368
-286522
-184620
-76157.7
-1.71545e+06
-1.61364e+06
-1.625e+06
-1.55945e+06
-1.52212e+06
-1.43654e+06
-1.36319e+06
-1.27211e+06
-1.18625e+06
-1.08857e+06
-993041
-891083
-790169
-687584
-586081
-484873
-385399
-286305
-184304
-75794.2
-1.78972e+06
-1.7203e+06
-1.71165e+06
-1.61039e+06
-1.55123e+06
-1.45773e+06
-1.39445e+06
-1.30464e+06
-1.21458e+06
-1.11921e+06
-1.02019e+06
-918270
-815529
-713225
-588223
-486748
-386868
-287127
-184479
-75611.6
-2.04392e+06
-1.80766e+06
-1.73847e+06
-1.63031e+06
-1.5786e+06
-1.49909e+06
-1.42683e+06
-1.33124e+06
-1.23692e+06
-1.13852e+06
-1.03812e+06
-934317
-831279
-727970
-612012
-488669
-388345
-288195
-184598
-75353.7
-2.27836e+06
-1.93226e+06
-1.87379e+06
-1.70698e+06
-1.63926e+06
-1.54129e+06
-1.45654e+06
-1.35325e+06
-1.25051e+06
-1.14672e+06
-1.04292e+06
-939741
-836914
-733012
-615986
-491066
-390277
-289349
-184827
-75068.8
-2.29718e+06
-1.95738e+06
-1.90433e+06
-1.74915e+06
-1.67981e+06
-1.57912e+06
-1.48867e+06
-1.37701e+06
-1.26589e+06
-1.15638e+06
-1.05099e+06
-948514
-845110
-740089
-621517
-494780
-392596
-290351
-185074
-74840.1
-2.37748e+06
-2.04291e+06
-1.95149e+06
-1.80141e+06
-1.71863e+06
-1.60582e+06
-1.51035e+06
-1.39704e+06
-1.28639e+06
-1.1765e+06
-1.06803e+06
-960878
-854658
-748094
-627785
-499899
-395755
-292208
-186042
-74958.7
-2.13418e+06
-2.03906e+06
-1.99182e+06
-1.84797e+06
-1.7511e+06
-1.61452e+06
-1.52796e+06
-1.41009e+06
-1.29667e+06
-1.18479e+06
-1.07357e+06
-962683
-853187
-744381
-611418
-504716
-399507
-294559
-187364
-75127.1
-2.28828e+06
-2.10631e+06
-2.03994e+06
-1.88637e+06
-1.78409e+06
-1.64356e+06
-1.53082e+06
-1.40481e+06
-1.2912e+06
-1.17383e+06
-1.06182e+06
-948437
-837857
-727146
-618508
-509862
-403224
-296907
-188686
-75354
-2.47097e+06
-2.24508e+06
-2.13726e+06
-1.94122e+06
-1.81766e+06
-1.66854e+06
-1.5504e+06
-1.42191e+06
-1.30397e+06
-1.18508e+06
-1.07137e+06
-957054
-845474
-733966
-624030
-514312
-406517
-299107
-189912
-75556.5
-2.54787e+06
-2.29559e+06
-2.13192e+06
-1.94576e+06
-1.83225e+06
-1.68623e+06
-1.57145e+06
-1.43788e+06
-1.32052e+06
-1.19674e+06
-1.08255e+06
-965059
-852920
-739415
-628759
-517862
-409256
-300920
-190889
-75702.1
-2.48089e+06
-2.27961e+06
-2.17622e+06
-1.97874e+06
-1.85818e+06
-1.70779e+06
-1.58257e+06
-1.44937e+06
-1.32884e+06
-1.20439e+06
-1.08798e+06
-969740
-856714
-742915
-631948
-520610
-411336
-302353
-191664
-75755
-2.25312e+06
-2.20641e+06
-2.15802e+06
-1.99153e+06
-1.86855e+06
-1.71857e+06
-1.59101e+06
-1.45739e+06
-1.3348e+06
-1.20988e+06
-1.09164e+06
-973413
-859099
-745106
-633528
-521976
-412628
-303265
-192142
-75746.1
-2.62204e+06
-2.34682e+06
-2.24543e+06
-2.04724e+06
-1.90026e+06
-1.73741e+06
-1.60127e+06
-1.46319e+06
-1.3382e+06
-1.2128e+06
-1.09444e+06
-975888
-861340
-746978
-634998
-523066
-413365
-303610
-192127
-75528.7
-2.98196e+06
-2.49279e+06
-2.28355e+06
-2.07241e+06
-1.91245e+06
-1.7459e+06
-1.60841e+06
-1.46889e+06
-1.34275e+06
-1.21638e+06
-1.09725e+06
-978130
-863027
-748289
-635965
-523787
-413865
-303806
-192046
-75404.6
-1.96928e+06
-1.93585e+06
-1.86243e+06
-1.67634e+06
-1.58893e+06
-1.46717e+06
-1.37907e+06
-1.27331e+06
-1.18006e+06
-1.07993e+06
-984694
-885921
-788673
-689509
-590385
-489936
-390179
-289737
-186427
-77663.2
-1.98196e+06
-1.83262e+06
-1.78208e+06
-1.64062e+06
-1.56258e+06
-1.45305e+06
-1.36937e+06
-1.2681e+06
-1.17791e+06
-1.07912e+06
-984918
-886572
-789787
-690804
-591454
-490648
-390518
-290085
-186644
-77476.6
-1.87535e+06
-1.72027e+06
-1.75857e+06
-1.6166e+06
-1.55345e+06
-1.4461e+06
-1.36257e+06
-1.26318e+06
-1.17288e+06
-1.07588e+06
-982794
-885165
-789425
-690123
-590741
-489949
-390039
-289515
-186327
-77248.3
-1.60889e+06
-1.65457e+06
-1.6658e+06
-1.56477e+06
-1.52181e+06
-1.42659e+06
-1.35284e+06
-1.25897e+06
-1.17242e+06
-1.07634e+06
-983464
-885139
-788610
-688990
-589713
-489120
-389070
-288823
-185982
-76969
-1.58857e+06
-1.62534e+06
-1.65511e+06
-1.57008e+06
-1.52534e+06
-1.42959e+06
-1.35615e+06
-1.26149e+06
-1.17448e+06
-1.07763e+06
-983938
-884511
-786522
-685744
-586931
-486499
-387113
-287468
-185290
-76583.5
-1.67669e+06
-1.59386e+06
-1.63792e+06
-1.55553e+06
-1.51321e+06
-1.42608e+06
-1.35894e+06
-1.26622e+06
-1.17965e+06
-1.08316e+06
-987743
-887543
-787272
-685678
-584903
-484211
-385574
-286541
-184688
-76161.3
-1.73968e+06
-1.59491e+06
-1.6277e+06
-1.55992e+06
-1.52199e+06
-1.43635e+06
-1.36342e+06
-1.27204e+06
-1.18589e+06
-1.08833e+06
-992578
-890831
-789772
-687511
-585909
-484741
-385327
-286194
-184328
-75793.7
-1.7687e+06
-1.70834e+06
-1.71078e+06
-1.60967e+06
-1.55091e+06
-1.4577e+06
-1.3948e+06
-1.30493e+06
-1.21501e+06
-1.11895e+06
-1.02005e+06
-917962
-815578
-713251
-588311
-486661
-386789
-287119
-184469
-75577.4
-1.9106e+06
-1.79477e+06
-1.73809e+06
-1.63009e+06
-1.57878e+06
-1.49939e+06
-1.42656e+06
-1.33167e+06
-1.2372e+06
-1.13869e+06
-1.03782e+06
-934023
-831133
-727951
-612179
-488780
-388351
-288272
-184612
-75336.5
-2.23145e+06
-1.91499e+06
-1.87349e+06
-1.70752e+06
-1.63943e+06
-1.54064e+06
-1.45615e+06
-1.35276e+06
-1.25019e+06
-1.14663e+06
-1.04276e+06
-939788
-837039
-733089
-615996
-491159
-390341
-289392
-184904
-75113.5
-2.40437e+06
-1.96434e+06
-1.91122e+06
-1.74843e+06
-1.68018e+06
-1.57866e+06
-1.48775e+06
-1.37512e+06
-1.26458e+06
-1.15654e+06
-1.05104e+06
-948502
-845224
-740074
-621424
-494887
-392565
-290383
-185168
-74876.7
-2.39176e+06
-2.04358e+06
-1.95048e+06
-1.80089e+06
-1.71893e+06
-1.60631e+06
-1.51078e+06
-1.39681e+06
-1.28572e+06
-1.17591e+06
-1.06786e+06
-960999
-854992
-748180
-627772
-499858
-395535
-292188
-185974
-74959.7
-2.14641e+06
-2.02897e+06
-1.9903e+06
-1.84739e+06
-1.75107e+06
-1.61458e+06
-1.52749e+06
-1.4103e+06
-1.29662e+06
-1.18443e+06
-1.07338e+06
-962824
-853328
-744279
-611292
-504606
-399353
-294449
-187363
-75109.4
-2.16041e+06
-2.08837e+06
-2.03838e+06
-1.88512e+06
-1.78324e+06
-1.64203e+06
-1.53079e+06
-1.40463e+06
-1.29137e+06
-1.17386e+06
-1.06191e+06
-948292
-837788
-727179
-618542
-509810
-403170
-296810
-188720
-75383.6
-2.58513e+06
-2.25355e+06
-2.1332e+06
-1.94024e+06
-1.81734e+06
-1.66823e+06
-1.55043e+06
-1.42179e+06
-1.30409e+06
-1.18508e+06
-1.0715e+06
-957034
-845595
-733890
-624080
-514328
-406503
-299094
-189940
-75592
-2.75886e+06
-2.31984e+06
-2.13682e+06
-1.94529e+06
-1.83224e+06
-1.68706e+06
-1.5714e+06
-1.43796e+06
-1.32095e+06
-1.19688e+06
-1.08263e+06
-965075
-852973
-739364
-628944
-517897
-409274
-300928
-190930
-75743.8
-2.37309e+06
-2.27525e+06
-2.1757e+06
-1.97796e+06
-1.85722e+06
-1.70745e+06
-1.58251e+06
-1.44943e+06
-1.32856e+06
-1.20441e+06
-1.08786e+06
-969737
-856652
-742816
-631963
-520642
-411471
-302399
-191709
-75813.4
-2.02522e+06
-2.1772e+06
-2.15647e+06
-1.99006e+06
-1.86797e+06
-1.71847e+06
-1.59088e+06
-1.45734e+06
-1.33472e+06
-1.20983e+06
-1.09159e+06
-973348
-858984
-745045
-633439
-521906
-412576
-303275
-192204
-75830.2
-2.62278e+06
-2.35034e+06
-2.24648e+06
-2.04723e+06
-1.89977e+06
-1.73728e+06
-1.6012e+06
-1.46311e+06
-1.33807e+06
-1.21271e+06
-1.09437e+06
-975879
-861348
-746984
-634998
-523066
-413357
-303662
-192231
-75633.2
-2.81993e+06
-2.47045e+06
-2.28121e+06
-2.07159e+06
-1.91233e+06
-1.7459e+06
-1.60852e+06
-1.46896e+06
-1.34279e+06
-1.2164e+06
-1.09728e+06
-978157
-863082
-748301
-635968
-523763
-413862
-303862
-192112
-75491.8
-1.06896e+06
-1.15204e+06
-1.07499e+06
-1.14672e+06
-1.06886e+06
-1.15145e+06
-1.07417e+06
-965665
-1.04874e+06
-973271
-1.04299e+06
-965348
-1.04793e+06
-973666
-1.0778e+06
-1.17211e+06
-1.09095e+06
-1.15395e+06
-1.07728e+06
-1.17138e+06
-1.09054e+06
-975714
-1.06408e+06
-983990
-1.05088e+06
-976333
-1.06374e+06
-983944
-1.35482e+06
-1.44551e+06
-1.37257e+06
-1.42507e+06
-1.35492e+06
-1.4458e+06
-1.37258e+06
-1.26088e+06
-1.34785e+06
-1.27257e+06
-1.33088e+06
-1.26096e+06
-1.34785e+06
-1.27245e+06
-1.16214e+06
-1.247e+06
-1.16965e+06
-1.23567e+06
-1.16223e+06
-1.24698e+06
-1.16965e+06
-1.06285e+06
-1.14392e+06
-1.06646e+06
-1.1372e+06
-1.06348e+06
-1.14387e+06
-1.06661e+06
-961668
-1.04087e+06
-964819
-1.03754e+06
-961717
-1.04129e+06
-964791
-858503
-939271
-861569
-935190
-858665
-939153
-861326
-754983
-835604
-757321
-831885
-754838
-835315
-757351
-652408
-731464
-653837
-728117
-652622
-731512
-653658
-1.37922e+06
-1.47872e+06
-1.39927e+06
-1.45522e+06
-1.37926e+06
-1.47936e+06
-1.39937e+06
-1.27702e+06
-1.3724e+06
-1.29162e+06
-1.35384e+06
-1.27691e+06
-1.37243e+06
-1.29147e+06
-1.17267e+06
-1.2646e+06
-1.18343e+06
-1.25101e+06
-1.17266e+06
-1.26439e+06
-1.18303e+06
-1.06861e+06
-1.15648e+06
-1.07621e+06
-1.14655e+06
-1.06847e+06
-1.15603e+06
-1.07585e+06
-966217
-1.04974e+06
-971109
-1.04298e+06
-966202
-1.04946e+06
-971004
-862865
-945018
-866933
-940486
-862586
-944806
-867450
-758573
-841323
-763988
-836498
-758714
-841805
-764129
-655168
-737950
-659360
-732843
-654973
-738037
-659169
-1.40642e+06
-1.50097e+06
-1.42074e+06
-1.4886e+06
-1.40682e+06
-1.50143e+06
-1.42039e+06
-1.29691e+06
-1.39469e+06
-1.31419e+06
-1.37923e+06
-1.2967e+06
-1.39406e+06
-1.31312e+06
-1.18744e+06
-1.28601e+06
-1.20119e+06
-1.26921e+06
-1.18697e+06
-1.28547e+06
-1.20085e+06
-1.07934e+06
-1.17355e+06
-1.09166e+06
-1.15974e+06
-1.07888e+06
-1.17328e+06
-1.09155e+06
-973182
-1.06465e+06
-983906
-1.05207e+06
-972998
-1.06456e+06
-984046
-869748
-957398
-878129
-947131
-870056
-957513
-878142
-766098
-851690
-772488
-844241
-766201
-851724
-772505
-661104
-746088
-666081
-740027
-660943
-746083
-665964
-1.42553e+06
-1.52942e+06
-1.44427e+06
-1.50824e+06
-1.42558e+06
-1.52992e+06
-1.44407e+06
-1.31719e+06
-1.41465e+06
-1.33171e+06
-1.39818e+06
-1.31678e+06
-1.41455e+06
-1.33154e+06
-1.20611e+06
-1.30265e+06
-1.22052e+06
-1.28961e+06
-1.20581e+06
-1.30254e+06
-1.22057e+06
-1.09612e+06
-1.19206e+06
-1.1103e+06
-1.17816e+06
-1.09607e+06
-1.19182e+06
-1.11021e+06
-987863
-1.0812e+06
-999757
-1.06891e+06
-987812
-1.08109e+06
-999749
-880910
-970837
-890286
-961086
-880913
-970803
-890297
-774689
-861716
-782526
-854263
-774676
-861738
-782507
-667903
-754192
-675092
-748181
-667755
-754131
-674981
-1.35499e+06
-1.44622e+06
-1.37259e+06
-1.42592e+06
-1.35501e+06
-1.44648e+06
-1.37256e+06
-1.26101e+06
-1.34782e+06
-1.27241e+06
-1.33098e+06
-1.26116e+06
-1.34769e+06
-1.27228e+06
-1.1623e+06
-1.24696e+06
-1.16963e+06
-1.23614e+06
-1.16274e+06
-1.24686e+06
-1.16966e+06
-1.06363e+06
-1.14384e+06
-1.06676e+06
-1.13803e+06
-1.06394e+06
-1.14401e+06
-1.06708e+06
-961709
-1.04139e+06
-964728
-1.03792e+06
-961716
-1.04156e+06
-964397
-858629
-939018
-861209
-935187
-858370
-938666
-861055
-754808
-835199
-757387
-831468
-754975
-835237
-757457
-652515
-731532
-653411
-727961
-652482
-731554
-653209
-1.37924e+06
-1.47988e+06
-1.39943e+06
-1.456e+06
-1.37915e+06
-1.4804e+06
-1.39955e+06
-1.27685e+06
-1.37242e+06
-1.29134e+06
-1.35363e+06
-1.27665e+06
-1.37241e+06
-1.29094e+06
-1.17261e+06
-1.26422e+06
-1.18279e+06
-1.25079e+06
-1.17255e+06
-1.26373e+06
-1.18209e+06
-1.06862e+06
-1.15576e+06
-1.07567e+06
-1.14655e+06
-1.06893e+06
-1.15453e+06
-1.07512e+06
-966143
-1.04937e+06
-970856
-1.04321e+06
-965793
-1.0489e+06
-971097
-862470
-944692
-867664
-940026
-862500
-945006
-868257
-758777
-841981
-764189
-836677
-758900
-842466
-764350
-654748
-738062
-658986
-732926
-654529
-738117
-658740
-1.40692e+06
-1.50172e+06
-1.4203e+06
-1.48901e+06
-1.40677e+06
-1.50242e+06
-1.42003e+06
-1.29658e+06
-1.39376e+06
-1.31263e+06
-1.37906e+06
-1.29592e+06
-1.39293e+06
-1.3109e+06
-1.18669e+06
-1.28493e+06
-1.20062e+06
-1.26822e+06
-1.18566e+06
-1.28305e+06
-1.1997e+06
-1.07863e+06
-1.1731e+06
-1.09147e+06
-1.15783e+06
-1.07805e+06
-1.17238e+06
-1.09109e+06
-972948
-1.06449e+06
-984058
-1.05138e+06
-973764
-1.06419e+06
-984010
-870183
-957525
-878149
-947740
-870595
-957515
-878221
-766252
-851737
-772514
-844720
-766406
-851827
-772565
-660784
-746080
-665835
-740112
-660559
-746079
-665659
-1.42557e+06
-1.53041e+06
-1.4441e+06
-1.50932e+06
-1.42549e+06
-1.53102e+06
-1.4437e+06
-1.31655e+06
-1.41447e+06
-1.33162e+06
-1.39787e+06
-1.31575e+06
-1.41419e+06
-1.33168e+06
-1.20563e+06
-1.30258e+06
-1.22059e+06
-1.28814e+06
-1.20495e+06
-1.30287e+06
-1.22044e+06
-1.09602e+06
-1.19173e+06
-1.11017e+06
-1.17751e+06
-1.09573e+06
-1.19136e+06
-1.11007e+06
-987784
-1.08104e+06
-999742
-1.06858e+06
-987642
-1.0809e+06
-999701
-880911
-970783
-890296
-960956
-880959
-970705
-890380
-774671
-861743
-782483
-854325
-774681
-861826
-782484
-667614
-754081
-674831
-748117
-667410
-754005
-674656
-1.35503e+06
-1.44677e+06
-1.37253e+06
-1.42658e+06
-1.35497e+06
-1.44694e+06
-1.37237e+06
-1.26126e+06
-1.34763e+06
-1.27225e+06
-1.3311e+06
-1.2616e+06
-1.34743e+06
-1.27222e+06
-1.16298e+06
-1.24685e+06
-1.16972e+06
-1.23676e+06
-1.16354e+06
-1.24685e+06
-1.16983e+06
-1.06402e+06
-1.14411e+06
-1.06714e+06
-1.13845e+06
-1.06416e+06
-1.14428e+06
-1.06711e+06
-961606
-1.04157e+06
-964311
-1.03815e+06
-961058
-1.04144e+06
-964032
-858381
-938556
-861063
-934487
-858425
-938313
-861109
-754975
-835265
-757478
-831310
-755027
-835335
-757553
-652377
-731563
-653081
-727954
-652283
-731609
-653000
-1.37911e+06
-1.48062e+06
-1.39951e+06
-1.45646e+06
-1.37895e+06
-1.48064e+06
-1.39901e+06
-1.2766e+06
-1.37232e+06
-1.29073e+06
-1.35334e+06
-1.27642e+06
-1.37162e+06
-1.28971e+06
-1.17256e+06
-1.2635e+06
-1.1819e+06
-1.25058e+06
-1.17257e+06
-1.2625e+06
-1.18133e+06
-1.1228e+06
-1.12073e+06
-1.14912e+06
-1.14668e+06
-1.12284e+06
-1.12079e+06
-1.14908e+06
-1.01898e+06
-1.01729e+06
-1.04499e+06
-1.04314e+06
-1.01909e+06
-1.01719e+06
-1.04489e+06
-862552
-945185
-868426
-939746
-862675
-945733
-868738
-758930
-842602
-764389
-836880
-759017
-842845
-764450
-654394
-738126
-658572
-732991
-654339
-738127
-658478
-1.40657e+06
-1.50272e+06
-1.41991e+06
-1.48875e+06
-1.40554e+06
-1.5033e+06
-1.41957e+06
-1.29552e+06
-1.39267e+06
-1.31028e+06
-1.37753e+06
-1.29402e+06
-1.3918e+06
-1.3088e+06
-1.18535e+06
-1.28246e+06
-1.19935e+06
-1.26634e+06
-1.18445e+06
-1.28108e+06
-1.19846e+06
-1.13518e+06
-1.13049e+06
-1.16194e+06
-1.15402e+06
-1.13538e+06
-1.12939e+06
-1.16158e+06
-1.02871e+06
-1.02478e+06
-1.05488e+06
-1.05164e+06
-1.02853e+06
-1.02535e+06
-1.05497e+06
-870736
-957514
-878266
-948307
-871038
-957540
-878435
-766443
-851876
-772586
-845078
-766485
-852060
-772645
-660398
-746077
-665535
-740101
-660292
-746064
-665423
-1.42544e+06
-1.53143e+06
-1.44356e+06
-1.51014e+06
-1.42519e+06
-1.5315e+06
-1.44334e+06
-1.31538e+06
-1.41416e+06
-1.33176e+06
-1.39718e+06
-1.31435e+06
-1.41437e+06
-1.33205e+06
-1.20469e+06
-1.30305e+06
-1.22039e+06
-1.28666e+06
-1.20396e+06
-1.30302e+06
-1.22006e+06
-1.09559e+06
-1.19121e+06
-1.11003e+06
-1.17668e+06
-1.09519e+06
-1.19078e+06
-1.10993e+06
-987591
-1.08084e+06
-999670
-1.06812e+06
-987474
-1.08071e+06
-999588
-881006
-970673
-890422
-960874
-881190
-970655
-890717
-774692
-861860
-782484
-854575
-774745
-862111
-782547
-667280
-753976
-674440
-748088
-667187
-754031
-674375
-1.35502e+06
-1.44707e+06
-1.37228e+06
-1.42649e+06
-1.35513e+06
-1.44686e+06
-1.37196e+06
-1.26173e+06
-1.34734e+06
-1.27221e+06
-1.33158e+06
-1.26198e+06
-1.34706e+06
-1.27213e+06
-1.16369e+06
-1.24685e+06
-1.16985e+06
-1.23715e+06
-1.16392e+06
-1.24676e+06
-1.16998e+06
-1.06417e+06
-1.14431e+06
-1.06712e+06
-1.13866e+06
-1.06413e+06
-1.14444e+06
-1.06721e+06
-960885
-1.04142e+06
-963944
-1.03791e+06
-960559
-1.04144e+06
-963816
-858395
-938270
-861127