/*--------------------------------*- C++ -*----------------------------------*\
  =========                 |
  \\      /  F ield         | OpenFOAM: The Open Source CFD Toolbox
   \\    /   O peration     | Website:  https://openfoam.org
    \\  /    A nd           | Version:  10
     \\/     M anipulation  |
\*---------------------------------------------------------------------------*/
FoamFile
{
    format      ascii;
    class       surfaceScalarField;
    location    "6.6";
    object      phi;
}
// * * * * * * * * * * * * * * * * * * * * * * * * * * * * * * * * * * * * * //

dimensions      [0 3 -1 0 0 0 0];

internalField   nonuniform List<scalar> 
38556
(
1647.8
533.985
-814.136
1066.97
357.145
223.683
1433.23
-9.06399
-357.195
1366.99
-23.7739
90.0135
1326.04
-134.337
175.285
1275.37
-95.7678
146.441
1220.63
-110.575
165.31
1188.65
-103.26
135.24
1169.44
-112.465
131.675
1164.63
-107.643
112.451
1169.21
-99.3312
94.7532
1182.89
-92.7327
79.057
1202.5
-85.0261
65.4078
1240.4
-86.9281
49.0369
1289.43
-87.2953
38.258
1373.38
-92.2556
8.30956
1478.36
-87.8605
-17.1172
1559.49
-66.3334
-14.8019
1555.1
-0.563709
4.96008
29.1879
5.45321
1367.35
1099
214.277
1284.15
703.93
-263.583
1525.8
255.17
-505.885
1527.04
94.3694
-119.38
1437.89
-29.5713
-15.6243
1339.35
-24.4593
27.2375
1196.91
-59.5463
91.4103
1087.75
-48.0384
53.9327
1002.71
-70.3655
42.9467
946.546
-55.9346
4.45465
917.422
-48.8495
-21.3567
907.151
-36.2754
-46.1869
913.461
-30.1388
-61.1976
925.404
-23.9065
-74.9642
941.018
-23.837
-79.0723
961.206
-17.1112
-95.3323
987.134
-8.01113
-105.778
1027.12
14.1898
-120.514
1070.67
51.94
-96.0496
56.6595
-45.0426
-9.00532
1183.46
-1420.7
344.126
376.211
-25.4131
1246.93
7.42115
-655.059
1463.47
-6.49821
-115.667
1550.8
-89.5228
-27.3815
1544.19
-20.6303
2.7816
1392.09
28.4612
64.0985
1223.68
72.182
48.1896
1036.5
63.0871
53.7192
917.84
59.133
3.59716
851.506
38.0674
-20.5822
813.784
30.2542
-28.8079
796.718
15.8737
-28.9463
789.925
8.34206
-25.4558
792.168
-3.55269
-22.5282
798.557
-5.00807
-18.4922
806.842
1.16069
-17.457
819.47
13.3191
-11.7563
828.141
43.6415
-0.372926
49.7841
4.62048
696.713
-165.865
203.474
1294.68
64.7159
-286.469
1343.56
-131.695
90.2349
1349.63
-5.28825
-7.27869
1248.31
-6.36129
18.1606
1137.51
91.9859
-1.81969
1004.09
110.316
51.5619
887.562
169.793
18.9197
804.823
134.214
11.6117
744.337
123.379
-3.76016
715.088
74.182
-6.86538
693.708
59.0856
-7.45111
686.219
30.5733
-7.21016
682.85
17.4751
-5.76466
687.002
-4.21994
-3.48512
687.029
0.0131196
-5.04771
684.123
11.4297
-7.36372
678.027
25.9326
-6.51738
679.245
42.6767
-0.253476
41.9864
2.30928
879.605
591.779
-3445.74
1085.79
278.967
-420.441
1233.4
131.579
-410.877
1264.12
107.143
-143.152
1141.55
111.694
4.50863
1071.65
181.145
-19.2573
997.121
181.371
3.47634
952.346
225.713
-11.1451
916.114
177.892
-7.44576
881.913
171.08
-13.5
849.869
116.61
-10.3844
813.301
101.366
-5.71244
775.534
64.1173
4.22287
735.007
52.5207
5.48122
706.674
10.2418
13.8715
696.027
2.5541
8.10576
691.642
10.5291
5.28573
684.949
29.8542
2.77117
686.745
39.1819
1.69816
35.6392
0.754799
1036.4
317.175
-95.3189
1410.49
375.993
-471.109
1214.64
336.846
-9.41802
1123.21
248.671
-50.1016
982.21
231.067
21.6263
927.536
252.382
-16.5633
969.935
147.833
-8.86142
985.75
237.96
-28.0608
1015.21
175.147
-26.714
1034.6
180.812
-29.1223
1053.58
121.229
-23.5957
1067.19
107.167
-19.4159
1061.37
72.5313
-2.58981
1002.78
77.1494
33.9599
882.207
54.4221
76.3916
770.961
55.9471
57.8526
717.73
44.962
18.7973
693.86
49.3499
4.37449
691.769
41.9343
-0.660772
29.4868
-0.65988
1606.13
-437.121
-970.83
1609.61
401.346
-28.8292
1429.39
466.924
50.1448
1333.03
371.947
-26.9178
1166.48
315.569
82.0468
1019.72
393.619
5.52437
960.238
66.0985
4.41769
37.6064
64.2432
34.9505
950.284
46.7398
13.3878
67.7472
50.97
69.0679
953.3
56.4617
-5.87303
35.5293
53.3143
32.6983
977.354
35.278
16.0738
36.6066
33.3909
35.4099
1000.13
26.19
20.8254
12.5032
24.9803
13.9525
1035.38
8.8101
24.4156
9.7368
12.8235
16.1354
1058.77
7.11409
16.8051
3.20305
12.6969
9.32259
1057.05
10.0717
22.9632
12.9573
16.3576
16.5207
986.429
76.1989
48.8396
873.74
111.199
57.4368
791.576
85.666
41.46
752.229
73.8699
14.8276
746.77
45.0702
2.32263
17.9398
3.11869
749.995
495.458
691.034
786.343
692.908
-327.91
1051.17
574.137
-372.036
1081.85
382.597
-41.3294
1058.9
278.295
60.2163
253.704
88.4903
36.5873
253.88
248.497
248.252
117.974
88.9986
116.14
234.482
82.7019
2.61783
-211.44
206.858
48.7581
2.56378
-208.375
205.695
59.9302
-0.788256
-198.811
205.304
30.3023
-1.51654
-210.536
217.66
20.4141
-1.3481
-222.27
233.256
-5.1195
2.94388
-238.491
245.517
-3.97678
4.06491
-244.734
247.749
3.74644
3.31068
864.556
27.9955
30.0901
-238.854
-241.681
-227.214
-221.46
24.5868
32.6897
25.4909
796.38
147.245
32.1308
759.117
107.17
15.7577
746.812
82.4878
3.68787
755.55
34.1733
2.15822
2.5384
1.68507
1675.61
803.082
-3193.95
1878
994.105
-503.586
1465.64
950.619
35.8791
1350.84
459.279
38.1165
264.56
370.32
168.936
254.17
288.798
282.352
264.981
81.5567
6.51287
-23.2926
-68.2893
67.0214
24.612
-0.0514702
-58.4132
-18.1949
56.1584
19.923
0.526813
-51.7935
-15.931
52.4836
16.1671
-0.926153
-53.3706
-9.89649
54.3816
10.6826
-1.79709
-58.0038
-5.29425
59.2636
6.1447
-2.11029
-62.0217
0.959916
63.5016
-1.5014
-0.938396
-64.7843
1.85586
65.8576
-2.97393
0.0447415
-65.6998
-1.06932
66.2487
0.171236
0.349177
-62.994
238.306
29.0909
9.13796
-64.0893
-60.8327
-60.6238
778.829
176.862
29.0276
-217.142
-216.707
-203.875
-199.75
753.502
124.427
8.06974
757.844
83.5862
-5.44035
769.834
29.1624
-6.97867
2.21902
-8.35267
-344.94
2139.18
-562.018
77.2993
788.172
-216.307
603.452
479.457
-54.9903
705.344
232.031
125.356
166.074
245.647
158.681
165.659
167.497
172.107
-88.4701
191.823
66.0177
-3.29712
-22.5525
-55.5681
59.635
20.1001
-1.61446
-19.8163
-70.1461
72.9756
19.3028
-2.31591
-21.1603
-77.7019
77.8756
22.3854
-1.39884
-17.6708
-75.9614
75.026
19.9614
-1.3551
-9.73536
-72.3523
70.5501
11.6738
-0.136226
-1.06757
-67.6978
67.2148
1.71774
-0.167094
0.949341
-65.2619
64.3354
1.11806
-1.14087
-2.62805
-63.1911
63.1279
3.51485
-0.823552
-63.4507
-36.9392
243.677
39.9769
0.196585
-62.6954
-60.6261
-60.1387
839.005
209.082
23.604
-231.101
-234.281
-212.045
-217.402
803.869
156.887
2.67688
805.602
95.4242
-13.5717
809.677
41.9186
-16.8312
13.7883
-13.3445
512.904
1888.27
1082.14
487.207
761.852
52.0173
813.725
309.678
-156.739
682.393
215.679
147.685
167.181
162.961
101.597
164.696
165.874
165.73
-44.9676
176.696
34.2294
1.22346
-16.2421
-47.0863
49.9327
12.1531
1.2425
-19.2323
-58.0183
59.8631
16.7578
0.629671
-22.0402
-65.9641
67.9824
19.7935
0.228355
-20.5562
-71.8174
71.7741
19.229
1.3704
-11.1285
-68.7072
67.2914
9.7545
2.78983
-4.51931
-62.0345
60.8127
5.15066
0.590494
-5.75984
-59.3737
59.2627
6.54868
-0.677756
-6.4212
-59.6962
60.003
7.57484
-1.46048
-61.1154
-42.0991
242.988
44.7669
-6.36101
-60.3633
-59.1173
-58.6987
884.712
220.229
14.0053
-237.68
-233.164
-221.241
-217.779
857.24
181.361
2.99874
845.534
110.312
-3.18297
836.423
56.8997
-5.86954
27.0666
-7.39736
1508.66
919.169
-3671
762.342
972.288
535.886
617.934
287.719
166.367
582.631
257.128
-6.14556
116.639
167.497
31.2042
149.757
124.81
155.685
-35.3412
143.746
10.1578
-1.92379
1.55727
-44.153
47.8939
-6.01236
0.714261
-2.9897
-52.7391
52.4474
0.81469
2.46669
-7.54253
-54.8244
56.2382
3.313
2.81572
-13.5716
-56.2284
56.3202
12.1916
1.28814
-10.2998
-58.0065
57.8859
10.3561
0.0643176
-7.37498
-55.111
54.31
8.6225
-0.446533
-8.06829
-54.2098
54.5539
8.69309
-0.968917
-9.60488
-55.5901
55.9428
10.0606
-0.808329
-56.98
-48.7806
224.983
54.0995
-8.23679
-55.5
-55.6173
-53.9681
840.013
202.725
10.5988
-219.947
-207.855
-206.967
-198.339
835.213
176.51
9.65144
829.893
112.972
2.66007
815.813
70.531
0.448227
40.5203
-3.14285
-123.118
160.649
1249.78
111.996
666.945
70.229
725.46
29.4927
-355.237
782.732
165.109
34.7458
891.295
73.1007
-14.1666
207.329
-94.1175
-6.90279
22.9155
60.556
21.7327
58.7629
213.321
200.485
207.214
10.8749
200.311
-19.1623
-5.72498
4.49322
11.4369
5.10051
-0.622305
-173.48
153.957
20.6859
6.13479
-2.97464
-0.648668
-3.05166
-0.190396
-157.088
158.99
5.95501
1.71162
-4.00505
-0.720458
-4.65322
-7.46775
-147.567
143.726
37.8246
1.71306
-10.0803
-7.70887
-10.4392
-8.08133
-155.321
169.412
28.221
-2.37688
-11.6414
-8.36617
-11.8454
-9.50958
-171.793
175.131
43.1537
-2.91817
-12.4155
-9.39416
-12.2543
-9.06263
-181.051
186.708
41.0083
-3.74984
-12.4228
-9.02853
-12.4015
-10.4153
-186.409
187.794
50.2467
-3.36289
-13.7834
-10.3647
-13.7057
762.086
179.703
6.05538
-51.4726
-63.7933
-49.3643
-59.6978
-188.235
-181.103
-179.35
-174.828
789.482
163.58
11.7493
809.011
150.124
6.85579
809.93
108.639
3.41456
785.491
88.0082
6.96183
58.9187
2.61693
-492.986
945.54
1991.41
183.089
592.974
-602.104
565.148
81.887
-434.453
638.301
126.122
-34.1656
693.432
39.6663
-21.6977
637.565
-30.4207
-7.82936
628.375
198.191
-26.2038
-17.6761
-59.3385
-20.7316
-65.0505
596.974
64.9602
13.001
-23.7402
-0.646996
-23.7965
1.6232
581.74
147.368
1.77463
-12.9664
-49.753
-16.567
-54.6229
580.131
71.1537
21.9737
-28.1451
-17.2405
-28.0541
-18.0783
589.855
113.961
8.31571
-19.8931
-44.5134
-21.6651
-45.9285
614.491
80.4289
18.9503
-30.5898
-33.0923
-29.1763
-31.1571
645.641
122.116
9.72381
-32.3055
-51.3139
-30.6034
-48.7667
680.039
111.864
14.2144
-39.671
-44.3108
-35.5943
-40.9002
712.663
129.192
17.888
740.579
121.387
14.2769
759.922
120.425
10.3557
761.808
100.239
6.51414
741.973
94.9725
12.871
68.3012
7.59035
233.855
1090.09
947.33
299.737
253.523
273.57
374.54
106.138
-99.0548
460.911
8.21917
31.5316
517.487
2.28287
-19.1922
505.455
-13.7646
-4.62473
572.67
150.41
-19.4353
554.385
79.2239
4.02115
561.417
136.953
3.38342
547.929
81.4907
3.15125
552.43
104.671
4.78888
556.45
71.0499
5.35844
576.968
94.9081
6.68985
595.231
83.8615
9.73926
614.77
100.445
9.20804
635.178
93.1503
7.82887
650.521
97.5672
7.51537
657.853
86.0596
6.84749
660.785
84.3145
7.72606
62.1863
3.83118
-626.499
833.125
-2149.59
-349.237
380.636
-404.375
268.86
70.2387
-582.198
327.632
4.53217
-55.0852
484.128
-42.557
-111.656
500.13
11.435
-41.2019
528.964
124.849
-3.27297
539.614
79.244
-10.6703
552.568
125.253
-1.25445
560.389
75.2494
-1.5793
567.845
96.2654
0.949206
573.973
64.7742
0.147523
586.432
80.3467
2.10246
599.374
69.5534
1.3661
615.488
81.0113
3.31865
628.389
77.9496
2.30043
640.458
82.3226
3.17529
647.736
76.8983
1.88374
654.442
76.8976
0.711063
58.3138
-1.41581
752.892
1678.44
-901.945
796.124
939.698
-602.294
540.834
244.11
81.418
407.855
83.3742
54.1374
396.486
13.5909
-44.7791
388.174
23.0048
-3.25788
426.737
79.8697
6.4164
426.36
65.8301
13.7912
471.331
81.7938
-1.51223
485.937
60.742
-0.0983712
521.669
66.227
-5.69351
541.941
50.7922
-6.29045
571.777
55.8535
-5.34299
592.293
53.5575
-4.51956
614.384
62.1485
-3.22828
631.897
64.0486
-3.61202
648.189
69.0116
-2.98057
660.172
68.8515
-3.93664
673.259
71.2307
-7.42009
54.4799
-6.25054
1437.81
1629.6
-3349.37
1323.52
872.494
181.495
827.525
375.815
364.292
616.899
151.307
142.693
574.571
56.7299
-0.810816
547.689
59.3579
-9.47061
551.49
62.7439
13.3248
550.104
69.5294
-2.31353
566.52
66.4321
-1.0543
577.675
59.2507
-9.66406
597.512
57.9268
-11.5359
614.14
49.3828
-15.2187
636.693
47.7732
-14.4726
657.495
48.7934
-16.0374
679.38
56.2031
-15.9398
699.045
59.5847
-15.2007
719.011
63.0617
-14.0165
737.783
66.208
-16.1287
766.659
63.085
-20.7303
45.7606
-13.848
-70.4363
1513.61
2677.34
64.5591
392.285
345.214
449.585
26.9606
-36.1718
482.868
46.4575
71.5669
557.624
10.1444
-28.1699
535.252
72.8994
8.82985
528.666
84.8781
-15.5481
520.18
114.468
-36.4521
547.837
100.47
-61.6953
568.52
95.3861
-56.8177
612.697
68.3816
-54.6316
652.357
52.1434
-42.4212
699.966
31.8181
-31.654
736.738
42.4311
-30.4091
766.876
57.4776
-31.4128
793.879
65.9113
-33.3296
821.449
68.9449
-33.4537
849.87
72.0326
-34.2456
890.032
64.6636
-41.7407
43.427
-27.2394
12.6134
324.205
940.304
-535.406
1165.12
-197.854
1231.53
-19.9551
1179.16
62.5113
1168.31
83.7513
1151.27
101.918
1171.16
94.5785
1189.9
81.7315
1216.54
68.746
1218.46
66.4589
1198.61
71.9915
1141.61
88.8238
1094.77
89.2746
1076.59
75.652
1080.93
61.568
1099.94
49.9354
1134.99
36.9915
1190.11
9.54238
3.56555
1190.75
-232.702
-387.571
1130.8
109.179
174.449
1248.14
36.1475
-510.676
1211.06
68.6503
58.4373
1206.18
-25.5172
205.685
1188.24
-12.0724
176.456
1184.72
-61.3428
230.173
1192.16
-56.9456
184.738
1207.89
-59.85
175.797
1227.78
-50.6497
143.216
1245.8
-42.4246
119.152
1268.91
-37.9364
93.8881
1292.79
-32.3825
73.9051
1331.7
-37.0749
47.2063
1382.29
-36.9181
24.5833
1445.72
-40.0299
-15.089
1494.02
-27.9224
-37.4911
1503.73
-1.19634
-23.3219
1451.45
44.7484
12.4884
47.4892
5.65301
2294.26
304.136
-485.428
1786.31
455.443
-101.897
1415.58
333.853
-432.858
1298.94
171.838
-105.925
1198.72
72.2717
-13.1931
1124.49
61.0642
28.331
1051.51
6.53615
96.5037
992.707
6.38782
49.4059
952.004
-20.3689
44.1685
920.826
-6.31951
-8.69792
904.193
-7.94019
-39.2082
895.579
-3.06114
-72.4486
896.285
-5.17382
-89.1116
900.627
-10.7973
-105.584
909.135
-12.9869
-111.512
919.133
-13.0352
-132.326
930.405
-6.40904
-138.564
943.962
11.4383
-146.705
950.02
42.9841
-100.343
42.9066
-38.6313
1335.07
81.4605
-1266.97
1447.3
452.244
-134.438
1280.48
181.01
-335.394
1347.6
96.9935
-107.943
1337.38
56.8855
-1.77971
1295.5
102.185
3.54451
1157.68
98.3462
110.109
1024.22
111.758
76.2741
904.035
82.6809
70.8572
822.796
71.3854
7.131
771.271
43.3842
-20.3818
740.947
32.8493
-34.394
725.176
17.8734
-36.2222
716.001
8.82579
-35.9047
714.984
-2.65262
-31.8456
715.783
-4.30428
-28.0217
716.417
1.66996
-26.1711
720.262
11.2286
-15.3917
726.06
35.7192
1.09483
38.097
6.71221
2251.38
-302.206
1913.77
1324.48
329.596
763.079
1215.02
80.7188
299.984
1160.13
117.96
26.644
1069.43
114.103
51.6451
970.101
183.164
16.5282
875.113
172.533
72.3624
783.775
201.876
20.14
726.131
136.891
15.0447
676.012
124.211
-6.46573
650.885
71.3028
-9.65717
629.111
58.5422
-11.3703
620.596
29.6003
-10.4215
614.575
17.9344
-8.85259
616.441
-1.65369
-6.35079
614.139
2.24081
-9.2913
610.822
8.42602
-10.8024
606.468
18.608
-9.54365
611.155
31.6182
-0.838864
30.7283
2.77481
329.155
1901.12
-2934.45
688.287
361.247
-811.224
893.707
154.35
-689.929
947.983
149.326
-228.794
916.662
183.01
-33.0776
874.897
239.847
-34.1747
838.82
201.852
10.2344
804.086
234.976
-9.51197
776.441
163.333
-6.24234
743.111
159.014
-14.9729
716.095
98.6236
-10.6896
685.681
88.8827
-5.63882
660.049
52.9607
6.49417
634.358
43.5991
5.50708
620.676
7.52472
18.3757
614.126
7.38611
9.51005
611.674
9.89166
6.2719
608.434
21.5629
3.05665
612.979
26.1719
2.59874
23.6281
1.50572
1338.45
1686.32
-3577.44
1067.74
534.331
-373.478
980.729
296.111
-64.1713
896.821
210.59
-27.457
814.474
231.175
55.8081
774.313
272.794
-9.34997
823.834
139.294
4.1759
818.306
236.874
-24.4304
829.45
149.396
-23.922
827.331
162.082
-30.071
828.382
99.8587
-25.8822
821.081
97.2462
-20.478
805.858
68.5351
-2.94126
766.205
79.0805
38.1306
710.201
53.1876
86.7329
659.727
53.1321
62.581
631.102
35.0304
22.284
616.744
34.366
5.92873
617.712
23.9615
0.581674
16.1228
0.206033
1116.82
364.376
-1394.74
1216.05
471.632
-65.3578
1081.56
370.064
110.673
1012.19
262.328
-9.28149
947.263
255.55
122.6
827.717
376.965
20.8989
792.353
57.4955
10.0013
29.6436
54.5397
27.3958
774.062
53.3329
19.3932
70.2896
54.7245
70.812
776.285
48.8185
-7.35553
27.9606
46.189
25.6873
799.919
32.718
18.0737
35.1797
32.7228
35.8284
820.555
25.0985
17.456
15.3224
25.5607
16.6108
837.339
18.313
20.9364
21.8621
20.933
22.8332
835.098
19.0212
15.4084
14.7753
21.6146
16.7614
815.333
23.2271
30.6383
20.4458
25.1316
22.3668
765.184
94.2267
57.9492
711.247
98.2439
66.2623
678.312
66.241
43.1835
660.233
50.4238
16.8493
660.661
21.3031
4.55219
8.20514
3.75669
994.721
487.066
1049.74
1000.6
526.073
-388.232
910.051
381.147
-292.569
903.576
226
1.47257
877.069
231.419
110.855
206.403
91.3736
55.6416
206.776
196.352
195.993
120.498
94.3644
123.22
-10.3913
189.067
76.4121
8.81111
-6.05812
-171.307
174.111
50.3588
6.22848
0.249239
-176.869
175.79
51.4372
-1.78828
2.61748
-173.423
181.189
25.7479
-3.41302
1.47338
-186.782
191.91
20.3869
-1.89007
-1.15562
-193.855
200.743
11.8163
0.764704
-1.30491
-203.245
206.112
16.4446
1.01453
-1.0888
-202.329
205.858
18.8221
1.96534
699.541
35.4594
41.5238
-195.445
-190.152
-179.836
-173.421
26.8642
34.2612
25.5205
677.275
117.54
35.1004
666.549
76.7739
15.9514
664.674
50.5318
5.45473
671.358
13.2661
3.5108
0.720312
1.55606
1655.2
472.241
-2335.52
1617.84
504.185
-444.337
1131.11
694.759
208.999
967.086
297.138
131.005
224.564
315.202
193.61
218.188
211.329
204.548
-17.9542
236.138
81.7027
16.051
-3.78335
-24.3316
-60.1445
58.2116
26.7678
3.27994
-1.19529
-49.47
-16.963
48.402
18.207
1.01927
2.08248
-47.3449
-13.7917
48.3276
13.2806
-2.55403
4.23025
-49.0157
-7.26231
49.3939
7.30243
-4.64852
3.60571
-50.7539
-4.27932
51.5877
3.42755
-3.58774
1.86394
-52.6639
-2.63404
53.5024
1.67381
-1.74218
1.06722
-53.9525
-4.06043
54.3914
3.75959
-1.20522
0.49323
-52.9757
-6.80781
53.0094
6.47086
-0.189957
-49.1095
-10.1825
188.498
37.3379
11.9155
-48.9623
-47.1669
-46.8709
671.951
132.715
26.8072
-177.478
-176.304
-166.368
-164.756
672.087
80.0622
4.64526
678.116
43.4377
-4.37493
679.893
10.2258
-5.71566
-1.22538
-7.7586
-263.013
2447.14
2213.52
-166.643
350.421
-158.912
257.552
336.749
-121.175
350.959
193.285
135.801
129.932
215.272
100.7
134.39
120.141
124.407
4.41936
-84.0602
155.865
63.3691
-9.66089
2.12473
-25.4532
-47.0858
51.4974
21.4338
-2.5169
3.4549
-19.5519
-59.1184
60.1598
18.3346
-3.27896
2.71384
-15.0482
-61.3872
61.3177
15.3188
-2.91495
3.11844
-8.93237
-60.2886
59.5912
9.64819
-3.13694
0.415735
-3.46501
-57.5121
57.0357
4.05256
-0.526868
1.10712
-1.73784
-56.2053
55.8494
2.34674
-1.36014
2.18826
-4.21155
-54.7597
54.4296
4.63673
-2.28336
2.08384
-7.69337
-53.3993
52.985
8.15562
-2.13182
-50.8991
-3.06169
-44.8502
193.507
48.5104
5.61868
-50.8901
-48.9159
-49.0186
713.027
152.219
19.5654
-186.103
-191.503
-173.389
-177.497
710.472
91.5945
-6.30004
708.438
45.2109
-13.311
699.76
14.9277
-12.8553
3.72869
-12.6851
1248.49
367.389
-1314.02
331.05
545.67
774.212
505.156
205.169
-199.264
415.466
213.506
217.155
137.052
139.337
53.1954
139.464
129.378
133.907
-7.52688
-43.1029
148.699
30.0631
8.92033
-4.03728
-12.3619
-41.9077
45.4611
8.57914
4.26663
-3.24236
-13.4519
-54.1588
56.1279
10.8722
3.853
-1.95725
-12.9607
-60.4371
61.2882
11.5418
2.52511
-3.04507
-10.3603
-61.6568
61.2706
10.3603
3.43122
-6.16279
-5.50552
-58.7648
57.8846
5.91789
6.63056
-0.913217
-5.05219
-55.833
55.3585
6.04788
0.391957
3.08952
-7.15968
-54.1248
53.7585
8.13613
-3.69969
3.60244
-9.35215
-52.7896
52.5649
9.7876
-3.81323
-51.8644
6.32207
-50.2798
201.111
50.3679
-4.26815
-51.404
-50.2106
-49.7742
746.609
155.758
17.3914
-196.407
-193.799
-182.568
-180.76
737.901
103.873
-0.572358
727.923
54.2994
-2.294
713.181
26.9336
-3.1332
13.1929
-7.66387
563.623
173.711
-640.327
341.063
800.266
503.85
498.008
254.79
-40.1988
435.44
265.408
4.51993
104.605
145.867
-0.84041
131.957
99.5247
124.869
3.66159
-28.225
133.462
0.484274
-4.77819
-3.10463
2.39118
-41.6616
45.5817
-6.22114
3.0145
-7.59137
-3.86545
-49.8218
49.9228
3.44204
7.9138
-6.26359
-7.56481
-51.8084
52.7257
6.66367
6.24743
-4.79765
-11.3904
-53.9049
53.4409
11.3351
5.31687
-1.99948
-9.04988
-51.0996
50.2011
9.87332
2.07452
1.78853
-8.58091
-48.2179
47.8284
9.40001
-2.21807
3.0541
-9.66312
-47.8511
48.1174
9.83471
-3.49198
2.89363
-11.0075
-49.0265
49.3053
11.1372
-3.30213
-49.5781
9.05611
-50.3379
190.961
49.3683
-6.64178
-48.031
-48.1202
-46.6761
725.083
133.76
21.3944
-186.879
-180.641
-175.089
-171.272
721.938
106.209
10.4599
710.77
63.1852
4.94275
692.207
42.0065
3.93813
24.4272
-2.83071
-51.0869
1807.2
-381.433
120.12
662.01
37.2781
544.356
114.105
-638.789
626.477
209.596
8.4365
724.416
93.157
-59.395
161.944
-77.6256
-12.0472
26.46
56.8329
28.0062
56.0813
167.715
152.124
158.022
8.66737
1.03182
147.138
-3.42537
-2.47792
1.72375
8.18869
1.09709
-3.67019
-12.7635
-121.228
115.037
25.6199
13.5819
-5.95198
-4.16654
-6.45877
-4.13217
-4.01792
-129.216
134.975
18.2305
3.6335
-7.17327
-4.69178
-7.60726
-8.55473
-1.87233
-127.041
128.363
38.9489
1.35352
-11.2222
-8.68293
-11.2926
-8.41689
3.81149
-140.288
150.759
30.5665
-4.58001
-11.7327
-8.41206
-11.7077
-8.88291
4.78756
-150.011
152.796
38.9813
-5.70316
-11.6271
-8.81426
-11.5267
-8.46017
5.54015
-158.781
163.562
35.8135
-5.93494
-11.759
-8.36066
-11.6203
-9.30861
4.17591
-162.492
164.035
40.6357
-3.46706
-12.4085
-9.07317
-12.0969
666.997
130.93
16.5098
-40.5238
-50.6668
-36.4658
-44.9133
-164.547
-160.821
-156.91
-153.534
685.766
109.24
17.5005
690.126
98.4266
10.2781
680.585
69.6216
6.51937
659.563
58.9606
11.0305
38.0227
3.0317
-217.37
1726.19
374.12
256.07
568.571
-982.106
424.984
191.688
-680.949
512.06
193.438
-105.083
550.7
90.3157
-57.4962
466.244
15.2286
-16.2276
447.562
239.304
-32.2979
-30.1641
-72.7924
-34.8971
-76.6748
420.962
56.829
14.2405
-21.2973
5.18001
-19.7952
4.44432
432.309
157.423
-0.777934
-22.0591
-57.9721
-26.776
-59.4108
452.828
58.6619
26.9681
-26.66
-16.1015
-26.0343
-15.3793
483.414
112.222
3.53449
-22.5823
-46.2103
-23.1608
-46.0741
516.588
67.7669
22.6516
-26.5286
-27.6984
-25.0245
-25.3915
551.421
105.28
9.41524
-27.2111
-44.6702
-25.5402
-42.3832
583.39
83.853
19.443
-29.2685
-35.1644
-26.0542
-30.5627
610.984
99.0182
22.2059
627.46
88.1726
18.8675
635.271
87.1206
13.8512
632.077
70.0509
9.27881
621.564
66.8885
15.4556
45.2925
7.66354
-166.936
1993.65
2249.28
51.3095
664.873
-40.9787
233.748
285.78
-375.586
330.236
116.426
12.0568
398.728
65.8886
-63.2576
386.78
23.6314
-1.07945
454.925
174.923
-23.1983
429.252
76.2469
10.2758
443.774
138.634
7.65006
436.775
64.2198
4.59245
453.998
93.4544
6.3339
465.194
56.1502
5.77911
491.479
77.9288
7.75638
510.617
62.1446
12.3096
529.991
77.0609
11.7916
547.69
67.946
10.3559
560.975
72.0649
9.28645
568.762
61.1931
7.91818
574.939
60.2996
8.13837
41.481
3.75469
-898.098
1283.49
-516.972
-227.515
296.587
-706.671
111.141
33.6517
-668.725
208.985
16.3505
-52.8535
320.931
-17.9591
-139.754
330.887
14.162
-41.6891
387.354
124.757
-9.57377
404.12
55.4717
-6.66125
432.723
106.091
2.68583
445.328
50.1512
-0.116179
464.481
71.7027
3.54815
477.459
44.0725
-0.752973
497.646
55.7543
4.0895
513.987
43.9483
3.22141
533.002
56.1929
5.17178
546.757
53.277
3.21486
559.581
58.3103
4.10628
567.316
53.5881
1.75339
574.817
53.3243
0.186116
37.5835
-2.38001
-532.547
939.981
-224.563
-496.087
236.054
-578.221
161.582
-141.29
-401.309
206.613
-5.56485
31.0221
256.352
-14.2133
-98.2637
266.696
3.97718
-3.4181
344.068
61.9212
-8.11964
354.842
39.8012
18.6877
403.124
62.4
-6.10234
418.156
34.5609
0.459606
453.344
40.8796
-10.0579
474.15
24.4045
-7.42895
503.762
27.7387
-6.93952
524.074
25.334
-6.21741
546.305
34.416
-3.68202
563.183
37.0645
-4.2769
579.077
42.6209
-3.18549
590.607
43.4542
-5.33243
601.71
44.1192
-9.31781
31.7166
-7.70574
1125.27
355.564
-568.982
963.863
362.146
216.812
589.189
159.106
438.57
487.946
104.374
133.997
442.115
37.409
-6.60246
418.875
30.3095
-12.5627
451.638
29.9369
12.5457
462.18
32.3474
-5.40154
492.903
34.2503
-3.62852
509.305
23.9533
-15.4582
534.917
20.8161
-17.0843
554.322
11.1262
-21.3457
579.202
10.0533
-21.667
600.044
11.642
-23.1873
621.032
17.4665
-19.9775
639.158
22.3304
-18.593
657.051
27.1998
-16.4887
672.043
31.1306
-18.7968
688.803
29.564
-22.9344
21.3375
-15.423
-517.539
567.733
4187.66
-98.5807
137.9
150.503
368.752
-23.8155
-320.582
465.386
43.4328
35.8737
538.28
-5.20016
-58.4545
537.471
33.5668
6.38083
552.437
27.8134
-28.3898
562.708
44.0328
-58.4087
589.598
30.7947
-85.1304
611.18
24.8827
-79.3289
643.898
-0.060174
-66.4736
669.511
-9.41693
-47.4913
698.631
-14.8762
-35.8431
720.686
1.4151
-42.2372
741.012
13.2346
-47.5066
760.313
20.9876
-51.2883
779.124
24.3473
-49.4124
797.702
28.0045
-49.6976
817.147
20.2842
-51.9051
13.5701
-33.1163
192.143
-1184.83
805.816
-1011.18
1019.52
-435.376
1142.95
-99.946
1154.04
46.2217
1186.57
84.7855
1197.51
118.791
1232.98
103.138
1250.53
94.9783
1262.51
81.6527
1237.9
91.0069
1200.63
99.8446
1144.54
130.033
1111.08
124.147
1101.28
98.6889
1104.57
79.2662
1118.9
59.952
1145.5
38.399
1175.12
0.207467
-2.12406
1768.85
245.363
-692.594
1564.01
390.364
-11.0735
1222.25
162.527
-331.441
1135
120.914
24.7692
1120.1
25.1195
195.46
1119.13
36.5163
140.912
1150.9
-4.43059
202.832
1187.99
-2.98214
150.63
1229.07
-11.021
145.745
1265.96
-1.53445
107.855
1293.66
6.11211
85.3454
1324.24
10.6001
52.6993
1349.57
14.8088
33.7739
1375.53
11.4615
9.7811
1395.26
15.2251
-10.3742
1398.14
17.8301
-35.8003
1377.7
28.0177
-45.0691
1328.45
44.5469
-18.6156
1239.89
70.6826
30.3655
46.0175
14.3992
1900.03
900.279
-247.999
1630.22
520.83
37.4519
1314.62
404.049
-358.786
1156.53
233.626
-60.5454
1039.69
116.928
11.8391
969.539
98.6875
36.3129
937.783
45.9778
77.8514
910.333
41.598
32.2764
897.152
18.8901
27.4378
880.674
24.4056
-18.1596
870.377
19.8629
-42.6623
861.371
18.6996
-71.5421
856.669
14.5442
-84.1447
852.725
6.60335
-96.7821
851.919
2.98694
-98.4676
849.532
0.84996
-112.959
843.236
7.21661
-111.467
830.507
15.3698
-104.799
812.406
38.0319
-49.592
31.6584
-13.0357
1042.46
450.599
2501.29
1107.21
458.95
-137.308
1074.52
213.38
-112.04
1111.93
164.848
-76.5761
1070.67
137.422
18.9892
1009.45
154.975
8.48015
930.976
128.637
105.921
856.741
131.338
60.7699
796.951
91.8499
57.6872
743.27
80.1367
5.08036
705.264
48.9204
-11.4336
676.911
37.6813
-25.0223
659.504
22.4382
-26.709
645.78
12.8697
-28.4474
639.542
2.55234
-25.1727
633.668
1.35056
-22.6485
628.603
5.23515
-19.125
626.093
11.8732
-9.38519
629.712
30.7763
4.73165
29.0861
6.47378
478.847
33.6512
473.199
515.718
596.612
588.547
951.505
148.617
-71.0396
929.38
195.017
18.5994
887.079
184.851
46.5181
804.115
241.115
13.3513
755.922
186.372
62.8198
690.098
202.331
14.9711
654.562
127.064
15.3677
611.839
121.044
-4.65043
590.163
66.6277
-5.68799
567.837
57.2674
-8.63114
559.146
27.5847
-6.87664
550.884
19.3473
-7.06741
551.017
1.21415
-5.14576
546.518
4.9177
-8.35999
542.616
7.32131
-8.98741
538.507
13.7951
-7.35671
544.453
23.5299
0.462393
22.2463
2.60842
875.06
805.186
-409.932
850.215
382.288
-572.055
813.697
187.51
-692.304
806.821
186.215
-213.117
780.065
208.765
-30.2354
746.043
262.128
-21.1652
730.869
193.204
18.5763
700
226.723
-3.03481
676.41
144.928
-0.517275
641.752
149.993
-9.26345
616.273
86.5799
-5.16337
587.62
82.5423
-2.26014
569.104
46.0171
6.57721
552.27
38.0319
3.65649
546.639
11.1722
14.0488
542.992
11.4511
6.62346
542.582
9.2854
4.71737
541.256
15.873
2.30486
546.609
17.9788
2.7974
16.3197
1.45924
981.315
1219.8
-2688.79
863.387
492.269
-365.53
766.791
308.059
-88.1245
712.25
213.546
-0.24787
685.839
246.745
44.2397
657.697
279.278
1.64143
714.304
128.492
12.2814
696.688
233.868
-13.9603
698.047
130.704
-11.056
681.216
156.035
-19.2827
668.135
90.7396
-16.9609
644.439
98.2825
-12.5222
620.297
65.6887
1.52909
592.464
73.5109
30.4844
578.381
51.421
60.5672
566.047
44.2664
42.0994
554.251
27.264
16.1018
546.737
24.7812
4.53491
549.286
14.7587
1.25214
10.103
0.593522
670.146
424.324
-168.465
876.528
525.163
-304.633
878.178
358.474
58.6065
815.449
247.08
19.9143
805.851
265.313
113.63
692.473
385.156
28.399
671.82
50.8002
14.2063
24.6401
47.4494
22.0502
647.244
56.5929
21.4893
71.4056
57.2931
71.0575
647.461
42.4603
-4.0001
23.2229
39.7306
21.7175
659.938
33.7022
18.1135
37.2716
34.0935
38.4502
667.539
26.3195
11.8703
17.6811
26.5368
18.1872
666.741
24.7254
17.2419
25.3482
25.9875
26.7137
648.674
24.5484
12.2321
18.6135
25.1694
18.6006
625.064
26.9778
26.043
23.7845
26.9664
23.9882
604.7
87.3602
42.3737
590.76
78.6317
45.8368
584.739
49.1245
27.3441
579.333
35.4187
11.6177
582.042
12.4932
4.10888
5.56511
2.60008
181.195
753.677
-626.475
441.964
531.997
-655.834
592.192
304.874
-389.196
656.188
186.057
-1.50084
708.952
243.533
79.8708
165.379
100.997
47.6039
165.476
155.764
155.399
127.994
102.697
128.44
-13.4616
151.622
69.8055
8.2133
-5.99823
-136.933
144.516
48.9814
6.02708
2.34867
-149.52
149.494
43.3394
-3.20231
3.7122
-147.79
155.749
24.6259
-2.59419
1.60819
-160.428
163.958
22.077
-0.895723
0.416959
-163.339
168.472
18.8801
0.295601
-0.477482
-167.468
168.03
23.9057
0.558228
-2.40757
-162.081
163.818
24.2683
3.38
580.626
31.2104
35.3078
-155.158
-150.915
-143.917
-139.607
22.1163
28.8232
20.3975
580.397
91.1894
22.7717
581.675
53.9239
9.87395
584.765
33.5249
4.25831
588.818
9.74874
2.20202
2.15268
0.495356
532.788
1016.76
-928.145
803.305
540.115
-722.972
667.172
575.43
74.5764
642.942
251.195
90.0968
175.775
307.935
102.275
170.346
164.541
159.212
-19.1374
188.483
92.3604
15.0662
-3.99169
-23.7339
-48.3734
46.3617
26.7013
3.03589
-0.593195
-40.2334
-14.1388
40.1211
14.5101
0.334131
2.86802
-41.4504
-11.0026
42.2696
10.207
-2.89157
4.71001
-42.5509
-6.02369
42.6848
5.58978
-4.41003
3.06062
-43.7633
-4.63949
44.2688
3.79314
-2.71972
1.70928
-44.5035
-4.65976
44.8352
4.28982
-1.67098
0.860924
-44.4711
-6.97805
44.8037
6.38249
-0.597942
-0.272155
-42.3145
-8.51042
42.409
8.2622
0.425904
-39.4096
-11.8407
155.543
31.6846
10.5073
-39.2504
-38.102
-37.9219
584.426
93.1007
19.8172
-149.398
-148.884
-141.179
-139.886
588.842
51.538
2.61586
593.307
25.525
-0.840621
592.374
7.19813
-2.23229
0.538248
-5.64874
-564.273
1064.59
2432.6
-101.623
203.012
-284.459
88.1749
294.612
-30.1554
193.338
191.891
89.9423
97.9589
206.393
16.266
101.994
87.7169
91.645
7.13669
-90.1612
124.06
63.6658
-6.74276
0.779621
-26.5908
-39.6842
43.95
22.1202
-0.57495
2.31971
-15.8906
-49.6459
50.1344
15.0381
-1.95571
2.91138
-9.61684
-50.6307
50.5492
9.53085
-2.7439
2.12509
-5.35104
-49.7626
49.2819
5.60303
-1.89632
-48.2856
0.705025
-2.79718
48.1425
2.92318
-0.687952
-47.4802
1.80084
-4.29367
4.53881
-1.68432
47.1185
2.41764
-7.01063
-46.0077
45.5613
7.39711
-2.35772
1.5335
-9.69359
-43.9914
43.3269
10.0698
-1.24515
-41.3096
-7.37287
-37.5717
159.321
40.7077
7.43894
-41.4327
-39.8384
-39.942
612.942
95.7529
13.3138
-156.241
-158.872
-146.429
-147.801
611.584
52.8451