/*--------------------------------*- C++ -*----------------------------------*\
  =========                 |
  \\      /  F ield         | OpenFOAM: The Open Source CFD Toolbox
   \\    /   O peration     | Website:  https://openfoam.org
    \\  /    A nd           | Version:  10
     \\/     M anipulation  |
\*---------------------------------------------------------------------------*/
FoamFile
{
    format      ascii;
    class       surfaceScalarField;
    location    "6.6";
    object      phi_0;
}
// * * * * * * * * * * * * * * * * * * * * * * * * * * * * * * * * * * * * * //

dimensions      [0 3 -1 0 0 0 0];

internalField   nonuniform List<scalar> 
38556
(
1757.89
101.5
-2383.95
1150.75
299.746
307.39
1572.8
-10.8514
-411.197
1503.96
-32.906
101.741
1455.14
-124.843
173.663
1404.97
-92.6557
142.828
1350.15
-107.811
162.636
1320.12
-102.54
132.569
1303.35
-112.689
129.457
1301.6
-108.923
110.668
1309.47
-101.45
93.5812
1327.06
-95.3456
77.7564
1350.53
-87.8933
64.4229
1391.83
-89.4411
48.1457
1443.74
-89.2878
37.3774
1530.41
-93.7985
7.12691
1637.02
-88.6115
-18.0035
1717.79
-65.5673
-15.1993
1712.07
0.296395
5.42465
30.5835
6.27961
1691.72
1269.7
777.327
1457.31
764.212
-230.056
1661.4
282.267
-497.213
1643.59
64.0988
-79.1963
1556.99
-51.9522
13.7129
1461.23
-43.107
46.2144
1319.27
-59.9533
94.0965
1213.95
-51.2627
54.0442
1132.3
-71.4043
40.3611
1080.14
-58.2945
1.53546
1055.15
-52.7565
-23.7014
1048.94
-40.8884
-48.2535
1059.33
-34.9268
-63.3474
1074.41
-27.9226
-76.6034
1092.69
-26.9991
-80.5678
1114.9
-19.4064
-96.6061
1142.66
-9.694
-106.673
1183.62
14.3291
-120.855
1226.95
52.6765
-95.7127
57.7392
-43.1261
100.181
1048.96
-1275.28
385.193
456.279
22.9225
1343.5
0.465635
-676.51
1577.98
-25.978
-144.402
1667.63
-113.83
-27.7742
1665.44
-50.1885
9.27859
1516.26
8.62256
80.6036
1348.79
53.903
62.3032
1166.24
48.2696
62.8733
1049.7
48.819
9.42801
988.037
23.0471
-14.141
953.518
16.9999
-23.3684
941.257
3.68174
-26.3478
937.526
-0.0769971
-24.1144
942.257
-10.4522
-21.2775
950.666
-9.9056
-17.9095
961.171
-2.88787
-17.3117
974.202
13.5235
-12.2255
982.687
44.5733
-0.381192
50.9232
5.97093
1087.87
429.603
738.612
1423.95
221.169
-100.968
1414.37
-111.699
121.737
1422.86
-52.0134
17.5488
1341.34
-60.0567
27.7426
1239.75
39.6318
11.7717
1116.03
78.034
54.3086
1004.6
152.683
12.6568
929.654
115.364
7.84801
876.132
108.429
-6.08741
851.762
57.9968
-10.5794
832.384
46.6495
-10.2723
830.029
13.9341
-7.8971
830.296
5.36032
-5.70369
836.514
-13.3428
-3.32727
838.14
-6.46018
-5.07255
837.06
5.6028
-7.4099
831.066
26.5828
-7.06525
832.535
43.4582
-0.353556
42.7075
3.29478
578.681
753.703
-3152.35
1024.54
262.811
-487.503
1257.04
60.5185
-404.714
1331.6
28.376
-154.948
1233.94
48.1209
-10.5195
1173.45
131.82
-31.6993
1110.93
142.308
-1.75266
1075.31
202.412
-14.1146
1046.61
153.978
-9.9144
1018.41
151.645
-15.0079
991.44
97.3244
-12.3616
959.452
86.1032
-7.4657
922.776
49.0411
1.56945
882.137
42.8042
3.19477
857.047
-1.48126
13.2283
848.109
-4.50969
6.98765
844.736
4.18868
4.78699
838.63
30.1752
2.51353
840.906
39.5414
1.64098
36.272
1.71696
590.77
-517.65
-267.175
1326.46
35.2913
-508.171
1226.52
167.883
-7.42732
1180.61
124.885
-50.591
1060.86
149.757
18.1064
1016.54
203.694
-27.5481
1086.38
87.7684
-15.3045
1110.06
207.809
-29.0767
1149.65
142.5
-28.1074
1176.24
154.633
-29.5759
1201.58
96.3748
-24.3977
1219.5
86.5812
-18.394
1215.16
54.1817
-0.801255
1156.68
63.9411
37.3388
1034.46
44.2294
76.5145
923.011
49.4
57.538
869.186
40.3452
17.6693
847.679
47.6267
4.05482
846.62
41.4654
-0.864131
29.6394
0.107685
1665.87
-722.135
-1766.86
1611.47
125.051
-35.3623
1454.55
273.413
51.3852
1386.74
230.591
-37.8958
1249.82
212.888
73.7895
1123.67
327.237
2.6129
1074.79
53.1603
8.97137
12.3937
51.0939
11.024
1074.7
35.8995
13.7142
58.2562
40.432
59.5973
1089.59
49.0204
-1.44216
19.5342
45.7654
14.7316
1121.22
27.1271
17.7044
27.3753
25.0354
25.7622
1149.85
18.5441
22.8243
3.7423
17.284
5.34837
1191.03
-0.0974777
28.4866
4.09596
6.91483
6.00891
1215.58
-0.488345
19.5193
-1.49999
8.21647
3.87928
1215.58
5.95702
28.5359
6.10325
12.4275
10.9186
1141.01
68.3151
50.4813
1027.29
104.996
58.1301
945.585
80.5804
41.4651
907.615
70.8831
14.7139
903.454
43.5751
2.05143
17.6059
3.88306
775.512
-340.807
69.1602
855.955
389.767
-345.159
1150.29
375.949
-396.875
1178.51
243.414
-41.0339
1164.26
167.435
59.6941
285.198
68.2165
34.0946
281.048
279.797
275.164
100.59
68.5957
98.7977
268.262
67.7687
2.32712
-238.119
238.127
33.7575
2.13388
-240.592
241.584
49.105
-1.07623
-230.214
241.709
18.1333
-2.50113
-245.754
257.561
7.5811
-0.843894
-260.086
273.28
-14.595
1.3035
-277.063
285.569
-11.8146
2.82021
-282.769
287.625
-3.83109
4.93243
1020.14
24.002
30.13
-275.556
-281.42
-263.925
-261.331
23.3589
28.5075
24.4039
952.332
140.392
32.4154
915.667
101.308
15.9382
904.515
78.5755
3.45924
914.44
32.2236
1.42669
1.09319
2.44214
2205.09
1330.66
-3196.25
2106.91
972.621
-484.676
1596.51
827.507
58.8439
1457.96
339.858
42.1072
293.375
257.798
175.93
276.994
316.86
304.436
295.694
59.9361
5.96187
-18.7755
-77.2527
75.6702
20.3337
0.0243127
-66.4738
-14.5899
64.6275
15.9694
0.466846
-60.2835
-13.2196
61.4418
13.0859
-1.02455
-62.3014
-7.76177
64.0599
8.08616
-2.08282
-66.9739
-2.63391
69.1482
2.26634
-1.80668
-71.719
3.14473
73.5417
-4.12389
-0.843585
-74.4022
3.4865
75.769
-4.7233
-0.130067
-75.4019
0.827526
76.2298
-1.95348
0.298007
-72.319
275.98
25.289
9.74286
-74.0669
-70.0009
-70.623
936.262
167.01
29.2642
-254.536
-256.578
-241.214
-239.816
912.619
117.186
7.76472
918.311
79.0329
-6.1491
931.268
27.1919
-7.9255
0.584142
-7.3181
-351.597
1956.73
-1709.62
234.517
709.351
-322.843
747.419
378.161
-63.5565
839.206
115.907
132.164
203.078
137.262
155.624
195.412
204.203
201.425
-61.8135
227.211
42.0615
-4.38101
-17.0453
-65.4964
69.0095
15.3959
-1.86377
-15.8176
-79.6972
82.6073
15.2665
-2.35903
-18.097
-87.4153
87.5161
19.3183
-1.32205
-15.1916
-85.918
85.0527
17.4192
-1.36228
-7.35047
-82.2058
80.3432
9.33238
-0.119347
1.60544
-77.7753
77.3619
-1.03765
-0.154462
3.06808
-75.4893
74.6127
-1.08788
-1.10363
-0.554058
-73.4577
73.3557
1.50641
-0.850325
-73.2785
-33.6076
283.089
36.6361
0.98215
-73.0079
-70.438
-70.3753
999.691
197.957
24.4163
-270.2
-275.328
-251.16
-258.367
965.992
148.387
2.49771
969.24
90.069
-14.2835
973.723
39.1829
-16.4749
13.3426
-12.7415
586.601
1789.56
566.42
600.404
641.803
53.7447
947.926
199.506
-168.866
807.331
101.645
154.856
207.327
23.5148
109.265
198.748
205.887
199.853
-13.9848
212.538
6.95095
1.82213
-11.0674
-57.5362
59.9385
7.53925
1.12586
-15.1099
-68.3004
70.2131
12.6757
0.521534
-18.7632
-76.6326
78.7012
16.4041
0.290493
-17.7955
-82.4462
82.2701
16.3667
1.60493
-8.60667
-79.0945
77.6783
7.0357
2.98718
-1.47506
-72.2999
71.0966
1.94525
0.733026
-3.74631
-69.6377
69.5764
4.62567
-0.818028
-4.91867
-70.0988
70.4471
6.09171
-1.52142
-71.2042
-38.333
283.84
40.7699
-5.72507
-70.985
-69.1857
-69.1768
1049.01
207.889
15.3577
-277.982
-275.195
-261.443
-259.676
1022.36
171.757
3.28126
1011.75
103.913
-3.24142
1002.72
53.4784
-5.26613
26.527
-6.04979
1654.16
375.706
-3665.59
882.939
810.828
602.198
739.164
151.47
191.811
736.135
116.347
-11.6732
163.833
20.5404
28.9239
184.241
171.863
190.248
-4.31589
184.976
-13.5715
-3.25536
8.10806
-55.6039
58.3185
-11.2587
0.436146
2.64337
-63.1296
62.8001
-4.65347
2.33956
-3.74442
-65.1404
66.6143
-1.26724
3.53768
-10.273
-67.1335
67.1496
8.91015
1.34673
-7.2701
-68.934
68.7492
7.3368
0.118036
-4.76395
-65.7838
64.9642
6.09344
-0.509835
-6.20211
-64.8447
65.2231
6.84276
-1.01903
-8.15019
-66.3087
66.6605
8.59637
-0.797998
-67.3965
-44.7821
266.042
51.0878
-7.58667
-66.4945
-66.0269
-64.8428
1008.9
189.368
11.8648
-261.785
-250.834
-248.611
-241.017
1004.12
166.49
10.0542
998.845
106.161
3.02347
984.668
66.8944
0.761498
39.881
-2.26884
130.519
210.183
2463.94
157.857
515.081
268.409
853.436
-182.495
-361.614
959.953
-19.7115
29.5413
1064.75
-58.5327
-25.7236
255.954
-196.418
-12.7915
51.7282
85.0373
50.5045
83.1943
252.522
248.915
246.104
16.7057
244.688
-37.0367
-6.75248
10.3045
17.1885
10.8562
3.89412
-219.054
198.377
1.16839
6.45229
2.75925
3.79873
2.60448
3.47536
-202.471
203.31
-9.41536
0.206107
1.23838
2.97752
0.679462
-3.894
-191.551
186.749
26.0168
1.07994
-6.80127
-4.42294
-7.17648
-5.56737
-201.465
214.405
17.7517
-2.12812
-8.4248
-5.9403
-8.63114
-7.91224
-217.104
219.178
35.9666
-3.13335
-9.67002
-7.78963
-9.5354
-7.93334
-225.9
230.307
35.3637
-3.90442
-10.0141
-7.8989
-10.0197
-9.77692
-230.889
230.881
46.1444
-3.30147
-11.6981
-9.72165
-11.6376
936.1
162.936
7.63936
-50.398
-56.1894
-48.1201
-52.169
-231.635
-226.077
-222.465
-219.621
962.705
150.416
12.3467
981.571
140.386
7.23833
981.904
102.159
3.66824
957.001
84.5739
7.22407
58.3192
3.45183
-412.363
322.24
1269.96
365.345
318.054
-580.682
752.493
-150.102
-419.541
829.001
-48.9985
-47.2211
883.556
-89.4595
-23.6279
835.373
-141.437
-6.79804
825.029
104.27
-20.7755
5.70825
-37.5679
1.99942
-43.2901
792.45
-20.7343
13.0507
-1.67323
20.9191
-1.95271
22.9692
770.786
90.7196
5.75146
0.574389
-35.216
-0.272126
-39.8928
770.676
7.58224
24.4773
-15.9778
0.46521
-15.8863
-0.551297
774.221
78.4105
6.35754
-8.03299
-33.6114
-11.718
-34.95
799.094
51.6208
16.9252
-25.5233
-22.9764
-23.8637
-21.0558
827.581
99.8032
9.90091
-29.2526
-42.0146
-27.4136
-39.5111
860.452
93.2949
14.3316
-38.09
-35.9345
-33.831
-32.6415
891.163
114.361
17.8636
917.561
109.738
14.2791
935.609
111.838
10.5012
936.488
94.531
6.7496
915.941
91.9076
13.2126
67.6775
8.60135
435.113
916.963
1572.89
580.628
23.6178
148.921
639.038
-100.699
-107.814
700.05
-144.867
34.8567
742.329
-113.048
-18.6893
719.64
-110.603
-8.14504
785.517
50.4748
-12.0818
761.926
-2.65436
5.51098
762.275
87.6262
2.74371
741.832
27.3536
0.672483
743.02
73.3746
3.84767
744.891
44.8505
4.89871
762.932
75.1955
6.56631
778.866
67.6554
9.70552
796.191
87.9182
9.11921
814.781
83.3495
7.79793
828.627
90.4154
7.57661
835.041
81.2435
6.87367
837.475
81.6584
7.81439
61.6857
4.4395
-467.82
845.355
-2863.04
-65.2329
155.909
-534.878
528.279
-117.329
-576.882
574.283
-147.191
-43.6803
720.231
-161.422
-97.5743
727.943
-80.1457
-38.1692
754.536
33.6142
-9.73215
755.783
4.129
-8.0306
764.458
82.9665
-4.01482
761.375
34.609
-4.17275
765.45
70.5819
-1.28299
766.787
43.885
-0.370943
775.797
64.7465
1.43886
785.568
56.987
0.897745
799.112
71.2941
3.07972
810.049
70.2028
2.21007
820.793
76.5485
3.1234
827.179
73.0195
1.8376
833.479
74.731
0.627658
57.8352
-0.894121
906.825
1259.55
-2177.87
1122.05
699.944
-759.262
849.496
45.0825
110.145
698.037
-74.3154
78.5832
666.508
-88.1654
-41.7273
641.735
-57.6479
2.27545
665.015
1.44318
8.89063
650.778
4.15154
14.2145
689.69
48.5768
-4.52156
693.228
32.0821
-1.01154
724.415
47.1783
-7.78315
737.912
34.9822
-4.59395
763.994
44.3966
-5.73231
781.052
44.3291
-4.39965
800.744
55.1336
-3.53118
816.172
58.5377
-3.76305
830.868
64.8703
-3.01784
841.877
66.1081
-4.09768
854.422
69.6615
-7.4759
54.0256
-5.5641
1740.05
1028.23
-3722.13
1688.04
604.595
147.363
1152.67
206.455
373.999
917.32
20.6451
140.385
858.136
-27.2886
-1.69251
816.333
-9.857
-5.98792
799.281
-0.276495
18.7716
783.323
23.2507
-3.14063
790.121
39.9823
1.79655
791.234
39.2788
-8.31026
803.715
43.4219
-8.72402
813.495
37.5057
-12.3043
831.309
39.0771
-12.4937
848.516
42.3783
-15.2565
867.748
51.2896
-15.3876
885.286
55.9198
-14.921
903.654
60.3852
-13.8826
921.513
64.4984
-16.249
949.931
62.0451
-20.8017
45.3635
-13.1938
516.342
1103.18
3749.38
504.476
188.908
427.552
849.841
-86.6841
-52.2261
836.834
-28.2696
61.9215
874.802
-35.2592
-29.9978
823.873
36.3382
4.73396
789.674
57.8838
-23.961
760.256
95.1007
-42.4328
774.933
86.2768
-60.9716
784.866
84.6952
-55.3492
820.918
59.6387
-52.2689
854.449
45.2065
-41.2318
897.433
26.3669
-30.2735
929.934
38.7671
-28.8893
957.027
54.6967
-30.5002
981.81
63.7751
-32.6385
1007.65
67.6008
-33.0511
1035.14
71.2663
-34.2655
1074.78
64.0262
-41.6209
42.8806
-26.4788
896.593
911.336
1519.9
-434.395
1621.45
-188.233
1607.72
-14.541
1506.98
65.4779
1460.76
82.5568
1417.33
101.31
1417.86
94.5786
1421.21
82.926
1436.39
69.5146
1429.13
66.9005
1402.06
72.2721
1339.08
89.3511
1288.27
89.5691
1267.21
75.7647
1269.1
61.8797
1286.82
49.887
1321.6
36.4863
1376.45
9.17707
3.77592
1489.11
-324.653
-186.486
1306.35
126.149
363.999
1392.22
40.6976
-537.761
1343.74
74.1556
76.0672
1334.66
-32.9733
215.711
1317.78
-20.2301
179.944
1314.79
-60.5205
226.143
1324.48
-57.2121
180.085
1342.74
-60.776
171.979
1365.69
-52.7165
140.43
1386.82
-45.0595
117.513
1413.7
-40.897
91.7728
1441.24
-35.575
72.4652
1483.46
-39.7681
45.694
1536.81
-38.98
23.0001
1602.04
-41.4305
-16.6672
1650.72
-28.4836
-38.2068
1660.16
-1.67324
-22.9639
1606.66
45.5768
13.3476
48.62
7.27116
2755.44
433.402
551.718
1936.93
557.483
157.123
1527.65
370.661
-417.9
1407.09
183.397
-67.8742
1312.89
55.0699
19.8644
1241.73
44.5909
52.5604
1173.43
-5.27355
107.15
1118.39
-4.77966
56.646
1081.41
-30.179
46.748
1054.33
-17.4549
-6.64663
1041.51
-17.2692
-38.6704
1036.47
-12.1478
-71.9659
1040.98
-13.0888
-90.3439
1048.52
-15.9873
-107.924
1059.71
-16.716
-114.023
1071.47
-15.5099
-134.28
1084.61
-8.3895
-139.916
1098.69
11.2807
-147.885
1104.66
43.6824
-99.7876
43.9289
-35.6746
1678.43
229.746
-119.322
1570.75
567.915
120.169
1386.88
160.546
-282.525
1459.16
65.9501
-99.233
1452.17
35.6058
-1.32257
1415.87
74.0119
16.1582
1280.55
82.5197
128.136
1148.09
105.18
84.8062
1032.06
72.5288
76.1866
952.513
62.3747
9.14971
906.105
30.8965
-15.8989
878.85
21.8734
-30.1346
868.33
5.16518
-34.0822
862.45
0.574911
-34.7969
863.802
-9.62303
-29.7223
866.49
-9.37114
-26.7353
869.096
-2.30849
-25.9988
873.427
11.0706
-16.3463
879.231
36.5365
0.961021
39.1613
8.68922
2536.31
482.407
3471.05
1376.67
555.035
1071.55
1269.29
51.8969
337.775
1228.06
66.5088
58.2156
1160.76
66.3619
64.288
1067.34
167.211
11.9907
984.061
153.086
67.0227
899.871
186.536
15.4898
850.298
118.623
11.3279
806.202
109.622
-9.23932
786.363
54.6596
-14.5042
766.824
46.3994
-15.2591
763.248
12.638
-11.7932
760.793
5.66826
-8.34184
764.679
-10.5134
-6.32282
764.143
-4.46571
-9.44242
762.608
2.33027
-10.513
758.423
18.897
-10.707
763.4
32.3422
-1.13657
31.418
4.25472
45.7864
1982.39
-3387.61
638.026
341.114
-865.822
909.781
71.2153
-695.788
1012.53
62.1869
-253.372
1005.66
105.783
-43.0703
974.627
209.552
-43.0116
952.414
167.451
6.09503
925.139
212.082
-12.3852
905.084
138.075
-9.31091
877.526
139.174
-17.0018
855.716
77.5706
-13.4625
829.401
73.1163
-7.86745
805.859
35.4134
2.33685
780.068
31.919
2.73487
769.342
-3.6712
17.112
764.857
-1.1935
8.20017
763.431
3.12242
5.42064
760.71
21.4825
2.64915
765.921
26.4092
2.3635
24.2756
2.84026
923.778
757.832
-3674.49
972.457
177.929
-393.664
987.987
126.529
-78.2712
952.232
86.0373
-38.6858
890.331
148.575
37.2145
862.696
227.498
-17.8596
938.871
77.3746
-1.40315
940.125
206.909
-25.1577
961.598
114.185
-25.6918
966.004
135.43
-30.2367
973.06
72.5217
-26.4054
970.572
76.2361
-19.0258
957.644
48.412
-0.871901
918.877
66.5689
41.4561
862.276
43.2768
86.168
810.9
46.3688
61.3519
781.609
30.043
20.0395
769.169
32.4051
5.57236
771.327
23.2248
0.162167
16.278
1.3403
1273.43
153.62
-1264.29
1208.36
184.873
22.7587
1108.95
161.06
116.266
1064.39
108.714
-16.0084
1031.45
139.005
116.297
931.955
311.41
18.1958
905.035
43.8297
11.7276
9.8258
40.4047
7.47804
896.746
42.9602
19.6713
60.6908
44.4108
61.1793
910.666
40.7786
-0.152387
10.8583
37.9638
9.37562
941.668
24.2437
21.5304
25.5241
24.3133
26.5198
967.976
17.6253
21.261
6.22187
18.2408
5.68927
990.329
12.6194
28.4535
11.451
15.0496
14.7962
990.268
14.7151
20.9111
6.36947
17.5624
8.4341
971.643
19.4473
35.0094
17.643
21.4201
20.2097
919.149
86.2063
60.0458
864.642
91.4995
67.5073
831.672
60.7693
43.7086
814.734
47.1564
16.9008
816.346
19.5221
4.14161
7.96171
4.90918
1147.83
-200.658
531.174
1102.21
249.575
-364.242
1013.11
166.583
-313.296
999.861
83.876
-2.94981
981.674
103.925
112.961
237.236
71.4944
52.4041
233.038
226.96
221.961
103.296
74.662
106.127
-10.1509
221.024
61.5172
8.67518
-5.28724
-197.78
204.571
36.1483
5.3079
0.721941
-207.925
210.616
40.0144
-2.64923
3.33149
-204.109
217.149
11.7592
-3.88738
0.482159
-221.246
230.415
8.11435
-0.14003
-0.342314
-229.873
240.438
1.20871
1.18809
-3.14612
-240.367
245.747
9.15752
3.32363
-3.62832
-239.224
244.136
14.3985
3.765
854.472
31.25
41.3606
-231.94
-229.866
-216.122
-213.001
25.8201
30.0652
24.2979
832.447
110.273
35.6666
822.297
70.5658
16.2917
821.47
46.3301
5.11289
829.216
10.5551
2.64773
-0.551143
2.78148
2169.92
877.519
-1681.01
1820.96
467.687
-353.829
1249.33
559.663
237.397
1069.22
168.388
137.699
252.28
200.456
191.626
239.803
238.887
226.026
-17.3582
265.358
60.599
15.1755
-3.64165
-19.8463
-68.3733
66.1928
22.6215
3.04692
-1.0772
-56.9316
-13.4422
56.2947
14.2325
0.923887
2.33336
-55.226
-11.0658
56.7795
10.0384
-2.85959
4.78108
-56.9512
-4.47989
58.1359
3.75694
-5.24279
3.54495
-59.3612
-1.28949
60.5499
0.2873
-3.73153
1.66078
-61.4738
-0.102049
62.6451
-0.975348
-1.75466
1.05563
-62.8193
-2.55415
63.8645
1.23152
-0.778197
0.287607
-62.041
-5.75975
62.3537
5.21253
-0.0530569
-58.1986
-10.9678
225.81
33.3488
12.7349
-58.7143
-56.1911
-56.5714
828.928
122.227
27.0469
-214.56
-216.254
-203.322
-204.529
830.47
72.5582
4.23046
837.607
38.6944
-5.64997
840.252
5.8438
-5.85924
-2.39202
-6.41565
-234.798
2201.53
351.451
-9.04469
258.427
-339.337
396.42
242.802
-152.161
481.126
71.4103
144.437
166.156
102.429
96.8382
162.952
156.097
152.733
6.02945
-57.7595
189.624
39.3422
-11.0802
2.59852
-20.1824
-56.4396
60.1835
16.8401
-3.0001
3.4907
-15.5295
-67.7762
68.8747
14.2489
-3.30855
2.69591
-11.8116
-70.3523
70.3666
12.0238
-2.92237
3.17243
-5.86585
-69.4735
68.7715
6.66176
-3.26633
0.775535
-0.553194
-66.6364
66.2886
0.672472
-0.546986
1.01258
0.589721
-65.5568
65.2431
-0.0582635
-1.23034
2.03149
-2.23145
-64.2768
63.9108
2.87208
-2.30606
2.17583
-6.55374
-62.9214
62.5367
6.96214
-2.19956
-60.3891
-4.15123
-41.2301
232.383
44.88
6.66817
-60.858
-58.3627
-58.9402
873.419
140.315
20.1582
-224.965
-232.224
-212.081
-217.979
872.035
83.1347
-6.69441
871.197
39.9461
-14.6968
862.411
12.0303
-13.8762
3.22782
-11.9026
1347.73
259.129
-1849.52
405.439
425.102
829.36
630.995
96.1484
-247.768
538.67
97.9275
220.664
176.524
10.2351
54.8913
172.827
168.766
167.12
-9.66791
-12.2408
183.782
4.73742
9.91322
-3.92536
-6.66057
-51.815
54.9134
3.25824
4.22921
-3.21836
-9.06955
-63.9749
66.0091
6.26407
3.98962
-2.29812
-9.44155
-70.5215
71.3872
7.86897
3.00499
-3.75544
-7.38673
-71.7074
71.2225
7.30867
4.31841
-6.47065
-1.85358
-68.6524
67.7042
2.46004
6.81238
-0.686723
-2.57697
-65.531
65.0278
3.66902
0.097891
3.44409
-5.4182
-63.9179
63.5923
6.3873
-4.08756
3.69299
-7.98701
-62.6917
62.4801
8.40584
-3.90015
-61.6184
5.42357
-46.228
241.281
46.211
-3.40542
-61.713
-59.9162
-60.0344
911.018
142.685
18.4963
-236.363
-235.553
-222.371
-222.24
902.83
94.4287
0.175218
893.325
48.1227
-1.91212
878.285
23.6416
-1.83733
12.7079
-5.59703
659.922
-74.5516
52.3694
421.376
651.152
614.694
625.802
97.0869
-13.554
585.225
127.914
-1.08343
150.485
9.13326
-4.02107
165.639
144.821
158.327
6.91372
-1.13522
173.831
-22.828
-6.29661
-2.51656
8.36432
-52.6385
55.4859
-11.0697
2.37445
-7.48173
1.24858
-59.7688
59.8592
-1.75204
7.89479
-6.52976
-2.84998
-61.8472
63.001
1.51924
6.7067
-5.22533
-8.10734
-64.418
63.8753
8.04467
5.8307
-2.08091
-6.04328
-61.3843
60.3874
6.94645
2.17467
1.88402
-6.18817
-58.2235
57.8151
7.02167
-2.30918
3.13473
-7.86931
-57.9482
58.225
8.04861
-3.59089
2.89845
-9.59576
-59.272
59.5672
9.71725
-3.31512
-59.7063
8.14156
-46.2604
231.563
46.1691
-5.78134
-58.6783
-58.1661
-57.2814
893.454
119.831
22.5811
-228.434
-223.006
-216.391
-213.485
890.197
96.235
11.5051
878.824
56.5902
5.92832
859.915
38.5301
4.78217
23.9211
-1.58242
53.2051
1496.5
463.034
215.386
496.025
261.355
669.011
-102.419
-615.733
802.101
19.7283
4.63812
897.806
-43.5855
-68.7103
210.029
-180.535
-19.2328
55.1467
80.9784
56.4591
80.1241
206.111
199.969
195.966
14.4791
2.46883
190.948
-22.2655
-3.58079
7.34229
13.9601
6.67664
0.86342
-13.2325
-165.548
158.498
5.28141
14.2404
0.101531
0.315938
-0.520725
-0.131437
-1.29672
-173.257
178.709
0.0437519
2.0951
-2.64712
-0.202752
-3.31318
-5.58318
-1.0872
-170.462
170.943
27.1566
0.679935
-7.91329
-5.74922
-7.98554
-6.06271
3.49179
-185.734
194.851
21.0082
-4.25349
-8.61616
-6.075
-8.60982
-7.23152
5.14401
-194.424
196.083
31.6602
-6.14237
-8.99413
-7.16905
-8.92628
-7.29149
5.89223
-202.895
206.518
30.1246
-6.36601
-9.45233
-7.19267
-9.33745
-8.5872
3.98114
-206.201
206.536
36.359
-3.25113
-10.3897
-8.34779
-10.099
840.242
113.656
18.436
-39.0088
-43.1376
-34.7885
-37.4557
-207.432
-205.262
-199.735
-197.875
858.046
95.8997
18.4748
861.601
88.7662
11.1521
851.495
63.208
7.1569
830.069
55.595
11.5852
37.4841
4.26089
-85.5424
1337.19
1009.46
431.735
287.056
-888.991
611.632
-61.667
-640.189
701.056
-5.96358
-110.953
740.196
-46.6674
-59.6859
662.496
-89.6872
-19.9461
641.495
150.738
-33.0817
-2.66561
-51.4316
-8.01605
-55.3173
614.962
-27.9059
18.711
-2.57074
26.4614
-0.928523
25.8171
620.498
101.024
-0.776259
-3.85687
-43.1337
-8.5464
-44.4959
641.512
-4.55839
31.3944
-13.7997
1.10426
-12.4814
1.80488
666.888
76.849
2.26278
-13.4761
-35.1032
-14.5981
-34.9535
700.734
35.548
20.1124
-20.7617
-17.6013
-18.9489
-15.2696
732.534
82.5825
10.0461
-23.7747
-35.5211
-21.9095
-33.3216
762.913
64.8213
19.4302
-27.1479
-26.9585
-23.6723
-22.5209
788.456
83.9926
21.9843
803.159
76.3968
19.0792
809.509
78.5527
14.3647
805.534
64.2765
9.65583
794.623
63.7887
15.9297
44.7615
8.98478
161.759
1640.74
1974.23
347.901
380.373
-130.538
489.153
61.5111
-372.243
565.804
-50.7955
3.037
622.293
-60.3179
-61.527
600.078
-73.1796
-2.43785
665.471
92.6613
-19.3991
635.397
-3.95415
11.6341
643.252
89.4385
6.47425
630.131
6.81561
2.41915
643.708
61.8758
5.24389
652.525
23.5695
8.06056
676.045
57.8057
7.82299
693.05
45.431
12.0908
710.424
64.2922
11.4454
726.288
57.9714
10.3597
738.086
64.8436
9.48835
744.954
56.3422
7.93961
750.658
57.6338
8.26479
40.9549
4.60075
-502.442
1285.55
-270.428
60.2295
108.066
-825.242
367.407
-146.73
-675.819
451.573
-132.785
-45.8569
553.376
-133.053
-126.643
555.195
-77.6204
-35.547
612.68
35.8365
-10.3921
618.844
-14.2157
-3.93286
643.415
62.2754
-1.42341
645.765
0.495276
-0.202066
661.47
44.6221
0.266217
669.339
13.1028
2.22656
686.348
39.3083
2.92711
699.391
30.6235
2.66279
715.87
46.2009
4.69161
727.566
45.3671
3.1189
739.036
52.4961
4.00063
745.858
49.666
1.69117
752.922
51.153
0.0445768
37.1081
-1.68315
-281.414
443.167
-1029.7
-234.173
1.50134
-699.94
459.428
-321.431
-408.755
493.465
-141.795
53.5572
523.481
-112.084
-92.7125
518.674
-73.8901
3.35223
581.297
-14.5816
-3.31411
577.915
-16.1992
19.5804
621.254
18.4989
-4.08432
624.422
-3.85202
0.167382
655.927
12.8392
-7.50445
669.052
-0.284067
-4.332
695.341
13.1028
-5.81575
712.037
14.6871
-5.15911
731.833
27.196
-4.32266
746.567
31.4439
-4.57271
760.889
38.4396
-3.28412
771.454
40.6785
-5.6751
781.999
42.5487
-9.41663
31.2844
-6.71387
1497.34
-101.604
-457.773
1312.17
79.0467
254.994
914.567
6.39298
443.774
788.925
-13.1929
137.425
724.928
-46.0705
-3.70874
686.463
-32.2638
-9.14877
698.005
-23.1783
15.826
695.355
-10.9884
-5.70129
715.752
-2.11225
2.01103
722.409
-3.80578
-15.0141
740.573
-1.49353
-12.5551
752.839
-4.47663
-20.3774
772.959
-2.6453
-16.866
790.265
0.572205
-18.4474
808.512
11.7119
-18.1501
824.463
18.3998
-17.8276
840.78
24.4513
-16.2116
854.836
29.3973
-19.0241
871.079
28.5674
-23.0633
20.9838
-14.4664
5.67075
264.816
4598.49
354.266
-14.686
172.69
768.838
-133.66
-326.746
818.628
-28.6386
27.577
853.819
-52.9701
-58.2884
824.367
-1.46133
3.38327
813.191
-1.75591
-34.2074
803.532
21.645
-65.4072
816.327
11.0718
-86.951
827.272
10.5759
-80.6757
851.353
-11.101
-66.7425
870.486
-17.0563
-47.7849
894.341
-20.4673
-36.3065
912.277
-3.43321
-42.8203
930.149
9.91014
-46.5699
947.283
18.6777
-50.0502
964.394
22.89
-48.6011
981.962
27.1427
-49.5781
1000.77
19.7008
-51.5672
13.061
-31.9862
927.019
-971.998
1384.01
-906.075
1474.65
-412.527
1519.86
-88.3934
1482.28
50.0838
1479.6
83.7813
1463.5
115.656
1479.45
100.271
1481.13
92.3227
1481.33
79.8856
1447.22
89.9054
1403.28
99.1633
1342.26
129.902
1304.93
123.462
1291.83
98.7742
1292.64
79.7506
1305.61
59.8033
1331.6
37.6395
1360.71
-0.229614
-1.82609
2033.31
75.1951
-11.1716
1748.55
438.664
210.094
1363.95
186.733
-339.897
1262.26
143.626
34.133
1247.83
22.1437
208
1247.4
28.5319
151.841
1281.38
-11.0135
203.177
1321
-10.4652
150.93
1364.62
-16.8494
145.206
1404.88
-8.54938
108.72
1435.94
0.372822
86.0838
1470.04
4.21975
53.4495
1498.14
10.8708
33.4953
1526.85
7.93178
9.05091
1548.53
12.9517
-11.6302
1552.37
16.3216
-36.8324
1532.05
27.2568
-45.1434
1482.98
44.7571
-18.6514
1394.76
70.9441
30.6258
46.7956
17.0846
2082.97
1190.01
696.687
1757.11
663.732
257.916
1419.24
444.841
-338.133
1261.2
257.751
-23.9651
1149.6
119.78
33.8316
1081.84
100.012
48.8366
1058.44
26.7964
92.7432
1034.66
27.7137
42.2425
1026.13
7.5549
30.8791
1013.48
12.1923
-14.7443
1007.17
8.7767
-40.7599
1001.37
8.27502
-70.2221
1000.49
4.95434
-83.5511
999.462
0.244901
-99.2043
1000.87
-1.79329
-100.681
1000.04
-2.95589
-114.182
995.551
3.48144
-111.647
983.267
15.2819
-106.126
965.519
38.6013
-49.6961
32.5798
-9.64381
1073.87
480.895
3238.7
1190.26
538.907
128.61
1177.1
228.18
-52.7111
1217.58
161.414
-43.3708
1182.36
117.886
35.7921
1126.25
154.707
17.566
1050.36
121.178
109.644
978.44
124.917
59.5272
923.072
81.4449
57.6644
871.48
71.2005
1.73463
838.81
37.7026
-12.1554
813.399
28.5115
-24.9598
801.358
9.6346
-26.7209
791.288
2.7386
-27.2207
787.028
-3.61403
-23.6419
782.889
-3.50706
-22.0448
779.785
0.137239
-19.5507
777.817
11.6478
-10.744
781.716
31.4466
4.2165
30.0123
8.97799
460.789
674.638
1340.81
536.528
784.273
750.444
990.768
141.928
-30.2132
994.982
176.483
38.9325
971.913
163.069
42.1747
899.063
229.561
9.98731
863.45
166.441
57.3734
804.974
186.977
11.9051
777.755
108.123
11.8683
740.286
106.665
-7.23479
724.486
48.8628
-9.86445
704.619
45.0544
-11.9349
700.846
10.4528
-8.83907
695.78
6.54617
-7.08265
697.985
-7.04862
-5.09314
695.422
-1.95937
-8.4271
692.953
0.779902
-8.68635
689.318
13.581
-9.00518
695.762
24.1369
-0.271173
22.8827
4.56009
541.671
862.008
-1057.02
775.439
342.993
-658.31
825.629
97.9321
-701.982
870.947
97.1062
-219.314
866.999
160.287
-36.3405
843.757
235.148
-25.3567
843.639
158.127
14.5272
819.164
203.878
-4.81119
803.425
117.905
-3.35333
774.171
130.092
-11.175
754.202
63.4677
-8.09755
729.024
66.686
-4.32087
713.708
25.2686
2.83656
696.891
23.7249
2.37307
693.883
0.474181
12.5973
692.226
2.02402
5.8736
692.816
2.16234
3.44917
692.11
15.143
1.79293
698.546
18.0857
1.97831
16.9493
3.1627
616.741
480.097
-2794.46
774.958
174.65
-383.538
774.829
137.736
-117.946
765.03
86.5976
-18.3774
760.633
173.867
28.0311
744.665
235.188
-1.93087
828.129
61.4628
11.7965
816.303
204.092
-13.5456
828.29
93.1377
-12.9108
817.538
129.845
-19.2375
810.732
61.5837
-17.7149
791.709
78.5829
-11.8999
769.908
44.445
1.75216
743.011
60.7361
31.3425
729.247
41.5408
58.865
715.894
37.0708
39.6581
703.996
21.5376
12.5621
697.942
22.508
4.26165
701.969
13.6882
0.532579
10.275
2.15351
785.779
48.7931
715.918
898.539
213.299
-128.65
916.013
149.893
86.6351
867.469
98.5539
20.5798
890.438
154.565
112.629
795.747
320.199
27.8753
782.638
36.0365
11.901
4.48029
31.8653
2.01695
768.83
46.0929
21.8617
61.6263
46.8053
61.185
779.52
33.5159
1.73559
8.16135
30.4555
8.42651
799.807
25.2616
21.8396
28.3743
25.7184
29.8948
813.588
19.2855
17.5004
6.25348
19.6028
6.42158
817.311
19.1687
22.6739
19.4896
20.5493
21.4322
801.345
20.5373
17.7071
10.8884
21.1539
11.035
778.668
23.1209
28.585
21.6827
23.1266
21.9079
757.289
78.4535
44.511
743.36
71.2959
47.2114
737.026
43.0971
28.4833
732.572
31.7561
12.1074
736.839
9.83497
3.72788
5.33117
4.20925
374.048
161.924
189.048
546.406
256.629
-579.929
690.561
88.4039
-395.962
751.799
34.7
-0.334577
812.749
122.708
83.8685
195.585
81.549
45.3499
190.915
185.809
180.646
110.869
83.3151
111.313
-13.6978
182.009
54.6243
8.68681
-5.1169
-163.04
174.379
34.793
5.07747
3.15137
-179.632
183.108
31.0122
-4.12338
3.90564
-178.482
191.157
11.4039
-2.72203
0.0762534
-194.549
201.707
12.0166
0.0345745
-1.13082
-198.324
206.938
9.729
1.95697
-2.2326
-204.301
207.088
18.2917
1.69146
-3.55703
-198.293
200.944
20.0202
4.00682
734.773
27.1659
34.5209
-191.259
-190.241
-179.79
-178.828
20.3422
24.873
18.2575
734.585
83.6889
23.4619
736.437
47.2037
10.3327
740.416
28.8628
4.02715
745.929
4.18757
2.78161
0.701061
2.75001
931.277
981.772
-80.0796
995.055
455.977
-616.956
789.755
428.987
102.114
744.337
120.671
97.1454
203.337
193.412
97.7393
191.687
192.024
180.472
-18.1579
216.957
71.8923
14.1942
-3.76885
-19.266
-56.1939
53.8693
22.5439
2.81545
-0.538892
-47.0245
-10.708
47.5102
10.4799
0.28132
3.24337
-48.8362
-8.18863
50.3944
6.66827
-3.28125
5.06869
-50.0439
-3.01806
50.9428
1.78352
-4.73297
3.488
-51.7947
-2.30275
52.9032
0.705581
-2.99933
1.54118
-52.8511
-2.71684
53.8287
1.48289
-1.28477
0.629633
-53.0586
-5.80897
53.8756
4.80331
-0.440992
-0.319066
-51.1275
-7.37073
51.3497
7.00343
0.464163
-48.3004
-12.5374
192.654
27.54
11.0453
-48.8006
-46.9936
-47.4413
740.438
82.0791
19.507
-185.951
-188.458
-177.57
-179.31
746.252
43.5566
2.06413
751.926
19.9644
-2.4263
751.728
1.19096
-2.66421
-0.695743
-4.25357
-180.501
1120.79
2053.57
113.343
182.57
-359.775
229.16
204.091
-43.0821
320.3
70.2377
103.73
133.462
92.3106
12.7068
129.8
123.061
119.209
7.95335
-64.4006
156.48
40.225
-6.79567
1.07197
-21.4644
-48.6146
52.1467
17.6613
-0.80096
2.32007
-11.8422
-57.7972
58.3559
10.9046
-1.94113
2.95064
-5.99999
-59.1365
59.1351
5.82561
-2.77484
2.37618
-1.58193
-58.5281
58.0733
1.71728
-2.05667
-57.1723
0.751753
-0.135685
57.0369
0.195209
-0.675865
-56.572
1.46907
-1.57538
1.92298
-1.44515
56.2005
2.53081
-5.57085
-55.124
54.6971
5.92971
-2.46278
1.56098
-8.54748
-53.2503
52.6346
8.87047
-1.26831
-50.6273
-8.21937
-33.6997
197.758
36.8468
8.01802
-51.238