/*--------------------------------*- C++ -*----------------------------------*\
  =========                 |
  \\      /  F ield         | OpenFOAM: The Open Source CFD Toolbox
   \\    /   O peration     | Website:  https://openfoam.org
    \\  /    A nd           | Version:  10
     \\/     M anipulation  |
\*---------------------------------------------------------------------------*/
FoamFile
{
    format      ascii;
    class       volScalarField;
    location    "6.6";
    object      turbidity;
}
// * * * * * * * * * * * * * * * * * * * * * * * * * * * * * * * * * * * * * //

dimensions      [0 0 0 0 0 0 0];

internalField   nonuniform List<scalar> 
12920
(
-0.0429981
-0.0606148
-0.0744354
-0.0983531
-0.12271
-0.153559
-0.188281
-0.223637
-0.254849
-0.278647
-0.294932
-0.305569
-0.31295
-0.318204
-0.322268
-0.324521
-0.326805
-0.335322
-0.34736
-0.35992
-0.0233626
-0.0483758
-0.0525617
-0.0755852
-0.102728
-0.134937
-0.173965
-0.220196
-0.262951
-0.289022
-0.295834
-0.290848
-0.284039
-0.277641
-0.275035
-0.273045
-0.278142
-0.296532
-0.336755
-0.392492
-0.0262008
-0.0463402
-0.0535679
-0.0727097
-0.0945162
-0.117461
-0.146679
-0.190717
-0.246685
-0.297561
-0.338783
-0.372042
-0.404179
-0.434172
-0.462434
-0.488261
-0.511762
-0.536472
-0.566035
-0.607911
-0.0172454
-0.0443108
-0.0603327
-0.0806442
-0.107132
-0.141188
-0.186719
-0.243493
-0.304797
-0.35942
-0.406967
-0.449574
-0.488397
-0.524585
-0.560178
-0.594749
-0.631704
-0.672751
-0.71632
-0.76457
-0.0242204
-0.0314508
-0.0470758
-0.0729104
-0.105565
-0.137493
-0.175078
-0.212566
-0.249634
-0.289027
-0.332658
-0.38368
-0.437087
-0.494088
-0.549181
-0.606427
-0.659816
-0.707884
-0.752612
-0.794072
-0.0183467
-0.0287447
-0.0473569
-0.0743152
-0.109487
-0.138026
-0.16387
-0.184342
-0.202518
-0.222719
-0.242147
-0.266332
-0.292743
-0.331075
-0.395489
-0.491521
-0.590212
-0.6648
-0.711508
-0.741952
-0.0200693
-0.0347948
-0.0537852
-0.0758663
-0.104532
-0.134999
-0.164165
-0.189792
-0.210303
-0.228299
-0.23859
-0.250499
-0.267172
-0.296474
-0.342396
-0.415701
-0.505478
-0.583591
-0.63016
-0.647156
-0.0305508
-0.0383057
-0.0559533
-0.0823417
-0.109114
-0.136164
-0.141421
-0.146827
-0.161312
-0.152009
-0.140146
-0.121136
-0.118476
-0.13588
-0.231095
-0.331235
-0.415959
-0.47135
-0.490272
-0.483114
-0.0103047
-0.0321574
-0.0578264
-0.0817675
-0.100432
-0.105416
-0.117575
-0.125383
-0.123141
-0.111152
-0.0934495
-0.0802928
-0.0752939
-0.0756635
-0.119497
-0.232613
-0.295421
-0.328703
-0.338833
-0.345137
-0.0394078
-0.0613917
-0.078603
-0.102554
-0.127581
-0.120851
-0.107291
-0.0930134
-0.088281
-0.0870411
-0.0811048
-0.0751754
-0.0757872
-0.0752298
-0.083892
-0.154086
-0.206381
-0.241761
-0.267129
-0.292882
-0.0966031
-0.0940379
-0.0850039
-0.118114
-0.156294
-0.151876
-0.133112
-0.104882
-0.0895942
-0.0827164
-0.0805177
-0.0900292
-0.0913346
-0.0824699
-0.0748248
-0.123996
-0.173134
-0.214403
-0.249321
-0.280825
-0.0692269
-0.049612
-0.0707501
-0.113419
-0.1538
-0.159074
-0.161131
-0.15563
-0.145133
-0.121401
-0.11796
-0.119556
-0.107843
-0.0941298
-0.0805257
-0.12429
-0.170826
-0.212688
-0.250628
-0.28725
-0.0285242
-0.0631113
-0.0753866
-0.107777
-0.136043
-0.163626
-0.165967
-0.170318
-0.186163
-0.183347
-0.171826
-0.151838
-0.130076
-0.111727
-0.131147
-0.167315
-0.206469
-0.246827
-0.289513
-0.337539
-0.0661134
-0.0899142
-0.0933091
-0.122382
-0.149023
-0.176446
-0.195451
-0.231593
-0.261244
-0.303471
-0.31758
-0.322793
-0.302288
-0.288609
-0.283332
-0.297111
-0.322855
-0.360287
-0.406116
-0.463261
-0.0244558
-0.0814077
-0.0959114
-0.134748
-0.16467
-0.198489
-0.223176
-0.258565
-0.293316
-0.334526
-0.36801
-0.400022
-0.409933
-0.420014
-0.426954
-0.444142
-0.469472
-0.505459
-0.547155
-0.595042
-0.0514355
-0.0622242
-0.0697769
-0.114733
-0.14148
-0.18346
-0.22519
-0.263269
-0.300445
-0.336196
-0.375524
-0.41527
-0.450347
-0.483218
-0.510433
-0.539037
-0.567778
-0.597954
-0.624499
-0.645189
-0.0480578
-0.0563355
-0.080241
-0.133649
-0.158985
-0.219556
-0.271355
-0.316293
-0.343539
-0.377622
-0.407205
-0.441016
-0.473526
-0.504921
-0.534095
-0.560862
-0.585843
-0.607046
-0.621018
-0.631261
-0.0378402
-0.0558568
-0.0771746
-0.119286
-0.150517
-0.19115
-0.242956
-0.286656
-0.327309
-0.356513
-0.385574
-0.409642
-0.435014
-0.457286
-0.479093
-0.498297
-0.515375
-0.526656
-0.531531
-0.537038
-0.0232054
-0.0568162
-0.0800364
-0.119033
-0.141772
-0.181549
-0.218289
-0.254862
-0.286812
-0.321067
-0.353232
-0.379892
-0.399696
-0.412507
-0.424454
-0.43511
-0.445948
-0.455722
-0.463427
-0.479301
-0.0571987
-0.0689451
-0.0822126
-0.101338
-0.122356
-0.147398
-0.172167
-0.196935
-0.217716
-0.236475
-0.252913
-0.273137
-0.301388
-0.338079
-0.375298
-0.407011
-0.43196
-0.451118
-0.465019
-0.474362
-0.00269363
-0.016194
-0.0254177
-0.04305
-0.0638888
-0.0796307
-0.0950426
-0.105889
-0.114591
-0.119555
-0.12132
-0.119872
-0.115817
-0.107987
-0.0976238
-0.0848672
-0.0779785
-0.0782712
-0.0843569
-0.0864304
-0.00276075
-0.00973599
-0.0142558
-0.0199584
-0.0338284
-0.0492468
-0.0651777
-0.0651944
-0.0563781
-0.0427178
-0.0348941
-0.0314421
-0.0309102
-0.0322541
-0.0351053
-0.0393744
-0.0461066
-0.0567784
-0.0740162
-0.0965811
-0.00455076
-0.0104528
-0.0119654
-0.0154407
-0.0256576
-0.0394712
-0.0567722
-0.0611219
-0.0566989
-0.0471318
-0.0458181
-0.0490188
-0.05487
-0.0621935
-0.071363
-0.0822985
-0.0946428
-0.108157
-0.123571
-0.133564
-0.00347033
-0.00773281
-0.0108719
-0.0160388
-0.0288582
-0.0384474
-0.0506824
-0.04908
-0.0488853
-0.0513665
-0.0581862
-0.064385
-0.0722331
-0.0781384
-0.0848527
-0.0917403
-0.100612
-0.110145
-0.119796
-0.126311
-0.00377164
-0.00568208
-0.00889386
-0.0124601
-0.018987
-0.0227407
-0.0261727
-0.0298056
-0.0367796
-0.0497472
-0.0702791
-0.0929875
-0.117722
-0.128875
-0.133559
-0.120599
-0.109124
-0.104447
-0.10534
-0.110453
-0.00657773
-0.00590642
-0.011741
-0.014705
-0.0182456
-0.0167322
-0.0158804
-0.0180638
-0.0220774
-0.0306497
-0.043868
-0.066731
-0.104426
-0.151233
-0.182868
-0.17042
-0.132184
-0.103754
-0.0931092
-0.0968525
-0.00543666
-0.00913305
-0.0135539
-0.0174954
-0.0260361
-0.0221367
-0.0211636
-0.0215321
-0.0262139
-0.0380391
-0.0527182
-0.069847
-0.09103
-0.123048
-0.157052
-0.17109
-0.150809
-0.11619
-0.0912924
-0.0847673
-0.00519688
-0.00846398
-0.0108317
-0.015324
-0.0278099
-0.0304969
-0.0358661
-0.0340084
-0.0262771
-0.0277942
-0.0334822
-0.0422568
-0.0605687
-0.090814
-0.126299
-0.126409
-0.104758
-0.0834231
-0.072351
-0.0698578
-0.00287844
-0.00637669
-0.0124983
-0.0180948
-0.0261796
-0.0281687
-0.0350963
-0.0384172
-0.0251014
-0.02504
-0.0304231
-0.0332132
-0.0393896
-0.066105
-0.117923
-0.099526
-0.0775794
-0.062144
-0.0552898
-0.0540755
-0.0164819
-0.0174673
-0.0161239
-0.0318985
-0.0351057
-0.0275539
-0.0236891
-0.0222489
-0.0220528
-0.0285443
-0.0463284
-0.0461839
-0.0341503
-0.0431965
-0.0854843
-0.0794245
-0.0643524
-0.0525219
-0.0471244
-0.0465838
-0.0614328
-0.0416783
-0.0212343
-0.0393946
-0.0541737
-0.058722
-0.070097
-0.0715769
-0.0682425
-0.0726203
-0.0821579
-0.0662747
-0.0370471
-0.0324146
-0.0570088
-0.0664777
-0.0586911
-0.0499957
-0.0452452
-0.0449228
-0.0137149
-0.0313479
-0.0288747
-0.0301458
-0.047043
-0.0539382
-0.0630972
-0.109643
-0.129279
-0.120794
-0.104713
-0.0644944
-0.0386817
-0.0353404
-0.0527944
-0.0615258
-0.0565767
-0.050802
-0.0493314
-0.0517761
-0.0225081
-0.0229352
-0.0194502
-0.0213846
-0.0239679
-0.0265685
-0.0319461
-0.0678524
-0.0739434
-0.0737524
-0.0703116
-0.0643917
-0.0597705
-0.0608174
-0.0650504
-0.0645957
-0.061638
-0.0624953
-0.070747
-0.0791524
-0.0321685
-0.0240995
-0.0210819
-0.02455
-0.0233877
-0.0233466
-0.0318261
-0.0433613
-0.0571784
-0.073259
-0.0799572
-0.0858532
-0.0841238
-0.0835127
-0.0830308
-0.082625
-0.0855683
-0.0949801
-0.111485
-0.123639
-0.0187695
-0.025887
-0.0145576
-0.0208055
-0.0178931
-0.0196226
-0.0278495
-0.0337511
-0.0443937
-0.0499254
-0.0625407
-0.0709487
-0.0785445
-0.0849684
-0.0892077
-0.0939494
-0.099655
-0.105539
-0.109649
-0.108466
-0.0249877
-0.0187975
-0.0144949
-0.0142339
-0.0149259
-0.0213575
-0.025136
-0.0283413
-0.0340323
-0.0380998
-0.0467345
-0.0524549
-0.0606457
-0.0652494
-0.071286
-0.0740967
-0.076138
-0.0744895
-0.0706056
-0.0649515
-0.0260384
-0.0221466
-0.0288841
-0.0233621
-0.0187609
-0.0448316
-0.0414431
-0.0481367
-0.0424929
-0.0417558
-0.0433601
-0.0452836
-0.0483031
-0.0501041
-0.0518915
-0.0523479
-0.052088
-0.0504136
-0.0477157
-0.0450468
-0.0142341
-0.0303473
-0.0331484
-0.0232545
-0.0166337
-0.0222584
-0.035544
-0.0401374
-0.0423644
-0.0409636
-0.0394773
-0.0379582
-0.037373
-0.0369331
-0.0369549
-0.0368755
-0.0368179
-0.0365275
-0.0361606
-0.0363448
-0.0238707
-0.022586
-0.014524
-0.0152399
-0.0147787
-0.0190476
-0.0248624
-0.0302701
-0.034976
-0.0376161
-0.0397608
-0.0389528
-0.0369
-0.0345292
-0.0345079
-0.036258
-0.0393376
-0.0435466
-0.0492229
-0.0576867
-0.025052
-0.0170907
-0.0181438
-0.020556
-0.0289641
-0.0411883
-0.0553231
-0.0671273
-0.0764473
-0.084722
-0.0962198
-0.113347
-0.135676
-0.155608
-0.167264
-0.171463
-0.169553
-0.161335
-0.145243
-0.128644
-0.00100007
-0.0064913
-0.0152199
-0.0278832
-0.0411339
-0.0473897
-0.0527378
-0.0551126
-0.0571985
-0.0578077
-0.0571145
-0.0546729
-0.0508982
-0.0456615
-0.0400707
-0.0361198
-0.0352335
-0.036857
-0.0394746
-0.03896
-0.00280611
-0.00905364
-0.0122543
-0.0149293
-0.0203678
-0.02484
-0.0288808
-0.026067
-0.0221865
-0.0190519
-0.0180109
-0.0182032
-0.0194043
-0.0211135
-0.0235653
-0.0266065
-0.0307122
-0.0359806
-0.0429535
-0.0495983
-0.00383034
-0.00738587
-0.00955839
-0.0133463
-0.0207054
-0.0265949
-0.0315309
-0.0284857
-0.0251061
-0.0235271
-0.0247095
-0.0268051
-0.0295057
-0.032365
-0.0353569
-0.0382248
-0.0407409
-0.0426804
-0.044426
-0.0433273
-0.00854087
-0.00694995
-0.00786696
-0.011572
-0.0183297
-0.0207687
-0.0229923
-0.0223153
-0.0241434
-0.0264757
-0.0295303
-0.0312506
-0.0330509
-0.0336552
-0.0341375
-0.0343567
-0.0347752
-0.0351743
-0.0357372
-0.035904
-0.00384088
-0.00505091
-0.00669825
-0.0090781
-0.0120374
-0.0135534
-0.0151315
-0.0183587
-0.0244564
-0.0312927
-0.0398991
-0.0452919
-0.0497746
-0.0475857
-0.0448616
-0.0389886
-0.035417
-0.0339639
-0.0338733
-0.0346401
-0.00367228
-0.00532042
-0.00752293
-0.00762071
-0.0086981
-0.00952663
-0.0111606
-0.0146227
-0.0202124
-0.0287032
-0.0412249
-0.0562614
-0.0738502
-0.0851254
-0.0819061
-0.062567
-0.0461051
-0.0390366
-0.0378676
-0.0395238
-0.00210311
-0.00600505
-0.00846176
-0.00963021
-0.0110277
-0.0100175
-0.0107846
-0.0138368
-0.0185768
-0.0266536
-0.036492
-0.0489927
-0.061584
-0.0734416
-0.0789253
-0.0718174
-0.0576023
-0.0479941
-0.0451294
-0.0460565
-0.0013365
-0.00567914
-0.00862448
-0.00993769
-0.0134787
-0.0126907
-0.0130923
-0.0132555
-0.0158338
-0.0197475
-0.0274979
-0.0382021
-0.0526755
-0.0675161
-0.0616965
-0.0540754
-0.0471807
-0.0446586
-0.0443527
-0.0441859
-0.00319008
-0.00738515
-0.00906382
-0.00980473
-0.0114059
-0.0117523
-0.0127611
-0.0122291
-0.0130785
-0.0143048
-0.0161789
-0.0231097
-0.0399933
-0.0603899
-0.0679585
-0.0430373
-0.0385287
-0.036776
-0.0352541
-0.0331012
-0.0136518
-0.00920203
-0.00971203
-0.0160367
-0.0178583
-0.0158537
-0.013489
-0.0129017
-0.0164491
-0.0241143
-0.0245313
-0.0178742
-0.0240639
-0.04453
-0.0556308
-0.0350844
-0.0309297
-0.0297713
-0.0296661
-0.0289569
-0.0178973
-0.0222516
-0.0152796
-0.0221576
-0.0285795
-0.0338056
-0.0423586
-0.0497811
-0.0564209
-0.0608999
-0.0506979
-0.0259117
-0.0193662
-0.0294063
-0.0413467
-0.0295685
-0.0278511
-0.0289375
-0.0308067
-0.0313728
-0.0106818
-0.025554
-0.0197335
-0.0186906
-0.0253317
-0.0294028
-0.0323412
-0.0525441
-0.0705052
-0.0734929
-0.047524
-0.0242268
-0.0199049
-0.0249096
-0.0320102
-0.0275876
-0.0286905
-0.0309307
-0.03244
-0.0317924
-0.0286222
-0.0293876
-0.0192926
-0.0165359
-0.0164331
-0.016455
-0.0187396
-0.0291114
-0.0306144
-0.0329588
-0.0335198
-0.031921
-0.0314536
-0.0324673
-0.0312835
-0.0326731
-0.0347616
-0.036907
-0.0378411
-0.0359292
-0.04177
-0.0288753
-0.0165067
-0.0133962
-0.0124971
-0.0129114
-0.017047
-0.0204441
-0.0251656
-0.0299738
-0.0318194
-0.0346423
-0.0353719
-0.0373917
-0.0392986
-0.041633
-0.0440683
-0.0458568
-0.0471684
-0.0459406
-0.0204873
-0.0166673
-0.0114654
-0.0101441
-0.00987595
-0.0111534
-0.0153383
-0.0172907
-0.0214189
-0.0231163
-0.0268977
-0.0296338
-0.0328809
-0.0360199
-0.0385497
-0.0401577
-0.0407195
-0.0397803
-0.0380019
-0.035411
-0.0163137
-0.0168704
-0.0124215
-0.00991001
-0.00942996
-0.0112755
-0.013386
-0.0150524
-0.0178548
-0.0194314
-0.022191
-0.0236172
-0.0260257
-0.027129
-0.0285318
-0.0285515
-0.0281716
-0.0268699
-0.0254657
-0.0240831
-0.00970207
-0.0118789
-0.0112314
-0.0101587
-0.0108658
-0.0174164
-0.0166535
-0.018358
-0.0181971
-0.0182693
-0.0188709
-0.0189622
-0.0195803
-0.0197203
-0.0200941
-0.0200795
-0.0200062
-0.0197427
-0.0195145
-0.0194906
-0.0170637
-0.0233351
-0.0171707
-0.0105779
-0.0100966
-0.0124814
-0.0153707
-0.0164819
-0.0168935
-0.0166928
-0.0163807
-0.0160632
-0.0157728
-0.015555
-0.0155666
-0.0157614
-0.0161679
-0.0166879
-0.0173324
-0.0181956
-0.0494014
-0.0354911
-0.0196365
-0.011432
-0.010281
-0.0122827
-0.0152259
-0.0177307
-0.0205769
-0.0228937
-0.025404
-0.0267126
-0.0272821
-0.0265958
-0.0257169
-0.0247472
-0.024269
-0.0241583
-0.0246883
-0.0257635
-0.0133206
-0.0101527
-0.00855764
-0.00855666
-0.0104752
-0.0145326
-0.0203027
-0.0255683
-0.0302954
-0.0357074
-0.0449927
-0.0584218
-0.074169
-0.0865606
-0.09316
-0.0945161
-0.0910626
-0.0831254
-0.0714749
-0.0598406
-0.00340949
-0.00826025
-0.0101494
-0.014731
-0.0227564
-0.0241687
-0.0256113
-0.0251757
-0.024819
-0.0234351
-0.0214324
-0.0187066
-0.0161713
-0.0144685
-0.0143713
-0.015635
-0.017693
-0.0197545
-0.0213897
-0.0213851
-0.00518168
-0.00777972
-0.00912895
-0.0106998
-0.0125329
-0.0131518
-0.0138019
-0.0125754
-0.0118254
-0.0117216
-0.012292
-0.0131384
-0.0142477
-0.0155835
-0.0171821
-0.0188662
-0.0206602
-0.022283
-0.0238384
-0.0242034
-0.00203415
-0.00681915
-0.0108024
-0.0135005
-0.016998
-0.0170524
-0.0174297
-0.0159302
-0.0156512
-0.0159118
-0.0166482
-0.017341
-0.0179422
-0.0183242
-0.0185099
-0.0185133
-0.0184486
-0.0182698
-0.0183136
-0.01779
-0.0101029
-0.00766927
-0.00760278
-0.00982008
-0.0126375
-0.0130717
-0.0142346
-0.0148644
-0.0160327
-0.0166274
-0.0170331
-0.0167985
-0.0165102
-0.0159823
-0.0155851
-0.0153239
-0.0153106
-0.0154818
-0.0159181
-0.0165317
-0.00569549
-0.00521765
-0.00575665
-0.00729922
-0.008902
-0.0103392
-0.0123447
-0.0145097
-0.0173136
-0.0190375
-0.0209804
-0.0208818
-0.0208314
-0.018967
-0.0177564
-0.0163042
-0.0157231
-0.0156801
-0.0160369
-0.0166856
-0.00238472
-0.00465054
-0.00570599
-0.00594132
-0.00714861
-0.00887666
-0.0107805
-0.0134057
-0.0172936
-0.0214084
-0.0266937
-0.0304858
-0.0340449
-0.0334805
-0.0287456
-0.0222038
-0.0185029
-0.0172195
-0.0170806
-0.0175417
-0.00245756
-0.00504086
-0.00575792
-0.00607972
-0.00689935
-0.00804341
-0.0093452
-0.0123821
-0.0157061
-0.0205227
-0.0248568
-0.0290263
-0.0315634
-0.0327031
-0.0316334
-0.0276964
-0.0236818
-0.0213735
-0.0203952
-0.0202195
-0.000901875
-0.00407125
-0.00573585
-0.00642843
-0.007704
-0.00814934
-0.00849106
-0.0109644
-0.0136863
-0.0167384
-0.0213657
-0.0257696
-0.0293184
-0.0315551
-0.025781
-0.0237829
-0.0220724
-0.0207123
-0.0192603
-0.0179545
-0.00306949
-0.00661761
-0.0069972
-0.00742432
-0.00812683
-0.00836226
-0.00847947
-0.0088651
-0.0100246
-0.0106717
-0.0145234
-0.0205855
-0.0267734
-0.030687
-0.0281602
-0.0190486
-0.0168713
-0.0149582
-0.01327
-0.0121323
-0.00956765
-0.00490184
-0.00703957
-0.0110616
-0.0122229
-0.0111496
-0.00991728
-0.0104299
-0.0134776
-0.0138188
-0.0119787
-0.0147254
-0.0208964
-0.0258348
-0.0241375
-0.0159668
-0.0142414
-0.0128186
-0.011699
-0.0110303
-0.0076938
-0.017064
-0.0127082
-0.0153737
-0.0174631
-0.0219295
-0.0283182
-0.0356437
-0.0375846
-0.0299742
-0.0171583
-0.0144893
-0.0175865
-0.020526
-0.020063
-0.0150597
-0.0145903
-0.0139584
-0.0131154
-0.0123116
-0.0379274
-0.0237359
-0.0147484
-0.0141162
-0.0162894
-0.0182467
-0.0185601
-0.0291692
-0.0359029
-0.0296686
-0.017732
-0.0147608
-0.0155655
-0.0166637
-0.0167729
-0.0152408
-0.014978
-0.0141514
-0.0131422
-0.0122637
-0.0244357
-0.0194651
-0.0164326
-0.0127026
-0.0111676
-0.0109437
-0.0123674
-0.0166369
-0.0167983
-0.0177139
-0.017767
-0.0171762
-0.0171304
-0.0175132
-0.0172138
-0.0170671
-0.0163198
-0.0151416
-0.0140844
-0.0130244
-0.0130003
-0.00875696
-0.00782068
-0.00833642
-0.00872146
-0.00953862
-0.011632
-0.0128138
-0.014181
-0.0155715
-0.015983
-0.0173336
-0.0178261
-0.0187587
-0.0188791
-0.0182301
-0.0172961
-0.0161355
-0.0155619
-0.0150471
-0.0193174
-0.0143457
-0.0106249
-0.00840721
-0.00822231
-0.00913329
-0.0110229
-0.0117942
-0.0131333
-0.013468
-0.0145864
-0.0150967
-0.0158532
-0.0159879
-0.0158537
-0.0152108
-0.0144891
-0.0137575
-0.0134454
-0.0136095
-0.0158013
-0.0144926
-0.0115283
-0.00899887
-0.00828239
-0.00902515
-0.0101405
-0.0108527
-0.0118025
-0.0120307
-0.0126916
-0.0126668
-0.0129851
-0.0127605
-0.012731
-0.0124801
-0.0124325
-0.012546
-0.0130036
-0.0138133
-0.0108162
-0.00929527
-0.00818913
-0.00790135
-0.0089304
-0.0109817
-0.010916
-0.0116227
-0.0114183
-0.0113851
-0.011316
-0.0112574
-0.0113087
-0.0113663
-0.0115269
-0.0117528
-0.0121064
-0.0126296
-0.0133654
-0.014317
-0.00723893
-0.0133579
-0.00895671
-0.0076142
-0.00902674
-0.0108872
-0.0122614
-0.0130531
-0.0133795
-0.0136057
-0.0134786
-0.0132562
-0.0127851
-0.0123861
-0.012157
-0.0122264
-0.0125737
-0.0131489
-0.0138987
-0.0147705
-0.00868884
-0.0101865
-0.00735636
-0.0068192
-0.00834278
-0.0107769
-0.0130909
-0.015582
-0.0183448
-0.0210904
-0.0238235
-0.025269
-0.0256508
-0.0244916
-0.0225583
-0.0201993
-0.0180512
-0.0165347
-0.0159014
-0.0160602
-0.005341
-0.00745282
-0.00587232
-0.00511192
-0.00568567
-0.00702141
-0.00911066
-0.01129
-0.014412
-0.019386
-0.0275397
-0.0374576
-0.0470015
-0.0528683
-0.0542509
-0.0514709
-0.045346
-0.0370731
-0.0286131
-0.0219847
-0.00787041
-0.00695871
-0.00782025
-0.0084677
-0.0102672
-0.00976729
-0.00998959
-0.00921133
-0.00859086
-0.00774115
-0.00738765
-0.00787222
-0.00938309
-0.0114467
-0.0134364
-0.0148307
-0.015527
-0.0156175
-0.0154001
-0.0148419
-0.00304786
-0.00716211
-0.00930331
-0.00934429
-0.00871867
-0.00843918
-0.00865201
-0.00871081
-0.00902596
-0.00960992
-0.0103884
-0.0113157
-0.0121798
-0.0128013
-0.0132469
-0.0135937
-0.0140753
-0.0146915
-0.0155741
-0.0163928
-0.0130217
-0.0113661
-0.0108427
-0.010286
-0.0107139
-0.0107146
-0.0113998
-0.0113805
-0.0113918
-0.0112437
-0.0111463
-0.0111352
-0.0112818
-0.0116021
-0.0121352
-0.012812
-0.0135987
-0.0144202
-0.0152348
-0.0158885
-0.0203046
-0.00954931
-0.00850582
-0.00841702
-0.00934263
-0.0102015
-0.0108576
-0.0109087
-0.0107665
-0.0105977
-0.0105741
-0.0107163
-0.0110715
-0.0115661
-0.01219
-0.0128783
-0.0136014
-0.0143159
-0.0150007
-0.0155746
-0.00667492
-0.00470218
-0.00568905
-0.00686372
-0.0081598
-0.00946561
-0.0102901
-0.0106675
-0.0108861
-0.010894
-0.0110695
-0.011138
-0.011444
-0.0117175
-0.0122054
-0.0127453
-0.0133905
-0.0140818
-0.01479
-0.0154234
-0.0052438
-0.00553634
-0.00539904
-0.00591717
-0.00738003
-0.00885947
-0.00976003
-0.0105202
-0.0112841
-0.0117874
-0.0123943
-0.012712
-0.0131793
-0.0131974
-0.0130005
-0.0129234
-0.0133101
-0.0139726
-0.0147316
-0.0154439
-0.00700461
-0.00543681
-0.00466524
-0.00539985
-0.00670342
-0.0080943
-0.00907049
-0.0101738
-0.0109152
-0.0118637
-0.0122934
-0.0128303
-0.0130367
-0.0133107
-0.0134113
-0.0132799
-0.0133039
-0.0137091
-0.0143436
-0.0150482
-0.00181885
-0.0029499
-0.00426773
-0.00557483
-0.00669274
-0.00774832
-0.00822927
-0.00988908
-0.0106044
-0.0116236
-0.0119819
-0.0125628
-0.0124806
-0.0127016
-0.0119922
-0.0121266
-0.0124085
-0.012881
-0.0134346
-0.0139974
-0.00134049
-0.00441503
-0.00578544
-0.00680663
-0.00769959
-0.00798943
-0.00816529
-0.00896361
-0.0100229
-0.0111898
-0.012181
-0.0125289
-0.0124853
-0.0119503
-0.010369
-0.0107706
-0.0112207
-0.0118125
-0.0124129
-0.012935
-0.0122921
-0.00409626
-0.0056098
-0.00838229
-0.00926372
-0.00920557
-0.00899447
-0.00969
-0.0103711
-0.0110364
-0.0124101
-0.013038
-0.0122141
-0.0103164
-0.00840376
-0.0101338
-0.01075
-0.0114585
-0.0121362
-0.0126894
-0.0103124
-0.0113173
-0.0104982
-0.0111983
-0.0109292
-0.0131388
-0.0149284
-0.0160878
-0.0139418
-0.0123087
-0.0126664
-0.0130844
-0.0115273
-0.00968013
-0.00812806
-0.010123
-0.0108725
-0.0117137
-0.0125156
-0.0131929
-0.0177187
-0.014908
-0.0117814
-0.0113305
-0.0107659
-0.0115563
-0.0109722
-0.0136016
-0.0134101
-0.0119631
-0.0114716
-0.0108998
-0.00928923
-0.00796302
-0.00749759
-0.0104497
-0.0114494
-0.0125456
-0.0135862
-0.0144672
-0.0101589
-0.015938
-0.0126399
-0.00994509
-0.0090894
-0.00873832
-0.00913847
-0.0100298
-0.00950464
-0.00962993
-0.00927016
-0.00879062
-0.0083608
-0.00816199
-0.010325
-0.0112883
-0.0124145
-0.0136713
-0.0149223
-0.0160212
-0.00851496
-0.00979283
-0.0084729
-0.00783949
-0.00779833
-0.00800545
-0.00842592
-0.00821614
-0.00815033
-0.00836743
-0.0084476
-0.00901635
-0.00936124
-0.0101356
-0.0108767
-0.0117995
-0.0129392
-0.0142727
-0.0156766
-0.0169274
-0.00494284
-0.0102593
-0.00918958
-0.00749995
-0.00741878
-0.00768712
-0.00800828
-0.0079221
-0.00788198
-0.00790526
-0.00819254
-0.00861497
-0.00918644
-0.00993428
-0.0108392
-0.011948
-0.0132347
-0.0146853
-0.0161798
-0.0174577
-0.0345475
-0.012044
-0.00751399
-0.00748144
-0.00758882
-0.00770335
-0.00774822
-0.00782888
-0.00780196
-0.00794174
-0.00817877
-0.00860013
-0.00918046
-0.00995102
-0.0109073
-0.0120534
-0.0133801
-0.0148544
-0.016392
-0.017719
-0.0131939
-0.0116749
-0.011182
-0.00878881
-0.00834325
-0.00848581
-0.00818965
-0.00833947
-0.00814723
-0.00833156
-0.00854747
-0.00899588
-0.00959503
-0.010359
-0.0112839
-0.0123533
-0.0135782
-0.0149411
-0.0164074
-0.0177397
-0.0148619
-0.00724652
-0.00619821
-0.00778727
-0.00925851
-0.0098937
-0.010169
-0.0100704
-0.00986904
-0.00974191
-0.00958977
-0.00961026
-0.00980093
-0.0102446
-0.0109345
-0.0118133
-0.0128624
-0.0140491
-0.015356
-0.0166234
-0.0107757
-0.00842111
-0.0054092
-0.00684461
-0.00917299
-0.0115195
-0.0136304
-0.0155247
-0.0171363
-0.0171783
-0.016741
-0.0151891
-0.0135804
-0.0121084
-0.0113651
-0.0113354
-0.0118646
-0.0127703
-0.0139325
-0.0152744
-0.0032714
-0.00374353
-0.00402852
-0.00514369
-0.00635771
-0.00773432
-0.00974084
-0.0130606
-0.0174114
-0.0220113
-0.0259805
-0.0276662
-0.0268886
-0.0232107
-0.0187314
-0.0147074
-0.0122695
-0.0112686
-0.0113815
-0.0121595
-0.0257867
-0.0498143
-0.0480433
-0.0170133
-0.0146334
-0.0333557
-0.0237092
-0.0189118
-0.044295
-0.0283478
-0.0138491
-0.0138199
-0.0203112
-0.0149171
-0.055869
-0.0768174
-0.0600098
-0.0395013
-0.0266041
-0.0434021
-0.0280857
-0.0312629
-0.0512858
-0.0287786
-0.0222766
-0.0153626
-0.023622
-0.0163195
-0.124594
-0.0977138
-0.0945007
-0.11626
-0.123555
-0.0924652
-0.0864064
-0.124441
-0.0938346
-0.0929302
-0.122426
-0.103153
-0.0835022
-0.0753054
-0.115358
-0.0928279
-0.0918679
-0.093451
-0.0674844
-0.0718581
-0.0598862
-0.0978968
-0.090925
-0.0857191
-0.060809
-0.0537932
-0.0574823
-0.0613735
-0.0828426
-0.0833516
-0.0768332
-0.0542215
-0.0581922
-0.0647583
-0.0694465
-0.0759647
-0.0755427
-0.0746382
-0.0590741
-0.0608808
-0.0679592
-0.0574193
-0.0750665
-0.0748273
-0.0751121
-0.0626051
-0.076176
-0.053823
-0.0520437
-0.0877613
-0.0750916
-0.0760865
-0.0843869
-0.117033
-0.0559958
-0.0822884
-0.0957114
-0.114153
-0.0994871
-0.0884744
-0.0717408
-0.104137
-0.0873916
-0.0887287
-0.095349
-0.0870712
-0.067925
-0.063276
-0.0825973
-0.0731373
-0.0875958
-0.0855028
-0.0825527
-0.0623311
-0.0583557
-0.0719115
-0.0729379
-0.0831029
-0.0816795
-0.0785591
-0.0583429
-0.0664892
-0.0743019
-0.0791855
-0.075891
-0.0777836
-0.0798319
-0.0699582
-0.0728943
-0.0808391
-0.0816376
-0.0754944
-0.0815018
-0.0847103
-0.070622
-0.0572469
-0.0783689
-0.0583864
-0.0755753
-0.0844944
-0.0804731
-0.0526679
-0.0477671
-0.0515542
-0.0402418
-0.0750866
-0.0786664
-0.0744873
-0.0504737
-0.0728514
-0.0402053
-0.0513886
-0.110748
-0.153427
-0.148284
-0.130845
-0.110881
-0.149852
-0.147161
-0.0923503
-0.145409
-0.132495
-0.105663
-0.0933653
-0.145376
-0.137751
-0.0840891
-0.12607
-0.108763
-0.0902006
-0.0845878
-0.13361
-0.118571
-0.0800003
-0.105237
-0.103814
-0.08388
-0.0853014
-0.114409
-0.109168
-0.0875473
-0.105617
-0.111301
-0.0867511
-0.0868803
-0.10857
-0.0955763
-0.0923708
-0.11172
-0.106851
-0.0830705
-0.0610644
-0.086419
-0.0591088
-0.0849822
-0.104003
-0.0948654
-0.0535083
-0.0399639
-0.052583
-0.0419445
-0.0763278
-0.0918012
-0.0832802
-0.0390957
-0.047105
-0.0408832
-0.0445389
-0.157243
-0.163674
-0.162819
-0.15705
-0.155368
-0.159872
-0.160858
-0.14963
-0.163087
-0.169038
-0.154697
-0.151223
-0.16141
-0.164821
-0.126023
-0.170797
-0.163324
-0.148175
-0.132963
-0.164911
-0.158158
-0.117095
-0.159217
-0.150374
-0.128153
-0.121061
-0.154265
-0.139752
-0.120361
-0.147674
-0.137471
-0.119343
-0.100468
-0.133107
-0.106231
-0.111457
-0.13335
-0.119483
-0.0895778
-0.0602676
-0.0960808
-0.071705
-0.0973727
-0.114783
-0.102
-0.0538109
-0.044058
-0.0662968
-0.058195
-0.0852465
-0.0982622
-0.0887992
-0.0432338
-0.046876
-0.0578083
-0.0625178
-0.041158
-0.0259928
-0.0270487
-0.0258452
-0.0224203
-0.02064
-0.0181453
-0.027173
-0.0261959
-0.0234838
-0.0204892
-0.0173695
-0.0172978
-0.0166643
-0.024165
-0.0229907
-0.0243497
-0.0170943
-0.0174537
-0.0172074
-0.0212807
-0.0290849
-0.0261727
-0.0357763
-0.0179028
-0.0197236
-0.0232013
-0.0271136
-0.0328496
-0.0391709
-0.0423626
-0.0204137
-0.0238977
-0.0269836
-0.0232497
-0.036333
-0.0408454
-0.0346492
-0.0261664
-0.0382217
-0.0221292
-0.0246348
-0.0568242
-0.0338862
-0.0412032
-0.0442982
-0.0651388
-0.0281074
-0.0459696
-0.100655
-0.0475243
-0.0780109
-0.0730993
-0.0936752
-0.0535766
-0.0754595
-0.0226758
-0.0327116
-0.037051
-0.0204636
-0.0175478
-0.0290316
-0.0324075
-0.0217739
-0.0376503
-0.0387127
-0.017022
-0.0179118
-0.0339609
-0.0392472
-0.0257479
-0.039799
-0.0491475
-0.019124
-0.0253723
-0.0413268
-0.0488855
-0.0419835
-0.054443
-0.0701039
-0.0278758
-0.0322709
-0.0515511
-0.0551934
-0.0488534
-0.0732128
-0.0685691
-0.0317518
-0.0253964
-0.053275
-0.0367788
-0.0360795
-0.061996
-0.0406699
-0.0232091
-0.022612
-0.0305916
-0.0210298
-0.0380882
-0.0358101
-0.0318391
-0.0250824
-0.0402384
-0.0209922
-0.0285235
-0.0698103
-0.0339224
-0.0492268
-0.0471886
-0.0684307
-0.0330479
-0.0497376
-0.0718026
-0.0803424
-0.106125
-0.0550063
-0.0545457
-0.0597198
-0.0663213
-0.0690732
-0.11334
-0.123089
-0.0550634
-0.0575888
-0.0704314
-0.0822426
-0.0703646
-0.122462
-0.113922
-0.0586397
-0.0630532
-0.0849169
-0.0876685
-0.0807275
-0.110823
-0.10348
-0.0647297
-0.0649044
-0.0865595
-0.0725497
-0.0738334
-0.0994376
-0.0743935
-0.0614469
-0.040558
-0.064159
-0.0379075
-0.0425136
-0.0642063
-0.0415799
-0.0335248
-0.0217308
-0.0315525
-0.0221682
-0.031104
-0.0373656
-0.0326733
-0.021005
-0.0263923
-0.0215138
-0.0243707
-0.0448138
-0.0332354
-0.0408745
-0.0301735
-0.0451423
-0.0266482
-0.0368613
-0.0982282
-0.0406305
-0.0659178
-0.0517988
-0.0591951
-0.0384092
-0.0430049
-0.127805
-0.0784679
-0.0942821
-0.0636786
-0.0771692
-0.0462846
-0.0522219
-0.123903
-0.0961854
-0.101395
-0.0808873
-0.0864593
-0.053207
-0.0557904
-0.11066
-0.0990272
-0.0843649
-0.0853292
-0.0695639
-0.0552771
-0.0491234
-0.0750189
-0.079147
-0.0646157
-0.0610944
-0.0368137
-0.0462698
-0.0374671
-0.0425101
-0.0600767
-0.0500465
-0.0311987
-0.0230453
-0.0349619
-0.0309055
-0.034721
-0.0480699
-0.0465397
-0.022523
-0.0251861
-0.030608
-0.0324677
-0.042538
-0.0475039
-0.0549962
-0.0272168
-0.0361992
-0.0338759
-0.0394869
-0.0125279
-0.0116643
-0.0116522
-0.0112372
-0.0107168
-0.0107243
-0.0108789
-0.0127053
-0.0117248
-0.0130726
-0.0107525
-0.0113298
-0.0110817
-0.0124276
-0.0139945
-0.0139696
-0.0178616
-0.011473
-0.0116507
-0.0130216
-0.0141867
-0.0154958
-0.0192203
-0.0206525
-0.011904
-0.0144221
-0.0141503
-0.0131115
-0.0204502
-0.0199777
-0.0172841
-0.0159384
-0.0222242
-0.0128776
-0.0144281
-0.0349239
-0.0172612
-0.0230048
-0.0250307
-0.0344998
-0.015918
-0.0228382
-0.0550679
-0.0269869
-0.0433665
-0.0376895
-0.0438816
-0.025548
-0.0325878
-0.0728536
-0.0495174
-0.0654033
-0.0450115
-0.0458048
-0.0341317
-0.035791
-0.0127393
-0.0233716
-0.0292839
-0.0127063
-0.0122484
-0.022477
-0.0283721
-0.0150668
-0.0314909
-0.0384368
-0.0125967
-0.0149704
-0.0304291
-0.035021
-0.0222107
-0.0409107
-0.0482981
-0.0158812
-0.0172777
-0.0358152
-0.0347193
-0.028732
-0.0255375
-0.0309182
-0.0220145
-0.0325635
-0.0223448
-0.0285203
-0.0214152
-0.0226638
-0.0304397
-0.0195918
-0.0275098
-0.0180757
-0.023988
-0.0208811
-0.0236381
-0.018634
-0.0148287
-0.0204137
-0.0146993
-0.0170982
-0.0387031
-0.0196164
-0.0280356
-0.0227675
-0.0293755
-0.0184121
-0.0226648
-0.0602747
-0.0321527
-0.0455344
-0.0310037
-0.0332398
-0.023977
-0.026679
-0.0479644
-0.0422327
-0.0548295
-0.0357869
-0.0394488
-0.0338417
-0.0386606
-0.0548754
-0.0599424
-0.07253
-0.040839
-0.0439542
-0.0413744
-0.0482889
-0.0608283
-0.0753361
-0.0783634
-0.0443312
-0.0415839
-0.0495325
-0.0470076
-0.0596439
-0.0608233
-0.0693415
-0.0554088
-0.0681405
-0.0543182
-0.0623762
-0.03487
-0.0442426
-0.0535279
-0.0410768
-0.045586
-0.035375
-0.0419372
-0.0189691
-0.0243551
-0.0191432
-0.0149538
-0.0168214
-0.0155665
-0.0158402
-0.0259246
-0.0192418
-0.0228815
-0.017878
-0.021285
-0.0163085
-0.0179326
-0.0415709
-0.0249816
-0.0331188
-0.022371
-0.024765
-0.0184784
-0.0198555
-0.0467191
-0.0221194
-0.030794
-0.0275925
-0.0327024
-0.0209019
-0.0233782
-0.0669154
-0.0349434
-0.0398488
-0.0354544
-0.0426864
-0.0246477
-0.025988
-0.0752474
-0.0407163
-0.0431477
-0.0440794
-0.0421079
-0.026182
-0.0263041
-0.0557668
-0.0420977
-0.0358113
-0.0389276
-0.0262062
-0.0257183
-0.0231314
-0.0279201
-0.0338347
-0.0288824
-0.0226144
-0.0165613
-0.0221311
-0.0193679
-0.0198171
-0.0275872
-0.025834
-0.0158373
-0.0157364
-0.0187165
-0.0179542
-0.0230868
-0.025909
-0.027941
-0.0160458
-0.0172689
-0.0179305
-0.0182572
-0.0318739
-0.0291051
-0.0330306
-0.0177077
-0.0188774
-0.018454
-0.0191807
-0.00866153
-0.00863852
-0.00888996
-0.0082821
-0.00858093
-0.00842554
-0.00887769
-0.0098162
-0.00915248
-0.0105784