/*--------------------------------*- C++ -*----------------------------------*\
  =========                 |
  \\      /  F ield         | OpenFOAM: The Open Source CFD Toolbox
   \\    /   O peration     | Website:  https://openfoam.org
    \\  /    A nd           | Version:  10
     \\/     M anipulation  |
\*---------------------------------------------------------------------------*/
FoamFile
{
    format      ascii;
    class       volVectorField;
    location    "6.6";
    object      U_0;
}
// * * * * * * * * * * * * * * * * * * * * * * * * * * * * * * * * * * * * * //

dimensions      [0 1 -1 0 0 0 0];

internalField   nonuniform List<vector> 
12920
(
(362.185 -15.2288 -303.762)
(60.0936 3.15996 -18.3977)
(242.558 -18.8751 -14.0051)
(136.419 -9.76873 2.55856)
(183.236 -12.0373 5.33777)
(143.199 -9.48364 4.45134)
(157.077 -9.55375 4.682)
(138.023 -9.46262 3.79099)
(144.241 -10.7204 3.58295)
(136.462 -11.6781 3.06911)
(140.346 -12.5681 2.57602)
(138.652 -13.4651 2.11879)
(141.914 -13.6984 1.76813)
(143.408 -15.756 1.41316)
(149.118 -16.173 1.34106)
(153.783 -18.5698 0.405475)
(165.431 -18.6146 -0.618145)
(175.049 -16.7072 -0.65587)
(182.904 -6.42884 0.256381)
(178.695 0.122271 0.276249)
(278.252 168.509 -15.6229)
(75.926 117.404 -4.06049)
(218.673 34.0717 -17.0936)
(158.525 12.1975 -3.51464)
(191.563 -5.15806 0.148192)
(152.305 -3.62827 1.46707)
(158.295 -8.52542 2.85872)
(129.971 -8.69804 1.75255)
(130.795 -10.3872 1.26915)
(115.586 -9.04596 0.174667)
(117.011 -6.9124 -0.576852)
(111.163 -5.02223 -1.2826)
(113.956 -3.39681 -1.72234)
(113.199 -1.76929 -2.20922)
(116.089 -1.35134 -2.31139)
(116.804 0.0454038 -2.78239)
(119.641 1.11541 -3.29854)
(122.049 3.61257 -3.76632)
(129.237 6.5729 -3.1929)
(135.497 5.8373 -1.54773)
(122.473 160.169 -45.9111)
(-95.7798 77.8805 12.1511)
(183.534 36.1057 -25.4597)
(135.852 16.6094 -6.28229)
(191.22 4.72946 -1.69279)
(172.69 2.77154 0.426161)
(177.188 1.2643 2.2886)
(148.774 2.68565 1.79094)
(138.325 -0.344704 1.70771)
(114.038 0.485761 0.207152)
(112.054 -1.12558 -0.486145)
(102.495 -1.03438 -0.674919)
(103.367 -1.96468 -0.742198)
(100.165 -2.52908 -0.636689)
(101.766 -3.0119 -0.56882)
(101.157 -3.01902 -0.437414)
(102.421 -2.34036 -0.408591)
(103.061 -0.264161 -0.316822)
(106.283 4.14104 -0.00991213)
(109.542 5.58984 0.149247)
(145.091 59.4637 -56.3398)
(80.2529 35.3558 -33.5756)
(194.139 -12.3633 -5.45593)
(128.487 -5.6994 -1.52407)
(169.853 -10.8307 -0.0251776)
(126.447 -1.32077 0.346623)
(137.822 7.8183 1.17538)
(106.929 15.3929 0.280061)
(110.779 15.2867 0.0639668)
(93.8428 13.135 -0.151521)
(97.4155 9.38663 -0.277874)
(89.5778 7.52794 -0.241641)
(91.992 5.27613 -0.194014)
(89.1463 4.27021 -0.133383)
(91.1031 2.66563 -0.0839663)
(90.4611 2.46231 -0.105278)
(90.6859 2.72074 -0.194022)
(89.7286 3.53633 -0.15862)
(90.7717 4.98221 0.0155672)
(94.7968 4.53915 0.10469)
(111.415 88.7584 -252.21)
(6.3276 36.877 -29.504)
(172.099 2.9983 -10.5399)
(119.374 8.60994 -3.09708)
(156.283 10.3284 0.936909)
(118.104 19.7651 -0.885574)
(131.041 16.24 -0.508018)
(111.258 21.2069 -0.591014)
(119.222 13.2567 -0.411566)
(107.683 13.1844 -0.505074)
(110.96 6.35962 -0.413313)
(103.353 5.44141 -0.26343)
(103.19 1.09215 -0.0141146)
(96.0445 -0.0958032 0.115036)
(94.1303 -2.89969 0.378177)
(91.1723 -2 0.231238)
(91.3876 0.00645966 0.147668)
(90.2586 2.58153 0.0774308)
(91.4841 4.12132 0.0321034)
(95.4379 4.11284 0.0410211)
(108.072 18.4506 93.4398)
(74.3337 39.2118 -12.3521)
(172.723 29.6296 -2.77519)
(104.403 13.8976 -3.17688)
(141.534 13.4865 -0.882355)
(93.4295 20.7642 -1.32264)
(123.034 22.2478 -0.949197)
(112.814 25.9673 -1.19269)
(123.892 23.1598 -1.09466)
(122.244 21.3515 -1.08041)
(127.322 17.1337 -0.879374)
(127.898 15.0108 -0.696704)
(129.85 11.8904 -0.0557274)
(126.868 11.1989 1.08874)
(117.723 4.9487 2.30149)
(102.23 2.95876 1.8422)
(94.6607 2.55237 0.552135)
(91.4147 4.16692 0.101577)
(91.6501 4.19915 -0.0787055)
(95.9325 3.27939 -0.0379036)
(237.558 -56.6288 -63.6597)
(129.316 -5.68941 1.43224)
(192.745 34.0837 0.581765)
(123.638 32.563 -2.64898)
(158.585 32.5042 0.679298)
(112.091 31.0934 -0.442784)
(123.402 6.45772 -0.0953362)
(109.1 23.9197 0.218381)
(118.472 11.8768 -0.266307)
(115.291 15.3356 0.436718)
(121.679 6.45631 0.829251)
(123.154 6.29188 1.14573)
(127.998 2.36559 0.867375)
(128.729 4.58497 0.847207)
(126.672 6.12238 1.43378)
(114.185 8.59897 1.74556)
(103.153 6.883 1.35564)
(97.6987 6.26667 0.465695)
(96.952 4.60343 0.0122118)
(101.532 2.85289 0.0946164)
(165.807 -78.0577 -45.6313)
(15.1368 45.2121 -17.3149)
(157.816 37.0595 -16.3591)
(94.155 29.4603 -4.39502)
(143.988 24.4621 -0.00789248)
(108.541 46.0979 0.289322)
(121.454 33.214 -0.501819)
(98.9294 12.6101 -0.137188)
(105.307 25.4786 -0.35172)
(100.178 9.80146 -0.393272)
(107.656 9.23984 -0.143966)
(113.086 -1.47619 0.232606)
(119.707 0.0258158 0.588153)
(120.543 1.01791 1.07134)
(112.407 9.77961 0.986951)
(103.883 13.991 1.1133)
(98.1035 10.3672 0.521528)
(96.358 8.69709 0.0753966)
(97.314 4.59904 0.0364532)
(103.007 0.869467 0.0707972)
(307.78 28.1122 -149.868)
(192.842 68.3174 -17.1167)
(207.253 66.2676 -1.26797)
(133.326 39.7439 -0.993894)
(156.559 24.1255 4.66294)
(108.953 24.6214 -0.231838)
(128.233 34.595 0.416298)
(111.365 26.3084 0.278716)
(104.271 23.5228 -0.546068)
(107.764 14.9274 -0.969427)
(115.733 7.36883 -0.89464)
(122.62 -3.61731 -0.28432)
(126.451 -5.07413 0.189895)
(127.359 -0.536017 0.596305)
(119.065 9.11069 1.44492)
(101.839 15.783 1.24686)
(96.6099 11.2804 0.414927)
(96.7158 7.95651 -0.197498)
(99.3217 2.39034 -0.337474)
(103.851 -0.3431 -0.317083)
(52.9327 230.936 -73.6854)
(-100.757 105.691 -8.84686)
(126.859 81.4089 0.813019)
(54.1845 28.3036 4.38145)
(110.246 31.8037 6.20807)
(79.1676 25.1355 -0.758675)
(111.399 29.1732 -1.31338)
(136.299 27.8505 -1.21386)
(146.346 33.716 -0.629734)
(142.842 29.691 -0.558559)
(136.213 16.6837 0.0918019)
(129.898 0.337001 -0.0399797)
(125.986 -0.863719 -0.298575)
(123.353 3.90722 -0.462539)
(121.042 15.3473 0.0197938)
(108.616 19.6638 1.19927)
(101.822 13.5321 0.443349)
(101.628 8.75592 -0.420772)
(104.085 3.55441 -0.655243)
(107.055 0.81983 -0.5094)
(221.223 146.487 106.092)
(-55.5847 21.4149 -5.93866)
(183.212 4.28928 -4.70271)
(40.507 3.04086 3.71606)
(121.726 4.24166 4.15297)
(77.1004 5.85837 -0.454113)
(98.5462 17.5569 0.483504)
(117.327 26.0999 -0.00400739)
(130.454 31.9724 0.0244874)
(137.955 30.346 0.660518)
(131.195 14.2187 1.24947)
(119.859 5.82432 0.343225)
(116.638 9.07332 -0.235172)
(117.789 10.6795 -0.637046)
(118.745 16.6245 -0.846453)
(111.74 21.7096 0.720431)
(107.988 17.4418 0.365961)
(106.234 10.1642 -0.0725154)
(107.487 4.79026 -0.270203)
(109.001 2.01658 -0.276976)
(387.258 135.399 -202.892)
(28.8534 107.486 25.5488)
(144.687 34.6351 19.6541)
(41.8543 23.5133 1.25548)
(107.171 11.3814 2.0283)
(59.222 5.25514 -0.509774)
(94.9733 -11.5727 0.118118)
(106.428 -2.09603 0.626501)
(111.69 5.34113 1.49989)
(112.639 18.8189 0.202865)
(115.528 15.0901 -0.172109)
(109.644 11.3327 -0.119415)
(109.203 12.7145 -0.377145)
(111.179 15.0783 -0.289701)
(111.146 19.4111 -1.06798)
(106.23 21.2877 0.394509)
(105.214 18.1294 0.412199)
(104.914 11.4314 0.0663842)
(105.893 6.41652 -0.0696904)
(106.571 3.42794 -0.12731)
(132.662 36.1254 152.248)
(-95.7368 68.2673 25.8529)
(149.3 8.85868 -12.889)
(55.373 10.9099 1.1198)
(139.551 4.57506 -0.156912)
(96.9188 -20.3606 -0.573407)
(108.362 -11.6905 -1.68003)
(85.2864 -1.83542 0.224768)
(87.6961 1.3656 -0.0650062)
(78.2588 10.8201 0.164592)
(89.641 14.2919 -0.197732)
(91.7664 15.8509 -0.266872)
(96.5576 16.942 -0.379944)
(96.602 18.6285 -0.383634)
(97.6515 20.5605 0.235456)
(99.2095 18.2563 0.397626)
(102.365 16.2778 0.189555)
(102.988 10.6207 0.0122504)
(104.014 7.40499 0.114213)
(102.555 4.64602 0.0916962)
(39.4148 -55.5625 101.305)
(-52.301 39.5113 17.1736)
(134.528 -26.6695 -8.15874)
(44.7135 0.568392 0.27033)
(122.644 -7.30015 0.0404999)
(74.6339 -7.96102 -0.25864)
(97.3442 23.6155 -0.899999)
(79.1686 -0.542425 0.319795)
(85.9482 16.2917 0.0561081)
(77.7176 2.10782 0.594401)
(83.6215 12.1528 0.3054)
(80.7402 6.55059 0.554843)
(86.9761 13.6884 0.386883)
(87.648 11.6193 0.443569)
(92.9748 13.881 0.561768)
(94.5242 13.2719 0.400109)
(97.6561 12.9148 0.252285)
(98.2161 10.5591 0.124826)
(99.3072 9.8999 0.377441)
(98.656 7.05986 0.268086)
(182.272 157.53 109.757)
(-10.5831 32.7644 19.7205)
(125.181 4.66868 3.14334)
(29.6782 -2.03065 2.08652)
(111.184 -2.04323 0.410334)
(52.7272 -8.66785 0.0315995)
(94.4567 8.10024 -0.218707)
(72.338 2.81261 0.0927454)
(85.0644 9.11542 0.0019414)
(74.9103 5.60147 0.0433146)
(80.1499 8.14624 0.100018)
(76.3343 6.79815 0.110908)
(80.3848 9.08464 0.18503)
(80.6066 9.01452 0.28676)
(83.4759 10.6914 0.255347)
(84.6414 9.9471 0.201223)
(86.7601 10.4288 0.202777)
(87.4999 9.00783 0.206199)
(89.4643 8.83282 0.25406)
(92.6357 6.54969 0.150429)
(93.9351 97.7515 -128.554)
(-135.83 -7.62721 -13.0044)
(123.15 -0.892469 -17.1791)
(4.28149 -8.53956 -2.16738)
(102.34 -8.91775 -3.03669)
(53.9898 -3.43144 -1.44617)
(89.3532 11.4772 -0.297314)
(69.114 3.87906 -0.478932)
(84.794 13.5914 -0.1337)
(74.7163 4.77976 -0.221794)
(82.7047 9.85091 -0.0406755)
(77.637 4.99845 -0.0165442)
(82.609 8.15602 0.0146982)
(80.6287 6.44201 0.0108464)
(84.2543 8.33673 0.0612554)
(84.1372 7.88272 0.0520124)
(85.9572 8.49422 0.0896969)
(86.4629 7.79786 0.0707165)
(88.618 7.80423 0.0380487)
(92.4016 5.84995 -0.0168906)
(138.644 129.299 -40.7405)
(34.5117 68.6765 -60.7557)
(158.669 -11.6433 9.5076)
(26.6359 -9.86277 5.36547)
(98.1014 -11.0273 0.151135)
(39.7568 -5.1196 0.164292)
(83.9057 4.85326 0.564077)
(53.1551 4.35012 0.423137)
(78.5011 8.80514 -0.206657)
(64.8279 6.56905 -0.0685006)
(78.1561 7.91306 -0.315519)
(73.3153 6.57045 -0.188556)
(80.6228 7.107 -0.203622)
(79.7236 6.67967 -0.143602)
(83.8992 7.31658 -0.123418)
(84.432 7.17277 -0.126568)
(86.559 7.55801 -0.0962707)
(87.6432 7.30829 -0.100855)
(90.1554 7.43901 -0.218542)
(94.8514 5.80718 -0.187017)
(204.616 201.713 -138.85)
(107.439 135.282 5.15565)
(167.387 43.1445 14.4717)
(57.3313 9.86126 5.95999)
(107.5 4.26698 0.462503)
(63.4053 1.44684 -0.0763365)
(91.3713 3.88274 0.449491)
(70.1738 2.89537 0.00805343)
(85.9286 5.23711 0.035745)
(76.2161 3.19102 -0.178598)
(85.3518 4.23521 -0.284227)
(81.2769 2.56897 -0.384084)
(87.0392 3.41404 -0.437605)
(86.2819 3.48628 -0.496389)
(90.3765 4.71115 -0.490038)
(91.0316 5.32333 -0.463093)
(93.417 5.98439 -0.430644)
(95.0893 6.30671 -0.497634)
(98.4177 6.75188 -0.697431)
(105.53 5.15202 -0.489869)
(127.832 32.256 14.6639)
(-68.5749 -8.99585 29.5379)
(124.909 -3.60304 9.23181)
(38.3948 -1.85325 4.84003)
(108.605 -7.04289 0.0398863)
(63.5151 0.745183 0.302231)
(91.6808 2.30703 -0.502346)
(65.9268 6.77394 -0.971119)
(84.4455 6.76815 -1.71033)
(73.8032 7.84636 -1.51529)
(85.7931 6.9526 -1.61986)
(83.7903 6.94188 -1.34076)
(92.2228 5.97285 -1.01422)
(93.8242 6.12234 -0.872483)
(98.7288 6.40489 -0.840146)
(100.227 6.47907 -0.880084)
(103.208 6.53717 -0.894212)
(105.886 6.91104 -0.903945)
(110.204 5.91328 -1.31662)
(118.621 4.10971 -0.871471)
(114.927 87.7604 3.48991)
(94.3321 29.2986 -11.0812)
(167.359 -6.62258 -4.24211)
(140.905 -1.18885 0.0473341)
(159.892 2.61966 2.06655)
(136.523 10.2832 2.64471)
(145.381 12.4735 3.01076)
(136.767 14.6876 2.81819)
(144.237 12.4142 2.35445)
(142.473 10.5513 1.86574)
(146.745 6.16302 1.75276)
(143.855 3.00412 1.91872)
(141.129 0.0307652 2.26111)
(132.882 2.26363 2.24415)
(130.939 5.02248 1.93974)
(129.775 6.65145 1.54506)
(130.822 7.22426 1.29552)
(133.955 7.53924 1.0764)
(139.28 7.08343 0.453375)
(149.706 4.67873 0.143921)
(278.191 -12.8094 102.243)
(98.3037 3.42126 43.8276)
(222.96 -8.62801 -22.7073)
(118.674 0.660402 4.63658)
(170.614 -4.17537 8.35934)
(131.568 -2.69337 6.80398)
(151.471 -4.07833 8.21602)
(136.65 -4.13334 6.74744)
(146.472 -4.77344 6.70393)
(142.077 -5.15326 5.72009)
(147.397 -5.50823 4.83488)
(146.892 -5.81464 4.1166)
(150.856 -5.7694 3.39767)
(152.518 -6.73932 2.44695)
(158.276 -6.87758 1.64469)
(163.175 -7.77442 0.128168)
(170.347 -5.79575 -0.795319)
(172.861 -2.70563 -0.513134)
(173.507 3.72332 0.152583)
(166.818 5.16313 0.124563)
(394.882 24.3539 -14.7765)
(177.389 66.5181 -23.1316)
(217.868 36.208 -21.6887)
(134.29 24.3372 -2.55145)
(169.215 5.03367 0.891683)
(125.832 3.60222 2.06661)
(141.485 -4.42395 4.48096)
(117.746 -4.80448 2.45756)
(124.113 -5.75024 1.92776)
(112.16 -4.14489 -0.112865)
(115.296 -2.58154 -1.34353)
(110.152 -1.71773 -2.61337)
(112.519 -0.8258 -3.37278)
(111.019 -0.847697 -3.99073)
(113.127 -0.596678 -4.20697)
(113.145 -0.287711 -5.03194)
(114.647 0.313758 -5.28289)
(115.453 2.59408 -5.95627)
(118.89 5.34402 -4.53275)
(121.387 4.39729 -2.03466)
(242.935 109.975 -144.701)
(109.761 75.5555 -18.1959)
(192.784 50.2134 -27.0289)
(130.985 25.712 -6.56391)
(174.476 15.1157 -0.703564)
(146.427 12.7457 0.875372)
(153.932 7.96302 4.99234)
(124.978 7.71547 3.53588)
(122.203 3.98322 3.33053)
(103.503 3.90822 0.640732)
(103.496 1.77871 -0.582743)
(94.7899 1.3622 -1.1444)
(96.2649 -0.0502241 -1.32512)
(92.7996 -0.967633 -1.27005)
(94.2291 -1.62738 -1.13565)
(93.125 -1.87436 -1.00273)
(93.7616 -1.25149 -0.971602)
(93.4102 0.166595 -0.657791)
(95.8701 3.57399 -0.0335112)
(99.3121 4.26389 0.270242)
(467.235 -50.245 84.0108)
(75.922 66.1916 21.4689)
(190.281 10.9865 14.3127)
(105.788 7.50145 2.52302)
(154.007 4.82251 2.36984)
(106.1 14.8923 0.849744)
(124.144 17.9891 2.67959)
(94.5031 19.5063 0.572327)
(102.474 15.215 0.343334)
(86.3897 12.1043 -0.353768)
(91.0679 7.8937 -0.615324)
(82.9769 5.98401 -0.622782)
(85.6235 3.66423 -0.502482)
(82.312 2.7756 -0.346451)
(84.1915 1.37341 -0.202892)
(83.1717 1.4003 -0.28773)
(83.3198 1.72381 -0.410941)
(82.3711 2.64238 -0.395209)
(83.7243 3.9481 -0.0647826)
(88.0734 3.522 0.145453)
(47.8905 178.375 -135.985)
(-27.0765 58.2624 -29.8243)
(139.896 14.1781 -21.9053)
(79.3235 18.7724 -8.54075)
(133.984 19.493 -0.603449)
(94.2275 26.8257 -1.68679)
(115.673 19.7148 -0.0724953)
(95.0605 23.5715 -0.60148)
(105.711 13.8598 -0.4484)
(93.0872 14.3851 -0.717145)
(97.6574 7.24074 -0.573612)
(89.6855 6.92365 -0.343635)
(91.0391 2.38615 0.0107695)
(84.9893 1.42292 0.0741396)
(85.0198 -1.29695 0.710545)
(82.9085 -0.526184 0.372693)
(83.1466 0.365429 0.24835)
(82.3554 1.96299 0.138553)
(83.8559 2.94719 0.0827176)
(88.0772 2.87603 0.100915)
(235.484 201.143 -117.313)
(15.9777 40.4128 -22.7746)
(156.71 21.912 -0.825534)
(74.6916 12.7967 -1.7281)
(125.815 20.3963 1.44361)
(75.4405 27.8206 -1.04419)
(110.447 23.3147 -0.438211)
(96.1007 25.4738 -1.1922)
(106.89 19.5575 -1.20424)
(101.842 17.7581 -1.30058)
(105.975 12.5624 -1.05845)
(103.812 11.0923 -0.725745)
(104.49 8.17765 0.11463)
(101.015 7.81139 1.89423)
(96.3104 2.87036 3.82397)
(89.3917 2.49778 2.69243)
(85.3353 2.02624 0.899313)
(83.3507 3.08443 0.226819)
(84.1499 2.74962 -0.0119977)
(88.4499 2.11592 0.0356587)
(198.176 14.5301 -75.5426)
(87.5373 23.88 -8.21768)
(164.443 30.4131 0.946835)
(81.3867 22.9082 -1.50122)
(137.218 25.4727 4.46734)
(89.7944 28.448 0.388986)
(107.567 3.08815 0.335085)
(91.1455 24.1235 0.67464)
(101.086 10.0146 -0.166128)
(97.1221 15.1082 0.872274)
(104.327 6.64959 1.13291)
(104.314 8.32136 1.41786)
(107.004 5.22386 1.09113)
(104.737 8.5021 1.48194)
(102.164 8.02541 2.60373)
(94.5848 8.49775 2.89975)
(90.4308 5.36551 1.92242)
(87.8028 4.32261 0.700286)
(88.3899 2.4357 0.145553)
(92.7575 1.34931 0.196973)
(198.718 13.9745 44.4448)
(68.6702 32.018 -9.15153)
(147.011 17.3221 -15.0546)
(75.9119 12.3089 -0.26063)
(127.824 17.2926 4.53342)
(87.6612 45.4513 2.16597)
(103.356 29.5978 1.29359)
(85.1555 16.5634 0.772834)
(92.1963 21.5542 -0.458265)
(90.2177 8.28147 -0.683747)
(97.7377 8.63555 -0.0240469)
(100.423 3.76039 0.193847)
(104.345 6.19853 0.650295)
(102.632 6.57727 0.58381)
(93.3184 11.4145 1.50928)
(90.0329 11.4334 1.5071)
(88.1668 7.99966 0.753037)
(87.759 5.9364 0.204308)
(89.4363 1.99697 0.0686844)
(93.9109 0.431119 0.120351)
(287.258 -25.9105 -48.6625)
(170.594 37.7908 -12.8404)
(183.082 39.4561 10.9516)
(88.1694 18.2586 6.93249)
(123.584 18.7056 9.63921)
(100.08 26.8348 2.6356)
(114.156 37.8855 2.08809)
(96.7267 24.9145 0.608392)
(96.239 20.1376 -1.74683)
(98.4561 9.79726 -3.36424)
(102.539 3.88811 -2.47156)
(105.553 0.824182 -1.16429)
(107.588 4.37712 -0.59202)
(105.526 9.44268 -0.174001)
(96.6474 12.7375 1.96528)
(89.1268 12.3317 1.14157)
(87.9986 7.52134 0.217037)
(89.0087 4.30484 -0.271528)
(90.9574 0.789142 -0.320998)
(94.0551 -0.237834 -0.366912)
(78.3937 188.819 -6.34764)
(-119.297 36.521 -12.9704)
(105.081 55.6028 -6.02773)
(2.26589 18.2493 5.771)
(91.6134 26.5101 5.70695)
(65.889 23.8209 -1.71953)
(97.591 33.2344 -2.02479)
(115.539 27.6438 -2.12998)
(118.773 22.8518 -1.7011)
(116.886 13.7324 -1.95985)
(112.479 3.69825 -0.477782)
(110.472 1.39239 -0.597832)
(108.137 6.40771 -1.545)
(106.044 12.4794 -1.43949)
(99.848 18.5276 1.02221)
(93.0792 14.2179 0.830024)
(92.2303 8.41381 -0.229124)
(92.5264 4.37986 -0.714185)
(93.6584 1.19247 -0.678913)
(95.2699 0.118785 -0.599594)
(406.488 196.713 -104.025)
(-69.569 2.84219 10.9119)
(157.649 1.61323 -7.76636)
(1.24168 4.2424 9.12648)
(107.914 2.98063 3.93298)
(65.2466 5.01273 1.42898)
(89.744 11.3419 2.34471)
(110.482 15.9421 2.18866)
(119.759 17.326 1.80879)
(120.932 14.7062 2.74605)
(116.119 6.38921 4.55796)
(109.98 7.48722 0.369945)
(107.306 11.3609 -2.4493)
(105.401 14.5735 -2.43076)
(102.132 19.5469 -0.703352)
(96.5919 15.6475 0.595254)
(95.6438 9.53956 -0.079591)
(94.7628 4.52981 -0.190628)
(95.367 1.78687 -0.166642)
(96.2762 0.728642 -0.296987)
(229.099 -168.64 -79.9824)
(-29.8403 71.9604 8.89883)
(136.29 19.4608 -3.98359)
(23.612 21.7422 -2.22984)
(96.3072 7.68785 0.273603)
(56.628 1.67856 -1.14718)
(90.8131 -11.7276 1.56426)
(101.281 0.258705 5.21806)
(105.818 7.60515 4.69957)
(108.171 15.8978 3.50806)
(102.711 13.184 1.45158)
(97.8746 12.5613 -1.25025)
(97.999 14.5944 -2.1351)
(100.053 16.9392 -1.97717)
(97.563 19.1742 -1.14684)
(94.3279 14.302 0.644684)
(94.1032 10.5518 0.397866)
(93.3539 5.93329 0.167774)
(93.5204 3.45473 0.127167)
(94.0284 1.94774 -0.0664349)
(105.473 218.483 -20.5528)
(-71.0812 83.1766 -10.8199)
(127.276 13.2807 -20.1133)
(39.7789 14.9002 1.74071)
(124.111 3.92595 -1.19957)
(77.7982 -19.8332 -0.502609)
(90.5728 -7.00773 -0.746793)
(66.6748 2.41067 2.14846)
(77.7215 5.39987 0.450622)
(71.3605 12.2692 0.21771)
(82.7062 13.6563 -0.599876)
(82.3818 14.277 -0.911719)
(87.26 14.7994 -0.992147)
(86.8102 15.4396 -0.550316)
(88.0329 14.2988 0.49164)
(89.7138 11.3416 0.617486)
(91.0505 9.82815 0.402407)
(90.418 6.20321 0.27941)
(90.6001 4.7082 0.439346)
(90.6123 2.93655 0.181434)
(57.0973 48.0896 80.8601)
(-26.2732 23.0505 -60.1327)
(115.857 -18.1042 -27.2402)
(32.2888 5.43878 -3.31739)
(110.472 -3.80543 -1.37861)
(57.0418 -5.24177 -0.513207)
(80.626 26.9979 -1.366)
(59.4642 -3.51119 0.75569)
(70.331 16.8052 0.0066687)
(63.4195 0.443487 1.13416)
(72.4487 12.116 0.199911)
(70.5366 4.97477 0.743333)
(77.6817 11.6322 0.382111)
(78.0614 8.03296 0.680405)
(83.1901 10.209 0.859839)
(83.9013 9.25862 0.745233)
(85.5594 9.02451 0.586063)
(85.2214 7.18185 0.398178)
(86.2125 6.80666 0.663141)
(87.5618 4.62959 0.353701)
(130.09 216.178 37.6834)
(-54.2531 49.309 10.2421)
(109.952 16.5437 -9.73663)
(14.0227 6.43004 1.42049)
(100.516 2.78693 -1.65048)
(39.2613 -4.35732 0.0484196)
(84.1711 14.5976 -0.552927)
(58.6264 4.2484 0.421032)
(73.7119 10.9082 0.277164)
(62.6759 4.62851 0.0776347)
(70.1423 7.86175 0.27241)
(66.6397 5.4654 0.290344)
(71.7805 7.6842 0.331139)
(71.9849 6.90038 0.472298)
(75.0844 8.27686 0.459344)
(76.0108 7.28395 0.41587)
(77.8368 7.65385 0.397941)
(78.4367 6.33517 0.340243)
(80.5944 6.29807 0.350646)
(84.1518 4.37892 0.184961)
(5.47992 224.654 -44.5801)
(-81.777 65.7426 -30.5429)
(99.37 24.3984 -30.552)
(-5.76059 0.786779 -2.84748)
(89.7905 -3.69212 -5.69079)
(32.979 -1.64298 -1.91497)
(76.6669 13.0497 -0.387481)
(53.4955 1.82406 -0.384718)
(73.3986 12.1217 -0.0236158)
(62.053 1.81977 -0.122964)
(72.44 7.76669 0.0298354)
(67.272 2.45573 0.0587056)
(73.6336 6.06936 0.130289)
(71.8062 4.06855 0.0613497)
(75.9967 6.02413 0.164122)
(75.8652 5.46814 0.114974)
(77.8668 6.15685 0.15942)
(78.3163 5.4899 0.0791844)
(80.5854 5.53254 0.00975876)
(84.3373 3.88036 -0.0631756)
(94.6738 119.068 -74.066)
(-168.278 -24.2524 -3.21415)
(107.734 -42.1127 -1.24523)
(-0.38629 -15.8876 1.7268)
(85.2847 -12.8015 -3.92683)
(24.3452 -6.44563 -0.232266)
(75.1792 3.46735 -0.17786)
(45.4108 1.57787 0.594724)
(71.8826 5.82404 -0.322032)
(57.8448 3.07058 -0.0507111)
(71.5528 4.58708 -0.452426)
(66.3518 3.23637 -0.244631)
(73.9217 4.01619 -0.364789)
(72.8085 3.73853 -0.278574)
(77.132 4.59271 -0.185413)
(77.5109 4.60604 -0.194186)
(79.677 5.07696 -0.144256)
(80.6179 4.9378 -0.229107)
(83.1603 4.99656 -0.398702)
(87.3588 3.64414 -0.329495)
(176.136 45.0315 -133.578)
(78.5365 59.2157 4.86848)
(133.451 7.49636 14.9678)
(43.4164 2.13147 5.04032)
(96.7434 1.27806 -0.618191)
(47.5806 -0.326658 -0.431152)
(81.5807 1.78329 0.75926)
(59.9947 0.457468 -0.157363)
(78.5588 2.38253 0.0311127)
(68.8927 0.0382916 -0.428685)
(79.0152 0.896159 -0.456912)
(75.0394 -0.722109 -0.66864)
(81.2367 0.295572 -0.643446)
(80.4936 0.484446 -0.766579)
(84.5968 1.8174 -0.798409)
(85.0392 2.45135 -0.767654)
(87.3481 3.17379 -0.679332)
(88.6496 3.58592 -0.802762)
(91.5639 3.76206 -0.990893)
(96.6052 2.75935 -0.657556)
(55.4011 -38.8628 229.114)
(-76.1236 -31.0588 -3.66824)
(106.225 -9.47206 -12.9908)
(40.3346 -3.36518 1.15531)
(103.277 -7.66196 -2.21015)
(64.5928 -2.42539 0.237986)
(91.0487 -2.20858 -1.03744)
(71.274 1.59705 -2.15476)
(87.6792 1.38502 -3.0834)
(78.8282 2.2877 -2.83826)
(89.1989 1.31291 -2.54974)
(86.4778 1.25236 -1.86798)
(92.7475 0.436942 -1.35233)
(92.6894 0.857292 -1.47221)
(96.3995 1.35746 -1.6246)
(97.2207 1.844 -1.75699)
(99.3683 2.14282 -1.77431)
(101.117 2.59241 -1.85588)
(104.36 2.19509 -2.05506)
(109.647 1.62113 -1.3534)
(154.994 13.1847 47.4617)
(79.0719 10.6227 -24.9069)
(149.893 -9.34996 -11.5671)
(129.133 -0.131248 -1.25875)
(154.442 0.90716 3.07395)
(137.203 4.0795 4.25032)
(148.483 3.82818 5.33042)
(142.908 5.01703 4.87624)
(150.397 2.68229 4.33774)
(148.288 1.2519 3.73261)
(149.918 -2.45449 3.62344)
(144.279 -3.74197 3.87059)
(140.959 -3.79956 4.92423)
(133.685 -1.10902 4.96844)
(133.431 1.10394 4.09095)
(132.212 2.26551 3.41278)
(133.085 2.68623 2.69041)
(135.45 3.0464 1.8582)
(139.819 1.94644 0.283159)
(146.087 1.21879 0.147619)
(288.155 -25.0761 -41.2767)
(167.612 33.1066 2.28241)
(222.679 10.9873 -22.2878)
(112.373 9.05113 0.966254)
(162.228 2.79772 8.85703)
(122.351 3.79595 7.42464)
(146.727 1.54356 9.61712)
(134.86 0.943499 7.48874)
(147.577 0.166116 6.99628)
(145.339 0.112333 5.49934)
(151.999 0.127859 4.56938)
(152.184 0.859513 3.18723)
(156.873 1.458 2.43013)
(157.802 1.32306 1.19781)
(161.653 2.02149 0.232656)
(162.147 2.65216 -1.38674)
(161.468 4.10936 -2.24996)
(158.013 6.34141 -1.35203)
(153.037 9.71377 0.935102)
(145.019 6.11896 0.424982)
(245.207 143.173 107.612)
(159.208 104.142 24.1715)
(212.976 49.9081 -13.7691)
(119.517 30.0661 -1.93293)
(155.243 8.95738 0.996071)
(107.072 7.53155 2.24163)
(128.971 -0.441741 4.42335)
(107.36 -0.488366 2.27643)
(117.854 -1.4032 1.71623)
(107.476 -0.323806 -0.371789)
(111.901 0.780258 -1.6706)
(106.725 0.85695 -3.04577)
(108.949 1.3555 -3.81099)
(106.53 0.760438 -4.64064)
(107.873 0.917412 -4.93859)
(106.756 0.854218 -5.70182)
(106.907 1.57692 -5.83742)
(105.478 2.66018 -5.82074)
(105.89 4.45452 -3.38617)
(106.569 3.04375 -0.936858)
(192.983 68.6541 113.125)
(60.3973 48.9207 18.1691)
(175.456 50.534 -2.67979)
(105.743 32.2727 -2.17579)
(153.213 22.831 1.21153)
(113.599 18.9527 0.933379)
(129.384 12.0359 5.46579)
(103.755 10.9889 3.3105)
(109.809 6.46579 2.87105)
(94.1206 6.10465 0.21263)
(96.7737 3.56404 -0.618929)
(88.1158 2.99008 -1.22123)
(89.9773 1.30984 -1.36155)
(85.8626 0.307917 -1.37775)
(87.0332 -0.476611 -1.22498)
(85.1177 -0.746238 -1.13059)
(85.2487 -0.133554 -1.07075)
(84.2045 0.85212 -0.627638)
(86.0993 3.40909 0.112153)
(89.594 3.33574 0.37612)
(200.482 58.2735 137.066)
(-56.2623 92.4402 46.0574)
(167.81 24.4539 6.83308)
(74.9101 21.6069 1.25238)
(137.824 17.5289 1.75798)
(85.182 23.7149 0.209257)
(111.75 20.7036 2.60307)
(83.0417 19.8598 0.544416)
(95.2369 14.2776 0.459745)
(79.2618 11.5329 -0.391058)
(85.1945 7.23667 -0.624261)
(76.6281 5.51347 -0.653288)
(79.714 3.11528 -0.504745)
(75.901 2.30113 -0.372961)
(77.8061 1.02783 -0.265279)
(76.4019 1.06711 -0.405983)
(76.4883 1.32531 -0.464741)
(75.4844 2.08011 -0.435205)
(76.9479 3.12053 -0.0330491)
(81.3348 2.63791 0.196321)
(132.725 95.3349 -163.632)
(18.4644 72.3714 -51.9338)
(137.655 20.2567 -34.5105)
(63.948 25.3655 -11.3282)
(121.873 24.8878 -2.33181)
(78.3946 29.5288 -1.75574)
(105.656 19.5077 0.127927)
(83.5417 23.2699 -0.470907)
(96.3125 12.7245 -0.39946)
(82.3618 14.3251 -0.648935)
(87.9715 6.84199 -0.512756)
(79.2711 7.15775 -0.300108)
(81.6079 2.38648 0.00554067)
(76.1937 2.06854 0.017866)
(77.352 -0.431451 0.666847)
(75.6561 0.300769 0.306457)
(76.0499 0.484651 0.190475)
(75.4722 1.51562 0.0757591)
(77.1388 2.15157 0.100364)
(81.3253 2.0628 0.141935)
(174.999 93.7638 -190.959)
(8.83769 25.0613 -29.6721)
(138.336 21.8107 -8.68045)
(49.3369 14.1702 -2.19621)
(114.29 25.0242 1.0201)
(61.2842 29.7846 -0.516436)
(101.196 21.6455 0.137352)
(83.4767 24.1643 -0.854387)
(94.9665 16.8954 -0.95285)
(87.3438 16.0851 -1.10735)
(91.089 10.4129 -1.01586)
(86.5198 9.70618 -0.71769)
(86.3835 6.37112 -0.0442757)
(81.8869 5.77982 1.50895)
(80.5953 2.78632 3.03715)
(78.812 2.4988 2.17175)
(77.208 1.73575 0.743048)
(76.1373 2.365 0.248016)
(77.318 1.89225 0.0232159)
(81.4575 1.46238 0.0876237)
(174.427 46.8021 -35.5601)
(36.7518 40.1168 2.92462)
(149.738 33.2916 4.23096)
(55.7082 21.8588 -1.01025)
(124.703 25.5733 4.62171)
(74.0466 27.9408 0.899651)
(96.421 1.32017 0.364798)
(77.9009 24.7797 0.744388)
(88.9767 8.67676 -0.136014)
(83.308 15.6592 0.848942)
(90.1929 6.90854 0.863608)
(87.7696 10.2191 1.12702)
(89.2918 6.42334 0.870704)
(84.8535 9.42107 1.3973)
(83.7993 7.83673 2.22723)
(80.8459 6.73887 2.44643)
(80.1767 4.08507 1.56427)
(79.3169 3.09633 0.649995)
(80.6016 1.42197 0.175026)
(84.6678 0.805198 0.203433)
(114.883 -8.72226 31.6369)
(-22.9808 29.9947 -11.4373)
(115.432 11.8752 -13.5637)
(43.2395 10.3583 -0.244425)
(111.727 20.3324 4.21809)
(69.5429 47.5637 1.83781)
(87.7089 26.1489 1.70504)
(72.5247 18.1073 0.500059)
(80.9865 18.1288 -0.737207)
(79.961 8.55968 -0.552565)
(86.9248 9.35733 0.0871412)
(87.5439 6.63901 0.405649)
(89.3587 8.7484 0.304828)
(86.022 8.29365 0.56173)
(80.0109 10.1149 1.81755)
(79.6012 9.24953 1.33674)
(79.2328 5.85752 0.582558)
(79.6753 4.15927 0.243027)
(81.4252 1.19237 0.102917)
(85.2518 0.455903 0.136739)
(142.879 43.3017 -83.6676)
(55.7356 37.5045 -14.8559)
(134.2 25.5355 10.9112)
(42.5712 11.1956 5.1345)
(104.515 19.6873 5.77781)
(80.0527 31.7332 2.35632)
(94.0161 37.3445 1.92714)
(81.4296 19.8519 0.159355)
(85.8627 15.4175 -2.22901)
(86.9148 6.73165 -3.26395)
(90.2305 4.96911 -2.01665)
(91.5217 5.22509 -0.785258)
(91.7607 9.5188 -0.42172)
(88.0795 12.2546 0.224354)
(82.7645 10.8694 1.92054)
(79.9831 9.2144 1.0095)
(79.6315 5.03573 0.146843)
(80.6624 2.63605 -0.141303)
(82.266 0.496713 -0.159108)
(85.0474 0.0227063 -0.249475)
(43.8371 134.379 51.2738)
(-82.7931 39.0216 -4.87541)
(87.0854 45.5067 -4.15041)
(-16.774 16.1531 4.71074)
(80.1932 24.1144 1.62254)
(51.7759 24.9853 -1.47432)
(84.9167 34.6922 -0.785295)
(98.8817 21.9762 -1.29089)
(100.614 13.2948 -1.77254)
(98.8179 5.91545 -1.65476)
(96.9722 2.60378 -0.386459)
(95.5886 5.39028 -0.783534)
(93.4675 11.1747 -1.66682)
(90.4352 15.5801 -0.916017)
(85.1869 15.25 1.39456)
(82.852 9.39816 0.776472)
(82.4247 5.16377 -0.296992)
(82.4766 2.43492 -0.445178)
(83.4015 0.651169 -0.404664)
(85.1179 0.124441 -0.444234)
(141.352 16.5219 -88.6461)
(-65.2321 -23.0772 42.7735)
(123.954 1.78203 -14.2474)
(-10.2869 6.0415 7.8209)
(96.912 3.38747 -0.0067035)
(53.3584 5.62271 2.2362)
(79.2871 9.9339 4.06645)
(98.687 11.6269 3.74127)
(104.45 10.1932 3.00322)
(102.999 7.37929 3.77141)
(102.572 6.40681 3.97183)
(99.8348 8.23044 -0.819179)
(92.892 13.3469 -2.85647)
(90.773 16.2973 -2.21117)
(87.3077 16.698 0.164787)
(84.6868 9.1538 0.898108)
(83.9095 5.04969 0.0827823)
(83.315 1.9758 0.0514446)
(84.0267 0.792683 0.0577936)
(85.4199 0.315354 -0.208185)
(204.438 51.7978 45.1779)
(-5.97641 43.3009 29.0921)
(122.294 14.6247 0.442753)
(15.1001 20.6433 1.07059)
(87.1622 6.18932 -0.932099)
(47.5948 -0.325557 -0.334596)
(80.7535 -10.0144 1.80424)
(89.6011 5.27391 4.88925)
(93.3247 10.8348 4.11009)
(92.3018 13.8227 3.63247)
(89.8208 12.6996 0.949606)
(87.3056 13.5878 -1.93335)
(86.927 14.5789 -2.6017)
(87.0733 15.2975 -2.08543)
(84.5653 14.7719 0.0715716)
(83.3662 8.08255 1.16866)
(82.6991 6.10433 0.521819)
(82.1099 3.14248 0.31368)
(82.4551 2.09859 0.250449)
(83.6612 1.15503 -0.0266602)
(181.994 253.722 38.9894)
(21.5821 41.2201 25.5309)
(132.703 6.57138 -25.3292)
(38.705 13.1911 -0.253349)
(114.363 3.26637 -3.52473)
(63.4897 -18.3609 -0.907497)
(76.405 -1.77911 -0.0283006)
(55.5009 5.36885 1.83849)
(70.385 9.41179 0.435166)
(64.7911 12.6274 0.0756811)
(75.5651 12.9678 -0.727118)
(73.96 12.7349 -0.976991)
(78.9384 12.4337 -0.886443)
(77.8971 11.7476 -0.113891)
(78.7459 9.72897 1.02041)
(79.6948 6.59954 0.852452)
(80.0874 6.16809 0.501158)
(79.3231 3.74008 0.30002)
(79.7861 3.25657 0.467911)
(81.0016 1.88801 0.194141)
(430.47 74.1007 54.8687)
(125.287 9.7374 10.33)
(147.196 -10.2534 -15.5924)
(37.7135 9.34681 -3.12444)
(103.48 -1.72608 -2.18864)
(44.7579 -3.32348 -0.462302)
(69.8913 28.4248 -1.36811)
(47.4039 -5.52705 0.697074)
(61.3344 16.9529 -0.218753)
(54.405 -0.907011 1.13023)
(64.7277 11.7379 -0.0228019)
(62.4807 3.20182 0.754894)
(69.8013 9.82438 0.335147)
(69.4605 5.08451 0.821081)
(74.2647 7.33656 0.865674)
(74.3932 6.33831 0.75092)
(75.6877 6.50701 0.569489)
(75.2057 4.99617 0.385153)
(76.4955 4.92218 0.596202)
(78.8527 3.07285 0.322616)
(15.311 -31.6348 191.281)
(-50.0797 65.694 -9.27517)
(99.0511 27.7169 -17.2979)
(14.9121 13.6561 0.431675)