/*--------------------------------*- C++ -*----------------------------------*\
  =========                 |
  \\      /  F ield         | OpenFOAM: The Open Source CFD Toolbox
   \\    /   O peration     | Website:  https://openfoam.org
    \\  /    A nd           | Version:  10
     \\/     M anipulation  |
\*---------------------------------------------------------------------------*/
FoamFile
{
    format      ascii;
    class       volScalarField;
    location    "5.6";
    object      k;
}
// * * * * * * * * * * * * * * * * * * * * * * * * * * * * * * * * * * * * * //

dimensions      [0 2 -2 0 0 0 0];

internalField   nonuniform List<scalar> 
12920
(
50.0732
196.436
298.762
327.021
305.952
267.978
233.201
203.941
163.028
138.119
119.873
110.348
101.418
97.958
95.977
91.6249
83.1529
70.8756
62.0353
50.4845
774.28
342.061
296
363.559
321.015
256.157
212.553
189.348
164.649
155.602
147.52
146.779
144.422
143.2
139.469
131.859
119.221
103.286
90.1974
84.4998
4759.38
2510.66
1122.6
866.547
713.329
562.676
387.431
273.35
197.142
164.458
140.92
130.757
119.386
112.923
104.957
99.0176
94.0463
90.4175
88.5324
88.7522
1511.82
2025.28
1657.56
1213.49
929.211
712.447
445.539
281.515
193.294
153.775
132.774
119.107
108.75
101.835
96.7312
93.7658
92.1655
91.3287
91.3033
91.2948
4400.77
3049.38
2157
1247.6
814.63
573.358
380.709
277.135
221.133
184.851
159.902
142.911
129.428
120.965
113.738
109.019
104.85
100.805
98.0929
94.8322
2697.46
2806.94
1946.58
997.974
724.96
476.046
412.851
307.165
279.564
231.965
202.21
168.894
146.898
131.002
120.591
113.087
105.662
99.4901
95.7116
93.5369
2580.17
4675.63
2994.97
1473.68
1030.46
745.8
603.075
468.301
424.918
372.894
316.182
262.458
216.676
177.921
147.794
126.326
110.198
100.044
94.8838
93.908
1997.68
2724.64
1757.41
1149.35
868.696
729.881
439.08
321.503
311.551
266.183
208.367
147.74
144.847
131.994
158.666
121.193
104.234
98.2387
94.6044
93.6868
1419.77
1329.64
1311.53
1284.11
1124.28
584.874
343.104
181.928
164.049
111.069
44.4991
67.2176
107.714
96.4605
113.459
119.159
102.134
92.9708
87.8167
88.4232
1416.26
2869.98
1927.32
1276.33
936.558
478.042
229.025
130.253
95.5859
90.9018
116.287
72.2238
81.659
84.0477
109.726
109.129
95.0644
87.335
85.6253
87.2957
6985.04
4803.52
3719.67
1725.22
918.826
450.59
216.958
147.51
170.615
171.053
157.201
58.4444
52.7509
58.9654
87.2102
105.911
102.611
99.4644
99.6165
99.9761
16395
8438.72
2549.14
1232.68
841.733
433.815
251.033
177.273
184.239
177.556
110.909
52.1039
62.0345
55.9512
87.2498
127.969
119.002
112.885
112.885
113.168
5844.12
2881.3
1543.84
1062
760.098
678.094
414.82
300.196
254.992
178.961
91.4488
87.4199
90.2932
86.5989
130.956
122.546
120.473
121.323
124.749
125.967
3756.85
1651.99
1221
871.364
689.121
619.843
560.693
416.194
283.402
207.954
174.438
162.813
149.813
142.91
136.432
134.97
135.745
137.099
139.376
139.008
3403.04
1544.04
866.348
617.939
571.134
459.401
403.621
314.427
249.353
228.822
215.812
215.857
213.371
205.3
191.204
178.673
169.826
162.119
159.219
152.427
2987.33
1780.27
1127.75
790.48
575.112
481.045
390.856
349.154
304.963
297.581
286.093
282.932
274.836
263.932
245.055
220.248
199.479
179.945
172.682
158.895
2664.39
2537.58
1331.17
614.303
523.488
470.378
425.569
389.436
352.307
340.786
325.885
319.971
307.346
294.782
269.379
236.436
212.74
189.409
180.09
163.093
1345.77
2319.82
1744.94
1016.81
652.924
569.164
555.089
537.572
478.217
428.011
383.21
356.392
322.987
279.963
238.192
207.911
194.525
179.923
173.439
159.136
2333.78
1681.25
1215.16
682.497
469.329
435.919
432.963
435.531
428.847
408.581
363.816
309.229
241.508
188.399
155.485
135.165
125.968
122.866
120.007
111.189
993.911
989.272
914.985
804.175
668.005
579.524
469.239
377.259
311.194
278.534
250.426
222.712
196.111
167.313
136.748
113.034
96.2574
81.7542
73.9601
56.6447
564.37
209.656
275.046
697.574
783.966
728.901
607.326
506.671
407.542
338.459
289.631
261.054
241.551
231.332
220.332
203.896
175.679
144.473
122.855
115.757
7506.29
2056.08
941.958
1119.16
929.008
699.643
496.771
462.984
414.782
411.933
388.809
381.118
364.849
361.962
351.997
338.743
320.766
304.254
285.03
269.418
18677.2
4574.1
2751.74
2340.9
1728.81
1335.6
835.277
635.978
474.321
425.079
371.775
350.304
323.689
313.462
297.899
288.057
277.136
271.612
267.824
269.013
5250.49
6058.51
5132.41
3505.29
2285.09
1624.35
930.283
647.548
468.018
405.617
358.455
328.328
302.831
289.226
277.255
272.109
267.574
267.639
268.517
270.186
11758.1
7278.34
5090.74
3189.46
1955.86
1397.41
895.384
697.47
574.39
497.41
429.981
390.914
353.08
337.802
319.863
311.786
300.456
292.641
286.332
280.37
10394.5
6912.25
4752.74
2525.25
1866.58
1219.03
1077.5
812.375
730.767
614.054
538.705
459.611
398.139
363.276
335.185
320.677
301.805
289.052
281.291
277.844
7094.02
9096.77
6585.25
3505
2439.19
1807.69
1430.83
1168.02
1014.74
903.371
766.694
666.52
541.12
461.814
395.538
347.11
309.725
288.807
279.976
281.235
10208.6
6771.98
4262.15
2842.54
2195.44
1740.75
1385.93
1155.3
1039.88
875.5
721.062
639.05
614.387
502.533
363.495
301.138
274.393
267.411
268.288
278.893
2474.52
3776.64
3310.13
3044.2
2494.63
1785.43
1295.62
1074.78
862.404
625.432
407.529
443.216
495.336
438.909
318.716
265.801
245.076
243.662
248.084
265.552
4957.24
5771.34
4408.63
3088.15
2236.12
1659.87
1104.88
851.373
679.996
570.429
484.19
387.648
387.148
345.582
272.378
233.875
230.735
234.171
243.077
261.285
22425.2
11061.6
5628.13
3175.85
2067.02
1586.48
1166.76
976.428
879.488
780.34
584.569
327.195
253.912
237.033
215.69
247.292
260.901
267.896
276.336
283.85
27648.7
8354.34
4785.22
3122.04
2113.33
1684.92
1377.14
1125.5
951.75
785.734
468.708
336.834
300.768
261.864
258.782
300.406
303.034
307.343
315.396
320.154
11445.2
4698.22
3319.98
2749.77
1942.95
1783.62
1410.68
1297.21
960.01
628.525
381.867
350.045
328.022
306.241
330.555
331.008
336.869
349.703
359.835
361.172
14460.2
5317.72
2439.93
1875.89
1605.45
1609.03
1428.71
1037.56
692.405
552.124
481.716
455.929
425.289
408.299
393.764
393.728
400.037
405.663
408.94
403.64
2618.79
4222.62
2463.56
1513.29
1449.9
1160.7
1077.5
830.274
681.265
641.475
611.008
606.926
592.587
574.667
548.836
520.005
500.257
482.666
475.077
452.153
4366.4
4426.84
2637.12
1929.39
1476.44
1293.61
1045.96
943.129
827.854
797.983
754.148
741.906
717.458
696.085
666.492
623.746
578.235
533.498
516.11
481.381
7670.72
4937.47
1907.33
1607.73
1585.65
1388.34
1231.9
1084.51
975.449
933.004
871.906
842.111
800.037
769.703
734.063
683.29
627.438
568.044
539.543
494.654
14776.5
9231.39
4457.81
2481.93
1685.4
1704.52
1634.43
1579.23
1362.02
1231.13
1084.05
979.982
865.836
768.785
697.179
641.521
602.776
554.293
529.577
483.53
6264.36
4445.38
3122.79
1888.09
1120.87
1114.13
1112.1
1160.57
1124.47
1038.39
882.536
738.612
590.618
478.211
410.979
395.014
401.686
406.302
399.76
372.681
551.208
1502.57
1575.4
1583.16
1530.87
1319.26
1067.48
885.581
720.829
605.86
522.153
458.406
397.324
337.866
282.552
228.653
190.669
162.234
145.335
122.366
2022.24
706.186
513.397
968.032
1159.92
1026.27
780.851
619.738
500.6
413.499
350.669
305.769
274.505
249.996
225.551
196.015
166.834
146.357
139.469
142.206
9005.41
4068
2062.83
1972.03
1501.72
1127.11
825.51
735.665
613.154
578.94
511.9
499.012
470.8
465.429
447.699
433.025
417.704
413.18
412.557
410.654
13581.7
6463.43
4688.66
2999.04
2264.7
1597.21
1071.88
822.186
651.096
575.55
509.322
480.285
449.097
438.205
422.548
416.95
410.512
410.561
411.12
413.243
5703.4
9128.66
6516.37
4235.61
2781.66
1850.27
1144.09
822.617
657.789
566.816
509.765
469.025
438.922
422.155
407.96
402.46
397.101
397.339
398.207
400.624
9527.24
8449.71
6202.9
3904.56
2580.66
1756.91
1220.01
924.586
780.96
666.745
594.603
542.544
499.772
475.116
450.554
436.699
421.98
414.397
408.526
405.768
10821
8211.93
5978.6
3457.47
2497.75
1640.55
1430.63
1058.33
942.521
780.912
692.804
612.363
553.406
510.36
474.411
450.336
427.93
415.713
409.143
407.619
1793.29
7414.02
7412.41
4617.27
3127.19
2247.17
1740.23
1386.93
1179.88
1025.87
886.706
786.144
666.224
588.038
516.078
469.043
435.141
420.36
416.32
420.135
9061.61
8702.08
5619.38
3725.97
2873.23
2189.44
1828.77
1501.73
1275.56
1066.98
932.878
857.893
742.976
586.239
455.681
410.8
393.903
394.621
402.564
420.904
8279.49
8350.06
5631.05
4275.06
3006.68
2312.61
1832.93
1441.29
1113.51
842.004
691.116
679.824
638.543
522.756
400.231
356.582
353.236
360.966
379.035
404.721
10065
7911.21
5485.65
4238.88
2978.68
2213.53
1602.29
1210.49
956.872
778.185
609.488
535.123
490.346
419.728
339.563
327.717
334.794
353.484
372.8
394.22
22664.7
10114.7
5801.9
3937.31
2766.38
2206.91
1699.02
1346.98
1119.82
931.274
527.229
345.479
283.576
282.984
286.205
356.375
374.381
388.078
401.064
409.865
17782.3
8721.77
5927.04
3946.16
2804.67
2361.8
1965.39
1534.15
1205.79
909.546
597.454
482.255
401.396
355.237
363.872
419.556
430.915
440.581
447.865
447.943
16759.1
6406.61
4865.24
3402.83
2661.48
2303.28
1952.43
1661.76
1112.77
751.443
568.184
498.003
459.171
435.306
482.623
488.696
499.728
506.019
507.088
497.742
12149.8
7442.13
3811.92
2850.52
2460.84
2121.19
1690.9
1248.26
919.849
776.021
685.582
652.417
618.999
605.672
594.199
589.947
588.639
580.916
572.254
544.954
5994.37
7293.41
4028.68
2325.64
2096.11
1581.27
1454.05
1135.76
958.732
888.324
835.296
819.773
791.599
770.689
744.537
717.781
695.416
665.626
646.12
596.995
6177.77
5895.53
4180.71
2707.76
2174.22
1797.8
1485.89
1292.64
1129.22
1061.94
995.513
969.849
935.775
908.29
869.48
823.505
780.585
731.456
703.809
641.574
11956.3
6438.35
3450.95
2519.66
2428.61
1986.41
1747.32
1511.26
1335.19
1243.2
1143.1
1092.37
1033.36
991.832
944.22
889.462
837.459
773.353
738.01
666.185
9509.34
7529.29
5189.66
3977.06
2971.4
2753.65
2276.39
2072.35
1732.61
1549.69
1335.9
1200.4
1073.47
988.034
928.91
878.12
830.107
761.231
722.066
649.086
10540.7
7325.47
4280.56
3382.17
2227.65
2117.89
1844.8
1723.75
1463.56
1288.58
1064.17
898.146
748.27
655.439
610.232
605.998
607.322
593.517
571.012
520.5
2698.94
2836.21
1992.52
1919.47
1829.79
1543.17
1225.11
1009.74
836.366
707.546
612.807
532.799
453.91
368.583
292.456
234.644
202.167
175.324
161.882
141.697
1724.75
1531.41
1521.67
1696.41
1529.18
1087.32
815.045
640.102
519.289
424.272
355.817
299.259
256.949
218.184
188.029
166.746
155.7
152.388
153.705
162.684
12587.3
6767.12
4054.05
2708.99
1942.69
1357.5
1100.9
918.85
775.62
705.069
623.527
600.775
568.192
562.895
548.364
545.572
543.134
548.211
555.959
563.304
12158.2
8550.03
5934.19
3494.05
2771.57
1734.56
1307.76
964.25
820.14
704.866
646.651
603.233
578.984
564.347
555.507
553.29
553.819
557.792
561.11
568.435
9700.19
10425.8
7465.1
4569
3189.7
1927.32
1347.62
950.326
830.193
699.19
654.3
597.265
573.982
551.612
541.359
535.245
533.216
534.796
537.181
544.131
11469.9
9319.83
7318.84
4369.03
3119.19
1940.99
1488.89
1080.66
964.235
803.473
747.147
672.486
636.673
601.413
579.328
562.291
550.527
545.349
541.893
544.178
14396.9
8553.02
6895.29
4101.74
3048.04
1918.81
1708.89
1221.75
1110.25
896.493
827.927
732.153
684.427
633.508
600.856
574.943
557.499
549.517
545.869
547.783
6003.76
8478.03
8289.04
5143.05
3742.25
2492.26
1965.8
1503.25
1297.79
1083.54
971.839
855.32
756.774
683.935
625.258
589.781
568.593
563.726
564.261
571.579
13349.7
9758.89
6767.95
4243.02
3452.26
2457.93
2049.79
1657.49
1366.98
1167.29
1022.5
916.858
770.007
640.825
554.037
535.139
534.243
544.72
560.836
579.176
13287.9
13137.7
7844.64
4888.91
3384.53
2598.06
2129.56
1582.71
1217.74
979.572
865.022
798.596
684.837
568.386
481.515
480.988
490.235
515.112
539.223
565.332
19664.8
13489.7
7167.89
4970.53
3471.02
2488.21
1869.15
1395.14
1087.83
869.432
701.34
611.114
535.381
470.612
427.751
461.22
477.38
505.349
526.28
547.361
23666.6
9785.28
6444.96
4282.75
3327.09
2549.88
1967.68
1506.19
1193.92
931.719
585.948
424.134
368.392
366.526
410.769
492.909
511.89
529.325
541.817
550.748
21794.5
9080.92
6442.29
4097.94
3377.84
2761.72
2264.49
1687.23
1239.09
891.937
673.104
556.544
477.704
452.438
482.127
555.836
572.87
583.193
586.681
583.437
15320.9
9942.29
5807.78
3778.73
3370.39
2656.36
2212.94
1688.28
1136.68
830.739
693.796
615.743
580.655
563.927
640.361
651.075
660.81
660.06
653.646
631.329
12478.6
7256.76
4850.6
3457.9
3211.36
2393.54
1932.05
1390.81
1109.56
944.918
863.999
825.711
799.202
788.417
779.385
770.5
763.839
742.421
723.148
678.442
13588.2
8236.02
4600.06
3036.84
2674.42
1922.25
1788.82
1353.68
1196.47
1079.92
1030.2
999.523
972.647
948.229
924.051
895.768
871.5
829.099
797.125
727.596
20066.5
9007.37
5215.61
3310.72
2880.21
2180.05
1900.19
1567.83
1402.9
1280.15
1213.7
1166.47
1132.17
1095.82
1056.64
1007.47
965.611
906.897
865.991
778.773
20954
11604.4
4895.57
3345.08
3159.14
2351.17
2190.23
1792.14
1628.86
1467.39
1368.58
1297.88
1244.68
1194.85
1145.68
1080.96
1028.5
956.199
909.85
814.532
7184.52
9845.96
7341.43
5254.06
4098.15
3431.67
2823.95
2427.85
2046.6
1769.95
1544.27
1401.36
1296.19
1225.06
1169.92
1098.95
1034.35
948.441
896.164
803.583
11907.1
7557.56
5953.16
4196.11
3231.12
2766.02
2344.38
2067.39
1705.55
1441.42
1201.28
1053.88
940.771
881.748
855.766
834.845
812.735
759.522
725.467
661.702
6027.64
3592.68
2794.88
2507.68
2000.79
1525.89
1204.19
975.247
805.908
673.15
572.194
475.582
389.107
311.986
259.983
222.528
199.793
176.745
164.686
145.079
862.667
1343.89
1926.74
2033.61
1576.83
1027.56
746.006
567.658
448.525
349.691
272.036
215.064
180.949
163.069
155.275
152.705
152.627
153.536
158.868
161.299
8413.29
7864.65
6284.3
3368.29
2811.31
1534.66
1586.05
1081.44
1094.08
865.814
848.694
742.667
750.333
713.73
726.805
718.174
734.031
747.385
761.519
787.566
11036.9
9879.23
7126.52
4244.36
3635.13
1891.9
1769.66
1126.65
1120.91
874.434
880.572
774.605
788.34
743.489
757.745
744.491
758.934
763.115
771.071
790.347
14164.4
12429.7
9481.1
4981.43
4032.07
2059.79
1774.94
1101.68
1112.72
867.746
880.883
768.674
779.582
730.382
738.954
722.268
730.813
731.736
736.062
752.842
31049.9
12003.3
8954.19
5033.86
3966.52
2155.22
1928.29
1264.41
1248.59
981.418
976.849
842.676
840.831
775.093
772.896
743.97
744.694
738.648
738.737
748.747
30656.4
10093
8020.5
4838.91
3798.72
2259.72
2137.4
1409.02
1357.29
1046.29
1027.13
886.046
870.439
799.04
784.804
753.544
749.782
743.49
741.171
750.271
11743.1
10111.1
9849.11
5508.36
4662.67
2720.09
2369.1
1695.09
1529.41
1189.61
1150.61
973.533
928.633
832.781
803.97
772.714
771.394
770.466
772.822
785.266
32900.6
13668.6
7819.56
5074.4
4282.34
2752.4
2279.45
1781.66
1524.04
1283.75
1160.28
998.209
883.04
773.044
743.145
741.823
747.88
766.589
777.873
798.537
22034.6
13650.5
8959.58
5136.99
3956.83
2822.81
2437.91
1707.36
1372.28
1158.93
1038.45
907.199
792.626
706.267
683.529
699.562
712.213
740.991
762.969
788.715
29318.3
16353.6
9650.67
5089.82
4091.82
2632.68
2123.62
1596.54
1255.21
981.635
803.679
684.747
657.352
649.197
655.324
684.963
696.463
723.223
741.096
763.443
25943.3
11684.3
7845.1
4599.59
4119.54
2803.71
2210.13
1673.81
1294.54
948.518
718.379
555.471
541.732
607.515
661.291
711.853
721.209
736.826
744.465
755.22
21144.4
10942.9
6801.7
4588.52
4078.37
3018.68
2604.88
1806.03
1288.96
941.247
770.599
671.17
664.863
679.104
719.191
771.968
782.717
786.01
784.197
777.897
22410.9
13568.6
7638.5
4321.77
4506.48
3096.96
2471.95
1687.52
1263.24
974.017
894.223
811.918
800.891
787.155
872.206
876.554
877.093
866.367
848.295
819.719
14370.1
9455.19
5911.59
4118.89
4209.25
2655.53
2432.11
1626.83
1419.17
1146.9
1128.84
1047.03
1047.39
1021.4
1017.89
998.923
987.53
950.077
919.028
864.484
18854.7
9319.31
5893.86
3890.66
3490.82
2383.64
2307.84
1551.69
1523.43
1278.97
1291.81
1215.57
1210.15
1168.03
1151.41
1115.06
1089.57
1031.6
985.413
905.807
29228.3
13596.3
7397.38
4048.42
3903.34
2525.13
2511.73
1849.37
1808.69
1534.28
1524.44
1408.76
1395.92
1327.68
1300.64
1236.19
1196.02
1117.41
1060.83
957.531
48038.5
20137.8
6842.83
4390.63
3926.88
2615.08
2769.46
1979.48
2026.43
1679.8
1672.43
1525.99
1509.85
1425.26
1388.51
1306.06
1258.94
1170.41
1112.23
999.595
28084.5
13894.4
9637.43
5258.89
5223.73
3750.83
3560.1
2713.96
2498.37
1989.94
1873.85
1651.43
1602.02
1496.87
1448.53
1341.42
1273.92
1169.63
1108.36
1001.94
14523
10642.3
7572.62
4390.58
4273.8
2922.89
2932.43
2274.08
2064.86
1568.67
1447.63
1266.18
1237.07
1177.56
1157.11
1090.84
1043.09
958.174
918.851
851.879
2713.39
3658.64
3445.14
2518.92
1745.18
1291.95
1014.16
785.08
619.959
481.506
383.853
310.699
267.635
236.619
213.267
188.509
169.425
149.792
139.403
129.036
651.458
900.949
609.558
851.523
717.778
920.895
607.869
541.811
524.072
379.518
680.278
611.824
517.076
388.387
614.221
928.455
684.124
939.093
583.496
916.098
711.199
387.144
617.901
509.981
497.857
381.558
668.26
565.894
193.444
270.644
162.997
967.804
919.733
933.183
835.757
170.755
153.869
127.175
903.241
798.561
804.429
662.382
121.698
114.307
80.5666
751.098
594.747
607.679
480.344
47.5227
78.1025
93.8946
542.239
338.954
454.82
415.786
56.7469
97.4104
79.3275
323.644
347.332
398.626
348.66
104.528
75.3227
84.3762
372.099
432.882
348.314
368.97
104.078
90.2692
91.5708
438.326
417.163
368.726
343.865
64.9679
88.369
62.1952
395.462
327.857
330.15
282.654
139.353
197.029
116.212
858.79
747.02
842.564
747.627
101.252
115.52
134.171
711.741
601.464
729.18
705.07
88.8319
139.917
148.02
570.586
496.397
695.875
663.16
115.722
152.226
155.564
486.988
462.414
651.296
588.674
80.3625
150.676
75.7491
437.411
343.053
535.352
319.769
74.999
61.0586
54.1359
334.44
342.902
285.971
247.368
85.7547
56.0592
65.2096
343.221
325.079
245.357
245.413
61.2579
65.4809
51.6099
313.096
274.44
243.509
225.406
145.241
248.846
190.728
923.589
846.545
1076.68
1006.9
167.146
191.9
199.529
828.918
789.406
968.39
880.937
171.36
200.138
194.924
774.511
722.371
856.185
772.379
165.704
189.235
162.754
702.943
617.811
735.88
583.231
71.8982
136.517
54.7595
552.468
313.764
472.13
287.23
52.1842
52.765
58.0237
281.505
235.4
281.45
262.002
58.3738
58.1105
54.3749
227.986
218.613
252.544
223.685
49.1058
52.914
42.3417
216.57
207.688
215.53
201.663
178.289
304.345
178.736
1105.3
1005.72
1161.07
1081.96
182.047
166.264
142.012
961.165
861.173
1043.12
882.634
182.644
139.237
127.539
835.085
747.772
825.47
667.011
144.867
121.403
78.0354
708.461
526.466
607.913
386.017
51.8953
61.2767
48.203
418.804
283.092
321.272
279.813
61.5539
52.2307
63.1752
281.8
271.768
282.106
280.192
58.4626
63.9538
61.8459
264.654
238.884
275.804
260.023
42.1764
60.481
46.5684
230.897
210.872
254.364
245.821
1116.1
1200.51
996.081
1725.19
1463.29
1607.29
1302.87
920.93
948.117
771.716
1379.07
1147.57
1222.05
989.657
684.026
711.866
572.636
1071.79
861.025
923.446
764.312
426.51
541.548
476.623
800.51
651.583
721.856
610.649
420.856
452.704
404.78
633.092
625.547
580.273
538.739
493.375
405.276
418.023
632.964
631.967
537.612
519.06
462.982
414.681
379.57
616.67
541.006
503.381
447.441
356.945
364.098
306.193
509.377
425.351
427.839
365.474
899.62
1089.99
910.458
1504.75
1215.5
1513.21
1256.79
718.085
879.558
821.966
1142.87
958.914
1197.83
1059.6
587.241
803.893
749.093
906.471
775.971
1019.71
905.946
516.982
730.574
634.496
741.476
625.884
874.26
654.671
394.492
568.672
363.072
583.874
511.498
569.246
398.76
389.899
328.844
278.684
506.067
485.642
365.306
318.358
359.172
274.356
270.646
472.383
424.071
317.522
316.041
298.408
267.634
242.664
406.596
353.659
311.899
284.523
1008.15
1320.72
1172.88
1594.51
1344.03
1776.6
1513.66
903.014
1119.88
998.205
1280.44
1125.73
1428.81
1223.32
806.237
963.877
854.22
1080.85
950.481
1163.64
984.768
661.971
809.983
622.624
911.934
672.993
919.168
674.269
361.993
512.996
349.399
584.58
410.543
595.986
481.584
264.71
337.307
300.378
369.058
291.736
454.723
382.179
239.603
287.427
252.963
281.359
273.284
362.412
318.764
222.494
243.952
224.898
272.364
263.154
309.738
298.22
1184.3
1484.27
1296.57
1856.06
1551.52
1963.87
1707.94
989.041
1243.1
1037.85
1462.06
1235.93
1619.95
1299.23
833.616
961.451
762.538
1169.14
971.513
1182.6
906.951
571.726
694.218
449.925
900.043
642.095
817.542
570.162
343.849
386.829
338.036
571.073
476.417
526.639
466.627
310.937
335.024
321.337
455.131
396.876
452.847
417.829
270.443
315.096
295.927
380.761
342.85
407.799
383.336
237.01
290.226
277.071
334.194
316.178
377.84
368.73
1535.74
1704.32
1369.84
2063.26
1673.71
1912.43
1515.22
1193.91
1281.41
1038.21
1557.12
1283.13
1409.23
1141.54
899.783
970.587
806.932
1197.15
992.28
1070.58
897.5
709.31
762.125
645.099
947.469
849.733
849.127
731.256
677.125
614.916
573.873
829.462
788.808
703.501
651.961
660.315
570.276
540.269
777.389
707.481
638.329
581.092
554.007
522.025
461.78
675.742
583.52
559.064
496.317
439.448
441.543
378.394
555.069
485.408
477.107
423.445
1288.97
1616.73
1335.68
1811.82
1451.15
1831.22
1498.88
1012.79
1269.22
1109.65
1357.77
1125.4
1413.45
1202.65
816.974
1063.94
933.264
1061.53
899.092
1142.81
971.647
791.256
739.398
810.879
807.677
770.201
765.692
835.698
557.119
575.996
593.068
633.804
541.845
602.337
604.825
506.054
347.019
322.497
597.131
544.837
376.376
376.11
437.798
325.892
326.863
525.51
471.338
375.025
366.302
365.794
322.578
295.111
454.582
410.394
362.795
350.121
1419.01
1888.34
1589.1
1913.34
1570.1
2119.96
1738.53
1170.6
1495.6
1265.79
1477.6
1248.55
1620.77
1324.89
973.008
1198.63
999.811
1183.28
993.857
1239.04
996.128
870.249
844.818
941.533
931.92
874.017
748.789
947.363
575.986
472.282
627.569
421.137
567.521
378.01
628.958
287.977
480.504
402.133
367.048
344.928
533.77
452.578
283.124
381.429
337.724
340.888
336.895
433.094
400.011
275.897
329.386
319.558
337.424
340.478
396.28
398.767
1632.49
2073.24
1793
2198.6
1789.89
2310.35
1931.06
1281.15
1691.8
1335.52
1664.17
1337.29
1787.66
1351.57
986.799
1209.91
922.839
1241.81
981.707
1218.43
930.306
656.822
831.367
601.657
898.223
696.745
846.905
679.686
506.337
562.568
498.449
657.89
568.118
647.549
575.795
418.413
482.937
444.392
540.8
473.016
558.379
517.82
363.301
433.765
408.901
456.86
427.213
507.44
486.076
338.383
403.972
394.328
422.97
416.93
483.089
478.82
1705.38
1970.2
1552.9
2340.33
1798.79
2152.62
1685.17
1304.04
1442.17
1168.19
1660.95
1386.29
1561.52
1273.5
1020.86
1096.61
921.334
1310.21
1135.88
1201.29
1013.55
887.336
872.394
756.128
1096.77
1004.89
960.275
839.025
814.61
728.521
670.491
978.004
893.719
808.112
727.105
717.455
653.626
591.243
863.909
771.363
703.605
649.438
595.152
569.637
510.438
743.134
670.066
637.023
604.011
503.186
492.767
443.491
648.916
603.95
593.612
564.97
1492.9
1886.41
1537.12
2043.65
1633.01
2049.27
1662.07
1153.55
1446.46
1222.37
1523.37
1260.72
1558.72
1302.08
918.985
1158.51
973.547
1189.71
993.658
1224.32
994.742
737.437
917.822
668.346
936.554
802.387
924.709
744.73
628.841
590.536
450.759
766.618
677.465
689.223
555.932
554.152
429.899
401.19
653.761
607.363
525.942
484.758
485.612
396.011
387.36
600.502
583.234
487.681
516.701
430.778
385.726
378.253
576.421
556.121
523.349
529.986
1604.38
2182.58
1771.33
2131.39
1719.32
2390.92
1880.73
1263.36
1645.33
1329.93
1607.32
1329.42
1728.03
1361.45
990.756
1239.51
987.91
1245.69
999.949
1261.06
989.464
658.659
908.275
719.901
926.38
740.644
913.845
758.997
450.901
680.29
578.986
687.791
556.597
723.394
626.85
375.94
547.279
469.725
522.776
472.864
599.895
557.255
364.295
452.441
427.879
475.426
509.679
557.416
570.591
371.898
426.511
430.504
519.04
531.741
574.679
581.293
1822.92
2377.75
1950.53
2492.44
1925.96
2609.13
1977.75
1338.66
1792.7
1341.99
1756.38
1355.12
1782.34
1337.15
973.505
1211.41
931.582
1250.16
980.009
1224.96
970.439
709.082
853.834
703.415
906.611
761.834
907.684
798.231
583.607
672.408
600.151
729.553
645.263
772.642
706.27
491.949
583.253
544.464
623.227
590.419
691.337
665.503
454.864
534.862
516.209
589.645
594.313
660.398
651.551
447.725
514.124
509.762
595.803
594.912
650.557
648.483
1849.49
2239.46
1759.46
2774.52
2096.13
2563.53
2071.17
1441.54
1631.95
1341.5
1932.23
1725.48
1937.04
1655.64
1201.49
1269.22
1071.33
1664.57
1496.84
1585.31
1362.35
1065.99
1014.3
886.285
1426.01
1365.97
1298.37
1166.53
941.274
853.218
763.879
1334.21
1211.12
1131.09
1031.57
817.85
740.078
700.457
1164.54
1110.88
1015.47
1035.42
725.355
693.951
671.504
1091.67
1035.53
1040.62
1031.56
664.912
663.412
636.689
1019.55
1004.3
1028.45
1008.13
1709.08
2124.93
1733.49
2402.87
2026.45
2415.82
2040.73
1328.96
1627.65
1361.48
1910.13
1644.13
1932.34
1655.03
1043.24
1276.97
1024.12
1563.84
1321.07
1555.69
1263.8
840.82
949.23
773.029
1252.36
1105.37
1180.77
1009.67
708.232
720.41
587.51
1066.56
964.457
962.133
832.958
655.535
558.189
535.575
950.71
993.16
819.192
891.695
653.668
550.205
600.673
1015.71
1024.37
943.702
1005.17
629.049
608.544
610.187
1023.57
1006.91
1009.08
990.54
1788.84
2494.54
1946.84
2484.86
2090.45
2836.59
2217.04
1385.09
1785.6
1406
1971.26
1669.34
2042.48
1661.15
1026.45
1302.37
1019.33
1563.9
1259.09
1552.95
1253.93
768.752
943
791.17
1174.1
1003.2
1179.65
1043.56
587.595
755.915
662.055
958.506
834.926
1014.13
938.181
527.305
638.831
620.275
820.063
891.432
933.035
996.479
597.574
630.184
655.687
943.363
1007.04
1025.56
1048.77
613.283
660.137
660.332
1012.08
1001.14
1050.49
1034.02
1986.46
2718.2
1998.21
2944.58
2228.86
3057.2
2112.56
1393.85
1794.6
1368.82
2034.07
1633.74
1920.01
1571.17
1013.64
1264.17
1013.28
1534.09
1251.92
1496.78
1239.07
801.984
954.356
857.679
1184.79
1070.1
1199.45
1148.24
689.68
835.279
770.728
1046.94
986.25
1146.98
1080.2
658.964
756.585
736.758
983.888
1038.37
1073.48
1074.66
677.305
733.772
727.008
1052.66
1062.11
1081.31
1067.62
673.529
726.115
721.407
1062.7
1053.32
1070.41
1055.84
732.988
696.803
654.145
674.757
717.228
720.998
666.161
818.584
853.333
828.861
912.742
806.062
873.981
771.276
718.647
632.354
719.502
465.25
727.768
601.24
594.084
807.121
831.55
806.193
867.936
787.496
854.111
819.533
748.454
696.884
761.452
702.404
742.27
682.802
763.504
825.857
916.424
893.227
834.409
886.236
765.419
834.355
725.857
460.827
659.317
725.03
611.598
590.168
752.392
526.74
554.35
489.57
568.615
508.147
581.748
510.935
441.605
548.149
452.953
388.417
478.849
508.705
328.221
399.5
406.43
404.671
317.715
433.376
395.559
308.679
580.574
657.616
651.042
648.122
627.662
624.334
606.98
551.279
591.884
629.18
556.703
606.828
533.673
577.514
463.714
376.442
580.845
454.836
523.606
315.272
524.42
420.465
304.787
465.975
414.048
418.133
296.869
484.21
780.994
724.182
704.121
489.562
790.636
592.676
697.075
867.535
940.678
851.076
928.997
869.831
942.457
848.794
787.387
707.399
766.91
693.336
789.94
710.949
767.091
863.58
932.123
831.199
938.819
742.025
945.633
859.338
773.935
472.935
701.338
703.294
579.529
695.082
775.888
861.353
923.876
930.342
838.111
938.099
843.627
854.423
784.154
702.408
720.296
768.02
715.197
767.099
782.303
531.62
421.765
477.052
325.594
521.018
352.243
484.827
601.394
635.185
573.685
637.441
581.858
648.277
598.234
562.378
505.214
540.567
532.656
541.883
524.439
564.767
584.051
403.65
441.435
645.508
359.859
633.059
597.452
539.633
309.792
395.733
507.95
331.795
492.583
551.798
617.398
654.29
670.978
632.958
660.315
617.673
630.134
578.688
550.917
552.629
599.099
539.819
583.874
591.378
340.287
409.248
322.64
780.526
826.734
743.079
774.724
321.694
289.707
282.46
802.59
753.963
766.224
757.767
288.467
276.917
262.402
743.031
722.149
736.365
685.913
242.428
233.557
175.959
680.748
610.076
584.459
427.129
166.229
124.845
114.522
528.412
445.818
315.386
301.545
144.895
117.14
130.703
427.456
428.559
315.658
368.066
141.789
149.684
152.275
434.791
430.159
421.717
434.482
90.1869
146.51
111.381
388.882
333.914
420.206
359.721
488.848
578.124
427.084
1033.03
895.585
1061.95
905.653
431.183
265.036
322.335
464.234
429.249
459.45
254.882
442.888
175.893
172.906
407.365
421.34
429.974
169.777
358.345
149.368
148.045
406.496
381.437
400.006
132.892
187.496
87.344
92.3673
295.58
226.425
237.256
75.2844
179.188
46.4791
61.2294
130.026
143.917
162.127
68.2042
220.468
81.5451
74.7743
211.809
239.952
201.86
80.5811
267.732
108.055
106.686
282.727
282.744
267.001
107.201
228.759
89.2094
96.2227
248.142
234.378
240.42
88.4864
88.2881
115.16
76.9407
241.245
226.49
230.103
219.137
355.746
464.688
339.629
937.541
842.835
898.53
817.655
304.799
182.221
208.549
352.913
340.137
326.636
156.84
270.543
119.919
98.8657
331.681
318.598
270.13
95.0431
292.6
90.5377
99.2876
273.024
263.088
290.673
100.834
328.227
98.633
115.719
261.71
274.635
315.24
125.79
296.416
112.524
132.512
289.586
271.907
326.98
124.629
176.393
70.1309
68.6888
191.877
191.009
179.851
65.182
196.996
85.1257
72.9911
213.034
216.186
192.14
77.1451
188.033
79.8194
78.2494
206.501
199.25
193.614
75.8712
76.659
100.585
70.555
213.676
209.936
194.025
185.895
363.042
445.217
391.857
878.099
872.008
905.48
953.726
412.092
170.113
223.384
374.677
382.447
387.572
178.954
508.68
153.051
176.145
428.27
442.774
497.274
182.589
506.911
171.904
192.521
462.741
461.632
512.445
192.083
465.283
170.633
185.641
447.202
441.226
478.276
182.395
294.594
134.382
157.572
391.197
322.856
389.77
125.346
134.671
53.4002
55.8485
141.549
136.069
136.202
52.6095
134.011
54.6416
52.4025
135.799
138.673
134.286
52.8719
130.423
58.9449
54.2397
142.375
141.706
131.742
54.1951
64.8885
82.452
62.4281
168.155
169.993
169.771
181.799
389.288
438.325
418.964
916.805
999.062
975.091
1058.11
469.64
206.92
252.387
447.502
474.228
452.678
207.144
465.076
177.843
160.266
503.775
502.176
471.644
157.074
451.511
184.808
160.71
496.525
492.421
454.642
162.847
389.898
168.959
156.171
455.028
433.743
413.481
149.36
144.866
76.9884
88.0727
249.523
165.831
201.458
63.9702
157.155
55.2904
51.5983
137.889
151.178
141.394
57.5875
166.409
61.7713
65.3379
160.605
158.286
167.93
65.2114
146.793
53.718
60.1809
141.391
136.844
150.746
57.6131
64.3992
94.8678
74.5733
191.229
203.35
210.432
224.811
337.466
417.792
343.615
747.267
827.424
767.533
898.715
281.522
318.074
291.797
842.696
814.104
890.624
808.041
226.911
255.844
198.314
726.019
614.969
683.727
536.192
122.277
136.69
98.3604
462.892
295.311
362.896
263.994
85.7614
84.2695
80.4342
233.542
232.967
238.967
237.304
90.2011
82.3714
83.56
239.302
241.471
238.627