/*--------------------------------*- C++ -*----------------------------------*\
  =========                 |
  \\      /  F ield         | OpenFOAM: The Open Source CFD Toolbox
   \\    /   O peration     | Website:  https://openfoam.org
    \\  /    A nd           | Version:  10
     \\/     M anipulation  |
\*---------------------------------------------------------------------------*/
FoamFile
{
    format      ascii;
    class       volScalarField;
    location    "5.6";
    object      k_0;
}
// * * * * * * * * * * * * * * * * * * * * * * * * * * * * * * * * * * * * * //

dimensions      [0 2 -2 0 0 0 0];

internalField   nonuniform List<scalar> 
12920
(
49.8845
198.151
301.629
327.869
305.252
267.417
233.127
203.843
162.939
138.133
119.966
110.465
101.554
98.1325
96.1229
91.6702
83.1477
70.8275
61.978
50.4719
629.955
319.416
295.902
365.951
320.862
256.142
212.86
189.649
164.89
155.826
147.734
146.97
144.597
143.342
139.537
131.819
119.08
103.126
90.1485
84.5343
4923.17
2504.79
1125.09
871.428
717.053
564.231
387.738
273.249
197.098
164.508
140.987
130.819
119.438
112.959
104.979
99.0398
94.0708
90.4506
88.5908
88.8188
1393.04
2047.41
1658.14
1211.87
929.898
712.537
444.976
281.085
193.176
153.781
132.825
119.154
108.795
101.878
96.7786
93.819
92.2272
91.3934
91.3689
91.3553
4195.96
3108.24
2162.99
1248.23
814.261
572.554
380.456
277.11
221.247
184.947
159.971
142.982
129.509
121.04
113.811
109.086
104.912
100.859
98.1425
94.884
2658.03
2839.16
1952.04
998.87
725.766
476.283
413.424
307.481
279.89
232.1
202.194
168.859
146.907
131.037
120.65
113.136
105.702
99.5286
95.7578
93.5929
2889.99
4735.21
2967.54
1470.16
1032.06
747.51
604.013
469.124
425.661
373.367
316.341
262.46
216.536
177.764
147.705
126.284
110.182
100.057
94.9278
93.9707
2050.05
2709.46
1754.97
1153.02
870.627
731.267
440.191
321.95
312.047
266.482
208.226
148.047
145.199
131.704
158.289
121.099
104.261
98.308
94.673
93.7524
1430.94
1331.51
1317.12
1294.46
1127.97
586.224
344.482
182.584
163.883
110.735
44.6023
67.7704
107.946
96.2663
113.264
119.13
102.173
93.0164
87.8747
88.483
1468.23
2910.58
1928.87
1279.81
937.825
478.626
229.638
130.253
95.5665
91.1413
116.402
72.1506
82.0728
84.1211
109.639
109.101
95.1008
87.3841
85.687
87.3581
6047.04
4786.21
3771.99
1717.45
915.616
451.16
217.74
147.917
171.05
171.462
157.084
58.2099
52.9589
59.1426
87.2617
106.022
102.754
99.5781
99.7127
100.049
16253.1
8275.55
2468.46
1224.93
841.81
435.504
252.163
177.402
184.596
177.664
109.451
52.3038
62.1627
55.9903
87.3111
128.147
119.131
113.001
112.993
113.258
5764.38
2835
1538.11
1060.14
760.216
679.03
415.801
300.493
254.809
178.042
91.315
87.6565
90.4555
86.6896
131.072
122.671
120.611
121.46
124.881
126.067
3141.66
1624.72
1230.81
874.494
691.33
621.667
561.33
415.597
282.887
207.811
174.527
162.907
149.891
142.984
136.535
135.094
135.878
137.231
139.496
139.108
3317.37
1510.18
861.399
619.314
572.854
460.331
403.611
314.495
249.415
229.04
216.085
216.118
213.582
205.356
191.217
178.69
169.865
162.188
159.295
152.496
2925.77
1776.89
1130.2
792.083
575.748
481.443
391.133
349.476
305.369
298.032
286.578
283.372
275.189
264.101
245.032
220.152
199.386
179.911
172.68
158.923
2958.07
2572.62
1335.85
613.87
523.955
471.015
425.99
389.866
352.773
341.363
326.455
320.467
307.758
294.962
269.281
236.3
212.641
189.356
180.074
163.11
1358.29
2310.18
1715.48
1002.74
648.24
569.744
556.541
538.498
477.898
427.988
383.355
356.59
322.917
279.612
237.902
207.823
194.544
179.955
173.472
159.173
2077.24
1674.29
1212.35
677.42
468.64
437.369
434.799
437.265
430.054
409.149
363.909
308.766
240.835
187.904
155.166
135.031
125.986
122.946
120.045
111.179
996.204
993.95
919.896
806.328
668.513
579.603
469.188
377.054
311.467
278.998
250.767
222.972
196.233
167.229
136.562
112.876
96.1269
81.6742
73.8713
56.5432
517.293
194.013
279.465
707.727
785.534
727.917
607.122
506.628
407.423
338.493
289.784
261.311
241.87
231.651
220.569
203.929
175.466
144.259
122.808
115.856
6828.56
2018.96
951.365
1124.02
928.313
698.253
497.149
463.773
415.558
412.543
389.144
381.412
365.111
362.172
352.071
338.681
320.653
304.119
284.93
269.413
18545.1
4559.03
2781.12
2355.22
1735.63
1337.85
835.239
635.736
474.414
425.239
371.94
350.461
323.829
313.586
297.98
288.121
277.203
271.694
267.952
269.174
5300.31
6158.64
5176.35
3507.62
2281.55
1622.34
928.202
646.635
467.974
405.707
358.634
328.47
302.973
289.366
277.395
272.252
267.731
267.799
268.68
270.342
11415.2
7353.99
5112.21
3187.9
1954.25
1394.92
895.177
697.635
574.792
497.684
430.144
391.087
353.278
338.014
320.063
311.958
300.61
292.774
286.449
280.493
10189.2
6969.06
4766.95
2529
1868.71
1219.61
1078.9
813.312
731.609
614.527
538.748
459.496
398.106
363.357
335.311
320.787
301.89
289.137
281.392
277.977
7420.38
9225.39
6580.68
3500.06
2443.29
1811.56
1432.76
1169.96
1016.12
904.457
767.209
666.295
540.575
461.449
395.352
346.998
309.68
288.83
280.067
281.387
9829.38
6674.14
4247.63
2855.03
2197.17
1743.05
1387.62
1156.79
1041.62
876.422
721.854
640.462
614.763
501.191
362.966
301.014
274.438
267.543
268.451
279.076
2334.11
3810.96
3305.93
3060.24
2503.18
1787.37
1297.03
1075.92
862.234
624.25
407.81
444.861
496.063
438.508
318.193
265.747
245.132
243.773
248.22
265.705
5235.9
5852.3
4436.23
3098.96
2239.45
1661.17
1103.9
851.302
679.858
570.673
483.395
388.377
387.66
345.603
272.09
233.889
230.822
234.267
243.206
261.402
21577.8
11284.6
5672.32
3178.8
2071.12
1588.76
1168.17
978.016
880.856
781.066
582.268
326.679
254.147
237.296
215.667
247.608
261.132
268.064
276.477
283.964
28711.5
8401.89
4837.62
3130.84
2118.86
1687.46
1377.71
1125.6
952.418
785.387
465.663
337.197
300.889
261.986
258.99
300.722
303.301
307.57
315.591
320.308
11302.5
4594.59
3344.39
2757.93
1944.93
1787.07
1412.79
1299.05
958.78
625.775
381.922
350.421
328.276
306.484
330.871
331.342
337.211
350.029
360.086
361.357
14515.8
5205.83
2438.09
1880.64
1611.18
1613.33
1429.96
1036.37
691.499
552.151
481.997
456.2
425.465
408.486
394.04
394.036
400.389
405.964
409.172
403.802
2866.88
4219.53
2417.06
1513.87
1454.47
1162.17
1078.43
830.208
681.675
642.232
611.787
607.615
593.127
575.016
548.991
520.137
500.417
482.865
475.244
452.22
4386.12
4449.09
2628.02
1932.41
1479.06
1294.54
1046.98
943.917
828.765
798.979
755.099
742.786
718.191
696.579
666.703
623.699
578.069
533.466
516.116
481.398
7876.14
4932.73
1909.26
1607.8
1588.53
1389.01
1232.59
1085.32
976.561
934.07
872.839
842.893
800.676
770.241
734.246
683.195
627.196
567.827
539.448
494.644
15576.8
9120.66
4424.38
2456.13
1684.09
1707.58
1636.97
1579.73
1360.33
1230.45
1083.64
979.535
865.124
768.151
696.868
641.376
602.657
554.123
529.468
483.497
6032.53
4386.01
3130.24
1875.89
1118.58
1116.52
1116.16
1164.24
1126.8
1038.78
881.922
737.238
589
476.966
410.466
395.161
402.044
406.434
399.75
372.514
564.638
1496.03
1580.09
1591.29
1536.84
1318.39
1067.35
885.464
720.763
606.061
522.543
458.74
397.356
337.579
282.019
228.14
190.359
162.063
145.187
122.302
1860.17
647.704
502.966
984.816
1166.01
1026.36
780.583
619.797
500.684
413.604
350.809
305.95
274.716
250.164
225.58
195.898
166.692
146.335
139.586
142.388
8972.98
3929.67
2055.17
1972.22
1501.06
1124.99
825.77
736.046
613.553
579.209
512.116
499.232
471.005
465.566
447.703
432.956
417.727
413.308
412.709
410.792
13696.7
6460.81
4702.55
3008.12
2269.2
1598.24
1071.8
822.044
651.248
575.71
509.52
480.478
449.284
438.385
422.712
417.125
410.713
410.767
411.332
413.451
6110.09
9274.38
6477.32
4225.59
2776.37
1847.43
1142.51
822.096
657.991
567.012
510.026
469.25
439.139
422.366
408.171
402.673
397.322
397.553
398.42
400.829
10009.9
8467.65
6214.99
3902.65
2580.78
1755.43
1220.31
925.006
781.447
667.162
594.932
542.842
500.043
475.359
450.768
436.891
422.164
414.57
408.699
405.948
10737.1
8272.61
6009.39
3465.15
2500.34
1641.53
1431.85
1059.22
943.342
781.422
693.035
612.537
553.576
510.505
474.545
450.448
428.044
415.846
409.304
407.799
1751.19
7482.2
7451.52
4609.88
3130.81
2251.21
1742.14
1388.74
1181
1026.8
887.158
786.072
665.968
587.841
515.954
468.994
435.17
420.468
416.492
420.345
8166.8
8763.62
5612.77
3738.89
2873.34
2191.76
1830.1
1503.24
1277.19
1068.08
934.196
858.77
742.49
585.472
455.408
410.769
394.03
394.806
402.823
421.139
7976.27
8465.73
5634.77
4296.75
3012.36
2314.31
1834.22
1441.96
1113.76
841.692
692.034
681.213
638.634
522.258
399.935
356.639
353.376
361.141
379.262
404.915
9707.35
7944.37
5517.9
4259.33
2985.31
2215.66
1601.24
1210.67
956.861
778.043
609.402
536.12
490.595
419.656
339.41
327.815
334.931
353.655
372.968
394.374
22487.8
10296.3
5831.17
3946.51
2770.2
2209.45
1700.76
1348.31
1120.79
931.102
526.702
344.837
283.622
283.068
286.378
356.699
374.584
388.245
401.212
409.996
18691.5
8837.02
5968.45
3958.65
2810.42
2363.66
1965.51
1534.19
1205.88
908.435
596.872
482.291
401.506
355.48
364.269
419.912
431.182
440.803
448.04
448.09
16538.8
6395.45
4880.81
3408
2664.77
2306.02
1953.64
1663.56
1111.33
750.293
568.428
498.328
459.502
435.692
483.066
489.11
500.1
506.31
507.316
497.886
12183.7
7447.48
3813.19
2861.8
2467.65
2124.29
1691.3
1247.74
919.642
776.324
685.989
652.845
619.402
606.092
594.649
590.362
589.002
581.169
572.437
545.012
6153.23
7357.44
3958.02
2322.83
2100.04
1582.14
1455.14
1135.97
959.386
889.141
836.112
820.515
792.216
771.184
744.926
718.098
695.655
665.791
646.214
596.928
5632.34
5906.54
4175.2
2709.92
2176.88
1799.05
1486.79
1293.18
1129.96
1062.74
996.352
970.665
936.492
908.781
869.765
823.616
780.578
731.451
703.77
641.418
12167.9
6420.64
3451.25
2523.61
2430.56
1985.81
1747.63
1511.65
1335.89
1243.84
1143.71
1092.9
1033.85
992.27
944.489
889.548
837.376
773.225
737.883
666.016
9392.16
7490.12
5181.54
3972.14
2971.93
2752.37
2274.92
2070.8
1731.3
1548.81
1335.05
1199.62
1072.83
987.813
928.978
878.177
829.968
760.975
721.837
648.89
10235.7
7358.05
4274.65
3372.8
2228.15
2120
1847.8
1725.12
1463.66
1287.95
1062.84
896.552
746.839
654.624
610.29
606.47
607.707
593.549
570.852
520.258
2852.76
2833.81
1970.89
1925.62
1838.66
1543.77
1225.37
1010.07
836.632
707.896
613.185
532.907
453.517
367.803
291.733
234.225
201.967
175.205
161.797
141.669
1927.35
1527.11
1523.74
1709.59
1532.88
1086.41
815.216
640.453
519.546
424.412
355.921
299.305
256.944
218.119
187.966
166.744
155.769
152.518
153.887
162.904
12899.7
6707.02
4047.38
2702.25
1939.8
1355.5
1100.76
918.503
775.421
704.826
623.369
600.704
568.126
562.823
548.276
545.504
543.162
548.307
556.011
563.339
11763.9
8579.93
5946.34
3507.01
2772.8
1735.28
1307.19
964.08
820.009
704.845
646.661
603.296
579.039
564.429
555.588
553.402
553.938
557.893
561.19
568.506
10265.6
10406.7
7412.59
4557.62
3181.81
1924.1
1345.84
950.027
830.236
699.335
654.433
597.423
574.099
551.749
541.475
535.371
533.335
534.897
537.278
544.226
11251.2
9314.71
7336.69
4371.25
3118.64
1940.71
1488.85
1081.19
964.526
803.864
747.373
672.707
636.809
601.532
579.405
562.362
550.592
545.401
541.943
544.25
14663.3
8610.68
6935.33
4114.8
3049.79
1920.71
1709.02
1222.7
1110.72
896.948
828.13
732.321
684.491
633.56
600.862
574.943
557.506
549.537
545.906
547.839
5391.15
8487.95
8328.7
5148.96
3745.43
2496.2
1967.14
1504.67
1298.45
1084.15
971.957
855.154
756.529
683.747
625.098
589.685
568.555
563.739
564.297
571.644
13508.1
9894.92
6774.99
4255.79
3449.58
2460.43
2050.7
1658.52
1368.21
1168.25
1023.37
916.899
769.57
640.522
553.917
535.123
534.301
544.825
560.93
579.243
13800.9
13433.5
7848.71
4911.22
3387.05
2599.64
2130.9
1583.21
1218.22
980.04
866.12
799.273
684.596
568.062
481.511
481.09
490.327
515.202
539.281
565.378
19338.2
13680.1
7180.57
4994.25
3476.38
2489.74
1868.13
1395.34
1087.88
869.424
701.962
611.866
535.523
470.56
427.869
461.33
477.428
505.383
526.281
547.372
23133.7
9836.33
6461.52
4295.11
3328.92
2550.86
1968.81
1506.72
1194.27
931.535
586.133
424.616
368.512
366.638
411.147
493.067
511.911
529.306
541.772
550.723
22167.3
9107
6470.82
4110.69
3382.56
2762.73
2264.04
1686.56
1238.58
891.071
673.396
556.651
477.926
452.824
482.591
556.029
572.938
583.193
586.626
583.39
15201.5
9857.83
5802.28
3785.7
3372.36
2657.02
2212.06
1688.96
1135.76
830.739
694.097
616.129
581.057
564.407
640.692
651.279
660.923
660.092
653.591
631.217
12839.2
7257.12
4869.06
3471.65
3217.16
2396.24
1931.61
1390.66
1109.4
945.267
864.225
826.029
799.474
788.699
779.63
770.641
763.882
742.315
722.968
678.192
13412.7
8205.3
4577.58
3040.05
2675.84
1923.49
1789.11
1354.03
1196.84
1080.59
1030.69
999.988
972.985
948.501
924.231
895.82
871.388
828.864
796.791
727.151
20048.6
9057.21
5214.12
3315.22
2881.71
2182.09
1900.16
1567.79
1402.73
1280.27
1213.84
1166.68
1132.33
1095.86
1056.52
1007.22
965.218
906.438
865.447
778.119
20714.4
11606.8
4896.92
3348.65
3159.67
2351.13
2189.84
1792.08
1628.53
1467.24
1368.39
1297.82
1244.64
1194.74
1145.46
1080.61
1027.96
955.614
909.211
813.819
6871.97
9889.2
7321.88
5257.99
4096.58
3427.68
2819.75
2424.52
2043.62
1767.67
1542.3
1400.03
1295.24
1224.53
1169.46
1098.35
1033.56
947.65
895.392
802.86
12091.6
7591.4
5963.99
4202.45
3234.1
2768.64
2344.7
2066.38
1703.39
1439.19
1199.11
1052.27
939.686
881.345
855.849
834.934
812.546
759.007
724.891
661.147
6072.29
3543.27
2801.95
2520.8
2006.56
1527.06
1204.93
975.628
806.113
673.271
572.127
475.154
388.5
311.47
259.682
222.386
199.705
176.671
164.618
145.044
954.576
1363.68
1948.76
2049.84
1575.98
1027.67
746.333
567.961
448.588
349.593
271.848
214.934
180.896
163.09
155.338
152.794
152.723
153.643
158.995
161.386
8437.17
7910.89
6301.79
3366.83
2817.49
1535.4
1591.87
1084
1097.62
868.444
851.31
745.204
752.931
716.322
729.489
720.908
736.956
750.368
764.361
790.76
11045.6
9827.2
7202.57
4237.73
3657.46
1891.09
1777.64
1129.26
1125.52
877.399
884.068
777.538
791.467
746.398
760.759
747.448
761.992
766.148
773.988
793.58
14295.8
12528.9
9516.39
4989.2
4041.25
2060.91
1781.06
1103.54
1117.25
870.426
884.423
771.493
782.664
733.199
741.854
725.086
733.698
734.597
738.831
755.9
31439.5
11975
8987.33
5025.8
3984.23
2152.19
1938.11
1267.08
1254.4
984.906
981.031
845.945
844.219
778.113
775.91
746.837
747.592
741.49
741.469
751.747
30460.7
10074
8115.75
4830.89
3824.27
2256.16
2148.03
1412.02
1363.26
1049.84
1031.26
889.359
873.804
802.069
787.779
756.379
752.631
746.301
743.862
753.222
11348.7
10205.6
9946.65
5522.45
4694.77
2723.07
2381.23
1699.41
1536.07
1193.79
1154.99
977.081
932.037
835.879
806.954
775.62
774.341
773.393
775.638
788.347
31664.5
13696.5
7901.39
5051.08
4312.3
2753.27
2281.47
1783.18
1525.3
1284.56
1160.18
997.535
882.258
772.537
746.048
744.699
750.789
769.548
780.715
801.666
21531.8
13807
9050.18
5140.61
3977.74
2824.78
2439.57
1707.91
1372.2
1159
1038.26
906.498
791.827
705.783
683.439
702.383
714.994
743.806
765.728
791.788
30732.1
16474.4
9761.3
5092.97
4118.42
2635.8
2122.5
1595.67
1254.53
981.351
803.771
684.638
656.978
648.972
655.379
687.654
699.081
725.876
743.691
766.36
26711.4
11624.7
7938.67
4603.75
4142.81
2807.83
2209.59
1672.38
1293.53
947.981
718.455
555.482
541.482
607.409
661.419
714.554
723.824
739.431
746.989
758.03
20661.7
10935.1
6843.13
4584.59
4104.13
3024.19
2604.32
1803.76
1287.58
940.786
770.488
670.916
664.66
679.026
719.302
774.922
785.557
788.75
786.805
780.696
23200.3
13615.8
7650.38
4333.91
4516.9
3096.62
2472.25
1689.1
1263.14
974.753
894.292
812.167
800.897
787.268
875.668
879.841
880.292
869.365
851.057
822.591
14577.4
9485.32
5949.54
4121.73
4231.65
2661.19
2443.39
1629.13
1425.23
1150.7
1133.41
1050.99
1051.5
1025.31
1021.73
1002.54
990.993
953.179
921.817
867.338
19617.6
9315.67
5852.74
3904.23
3491
2385.02
2313.69
1554.37
1528.77
1283.37
1296.7
1220.15
1214.76
1172.42
1155.7
1119.01
1093.24
1034.79
988.159
908.581
28952.7
13782.9
7446.47
4056.15
3919.13
2533.53
2520.71
1855.04
1814.71
1539.38
1529.72
1413.68
1400.81
1332.27
1305.01
1240.15
1199.68
1120.53
1063.42
960.124
50503.5
20091.3
6830.2
4398.69
3928.38
2617.41
2775.29
1984.39
2031.69
1684.84
1677.46
1531.01
1514.84
1429.98
1392.98
1310.1
1262.61
1173.57
1114.84
1002.18
28045.3
13938
9634.51
5278.54
5235.1
3761.61
3565.99
2719.23
2502.34
1993.5
1877.48
1655.54
1606.3
1501.23
1452.56
1344.92
1277.11
1172.44
1110.78
1004.49
14595.3
10706.6
7638.84
4407.2
4285.78
2933.11
2939.47
2279.08
2066.61
1569.99
1448.77
1268.4
1239.57
1180.67
1160.18
1093.51
1045.4
960.187
920.653
854.006
2678.83
3685.6
3474.19
2528.07
1747.23
1293.23
1014.44
784.876
619.461
481.019
383.422
310.436
267.497
236.523
213.146
188.361
169.27
149.658
139.298
128.974
651.1
901.332
608.956
851.432
717.973
920.233
607.965
542.796
523.452
379.632
680.791
612.787
517.24
388.914
613.707
927.621
682.482
939.103
583.367
915.176
710.947
386.27
617.012
509.866
497.768
381.813
668.375
565.902
194.05
271.557
163.354
967.31
920.542
931.622
835.884
170.897
154.199
126.73
904.077
798.306
804.616
661.313
121.586
113.896
80.4243
750.611
594.157
606.608
479.739
47.3092
78.1526
94.2271
540.802
338.182
454.554
415.573
57.0521
97.5009
79.1159
323.907
348.558
398.107
348.992
104.907
75.3544
84.9134
373.633
433.88
348.895
369.653
103.975
90.6298
91.7073
438.997
417.059
369.265
343.917
64.8622
88.3821
62.0959
395.091
327.084
330.117
282.438
139.569
197.417
116.333
856.765
746.77
841.874
748.199
101.183
115.733
134.641
711.547
601.374
730.142
706.321
88.939
140.32
148.452
570.431
496.524
697.031
664.143
115.986
152.76
155.882
487.34
462.225
652.171
588.459
79.9554
150.743
75.0126
436.637
342.974
533.588
318.577
75.4811
60.7824
54.3313
334.982
343.624
285.56
247.818
85.9357
56.3981
65.4246
343.802
325.211
245.91
245.835
61.2021
65.6625
51.5866
313.128
274.274
243.816
225.432
145.628
249.988
191.081
924.122
847.903
1078.22
1007.81
167.616
192.221
199.916
830.443
790.863
969.194
882.029
171.75
200.499
195.224
775.829
723.348
857.208
772.811
165.923
189.415
162.527
703.751
617.214
736.009
580.444
71.1872
135.103
54.6739
550.191
312.55
467.904
287.404
52.3441
52.9196
58.1704
281.075
235.613
281.795
262.114
58.5869
58.2312
54.4527
228.296
218.97
252.616
223.766
49.115
52.9995
42.3685
216.865
207.736
215.633
201.81
178.391
305.464
178.41
1105.28
1005.74
1161.9
1082.64
182.363
165.883
141.484
961.161
861.808
1042.98
881.736
182.943
138.934
127.381
835.793
747.864
824.716
665.732
144.126
121.191
77.3801
708.27
523.052
606.435
383.787
51.9874
60.8154
48.4236
415.14
283.514
320.164
280.392
61.7276
52.5978
63.3592
282.316
271.968
282.754
280.516
58.5018
64.1041
61.9148
264.796
238.968
276.104
260.22
42.1819
60.5561
46.5486
230.99
210.986
254.569
246.08
1117.32
1200.18
996.275
1725.95
1464.28
1606.68
1302.88
920.958
948.334
770.854
1379.69
1147.91
1222.12
989.305
683.512
711.004
572.089
1071.93
860.752
923.092
763.955
425.859
541.253
476.221
799.92
651.831
721.55
610.335
422.154
452.182
405.35
633.812
626.938
580.209
539.728
494.389
406.052
418.689
634.486
632.694
538.638
519.447
462.845
415.144
379.607
616.946
540.631
503.578
447.398
356.197
364.054
305.87
508.862
424.835
427.73
365.195
899.414
1090.13
911.166
1503.5
1215.4
1513.41
1257.64
718.058
880.628
823.261
1142.99
958.972
1198.93
1060.7
587.316
805.075
750.012
906.425
775.938
1020.69
906.207
516.55
731.348
633.892
741.396
625.397
874.471
653.778
394.733
566.838
362.214
583.564
512.387
568.127
398.457
390.598
328.459
279.088
507.065
486.108
365.029
318.753
359.282
274.863
271.025
472.674
424.093
317.953
316.291
298.178
267.894
242.586
406.543
353.428
312.011
284.382
1009.62
1322.86
1173.83
1596.12
1345.41
1778.83
1514.47
904.524
1120.74
999.303
1281.87
1126.99
1429.46
1224.06
807.16
964.896
854.543
1081.96
950.813
1164.27
984.56
660.94
809.983
619.617
911.994
671.896
918.532
672.091
361.067
509.399
349.492
583.344
409.795
594.519
481.47
264.833
337.489
300.415
368.364
291.673
454.615
382.101
239.923
287.459
253.047
281.424
273.446
362.377
318.878
222.454
244.064
225.021
272.494
263.086
309.897
298.505
1184.45
1486.06
1297.32
1856.03
1551.7
1966.81
1709.93
989.642
1243.12
1036.97
1462.17
1236.24
1621.02
1298.55
833.58
960.669
761.04
1169.41
970.973
1181.74
905.248
568.421
692.591
447.859
899.089
640.067
815.803
569.385
344.176
385.94
338.483
569.977
476.5
526.608
466.879
311.078
335.509
321.618
455.2
396.942
453.156
418.133
270.548
315.373
296.143
380.859
343.025
408.105
383.666
237.105
290.445
277.314
334.402
316.472
378.158
369.165
1536.72
1703.9
1369.83
2064.5
1674.59
1912.25
1515.3
1194.25
1281.47
1037.96
1557.65
1283.74
1409.39
1141.52
899.601
970.33
806.623
1197.58
992.556
1070.52
897.396
709.847
761.84
644.942
947.753
850.766
849.062
731.626
678.526
615.058
574.904
830.583
789.881
704.132
652.883
660.773
571.274
540.585
778.27
707.509
639.096
581.26
553.582
522.177
461.715
675.547
583.179
559.124
496.226
438.975
441.418
378.101
554.704
485.204
476.986
423.327
1288.9
1617.04
1336.52
1810.81
1451.22
1831.29
1499.52
1012.86
1270.27
1110.63
1358.01
1125.5
1414.19
1203.24
816.904
1064.8
933.173
1061.58
899.045
1143.3
972.025
790.951
739.12
810.896
807.514
770.026
765.414
835.61
557.583
576.322
592.735
633.952
541.981
602.88
604.791
506.461
346.972
322.923
597.964
545.106
377.092
376.516
437.794
326.314
327.063
525.662
471.301
375.314
366.374
365.555
322.646
294.945
454.499
410.33
362.816
350.176
1420.29
1890.56
1589.75
1914.79
1570.95
2121.39
1738.5
1171.71
1496.11
1266.34
1478.42
1249.18
1620.67
1324.89
972.823
1199.06
999.4
1183.79
994.089
1238.95
995.414
869.498
845.043
941.274
931.678
873.324
749.446
946.864
575.626
471.762
626.435
420.864
566.863
377.622
628.275
287.905
480.379
402.056
367.426
345.042
533.742
452.6
283.231
381.402
337.859
340.983
336.97
433.163
400.247
275.84
329.57
319.857
337.493
340.63
396.57
399.212
1632.62
2076.09
1795.05
2198.49
1789.6
2313.06
1932.85
1281.31
1692.96
1334.71
1663.77
1336.98
1788.66
1350.49
986.089
1208.96
921.107
1241.42
980.77
1217.37
929.022
655.361
829.72
601.187
897.157
696.598
846.034
679.87
506.384
562.664
498.648
658.085
568.203
647.893
576.047
418.485
483.208
444.691
540.869
473.158
558.682
518.209
363.507
434.071
409.249
457.041
427.52
507.822
486.549
338.687
404.311
394.759
423.316
417.374
483.531
479.366
1706.1
1969.97
1552.95
2340.94
1799.22
2151.91
1684.35
1304.62
1442.3
1168.18
1660.98
1386.28
1560.75
1272.88
1021.25
1096.58
921.324
1310.1
1136.02
1200.76
1013.42
888.422
872.447
756.641
1096.93
1005.35
960.298
839.426
815.509
729.239
671.332
978.289
893.677
808.563
727.402
717.392
654.3
591.386
863.675
770.92
703.784
649.356
594.852
569.691
510.368
742.656
669.778
636.922
603.96
503.03
492.68
443.415
648.642
603.922
593.587
565.14
1492.93
1886.18
1537.57
2042.07
1632.11
2047.99
1660.95
1153.63
1446.97
1222.79
1522.53
1260.08
1557.69
1301.39
918.984
1158.87
973.617
1189.17
993.485
1223.74
994.412
737.792
917.722
668.544
936.505
802.751
924.442
745.025
629.733
590.875
451.412
767.094
677.882
689.624
556.39
554.391
430.69
401.548
654.07
607.379
526.379
484.938
485.589
396.265
387.434
600.473
583.216
487.791
516.782
430.749
385.773
378.35
576.426
556.312
523.459
530.275
1604.9
2183.38
1770.92
2130.61
1718
2389.56
1878.25
1263.8
1644.9
1329.73
1606.11
1328.62
1725.79
1360.07
990.58
1239.26
987.205
1244.99
999.506
1259.86
988.726
658.715
907.486
719.916
926.058
740.943
913.357
759.186
451.331
680.53
579.047
688.156
556.868
723.603
626.9
376.09
547.301
469.793
523.05
472.99
599.914
557.302
364.398
452.556
428.166
475.515
509.819
557.49
570.825
372.072
426.85
430.942
519.212
532.062
574.939
581.684
1822.28
2380.06
1952.06
2490.73
1923.4
2611.02
1978.01
1338.17
1793.47
1340.93
1754.03
1353.61
1781.87
1335.66
972.627
1210.42
930.57
1248.83
979.261
1223.79
969.854
709.182
853.255
703.686
906.168
762.021
907.486
798.394
583.73
672.765
600.412
729.735
645.314
772.758
706.455
492.131
583.568
544.866
623.271
590.525
691.505
665.747
455.215
535.256
516.694
589.786
594.565
660.606
651.842
448.159
514.582
510.285
596.068
595.262
650.81
648.836
1850.6
2239.14
1758.73
2793.68
2097.24
2581.99
2085.55
1441.52
1631.19
1340.8
1936.45
1735.14
1949.54
1667.47
1201.6
1268.59
1071.06
1676.27
1502.06
1597.04
1372.7
1066.02
1014.13
886.313
1435.16
1377.45
1308.77
1177.45
940.722
853.234
763.702
1347.31
1219.61
1142.06
1041.55
817.062
739.805
700.03
1174.42
1121.07
1025.42
1045.92
724.84
693.532
671.226
1102.17
1044.12
1051.11
1041.6
664.547
663.163
636.522
1028.79
1015.63
1038.59
1019.35
1708.21
2124.02
1732.2
2413.82
2040.84
2421.89
2055.29
1328.18
1626.43
1360.54
1923.08
1656.49
1946.11
1667.98
1042.85
1276.09
1023.51
1575.71
1331.51
1567.73
1274.06
840.855
948.731
773.043
1262.69
1115.93
1190.63
1019.68
708.212
720.516
587.679
1077.15
974.294
972.049
841.939
655.191
558.321
535.438
960.54
1003.57
828.325
901.778
653.413
549.957
600.485
1026.33
1034.6
954.317
1015.65
628.885
608.391
610.111
1033.87
1018.14
1019.51
1001.44
1787.34
2493.65
1944.27
2493.84
2105.62
2851.92
2232.66
1384.02
1783.26
1404.48
1985.51
1682.38
2056.31
1673.06
1025.74
1301.01
1018.49
1575.91
1269.13
1563.88
1262.98
768.768
942.423
791.099
1183.73
1013.15
1188.44
1053.57
587.625
755.831
661.823
968.477
844.275
1024.47
948.649
527.138
638.565
619.994
829.474
901.712
943.602
1007.93
597.434
629.921
655.594
954.132
1017.66
1037.21
1059.97
613.196
660.064
660.293
1022.65
1012.34
1061.61
1045.6
1983.96
2721.71
1999.07
2958.73
2244
3073.76
2120.43
1392.28
1794.65
1367.6
2046.96
1644.95
1924.37
1580.76
1012.9
1263.24
1012.91
1544.91
1260.69
1505.14
1246.74
801.911
954.288
857.643
1193.23
1080.16
1204.48
1159.09
689.442
835.16
770.674
1057.47
997.055
1156.8
1090.71
658.732
756.505
736.662
994.767
1050.25
1082.64
1086.2
677.225
733.645
726.939
1064.46
1073.52
1091.82
1078.72
673.41
726.026
721.312
1073.99
1065.48
1080.54
1067.85
732.601
696.418
653.6
674.575
716.789
720.674
665.781
818.47
853.528
829.466
912.956
805.915
874.098
771.98
718.14
631.644
719.367
465.329
727.272
600.662
594.719
806.824
831.403
806.087
867.808
787.286
853.963
819.321
748.188
696.895
761.417
702.508
742.082
682.671
763.392
825.885
915.928
892.821
834.079
886.063
766.032
834.15
725.615
460.966
659.484
725.157
611.412
590.836
752.377
527.656
555.086
490.629
569.632
508.85
582.62
512.059
441.855
547.604
452.483
388.473
478.585
508.47
328.302
400.272
406.949
404.582
317.66
433.599
396.716
308.799
581.264
657.971
651.843
648.59
628.365
624.586
607.804
552.26
592.891
630.134
557.763
607.767
534.789
578.523
464.395
376.564
581.343
455.265
523.765
315.417
525.328
421.738
304.844
467.265
414.517
419.655
297.059
485.422
780.029
724.06
702.777
489.418
789.531
592.822
696.105
866.428
940.105
849.735
928.032
868.819
941.739
847.446
786.083
705.812
765.124
692.23
788.456
709.826
765.607
863.016
932.206
831.236
938.233
742.918
945.137
858.895
773.282
472.909
701.358
703.105
579.721
694.571
775.573
860.35
922.879
929.642
837.146
937.346
842.423
853.633
783.179
701.779
720.022
767.315
714.547
766.003
781.676
531.245
420.856
476.615
325.025
520.713
351.499
484.227
601.169
634.068
573.458
637.013
581.367
647.66
598.172
562.143
504.84
540.469
532.569
541.585
524.101
564.722
583.904
403.503
441.391
645.519
359.599
632.831
597.465
539.276
309.62
395.595
507.519
331.272
491.924
551.574
617.351
654.191
671.024
633.114
660.088
617.73
630.232
578.506
550.875
552.46
599.178
539.529
583.889
591.332
341.036
410.523
323.347
780.835
827.56
743.618
775.337
322.003
290.089
282.853
803.785
755.531
767.023
758.831
289.01
277.241
262.595
744.383
723.499
737.183
686.602
242.54
233.417
175.365
681.632
610.396
583.674
425.453
166.285
124.695
114.794
528.433
446.49
315.223
302.389
145.333
117.503
131.412
428.455
429.734
316.783
370.052
141.849
149.968
152.271
435.512
430.37
422.945
434.88
89.7509
146.409
110.898
387.361
332.768
419.802
358.087
489.583
577.434
427.163
1032.35
895.278
1060.2
903.289
430.96
266.213
323.585
464.529
429.42
459.428
255.78
443.135
176.43
173.511
407.977
422.089
430.676
170.298
356.579
148.949
147.487
405.982
380.646
398.287
132.394
185.599
86.3571
91.971
293.801
223.598
235.651
74.7724
179.61
46.6302
61.5156
130.428
144.88
162.87
68.4671
221.669
82.2425
74.9786
213.106
241.317
202.529
81.1227
268.065
108.19
106.97
283.063
283.027
267.481
107.413
228.432
89.0412
96.0679
247.517
233.776
240.112
88.3447
88.0952
115.024
76.7686
240.717
226.146
229.719
218.947
355.662
465.589
339.653
935.912
840.773
898.176
816.963
304.217
182.54
209.046
352.257
339.477
325.868
157.028
270.888
119.617
98.9045
331.184
317.58
270.246
95.2413
293.099
90.5517
99.5502
273.08
263.133
291.222
101.065
329.144
99.2015
116.282
262.193
275.506
316.173
126.381
294.65
112.31
132.664
289.521
270.751
326.82
124.179
176.745
70.2583
68.5452
191.94
191.338
179.735
65.297
197.492
85.4169
73.4265
213.645
216.615
192.809
77.4621
188.077
79.8205
78.3929
206.479
199.204
193.725
75.9197
76.5145
100.584
70.4606
213.39
209.742
193.805
185.739
363.451
445.749
392.475
878.349
872.937
905.361
956.168
412.451
170.502
224.146
374.615
382.438
387.512
179.558
509.686
153.483
176.577
429.238
443.825
498.282
183.002
507.692
172.29
192.894
463.659
462.521
513.328
192.447
465.803
171.044
186.002
447.95
441.96
478.874
182.732
289.92
133.113
157.117
390.285
319.012
387.802
123.801
134.935
53.4343
55.7394
141.349
136.245
136.267
52.6858
134.306
54.918
52.5813
136.227
139.13
134.592
53.0471
130.619
59.1095
54.3935
142.667
141.949
131.968
54.3414
64.8306
82.536
62.4016
168.103
169.952
169.839
181.978
390.153
439.869
419.308
917.311
999.54
976.684
1057.99
468.566
207.454
253.539
447.253
473.522
452.596
207.709
464.366
177.985
160.086
503.629
502.187
470.741
157.007
451.772
185.155
160.956
497.145
493.088
454.803
163.077
389.255
169.065
156.191
455.061
433.745
413.22
149.295
143.645
75.929
86.9942
245.249
163.563
198.433
63.3197
157.888
55.6332
51.9005
138.753
151.879
142.446
57.9793
166.569
61.8815
65.4737
160.814
158.387
168.165
65.3307
146.83
53.7756
60.2223
141.405
136.883
150.773
57.6531
64.4252
94.9499
74.612
191.357
203.648
210.608
225.062
338.092
418.854
344.487
748.528
828.784
769.01
900.387
281.596
318.461
291.654
843.407
814.45
892.088
808.212
226.428
255.55
197.445
725.015
613.083
682.746
533.942
121.541
135.854
98.0481
459.809
293.562
361.118
263.611
85.9375
84.311
80.5923
233.638
233.454
239.313
237.78
90.3854
82.5181
83.6465
239.868
241.849