/*--------------------------------*- C++ -*----------------------------------*\
  =========                 |
  \\      /  F ield         | OpenFOAM: The Open Source CFD Toolbox
   \\    /   O peration     | Website:  https://openfoam.org
    \\  /    A nd           | Version:  10
     \\/     M anipulation  |
\*---------------------------------------------------------------------------*/
FoamFile
{
    format      ascii;
    class       surfaceScalarField;
    location    "5.6";
    object      phi;
}
// * * * * * * * * * * * * * * * * * * * * * * * * * * * * * * * * * * * * * //

dimensions      [0 3 -1 0 0 0 0];

internalField   nonuniform List<scalar> 
38556
(
409.525
258.885
180.199
339.109
334.923
-264.507
870.186
169.708
-700.785
1076.81
112.092
-318.714
1126.89
202.403
-252.487
1121.2
154.412
-148.718
1034.48
151.475
-64.7584
986.285
79.529
-31.3339
935.29
42.4768
8.51876
925.688
-5.90381
15.5054
925.326
-19.6223
19.985
947.356
-40.1162
18.0857
973.95
-38.4377
11.8439
1020.62
-45.5391
-1.13533
1076.83
-46.2039
-10.0039
1129.09
-33.106
-19.1531
1133.39
-2.41805
-1.87704
1085.37
31.8292
16.1895
1012.17
55.2147
17.9788
35.4927
-0.331355
1842.45
507.826
-1951.61
1970.41
809.345
-602.375
1060.16
558.088
521.865
791.337
256.641
124.277
734.649
205.884
53.2074
684.156
127.048
77.8565
643.93
58.1602
133.541
607.786
18.8905
96.7826
595.811
-13.8628
68.3147
586.284
-14.2007
17.8241
593.65
-16.5548
-10.4339
604.019
-10.8709
-39.6137
622.607
-7.54552
-49.481
641.674
-2.1299
-62.4759
660.709
-0.742279
-64.497
687.813
13.9937
-74.2034
727.509
24.4563
-66.5698
759.697
39.3154
-39.6739
769.91
37.094
7.90729
10.3889
23.5553
1561.67
696.538
55.4043
1214.46
641.944
514.608
732.01
396.11
644.428
630.182
265.444
93.0243
679.993
100.175
55.8972
696.664
121.537
-11.1595
676.322
44.708
33.7941
628.711
60.7888
5.71288
574.186
9.93618
30.7259
539.851
17.9325
2.20065
529.034
-3.73757
-1.99961
533.285
-1.01637
-14.1059
546.349
-8.57735
-12.0316
562.019
-5.14841
-12.6518
577.025
-7.65806
-8.09041
592.505
-1.20807
-0.277544
608.651
1.73292
6.57652
622.913
12.8464
12.207
632.104
7.3493
20.5541
-12.0345
18.1498
1470.55
-706.529
-1077.25
1583.43
419.257
109.798
1307.08
610.413
62.0518
1165.58
429.957
-23.0138
926.151
361.137
-21.5318
809.171
277.098
-38.5803
673.392
164.305
16.1821
584.159
147.748
2.27289
509.377
55.3999
29.3188
467.347
56.3237
3.63827
464.263
-8.18585
7.53258
467.01
-5.29004
1.52655
482.255
-28.3891
4.5673
494.147
-20.8168
3.77636
508.58
-27.6694
5.57798
519.092
-15.8989
4.17848
532.176
-16.3207
4.96977
549.158
-8.8029
4.66829
569.299
-15.8789
3.08632
-31.1625
4.99741
-123.5
-1578.38
-838.69
-74.4857
203.936
166.307
598.555
364.648
-427.276
649.291
361.167
18.0547
641.95
329.093
39.3847
617.358
287.818
13.8719
586.509
140.271
54.8823
562.945
162.202
9.10975
545.236
56.0924
17.0165
541.773
60.9378
-1.15065
546.883
-20.0143
6.71853
556.445
-20.7803
5.9283
566.888
-52.1945
13.3623
575.931
-40.6976
10.8374
582.829
-45.5581
10.9911
587.593
-25.8094
5.1458
591.877
-24.9624
4.35799
596.658
-16.4148
2.83082
603.735
-24.189
1.23372
-39.1819
2.32589
-149.622
-834.063
-369.766
-166.623
139.406
81.5305
192.789
264.42
-259.184
272.958
273.077
7.92022
399.996
219.277
-17.222
402.984
265.045
19.7848
514.48
23.3751
5.39997
502.963
170.71
3.00965
541.89
25.0673
-7.90147
564.017
52.2016
-13.3913
592.715
-39.8049
-8.90746
609.91
-42.2309
4.25572
621.689
-77.7847
13.8117
624.229
-65.3105
22.0719
621.604
-70.6261
27.6931
613.749
-32.3422
14.3886
604.611
-26.5691
10.7442
599.978
-17.5533
5.77164
602.765
-30.6476
3.67175
-49.5697
5.18939
533.191
1386.62
2365.29
546.168
674.593
-548.164
755.788
806.945
-752.144
778.742
382.289
-132.165
746.362
321.264
-69.6068
694.816
363.386
-46.7955
694.738
38.4681
-33.2277
-5.73471
33.385
-9.4368
717.255
31.5547
-31.8021
62.3017
28.6259
57.5126
748.044
25.6043
-43.2214
0.95988
18.236
-7.30098
812.181
6.78619
-30.358
11.5735
-2.36875
2.43176
862.212
-11.6559
-11.1782
-20.8996
-20.4031
-25.6995
890.185
-26.1321
13.2748
-14.6148
-28.5406
-14.1909
869.479
-25.6879
29.3587
-19.1174
-24.0838
-17.5487
821.984
-22.5407
42.3729
-11.0193
-18.9913
-7.63703
751.679
-40.3814
40.0598
697.385
-3.39327
25.3452
661.452
-9.73539
19.1002
640.944
-8.54291
11.4968
641.34
-37.1711
6.12772
-65.7119
8.72492
-1234.01
296.402
4213.95
-477.051
455.453
-537.819
102.28
267.637
-40.023
262.442
165.841
56.2858
560.367
7.30703
16.032
155.35
62.3236
-21.4741
158.517
148.784
152.683
109.719
57.2601
100.59
144.402
56.6123
-7.19589
-136.128
147.617
31.9538
-11.8881
-181.257
185.949
33.8335
-12.9211
-201.181
213.193
-0.794685
-4.43144
-235.228
238.593
-19.6577
4.63646
-251.705
255.27
-35.5047
5.80768
-269.031
263.759
-25.2087
4.79264
-265.621
243.589
-9.53583
9.02707
694.183
8.40112
42.7463
-220.525
-209.605
-197.413
-182.875
9.12685
7.68524
7.89466
623.474
45.0428
22.2726
602.121
7.80948
3.80774
608.611
-13.7328
-1.3001
636.307
-60.5304
-4.33683
-86.5247
-0.89126
197.945
896.067
-282.654
85.49
62.6025
505.306
545.418
-57.7854
-134.505
619.777
107.636
-16.1549
164.748
60.1148
-96.3707
168.516
164.6
165.476
186.109
48.0011
-7.03838
-16.4627
-52.6795
49.536
20.1672
-0.560979
-45.3545
-7.94579
44.0652
10.6591
-1.42397
-50.0489
-4.50851
51.6024
4.33975
-1.38478
-56.8789
4.24566
54.9595
-3.92561
1.59934
-43.5729
10.4318
38.478
-8.03108
2.69411
-38.8649
14.7116
38.3288
-14.3234
0.147964
-44.2919
9.21598
44.2386
-7.6082
-1.55448
-47.9206
1.47623
47.2806
0.0341299
-0.87034
-47.5529
171.142
18.708
2.70633
-46.0757
-46.6275
-43.8991
603.179
62.0544
1.44633
-164.064
-156.134
-154.194
-147.245
613.756
5.67399
-8.44134
639.825
-31.412
-8.38962
660.569
-75.6953
-5.57974
-91.2658
-5.03674
-256.769
865.319
1915.55
227.724
-267.487
-154.403
545.263
-337.597
-37.7284
673.281
64.4277
-84.809
137.004
210.359
-71.6202
145.907
151.469
160.277
-50.6061
146.647
49.1327
-8.16899
-16.2072
-40.865
45.0599
10.7378
1.27444
-11.2751
-52.5398
53.8564
8.66645
1.29213
-1.18767
-52.0789
49.4427
1.67784
2.14608
1.21749
-42.7736
42.2262
-0.743503
0.0733409
5.95409
-43.4675
43.9655
-4.25854
-2.19363
13.956
-43.9084
43.7011
-13.2845
-0.464085
5.41901
-42.2097
42.2375
-4.49862
-0.948245
-1.20091
-43.0142
42.9937
2.19461
-0.97319
-42.3783
-20.2341
163.804
22.1358
-0.219869
-41.9052
-40.7518
-40.4505
635.745
66.2938
-12.5295
-160.285
-160.755
-151.93
-154.485
650.405
0.702596
-9.68866
657.72
-32.9356
-5.79163
651.931
-66.0234
-3.88266
-84.0308
-3.2202
739.726
-301.614
-2420.77
1265.18
-730.951
-61.9912
1119.68
-418.142
226.044
988.121
99.9092
96.0801
163.761
328.539
148.738
168.33
191.997
197.116
-49.9245
159.983
54.6704
-0.968107
-7.32831
-39.8537
41.1548
6.90605
-0.878825
-3.65331
-44.0883
45.7481
3.08431
-1.09076
-0.200298
-49.9428
50.9437
0.136429
-0.937093
-0.383206
-52.8128
53.2078
1.21141
-1.22312
0.444839
-55.6948
55.5883
0.109467
-0.447778
11.8343
-50.1865
47.9429
-11.044
1.4534
1.74672
-42.9112
42.1608
-1.26862
0.272311
-3.75965
-41.8042
42.1169
3.89108
-0.444101
-42.9267
-22.7078
168.998
22.9343
-0.208226
-42.5331
-41.9048
-41.6516
666.886
57.8462
-2.77171
-168.06
-166.351
-161.692
-159.563
661.374
4.8958
1.31832
648.23
-19.8621
0.0704791
637.747
-49.979
-5.56185
-74.9216
-5.75248
2681.15
-1542.41
-3010.29
1946.86
-1170.14
1173.48
1003.15
-176.15
701.719
695.408
286.325
121.322
127.341
380.059
78.3569
144.473
139.833
153.884
-67.5053
143.177
52.7012
-1.03182
-8.78294
-43.5488
47.562
6.14078
-1.37096
-2.55198
-53.2847
54.4416
2.42771
-1.03259
-3.08149
-56.8295
57.4239
3.50648
-1.01941
-3.88918
-58.5103
59.0935
3.8945
-0.588496
-0.904001
-57.4306
55.0576
0.116002
3.161
6.43355
-43.0239
40.4718
-4.93579
1.05435
0.827869
-38.1322
38.4596
-0.770283
-0.384923
-3.49693
-39.5628
39.969
3.31175
-0.220999
-40.2901
-21.5676
162.1
16.8687
0.0564221
-39.3727
-39.4217
-38.3731
639.425
28.8626
12.9011
-160.789
-157.449
-154.151
-150.953
641.951
-6.33645
8.70603
640.263
-20.772
2.5981
642.733
-45.1569
-7.29308
-69.9343
-8.96487
2125.72
-1190.88
-3489.79
1437.92
-774.428
292.088
1073.02
-105.553
294.303
946.263
272.028
141.051
913.903
324.301
88.1191
224.018
15.9987
9.47745
-22.4894
25.6526
-31.6413
26.6808
229.065
216.135
221.005
0.76383
224.978
-4.78963
3.08411
-0.122874
0.209967
-0.104801
-4.48116
-214.516
218.69
9.47608
1.21018
-3.8216
-3.52968
-3.02815
-3.33572
-228.856
237.755
-0.0179055
2.68967
-3.25697
-2.62763
-2.35016
-2.22733
-226.86
210.784
9.35205
11.169
-0.961589
-1.33149
0.0754085
0.379897
-185.543
165.296
-2.29601
18.5669
1.09296
0.83657
1.66714
0.511738
-137.24
128.571
-0.515533
5.08585
1.71607
0.373956
1.49739
-0.127957
-126.019
130.659
-4.36237
-0.0036835
0.136311
-0.257936
-0.0247263
-2.24398
-129.538
137.539
-0.168742
0.539032
-2.07489
-2.21069
-1.84198
577.859
-7.88363
15.2129
-13.7636
-11.3476
-8.64348
-6.68032
-140.54
-135.364
-134.972
-133.878
606.699
-16.9065
16.9299
622.886
-30.6128
8.08891
638.871
-38.5983
1.8415
655.878
-54.0623
-8.102
-70.5228
-9.96906
858.774
-125.574
-2735.81
650.244
-412.837
-153.062
626.039
-153.527
72.18
752.29
77.3063
68.4708
828.344
130.585
117.662
834.647
-1.31082
11.0066
786.415
183.436
5.59716
-26.6224
-43.2927
-25.5212
-45.364
737.425
3.62783
23.619
-6.3592
14.4935
-5.17339
18.7819
661.273
99.185
31.0529
-6.4657
-22.3028
-3.30942
-22.0077
612.771
19.6847
49.0651
-15.1684
0.595755
-10.5084
4.83273
592.313
42.8323
25.2196
-7.59299
-16.6282
-7.09678
-16.2758
588.374
-19.1481
17.0458
-4.31223
7.57925
-3.99072
6.76527
598.614
-21.7222
11.5819
0.977919
-0.694477
0.17561
-0.558458
611.222
-48.5636
16.2016
1.41327
8.21063
1.77009
8.35963
629.28
-49.8083
23.867
652.838
-58.7989
18.3343
674.545
-63.2194
10.8991
690.097
-60.1823
6.03197
705.939
-66.2942
-3.60946
-70.7791
-8.34023
1239.17
87.8096
-4548.69
746.838
171.212
-91.7174
672.792
115.821
-195.302
549.047
112.363
88.6894
492.227
149.022
38.3817
462.258
-3.80792
32.4663
565.735
91.5578
-11.5992
534.624
9.79915
24.9402
578.597
44.124
11.0878
586.073
0.85617
11.3525
625.276
-0.480253
4.10978
648.039
-31.547
-10.3639
675.587
-37.727
-11.5434
703.18
-66.2636
-9.89282
732.558
-78.6129
-0.573691
757.055
-92.1634
8.86809
774.365
-91.3236
10.7945
784.743
-80.6426
10.0822
788.456
-72.8786
2.87145
-65.8187
-4.56656
456.476
-174.139
-1577.49
542.786
435.191
-350.289
604.667
219.822
-165.882
633.543
108.047
-24.5597
671.331
49.5075
61.7262
669.005
0.679747
-2.16179
682.751
42.0983
35.714
678.885
11.8671
1.79781
687.507
33.6342
1.86841
700.718
6.27873
-18.6336
719.519
2.21359
-21.4948
740.391
-21.0963
-31.3232
759.822
-27.1146
-30.0432
787.836
-61.9848
-32.2925
821.277
-89.1532
-22.9009
846.259
-110.234
-6.91181
860.331
-109.989
4.59378
867.601
-100.626
12.7136
870.378
-84.4793
8.82304
-67.7508
2.82333
936.852
485.2
3564.89
791.85
467.524
112.669
403.731
223.489
384.452
375.335
126.682
9.76102
509.3
-142.192
57.7345
532.015
-63.1486
41.1139
634.945
-94.2611
33.4284
660.358
-52.0737
38.5277
711.593
-43.5471
25.9472
738.451
-17.6217
-2.95794
773.301
-13.7633
-18.8738
801.643
-11.1463
-38.2923
834.548
-18.3395
-41.6793
878.829
-47.4977
-58.7682
921.081
-89.326
-42.0797
939.879
-119.234
-9.7982
941.202
-118.443
7.13008
933.709
-106.306
13.1736
923.079
-89.0477
15.1987
-69.3136
8.19136
2776.64
944.518
-344.256
2757.64
778.879
-292.357
2292.78
365.627
322.729
2036.53
143.416
239.516
1715.99
-15.8521
194.2
1611.53
-3.85209
45.1566
1513.24
-29.6188
33.6489
1459.14
-7.43632
9.46656
1368.79
12.3997
34.4068
1288.52
44.6504
17.9912
1200.65
57.6556
16.4568
1137.49
61.7958
-9.78403
1095.96
42.2253
-19.0347
1070.9
-1.56238
-20.875
1053.68
-65.2656
-6.83981
1034.87
-101.915
1.49256
1010.12
-102.373
8.67823
981.278
-88.1441
10.6785
953.009
-71.7777
10.9987
-56.433
3.28164
915.839
438.015
-4258.3
913.372
724.324
57.0229
1047.76
92.3412
138.894
1212.49
-83.6259
62.3192
1162.7
-116.734
150.67
1165.78
-92.3204
85.3907
1118.55
-78.7166
96.3199
1118.29
-29.694
22.5173
1106.26
13.5695
10.86
1103.18
69.0507
-21.3143
1084.81
97.9906
-21.9679
1066.62
109.331
-29.3496
1030.71
96.1275
-17.9837
1003.97
61.0647
-35.8864
1005.94
-13.516
-53.7277
1011.57
-76.7447
-30.7943
1008.83
-87.9988
-11.6388
995.467
-76.7126
1.93392
965.839
-63.9683
21.8186
-49.185
14.1515
-359.989
169.221
748.619
-384.285
1186.34
-345.382
1325.41
-222.696
1349.92
-141.245
1372.62
-115.018
1328.39
-34.4839
1319.59
-20.8972
1291.68
41.4764
1288.97
71.7647
1296.15
90.8135
1305.78
99.6985
1311.63
90.2797
1311.62
61.0758
1276.04
22.0646
1216.92
-17.6286
1165.29
-36.3636
1130.23
-41.6526
1094.13
-27.875
-22.4868
2086.54
-616.927
-177.393
2014.95
-77.6952
-115.222
1391.91
405.563
-483.314
1223.48
189.03
-339.31
1107.5
179.066
-315.575
1067.69
77.4889
-186.399
997.089
68.58
-62.7354
969.629
22.4383
-26.312
931.641
15.8198
30.6868
925.462
-6.44818
28.133
923.322
-8.44013
30.5649
941.943
-16.6764
16.1406
960.949
-14.0742
6.91183
987.453
-14.6886
-12.9508
1004.13
-7.15502
-19.5252
1007.15
3.91178
-26.0868
971.443
25.9962
7.83605
912.174
45.572
29.8858
858.279
33.2424
38.6319
4.72338
16.0011
-253.939
-479.199
-3940.65
83.2924
-60.2234
-957.078
553.363
391.969
65.3896
588.759
199.316
78.5946
627.695
168.486
24.8506
576.955
104.381
101.704
578.219
39.5919
161.265
556.987
30.7984
109.654
563.601
-0.137563
77.6585
559.541
1.49236
13.9437
565.616
-4.42456
-20.525
570.929
-2.69015
-58.9131
580.415
-3.15952
-69.8816
590.297
-1.75065
-85.2958
600.825
-0.125888
-82.0535
610
4.42811
-83.8952
619.506
12.2768
-62.3564
629.645
21.474
-25.7142
638.841
13.6367
18.3169
-4.34324
27.5385
52.9375
-525.138
-1054.78
-84.9102
54.0249
538.207
497.708
257.33
196.449
438.872
252.489
98.6876
532.727
74.6789
55.8496
515.509
113.926
-3.48692
510.807
20.4089
57.6789
477.111
62.6814
7.52676
463.772
9.65979
34.2674
448.453
24.5316
-5.51948
451.737
-3.71692
-5.99131
457.395
-1.16443
-21.2898
469.22
-11.0975
-15.9192
480.152
-7.97819
-17.3561
491.978
-10.7143
-9.32787
503.491
-5.26364
-2.09856
517.317
-3.38732
8.41477
531.264
4.00752
15.7266
543.126
-0.908272
23.237
-12.7859
20.7736
1541.98
-272.7
-580.833
1554.1
290.775
-139.073
1240.2
569.848
63.4297
1003.23
421.222
45.223
717.245
312.629
26.5055
593.481
226.229
-27.1199
486.646
107.824
35.6033
427.782
121.184
2.63332
411.407
21.7691
33.5849
391.981
45.9222
1.67273
402.637
-14.5638
7.72395
407.212
-4.82509
0.612206
422.112
-26.9422
5.51138
431.436
-16.6665
3.1408
444.093
-23.9536
6.16039
453.065
-13.7838
3.72636
464.621
-15.8042
5.83126
478.053
-9.75724
5.00124
493.606
-17.0975
3.72183
-26.1664
8.24892
-199.528
88.1568
-1881.14
138.655
265.511
-146.611
379.507
369.635
-467.916
463.399
337.077
18.3077
464.377
295.455
55.5815
441.955
255.726
6.79693
444.871
95.8508
63.9382
428.096
143.245
3.82413
429.57
18.0431
19.2684
430.345
45.871
-1.87412
441.376
-29.0787
10.203
451.339
-16.3036
7.44312
463.741
-43.4649
17.4832
472.144
-27.196
12.9643
479.925
-34.3677
13.6247
484.827
-19.6621
6.12217
490.845
-23.3502
5.8861
497.441
-17.8409
4.318
506.951
-27.4944
2.12011
-35.6314
5.51352
-804.869
551.283
-920.234
-292.386
198.674
-364.116
34.0941
242.481
-458.51
142.397
229.55
7.14345
290.3
189.949
-59.6189
299.595
247.006
19.2096
415.274
-20.528
6.10014
397.537
162.613
1.3777
430.331
-14.0998
-8.55169
443.015
26.4528
-6.65803
465.736
-57.8241
-2.88225
479.199
-37.3645
11.8537
493.379
-64.8414
21.008
498.884
-38.3395
27.7105
502.375
-41.694
31.5281
501.864
-21.1491
16.3862
501.081
-24.2152
12.3923
502.829
-20.9747
7.15723
510.123
-35.0796
3.96342
-44.9893
8.09735
1395.08
2904.3
-111.59
1069.25
557.736
-581.4
611.862
691.252
-743.523
584.374
274.741
-149.869
549.677
244.656
-89.6166
483.192
318.416
-51.7209
483.298
18.1815
-40.8241
-19.1867
11.8966
-23.9291
496.836
25.2848
-34.2827
52.2346
24.4938
49.5428
524.211
6.52557
-53.9249
-16.9312
1.08821
-21.4545
577.384
-9.9012
-28.1429
-3.37189
-12.1763
-3.48537
616.209
-26.4092
0.879127
-29.1056
-26.0829
-27.1095
633.62
-27.0229
27.9992
-11.5668
-23.1102
-7.79941
619.44
-19.6142
40.6853
-14.2551
-16.0803
-12.0392
596.966
-12.0419
52.2084
-3.60516
-8.84332
-1.21012
569.811
-18.0493
43.57
550.652
-3.58712
26.9422
539.864
-14.8324
20.5054
536.61
-18.0522
11.8279
544.987
-45.026
7.69775
-55.8823
11.5642
434.002
1413.24
363.704
-508.286
602.978
359.227
-10.3707
301.815
-148.502
124.228
92.9036
103.524
426.835
-41.6636
-0.255668
115.736
50.3906
-10.2934
120.966
105.857
110.644
91.011
50.6472
88.8182
5.78129
103.386
35.1267
-10.3764
17.2397
-94.9602
107.432
15.7409
-20.168
16.0653
-138.869
139.811
7.42789
-17.9093
5.28059
-151.355
161.125
-19.4426
-5.50909
-8.09092
-181.69
183.69
-27.8508
7.53201
-8.76955
-194.922
195.392
-28.6368
9.91314
-6.34617
-203.655
191.788
-9.24672
7.84599
-13.2847
-186.377
169.668
1.16227
16.7896
543.769
8.27889
42.0696
-161.484
-150.715
-142.814
-135.422
7.71195
6.90314
6.39912
527.674
16.0576
18.7227
525.894
-13.7894
4.5442
537.062
-30.1912
-0.328972
554.816
-63.5131
-3.60386
-69.6814
2.14921
445.614
272.361
3536.65
350.019
558.759
645.121
534.763
93.3476
-110.781
538.617
50.3668
22.5285
128.17
-28.5739
-52.677
125.805
115.998
111.861
5.76686
147.802
31.5143
-6.52254
-0.788966
-11.8123
-43.5285
40.9436
14.9091
0.277089
3.05874
-38.4772
-1.66556
37.299
3.07422
-3.28923
0.839513
-41.938
2.70817
41.9217
-2.64173
-0.889664
-4.10362
-44.6056
7.89915
43.1391
-6.49708
4.16804
-6.19256
-43.0106
9.2506
40.7495
-7.07177
6.27479
0.0818029
-41.1396
9.04152
40.1168
-7.97137
-0.129184
4.00831
-42.105
3.60859
40.863
-2.48783
-3.88701
1.70905
-40.408
-1.08129
38.6406
2.46785
-1.32821
-38.0616
-3.09942
137.845
16.0315
3.64803
-36.3965
-36.5787
-35.1095
533.132
17.9226
-3.10417
-138.101
-134.34
-130.354
-127.652
546.31
-27.6005
-7.80775
560.101
-47.7035
-4.66818
568.259
-72.1409
-5.11034
-74.5265
-3.23647
-3.31438
803.479
2792.78
293.547
169.447
-61.9528
568.563
-191.071
-28.3255
601.419
-24.7996
-42.4987
120.982
48.6255
-28.3311
131.433
108.555
119.96
23.5415
-26.7331
132.433
24.5599
-32.8192
0.33512
-9.01957
-36.5318
39.4549
6.70484
-0.943434
-2.90582
-1.40499
-42.3531
42.6886
0.949186
3.02608
-4.44704
2.84745
-42.1923
41.5511
-2.04922
4.28997
-0.211252
3.61155
-39.235
38.7063
-3.02004
0.148429
3.11138
6.88348
-37.5172
37.1955
-6.91331
-2.75979
0.69141
8.95412
-37.1729
37.2429
-9.02163
-0.693909
2.41684
2.5161
-36.9504
36.776
-2.14411
-2.61448
1.8277
-2.27889
-36.1898
36.0216
2.48603
-1.86657
-35.7261
0.0113461
-14.9321
140.976
14.9285
0.0121399
-35.6985
-34.7538
-34.8177
567.386
7.19478
-12.7306
-140.725
-143.797
-134.501
-137.434
569.531
-32.8139
-6.61974
566.741
-48.5374
-2.16778
559.299
-66.4752
-2.10638
-71.2143
-1.73058
-395.156
-443.104
-3651.48
392.683
-517.352
-163.031
702.437
-344.873
70.0912
714.014
-12.3935
72.0966
154.32
158.588
150.664
158.023
143.249
146.534
-7.88662
-21.9678
157.917
21.3163
4.94132
0.105827
-4.3923
-38.5606
39.8785
2.73599
0.232493
1.7083
-0.413388
-40.6378
41.228
-0.110228
-1.77493
2.44303
1.93116
-42.707
43.0701
-1.9913
-2.74595
3.13238
2.77402
-43.8843
43.9386
-2.71752
-3.24314
1.16539
7.21995
-43.8527
43.5034
-7.08896
-0.947086
-3.84803
8.41989
-42.1882
41.2384
-7.52911
3.90712
-0.165247
0.583934
-39.2066
38.9029
-0.0762869
-0.038753
1.0887
-3.07301
-38.1307
38.081
3.22647
-1.19247
-38.1378
0.131604
-14.6767
150.78
14.2103
-0.0171371
-37.9069
-37.3011
-37.082
577.916
1.53341
4.30763
-149.787
-147.209
-142.481
-139.858
566.759
-25.3828
5.04378
553.988
-38.3002
2.60466
544.632
-57.4598
-5.22138
-67.2062
-5.24907
254.247
-1110.49
-3921.09
570.239
-851.511
1191.65
547.785
-130.878
510.178
466.229
126.177
64.3076
111.212
158.257
89.6715
125.483
102.899
115.651
10.7192
-31.4633
134.55
15.936
-18.5293
2.71305
-0.7719
-40.5726
43.8276
-1.75906
-3.43703
2.25565
1.90856
-46.7507
46.8903
-1.99929
-2.30447
2.06882
1.95119
-46.7439
46.687
-1.84846
-2.11462
0.963135
2.7719
-46.2216
45.954
-2.71872
-0.748727
-8.16595
6.84666
-43.2775
41.7137
-6.11137
8.99446
-2.79234
3.91602
-36.3358
35.3306
-2.92452
2.80604
0.885839
-0.692009
-34.3083
34.4549
0.640483
-0.980872
0.58009
-3.13596
-34.9596
35.2634
2.82134
-0.56921
-35.5269
-1.11843
-11.3641
143.66
4.06275
3.10841
-34.4909
-34.6337
-33.6974
551.085
-7.04464
16.7052
-141.798
-138.173
-134.612
-131.727
549.636
-26.0954
10.868
545.85
-35.7164
3.80039
543.552
-55.2213
-7.23351
-66.6453
-8.46925
572.968
-499.593
-1938.36
617.319
-831.423
227.65
625.815
-171.971
326.9
693.223
98.3047
101.515
730.226
113.474
95.8994
173.586
-126.073
23.1833
12.3284
61.3353
25.3584
72.9047
175.44
159.74
161.901
6.30906
-9.94182
171.164
-22.3469
9.83339
5.17992
7.28001
6.10798
-0.495389
-3.28269
-152.571
154.563
-2.10725
2.70347
0.408381
-0.101574
0.882334
0.375422
-4.79409
-164.423
170.063
-11.3804
5.89906
1.54857
0.762387
1.94865
1.08055
-19.0655
-152.835
139.945
-2.55285
25.3424
3.15966
1.46079
3.46406
1.75444
-27.7581
-131.359
127.503
-5.95382
28.8479
2.60133
1.77035
2.59366
0.161164
-7.16441
-114.283
113.483
-2.04675
7.56778
1.16027
0.065532
1.05667
-0.454192
-0.295909
-114.024
119.005
-4.40383
0.655216
-0.00269879
-0.496549
0.0167509
-1.39416
-2.06946
-117.133
123.411
-3.45206
3.09892
-0.704687
-1.26812
-0.489248
510.992
-17.575
16.6532
-3.47853
-1.59409
-1.31872
0.688101
-125.473
-124.318
-120.311
-119.051
530.085
-25.5183
16.3101
538.597
-35.6342
9.11601
546.413
-44.1934
2.50239
552.058
-60.1885
-8.77933
-68.4603
-10.358
790.21
-733.491
-3522.06
289.038
-605.156
121.843
486.349
-210.783
-86.3184
546.149
-5.83373
112.809
618.069
29.1966
130.019
576.794
-83.0806
9.2897
535.725
138.495
5.84819
-8.63893
-39.5076
-9.10091
-40.43
500.001
-63.7031
37.1682
6.20225
32.5839
10.714
36.3787
475.29
58.7342
33.4834
1.32847
-19.0981
2.02403
-20.7081
465.19
-21.9294
54.8368
-2.27302
13.3796
-0.612236
15.7628
477.002
11.6086
28.2658
-2.42484
-11.5051
-1.66742
-10.8689
486.247
-29.4
19.3486
-0.912063
9.48659
-0.454672
9.73189
504.362
-23.1862
13.1429
1.11066
0.641681
1.13536
0.623193
520.568
-43.2872
18.9747
2.70185
8.94343
3.13156
9.53098
539.85
-39.5322
26.5426
559.531
-46.3291
19.4639
574.372
-51.4461
11.8706
583.07
-53.8846
7.02514
588.526
-64.304
-4.94981
-67.4519
-10.2403
2592.15
-49.9755
-609.487
1203.64
256.998
434.632
550.36
229.21
17.9871
431.766
101.863
99.5877
386.005
85.1131
28.2263
348.118
-64.2502
51.5231
453.822
38.8886
-17.6966
417.312
-34.9507
32.6975
466.975
4.18984
15.9696
472.316
-26.9478
11.0301
507.758
-22.5378
2.81407
524.039
-45.1241
-10.9214
545.238
-46.4759
-9.45241
563.404
-64.6267
-6.71988
587.411
-68.3123
4.1998
612.435
-73.8773
11.3922
629.388
-70.7784
13.173
638.436
-63.9131
11.0637
639.281
-64.5098
2.23221
-61.7761
-7.33774
634.573
368.72
-988.347
447.02
284.859
-190.596
426.439
241.998
-158.089
439.726
97.2516
-33.2353
531.952
-6.9193
61.5326
534.82
-68.4646
-0.815328
571.459
-14.798
52.7613
568.641
-36.5611
6.22634
579.162
-10.7123
6.25001
586.012
-31.9063
-20.5257
598.032
-34.4431
-21.6094
609.285
-54.8603
-32.8404
623.308
-63.7012
-26.8408
639.34
-85.3172
-27.6338
659.173
-95.3895
-15.6574
680.53
-99.9181
-2.22719
696.311
-90.4107
8.44501
705.022
-74.8996
14.9893
705.725
-65.7553
9.36542
-56.1784
0.654281
-172.559
1088.29
1176.54
15.793
319.78
-110.604
303.114
181.336
157.792
280.676
91.9337
37.5171
491.681
-151.23
-8.95973
492.523
-99.8413
71.6488
574.415
-118.078
54.8169
592.443
-61.4748
45.4131
632.259
-55.5494
30.9684
645.483
-39.0585
-9.03011
664.49
-48.5366
-23.7868
673.923
-55.018
-47.5681
687.327
-75.0887
-43.6956
698.895
-102.189
-53.4654
715.567
-119.578
-34.5621
736.104
-122.449
-7.80422
748.714
-107.448
11.5566
751.362
-82.0084
17.634
749.224
-64.7655
16.3466
-49.6708
6.16079
1540.48
913.365
-233.903
1584.15
646.216
-662.463
1650.86
306.779
130.576
1620.87
133.835
227.601
1410.44
-27.2055
280.603
1286.75
-30.1912
99.1925
1162.54
-53.6117
93.3999
1096.1
-16.4371
30.8615
1029.88
-1.73244
46.8169
978.467
15.1768
15.1664
928.04
5.62996
12.7168
892.284
-7.22333
-21.8232
860.269
-35.7063
-26.4017
840.308
-77.2945
-25.8085
833.036
-110.492
-8.65336
827.228
-117.199
2.05029
812.339
-96.725
12.8438
793.738
-66.907
14.1784
776.341
-49.4494
13.0793
-36.2089
1.7743
679.269
-113.248
-1767.78
1016.29
287.151
79.0619
1120.21
136.094
205.662
1194.61
31.5812
90.1753
1061.34
-18.6501
275.379
1030.01
-25.2443
111.779
975.761
-39.8331
136.79
965.733
-13.4284
29.5362
952.753
-0.851891
22.9591
949.555
30.7175
-33.6568
937.977
36.6587
-41.4185
930.611
37.9915
-67.1987
919.526
18.0979
-60.7028
904.268
-17.8326
-80.0902
889.676
-81.8627
-67.7654
871.91
-102.67
-27.5565
841.931
-76.0879
-2.29707
813.947
-44.3909
7.40147
790.294
-22.3656
18.3888
-11.0672
5.72044
830.348
14.1607
1518.35
-785.137
1570.78
-261.718
1603.12
-223.451
1487.96
-44.7372
1438.7
-90.9985
1340.98
23.4016
1295.35
11.3058
1260.03
75.9404
1264.68
97.8281
1278.82
113.333
1304.17
112.346
1315.35
97.1958
1293.99
64.6042
1197.47
36.7167
1069.87
7.30434
967.211
-9.79216
902.42
-21.2531
866.548
-14.3687
-14.8567
1781.14
-1220.56
-3289.79
1973.25
-213.779
-93.5622
1683.98
218.25
-412.288
1463.55
119.789
-238.672
1183.2
152.832
-188.059
1066.51
46.5132
-116.213
963.849
45.9939
-6.07234
933.011
8.89877
-4.37257
900.484
18.6277
44.5865
898
4.12895
26.488
892.987
10.3248
25.2529
900.369
6.43618
2.32286
898.598
12.5833
-3.90097
893.946
12.6922
-20.9908
869.205
23.2307
-18.0151
828.01
31.1838
-16.0754
771.645
40.8418
23.3595
732.811
34.9682
33.7516
719.48
12.7735
39.1893
-4.54334
22.4679
729.915
-1120.28
-1785.19
567.003
-49.0669
-958.878
600.65
398.163
-148.17
572.469
208.86
17.7038
543.025
183.081
24.0456
489.156
107.402
94.6837
515.591
48.4954
132.328
504.446
49.7919
79.9057
520.857
16.8992
62.976
517.445
20.7346
0.750712
521.016
7.58732
-21.3584
519.532
7.03882
-58.0316
520.72
3.64315
-62.1302
519.863
3.02316
-74.7696
519.619
2.97827
-61.5574
517.797
4.98801
-55.8767
516.312
9.08259
-29.1122
518.764
10.9453
-4.14305
529.114
1.95413
18.7862
-7.08979
24.243
-53.0796
-695.405
-1200.9
-140.864
-4.71931
581.644
333.283
205.621
-85.1561
245.732
231.947
163.151
402.608
71.1263
10.9295
378.365
122.402
5.75576
404.004
22.0143
58.5213
381.41
74.2167
5.69564
389.552
15.4165
27.6085
380.051
34.6764
-9.96063
387.896
-0.0587142
-6.19059
390.866
3.1293
-20.3498
399.927
-8.81048
-12.5269
405.929
-5.53546
-14.7991
414.4
-9.25779
-5.56359
422.171
-3.96588
-0.915239
433.381
-3.59135
9.8789
444.901
1.27825
13.8738
456.997
-3.0095
16.1047
-10.6332
19.4821
2524.31
1009.26
-162.473
1559.08
651.955
169.482
1017.4
602.047
208.683
781.851
400.755
111.963
544.244
280.658
54.5814
441.251
208.721
-10.4466
374.544
86.8608
37.4639
331.135
119.375
0.883397
339.197
15.0086
25.9306
325.791
49.6436
0.112281
340.999
-13.8876
6.3441
344.476
0.644607
-0.379161
358.678
-22.7032
5.20129
365.329
-10.675
1.6293
376.901
-19.9112
5.24188
384.631
-10.4907
2.52214
395.519
-13.9819
5.33296
406.33
-8.63189
4.1008
419.52
-15.3561
2.87835
-20.3544
11.5448
584.545
1337.87
486.597
299.749
653.867
136.272
227.83
420.971
-214.919
280.067
321.102
45.7237
321.421
259.954
34.9311
299.761
235.528
1.65072
335.995
66.0404
48.5238
323.515
138.175
-2.49541
338.585
1.79324
17.414
340.012
47.8877
-1.54565
354.431
-28.6803
10.5768
363.71
-6.71187
5.52053
377.7
-33.9321
14.7218
386.041
-15.1447
9.09317
395.593
-26.6178
10.7794
401.375
-14.2907
4.14083
408.944
-20.783
5.11826
415.938
-15.4116
4.10358
425.959
-24.8528
1.59513
-28.5705
9.58411
-348.983
1392.65
-1279.05
-42.8501
349.133
-365.514
-1.9243
235.552
-314.017
101.443
189.114
35.764
193.719
171.085
-63.0264
187.116
229.041
32.2998
320.17
-48.9344
-11.9786
297.862
162.92
-1.06026
329.384
-34.4086
-3.87145
337.059
33.1013
0.453047
360.108
-56.7959
2.18502
371.501
-17.6654
11.4135
388.776
-47.8419
17.6431
396.929
-16.9917
21.4048
405.871
-26.714
22.6825
410.689
-14.0282
11.3057
415.016
-21.7313
9.01292
419.945
-18.8386
5.65573
428.726
-32.1885
2.51807
-36.1618
11.2438
2215.63
2170.25
66.8156
1418.38
658.776
-93.79
602.971
637.414
-329.977
479.285
211.125
-48.1939
410.323
202.703
-52.2732
327.333
291.305
-30.9951
335.716
0.00980012
-26.6411
-30.8706
-5.97036
-34.6686
341.618
25.675
-26.8113
48.6246
27.2411
48.0065
366.649
-6.5801
-40.8385
-26.8986
-10.3549
-28.6931
407.18
-11.6265
-16.0746
-0.915182
-9.81831
2.8621
436.762
-23.7858
6.87608
-24.8239
-21.1035
-22.6612
449.439
-16.5172
30.0273
-3.42329
-12.6681
0.238
448.578
-11.4522
32.2524
-9.12415
-9.67588
-8.29597
446.22
-3.78056
38.1712
2.05256
-1.99336
3.12473
443.433
-10.7006
30.344
441.548
-3.28521
18.0842
442.672
-16.7523
14.4027
446.431
-19.4165
8.64595
456.728
-40.2163
5.42877
-43.2264
13.2129
-193.941
476.938
-2369.52
-351.67
601.668
574.066
-76.0253
333.656
-120.39
33.7148
39.7834
165.126
317.767
-57.3413
-24.2626
81.8834
50.7301
9.35973
86.0113
72.1074
75.2745
86.2164
51.6802
85.5157
6.93912
69.003
16.9853
-11.0342
19.2901
-59.2017
72.6965
8.84539
-15.9553
15.9788
-102.773
99.7657
-4.24489
-15.3067
4.04846
-106.815
114.319
-21.3266
-1.85204
-6.70871
-133.666
131.849
-20.7823
5.52245
-9.76016
-139.328
137.123
-14.9314
10.3799
-8.4577
-143.209
131.473
-0.143199
8.88543
-16.8966
-129.741
120.533
6.83693
15.4865
439.351
5.18313
26.7353
-120.769
-115.67
-109.156
-105.131
4.00509
3.84775
2.97276
441.684
1.30697
11.7975
446.966
-21.6294
4.1396
456.973
-31.4893
1.73706
468.872
-53.0584
-2.66122
-52.6122
6.86506
66.3358
-296.312
1762.26
169.896
860.743
282.485
375.418
374.358
-357.005
356.743
79.8337
1.15345
88.7389
-45.6132
-25.8116
83.4842
76.1233
69.8033
0.105392
104.909
33.1364
1.31866
-1.61589
-7.56466
-32.1281
29.5516
10.81
0.947085
2.74286
-27.7711
2.14818
26.8365
-1.26725
-2.68921
0.572285
-31.4957
5.33082
30.9923
-4.82913
-0.570639
-3.67966
-32.7217
7.97106
31.598
-6.56909
3.40135
-4.78434
-33.8936
7.2578
32.8657
-5.72299
4.27747
0.755976
-34.211
5.09596
33.0633
-3.99734
-0.706879
3.20735
-33.6634
0.813291
32.2099
0.140701
-2.70788
0.375504
-31.4074
-1.7481
29.9387
2.98987
-0.148582
-30.7499
-2.89369
113.788
11.5831
1.69869
-29.8064
-29.6574
-28.7787
456.061
-6.34268
-2.44774
-116.81
-115.57
-108.937
-107.75
464.375
-36.9895
-0.761582
472.416
-45.495
1.29706
477.597
-59.4028
-3.94734
-57.2069
1.35036
388.957
-166.834
884.469
403.538
779.463
4.74696
472.091
227.876
49.6036
447.13
97.1991
-34.904
81.4838
32.2797
19.692
92.6441
68.3251
78.7614
29.8145
-19.8469
92.5816
9.21389
-30.2793
0.0521496
-5.92233
-27.7824
30.7433
2.8957
0.013611
-2.71351
1.5243
-32.943