/*--------------------------------*- C++ -*----------------------------------*\
  =========                 |
  \\      /  F ield         | OpenFOAM: The Open Source CFD Toolbox
   \\    /   O peration     | Website:  https://openfoam.org
    \\  /    A nd           | Version:  10
     \\/     M anipulation  |
\*---------------------------------------------------------------------------*/
FoamFile
{
    format      ascii;
    class       surfaceScalarField;
    location    "5.6";
    object      phi_0;
}
// * * * * * * * * * * * * * * * * * * * * * * * * * * * * * * * * * * * * * //

dimensions      [0 3 -1 0 0 0 0];

internalField   nonuniform List<scalar> 
38556
(
44.2434
355.097
-708.919
162.961
306.181
-424.899
631.645
138.632
-607.315
851.136
87.2398
-306.731
916.578
176.968
-242.41
920.964
138.047
-142.433
844.923
139.064
-63.0238
803.098
71.0251
-29.1991
758.854
35.6372
8.60608
752.69
-9.35433
15.5185
756.359
-23.8477
20.1782
781.328
-43.3654
18.3968
810.306
-41.1476
12.1695
858.824
-47.7844
-0.734136
916.937
-48.2912
-9.82091
970.354
-34.6326
-18.7848
975.693
-3.28495
-2.05388
929.21
30.8325
15.6506
857.721
54.2111
17.2776
34.1614
-1.69057
1522.75
515.239
-2096.72
1724.47
727.024
-622.561
850.554
534.08
478.463
579.441
224.291
134.061
532.083
170.52
53.8056
491.17
99.8134
79.1464
459.74
40.8118
129.683
428.951
11.9811
89.8325
422.367
-21.9766
64.1983
416.988
-20.3928
16.4176
427.911
-23.2228
-11.5485
440.594
-16.5179
-39.5301
461.582
-12.8204
-49.3154
481.925
-6.28782
-61.8395
502.425
-4.55801
-64.2337
530.713
10.2607
-73.1805
572.296
21.6481
-66.5165
606.378
36.8675
-40.1164
618.032
35.0706
7.48669
8.69545
21.2992
1127.59
641.795
-794.476
870.955
523.485
460.168
503.723
307.389
593.923
431.616
195.831
100.567
491.736
66.5781
43.8223
513.156
86.9632
-8.57011
496.84
26.8738
30.2543
457.673
42.314
8.83422
405.038
3.24987
27.4086
374.047
10.4559
0.142487
366.01
-11.565
-3.62045
371.656
-7.92513
-14.2388
387.077
-15.337
-12.9049
404.342
-10.9912
-12.5614
420.898
-12.5185
-8.59499
437.413
-5.03188
-1.22284
454.627
-1.07879
5.51265
470.552
9.59634
11.3468
481.276
5.15928
19.1868
-13.86
14.9229
1327.01
-150.326
-401.319
1363.19
387.436
99.8755
1111.89
522.029
36.6542
965.186
372.326
-29.7888
743.218
313.222
-24.6767
623.924
240.343
-34.0862
499.687
136.629
14.4819
412.798
123.075
6.128
342.663
40.2228
33.1619
304.462
41.828
6.82972
303.915
-17.8661
6.84738
307.979
-13.9322
1.94331
325.637
-37.0573
4.06211
338.501
-27.4562
3.60091
354.558
-34.0576
5.48207
365.872
-20.3613
4.01514
380.311
-20.0086
4.49092
398.075
-11.284
3.11675
419.99
-18.4558
1.70009
-32.8469
1.61387
-600.897
-2065.86
-1358.66
-327.7
12.09
102.149
418.864
272.884
-497.418
473.484
309.003
8.70264
475.369
275.971
35.3652
445.363
250.124
20.2255
419.083
112.645
50.2639
396.286
135.216
10.6556
382.534
39.6969
14.2776
379.364
45.3543
-0.355775
387.968
-30.8912
4.4205
399.607
-31.8858
6.31496
412.138
-62.763
13.1746
422.195
-48.7466
11.2327
430.483
-53.2277
10.8829
435.906
-30.8423
5.05734
441.1
-29.1815
3.9791
447.383
-19.4122
1.84568
456.074
-27.0529
-0.0940726
-40.9049
-1.03225
-228.847
-965.042
-527.048
-288.969
29.5304
42.6812
68.2223
191.748
-276.054
150.817
224.329
2.07898
251.232
189.156
-13.5994
245.258
227.903
28.1949
349.052
18.2729
-9.42189
340.205
141.18
2.8823
381.512
19.298
-20.9081
403.292
36.541
-12.9661
436.599
-53.6199
-10.5785
454.776
-53.1967
3.13318
468.726
-89.8284
13.1164
472.074
-74.3871
22.2919
470.163
-79.0995
27.7833
462.887
-37.9732
14.4066
454.785
-31.2456
10.166
451.982
-20.992
4.38294
456.462
-33.9423
2.41
-51.3689
2.08283
410.264
1605.09
1023.39
442.903
721.192
-724.3
614.692
805.547
-785.589
610.875
364.442
-136.296
583.784
282.935
-66.6869
525.099
326.926
-40.339
536.12
36.7721
-32.3727
-10.9389
31.9874
-18.1962
553.573
30.0595
-29.3955
50.0983
27.2167
45.749
592.202
25.4206
-43.2994
-5.8462
18.3079
-13.9142
655.791
6.21647
-32.9225
6.53935
-2.45714
-4.42406
709.341
-11.0436
-11.7229
-29.7048
-19.5
-35.1985
738.797
-25.0597
13.7254
-22.1603
-27.5343
-21.6238
718.705
-23.867
29.6675
-27.5413
-22.2385
-25.7567
669.086
-20.2481
42.0646
-16.806
-16.5586
-13.2202
599.964
-48.6112
38.6337
547.249
-9.57805
24.3197
512.761
-14.9297
18.1725
494.013
-12.2324
9.98832
496.002
-41.1444
5.21276
-67.7835
5.95214
-1247.56
746.996
4061.48
-576.726
557.976
-507.62
-6.46294
262.583
-27.299
163.179
145.713
49.0877
414.45
18.8975
12.7653
116.446
59.8045
-14.3827
118.734
110.248
113.364
95.3832
54.8879
86.8917
108.969
51.1434
-6.89425
-94.5514
111.023
24.6895
-11.102
-138.013
148.729
26.9554
-12.251
-160.872
176.599
-4.66669
-4.84339
-195.615
204.248
-24.1069
4.43093
-212.159
221.091
-39.8543
5.86235
-230.337
230.367
-28.7497
4.85245
-226.577
209.668
-12.5978
9.25853
544.718
9.91788
41.7378
-183.092
-172.346
-160.238
-145.715
4.57735
9.16888
2.66107
476.101
35.3275
23.7114
456.64
1.91032
2.62005
464.827
-17.6828
-2.73611
493.043
-64.5255
-4.8349
-88.5726
-3.30819
-136.78
663.385
-767.513
-150.483
11.8916
559.788
371.823
-73.4676
-186.256
458.419
110.382
-51.265
127.536
63.1041
-98.1997
129.611
128.027
127.238
151.4
41.6317
-5.69103
-16.0127
-42.2187
40.1107
18.5536
-0.433001
-35.2649
-7.39322
35.1731
8.87955
-1.39453
-40.1219
-4.17866
42.636
3.28936
-1.62472
-47.1682
4.35435
46.3482
-5.11836
1.58398
-33.5702
10.3702
30.0017
-9.39659
2.59494
-29.2021
14.4642
30.0838
-15.5036
0.157631
-34.7876
8.78479
36.0619
-8.4781
-1.58095
-38.5177
1.14101
38.8564
-0.642931
-0.836832
-38.0574
138.743
15.8004
2.14689
-36.8023
-37.2471
-34.6655
460.687
53.8025
1.10836
-128.39
-120.975
-118.732
-112.174
471.232
0.40511
-9.03952
497.977
-35.7858
-8.64195
518.688
-79.4239
-5.81248
-93.3407
-7.19709
-477.075
569.522
2503.62
29.3687
-425.402
-69.1495
397.539
-384.378
-57.2594
531.581
70.6411
-94.3014
104.396
179.193
-48.666
112.448
119.819
127.495
-41.0625
111.493
41.1915
-7.22643
-13.7829
-31.7824
35.3152
8.94736
1.30269
-9.66775
-42.6623
43.9994
7.22938
1.10137
-0.371327
-42.398
39.8053
0.986384
1.97757
2.51693
-33.3888
32.9398
-2.05475
-0.0131798
7.13824
-34.4183
34.8983
-5.40299
-2.21524
15.1116
-34.8068
34.6984
-14.4219
-0.581244
6.02094
-33.0582
33.077
-5.04033
-0.999368
-1.02531
-33.719
33.7815
1.90997
-0.947146
-33.3986
-17.8163
128.775
19.8973
-0.977535
-33.0268
-31.8297
-31.623
495.658
59.4149
-12.8503
-125.305
-126.142
-117.041
-119.933
509.978
-4.42117
-9.4934
517.179
-36.7585
-6.22863
511.523
-69.4873
-4.281
-86.027
-5.19402
796.538
-415.692
-2217.8
1216.58
-770.333
-75.1133
996.787
-430.433
265.849
856.842
91.5862
119
131.634
300.024
146.408
133.897
160.652
163.42
-41.2838
125.61
48.0338
-0.726388
-6.02813
-31.0643
31.937
5.8372
-0.681835
-3.09842
-34.9115
36.5505
2.67178
-1.21232
0.887894
-40.9458
41.9474
-0.896191
-0.99333
0.491251
-43.7849
44.1978
0.603557
-1.50771
1.52081
-46.7991
46.7258
-0.770727
-0.67671
12.8314
-41.2302
38.9539
-11.951
1.39588
2.4504
-33.9481
33.1635
-1.95337
0.287564
-3.31405
-32.7866
33.1236
3.44146
-0.464434
-34.0975
-20.6842
134.461
21.043
-0.904467
-33.7791
-33.1084
-32.9305
528.405
52.6157
-3.86783
-133.513
-131.858
-127.218
-125.149
522.425
0.550684
1.00812
508.772
-22.5536
-0.550997
498.489
-53.2902
-5.91489
-76.8701
-7.52835
2875.59
-1227.83
-2921.89
1808.25
-1131.73
1428.74
848.676
-192.998
722.137
558.984
258.121
123.158
95.8011
343.633
77.8499
111.591
108.79
121.342
-59.5287
110.065
46.4855
-1.2202
-7.47258
-35.0926
38.797
5.11103
-1.34276
-2.31402
-44.5982
45.7759
2.14507
-1.00874
-2.64339
-48.0819
48.6373
3.07637
-0.988347
-3.34821
-49.7903
50.4028
3.40993
-0.674265
-0.0978322
-48.8123
46.3911
-0.889465
3.40843
7.0188
-34.1424
31.605
-5.49889
1.01747
1.59022
-29.3235
29.6308
-1.49556
-0.401937
-3.14267
-30.7572
31.1412
3.00558
-0.246844
-31.6511
-20.0841
127.729
16.234
-0.770959
-30.7438
-30.8741
-29.8394
501.862
26.0442
10.5826
-126.298
-123.039
-119.775
-116.761
504.373
-11.0993
9.1382
502.534
-22.9944
2.27998
504.955
-48.1467
-7.56386
-71.7474
-10.5228
1983.93
-1361.26
-3597.15
1311.36
-828.273
369.124
955.975
-114.377
276.761
824.34
259.171
130.584
785.537
298.962
83.4736
191.706
-3.33453
10.8115
-16.5488
28.4341
-24.2282
29.6934
196.356
184.099
188.549
3.95676
191.327
-11.1918
4.38038
-0.0646443
3.30459
-0.0061679
-2.90169
-181.05
184.937
7.47213
1.1744
-4.15552
-2.10869
-3.36708
-1.81269
-195.876
204.836
-3.40765
3.30734
-3.55298
-0.86327
-2.63016
-0.761145
-193.627
176.159
8.59976
11.3389
-1.69634
0.460089
-0.473869
2.57025
-151.106
130.686
-4.85615
17.8412
0.760231
2.87825
1.22543
2.32106
-102.459
93.3677
-2.56049
4.754
1.28369
2.20924
1.08373
1.56546
-91.287
96.4995
-6.42041
-0.220861
-0.623487
1.3063
-0.819516
-1.15502
-95.3752
103.361
-0.661045
0.666886
-2.99012
-1.09447
-2.75211
442.562
-11.8224
16.8173
-9.57739
-15.1859
-5.12409
-10.571
-106.387
-100.555
-100.922
-99.234
470.722
-20.9713
18.8556
486.264
-33.4053
6.76371
502.988
-41.2582
1.54003
519.623
-56.5831
-8.19869
-72.1024
-11.2727
734.422
-33.4863
-3130.84
511.54
-435.821
-169.57
494.147
-212.414
115.431
629.147
50.1575
74.0132
704.04
107.645
116.424
709.645
-25.4876
16.5485
659.694
166.01
5.683
-17.6422
-42.5545
-16.8797
-44.6653
609.311
-16.1755
26.9423
1.3038
15.3389
3.21631
19.7566
529.603
87.2436
34.5688
0.893763
-23.9195
4.52463
-23.6034
480.504
11.8338
49.084
-9.88252
-0.553101
-5.57331
4.19092
458.115
36.6877
24.8624
-1.3471
-18.7773
-0.602685
-18.4342
453.579
-29.6413
18.5843
1.81686
6.15817
2.1583
5.45992
464.212
-29.2761
13.0102
7.23502
-4.23323
6.69815
-4.0675
475.382
-52.7246
15.964
7.16015
5.13825
7.98148
5.31119
493.62
-53.8663
23.8057
517.599
-62.6687
17.7183
539.758
-66.2488
10.6843
555.428
-62.6597
5.73212
571.167
-68.4015
-3.92055
-72.117
-9.35033
914.072
-201.313
-4285.5
566.182
-7.15827
-80.7722
519.12
21.7793
-187.131
412.623
69.5952
87.0596
359.201
120.864
40.2025
336.224
-37.9199
35.4089
439.032
78.396
-15.1938
407.09
-9.35969
25.1253
448.855
38.2065
7.2719
455.389
-9.71471
15.0144
495.384
-8.59702
5.28972
515.051
-39.6161
-9.69183
540.579
-43.3992
-11.4047
568.532
-70.6991
-9.97856
598.51
-82.6046
-1.2397
623.229
-95.4929
8.10458
640.576
-93.8935
10.2983
650.972
-82.6134
9.55782
654.569
-74.4581
2.45911
-66.8253
-5.32705
328.327
-573.827
-1975.9
462.505
323.729
-465.065
501.903
158.668
-176.286
534.59
68.9801
-32.0719
563.17
27.8767
64.4074
550.146
-28.8943
3.99794
563.323
29.7579
35.4615
554.08
-3.4589
3.34158
562.252
27.3631
2.67119
573.185
-4.56745
-16.0799
590.43
-6.66406
-19.1773
609.31
-28.3501
-30.1467
627.615
-31.8287
-29.8748
655.115
-65.6015
-32.5975
688.455
-92.5527
-23.3922
713.148
-112.865
-7.32064
727.014
-111.993
4.2335
734.322
-102.203
12.281
737.018
-85.6964
8.54292
-68.4227
2.10811
770.771
-161.547
2589.73
701.129
393.969
-0.597249
300.868
166.854
392.075
254.332
90.5444
24.9714
387.411
-166.277
61.0749
410.184
-89.0268
37.3601
512.603
-107.589
34.928
536.116
-65.161
38.1889
587.024
-52.4286
28.8837
611.776
-26.3599
-2.9595
644.76
-21.0973
-18.55
671.728
-16.7026
-38.6161
703.601
-21.6775
-42.0237
747.275
-50.295
-58.9809
789.203
-92.1504
-42.3305
807.826
-121.289
-10.1989
808.982
-119.915
6.76586
800.89
-107.279
13.1675
789.755
-89.7861
15.2247
-69.8306
7.69853
2997.99
1135.65
586.721
2722.76
841.545
-172.343
2186.42
337.173
366.014
1920.2
112.326
244.444
1603.82
-37.0324
187.128
1495.52
-18.3211
37.5998
1395.53
-38.9927
31.3882
1336.81
-15.0767
8.63941
1244.26
6.5292
33.5968
1160.2
41.9756
15.7205
1070.73
54.4773
13.8969
1007.19
58.7415
-11.9037
964.994
39.6212
-19.1048
939.607
-4.54051
-20.3668
921.796
-67.6013
-6.73847
902.578
-103.385
1.31312
877.403
-103.223
8.48284
848.055
-88.6062
10.6741
819.536
-72.2106
10.9444
-56.7611
2.77774
849.551
79.0864
-2786.53
893.305
633.737
164.054
971.406
70.5397
188.532
1116.25
-101.819
69.3003
1057.04
-126
148.181
1053.6
-97.6418
82.7594
1002.38
-82.0679
94.297
999.06
-32.1493
20.3896
983.562
12.1053
9.92187
978.626
68.2531
-21.341
958.011
96.7854
-21.6932
937.677
108.21
-29.1346
900.4
94.814
-17.916
872.982
58.9516
-36.0733
874.907
-15.8868
-53.6405
880.665
-78.3852
-30.7569
877.314
-88.4628
-11.4092
862.85
-76.6874
2.54454
832.605
-64.0385
22.0732
-49.233
13.9464
-157.687
1178
731.456
-255.406
1119.38
-317.386
1232.96
-215.393
1246.47
-139.518
1262.42
-113.594
1212.82
-32.4591
1199.39
-18.7186
1168.16
43.3343
1163.6
72.8122
1169.54
90.8469
1178.56
99.1864
1183.55
89.8196
1181.82
60.6864
1144.15
21.7871
1083.69
-17.933
1031.74
-36.512
996.8
-41.7449
960.647
-27.8859
-22.3235
1585.26
-465.856
-2173.52
1629.19
-47.7076
-421.122
1126.31
331.133
-435.567
985.28
152.726
-318.427
895.354
151.581
-304.064
867.202
61.5925
-175.875
808.812
56.3182
-60.9513
787.303
15.6122
-23.3028
756.104
10.6172
29.1885
753.64
-9.52182
27.5045
755.565
-11.291
29.5445
776.544
-19.414
16.8315
797.642
-16.3783
7.45013
825.786
-16.6034
-12.2749
844.132
-8.6947
-19.4724
848.432
2.82891
-25.9129
814.264
24.556
7.55742
756.694
44.1251
29.0955
704.564
31.7939
37.6141
3.28413
13.5003
-379.106
-516.444
-3910.15
81.3266
-95.8637
-1034.84
372.145
379.169
139.609
387.291
172.895
98.7466
428.857
135.723
28.0976
387.289
80.3689
101.938
395.598
28.7687
148.924
380.786
20.5961
99.6603
391.777
-6.12598
69.9506
391.488
-3.57956
10.7649
401.002
-10.54
-21.8134
408.489
-8.63915
-57.7916
420.337
-8.15048
-69.3915
431.485
-6.07726
-83.5132
443.794
-3.9467
-81.2915
453.982
2.15935
-82.6984
465.312
9.56722
-62.8577
477.27
19.037
-26.9862
487.695
11.6342
17.2217
-5.96334
22.7525
-198.915
-294.513
-1581.68
-291.413
71.4143
385.387
285.991
190.938
204.752
257.991
183.293
118.169
349.776
50.1143
37.6463
337.151
80.5805
3.84345
335.302
11.0596
49.8124
309.424
44.0648
11.243
297.384
3.85172
29.4712
285.677
15.0379
-6.7685
290.855
-11.1014
-8.23701
297.628
-8.81746
-20.834
311.692
-18.2484
-16.8709
324.258
-13.9445
-17.2602
337.763
-15.7546
-10.2916
350.347
-8.88608
-2.76093
364.851
-6.11942
6.69466
380.023
1.77748
13.4352
393.212
-2.93509
20.5663
-14.599
14.1332
1296.4
152.21
-624.305
1351.99
296.741
-181.036
1057.73
487.022
34.823
805.873
365.512
39.8525
538.684
266.056
26.5698
411.752
191.225
-17.7975
317.399
84.0653
35.8286
261.567
97.5594
8.46605
247.656
17.3612
33.5631
231.68
33.3363
4.50746
244.501
-22.6073
5.53195
250.168
-13.4285
0.887182
267.175
-35.2685
4.07535
277.635
-23.2574
2.45377
291.812
-29.9389
5.48903
301.521
-18.1224
3.54304
314.08
-19.4588
5.27136
328.208
-12.3719
3.13756
345.261
-19.6883
1.40134
-27.7574
1.09225
-546.902
-360.207
-2611.33
40.1942
51.6214
-239.828
223.147
283.225
-476.573
296.503
286.02
14.8384
302.574
245.079
50.2711
274.807
219.576
19.6408
281.469
70.2846
57.3831
265.084
116.999
7.60029
270
12.5584
14.1644
270.298
33.7998
-1.11653
284.937
-40.1079
7.28112
296.47
-26.2801
7.63413
310.718
-52.9967
16.6548
319.952
-33.9523
12.6936
329.011
-41.0814
12.9666
334.569
-24.4008
5.7777
341.419
-27.5229
5.19319
349.261
-21.0237
2.65622
360.159
-30.4051
-0.275143
-37.2603
-1.51892
-786.972
183.197
-1372.68
-365.097
51.0247
-378.598
-74.0174
170.895
-454.804
36.8399
183.613
-6.37111
145.007
160.767
-37.4551
148.183
210.96
33.6356
255.025
-31.1621
-14.8181
236.565
134.466
3.87543
274.405
-25.9868
-20.2034
284.47
18.6975
-7.92876
311.359
-71.9207
-5.65443
325.953
-48.1552
10.4148
342.026
-75.6278
19.6739
348.202
-45.4796
27.6435
352.648
-48.6396
30.8949
353.262
-26.6066
15.9992
353.313
-28.7472
11.3389
356.211
-24.6791
5.14071
364.702
-38.3436
1.85756
-46.6725
1.50904
1601.21
3222.73
-299.186
982.606
591.682
-646.351
476.112
686.561
-794.76
422.639
258.804
-158.014
390.326
210.879
-84.4854
317.309
283.76
-40.1225
327.004
17.7815
-40.7684
-29.5566
12.3382
-33.0245
335.497
23.9594
-30.0984
40.9999
23.1441
38.5729
369.252
7.05827
-56.4131
-25.292
1.79514
-30.1898
423.136
-10.1932
-24.4422
-10.5021
-12.4396
-10.532
465.273
-25.6895
0.668529
-38.7981
-25.387
-36.5747
483.442
-25.9716
28.2614
-18.4574
-21.986
-14.4451
469.93
-17.584
40.0762
-21.8419
-13.9839
-19.1149
445.831
-9.56534
51.2661
-8.0193
-6.58865
-6.40862
420.301
-26.4149
41.9389
402.336
-10.7463
26.4238
392.569
-19.6367
18.8293
390.934
-22.2791
9.22301
400.445
-48.8729
6.23096
-57.8009
5.67455
331.318
1752.61
254.308
-618.203
712.928
320.655
-124.108
294.394
-129.228
22.1758
93.9393
67.6683
284.665
-55.5536
16.7087
77.8077
48.2627
0.593225
83.0467
68.3966
73.225
78.021
48.5889
76.1007
5.79949
69.6449
30.9918
-10.8469
16.3898
-54.9889
72.0057
10.2451
-19.6923
14.909
-97.1908
103.55
4.36762
-18.5775
5.51388
-111.398
125.718
-24.3647
-5.66203
-8.11386
-142.734
150.108
-32.3878
7.43805
-8.71785
-155.794
161.421
-32.673
9.79198
-6.3033
-165.327
158.353
-12.0525
7.74556
-13.5216
-147.776
135.992
-1.7215
17.4618
396.759
9.64394
41.6454
-124.677
-114.032
-106.49
-99.1284
2.41352
8.23632
0.952251
381.653
10.454
17.6172
381.49
-19.655
2.80107
394.014
-35.1283
-2.41088
411.942
-67.2906
-4.34458
-71.5711
-3.26664
77.8845
55.8379
2453.69
199.676
497.948
652.976
377.931
98.615
-168.732
384.241
38.2743
-1.91028
92.4163
-44.5051
-62.5466
88.7822
80.8563
75.4846
4.26035
114.662
26.835
-5.07806
-1.31542
-11.7565
-34.0136
32.4546
13.8029
0.827946
3.26153
-29.3023
-1.91877
29.175
2.41393
-3.62933
1.04326
-33.013
2.99059
34.0304
-4.10383
-0.947445
-4.2265
-35.5899
7.85441
35.2654
-7.58704
4.28361
-6.10477
-33.9482
9.03331
32.9852
-8.12301
6.15747
0.148849
-32.2485
8.70459
32.5355
-8.8813
-0.259142
4.0685
-33.4088
3.1483
33.245
-3.10302
-3.94998
1.70401
-31.6176
-1.46719
30.8065
1.85825
-1.28401
-29.021
-2.40804
106.45
13.1793
2.99722
-27.5758
-27.616
-26.3621
391.442
13.3835
-2.6159
-102.912
-99.4401
-95.4014
-92.8937
404.55
-32.7922
-9.00999
419.175
-52.3347
-6.06116
427.39
-75.7027
-5.61582
-76.4702
-7.78519
-259.649
514.337
2713.54
119.634
56.5721
-7.05615
427.915
-267.494
0.568447
464.818
-47.1309
-45.799
88.6175
43.7634
-22.193
98.0921
76.4873
86.8798
21.0053
-22.0802
99.1748
20.4583
-29.9408
-0.167601
-7.30648
-27.8745
30.4194
5.35833
-0.429154
-2.27891
-0.868394
-33.4163
33.825
0.16661
2.57199
-4.16018
4.26281
-33.4751
32.8722
-3.39603
3.89631
-0.157927
4.87888
-30.7671
30.3324
-4.27138
-0.0149089
3.25897
7.95139
-29.2301
28.8926
-7.95681
-2.91607
0.828952
9.83173
-28.852
28.899
-9.87319
-0.834496
2.46342
3.21593
-28.595
28.4395
-2.85608
-2.66772
1.84868
-1.88629
-27.7227
27.5442
2.1054
-1.88932
-27.1537
1.00668
-12.7477
106.488
13.0011
-0.801272
-27.18
-26.2597
-26.3536
427.533
2.84914
-11.5125
-105.969
-109.386
-99.9387
-103.043
429.517
-37.2196
-7.04979
427.129
-52.6987
-3.4766
419.714
-69.7773
-2.79118
-73.0827
-5.96943
-363.274
-541.47
-2927.67
311.182
-565.949
-127.048
579.142
-373.081
103.476
585.402
-17.3735
82.9821
123.301
140.393
159.691
125.166
112.668
114.354
-7.84921
-18.9473
124.901
19.0274
6.16873
-0.0255688
-3.61553
-30.5189
31.6659
2.36999
0.124049
1.86835
0.82369
-32.4764
33.1201
-1.34334
-1.99238
2.59065
3.30023
-34.7192
35.0741
-3.33499
-2.91071
3.56927
4.01768
-35.8767
36.0329
-3.94069
-3.80242
1.24211
8.17446
-35.7926
35.3617
-8.01232
-0.973358
-3.77424
9.12263
-33.8716
32.7837
-8.16059
3.90008
-0.258084
1.24961
-30.7612
30.3751
-0.665331
0.0599488
1.13397
-2.67293
-29.5901
29.5513
2.81745
-1.23968
-29.5744
1.02763
-13.0506
116.68
12.6674
-0.847903
-29.4674
-28.7807
-28.6536
440.165
-3.96518
5.16652
-115.496
-113.013
-108.202
-105.674
428.371
-28.8671
4.45044
415.643
-41.9181
1.39564
406.222
-60.6696
-5.60122
-69.0463
-9.051
125.129
-821.442
-3943.69
406.245
-830.262
1411.93
407.854
-158.48
505.927
333.707
111.99
67.941
80.3227
129.912
93.9034
92.6095
72.1069
83.096
10.6289
-26.8273
102.231
14.1044
-19.8144
2.71769
0.157481
-32.7274
35.9215
-3.32407
-2.74517
2.16665
3.39669
-39.1231
39.3299
-3.49597
-2.27411
2.27891
3.29761
-38.9671
38.9223
-3.19605
-2.33563
1.05367
3.95218
-38.3122
38.0045
-3.85344
-0.844666
-8.36503
7.61832
-35.1065
33.4822
-6.80028
9.17127
-2.71957
4.53318
-28.0926
27.1709
-3.6795
2.78755
0.984311
-0.330232
-26.1187
26.2742
0.278025
-1.08754
0.653826
-2.78838
-26.746
27.0136
2.51053
-0.643565
-27.3274
0.165154
-10.1426
110.018
4.59988
1.17583
-26.3344
-26.5646
-25.5895
414.674
-13.493
16.2075
-107.697
-104.306
-100.678
-98.0896
412.826
-28.3751
10.4949
409.075
-38.7896
2.90205
406.581
-58.1657
-7.57395
-68.3729
-11.8336
437.459
-648.131
-2200.35
534.315
-890.513
332.519
522.252
-184.858
315.203
577.141
86.1366
101.549
604.796
94.3846
91.3463
141.961
-161.253
30.6414
24.6004
63.0583
38.9372
75.261
143.602
128.481
130.318
9.41643
-11.5277
138.593
-28.9887
11.5994
5.9102
10.1343
6.82443
1.98701
-3.25442
-119.307
121.937
-8.13776
3.14041
0.291331
2.4161
0.926774
2.87592
-5.99539
-131.826
137.677
-16.5766
7.21757
1.48284
3.22553
1.91895
3.24151
-18.867
-119.507
106.02
-5.84652
25.3868
2.85895
3.58098
3.13173
3.70695
-26.9206
-97.8154
94.1634
-9.43762
28.1445
2.21669
3.72448
2.21762
1.91539
-6.37402
-80.4293
79.2014
-4.37159
6.68509
0.782591
1.87132
0.719101
1.08067
-0.144469
-80.0512
85.4306
-6.53205
0.670177
-0.762261
1.04141
-0.732812
-0.0242459
-1.98535
-83.4572
89.8589
-4.9347
3.37588
-1.59887
0.127243
-1.36159
376.566
-22.4939
19.4732
1.12621
-5.59542
3.46087
-2.41031
-91.7912
-90.0508
-86.6496
-84.8179
394.455
-28.2192
15.6933
403.138
-38.518
8.22291
411.405
-47.085
1.56901
416.766
-62.739
-8.98688
-69.9592
-13.1837
706.963
-284.027
-3445.29
44.4085
-608.113
210.585
342.741
-269.65
-98.1098
420.88
-37.5861
119.597
495.207
0.145446
136.337
451.889
-112.885
11.4978
410.189
121.169
6.61473
-0.546633
-38.7773
-1.45369
-39.6231
372.659
-86.2236
43.1289
16.6789
32.9595
21.4639
36.4648
344.131
47.0225
36.8135
10.8942
-20.7473
11.3806
-22.2668
333.787
-37.8329
56.6963
4.93921
12.8739
7.54296
15.2087
344.046
3.50822
28.3517
4.41024
-13.6838
5.08823
-13.0716
352.202
-38.2839
20.4457
5.849
7.6683
6.83835
7.91056
370.497
-30.3798
14.0502
7.33677
-2.01391
7.33072
-1.60883
385.569
-47.3996
17.9381
8.85853
6.03156
9.13354
6.33011
404.907
-43.2412
25.2152
425.148
-49.5352
18.7931
440.361
-54.2882
11.2413
449.141
-56.3637
6.23058
454.294
-66.464
-5.34841
-68.7545
-12.3107
2167.9
-290.881
0.123621
1011.75
115.661
351.596
399.242
167.241
-11.5122
294.546
54.7355
99.4345
255.319
51.0714
28.5027
221.286
-97.1811
53.7389
328.331
22.5246
-23.5939
289.471
-55.2949
33.056
339.007
-8.98226
13.7411
341.577
-38.9164
13.5276
378.645
-32.3891
4.11905
391.661
-50.903
-10.0883
410.949
-51.3619
-9.71107
429.547
-68.8021
-7.17431
454.254
-71.8496
2.6621
479.457
-76.8709
10.2373
496.432
-73.1569
12.1921
505.407
-65.8538
10.073
505.918
-66.1114
1.596
-62.8734
-8.84394
590.892
-122.173
-1685.55
369.409
162.027
-289.947
320.953
197.005
-157.594
339.757
36.8472
-32.9879
424.782
-45.3454
75.7991
415.861
-90.7072
6.44547
452.79
-32.1048
53.1616
444.614
-50.3127
6.53558
454.667
-23.2383
6.87364
459.108
-41.3197
-18.1175
469.28
-41.725
-20.0129
478.698
-58.9506
-31.5168
491.867
-67.638
-26.7678
507.454
-89.2829
-27.7046
527.209
-98.5804
-16.4159
548.331
-102.37
-2.94455
563.915
-92.2367
7.72998
572.524
-76.3923
14.2097
572.807
-66.9971
9.14593
-56.882
-0.970053
17.354
1163.4
1000.18
-18.9682
261.702
-63.9497
220.664
130.96
218.488
161.673
59.4221
61.3878
368.587
-177.93
-13.2547
371.745
-122.56
66.0548
452.487
-129.35
51.4313
469.409
-72.9776
43.9321
508.013
-63.3981
30.4388
519.227
-45.9619
-9.53115
536.308
-52.7785
-24.5771
544.624
-58.5177
-47.3651
557.467
-78.6527
-43.8521
568.343
-105.625
-53.5156
584.528
-122.116
-34.979
604.567
-124.219
-8.38947
616.749
-108.658
11.0059
619.278
-82.9459
17.1915
616.845
-65.5721
16.2335
-50.2034
5.20572
1613.06
1318.4
317.686
1516.19
666.885
-480.656
1548.89
276.288
187.987
1515.55
104.401
232.807
1302.11
-49.6389
272.277
1170.76
-43.4519
89.8377
1044.85
-61.8623
89.8172
974.62
-24.0973
29.9848
906.743
-8.25731
46.3335
852.22
11.8473
12.4339
800.024
1.2993
12.0156
763.015
-11.3666
-22.0456
730.051
-38.3958
-26.398
709.608
-80.1365
-25.4126
702.189
-112.539
-8.89679
696.265
-118.431
1.44966
680.713
-97.2556
12.6316
661.508
-67.2682
14.2019
643.663
-49.8687
13.0862
-36.4821
0.688389
492.001
-504.514
-1161.58
963.685
202.034
157.221
1040.43
118.434
269.642
1099.33
9.2599
105.535
955.292
-32.7757
275.361
917.448
-34.7967
111.948
859.771
-44.2417
134.354
846.838
-17.9678
27.193
830.485
-4.6201
22.6383
825.361
29.5289
-33.8985
811.908
35.2789
-42.2203
802.662
36.6494
-67.9049
790.11
16.8941
-60.6538
773.768
-19.7639
-80.1039
758.674
-83.9074
-67.1782
740.215
-103.476
-27.2536
709.641
-76.0332
-2.05771
681.532
-44.2734
7.6589
657.61
-22.3809
18.5074
-11.1127
5.27877
879.549
1360.49
1488.21
-662.034
1497.7
-208.439
1512.75
-221.183
1384.57
-44.1194
1328.73
-92.544
1224.89
27.133
1174.95
13.2586
1136.93
76.7299
1140.38
98.8975
1153
113.507
1177.3
111.529
1187.22
96.791
1163.49
64.6579
1064.46
36.9085
935.834
7.217
833.321
-10.0321
768.664
-21.3612
732.849
-14.4515
-14.8619
1530.74
-1202.11
-3842.23
1626.03
-221.511
-294.905
1414.63
168.873
-393.038
1219.56
95.9108
-219.267
968.497
124.989
-177.99
864.288
32.9777
-104.643
776.268
33.2419
-6.17331
750.683
5.49823
-3.21651
725.669
12.7867
41.4157
726.608
2.73069
23.8349
725.714
7.16613
23.2726
735.559
4.47449
2.51211
736.403
10.2957
-3.68946
733.277
10.9209
-20.0705
709.819
21.4827
-17.4965
669.149
29.8877
-15.1305
614.706
39.1095
22.8912
578.286
33.1378
32.3778
566.633
11.2536
38.0128
-6.31033
19.0811
569.851
-1191.6
-1133.37
372.005
-25.9134
-1032.59
401.616
382.739
-103.867
366.731
183.897
45.6445
346.689
147.151
25.9785
303.294
84.2551
94.0558
335.406
34.7769
115.277
331.141
35.0369
74.3865
350.77
12.4339
50.6746
351.076
13.9499
-0.760079
357.692
3.78323
-25.0463
358.006
3.47089
-57.1022
361.693
-0.885332
-61.898
362.181
-1.37522
-71.7042
364.156
-0.675882
-61.1079
362.955
2.60031
-54.2105
363.309
6.4786
-30.5805
367.677
8.61699
-6.83342
378.88
0.385358
16.8868
-8.95128
16.1019
-281.872
-972.64
-2147.05
-345.852
0.581697
422.872
134.283
150.453
-43.0971
114.271
161.074
161.003
227.472
49.1214
22.4744
209.539
88.8556
17.1759
233.881
13.4769
46.77
217.946
54.5334
7.68163
226.445
9.52652
23.8803
220.278
22.5156
-9.16799
229.454
-7.59079
-6.03846
233.191
-3.76773
-17.3325
244.352
-15.6618
-13.2554
251.804
-11.6321
-14.456
261.866
-14.2307
-6.79847
270.614
-7.81386
-1.09493
282.47
-6.55449
7.87191
294.975
-1.10302
10.6507
307.951
-4.97873
12.9538
-12.4072
7.87198
2257.04
949.548
-612.418
1336.25
631.77
108.56
836.198
530.734
154.596
585.77
348.428
102.928
370.218
235.403
55.8397
264.844
175.16
1.27182
210.264
65.8506
38.0341
170.862
95.6664
6.73518
179.365
10.1661
24.4202
168.838
35.9074
1.64277
185.971
-21.9194
2.72783
189.968
-7.21025
0.331957
205.983
-30.7089
3.10768
213.737
-17.9706
1.03799
226.441
-25.4625
4.01695
234.857
-14.9092
2.2223
246.5
-17.5302
4.60499
258.011
-11.2101
1.73326
272.475
-17.8473
-0.193997
-21.8125
-0.822521
53.4538
814.453
-304.746
116.977
430.624
-102.205
79.0622
328.695
-236.62
134.296
267.475
40.5564
166.203
215.333
38.4348
143.696
200.551
16.7571
178.064
43.3675
45.4983
165.961
111.841
3.52845
183.197
-4.29839
11.393
183.73
35.4056
-1.14816
201.113
-39.4238
7.40255
211.45
-16.4755
6.56245
226.845
-42.1319
12.6831
235.892
-23.3317
9.00779
246.435
-32.6183
9.57941
252.813
-19.2241
3.71466
261.011
-24.7534
4.21865
268.923
-18.4188
1.95352
279.998
-27.6804
-1.51782
-30.1183
-2.37971
-229.017
1090.66
-561.815
-83.1929
205.366
-299.164
-109.259
165.224
-265.267
-6.85636
146.308
12.393
54.6108
140.461
-24.0501
61.5964
194.023
33.1775
167.499
-59.924
-17.4286
141.957
135.891
5.36809
178.433
-46.9518
-14.0262
182.366
23.8435
-0.299905
208.387
-70.4185
-0.68003
220.915
-28.5121
9.92261
239.634
-56.9195
15.7425
248.114
-25.7242
21.5566
257.845
-32.9527
21.4986
263.532
-20.1324
11.22
268.369
-26.0665
7.81517
274.238
-22.4016
3.25485
283.915
-35.2799
-0.219943
-37.7078
-0.335341
2409.51
2243.59
1216.69
1342.94
666.226
-40.642
478.348
624.333
-389.275
325.48
193.935
-52.7729
254.882
173.292
-46.7185
168.737
257.262
-17.2167
183.22
3.32031
-31.1817
-39.8516
-3.44867
-44.0137
184.664
24.0226
-19.6009
37.6179
25.2902
37.018
214.937
-5.76983
-43.7112
-36.2669
-9.63752
-38.2514
255.191
-12.2368
-6.44309
-7.67143
-10.4227
-4.07925
287.342
-22.973
6.58671
-33.8355
-20.2465
-31.4321
300.795
-15.169
27.6979
-8.60451
-11.4678
-6.1605
301.247
-9.52857
30.8613
-15.6468
-8.19606
-14.7849
297.495
-2.32824
37.0368
-2.9494
-0.768053
-1.69733
296.465
-19.2576
29.2733
295.41
-10.4109
17.7576
297.289
-21.7998
12.6837
302.311
-23.7928
5.5913
313.11
-43.734
3.88679
-44.9082
2.62276
-187.058
1224.68
-2050.36
-429.661
749.247
480.237
-180.017
322.467
-77.0047
-84.1537
51.3232
114.416
178.624
-77.0967
4.32035
45.0777
48.4967
20.8111
49.9489
36.0105
39.9325
73.7625
49.3621
73.0766
7.98736
36.7516
14.1969
-10.5377
19.6549
-22.3645
38.9086
5.00696
-17.1833
17.2029
-62.1531
64.9257
-9.07918
-16.6661
4.13357
-67.3272
79.3656
-26.2493
-2.15938
-6.35873
-95.5418
98.757
-24.8823
5.05287
-9.6297
-100.689
103.276
-18.4658
10.3404
-8.63367
-105.528
98.1882
-2.98898
9.43379
-17.3104
-92.2512
87.6836
4.05635
15.4935
294.228
6.52375
28.2344
-84.8025
-79.7939
-73.5471
-69.5376
-1.51939
5.20397
-2.60145
297.151
-6.53164
10.8144
303.399
-27.5462
2.2993
314.965
-36.3399
-1.42983
326.744
-56.6388
-3.21834
-54.3444
-2.86254
-227.752
-222.17
1205.56
61.2425
806.748
306.481
235.257
361.337
-381.617
216.836
87.1983
-19.3645
54.6729
-64.609
-39.8097
48.7253
42.5938
35.6195
-0.819702
73.2725
28.5302
2.18665
-1.93401
-7.85767
-23.2156
21.7652
10.0366
1.20549
3.09028
-19.1573
2.32381
19.2321
-2.54468
-2.94421
0.707746
-23.257
5.50329
23.6328
-5.92117
-0.665705
-3.68534
-24.1774
7.93846
24.1698
-7.60696
3.36147
-4.52643
-25.4507
6.99329
25.6035
-6.60921
3.98948
1.02351
-25.7987
4.7149
25.7604
-4.7284
-0.971698
3.1671
-25.3501
0.491917
24.8331
-0.514808
-2.62724
0.275326
-22.9037
-2.07154
22.4108
2.33531
-0.0462067
-22.0189
-2.66644
82.9712
8.92698
1.96774
-21.3582
-20.9543
-20.3444
314.911
-14.0568
-0.00863822
-82.0491
-80.7229
-74.2954
-72.9252
323.432
-42.5536
-2.5241
332.361
-49.9135
-1.41652
336.993
-62.7915
-4.09503
-58.9995
-6.87574
68.076
-394.328
-78.8828
246.617
636.299
-15.1475
333.844
207.891
66.7873
317.848
93.1761
-35.7806
49.4962
24.7581
14.9785
59.6129
36.2424
45.9583
28.6305
-16.2539
60.6337
6.4393
-29.9534
-0.042503
-4.58506
-19.6305
22.2808
2.09235
-0.115029
-2.42823
2.99571
-24.8721