/*--------------------------------*- C++ -*----------------------------------*\
  =========                 |
  \\      /  F ield         | OpenFOAM: The Open Source CFD Toolbox
   \\    /   O peration     | Website:  https://openfoam.org
    \\  /    A nd           | Version:  10
     \\/     M anipulation  |
\*---------------------------------------------------------------------------*/
FoamFile
{
    format      ascii;
    class       volScalarField;
    location    "5.6";
    object      turbidity;
}
// * * * * * * * * * * * * * * * * * * * * * * * * * * * * * * * * * * * * * //

dimensions      [0 0 0 0 0 0 0];

internalField   nonuniform List<scalar> 
12920
(
-0.0272383
-0.0599726
-0.0609085
-0.0760911
-0.093566
-0.117559
-0.149866
-0.190465
-0.233733
-0.271297
-0.297562
-0.313399
-0.322677
-0.327098
-0.330903
-0.33792
-0.351094
-0.366203
-0.384531
-0.40644
-0.0107053
-0.0244833
-0.0633322
-0.131787
-0.170746
-0.208259
-0.245358
-0.289048
-0.322918
-0.336074
-0.32787
-0.308516
-0.29514
-0.28869
-0.296145
-0.315775
-0.352472
-0.404015
-0.459467
-0.515124
-0.0362042
-0.0507795
-0.0831708
-0.117331
-0.13996
-0.161858
-0.19463
-0.243306
-0.302006
-0.351871
-0.38954
-0.412461
-0.436236
-0.458678
-0.484288
-0.509251
-0.536798
-0.571063
-0.614662
-0.664329
-0.0307441
-0.0551063
-0.0728453
-0.0863236
-0.104044
-0.130833
-0.174625
-0.239812
-0.316404
-0.388201
-0.441755
-0.484584
-0.51947
-0.55376
-0.586294
-0.618467
-0.648758
-0.676681
-0.700358
-0.716659
-0.0535334
-0.0590248
-0.0728232
-0.102229
-0.13368
-0.168859
-0.212699
-0.260001
-0.305216
-0.346826
-0.378251
-0.410959
-0.441844
-0.478065
-0.514043
-0.549487
-0.580887
-0.608327
-0.629657
-0.643429
-0.0226204
-0.0500212
-0.0756156
-0.130974
-0.165603
-0.20347
-0.229675
-0.261642
-0.27999
-0.303808
-0.317761
-0.340093
-0.363606
-0.402206
-0.447001
-0.495376
-0.535029
-0.564627
-0.581088
-0.585852
-0.0310221
-0.0353987
-0.0498091
-0.0885307
-0.115446
-0.143697
-0.156684
-0.183095
-0.192795
-0.20786
-0.213883
-0.225025
-0.240833
-0.274401
-0.327329
-0.392852
-0.448468
-0.485059
-0.49641
-0.494384
-0.0321798
-0.0620286
-0.0836262
-0.109657
-0.124994
-0.138708
-0.134878
-0.130942
-0.137296
-0.128223
-0.12059
-0.114116
-0.112389
-0.115598
-0.180866
-0.253317
-0.307485
-0.337027
-0.352693
-0.367716
-0.0419212
-0.0561584
-0.063807
-0.0743228
-0.093722
-0.104425
-0.116571
-0.112865
-0.105963
-0.0979837
-0.0962792
-0.10147
-0.10282
-0.0980523
-0.117949
-0.189327
-0.231454
-0.262642
-0.291388
-0.322467
-0.0248621
-0.0493635
-0.0591315
-0.0712728
-0.100509
-0.105351
-0.108717
-0.105872
-0.102524
-0.0995999
-0.0966197
-0.0960961
-0.104708
-0.103495
-0.109961
-0.161777
-0.202158
-0.239339
-0.278141
-0.320879
-0.0201532
-0.0346456
-0.0534582
-0.0804901
-0.1116
-0.114842
-0.113272
-0.103775
-0.0932143
-0.0873733
-0.0839634
-0.0903929
-0.105336
-0.109932
-0.115485
-0.156606
-0.195181
-0.235
-0.278742
-0.328239
-0.0372133
-0.0484145
-0.0630871
-0.0903993
-0.118315
-0.1155
-0.107946
-0.0954831
-0.0853271
-0.0785918
-0.0782907
-0.106608
-0.122064
-0.116887
-0.122109
-0.155734
-0.197997
-0.245703
-0.296253
-0.349088
-0.0257066
-0.0495104
-0.077093
-0.0997484
-0.12062
-0.135164
-0.129037
-0.116762
-0.111176
-0.112794
-0.137042
-0.170045
-0.174865
-0.159983
-0.218598
-0.260864
-0.30893
-0.352108
-0.388748
-0.423168
-0.0190851
-0.0552504
-0.0879547
-0.109151
-0.126701
-0.146187
-0.161151
-0.187637
-0.212505
-0.253942
-0.298331
-0.342533
-0.376055
-0.403651
-0.429102
-0.453078
-0.473971
-0.490198
-0.498721
-0.503477
-0.0417464
-0.0708662
-0.102888
-0.134586
-0.159068
-0.189728
-0.204634
-0.233926
-0.258361
-0.28268
-0.301667
-0.31212
-0.325324
-0.342385
-0.365945
-0.391787
-0.418919
-0.445262
-0.467886
-0.484558
-0.0232325
-0.047597
-0.0830599
-0.118612
-0.152707
-0.183361
-0.209855
-0.228206
-0.240079
-0.241638
-0.242956
-0.245072
-0.254851
-0.271841
-0.298435
-0.332608
-0.368213
-0.403102
-0.436487
-0.467023
-0.0258502
-0.0651744
-0.096543
-0.143121
-0.160305
-0.18497
-0.201833
-0.216504
-0.224334
-0.224078
-0.220719
-0.218314
-0.223326
-0.236426
-0.262662
-0.298135
-0.334663
-0.370925
-0.406585
-0.440447
-0.0108242
-0.0257648
-0.039206
-0.0579293
-0.0755345
-0.0943746
-0.112475
-0.13111
-0.150443
-0.1708
-0.190325
-0.206186
-0.222453
-0.243352
-0.271145
-0.301589
-0.333156
-0.365944
-0.399413
-0.431697
-0.024203
-0.0362785
-0.051653
-0.0675727
-0.0842691
-0.105234
-0.127065
-0.146234
-0.162087
-0.174551
-0.190118
-0.208903
-0.233019
-0.257248
-0.282437
-0.311603
-0.342724
-0.374413
-0.406633
-0.441234
-0.0449973
-0.0398994
-0.0439542
-0.0548994
-0.0707521
-0.0899535
-0.114282
-0.139546
-0.162064
-0.180823
-0.197454
-0.213899
-0.231169
-0.248905
-0.26599
-0.278701
-0.289453
-0.303664
-0.328288
-0.361675
-0.00896673
-0.0118838
-0.0122881
-0.0168412
-0.0227947
-0.0275007
-0.0299562
-0.0318099
-0.0370934
-0.0433815
-0.0480322
-0.0490952
-0.0480949
-0.0463952
-0.0485052
-0.0544202
-0.0651478
-0.0743167
-0.0744878
-0.0694606
-0.00943745
-0.0200662
-0.0422848
-0.0668258
-0.0804653
-0.100125
-0.113553
-0.105141
-0.0811595
-0.0497181
-0.0323277
-0.0263003
-0.0258913
-0.0284761
-0.0342355
-0.0438194
-0.0592863
-0.0827445
-0.120431
-0.158121
-0.0287773
-0.0372477
-0.0464105
-0.0398982
-0.0406828
-0.0466453
-0.0648646
-0.0671793
-0.0664025
-0.0504008
-0.0432572
-0.0424132
-0.0479381
-0.0573272
-0.0725925
-0.0932996
-0.118593
-0.1418
-0.159801
-0.161541
-0.0252709
-0.0390046
-0.0385156
-0.0294622
-0.0267692
-0.0365391
-0.0623322
-0.0754193
-0.0861159
-0.076442
-0.0758416
-0.0785859
-0.086413
-0.0921376
-0.0970125
-0.099136
-0.0996841
-0.0978512
-0.0964034
-0.0977634
-0.0281355
-0.0207121
-0.0174642
-0.0231294
-0.0377161
-0.0484185
-0.0635139
-0.0623223
-0.063783
-0.0660612
-0.0769941
-0.0853646
-0.092507
-0.0903072
-0.0854402
-0.077136
-0.0720886
-0.0692066
-0.0694139
-0.0716571
-0.0105842
-0.0070013
-0.0102019
-0.0238445
-0.0260076
-0.0384054
-0.0348111
-0.0414927
-0.0479943
-0.0608405
-0.0753755
-0.0922129
-0.106432
-0.112329
-0.110255
-0.0974883
-0.088443
-0.0812247
-0.0763032
-0.0727279
-0.00516701
-0.00398944
-0.00569359
-0.0102227
-0.0125618
-0.0178272
-0.0207007
-0.0276571
-0.0358798
-0.0480423
-0.0632757
-0.0823163
-0.100762
-0.114217
-0.118955
-0.116465
-0.109906
-0.0991227
-0.0877313
-0.0774672
-0.0357793
-0.0133682
-0.0170332
-0.016045
-0.0179557
-0.0201623
-0.0225251
-0.0300434
-0.0367688
-0.0516033
-0.0679727
-0.0775852
-0.0829549
-0.0934218
-0.0853423
-0.0770575
-0.0648932
-0.0568745
-0.0525157
-0.0506773
-0.0158649
-0.0187114
-0.0136784
-0.013084
-0.020648
-0.0245628
-0.0299587
-0.0349238
-0.0496086
-0.0788499
-0.0924918
-0.0888464
-0.0800521
-0.0814577
-0.0875231
-0.0681641
-0.0638391
-0.0599435
-0.0560861
-0.0528667
-0.0324363
-0.0150667
-0.0145906
-0.0140598
-0.0204356
-0.0254778
-0.0385617
-0.0610505
-0.0733013
-0.0664328
-0.0671271
-0.0770796
-0.0667918
-0.0602299
-0.0708602
-0.0623718
-0.0594486
-0.0547398
-0.0497999
-0.0462471
-0.0154288
-0.0163441
-0.0243125
-0.0251605
-0.0264362
-0.0241824
-0.0249333
-0.0251518
-0.0238378
-0.0302344
-0.0497968
-0.082258
-0.083472
-0.0648373
-0.0657253
-0.0578901
-0.0524481
-0.0463244
-0.0415996
-0.0399647
-0.0125163
-0.0256893
-0.0246881
-0.0209498
-0.0221099
-0.0205622
-0.0211436
-0.0231849
-0.026952
-0.0390298
-0.076314
-0.0961732
-0.0768832
-0.0716913
-0.0668181
-0.0473542
-0.0434134
-0.0385076
-0.0358713
-0.0369608
-0.00431676
-0.0186373
-0.0250721
-0.0286934
-0.0303206
-0.0278359
-0.0327751
-0.0369055
-0.0550613
-0.0861703
-0.104959
-0.0766122
-0.0505069
-0.0475878
-0.0557237
-0.0535794
-0.0470849
-0.0395798
-0.0364814
-0.0384515
-0.00969995
-0.0190907
-0.0365683
-0.0411737
-0.0407938
-0.0344838
-0.0369237
-0.0612924
-0.0869486
-0.101965
-0.10137
-0.0992956
-0.100623
-0.10327
-0.104092
-0.0951567
-0.0784913
-0.062051
-0.0512642
-0.0491741
-0.00183726
-0.0175026
-0.0354332
-0.0395261
-0.033706
-0.0417991
-0.0458238
-0.0596704
-0.0679896
-0.0648819
-0.0625535
-0.0612931
-0.0645256
-0.0696701
-0.0766233
-0.082329
-0.0822119
-0.0763968
-0.0686087
-0.0653736
-0.00306853
-0.0158415
-0.0275067
-0.0259402
-0.0346112
-0.0331805
-0.0371381
-0.0332142
-0.0321214
-0.0306642
-0.0314673
-0.0340285
-0.0390495
-0.0457459
-0.0540924
-0.0635766
-0.0740207
-0.0818855
-0.084589
-0.0856563
-0.0192026
-0.035287
-0.0555131
-0.0424905
-0.0293528
-0.034965
-0.033513
-0.0321945
-0.026831
-0.0229684
-0.0239854
-0.0274792
-0.0330105
-0.0397098
-0.0476452
-0.0565513
-0.0671756
-0.0762281
-0.0828402
-0.0875833
-0.0135326
-0.015199
-0.0215825
-0.0234127
-0.0223668
-0.0204201
-0.0235465
-0.027417
-0.0334516
-0.0349258
-0.03459
-0.0346144
-0.0389613
-0.0456033
-0.0525346
-0.0584276
-0.0629069
-0.063574
-0.0617194
-0.0589961
-0.007038
-0.0113166
-0.0122032
-0.0177656
-0.0286218
-0.032915
-0.0331761
-0.0270537
-0.0240346
-0.024923
-0.0296045
-0.0365849
-0.0448176
-0.0525997
-0.057931
-0.0594129
-0.0611041
-0.0679682
-0.0804878
-0.0853565
-0.0162035
-0.0128304
-0.0114228
-0.0102097
-0.0104954
-0.0113601
-0.0136196
-0.0196233
-0.033519
-0.0501043
-0.0665872
-0.0813754
-0.0930968
-0.0973855
-0.0904003
-0.0760324
-0.059804
-0.0469398
-0.0403383
-0.0392523
-0.0102776
-0.00797763
-0.0080584
-0.0126646
-0.0182344
-0.0227393
-0.0251273
-0.025992
-0.0262689
-0.0259446
-0.0255394
-0.0251325
-0.0255234
-0.0269276
-0.0294329
-0.0323598
-0.0354484
-0.0365136
-0.0355839
-0.0345416
-0.00754205
-0.0119484
-0.0196004
-0.0344678
-0.037474
-0.0476313
-0.048991
-0.038164
-0.0265474
-0.0189227
-0.0167303
-0.0168381
-0.018215
-0.0201853
-0.0231842
-0.0270421
-0.0323261
-0.0393355
-0.0494942
-0.0566379
-0.0135046
-0.0200205
-0.0209126
-0.0235317
-0.0239621
-0.0256133
-0.0297858
-0.0253853
-0.0216197
-0.0176751
-0.0170978
-0.0179853
-0.020415
-0.0237311
-0.0285016
-0.0341372
-0.0404984
-0.0451869
-0.0476533
-0.0459712
-0.00837433
-0.0216744
-0.0209194
-0.0162186
-0.0167929
-0.0218337
-0.0309177
-0.0293924
-0.028823
-0.025376
-0.0255879
-0.0260686
-0.0275879
-0.0286237
-0.0299738
-0.0312255
-0.0327141
-0.0339992
-0.0355017
-0.0373121
-0.00970608
-0.0121336
-0.01034
-0.0128893
-0.0169399
-0.0200973
-0.0246874
-0.024338
-0.0263629
-0.0274864
-0.0304706
-0.0308459
-0.0311037
-0.0293292
-0.0280649
-0.0271822
-0.0273667
-0.0281654
-0.0293648
-0.0309058
-0.00497338
-0.00495462
-0.00683208
-0.0109936
-0.013176
-0.0174715
-0.019999
-0.0237393
-0.0290406
-0.0334518
-0.0381734
-0.0399636
-0.0401789
-0.0369205
-0.032927
-0.0283018
-0.0258052
-0.0242964
-0.0236689
-0.0237995
-0.000863967
-0.00166639
-0.00389005
-0.00678212
-0.00928149
-0.0127082
-0.018465
-0.0231999
-0.0307327
-0.0378245
-0.0446258
-0.0495954
-0.0512284
-0.0482053
-0.0419475
-0.0353073
-0.0299751
-0.025592
-0.0227171
-0.0210647
-0.013768
-0.00882261
-0.00854839
-0.0107523
-0.0161808
-0.0188678
-0.0222944
-0.0295188
-0.0351727
-0.0474245
-0.0540905
-0.0570291
-0.0578373
-0.0552172
-0.029502
-0.0221079
-0.0177647
-0.0159328
-0.0154907
-0.0158363
-0.0198841
-0.00898319
-0.00657478
-0.00741151
-0.0143827
-0.0192126
-0.023685
-0.0332162
-0.0464625
-0.0618162
-0.0686925
-0.0562077
-0.0463272
-0.0438912
-0.032666
-0.0197854
-0.0188417
-0.0181023
-0.0174396
-0.0171389
-0.0204376
-0.00890757
-0.00787498
-0.00815043
-0.0121659
-0.0164973
-0.02515
-0.0365995
-0.0452279
-0.0505005
-0.0536399
-0.0434072
-0.027378
-0.0266224
-0.0265242
-0.0207735
-0.0192228
-0.017783
-0.0168764
-0.0166179
-0.00939092
-0.0106074
-0.0123389
-0.0113715
-0.0125175
-0.0130878
-0.0157121
-0.0194731
-0.0262588
-0.0398785
-0.0550934
-0.0553946
-0.0382168
-0.0288929
-0.0294124
-0.0196744
-0.0172846
-0.0158799
-0.015685
-0.0165538
-0.00674884
-0.0156382
-0.0143911
-0.0119391
-0.012513
-0.0130208
-0.0150764
-0.0197025
-0.0298207
-0.0491098
-0.0648405
-0.0423992
-0.0282392
-0.0288382
-0.0243682
-0.0158952
-0.0149847
-0.0149312
-0.0160432
-0.0179823
-0.00642843
-0.0153494
-0.0141677
-0.0141325
-0.0142554
-0.0153999
-0.0175108
-0.0265059
-0.0447108
-0.0589336
-0.0444957
-0.0219202
-0.0150276
-0.0154807
-0.0156925
-0.0150752
-0.0146928
-0.0153122
-0.0171815
-0.0197379
-0.00407053
-0.0100089
-0.0145311
-0.016642
-0.0164371
-0.0170336
-0.0228873
-0.0343742
-0.0418628
-0.0409921
-0.0347171
-0.0312111
-0.0293628
-0.0283111
-0.0266653
-0.0233552
-0.0203875
-0.0194469
-0.0206328
-0.0230889
-0.00280713
-0.0110485
-0.0148649
-0.0160147
-0.0147119
-0.0192531
-0.0239583
-0.0273671
-0.0296235
-0.0277192
-0.026911
-0.0263421
-0.0264737
-0.0264864
-0.0266478
-0.0264014
-0.0256624
-0.0252941
-0.0263576
-0.0287793
-0.00205293
-0.00495693
-0.0104368
-0.0123033
-0.013872
-0.013898
-0.0162293
-0.0165297
-0.0175418
-0.0179763
-0.0188527
-0.0197868
-0.021081
-0.0224558
-0.0241613
-0.0261632
-0.0285123
-0.0307608
-0.0332123
-0.0362284
-0.0140957
-0.0141503
-0.0192748
-0.0150509
-0.0117786
-0.0139398
-0.0138977
-0.0140976
-0.0146752
-0.0155865
-0.0170044
-0.0182582
-0.0195063
-0.0205988
-0.022043
-0.0242144
-0.0275137
-0.0312156
-0.0352623
-0.0395385
-0.0037684
-0.00435807
-0.00833723
-0.01032
-0.0114369
-0.0117487
-0.0130147
-0.0143583
-0.0164909
-0.018153
-0.0202254
-0.0221358
-0.023771
-0.0243534
-0.0241606
-0.0239679
-0.0246141
-0.0259733
-0.0284189
-0.0318968
-0.00323603
-0.00342797
-0.00663414
-0.0113429
-0.0166827
-0.0162949
-0.0152671
-0.0144096
-0.0161221
-0.0192884
-0.0234925
-0.0274392
-0.030782
-0.0319893
-0.0308078
-0.0283496
-0.0272055
-0.0280981
-0.0301051
-0.030827
-0.0123278
-0.00709614
-0.00430355
-0.00448414
-0.00541964
-0.00611029
-0.00704475
-0.0096688
-0.0155756
-0.023903
-0.0334568
-0.0424384
-0.0489869
-0.0506131
-0.0461392
-0.0375151
-0.0298202
-0.0254286
-0.0240649
-0.0243388
-0.00441866
-0.00726298
-0.012284
-0.0173683
-0.0198079
-0.0216717
-0.0241257
-0.0261565
-0.0267187
-0.0255792
-0.0235894
-0.0215228
-0.020321
-0.0198347
-0.0199684
-0.0201804
-0.0206914
-0.0205672
-0.0203434
-0.0202873
-0.0102682
-0.0163976
-0.019925
-0.0262838
-0.0232019
-0.0248999
-0.0226429
-0.0181477
-0.0154404
-0.0140226
-0.0139295
-0.0141271
-0.0146035
-0.0149537
-0.0153084
-0.015629
-0.0162101
-0.0171739
-0.0188549
-0.0194826
-0.00638507
-0.0161979
-0.0186603
-0.0193652
-0.0169373
-0.0158061
-0.0150489
-0.0126711
-0.0114293
-0.0108397
-0.0110128
-0.0114704
-0.0122018
-0.0130451
-0.0142164
-0.0154642
-0.0169103
-0.0178633
-0.0187255
-0.0192939
-0.00491672
-0.011172
-0.0135992
-0.013986
-0.0146638
-0.0147658
-0.0156082
-0.0135939
-0.0130718
-0.012402
-0.0127228
-0.013065
-0.0137965
-0.0144998
-0.015471
-0.0164842
-0.0176501
-0.0187264
-0.0198802
-0.0211179
-0.00373014
-0.00710722
-0.00880796
-0.0111738
-0.0124033
-0.0130337
-0.0139811
-0.0134215
-0.0139424
-0.0137874
-0.0143523
-0.0143525
-0.0146495
-0.0148745
-0.0154345
-0.0162084
-0.0171114
-0.0180415
-0.01891
-0.0198445
-0.00347995
-0.00408354
-0.00627747
-0.0097072
-0.0111318
-0.0128904
-0.0145582
-0.0149311
-0.0161731
-0.0162825
-0.0168391
-0.0164454
-0.0159326
-0.01515
-0.0146564
-0.0144907
-0.014716
-0.0151641
-0.0157515
-0.016548
-0.00108907
-0.00193714
-0.00411297
-0.00726806
-0.00986061
-0.0121296
-0.01594
-0.0166881
-0.0187719
-0.0199982
-0.0209746
-0.0211081
-0.0194509
-0.0171215
-0.0149018
-0.0135463
-0.0130186
-0.0130644
-0.0135906
-0.014488
-0.00755707
-0.00660041
-0.0082532
-0.0124421
-0.0164983
-0.0171246
-0.0191032
-0.0212507
-0.0232946
-0.0284297
-0.0284833
-0.0270087
-0.0232053
-0.0183085
-0.0103686
-0.00951732
-0.00959033
-0.0103128
-0.0114466
-0.0128687
-0.00726771
-0.00833178
-0.00714478
-0.0104976
-0.0173223
-0.0193986
-0.0210206
-0.0269443
-0.0355087
-0.0401093
-0.0317368
-0.0200238
-0.0164423
-0.0137827
-0.00920194
-0.00841704
-0.00908617
-0.0100583
-0.0113143
-0.0127918
-0.0137981
-0.00965647
-0.00734172
-0.00909252
-0.0139421
-0.0179113
-0.0237605
-0.0299113
-0.029777
-0.0268332
-0.0211447
-0.0127845
-0.0103911
-0.0105336
-0.00953539
-0.00883896
-0.00959168
-0.0106762
-0.0120153
-0.0134844
-0.010299
-0.00938785
-0.008851
-0.00869642
-0.0109893
-0.0126445
-0.0155613
-0.0184939
-0.0205785
-0.0247954
-0.0291191
-0.0199413
-0.0135115
-0.0125585
-0.00953846
-0.00898099
-0.00999658
-0.0113127
-0.0128226
-0.0143872
-0.0106458
-0.0112096
-0.0100153
-0.00874565
-0.0106611
-0.0117424
-0.0134622
-0.0172453
-0.0232427
-0.0301362
-0.0236542
-0.0130081
-0.0112744
-0.0107722
-0.00856464
-0.00936452
-0.0105213
-0.0118701
-0.0133452
-0.0149041
-0.0034286
-0.00707533
-0.00819096
-0.00907072
-0.00992318
-0.0114994
-0.0134118
-0.0197352
-0.0230638
-0.0199218
-0.0111932
-0.00734453
-0.00706615
-0.00755975
-0.00891421
-0.00977364
-0.0107922
-0.0119798
-0.0132875
-0.0147735
-0.00304982
-0.00993999
-0.0107839
-0.010198
-0.010611
-0.0116404
-0.0134843
-0.0156697
-0.0145038
-0.0130829
-0.010755
-0.0101541
-0.00998858
-0.0102542
-0.010599
-0.0109443
-0.011567
-0.0124632
-0.0135393
-0.0148223
-0.00409134
-0.0093119
-0.00995928
-0.0103672
-0.0101706
-0.0117834
-0.0124636
-0.0127761
-0.0121517
-0.0113328
-0.0108336
-0.0107257
-0.0108814
-0.0112964
-0.0119698
-0.0126859
-0.0134211
-0.0141947
-0.0150666
-0.0160592
-0.00496101
-0.00814032
-0.00900091
-0.00892142
-0.00927744
-0.0094678
-0.0103198
-0.0104474
-0.0106293
-0.0107168
-0.0109111
-0.0112589
-0.0118473
-0.0126794
-0.0137367
-0.0149063
-0.0160599
-0.017061
-0.0180092
-0.0188606
-0.00898449
-0.0103498
-0.0088248
-0.00923013
-0.00866955
-0.00955889
-0.00997849
-0.0103245
-0.0107028
-0.0109558
-0.0113552
-0.0118267
-0.0125655
-0.0136059
-0.0149861
-0.0165756
-0.0182117
-0.0196381
-0.0208483
-0.021727
-0.00131893
-0.00300464
-0.00602972
-0.00807739
-0.008997
-0.00929737
-0.0101852
-0.0111214
-0.0122496
-0.012952
-0.0135849
-0.013945
-0.0142506
-0.0146263
-0.0153928
-0.0165445
-0.0178997
-0.0191538
-0.0202254
-0.0211164
-0.00370344
-0.004123
-0.00725476
-0.00885639
-0.0104487
-0.0097282
-0.0103105
-0.011552
-0.0135855
-0.0155516
-0.0174372
-0.018505
-0.0187454
-0.0179582
-0.0169895
-0.0165606
-0.0167765
-0.0171755
-0.0177264
-0.0184707
-0.00542603
-0.00333229
-0.00349169
-0.00444544
-0.00515867
-0.00565114
-0.00654899
-0.00849798
-0.0119686
-0.0165107
-0.0214789
-0.0254483
-0.0272832
-0.0260075
-0.0224232
-0.0183306
-0.0159448
-0.0153612
-0.015902
-0.0173066
-0.00339937
-0.00898354
-0.0177095
-0.0233563
-0.0218865
-0.0196282
-0.0195292
-0.018905
-0.0176669
-0.0153751
-0.0134894
-0.0123925
-0.0121708
-0.0123453
-0.0127089
-0.0128667
-0.0130117
-0.0129395
-0.0130282
-0.0131855
-0.0035123
-0.013273
-0.0201795
-0.0194116
-0.0159025
-0.0143716
-0.0128344
-0.011294
-0.0107502
-0.0103644
-0.0105666
-0.0111013
-0.0120676
-0.0133437
-0.0148471
-0.016476
-0.0181178
-0.0197293
-0.0211596
-0.0223552
-0.00562825
-0.0160944
-0.0191853
-0.0156209
-0.012048
-0.0103863
-0.00936719
-0.00894953
-0.00912219
-0.00962622
-0.0104604
-0.0114309
-0.0125241
-0.0136123
-0.0146461
-0.0155727
-0.0163606
-0.0170098
-0.0175316
-0.0179625
-0.00528537
-0.0138994
-0.0144491
-0.0125455
-0.0106427
-0.00950833
-0.00924118
-0.00921917
-0.00969482
-0.0102852
-0.0110597
-0.0118563
-0.0126698
-0.0134667
-0.0142283
-0.0149525
-0.0156425
-0.0162924
-0.0169525
-0.0176031
-0.0108866
-0.0105863
-0.0103905
-0.0101296
-0.00930054
-0.00896434
-0.00899176
-0.00919655
-0.00969698
-0.0102905
-0.0109593
-0.0116581
-0.0123626
-0.0130914
-0.0138407
-0.0146051
-0.0154093
-0.0162294
-0.0171051
-0.0179346
-0.00778701
-0.00474777
-0.00608766
-0.00846287
-0.00875595
-0.0090088
-0.00901268
-0.00935032
-0.00971985
-0.0103342
-0.0108748
-0.0115363
-0.0121565
-0.0128833
-0.0136664
-0.0145493
-0.015495
-0.0165116
-0.017535
-0.0184539
-0.00206
-0.00237329
-0.00502238
-0.00805931
-0.00886892
-0.00909103
-0.00925756
-0.00945688
-0.00976445
-0.0105665
-0.0109168
-0.0115742
-0.0119779
-0.0125684
-0.0132505
-0.0141186
-0.0150571
-0.0161077
-0.0171194
-0.0180419
-0.00837633
-0.00774891
-0.0085699
-0.0101746
-0.0098836
-0.0100164
-0.00994398
-0.00998296
-0.0100731
-0.0106963
-0.0105957
-0.0106373
-0.0106287
-0.0109356
-0.0125722
-0.0133964
-0.0142286
-0.0151106
-0.015941
-0.0167105
-0.00259951
-0.00583867
-0.00840208
-0.010019
-0.0103402
-0.0117375
-0.0110066
-0.0114672
-0.011512
-0.0100673
-0.00870225
-0.0083207
-0.00862603
-0.00900667
-0.0102786
-0.012421
-0.0131637
-0.0139101
-0.0146376
-0.0153034
-0.0187279
-0.00865736
-0.00782279
-0.00949052
-0.0103196
-0.0107211
-0.0123562
-0.0121744
-0.00948853
-0.00795876
-0.00699887
-0.00678661
-0.00717512
-0.00792511
-0.0101269
-0.0123392
-0.0130198
-0.0136685
-0.0143196
-0.0149199
-0.0110159
-0.00772241
-0.00761958
-0.00836181
-0.00913277
-0.00961018
-0.00980392
-0.00868485
-0.00799799
-0.00822666
-0.00816359
-0.00698503
-0.00717511
-0.00796314
-0.0101511
-0.0127467
-0.0136259
-0.0143807
-0.0151153
-0.0157412
-0.00801993
-0.00817402
-0.00760054
-0.00779329
-0.00808097
-0.00812503
-0.00789124
-0.00757322
-0.00683815
-0.00674982
-0.00638593
-0.00631924
-0.00682133
-0.00778244
-0.0104316
-0.0141063
-0.0152241
-0.0161646
-0.0170542
-0.0177185
-0.00569802
-0.0083109
-0.00789972
-0.00764019
-0.0074296
-0.00725462
-0.0072406
-0.00771417
-0.00698683
-0.00658079
-0.00680484
-0.00760979
-0.00866356
-0.00987395
-0.0138891
-0.015411
-0.0168743
-0.0182564
-0.0195345
-0.0205006
-0.00339769
-0.00874598
-0.00830264
-0.00773959
-0.00726674
-0.00701211
-0.00662383
-0.00705817
-0.00708088
-0.00769384
-0.00845846
-0.00951357
-0.01081
-0.0122732
-0.0139021
-0.0156927
-0.0175518
-0.0193765
-0.0211036
-0.0225109
-0.00616284
-0.0085167
-0.00808684
-0.00767847
-0.00693558
-0.00710872
-0.0065684
-0.00689971
-0.00712612
-0.00772597
-0.00855916
-0.00964441
-0.0109471
-0.0124585
-0.0141396
-0.0159734
-0.0179075
-0.0198499
-0.0216706
-0.0231738
-0.00993451
-0.00962309
-0.0074894
-0.00706397
-0.00690201
-0.00694186
-0.00700827
-0.00724047
-0.00766755
-0.00835789
-0.00920927
-0.0102562
-0.0114747
-0.0128803
-0.0144781
-0.0162469
-0.0181532
-0.020111
-0.0219639
-0.0235265
-0.0235266
-0.015213
-0.00786639
-0.00702415
-0.0070389
-0.00741582
-0.00755566
-0.00792042
-0.00849347
-0.00923369
-0.0101548
-0.0111507
-0.012274
-0.0135135
-0.0149419
-0.0165665
-0.0184073
-0.0204297
-0.0225317
-0.0245113
-0.0127381
-0.00888681
-0.0074993
-0.00723699
-0.00742539
-0.00759054
-0.00807589
-0.00833057
-0.00887813
-0.00947857
-0.0103259
-0.0112933
-0.012377
-0.0135279
-0.0147748
-0.0161306
-0.0176588
-0.0193982
-0.0213266
-0.0232766
-0.00532935
-0.00775091
-0.00757891
-0.00698952
-0.00717889
-0.00760563
-0.00845413
-0.00921558
-0.0099279
-0.0103467
-0.0107432
-0.0112162
-0.0120644
-0.013272
-0.0148242
-0.016595
-0.0185092
-0.0205239
-0.0225462
-0.0245285
-0.00227898
-0.00656944
-0.0073951
-0.00633199
-0.00531915
-0.0053051
-0.00641312
-0.00817253
-0.0102703
-0.0116615
-0.0123748
-0.0120808
-0.0119999
-0.0119447
-0.0125715
-0.0140586
-0.016663
-0.0201895
-0.0243629
-0.02891
-0.0532539
-0.0401647
-0.0507598
-0.0359802
-0.0320805
-0.0310647
-0.0351746
-0.0479804
-0.0540902
-0.0570517
-0.0299398
-0.0212354
-0.0347461
-0.0275719
-0.0518504
-0.0460786
-0.0611339
-0.0320397
-0.0383219
-0.0374653
-0.0392363
-0.057495
-0.0635439
-0.0548188
-0.0385984
-0.0312327
-0.0365993
-0.0244127
-0.114697
-0.103492
-0.104049
-0.113062
-0.105917
-0.0988923
-0.101253
-0.108002
-0.103817
-0.101885
-0.0994009
-0.0922695
-0.101501
-0.101605
-0.0995997
-0.100915
-0.0981312
-0.0940829
-0.0973732
-0.101364
-0.099074
-0.0956015
-0.0976033
-0.0975671
-0.0975724
-0.0983597
-0.0976325
-0.0901858
-0.100154
-0.0972867
-0.0969362
-0.0988871
-0.0995758
-0.0880531
-0.0897145
-0.103418
-0.0980573
-0.103751
-0.0985162
-0.0918151
-0.0908501
-0.085883
-0.0989132
-0.104836
-0.103213
-0.0902839
-0.0918658
-0.0828984
-0.0801769
-0.101798
-0.101709
-0.0980797
-0.0950068
-0.109924
-0.0820129
-0.0945479
-0.106743
-0.115202
-0.113234
-0.10575
-0.107088
-0.11164
-0.110566
-0.103331
-0.111121
-0.104084
-0.106663
-0.10473
-0.106403
-0.086422
-0.100167
-0.102001
-0.0970198
-0.103627
-0.0966797
-0.0793682
-0.0619063
-0.0976982
-0.0955529
-0.0913314
-0.0926207
-0.0799525
-0.0582002
-0.0567005
-0.0950046
-0.0899533
-0.0887753
-0.078545
-0.0852405
-0.0602733
-0.0792666
-0.102925
-0.0911542
-0.10153
-0.0883666
-0.0871209
-0.0857274
-0.096193
-0.104726
-0.104462
-0.108718
-0.0837526
-0.0774044
-0.0947505
-0.0830341
-0.0999019
-0.108654
-0.106465
-0.0780767
-0.0884541
-0.0801477
-0.0811925
-0.106518
-0.108329
-0.0974474
-0.106462
-0.0917074
-0.089269
-0.0665591
-0.0954858
-0.0943038
-0.0864695
-0.0844807
-0.0647612
-0.0614692
-0.0515952
-0.0884918
-0.0842934
-0.0791527
-0.0598038
-0.0496622
-0.0495673
-0.0481148
-0.0846417
-0.0779206
-0.0760323
-0.0481264
-0.0526134
-0.0500321
-0.0647437
-0.0866447
-0.0768055
-0.0919874
-0.0581184
-0.0807261
-0.0723391
-0.0973447
-0.102499
-0.0996682
-0.114545
-0.0877197
-0.10049
-0.104413
-0.114418
-0.109717
-0.115992
-0.114976
-0.100483
-0.0904171
-0.114471
-0.110864
-0.108507
-0.114115
-0.112051
-0.086995
-0.0850493
-0.109405
-0.107644
-0.0984846
-0.111678
-0.104209
-0.0902266
-0.078077
-0.100741
-0.0978914
-0.087557
-0.101539
-0.093721
-0.0751471
-0.0669689
-0.0967555
-0.0936978
-0.0799258
-0.0914262
-0.0860407
-0.0647326
-0.0626241
-0.0928111
-0.091366
-0.0768047
-0.0850674
-0.0886367
-0.064573
-0.0762052
-0.091974
-0.101631
-0.0978495
-0.09457
-0.128715
-0.0821514
-0.105443
-0.108682
-0.131893
-0.121292
-0.139712
-0.149563
-0.111572
-0.115095
-0.133222
-0.11342
-0.11858
-0.146503
-0.132068
-0.113497
-0.110202
-0.105596
-0.0945589
-0.112929
-0.127203
-0.116074
-0.109998
-0.111633
-0.0945337
-0.0988807
-0.033539
-0.0383256
-0.0487775
-0.0265699
-0.0324866
-0.0321358
-0.0386479
-0.0440924
-0.0524374
-0.06997
-0.0352464
-0.044969
-0.0410649
-0.0490321
-0.072221
-0.074272
-0.0786992
-0.0484698
-0.0597886
-0.0517152
-0.0591013
-0.0910834
-0.0784419
-0.0754504
-0.0639257
-0.0736228
-0.0609718
-0.0635743
-0.0909836
-0.0752159
-0.0780975
-0.0745852
-0.0693847
-0.0634704
-0.0575845
-0.081474
-0.0781179
-0.07023
-0.0658605
-0.0576439
-0.0532362
-0.0400855
-0.0800629
-0.067053
-0.063409
-0.0569077
-0.0583312
-0.0377871
-0.0378566
-0.0892555
-0.0642826
-0.0728436
-0.059454
-0.0610046
-0.0392495
-0.0437036
-0.0552935
-0.038715
-0.0412411
-0.031511
-0.0378241
-0.0292019
-0.0297626
-0.0733635
-0.0397761
-0.0346719
-0.0399341
-0.0460679
-0.0294247
-0.0298746
-0.0679821
-0.0339541
-0.0356462
-0.0480513
-0.0534663
-0.0308551
-0.036572
-0.0658513
-0.0372135
-0.0459037
-0.0548512
-0.0583714
-0.0395189
-0.051311
-0.0753338
-0.0512272
-0.0735164
-0.0595109
-0.0579806
-0.0556884
-0.0639766
-0.0708003
-0.0795943
-0.0821655
-0.0544161
-0.0399548
-0.0634129
-0.0510939
-0.0599619
-0.0777648
-0.0629904
-0.0365804
-0.0342995
-0.0456424
-0.0352467
-0.0684723
-0.0602473
-0.0622692
-0.035368
-0.039997
-0.0343423
-0.0369244
-0.0259478
-0.0181204
-0.0177216
-0.0208594
-0.0208648
-0.0175598
-0.0183884
-0.0235119
-0.0180752
-0.0204282
-0.0209739
-0.023606
-0.019292
-0.024587
-0.027886
-0.0217985
-0.0287831
-0.025441
-0.0339288
-0.0274097
-0.039528
-0.0426256
-0.0326628
-0.055498
-0.0378228
-0.0521413
-0.0447773
-0.0621012
-0.0757963
-0.0665318
-0.0916223
-0.057023
-0.0653303
-0.0668805
-0.0652109
-0.0871143
-0.0946211
-0.0892933
-0.0646811
-0.0537512
-0.0599499
-0.0455705
-0.0683491
-0.0858162
-0.0777762
-0.0488451
-0.0384023
-0.0429027
-0.0401508
-0.0639433
-0.0764375
-0.0772896
-0.0370558
-0.0382524
-0.0403745
-0.0422004
-0.0225685
-0.0236746
-0.0281887
-0.0206759
-0.0222338
-0.0231429
-0.0248991
-0.0256827
-0.0304182
-0.0396411
-0.0230686
-0.0279337
-0.0263078
-0.0354118
-0.0342512
-0.0439449
-0.0611475
-0.0306969
-0.043024
-0.0400154
-0.0566549
-0.0658418
-0.0691467
-0.0949602
-0.0484164
-0.066226
-0.0635703
-0.0776332
-0.0966454
-0.102591
-0.103027
-0.0702954
-0.0614785
-0.0756344
-0.0490067
-0.0812905
-0.0908665
-0.053958
-0.054119
-0.0387344
-0.0395822
-0.025128
-0.0713666
-0.0475846
-0.0422603
-0.036737
-0.0363193
-0.0237231
-0.0242576
-0.0766191
-0.0432763
-0.0506115
-0.0371218
-0.0396053
-0.0250694
-0.0273646
-0.0303191
-0.0272892
-0.0352324
-0.0239385
-0.0314506
-0.027776
-0.0354823
-0.0429054
-0.0381312
-0.0466366
-0.0342108
-0.041738
-0.0377878
-0.0421858
-0.0580589
-0.0491589
-0.0552268
-0.0437244
-0.0483026
-0.0426363
-0.0412454
-0.0688813
-0.056506
-0.0571071
-0.0489828
-0.0456842
-0.0399511
-0.0333933
-0.0602395
-0.0560443
-0.0466914
-0.0426219
-0.0315794
-0.0303457
-0.0206754
-0.0475794
-0.0418882
-0.0303401
-0.028785
-0.0253687
-0.0181491
-0.0144048
-0.0442683
-0.0286409
-0.0284943
-0.025053
-0.023344
-0.0141167
-0.0141147
-0.0420968
-0.0292454
-0.0313168
-0.0224781
-0.019237
-0.0140951
-0.0136488
-0.0338926
-0.0216052
-0.024836
-0.025858
-0.0337725
-0.0211532
-0.0241638
-0.0433964
-0.0256231
-0.0287351
-0.0357744
-0.0388622
-0.024638
-0.0256812
-0.0494467
-0.0302138
-0.0366121
-0.0388707
-0.0369371
-0.0261361
-0.0287807
-0.0438231
-0.0514965
-0.0455144
-0.0473288
-0.0471933
-0.0476162
-0.0426781
-0.0468749
-0.053153
-0.052921
-0.0469081
-0.0538661
-0.0452251
-0.0471592
-0.0299058
-0.0548012
-0.0402255
-0.0184979
-0.0139102
-0.0247817
-0.017834
-0.0259157
-0.0352033
-0.0269522
-0.0134525
-0.0134351
-0.0166347
-0.015525
-0.0293639
-0.0264318
-0.0285821
-0.0135424
-0.0136591
-0.0155814
-0.0158369
-0.0184638
-0.0138965
-0.0168212
-0.0157593
-0.018851
-0.0146636
-0.0181948
-0.0240671
-0.0182675
-0.0248924
-0.0198416
-0.0230324
-0.0196772
-0.0251228
-0.0352359
-0.0280058
-0.0407206
-0.0242219
-0.028952
-0.0272857
-0.0349571
-0.0451607
-0.0437733
-0.0406965
-0.0392417
-0.0456339
-0.0427498
-0.0406005
-0.055051
-0.0573213
-0.0588231
-0.0518061
-0.0610522
-0.0522587
-0.0547524
-0.0427032
-0.0488836
-0.0356498
-0.0275175
-0.0191613
-0.0212546
-0.0167184
-0.0297746
-0.0335055
-0.0315857
-0.0177882
-0.0163515
-0.0162419
-0.0157786
-0.0300397
-0.0318216
-0.0329613
-0.0162963
-0.0161126
-0.015656
-0.0148834
-0.0181871
-0.0156238
-0.019143
-0.0155963
-0.0194735
-0.015707
-0.0201637
-0.0265458
-0.0212081
-0.032251
-0.0211851
-0.0273804
-0.0229371
-0.0319444
-0.0434574
-0.0372528
-0.0538966
-0.0297099
-0.0369923
-0.0343609
-0.0384016
-0.0637395
-0.0595605
-0.0647882
-0.0390953
-0.0379514
-0.0380432
-0.0280254
-0.0496127
-0.0599558
-0.0330482
-0.0340233
-0.0203738
-0.0228391
-0.0122677
-0.0296259
-0.0254275
-0.0157015
-0.0176061
-0.0145534
-0.0108535
-0.00973502
-0.028234
-0.0151199
-0.0160213
-0.0143937
-0.0144011
-0.0097498
-0.0100098
-0.0303896
-0.0166505
-0.0185922
-0.0143521
-0.0137715
-0.0100731
-0.0102013
-0.0251507
-0.0242692