/*--------------------------------*- C++ -*----------------------------------*\
  =========                 |
  \\      /  F ield         | OpenFOAM: The Open Source CFD Toolbox
   \\    /   O peration     | Website:  https://openfoam.org
    \\  /    A nd           | Version:  10
     \\/     M anipulation  |
\*---------------------------------------------------------------------------*/
FoamFile
{
    format      ascii;
    class       volScalarField;
    location    "5.6";
    object      turbidity_0;
}
// * * * * * * * * * * * * * * * * * * * * * * * * * * * * * * * * * * * * * //

dimensions      [0 0 0 0 0 0 0];

internalField   nonuniform List<scalar> 
12920
(
-0.0270645
-0.059974
-0.0610592
-0.0762086
-0.0937745
-0.11784
-0.150212
-0.190864
-0.234046
-0.271458
-0.297513
-0.313183
-0.322368
-0.326724
-0.33057
-0.337691
-0.350894
-0.366036
-0.384417
-0.406375
-0.0102008
-0.0243262
-0.0643766
-0.132789
-0.171116
-0.208543
-0.245612
-0.289222
-0.322878
-0.335715
-0.327326
-0.308005
-0.294735
-0.288433
-0.29607
-0.315924
-0.352839
-0.404504
-0.45985
-0.515515
-0.0369932
-0.0511053
-0.0836033
-0.117214
-0.139605
-0.161551
-0.194507
-0.243408
-0.302196
-0.351903
-0.38943
-0.412288
-0.436051
-0.458497
-0.484108
-0.509073
-0.536692
-0.571085
-0.614787
-0.664436
-0.0296706
-0.0553889
-0.0728132
-0.0860442
-0.103914
-0.130809
-0.174779
-0.240131
-0.316736
-0.388385
-0.441726
-0.484459
-0.519317
-0.553599
-0.586134
-0.618294
-0.648578
-0.676496
-0.700136
-0.716381
-0.0519962
-0.058526
-0.072827
-0.102192
-0.133772
-0.168989
-0.212825
-0.260075
-0.305176
-0.346708
-0.378093
-0.410824
-0.441751
-0.478014
-0.513995
-0.549404
-0.580758
-0.608148
-0.629422
-0.643137
-0.0220724
-0.049405
-0.0754759
-0.130866
-0.165525
-0.203442
-0.229423
-0.261452
-0.279691
-0.303563
-0.317543
-0.339943
-0.363575
-0.40233
-0.447201
-0.495509
-0.535034
-0.564493
-0.580829
-0.5855
-0.0335012
-0.0353051
-0.050014
-0.0885735
-0.115267
-0.143402
-0.156417
-0.182783
-0.192531
-0.2076
-0.213686
-0.224914
-0.240845
-0.274658
-0.327785
-0.3933
-0.448732
-0.485044
-0.49616
-0.49403
-0.0321376
-0.0621727
-0.0837113
-0.109361
-0.124632
-0.138367
-0.134628
-0.130775
-0.137098
-0.128071
-0.120391
-0.11401
-0.112338
-0.115663
-0.181339
-0.253766
-0.307619
-0.336893
-0.352477
-0.367489
-0.0417415
-0.0556355
-0.063385
-0.0738584
-0.0935817
-0.104327
-0.116461
-0.112734
-0.105829
-0.0979084
-0.096344
-0.101574
-0.102799
-0.0980289
-0.118239
-0.189463
-0.231451
-0.262553
-0.291284
-0.322392
-0.0247234
-0.0490418
-0.0587444
-0.071
-0.100501
-0.105473
-0.108823
-0.105878
-0.102509
-0.0996033
-0.0966028
-0.0962174
-0.104827
-0.103462
-0.110039
-0.161837
-0.202169
-0.239323
-0.278142
-0.320917
-0.0186219
-0.0342138
-0.0533738
-0.0806027
-0.111746
-0.114924
-0.113209
-0.103622
-0.0931052
-0.0873338
-0.0839524
-0.0906411
-0.105511
-0.109977
-0.115512
-0.156612
-0.195169
-0.234997
-0.278788
-0.328342
-0.0376166
-0.048497
-0.0630971
-0.0904454
-0.118228
-0.115403
-0.10781
-0.095323
-0.0852073
-0.078531
-0.0784328
-0.107041
-0.122119
-0.116848
-0.122099
-0.155674
-0.197995
-0.245739
-0.296318
-0.349186
-0.0262353
-0.0499415
-0.0773527
-0.0997777
-0.120521
-0.134953
-0.128786
-0.116564
-0.111085
-0.112853
-0.137438
-0.170299
-0.174762
-0.159819
-0.218499
-0.26082
-0.308878
-0.352009
-0.388628
-0.423063
-0.0187339
-0.0553304
-0.0878037
-0.108955
-0.126495
-0.145999
-0.160997
-0.187563
-0.212459
-0.254051
-0.298462
-0.342584
-0.375988
-0.403549
-0.428962
-0.452939
-0.473803
-0.489962
-0.498408
-0.503149
-0.042123
-0.0711167
-0.103081
-0.134518
-0.158901
-0.189513
-0.204462
-0.233745
-0.258197
-0.28246
-0.301385
-0.31184
-0.325102
-0.342256
-0.365875
-0.39176
-0.418907
-0.445223
-0.467774
-0.484374
-0.0226386
-0.0474935
-0.0830802
-0.118541
-0.152606
-0.18326
-0.209703
-0.227945
-0.239718
-0.241234
-0.242563
-0.244748
-0.254641
-0.271783
-0.298516
-0.332763
-0.368368
-0.403246
-0.436596
-0.467072
-0.0277922
-0.0654661
-0.0965641
-0.143005
-0.160172
-0.184827
-0.201667
-0.216271
-0.223988
-0.223605
-0.220257
-0.217932
-0.223067
-0.236365
-0.262775
-0.298306
-0.33483
-0.371096
-0.406741
-0.440563
-0.0109799
-0.0258074
-0.039202
-0.0580757
-0.075738
-0.0945082
-0.112539
-0.131161
-0.150497
-0.170846
-0.190317
-0.206092
-0.222383
-0.243382
-0.271239
-0.301692
-0.333271
-0.366072
-0.399539
-0.431782
-0.0235182
-0.0361659
-0.0515272
-0.0674517
-0.0842008
-0.105242
-0.127084
-0.146156
-0.161936
-0.17439
-0.190025
-0.208906
-0.233097
-0.257381
-0.282675
-0.311878
-0.342994
-0.374641
-0.406855
-0.441459
-0.044543
-0.0396532
-0.0437307
-0.0548596
-0.0708402
-0.0901459
-0.114507
-0.139751
-0.162145
-0.180806
-0.197388
-0.213828
-0.231107
-0.248851
-0.265929
-0.278592
-0.289378
-0.303703
-0.328491
-0.36203
-0.00902907
-0.0120029
-0.01234
-0.0169894
-0.0229606
-0.0276164
-0.0300114
-0.0318478
-0.0371568
-0.043421
-0.0480166
-0.0490254
-0.048018
-0.0463749
-0.0485552
-0.054546
-0.0653554
-0.074392
-0.0743789
-0.0693786
-0.00895457
-0.0201981
-0.0423418
-0.0670834
-0.0807065
-0.100284
-0.113451
-0.104732
-0.0806044
-0.0492939
-0.0321548
-0.0262477
-0.025896
-0.0285165
-0.034316
-0.0439539
-0.0594931
-0.0830465
-0.120851
-0.158415
-0.0285468
-0.0370876
-0.0459758
-0.0395896
-0.0404611
-0.0466012
-0.0649169
-0.0671546
-0.0662559
-0.0502603
-0.0431994
-0.0424147
-0.0479833
-0.0574128
-0.0727294
-0.0934926
-0.118791
-0.141942
-0.159804
-0.161405
-0.0264852
-0.0394193
-0.0384186
-0.0291954
-0.0267013
-0.0366577
-0.0625785
-0.0755318
-0.0860598
-0.0763516
-0.075785
-0.0785903
-0.0864276
-0.0921456
-0.0970007
-0.0991147
-0.0996439
-0.0977912
-0.0963669
-0.0977426
-0.0283018
-0.0205401
-0.0172914
-0.0231003
-0.0378333
-0.0485215
-0.0634774
-0.0622431
-0.0637066
-0.0660711
-0.0770434
-0.0853878
-0.0924584
-0.0901886
-0.0852853
-0.0770056
-0.0719925
-0.0691491
-0.069401
-0.0716611
-0.0105518
-0.00687673
-0.0101769
-0.0238502
-0.0259598
-0.0383431
-0.0347346
-0.0414724
-0.0480437
-0.0609402
-0.0755097
-0.0923438
-0.106493
-0.11225
-0.11004
-0.0972466
-0.0882545
-0.0810994
-0.0762151
-0.0726478
-0.00430785
-0.00398526
-0.00573689
-0.0102243
-0.0125428
-0.0177872
-0.0207231
-0.0276786
-0.0359549
-0.048156
-0.0634312
-0.082509
-0.100924
-0.114254
-0.118855
-0.116306
-0.109727
-0.0989481
-0.0876024
-0.0773289
-0.0343167
-0.0132821
-0.0172118
-0.0159806
-0.017953
-0.0201948
-0.0225691
-0.0301031
-0.0368588
-0.0517432
-0.0680868
-0.0776239
-0.0830247
-0.0935708
-0.0852389
-0.0768919
-0.0647588
-0.0567954
-0.0524703
-0.050656
-0.0161086
-0.0184126
-0.0136476
-0.0130736
-0.0207314
-0.0246699
-0.0300977
-0.0349939
-0.0498632
-0.0790682
-0.0925336
-0.0887892
-0.0800396
-0.081531
-0.0876009
-0.068126
-0.0638061
-0.0599131
-0.0560588
-0.0528459
-0.0335383
-0.015035
-0.0145528
-0.0140554
-0.0205132
-0.0255696
-0.0387727
-0.0612031
-0.0731637
-0.0664029
-0.0672545
-0.0771635
-0.0666442
-0.0602504
-0.0710207
-0.0623897
-0.0594276
-0.0546999
-0.04976
-0.0462209
-0.0148029
-0.0162694
-0.0242311
-0.0250586
-0.0262105
-0.0240223
-0.0249119
-0.025109
-0.0238632
-0.0303577
-0.0501563
-0.0825193
-0.083295
-0.0647118
-0.0658393
-0.0578697
-0.0523903
-0.0462655
-0.0415601
-0.0399553
-0.0127992
-0.0252601
-0.0241322
-0.0207469
-0.0219586
-0.0205347
-0.0211564
-0.0232142
-0.0270103
-0.0392682
-0.0767346
-0.0961033
-0.0767218
-0.0717012
-0.066865
-0.0473035
-0.0433432
-0.0384462
-0.0358467
-0.0369735
-0.00436639
-0.0185782
-0.0248234
-0.0285682
-0.0302127
-0.027766
-0.0327638
-0.0369317
-0.0552786
-0.0864874
-0.104897
-0.0762145
-0.0503349
-0.0475765
-0.0556678
-0.0534666
-0.0469563
-0.0394727
-0.0364352
-0.0384614
-0.0101758
-0.0192419
-0.0365879
-0.0411458
-0.0406118
-0.0343703
-0.0369559
-0.0614768
-0.0871144
-0.101968
-0.10127
-0.0992202
-0.100593
-0.103228
-0.103963
-0.0949449
-0.0782255
-0.0618068
-0.0511268
-0.0491349
-0.00209783
-0.0182575
-0.0358343
-0.0394003
-0.0335583
-0.0417681
-0.0458822
-0.0597171
-0.0679946
-0.0648208
-0.0625206
-0.0613136
-0.0645884
-0.0697597
-0.0767278
-0.0823663
-0.0821498
-0.0762467
-0.0684709
-0.0653151
-0.00317532
-0.0160438
-0.027623
-0.0259102
-0.0345402
-0.0331589
-0.0370525
-0.0331628
-0.0320998
-0.0306583
-0.0314868
-0.034074
-0.0391248
-0.0458482
-0.0542154
-0.063711
-0.0741412
-0.0819165
-0.084565
-0.085648
-0.0182379
-0.0353955
-0.0553338
-0.0424258
-0.0291718
-0.0349259
-0.0334112
-0.0320424
-0.0266591
-0.0229137
-0.0239912
-0.0275243
-0.0330841
-0.0398057
-0.0477567
-0.0566731
-0.0672958
-0.0763003
-0.0828635
-0.0876221
-0.013822
-0.0152675
-0.0215431
-0.0232686
-0.0221233
-0.0202974
-0.0235566
-0.0274856
-0.0334994
-0.034905
-0.0345319
-0.0346205
-0.0390401
-0.0457132
-0.0526392
-0.0585119
-0.0629338
-0.063513
-0.0615977
-0.0589126
-0.00715242
-0.0112766
-0.0120388
-0.0178084
-0.0287144
-0.0328889
-0.0330143
-0.0268878
-0.0239494
-0.024941
-0.0296955
-0.0367239
-0.0449825
-0.0527538
-0.058006
-0.0594207
-0.0611362
-0.0680848
-0.0805567
-0.0853385
-0.0163311
-0.0128677
-0.0114125
-0.0101941
-0.0105094
-0.0113952
-0.0136836
-0.0197817
-0.0337623
-0.0503381
-0.066782
-0.081513
-0.0931622
-0.0973094
-0.090146
-0.0756978
-0.0594745
-0.0467101
-0.0402294
-0.0392393
-0.0102748
-0.00788059
-0.00802986
-0.0127931
-0.0183842
-0.0228426
-0.0251752
-0.0260076
-0.0262671
-0.0259292
-0.0255189
-0.0251179
-0.0255276
-0.0269548
-0.0294791
-0.032412
-0.0354921
-0.0365063
-0.035541
-0.0345148
-0.00778372
-0.0119122
-0.0196725
-0.0346221
-0.0375348
-0.0476433
-0.0488191
-0.0379218
-0.02636
-0.0188422
-0.0167094
-0.0168413
-0.0182309
-0.0202103
-0.0232197
-0.0270884
-0.0323835
-0.0394064
-0.0495686
-0.0566565
-0.0138312
-0.0198507
-0.0208215
-0.0234678
-0.023901
-0.0255805
-0.0297585
-0.0253341
-0.0215632
-0.0176485
-0.0170944
-0.017994
-0.0204328
-0.0237575
-0.0285381
-0.0341807
-0.0405369
-0.0451958
-0.0476233
-0.0459165
-0.0091998
-0.022321
-0.020865
-0.0160843
-0.0167876
-0.0218769
-0.0309676
-0.0293831
-0.0287833
-0.0253574
-0.0255806
-0.0260708
-0.0275893
-0.028626
-0.0299752
-0.0312296
-0.0327182
-0.0340036
-0.0355106
-0.0373217
-0.0103718
-0.0120283
-0.0102146
-0.0128715
-0.0169384
-0.0201016
-0.0246534
-0.0243206
-0.0263605
-0.0274954
-0.0304752
-0.030838
-0.0310775
-0.0292985
-0.0280379
-0.0271694
-0.0273637
-0.0281695
-0.0293755
-0.0309192
-0.00487508
-0.0048733
-0.00680626
-0.0109815
-0.013163
-0.0174632
-0.0200033
-0.0237581
-0.029069
-0.033483
-0.0381939
-0.0399592
-0.0401416
-0.0368512
-0.0328448
-0.0282433
-0.0257698
-0.0242773
-0.0236611
-0.0237969
-0.000815145
-0.00168352
-0.00393815
-0.00679894
-0.00928976
-0.0127128
-0.0184887
-0.0232295
-0.0307773
-0.0378735
-0.0446652
-0.0496147
-0.0512023
-0.0481124
-0.041834
-0.035212
-0.0299052
-0.0255448
-0.02269
-0.0210447
-0.0133213
-0.00888958
-0.00860392
-0.0107585
-0.0162132
-0.0189183
-0.022336
-0.0295658
-0.0352434
-0.0474845
-0.0541189
-0.0570332
-0.0578191
-0.0551126
-0.0293749
-0.0220282
-0.0177257
-0.0159165
-0.0154851
-0.0158371
-0.0192624
-0.00885097
-0.00654944
-0.00741193
-0.0144279
-0.0192763
-0.0237571
-0.0333092
-0.0465841
-0.0619441
-0.0686727
-0.0560905
-0.0463006
-0.0438723
-0.0325862
-0.0197684
-0.0188338
-0.0180963
-0.0174349
-0.017137
-0.0190838
-0.00883563
-0.00787701
-0.00815338
-0.0121996
-0.0165335
-0.0252275
-0.0366991
-0.0453162
-0.0505712
-0.0536679
-0.0432259
-0.027304
-0.0266524
-0.0265388
-0.020765
-0.0192108
-0.0177722
-0.01687
-0.0166159
-0.00922531
-0.0106088
-0.0123402
-0.0113495
-0.0124856
-0.0130835
-0.015741
-0.0195186
-0.0263517
-0.0400363
-0.0552168
-0.0552684
-0.0380401
-0.0288721
-0.0294262
-0.0196471
-0.0172617
-0.0158672
-0.0156831
-0.0165597
-0.00731379
-0.0153845
-0.0142846
-0.011914
-0.0124985
-0.0130254
-0.0151037
-0.0197691
-0.0299526
-0.0493205
-0.0648172
-0.0421283
-0.0281926
-0.0288545
-0.024349
-0.0158755
-0.014971
-0.0149289
-0.0160516
-0.0179969
-0.00636852
-0.0154313
-0.0141075
-0.0141051
-0.014227
-0.0154003
-0.0175316
-0.0265876
-0.0448493
-0.0589412
-0.0442222
-0.0217605
-0.0149956
-0.0154785
-0.0156724
-0.0150534
-0.0146797
-0.0153128
-0.0171939
-0.0197564
-0.00420106
-0.0100059
-0.0145574
-0.0165992
-0.0163735
-0.0170298
-0.0229342
-0.0344444
-0.0418725
-0.040931
-0.0346411
-0.0311644
-0.0293335
-0.0282763
-0.0266107
-0.023297
-0.0203437
-0.0194273
-0.0206375
-0.0231059
-0.00295295
-0.0113207
-0.0149431
-0.0159775
-0.0146934
-0.0192626
-0.0239862
-0.0273815
-0.0296202
-0.0277062
-0.0269083
-0.0263469
-0.0264811
-0.0264918
-0.0266481
-0.0263871
-0.0256377
-0.0252737
-0.0263583
-0.0287968
-0.00190873
-0.00499588
-0.0105068
-0.0123121
-0.0138579
-0.0138971
-0.0162258
-0.016533
-0.0175504
-0.0179847
-0.0188643
-0.0198011
-0.0210978
-0.0224747
-0.0241822
-0.0261863
-0.0285304
-0.0307689
-0.0332266
-0.0362583
-0.0140789
-0.0142054
-0.0191853
-0.0150153
-0.0117707
-0.01393
-0.0138785
-0.0140825
-0.0146709
-0.015594
-0.0170162
-0.0182698
-0.019515
-0.0206068
-0.0220558
-0.0242384
-0.0275458
-0.031248
-0.0352995
-0.0395872
-0.00367626
-0.0043603
-0.00835189
-0.0103031
-0.0114013
-0.0117374
-0.0130176
-0.0143733
-0.0165093
-0.0181731
-0.0202503
-0.0221621
-0.0237864
-0.0243488
-0.0241433
-0.0239552
-0.0246086
-0.0259774
-0.0284387
-0.0319385
-0.00309076
-0.00340769
-0.00663947
-0.011398
-0.0166982
-0.0162506
-0.0152023
-0.0143897
-0.0161449
-0.01934
-0.0235607
-0.0275059
-0.0308293
-0.0319929
-0.0307625
-0.0282985
-0.0271873
-0.0281053
-0.0301129
-0.0308306
-0.0128325
-0.0069243
-0.00420456
-0.00448579
-0.00544012
-0.0061193
-0.00706368
-0.00972758
-0.0156847
-0.0240417
-0.0336028
-0.0425614
-0.0490561
-0.0505898
-0.0460077
-0.0373438
-0.0296909
-0.0253626
-0.0240462
-0.0243439
-0.00489182
-0.00735825
-0.0124109
-0.0174669
-0.0198535
-0.0217062
-0.0241653
-0.0261877
-0.0267275
-0.0255619
-0.0235586
-0.0214939
-0.0203048
-0.0198303
-0.0199702
-0.020183
-0.0206901
-0.0205552
-0.0203292
-0.0202808
-0.0104759
-0.0164678
-0.0199594
-0.0263449
-0.0231844
-0.0248692
-0.0225606
-0.0180817
-0.0154023
-0.0140082
-0.0139244
-0.0141269
-0.0146047
-0.0149543
-0.0153077
-0.0156283
-0.0162116
-0.0171794
-0.0188553
-0.0194712
-0.00606207
-0.0161461
-0.0186498
-0.0193294
-0.0169149
-0.0157816
-0.0150227
-0.0126508
-0.0114156
-0.0108347
-0.0110127
-0.0114719
-0.0122049
-0.0130492
-0.0142224
-0.015471
-0.0169141
-0.0178619
-0.0187216
-0.019289
-0.00536126
-0.0113243
-0.0136042
-0.0139671
-0.0146659
-0.014764
-0.0156015
-0.0135847
-0.0130625
-0.0124
-0.0127225
-0.0130668
-0.0137982
-0.0145026
-0.0154743
-0.0164886
-0.0176546
-0.0187311
-0.0198861
-0.0211229
-0.00374097
-0.00707163
-0.00876451
-0.0111567
-0.0123919
-0.0130283
-0.0139712
-0.0134187
-0.0139404
-0.0137883
-0.0143504
-0.0143507
-0.0146455
-0.0148728
-0.015435
-0.0162118
-0.0171161
-0.0180466
-0.0189159
-0.0198499
-0.003561
-0.0040333
-0.0062491
-0.00969783
-0.0111284
-0.0128888
-0.0145617
-0.0149361
-0.0161759
-0.0162856
-0.0168364
-0.0164384
-0.0159193
-0.0151365
-0.0146457
-0.0144869
-0.0147159
-0.0151663
-0.0157556
-0.0165525
-0.000967885
-0.00193808
-0.00413728
-0.00728015
-0.00987044
-0.0121362
-0.0159438
-0.016697
-0.0187773
-0.0200064
-0.0209724
-0.0210916
-0.0194227
-0.017086
-0.0148745
-0.0135311
-0.013012
-0.0130636
-0.0135941
-0.0144932
-0.00790125
-0.0065872
-0.00826571
-0.0124565
-0.0165223
-0.0171516
-0.0191153
-0.0212729
-0.0233179
-0.0284308
-0.0284708
-0.0269731
-0.0231516
-0.0182405
-0.0103457
-0.0095096
-0.00959043
-0.0103172
-0.0114535
-0.0128775
-0.00711547
-0.00836148
-0.0071258
-0.0105106
-0.0173464
-0.0194286
-0.0210487
-0.0269776
-0.0355584
-0.0400977
-0.0316292
-0.0199748
-0.016426
-0.013762
-0.00918636
-0.0084183
-0.00908995
-0.0100638
-0.0113215
-0.0128007
-0.0134821
-0.0096512
-0.00733221
-0.00910143
-0.013959
-0.0179253
-0.0237941
-0.0299402
-0.0297675
-0.0268224
-0.0210832
-0.0127403
-0.0103913
-0.0105376
-0.00953246
-0.00884005
-0.00959598
-0.0106824
-0.012023
-0.013493
-0.00985965
-0.00938433
-0.00884468
-0.00869036
-0.0109939
-0.0126616
-0.0155884
-0.0185189
-0.0206033
-0.0248408
-0.0290717
-0.0198439
-0.0134959
-0.0125579
-0.00952705
-0.00898224
-0.0100017
-0.0113202
-0.0128314
-0.0143965
-0.0105508
-0.0111367
-0.0099768
-0.00873634
-0.0106597
-0.0117496
-0.0134838
-0.0172801
-0.0232908
-0.0301511
-0.0235113
-0.0129635
-0.0112726
-0.0107673
-0.0085591
-0.00936811
-0.0105275
-0.0118782
-0.013354
-0.0149137
-0.0033744
-0.00708729
-0.00818651
-0.00906473
-0.00992355
-0.0115088
-0.0134296
-0.0197626
-0.0230679
-0.0198413
-0.0111222
-0.0073285
-0.00706544
-0.00756072
-0.00891592
-0.009777
-0.0107974
-0.0119866
-0.0132947
-0.0147824
-0.00326924
-0.00996187
-0.0107896
-0.0101818
-0.0105989
-0.0116443
-0.0134901
-0.0156738
-0.0144861
-0.0130557
-0.0107359
-0.0101443
-0.00998357
-0.0102495
-0.0105937
-0.010942
-0.0115682
-0.012467
-0.0135444
-0.0148289
-0.0041954
-0.00934367
-0.00993549
-0.0103577
-0.0101684
-0.011786
-0.0124651
-0.0127734
-0.0121445
-0.0113273
-0.0108307
-0.0107248
-0.0108816
-0.0112976
-0.0119705
-0.0126859
-0.0134212
-0.0141959
-0.0150698
-0.0160631
-0.00497944
-0.00814314
-0.00899054
-0.00891997
-0.00927199
-0.009468
-0.0103181
-0.0104474
-0.0106289
-0.0107175
-0.010912
-0.0112607
-0.0118504
-0.0126838
-0.0137425
-0.0149125
-0.0160644
-0.0170633
-0.0180123
-0.0188648
-0.00866676
-0.0102976
-0.0088251
-0.00922763
-0.00866926
-0.00955705
-0.00997602
-0.0103233
-0.0107015
-0.0109559
-0.0113551
-0.0118273
-0.012568
-0.0136117
-0.0149954
-0.0165875
-0.0182227
-0.0196466
-0.0208553
-0.021734
-0.00120742
-0.00304569
-0.00609209
-0.00810428
-0.00899734
-0.00929682
-0.0101905
-0.0111306
-0.0122583
-0.0129578
-0.0135876
-0.0139436
-0.0142463
-0.0146238
-0.0153968
-0.016554
-0.0179111
-0.0191645
-0.0202343
-0.0211248
-0.00379242
-0.00411257
-0.00726617
-0.00886223
-0.0104279
-0.00971515
-0.0103074
-0.0115662
-0.0136088
-0.0155774
-0.017459
-0.0185136
-0.0187344
-0.0179338
-0.016969
-0.0165541
-0.0167775
-0.017178
-0.0177289
-0.0184769
-0.00545083
-0.00327292
-0.00348269
-0.00445645
-0.00516497
-0.00565654
-0.00656447
-0.00853309
-0.0120277
-0.0165855
-0.0215545
-0.0255003
-0.0272926
-0.0259613
-0.0223414
-0.0182625
-0.0159121
-0.0153543
-0.0159082
-0.0173217
-0.00371689
-0.00922025
-0.0180016
-0.0234699
-0.0218634
-0.0196036
-0.0195272
-0.0188992
-0.01765
-0.0153525
-0.0134708
-0.0123834
-0.0121691
-0.0123465
-0.0127111
-0.0128677
-0.0130101
-0.0129363
-0.0130253
-0.0131841
-0.00359978
-0.0136077
-0.0203083
-0.019398
-0.0158739
-0.0143565
-0.0128147
-0.011283
-0.0107413
-0.0103606
-0.0105652
-0.0111026
-0.0120707
-0.0133481
-0.0148519
-0.0164809
-0.0181227
-0.0197342
-0.0211641
-0.0223597
-0.00553863
-0.0160914
-0.0191875
-0.0156077
-0.0120377
-0.0103769
-0.0093609
-0.00894611
-0.00912094
-0.00962672
-0.0104618
-0.0114329
-0.0125261
-0.0136145
-0.0146481
-0.0155746
-0.0163621
-0.017011
-0.0175326
-0.0179631
-0.00537033
-0.0140423
-0.0144481
-0.0125249
-0.0106296
-0.00950326
-0.00923813
-0.009219
-0.00969496
-0.0102865
-0.0110608
-0.0118576
-0.012671
-0.013468
-0.0142296
-0.0149538
-0.0156436
-0.0162935
-0.0169537
-0.0176036
-0.0110021
-0.0105685
-0.0103604
-0.0101179
-0.00929543
-0.00896178
-0.0089905
-0.00919652
-0.00969695
-0.0102911
-0.0109598
-0.0116588
-0.0123634
-0.0130924
-0.0138418
-0.0146064
-0.0154107
-0.0162309
-0.0171068
-0.0179359
-0.00760239
-0.00467871
-0.00605246
-0.00845548
-0.00875391
-0.0090066
-0.00901237
-0.00934963
-0.00972
-0.0103345
-0.0108752
-0.0115363
-0.0121569
-0.0128839
-0.0136676
-0.0145509
-0.0154969
-0.0165138
-0.0175372
-0.0184563
-0.00199353
-0.00236388
-0.00503543
-0.00806064
-0.00886989
-0.00909085
-0.00925685
-0.00945713
-0.00976443
-0.0105673
-0.0109171
-0.0115724
-0.0119769
-0.012568
-0.0132515
-0.0141205
-0.0150595
-0.0161104
-0.017122
-0.018045
-0.00803655
-0.00777262
-0.00857932
-0.010174
-0.00988523
-0.0100154
-0.00994385
-0.00998542
-0.0100735
-0.0106974
-0.0105939
-0.0106328
-0.0106267
-0.0109365
-0.012575
-0.0133984
-0.0142309
-0.015113
-0.0159434
-0.0167133
-0.00235448
-0.00583284
-0.00839938
-0.0100192
-0.0103401
-0.0117321
-0.0110049
-0.0114666
-0.0115108
-0.0100593
-0.00869777
-0.00832102
-0.0086262
-0.0090082
-0.0102821
-0.0124235
-0.0131657
-0.0139122
-0.0146396
-0.0153054
-0.0192727
-0.00865577
-0.00782277
-0.00949112
-0.0103212
-0.0107203
-0.0123515
-0.012165
-0.00947938
-0.00795294
-0.00699548
-0.00678622
-0.00717532
-0.00792771
-0.0101313
-0.0123415
-0.0130214
-0.0136701
-0.014321
-0.0149213
-0.0111418
-0.00771214
-0.00761646
-0.0083617
-0.00913251
-0.00961177
-0.00979633
-0.00868242
-0.00799969
-0.00822958
-0.00815315
-0.00698179
-0.00717566
-0.00796592
-0.0101562
-0.0127499
-0.0136278
-0.0143823
-0.0151165
-0.0157423
-0.00782275
-0.00815197
-0.00759045
-0.00779102
-0.00808161
-0.00812484
-0.00789207
-0.00756999
-0.00683652
-0.00674792
-0.0063826
-0.00631975
-0.00682305
-0.0077867
-0.0104375
-0.0141108
-0.0152268
-0.0161666
-0.0170555
-0.0177194
-0.00604404
-0.00834402
-0.00789587
-0.00763784
-0.0074287
-0.00725363
-0.00723773
-0.00771119
-0.00698257
-0.00657568
-0.00680523
-0.00761206
-0.00866598
-0.00987729
-0.0138941
-0.015415
-0.016878
-0.0182597
-0.0195371
-0.0205024
-0.00344791
-0.00874766
-0.0083052
-0.0077357
-0.00726464
-0.00701138
-0.00662251
-0.00705707
-0.0070799
-0.00769262
-0.00845925
-0.00951538
-0.0108126
-0.0122765
-0.0139065
-0.0156976
-0.017557
-0.0193817
-0.0211081
-0.0225145
-0.00640629
-0.00852831
-0.0080792
-0.00767429
-0.00693357
-0.00710612
-0.00656766
-0.00689841
-0.00712553
-0.00772633
-0.00856014
-0.00964609
-0.0109493
-0.0124613
-0.0141432
-0.0159779
-0.0179129
-0.0198557
-0.0216758
-0.023178
-0.0100317
-0.00963878
-0.00748585
-0.00706318
-0.00690007
-0.00694115
-0.00700572
-0.00724031
-0.00766772
-0.00835924
-0.00921109
-0.0102585
-0.0114775
-0.0128838
-0.0144823
-0.0162519
-0.018159
-0.0201174
-0.0219699
-0.0235313
-0.023983
-0.015077
-0.00784184
-0.00702277
-0.00703794
-0.00741397
-0.00755393
-0.00792053
-0.00849388
-0.00923576
-0.0101571
-0.0111535
-0.0122768
-0.0135169
-0.0149459
-0.0165715
-0.0184133
-0.0204368
-0.0225393
-0.0245184
-0.0125756
-0.00882498
-0.00749146
-0.00723537
-0.00742181
-0.00759028
-0.00807571
-0.00833124
-0.00887882
-0.00948099
-0.0103291
-0.0112972
-0.0123813
-0.0135322
-0.0147791
-0.0161351
-0.0176639
-0.0194044
-0.0213337
-0.0232837
-0.00536612
-0.00774794
-0.00757979
-0.00698763
-0.00717411
-0.00760747
-0.00845783
-0.0092196
-0.00993098
-0.0103477
-0.0107433
-0.0112176
-0.0120684
-0.0132786
-0.0148325
-0.0166037
-0.0185178
-0.0205326
-0.0225548
-0.0245363
-0.00225573
-0.00659379
-0.00741312
-0.00632372
-0.00531217
-0.00530491
-0.00642356
-0.00819073
-0.0102906
-0.0116735
-0.0123773
-0.0120743
-0.0119923
-0.0119372
-0.0125683
-0.0140674
-0.016682
-0.0202149
-0.0243923
-0.0289417
-0.0533076
-0.0402976
-0.0509071
-0.0359723
-0.0320345
-0.0311419
-0.0351799
-0.0478391
-0.0542146
-0.0570108
-0.0298724
-0.02114
-0.0347119
-0.0274674
-0.0520042
-0.0462817
-0.0612708
-0.0321333
-0.0383314
-0.0375309
-0.0391567
-0.0574531
-0.0635919
-0.0545882
-0.0385615
-0.0310929
-0.0364608
-0.0242705
-0.114519
-0.1035
-0.10404
-0.112943
-0.105804
-0.0989376
-0.101271
-0.107832
-0.103802
-0.101849
-0.0993135
-0.0923723
-0.101515
-0.101594
-0.0995109
-0.100876
-0.0981102
-0.094223
-0.0973802
-0.10134
-0.0990204
-0.0956237
-0.0976039
-0.0975933
-0.097568
-0.0983708
-0.0975718
-0.0901346
-0.100256
-0.0973031
-0.0970182
-0.0989117
-0.0995869
-0.0880662
-0.089858
-0.103434
-0.0981785
-0.103877
-0.0984891
-0.0917813
-0.0909528
-0.0858005
-0.0988559
-0.104917
-0.103177
-0.0902756
-0.0919924
-0.0828254
-0.0802485
-0.101892
-0.101658
-0.0980789
-0.0951972
-0.110183
-0.0821301
-0.0947654
-0.106767
-0.115307
-0.113194
-0.105932
-0.107116
-0.111764
-0.110459
-0.103319
-0.11105
-0.103992
-0.106659
-0.104685
-0.106197
-0.0861526
-0.10016
-0.10192
-0.0969676
-0.103565
-0.0965512
-0.0791184
-0.0617627
-0.0976863
-0.0955037
-0.0912879
-0.0924611
-0.079913
-0.0581098
-0.0568405
-0.0950771
-0.0899074
-0.0888927
-0.0786005
-0.0854573
-0.060507
-0.079596
-0.103085
-0.0913419
-0.10174
-0.0885475
-0.0870368
-0.0860299
-0.0962372
-0.104715
-0.104643
-0.10878
-0.0836415
-0.0774124
-0.094681
-0.0828985
-0.0998992
-0.108687
-0.10647
-0.078138
-0.0886446
-0.0800598
-0.0812972
-0.106376
-0.108167
-0.097271
-0.106334
-0.0914344
-0.0890028
-0.0664016
-0.0953552
-0.0941389
-0.0863411
-0.0842068
-0.0645938
-0.0613495
-0.051549
-0.0884412
-0.0841775
-0.0790806
-0.0596676
-0.0496151
-0.049541
-0.0481874
-0.0846224
-0.0778636
-0.0760472
-0.0481238
-0.0528373
-0.0501652
-0.0650526
-0.0868342
-0.076896
-0.0923975
-0.0584308
-0.0810769
-0.0726885
-0.0977019
-0.102712
-0.100071
-0.114709
-0.088038
-0.10059
-0.104711
-0.114486
-0.109788
-0.116084
-0.114978
-0.100474
-0.0902833
-0.114493
-0.110842
-0.10852
-0.114112
-0.112059
-0.086894
-0.0851278
-0.10939
-0.107699
-0.0983233
-0.11155
-0.104051
-0.0901293
-0.0780442
-0.100708
-0.0978443
-0.0874246
-0.101371
-0.0935857
-0.0751017
-0.0669054
-0.0966983
-0.0936172
-0.0798495
-0.0913
-0.0859907
-0.0646772
-0.062684
-0.0927512
-0.0913503
-0.076842
-0.085044
-0.0887986
-0.0646888
-0.0764348
-0.0919991
-0.101813
-0.098323
-0.0949398
-0.129292
-0.0824364
-0.105783
-0.109041
-0.132098
-0.121426
-0.140199
-0.149514
-0.111822
-0.115083
-0.133245
-0.113111
-0.118543
-0.146399
-0.131926
-0.113472
-0.110211
-0.105344
-0.0945381
-0.112916
-0.127047
-0.115985
-0.110022
-0.111694
-0.094548
-0.0989111
-0.0336076
-0.0385657
-0.048899
-0.0266514
-0.0325768
-0.0322426
-0.0387481
-0.0442799
-0.0526073
-0.0701394
-0.0353539
-0.0450891
-0.041174
-0.0491581
-0.0724585
-0.074365
-0.0786844
-0.0486037
-0.0599256
-0.0518441
-0.059223
-0.0911514
-0.0784244
-0.0754811
-0.0640782
-0.0736911
-0.0610791
-0.0636285
-0.0909562
-0.0752855
-0.0781838
-0.0746097
-0.0693036
-0.0635007
-0.0574714
-0.0814444
-0.078142
-0.0701163
-0.0657587
-0.0576355
-0.0530814
-0.0399874
-0.0801112
-0.0669596
-0.0634274
-0.0569256
-0.0583642
-0.0377408
-0.0379104
-0.0893568
-0.0643281
-0.07299
-0.0594948
-0.0609437
-0.0393088
-0.0437425
-0.0554454
-0.0387676
-0.0411622
-0.0315891
-0.037908
-0.0292442
-0.0297694
-0.073297
-0.0396971
-0.0346333
-0.0400195
-0.0461605
-0.029434
-0.0299268
-0.0678864
-0.0339498
-0.0357302
-0.048152
-0.0535691
-0.0309244
-0.0366922
-0.0659352
-0.0373197
-0.0461219
-0.0549455
-0.058459
-0.0396604
-0.0514976
-0.0754902
-0.0515171
-0.0738398
-0.0595884
-0.0578989
-0.0558676
-0.0640058
-0.0706541
-0.0798434
-0.0820413
-0.0542678
-0.0398032
-0.0633537
-0.0508615
-0.059939
-0.077561
-0.0628292
-0.0364799
-0.0343302
-0.0454239
-0.0351809
-0.0686236
-0.0601491
-0.0623759
-0.0354169
-0.0400469
-0.0343241
-0.0369861
-0.0259032
-0.0180716
-0.017717
-0.0208541
-0.0208712
-0.0175243
-0.0184016
-0.0235129
-0.0180785
-0.0204659
-0.0209889
-0.0236696
-0.0193199
-0.0246757
-0.0279842
-0.0218531
-0.0289189
-0.0255239
-0.0340712
-0.0275225
-0.0397192
-0.0429013
-0.0328468
-0.0559508
-0.0379916
-0.0523483
-0.044991
-0.062323
-0.0761351
-0.0669931
-0.0918377
-0.057215
-0.0653501
-0.0670426
-0.0650286
-0.0870322
-0.0947101
-0.0891632
-0.0646194
-0.0535406
-0.0597234
-0.0454296
-0.0681682
-0.085681
-0.0777038
-0.0486425
-0.0383244
-0.0428057
-0.040146
-0.0640194
-0.0764004
-0.0773595
-0.0370224
-0.0383031
-0.040387
-0.0422241
-0.0225962
-0.0236734
-0.0282935
-0.020698
-0.0222704
-0.023131
-0.0249286
-0.0257282
-0.0305457
-0.0397739
-0.0231127
-0.0280302
-0.0263659
-0.0355464
-0.0344159
-0.0441099
-0.0614141
-0.0308182
-0.043225
-0.0401998
-0.056878
-0.066289
-0.0694678
-0.0952479
-0.0486366
-0.0664372
-0.0638221
-0.0776165
-0.0967406
-0.102869
-0.10267
-0.070405
-0.0611912
-0.0754474
-0.0485963
-0.0810872
-0.0902951
-0.0536306
-0.0538252
-0.038614
-0.0392457
-0.0250307
-0.071338
-0.0473627
-0.04224
-0.0366682
-0.0363339
-0.0236817
-0.0242711
-0.0767036
-0.0433048
-0.0506544
-0.037146
-0.0396198
-0.0250952
-0.0273722
-0.030396
-0.0273879
-0.0353419
-0.0240036
-0.0315166
-0.0278602
-0.0355689
-0.0430066
-0.0382484
-0.0467547
-0.0342909
-0.0417917
-0.03787
-0.0422334
-0.0581813
-0.049274
-0.0553179
-0.0437796
-0.0483295
-0.0426689
-0.0412357
-0.0689109
-0.056581
-0.0571198
-0.0489929
-0.0456059
-0.0399262
-0.0333169
-0.0601339
-0.0560242
-0.0465396
-0.0425125
-0.0314996
-0.030255
-0.0205891
-0.0475439
-0.0417212
-0.0302636
-0.0287205
-0.0253577
-0.0180826
-0.014397
-0.0442413
-0.0286054
-0.0285218
-0.0250562
-0.0233049
-0.0141192
-0.0141204
-0.0420158
-0.0292743
-0.0313292
-0.0224444
-0.0191665
-0.0140971
-0.0136428
-0.0339939
-0.0216481
-0.0248816
-0.0259225
-0.0338516
-0.0212119
-0.0242087
-0.0434867
-0.0256731
-0.0288076
-0.0358456
-0.0388982
-0.0246778
-0.0257173
-0.0495204
-0.0302953
-0.0367292
-0.0388934
-0.0369348
-0.0261737
-0.0288362
-0.043892
-0.0515647
-0.0455985
-0.0473743
-0.0472854
-0.0476556
-0.0427416
-0.0468447
-0.0531345
-0.0529935
-0.0468869
-0.053892
-0.045157
-0.0471838
-0.0297847
-0.054671
-0.0400016
-0.0184169
-0.0138916
-0.0246788
-0.0177836
-0.0259351
-0.0350115
-0.0269068
-0.0134476
-0.0134433
-0.0166046
-0.01553
-0.029391
-0.026423
-0.0286258
-0.0135495
-0.0136605
-0.0155896
-0.015838
-0.0185039
-0.0139146
-0.0168627
-0.0157935
-0.0188893
-0.0146853
-0.0182374
-0.0241467
-0.0183211
-0.0249946
-0.0198822
-0.0230807
-0.019727
-0.0251909
-0.0353765
-0.0281268
-0.0409081
-0.0242734
-0.0290208
-0.0273592
-0.0350369
-0.0453178
-0.0439424
-0.0408739
-0.039378
-0.0458201
-0.0428835
-0.040757
-0.0550252
-0.0573974
-0.058943
-0.0518468
-0.0611081
-0.0522433
-0.0547962
-0.0425058
-0.0486468
-0.0355354
-0.0273858
-0.0191009
-0.0211494
-0.0166945
-0.0297186
-0.0334309
-0.0315857
-0.0177521
-0.016353
-0.0162305
-0.0157774
-0.0300758
-0.0318324
-0.03297
-0.0163003
-0.0161078
-0.015653
-0.0148694
-0.0182428
-0.0156372
-0.0191938
-0.0156266
-0.0195325
-0.0157226
-0.0202198
-0.0266581
-0.021283
-0.0323876
-0.0212502
-0.0274562
-0.0230063
-0.0320081
-0.0436577
-0.0374262
-0.0540903
-0.029787
-0.037058
-0.0344185
-0.0383898
-0.0638406
-0.0597354
-0.0646695
-0.0391415
-0.0378209
-0.037983
-0.0278144
-0.0493104
-0.0596542
-0.0327092
-0.0338389
-0.0202406
-0.0226384
-0.0121947
-0.0295379
-0.0251637
-0.0156542
-0.0175202
-0.0145424
-0.0108134
-0.00973091
-0.0282457
-0.0151032
-0.0160327
-0.0143912
-0.0144012
-0.00975111
-0.0100101
-0.0303897
-0.0166692
-0.0185993
-0.0143499
-0.013758
-0.0100741
-0.0101986
-0.0251749
-0.0243105
-0.0297703
-0.019845