/*--------------------------------*- C++ -*----------------------------------*\
  =========                 |
  \\      /  F ield         | OpenFOAM: The Open Source CFD Toolbox
   \\    /   O peration     | Website:  https://openfoam.org
    \\  /    A nd           | Version:  10
     \\/     M anipulation  |
\*---------------------------------------------------------------------------*/
FoamFile
{
    format      ascii;
    class       volVectorField;
    location    "5.6";
    object      U;
}
// * * * * * * * * * * * * * * * * * * * * * * * * * * * * * * * * * * * * * //

dimensions      [0 1 -1 0 0 0 0];

internalField   nonuniform List<vector> 
12920
(
(75.9521 -148.17 -44.3062)
(-85.451 -87.7367 -28.7019)
(80.4583 -44.5912 -27.7679)
(54.182 -12.937 -8.65375)
(104.175 6.07771 -5.29224)
(84.4333 13.2451 -3.41039)
(96.0059 19.9118 -1.75969)
(77.7227 15.7459 -1.0047)
(82.6739 12.2538 -0.081953)
(73.4557 4.72231 0.233802)
(78.6207 1.03988 0.407787)
(76.8364 -3.69948 0.501755)
(82.1475 -4.828 0.345266)
(84.2174 -7.48773 0.0733846)
(91.0608 -8.33344 -0.360577)
(96.8496 -8.03466 -0.587227)
(101.19 -3.50584 -0.0222795)
(98.8473 1.33368 0.416403)
(92.7158 6.44993 0.161187)
(83.6226 5.54117 -0.42301)
(207.134 124.594 -10.0455)
(144.383 121.701 -16.4842)
(140.796 65.1017 23.7162)
(27.3096 25.4623 6.93643)
(79.1003 29.6448 4.06442)
(31.9696 14.5001 2.90933)
(61.9539 8.28845 4.30881)
(33.8603 -1.38851 3.11213)
(50.9698 -5.1628 2.24251)
(37.0381 -7.01403 0.751092)
(47.2497 -6.00587 -0.179503)
(41.9278 -4.99592 -1.06876)
(48.4004 -3.3639 -1.42949)
(47.6329 -2.03916 -1.87876)
(51.8356 -1.28029 -1.97625)
(52.65 1.02633 -2.38651)
(56.9643 2.65176 -2.36559)
(61.6739 4.68955 -1.6715)
(64.7298 4.37775 0.0332105)
(63.2933 1.37609 0.728649)
(207.195 16.5372 -14.1106)
(55.1193 41.8891 17.3166)
(109.745 31.5966 26.3413)
(0.477398 14.5437 4.98209)
(72.3105 -1.42876 2.07568)
(32.5936 2.11538 -0.363458)
(63.9895 -3.19675 0.588696)
(39.6491 1.1435 0.204079)
(50.3451 -1.39953 0.879674)
(34.1422 1.0981 0.125242)
(41.563 -0.0578691 -0.0293636)
(35.1332 0.69342 -0.373865)
(41.221 0.0622084 -0.377458)
(39.8288 0.383699 -0.352522)
(43.8881 0.190379 -0.26328)
(44.2136 0.881622 -0.00349084)
(46.5303 1.59905 0.194538)
(48.3789 2.6985 0.38272)
(50.622 2.62184 0.666025)
(49.9612 0.43277 0.578074)
(175.254 14.0865 18.6786)
(121.169 32.4272 10.1783)
(137.314 23.5466 -2.73609)
(87.3926 19.2786 -4.68602)
(101.064 11.0685 -2.73204)
(54.4645 12.6026 -1.86442)
(67.8748 6.04275 -0.225978)
(36.5864 5.33054 0.0743221)
(45.7511 0.0893087 1.03636)
(26.3814 -0.448276 0.292934)
(35.767 -3.33994 0.244048)
(28.3465 -2.9435 0.0858097)
(35.344 -4.05459 0.1536)
(33.2876 -3.16802 0.154806)
(37.306 -3.32813 0.21225)
(37.4048 -2.12334 0.179987)
(39.0259 -2.002 0.166069)
(40.9266 -1.05995 0.105318)
(43.4701 -1.74169 0.0470769)
(44.8027 -3.18959 0.073126)
(98.1181 -100.233 -31.4605)
(-165.952 33.3519 1.74695)
(89.9662 72.1933 -18.4755)
(9.98631 50.6624 -0.513603)
(73.0347 45.564 0.874001)
(29.4949 31.4171 0.66309)
(55.7993 17.3918 1.63652)
(32.5465 16.5199 0.478073)
(46.2431 4.92385 0.546851)
(34.1608 6.52284 0.0198063)
(43.1426 -1.8273 0.12799)
(38.3214 -0.931394 0.183981)
(44.0122 -5.10939 0.397105)
(42.312 -3.64644 0.363127)
(45.3602 -4.5886 0.331015)
(44.8766 -2.71607 0.152954)
(45.8297 -2.61302 0.107635)
(46.5211 -1.59691 0.0492531)
(47.9472 -2.1111 -0.0056301)
(47.6281 -3.37136 -0.017173)
(83.8261 -290.642 -52.7815)
(-137.079 -42.8718 8.8092)
(68.3242 -21.4299 -3.04765)
(-46.5198 7.16688 0.743308)
(61.5462 6.01586 0.284382)
(-4.39529 15.8393 0.942362)
(49.4021 2.42211 0.121166)
(24.8047 8.11233 0.101315)
(43.6532 0.461329 -0.477568)
(36.4758 0.0890944 -0.560233)
(46.4285 -6.31384 -0.512582)
(44.8042 -6.93545 -0.106884)
(49.4086 -9.04437 0.274519)
(48.4046 -7.6339 0.663926)
(49.7797 -7.05103 0.880044)
(48.6506 -4.38614 0.477402)
(47.8502 -3.85246 0.318553)
(47.4597 -2.71177 0.136962)
(48.095 -3.46747 0.0922209)
(47.6438 -4.8188 0.0970664)
(119.82 115.67 127.051)
(-22.7761 50.4176 -21.6468)
(104.919 69.2008 -25.4877)
(29.9576 36.4611 -4.17594)
(85.0445 30.8701 -1.62144)
(40.2646 25.9376 -1.37883)
(63.4364 -5.13512 -1.27448)
(49.3947 16.7081 -1.19543)
(62.4592 -1.06537 -1.52674)
(60.912 4.4738 -1.37998)
(72.2265 -7.40981 -0.817008)
(74.4222 -6.14871 0.0860452)
(76.8947 -10.8874 0.724049)
(71.803 -8.58819 1.22534)
(66.2817 -9.94001 1.31154)
(58.7964 -4.12534 0.804455)
(54.9847 -3.12379 0.60044)
(52.2847 -1.94989 0.343476)
(51.9306 -3.5122 0.162261)
(51.8508 -5.48505 0.227381)
(-48.7188 107.449 203.816)
(-210.987 66.8612 -13.7599)
(66.4601 58.1465 -0.5492)
(-51.5912 23.9404 2.02664)
(66.812 13.392 0.0490212)
(26.2913 33.3979 -1.05848)
(55.3996 22.4267 -1.55351)
(39.9493 9.21646 -1.44175)
(60.0379 16.1107 -1.7868)
(68.5592 1.71369 -0.92989)
(82.4234 -2.17109 0.153749)
(88.1342 -11.1518 0.605821)
(95.059 -7.82025 0.677715)
(91.2714 -6.70585 1.03735)
(61.6066 -1.24792 1.6731)
(52.2201 1.95014 1.0422)
(47.7483 -0.32442 0.0720936)
(48.2028 -0.8844 -0.0788074)
(50.2334 -4.90727 -0.17652)
(52.9643 -8.08455 -0.108377)
(94.0405 16.0753 -49.0773)
(-105.897 17.328 14.0643)
(91.6417 -8.9827 -13.7397)
(8.44959 -5.45948 -4.65116)
(75.5452 -16.8142 -4.61747)
(49.5826 17.4673 -1.53501)
(70.8421 27.6579 -0.0760097)
(58.259 11.8244 -0.722603)
(68.2716 6.67447 -1.25056)
(77.3061 -6.60477 0.314634)
(52.3286 -15.1452 0.781398)
(49.25 -23.6062 0.0811703)
(58.9847 -12.7635 -0.402717)
(64.1622 0.123716 -0.155465)
(59.9434 7.66764 0.408594)
(48.7034 4.30222 0.259336)
(47.8105 0.795702 -0.2329)
(51.2176 -3.13593 -0.309572)
(54.0588 -8.19123 -0.201782)
(54.3832 -9.67372 -0.208477)
(-1.13447 105.201 26.7524)
(-79.3763 -16.0474 -11.9094)
(88.6666 -19.0663 -1.1272)
(15.0237 13.3046 -4.34594)
(79.496 16.3567 -2.28248)
(35.3522 13.8707 -0.294907)
(56.7666 15.0265 0.650479)
(72.0643 11.4904 0.506807)
(68.9364 0.401316 0.794885)
(55.2962 -4.08042 -0.0501806)
(58.0965 -11.0561 -1.07125)
(58.062 -24.5715 -0.266521)
(55.2796 -10.0527 -0.403446)
(56.682 1.78885 -0.426194)
(54.5696 6.90438 -0.0505812)
(51.3522 5.50063 -0.187258)
(52.4748 -0.512909 -0.313592)
(54.5311 -4.47565 -0.24121)
(54.7998 -7.8756 -0.177363)
(52.3566 -9.01898 -0.150321)
(125.493 -3.91578 -54.1594)
(53.6649 -79.7509 0.875424)
(152.168 -74.0828 14.1085)
(67.923 -11.8048 6.47377)
(94.8964 10.839 5.03683)
(43.8069 11.2741 -1.34725)
(53.0726 5.66608 0.200661)
(59.6367 2.19494 -0.555438)
(69.0058 -2.08943 -0.407225)
(73.1065 -0.748457 -0.479412)
(77.9106 -2.04073 -0.180331)
(67.0818 -21.2851 0.49395)
(56.2507 -3.95097 0.137476)
(55.4535 4.53317 -0.204733)
(56.5186 7.48365 -0.0727111)
(55.2569 5.21023 -0.0911737)
(55.4555 -0.19897 0.0555394)
(54.3397 -3.4283 -0.0292088)
(53.4896 -6.25661 -0.199227)
(51.1694 -8.24031 -0.223822)
(375.814 -90.1343 -86.8151)
(218.475 -96.7848 12.5049)
(157.754 -23.4512 26.5794)
(33.3556 17.9767 6.0129)
(76.2159 37.8051 2.48275)
(33.1024 20.0231 0.40428)
(63.2381 7.60952 -0.660856)
(75.2854 1.25287 -0.467611)
(80.5495 3.43205 -0.442119)
(83.2416 4.32018 -0.324356)
(79.8832 0.191398 1.28239)
(55.1007 -11.1833 0.317734)
(49.9387 -2.19497 -0.16913)
(52.3271 4.18335 -0.09106)
(53.0004 7.12117 -0.0997038)
(52.2124 4.3279 0.376838)
(53.2017 0.495459 0.339428)
(53.2508 -1.71726 0.109905)
(53.4911 -4.67711 -0.257468)
(52.5649 -7.19078 -0.350901)
(350.217 -161.361 -248.861)
(86.1748 -150.609 -41.2063)
(153.919 -38.0844 -7.45304)
(60.6653 18.2683 2.35122)
(104.213 23.7681 1.81097)
(69.2113 -12.4308 -0.339564)
(86.2278 -3.17174 -0.249039)
(75.9977 3.59037 -0.157177)
(85.4198 5.33526 0.204231)
(78.9464 2.1346 1.09524)
(60.47 0.361491 1.93236)
(40.3436 -0.333804 0.588647)
(40.4313 0.614403 -0.0442381)
(41.7967 2.92684 -0.0153375)
(45.0354 0.523609 0.513478)
(48.9619 -0.210071 0.584893)
(50.4851 -2.53203 0.276739)
(52.5909 -3.61144 0.096961)
(54.3747 -5.28245 -0.26297)
(54.6874 -7.23331 -0.364112)
(157.116 -98.4589 -26.4642)
(10.7909 -24.9028 -16.8706)
(96.6003 3.73325 10.7652)
(29.9389 21.9782 3.61155)
(95.5768 26.0571 4.29843)
(63.4491 7.79172 0.948315)
(80.3772 27.146 0.189027)
(62.6032 -1.02903 0.49541)
(64.4603 13.7084 1.03629)
(50.2701 2.70766 1.57815)
(51.8459 7.68643 0.892456)
(46.9418 0.0151775 0.590266)
(49.8489 0.546972 0.40278)
(49.244 -3.20317 0.541431)
(51.6903 -2.78437 0.838931)
(53.2674 -4.11325 0.667859)
(56.1593 -5.04877 0.396583)
(57.8138 -5.2065 0.214416)
(59.8625 -6.28753 -0.105732)
(59.6854 -7.23909 -0.273555)
(291.138 53.6835 -181.015)
(-26.1361 -57.8524 -4.50433)
(146.948 -38.9563 -7.05395)
(-0.456609 -12.1772 2.7835)
(88.9677 -6.18419 1.88542)
(3.8566 -11.7451 0.984354)
(66.9769 2.82934 -0.248925)
(33.2389 -1.69137 0.745737)
(54.2928 1.05963 0.212403)
(44.2973 -1.448 0.395971)
(53.4295 -2.25683 0.121423)
(52.6078 -5.59618 -0.292479)
(56.8994 -6.32345 -0.457311)
(58.045 -8.80119 -0.44951)
(62.0818 -9.2234 -0.150658)
(64.1631 -9.40807 0.2187)
(66.6275 -9.02824 0.322047)
(67.7951 -7.89731 0.335682)
(69.1983 -7.67713 0.10554)
(67.1685 -7.25607 -0.119328)
(101.493 -47.7514 -112.426)
(-24.0763 66.1149 -13.0613)
(112.686 45.0635 2.22868)
(21.6758 21.9112 1.04918)
(85.4665 25.1771 2.98785)
(43.9873 5.78178 0.362765)
(70.5426 9.73934 0.980107)
(53.5002 0.615901 0.0646296)
(63.9591 4.41602 -0.0329506)
(57.4708 -0.126766 -0.586777)
(63.7786 0.872513 -0.758675)
(62.1667 -2.84843 -1.1241)
(66.3545 -3.26498 -1.22476)
(66.4212 -6.51739 -1.32582)
(71.2324 -8.22435 -1.04155)
(73.292 -10.379 -0.412603)
(75.7186 -10.3093 0.0329864)
(76.2878 -9.02477 0.372062)
(77.6093 -7.4322 0.285165)
(75.431 -6.17326 0.122339)
(136.976 10.9172 71.1978)
(41.4759 27.7666 -8.14532)
(117.108 10.1984 13.0122)
(-30.8472 5.28808 0.842455)
(86.7799 -11.9591 3.77858)
(12.4781 -3.63458 1.02673)
(72.0707 -2.19715 0.573199)
(45.2003 1.42624 1.08911)
(67.9878 0.937915 0.712482)
(59.6265 0.598516 0.091961)
(69.387 -1.32745 -0.555621)
(67.9746 -3.01259 -1.25675)
(73.3398 -3.81366 -1.47693)
(74.8642 -7.93624 -2.35056)
(81.4187 -11.2805 -1.69178)
(83.4515 -12.983 -0.431519)
(84.663 -12.6738 0.130939)
(83.8601 -11.8357 0.344654)
(83.5508 -9.93926 0.495899)
(80.1773 -7.61016 0.298549)
(302.09 52.4904 -14.3516)
(266.17 69.6709 -2.7257)
(278.164 37.7317 11.0483)
(199.003 22.8118 7.1019)
(187.637 -12.7636 4.37994)
(152.529 -9.68751 0.0381799)
(152.845 -17.2001 -0.0284015)
(139.05 -12.8923 -0.34989)
(136.167 -10.2176 0.95107)
(122.828 -4.90807 0.732941)
(117.438 -2.18854 0.717947)
(105.787 -0.290552 -0.0903325)
(103.317 -0.962745 -0.483085)
(97.735 -2.84661 -0.716107)
(97.3339 -7.55956 -0.210392)
(94.362 -11.6343 0.0665801)
(92.966 -11.6419 0.271993)
(89.5151 -9.89377 0.328357)
(87.5678 -8.18531 0.340926)
(82.2671 -6.40251 0.122376)
(193.087 187.832 -88.1909)
(10.1622 102.214 8.6469)
(128.709 38.7499 6.98316)
(89.8961 11.2705 1.82523)
(129.409 13.9278 2.7175)
(101.184 11.9478 1.80205)
(114.138 11.8995 2.14727)
(100.263 12.1824 0.381135)
(106.544 12.5539 -0.000490411)
(100.687 12.3613 -0.754111)
(102.694 12.0385 -0.730538)
(97.7952 11.2247 -0.673968)
(97.3845 8.19303 0.0111734)
(90.6698 1.98465 -0.235062)
(91.2462 -6.46571 -1.36657)
(91.1249 -9.43792 -0.81947)
(91.7632 -9.32407 -0.464431)
(90.6535 -8.07967 -0.0880352)
(89.4205 -6.38784 0.835462)
(83.0966 -4.99681 0.689652)
(-25.6067 -120.043 -29.6687)
(-15.9295 25.6978 -15.9226)
(136.861 -15.1004 -23.3656)
(101.028 -28.714 -11.8951)
(144.189 -38.0364 -7.46074)
(124.061 -31.4376 -4.9157)
(134.102 -28.0593 -2.35905)
(121.79 -18.2036 -1.37574)
(126.099 -10.0305 0.916185)
(118.242 0.56213 1.97033)
(122.463 6.8878 2.58464)
(120.486 10.1221 2.9663)
(122.73 10.562 2.67501)
(121.807 9.84675 1.89135)
(121.969 3.4317 0.743603)
(114.585 -6.18302 -0.980178)
(109.474 -8.46186 -1.85478)
(104.27 -7.38214 -2.10449)
(102.818 -6.49803 -1.46526)
(95.4197 -4.90404 -1.04993)
(210.012 -173.396 -9.01543)
(135.568 -46.5934 -12.7133)
(154.934 5.07916 -25.2303)
(82.7579 6.63157 -16.9929)
(106.041 7.07004 -14.6598)
(78.6699 3.55569 -8.30973)
(91.1597 6.81153 -3.42476)
(75.1568 4.43091 -1.43182)
(81.9161 4.86397 0.740052)
(73.559 1.63577 0.959849)
(78.6207 0.30865 1.17867)
(76.5996 -1.51437 0.938002)
(81.4124 -1.98766 0.617803)
(82.3662 -2.40582 -0.15004)
(86.3195 -1.70711 -0.408813)
(87.043 -0.129544 -0.934266)
(86.6011 3.29074 -0.184677)
(81.0182 6.25152 0.837745)
(75.8488 5.10495 1.24312)
(69.6759 1.41722 0.321103)
(48.0928 -18.5935 -242.802)
(-132.545 9.76019 -39.7856)
(74.964 55.9271 9.91413)
(-4.53871 20.3556 3.40008)
(71.5116 23.7887 0.263709)
(17.8795 8.34095 3.38643)
(54.9695 4.41142 6.19992)
(27.5942 -1.79719 4.25931)
(47.3079 -3.1126 3.01667)
(34.3841 -4.06403 0.608525)
(44.6601 -3.03066 -0.729073)
(39.0048 -2.55141 -2.13637)
(44.7844 -1.39022 -2.56606)
(42.8711 -0.976741 -3.13806)
(46.36 -0.142276 -3.2061)
(46.2255 0.578224 -3.52731)
(47.8848 1.53985 -2.982)
(49.1434 2.5291 -1.53886)
(51.2056 1.33869 0.570858)
(50.6102 -0.674161 1.04951)
(134.54 -36.418 -21.9901)
(-176.029 -23.3781 19.1257)
(91.0357 9.54052 19.0263)
(-25.9358 8.77348 3.08495)
(63.5053 -2.74698 1.89098)
(11.8333 4.10243 -0.493919)
(49.2425 -1.94372 1.99518)
(21.1651 3.53054 0.439701)
(38.7057 0.1496 1.42885)
(23.695 2.06912 -0.113675)
(33.9012 -0.00333825 -0.18764)
(27.3816 0.245777 -0.763117)
(33.8949 -0.811166 -0.611718)
(31.775 -0.608504 -0.644576)
(35.6737 -0.800719 -0.396546)
(35.5253 -0.297096 -0.0969837)
(37.5562 0.273285 0.269324)
(39.1178 1.29415 0.585672)
(41.5127 0.960551 0.922355)
(41.3291 -0.473907 0.743426)
(181.467 -116.933 -77.0333)
(114.59 2.79449 -11.9259)
(140.496 18.9973 3.01893)
(71.8631 22.2261 1.65843)
(84.6151 8.63113 0.654581)
(28.908 9.25117 -1.12876)
(50.5448 1.37964 1.37698)
(16.5137 3.29647 0.345094)
(34.965 -1.33676 1.59001)
(17.566 -0.497203 0.202775)
(29.6405 -3.2948 0.317861)
(22.2834 -2.64595 0.0634751)
(29.5771 -3.82225 0.220954)
(27.0998 -2.90404 0.159763)
(31.0703 -3.06311 0.275283)
(30.8473 -1.97366 0.176401)
(32.4883 -1.86329 0.218839)
(33.9408 -1.03872 0.165541)
(36.246 -1.59521 0.0969789)
(36.9592 -2.44417 0.173288)
(29.647 78.0343 -106.745)
(-94.9012 38.393 5.2475)
(64.0449 68.6728 -20.1531)
(-10.2495 45.7564 1.06376)
(58.7759 38.4184 2.0756)
(7.79163 24.7067 0.605161)
(43.0257 11.159 2.53833)
(17.0223 13.2804 0.307382)
(35.1424 1.37751 0.758336)
(22.1957 4.7454 -0.0764135)
(32.9358 -3.42007 0.321667)
(27.4954 -1.0997 0.336087)
(33.8976 -4.97068 0.737782)
(31.7954 -2.92406 0.589119)
(35.1202 -4.02446 0.589281)
(34.4976 -2.37033 0.273789)
(35.6611 -2.63111 0.232411)
(36.4374 -1.81249 0.139561)
(38.1284 -2.48671 0.036342)
(38.1227 -3.11787 0.0599028)
(9.72799 -140.653 -22.849)
(-147.548 -32.5646 -6.59742)
(42.7074 -15.3302 -20.7074)
(-55.6319 7.62355 -0.62979)
(50.4479 6.64416 -1.68458)
(-15.4533 16.1928 0.972212)
(40.9764 -0.19039 -0.336072)
(13.752 7.53414 0.0290428)
(33.7738 -1.94682 -0.698339)
(24.4042 -0.656916 -0.465794)
(34.3639 -6.85787 -0.287394)
(31.4963 -5.68699 0.321902)
(36.5804 -7.35199 0.807973)
(35.5583 -5.35355 1.16088)
(37.5141 -5.27733 1.37739)
(37.0601 -3.35091 0.702149)
(37.1576 -3.48243 0.514362)
(37.4889 -2.80576 0.250245)
(38.6218 -3.7526 0.122863)
(38.6244 -4.3517 0.177403)
(193.092 204.005 5.37391)
(82.5939 49.6807 -29.2389)
(94.2823 58.9211 -36.4512)
(10.4352 27.119 -7.15103)
(67.4851 24.3123 -3.85299)
(18.2145 21.9715 -2.11106)
(43.7033 -11.1925 -1.54668)
(26.8453 15.7821 -1.28233)
(41.0468 -6.60575 -2.13862)
(37.4789 1.60744 -1.21392)
(48.8728 -10.9368 -0.15848)
(48.5885 -6.21504 1.07487)
(51.3663 -9.85523 1.67583)
(47.1139 -5.16251 2.15952)
(45.8989 -5.7813 1.81532)
(42.7473 -2.72853 1.14418)
(41.675 -2.99173 0.838768)
(41.1782 -2.59513 0.460525)
(42.1271 -4.10596 0.265833)
(42.39 -5.02552 0.345038)
(298.788 337.861 137.762)
(-218.682 58.6931 -11.7875)
(60.2603 47.4991 -4.34349)
(-64.4184 13.1251 2.7113)
(55.8703 5.49736 0.725672)
(10.3217 28.5457 -0.328439)
(40.2376 13.3132 -1.59354)
(24.1849 6.05976 -3.01306)
(42.8448 7.38294 -2.77326)
(48.1161 -7.10287 -1.1072)
(61.047 -9.36206 1.33583)
(65.0493 -11.6796 1.5861)
(67.538 -4.83598 1.15666)
(57.991 -2.15662 2.4588)
(42.7275 -0.218846 1.70931)
(41.0515 0.425873 0.904568)
(39.6688 -1.65983 0.136975)
(41.0165 -2.48525 -0.0675081)
(43.0634 -5.87595 -0.19937)
(43.821 -6.57024 -0.0613535)
(93.9686 -6.55474 77.4369)
(-55.7079 48.777 35.6623)
(87.526 7.13281 -0.512966)
(10.2413 -6.02907 1.602)
(59.2981 -20.6807 -2.85472)
(35.4564 12.5967 -1.15651)
(57.6379 20.5811 0.513648)
(48.4108 2.74308 -2.14002)
(55.3758 -4.57755 -0.595617)
(58.5341 -12.4012 2.72357)
(55.4493 -12.9786 4.01387)
(53.4973 -13.3121 -0.144916)
(55.2302 -4.41017 -2.57087)
(51.7317 3.64725 -1.0173)
(45.3026 7.01317 0.502845)
(40.724 1.11238 -0.182071)
(41.6903 -2.88235 -0.489609)
(43.8481 -5.07803 -0.314639)
(45.4431 -7.8017 -0.253668)
(44.618 -7.80692 -0.276427)
(31.102 38.0034 178.799)
(-70.9071 36.0596 8.02312)
(91.4074 -3.78281 -0.573416)
(15.9553 3.93916 -2.76595)
(65.8735 3.19045 -2.36598)
(31.8888 6.05754 -4.77154)
(49.9059 6.94722 -0.451419)
(56.0161 -1.20341 1.71176)
(55.393 -6.96583 2.68116)
(51.0006 -7.9766 0.042099)
(48.6918 -14.0698 -1.95642)
(48.327 -17.1164 -0.497111)
(47.7225 -5.50749 -1.63798)
(46.3529 2.34365 -1.20005)
(44.9897 4.3873 -0.0335379)
(44.8036 0.840085 -0.738877)
(45.2084 -4.41447 -0.457645)
(45.5474 -5.84953 -0.225739)
(45.5378 -7.55437 -0.154587)
(43.1242 -7.53392 -0.184702)
(5.79931 41.219 -125.31)
(-62.8022 -28.5099 -1.9632)
(100.545 -56.1037 5.06647)
(33.6339 -19.7554 2.37972)
(74.2377 -2.37173 6.42867)
(48.5436 2.22822 0.907597)
(53.2449 1.93554 -0.0569871)
(54.7767 -2.35264 -1.22543)
(58.1656 -5.99933 -1.74273)
(60.2226 -7.1464 -2.31411)
(60.1195 -14.6838 -0.792008)
(56.0745 -15.7021 2.55067)
(51.2743 -1.65931 0.10719)
(49.678 3.46027 -0.757212)
(48.89 4.34719 -0.0827337)
(46.884 -0.563665 -0.123645)
(45.9897 -3.91594 0.0915236)
(44.7356 -5.23496 0.00615)
(44.2189 -6.66105 -0.273142)
(41.8477 -7.15443 -0.306016)
(71.065 -172.778 -175.382)
(3.01586 -101.892 78.9092)
(92.5345 -25.0874 29.5841)
(4.83113 6.79698 3.33259)
(59.7928 19.3796 3.76029)
(31.3465 7.61318 -2.68171)
(59.0296 -3.70745 -1.93103)
(65.5294 -5.82559 -1.41853)
(64.9791 -5.22279 -1.42024)
(63.7524 -6.66983 -0.647746)
(57.8782 -13.0083 5.59512)
(46.6068 -7.1455 1.83772)
(44.3684 0.286775 -0.640624)
(45.4171 3.47781 -0.414622)
(45.4489 2.9759 0.146253)
(43.6841 0.0123058 0.487688)
(44.0983 -2.70402 0.38845)
(43.8005 -3.79487 0.104529)
(43.996 -5.76056 -0.347066)
(42.249 -6.72655 -0.431845)
(114.625 -6.72517 -26.3533)
(-14.8587 -91.6823 55.8947)
(96.3137 -27.2724 28.1415)
(25.3666 0.867818 7.4143)
(89.2295 -1.44312 4.93398)
(47.2376 -30.5397 1.0197)
(67.1428 -12.575 1.72749)
(50.1396 -2.21261 0.673786)
(59.1107 -2.19676 1.11617)
(47.3965 -3.2399 3.6671)
(42.267 -2.06294 4.74068)
(33.775 -0.804814 1.13712)
(36.1949 -0.019786 0.0840125)
(36.6848 0.675019 0.424621)
(38.9177 -1.69112 0.622914)
(41.6676 -2.47412 0.681652)
(42.503 -3.89978 0.356448)
(43.6384 -4.72203 0.0890648)
(44.7647 -6.20281 -0.390638)
(43.5942 -7.03005 -0.486084)
(192.752 -133.808 -169.347)
(-46.8273 -90.5574 -0.183366)
(93.8689 -14.3467 -2.674)
(3.3976 7.09111 2.98302)
(81.3342 11.7306 4.96906)
(35.4432 -4.68018 0.114269)
(57.0162 21.4738 0.182332)
(35.7399 -11.6738 1.55307)
(43.9408 8.93316 1.67354)
(33.1984 -3.75887 2.35281)
(39.4178 3.73478 1.21669)
(36.1321 -2.75639 0.838737)
(40.1702 -0.800398 0.561455)
(39.9857 -3.80394 0.781133)
(42.7785 -2.80711 1.15244)
(44.2166 -3.94586 0.864396)
(46.4682 -4.72945 0.512576)
(47.377 -5.25223 0.278144)
(48.7747 -6.59493 -0.201105)
(47.2368 -7.02329 -0.435515)
(429.289 -16.316 -115.549)
(86.6793 -34.8356 -2.89573)
(131.471 -33.6153 -8.69512)
(-12.5547 -13.667 3.58775)
(78.8349 -11.468 1.31547)
(-8.12707 -16.1534 1.75)
(56.8477 -0.0271746 -0.716304)
(20.6512 -5.71654 1.29847)
(43.5247 -1.76036 0.369486)
(32.633 -3.85086 0.604841)
(42.2024 -3.39176 0.215113)
(40.3702 -5.42709 -0.417106)
(44.1905 -5.42474 -0.455822)
(44.5768 -6.99229 -0.366724)
(47.4749 -6.97181 0.0543992)
(49.6475 -7.05594 0.44614)
(52.1224 -6.97506 0.522582)
(53.181 -6.5849 0.450276)
(54.4336 -6.96643 0.099115)
(52.0526 -6.80169 -0.279273)
(142.595 -17.6833 -35.81)
(-29.4547 62.3592 -17.8949)
(100.55 59.0188 -15.7294)
(-4.80018 21.7554 -3.13192)
(74.0572 19.9293 1.99648)
(27.3006 -1.67911 -0.176016)
(60.2649 3.94359 1.84577)
(41.6026 -4.49779 0.171946)
(53.7812 0.410626 0.238096)
(45.9919 -4.00055 -0.770866)
(52.2632 -2.55961 -0.865513)
(49.2852 -5.87524 -1.40327)
(52.912 -6.10396 -1.27836)
(52.5119 -7.97114 -1.31285)
(55.3612 -8.35905 -0.852988)
(56.6627 -9.04639 -0.181798)
(59.1243 -8.24945 0.303181)
(59.9794 -6.98738 0.618335)
(61.2947 -6.46469 0.394111)
(58.7601 -5.81749 0.0609728)
(106.078 43.2873 132.075)
(-108.285 -1.71944 11.8714)
(112.338 1.96752 16.0296)
(-48.6404 -0.502084 0.35205)
(85.3781 -18.2248 0.714212)
(10.2535 -8.73354 2.06447)
(66.4612 -6.70207 1.75165)
(38.7778 -2.74167 1.86367)
(60.8296 -3.33898 1.32996)
(50.8825 -3.95596 -0.158023)
(59.5505 -6.076 -0.976263)
(55.968 -7.43859 -1.88135)
(59.8 -8.95782 -1.88149)
(58.9539 -11.1531 -2.40422)
(61.3313 -12.364 -1.72396)
(62.3367 -12.2437 -0.413006)
(64.9018 -10.8134 0.407159)
(64.953 -8.71833 0.703353)
(65.8694 -7.1505 0.712813)
(63.0917 -5.64739 0.319237)
(190.133 209.918 67.2375)
(111.134 82.2491 -10.9772)
(201.583 40.5538 16.7657)
(145.27 23.541 12.6057)
(158.029 -12.3426 11.272)
(120.656 -11.9276 3.38763)
(119.857 -18.7115 2.94288)
(101.648 -10.9986 1.11251)
(100.979 -9.05033 1.88042)
(90.1919 -5.16313 0.729208)
(88.0753 -5.33426 0.711842)
(80.593 -5.42646 -0.571397)
(79.3419 -7.73914 -0.873551)
(74.4176 -10.5583 -1.00387)
(74.4798 -12.5033 -0.366824)
(73.0205 -13.0065 0.0270194)
(72.7637 -11.2978 0.407026)
(70.0942 -8.14605 0.527047)
(69.3961 -6.11174 0.535947)
(65.091 -4.43508 0.0967268)
(72.1093 19.9822 -128.054)
(38.2382 63.5704 -1.02938)
(140.42 26.4987 4.79606)
(92.6031 8.98771 2.77333)
(122.843 11.4307 9.44394)
(87.2 9.55865 5.14395)
(100.949 8.77124 5.68802)
(84.706 8.49999 1.41126)
(91.5957 8.49794 0.921953)
(84.8139 7.55739 -1.01717)
(87.7987 5.82314 -1.13906)
(83.291 3.10963 -1.77055)
(84.7011 -0.67646 -1.45301)
(81.1176 -6.05571 -2.57987)
(80.7932 -10.5617 -3.00211)
(78.2811 -11.1077 -1.65013)
(76.5266 -8.53497 -0.461375)
(72.3255 -5.58325 0.249509)
(71.3104 -3.99951 0.899987)
(66.0431 -2.9131 0.414942)
(90.0587 -100.822 80.2178)
(118.769 -9.57686 -10.2893)
(179.454 1.73326 -6.61865)
(138.892 -1.04262 -6.87225)
(161.735 -12.6201 -4.31653)
(134.149 -13.0968 -4.77532)
(137.254 -16.0649 -0.49129)
(121.236 -10.8543 -0.287472)
(121.739 -8.38979 2.43819)
(116.264 -2.09431 3.77474)
(119.647 0.925238 4.61045)
(119.867 4.00142 4.9321)
(123.064 3.82783 4.54594)
(122.234 2.06339 2.99786)
(118.008 -6.08516 1.05377)
(102.799 -9.68895 -0.396295)
(91.7923 -6.86346 -1.0261)
(82.2249 -3.41883 -1.23693)
(79.1502 -0.565718 -0.777062)
(73.4057 0.645539 -0.745122)
(227.261 -261.202 -193.184)
(113.628 -99.6397 -24.7256)
(179.483 -34.1121 -14.8149)
(117.572 -9.89133 -8.90548)
(119.098 0.80773 -9.7793)
(80.7878 -1.757 -6.09505)
(88.7543 1.74096 -1.40408)
(70.9827 0.589101 -0.494196)
(78.6347 2.82665 1.62462)
(70.6297 1.57229 1.19177)
(76.0486 1.82482 1.17945)
(73.1486 1.30102 0.375886)
(76.6055 1.85284 -0.0343531)
(74.879 2.08589 -0.825999)
(75.2918 3.7495 -1.17849)
(71.184 5.29123 -1.15761)
(66.5369 6.66368 0.792321)
(60.8965 5.61205 1.51892)
(59.9479 2.43987 1.7657)
(57.7726 -0.0521432 0.808024)
(145.19 -29.3468 -71.6782)
(-42.4899 33.5159 -48.5778)
(81.0639 61.6769 1.53141)
(-1.12997 24.1097 4.69581)
(65.51 24.4976 1.77675)
(6.91166 7.21674 4.52713)
(48.8388 4.51697 6.11496)
(21.2628 -0.261306 3.89856)
(43.3326 -0.727695 2.74494)
(29.9403 -1.54947 0.245008)
(40.7987 -0.722357 -1.01526)
(33.9962 -0.657309 -2.60079)
(39.5356 0.121514 -3.02231)
(36.2112 0.0509703 -3.61947)
(38.9668 0.53779 -3.30969)
(37.4975 0.640472 -3.10557)
(38.2054 1.16887 -1.97078)
(38.136 1.05562 -0.556822)
(40.0119 -0.0887922 0.796339)
(39.8643 -1.10257 0.927097)
(128.788 -182.587 -108.886)
(-171.437 -40.1185 10.63)
(77.8557 2.30555 -1.72978)
(-44.6984 6.71514 6.53017)
(54.4576 -1.18932 1.4965)
(-4.77551 6.01229 0.31902)
(39.7818 -0.738994 2.35172)
(9.58133 5.15353 0.392914)
(31.5656 1.22051 1.21504)
(16.163 2.9119 -0.318484)
(27.9815 0.407985 -0.297194)
(20.6362 0.574741 -0.88516)
(27.461 -0.716215 -0.643425)
(24.421 -0.535846 -0.705876)
(28.2347 -0.807809 -0.367798)
(27.4609 -0.295319 -0.110921)
(29.3984 0.00328706 0.330173)
(30.4935 0.652081 0.578339)
(32.8233 0.249269 0.747303)
(32.8046 -0.630333 0.636114)
(364.849 -21.4443 -4.84858)
(133.08 11.6223 -9.37366)
(125.771 16.6781 0.173896)
(43.6713 20.0624 2.29165)
(69.4753 6.99563 1.84758)
(9.50546 9.10554 -0.441132)
(40.0656 0.696735 1.63552)
(4.82134 3.87505 0.231237)
(28.0204 -1.12771 1.28474)
(10.3261 0.221669 0.0959676)
(23.9371 -2.79974 0.248)
(15.8982 -1.97483 0.0042369)
(23.6042 -3.34303 0.198666)
(20.5143 -2.40213 0.0652348)
(24.5619 -2.68992 0.232222)
(23.9732 -1.66456 0.12618)
(25.7453 -1.65065 0.226721)
(26.8527 -0.922806 0.155852)
(29.0332 -1.39728 0.0897617)
(29.4191 -1.85446 0.25378)
(140.336 183.539 -56.1787)
(-54.0269 103.629 -14.5062)
(52.5982 77.7965 -16.6628)
(-30.4276 43.6509 0.787066)
(47.4971 33.3711 1.99579)
(-9.44459 21.452 0.518552)
(33.521 7.92569 2.2764)
(5.13848 12.2905 0.126999)
(26.805 -0.274385 0.681014)
(12.6085 4.59605 -0.091072)
(24.7824 -3.73633 0.401691)
(18.4826 -0.432945 0.341748)
(25.5274 -4.43218 0.70071)
(23.0172 -2.06325 0.490647)
(26.7354 -3.47363 0.52449)
(26.021 -1.93111 0.226797)
(27.4813 -2.4364 0.226226)
(28.2034 -1.65442 0.146555)
(30.0244 -2.3271 0.0391717)
(29.9957 -2.53425 0.17658)
(28.6956 25.7927 -86.4794)
(-77.9945 -10.7657 -18.6594)
(33.3866 -13.2106 -18.5622)
(-52.5488 6.20061 0.68683)
(40.6652 5.50007 -1.93042)
(-25.2224 15.4604 1.27877)
(33.3954 -2.73056 -0.626021)
(3.2339 7.41503 -0.0358293)
(24.9693 -3.67376 -0.603492)
(13.5576 -0.211876 -0.148185)
(24.3521 -6.44881 -0.0338536)
(20.4864 -3.89109 0.482075)
(26.1765 -5.79253 0.856185)
(25.0745 -3.53055 1.07876)
(27.6087 -4.13627 1.13879)
(27.6379 -2.57302 0.590372)
(28.3226 -3.13201 0.41904)
(29.0163 -2.45358 0.225654)
(30.4317 -3.37742 0.0936203)
(30.4648 -3.51807 0.260853)
(322.483 264.503 15.1951)
(135.858 67.9717 -9.85365)
(100.321 55.0757 -23.9242)
(2.19498 21.0717 -4.46733)
(56.0011 21.0067 -3.00436)
(1.74194 19.0639 -1.48136)
(30.2754 -15.7434 -1.51242)
(10.8601 16.1458 -1.20531)
(26.5065 -10.1005 -2.19562)
(20.6295 2.20066 -0.781295)
(31.885 -10.9881 0.221709)
(29.5348 -3.37581 1.31773)
(33.5214 -7.71788 1.56016)
(30.6626 -2.27685 1.90425)
(32.24 -3.64031 1.50037)
(31.174 -1.94296 0.928445)
(31.49 -2.80954 0.666542)
(31.9457 -2.51028 0.353085)
(33.3457 -3.88811 0.255062)
(33.5152 -4.07769 0.370776)
(166.421 135.149 -168.235)
(-177.175 51.7524 34.7548)
(53.2269 43.6129 -7.39469)
(-72.6882 6.65778 4.43948)
(47.4752 1.68855 -0.0515679)
(-3.82991 26.3339 -0.0768323)
(27.6333 6.01836 -1.53715)
(11.4111 6.19611 -2.9444)
(28.6221 1.24294 -2.67477)
(29.5488 -8.47944 -0.452038)
(41.4209 -7.83977 1.02963)
(42.3012 -6.97669 1.70609)
(43.2336 -0.99976 1.48082)
(37.0982 1.01241 2.63765)
(31.1503 -0.672564 1.56662)
(31.8164 -0.305029 0.605584)
(31.6241 -2.30905 0.130421)
(33.1731 -2.84674 -0.0280732)
(34.8533 -5.10318 -0.1128)
(34.8127 -4.9749 0.095082)
(77.8979 -7.73198 154.296)
(-90.4728 61.3743 25.5946)
(74.4436 13.0005 -13.3413)
(-8.85467 -7.65749 -0.242575)
(44.9041 -21.3926 -1.87953)
(18.9252 13.7915 0.0547582)
(39.7321 14.2315 0.892989)
(32.2445 -3.78152 -1.87835)
(39.1859 -8.78536 -0.417545)
(40.1816 -12.6277 2.25704)
(42.4719 -10.4866 2.81266)
(42.8831 -7.11363 -0.549475)
(41.8427 0.258192 -1.88499)
(37.8865 4.70369 -0.171795)
(35.3458 5.3192 0.386873)
(33.038 -0.950671 -0.0938061)
(33.845 -4.03089 -0.167594)
(35.2339 -4.95928 -0.0772517)
(36.434 -6.46859 -0.173834)
(35.3799 -5.97102 -0.124299)
(97.8349 -43.9315 53.936)
(-58.3044 81.2714 2.20071)
(84.5866 35.9855 0.230092)
(1.71239 11.9659 -1.03826)
(51.3513 0.461754 0.486199)
(14.6046 2.16141 -4.74028)
(36.4726 2.86838 -0.122009)
(42.0029 -5.79641 1.58139)
(42.2947 -10.0521 1.58581)
(40.4498 -10.5743 -0.0359208)
(38.6733 -12.4068 -0.643951)
(38.9783 -10.145 -0.514145)
(38.7808 -2.49602 -1.71799)
(37.6236 1.95861 -1.08289)
(37.1092 1.89713 -0.1783)
(36.335 -2.06515 -0.281483)
(35.9124 -5.22886 -0.0748965)
(36.0328 -5.52889 0.0162255)
(36.2149 -6.33868 -0.0184569)
(34.2664 -5.90286 -0.0676628)
(-41.4659 -73.2113 -129.387)
(-81.3447 26.5392 2.07744)
(71.1346 -12.0339 3.21109)
(0.802554 -5.25701 3.38174)
(57.7609 -2.83464 6.10071)
(31.8979 -4.06497 1.07357)
(40.8361 -5.25091 0.874306)
(43.9931 -7.17331 -1.29618)
(45.6965 -9.28515 -2.0635)
(45.442 -12.7666 -3.46834)
(45.3586 -17.3401 -2.05448)
(45.7513 -9.28916 1.55084)
(43.3402 -0.512121 -0.372684)
(41.4503 2.0708 -0.799149)
(39.8929 1.09761 0.0188666)
(37.2011 -3.47794 0.473857)
(36.1523 -5.00039 0.293961)
(35.4063 -5.26996 0.166864)
(35.2371 -5.90569 -0.166085)
(33.1459 -5.79096 -0.232664)
(64.571 -124.862 -63.3248)
(-33.4134 -93.3144 49.2902)
(75.9476 -14.5862 20.6002)
(-23.1159 -1.32823 3.43881)
(48.5625 8.25731 4.22874)
(18.7462 -5.58239 -3.0776)
(48.2064 -14.1761 -0.732024)
(50.7925 -9.53954 -1.22683)
(48.0061 -9.24704 -1.41543)
(44.1767 -10.8176 0.388065)
(39.117 -11.7255 5.4406)
(37.8536 -3.80218 1.16581)
(37.7261 0.722954 -0.735042)
(38.2986 1.77256 -0.18253)
(37.8652 -0.0999743 0.682507)
(34.8622 -2.08332 0.800737)
(34.9354 -3.75098 0.480866)
(34.6978 -4.16987 0.176478)
(34.9993 -5.3579 -0.255921)
(33.2236 -5.62088 -0.355222)
(61.3639 -8.77133 -152.259)
(-145.854 -51.6123 -18.4881)
(101.562 -25.0659 0.79876)
(-1.05009 -7.46734 2.90425)
(79.3363 -13.1298 2.94535)
(27.4701 -37.3098 1.46469)
(48.9842 -14.376 1.97538)
(28.0853 -5.71477 0.765524)
(37.8407 -5.88984 1.46298)
(25.4468 -5.25002 4.42512)
(30.4783 -2.65675 3.79316)
(27.3349 -0.987294 0.915346)
(30.8805 -0.561717 0.212172)
(30.9215 -0.693243 0.738013)
(31.6481 -2.66771 0.800928)
(33.438 -3.33202 0.592487)
(33.935 -4.17868 0.369222)
(34.6622 -4.74749 0.0990543)
(35.5404 -5.80309 -0.328971)
(34.003 -6.01371 -0.431574)
(81.4012 -71.4657 -173.461)
(-10.9458 -59.0607 4.08226)
(73.6775 -21.1999 -3.64818)
(-14.8326 1.55693 5.87665)
(67.7036 3.60615 5.7878)