/*--------------------------------*- C++ -*----------------------------------*\
  =========                 |
  \\      /  F ield         | OpenFOAM: The Open Source CFD Toolbox
   \\    /   O peration     | Website:  https://openfoam.org
    \\  /    A nd           | Version:  10
     \\/     M anipulation  |
\*---------------------------------------------------------------------------*/
FoamFile
{
    format      ascii;
    class       volScalarField;
    location    "9.1";
    object      k;
}
// * * * * * * * * * * * * * * * * * * * * * * * * * * * * * * * * * * * * * //

dimensions      [0 2 -2 0 0 0 0];

internalField   nonuniform List<scalar> 
12920
(
3182.63
2237.05
1148.43
829.819
728.78
662.366
573.21
496.203
425.658
351.497
270.769
207.243
173.719
160.755
155.171
147.049
138.459
126.447
114.14
89.1718
4075.54
1849.34
1203.97
973.845
820.861
729.669
565.652
464.878
363.098
313.871
282.438
271.755
260.936
255.63
246.716
236.08
213.322
182.103
161.191
140.071
1313.26
3602.25
2367.14
1255.17
903.471
792.151
621.476
528.251
434.27
393.49
347.478
307.685
260.838
221.347
194.474
174.871
163.173
154.734
150.927
144.752
3205.83
3876.64
1992.47
1080.52
704.993
547.578
419.163
374.292
324.194
298.488
261.655
230.169
200.612
179.351
163.099
151.678
145.696
141.82
140.86
139.368
2438.23
2283.75
1812.07
1143.3
757.368
538.036
406.906
354.802
306.523
278.331
243.947
218.836
196.443
180.546
166.132
154.556
148.054
143.792
142.516
140.232
3400.21
2942.23
1876.6
1266.65
924.864
624.944
452.144
369.742
316.222
291.163
262.365
239.191
215.22
191.876
169.126
150.675
141.928
138.229
137.629
135.824
6075.72
2190.23
1282.66
1124.62
938.43
724.742
509.678
398.131
335.88
288.199
251.759
222.489
192.079
164.468
142.243
128.787
123.497
121.346
121.323
120.997
3486.78
1757.35
1374.39
1117.06
876.674
665.886
350.394
220.851
229.15
200.485
173.563
148.091
127.539
107.026
139.949
113.247
102.928
99.5698
99.475
99.5391
1909.55
1914.64
1613.11
1247.84
975.86
516.765
301.948
189.118
164.223
132.833
131.421
114.49
95.2685
76.8525
108.617
127.006
98.7862
84.0898
78.457
77.0593
2366.61
2317.62
2157.13
1598.52
1075.17
536.403
257.662
176.874
152.451
114.942
100.645
100.053
92.2068
80.9256
122.493
134.755
94.468
72.2536
62.6795
60.7124
5730.85
1628.55
1241.5
974.804
918.165
648.001
410.416
361.083
320.615
191.167
101.859
74.8544
69.9631
65.2795
102.223
116.786
87.7419
74.9847
66.6416
60.3727
7098.72
3934.63
1876.74
1010.1
759.505
532.16
368.898
222.11
174.046
154.425
104.175
78.0157
68.3787
65.3121
115.221
138.723
106.796
100.454
98.5316
86.964
3920.18
2649.01
2077.62
1812.15
929.245
573.341
364.189
272.805
269.712
213.421
138.26
99.1361
85.8172
86.9079
155.534
152.946
144.58
138.756
130.461
100.333
630.438
1088.81
2229.13
2184.4
1258.78
624.834
460.622
424.252
371.517
307.49
245.424
196.033
152.114
124.587
116.095
117.193
117.562
115.46
106.974
84.3918
2498.03
3405.45
3243.09
2242.39
1171.17
704.369
500.011
457.815
408.376
377.687
335.273
281.072
212.215
154.3
119.99
103.802
99.0684
95.6182
91.6182
87.6822
1326.05
2029.26
2049.46
1804.45
1141.54
779.311
584.215
519.28
442.625
385.733
317.099
253.184
195.099
150.438
122.186
107.336
101.503
100.041
100.45
104.392
2042.81
1909.09
1672.56
1325.62
861.237
641.216
538.985
479.192
401.645
326.597
252.519
196.917
157.112
133.116
118.91
109.822
105.131
104.095
104.429
107.43
1233.83
1919.17
1525.73
1032.3
711.82
565.712
458.977
399.872
334.556
278.297
222.344
179.116
147.222
128.008
117.675
110.635
105.733
102.111
101.143
100.385
1451.7
1744.91
1340.62
785.729
556.878
475.074
402.245
356.576
296.631
241.865
190.652
155.791
133.649
123.001
119.522
117.312
115.839
112.098
110.463
107.058
1372.18
2106.03
1725.12
1020.17
566.761
333.568
252.855
220.136
190.639
167.166
148.306
131.283
116.017
100.995
89.3209
78.5738
72.6432
65.5848
62.6929
56.4675
1873.64
1939.5
1697.01
1607.33
1522.96
1372.5
1196.29
1037.89
852.165
655.066
481.795
375.085
329.63
319.744
315.613
303.356
268.023
214.345
183.674
162.372
6536.1
5234.4
3212.21
2218.24
1819.82
1675.82
1310.01
1115.07
900.395
815.149
745.422
734.313
718.92
702.591
675.734
648.173
602.513
550.165
516.697
487.663
8132.54
12278.5
7880.04
3346.79
2146.58
1847.22
1450.74
1282.01
1082.26
1000.23
881.464
794.253
698.42
619.092
560.967
517.932
495.253
484.783
483.197
476.389
15954.6
13150.6
5565.64
2513.7
1658.2
1399.5
1101.92
1009.22
864.269
797.151
696.799
628.39
559.591
512.473
474.402
449.581
437.174
432.44
433.266
434.33
5683.49
5905.42
4513.35
2783.72
1879.55
1393.35
1066.25
955.221
808.545
747.632
655.697
606.676
552.094
518.984
483.741
456.313
440.833
432.071
429.509
424.767
4897.25
5462.06
3658.11
2804.97
2118.42
1519.16
1137.64
970.098
828.848
763.333
690.847
641.306
587.392
538.366
486.852
444.338
424.455
414.96
412.286
404.014
6378.21
4986.93
3232.63
2767.4
2288.4
1755.2
1251.47
998.368
827.625
724.866
638.317
578.94
511.259
450.215
401.943
375.042
363.835
359.399
358.906
356.261
4595.16
4694.15
3642.13
2865.13
2242.02
1694.64
1177.15
958.273
849.837
717.845
615.321
525.141
448.548
379.063
335.604
296.486
283.855
283.171
284.352
287.404
1453.35
3917.72
3777.12
3143.19
2493.35
1902.34
1409.57
1169.47
873.089
691.396
608.481
524.37
440.419
369.596
325.201
274.146
232.582
217.053
215.005
218.124
3341.92
4867.15
4414.71
3292.91
2408.26
1883.75
1377.97
1126.32
868.634
646.978
522.066
469.831
417.472
367.559
332.885
265.849
202.456
175.24
169.845
173.231
5998.43
4917.37
3211.83
2325.15
2297.69
2087.5
1871.26
1783.36
1448.84
917.398
502.827
368.204
302.584
265.216
263.88
233.868
206.558
189.041
175.918
172.867
11561.6
7637.31
4193.13
2397.02
1752.99
1627.03
1542.76
1443.48
1197.39
836.95
515.926
386.358
341.103
321.858
321.879
295.236
280.172
279.635
270.335
227.221
7909.45
5533.3
4916
3897.78
2006.72
1412.67
1150.55
1165.74
1008.09
721.898
488.268
372.944
334.579
332.341
373.016
374.083
376.183
374.218
355.959
272.954
5406.29
3741.63
4985.7
4690.7
2738.6
1573.43
1253.17
1124.95
915.48
743.258
595
489.241
397.482
341.061
325.672
327.606
328.08
317.771
279.195
234.76
9251.1
6470.33
5960.92
4318.33
2489.36
1676.34
1307.46
1195.52
1006.66
897.363
771.017
659.965
518.536
392.515
328.057
297.171
285.393
274.732
265.207
259.594
4384.11
5507.71
4546.76
3413.74
2287.28
1825.15
1423.06
1261.78
1041.26
905.629
738.527
617.754
491.843
403.649
343.247
311.811
300.17
298.404
300.475
310.382
7584.6
6462.01
4401.94
2943.09
1775.72
1518.65
1296.76
1181.65
950.366
785.502
610.728
505.976
422.351
379.304
351.239
331.713
320.237
318.658
321.429
332.581
5139.19
5206.75
3898.48
2538.04
1691.97
1423.96
1117.93
1005.57
805.501
686.036
548.179
467.988
402.35
371.394
350.285
335.962
323.676
315.354
314.591
315.007
2876.08
4119.52
3191.23
1849.37
1457.59
1209.09
990.748
887.967
718.26
608.477
486.151
421.683
374.834
359.183
351.819
348.993
343.484
331.83
325.877
315.759
3449.08
2580.77
1868.81
1567.6
1045.61
671.413
484.942
430.024
392.387
372.184
339.5
302.565
266.538
235.763
214.186
193.665
181.464
163.828
156.358
139.671
3227.44
2428.45
2360.47
2148.97
1831.22
1543.38
1288.74
1034.94
799.638
607.257
480.226
408.532
365.981
330.833
297.075
261.685
235.536
210.992
200.692
180.128
8296.51
6550.23
4342.85
3006.8
2306.57
1962.75
1512.3
1331.65
1104.62
1033.7
952.043
930.874
891.477
865.139
825.957
784.234
736.152
694.701
674.611
651.914
13487.7
16678.2
10753.6
4478.82
2797.29
2255.13
1778.61
1567.47
1330.33
1211.75
1062.1
964.929
868.796
804.433
753.696
718.356
698.132
689.444
687.316
678.406
16669.8
15794
7372.75
3213.81
2357.13
1834.06
1523.69
1349.86
1159.34
1046.58
917.547
833.423
756.442
708
671.378
649.998
640.709
638.162
638.509
634.542
10004.8
8334.88
5961.57
3584.73
2516.49
1830.05
1484.09
1304.84
1113.68
1005
886.824
815.977
749.614
706.702
669.124
644.468
630.362
621.016
617.188
608.04
12564.8
6643.02
4893.54
3794.35
2792.48
1924.13
1517.89
1284.98
1096.23
990.416
887.462
818.999
751.763
698.599
652.918
621.082
603.856
591.156
585.183
571.282
8496.27
6737.39
4897.69
3863.31
3031.14
2234.25
1608.34
1286.82
1062.64
928.07
815.171
740.121
662.416
605.524
562.488
538.058
524.948
517.445
514.89
508.773
5969.37
5676.52
5038.49
3930.21
3005.03
2192.07
1658.3
1322.47
1104.4
919.222
787.118
675.091
588.988
511.265
457.054
428.047
418.311
417.856
419.394
422.227
4817.78
6024.51
5273.37
4250.42
3318
2612.04
1960.97
1529.31
1140.06
913.232
777.722
661.977
563.792
487.1
418.868
360.577
331.435
324.049
324.807
333.636
5742.48
7495.75
6146.04
4340.72
3264.45
2667.42
2027.74
1568.08
1170.39
883.608
710.621
612.017
533.442
473.241
410.958
329.093
282.185
266.851
266.289
276.371
6689.65
5366.73
4591.06
3473.11
3262.63
2944.9
2625.03
2247.4
1701.74
1097.32
554.965
374.651
325.623
336.446
342.124
325.549
305.428
284.957
273.548
274.37
11605.2
7055.73
6008.89
3644.54
2931.34
2619.92
2392.06
2094.59
1620.85
1053.62
673.7
530.048
474.284
443.599
426.872
436.044
432.538
418.228
373.258
321.827
9961.13
10008.8
7947.64
5025.01
3115.31
2436.47
1997.63
1799.75
1305.64
899.612
634.718
515.583
480.504
477.47
516.1
525.704
527
514.135
461.019
366.059
4980.05
7150.13
6935.69
5930.73
3513.42
2385.86
1900.55
1553.33
1161.35
920.652
731.841
612.417
524.965
477.057
462.011
461.385
456.503
431.552
390.784
352.833
11319
8379.71
6927.68
4741.44
2995.59
2211.35
1826.53
1580.45
1265.82
1074.57
891.83
753.64
627.033
531.69
474.924
440.372
423.937
409.407
399.042
392.421
17899.2
10935.3
5997.99
4533.6
3056.32
2362.32
1860.13
1581.52
1271.19
1072.69
879.294
755.56
644.388
573.556
519.353
487.544
469.336
463.529
464.056
467.408
16953.9
10322
5760.51
3954.38
2677.05
2200.87
1778.13
1514.48
1201.62
1005.26
821.174
718.051
631.984
586.188
550.229
528.091
513.317
508.093
508.079
508.422
3911.01
5982.93
4938.57
3139.4
2358.21
1955.97
1595.43
1385.4
1115.7
958.643
796.962
711.283
635.504
595.725
561.759
539.082
520.816
509.177
505.228
498.184
6654.72
4522.16
3600.44
2223.84
2006.17
1630.01
1375.25
1214.11
991.026
867.647
734.753
674.683
617.192
588.203
559.706
538.452
517.847
498.767
486.702
469.829
722.208
1418.97
1720.94
1439.2
1009.96
759.788
631.624
564.744
504.823
454.457
401.657
353.943
312.45
278.679
252.222
226.927
209.98
186.853
176.441
154.417
2473.93
3556.15
3240.36
2332.8
1829.54
1442.15
1120.9
825.542
632.575
509.378
434.546
376.638
331.148
291.807
263.379
241.466
226.219
209.626
200.084
178.041
5858.55
6641.14
4625.21
3069.74
2437.59
2002.9
1658.26
1522.84
1329.88
1263.77
1173.55
1130.74
1079.76
1040.31
995.28
948.66
907.555
874.656
856.707
834.361
8404.35
12747.1
8271.27
4251.64
3243.15
2478.84
2086.35
1811.17
1582.12
1409.78
1256.88
1149.38
1064.57
1008.32
968.37
940.911
926.668
919.261
915.585
900.675
23702.9
12753.4
6725.52
3555.56
2935.52
2115.37
1898
1609.97
1425.96
1256.43
1128.41
1031.18
961.636
914.521
885.707
869.703
864.894
862.3
861.405
851.421
12160.9
10352.1
7303.6
4112.08
3094.68
2134.63
1873.24
1589.39
1396.81
1227.91
1107.47
1016.14
951.453
903.832
871.943
850.165
839.58
829.949
825.214
812.098
15310.9
9069.39
6216.83
4324.25
3332.08
2168.83
1876.34
1546.96
1350.08
1190.57
1080.41
993.994
927.213
874.43
837.597
811.984
798.187
784.469
777.299
760.478
29533
13862.4
6683.34
4560.66
3704.51
2505.59
1928.9
1517.75
1279.57
1106.05
987.8
898.401
823.612
772.007
736.559
715.261
704.231
696.358
693.386
685.872
7322.77
7555.27
6474.93
4648.97
3678.9
2508.11
1958.36
1549.89
1277.59
1064.4
920.571
797.548
712.29
637.067
600.462
581.897
578.349
579.358
582.49
585.858
4821.96
7734.99
7087.98
5124.11
4033.67
3051.88
2290.38
1723.47
1304.32
1057.1
886.411
752.758
651.004
576.357
512.16
481.695
465.844
465.626
469.846
486.053
9498.23
10013.5
8619.78
5451.98
4144.01
3267.55
2436.4
1833.33
1349.56
1039.77
843.981
698.443
600.175
544.013
484.451
436.476
405.399
400.885
404.013
423.781
17995.2
7840.76
6502.93
4535.1
4217.24
3678.47
3095.77
2448.61
1744.38
1163.36
735.755
524.232
437.835
436.698
440.653
465.817
436.565
415.917
410.38
418.618
10003.9
8914.62
7565.73
4670.95
4031.47
3522.84
3038.84
2453.97
1751.11
1125.41
775.008
640.715
585.259
558.764
556.814
625.118
599.065
541.612
489.957
457.061
9499.18
11344.9
10191.6
6188.22
4254.87
3322.04
2709.9
2127.67
1453.67
1002.18
753.871
652.278
629.709
634.508
702.435
706.381
693.239
641.007
564.665
496.579
7783.82
9094.38
9099.24
6916.36
4340.67
3043.73
2435.17
1847.68
1359.23
1061.82
862.456
738.703
668.491
629.614
618.581
612.788
598.355
561.195
531.009
499.694
21502.9
9096.82
7906.01
4907.54
3596.47
2654.19
2312.99
1892.43
1499.17
1223.57
1018.99
872.418
761.336
683.277
638.294
605.744
589.886
575.055
566.94
558.929
40621.2
13199.7
7669.37
5091.22
3744.88
2777.27
2287.08
1846.49
1497.31
1229.42
1041.19
913.214
819.269
756.395
712.084
685.813
670.757
665.649
664.399
660.602
8348.9
9271.33
6940.16
4417.22
3498.12
2673.04
2220.96
1797.55
1458.36
1211.76
1035.82
927.255
849.53
803.481
770.444
750.233
738.081
732.196
728.688
718.919
7713.34
6618.94
5743.66
3563.77
3078.49
2357.8
2039.25
1684.82
1399.13
1194.89
1040.26
949.577
876.975
831.025
794.647
769.404
751.497
739.393
732.799
718.844
13207.1
5000.98
4110.83
2543.26
2520.9
1992.85
1769.48
1510.88
1267.1
1122.32
994.305
933.936
870.808
825.899
783.704
749.546
721.189
697.328
679.25
661.573
383.779
1447.53
1647.18
1291.29
1040.96
842.419
741.625
634.117
548.119
473.437
410.696
358.663
316.272
280.438
251.024
224.579
204.175
183.461
173.049
152.955
1341.41
2918.62
2708.58
1956.35
1444.81
1032.77
758.031
581.496
471.431
389.86
332.982
291.218
263.965
242.767
225.635
208.898
193.982
182.486
171.288
162.637
7856.96
7234.22
5274.53
3057.27
3032.19
2185.25
2216.64
1854.32
1826.74
1614.38
1583.1
1479.58
1455.39
1379.34
1339.89
1269.13
1238.73
1201.93
1194.42
1175.57
24066.1
10382.5
8087.49
4376.03
4289.75
2846.26
2762.06
2174.72
2065.61
1707.68
1632.27
1457.15
1424.62
1347.37
1330.83
1293.22
1289.21
1275.34
1274.82
1258.59
29113.9
11227.5
7642.3
4201.85
3907.38
2434.51
2533.7
1953.62
1886.12
1553.59
1495.9
1338.84
1312.44
1246.26
1238.24
1216.64
1217.97
1209.07
1208.2
1193.44
11139.1
9691.38
8737.8
4496.08
4125.06
2487.05
2535.01
1970.8
1876.46
1543.4
1483.55
1328.28
1299.08
1227.92
1215.44
1185.59
1182.64
1168.13
1163.23
1147.18
18414.9
9066.92
8196.86
4765.74
4307.46
2458.09
2504.62
1921.45
1792.61
1486.78
1423.62
1286.02
1245.96
1178.9
1158.7
1130.95
1124.58
1106.85
1098.89
1081.04
25817.8
10343.8
8506.68
4950.21
4774.29
2728.04
2518.33
1835.05
1672.98
1381.01
1315.97
1175.72
1133.15
1067.96
1048.27
1021.43
1017.9
1007.06
1004.53
998.192
13201.2
8348.71
8348.04
5149.3
4793.18
2887.19
2305.5
1775.75
1525.63
1275.34
1151.43
1014.67
943.576
872.561
901.214
878.8
875.683
876.199
879.485
886.052
12329.3
10081.2
9193.77
5616.64
4912.77
3400.86
2630.05
1934.37
1532.34
1270.76
1084.16
944.675
854.185
787.786
759.25
764.272
747.697
748.171
757.349
782.117
12169.3
12525.1
11629.2
6433.43
5513.64
3838.93
2825.7
2112.07
1608.95
1278.6
1036.12
851.622
787.079
761.55
727.041
708.119
678.966
679.079
688.887
721.936
27015.4
10644.3
8781.24
5142.24
5356.92
4379.07
3512.76
2647.12
1868.25
1308.86
985.258
747.476
669.537
703.161
717.091
748.741
700.052
682.473
686.758
714.366
19006.9
10694
9970.4
5454.87
5599.83
4536.29
3687.33
2755.1
1881.53
1273.82
977.526
859.221
846.121
843.352
874.561
952.281
855.027
779.615
746.373
737.45
11768.8
14332.2
13672.1
6921.91
5747.31
3972.58
3356.88
2365.51
1671.59
1187.36
1006.19
914.345
923.027
943.271
1074.23
1036.11
963.449
868.584
810.559
772.039
7821.23
12171.7
12598.2
7267.22
5619.9
3499.52
3136.39
2152.03
1727.02
1291.78
1142.18
980.043
955.12
910.004
911.668
889.445
864.552
824.669
809.632
789.567
16638.1
10974.2
9081.73
4958.16
4503.79
2954.77
2980.93
2263.09
1920.25
1462.87
1299.9
1107.82
1031.65
956.94
933.784
899.801
892.401
876.846
873.519
866.365
15749.7
11934.9
9962.09
5077.65
4811.88
3137.14
2960.06
2167.25
1941.9
1473.34
1375.78
1178.34
1136.93
1054.23
1042.4
1015.6
1015.55
1011.32
1009.62
998.071
13932.1
10418.8
8207.93
4674.41
4527.26
2994.67
2900.97
2121
1933.77
1494.99
1412.09
1235.42
1204.97
1138.06
1129.84
1105.88
1105.38
1097.28
1091.32
1070.83
5010.87
7188.99
6930.87
3910.39
4038.91
2650.51
2694.2
2003.5
1884.69
1501.13
1446.1
1286.76
1259.85
1181.51
1168.35
1133.11
1128.43
1113.81
1106.97
1087.68
20844.6
7251.71
5016.08
3089.32
3386.6
2210.43
2428.2
1843.5
1773
1461.84
1424.2
1298.4
1266.84
1180.23
1151.47
1093.58
1075.64
1042.92
1029.96
1014.34
3537.11
1837.46
1693.82
1209.92
1062.06
840.049
746.192
591.774
496.512
408.429
350.836
301.842
263.915
229.281
202.354
180.399
165.072
153.51
144.609
137.796
744.677
1061.13
646.152
1000.79
852.65
1110
751.631
633.845
555.53
420.263
811.293
707.336
652.925
493.122
652.574
1088.12
749.462
1147.16
717.981
1135.5
823.981
408.702
681.727
559.478
624.808
479.482
761.145
638.934
191.015
270.346
176.627
1091.77
1036.96
1081.97
988.821
180.068
174.866
155.205
1013.44
836.411
949.003
769.784
133.01
141.783
114.677
771.033
630.447
703.879
560.866
133.315
110.291
104.505
609.56
560.972
531.416
476.388
119.647
104.46
105.419
543.529
489.183
466.345
444.194
101.47
105.217
98.4951
469.209
410.837
434.735
397.752
82.4118
95.1811
85.9831
391.429
340.643
383.965
344.222
52.8361
82.8013
61.0369
324.266
292.374
331.369
308.859
176.748
319.188
299.597
1089.53
1002.78
1322.82
1439.04
162.434
323.276
329.739
963.593
807.653
1435.03
1289.55
123.663
301.903
215.802
752.212
601.94
1209.88
908.538
102.067
186.175
114.767
558.289
470.43
784.938
496.15
100.374
101.638
81.9178
453.707
424.464
440.765
352.573
95.0622
79.806
76.7359
415.265
383.222
335.991
297.639
83.5555
75.1198
69.3441
371.192
336.502
286.501
259.877
60.6672
67.5436
52.9047
325.459
307.622
253.871
249.297
342.834
410.681
293.64
1509.09
1591.02
1415.15
1443.48
358.315
285.925
253.25
1582.78
1403.18
1418.38
1246.96
222.396
239.626
201.945
1306.64
961.461
1185.34
914.791
115.883
175.001
115.493
822.566
504.212
790.763
510.955
78.4566
103.037
80.5697
443.788
346.349
453.721
358.647
71.0248
79.0459
71.4972
327.617
285.757
341.932
305.27
66.4293
68.7569
65.9673
274.146
246.213
296.297
277.337
52.8871
65.9709
55.8374
239.106
234.747
271.499
262.454
239.768
316.681
178.486
1165.2
1223.43
857.956
899.214
177.671
152.594
152.292
1201.04
1051.52
908.548
903.965
166.652
162.69
166.732
1007.31
820.327
881.316
743.92
115.614
158.43
111.178
732.127
508.09
682.176
489.193
79.5789
97.4324
70.0502
453.96
354.188
435.562
329.461
71.0003
64.6069
57.3506
336.791
303.17
307.933
275.394
65.2817
56.5101
56.9133
296.136
283.089
272.143
272.459
54.8294
57.7551
50.3282
280.225
272.258
274.305
289.977
1214.55
1383.29
1165.14
1847.02
1550.21
1881.9
1543.18
947.106
1108.42
890.566
1463.46
1173.58
1448.79
1149.68
717.325
816.266
653.394
1088.82
906.459
1059.54
859.737
629.921
618.625
549.796
869.72
776.285
814.404
714.637
546.268
535.858
503.234
745.11
661.983
690.431
628.515
461.312
490.787
447.147
635.768
562.824
608.248
547.827
386.297
431.682
387.768
539.956
481.134
528.72
477.365
325.236
374.207
339.323
463.7
416.511
462.354
419.922
1181.04
1647.24
1647.64
1890.21
1572.29
2228.66
2074.66
933.378
1622.71
1423.01
1480.55
1199.71
1987.19
1657.49
696.038
1335.05
1003.97
1112.83
895.049
1539.88
1147.66
543.124
872.861
560.95
836.837
703.725
1029.39
657.634
481.896
498.781
396.176
672.356
604.129
575.952
440.422
431.125
375.677
328.283
584.632
529.17
410.784
355.419
379.14
315.668
288.978
511.939
466.66
348.199
347.038
337.627
284.033
274.643
453.603
417.378
349.17
347.158
1818.64
1813.66
1701.52
2462.18
2262.1
2433.81
2213.38
1550.98
1651.9
1436.6
2165.96
1802.76
2117.72
1785.26
1067.46
1359.51
1029.48
1671.07
1218.28
1661.39
1214.39
570.479
891.596
580.342
1074.85
668.835
1059.86
718.366
390.804
517.408
411.631
581.058
435.206
650.098
529.233
316.357
391.819
349.728
403.405
338.891
504.204
450.539
271.926
339.72
316.795
327.592
317.611
437.583
405.696
257.067
309.671
289.393
318.406
323.751
396.129
370.928
1486.28
1226.39
1158.65
2191.17
2050.49
1882.3
1779.7
1259.7
1152.93
1081.13
1967.95
1668.01
1725.81
1462.17
942.569
1036.36
840.5
1554.35
1156.05
1358.28
1029.18
575.76
767.358
551.67
1020.9
709.823
930.873
676.197
406.331
494.306
381.868
643.397
523.349
614.811
498.595
348.686
359.138
324.852
499.927
455.317
475.799
441.874
325.812
321.04
320.564
445.95
424.055
437.527
434.547
303.092
321.623
327.871
417.451
390.102
434.204
437.158
1627.06
2013.36
1636.61
2214.17
1803.62
2314.04
1863.13
1227.26
1531.94
1212.21
1680.36
1356.26
1731.7
1363.62
952.17
1118.69
911.56
1265.25
1066.19
1263.51
1042.37
811.591
863.903
756.535
1021.29
898.175
989.21
862.096
689.146
729.286
658.39
858.346
757.219
825.968
729.054
586.97
635.804
570.651
727.867
649.277
699.985
623.328
504.555
550.676
497.939
626.136
567.544
602.159
549.664
436.476
482.635
436.24
550.21
499.675
534.323
483.992
1670.06
2391.2
2172.86
2344.07
1905.1
2755.89
2386.17
1262.37
2068.02
1699.24
1774.88
1409.66
2236.53
1772.16
943.102
1572.5
1169.89
1306.57
1063.22
1625.96
1220.67
892.992
831.508
927.478
925.099
855.467
872.154
963.516
669.638
682.222
677.272
745.739
639.876
714.546
709.183
551.592
388.375
350.74
677.537
602.578
456.529
420.362
486.633
351.514
364.868
582.641
535.936
420.838
428.098
433.128
368.301
364.125
522.693
479.74
429.162
418.993
2361.35
2615.34
2334.93
2996.77
2572.06
3050.72
2619.86
1843.24
2224.82
1849.71
2410.32
1900.72
2462.45
1957.36
1237.62
1711.67
1242.1
1736.51
1270.02
1785.85
1282.4
987.496
939.188
1115.57
1118.53
966.91
856.744
1134.69
620.927
490.46
656.052
455.276
597.824
399.554
679.028
328.888
533.458
477.12
449.894
402.535
611.089
549.069
332.618
463.38
429.635
399.615
403.971
534.071
500.557
340.553
419.711
390.689
405.872
402.367
491.353
463.703
2191.44
2118.35
1945.53
2882.08
2528.36
2675.66
2341.91
1749.3
1870.21
1544.86
2380.08
1895.22
2195.49
1707.92
1191.92
1425.3
1067.22
1729.7
1248.91
1553.97
1142.64
739.494
964.035
704.772
1109.5
809.945
1032.24
776.443
553.75
643.871
529.65
748.645
634.882
720.3
617.694
484.191
507.55
474.848
611.18
564.063
598.672
571.647
450.749
470.405
466.792
553.695
530.209
567.966
565.797
411.559
466.076
465.107
523.1
489.491
565.261
565.558
1853.66
2402.79
1927.95
2518.74
2011.44
2658.89
2135.22
1395.76
1789.2
1410.12
1862.3
1536.87
1977.93
1584.04
1103.8
1309.31
1085.54
1452.62
1253.43
1486.74
1258.13
927.665
1030.55
895.882
1197.32
1053.96
1194.13
1029.56
782.624
856.773
751.627
1012.41
907.221
981.299
855.806
673.849
720.637
641.864
874.834
800.589
821.358
752.242
593.49
621.21
571.169
780.703
729.689
739.127
704.401
524.051
556.173
503.453
712.71
666.648
690.495
641.494
1970.9
2861.36
2439.13
2701.69
2176.13
3146.6
2599.82
1453.97
2277.5
1790.69
2019.07
1621.27
2409.12
1882.99
1103.08
1641.08
1237.46
1518.56
1267
1730.58
1340.5
887.601
1130.34
836.173
1196.98
1021.88
1233.38
995.198
730.891
749.964
568.587
969.864
831.852
925.213
736.924
619.704
527.342
460.745
793.48
721.758
685.618
597.253
556.621
454.659
455.316
711.865
690.689
593.877
614.136
499.051
456.09
442.278
680.028
637.072
615.972
597.986
2623.27
3176.25
2697.16
3378.58
2779.85
3560.64
2929.63
1912.21
2523.33
1978.45
2570.9
1982.39
2705.04
2056.95
1280.6
1799.17
1292.35
1809.2
1364.94
1863.2
1363.75
818.748
1148.81
848.761
1246.29
984.576
1232.57
965.81
564.573
787.86
666.529
916.445
736.189
910.097
791.452
447.004
638.214
575.785
685.128
591.917
762.875
715.43
435.295
561.459
532.024
586.859
605.651
711.863
709.308
427.601
523.898
494.008
607.748
592.202
704.299
676.981
2620.06
2855.89
2446.02
3494.92
2884.21
3360.43
2708.05
1924.87
2275.52
1743.94
2659.77
2016.63
2472.1
1844.73
1262.35
1582.88
1163.87
1825.98
1340.07
1677.27
1258.89
834.042
1053.28
802.847
1212.6
954.351
1151.75
933.613
664.04
749.283
652.198
902.576
802.9
893.474
817.11
594.772
634.567
610.442
781.688
752.574
802.88
791.04
565.206
607.574
607.667
751.965
750.608
792.979
804.56
521.978
607.735
605.472
745.86
712.515
806.88
809.132
2090.37
2780.16
2235.81
3229.56
2538.9
3437.17
2857.79
1611.54
2071.53
1674.33
2374.4
2113.05
2661.71
2255.62
1332.19
1578.64
1345.82
2065.91
1842.46
2168.54
1912.69
1124.94
1277.1
1100.14
1772.63
1663.02
1832.26
1641.96
978.892
1048.98
918.236
1634.88
1513.24
1587.27
1444.86
873.155
883.276
824.192
1474.77
1417.88
1413.87
1417.02
805.222
814.759
783.933
1406.9
1345.38
1409.88
1358.11
740.134
769.899
717.514
1330.35
1297.09
1339.84
1299.38
2275.01
3277.92
2686.04
3457.07
2897.23
3941.09
3285.74
1710.27
2485.68
1949.58
2705.66
2296.73
3052.95
2492.11
1352.67
1796.55
1407.13
2194.22
1921.26
2335.14
1954.55
1091.16
1300.38
1063.05
1837.74
1631.77
1846.73
1601.31
890.811
993.454
799.879
1570.42
1405.26
1522.85
1286.52
791.007
746.997
670.162
1369.23
1380.77
1233.47
1248.57
772.432
673.404
707.412
1396.17
1357.46
1299.6
1316.87
713.066
708.116
679.872
1339.59
1296.65
1304.77
1255.59
2866.52
3732.87
3038.75
4122.38
3465.84
4426.31
3672.16
2042.2
2795.5
2114.04
3213.98
2573.6
3382.31
2639.13
1425.7
1916.82
1419.86
2393.55
1961.77
2436.28
1935.47
1052.59
1292.19
1035.17
1845.28
1589.52
1812.98
1575.37
799.723
980.962
862.317
1515.11
1290.16
1522.96
1391.34
667.08
833.858
798.861
1236.96
1249.99
1368.36
1411.1
702.272
801.85
806.554
1299.98
1315.22
1438.8
1412.75
676.426
800.993
765.795
1302.98
1263.91
1397.19
1350.65
2999.48
3560.55
2806.76
4464.26
3635.28
4380.95
3313.04
2074.41
2550.45
1900.43
3334.9
2590.01
3003.58
2369.38
1397.51
1734.61
1318.27
2402.04
1907.49
2223.72
1794.74
1026.58
1212.47
1008.06
1786.91
1568.14
1686.49
1542.43
880.005
972.724
901.456
1525.71
1423.24
1521.97
1440.9
842.163
888.004
881.452
1410.95
1466.43
1428.63
1449.34
848.802
886.426
901.103
1473.89
1451.72
1465.6
1476.57
804.092
903.587
902.044
1440.48
1418.2
1480.69
1489.06
824.434
785.411
726.232
782.286
787.687
824.823
760.533
923.22
990.927
923.965
1088.7
892.882
1020.93
876.6
802.783
684.032
773.342
533.322
785.917
684.01
679.545
928.111
963.398
946.717
1028.05
910.026
996.007
961.755
862.055
817.985
897.913
838.383
861.97
798.768
899.181
954.118
1098.59
1067.32
995.342
1044.5
890.15
984.661
840.52
557.353
799.757
878.16
725.64
699.603
893.047
637.462
657.173
586.853
660.137
610.921
686.419
610.55
549.74
608.024
488.145
444.371
554.347
601.937
377.907
505.563
489.732
442.456
356.694
515.943
488.941
351.464
703.779
779.02
774.344
784.588
745.003
745.764
739.771
667.497
684.205
739.891
664.008
713.655
636.023
700.016
591.771
466.556
722.701
588.45
644.012
406.201
665.883
542.31
371.104
578.296
538.639
520.745
371.476
617.135
855.725
783.68
732.099
537.807
835.133
668.664
753.821
988.201
1110.87
951.204
1107.84
966.19
1128.06
973.405
871.554
752.052
838.126
776.173
846.17
779.698
862.878
1007.55
1131.73
1003.77
1157.52
880.558
1147.82
1027.83
882.433
553.654
847.903
821.046
684.008
784.454
913.778
1006.51
1122.56
1152.43
1008.33
1141.04
991.712
1023.33
894.613
800.451
831.933
905.02
806.205
884.575
916.607
576.904
437.485
516.9
349.283
554.092
373.02
533.915
656.771
681.062
630.461
709.867
627.609
710.183
659.01
614.623
552.398
590.944
587.014
586.568
578.994
619.168
652.511
471.375
561.514
748.035
418.98
710.423
689.23
605.673
370.166
503.896
593.167
387.29
558.848
638.748
685.214
735.884
766.079
711.846
738.499
685.74
713.118
641.871
613.05
631.312
671.954
605.129
645.751
668.842
220.563
345.518
292.222
647.875
657.361
682.576
766.345
232.714
285.984
281.195
673.301
661.209
777.297
753.789
216.495
267.646
252.861
642.243
596.217
689.237
630.738
188.076
234.837
217.342
553.557
513.159
583.08
540.334
159.79
200.339
186.712
470.035
433.025
496.01
460.465
140.146
168.553
153.663
398.083
364.926
419.752
387.128
115.966
137.541
122.444
328.785
307.472
347.928
322.938
81.2078
113.294
85.1425
262.752
264.381
281.882
283.727
434.911
500.464
417.948
1001.13
991.008
992.512
996.976
456.16
242.12
293.923
464.787
473.45
448.482
237.117
497.305
188.551
181.277
539.714
544.316
497.621
177.011
365.509
147.141
142.835
475.013
433.969
401.98
130.677
316.369
132.82
116.605
381.845
376.197
318.537
116.828
314.012
127.543
121.535
353.301
342.718
317.233
121.177
283.336
109.829
115.137
300.224
284.639
294.042
111.385
234.958
91.0549
97.7947
239.741
226.346
246.56
93.2331
192.381
72.8981
80.0229
188.472
180.638
199.712
75.2646
81.2156
120.194
91.0492
237.41
232.01
254.09
253.962
426.956
550.791
463.146
1025.52
1011.92
1046.4
1067.4
487.06
199.808
262.519
441.331
464.262
448.365
209.36
583.76
176.218
208.654
516.114
510.08
586.401
209.853
485.548
143.801
190.363
425.681
396.324
518.224
179.606
320.131
109.087
135.337
309.764
292.887
355.563
121.33
252.172
100.477
99.0919
264.965
262.024
259.277
96.9139
234.799
99.1808
94.357
254.862
250.562
239.404
93.181
209.234
89.4304
86.9992
231.146
223.803
216.348
84.4339
185.275
77.9557
76.6762
200.762
195.886
189.314
74.4382
96.7255
112.133
91.3123
254.627
260.093
232.743
241.348
587.843
611.973
559.412
1133.78
1269.6
1054.97
1199.11
715.895
347.393
425.308
637.204
713.174
658.87
364.535
902.986
370.497
339.644
954.735
971.296
892.657
342.433
708.153
282.138
286.244
832.704
749.612
777.697
258.551
413.497
160.514
187.277
498.614
416.77
491.589
158.063
232.123
91.4565
100.881
261.471
234.198
259.741
90.5472
182.255
72.9753
73.9548
190.568
184.455
188.802
71.5813
163.024
68.7164
67.3337
170.302
165.921
166.861
66.4011
150.429
64.1757
64.4908
153.098
150.12
152.989
63.6726
84.4786
106.235
85.6925
204.508
215.172
214.796
218.571
481.627
494.81
424.46
810.8
914.941
757.388
742.613
470.153
309.006
357.139
508.762
518.283
479.372
295.363
395.999
204.865
186.314
542.268
532.621
411.33
163.521
432.384
172.719
144.139
487.168
483.301
412.259
150.248
379.418
138.703
153.604
412.902
371.537
413.029
144.08
242.446
92.9726
105.512
271.097
242.066
274.507
93.0096
181.266
76.3466
71.9919
200.962
194.185
189.841
68.8476
163.176
66.5697
62.9124
175.03
170.659
165.787
62.1183
163.056
65.686
62.3034
165.032
165.083
161.487
63.1513
92.4099
115.007
106.084
246.529
242.368
259.822
278.987
293.985
370.075
279.544
566.566
604.42
572.91
601.578
272.269
251.648
249.052
704.455
736.196
700.107
724.042
254.126
246.686
232.08
721.409
658.273
707.956
638.989
170.574
195.062
162.408
551.359
444.743
536.697
444.813
115.434
139.343
116.764
364.075
310.547
373.405
321.248
90.1526
101.669
91.7655