/*--------------------------------*- C++ -*----------------------------------*\
  =========                 |
  \\      /  F ield         | OpenFOAM: The Open Source CFD Toolbox
   \\    /   O peration     | Website:  https://openfoam.org
    \\  /    A nd           | Version:  10
     \\/     M anipulation  |
\*---------------------------------------------------------------------------*/
FoamFile
{
    format      ascii;
    class       volScalarField;
    location    "9.1";
    object      p;
}
// * * * * * * * * * * * * * * * * * * * * * * * * * * * * * * * * * * * * * //

dimensions      [0 2 -2 0 0 0 0];

internalField   nonuniform List<scalar> 
12920
(
374689
342016
257731
268870
251625
261850
248619
242725
225409
211196
190688
171569
149300
127409
103880
80538.7
56971.2
33485.9
11423.5
-6113.14
164632
241303
220320
257078
250652
265836
252318
246943
228553
213648
192503
172884
150119
127704
104236
80731.3
56939.2
33271.8
11033.1
-6054.01
210614
231367
223559
266196
263125
275140
261510
253336
234669
218159
195700
175103
151722
128900
104934
81394
57172.9
33396.5
10843.5
-6238.15
143459
260684
252059
298074
285042
294122
275495
265194
243341
225111
200974
178843
154276
130564
106001
81884.7
57675
33562.6
10594.5
-6478.47
410061
379408
312403
336087
314664
314879
291636
277665
253245
233539
207360
183194
157283
132630
107258
82619.7
57880.1
33541.7
10353.2
-6595.56
287181
465798
357581
378870
346954
339797
311442
290836
263778
240520
214509
188108
161007
134812
108628
83266.8
57918
33402.8
10217.2
-6733.3
390300
586159
408999
437848
378655
365875
327486
304095
270571
245318
217434
191995
163447
136474
109491
83679.8
58082.4
33333.5
9995.67
-6818.84
617673
617363
498740
479167
409856
379342
347803
315284
281189
251514
223721
197838
169756
142024
109622
83921.8
58270.2
33335.9
9896.33
-6884.63
628834
616624
496392
484183
416789
394298
355662
320546
286366
254286
225561
198709
171083
144267
113660
83109.3
58015.4
33122.9
9704.42
-6995.24
531858
613512
482932
467862
402162
377884
344615
309302
278881
248983
219790
192711
166594
140841
112352
81623.3
57126.8
32573.4
9376.48
-7117.58
752661
724348
475929
472073
389201
369223
334179
296441
269162
242787
213888
185559
161599
137434
110122
79930.4
55709.6
31490.1
8578.07
-7322.04
457047
529180
432839
409305
361091
345910
314632
275796
243107
219779
200221
178998
157365
135012
108223
77791.4
53774
29778.7
7454.84
-7793.1
693231
488682
384064
369297
311614
295030
273577
248407
224553
202443
180900
163452
145909
126525
98829.6
75164.6
51127.1
27931.9
6053.36
-8424.65
490925
389416
324807
342122
292773
280872
251594
235965
211202
191645
169305
150133
131246
112247
91314
71333
48247.5
25866.8
4618.52
-8971.77
447459
379354
306881
316359
264715
268171
242791
229924
206442
187008
165191
144676
124029
105874
86047.9
65390.1
44748.4
23609.1
3123.24
-9627.72
428870
390650
286598
302222
265161
268873
241107
227755
203536
185261
162560
142363
120827
101301
81141.4
61589.4
41779.5
21692.2
1855.6
-10130.3
103559
295305
192946
261819
238259
253521
230487
220878
198118
180868
158717
138770
117725
98161.7
78357.6
59142.2
39548.6
19980.2
817.021
-10486.7
52112.6
265819
178994
257149
234645
248293
226093
217815
195175
178986
156775
137532
116560
97196.8
77274.7
57985.1
38262.3
18922.6
162.708
-10639.8
-164247
150962
105496
227146
210901
235964
217087
212308
191043
176148
154782
136267
115638
96471.9
76513.7
57171.2
37625
18506.2
42.5588
-10602.9
68476
123385
123680
210771
207357
228788
214138
210132
189872
175258
154299
135949
115337
95953.7
75978.9
56833.9
37378.2
18384.9
159.847
-10352.3
354752
280264
247219
265929
251271
261835
248528
242689
225401
211162
190756
171595
149277
127400
103908
80576.8
56955.7
33420.5
11406.2
-6070.25
120091
232334
217544
256490
250833
265614
251957
246966
228446
213645
192527
172896
150101
127670
104199
80710.9
56932.8
33241.1
11044.4
-6106.26
-60973.4
195472
218839
264639
263258
275201
261682
253141
234343
218073
195711
175113
151709
128907
104910
81311.3
57137
33368.7
10748
-6299.35
110853
240861
249526
295969
285034
294522
275499
265262
243444
224972
200867
178790
154245
130554
105950
81867
57519.6
33437.8
10519.5
-6538.17
358578
363997
311624
336462
314938
315473
291674
278169
253774
233038
207082
183170
157283
132641
107278
82654.4
57843.5
33457.8
10300.6
-6678.53
223925
431894
356635
378968
347448
339915
311286
290806
264037
240540
214241
188026
160998
134803
108647
83308.5
58010.3
33418.8
10150.9
-6775.41
286315
566760
415844
438447
379484
364012
327459
303710
270684
246562
218473
191873
163495
136545
109520
83694.5
58152.8
33355.1
9931.57
-6847.05
729877
609627
503894
478019
410989
379721
347421
315203
281450
251748
224733
198213
169788
142021
109726
83932.2
58277.6
33329.7
9837.99
-6945.77
557281
602928
496127
482822
414858
393693
355531
320582
286368
254610
225484
198810
171285
144313
113658
83162.7
58010.9
33096
9649.42
-7029.01
500851
598341
484487
470568
404074
379165
345561
309779
279297
248987
219729
192575
166276
140747
112443
81720.3
57135
32544.2
9317.02
-7151.47
870287
714563
478997
469723
388734
370489
335594
297690
268819
242368
213633
185949
161313
137421
110230
80056.5
55738.7
31458.6
8550.75
-7380.2
485291
524037
434835
412146
358270
344188
313564
275254
243483
220261
199898
178365
157307
134919
108464
77896.8
53783.7
29752.2
7341.34
-7851.17
591221
435064
359130
359066
308267
292518
270799
247615
224191
202314
181200
163804
146101
127063
99042.1
75203.5
51151
27876.5
5887.05
-8528.42
173426
382120
321801
340399
292779
281244
251670
235873
211133
191571
169516
150793
131565
112488
91929.5
71452
48302.1
25804.5
4501.86
-9040.85
449944
373414
290421
316147
266602
270442
243459
230092
206455
187087
165314
144748
124597
106110
86015.3
65611.8
44796
23583.4
3045.94
-9691.96
353772
374945
281177
303724
266600
270161
241323
228029
203567
185366
162545
142240
120719
101301
81100.7
61513
41784.8
21673.1
1793.11
-10200.5
180173
277384
196282
265977
239576
254859
230973
221311
198234
180904
158591
138523
117473
97954.5
78217.7
59032.4
39475.6
19915.4
732.402
-10572.7
64155.8
240658
174700
258185
234958
249437
226623
218215
195258
178979
156675
137394
116412
97050.9
77165.6
57874.5
38174.5
18838.7
52.7544
-10717.9
-20491.9
155580
108917
228644
212356
237572
217584
212653
191112
176174
154730
136198
115554
96315.3
76377.5
57085.2
37526.1
18381.5
-91.4227
-10688.7
20753
116917
122027
212817
206796
229616
214314
210291
189862
175285
154267
135942
115344
95989.7
76002.6
56796.3
37310.3
18317.8
90.9697
-10392.2
356615
279254
245079
266451
251431
262041
248590
242772
225514
211191
190836
171622
149261
127313
103965
80591.1
57018.9
33395.3
11256
-6158.41
138274
217847
211056
256474
251135
265377
251845
246792
228485
213755
192557
172897
150102
127763
104229
80754.4
56973.3
33277.3
10939.6
-6217.84
21301.4
177008
215060
264921
263782
275330
261414
253286
234178
218018
195729
175154
151703
128918
104904
81267.6
57115.7
33325.5
10641.4
-6376.07
-8782.38
204982
245046
295961
285435
294963
276469
265137
243202
224827
200759
178775
154227
130555
105954
81856.4
57431.6
33327.6
10429.4
-6561.51
351379
349658
311242
336971
315566
315417
291627
277952
253860
232704
206853
183126
157280
132659
107312
82682.7
57786.3
33362.5
10221.9
-6642.93
372214
435022
345962
376044
347435
339162
311052
290808
265154
240584
214123
187984
161048
134837
108690
83358.2
58068.3
33394.3
10100.9
-6742.06
305755
539692
431193
437465
380748
363892
327576
304071
271067
247369
219150
191883
163699
136654
109559
83717.3
58217.6
33352.1
9892.07
-6820.4
545389
580399
492814
472296
409973
379783
346685
316194
282208
253196
225925
198312
169782
142039
109815
83948.6
58290.4
33310.7
9725.43
-6935.8
466493
574917
489764
481122
413531
393161
355033
320757
286710
255200
226181
199079
171431
144280
113678
83181.1
57980.7
33024.2
9614.25
-7005.78
475629
599394
485922
473110
406651
382544
348435
311248
279624
249060
219762
192279
165772
140591
112559
81779.7
57137.4
32483.9
9281.02
-7100.91
919959
726133
482611
470171
387520
371902
337970
298630
268516
240861
213115
185748
160999
137404
110533
80171.5
55769.3
31459.1
8477.64
-7511.14
463896
525886
432250
413055
355133
341712
311732
274870
244418
220700
199425
178068
157043
134735
108773
78054.2
53844.8
29693
7095.91
-7959.52
516797
467127
354058
356362
306795
290643
267972
246632
223851
202358
181903
164590
146785
127556
99113.2
75330
51196.6
27722.4
5608.87
-8587.14
298476
407734
328989
341442
294000
282028
251786
235829
211079
191564
169914
151416
132063
113082
92727.8
71516.3
48354.8
25704.5
4272.23
-9146.54
478802
370150
283936
318000
270750
273155
244470
230475
206603
187299
165643
145308
125244
106142
85982
65774.8
44935.8
23498.6
2833.43
-9815.29
466075
374386
276930
308433
269103
272262
242023
228716
203823
185623
162658
142359
120947
101474
81272
61670.5
41802.3
21645.6
1628.36
-10287.4
179975
264179
189986
273499
241534
257235
232013
222208
198563
181069
158470
138278
117235
97866.3
78044
58876
39343.2
19809.3
579.03
-10679.9
70134.2
230794
173505
260800
236582
252244
227790
219034
195501
179047
156534
137178
116205
96848.4
77007.6
57707.9
38023.6
18664.1
-169.531
-10836.3
-102082
127236
101211
226890
214669
239776
218630
213328
191292
176247
154653
136098
115417
96158.7
76232.4
56956.7
37343.8
18159.4
-358.319
-10824.4
-97785.6
102097
116537
210399
206801
231048
214737
210686
189893
175356
154228
135919
115297
95961.5
75948.8
56707.7
37218.6
18220.5
-36.7669
-10465.3
106656
232075
233832
263951
251274
261973
248653
242777
225580
211245
190810
171608
149234
127305
103936
80600.5
56970.4
33345.6
11075.1
-6276.64
-28559.7
186905
208490
256866
251460
265577
252032
246832
228530
213783
192554
172904
150100
127810
104231
80780.6
56988.8
33219.3
10684.2
-6372.05
-199933
142119
206249
264436
264585
275411
261272
253332
234116
217968
195714
175155
151692
128923
104904
81257.3
57100.6
33233.5
10449.9
-6469.17
-88518.2
167017
242881
297045
287078
295116
276573
265074
243006
224706
200688
178729
154210
130556
105967
81853.4
57391
33210.9
10266.4
-6561.26
244093
325104
310830
337419
316694
315396
292615
277734
253692
232531
206753
183095
157294
132676
107347
82695.3
57753.5
33282.8
10071.7
-6625.54
314304
439372
349513
374939
346588
339007
311074
290906
265716
240598
214108
187954
161099
134861
108722
83385
58094.5
33328.3
9944.33
-6732.49
606985
556372
451159
438939
383608
364110
327433
303927
271935
247480
219438
191930
163864
136729
109577
83736
58266.1
33324.5
9767.21
-6812.71
617775
577051
495440
470634
408965
379734
345627
317704
283326
254943
226440
198293
169718
142030
109949
83979.3
58299.7
33271.5
9581.79
-6923.4
438369
567685
485897
480683
413048
392453
354639
321041
287384
256083
227030
199192
171366
144172
113786
83238.9
57963.7
32935.7
9499.15
-6989
389208
594032
483373
474893
407402
385243
350700
312411
279893
249248
219996
191853
165321
140489
112722
81875.1
57129.7
32382
9090.33
-7077.54
898955
720715
482513
471756
386696
372424
339214
299100
267888
240149
211871
184979
160743
137370
110809
80312.4
55790.5
31384.2
8177.41
-7555.8
435088
527075
433847
412938
352926
339961
310231
274509
244736
220562
198931
177830
156685
134612
109140
78325.4
53868
29639.9
6742.98
-8205.76
531322
459784
337566
352243
305519
288964
266348
246514
223969
202757
182862
165480
147484
127650
99324.6
75497.3
51211.2
27484.2
5138.53
-8781.88
279885
392807
319812
340298
294902
282775
251966
235869
211113
191576
170315
151878
132614
113596
92984.8
71411.6
48391.1
25544.8
3921.78
-9331.27
289609
348147
262577
318086
273360
275461
245859
231208
206934
187543
165949
145725
125559
106075
86029.6
65864.8
44977.6
23461.2
2511.95
-9843.41
102520
335371
268260
312882
272188
274324
242967
229527
204185
185898
162799
142469
121121
101586
81345.5
61777.2
41805.5
21618.1
1439.18
-10262.8
191770
227509
185444
278479
244088
260209
233661
223359
198940
181084
158419
138276
117231
97874.4
78026.7
58830.3
39220.7
19641.5
294.217
-10711.6
122325
204523
160660
262999
239079
255458
229401
220045
195841
179101
156417
137017
116099
96747.5
76918.3
57592.8
37905.3
18417.8
-625.314
-11038.7
-254544
117651
96999.8
224248
215594
242173
220090
214038
191464
176272
154564
135996
115316
96082.5
76170.6
56853.4
37224.8
17938.6
-645.024
-10962.5
-32921
105947
108588
210459
207333
232703
215241
211064
189900
175378
154148
135846
115206
95868
75849.1
56597.6
37118.9
18109.8
-242.431
-10661.1
106229
217619
230206
264132
251390
261950
248672
242794
225604
211271
190797
171604
149225
127285
103946
80603.7
56984
33303.3
10887.1
-6488.35
13903.8
175605
207651
257513
252030
265779
252112
246756
228535
213780
192566
172905
150101
127822
104234
80783.2
56981.9
33149.5
10396.5
-6617.14
-148491
133074
204840
266296
265391
275451
261187
253335
234100
217924
195701
175139
151669
128907
104902
81258.3
57087.5
33104.5
10160.4
-6677.75
-175749
154856
240339
298053
287837
295103
276432
265080
242952
224663
200664
178724
154223
130562
105995
81864.8
57379.2
33100.9
9985.72
-6772.82
217310
307251
310127
337295
317033
315407
293100
277676
253589
232470
206761
183099
157325
132690
107370
82693.7
57742.8
33219.2
9793.03
-6832.68
156248
401627
342378
373113
346317
338928
312463
291072
265708
240694
214191
188003
161138
134881
108742
83397.4
58110.9
33275.8
9673.26
-6939.27
742373
552364
451794
437280
384362
363960
326925
303935
273264
247475
219559
191915
163942
136788
109593
83751.6
58291.5
33274.5
9485.88
-7028.35
581382
578643
492485
468299
409216
379643
344265
317759
284001
255673
226386
198169
169626
142015
110068
84006.4
58308.3
33207.8
9357.81
-7124.62
381919
561675
486381
480186
412506
391901
354618
321422
288421
257155
227650
199148
171203
144129
114035
83294.4
57953.8
32840.6
9202.73
-7183.94
250535
585983
484678
476450
408286
386415
351702
312894
280035
249555
220156
191600
165098
140447
113019
81934.8
57122.4
32268.3
8774.62
-7319.67
923448
725711
481744
473478
386094
373328
339429
299446
267136
238907
211079
184811
160468
137328
111204
80427.1
55807
31298.8
7868.02
-7748.58
382935
528110
431548
413059
351563
338905
309577
274183
244623
220229
198622
177627
156389
134560
109621
78600.1
53907.7
29602.1
6385.16
-8431.76
588725
482433
339573
354621
306369
288303
266200
247563
224512
203418
183728
166012
147588
127763
99374
75599.2
51234.7
27286.1
4675.67
-9085.13
177612
391195
321040
341572
296802
283175
252141
235905
211211
191899
170706
152203
132903
113744
93048.1
71303
48360.9
25368.2
3527.64
-9635.33
141907
330933
250974
316383
276651
278030
247985
231918
207247
187749
166147
146041
125737
106108
86051.4
65887.1
44945.7
23399
2178.36
-10106.8
120580
297088
263166
316557
275652
275986
243980
230388
204535
186129
162924
142666
121273
101685
81349.7
61834.1
41784
21522.3
1150.89
-10462.3
257250
227408
174473
278073
246419
263157
235845
224454
199383
181224
158504
138301
117351
97850.6
78072.5
58789.3
39166
19487.7
-101.665
-10943.4
-28375.9
190586
157447
262946
242061
259068
231373
221158
196290
179210
156438
137060
116131
96780
76923
57570.7
37847.5
18218.5
-1118.79
-11354.4
-330400
112967
97735
222039
214756
244221
222198
214860
191759
176389
154580
135978
115322
96114.4
76190.6
56809.7
37158.6
17797.8
-1003.02
-11285.9
-284961
71022.4
109481
209233
208507
234161
215753
211398
189922
175393
154079
135795
115114
95779.5
75765.6
56585.3
37099.9
18028
-437.407
-10903.2
226907
242769
222536
249178
227111
242644
221643
199096
214960
194105
219923
198930
214207
193727
220420
226637
209205
240312
219149
226165
208584
192758
203400
186089
212078
192428
202781
185752
330515
350462
320641
355708
330449
350821
320714
296318
312235
289544
320559
296030
312430
289739
262794
281653
258118
286310
263008
281791
258178
233217
250502
228470
254463
233215
250543
228417
206860
221307
200982
225455
206585
221261
200951
178821
194316
174338
198762
179054
194266
174229
151709
167660
148209
171219
151745
167573
148166
125194
141806
122963
144305
125192
141789
122937
317319
337241
308900
345089
317630
338141
309670
286789
300425
278187
309529
286988
301088
278269
256409
271959
251222
279194
256446
271786
251124
227035
244248
223029
248977
226996
244147
222795
199260
215511
193757
219751
199227
215306
193997
173259
187528
169165
192627
173030
187590
168835
147174
162912
144233
166385
147085
162580
144184
121861
138151
120183
140784
121880
138143
120213
305416
321648
291363
335124
306241
321858
291411
274290
282058
256898
297275
274496
282062
257313
249559
249484
231568
268933
249327
250313
232324
221643
226266
210077
242531
221239
226749
209995
191962
204733
186860
213695
192301
204562
186708
167700
180859
163820
185916
167519
180702
163865
143431
158349
141350
161411
143406
158362
141337
119477
135527
117742
137423
119481
135519
117827
284967
290434
265443
314082
284560
288582
264236
250569
257313
237733
275388
250503
256326
237233
225056
230997
214182
243227
225190
230598
213885
205119
208039
192645
220070
205089
207771
192640
184705
187171
174395
200018
184110
187407
174411
162447
169143
156180
178501
162510
169243
156476
140857
150583
137548
157332
140739
150988
137787
117233
131464
116035
134956
117284
131788
115930
330428
351041
320876
355306
330390
352260
321707
296029
312632
289870
320696
296218
313546
290088
263202
281853
258203
286550
263711
282023
258312
233324
250577
228393
254994
233828
250724
228431
206557
221247
200935
225957
206613
221365
200869
179156
194237
174165
199010
179360
194113
173911
151751
167522
148129
171417
151742
167312
147976
125266
141772
123016
144302
125237
141654
122955
317945
338593
310135
347853
319239
340555
311603
287100
301491
278345
310842
287455
302527
278567
256458
271723
251056
279552
256509
271606
250752
226972
244064
222697
249040
226904
243382
222462
199209
215210
194119
219739
199125
214929
194115
172890
187580
168654
192359
172402
187074
168168
147041
162433
144153
165904
146878
162041
144053
121981
138134
120298
140626
121970
138098
120341
306725
321598
291363
337581
307978
320534
290850
274624
282039
257512
298479
275009
281843
257993
249194
250578
232478
268581
248706
251163
232634
221127
226821
209889
241550
220832
226743
209389
192415
204352
186522
213460
192270
203598
186155
167401
180612
163851
185693
167064
180428
163760
143390
158335
141312
161063
143328
158181
141208
119543
135506
117923
137411
119593
135448
118025
284361
287533
263567
312358
283705
285820
261629
250684
255769
236989
274968
251187
254138
236251
225399
230392
213751
244252
226007
229743
213355
205047
207669
192697
220656
204833
207407
192935
183851
187477
174420
199534
183410
187716
174461
162541
169296
156622
178116
162467
169548
157126
140676
151199
137788
157124
140466
151695
137608
117388
131842
115935
134780
117443
131712
115731
330369
352454
322034
354912
330302
353373
322886
296389
313851
290127
320946
296962
314565
290246
263966
282077
258367
287164
264586
282226
258594
234098
250782
228497
255804
234894
251019
228833
206667
221414
200843
226811
206799
221707
200752
179399
194061
173810
199178
179420
193858
173504
151717
167223
147921
171399
151623
166938
147767
125307
141611
123017
144206
125305
141501
122999
319701
341046
311995
350422
320886
342752
312629
287545
302725
278627
312191
287768
303272
278727
256533
271589
250654
279830
256668
271493
250301
240245
241645
247425
249086
240224
241661
247453
210592
212768
217905
219804
210726
212794
217808
172237
186918
168044
191971
171815
186497
167765
146827
161942
144020
165414
146687
161707
143938
122055
138085
120467
140509
122054
138057
120503
308101
319914
290697
339184
308324
319203
290328
275051
281792
258092
299000
274978
281658
258197
248576
251266
232594
268092
247766
251309
232232
231377
234654
238319
241262
231650
234461
238075
203882
205764
210813
212514
203809
205369
210771
166991
180395
163702
185356
166784
180150
163461
143304
158116
141166
160811
143222
157879
141035
119719
135425
118166
137379
119771
135380
118256
283509
284974
261119
310711
283002
283482
260120
251314
253762
236105
274598
251540
253178
235967
226115
229604
213290
244703
226170
229443
213258
204745
207393
193070
220630
204408
207513
193495
183312
187818
174537
199068
183057
188089
174853
162411
169656
157254
177905
162168
170060
157538
140398
151838
137508
156777
140210
152090
137244
117566
131631
115757
134629
117630
131472
115708
330258
353416
323101
354734
330046
354031
323543
297267
314737
290282
321252
297988
315029
290377
264878
282275
258688
288119
265447
282409
259009
235216
251124
228980
256913
235954
251470
229316
206835
221814
200717
227523
206844
222043
200586
179403
193780
173416
199170
179282
193549
173246
151573
166851
147724
171241
151463
166673
147630
125398
141473
123093
144121
125435
141422
123151
321176
342947
312799
351812
321724
343793
313348
287822
303426
278728
312834
287927
303842
278676
256738
271423
250150
280013
256957
271144
249510
227213
242776
221218
249486
227420
242320
220853
198849
213851
193377
220131
198652
213642
193098
171710
186365
167698
191616
171529
186436
167553
146648
161647
143917
165136
146563
161491
143860
122167
138052
120663
140453
122238
138041
120771
308419
318753
290238
339689
308783
318858
290030
274904
281608
258183
299362
274610
281500
258087
247326
251263
232069
267254
246129
251078
231623
218934
225993
208369
239120
218255
225538
207835
191607
202561
185555
211255
191246
202041
185176
166708
179995
163363
184841
166510
179655
163095
143195
157792
141000
160544
143113
157555
140882
119954
135372
118433
137341
120080
135318
118521
282852
282765
259943
309977
282472
281611
259933
251561
253189
236082
274257
251500
253681
236667
226132
229518
213323
244696
225915
230008
213631
204276
207633
193669
220301
203921
208126
194196
182977
188213
174966
198633
182832
188729
175259
162077
170186
157568
177655
161822
170507
157537
140160
152075
137163
156453
140049
151986
136982
117808
131430
115883
134577
117872
131372
115980
330013
353902
323634
355025
329734
354539
323826
298360
315045
290412
322022
298932
315161
290511
265549
282444
259100
288865
265592
282571
259310
236206
251578
229403
257671
236369
251822
229525
206803
222088
200557
227794
206692
222139
200470
179240
193520
173215
199113
179158
193427
173083
151450
166639
147610
171184
151380
166537
147522
125597
141417
123342
144229
125700
141392
123486
321819
343607
313509
352375
321919
344101
313498
287951
303971
278657
312980
288009
304105
278686
257014
271078
249351
280133
257186
271082
249236
227475
242174
220743
249749
227567
242049
220637
198632
213571
193032
220180
198553
213505
193001
171497
186413
167506
191540
171325
186383
167255
146543
161431
143838
164953
146447
161135
143751
122452
138034
121003
140393
122665
137965
121365
308935
318534
289991
339937
309030
318957
290039
274556
281485
258058
299576
274556
281561
258156
245902
251025
231502
267097
245700
251134
231457
218067
225410
207714
238674
217852
225368
207697
191172
201966
185122
210933
191135
201944
185070
166445
179600
163013
184781
166159
179519
162729
143083
157475
140836
160139
142988
157218
140704
120333
135293
118765
137256
120707
135205
119129
282372
280903
260009
310082
282308
281119
259910
251438
253943
236894
274252
251687
254528
236898
225850
230221
213730
244960
226099
230754
213433
203895
208326
194342
220489
203981
208860
194168
182818
188899
175287
198695
182805
189421
174923
161750
170567
157465
177588
161527
170871
156981
140010
151939
136920
156223
139893
152061
136519
118121
131376
116240
134502
118413
131597
116237
232612
234233
225255
226948
232681
234246
225158
238246
245350
237183
243253
238332
245375
237769
230571
223650
229701
222583
230959
223163
229527
240251
249124
241763
247450
241701
247456
240226
232602
227019
234390
225278
234304
225169
232677
238235
243198
245250
236881
245332
237754
238196
230498
222342
223318
229053
223042
229359
230768
203525
205911
197049
199061
203708
205905
196907
208702
216280
207704
214954
209154
215800
207940
201879
195606
200451
194193
202209
195527
200440
210569
219855
212853
217873
212821
217766
210672
203464
199003
205866
196751
205888
196810
203517
208682
214757
216016
207073
215767
207655
208856
201815
194157
195202
199766
195326
200210
201910
224711
227766
217860
219677
224854
226955
217765
226555
233173
220771
226501
226850
232868
220600
220141
213969
214989
209014
220444
213693
214807
230859
241017
233625
236754
234133
237550
230052
224142
219280
226292
216513
226400
217260
223301
226164
226339
231932
220228
232412
220416
225662
219744
208804
212906
214395
213330
214604
219276
197423
198611
190860
192561
197135
198726
191119
200746
207407
197596
203211
200910
207184
197434
194365
188405
191824
186018
194520
188287
191718
203597
212131
205039
209705
205093
210353
203046
197196
192545
198092
190486
198330
191034
196602
200497
203003
206496
197029
206871
197248
200186
194155
185919
188017
191341
188164
191559
193930
334385
350973
337145
347730
334362
351072
337087
299592
319008
299690
315224
299837
318955
299783
268107
282886
267052
281238
268261
282963
267162
238686
251964
237114
251504
239122
252148
237239
213285
223798
211186
224032
213510
224011
211169
185956
197929
183826
198053
185915
198071
183954
157549
170373
155742
169767
157583
170485
155745
130499
142740
129237
142018
130452
142787
129186
373307
391203
368665
393740
373554
391107
368719
346059
347591
358485
355539
347649
358287
346141
310382
313713
318931
320547
313724
318916
310393
277396
278963
286030
286335
278971
286016
277395
245892
247636
253529
254315
247654
253555
245898
217933
219986
224597
225533
220005
224551
217991
190690
192844
197680
198721
192856
197697
190678
163157
165143
170308
171106
165164
170345
163163
137232
138698
143944
144271
138722
143949
137224
103331
114019
101393
113678
103287
114056
101353
355953
375769
352661
378257
356827
376355
353526
331543
334886
341110
344444
334893
341162
331327
298713
301730
306123
309307
301723
306226
298616
269152
271333
276439
278970
271373
276475
269131
240092
241607
247360
248979
241604
247361
240088
211128
212655
218346
219783
212650
218331
211151
184667
186295
191042
192694
186232
191028
184702
158925
160009
165527
166556
159978
165453
158984
133684
134525
139907
140827
134499
139888
133682
100238
111350
99556.2
112407
100207
111408
99541
347105
362998
339354
369631
347772
363231
339700
321398
324358
332010
334167
324479
331937
321304
283724
287957
292420
296588
288131
292475
283655
258717
262954
263571
269067
262834
263599
258673
233461
236010
240286
242739
235930
240200
233540
204219
206255
211618
213829
206252
211595
204202
178083
179715
183895
185690
179724
183990
177988
154485
155510
160413
161568
155479
160397
154494
130848
131475
136782
137428
131475
136780
130845
98318.2
109080
97409.7
110145
98309.9
109185
97409.8
325696
331514
311265
345717
325241
330539
310202
297124
304515
307710
314400
304438
307374
297308
260490
267072
269260
275689
266931
269075
260700
231794
236582
238108
243054
236521
237993
231892
209466
214840
214768
219796
214893
214710
209486
190817
195701
195578
200189
195553
195571
190867
170591
173297
176142
178908
173178
175929
170684
150834
152089
155785
157357
152072
155799
150850
128613
129167
134551
134997
129160
134508
128641
96126.1
106297
96681
108315
96125.8
106366
96645
260196
263186
255291
272682
259718
263767
255206
236117
243753
232718
248147
235949
243674
232683
212927
220739
210342
224405
212786
220701
210292
191050
199196
188814
202376
191025
199163
188831
170791
177200
168233
180987
170902
177146
168372
154755
158076
151054
163549
154760
158299
151183
136217
139888
132480
145939
136228
140024
132644
115610
120796
112992
126763
115891
120988
113447
334411
350974
336923
347311
334485
351049
336788
300574
318869
300080
315468
301208
318817
300541
268604
283141
267462
281727
269019
283520
267925
240112
252475
237654
252289
241058
252950
238404
213633
224407
211226
225315
213738
224983
211366
185950
198306
184113
198263
185953
198518
184236
157645
170610
155771
169795
157678
170693
155760
130610
142847
129323
142035
130525
142926
129223
372910
391512
369147
393750
372382
392678
369585
345147
347752
357696
355555
345406
347663
357611
310586
313803
318943
320614
310511
313821
318991
277467
279217
285939
286365
277430
279292
285929
245996
247908
253742
254699
245944
247997
253838
217823
220150
224503
225573
217788
220221
224549
190835
193005
197782
198863
190797
193061
197818
163156
165342
170502
171343
163156
165402
170543
137194
138766
143972
144319
137222
138763
143963
103404
114074
101460
113669
103337
114129
101385
357641
377186
354214
381041
359464
378974
355615
333252
335901
342329
346352
332681
336523
343052
299629
302180
307082
310098
299325
302456
307474
269346
271571
276689
279391
269301
271634
276764
240150
241619
247360
249003
240127
241631
247369
211013
212712
218220
219715
211048
212723
218159
184246
185994
190872
192511
184394
185889
190770
158440
159763
164991
166159
158557
159683
164826
133657
134494
139795
140706
133669
134477
139760
100347
111494
99699.7
112514
100289
111629
99659.4
348902
362795
339542
371667
350119
362318
338733
323001
325765
333296
336323
322494
326392
334002
284699
289118
293224
298060
284466
289385
293481
258585
262466
264145
268719
258697
262332
264313
232503
235525
239580
242174
232798
235387
239293
204173
206217
211397
213575
204231
206169
211268
178133
179681
184301
185928
178158
179612
184318
154381
155316
160281
161222
154416
155252
160229
130889
131499
136775
137419
130876
131509
136775
98476.4
109303
97602.4
110413
98440
109486
97590.1
324011
328374
308216
343357
322993
327271
306801
295278
303771
305999
313247
295798
303356
305578
259420
266550
268073
275157
259551
266565
267861
231246
236912
237520
243767
231349
237194
237439
209561
215263
214554
220442
209497
215326
214549
190442
194733
195506
199773
190529
194504
195469
170467
172941
175527
178260
170468
172899
175466
150630
151903
155869
157260
150687
151818
155878
128456
129140
134298
134875
128498
129121
134225
96295.1
106417
96731.5
108620
96288.4
106528
96687.1
258761
263342
254756
269559
257893
263510
254473
235629
243472
232632
247084
235314
243243
232550
212588
220662
210249
223983
212390
220569
210143
191051
199212
188977
202293
191161
199151
189122
171144
177221