/*--------------------------------*- C++ -*----------------------------------*\
  =========                 |
  \\      /  F ield         | OpenFOAM: The Open Source CFD Toolbox
   \\    /   O peration     | Website:  https://openfoam.org
    \\  /    A nd           | Version:  10
     \\/     M anipulation  |
\*---------------------------------------------------------------------------*/
FoamFile
{
    format      ascii;
    class       surfaceScalarField;
    location    "9.1";
    object      phi;
}
// * * * * * * * * * * * * * * * * * * * * * * * * * * * * * * * * * * * * * //

dimensions      [0 3 -1 0 0 0 0];

internalField   nonuniform List<scalar> 
38556
(
3215.2
-1018.5
-2961.9
2306.91
-155.632
1063.92
1922.19
-115.522
500.235
1758.25
-68.738
232.68
1677.76
-66.9734
147.46
1707.76
-134.267
104.274
1741.22
-123.567
90.1062
1803.36
-122.286
60.1384
1830.51
-81.7427
54.5931
1830.45
-52.996
53.0616
1762.19
-12.1287
80.3904
1687.2
-11.1246
86.1166
1645.37
-37.0852
78.907
1663.43
-69.0301
50.9767
1737.88
-87.8006
13.3487
1835.5
-83.6383
-13.9814
1884.29
-41.784
-7.00848
1869
3.59969
11.6874
1758.84
62.2676
47.8953
78.0285
14.3049
128.352
107.203
-625.938
480.228
-273.623
-233.884
895.586
-412.022
-118.858
1021.06
-337.174
142.964
1116.78
-274.067
111.371
1189.53
-224.031
17.0136
1239.64
-169.321
-4.35918
1274.91
-119.581
-37.9691
1289.15
-75.947
-20.0409
1301.02
-42.5017
-22.3566
1309.98
-21.3082
0.217054
1318.07
-15.3456
-3.86909
1315.71
-23.962
-10.7688
1309.23
-30.896
-31.6482
1304.34
-37.2378
-45.6736
1316.64
-33.78
-62.16
1346.63
-12.2832
-59.4925
1372.59
28.5139
-50.8736
1381.12
82.2294
-28.4899
84.7831
-5.43597
140.96
-149.836
1194.02
665.628
-449.535
-348.756
1116.41
-397.472
-465.33
1225.62
-325.674
-120.71
1237.9
-251.586
-34.7602
1242.84
-172.238
-56.74
1246.59
-119.255
-53.8156
1253.98
-63.5304
-63.434
1250.07
-29.0442
-42.9933
1240.67
9.96918
-43.0714
1219
26.3469
-25.9849
1191.94
36.465
-24.7547
1147.05
31.586
-10.6545
1103.78
24.7561
-12.3848
1073.35
13.3704
-20.1803
1059.71
4.31352
-24.4472
1068.71
3.76644
-25.0543
1098.75
12.5015
-14.0244
1136.18
46.8758
-2.07975
56.7234
9.06648
-1273.45
-1420.9
1053.69
65.4812
-880.251
-908.216
881.25
-623.033
-590.207
894.651
-374.11
35.0353
933.674
-353.409
62.8
937.572
-183.965
7.8296
968.836
-169.588
19.0688
974.463
-59.1482
-10.0093
989.821
-43.8548
-0.546714
991.57
12.6407
-4.42055
990.198
24.8541
2.86401
981.072
45.8083
-0.217377
967.932
43.8444
0.882246
953.697
41.1701
-2.17968
942.447
25.6029
-0.982294
935.95
10.2242
0.585878
940.215
-1.44549
0.947777
954.038
-0.99033
-0.331205
980.879
17.8738
2.16039
33.6426
4.66612
922.058
-1.98442
-1203.89
1132.64
-776.183
-314.647
986.536
-346.92
-130.013
941.898
-303.136
-26.3362
897.99
-331.477
21.975
893.124
-182.476
3.37718
943.558
-239.441
19.4183
974.126
-95.7776
6.06128
1001.07
-85.9631
15.1694
1014.27
-15.0721
14.5088
1015.01
7.17525
16.9418
1007.56
47.354
5.90309
995.98
47.3424
8.07978
985.166
48.1249
3.85909
971.861
34.4104
4.49768
959.824
18.1562
4.10477
954.285
-2.0768
6.16977
951.838
-3.87616
5.33264
957.459
9.25618
2.99673
23.1862
2.45225
1970.29
1053.12
-3752.14
1807.51
-446.061
-167.338
1363.28
-145.871
243.181
1131.23
-222.237
151.15
933.532
-227.014
93.2359
868.194
-117.989
0.850977
897.775
-273.654
4.63229
898.53
-90.5027
-6.03048
933.228
-122.454
1.79302
961.732
-36.6979
-6.87806
994.391
-23.5677
-1.91603
1008.21
39.6853
-6.14534
1014.68
44.2706
-3.40681
1010.4
52.2027
0.210728
996.432
41.278
7.09573
974.817
27.4441
12.3269
950.98
8.32619
13.4336
934.278
5.80115
7.02522
928.055
14.7168
0.762595
23.5435
-0.423071
233.537
-142.81
-1894.75
157.735
-231.399
-138.86
708.273
-434.767
-261.642
764.921
-202.107
-76.7785
874.618
-269.846
-66.8651
836.407
-38.7331
-41.0446
811.555
-34.1335
-47.4669
-63.961
-37.0285
-66.2118
804.615
-25.8522
-29.7453
-1.62084
-25.4274
-0.917331
824.59
-23.3055
-25.0565
-37.5327
-22.4624
-34.0721
863.911
-22.897
-23.4896
-6.65196
-18.5209
-4.4594
899.583
-13.6228
-18.9302
-9.23625
-11.3739
-6.07707
925.364
-4.50463
-5.41205
10.884
0.354518
12.5823
934.878
7.65816
-2.0464
10.7289
8.09298
10.3229
933.352
10.1252
5.26281
14.5395
9.51733
14.2838
922.069
41.6291
10.9323
904.144
33.0738
12.2952
888.044
15.3154
9.11073
879.729
10.3693
3.74694
882.387
12.1061
-0.0471902
17.6554
-0.175362
1009.22
-1504.19
-2415.66
999.383
-440.789
219.229
1080.65
-369.432
-146.603
1051.41
-188.943
16.0775
1009.94
-232.146
3.771
223.734
10.0035
-21.5105
236.944
219.514
233.003
45.9917
-11.4303
34.9556
195.295
-8.63324
2.93903
-160.701
161.776
-22.7344
-4.19305
-181.713
187.893
-27.7758
-1.70971
-194.344
204.248
-33.3825
0.581613
-219.269
222.609
-16.2712
-0.691689
-228.904
231.126
-5.13619
-1.59105
-237.933
236.218
10.1448
-0.772116
-237.723
234.851
12.5692
0.428017
888.418
10.1334
18.2777
-233.702
-234.386
-222.431
-220.418
13.0341
9.84034
12.8622
854.039
49.5227
17.9302
832.604
26.8593
9.89116
825.649
16.5001
0.824543
829.672
12.1672
-4.08446
13.2247
-2.75322
480.376
-221.846
-2022.63
811.466
-413.692
-358.188
1089.79
-181.29
-466.465
1156.01
-74.1175
-181.044
233.132
-45.692
-20.9708
233.224
259.892
264.277
244.437
-4.28523
2.98299
-6.53812
-68.8953
67.9438
9.49818
-2.0085
-69.3235
4.5156
68.2267
-1.61556
-1.80323
-67.8731
8.38326
65.4406
-5.90636
-0.0444696
-62.3835
9.56888
61.7687
-8.63649
-0.317533
-62.6122
5.07021
61.898
-4.05393
-0.302104
-61.8093
1.59536
60.9613
-0.596345
-0.150982
-61.5044
-2.52532
61.0258
3.42519
-0.421286
-61.5865
-3.30893
61.1507
3.82264
-0.0779254
-61.9247
239.099
11.7867
3.2098
-61.6015
-60.532
-59.9037
874.846
68.8623
19.7045
-234.683
-233.448
-223.686
-222.074
835.897
49.4281
16.3809
815.154
30.7113
6.53132
812.008
14.828
0.485106
9.54774
0.419385
1127.51
330.622
-1736.75
1388.03
-245.702
-428.505
1449.75
164.609
-407.621
1498.94
155.789
-279.096
283.975
249.174
-68.7984
305.024
335.223
348.652
-4.02638
252.35
37.9769
-2.32551
-2.12528
-56.0479
55.2142
3.35671
-0.39774
-2.78182
-55.1734
55.6163
3.34243
-1.00346
4.3293
-57.4014
57.8377
-5.00645
0.240874
9.55771
-59.7327
59.9154
-10.6868
0.946302
4.52749
-60.2783
60.6593
-4.96827
0.0597434
0.225364
-62.0717
62.6461
-0.613336
-0.18648
-3.82201
-64.5088
64.9636
3.36558
0.00164679
-3.38115
-66.0037
66.0867
3.1892
0.108933
-65.0264
-12.2554
251.118
15.0155
1.64182
-64.553
-63.1241
-62.8159
911.003
96.0168
14.0499
-244.365
-241.971
-232.895
-232.975
859.214
82.4
18.8169
830.885
50.003
9.03667
823.398
20.8194
1.49568
10.238
-0.0371336
120.52
-150.625
-3923.97
208.903
-300.603
-33.4824
1032.82
-251.012
-408.292
1168.63
-28.589
48.5669
282.567
192.959
32.4229
298.675
298.73
312.446
-77.3731
292.964
76.5151
-9.53848
-16.3184
-76.3524
79.1591
18.2823
-4.77061
-8.1124
-87.7964
90.671
11.0746
-5.83679
4.89982
-92.7644
90.9811
-1.78064
-1.33595
9.76063
-77.7272
73.3136
-6.44948
1.10247
4.01491
-64.6072
63.2786
-3.44671
0.760377
2.41425
-62.1648
62.309
-2.99527
0.436865
-1.72442
-62.628
62.5052
1.62269
0.224483
-3.34569
-62.5249
62.6699
3.51017
-0.309406
-62.8078
-19.0352
246.517
21.18
-1.00348
-61.6293
-62.2072
-61.0144
911.373
116.574
17.4761
-242.231
-238.281
-235.886
-233.009
865.624
118.377
9.77243
839.257
88.2708
-11.9015
834.515
36.9694
-11.4076
13.9629
-5.34099
1722.9
-1128.5
-2442.17
1722.12
-639.845
340.016
1517.19
-588.305
542.224
1450.6
-279.298
317.299
328.393
-53.26
318.412
338.805
349.02
362.191
-62.5447
328.412
46.2258
16.3001
-14.6803
-83.0124
85.5547
12.3385
-0.200444
-14.101
-87.756
87.7577
12.6112
1.48801
-6.8177
-82.9896
79.5091
8.05373
2.24447
-5.0092
-69.0761
66.3692
6.23708
1.479
1.84335
-61.6229
59.8284
-0.695766
0.646876
3.70544
-54.7508
54.1499
-2.68249
-0.422009
-1.5637
-56.1094
56.9281
0.905834
-0.160821
-3.57285
-58.2793
58.5785
3.09299
0.1807
-60.1082
-19.8661
241.82
14.9694
-0.0399168
-59.1314
-59.4101
-58.2338
941.484
104.522
10.8371
-241.322
-235.261
-234.456
-229.23
925.228
138.512
-3.87897
914.602
120.807
-21.91
895.459
76.7022
-20.5892
43.627
-15.4778
5094.11
-292.029
-2392
3709.77
-54.3375
798.837
2037.2
12.534
1071.73
1401.52
-111.603
467.99
1208.22
-69.5539
209.596
286.834
-64.9279
151.538
-27.0894
-3.63848
-12.0355
0.508234
294.543
288.27
294.214
-9.25346
292.003
4.80901
26.5191
-9.9245
-8.31401
-9.00558
-10.7065
-279.891
263.871
48.661
10.231
-11.0048
-10.4294
-10.7318
-10.0878
-250.061
242.719
45.4199
3.66117
-10.9037
-9.97302
-10.7741
-8.23251
-230.191
222.248
37.8566
2.23634
-8.2365
-7.9037
-7.77756
-3.12065
-214.118
209.001
14.4657
1.40885
-2.88671
-2.38787
-2.36234
0.232997
-196.837
191.775
3.06449
0.151657
0.726278
0.222456
0.664109
0.818703
-190.226
192.74
-6.12306
-0.121595
1.33686
0.590062
0.985042
0.0541336
-194.286
201.925
-5.33767
-1.81261
0.218645
-0.223357
-0.538088
892.348
-10.6251
-9.42834
-11.8627
-14.2723
-14.0582
-17.4029
-209.413
-200.337
-206.032
-198.917
961.547
44.2088
-8.88621
1013.84
98.3545
-12.1318
1040.56
99.6151
-5.52934
1020.86
95.5556
0.839705
72.7074
-2.40819
1435.66
541.272
1584.05
1281.38
288.685
-188.739
1077.72
288.733
-72.5426
1116.98
-6.62695
-144.238
1113.06
1.55357
-67.1831
1051.85
19.1554
-22.8765
953.481
268.094
19.9278
-28.5289
-60.3443
-35.2631
-65.5158
894.31
237.309
33.5749
-55.755
-53.0616
-53.7616
-49.1347
855.541
250.947
6.3161
-52.2124
-59.1696
-49.5059
-57.6057
838.411
170.565
-15.8679
-40.2135
-31.2005
-37.7637
-28.3887
825.741
127.409
-28.3879
-21.0144
-23.2612
-19.6199
-22.4558
815.433
56.8347
-30.7406
-9.627
1.27912
-8.40915
0.971069
804.342
11.919
-12.3658
2.12422
5.02912
1.13309
3.25145
796.799
-24.9034
-0.398632
6.39188
12.6196
4.6537
9.17909
816.143
-26.6682
-3.30081
877.88
-5.3479
-12.1804
935.376
47.0572
-6.19855
958.298
68.877
7.816
944.33
88.1878
21.3363
73.6994
15.6157
307.431
580.717
3131.83
661.121
-138.78
73.7756
830.175
124.127
-4.44828
852.567
90.6581
-119.677
838.109
90.1037
-74.0925
845.849
99.5815
-88.1652
893.967
222.427
-2.45243
920.34
229.035
-18.0989
951.444
242.114
-22.2709
984.766
182.35
-45.1077
1017.39
144.952
-50.1704
1025.36
85.9028
-37.0362
986.011
57.721
-6.45113
909.03
26.7223
25.3548
833.049
23.5682
25.7448
799.642
25.3771
2.68211
803.454
45.522
-2.27686
813.252
62.2265
-3.14758
824.928
81.7232
-5.21183
70.7597
-4.35858
1299.02
-25.7878
1106.15
1843.5
-437.176
-246.082
1787.32
-118.128
298.433
1682.88
3.44284
191.654
1349.62
209.878
213.485
1153.1
242.195
53.9152
1020.17
325.656
29.6939
999.064
279.904
-29.7614
1002.43
270.081
-31.3316
1023.19
202.659
-41.0662
1034.55
152.493
-18.9071
1030.37
98.7757
-8.6859
997.041
74.8296
16.2165
943.83
54.722
25.2109
878.772
51.8009
36.8258
833.274
44.9176
25.9574
819.981
48.3359
10.4786
821.931
55.0693
5.20775
843.336
63.6897
-3.3718
55.4119
-3.42019
-42.8193
-401.13
-2901.25
584.627
-564.622
-500.001
886.558
-328.422
-91.6366
1125.46
-201.519
-33.9436
1079.79
116.239
139.315
1046.93
199.499
75.5571
991.494
311.237
69.8514
994.226
268.192
8.98098
999.98
249.32
15.0073
1012.91
184.73
4.99927
1010
135.763
19.6365
991.064
92.5738
25.1412
964.325
66.8717
34.6969
940.27
48.2428
30.5339
924.38
41.9012
25.7904
913.234
34.7397
21.3233
910.393
32.3685
18.8086
914.675
35.0097
15.7781
933.842
36.9699
7.5529
32.5519
5.77037
561.07
1734.72
-181.034
490.186
-207.135
-286.603
630.167
-83.4242
-384.979
736.808
-92.3925
-215.768
839.436
78.6677
-65.0562
921.637
146.213
-28.9145
952.311
241.597
38.9655
980.611
213.306
26.5865
988.828
195.374
45.7285
996.558
141.011
35.9889
990.728
103.784
37.8086
983.234
68.6749
31.3933
972.363
46.0956
31.647
963.72
31.4645
25.4215
959.994
22.54
23.0871
959.139
16.6318
18.9633
962.343
12.7962
16.3684
969.947
12.0169
15.3885
984.844
9.52491
12.5486
8.26829
11.6976
-255.945
1355.76
-2922.56
-20.0926
407.564
-850.551
344.573
-148.904
-299.186
461.268
-174.367
-34.7205
614.189
-160.113
85.8608
749.219
13.8243
-2.64192
859.305
109.558
21.9526
928.451
138.337
5.82237
971.097
130.301
22.428
999.607
96.4508
16.0508
1015.61
61.9576
25.8278
1027.33
31.1806
25.7744
1033.16
10.4171
29.8447
1035.79
0.826291
28.0041
1035.36
0.289386
22.6886
1033.5
5.13171
13.3522
1029.61
10.7932
5.89646
1026.57
15.7182
-0.658533
1024.38
18.3073
-6.59606
19.2956
-11.3187
1750.12
2313.76
2004.16
153.521
1605.83
249.427
1403.23
28.2357
1069.75
173.362
998.754
84.8217
994.076
114.236
1059.47
72.9451
1123.23
66.5359
1191.27
28.4112
1235.78
17.4547
1260.73
6.22567
1265.39
5.76033
1259.83
6.38731
1248.9
11.2181
1241.02
13.0112
1239.05
12.7572
1240.72
14.0556
1247.68
11.3472
11.3921
1876.93
-342.283
-556.379
1794.74
-215.634
1361.75
1701.18
-178.118
771.916
1675.69
-123.55
381.716
1640.39
-83.7939
266.561
1676.88
-93.7542
161.532
1696.04
-45.4713
116.415
1728.62
-33.1398
60.702
1715.98
3.59345
63.6384
1687.98
17.2644
63.7933
1628.64
35.1554
104.583
1587.19
27.0606
100.502
1564.84
13.7965
87.4571
1567.03
-2.15282
50.9463
1581.85
-6.60888
5.13295
1592.36
-3.04577
-21.4404
1584.65
15.7069
-15.0077
1540.99
37.1316
18.2108
1441.55
76.9266
70.4147
55.8751
26.5189
360.992
233.764
-1707.45
600.894
-103.843
-585.577
761.993
-271.924
-186.151
874.195
-205.275
112.487
979.475
-138.286
60.583
1042.71
-92.9263
-47.0525
1094.77
-39.9455
-61.9406
1127.12
-14.1196
-89.3424
1144.51
15.4023
-49.2334
1153.68
26.0951
-40.365
1156.95
33.0332
-0.924799
1156.65
30.327
-6.83979
1151.66
22.3025
-14.2809
1145.82
13.5835
-41.546
1139.76
7.96702
-54.1954
1138.9
6.97193
-71.3092
1140.86
18.7474
-64.4931
1139.23
39.4354
-51.5555
1135.31
69.3834
-17.022
59.3019
-3.48764
908.424
-544.997
-880.578
1333.86
-133.952
-744.087
1119.28
-154.101
-368.574
1058.45
-164.542
-100.607
1040.04
-120.309
-34.3265
1032.79
-60.1765
-82.2384
1037.01
-36.039
-61.9446
1031.88
6.76392
-79.1923
1025.01
23.8645
-44.5853
1013.21
40.0491
-45.2263
997.211
45.6447
-22.5936
979.855
47.3479
-24.42
963.224
39.648
-11.3694
949.948
30.1026
-15.6273
939.834
19.4087
-21.5078
935.091
12.4585
-25.1907
939.717
13.4879
-24.4208
954.591
22.2603
-11.7242
974.535
46.4044
0.955476
46.0277
11.1585
855.429
-1553.78
297.775
652.149
-481.164
-357.723
617.917
-323.881
-386.195
642.143
-207.004
53.2707
756.58
-228.629
56.6839
768.819
-76.0244
11.4381
829.064
-87.7532
10.5378
835.451
1.55285
-11.1854
855.244
-2.71455
6.23998
853.866
43.2494
-6.24341
855.025
42.4718
4.8786
848.75
54.409
-1.00446
843.24
44.6911
1.34994
836.752
37.8544
-3.4437
833.878
23.3903
-2.09006
834.168
13.5519
-0.797881
840.308
8.85932
-0.56307
851.422
11.8785
-1.06382
868.125
28.9783
2.88367
35.139
4.89404
794.471
-246.009
-1708.08
747.306
-395.688
-352.956
753.265
-118.203
-341.649
747.587
-171.419
-56.2437
762.197
-227.768
6.50386
763.113
-85.3329
11.7697
818.882
-150.912
26.8084
837.886
-25.7636
14.3733
857.677
-30.3608
23.0244
858.943
46.6582
9.83451
857.566
43.6923
17.0975
850.351
61.7162
5.81061
843.642
50.1963
9.28423
837.011
44.9868
3.35706
831.267
28.4122
5.21996
827.278
16.4194
5.2268
827.248
7.70732
7.35143
829.433
9.30159
5.7244
837.221
20.8019
3.38532
27.6847
2.95292
2055.8
835.755
-5903.23
1477.27
-300.519
316.027
1006.88
-23.816
619.177
891.544
-144.015
239.088
776.784
-144.039
124.267
726.004
-54.8403
21.1386
772.523
-204.577
11.778
767.323
-21.6418
-4.95286
799.241
-55.9741
-4.51127
810.199
36.107
-7.28452
827.258
25.3108
-0.593959
831.809
56.1169
-5.09698
833.926
45.7928
-1.121
830.982
46.7806
1.36081
825.604
31.7728
9.11328
819.925
21.3566
13.0691
814.89
12.9504
13.2252
810.535
13.0631
7.61916
809.733
20.7206
1.64591
24.6318
0.514987
170.302
-191.263
-2914.14
220.222
-220.296
-269.003
733.054
-363.298
-434.991
758.742
-175.464
-71.0187
794.79
-194.734
-52.2179
708.34
46.1001
-55.5344
679.95
-31.1415
-43.7983
-59.4763
-31.3367
-57.9017
676.139
-20.3313
-32.7985
9.96732
-16.9855
12.5726
702.093
-17.9825
-20.8997
-26.3655
-17.3535
-24.3839
737.98
-13.795
-9.13052
3.58463
-11.1986
7.27039
767.91
-5.62362
-8.59401
-3.29775
-3.71043
-2.32389
783.866
4.29411
-4.19775
14.6632
5.23793
14.7509
791.761
8.29604
0.239906
9.94431
8.0736
9.29825
793.229
8.58308
7.88046
13.097
8.05426
12.9605
788.745
34.1926
12.9955
782.113
27.1845
13.0999
778.176
15.8828
10.1156
776.39
14.0497
4.54555
780.241
16.1116
0.711313
18.1998
0.703676
2025.76
-644.481
2508.23
1331.96
-391.281
1084.01
1079.31
-289.397
32.1464
978.758
-97.7632
38.9293
905.787
-157.743
39.7512
196.914
16.9703
-3.55043
209.072
189.815
200.606
47.4169
22.6498
50.4837
-4.7148
174
-6.11409
2.60098
6.37706
-147.154
148.311
-20.4643
-7.40043
3.17036
-166.126
167.4
-19.5539
-2.87257
0.409205
-171.579
178.012
-19.8936
-0.743498
3.83973
-191.136
192.005
-6.9727
-3.35946
2.62679
-196.13
197.593
2.26249
-2.05819
1.50366
-203.25
201.477
10.0643
-1.49887
-0.563395
-203.274
200.977
10.6918
0.75147
771.674
9.28735
22.1934
-201.136
-200.374
-191.765
-189.956
12.0382
8.75625
11.7515
759.087
39.8528
17.8487
751.504
22.5159
10.8407
748.284
16.1662
1.92847
751.312
12.5544
-3.55605
11.546
-1.14366
2048.87
-26.9332
-1092.85
1493.22
-236.018
42.194
1115.98
-90.0261
-288.589
1003.48
-16.0142
-150.299
215.534
-0.766627
-26.0781
221.758
203.428
210.893
-2.68073
232.493
1.29186
1.40074
1.18292
-5.47337
-62.7308
61.1102
7.12992
-1.21894
2.3308
-57.206
4.49368
54.729
-2.2359
-2.11155
-0.454675
-53.5035
7.6468
52.2879
-6.59285
0.616343
0.761449
-52.056
7.02302
51.7536
-6.97575
-0.506277
1.01609
-52.9612
3.66728
52.3065
-2.91179
-1.11688
0.969991
-52.971
0.455902
52.4474
0.141144
-1.04346
0.930986
-53.3776
-1.99793
52.8692
2.5109
-0.935504
-0.0210148
-53.3754
-2.52007
52.847
3.00782
0.0616692
-53.4096
-4.73993
205.971
12.847
5.74318
-53.1416
-52.1351
-51.8471
771.806
55.9009
27.0935
-203.741
-203.889
-194.217
-193.396
755.25
37.528
17.9255
745.916
23.8645
8.1669
745.467
11.7714
1.71733
6.9004
1.80216
1676.66
192.75
-1693.26
1566.44
-144.224
-410.081
1265
71.4072
-267.611
1200.44
-19.2344
-211.311
272.636
99.6775
-66.0406
288.143
260.175
276.281
9.01418
-9.3445
265.137
28.1484
-20.3197
3.3122
-3.29599
-61.013
60.4738
4.55547
-4.03246
2.84146
-2.477
-56.6655
55.8432
3.54345
-3.08561
-0.416138
4.90829
-54.9296
54.8954
-4.96192
0.50393
-2.41653
8.31428
-55.198
55.2854
-8.6317
2.64658
-0.40734
3.78958
-55.56
55.6954
-4.00348
0.485862
0.235842
0.333565
-56.3221
56.5479
-0.581047
-0.214177
0.168718
-2.00639
-57.1559
57.235
1.97253
-0.213962
0.00149655
-2.69827
-57.1446
57.0069
2.85901
-0.0245433
-56.2124
-3.36564
-15.1476
218.852
17.6096
4.14182
-56.231
-54.8157
-54.831
799.167
85.0621
22.9577
-214.264
-215.411
-203.518
-204.044
772.718
62.5055
20.289
759.779
35.9218
9.91789
756.387
14.4446
2.21435
5.95682
0.485277
781.324
563.166
-911.294
523.932
-29.6873
109.373
862.599
-192.858
-482.693
920.756
-63.3321
34.5076
246.132
47.0549
20.6091
259.924
232.654
246.482
18.578
-42.6918
266.911
28.5192
-25.1837
8.74813
-11.9845
-70.1748
72.5079
10.3028
-9.39953
11.2142
-4.70049
-74.9648
75.4335
4.33285
-11.3153
2.71523
5.12933
-74.0436
72.7453
-4.21902
-2.3273
-5.05538
7.34135
-65.2463
62.5902
-5.6802
6.0503
-2.31345
4.09481
-57.7647
57.2188
-3.73731
2.50187
-1.01921
1.49953
-57.4989
57.8357
-1.62983
0.812726
-0.0500262
-2.11601
-58.4084
58.4861
2.26543
-0.177098
1.05034
-3.82128
-58.6048
58.5303
4.07459
-1.22908
-58.049
0.667024
-21.1294
226.345
23.0056
-0.187837
-57.365
-56.9365
-56.3495
820.734
111.244
28.6799
-220.959
-218.926
-209.87
-208.364
791.84
93.453
7.71888
772.471
55.8047
-12.4153
767.117
17.7288
-9.33854
4.6032
-3.70634
1224.4
-598.799
-872.121
1187.89
-113.92
460.758
1278.05
-200.644
459.856
1240.15
-55.3841
347.253
307.073
61.2392
310.833
321.755
294.77
309.944
-39.1182
-14.3769
314.011
11.9173
34.6402
-3.10754
-3.92082
-77.9255
79.7126
2.27074
2.97049
-2.44156
-3.70041
-79.7571
79.3044
4.06353
2.53123
-5.54619
-1.39069
-74.1288
70.991
3.87215
6.20247
-4.37749
-1.31279
-61.4025
58.9018
3.10793
5.08306
-1.9968
1.9141
-53.6265
52.4545
-0.901763
2.15645
0.552174
1.30945
-50.6482
50.4948
-1.03355
-0.674665
0.421397
-2.18646
-51.3183
51.8671
1.76684
-0.550514
0.114479
-3.88293
-53.5437
54.1142
3.51753
-0.31955
-55.5724
0.447771
-23.0821
222.168
19.9227
-1.05872
-54.4683
-54.7534
-53.6033
863.321
102.789
12.5461
-221.055
-215.691
-211.701
-208.128
854.223
104.44
-5.76892
835.7
73.6553
-21.2369
808.904
37.758
-13.8231
16.3343
-11.4238
2360.42
721.04
-184.918
1506.52
517.892
1020.93
1199.14
445.963
732.494
1124.3
206.298
281.147
1065.77
180.29
149.076
257.731
92.8825
121.54
-14.4069
0.707975
-10.0646
7.38974
261.748
247.716
252.066
-7.02043
-38.8802
261.326
25.502
38.4835
-8.32766
-6.06317
-7.28915
-8.69351
-22.7811
-246.033
230.459
44.3068
28.3366
-9.05482
-8.07217
-8.46736
-8.53956
-9.71545
-219.765
212.373
37.9344
13.817
-9.12182
-8.22865
-8.75412
-6.58833
-5.45946
-197.54
189.08
31.3491
7.74414
-6.23521
-6.36564
-5.98421
-1.6678
-0.833518
-184.107
181.424
9.98127
0.228162
-1.66961
-1.65365
-1.7019
-0.300071
1.25888
-173.05
172.703
2.74647
-2.65372
-0.00372246
-0.461354
-0.239342
-0.104939
1.30188
-174.057
179.435
-2.72204
-2.52683
-0.323364
-0.320413
-0.682143
-1.34999
2.46593
-182.46
190.668
-0.0948979
-3.27956
-2.11693
-1.5411
-2.2911
822.008
12.455
-6.23025
-17.3372
-21.1609
-18.4601
-21.104
-197.028
-188.316
-191.257
-182.998
872.352
53.0235
-9.46511
900.394
72.9612
-8.69429
905.454
65.6248
-2.55906
875.768
59.501
8.78323
39.1945
2.39773
613.358
920.641
-2015.1
827.235
653.19
-537.915
983.239
544.708
-327.291
1026.76
243.106
-224.567
988.395
238.681
-87.2101
907.965
190.762
-40.3265
815.705
320.832
20.5164
-43.8131
-69.8604
-45.1123
-70.375
764.817
220.976
40.3466
-48.5566
-42.9492
-45.9642
-39.39
734.248
216.316
10.566
-43.9006
-52.7977
-41.8963
-51.4026
716.784
121.856
-17.4351
-31.8018
-21.645
-29.9409
-19.4372
702.491
80.6094
-28.2233
-15.464
-18.2566
-14.6835
-18.0772
692.479
7.69288
-26.4038
-4.41269
3.49816
-4.29292
3.19022
693.04
-7.25406
-11.2583
1.09816
2.63209
0.436858
1.41843
704.084
-24.8026
-0.62359
2.16384
6.04218
0.928668
4.84929
736.266
-18.5173
-4.51112
784.294
4.23047
-11.4156
815.509
37.4585
-1.91053
826.079
47.8146
15.0567
817.112
60.1636
29.6398
46.1652
18.4511
538.251
1486.91
1547.67
430.843
491.853
342.52
672.002
358.868
-59.7674
682.025
225.389
-111.983
678.701
186.526
-18.6138
691.88
160.343
-70.9251
750.458
249.694
10.108
769.894
200.131
-16.6905
792.014
189.699
-17.7744
803.499
112.78
-47.5166
806.969
74.1526
-47.184
793.755
21.051
-37.1796
774.573
5.52828
-0.0516949
752.438
-7.4428
30.1296
730.679
2.19333
26.7939
723.017
6.4327
8.14142
731.616
26.1668
0.415888
741.161
36.1784
-1.05625
752.135
47.5678
-3.59063
37.0739
-2.33249
1247.15
282.418
717.547
1432.61
223.363
-163.052
1289.77
200.552
599.583
1196.03
265.714
245.072
991.238
319.762
285.041
888.277
264.002
53.2167
827.414
297.661
42.5907
820.823
205.732
-28.7706
823.006
179.784
-23.6001
830.531
100.681
-36.4912
830.264
69.5578
-14.0454
821.68
29.1268
-8.1777
806.268
22.3455
14.8106
789.196
12.232
22.6089
771.896
20.6919
35.6268
759.168
19.5496
25.5684
758.412
23.252
14.1497
765.196
27.0083
7.59426
782.891
29.0388
-2.53802
21.88
-1.95945
572.422
-680.102
-367.609
1018.8
-166.663
-556.354
803.147
40.8942
283.676
875.642
138.143
21.1328
799.613
305.841
229.264
803.94
258.449
76.7823
802.025
287.166
82.2616
818.59
190.658
7.4891
833.184
159.269
20.9293
840.564
92.8314
5.46924
840.186
67.0006
22.5712
832.23
36.4451
25.7789
825.107
28.3379
35.8275
820.246
18.5425
29.0841
819.363
18.3859
28.9798
821.078
15.604
23.5543
826.568
15.5379
21.0328
834.938
17.4725
16.9442
847.711
15.3459
8.47247
11.055
6.5758
-64.5423
500.405
364.222
438.149
31.8281
-987.786
543.115
235.013
-684.064
620.207
120.406
-275.122
662.38
251.804
-53.1934
725.334
192.048
-25.467
778.794
222.925
49.7469
817.354
155.608
23.0769
840.572
131.021
50.7584
854.51
82.7054
32.1765
859.606
59.6822
40.0317
859.755
35.9506
31.739
859.081
26.2948
34.3633
858.928
17.2334
26.8839
861.882
13.6099
24.9089
866.017
10.2502
20.1823
871.948
8.48696
17.4887
880.103
8.64822
16.0575
890.387
5.62942
11.9817
3.90222
10.6294
622.235
978.207
2864.3
42.3556
121.499
-360.342
168.074
59.4778
-249.369
244.604
56.3637
-47.2079
504.502
12.9779
64.7891
634.134
40.4827
19.2918
752.789
62.4958
63.7269
819.733
66.2565
28.2298
865.169
61.8003
46.2128
893.04
47.1418
23.7436
911.342
34.1811
33.0263
923.212
23.9147
25.941
930.786
18.1337
30.4316
935.8
15.4475
24.7763
938.357
14.0227
19.7178
939.572
13.5761
8.81188
939.635
12.7324
1.5881
939.758
12.7224
-4.85554
939.006
11.0621
-11.2771
9.3384
-17.1435
726.586
3026.95
515.929
485.676
867.638
-42.8036
950.903
1.33357
902.28
234.963
932.324
95.2605
957.523
151.534
1019.9
76.8282
1068.91
79.3255
1110.37
34.0938
1133.86
28.1406
1149.86
14.1431
1157.85
15.9012
1164.95
14.7374
1171.61
18.5767
1179.48
18.7241
1186.86
18.1063
1195.47
18.1651
1205.48
12.4062
12.0831
833.135
-319.09
411.259
1165.37
80.0744
949.434
1476.66
-97.815
558.441
1563.68
-72.458
367.151
1582.25
-17.3362
265.327
1603.35
-6.49134
146.926
1568.04
52.6209
99.1077
1534.42
55.6004
38.7151
1466.37
72.8818
58.8131
1414.02
63.3635
52.7761
1371.42
59.0922
88.0957
1354.58
44.2121
73.1314
1346.38
35.2103
60.4466
1338.66
25.8265
32.8374
1320.86
23.4136
-0.481126
1291.3
23.9318
-15.8174
1244.68
36.7413
-5.1296
1199.45
47.7836
15.6595
1165.41
57.3442
47.1116
37.2969
11.4896
312.418
340.539
-1378.63
381.306
294.943
-869.333
608.368
-75.1543
-435.874
722.929
-76.6599
2.12814
861.788
-28.3475
-67.2647
922.403
8.39128
-122.551
982.055
41.1122
-110.084
1001.23
50.0439
-102.964
1010.58
57.3427
-43.0406
1008.68
55.8506
-30.9506
1008.52
54.9886
3.34145
1006.32
47.6903
-8.12702
1001.27
38.8729
-12.8859
993.139
28.5224
-36.1134
982.383
22.7506
-42.7771
971.038
19.3129
-55.3447
960.249
28.1298
-45.0931
950.48
37.0813
-31.0847
945.68
53.0161
-7.89354
40.3103
-2.67424
2238.56
701.989
641.193
1780.14
370.266
-360.995
1142.51
53.3322
140.569
936.241
-43.1543
72.1595
904.627
-36.4329
5.37325
883.444
13.2468
-65.9118
887.259
24.0743
-48.7214
875.416
42.59
-59.8959
869.211
45.8941
-26.9314
856.114
55.2197
-31.4983
846.072
53.8029
-11.3658
834.736
51.4992
-16.8937
827.335
41.5868
-6.68169
820.752
31.3342
-11.8563
815.309
21.5867
-14.9008
811.589
15.5665
-17.7235
813.032
17.3502
-15.0848
820.442
23.914
-5.96721
832.417
39.7938
2.20344
35.8479
8.3553
1211.69
222.26
1730.76
883.188
58.7091
282.331
547.77
-85.99
88.5447
537.573
-82.1349
102.45
638.281
-126.41
45.9526
647.412
-5.54988
21.1029
716.206
-51.2399
17.0588
715.508
39.4802
-7.37815
737.743
22.2733
7.62547
734.166
56.6207
-4.06743
738.89
47.2291
6.729
735.006
54.9232
-0.545133
734.424
41.0607
2.45887
731.172
33.8191
-2.677
731.071
20.9181
-1.32045
732.846
14.2213
-1.22789
738.251
12.0209
-0.638956
745.807
15.5345
-0.24039
756.865
29.2716
2.34821
30.0269
3.61601
1027.38
507.253
-1283.91
991.411
62.2771
-320.554
695.896
127.799
-259.923
656.815
-70.8611
-28.4371
658.409
-127.866
6.36703
653.642
-2.77548
13.7614
708.813
-95.6815
16.0797
715.778
37.7532
9.13514
733.785
4.25156
23.0393
729.867
64.1218
6.25076
730.799
49.2523
14.1427
725.621
61.9331
3.97833
723.505
44.5705
7.89031
720.076
38.4926
2.11283
718.478
23.5049
4.2308
718.008
15.9752
3.94286
720.276
11.71
5.39489
723.781
13.5061
4.24795
730.594
23.1516
2.69176
24.9159
2.3072
-563.838
-161.256
-2177.01
43.4971
-185.008
-44.0235
579.092
105.175
106.206
658.109
-51.2293
140.439
645.812
-96.7487
105.447
611.759
29.4586
22.9575
673.467
-158.862
13.2501
658.515
50.7906
-3.03789
689.117
-32.7784
1.91648
689.648
60.5087
-4.20206
702.702
33.8214
1.7829
704.3
57.867
-2.62852
707.154
39.7756
0.81975
705.119
40.3294
1.55844
703.856
26.4769
7.40383
704.068
19.451
9.38223
705.297
14.4321
9.27352
705.771
15.4626
5.18906
707.73
21.2272
1.61127
21.4391
0.815176
2.52851
-828.668
-3266.45
259.726
3.43386
-714.642
650.591
-219.548
-501.133
660.069
-80.7486
-50.9776
694.309
-141.797
-41.4097
594.885
104.478
-31.1306
579.405
-28.1317
-25.9399
-53.0584
-28.1899
-51.8597
577.989
-9.10865
-11.2658
20.1124
-3.07853
22.7482
606.032
-15.3091
-13.1625
-20.1853
-14.1289
-18.935
636.185
-6.55862
2.85765
13.65
-4.4139
15.6902
662.493
-0.0952777
-0.629819
-0.840022
1.19949
-0.71566
673.153
6.23913
-0.0828667
15.1399
6.48303
15.2303
681.167
7.5247
1.74037
8.13454
7.19984
7.40189
683.633
7.32096
7.17529
12.1314
6.88372
12.2325
683.03
30.0414
10.0343
681.415
25.0015
9.16385
682.645
16.0907
7.22722
683.935
15.312
3.40625
688.396
16.4133
1.06393
15.7183
1.19351
781.868
272.32
628.965
1012.1
206.875
650.346
878.7
-130
75.9944
832.612
-34.4401
38.7096
787.502
-117.586
60.6498
169.567
33.5829
17.1632
179.246
162.065
170.256
58.2973
37.2586
60.9942
-4.16257
148.207
-4.18711
1.57762
8.92557
-125.01
129.15
-15.9916
-6.18312
3.32363
-147.497
146.741
-14.5024
-3.37366
1.67776
-150.02
155.101
-12.4688
-0.848522
3.5432
-167.885
167.811
-1.37162
-2.19381
1.79154
-170.562
171.253
4.65305
-0.895801
1.18703
-176.488
174.536
9.21242
-0.922604
-1.16604
-176.406
174.076
9.42035
1.39639
674.032
7.91607
19.4238
-174.823
-173.166
-166.051
-163.497
10.718
7.21098
10.4699
670.255
34.3946
12.2333
668.934
20.3803
7.87177
668.437
15.7533
1.98409
671.369
11.6625
-1.73721
9.48133
0.441384
713.676
1604.66
-534.266
914.593
270.313
-222.162
815.438
19.0905
-338.525
784.385
-7.4244
-146.262
172.896
-11.7035
-28.3861
181.026
159.505
167.383
-3.3572
188.813
18.6266
2.3968
-0.0417968
-6.05209
-51.0339
49.4468
7.95386
-0.272852
1.63785
-45.455
4.16112
43.5735
-2.41398
-1.50348
-0.540483
-44.5158
6.24016
43.8933
-5.69308
0.615896
0.0987816
-44.8535
5.1188
44.5359
-5.00621
0.106257
0.911544
-46.1263
2.19268
45.687
-2.02365
-0.641314
1.02657
-46.3247
-0.0939087
45.8658
0.432438
-0.906154
0.765135
-46.7848
-1.73835
46.2247
2.2292
-0.695853
-0.168756
-46.5343
-2.25346
45.9545
2.82682
0.175238
-46.3859
-6.3205
178.623
11.8619
6.27579
-46.0695
-45.2237
-44.8454
678.729
45.1906
27.4676
-177.719
-177.046
-168.528
-166.605
672.424
29.9456
14.6647
669.531
19.2666
7.54685
671.13
9.12622
2.65432
5.03541
2.38176
1269.23
564.691
-21.9393
1280.77
-70.7961
-80.5056
1080.04
45.4664
-93.2619
1021.37
-44.7663
-115.295
231.16
46.8299
-30.4559
247.045
216.827
232.217
21.3961
-12.4529
226.352
18.4593
-22.5942
3.28154
-4.37997
-53.7083
53.8966
4.00721
-3.097
3.0864
-0.651564
-51.2053
50.4704
1.10486
-2.80476
-0.882365
4.98891
-49.2764
49.1547
-4.96476
0.979919
-2.96184
6.13778
-49.6122
49.8515
-6.25939
2.84416
-50.412
-0.497814
2.85226
50.5285
-2.97948
0.508559
-50.7448
0.232502