/*--------------------------------*- C++ -*----------------------------------*\
  =========                 |
  \\      /  F ield         | OpenFOAM: The Open Source CFD Toolbox
   \\    /   O peration     | Website:  https://openfoam.org
    \\  /    A nd           | Version:  10
     \\/     M anipulation  |
\*---------------------------------------------------------------------------*/
FoamFile
{
    format      ascii;
    class       surfaceScalarField;
    location    "9.1";
    object      phi_0;
}
// * * * * * * * * * * * * * * * * * * * * * * * * * * * * * * * * * * * * * //

dimensions      [0 3 -1 0 0 0 0];

internalField   nonuniform List<scalar> 
38556
(
3012.38
-938.577
-2992.94
2136.55
-87.0325
962.861
1848.99
-136.337
423.904
1713.63
-72.4512
207.804
1635.57
-64.7256
142.788
1663.58
-131.667
103.66
1692.52
-118.636
89.6966
1750.37
-117.542
59.6929
1772.39
-77.1444
55.1241
1768.16
-49.0906
53.3173
1695.74
-8.43166
80.8501
1619.48
-9.82602
86.0923
1578.57
-37.4368
78.3452
1597.71
-69.9208
50.7792
1673.44
-88.2053
12.4726
1770.64
-83.3037
-13.8918
1817.99
-40.7077
-6.6385
1801.38
4.48653
12.1227
1690.24
62.9623
48.1761
78.4612
14.3063
-91.7563
-256.703
-1590.04
455.83
-313.942
-320.677
886.518
-417.13
-149.894
999.463
-327.481
142.085
1082.88
-260.873
112.726
1147.61
-211.539
15.1463
1189.91
-157.642
-3.29639
1219
-110.865
-35.7694
1229.22
-67.0545
-20.3016
1238.68
-35.9677
-22.5821
1246.07
-16.2131
0.385627
1252.84
-12.127
-4.46567
1249.6
-23.0374
-11.1634
1242.92
-30.644
-32.5961
1237.96
-37.2581
-45.9841
1250.67
-33.3334
-62.6849
1280.61
-11.2575
-59.387
1306.24
29.3219
-50.4684
1315
82.2635
-28.0583
84.6765
-5.01091
105.755
399.66
653.517
655.363
-394.368
-469.182
1115.09
-360.251
-516.605
1206.96
-291.504
-127.853
1204.09
-225.431
-32.5653
1198.51
-151.273
-54.6913
1194.54
-103.592
-50.0787
1198.02
-48.2304
-66.1158
1188.06
-9.65597
-47.44
1176.03
21.561
-45.4938
1153.03
32.2758
-25.49
1124.96
39.8183
-23.8783
1079.24
33.1239
-10.4385
1036.05
25.1445
-12.5952
1006.07
13.772
-21.0549
992.475
6.18755
-25.9235
1001.79
5.1561
-25.7241
1032.45
12.6735
-14.0134
1070.66
46.5954
-2.54087
56.3546
9.52468
-1442.71
-1204.89
643.613
25.3563
-755.711
-1106.72
858.437
-560.256
-633.075
863.016
-322.596
26.5124
892.752
-317.131
61.9636
886.031
-155.684
11.1327
914.089
-151.026
19.376
913.445
-37.2679
-10.3188
925.676
-25.7963
3.90887
925.318
27.5786
-5.65962
922.605
33.0776
1.91181
913.256
49.4641
-0.297695
899.944
45.3921
1.04452
885.713
41.2252
-1.85006
874.986
24.8117
-0.312382
869.41
10.915
0.848822
873.237
1.37291
-0.0445031
887.046
0.855726
-1.99045
915.197
17.0378
1.40614
33.201
4.65176
648.294
-452.362
-2012.9
1076.23
-732.208
-451.438
941.198
-296.926
-128.301
892.515
-248.673
-25.24
846.536
-295.442
24.2914
832.936
-150.856
8.7717
884.37
-221.813
19.3528
910.623
-76.9614
13.4405
937.375
-75.6957
23.1471
945.966
10.4906
8.49764
944.948
21.0508
13.0443
938.534
50.6872
5.19134
927.282
48.4581
8.18594
916.995
47.4434
4.06871
904.068
32.6093
5.12903
892.784
17.0161
5.18315
887.081
0.673034
6.40317
885.118
-2.36664
5.18531
892
7.86567
2.29013
22.5036
2.11873
2026.82
1548.25
-3797.03
1769.63
-292.336
-182.678
1308.24
-45.2625
209.73
1070.22
-154.161
143.501
871.634
-193.255
96.4019
797.998
-72.3162
-4.90394
832.621
-258.121
1.6858
828.825
-66.1468
-7.01821
866.877
-118.705
4.95737
894.24
-11.3714
-5.50085
922.821
-3.49647
-4.03367
937.441
43.388
-7.32148
944.656
44.6721
-3.42882
941.496
50.204
0.399858
928.112
38.1878
7.80497
907.154
24.6163
13.3574
884.121
9.00573
14.7009
868.132
6.15815
7.46445
863.143
13.0142
-0.159837
22.719
-0.782846
108.583
-336.788
-1928.63
212.437
-107.891
-288.298
670.526
-328.066
-175.286
694.592
-110.98
-67.2474
798.444
-236.952
-60.1543
760.056
32.0826
-66.0112
737.231
-23.7588
-49.2892
-66.0881
-27.761
-68.3984
728.411
-15.5343
-36.1793
4.18154
-14.7618
4.96642
753.898
-18.1575
-25.2232
-43.8956
-16.7001
-40.2155
796.386
-19.5425
-7.7288
-9.32418
-13.5029
-3.7611
831.638
-8.01545
-6.21127
-12.9433
-2.62349
-8.95573
854.088
4.46443
-6.56811
7.23148
7.21195
8.59913
864.099
11.9508
-1.59601
6.15227
12.31
5.84387
863.758
13.9509
5.99691
8.70914
13.4098
8.47782
853.6
36.9878
11.3585
836.962
28.6574
12.5967
822.059
13.7863
10.1221
814.637
9.2427
4.33815
818.182
10.3218
-0.852575
16.7589
-0.593914
960.795
-1263.29
-2108.15
862.598
-230.917
221.223
974.081
-316.243
-123.306
951.944
-79.368
-9.47466
911.264
-214.952
18.6799
206.173
27.7704
-17.3069
216.143
201.963
212.339
45.5781
14.1638
36.5241
176.529
3.22549
2.65968
-136.664
143.296
-17.2893
-4.87675
-159.145
171.437
-29.1657
-1.28376
-173.72
188.737
-35.1512
0.591209
-200.677
209.112
-16.9566
0.506117
-210.09
216.264
-1.40583
-0.303539
-217.78
220.741
9.6904
-0.700922
-218.218
220.307
11.3906
0.471656
820.495
13.0261
18.6962
-215.405
-217.853
-204.203
-203.868
6.7593
12.7412
6.59843
787.368
43.7217
18.0623
767.494
23.0107
10.6493
761.697
14.0173
1.02219
766.086
10.0569
-4.12349
11.9138
-2.73226
372.569
304.517
-2843.62
716.927
-168.549
-406.727
970.267
-76.2088
-493.375
1068.23
16.0195
-193.353
209.531
9.46973
-45.6197
205.651
236.618
237.629
225.887
11.3291
0.0857515
-8.77037
-63.033
63.3005
10.4901
-1.9872
-63.8808
1.07612
64.1121
0.543471
-1.85093
-62.1985
7.61193
61.026
-6.24615
-0.193293
-57.2848
9.13445
57.8455
-9.41106
-0.284091
-58.0796
4.15276
58.5573
-4.28917
-0.341212
-56.9665
-0.619755
57.3894
0.381338
-0.184468
-56.7409
-3.35349
57.3558
3.07187
-0.333277
-56.9514
-3.95304
57.6286
3.35486
-0.0789994
-57.1321
225.611
10.3781
3.07933
-57.4053
-55.784
-55.7213
809.643
61.9093
19.8945
-217.357
-217.638
-206.433
-206.297
771.701
44.387
16.5653
751.727
27.0462
6.94486
749.293
12.4173
0.0732463
8.16726
0.0580338
797.655
31.4943
-2739.4
1296.15
-150.786
-516.256
1355.69
238.973
-374.728
1395.25
212.82
-236.36
260.89
254.477
-27.8647
280.386
312.39
324.445
-11.7905
230.157
41.0344
1.489
-3.57289
-51.2387
49.9886
5.3783
-0.555295
-4.31383
-50.6354
51.2608
4.69072
-1.00224
4.45778
-52.813
53.4312
-5.61122
0.535281
10.6726
-55.3294
55.513
-11.7748
0.918676
5.06297
-55.9512
56.3931
-5.52938
0.024489
-0.771446
-58.1082
58.727
0.378839
-0.226166
-3.43286
-60.455
60.9186
3.10803
-0.138806
-2.93891
-62.0347
62.1493
2.81554
0.00870084
-61.0348
-10.6466
235.708
13.2995
1.69847
-60.8357
-59.1088
-59.08
847.669
89.9813
14.3722
-228.314
-226.949
-216.881
-217.969
796.1
76.9209
19.0356
768.431
45.4961
9.2185
761.735
17.8247
1.28889
8.77216
-0.344511
-223.619
17.3157
-3123.31
-58.9805
-280.481
-34.943
867.702
-306.881
-380.829
1055.3
-0.998212
26.2214
261.83
180.57
24.2449
275.117
278.554
289.461
-73.917
272.057
70.9932
-7.30318
-15.1438
-71.6659
74.2281
16.9378
-4.35627
-7.57604
-83.4394
86.4474
9.73046
-5.16242
5.24081
-89.6508
87.0392
-1.0573
-1.57198
10.6228
-73.3429
68.9799
-7.12547
0.865716
4.28986
-59.9631
58.7329
-3.62241
0.562744
1.64944
-58.2558
58.683
-2.90987
0.833288
-2.02164
-58.8568
58.717
2.03295
0.128539
-3.04989
-58.7724
58.9205
3.22965
-0.327887
-58.9878
-17.497
231.525
19.7021
-1.058
-57.9784
-58.3581
-57.3476
849.22
111.279
18.1146
-226.759
-223.37
-220.376
-218.127
803.627
112.632
9.88296
777.999
82.9594
-11.8351
774.149
32.6899
-11.0157
11.9002
-5.15088
1615.41
-972.492
-2011.14
1637.66
-720.287
417.551
1417.05
-663.096
576.832
1380.58
-317.195
352.66
310.895
-22.4625
285.171
316.806
331.075
339.669
-51.7955
310.783
38.2297
13.6772
-12.2205
-78.4006
80.2989
10.4033
-0.0810537
-11.5094
-82.8269
82.897
10.1577
1.28159
-5.82435
-78.4497
75.3326
6.87329
2.06826
-4.24331
-65.692
63.1759
5.28405
1.47541
1.54653
-58.5039
56.7948
-0.369325
0.531891
4.25476
-51.1903
50.5991
-2.93877
-0.724718
-2.1297
-52.972
53.6599
1.60857
-0.166767
-3.3815
-54.7408
54.9856
3.01306
0.12366
-56.4172
-18.5378
227.679
13.4755
-0.336157
-55.516
-55.7125
-54.6344
880.618
97.6152
11.4928
-225.764
-219.857
-218.909
-213.917
864.897
132.174
-3.82148
854.778
115.255
-22.1766
836.589
72.3124
-21.4326
41.3792
-15.3103
4955.26
-192.6
-2692.04
3472.97
5.43507
756.567
1893.03
41.5427
875.294
1307.96
-95.1904
363.072
1146.31
-31.9406
171.129
272.576
-26.1347
125.68
-21.4767
-13.2833
-9.38013
-9.49213
277.008
273.682
277.128
-6.39551
276.64
9.10117
20.0162
-10.7382
-6.0158
-10.0323
-7.93198
-264.633
250.224
43.9337
8.71222
-11.4038
-7.73392
-11.1677
-7.78554
-235.912
229.587
41.2514
3.04284
-11.2917
-7.6952
-11.1963
-6.08351
-216.604
209.679
34.3502
2.01006
-8.94919
-5.80689
-8.59524
-1.864
-201.183
197.47
13.5365
2.09353
-4.45888
-1.54059
-4.05364
1.10572
-185.887
181.02
4.79209
0.761751
-1.42362
1.0967
-1.46602
2.16194
-178.153
181.215
-5.42219
0.154976
-0.757193
1.87254
-1.07139
1.33299
-181.548
189.386
-5.68559
-0.532837
-1.7151
0.911561
-2.14818
834.344
-11.3616
-7.10774
-6.31185
-17.9719
-8.44566
-20.8434
-196.074
-187.666
-192.475
-186.087
902.821
37.7294
-8.5915
955.628
91.212
-11.8455
982.639
94.1281
-5.88468
963.567
91.7913
-0.406625
71.0089
-2.94917
1326.91
509.965
713.083
1191.53
323.027
-182.217
1012.42
292.751
-72.0908
1053.37
16.4596
-152.609
1060.71
23.7055
-62.9835
1003.8
56.8995
-26.1217
904.608
257.885
21.8787
-23.3311
-61.856
-29.1406
-66.2448
844.955
227.765
32.5892
-48.6847
-54.3679
-46.627
-51.0217
804.241
240.714
5.73108
-45.0182
-59.8757
-42.3497
-58.4883
788.876
161.766
-15.876
-32.9165
-34.6196
-30.5276
-32.4611
777.268
118.333
-24.8021
-14.3842
-27.5627
-13.0858
-26.8904
769.793
50.6939
-21.1529
-4.32225
-6.95692
-3.54053
-7.24667
754.689
16.4289
-8.87167
7.97883
-2.73796
6.82803
-4.52208
745.598
-30.0929
-0.0631888
13.8419
10.6941
11.8391
2.87198
766.962
-33.5839
0.858171
821.081
-5.68365
-10.7056
878.909
38.8195
-5.43613
901.968
63.2781
7.79096
888.347
84.4664
20.946
71.8877
16.0526
-6.43879
716.758
3831.6
462.617
-167.35
21.3211
747.102
86.6887
-78.4234
795.469
72.1136
-104.021
791.949
83.4663
-56.2409
809.247
102.886
-63.2844
850.646
212.984
3.50191
874.447
219.95
-15.9849
903.872
232.797
-21.5074
936.666
172.871
-43.8988
967.878
135.063
-47.9416
975.672
77.3958
-34.4958
940.243
50.9024
0.955672
858.359
22.8589
28.9328
780.031
19.2284
25.5151
748.057
20.3501
5.94002
749.591
38.4991
-1.21316
758.766
57.1608
-3.05778
770.411
78.4154
-5.59356
69.0915
-4.39522
1094.34
-627.904
1189.88
1782.66
-622.72
-232.951
1777.14
-189.559
281.765
1648.57
-4.98881
205.671
1308.52
194.45
229.066
1111.24
231.57
68.5992
974.977
315.564
33.6813
952.094
270.17
-27.3374
954.332
260.948
-30.3898
973.894
193.383
-40.0742
984.21
143.359
-18.6113
980.305
90.5231
-9.22209
947.235
67.7948
16.1776
893.5
48.7264
27.8669
828.762
46.4033
37.5638
783.802
39.8166
25.4935
768.517
43.0178
10.7654
769.361
50.7808
5.53667
790.573
60.8336
-3.63004
53.833
-3.46937
-84.5373
-625.527
-2526.33
601.842
-655.947
-653.153
911.849
-398.54
-101.025
1126.64
-225.196
5.42111
1060.91
107.372
152.799
1014.69
188.988
88.8062
951.68
302.747
75.8261
949.796
259.769
12.2859
952.814
241.493
16.4372
963.834
177.484
4.87871
959.706
129.543
17.9432
941.409
87.6231
21.1979
915.141
62.8618
31.2004
891.527
44.5134
27.8268
875.575
38.1981
24.1571
864.2
31.0369
20.155
860.385
28.6545
18.178
863.928
31.7549
15.4834
882.88
34.6378
7.24306
31.4486
5.59164
434.729
1568.55
720.226
473.444
-310.652
-384.01
638.584
-134.367
-429.313
724.112
-100.676
-210.048
819.972
70.5507
-59.0386
889.527
136.691
-17.2579
913.287
233.338
45.6497
936.597
205.953
30.5048
941.714
189.259
47.1173
947.694
135.957
35.5471
941.082
99.7801
36.3748
933.969
65.67
29.0663
923.455
43.8606
29.5152
915.192
29.6382
23.1376
911.257
20.606
21.5274
910.285
14.4732
17.5362
913.059
10.6225
15.2574
920.336
9.94854
14.5297
935.098
8.04845
11.827
7.61074
11.7704
-171.084
1488.61
-2142.91
-21.082
371.625
-832.278
327.332
-164.801
-317.981
455.892
-209.242
-19.993
600.067
-175.026
101.402
722.703
7.97069
6.08392
824.323
103.873
27.845
887.171
134.031
9.07478
926.106
126.803
23.5213
952.504
93.5886
15.9707
967.615
59.5004
25.1691
979.193
29.4716
24.6194
985.08
9.61179
28.3619
987.443
1.86431
25.4113
986.537
1.19728
20.3146
984.601
4.7029
11.706
980.499
10.1163
4.60875
977.309
15.1637
-2.0256
975.169
17.9971
-7.80816
18.9174
-11.3152
1817.95
1563.56
2053.55
136.023
1653.37
235.381
1409.38
34.7502
1060.71
173.637
974.428
94.2575
960.557
117.744
1020.07
74.5229
1080.48
66.3929
1146.18
27.886
1189.09
16.5911
1212.83
5.73356
1216.58
5.86018
1211.22
7.22613
1200.43
11.9802
1192.37
12.7614
1190.36
12.1256
1192.06
13.4717
1199.29
10.7638
11.2206
1631.2
-512.593
-1840.3
1727.59
-251.632
1118.11
1662.87
-201.252
689.872
1641.54
-127.617
356.754
1601.14
-80.4945
263.673
1633.02
-89.9809
161.768
1646.67
-39.2467
115.288
1674.3
-26.9657
59.0317
1656.15
9.84808
63.4218
1624.46
20.8819
64.1274
1562.67
37.2137
105.429
1520.36
27.9045
100.497
1498.2
14.112
86.3946
1500.29
0.0355156
48.6491
1515.22
-6.39419
3.94138
1525.5
-2.20166
-21.9689
1517.45
16.0488
-14.6379
1472.71
37.6135
19.2471
1373.25
76.9565
70.6824
55.5403
26.4984
208.628
-30.6766
-1835.18
583.913
-107.425
-840.169
752.882
-278.985
-241.13
852.101
-195.712
110.96
945.265
-123.656
62.7235
1000.44
-79.4604
-50.5453
1045.17
-23.1366
-64.1401
1070.57
5.83037
-93.9636
1084.56
24.8059
-49.2522
1091.11
31.9555
-40.2101
1092.64
36.52
-0.45025
1091.15
32.1514
-7.21624
1085.49
23.3204
-14.7115
1079.92
14.4229
-41.4114
1073.33
8.9325
-54.7252
1072.24
7.80685
-71.6081
1074.02
19.1482
-64.2591
1072.53
39.6817
-51.0476
1069.14
68.9821
-16.6946
58.963
-3.80936
953.885
-275.526
-1245.39
1385.78
2.47621
-1010.98
1125.44
-114.134
-421.119
1037.1
-128.419
-106.797
1005.68
-92.7252
-32.0757
988.397
-31.3496
-85.5234
983.665
-3.78495
-64.6988
975.161
26.7491
-78.5301
963.194
35.8864
-46.5536
948.848
47.4203
-46.6124
931.594
50.7027
-22.4189
913.583
50.3545
-24.0702
896.336
41.1212
-10.9928
882.909
30.5507
-15.295
872.976
19.3499
-21.5396
868.132
12.5344
-25.8068
872.779
13.4101
-24.6328
887.959
22.053
-11.5654
908.668
45.9394
-0.207286
45.5987
11.6895
712.02
-1446
-811.176
643.602
-386.512
-649.314
600.825
-259.895
-444.537
609.885
-154.388
43.4209
716.164
-191.699
54.6588
716.776
-34.719
13.89
774.161
-66.1469
24.3528
775.105
27.8036
-12.3181
790.369
19.181
5.35048
787.785
52.2505
-7.90578
787.699
48.655
4.04574
781.144
57.7877
-1.17525
775.63
46.155
1.52415
769.369
37.9919
-3.02971
766.901
22.8621
-1.35693
767.415
13.5591
-0.689842
773.237
9.03197
-1.48863
784.486
10.8538
-2.03978
802.135
28.0973
1.599
34.5931
4.61956
645.057
-619.986
-2151.4
676.64
-356.574
-512.958
707.615
-33.3808
-385.79
699.739
-111.89
-59.8616
711.59
-189.632
10.3731
702.439
-24.9049
8.10876
761.046
-131.561
26.1593
774.493
15.2365
12.5609
791.534
0.231521
25.0562
791.165
54.9586
6.1578
788.159
50.0116
14.6944
781.508
64.4709
5.15851
775.065
51.1865
9.59751
768.995
44.2963
3.83398
763.737
27.1038
6.14564
760.517
15.955
6.00766
760.449
8.1437
7.35915
762.883
8.48535
5.12029
771.507
19.3643
2.39867
26.9883
2.10558
2370.61
1433.62
-5598.25
1445.73
-42.8897
428.521
964.976
66.4294
590.672
834.626
-46.5807
208.542
713.778
-94.9601
122.578
657.145
17.5413
9.28241
707.713
-187.593
7.15006
698.505
24.0783
-6.65178
732.32
-36.6269
8.00076
742.119
47.5375
-7.8789
756.219
34.3805
-2.50145
761.617
57.7536
-6.00303
764.068
46.0056
-0.698697
762.004
44.9232
1.83696
757.427
29.5129
9.97313
752.801
19.8274
14.1107
748.586
12.6999
14.3595
744.668
11.6912
8.177
744.567
18.9922
0.313093
23.761
-0.275621
232.326
-29.5694
-2781.8
310.234
-39.096
-369.999
694.21
-250.774
-242.059
685.249
-47.6791
-57.1884
714.149
-145.593
-38.4211
635.33
92.0631
-61.7143
605.088
-19.7027
-45.6109
-61.3326
-20.3023
-59.6915
600.758
-5.07093
-28.8536
12.9381
-0.995299
14.2113
634.139
-9.33349
-17.5683
-31.5179
-7.72564
-29.0865
669.789
-4.62143
-0.992098
4.25071
-1.20721
6.72886
697.429
3.65647
-2.647
-3.48905
5.49017
-2.48112
712.924
9.9634
-4.67311
9.82668
10.6571
9.91621
721.052
12.4828
0.809116
5.59427
12.2862
5.10934
723.718
12.5587
8.76384
7.47061
12.1006
7.36063
720.557
30.5611
13.4706
715.551
23.819
13.6113
712.626
14.4828
11.2643
711.361
12.1944
5.0998
715.756
14.2089
-0.464566
17.1117
-0.0483381
1701.3
-442.102
1930.54
1147.23
-210.4
946.601
965.098
-211.258
19.3064
882.773
17.4768
7.69515
806.505
-81.5882
30.9437
178.889
32.3463
-1.68278
188.19
171.669
179.753
46.6799
35.9727
49.4443
-3.11006
155.871
5.38812
1.03674
7.60571
-123.359
131.296
-14.415
-6.19904
2.80622
-143.012
151.187
-18.6349
-1.68012
0.372234
-150.899
163.961
-19.6429
1.58759
1.15312
-172.018
177.831
-2.75199
-0.557578
1.71068
-177.324
182.395
4.81107
-1.62982
1.3883
-183.244
186.15
9.63023
-1.44139
-0.593608
-183.842
186.413
9.77512
0.806335
703.952
12.1914
23.3162
-182.802
-183.757
-173.546
-173.352
5.9015
11.6844
5.66968
692.919
34.4818
18.4325
686.695
19.4456
11.9104
684.246
13.771
1.89454
687.445
10.5017
-3.61556
10.3657
-1.62768
2013.45
412.698
-563.788
1376.06
-20.1429
40.409
1001.66
23.7356
-353.971
910.247
78.2797
-162.738
193.754
63.9921
-40.3848
196.982
181.854
186.842
-4.02845
213.975
16.4161
-0.262487
1.38231
-7.90034
-57.012
56.6671
8.35732
-1.49436
2.55961
-51.9953
1.21398
50.7708
-0.21558
-2.33361
-0.191737
-48.3631
6.50363
48.2551
-6.67722
0.473355
0.68069
-47.1196
6.182
47.9791
-7.32421
-0.397993
1.04514
-48.4683
1.45313
49.126
-2.28334
-0.872597
0.922319
-48.4114
-1.61107
48.9968
1.04161
-0.938278
0.776471
-48.7247
-2.91346
49.26
2.40388
-0.802238
0.0486898
-48.8281
-3.28724
49.3817
2.69833
-0.0134193
-48.7033
-4.58283
192.56
11.3514
5.67318
-48.9805
-47.4415
-47.6846
706.897
49.0322
27.7415
-186.482
-188.108
-177.073
-177.631
691.475
32.9417
18.4905
682.694
20.6004
8.89643
682.575
9.82921
0.865104
5.60242
1.18662
1599.88
68.3846
-1950.08
1468.27
-34.3314
-370.456
1168.16
188.507
-239.395
1096.67
97.1072
-183.693
249.578
162.348
-35.108
264.379
238.039
253.559
0.881466
-17.9386
243.348
33.683
-10.3966
1.50014
-4.30994
-56.047
55.3566
5.55168
-2.05149
2.21112
-3.83611
-52.1427
51.5801
4.50362
-2.31611
-0.635429
5.16244
-50.5539
50.5376
-5.18683
0.676159
-2.37635
9.00531
-50.9762
51.0678
-9.32462
2.60411
-0.319009
3.7886
-51.3946
51.6125
-4.10623
0.418739
0.343737
-0.539942
-52.4078
52.6285
0.313902
-0.338368
0.487802
-2.08337
-53.1605
53.2371
2.06584
-0.54693
0.136262
-2.43019
-53.208
53.0888
2.57736
-0.164277
-52.1979
-3.41216
-13.3274
203.415
15.7807
4.17257
-52.4936
-50.8162
-51.1211
736.078
78.9332
23.5383
-198.202
-200.371
-187.513
-189.06
710.047
57.2253
20.7829
697.542
31.7549
10.5687
694.577
11.9853
2.09838
4.55844
0.0170845
448.138
592.704
-194.686
243.616
-107.022
242.269
698.989
-189.358
-458.337
807.85
-30.4361
44.9038
226.562
84.493
8.77955
237.434
213.414
223.76
13.7832
-45.5763
246.886
31.227
-19.7588
7.32787
-11.8497
-65.1547
67.5162
10.0618
-7.90148
10.2311
-5.22068
-70.4355
71.0553
4.99523
-10.6254
3.11069
5.22644
-70.6194
68.9083
-3.93393
-2.6921
-4.41614
7.89566
-61.1277
58.502
-6.12146
5.2676
-2.0288
4.2517
-53.4799
52.9816
-3.93186
2.20725
-1.12455
0.589729
-53.6725
54.0741
-0.674473
0.807657
0.20117
-2.22095
-54.6812
54.792
2.37386
-0.464894
1.09264
-3.49561
-54.9238
54.8388
3.76352
-1.27557
-54.2173
0.747212
-19.4958
211.268
21.5496
-0.22318
-53.7625
-53.1204
-52.7453
758.798
105.8
29.7013
-205.409
-204.038
-194.346
-193.459
730.158
87.6131
8.13502
711.312
50.4987
-11.7326
706.411
14.0222
-8.15141
3.23701
-4.13903
1208.81
-508.252
-1629.39
1127.3
-35.4678
427.513
1189.02
-135.726
461.472
1160.14
-10.9218
362.034
289.327
93.8125
283.296
299.399
276.735
287.23
-31.9422
-19.5841
295.233
18.446
27.1743
-2.58565
-4.63156
-73.1739
74.5065
3.87199
2.01254
-2.21265
-4.26872
-74.9978
74.645
4.43563
2.39855
-6.45779
-1.75418
-69.882
66.9555
4.00303
7.13546
-4.86199
-1.34371
-58.0717
55.6326
3.14269
5.50213
-1.57166
1.59268
-50.3551
49.1457
-0.497724
1.68612
1.04068
0.465912
-47.2097
47.094
-0.308959
-1.08199
0.473248
-2.40272
-48.0692
48.5298
2.15894
-0.69007
0.278841
-3.67203
-50.0594
50.5751
3.37114
-0.493663
-51.8992
0.77047
-21.7059
207.882
18.2764
-1.24771
-50.9158
-51.0967
-50.0639
802.622
95.5238
14.0094
-205.486
-200.374
-196.158
-192.844
793.983
97.8376
-5.40693
775.548
67.9794
-21.2231
749.762
33.7449
-15.369
14.1711
-10.7012
2028.61
753.017
-664.855
1348.84
473.232
927.636
1117.44
401.61
569.358
1047.65
220.237
201.705
1007.98
188.264
116.345
242.961
108.498
100.44
-13.0917
-8.72907
-7.2219
-3.14881
245.539
232.608
235.806
-5.20944
-30.36
246.734
22.7126
31.3732
-9.41878
-4.40249
-8.4683
-6.52403
-20.3727
-231.14
217.084
40.3605
25.982
-9.91402
-6.04051
-9.43498
-6.59694
-8.78471
-205.513
199.109
34.5762
12.9848
-9.86876
-6.34916
-9.55742
-4.78067
-5.34641
-183.822
176.626
28.4932
7.9581
-7.37359
-4.6045
-7.1502
-0.987118
-2.28709
-171.222
169.829
10.7395
1.9289
-3.51659
-0.962836
-3.52145
0.527698
0.183835
-161.999
161.82
4.48914
-0.998609
-2.10267
0.386126
-2.30643
0.77246
0.379413
-162.013
167.885
-2.11489
-0.926835
-2.17693
0.583304
-2.38853
-0.373371
0.856657
-169.927
178.19
0.153188
-1.68517
-3.27186
-0.557453
-3.3847
763.491
14.3352
-6.53086
-11.7654
-24.3307
-12.9016
-24.293
-183.174
-175.067
-177.307
-169.565
813.292
45.5016
-8.36973
841.719
65.7942
-8.22931
847.212
60.2526
-3.65124
818.003
55.8201
6.72675
37.5971
0.818119
521.308
1041.72
-2602.35
796.366
654.46
-638.503
927.651
533.007
-334.772
964.723
250.74
-220.184
932.735
232.935
-75.6665
860.307
188.9
-34.0964
765.419
309.986
23.0708
-36.703
-70.4536
-38.0385
-71.0947
715.187
211.811
40.1017
-41.4381
-45.827
-38.825
-43.0015
682.357
206.508
10.8718
-36.8573
-54.152
-34.8924
-52.9168
667.038
114.499
-15.6619
-24.7011
-26.8877
-22.8838
-24.9217
654.231
74.6677
-21.869
-9.4112
-23.4367
-8.72416
-23.2213
645.324
17.4868
-18.589
-0.637549
-4.86051
-0.550356
-5.09564
642.99
-1.55202
-6.43489
6.79034
-5.05863
5.96698
-6.24916
653.87
-29.4817
3.57229
8.78579
-0.0858379
7.53158
-1.26533
685.683
-18.5801
1.96068
726.939
4.77311
-11.2334
758.574
29.9019
-1.17893
769.489
42.3188
14.8103
760.772
56.4957
28.9874
44.3485
19.032
325.508
1623.38
919.059
248.969
460.819
291.501
584.364
304.616
-185.427
623.248
196.185
-88.3492
629.1
171.735
-0.893011
650.609
150.214
-46.1079
704.289
239.037
20.771
722.631
190.748
-13.2647
743.185
180.392
-15.9451
754.048
104.234
-44.4968
755.991
66.9783
-42.1945
744.539
24.7502
-30.3082
727.64
11.7878
4.51501
701.861
-5.35492
30.5853
678.704
3.90039
26.192
671.137
8.15875
10.1211
677.614
20.6028
1.60887
686.539
31.2632
-0.927172
697.25
44.2417
-4.05049
35.3897
-2.68196
1012.94
-384.798
289.496
1398.12
54.2493
-211.555
1276.07
126.633
581.793
1159.29
235.615
283.022
949.292
300.676
310.122
845.659
251.083
71.3627
781.08
287.181
50.1162
772.687
195.577
-23.7726
773.696
170.553
-21.5594
779.996
92.159
-34.2988
778.727
62.3864
-12.7507
770.891
30.3162
-6.95243
756.817
23.6384
18.4009
738.839
14.8711
25.6196
721.897
19.077
39.3292
709.787
17.134
28.6287
707.027
19.0235
15.1042
712.618
22.7686
8.43993
729.843
26.06
-2.67295
20.3582
-2.15199
645.842
-574.358
-771.456
1044.43
-231.719
-765.768
823.645
-31.7165
278.104
861.715
118.611
84.3548
774.986
290.251
249.953
769.293
245.928
99.6543
760.563
277.63
94.1074
773.044
181.915
13.4661
784.758
151.6
23.6751
790.614
86.4804
4.70174
789.043
62.0688
19.8318
782.308
34.1143
24.1339
775.887
26.7054
34.5549
771.58
18.1373
28.8674
770.671
16.7859
27.3576
772.31
13.7101
21.9396
776.802
12.9774
19.7328
784.146
14.4347
16.4731
796.373
12.9247
8.15142
9.83979
6.43464
-306.307
353.267
-116.839
426.371
-47.695
-1300.71
546.241
191.992
-772.892
603.416
106.288
-254.9
637.436
242.152
-44.9587
690.13
181.582
-5.60618
737.84
213.985
61.5843
772.196
147.996
30.0678
792.548
125.016
53.3502
805.154
78.1763
31.2453
809.483
56.428
37.6865
810.318
33.8747
28.4709
810.01
24.7745
31.7539
810.493
16.2123
24.5797
813.355
12.4228
23.0289
817.39
9.03471
18.1762
822.718
7.17778
15.7292
830.298
6.95853
14.4253
840.234
4.48567
10.3298
3.29681
10.4489
384.756
771.218
2810.48
-34.0694
-24.8702
-436.278
82.6125
60.5692
-303.239
221.258
27.7268
-80.0766
483.533
1.27001
80.0083
604.407
28.1138
38.6787
715.937
55.2824
75.0169
777.39
61.3168
34.3014
819.42
58.4271
48.0796
845.429
44.7125
23.4258
862.694
32.5435
31.7884
874.525
22.84
23.8244
882.151
17.1708
28.3393
887.332
14.3159
22.126
889.779
12.8399
17.4509
891.056
12.649
6.81434
890.926
12.012
-0.0952344
890.671
12.2104
-7.02275
889.639
10.7763
-13.0667
8.75969
-16.9798
848.412
2600.42
511.738
447.828
907.323
-99.6354
961.749
8.05225
895.994
240.662
908.69
109.675
923.813
157.903
979.873
79.7802
1025.02
79.6772
1064.12
33.4908
1086.18
27.0807
1101.63
13.1165
1109.44
15.2254
1116.74
14.245
1123.57
17.9874
1131.31
17.6653
1138.46
16.9947
1146.95
17.1926
1157.08
11.4068
11.6472
672.389
-390.653
-1087.97
1089.64
99.4223
601.427
1441.08
-120.892
459.331
1531.79
-76.5059
342.543
1543.55
-4.46654
256.385
1557.99
6.81244
140.517
1516.64
59.0123
97.6248
1477.81
60.8369
37.0242
1404.93
76.8771
59.4218
1349.85
65.9057
53.3074
1306.19
60.663
88.4277
1289
45.0367
72.6414
1280.06
35.5947
59.7442
1271.48
25.7691
31.4645
1253.22
23.4763
-1.2829
1223.21
24.0723
-16.0312
1176.53
36.819
-4.77859
1131.94
47.7538
16.0852
1098.76
57.0176
46.8465
37.1219
11.4277
272.583
163.388
-3281.73
397.572
304.918
-1170.65
598.984
-72.4188
-491.016
700.732
-64.2275
-3.0654
827.203
4.91931
-73.1336
879.643
28.7939
-124.966
931.759
53.9383
-111.183
944.707
58.6275
-104.702
950.315
64.5626
-42.546
945.852
60.9016
-30.7425
944.097
58.2505
3.71723
940.795
49.5485
-8.42603
934.966
39.8674
-13.1559
926.591
28.9705
-36.2373
915.546
22.8594
-43.0638
904.026
19.4982
-55.5138
893.235
28.1955
-44.8445
883.801
36.9773
-30.8365
879.62
52.6395
-8.13597
39.9674
-3.1316
2298.17
888.236
158.464
1834.05
427.906
-669.85
1148.93
92.3184
99.2692
914.659
9.15876
54.0857
869.932
11.2473
6.32364
839.074
42.2524
-68.1244
834.275
45.0368
-50.9984
818.028
56.5033
-60.1587
807.61
56.3454
-27.9182
792.019
62.2674
-32.3866
780.615
58.563
-11.3283
768.468
54.3806
-16.7549
760.727
43.0711
-6.4554
754.197
31.8593
-11.654
748.682
21.6261
-14.7905
744.702
15.4945
-17.8238
746.151
17.1383
-15.024
753.909
23.5208
-5.86726
766.402
39.2615
0.677443
35.5382
8.83636
1247.45
194.808
317.112
920.569
97.0408
8.43016
538.537
-10.6453
40.4586
506.841
0.579807
83.6958
597.792
-86.3176
61.2728
597.509
36.6157
19.8101
658.52
-11.1717
19.5506
655.081
56.5695
-8.94542
673.116
37.8684
5.79257
668.286
64.6623
-5.47084
671.815
52.8259
6.25331
667.587
58.1372
-0.703692
666.932
42.5409
2.70975
663.978
34.0565
-2.27299
664.215
20.7681
-0.736079
666.059
14.1077
-1.14745
671.259
11.4495
-0.999759
679.148
14.4663
-0.874398
690.887
28.3274
0.794478
29.5322
3.37736
934.942
525.213
-2761.27
933.888
176.034
-590.898
655.754
184.466
-302.767
610.54
25.575
-39.6431
606.24
-81.5789
9.93407
594.071
45.5663
11.3275
650.632
-70.0564
28.4825
653.193
60.3521
6.21763
666.65
27.3642
22.1039
662.357
71.0547
4.05832
661.834
55.0373
13.0061
656.991
64.5865
3.55163
655.006
45.7721
8.35198
652.25
38.0753
2.57109
651.191
23.0062
4.96569
651.322
15.729
4.25601
653.473
11.3475
5.30958
657.422
11.7828
3.85543
664.966
21.7411
1.4412
24.1915
1.65641
-645.121
347.434
-2333.58
48.7619
63.8717
-153.199
541.679
197.716
84.5038
611.701
44.8578
119.238
582.502
-13.4913
83.6889
544.932
76.117
16.302
609.309
-139.43
12.1469
592.304
73.6244
-2.91924
619.95
-1.01431
8.73259
621.199
66.776
-4.84863
631.809
41.0504
0.875765
634.301
59.3293
-3.23847
637.279
40.6812
1.41444
636.267
38.933
1.99131
635.959
25.2432
8.04393
637.277
18.4764
10.0453
639.114
13.7052
10.1642
640.051
13.5922
5.43113
642.539
19.4663
0.100206
20.5066
0.212689
55.9458
-592.334
-1380.88
285.808
170.003
-705.993
596.632
-43.4092
-311.757
583.006
49.7351
-48.44
612.27
-68.9659
-12.2098
522.56
134.686
-30.5742
505.994
-14.859
-30.5529
-54.5305
-15.2112
-53.321
502.352
7.37823
-11.604
19.6098
11.1825
21.8462
539.262
-3.05531
-5.5358
-23.6255
-1.44987
-21.8261
567.545
3.80053
3.68204
11.3591
6.11175
12.5476
590.555
7.7188
1.04436
-1.11213
8.68624
-0.94388
602.506
11.4405
-0.87527
10.2247
11.6271
10.2877
610.276
11.7992
2.31079
4.28225
11.5196
3.80882
614.108
11.4804
7.7152
6.73993
11.1199
6.80955
615.057
27.4484
10.3155
615.248
22.2828
9.61377
617.284
14.7257
8.20839
619.011
13.2598
3.70473
623.868
14.38
-0.235137
14.5904
0.668016
768.401
617.696
1326.26
903.556
350.138
631.313
783.383
16.0471
80.0221
743.524
79.6923
17.5968
692.607
-35.6043
48.4993
151.058
44.0004
17.3931
158.392
143.398
149.35
56.3385
46.8211
58.8596
-1.73594
131.195
7.19616
-0.456517
5.65123
-102.309
112.724
-6.55538
-2.13223
2.22062
-124.08
130.837
-10.8716
-1.16212
-2.07935
-130.054
141.521
-9.83636
4.24899
0.696752
-148.116
152.757
2.64507
-0.264169
1.53739
-151.625
156.071
6.31033
-0.853016
1.24194
-156.626
159.26
8.98641
-1.06318
-1.17233
-157.038
159.556
8.72552
1.40921
606.672
10.9406
20.7312
-156.594
-156.573
-147.909
-146.907
5.10641
10.3626
4.93308
604.738
29.7124
12.9372
604.683
17.8404
8.85113
604.474
13.4749
1.88753
607.601
9.86017
-2.22232
8.34586
0.0706423
685.824
1835.01
283.333
808.773
447.768
-180.17
718.805
137.846
-385.802
692.569
94.2979
-151.108
152.227
59.3579
-38.2745
158.849
138.842
145.58
-1.28347
170.132
26.7446
0.633699
0.268409
-8.22419
-45.5111
44.9865
9.03016
-0.549735
1.86003
-40.4658
0.899625
39.7515
-0.406845
-1.63852
-0.582682
-39.5559
4.6598
40.0893
-5.37528
0.764799
-0.0670516
-39.9969
3.65095
40.8956
-4.90149
0.418875
0.565327
-41.6663
-0.0458048
42.4283
-0.952622
-0.328897
0.884083
-41.9013
-1.87263
42.4428
1.24891
-0.80183
0.734784
-42.1635
-2.70789
42.6372
2.19469
-0.695325
-0.0788995
-42.0251
-3.04882
42.5062
2.55291
0.0936979
-41.728
-6.32687
165.251
10.4805
6.47981
-41.9304
-40.5673
-40.718
614.18
38.881
28.6601
-160.594
-161.331
-151.453
-150.889
608.995
25.9739
15.5412
606.615
16.5802
8.17196
608.146
7.82544
1.36852
3.90216
2.03003
1235.07
738.111
-485.047
1184.52
51.5579
76.3066
984.402
176.463
-77.8923
921.744
64.4176
-91.1556
209.409
120.834
-14.8389
224.468
195.799
210.323
10.6109
-20.7183
205.892
27.0271
-13.4029
1.45975
-5.02214
-48.7562
48.8635
5.01367
-1.55851
2.19762
-2.50796
-46.7246
46.1501
2.8974
-2.0126
-0.972717
4.95099
-44.9827
44.876
-4.94044
1.06888
-2.88223
6.49135
-45.4349
45.6913
-6.64432
2.77883
-46.356
-0.594843
2.21293
46.5056
-2.41378
0.64604
-46.7579
0.404693