/*--------------------------------*- C++ -*----------------------------------*\
  =========                 |
  \\      /  F ield         | OpenFOAM: The Open Source CFD Toolbox
   \\    /   O peration     | Website:  https://openfoam.org
    \\  /    A nd           | Version:  10
     \\/     M anipulation  |
\*---------------------------------------------------------------------------*/
FoamFile
{
    format      ascii;
    class       volScalarField;
    location    "9.1";
    object      turbidity;
}
// * * * * * * * * * * * * * * * * * * * * * * * * * * * * * * * * * * * * * //

dimensions      [0 0 0 0 0 0 0];

internalField   nonuniform List<scalar> 
12920
(
-0.0501217
-0.0691314
-0.0805398
-0.0901564
-0.102212
-0.115659
-0.127958
-0.139415
-0.15044
-0.162951
-0.178608
-0.198553
-0.220229
-0.240062
-0.255831
-0.267352
-0.277585
-0.287095
-0.296665
-0.304961
-0.0429497
-0.0735389
-0.0880731
-0.102543
-0.115486
-0.126465
-0.140559
-0.154226
-0.173087
-0.191948
-0.211559
-0.228848
-0.244578
-0.258242
-0.272343
-0.285992
-0.301365
-0.319248
-0.338852
-0.358333
-0.0419987
-0.0505909
-0.069157
-0.0939485
-0.113116
-0.12363
-0.13574
-0.147057
-0.162853
-0.179746
-0.20174
-0.228172
-0.262406
-0.300266
-0.337547
-0.372469
-0.402314
-0.424707
-0.441376
-0.458167
-0.0489985
-0.0516179
-0.0717623
-0.109281
-0.139357
-0.162611
-0.183731
-0.200274
-0.220725
-0.242149
-0.269553
-0.302354
-0.341938
-0.384799
-0.428268
-0.468002
-0.500376
-0.524598
-0.541779
-0.557257
-0.0220912
-0.0436828
-0.0655904
-0.101634
-0.137336
-0.169928
-0.194077
-0.214347
-0.232592
-0.252178
-0.274874
-0.302229
-0.334055
-0.369453
-0.406675
-0.444527
-0.481782
-0.516952
-0.54821
-0.574105
-0.0111783
-0.0321783
-0.0546061
-0.0855637
-0.11952
-0.154834
-0.180715
-0.203964
-0.222631
-0.240057
-0.25957
-0.282558
-0.310327
-0.342579
-0.378636
-0.418924
-0.462367
-0.505516
-0.543759
-0.576306
-0.033588
-0.0459771
-0.0678678
-0.089893
-0.112596
-0.135445
-0.156406
-0.17846
-0.193344
-0.218575
-0.246736
-0.282159
-0.318474
-0.354787
-0.391934
-0.429968
-0.468411
-0.506666
-0.541798
-0.573655
-0.0343964
-0.040862
-0.0591653
-0.0859818
-0.113318
-0.145259
-0.149379
-0.139935
-0.128489
-0.122286
-0.125331
-0.141283
-0.170272
-0.200193
-0.220878
-0.260982
-0.301503
-0.343947
-0.38846
-0.437183
-0.0210943
-0.0379433
-0.0471736
-0.0629872
-0.0900042
-0.0980805
-0.110832
-0.117334
-0.118907
-0.113256
-0.103733
-0.0987004
-0.106836
-0.119701
-0.130385
-0.160367
-0.197958
-0.239976
-0.285037
-0.332992
-0.0121848
-0.0304168
-0.0410866
-0.0582493
-0.0882053
-0.0988243
-0.109223
-0.113988
-0.111259
-0.112375
-0.114493
-0.107795
-0.10119
-0.0973869
-0.0994908
-0.126932
-0.165147
-0.207835
-0.250669
-0.292851
-0.0433539
-0.0664751
-0.0699412
-0.0823455
-0.0949246
-0.0935882
-0.0908546
-0.0842662
-0.0817932
-0.0942308
-0.118358
-0.123472
-0.108676
-0.092966
-0.0863024
-0.108261
-0.14797
-0.189471
-0.232295
-0.274915
-0.0575544
-0.070582
-0.0832629
-0.100305
-0.114856
-0.111578
-0.104341
-0.0950337
-0.0969118
-0.11767
-0.143289
-0.151771
-0.135008
-0.107009
-0.0895916
-0.10562
-0.134694
-0.16678
-0.203445
-0.248076
-0.0159322
-0.0333429
-0.0554713
-0.0846939
-0.114826
-0.141136
-0.142434
-0.143008
-0.148293
-0.160963
-0.1823
-0.20738
-0.229068
-0.226218
-0.217507
-0.19864
-0.194271
-0.205128
-0.22929
-0.268568
-0.0116977
-0.028202
-0.0478469
-0.0715558
-0.103968
-0.140609
-0.171684
-0.197295
-0.216981
-0.242191
-0.27628
-0.318852
-0.363606
-0.396296
-0.403024
-0.381358
-0.359537
-0.352922
-0.363325
-0.396778
-0.0321154
-0.0378658
-0.0499343
-0.0683759
-0.0972693
-0.127988
-0.161925
-0.181553
-0.195639
-0.206163
-0.223292
-0.250968
-0.294212
-0.348154
-0.403254
-0.441616
-0.453624
-0.455228
-0.458321
-0.473123
-0.0238342
-0.0390907
-0.0534701
-0.0715873
-0.093534
-0.118211
-0.143426
-0.161384
-0.179476
-0.199938
-0.229207
-0.266738
-0.312128
-0.365195
-0.421082
-0.469073
-0.49949
-0.512925
-0.512491
-0.512945
-0.0227828
-0.0456421
-0.0617473
-0.0793525
-0.099358
-0.124616
-0.149582
-0.173311
-0.197712
-0.227224
-0.262892
-0.305308
-0.352027
-0.400871
-0.447539
-0.488181
-0.520037
-0.542474
-0.556941
-0.56772
-0.0143803
-0.0526217
-0.0614339
-0.082163
-0.107448
-0.133873
-0.159451
-0.186873
-0.216833
-0.251444
-0.289635
-0.330867
-0.373598
-0.416641
-0.458109
-0.496241
-0.529718
-0.557913
-0.581264
-0.601189
-0.0212146
-0.0524215
-0.071682
-0.101773
-0.129285
-0.152978
-0.177967
-0.206306
-0.236825
-0.268916
-0.300889
-0.331963
-0.361769
-0.390013
-0.415729
-0.437277
-0.453481
-0.464387
-0.470736
-0.47584
-0.0219506
-0.0369146
-0.0500956
-0.0736574
-0.108052
-0.147562
-0.179247
-0.203843
-0.223247
-0.239308
-0.254232
-0.271551
-0.29402
-0.322141
-0.353609
-0.385556
-0.415357
-0.441547
-0.463959
-0.483087
-0.00326569
-0.022487
-0.0243377
-0.0225957
-0.024637
-0.0285874
-0.0341052
-0.0392668
-0.046913
-0.0569163
-0.0689107
-0.0775907
-0.0805954
-0.0775699
-0.0724202
-0.0720159
-0.0779697
-0.0880416
-0.093732
-0.0817684
-0.00727944
-0.0221177
-0.0234482
-0.0266985
-0.0261735
-0.0211606
-0.023116
-0.0277897
-0.0341626
-0.0391374
-0.043526
-0.0460136
-0.0495806
-0.0549764
-0.0622218
-0.0701953
-0.0786017
-0.0863962
-0.093244
-0.0992481
-0.0197591
-0.0154897
-0.0131079
-0.0142503
-0.0155847
-0.0144017
-0.0147993
-0.0163604
-0.0194639
-0.0236748
-0.0298239
-0.0378545
-0.0480872
-0.0596392
-0.0719524
-0.0844707
-0.0962897
-0.107089
-0.116441
-0.124608
-0.0491947
-0.0295161
-0.0150494
-0.0249279
-0.034371
-0.0288619
-0.0301433
-0.0281821
-0.0304287
-0.0330037
-0.0383868
-0.0435198
-0.0494766
-0.0555482
-0.0625504
-0.0701242
-0.0775832
-0.0844768
-0.0899036
-0.0928097
-0.00397634
-0.00693874
-0.00855471
-0.013748
-0.0178597
-0.0200964
-0.0277968
-0.0320368
-0.0403645
-0.0467133
-0.0559264
-0.0626358
-0.0695674
-0.0734691
-0.0777794
-0.080922
-0.080528
-0.0761647
-0.0697158
-0.0641806
-0.00104319
-0.0069263
-0.0193216
-0.0187653
-0.0170112
-0.0162631
-0.0207679
-0.0233555
-0.0272729
-0.0321129
-0.0396092
-0.0495828
-0.0624203
-0.0773617
-0.0931289
-0.101753
-0.0970892
-0.0812833
-0.0635013
-0.0515612
-0.00155738
-0.00922287
-0.0149319
-0.0108289
-0.00957111
-0.0106344
-0.0143209
-0.0186337
-0.0243478
-0.0318972
-0.0419931
-0.0549788
-0.0708149
-0.0868952
-0.0960331
-0.0924227
-0.0779168
-0.0595606
-0.0444801
-0.035984
-0.00370069
-0.00680065
-0.00870575
-0.00909713
-0.010079
-0.0120504
-0.0176944
-0.0210612
-0.0241374
-0.0278207
-0.0348535
-0.0472884
-0.0649227
-0.0868612
-0.0852971
-0.0750033
-0.0564469
-0.0390885
-0.0281046
-0.0232706
-0.000399832
-0.00291051
-0.00448309
-0.00656418
-0.0088336
-0.0106398
-0.0120879
-0.0164794
-0.0366433
-0.0383681
-0.0335335
-0.0377088
-0.0531271
-0.0765062
-0.0930881
-0.063517
-0.0486368
-0.0339384
-0.0242647
-0.021098
-0.000523788
-0.00515353
-0.00883091
-0.0125585
-0.0141469
-0.0142458
-0.0143898
-0.0196849
-0.0408301
-0.0630233
-0.0486177
-0.0365504
-0.045205
-0.0603567
-0.0634727
-0.0513094
-0.0468562
-0.0387773
-0.0318155
-0.0288671
-0.00671829
-0.0258919
-0.0205565
-0.0214159
-0.0194331
-0.017214
-0.0152069
-0.0149998
-0.0211835
-0.0575351
-0.0805603
-0.0807196
-0.059807
-0.0417924
-0.0354367
-0.0427398
-0.0462523
-0.0471121
-0.0471197
-0.0463125
-0.0154323
-0.0408858
-0.0405696
-0.0455084
-0.0471339
-0.0436722
-0.0388069
-0.0408901
-0.0598886
-0.0770488
-0.0782677
-0.0752474
-0.0752884
-0.0564043
-0.0339602
-0.039393
-0.0444224
-0.0493407
-0.0541826
-0.0587418
-0.00246163
-0.0146955
-0.023124
-0.036031
-0.0474892
-0.0518018
-0.0547575
-0.0494057
-0.0378481
-0.0389038
-0.051333
-0.0623218
-0.0660706
-0.0615402
-0.0530169
-0.0498551
-0.0506983
-0.0552646
-0.0653311
-0.0781139
-0.00357422
-0.0101754
-0.0147998
-0.0235175
-0.0363134
-0.0457016
-0.0451111
-0.0395332
-0.0350075
-0.0400251
-0.0514155
-0.0656758
-0.0768788
-0.0806344
-0.0765722
-0.0727222
-0.0751325
-0.0845547
-0.0969173
-0.100426
-0.013038
-0.00765859
-0.010163
-0.014494
-0.0220892
-0.0266082
-0.0287436
-0.0269074
-0.0287195
-0.0355792
-0.0485764
-0.0680346
-0.0930949
-0.111782
-0.106117
-0.0874709
-0.0735907
-0.0669578
-0.0643086
-0.0616879
-0.00576085
-0.00885482
-0.0198408
-0.0265657
-0.028681
-0.0233756
-0.021966
-0.0242178
-0.031491
-0.0445678
-0.0633393
-0.0857143
-0.110856
-0.127111
-0.130362
-0.117537
-0.0963536
-0.0764403
-0.0618753
-0.053816
-0.00640261
-0.0091798
-0.0161488
-0.0296475
-0.0419659
-0.0436969
-0.0429121
-0.0464099
-0.0598327
-0.079539
-0.102561
-0.122836
-0.139554
-0.148087
-0.150366
-0.148135
-0.141716
-0.130166
-0.114232
-0.102623
-0.00660314
-0.00800049
-0.0117231
-0.0184385
-0.0308573
-0.040132
-0.0530092
-0.0653556
-0.0825078
-0.100025
-0.118919
-0.134797
-0.147509
-0.153517
-0.155434
-0.154602
-0.153659
-0.153469
-0.153453
-0.156516
-0.00440839
-0.00999235
-0.0116828
-0.0204077
-0.0300443
-0.0338215
-0.0449596
-0.0557879
-0.0732067
-0.0911718
-0.110359
-0.123869
-0.129945
-0.124681
-0.109885
-0.0885834
-0.0676658
-0.0525911
-0.0441424
-0.0413265
-0.0115334
-0.0092855
-0.0137218
-0.0151084
-0.0298053
-0.0430425
-0.0577733
-0.062427
-0.0628642
-0.0577338
-0.0539687
-0.0521843
-0.053597
-0.0561491
-0.0597777
-0.0629312
-0.0652699
-0.0677269
-0.0685058
-0.0690278
-0.00507928
-0.0137693
-0.0119626
-0.0104806
-0.0119305
-0.014458
-0.0177501
-0.0213846
-0.0263411
-0.0316419
-0.036743
-0.0395133
-0.0404182
-0.040525
-0.0414359
-0.0436482
-0.0461123
-0.0468942
-0.0433723
-0.0340069
-0.00257369
-0.0111307
-0.00855379
-0.00833558
-0.00972979
-0.0117858
-0.015139
-0.0181941
-0.0215212
-0.0242247
-0.0269373
-0.0292072
-0.0316624
-0.0339856
-0.0363906
-0.0383426
-0.0398117
-0.0402263
-0.0396581
-0.0381786
-0.0078397
-0.0140083
-0.0121271
-0.00744992
-0.00637723
-0.00716892
-0.00912557
-0.0112899
-0.0139676
-0.0167784
-0.0201527
-0.0236911
-0.0276624
-0.0315956
-0.0354011
-0.0386846
-0.0411381
-0.0426805
-0.0432238
-0.0428077
-0.00908682
-0.0119754
-0.00900853
-0.00999341
-0.0101578
-0.00974835
-0.0113543
-0.012601
-0.014777
-0.0166348
-0.0186711
-0.0201459
-0.0214351
-0.0224982
-0.0236502
-0.024753
-0.0258982
-0.026895
-0.0275744
-0.0278632
-0.00299695
-0.00478113
-0.00554712
-0.00644412
-0.00737908
-0.00914325
-0.0125807
-0.0151523
-0.0188338
-0.0214925
-0.024468
-0.0259723
-0.0269926
-0.0266521
-0.0259745
-0.0246822
-0.0229666
-0.0212219
-0.0199655
-0.0194291
-0.00230767
-0.00647193
-0.00914999
-0.00731714
-0.00725535
-0.009006
-0.0122937
-0.0152946
-0.0191512
-0.0226209
-0.0266626
-0.0301822
-0.0332906
-0.0349428
-0.0348313
-0.0319068
-0.0266411
-0.0211438
-0.0172753
-0.0153816
-0.00125995
-0.00586668
-0.00622363
-0.00543494
-0.00591263
-0.00773302
-0.0111857
-0.0158647
-0.0212603
-0.0262451
-0.0307253
-0.0340996
-0.0360127
-0.035716
-0.0323494
-0.0264792
-0.0203206
-0.0157052
-0.013194
-0.0123983
-0.00134746
-0.00241733
-0.00360306
-0.00493826
-0.00604705
-0.00815462
-0.00975506
-0.0141819
-0.0192417
-0.024354
-0.0302157
-0.0358756
-0.0405285
-0.0430729
-0.028831
-0.0217457
-0.0157335
-0.0124095
-0.0114334
-0.0119347
-0.000600128
-0.00226816
-0.00298694
-0.00399209
-0.00513724
-0.00599505
-0.0075279
-0.00996475
-0.0139188
-0.0162082
-0.0216675
-0.0301002
-0.0383464
-0.0447244
-0.0386784
-0.0193481
-0.0147552
-0.0126939
-0.012776
-0.0140515
-0.000662255
-0.00370538
-0.00548246
-0.00705182
-0.00790012
-0.00814313
-0.00858449
-0.0103603
-0.0159576
-0.0195603
-0.0178325
-0.0197247
-0.025042
-0.0305296
-0.0306126
-0.0217166
-0.0192917
-0.0178784
-0.0177573
-0.0184456
-0.00154968
-0.0141995
-0.0120959
-0.0116742
-0.0104793
-0.009901
-0.00965999
-0.0103393
-0.0145794
-0.0229311
-0.0244762
-0.0220394
-0.0186167
-0.0186945
-0.0241864
-0.0289541
-0.0310011
-0.0317259
-0.0311585
-0.0296951
-0.00387752
-0.0299571
-0.0187304
-0.0211486
-0.0193976
-0.0169824
-0.0151475
-0.0152007
-0.0192598
-0.0238634
-0.029019
-0.0306032
-0.0273158
-0.0235483
-0.0264226
-0.0358217
-0.0403168
-0.0428071
-0.0428046
-0.0406957
-0.00322289
-0.0106999
-0.0122685
-0.0174614
-0.021584
-0.0220566
-0.0224555
-0.0198114
-0.0198134
-0.0253046
-0.0321454
-0.0365845
-0.0387868
-0.0393782
-0.0419445
-0.0446635
-0.0477452
-0.0503105
-0.0518486
-0.0506234
-0.00187424
-0.00792977
-0.0114649
-0.0171879
-0.0222076
-0.0227755
-0.0204296
-0.0202467
-0.0232032
-0.0282546
-0.0333224
-0.0375253
-0.0398419
-0.0407279
-0.0415496
-0.0431614
-0.0453341
-0.047018
-0.0472011
-0.0435658
-0.00321014
-0.00577925
-0.00829376
-0.0124033
-0.0158631
-0.0163153
-0.0169803
-0.0187739
-0.0229822
-0.0286961
-0.0351741
-0.0413411
-0.0461615
-0.0465807
-0.0411869
-0.0354225
-0.0322862
-0.0310513
-0.0305806
-0.0301767
-0.00638214
-0.0077687
-0.0130658
-0.0142716
-0.0149151
-0.0151896
-0.0174104
-0.0218139
-0.0280836
-0.0357542
-0.0436559
-0.0495991
-0.0537477
-0.0529197
-0.0484039
-0.0412802
-0.034848
-0.0307793
-0.0291652
-0.0296843
-0.00498295
-0.00901261
-0.0162667
-0.0217628
-0.0248366
-0.02424
-0.0256531
-0.0303103
-0.038138
-0.0466562
-0.0551727
-0.060325
-0.0628427
-0.0613323
-0.0582297
-0.054533
-0.0510143
-0.0478006
-0.0455373
-0.0456822
-0.00116234
-0.00554874
-0.0106955
-0.0148849
-0.0196679
-0.0227948
-0.028768
-0.0345288
-0.0433122
-0.0512609
-0.0592716
-0.0633998
-0.064729
-0.0622865
-0.0591221
-0.056552
-0.0559269
-0.057227
-0.0597634
-0.0640104
-0.00573087
-0.00621773
-0.0104525
-0.0137778
-0.0185821
-0.0223198
-0.0286364
-0.0349076
-0.0431736
-0.0497192
-0.054795
-0.0550122
-0.0513228
-0.0436368
-0.0350043
-0.027582
-0.0231901
-0.0218169
-0.0227685
-0.0257199
-0.00211422
-0.00293579
-0.00625446
-0.00835162
-0.0152473
-0.0188947
-0.0241348
-0.0253191
-0.026304
-0.026012
-0.0260912
-0.0260245
-0.0259866
-0.0256078
-0.02509
-0.0243955
-0.0236858
-0.0230963
-0.0222969
-0.0216572
-0.00346504
-0.00718576
-0.00717629
-0.00730472
-0.00844075
-0.00993058
-0.0119588
-0.0142939
-0.0173837
-0.0201971
-0.02273
-0.024242
-0.0250579
-0.0251259
-0.0246704
-0.0236968
-0.0221261
-0.0197765
-0.0165637
-0.0129147
-0.00167839
-0.00529903
-0.00560751
-0.00654388
-0.00836631
-0.00995004
-0.0118722
-0.0135093
-0.0152228
-0.0162602
-0.0171109
-0.0173756
-0.0174783
-0.0172234
-0.0167721
-0.0160175
-0.015117
-0.0142466
-0.013808
-0.0139379
-0.0011314
-0.00637182
-0.00631793
-0.00501571
-0.00560818
-0.00674254
-0.00831298
-0.00963944
-0.0110382
-0.0121489
-0.013201
-0.0139965
-0.014712
-0.0152015
-0.0155436
-0.0156945
-0.0157616
-0.0159885
-0.0163835
-0.0170269
-0.0101071
-0.0101887
-0.00696983
-0.00618805
-0.00627403
-0.00693955
-0.00818951
-0.00902165
-0.0100334
-0.0106107
-0.0110774
-0.0112174
-0.0112792
-0.011312
-0.0114523
-0.011699
-0.0121185
-0.0126836
-0.0133644
-0.014132
-0.00267972
-0.00399783
-0.00478076
-0.00549576
-0.00659759
-0.00785256
-0.00997933
-0.0110118
-0.0123645
-0.0127315
-0.0130055
-0.0125387
-0.0119904
-0.0112129
-0.0106556
-0.0102783
-0.0101488
-0.0102582
-0.0106128
-0.011126
-0.00186818
-0.0030145
-0.00447755
-0.00538036
-0.00691674
-0.00919299
-0.0117525
-0.0132705
-0.0147621
-0.0152575
-0.0154001
-0.0148376
-0.0139776
-0.0127777
-0.0115461
-0.0102814
-0.00925022
-0.00873875
-0.00878667
-0.00921211
-0.00345864
-0.00381681
-0.00416928
-0.00469774
-0.00592552
-0.00839084
-0.0111089
-0.013616
-0.0149199
-0.0155359
-0.0151326
-0.0143567
-0.0131116
-0.0116696
-0.0101072
-0.00879428
-0.00810056
-0.00805155
-0.00850907
-0.00931806
-0.000356597
-0.00209651
-0.00335738
-0.0042459
-0.00545905
-0.00814263
-0.00969577
-0.0128764
-0.0148613
-0.0158524
-0.0160263
-0.0155673
-0.0145367
-0.0129306
-0.00868062
-0.00799693
-0.00787584
-0.00825861
-0.00894492
-0.00981745
-0.000235513
-0.00139465
-0.00221169
-0.00321318
-0.00441114
-0.00569298
-0.00766642
-0.00959051
-0.0110683
-0.0128543
-0.0145955
-0.0154057
-0.0147797
-0.0130819
-0.00915122
-0.00835969
-0.0087653
-0.00933782
-0.0099683
-0.0106193
-0.00104826
-0.00331514
-0.00464161
-0.0057624
-0.00658662
-0.00692108
-0.00760465
-0.00895365
-0.0109536
-0.0122287
-0.0124734
-0.0128483
-0.0124963
-0.0117254
-0.0100369
-0.0116304
-0.0123976
-0.0131322
-0.0138616
-0.0145702
-0.00499103
-0.00874302
-0.00720075
-0.00741395
-0.00780233
-0.00799455
-0.00853021
-0.00971939
-0.0123019
-0.0156504
-0.0169338
-0.0149082
-0.0124891
-0.0125788
-0.0152516
-0.0196611
-0.020093
-0.0197883
-0.019296
-0.0190321
-0.00171794
-0.0114768
-0.00935382
-0.0105381
-0.0104261
-0.0103114
-0.0107741
-0.0115817
-0.0138381
-0.0182226
-0.0219431
-0.0227738
-0.0212424
-0.0200394
-0.0248421
-0.0327889
-0.0319395
-0.0287697
-0.0250784
-0.0220761
-0.00108762
-0.00467795
-0.00659305
-0.0093941
-0.0114163
-0.0121105
-0.012545
-0.0133995
-0.0162727
-0.0195863
-0.0220904
-0.0252658
-0.0290233
-0.0334752
-0.0365455
-0.0381934
-0.0373776
-0.034504
-0.0307872
-0.0260761
-0.00106804
-0.00358277
-0.00605367
-0.0100934
-0.012527
-0.0129553
-0.0132614
-0.015125
-0.017149
-0.0188614
-0.020111
-0.0209504
-0.021834
-0.0225858
-0.0236136
-0.0240952
-0.0240637
-0.0232102
-0.0216759
-0.0193082
-0.00354739
-0.00464085
-0.00733308
-0.00986502
-0.0110401
-0.0119345
-0.01348
-0.0157399
-0.0180983
-0.0199666
-0.0211154
-0.0215576
-0.0216441
-0.0207253
-0.0190316
-0.0177104
-0.0170478
-0.0167655
-0.0166701
-0.0166756
-0.00852229
-0.00667022
-0.00935027
-0.00984037
-0.0110377
-0.0126703
-0.0149862
-0.0178903
-0.0207452
-0.0228593
-0.0242084
-0.0242856
-0.024117
-0.0229104
-0.0215819
-0.0203708
-0.0196529
-0.019415
-0.0195414
-0.020015
-0.0013765
-0.00774985
-0.0129248
-0.0147164
-0.0157267
-0.0159161
-0.0175539
-0.0197296
-0.0230276
-0.0251809
-0.027068
-0.0272073
-0.0270808
-0.0263176
-0.0259316
-0.025862
-0.0260407
-0.0262392
-0.0263898
-0.0266356
-0.0013586
-0.00477033
-0.00898362
-0.0119823
-0.0142697
-0.0155327
-0.0182492
-0.0203216
-0.0238363
-0.0256228
-0.0272957
-0.0270152
-0.0267051
-0.0261224
-0.0265537
-0.0278209
-0.0297859
-0.0319073
-0.0337012
-0.0351938
-0.0070623
-0.00502438
-0.00960083
-0.0134974
-0.0160848
-0.0184689
-0.0212328
-0.0225968
-0.0239277
-0.0229259
-0.0217353
-0.0192777
-0.0171327
-0.0152674
-0.0145164
-0.0149317
-0.0163083
-0.0183697
-0.0209522
-0.0241556
-0.000550012
-0.00232464
-0.0052611
-0.0082101
-0.0119791
-0.0135816
-0.0158665
-0.0165984
-0.0172293
-0.017095
-0.0168511
-0.0163196
-0.0157537
-0.0150604
-0.0143767
-0.013698
-0.0131303
-0.012752
-0.0126134
-0.0129784
-0.00158103
-0.00413891
-0.00560868
-0.00619575
-0.00701253
-0.00801138
-0.00957114
-0.0110668
-0.0126465
-0.0134581
-0.0137943
-0.0131892
-0.0120715
-0.0106727
-0.00955332
-0.00891288
-0.00886108
-0.00934981
-0.0102275
-0.0113426
-0.00269897
-0.00494498
-0.0054826
-0.0063776
-0.0076075
-0.00876695
-0.0098233
-0.0102004
-0.0103222
-0.00991114
-0.00949343
-0.00901781
-0.00877043
-0.00880171
-0.00912138
-0.00965459
-0.0103201
-0.0110659
-0.0118314
-0.012583
-0.00713669
-0.00824008
-0.00608148
-0.00544307
-0.00622365
-0.00706701
-0.0078049
-0.00809519
-0.00823274
-0.00825868
-0.00839452
-0.00866756
-0.00911461
-0.00965431
-0.0102392
-0.0108052
-0.0113245
-0.0118011
-0.0122088
-0.0125639
-0.0101294
-0.0102905
-0.00802055
-0.00579728
-0.00604426
-0.00664483
-0.00713939
-0.0073291
-0.0074828
-0.00759019
-0.00784416
-0.00820178
-0.00868413
-0.00922261
-0.00977326
-0.0102826
-0.0107325
-0.0111087
-0.0114302
-0.0117031
-0.00130459
-0.00560191
-0.00570482
-0.00563545
-0.00639659
-0.00708223
-0.00757135
-0.00757872
-0.00755809
-0.0073971
-0.00744189
-0.0076126
-0.0079764
-0.00844748
-0.00898296
-0.00952057
-0.0100246
-0.0104751
-0.010877
-0.0112101
-0.00142991
-0.00200576
-0.00346579
-0.00538141
-0.0067746
-0.00771858
-0.00776304
-0.00767308
-0.00746343
-0.00720582
-0.00714795
-0.00725834
-0.00757413
-0.00802185
-0.00856829
-0.00916089
-0.00977772
-0.0103899
-0.0109704
-0.0114663
-0.00143558
-0.00234842
-0.00320333
-0.00467124
-0.00598823
-0.00706127
-0.00700091
-0.00708204
-0.00677384
-0.00682473
-0.0068104
-0.00704471
-0.00739719
-0.00788048
-0.00846884
-0.00914206
-0.00986935
-0.0106147
-0.0113491
-0.0120011
-0.000457409
-0.00172573
-0.00287401
-0.00420087
-0.00537368
-0.00668247
-0.00681802
-0.00706651
-0.00679154
-0.00665408
-0.00646807
-0.00647303
-0.00670854
-0.00708358
-0.00847717
-0.0091262
-0.00979143
-0.0104496
-0.0110826
-0.0116315
-0.000517576
-0.00207513
-0.00247342
-0.00331646
-0.00461759
-0.00575123
-0.00661191
-0.00687599
-0.00706338
-0.00635738
-0.00591902
-0.00585712
-0.00616694
-0.00664336
-0.00762051
-0.00926512
-0.00978297
-0.0102565
-0.010687
-0.0110529
-0.000645896
-0.00359009
-0.00492305
-0.00503032
-0.00574877
-0.00617502
-0.00686196
-0.00807108
-0.00907514
-0.0083037
-0.00689311
-0.00627139
-0.00680576
-0.00775537
-0.00937439
-0.0109506
-0.0113144
-0.011517
-0.011619
-0.0117043
-0.00445647
-0.00462538
-0.00552398
-0.00667379
-0.0074047
-0.00772378
-0.00848297
-0.0100049
-0.0120968
-0.0129809
-0.011722
-0.00961194
-0.00951572
-0.0106419
-0.0121049
-0.0126737
-0.012778
-0.012835
-0.0128399
-0.0128877
-0.00263016
-0.00536875
-0.00654765
-0.00841813
-0.0090904
-0.00941354
-0.00989575
-0.0108489
-0.0125761
-0.014132
-0.0149081
-0.0148545
-0.0151095
-0.0164699
-0.0168719
-0.0140222
-0.0128907
-0.0122566
-0.011915
-0.0118048
-0.00052865
-0.00267847
-0.0059984
-0.00857259
-0.0093831
-0.00972498
-0.00996602
-0.010984
-0.0119088
-0.0128581
-0.0140087
-0.0163118
-0.0186184
-0.0206794
-0.0156791
-0.0147205
-0.0135808
-0.0125093
-0.0117813
-0.0110702
-0.000751386
-0.00314199
-0.00585103
-0.00844821
-0.0092458
-0.00967293
-0.0101206
-0.0106593
-0.0108746
-0.0110021
-0.011165
-0.011161
-0.0112181
-0.0111258
-0.0110899
-0.0108505
-0.0106711
-0.0104941
-0.0103273
-0.0102111
-0.00283949
-0.00477974
-0.00686558
-0.00823333
-0.00901161
-0.00995912
-0.0105504
-0.0111183
-0.0113125
-0.011401
-0.011302
-0.0111537
-0.0109844
-0.0106188
-0.0101784
-0.009856
-0.00969059
-0.00966066
-0.00975658
-0.00999257
-0.00327482
-0.0082445
-0.00908429
-0.00933057
-0.00991752
-0.0107149
-0.0114599
-0.012031
-0.012329
-0.0124423
-0.0124325
-0.0122589
-0.0121188
-0.0117868
-0.0114359
-0.0110526
-0.0107235
-0.0105087
-0.0104668
-0.0106528
-0.00190593
-0.00816443
-0.0101162
-0.0103865
-0.0106742
-0.0110165
-0.0118705
-0.012393
-0.0132314
-0.0135028
-0.0139399
-0.0140097
-0.0140874
-0.0139227
-0.0136846
-0.0133197
-0.0128748
-0.0124123
-0.0120763
-0.0120197
-0.000341898
-0.00417787
-0.00811823
-0.00937635
-0.00975352
-0.0101792
-0.0112707
-0.0117294
-0.0129231
-0.0133894
-0.0143996
-0.0150643
-0.0158892
-0.0164475
-0.0168943
-0.0170664
-0.0170183
-0.0167558
-0.0164265
-0.016154
-0.00598333
-0.00451534
-0.00885042
-0.0113699
-0.0115559
-0.0119517
-0.0117575
-0.0106343
-0.0103568
-0.00994498
-0.0106224
-0.0117292
-0.0134492
-0.0154627
-0.017655
-0.0198781
-0.0220442
-0.024089
-0.0259763
-0.027649
-0.00154744
-0.00322654
-0.00560363
-0.00831786
-0.0107244
-0.0115786
-0.0121834
-0.011779
-0.0113367
-0.0104175
-0.00963383
-0.0088703
-0.00851344
-0.0086201
-0.00944724
-0.0110791
-0.0135497
-0.0167606
-0.0205059
-0.024506
-0.0181878
-0.0226586
-0.0239828
-0.0130688
-0.0138243
-0.0158716
-0.0166742
-0.0187535
-0.0237044
-0.0216716
-0.0141528
-0.0154466
-0.0165798
-0.0154564
-0.0247385
-0.0237437
-0.0273688
-0.0166357
-0.0181113
-0.018448
-0.0223398
-0.0228834
-0.028248
-0.0288236
-0.0181709
-0.01707
-0.0231436
-0.0234274
-0.115691
-0.107406
-0.113949
-0.101134
-0.0956686
-0.0946939
-0.0916618
-0.119376
-0.115523
-0.116968
-0.0957197
-0.104066
-0.0938518
-0.105386
-0.115131
-0.116483
-0.115624
-0.106341
-0.105485
-0.107863
-0.113574
-0.106184
-0.115685
-0.114046
-0.102061
-0.0884463
-0.114693
-0.110286
-0.098835
-0.112527
-0.10655
-0.0846787
-0.0780337
-0.106207
-0.0938806
-0.103958
-0.104595
-0.100453
-0.0783395
-0.0873065
-0.0914537
-0.0905678
-0.116779
-0.099762
-0.0987847
-0.0925463
-0.111065
-0.0918454
-0.0977538
-0.128009
-0.098382
-0.0963328
-0.116785
-0.130126
-0.0999801
-0.105532
-0.113334
-0.103158
-0.0986866
-0.0932574
-0.085079
-0.0797732
-0.0524845
-0.1125
-0.096323
-0.0893585
-0.0858926
-0.0962486
-0.0470526
-0.0484944
-0.111111
-0.08794
-0.091468
-0.0992788
-0.10848
-0.0558776
-0.083572
-0.114979
-0.0958357
-0.111682
-0.111606
-0.114729
-0.0929357
-0.117511
-0.109818
-0.115564
-0.118573
-0.112689
-0.101612
-0.122501
-0.124254
-0.102489
-0.116952
-0.10822
-0.0985613
-0.0949518
-0.121287
-0.10804
-0.0982839
-0.10498
-0.0961177
-0.0952353
-0.0976385
-0.103201
-0.0901804
-0.0941257
-0.0934856
-0.0864391
-0.0985862
-0.101049
-0.0866942
-0.0796872
-0.0858965
-0.0886122
-0.0844209
-0.0711589
-0.0486703
-0.0811472
-0.0715896
-0.0815201
-0.0833994
-0.0823045
-0.0440159
-0.0458485
-0.0706519
-0.0763842
-0.0889387
-0.082949
-0.093227
-0.0530196
-0.0810404
-0.0794953
-0.0971488
-0.113266
-0.100861
-0.127878
-0.0912782
-0.120182
-0.107114
-0.137892
-0.124672
-0.135256
-0.146603
-0.126777
-0.132114
-0.144795
-0.150036
-0.113045
-0.146592
-0.135713
-0.129642
-0.115029
-0.146834
-0.13119
-0.0964397
-0.129475
-0.108235
-0.108842
-0.0894238
-0.124339
-0.0990809
-0.0842152
-0.101384
-0.0843114
-0.0836864
-0.0721317
-0.0901581
-0.0674936
-0.0963538
-0.114183
-0.113003
-0.102985
-0.0957672
-0.112292
-0.110438
-0.0953914
-0.1129
-0.116318
-0.0947569
-0.0957211
-0.109837
-0.110959
-0.110371
-0.119
-0.130346
-0.09748
-0.11325
-0.112978
-0.12494
-0.138293
-0.134816
-0.150315
-0.121837
-0.145566
-0.13083
-0.150759
-0.151773
-0.156646
-0.176282
-0.150604
-0.152703
-0.15706
-0.170861
-0.141177
-0.182086
-0.193336
-0.148855
-0.134418
-0.173602
-0.175664
-0.113982
-0.194551
-0.188798
-0.128561
-0.105568
-0.17423
-0.15903
-0.0885739
-0.182861
-0.160048
-0.0967219
-0.0721393
-0.149942
-0.117623
-0.0145659
-0.0123344
-0.0159726
-0.0118439
-0.0138901
-0.0115625
-0.0138963
-0.0310696
-0.0185502
-0.0369484
-0.0149136
-0.018826
-0.0152688
-0.0201813
-0.0399297
-0.0444941
-0.0577655
-0.019901
-0.0217634
-0.0215922
-0.0237868
-0.0340537
-0.0575805
-0.044986
-0.022187
-0.0245958
-0.0237453
-0.0229927
-0.0355842
-0.0405959
-0.0344446
-0.0261232
-0.0328464
-0.0231263
-0.025667
-0.0483235
-0.0349406
-0.0422049
-0.0356177
-0.0447218
-0.02716
-0.032563
-0.0701024
-0.0459611
-0.0590806
-0.0478856
-0.0568119
-0.0344832
-0.0403565
-0.0944678
-0.0637341
-0.0770403
-0.0592037
-0.0636479
-0.0422743
-0.0471824
-0.0173662
-0.0140075
-0.0147359
-0.0130895
-0.0141805
-0.0126409
-0.0119118
-0.0336163
-0.0153302
-0.0189786
-0.0153364
-0.0201692
-0.0122343
-0.0158686
-0.0603478
-0.0225014
-0.0482774
-0.021739
-0.0249447
-0.0179517
-0.0246689
-0.0541423
-0.0579084
-0.0745815
-0.0251509
-0.0238366
-0.0266964
-0.029327
-0.0373521
-0.0764936
-0.0734188
-0.0234456
-0.0241092
-0.0292261
-0.0267168
-0.0417939
-0.0696526
-0.0553017
-0.0250234
-0.029117
-0.0255176
-0.0227991
-0.0566896
-0.0514058
-0.0450707
-0.0307045
-0.0356941
-0.0223939
-0.0230866
-0.0701132
-0.044356
-0.0451645
-0.0374087
-0.0422171
-0.023953
-0.0283089
-0.0147913
-0.0176162
-0.0184538
-0.0138808
-0.0124242
-0.0171607
-0.0169416
-0.0177832
-0.0195697
-0.0310498
-0.0125163
-0.0155435
-0.0171954
-0.0191565
-0.0474739
-0.0384703
-0.0640426
-0.0174457
-0.0243277
-0.0203996
-0.0258377
-0.0772893
-0.071237
-0.0820346
-0.0266455
-0.0304055
-0.0276759
-0.0325651
-0.0828896
-0.0831527
-0.0812561
-0.0306291
-0.0285541
-0.0339556
-0.0353192
-0.0660118
-0.0803637
-0.0767124
-0.0273765
-0.0235709
-0.034613
-0.0301813
-0.0448444
-0.073316
-0.0561865
-0.0224895
-0.0211427
-0.028332
-0.0236131
-0.0384475
-0.0498362
-0.0355897
-0.0214756
-0.024905
-0.0226881
-0.0227023
-0.0383383
-0.0529189
-0.0577813
-0.0296714
-0.0234993
-0.0354336
-0.0292519
-0.0544178
-0.0569486
-0.0529349
-0.0225748
-0.0226811
-0.0272131
-0.0236022
-0.0744068
-0.0516381
-0.0484346
-0.0234914
-0.0267807
-0.0235214
-0.0267392
-0.0785679
-0.0486019
-0.0548943
-0.0280852
-0.0333959
-0.0290849
-0.0390014
-0.0751481
-0.0578688
-0.0648401
-0.035302
-0.0381547
-0.0425461
-0.050074
-0.0766435
-0.0674138
-0.0729561
-0.0378305
-0.0341106
-0.0514003
-0.0520114
-0.0624614
-0.0735641
-0.0700578
-0.0322831
-0.0269361
-0.051197
-0.0461279
-0.0401025
-0.067294
-0.0562375
-0.0256076
-0.024211
-0.0438584
-0.0376842
-0.00921128
-0.00722417
-0.00887867
-0.00783134
-0.009622
-0.00736681
-0.00886576
-0.0130028
-0.00975345
-0.0140381
-0.0101369
-0.0117222
-0.00936042
-0.0107555
-0.0155921
-0.0155495
-0.0178874
-0.0123831
-0.0150845
-0.0111996
-0.0124397
-0.0198819
-0.017824
-0.0170602
-0.0161246
-0.0193056
-0.0128606
-0.0144456
-0.0279465
-0.0172826
-0.0201733
-0.0202985
-0.0225372
-0.015083
-0.0169643
-0.0363824
-0.0216805
-0.0267019
-0.0229784
-0.0237564
-0.0174592
-0.0182594
-0.0434105
-0.0283616
-0.0331408
-0.0237812
-0.0230399
-0.0183258
-0.0180512
-0.046293
-0.0346369
-0.0381787
-0.0223292
-0.0195357
-0.0177942
-0.0164999
-0.00965011
-0.00885337
-0.00978177
-0.00847438
-0.00928245
-0.00875747
-0.00960347
-0.014249
-0.0102269
-0.0129504
-0.00967288
-0.0110819
-0.0100216
-0.0117756
-0.0194025
-0.0147196
-0.0210911
-0.0115756
-0.0127939
-0.012521
-0.0149403
-0.0170104
-0.0192612
-0.0211221
-0.0156365
-0.021142
-0.0155146
-0.0170405
-0.0158648
-0.0177718
-0.0195017
-0.0152517
-0.0189365
-0.0155273
-0.0160776
-0.0236453
-0.0206749
-0.0185797
-0.015899
-0.0168205
-0.0150335
-0.0142605
-0.0291699
-0.0183493
-0.0193624
-0.0169576
-0.0170109
-0.0142028
-0.0146735
-0.0343394
-0.0202471
-0.0242914
-0.0169152
-0.0162445
-0.0150115
-0.0163384
-0.0100319
-0.0108001
-0.0116175
-0.00952867
-0.00988356
-0.0106849
-0.0112084
-0.0128197
-0.012126
-0.0155878
-0.0102068
-0.0118552
-0.0114446
-0.0128063
-0.0211823
-0.0172373
-0.0222833
-0.0126394
-0.0154636
-0.0136044
-0.0170416
-0.0211866
-0.024139
-0.0233015
-0.019281
-0.0247655
-0.0201724
-0.0200217
-0.0227796
-0.024043
-0.0269357
-0.021
-0.0269421
-0.020971
-0.0227956
-0.0193227
-0.0283164
-0.0252762
-0.0164131
-0.0147927
-0.0229452
-0.0208512
-0.0181758
-0.024056
-0.0212546
-0.0145176
-0.0146721
-0.0201493
-0.0188119
-0.0221443
-0.020866
-0.0218892
-0.0150245
-0.0167263
-0.0187663
-0.0201898
-0.014736
-0.0196921
-0.0197105
-0.0133848
-0.0124611
-0.0156328
-0.014385
-0.0180771
-0.0192007
-0.0187328
-0.0124877
-0.0135571
-0.0141093
-0.0150994
-0.0226881
-0.0191091
-0.0220521
-0.014286
-0.0177753
-0.0161385
-0.0210674
-0.0278405
-0.0237676
-0.0298916
-0.0193478
-0.0239714
-0.0231615
-0.0289664
-0.0307108
-0.0317503
-0.0356419
-0.0250256
-0.0259253
-0.0303801
-0.0326142
-0.0284326
-0.0365291
-0.0377107
-0.02562
-0.0238886
-0.0329917
-0.0335179
-0.024208
-0.0376728
-0.0364791
-0.0232039
-0.0215843