/*--------------------------------*- C++ -*----------------------------------*\
  =========                 |
  \\      /  F ield         | OpenFOAM: The Open Source CFD Toolbox
   \\    /   O peration     | Website:  https://openfoam.org
    \\  /    A nd           | Version:  10
     \\/     M anipulation  |
\*---------------------------------------------------------------------------*/
FoamFile
{
    format      ascii;
    class       volVectorField;
    location    "9.1";
    object      U;
}
// * * * * * * * * * * * * * * * * * * * * * * * * * * * * * * * * * * * * * //

dimensions      [0 1 -1 0 0 0 0];

internalField   nonuniform List<vector> 
12920
(
(433.71 -219.06 -242.704)
(198.395 -41.1376 -26.2833)
(228.96 10.6989 -7.3849)
(159.25 15.3327 -1.09197)
(177.014 12.5039 0.862586)
(157.27 -1.57658 1.75719)
(171.727 -4.59029 2.17831)
(170.042 -7.26484 1.73154)
(179.413 -3.72186 1.52994)
(178.434 -0.90548 1.48771)
(176.775 4.48945 2.07553)
(166.432 4.0042 2.41374)
(160.536 -1.00952 2.12989)
(158.829 -7.3464 1.46736)
(163.664 -10.6437 0.163013)
(174.065 -10.6303 -0.505158)
(183.124 -5.95801 0.0185598)
(183.839 -3.70651 0.556232)
(180.728 1.5843 1.11563)
(164.608 5.10819 0.143088)
(46.593 -18.5373 -104.157)
(-53.1137 6.10075 -15.4181)
(114.571 -42.6051 -5.67153)
(66.321 -32.1962 5.09054)
(122.693 -27.1478 4.38426)
(98.9988 -25.0314 1.26)
(125.421 -20.0071 0.423822)
(116.166 -16.7265 -0.546289)
(127.185 -12.4307 -0.214801)
(122.218 -9.63496 -0.381261)
(127.072 -7.23188 0.0265874)
(125.653 -6.49658 -0.130056)
(127.597 -6.51138 -0.400129)
(125.841 -6.60971 -1.05129)
(125.954 -6.97446 -1.57462)
(125.153 -6.17556 -2.09688)
(128.368 -2.48449 -2.02121)
(131.065 4.284 -1.77908)
(134.056 10.7087 -1.28648)
(135.91 10.4977 -0.278402)
(24.482 35.4441 -49.3826)
(-22.3194 -59.8229 -41.1231)
(131.808 -39.1352 -22.3326)
(95.5483 -34.621 -4.20069)
(135.92 -26.3117 -0.609528)
(109.098 -19.4092 -1.44387)
(126.57 -13.3141 -1.64795)
(115.531 -7.30647 -2.10639)
(123.831 -2.77261 -1.63171)
(117.361 0.693138 -1.50467)
(119.653 2.23347 -1.02208)
(114.695 2.69257 -0.967478)
(113.121 1.2471 -0.366117)
(106.484 0.164172 -0.335627)
(104.05 -0.70822 -0.686227)
(100.853 -0.709544 -0.874221)
(101.134 -0.17038 -0.879959)
(102.804 1.33736 -0.535457)
(107.502 5.64851 -0.168483)
(113.484 6.34741 0.268085)
(-88.155 -65.6584 90.6524)
(-146.436 -38.9433 -56.7093)
(132.7 -38.2239 -19.1567)
(49.1195 -26.4727 0.699999)
(112.619 -22.4094 3.04849)
(71.6142 -13.7527 0.627516)
(101.82 -10.5127 0.743767)
(84.6212 -6.16909 -0.198309)
(98.2394 -3.63978 0.0614811)
(90.7639 -0.150182 -0.133929)
(96.1763 2.12496 0.0387428)
(92.2434 3.97937 -0.00808051)
(93.376 4.40198 0.0191889)
(90.373 4.07214 -0.046427)
(90.1456 2.50974 -0.00108853)
(88.4564 0.947681 0.0674991)
(88.8396 0.514125 0.0393727)
(89.3624 0.907495 -0.0156147)
(91.9858 3.54052 0.0667293)
(97.9769 4.88184 0.187088)
(101.6 -130.382 -80.6803)
(48.6897 -111.244 -23.0344)
(138.644 -74.283 -1.07722)
(62.7464 -44.157 -0.49988)
(107.404 -45.9003 1.1216)
(67.5814 -23.3506 0.325637)
(96.4493 -24.1793 0.635217)
(84.3055 -7.98094 0.435938)
(98.2213 -7.10307 0.695918)
(93.0367 0.931797 0.341476)
(98.2944 1.31807 0.447855)
(94.844 4.09369 0.224928)
(95.9494 3.35526 0.276754)
(93.3929 3.31724 0.156495)
(93.4078 1.56988 0.144104)
(91.1182 0.0411678 0.132306)
(90.8385 -1.19143 0.187735)
(90.1777 -1.40887 0.15774)
(90.7386 -0.229307 0.116126)
(94.7173 1.76928 0.108791)
(308.16 80.4791 -141.715)
(106.142 -33.7212 -43.4338)
(189.236 6.97816 -8.54209)
(89.5972 -16.1432 2.577)
(114.343 -19.9354 2.75111)
(66.5515 -15.0869 -0.512402)
(92.254 -24.3739 -0.131685)
(77.9849 -14.3357 -0.277)
(89.8384 -12.7028 0.102127)
(87.1222 -4.95002 -0.243535)
(94.4391 -1.68707 -0.227822)
(94.0929 3.59259 -0.295819)
(96.8916 4.69694 -0.206615)
(95.9771 5.09755 -0.0485626)
(95.9325 4.01223 0.173)
(93.5057 2.09802 0.424748)
(91.4499 0.146923 0.532406)
(88.9543 0.148941 0.257013)
(88.5171 1.6019 0.00249418)
(91.1651 2.74654 -0.0106149)
(186.339 131.553 -8.01218)
(-156.862 -44.2434 -29.8045)
(133.984 -44.2407 -7.17391)
(16.7993 -32.3944 -2.27461)
(107.18 -29.2824 -2.2651)
(64.321 -12.5892 -2.03614)
(85.5636 -33.5374 -1.77628)
(68.551 -7.61313 -1.20067)
(78.9337 -15.7579 -0.917167)
(76.7395 -3.97029 -0.474702)
(85.0525 -4.69937 -0.35466)
(85.3913 1.53131 -0.286359)
(88.9308 1.76405 -0.156463)
(88.1343 3.61215 0.0979029)
(88.3861 2.53863 0.316574)
(86.2732 1.65363 0.4126)
(84.656 0.253821 0.332448)
(83.2773 0.0903846 0.136187)
(83.4189 0.781222 -0.00620554)
(87.397 1.8306 -0.000917773)
(180.724 -233.269 -142.503)
(14.3661 -20.6402 -10.4468)
(150.621 -40.0332 0.366361)
(65.4952 -13.5378 2.00392)
(117.668 -30.2164 1.21524)
(77.4035 2.07866 -0.523352)
(86.7111 -5.31063 0.0943857)
(54.3574 -13.353 -0.31025)
(69.3923 -7.89889 0.123854)
(73.0277 -13.7606 0.350356)
(84.1672 -6.60403 0.36638)
(86.6919 -2.54313 0.112361)
(90.0611 3.22938 -0.0347224)
(89.7596 4.19035 0.0765438)
(86.0808 3.55399 0.73659)
(82.072 3.08641 0.695605)
(79.0029 1.1154 0.350365)
(77.9524 0.765568 0.054049)
(78.0635 0.933887 -0.143451)
(82.4631 1.53603 -0.111979)
(95.0845 -90.6395 -217.994)
(-13.1153 -73.32 -47.9294)
(139.891 -52.9766 -25.5987)
(83.2359 -27.6868 -8.90646)
(120.718 -28.4591 -1.58364)
(77.439 2.10203 -0.613358)
(106.053 11.8448 -0.901589)
(105.11 -6.40787 -0.804885)
(101.626 -13.1412 -0.0315615)
(94.3944 -16.6198 0.0486879)
(95.257 -8.84919 0.0381744)
(93.6073 -1.90092 0.114166)
(93.568 3.70081 -0.11105)
(93.97 5.28304 -0.0713038)
(92.7922 3.96899 0.464775)
(85.3122 4.99826 0.723372)
(80.3528 2.6051 0.610195)
(77.3817 1.24454 0.231559)
(76.6672 0.633997 0.0196367)
(80.5834 0.887156 0.0126221)
(176.659 60.9437 -131.157)
(48.9403 -11.9627 -29.2504)
(171.264 9.90076 -17.6571)
(124.283 5.49593 -11.3879)
(151.37 10.912 -2.14647)
(92.1312 1.60739 -0.185686)
(82.9121 0.661427 0.627099)
(84.1021 2.17912 -0.343823)
(87.2682 -11.0898 0.210888)
(91.2467 -19.3277 0.348024)
(91.9905 -10.5684 -0.00222211)
(95.3524 -1.74007 -0.105025)
(99.1109 3.54882 -0.0409696)
(101.369 3.09721 0.000579914)
(97.5702 3.66515 0.140556)
(89.7935 6.99222 0.518571)
(83.4714 5.92685 0.714443)
(79.1991 3.84367 0.357339)
(78.2192 1.50167 0.0851294)
(81.6108 0.750285 0.0186681)
(166.009 9.35079 -59.9376)
(-151.667 -26.864 -5.87004)
(155.508 10.0494 -7.50731)
(72.3829 15.8587 0.678453)
(132.306 24.4156 1.4312)
(103.555 28.2243 -1.11614)
(119.861 23.051 -2.10047)
(138.202 9.30224 -2.44376)
(144.345 -9.02875 -0.589067)
(116.542 -16.4873 0.159139)
(97.373 -8.82092 0.183979)
(95.7261 -6.02863 0.296113)
(96.1337 0.932167 0.0761524)
(96.223 3.71482 -0.145914)
(95.1239 7.09063 -0.186849)
(89.3993 10.6114 0.549924)
(84.2127 9.31983 0.476532)
(80.0406 5.19731 -0.346395)
(79.2844 1.87898 -0.41751)
(83.2025 1.02668 -0.212201)
(247.145 -133.963 -88.5437)
(126.328 -86.1226 5.08881)
(188.311 -97.0788 18.2711)
(125.318 -41.3767 11.5145)
(153.544 -3.98518 10.6354)
(122.484 8.80031 -0.000659342)
(131.955 12.975 -0.0669056)
(136.55 14.856 0.575067)
(126.639 6.24064 0.726306)
(105.217 4.66138 0.508995)
(94.4408 -4.3624 0.183635)
(83.3291 -7.98458 -0.301409)
(87.1373 0.746307 -0.0886194)
(89.6887 3.94888 0.0723599)
(92.1992 6.25255 -0.0907866)
(91.2049 11.0561 0.563799)
(88.7885 13.1321 -0.0137709)
(87.7195 11.485 -0.691886)
(87.0644 4.85283 -0.876259)
(88.0181 1.47975 -0.65682)
(534.456 -79.0108 -116.152)
(454.896 -69.3303 -58.3307)
(297.44 -49.5011 19.1782)
(130.646 -36.3288 13.2685)
(138.753 -19.0125 6.68748)
(106.646 -18.158 4.6766)
(116.511 2.7053 2.90094)
(106.511 12.533 0.253415)
(96.3074 15.4798 -0.0242861)
(87.3851 11.1612 0.00709227)
(82.148 3.11995 0.272624)
(74.4728 -1.09211 0.13435)
(73.6596 -3.01841 0.0581248)
(75.3565 -2.60581 -0.188841)
(81.9794 1.14488 -0.164564)
(88.5677 8.052 -0.196158)
(95.4719 13.2149 -0.451969)
(99.0914 11.7687 -0.23678)
(101.048 9.86884 -0.133748)
(99.5986 6.99924 -0.20022)
(172.678 -13.5457 113.959)
(122.513 42.5211 -9.74085)
(154.106 41.7999 -4.50492)
(87.0087 6.30676 -6.03474)
(128.022 2.88179 -2.45916)
(100.32 2.5822 -0.505091)
(104.898 31.5548 0.934514)
(85.854 22.3069 1.15888)
(87.7652 25.5567 0.213072)
(80.0085 14.1037 -0.520978)
(82.0755 10.4472 -0.98974)
(78.3032 1.9907 -1.02514)
(79.339 -1.34051 -0.410117)
(76.0026 -5.67658 -0.0822239)
(76.8581 -5.56194 0.0638187)
(79.9695 -1.68553 -0.387847)
(87.8995 4.98229 -0.297934)
(91.4306 7.16669 0.0970149)
(92.6106 8.64892 0.525998)
(93.1554 7.31372 0.478916)
(60.4492 124.379 212.294)
(14.346 12.062 -3.5961)
(131.76 9.15429 -0.22154)
(54.7407 -9.52398 -4.57921)
(108.003 -5.24695 -3.5089)
(69.9613 -0.858809 -3.11978)
(94.5271 17.1226 -0.315483)
(85.172 20.8177 -0.60176)
(93.9979 21.4641 -0.851655)
(92.8576 16.5148 -1.53773)
(98.6348 11.8532 -1.93233)
(99.5035 5.70136 -1.57599)
(99.5749 1.82428 -0.218307)
(92.1261 -2.32406 0.862932)
(83.4206 -2.58811 0.856625)
(76.5954 -1.17947 0.0944325)
(76.5347 2.45947 -0.13327)
(77.0232 5.54625 -0.162084)
(78.4233 8.38683 -0.217896)
(83.8404 7.15991 -0.18164)
(132.878 54.9315 53.0398)
(125.043 -24.993 -12.8451)
(214.586 10.0989 -0.152047)
(164.149 23.6624 3.21258)
(166.685 21.9529 5.69892)
(113.818 18.4358 1.99467)
(111.02 26.6248 0.712458)
(94.0903 23.698 -1.11984)
(100.542 25.4016 -1.3679)
(96.9792 18.4459 -1.63886)
(101.841 15.1742 -0.917634)
(100.048 9.17125 -0.591625)
(99.7867 7.23626 0.465872)
(94.0002 5.14149 0.918259)
(88.516 4.8408 1.23395)
(81.0991 4.10348 0.822865)
(79.0824 5.03892 0.28678)
(78.2393 5.99646 0.134764)
(79.2862 7.43943 -0.125736)
(87.0621 6.78582 -0.143958)
(44.5768 -99.1303 -251.034)
(-43.0174 -79.1166 -23.3738)
(125.092 -50.5811 -12.9227)
(86.6341 -25.8409 -5.0419)
(130.554 12.8921 2.07627)
(96.4729 25.4744 2.51984)
(106.834 35.1938 2.28221)
(92.563 29.7657 0.424945)
(100.876 26.5481 0.363906)
(96.1304 19.9299 0.0578554)
(100.579 13.3238 0.528614)
(96.3627 8.4284 0.750195)
(95.7979 5.7808 1.15239)
(91.4474 3.90879 1.04831)
(90.5323 3.91181 0.797782)
(88.3601 3.46186 0.668252)
(87.9575 3.45425 0.597511)
(87.6817 4.19671 0.519849)
(88.6323 4.83489 0.236199)
(96.1749 4.13707 0.211312)
(181.413 25.5424 51.463)
(-48.6568 -29.3582 1.57136)
(120.413 -2.76219 -7.49933)
(40.6941 -7.60828 -6.45125)
(100.785 13.2609 -3.01147)
(77.2196 15.4047 -1.17472)
(101.494 27.3505 1.154)
(90.1745 23.5041 1.07993)
(100.285 22.6596 1.52613)
(94.7899 16.2822 1.3252)
(98.6332 12.9078 1.26704)
(94.8355 9.22507 1.07206)
(95.8214 6.68471 1.02942)
(93.1794 4.85593 0.840892)
(93.474 3.61462 0.754465)
(92.5488 2.62349 0.61479)
(92.9041 2.18557 0.543209)
(93.1649 2.18177 0.527744)
(94.3064 2.1819 0.460029)
(101.009 2.26175 0.431064)
(109.073 263.392 -152.512)
(-127.013 -13.4433 -37.9601)
(92.3211 -20.7305 -7.69654)
(1.86734 -13.6959 0.49181)
(80.9582 -1.05706 3.89167)
(52.7637 11.0891 -0.399108)
(91.1277 18.5373 -0.092964)
(82.3309 17.519 -0.308439)
(97.6368 15.0803 0.246546)
(94.0468 10.8006 0.334115)
(100.013 6.96853 0.715108)
(98.498 3.76036 0.868025)
(100.99 1.85514 1.03316)
(100.208 0.782512 1.01272)
(100.919 0.2314 0.825323)
(100.231 0.0173566 0.552379)
(100.182 -0.282557 0.245201)
(99.4722 -0.279558 0.017297)
(99.5308 -0.573651 -0.190416)
(103.875 -0.69871 -0.320541)
(187.613 77.712 75.274)
(181.399 105.233 9.85353)
(210.469 3.96649 17.5572)
(138.445 -22.0749 2.52589)
(133.089 -29.7047 4.30083)
(90.0438 -9.18685 2.12097)
(104.691 3.20048 2.7566)
(95.5375 9.84343 2.02878)
(110.617 10.8257 1.81422)
(111.29 8.27004 0.640046)
(120.897 5.23375 0.260532)
(121.442 2.23008 -0.0441274)
(124.503 -0.176005 -0.0204177)
(122.987 -0.797303 0.0433341)
(122.881 -0.366863 0.261039)
(120.941 0.663814 0.324234)
(120.827 2.18559 0.29913)
(120.521 3.24695 0.364822)
(121.193 4.17225 0.316008)
(127.043 4.61531 0.344751)
(201.193 -110.046 -15.2181)
(147.547 -32.0156 79.5921)
(192.814 -8.60481 40.0438)
(147.664 -7.57617 17.621)
(172.26 -4.70747 10.6845)
(154.28 -8.32298 6.51533)
(168.526 -4.09308 4.90389)
(164.212 -2.94514 2.9867)
(170.307 1.15102 2.7578)
(164.595 3.33046 2.7105)
(162.155 5.84999 4.36473)
(154.296 4.38777 4.47503)
(152.664 1.99853 4.1593)
(150.627 -0.561847 2.60694)
(152.661 -1.42884 0.899862)
(153.901 -1.19213 -0.603834)
(154.734 0.642317 -0.614053)
(152.381 1.8791 0.327075)
(146.584 6.70516 2.72745)
(135.274 4.20017 1.0511)
(75.8374 6.37227 3.90119)
(-15.5319 -19.3482 -14.7069)
(105.274 -34.8771 -5.37761)
(49.3572 -19.944 6.1866)
(110.67 -13.1693 4.65906)
(83.1057 -10.3602 -0.033116)
(111.975 -5.23372 -0.761613)
(100.694 -3.55974 -2.53911)
(113.068 -0.819811 -1.5309)
(107.409 -0.0256777 -1.47716)
(112.453 1.12732 -0.0620867)
(109.675 0.910304 -0.192806)
(111.307 0.527626 -0.475899)
(109.372 0.0192111 -1.52421)
(109.821 -0.0958307 -2.12357)
(108.433 0.422305 -2.91042)
(109.573 2.4033 -2.76281)
(108.721 5.41526 -2.33489)
(109.8 8.54423 -0.973053)
(110.925 6.94322 -0.0858457)
(134.299 22.8567 52.9082)
(87.4845 -8.06748 -3.71138)
(145.944 -21.1141 -18.9374)
(80.2869 -21.595 -6.77505)
(118.436 -13.9092 -2.19977)
(86.5632 -8.38085 -3.23564)
(107.203 -3.32164 -2.54718)
(92.7991 0.722222 -3.16514)
(102.145 3.10551 -2.08109)
(94.0885 4.66112 -2.01304)
(97.4912 5.01624 -1.05537)
(92.526 4.67191 -1.00949)
(92.9884 3.42627 -0.483367)
(89.9449 2.18857 -0.638185)
(89.902 1.17363 -0.922833)
(88.3494 0.645553 -1.13137)
(88.7795 1.18395 -1.1501)
(89.379 2.399 -0.590766)
(92.1031 5.2105 0.00369819)
(96.5169 4.82302 0.516272)
(184.12 -116.652 -24.7024)
(-1.79938 -15.5976 -27.5325)
(112.024 -9.29575 -30.9521)
(14.9762 -9.38486 0.411719)
(97.5844 -10.198 1.87172)
(50.8657 -4.53852 0.0841662)
(88.7784 -3.88413 0.775238)
(69.7246 -0.768051 -0.595904)
(85.3699 0.326264 0.102505)
(76.6724 2.62682 -0.307336)
(82.7901 3.5928 0.126718)
(78.6255 4.31384 -0.0131371)
(80.5794 3.96288 0.0602601)
(78.3029 3.22516 -0.119499)
(78.9296 2.03073 -0.0485193)
(78.0901 1.17246 0.0123791)
(78.8787 1.12518 -0.0136125)
(79.3717 1.81316 -0.0578404)
(81.4685 3.90724 0.153312)
(85.9021 4.27562 0.307541)
(145.93 -127.295 -82.1497)
(2.1777 -59.6869 -15.397)
(117.19 -45.3725 -10.8619)
(36.3213 -29.3767 -2.09663)
(95.2005 -33.979 0.634796)
(52.598 -12.4491 0.140238)
(85.3962 -15.9735 0.964253)
(70.5517 -1.1157 0.484578)
(84.8222 -2.49163 0.96973)
(77.4728 4.51642 0.313481)
(82.9163 3.60407 0.603446)
(78.8197 5.64681 0.228232)
(80.587 3.9974 0.380399)
(78.3329 3.45461 0.16716)
(78.8988 1.58699 0.239659)
(77.5703 0.454276 0.238727)
(77.9595 -0.218049 0.305018)
(77.7413 0.0170501 0.254836)
(78.7732 1.6645 0.196399)
(82.5621 2.67093 0.209724)
(348.876 58.7472 -222.384)
(88.6916 -18.3087 18.758)
(146.94 17.7004 28.5978)
(56.7305 -8.19724 9.78686)
(99.7881 -12.1843 5.16252)
(49.514 -5.48489 -0.0188736)
(80.7938 -16.1517 0.281944)
(64.5171 -4.99615 -0.285844)
(77.2259 -4.53159 0.218093)
(72.9129 1.79955 -0.283053)
(78.3564 2.97565 -0.108739)
(76.9316 5.26632 -0.253523)
(78.9235 4.69981 -0.0745263)
(77.8479 4.24839 0.0789337)
(78.2052 2.61668 0.410495)
(77.0807 1.31705 0.590728)
(76.9986 0.640814 0.613367)
(76.3045 0.885112 0.363614)
(76.5109 2.19567 0.111877)
(79.4965 2.76334 0.0958221)
(178.548 87.2051 -225.302)
(-143.176 -26.2248 7.05596)
(131.107 -32.4433 -14.0541)
(22.1459 -23.4154 -3.08562)
(101.862 -21.8441 -2.61244)
(52.5394 -6.17604 -2.57922)
(72.5979 -28.4485 -2.07752)
(54.9834 -0.351015 -1.38707)
(67.093 -10.3786 -0.984159)
(64.3774 1.38123 -0.369074)
(72.2834 -1.23138 -0.301649)
(71.5602 3.4933 -0.215511)
(74.6222 2.14127 0.0115939)
(73.8724 3.27001 0.359916)
(74.6603 1.75877 0.571132)
(73.3873 1.08117 0.584848)
(73.255 0.472611 0.472962)
(72.8133 0.623289 0.253786)
(73.2777 1.48912 0.0760916)
(77.087 2.034 0.0989678)
(290.19 -127.009 27.8522)
(97.2716 -30.3209 30.0222)
(150.23 -39.4463 -7.57854)
(62.6844 -11.2352 -0.78554)
(107.684 -23.1936 0.116551)
(66.1384 7.93804 -0.505628)
(76.405 -5.87422 0.182393)
(50.0963 -11.0619 -0.968993)
(62.2662 -6.26511 -0.250144)
(63.6373 -8.86311 0.222054)
(72.3161 -2.1087 -0.230906)
(73.5474 0.248571 -0.256572)
(76.295 3.42117 -0.254608)
(76.0357 3.43883 0.136274)
(73.265 2.64726 0.803219)
(71.5093 2.29382 0.750755)
(70.6422 0.992212 0.479709)
(70.1661 0.944974 0.143637)
(70.425 1.15134 -0.0869648)
(74.3868 1.43211 -0.000879368)
(314 -29.1335 9.58881)
(108.979 -53.7802 16.9962)
(151.331 -34.2941 -11.9689)
(75.3305 -11.9155 -6.58328)
(99.0507 -13.8856 -1.47128)
(77.7859 2.42875 0.178001)
(96.4544 8.9142 -0.741578)
(85.1471 -6.24481 -1.39673)
(80.2566 -13.5308 0.300803)
(78.6709 -13.3429 -0.353257)
(80.3632 -5.81015 -0.586264)
(80.2452 -0.392185 -0.588576)
(80.9063 2.74102 -0.518426)
(81.0582 3.94582 -0.00533519)
(79.1472 3.89884 0.921782)
(73.6124 3.63805 0.901595)
(71.4417 1.74013 0.705318)
(70.2215 0.972207 0.344809)
(70.0237 0.533768 0.122847)
(73.8822 0.65578 0.140044)
(254.979 24.7378 -24.2155)
(101.404 2.54384 -13.4357)
(160.735 11.1534 -13.3614)
(96.4411 2.95863 -9.46418)
(119.679 7.19371 -1.54475)
(100.996 2.87722 -1.68709)
(93.6705 1.74311 -1.58896)
(86.1878 1.73217 -1.59867)
(83.752 -11.4833 0.362388)
(84.5974 -16.7357 1.65774)
(85.2303 -8.88069 0.305776)
(86.4717 -1.91437 -0.175589)
(87.5973 1.27708 -0.289296)
(87.5038 2.48221 -0.0858978)
(83.6738 5.06488 0.682324)
(77.2675 5.57727 0.693458)
(73.6258 4.23438 0.812441)
(71.8004 2.61231 0.399789)
(71.4481 0.920047 0.15961)
(74.9677 0.388099 0.0961688)
(186.688 53.4538 -190.628)
(-69.5891 -19.2706 2.34562)
(138.761 -5.13005 -23.2858)
(50.7094 -8.19355 1.98602)
(106.024 1.93836 0.723309)
(95.1755 9.98883 -3.67821)
(111.277 14.0876 -5.47755)
(116.842 3.48822 -6.94413)
(114.956 -11.0854 -1.88)
(99.3443 -13.8592 3.24127)
(89.0827 -9.25321 1.53612)
(89.0095 -3.62915 0.749523)
(89.885 1.7233 -0.174023)
(90.0456 4.81179 -0.748519)
(86.8415 7.89206 -0.147223)
(79.2515 9.77838 0.952678)
(76.2304 6.92747 0.344265)
(73.3093 3.48256 -0.594377)
(72.7268 1.06577 -0.440986)
(76.2487 0.348624 -0.131726)
(210.132 -47.1178 -91.8196)
(51.2363 -37.4138 18.154)
(162.922 -61.0268 27.4165)
(102.104 -22.0189 15.3548)
(133.459 -1.72071 12.9156)
(119.916 -1.33425 5.22095)
(124.153 0.587589 1.49851)
(124.143 2.13033 1.47544)
(113.459 0.835717 4.12922)
(93.8863 0.903913 3.27985)
(82.3162 -4.15805 1.22883)
(77.9848 -3.09857 -0.507657)
(79.5824 1.65124 -0.325317)
(82.7938 4.56426 -0.181587)
(84.3837 8.18163 -0.225739)
(82.4611 10.8068 0.389052)
(81.9065 10.464 -0.280854)
(80.4123 6.59566 -1.05427)
(78.5851 1.52096 -0.796392)
(79.1815 0.0708008 -0.543799)
(307.37 -56.0482 -88.1188)
(144.806 2.10212 97.9388)
(164.424 3.78236 51.2425)
(92.929 -1.11454 17.2342)
(122.552 1.58083 7.72433)
(93.9135 -7.65347 5.51438)
(105.599 9.02905 5.45773)
(92.524 12.3307 3.91417)
(84.6279 12.6705 1.8538)
(73.8528 8.82318 1.07141)
(71.0973 1.94094 0.26646)
(66.3056 -0.241859 -0.194159)
(67.9158 -1.23306 -0.165529)
(70.9739 0.235625 -0.291966)
(75.6737 3.88693 -0.461228)
(80.8811 7.92202 -0.496449)
(85.4299 9.00446 -0.503859)
(86.5299 7.12471 -0.209033)
(86.6345 5.30981 0.226508)
(84.9694 2.88473 0.0889315)
(154.728 105.77 -63.3184)
(17.4368 74.2905 -6.71956)
(140.222 68.2104 -3.93363)
(80.2789 30.0534 -6.91166)
(117.617 24.8724 -2.97796)
(85.7938 18.9824 -1.63715)
(90.8952 35.6216 0.730175)
(72.4685 19.2752 1.44455)
(75.6052 21.4846 0.319623)
(68.0765 9.21079 -0.740105)
(70.0569 6.68101 -1.08835)
(66.0295 -0.769054 -0.914833)
(67.169 -2.07645 -0.284347)
(66.0527 -4.75739 0.155758)
(68.5071 -3.51614 0.0555425)
(72.2496 0.285331 -0.507727)
(76.9762 4.02061 -0.15844)
(78.4665 4.93351 0.515825)
(79.2187 5.98323 1.1629)
(81.0824 4.73389 0.816408)
(139.091 181.805 93.5981)
(-29.7484 53.177 13.1741)
(119.938 30.456 -1.8426)
(36.3451 7.00602 -3.25581)
(92.4751 11.6772 -0.906756)
(52.9431 11.8868 -2.43475)
(80.9656 24.0438 0.566006)
(70.0926 20.6132 -0.734701)
(79.323 18.532 -0.878237)
(75.9123 11.5633 -1.98495)
(79.6403 5.97619 -1.96397)
(76.6619 0.88449 -1.3668)
(76.4933 -1.07792 0.214245)
(73.0839 -3.13053 1.35939)
(71.2427 -2.32782 1.21311)
(68.5429 -1.17112 0.389092)
(69.3563 1.40744 0.0612208)
(69.9402 3.49725 -0.0349899)
(71.1673 5.43173 -0.138807)
(76.508 4.23413 -0.0684156)
(169.746 94.6802 1.02726)
(83.5013 56.6682 -15.2113)
(172.965 35.9083 20.6831)
(107.805 31.5749 12.6377)
(127.152 24.1713 12.7219)
(81.4174 18.7024 3.13391)
(91.1763 25.1285 1.96055)
(75.6248 17.9891 -1.11176)
(83.6725 17.6447 -1.09158)
(78.2219 8.90328 -1.59005)
(82.381 6.16354 -0.590401)
(78.9378 1.46767 -0.208493)
(79.5621 1.24222 0.738088)
(76.3585 0.333116 1.12357)
(75.4667 1.40151 1.70213)
(72.9638 1.36126 1.20901)
(72.5953 2.00958 0.586668)
(72.5001 2.69964 0.338611)
(73.7307 3.52934 -0.0498554)
(80.4826 2.9683 -0.0252333)
(89.447 -83.5207 -9.97205)
(53.8176 -35.6894 -40.1538)
(129.101 -9.65839 6.27476)
(65.4731 13.6136 3.57334)
(103.283 32.295 10.1112)
(67.6829 29.6923 4.22711)
(87.6989 31.232 3.70703)
(74.0279 20.6304 0.518155)
(84.5787 16.1547 0.935314)
(79.2616 8.7508 0.266676)
(83.2696 5.29069 0.928981)
(79.9993 2.07312 1.11342)
(80.7574 1.33802 1.50239)
(78.9608 0.775198 1.28754)
(79.3262 1.16021 1.2059)
(78.8158 1.12648 0.984565)
(79.252 1.24506 0.876256)
(79.6739 1.71393 0.731864)
(80.7188 1.73141 0.403746)
(86.8155 1.21253 0.397727)
(26.0339 -56.6084 -69.2357)
(-37.9056 3.32238 -43.506)
(110.357 22.7029 -27.3842)
(31.6881 17.3679 -10.8235)
(87.2998 32.7605 -1.9538)
(55.4294 22.9532 -0.694163)
(84.6357 26.4431 2.36729)
(72.4885 16.986 1.30038)
(85.6121 14.8721 2.24504)
(79.9553 8.77875 1.53567)
(85.2511 6.92035 1.6972)
(82.1742 4.0081 1.34144)
(84.0636 3.17047 1.41437)
(82.526 1.88149 1.11229)
(83.4383 1.48088 1.03537)
(83.1704 0.980749 0.843336)
(83.834 0.851175 0.720397)
(84.2766 0.957332 0.669886)
(85.312 0.8101 0.521893)
(91.098 0.841346 0.557045)
(240.498 169.78 -7.3694)
(-92.5755 13.005 -25.5196)
(75.7083 17.6692 -13.3728)
(-29.9438 4.47009 -2.80741)
(71.4134 12.1167 4.22804)
(39.8973 12.8351 0.754634)
(81.2237 15.7344 2.27749)
(71.0223 12.496 0.998581)
(87.4022 9.97725 1.63841)
(83.2137 6.61633 0.957726)
(89.7216 4.08921 1.33025)
(88.1319 2.36291 1.13867)
(90.7689 1.33067 1.30581)
(90.113 0.816208 1.12149)
(91.1559 0.498608 0.900613)
(90.7141 0.352316 0.457562)
(91.0195 0.157109 0.164566)
(90.7007 0.143646 -0.130923)
(90.9953 -0.178179 -0.382602)
(95.3277 -0.218099 -0.570251)
(202.418 42.8079 95.0489)
(-27.5487 12.1277 -1.02909)
(128.285 4.4094 2.17473)
(71.9874 6.0268 0.787672)
(109.877 -9.61751 9.54513)
(80.334 -6.24822 5.16583)
(101.002 -3.65087 6.60331)
(91.9592 0.305193 3.8919)
(106.347 2.10481 3.53961)
(104.845 2.51388 1.63573)
(111.397 2.49668 1.12487)
(110.82 2.16636 0.533039)
(113.21 2.01904 0.491941)
(112.856 1.94681 0.503231)
(114.01 1.98309 0.65473)
(114.28 2.10157 0.685315)
(115.17 2.15505 0.670318)
(115.777 2.23334 0.71866)
(116.908 2.32889 0.568731)
(122.895 2.11497 0.57123)
(83.0071 -102.519 -24.2738)
(53.4803 6.37334 38.8026)
(166.817 -6.43868 24.1942)
(131.001 -10.0094 14.752)
(166.43 -3.56303 10.8723)
(148.516 -2.40979 6.45659)
(159.532 5.26505 4.40586)
(147.609 6.98218 1.89691)
(148.081 9.4409 2.38769)
(136.834 8.46576 2.40063)
(135.141 7.26373 4.01639)
(129.826 5.05264 3.55439)
(130.68 3.69059 2.83848)
(128.916 2.52144 1.42241)
(128.703 2.23969 -0.47033)
(125.606 2.37669 -1.12158)
(122.775 3.56488 -0.536327)
(116.186 4.70629 1.12246)
(114.375 5.17391 2.81415)
(112.221 3.03962 1.0809)
(100.153 29.5978 -112.947)
(-45.9272 6.97731 -46.1132)
(96.8856 -20.9501 -14.2772)
(28.7898 -7.13152 3.00499)
(100.823 0.0504687 0.20932)
(68.9895 1.19233 -3.99109)
(102.157 5.07058 -4.30914)
(87.8718 4.40085 -4.77489)
(100.787 5.27997 -2.42923)
(92.9177 4.3316 -1.72565)
(97.9458 4.56188 -0.0475455)
(94.4971 3.73567 -0.374525)
(96.4292 3.25324 -0.657457)
(94.1876 2.48987 -1.74397)
(94.4192 2.3179 -2.1754)
(92.3328 2.30856 -2.77702)
(92.0821 3.69607 -2.38165)
(90.1292 4.74975 -1.75049)
(90.6468 6.18722 -0.379532)
(92.0655 4.3738 0.0391307)
(306.467 37.2661 -45.0764)
(176.521 43.0035 -64.0734)
(165.422 4.40926 -12.1319)
(66.854 -9.63325 -0.851506)
(107.603 -4.969 -0.605757)
(69.9667 -0.821796 -3.44445)
(93.8666 2.80609 -2.63423)
(76.3141 5.14147 -3.10525)
(87.2622 6.03586 -1.65747)
(77.837 6.57574 -1.68799)
(82.3774 6.17901 -0.736107)
(77.4354 5.49807 -0.897143)
(79.0985 4.20598 -0.411381)
(76.7239 2.91381 -0.604599)
(77.383 1.94164 -0.798045)
(76.0344 1.34369 -0.915637)
(76.4557 1.78499 -0.827295)
(76.4108 2.57239 -0.341185)
(78.2746 4.29094 0.187985)
(81.8534 3.6252 0.649295)
(230.456 64.9796 -3.79161)
(55.1424 23.1547 -19.3825)
(107.734 5.42683 -4.69643)
(4.32597 1.68411 3.02151)
(87.6959 -1.84508 2.47867)
(36.8662 1.74977 0.771336)
(78.7922 0.414613 0.860389)
(56.8211 2.60647 -0.406534)
(74.3281 2.5121 0.215011)
(64.2316 4.0489 -0.266201)
(71.3423 4.14171 0.222443)
(66.8858 4.347 -0.0461634)
(69.602 3.59411 0.0795112)
(67.5626 2.77311 -0.131904)
(68.6301 1.77046 -0.0698885)
(67.9159 1.20834 -0.0489175)
(68.838 1.34585 -0.0367714)
(69.0599 1.97546 0.00808885)
(70.7098 3.52795 0.232798)
(74.339 3.45496 0.399622)
(136.031 10.8292 -71.0737)
(63.0694 -2.05301 -21.8785)
(113.908 -17.1336 -17.7201)
(27.4959 -15.4997 -3.40106)
(86.4499 -23.9993 -0.397706)
(40.3058 -5.2535 0.219096)
(75.9441 -11.3632 1.02242)
(57.955 2.66419 0.346056)
(73.1728 -0.508685 0.956881)
(64.2219 6.02161 0.259578)
(70.4294 4.02199 0.582322)
(66.0166 5.70961 0.20044)
(68.4941 3.56704 0.371382)
(66.443 3.0136 0.125874)
(67.476 1.31069 0.215226)
(66.542 0.603407 0.219542)
(67.2479 0.257365 0.278706)
(67.1531 0.68562 0.264972)
(68.2757 2.11342 0.268629)
(71.6755 2.48975 0.295882)
(-14.2773 99.2531 -148.097)
(-113.52 17.6959 15.5983)
(95.8173 38.4791 11.8983)
(23.2087 1.10919 7.08122)
(86.9116 -4.63766 4.68819)
(35.5812 1.2022 0.78603)
(72.1198 -10.9359 0.451453)
(53.4382 0.428553 -0.152651)
(66.9363 -1.01034 0.244928)
(60.8918 4.4188 -0.204204)
(66.2968 3.86756 -0.00985214)
(64.1306 5.25049 -0.172822)
(66.2909 3.86425 0.0230477)
(65.1594 3.23075 0.0633113)
(65.786 1.78805 0.3614)
(65.2328 1.10348 0.49829)
(65.8017 0.83636 0.500203)
(65.6493 1.21639 0.334661)
(66.2546 2.2379 0.208412)
(69.2934 2.3868 0.218949)
(127.645 -138.779 -113.842)
(-114.841 -46.4925 -50.8165)
(117.33 -24.2312 -19.34)
(13.3357 -13.6154 -3.23672)
(93.5605 -15.2072 -1.21471)
(39.837 -0.805787 -1.90731)
(62.9676 -24.942 -1.4013)
(44.5422 4.79709 -0.746143)
(58.0766 -7.54923 -0.40733)
(54.299 4.06722 0.106609)
(62.0643 -0.305568 -0.0409464)
(60.5387 3.93471 -0.0792726)
(63.634 1.72531 0.0564906)
(62.7514 2.86166 0.327875)
(63.8993 1.39988 0.490504)
(63.0828 0.909139 0.487034)
(63.5616 0.562929 0.412768)
(63.4675 0.861591 0.267976)
(64.1616 1.56517 0.180568)
(67.7628 1.76888 0.227617)
(126.648 -20.8903 96.5252)
(45.282 33.3435 45.3191)
(125.179 -15.8147 6.62686)
(46.6676 -3.05552 2.74438)
(95.6964 -16.8187 2.33216)
(54.1083 13.2024 0.276662)
(66.0771 -5.35488 0.058936)
(42.6324 -6.64553 -0.91904)
(54.6167 -4.43083 -0.373694)
(55.0371 -5.65555 0.26511)
(62.7402 -0.203281 -0.224038)
(63.2574 1.07415 -0.186258)
(65.6853 3.14181 -0.18611)
(65.3501 2.88196 0.2169)
(63.0724 2.12096 1.01464)
(62.2556 2.01527 0.690904)
(62.2862 0.966398 0.459655)
(62.1419 1.01195 0.20856)
(62.5286 1.11202 0.0781191)
(66.2433 1.18763 0.181926)
(140.106 43.6039 -89.9171)
(30.6276 -10.2451 -13.6023)
(115.906 -14.5958 -16.304)
(48.6438 -7.19235 -6.92771)
(82.595 -11.0215 -1.61027)
(60.5417 8.25509 0.247538)
(77.6879 10.0155 -0.0753079)
(66.9793 -6.11942 -1.01428)
(66.7263 -11.5611 0.441274)
(67.3426 -10.0306 0.0820937)
(69.7247 -3.58212 -0.293196)
(69.8352 0.153775 -0.560949)
(70.4688 2.38724 -0.455365)
(70.1923 3.56085 0.0853864)
(68.1369 3.33864 1.0878)
(63.8095 2.71698 1.27846)
(62.7304 1.30831 0.727217)
(62.4649 0.803888 0.435714)
(62.5905 0.431278 0.260704)
(66.3937 0.47301 0.289637)
(217.616 245.401 -112.072)
(61.6959 43.8917 -10.5819)
(143.202 13.7101 -5.38573)
(76.5916 0.948564 -5.9492)
(103.899 3.56638 -1.815)
(84.2967 1.11019 -2.66497)
(82.995 2.09266 -1.20056)
(77.7103 -0.376198 -1.5885)
(74.9031 -11.224 0.612461)
(75.5409 -13.0632 1.76663)
(76.8255 -6.36377 0.45346)
(77.0991 -1.26073 -0.0617748)
(76.9987 1.16161 -0.396369)
(75.9694 2.9692 -0.0909272)
(72.0272 4.6866 0.871086)
(66.0904 4.16587 1.19376)
(64.2171 3.01791 0.835111)
(63.6551 1.76178 0.478524)
(63.7533 0.497831 0.321964)
(67.3892 0.137507 0.250177)
(144.129 -49.513 141.202)
(-9.01602 -48.1356 16.8607)
(120.833 -10.7167 -11.6073)
(33.5484 -11.9229 1.67951)
(87.3634 -1.71445 0.270736)
(75.4204 3.39787 -3.00754)
(93.1221 5.77985 -3.85726)
(97.4556 -1.82824 -5.48462)
(91.746 -11.1817 -0.16098)
(83.5052 -11.506 3.41915)
(81.6206 -7.65916 0.0225526)
(83.1225 -1.86077 0.16008)
(81.7 2.87278 -0.741071)
(79.8085 5.59525 -0.878246)
(74.9168 7.53452 0.257651)
(67.5206 7.26132 1.44109)
(66.2076 4.31256 0.338421)
(64.5231 1.85397 -0.29091)
(64.4635 0.274127 -0.0845982)
(68.2151 -0.149743 0.105955)
(109.456 28.7761 -19.4025)
(-38.0333 -55.1644 19.3506)
(130.723 -47.5774 7.72551)
(65.3338 -16.3661 12.3908)
(111.72 -3.67437 9.87403)
(98.3039 -7.85555 3.76849)
(104.713 -8.86483 1.89068)
(102.032 -3.44423 1.70677)
(91.8616 -0.961354 4.99208)
(80.1901 -0.547821 3.96313)
(73.1797 -2.36189 1.12114)
(71.0996 -0.0406214 -0.700537)
(72.6058 3.35735 -0.790212)
(75.1931 5.81717 -0.652039)
(74.7391 8.89144 -0.0918825)
(71.686 8.14437 0.741196)
(71.221 6.33737 -0.0994619)
(69.497 2.49114 -0.636158)
(68.1365 -0.262429 -0.305299)
(69.7982 -0.681968 -0.15208)
(161.792 18.625 71.4415)
(61.3812 17.5588 2.74362)
(164.022 8.35761 11.8932)
(86.117 8.0604 5.36563)
(111.685 7.06696 3.56759)
(76.5334 -6.17999 3.05682)
(88.6993 7.64477 4.9409)
(74.1944 10.1638 4.7288)
(72.0037 10.2129 2.606)
(63.4377 7.30179 1.51963)
(62.6725 2.01643 0.15326)
(59.4117 0.900087 -0.321312)
(62.1735 0.29919 -0.301132)
(64.9764 1.96474 -0.414713)
(67.7753 4.37869 -0.0192509)
(71.3117 5.64048 -0.184106)
(73.8785 5.47899 -0.149528)
(73.5782 3.62993 -0.0221707)
(72.7367 2.25401 0.499639)
(72.6624 0.84568 0.353661)
(330.767 108.124 3.98782)
(111.881 104.044 -20.1344)
(159.328 81.4071 -15.9832)
(84.1105 40.1525 -9.40434)
(110.595 31.7739 -2.81806)
(71.7388 20.8915 -1.42741)
(77.897 34.6675 1.04741)
(59.5731 14.7603 1.77376)
(64.7927 18.3229 0.668967)
(57.4129 5.85371 -0.313893)
(59.8842 5.10646 -0.715604)
(56.0173 -1.61219 -0.68639)
(58.0384 -1.64257 -0.183091)
(57.6013 -3.80334 0.230287)