/*--------------------------------*- C++ -*----------------------------------*\
  =========                 |
  \\      /  F ield         | OpenFOAM: The Open Source CFD Toolbox
   \\    /   O peration     | Website:  https://openfoam.org
    \\  /    A nd           | Version:  10
     \\/     M anipulation  |
\*---------------------------------------------------------------------------*/
FoamFile
{
    format      ascii;
    class       volScalarField;
    location    "2.7";
    object      k;
}
// * * * * * * * * * * * * * * * * * * * * * * * * * * * * * * * * * * * * * //

dimensions      [0 2 -2 0 0 0 0];

internalField   nonuniform List<scalar> 
12920
(
2087.45
2288.6
1253.93
766.014
521.342
400.468
326.102
290.967
255.635
237.774
218.466
202.714
186.101
165.298
141.776
122.965
116.293
111.353
107.901
95.6354
457.866
1799.82
1352.94
925.627
693.445
541.328
407.034
348.46
306.407
286.21
254.951
221.967
191.401
176.1
172.327
173.279
176.249
176.513
174.88
153.075
2009.13
2739.02
1529.52
963.019
697.164
545.275
408.416
317.288
245.499
206.176
181.257
170.13
165.545
164.427
164.906
164.896
165.494
162.923
153.324
125.917
6456.47
2921.56
1668.46
1176.83
768.339
534.319
391.255
303.063
242.623
208.956
187.276
175.994
165.713
157.472
152.872
145.891
138.726
125.362
115.183
98.9206
7463.61
3317.83
1916.27
1395.43
922.799
546.285
392.16
323.601
281.574
252.669
229.794
213.068
198.294
188.223
182.422
173.762
158.254
130.163
113.548
88.09
2303.62
3056.76
2323.89
1720.06
1179.96
758.424
511.637
393.184
332.412
283.183
251.783
227.12
210.155
198.795
192.327
179.827
160.708
129.097
112.696
76.8773
1069.9
3081.71
2504.42
1791.58
1123.88
822.703
593.336
469.783
388.936
313.752
276.412
251.047
229.423
212.14
201.796
190.461
164.325
130.058
106.962
59.7198
1032.18
2823.39
2568.87
1771.34
1020.96
723.992
402.026
270.772
257.517
222.542
204
188.266
166.406
143.346
227.406
205.687
174.716
132.535
93.5733
48.98
644.987
2855.77
2281.07
1630.58
975.042
469.622
255.101
148.507
141.705
150.311
147.665
135.939
120.379
97.0579
139.297
209.086
178.668
130.824
84.644
49.7188
6424.2
4925.04
2569.18
1330.64
685.117
316.302
167.048
136.353
156.091
136.994
134.35
130.261
114.879
94.1535
134.099
170.865
163.594
131.993
85.3966
64.7328
994.869
1999.29
1275.62
716.669
511.324
229.921
122.287
127.947
133.794
124.826
119.4
113.067
85.6565
75.2238
120.338
146.434
142.666
129.538
101.443
99.124
313.4
1927.13
1963.95
1192.43
622.467
258.029
139.508
99.8475
100.127
111.223
101.901
83.3666
48.8778
53.5737
110.852
152.085
140.487
130.818
123.6
116.432
1626.22
2569.44
2286.27
1797.86
1176.4
734.416
362.654
201.79
168.137
152.85
120.633
85.2627
66.3495
67.9017
125.745
127.14
126.522
124.149
120.752
112.508
4409.86
4338.81
2488.52
1396.95
878.622
597.299
415.375
319.982
263.431
213.28
168.568
132.535
109.335
94.9456
87.2014
86.1537
88.8755
94.6949
96.2914
91.4554
8897.92
5038.39
1696.21
1154.57
873.948
748.622
479.651
370.529
263.574
208.098
165.788
133.598
109.835
93.5847
83.7425
76.3951
71.9931
71.1782
71.2055
69.0385
3238.73
2244.94
1504.56
1323.28
983.6
868.931
603.399
442.191
276.617
195.685
150.446
127.39
110.16
99.2841
89.8196
81.6039
76.2613
70.7399
68.6312
64.7017
7618.22
2379.56
1393.38
1075.14
873.009
787.28
647.821
523.341
348.987
221.302
155.758
132.516
120.255
109.989
101.443
91.3441
85.4523
75.5691
69.9566
59.3
5440.73
2918.89
1216.01
643.373
508.788
484.358
460.088
412.494
309.595
222.89
171.795
151.659
138.443
127.972
118.852
108.958
104.517
97.4652
92.4957
78.6345
8224.13
4792.43
1269.99
577.438
419.844
386.088
337.391
313.997
265.398
225.179
189.201
164.662
146.712
135.985
128.871
120.262
112.793
99.8036
91.7187
75.3228
9740.7
6554.85
1845
511.509
363.336
334.053
296.007
251.949
214.724
190.054
168.376
154.085
142.497
129.428
117.366
105.989
99.153
87.4852
77.2977
54.4035
3404.02
3531.33
2453.24
1364.17
848.171
709.518
659.957
643.487
594.828
541.342
485.68
428.306
370.01
323.094
294.49
281.292
272.285
253.737
238.702
201.701
2398.46
5137.44
3334.62
2130.11
1466.96
1237.31
970.504
889.872
773.11
733.18
665.668
614.483
560.227
522.942
512.752
516.634
534.739
540.247
531.741
472.18
15496.7
7240.53
3935.03
2367.2
1733.44
1308.67
1009.27
822.78
658.77
578.777
511.684
491.085
481.873
485.458
495.826
501.21
500.169
480.575
448.487
385.773
15993.6
8858.47
4179.19
2642.32
1674.67
1324.22
965.691
801.511
648.718
581.151
522.535
496.141
466.482
449.068
437.46
426.678
415.358
384.421
348.159
298.872
11833.7
9589.69
4446.71
3031.41
1590.14
1207.03
929.462
854.713
732.317
672.321
609.035
574.538
538.057
514.354
497.657
475.921
441.644
371.533
318.874
254.005
6292.76
6297.68
5068.74
4019.13
2476.27
1662.44
1159.84
1012.39
855.422
738.83
653.867
595.668
556.023
525.776
501.841
466.834
419.941
347.131
297.91
197.047
5504.14
7419.83
5160.31
3934.98
2440.08
1996.35
1454.56
1231.68
987.166
785.372
683.545
617.525
571.345
538.799
509.004
465.478
406.12
327.534
246.422
127.362
6205.29
7470.58
5452.1
3652.13
2124.37
1775.39
1301.57
1067.92
901.697
750.099
680.888
623.526
561.756
510.976
518.018
466.65
400.222
304.108
197.086
108.376
9570.73
7328.83
4408.84
3235.36
1987.17
1555.4
1120.37
944.66
828.622
756.751
692.965
627.246
541.809
458.686
454.331
454.312
391.719
284.979
179.237
127.773
8431.22
5684.35
3552.37
2296.9
1304.51
1238.27
1027.93
987.632
881.875
740.412
666.989
570.987
464.167
397.836
382.491
407.865
379.488
291.639
209.011
204.437
2614.93
5716.13
2891.56
1665.44
1336.35
1069.62
921.975
881.644
773.617
684.682
596.588
496.916
410.698
392.11
331.241
353.004
350.78
322.889
297.307
305.938
1527.27
5087.32
4188.17
2502.4
1423.42
1088.87
958.501
781.386
702.349
646.045
553.235
432.699
331.741
312.03
316.674
337.912
341.927
346.236
351.711
354.921
3713.49
6315.27
5316.79
3811.82
2008.69
1610.01
1181.48
844.381
671.039
567.279
430.518
325.281
277.762
277.631
304.638
315.496
325.073
337.819
341.893
333.308
4047.13
6920.49
5143.85
3110.45
1888.05
1492.4
1052.91
823.984
671.955
542.022
427.781
345.007
294.092
260.893
246.593
247.041
256.502
271.407
272.746
258.543
10523.7
5235.98
3427.93
2805.41
1922.73
1685.79
1097.39
895.384
644.977
536.158
427.013
353.124
294.736
256.625
234.057
217.006
207.16
204.128
204.953
201.788
5801.17
4847.44
3626.55
3040.56
2107.14
1812.96
1200.89
942.049
607.459
485.326
387.875
340.734
295.441
268.44
243.363
224.955
212.612
201.143
196.545
189.935
9794.21
4441.68
3278.74
2293.43
1967.75
1773.2
1372.79
1140.71
646.643
474.428
385.966
350.969
313.671
286.186
262.55
239.208
225.311
205.439
193.653
169.575
23337.8
4632.14
1902.03
1355.63
1112.57
1152.56
1008.6
912.637
642.639
543.064
446.653
405.869
365.094
336.488
310.813
284.619
270.691
252.563
243.612
216.48
15344.6
5321.3
2264.72
1430.87
1099.17
1027.39
871.225
811.479
651.64
580.15
495.991
459.15
420.132
395.606
367.506
336.27
305.324
265.381
240.465
200.599
10915
5260.7
2162.89
1268.72
895.123
683.397
624.435
591.528
520.365
462.91
410.792
373.319
336.209
296.262
262.049
236.429
214.874
180.177
149.341
102.697
1232.62
2958.23
2755.81
1631.35
1019.58
852.356
779.533
743.552
672.963
586.319
501.909
423.82
365.263
329.427
313.706
299.354
282.406
253.913
236.287
194.323
12929.5
6892.31
4600.23
2890.05
2082.76
1708.55
1317.48
1192.85
1015.71
967.559
879.744
844.225
807.47
791.487
781.419
771.813
760.635
729.99
692.118
614.719
13829.7
10666
5501.14
3090.56
2327.08
1697.21
1354.16
1136.22
968.829
897.03
829.549
808.772
782.361
764.843
743.508
716.628
687.965
639.395
600.643
538.795
28937.9
13486.9
5884.88
3542
2449.72
1815.7
1371.23
1137.65
958.503
874.906
803.618
765.876
722.611
688.06
656.255
623.816
588.989
536.04
493.938
437.722
20941.5
11795.2
6014
3599.34
2239.76
1769.93
1412.65
1224.46
1049.55
948.091
862.838
807.538
752.154
705.926
664.824
618.017
562.144
486.688
433.622
363.072
4078.36
7495.99
6349.32
4598.5
2894.89
2099.16
1632.5
1397.9
1160.69
992.202
879.324
802.252
742.564
687.791
638.291
577.979
512.409
432.853
376.251
275.092
26536.6
8327.14
5924.21
4250.2
2892.67
2409.42
1868.42
1526.66
1234.24
1012.12
893.725
810.996
746.118
688.819
628.632
553.445
474.828
386.605
298.031
182.77
10473.3
8314.4
6479.82
4179.87
2759.53
2362.8
1903.78
1484.17
1206.45
998.039
889.121
803.074
727.796
666.578
624.244
538.427
447.017
340.205
241.282
165.286
19312.5
9761.18
5495.87
3360.93
2440.98
2089.54
1799.47
1433.69
1167.22
1011.87
898.7
797.259
691.769
620.334
587.662
526.541
430.714
321.911
240.584
207.582
18576.4
9002.33
4660.68
2664.11
2064.15
1839.78
1625.94
1473.41
1207.39
1006.14
866.606
691.708
549.454
505.424
513.069
503.658
438.646
356.825
320.588
335.796
17579.1
8088.31
3966.1
2362.25
1983.18
1667.48
1482.35
1305.51
1104.35
962.122
592.343
475.911
477.721
468.879
434.27
468.169
461.496
446.379
447.424
468.045
5839.76
6644.91
5255.25
3035.58
2090.63
1639.94
1487.07
1197.92
1024.39
881.633
719.747
563.41
475.215
433.11
416.611
457.296
476.896
498.146
514.289
526.287
8992.22
8435.56
6004.67
3921
2636.7
2048.96
1652.23
1200.76
920.134
745.903
566.318
457.392
408.925
400.415
419.528
440.192
462.896
486.849
499.107
499.001
2250.02
7360.67
5984.74
3739.52
2554.13
1883.72
1409.3
1075.21
860.907
681.026
549.928
458.757
407.029
373.477
364.703
368.988
384.981
405.393
413.312
410.52
4905.24
7108.06
4580.97
3247.99
2475.83
1859.39
1377.31
1069.98
826.817
671.402
546.506
458.058
396.601
355.852
332.594
319.286
316.518
319.845
326.929
330.97
10554.6
6496.27
4569.76
3416.9
2532.52
1934.71
1364.41
1037.54
766.967
631.412
524.249
454.166
399.233
360.845
331.392
310.327
297.37
287.399
284.272
277.398
9195.99
6189.58
4023.23
2735.73
2402.27
1951.12
1463.86
1174.54
807.738
669.373
548.141
481.284
424.342
383.221
349.588
319.307
299.898
276.714
263.271
237.155
21991.2
5120.54
3290.95
2181.35
1815.16
1719.42
1400.26
1224.46
902.349
758.456
618.975
550.553
491.258
450.471
414.683
380.757
359.174
332.96
318.607
286.612
19571.3
5737.56
3680.92
2481.12
1648.35
1501.3
1252.72
1160.3
949.438
838.693
707.039
636.672
565.413
521.084
475.204
428.28
381.898
333.252
307.155
269.207
12622.3
5061.24
3571.05
2632.49
1510.14
887.209
725.384
691.684
638.097
565.191
492.648
435.369
384.25
337.559
300.254
266.731
237.503
192.982
159.601
116.021
2586.41
3734.38
2916.64
1645.5
1144.43
980.189
882.527
764.719
643.212
522.726
432.424
365.7
329.509
302.339
283.212
259.662
241.07
217.298
205.772
182.114
5786.92
6702.63
5246.06
3299.52
2625.67
2057.07
1635.86
1456.76
1272.42
1224.24
1146.72
1125.46
1095.62
1067.76
1038.44
993.883
954.223
899.962
852.326
785.492
38148.6
14166.1
6639.49
3629.73
2843.91
1989.41
1700.18
1434.1
1308.96
1229.49
1174.59
1137.2
1093.72
1039.19
988.708
927.614
875.754
811.11
767.993
710.53
30946.4
13311
6800.85
3982.31
3057.47
2127.92
1751.84
1444.79
1290.68
1182.06
1113.59
1054.4
999.389
934.274
878.13
815.672
758.402
691.87
646.755
591.173
28983.5
11005
6813.08
3790.6
2907.97
2134.86
1836.59
1529.03
1366.77
1222.62
1139.26
1058.4
991.837
915.274
847.131
767.934
689.289
606.528
550.858
485.778
13086.8
10351.7
7301.1
4613.46
3308.67
2404.37
2058.34
1703.58
1448.61
1231.68
1117.4
1018.32
944.172
860.515
782.715
692.598
605.269
516.613
451.401
367.231
15290.1
8616.12
6700.59
4310.72
3333.34
2673.78
2199.74
1755.92
1459.36
1219.72
1107.45
1006.9
929.366
837.428
741.032
632.961
529.924
431.464
344.489
263.672
11367.1
9334.6
7519.14
4514.47
3361.13
2782.3
2320.63
1762.72
1439.66
1200.74
1074.88
969.847
885.91
801.94
708.473
585.583
472.828
369.439
294.215
249.225
8400.4
10736
7368.79
3887.16
2941.06
2595.14
2310.49
1755.09
1412.96
1206.65
1055.54
928.145
821.905
752.025
679.835
569.418
464.477
378.259
329.227
319.052
38648.1
13734
5784.4
3179.68
2691.35
2327
2112.36
1812.33
1452.45
1198.52
988.58
760.205
637.429
628.229
620.665
582.556
521.534
485.142
480.341
503.068
17057.9
8625.39
4740.31
2999.9
2456.47
2107.49
1897.06
1627.02
1366.99
1145.49
759.964
549.284
527.93
536.431
554.682
604.379
608.277
616.725
638.181
666.133
10621.7
7186.82
6011.17
3467.37
2595.51
2039.18
1861.84
1499.81
1248.81
1018.9
795.554
639.345
571.679
536.181
534.478
616.115
650.972
684.974
709.03
727.831
15082.9
8018.38
6184.39
4028.92
3134.9
2296.56
1930.31
1416.76
1082.6
851.883
670.868
571.164
531.479
519.279
558.188
592.575
629.066
660.614
677.369
684.751
4145.57
8039.19
6461.48
4059.07
3120.2
2092.19
1703.81
1228.09
1001.28
783.73
663.501
569.797
526.79
496.628
497.1
506.981
531.181
556.288
570.233
579.72
24090.5
9233.82
5518.03
3617.11
2871.21
1950.99
1616.82
1194.12
978.727
779.674
661.853
562.417
505.709
463.305
445.266
437.86
440.365
451.672
465.462
479.704
20111.9
9134.75
5302.63
3703.07
2868.45
1946.62
1523.93
1108.77
916.719
743.684
651.308
560.865
507.541
458.519
430.846
409.171
398.837
392.288
391.067
388.386
7284.09
7614.28
4476.88
3183.16
2713.99
1949.03
1574.72
1182.1
956.123
793.471
687.817
597.293
536.587
479.704
441.979
406.659
385.688
362.875
348.37
329.316
20142.1
6244.13
3805.74
2709.67
2480.17
1959.2
1674.74
1334.15
1082.98
893.312
770.065
678.63
617.334
562.152
523.042
483.687
460.501
433.168
416.544
390.033
10639.8
5607.85
3936.41
2811.78
2016.74
1738.24
1551.77
1361.74
1172.19
1009.82
864.953
763.75
676.87
616.635
558.096
503.053
457.005
419.487
399.83
375.9
6418.23
4205.04
3604.72
2425.4
1304.11
849.144
747.767
699.688
625.584
543.609
467.179
402.677
352.372
309.049
275.623
238.999
206.491
165.379
140.894
109.766
2705.57
2949.28
2136.4
1568.97
1340.45
1100.19
863.113
649.445
488.949
386.569
330.298
298.159
277.448
254.717
237.544
218.464
206.099
188.948
179.874
160.571
7868.1
6798.23
5946.12
3888.07
3395.3
2245.53
2069.85
1590.83
1549.92
1407.24
1404.84
1351.2
1337.3
1272.13
1236.64
1155
1106.61
1031.81
979.288
930.908
33008.7
14565
7471.42
4530.86
3338.14
2358.48
2041.26
1683.15
1623.21
1484.24
1466.56
1380.58
1338.4
1236.04
1175.54
1081.4
1023.8
953.436
914.239
873.571
41620.2
13627.9
7561.4
4923.55
3550.05
2454.02
2094.54
1694.22
1590.06
1431.95
1384.97
1287.34
1233.82
1129.8
1062.76
969.899
906.401
838.457
796.839
758.125
21452
13917.4
7767.77
4634.54
3523.37
2526.89
2192.63
1784.93
1637.41
1452.24
1384.35
1272.88
1207.91
1095.35
1008.37
895.991
811.826
731.521
679.731
637.533
20345.8
11402.7
8147.94
4816.91
3787.38
2721.8
2386.35
1923.22
1679.62
1430.35
1333.42
1213.56
1135.44
1023.7
921.134
802.251
702.38
613.348
548.628
505.87
38835.2
10052.7
7349.58
4920.6
3792.21
3074.01
2428.57
2000.05
1647.01
1422.37
1310.26
1194.19
1108.78
984.329
852.624
711.128
592.84
497.161
440.175
416.068
23044.9
11215.1
8779.55
4892.44
4010.27
3241.96
2574.86
1984.01
1656.34
1407.07
1292.99
1176.51
1098.25
989.582
800.981
643.148
527.695
453.785
418.542
406.193
18268.7
15001.2
7813.86
4456.63
3369.36
3125.91
2683.99
1990.76
1647.35
1413.92
1256.94
1127.15
1045.34
967.113
837.689
645.73
555.676
510.363
493.805
491.528
14577.3
12473.6
6815.76
4200.19
3268.36
2740.3
2512.03
2082.41
1697.65
1380.23
1111.54
902.832
879.506
882.267
812.28
713.147
682.815
680.34
691.68
704.587
30309.6
10859
5685.71
4370.82
2875.46
2527.47
2222.89
1916.99
1627.2
1282.85
947.427
728.055
746.218
793.421
785.167
787.58
800.186
824.042
851.311
869.883
12861.1
8374.41
6860.82
4235.06
3079.45
2424.06
2162.13
1764.16
1461.42
1140.7
897.887
784.441
786.995
777.329
772.314
818.859
845.239
882.262
903.159
918.805
12180
9368.61
6404.88
5051.88
3488.8
2816.17
2161.06
1576.68
1251.38
970.779
840.549
754.036
739.816
725.019
756.914
777.601
813.177
837.995
851.397
861.548
9424.21
8436.88
7412.81
4720.32
3760.77
2477.05
2112.14
1484.97
1180.29
942.217
820.286
732.357
696.267
671.033
675.67
684.776
707.132
726.098
740.218
759.12
41676.5
16675.9
6543.01
4915.06
3228.2
2466.55
1858.85
1434.13
1142.19
933.669
811.571
710.827
658.222
619.164
606.739
602.416
607.89
621.505
636.41
657.39
19619
12950.5
6400.86
4662.72
3242.4
2328.14
1729.86
1321.7
1078.12
907.625
802.739
708.019
652.812
599.785
575.276
555.049
548.217
542.701
541.108
544.56
12005.6
10014.2
5204.56
4656.41
2942.05
2399.1
1703.59
1359.57
1103.41
948.511
838.578
737.486
674.183
605.822
567.28
529.296
511.487
491.317
479.846
474.08
26246.9
8637.12
4432.35
4007.88
3031.95
2298.56
1906.53
1447.14
1233.18
1010.12
913.839
800.307
744.782
677.263
642.67
602.448
585.574
561.973
549.473
539.735
7537.38
5187.52
3882.91
3157.56
2346.33
2006.3
1800.08
1464.54
1328.16
1072.64
977.794
809.065
745.698
654.001
611.878
569.365
553.053
542.72
539.566
544.073
1547.82
3076.22
2300.92
1219.57
883.135
758.999
691.33
594.582
503.681
407.034
336.973
275.587
232.711
192.8
165.245
140.342
125.521
110.092
104.176
92.345
902.358
974.429
668.02
1151.73
1010.79
1113.57
775.16
737.057
605.384
477.523
960.593
793.461
686.351
514.543
655.466
906.248
792.975
1100.56
732.181
1023.73
863.811
489.733
752.142
632.921
649.61
521.588
811.465
678.446
157.194
192.027
131.111
790.213
780.872
787.997
783.567
135.479
132.636
156.462
758.825
717.43
795.744
792.371
147.188
157.049
146.097
704.841
671.528
765.349
675.863
149.107
140.884
134.475
663.467
627.858
653.24
608.21
137.984
133.995
131.948
617.1
575.895
595.848
550.773
123.525
130.354
121.898
562.553
505.449
532.855
470.672
102.307
116.917
100.217
487.358
422.29
449.144
388.322
70.7347
94.6047
72.8363
405.699
384.183
371.736
336.972
132.902
125.982
127.993
801.801
803.489
750.805
788.288
156.328
134.823
145.324
816.661
797.575
787.354
733.862
141.231
144.475
136.449
766.357
668.947
706.313
632.631
133.968
133.16
131.14
646.038
602.087
614.799
566.659
132.387
129.943
121.138
589.953
538.197
547.763
480.823
119.692
117.791
104.781
516.689
447.11
458.501
390.756
100.023
97.0167
83.5453
425.704
372.7
372.743
348.832
74.8113
82.4239
69.2607
360.534
339.164
347.156
339.291
121.295
140.185
111.769
738.036
748.3
768.179
695.905
134.321
108.6
106.78
740.734
686.348
666.896
607.501
127.839
106.489
106.723
663.97
604.573
595.078
567.52
120.287
107.21
106.391
590.782
549.876
559.216
522.015
114.752
104.117
93.4632
533.764
476.011
503.869
440.215
96.9395
89.9022
57.8252
456.245
385.614
413.44
319.1
73.1585
54.0503
61.2423
367.057
350.663
308.47
298.64
68.4965
61.4709
58.7221
350.007
337.154
292.853
275.442
104.272
244.923
115.057
773.568
671.139
833.952
682.852
97.8092
115.514
100.412
642.554
597.134
636.935
563.084
110.573
100.176
94.3339
590.936
570.543
543.01
507.225
106.181
97.5487
87.9158
559.264
506.566
494.6
421.541
88.7931
83.1593
64.3423
484.265
411.572
391.877
315.845
54.3654
59.4254
41.3082
380.851
291.758
287.426
230.835
50.0567
41.1644
41.2435
279.052
269.723
224.245
229.993
59.9895
44.9418
46.8956
268.822
270.252
234.548
252.51
993.839
1068.21
978.161
1643.95
1427.14
1533.67
1412.3
851.935
974.933
919.304
1333.18
1143.21
1374.49
1200.77
770.79
880.882
773.166
1096.68
986.027
1139.19
990.984
706.843
746.769
690.754
958.62
878.557
954.956
868.37
642.802
674.552
616.033
856.86
784.97
841.079
746.101
561.626
593.472
519.138
763.385
682.587
712.048
611.625
473.543
494.939
429.731
660.808
596.767
583.4
520.379
436.578
413.191
380.078
586.138
563.62
510.022
499.777
987.791
935.538
941.581
1490.5
1407.71
1373.33
1307.52
923.269
932.287
850.314
1373.47
1202.37
1268.67
1119.47
767.368
816.022
727.526
1139.81
987.72
1070.11
948.17
684.038
706.814
633.938
951.211
859.133
918.64
710.103
598.342
607.214
521.743
828.065
712.638
657.253
522.375
488.05
494.11
421.327
670.915
559.7
484.651
430.164
408.766
405.583
387.021
532.879
485.184
431.588
446.212
375.789
385.663
366.508
480.2
481.452
446.742
429.066
899.861
950.645
837.934
1359.83
1258.8
1364.15
1175.25
802.288
801.974
724.571
1214.64
1075.96
1123.88
1002.59
700.941
706.952
664.775
1033.01
927.575
969.834
883.554
620.495
651.892
600.062
902.589
701.677
856.278
758.743
521.166
577.294
499.527
651.34
538.684
722.237
610.844
425.629
468.156
376.963
511.819
472.139
574.235
495.632
395.278
364.825
343.932
472.424
466.645
479.937
438.647
363.526
335.565
309.46
458.254
421.035
425.615
391.872
816.806
1067.98
844.441
1373.15
1161
1505.36
1199.99
715.981
781.764
675.271
1109.55
990.9
1106.73
928.067
662.455
646.358
594.541
957.91
866.654
878.714
784.336
579.764
577.195
486.815
835.783
729.175
750.513
617.663
467.279
452.266
368.137
690.767
576.712
575.261
478
345.058
338.303
279.776
539.108
462.52
448.259
391.682
315.386
272.855
274.42
447.562
416.547
383.258
377.38
304.902
278.133
289.025
408.465
388.511
377.761
377.69
1538.63
1671.56
1526.42
2190.65
1814.68
2052.28
1824.3
1221.06
1476.49
1273.8
1683.65
1421.12
1738.77
1467.86
1042.73
1206.89
1048.26
1353.54
1197.33
1389.3
1203.1
922.938
1009.26
912.58
1157.09
1044.6
1154.11
1023.78
820.341
881.528
775.294
1013.96
918.185
980.835
843.053
713.348
738.095
632.283
891.336
803.625
799.053
690.547
630.253
604.269
546.612
783.695
726.686
667.913
631.47
593.224
538.887
530.587
715.198
670.406
627.629
612.163
1519.71
1498.67
1407.6
1996.7
1813.78
1829.99
1672.84
1275.05
1360.15
1192.87
1733.79
1470
1604.49
1395.62
1045.73
1139.51
1007.45
1391.19
1201.77
1331.88
1170.08
1007.89
970.598
999.87
1056.86
960.57
1017.88
1051.13
801.514
826.758
829.554
900.804
778.605
855.966
859.545
575.55
441.48
419.882
741.27
625.936
473.821
461.68
507.988
431.001
456.885
606.797
588.467
473.329
502.051
510.573
458.444
447.968
590.004
591.309
508.403
519.979
1356.9
1477.43
1268.16
1802.58
1617.55
1768.1
1516.56
1151.34
1212.38
1077.76
1549.97
1359.15
1449.3
1276.9
988.018
1040.05
938.761
1301.34
1150.25
1224.32
1073.96
922.31
858.081
940.78
1000.92
885.461
763.542
991.399
700.43
546.221
734.061
463.952
693.608
428.945
744.837
469.819
596.413
521.206
497.348
499.159
644.19
577.679
477.079
504.776
460.736
506.256
510.326
561.966
521.721
437.75
447.254
413.254
508.107
504.711
510.016
483.911
1254.43
1622.69
1292.26
1777.3
1499.58
1898.34
1511.07
1063.24
1191.63
992.753
1429.38
1250.08
1393.94
1148.36
917.496
937.588
830.899
1195.45
1040.66
1081.84
938.946
761.786
792.021
648.278
988.443
829.563
885.771
718.53
600.286
603.983
506.142
779.034
652.945
673.212
579.275
490.437
477.151
422.078
620.199
558.303
553.738
505.191
441.972
413.415
405.651
544.679
513.232
497.128
487.405
410.785
405.412
402.23
504.307
482.523
485.586
478.087
1893.02
2170.96
1913.34
2605.05
2081.43
2484.48
2142.05
1483.02
1817.35
1530.62
1934.12
1657.37
2022.17
1715.02
1249.91
1449.75
1255.06
1589.06
1413.45
1633.27
1416.31
1087.94
1202
1058.94
1361.82
1237.39
1350.05
1173.27
955.678
1012.12
866.112
1203.86
1101.83
1118.94
967.766
841.126
821.331
718.377
1072.57
1000.61
929.7
869.379
765.046
699.233
669.403
983.004
926.85
863.361
845.962
699.28
665.287
642.514
906.572
828.222
838
788.268
1902.44
1929.44
1754.5
2421.03
2133.03
2192.75
1977.88
1533.91
1681.33
1463.7
2021.7
1723.72
1897.79
1671.34
1253.34
1396.81
1218.35
1640.2
1409.97
1595.38
1359.25
1043.41
1163.62
879.293
1339.41
1144.05
1279.42
1025.89
812.898
787.598
577.935
1080.52
900.902
937.684
720.887
652.35
531.046
495.337
857.092
802.852
675.783
649.432
626.71
502.791
532.941
804.706
809.8
666.851
716.421
622.497
540.805
553.303
807.712
772.734
724.194
721.245
1698.13
1854.39
1593.9
2145.91
1922.05
2084.35
1812.28
1428.56
1523.76
1340.54
1848.08
1639.99
1736.6
1529.86
1197.11
1283.14
1114.23
1567.43
1333.35
1459.32
1230.95
845.676
1057.13
882.466
1252.94
996.261
1153.09
946.165
587.491
827.309
692.694
913.004
721.777
889.141
764.032
524.216
659.671
597.935
681.147
656.595
739.278
716.143
536.022
584.352
550.156
670.666
707.404
717.6
710.552
537.564
539.972
516.704
711.781
707.018
704.659
685.222
1574.3
1973.42
1570.72
2090.84
1782.32
2169.18
1720.34
1308.31
1448.63
1192.85
1699.17
1479.91
1585.81
1320.76
1077.34
1124.04
970.269
1409.32
1186.76
1252.57
1065.74
847.935
912.587
741.651
1110.43
915.816
995.747
837.119
670.282
696.995
606.39
864.478
755.865
801.032
726.556
583.351
582.042
537.362
734.747
716.033
706.687
681.939
544.505
530.155
520.924
715.74
706.704
678.397
673.711
515.247
518.784
510.507
700.638
681.176
669.652
662.269
2140.72
2577.99
2208.55
2964.19
2416.09
2894.91
2447.84
1715.4
2082.54
1772.71
2260.12
1953
2313.49
1993.06
1468.55
1691.15
1465.9
1880.74
1713.73
1911.78
1676.8
1290.45
1395.39
1211.12
1649.92
1520.24
1599.67
1407.48
1156.56
1156.47
1011.19
1485.6
1402.16
1354.89
1235.42
1062.18
978.015
936.637
1370.97
1319.52
1217.51
1229.62
988.849
934.151
918.085
1303.7
1255
1235.06
1228.24
881.25
908.964
850.638
1232.24
1120.66
1219.59
1135.35
2199.84
2274.34
2046.44
2811.38
2429.52
2577.71
2277.15
1782.16
1964.74
1734.81
2305.99
1996.51
2193.33
1948.98
1456.33
1655.2
1398.07
1911.89
1655.57
1864.57
1571.56
1175.59
1311.34
1057.06
1570.88
1355.33
1471.46
1215.36
940.244
971.985
764.942
1294.58
1155.58
1142.25
982.211
872.605
725.925
722.59
1138.74
1175.16
968.287
1043.28
885.97
747.257
800.403
1195.69
1209.29
1090.95
1155.1
837.294
806.398
794.702
1205.19
1128.23
1158.73
1107.57
1992.24
2157.23
1883.27
2548.55
2230.17
2461.95
2131.8
1704.68
1805.42
1589.52
2152.96
1921.59
2051.88
1812.04
1370.77
1514.19
1265.56
1837.8
1542.33
1729.18
1453.29
1027.73
1181.75
971.422
1440.97
1187.35
1361.38
1157.01
763.562
916.87
802.068
1118.9
974.65
1112.47
1033.6
724.557
782.614
779.575
962.505
1035.85
1030.22
1090.81
789.658
787.201
787.204
1082.55
1145.06
1114.6
1135.88
782.185
782.31
761.687
1149.27
1101.83
1134.64
1085.81
1850.87
2232.53
1777.61
2412.38
2100.27
2473.62
2077.34
1536.04
1637.58
1369.02
2013.58
1762.57
1924.19
1607.78
1222.07
1301.66
1105.36
1682.96
1425.84
1543.76
1375.12
946.087
1031.82
883.667
1339.66
1157.19
1294.99
1157.14
800.522
851.533
783.801
1119.86
1059.89
1134.52
1107.85
783.364
765.557
748.809
1058.74
1109.96
1089.81
1078.62
782.802
746.629
743.087
1122.05
1134.13
1077.26
1088.78
757.311
738.389
731.377
1131.95
1085.26
1078.45
1033.66
960.342
936.476
874.685
941.35
917.953
979.853
911.162
977.013
988.058
877.221
1016.35
933.796
1040.05
831.976
889.941
796.901
755.836
521.104
863.3
807.381
624.704
1053.23
1104.9
1104.82
1146.26
1062.27
1099.62
1096.15
1002.1
977.249
1058.49
982.887
1020.26
947.769
1041.6
1025.25
1058.46
1137.57
1009.99
1089.63
864.95
1075.51
936.609
558.555
908.707
884.495
847.966
663.155
993.916
738.126
782.929
665.616
757.531
721.857
807.395
677.949
653.502
735.498
548.349
460.616
669.433
733.573
404.023
568.755
539.75
502.695
410.289
596.795
518.868
388.039
826.221
931.814
906.387
920.158
882.108
890.141
851.93
757.961
775.703
849.833
713.912
829.176
693.762
781.249
679.751
489.781
824.643
613.759
766.567
431.045
737.556
589.198
424.279
588.814
560.055
537.376
407.805
652.73
852.407
739.288
778.248
514.535
828.038
598.543
794.452
928.8
925.191
870.813
949.836
888.241
972.612
908.824
880.607
804.917
832.571
820.861
846.569
832.89
865.275
966.326
1044.27
979.999
1081.28
802.005
1038.96
1010.79
887.25
534.474
839.098
856.317
626.802
819.922
929.979
965.591
988.544
1054
971.174
1015.3
941.826
998.759
911.283
843.954
880.13
917.305
857.569
893.048
939.156
663.156
505.752
620.569
425.2
656.527
421.421
626.42
741.462
763.587
711.223
775.832
722.831
786.285
731.798
699.941
647.824
670.961
650.438
684.084
661.861
689.427
712.425
476.708
584.954
791.781
436.23
762.91
734.178
671.629
436.866
541.97
649.787
424.526
635.562
687.283
757.082
795.019
823.642
762.439
805.737
748.247
771.439
712.885
665.082
684.178
717.604
673.307
704.385
724.817
286.629
397.051
288.328
695.792
711.922
687.893
685.295
274.254
240.882
232.9
671.508
645.197
628.186
622.014
235.447
231.556
228.348
618.134
593.222
613.892
601.293
212.003
226.403
224.954
540.339
523.591
580.403
566.633
195.465
221.147
216.485
515.291
503.559
549.22
529.22
176.66
206.426
195.964
484.003
461.993
502.583
471.424
151.013
181.986
165.693
438.476
416.53
437.132
402.186
117.447
154.687
130.677
392.259
407.467
374.566
380.743
369.088
435.874
327.23
844.675
704.741
827.945
696.642
313.513
195.342
216.472
352.458
333.39
321.105
166.815
355.222
135.542
128.36
305.94
302.484
336.578
129.463
402.788
143.603
143.725
332.158
340.398
398.201
146.718
400.475
152.569
151.303
369.469
376.323
401.968
151.651
374.849
145.329
144.761
385.112
380.417
381.724
141.8
339.94
132.017
133.013
361.923
351.148
349.667
129.74
291.576
114.268
118.474
320.024
304.719
305.669
113.27
235.485
88.0049
97.0413
263.169
247.068
248.456
91.4947
114.082
133.739
101.261
341.082
370.742
309.095
331.042
266.182
266.445
230.026
668.347
664.208
619.925
624.306
340.603
143.862
147.161
311.336
334.516
301.9
130.744
436.339
144.473
137.124
389.679
420.878
416.259
145.047
418.083
153.923
153.337
442.483
428.394
435.657
150.189
368.771
134.387
136.099
378.862
369.991
375.131
134.818
354.072
134.261
135.308
359.665
355.572
358.926
134.902
313.805
127.332
127.955
334.235
323.762
325.981
124.317
260.089
109.982
110.074
286.123
272.872
272.749
105.507
225.776
90.1368
92.8019
237.365
230.795
231.463
88.8681
94.9646
133.414
85.7536
289.656
302.915
277.007
270.057
227.621
246.558
247.6
642.395
665.128
684.339
739.679
315.339
112.709
125.504
285.135
326.805
289.946
111.733
345.82
132.614
113.088
376.962
381.902
342.169
116.379
327.326
132.825
117.636
370.071
364.072
333.826
116.207
304.137
123.105
109.651
339.101
334.244
307.114
108.541
300.508
117.996
108.234
323.55
318.36
302.411
108.175
271.457
110.732
105.052
296.922
287.8
283.858
101.806
177.278
77.2024
67.4478
218.598
203.233
181.857
63.0673
212.017
78.2906
74.0578
209.918
214.436
207.436
77.1322
79.0951
106.841
82.767
259.098
246.133
238.073
241.256
258.96
347.07
338.556
671.726
723.967
684.237
676.709
302.59
117.092
154.117
311.069
318.75
304.784
118.024
272.89
97.3962
93.5579
294.134
288.164
275.18
91.2483
305.971
104.211
99.1675
298.161
307.567
297.214
104.377
301.7
110.9
109.468
317.2
313.772
309.726
108.091
249.241
96.903
95.4676
281.555
267.577
263.765
90.6517
176.787
74.0992
73.096
226.147
200.9
201.412
64.1472
122.708
47.9583
41.6316
142.302
142
122.295
41.6061
150.768
56.4459
50.2722
151.246
156.474
141.839
54.6924
95.7441
103.363
97.3877
245.391
249.689
236.99
251.026
263.494
364.656
243.516
682.847
680.86
696.721
697.021
180.086
207.733
198.189
560.308
508.261
583.683
487.841
163.274
173.991
155.627
469.495
453.22
463.094
430.402
136.985
148.441
138.853
412.977
362.806
364.574
309.379
103.738
117.673
97.7203
315.8
275.358
272.666
241.627
71.7962
87.0698
76.2598
226.063
192.81
199.852
175.875
65.8606
68.633
61.7721