/*--------------------------------*- C++ -*----------------------------------*\
  =========                 |
  \\      /  F ield         | OpenFOAM: The Open Source CFD Toolbox
   \\    /   O peration     | Website:  https://openfoam.org
    \\  /    A nd           | Version:  10
     \\/     M anipulation  |
\*---------------------------------------------------------------------------*/
FoamFile
{
    format      ascii;
    class       volScalarField;
    location    "2.7";
    object      nut;
}
// * * * * * * * * * * * * * * * * * * * * * * * * * * * * * * * * * * * * * //

dimensions      [0 2 -1 0 0 0 0];

internalField   nonuniform List<scalar> 
12920
(
9.84237
10.7039
5.6245
6.21693
2.81581
3.66905
2.04488
2.23113
1.58466
1.55976
1.27203
1.19197
1.04782
0.96439
0.830991
0.733468
0.688394
0.649905
0.610382
0.546366
1.02627
9.51655
8.24723
6.82094
5.02802
5.21846
3.88167
4.18942
3.37518
3.79731
2.78523
2.53277
1.94952
1.81794
1.71222
1.76876
1.78855
1.82761
1.81547
1.62886
4.52176
11.7795
8.77938
6.96018
5.92245
5.23798
4.53533
3.99906
3.38644
3.22377
2.56675
2.69386
2.29414
2.36896
2.27562
2.3518
2.36179
2.42861
2.3673
2.05482
17.3767
12.1695
8.71002
7.6927
5.77162
5.18836
4.4397
3.90847
3.49697
3.24514
3.07187
2.97778
2.88939
2.81664
2.48933
2.38262
2.19818
2.12262
2.13459
2.02923
10.9883
12.9261
9.68097
8.3808
6.25032
5.25053
4.4043
4.03675
3.76549
3.56708
3.40193
3.27586
3.16032
3.07892
3.03111
2.95899
2.65632
2.31708
2.18288
1.87308
5.35542
12.3066
10.8316
9.31213
7.37846
6.18539
5.06424
4.4504
4.09166
3.77642
3.56088
3.38196
3.25323
3.16393
3.11217
3.00996
2.84631
2.54199
2.23927
1.60127
2.75108
12.4542
11.1948
9.49543
7.51674
6.4379
5.46585
4.86323
4.42523
3.97427
3.73018
3.55509
3.39913
3.26844
3.18742
3.09719
2.87799
2.56045
2.14027
1.39387
1.88492
11.8177
11.3408
9.45227
7.17261
6.04268
2.06687
1.84615
1.79968
1.67322
1.60187
1.53929
1.44752
1.28454
3.38281
3.21783
2.96717
2.58482
2.06223
1.47887
1.43862
10.0016
10.6923
9.0517
6.9969
2.42657
0.79454
0.636446
0.667256
0.687376
0.681405
0.565596
0.460522
0.358478
1.11388
3.24354
3
2.56803
2.06647
1.58377
13.5459
15.6629
11.3611
8.19001
5.87882
1.99433
0.723189
0.421099
0.55004
0.543077
0.542646
0.470271
0.346881
0.260482
0.877513
2.9322
2.86974
2.57944
2.07543
1.80612
1.94236
6.72351
7.98859
3.77827
5.06468
1.27941
0.617828
0.634622
0.581563
0.484637
0.401703
0.349479
0.249823
0.214782
0.869907
2.7152
2.68017
2.55482
2.26067
2.23463
0.89097
9.73345
9.78168
7.78091
5.60802
1.80356
0.66174
0.560231
0.456111
0.47788
0.441239
0.366024
0.293936
0.410606
1.18096
2.76701
2.65982
2.56715
2.49525
2.32301
7.38211
11.3606
10.7019
9.48612
7.68162
6.07671
2.1337
1.5936
1.45465
1.38673
1.23227
1.0363
0.914005
0.924456
2.51607
2.53024
2.52439
2.50102
2.45519
2.12647
8.18847
14.7132
10.1526
8.39805
6.64321
5.48641
4.57386
4.01382
3.64127
3.27671
2.9135
2.58384
2.34688
2.18706
2.09601
2.08339
2.11625
2.18471
2.20327
1.95008
20.6249
16.0099
8.53878
7.61725
6.62043
6.13364
4.91033
4.32067
3.6429
3.23721
2.8896
2.59432
2.35242
2.17148
2.05415
1.96201
1.90464
1.89385
1.89432
1.8654
10.5296
10.6662
8.70284
8.15146
7.02616
6.60848
5.5092
4.7203
3.73319
3.14017
2.75295
2.53334
2.35573
2.23655
2.12724
2.02773
1.96027
1.88803
1.85969
1.80583
19.138
10.9862
8.36049
7.34245
6.62071
6.28551
5.70414
5.132
4.19225
3.34024
2.80161
2.58375
2.46124
2.35397
2.26065
2.14531
2.07506
1.95163
1.87785
1.72901
15.9986
12.0849
7.8221
5.68918
4.47333
4.93199
4.12074
4.55464
3.44225
3.35208
2.94217
2.76403
2.64084
2.53926
2.44706
2.34306
2.29477
2.21612
2.15893
1.8556
14.9747
15.4379
8.04301
5.39354
4.37057
4.4066
3.85318
3.97491
3.56531
3.36729
2.92601
2.88025
2.58824
2.61767
2.54825
2.46204
2.38476
2.13652
1.86564
1.49695
11.561
14.8225
6.08883
5.11056
2.48996
4.09823
2.45772
3.15331
1.83563
1.8522
1.30645
1.23574
1.03163
0.954767
0.834373
0.762043
0.70055
0.621018
0.572406
0.475007
7.64075
33.1342
27.8275
20.7623
14.5497
14.9349
12.8273
14.2159
11.9042
12.0204
9.06478
8.10456
6.61743
5.96011
5.50457
5.39278
5.23956
4.77592
4.24009
3.58075
5.12442
41.0573
32.4255
24.261
19.6899
21.0622
20.4489
21.1128
19.8481
19.469
18.2893
17.1132
15.5796
14.3299
14.012
14.2666
15.2059
15.8528
15.8267
14.7814
40.6235
57.7526
41.563
33.2271
29.9206
26.898
23.6147
21.3506
18.063
16.4896
14.8121
14.4541
14.3971
14.8406
15.537
16.1088
16.3247
16.1559
15.4299
14.0788
57.3403
58.6046
38.0146
29.0473
22.9296
24.0574
21.0134
20.5005
18.1781
17.3655
16.0435
15.5149
14.6847
14.3587
14.0443
13.8849
13.8212
13.5915
13.0182
12.3683
27.2075
50.8468
35.2323
28.757
18.3631
18.7265
17.9705
20.0338
19.0843
19.1047
18.1661
17.81
17.0293
16.628
16.1764
15.6179
14.7024
13.0099
11.8039
10.8855
25.7909
39.4138
37.5751
36.261
27.0023
23.0601
19.9348
21.3555
20.9148
20.4901
19.5569
18.5471
17.6894
16.9877
16.3772
15.5542
14.4477
12.7923
11.3501
8.48131
25.093
48.5239
41.8611
37.0009
27.2581
27.3992
24.145
24.2572
22.8241
20.9353
20.0224
18.8851
17.8646
17.0303
16.3915
15.5196
14.1862
11.9039
9.16217
5.60192
22.8162
43.7347
45.4841
39.2343
26.4105
26.6868
19.7757
20.4071
20.5742
20.0958
19.4066
18.3726
16.9719
15.441
16.4871
15.4481
14.0079
10.9056
7.35732
5.27369
16.959
50.4491
41.234
35.8494
24.3688
18.5894
15.1242
16.6329
19.3201
19.721
19.1214
17.9305
15.8482
13.6509
13.9478
15.5327
13.882
10.4385
7.10905
6.79237
13.8215
26.5386
26.4559
18.3969
17.9929
19.0743
16.6324
18.1861
19.6687
19.1154
18.6344
15.63
12.0905
10.123
10.218
14.1546
13.74
11.1558
9.03284
10.3252
5.44158
27.8992
35.804
26.3447
25.2865
20.2884
18.1575
18.7355
18.3068
17.6446
15.2213
12.5739
10.614
10.4088
9.15737
13.0521
13.2536
12.5858
12.577
13.4575
4.23475
32.7112
35.1677
32.2198
24.2616
21.5861
18.1759
16.1766
16.2648
16.1144
14.7229
12.1213
11.0895
12.0957
12.9613
13.673
13.4315
13.5377
13.8403
13.9759
10.3697
43.7052
41.0119
33.1454
22.2366
25.718
19.2711
17.3759
17.0821
15.6954
13.0792
10.7174
10.5645
11.7266
13.6871
13.4849
13.3072
13.3797
13.0407
12.4985
14.6
46.7406
43.5691
35.5092
27.1957
27.7272
23.0646
20.1055
18.3115
16.231
14.0634
12.5053
11.7349
11.3272
11.1773
11.3233
11.5776
11.6271
10.8987
10.1991
40.7359
24.8251
34.0135
34.1011
28.9653
29.0548
22.926
20.8883
17.1575
16.2611
14.7071
13.6987
12.4967
11.6598
11.245
10.7204
10.2322
9.90934
9.54954
9.35316
16.1138
34.7001
37.148
37.3778
32.7014
30.5611
23.9667
20.0256
15.1903
14.3999
13.7282
13.6772
12.7965
12.2856
11.5321
10.9967
10.5799
10.221
10.0145
9.92808
31.3216
38.5467
36.5011
28.7629
30.0778
27.6913
23.0927
18.7946
11.2745
11.0262
12.865
14.1315
13.6514
12.9341
12.212
11.4813
11.0028
10.3554
9.94874
9.21867
49.8273
30.289
17.1957
16.8577
16.9172
18.4561
16.5996
15.4011
12.2692
13.6594
14.3308
14.8738
14.234
13.6237
12.9854
12.2935
11.8984
11.295
10.9226
9.96355
40.6784
29.3857
23.9521
22.2896
21.6256
21.4444
18.8451
18.3324
15.5895
15.228
14.2129
14.1662
13.7893
13.4877
12.9692
12.4173
11.8811
11.1713
10.6464
9.65739
24.5439
23.4869
19.7074
18.4103
12.1178
14.1382
14.0104
13.6338
12.7921
12.067
11.0613
10.8375
9.01193
8.49292
7.13427
6.60102
5.71562
4.51591
3.74808
3.12059
4.04202
19.2048
29.4106
22.7396
17.156
16.3756
14.6375
15.2861
13.5926
13.1469
9.95853
8.55936
7.31833
6.79011
6.51859
6.18216
5.50136
4.64077
4.05919
3.38645
24.3422
46.2893
48.8815
39.9929
35.2105
34.265
30.797
29.639
27.1189
26.7109
25.4006
24.9223
24.1618
23.7126
23.4404
23.25
22.9999
22.281
20.3199
17.9868
34.0834
70.3217
62.3784
51.0523
46.1256
40.7398
36.384
33.2505
29.9433
28.3811
26.7977
26.3456
25.8631
25.5924
25.2133
24.6432
23.9315
22.8887
21.9444
20.5487
65.6171
72.0769
62.0166
51.0161
44.4191
41.4049
36.6708
34.1856
31.1739
29.6844
27.968
26.9378
25.631
24.5758
23.6026
22.755
22.0104
21.0751
20.2897
19.0117
69.9918
71.7147
59.0908
48.615
37.8155
37.6899
35.676
35.1727
33.0025
31.5446
29.8344
28.52
26.9783
25.5825
24.2387
22.8063
21.3069
19.5334
18.3073
16.5072
17.5743
44.7642
53.716
53.1795
43.501
40.0098
37.6979
37.5324
35.3664
33.0027
30.8904
28.9806
27.2395
25.5476
23.9042
22.0943
20.2376
18.0995
16.2746
12.8896
55.5789
59.5037
57.5923
51.677
43.4008
43.8629
41.0848
39.4107
36.5895
33.3576
31.0838
28.9973
27.0889
25.3698
23.582
21.5193
19.1252
16.1401
12.9344
9.14941
36.2371
52.5674
58.5666
54.7133
44.9789
45.3473
39.6554
37.5106
35.2491
32.4731
30.1966
28.0091
25.8576
23.8889
22.8829
20.8511
17.9987
14.2237
10.8516
8.91669
39.263
50.8785
56.7216
50.5767
42.8306
38.6274
35.5332
34.824
33.6197
31.4565
29.2196
26.559
23.2946
21.2345
20.8925
20.1926
17.3913
13.957
11.5319
11.1112
35.4197
64.2923
55.4912
45.1796
40.8189
37.9635
34.9538
34.9004
33.1658
30.7291
26.546
18.7414
13.9844
13.8893
17.1678
19.2351
17.8893
15.6174
15.1088
16.393
40.5366
33.0206
46.7771
48.8805
45.5915
39.7882
36.4548
34.1559
31.4405
28.233
6.81708
7.59143
11.1148
13.2457
14.6277
18.0611
18.8142
18.978
19.543
20.3704
15.4018
55.1621
60.2879
54.3147
47.0473
40.4346
35.9275
31.4234
28.945
26.5689
23.2244
19.6123
18.2638
17.6753
17.0686
18.3681
19.3685
20.1954
20.7884
21.1059
25.0044
56.6251
59.1796
52.764
45.3856
44.881
37.8193
32.0376
28.6618
25.1403
21.3565
18.8671
18.4502
18.6357
19.1367
19.4151
19.651
20.0381
20.0909
19.9027
5.31316
37.4536
58.4854
55.6982
49.0624
44.3234
37.8152
32.5002
28.7473
25.3957
22.3998
20.4679
19.3508
18.5888
18.296
18.3606
18.4977
18.44
18.0668
17.7274
15.9707
61.4792
58.3288
53.6912
48.8065
42.7826
36.5435
31.7809
27.8913
25.5321
23.1504
21.2173
19.6065
18.3739
17.6154
17.0297
16.7599
16.5073
16.3617
16.1515
18.3059
57.6501
57.2105
54.1547
49.1872
42.6706
34.8959
29.3879
25.6539
24.2573
22.7143
21.2495
19.7292
18.4827
17.383
16.5257
15.9622
15.4578
15.2223
14.774
47.8904
60.0355
54.0224
44.708
44.6772
39.0602
32.0363
27.1955
22.0502
22.8104
22.7776
21.7899
20.2965
18.8616
17.6734
16.5379
15.757
14.7748
14.1995
12.9245
74.5478
47.7399
38.3403
33.178
32.7328
32.8655
29.571
27.9956
24.8071
24.7822
23.3572
21.871
20.3466
19.0935
18.0588
17.0025
16.3204
15.3884
14.8854
13.6693
48.3513
41.4386
40.0732
35.5058
31.7008
32.0253
29.8954
29.3526
26.4468
24.7898
22.351
20.6378
18.9357
17.7247
16.6242
15.5707
14.6385
13.5852
13.0032
12.3728
40.7055
36.579
33.388
28.7873
19.0333
16.7597
15.1078
14.7409
14.1614
13.3339
12.4508
11.7061
10.3277
9.46653
7.85004
6.84292
5.49898
4.25013
3.87122
3.58803
7.18971
33.376
30.3696
22.827
18.6893
17.559
15.8972
15.0198
11.1823
8.88726
7.40612
6.4391
6.0759
5.69886
5.34858
4.7498
4.22518
3.67625
3.43274
3.24014
13.337
39.6534
54.7036
46.7359
41.17
37.2562
32.2319
30.4477
28.3676
28.5834
27.9976
28.1635
27.679
27.1102
26.4005
25.3304
24.3651
22.9373
21.651
20.3506
60.3991
80.7931
71.2111
59.7117
51.8022
45.2985
40.2214
37.365
34.6015
33.4947
32.1447
31.4583
30.4772
29.2586
28.1131
26.8037
25.7045
24.4931
23.6252
22.295
78.7884
81.5366
76.2822
63.2659
55.3692
48.128
42.7836
39.3503
36.3672
34.7812
32.9985
31.6819
30.1357
28.4463
27.0346
25.6196
24.4509
23.1007
22.1202
20.3648
92.2855
85.9359
75.4123
61.6278
52.504
48.368
44.6771
41.7271
38.7827
36.3745
34.2815
32.3428
30.4417
28.3559
26.5226
24.6043
22.8895
21.0058
19.6092
17.3301
35.0879
58.0386
70.1367
64.0556
54.8737
50.2395
47.3189
44.5005
41.0031
37.4182
34.8772
32.4722
30.2617
27.8409
25.524
23.1667
20.9268
18.5607
16.7019
13.5528
52.2856
67.7576
69.4258
62.7023
55.404
53.8154
50.0288
46.0697
41.4586
37.4761
34.504
32.107
29.7344
27.2265
24.5574
21.7833
18.8774
16.0163
13.2999
10.1481
52.3573
57.7895
65.8607
63.9421
57.065
55.8623
50.7412
45.0287
39.9586
35.6155
32.4671
29.851
27.6583
25.5513
22.5391
20.156
17.2157
14.3129
11.8158
10
22.3199
66.7392
64.5207
60.9992
55.0363
52.787
47.6953
43.0603
37.5255
32.9203
29.6239
26.5044
23.9841
22.576
20.6602
18.9704
17.0141
14.7575
13.0045
12.5559
71.9288
71.1817
66.2445
58.6124
54.6089
50.6546
46.7152
42.014
36.3295
31.9434
26.5581
19.6092
16.3826
17.2289
18.1637
19.0359
18.7173
17.9713
17.7332
18.4973
58.9158
56.9781
67.3045
60.0697
54.702
50.0469
45.9023
40.1486
34.8947
30.0096
13.1298
11.2425
12.9999
14.4496
15.9277
19.4128
20.944
21.5189
22.1556
22.7587
22.9861
62.6702
71.3614
66.1438
57.8321
50.2115
44.8832
37.7546
32.7039
28.4634
23.9726
20.2018
17.7389
16.2665
15.9133
19.8082
21.7363
22.8501
23.5152
23.8106
57.2881
69.9422
73.4637
66.6008
59.6626
52.4571
45.6299
37.5238
31.5553
26.8221
22.5952
19.9831
18.5864
18.0013
19.3474
20.9722
22.0366
22.6256
22.8818
22.8321
10.9411
46.3321
71.8994
68.5703
60.6242
51.3023
44.0255
37.2647
32.1494
28.3395
25.0519
23.0203
21.5045
20.6342
20.4754
20.5079
20.7285
20.888
20.9582
20.6733
58.7683
69.6733
59.8662
64.7149
57.8349
48.2354
42.4592
36.4386
32.2089
28.5476
25.7525
23.2726
21.5598
20.1275
19.3178
18.8354
18.5874
18.3764
18.4525
18.1564
53.0659
63.3737
69.7117
63.8595
56.6827
46.9891
40.0807
34.1485
30.6241
27.6405
25.3983
23.0397
21.3276
19.6989
18.5426
17.5849
16.9687
16.3807
16.0613
15.4365
29.2467
68.521
63.292
54.6756
51.6639
43.9346
37.9479
32.9988
29.526
27.7049
25.6604
23.2896
21.453
19.6482
18.3708
17.1099
16.2246
15.1849
14.4105
13.2121
71.8794
57.3521
50.7891
45.1907
44.2284
41.5173
38.0062
34.7186
31.0861
28.1999
25.4299
22.8749
21.1096
19.5067
18.3971
17.2785
16.6029
15.7568
15.1716
14.0015
33.2924
44.7981
43.248
41.782
36.089
36.4217
34.6239
33.116
29.8912
26.5382
23.3166
20.6239
18.5035
17.0313
15.8015
14.4584
13.263
12.6371
12.7223
12.304
13.9385
25.0163
26.4936
19.7903
13.5179
10.9907
15.3331
14.8274
14.0254
13.079
10.2815
8.25829
6.74863
5.5593
4.67388
3.84207
3.32276
2.93512
2.93014
2.88953
5.88122
21.4268
10.0338
20.9881
8.14544
13.2364
6.64341
8.22024
5.01985
5.97734
4.81958
6.00036
5.36141
5.56362
4.85235
4.60829
4.19629
3.95908
3.83329
3.75718
17.5143
47.0717
49.1897
47.9211
37.0097
34.2686
30.5992
27.4134
26.5951
26.218
25.9685
25.6631
25.0721
24.0431
23.2242
21.985
21.3051
20.4667
19.7345
18.9404
72.9644
80.316
74.0422
49.4145
50.6472
42.9125
37.6401
35.377
32.7141
31.6217
30.3708
29.2758
28.0818
26.4107
25.2696
23.9319
23.0478
22.0359
21.2491
20.3208
77.0641
90.4158
80.987
56.1025
55.2562
45.5696
39.9508
36.6638
33.8281
32.3273
30.7044
29.2334
27.7086
25.756
24.3408
22.7923
21.6879
20.5262
19.6348
18.5824
57.0072
71.5336
82.1171
42.1486
55.3485
39.8055
43.325
40.1258
36.2322
33.8331
31.59
29.5835
27.7057
25.4482
23.5748
21.6237
19.9776
18.3555
17.0959
15.8886
67.161
80.1638
78.6957
60.4116
57.0779
40.187
46.1076
42.2945
38.0032
34.3643
31.9971
29.568
27.3544
24.771
22.3582
19.9356
17.7287
15.7224
14.0895
12.8933
62.4107
41.4447
76.1143
40.3449
57.8287
38.1236
49.5192
38.7161
38.5282
34.7293
31.6925
29.2555
26.7575
23.91
21.0348
18.1543
15.3817
13.1908
11.7297
11.0147
71.8389
62.4645
72.6955
54.9425
59.7085
41.3166
50.7196
43.2448
36.4932
32.1303
28.8066
26.4483
24.2985
22.0691
18.968
16.6192
14.2376
12.52
11.6383
11.3171
71.36
75.0007
70.9906
39.417
56.7986
55.504
49.3982
39.8762
32.5897
27.7218
24.4039
21.9301
20.3527
18.8955
17.0419
16.2663
15.0399
14.0836
13.6954
13.7839
31.8403
48.0367
70.2768
30.5477
56.7295
53.3286
46.273
37.7466
30.6112
25.1381
20.2845
16.1936
15.7256
15.9475
15.9443
17.7362
18.1542
18.3029
18.5711
18.9123
43.042
30.0328
52.3198
23.9857
49.4198
49.9675
44.3363
35.6373
29.398
23.8328
17.5907
13.3552
13.1488
14.1239
15.4272
19.3335
20.6372
21.3337
21.8887
22.085
62.994
70.9043
76.7078
61.805
58.9204
51.2292
43.347
33.8953
27.6979
21.9439
17.3151
14.8657
14.4939
14.2018
15.3601
19.9897
21.4293
22.292
22.6295
22.6626
49.9159
44.4764
77.9769
37.8735
60.6332
26.7879
43.8684
34.5281
27.513
22.2929
18.9374
17.0956
16.3213
16.0077
18.9608
20.4112
21.2654
21.5446
21.6111
21.4435
37.9571
61.8665
77.6015
74.2396
61.5677
41.6204
43.521
23.4663
30.4144
19.8221
23.0515
19.163
19.9509
19.3849
19.4318
19.5006
19.6298
19.6411
19.6795
19.553
87.1572
53.4103
73.8166
34.7109
57.5463
24.4616
41.5289
22.9328
30.4742
21.1575
23.4915
19.9759
19.6286
18.5424
18.1017
17.8425
17.7087
17.6097
17.6507
17.5795
45.0234
73.8018
74.9471
62.4353
56.7185
32.4629
39.3451
22.2133
29.1084
19.6547
23.1524
19.0566
19.283
17.8083
16.9704
16.2826
15.9043
15.509
15.2497
15.0122
43.7012
61.0944
65.3677
37.9188
51.4023
27.6905
37.6811
21.5672
28.8461
22.5769
23.2963
21.0774
19.4067
17.6522
16.5187
15.4001
14.7387
14.0045
13.5181
13.1266
83.8873
44.5587
54.554
38.7846
47.83
39.7489
38.8653
34.2222
29.4191
25.7784
23.1031
20.9556
19.4293
17.9584
16.9547
15.9274
15.295
14.5824
14.1065
13.6506
24.0777
38.9212
42.7608
33.2416
37.2373
33.1882
33.6436
31.0131
26.846
22.9761
20.1498
17.3921
15.9762
14.6091
13.8807
13.2925
12.9761
12.7161
12.4864
12.1767
2.56634
18.931
10.8086
11.5615
5.7196
14.4622
7.83177
13.6788
7.20885
9.28543
4.79401
4.83709
3.34616
3.10144
2.48413
2.33651
2.16138
2.18755
2.17945
1.97719
27.9138
27.8017
8.42409
32.6419
28.7795
29.456
9.24013
20.6493
7.66647
7.05007
27.0971
21.1555
8.41731
8.37231
7.74479
27.0448
24.4139
29.8593
8.28846
29.6007
25.9837
6.71678
23.4706
20.6825
7.47903
7.92479
24.8033
21.7632
0.687514
0.775128
0.401334
8.8492
10.6792
9.69048
11.5219
0.652387
0.407205
0.547654
11.461
13.9879
12.6325
15.2394
0.680342
0.590233
0.609139
14.3241
15.005
15.3813
15.0689
0.684743
0.589691
0.544947
15.1497
15.1789
14.9607
14.8583
0.561129
0.544965
0.513091
15.0271
14.5113
14.7881
13.9851
0.461748
0.495261
0.407123
14.2762
13.2352
13.5346
11.7809
0.362289
0.376058
0.29807
12.8133
11.3696
11.141
9.38907
0.244803
0.281644
0.228453
11.0055
10.8748
8.96449
8.41321
0.419839
0.627796
0.634783
11.5082
12.6761
12.8357
14.3211
0.521757
0.651341
0.607519
13.5354
15.2175
14.4795
14.4397
0.555957
0.580499
0.521191
15.2002
14.8039
14.3513
14.2275
0.544554
0.507452
0.472294
14.7651
14.8054
14.1654
13.4866
0.497333
0.449935
0.383738
14.7053
13.5304
13.0141
11.3071
0.375492
0.364109
0.307023
12.9165
10.9168
10.779
9.26492
0.278352
0.276597
0.22526
10.3368
8.91936
8.87384
8.46462
0.217499
0.219409
0.187903
8.58036
8.18076
8.40722
7.85059
0.618002
0.662192
0.592965
12.7233
13.8349
12.8679
12.6522
0.616819
0.584615
0.503386
14.0177
14.0547
12.5584
12.5665
0.505992
0.472474
0.412074
13.9753
13.6581
12.5592
12.4945
0.420844
0.407504
0.402652
13.5781
12.93
12.452
12.088
0.360157
0.395694
0.36245
12.5537
11.1983
11.8253
10.6921
0.289554
0.345845
0.24202
10.7528
9.1403
10.0779
8.06546
0.209122
0.253553
0.395626
8.72687
8.66495
8.38197
9.59289
0.198455
0.407024
0.430366
8.65613
7.80328
9.55193
9.54389
0.572389
0.87879
0.602414
12.7267
11.923
11.1621
11.5373
0.468449
0.603789
0.562901
11.7784
12.0495
11.5122
11.9774
0.473863
0.561963
0.545102
12.2507
12.5336
11.9777
12.0382
0.458075
0.554404
0.526368
12.4625
11.8252
11.7846
10.4528
0.391503
0.511606
0.45028
11.4918
10.1655
9.86445
8.37282
0.29376
0.406377
0.360794
9.50569
8.13199
7.77845
6.96193
0.3969
0.33384
0.36034
8.4111
9.45481
7.0825
8.25437
0.434851
0.37607
0.384677
9.59794
9.95856
8.56004
9.97291
15.8963
14.9807
16.0894
29.6201
30.7535
29.2654
30.3018
19.0364
17.2524
19.7588
30.8615
31.0854
30.8864
31.1066
19.6647
19.8571
19.4523
30.8836
29.8474
30.7391
29.359
19.3532
19.3165
19.0474
29.4795
28.1035
28.9378
27.4998
18.2581
18.8643
17.4638
27.6366
25.9001
26.7643
23.1899
16.4002
16.7569
14.2129
25.2697
22.8011
21.7294
17.6557
14.0105
13.3792
11.2541
22.0725
20.0741
16.6325
14.7687
13.2857
10.7954
10.249
19.8049
19.4976
14.6971
15.892
17.3619
18.2118
19.2
30.4584
31.0022
32.2667
31.9713
19.7205
19.2764
18.9251
31.2912
31.0223
31.5725
30.0086
19.1937
18.7657
18.4114
30.5768
29.1611
29.4886
27.9064
18.906
18.2942
16.4717
28.7515
26.6989
26.8019
13.9112
16.6049
15.6371
13.1108
25.6078
20.4514
12.5738
10.002
12.8297
12.3779
10.6382
18.6265
14.4982
9.39626
9.0893
10.4595
10.3034
9.99767
13.6853
12.6687
9.56207
11.2805
9.64711
9.94594
8.98696
12.8403
14.649
11.6525
12.3133
18.7013
18.2491
17.2062
32.5337
31.4616
32.1452
29.531
18.4668
16.9926
16.7184
30.98
29.4149
28.9025
27.3933
17.7726
16.6385
16.3473
28.8901
27.2445
26.925
25.5298
15.9331
16.2247
15.5462
26.4489
13.5097
25.0448
22.9498
13.1619
15.1564
13.553
12.1716
10.3202
22.1297
19.5095
10.9307
12.7768
10.8029
10.3078
11.0256
18.6186
17.0039
10.4972
11.0795
11.9041
11.5992
12.79
16.9223
16.4894
9.04978
11.802
11.4418
12.8568
12.4967
16.2223
15.4841
16.444
17.2331
16.2531
32.0785
28.8922
25.8069
29.1143
16.1695
15.979
16.0325
28.2031
26.8117
27.9548
26.2085
16.2692
15.9394
15.7104
26.4225
25.1483
25.69
24.3549
15.187
15.3851
13.6091
24.6358
22.5907
23.6146
20.7857
12.9204
12.8717
11.0358
21.7578
19.0823
19.8613
17.6061
10.7927
10.4024
9.63872
18.2357
17.0623
17.0069
16.3885
11.9922
9.83813
11.053
17.0847
17.0076
16.5242
17.163
12.1106
11.4016
12.4785
16.895
16.2752
17.3122
17.5015
35.0445
34.1355
34.466
41.6116
43.5051
45.2036
42.5763
34.0825
34.6627
33.8927
42.2483
38.8148
41.5663
38.0022
31.974
33.3109
31.4562
37.6311
34.3523
36.7838
33.5889
29.7668
30.9018
28.9969
33.4945
31.0977
32.7004
29.8565
27.2457
28.0714
23.9325
30.3815
27.9756
28.6458
24.1644
24.0021
22.3588
18.2147
27.2777
25.0274
22.7152
19.3783
21.4571
17.2674
15.8167
24.5179
23.2214
18.7892
18.4581
20.8525
15.9747
17.4006
23.0466
22.4002
18.757
19.6584
34.9079
36.2566
35.3363
44.942
42.5183
44.6458
41.6496
33.804
34.7647
32.7272
41.5156
37.9269
40.4674
36.838
31.2941
32.0548
29.8285
36.6995
33.5568
35.705
32.412
29.5897
30.0287
30.3462
32.0523
28.8606
31.1612
31.595
19.1474
24.7868
22.2747
27.0221
19.8517
25.0441
21.7494
14.6749
6.86697
8.09493
19.5357
16.3583
8.30218
10.1153
13.4807
8.94214
11.4308
15.9835
16.4681
10.9734
13.2742
16.1118
12.0017
13.3093
17.0068
18.6988
13.9511
15.8388
34.8142
35.9548
32.8611
44.6119
41.0529
43.7648
39.1636
32.1139
32.0786
30.0991
39.8154
36.2421
37.8577
34.4446
29.226
29.4787
27.6693
35.1478
31.9806
33.3979
30.5523
20.1979
13.7713
27.5867
24.2553
22.5001
3.27311
28.7167
14.5787
6.37929
16.8952
2.35969
16.1445
2.32404
15.0665
10.1096
19.8165
18.2243
8.5878
11.3644
20.9353
19.0366
13.0326
18.0255
17.3013
12.2935
14.0457
18.5541
17.2937
13.4314
16.9961
16.1473
14.405
15.4986
16.9423
16.1752
32.2679
29.7385
32.4946
43.6727
38.6605
34.871
38.7192
29.5124
31.1417
28.7861
37.3091
33.8775
36.9112
32.9958
27.2123
28.0923
26.3208
32.8337
29.9223
31.8498
28.7958
24.1539
25.476
22.4471
28.9602
25.753
27.7368
24.3366
20.4302
21.4818
19.208
24.6494
21.7236
23.3306
20.9215
18.369
18.6283
17.9466
20.9224
19.1732
20.3699
19.1369
17.8598
17.9982
18.2944
18.7358
17.631
18.9315
18.3737
16.8976
18.3577
18.2932
17.3305
16.5638
18.2983
17.912
44.6197
47.1822
43.4722
50.2615
43.3902
47.7234
41.4542
38.8976
42.1193
37.8035
41.2403
35.6871
39.4085
33.8166
33.8386
36.4138
32.9075
34.0011
29.8694
32.2009
28.2626
30.3778
31.9544
28.9894
28.9376
26.2283
27.1555
23.9279
27.1607
27.7768
23.5275
25.4704
23.209
22.8041
19.528
24.4331
22.1831
19.1928
22.7528
21.275
18.6555
17.2265
22.759
18.7133
18.4812
20.9703
19.8002
17.0991
16.8978
21.817
18.6847
19.1812
19.5306
18.3549
16.8147
16.3462
43.3399
46.0575
42.2341
47.1387
41.2348
45.9779
39.7508
37.7229
40.8205
36.6629
39.2166
33.679
37.7925
32.7104
32.9171
35.4142
32.1106
32.0658
28.2082
31.3286
27.609
28.1782
30.122
15.271
27.0655
23.5079
26.3157
20.6296
21.089
13.7792
11.4584
22.1776
18.2643
18.8047
14.7541
16.6887
10.9488
11.4905
17.2185
15.7663
13.8529
12.6941
16.8157
12.0333
13.7583
15.7741
16.0278
12.919
13.947
18.379
14.3122
15.8539
16.0771
15.9673
14.1905
14.7734
41.6022
44.9934
39.7617
45.4807
39.0398
44.4267
37.4678
36.0939
38.2705
34.423
37.1233
32.2592
35.5956
30.9646
31.714
33.2585
30.1818
30.933
27.2727
29.5525
25.792
14.5281
29.1636
25.4835
26.0002
20.3305
24.546
20.7979
11.4259
24.2704
21.2027
18.6279
14.943
19.6412
16.8563
12.4416
20.3606
18.2255
14.1145
12.9447
16.0814
14.7306
14.1592
17.6739
16.3641
13.0821
13.7937
14.5869
14.2471
15.4295
16.0299
15.4383
13.9504
14.4594
14.1303
14.1036
39.2914
40.0345
39.3398
44.433
37.1459
45.5369
37.4896
33.8817
37.4251
33.0767
35.2268
30.4949
35.3383
30.0495
29.5013
31.7862
28.3438
29.0457
25.0701
28.4218
24.1885
25.1082
27.2435
23.7477
23.8053
20.1296
23.023
19.5607
21.0333
22.7097
20.2197
19.0301
16.4915
18.6593
16.6887
18.2417
19.6626
18.2255
15.8609
14.8704
16.3266
15.4594
16.5567
17.9546
17.289
14.7285
14.355
15.3161
14.9224
15.6792
17.2165
16.9178
14.2235
14.1516
14.8744
14.9113
42.1326
46.8268
40.0983
25.2543
21.2801
26.0522
28.4425
34.2437
37.9584
32.364
19.326
22.2282
26.363
25.3382
28.6409
30.7854
26.6577
21.9835
17.9963
24.3661
20.1979
25.1225
25.4469
22.1196
17.6547
18.1499
19.0543
16.3496
22.3497
21.0662
18.2991
17.996
15.8196
15.5982
13.5788
20.6409
17.6938
16.9146
15.7104
15.7838
13.4723
15.0094
19.2065
16.8778
16.6736
15.6007
14.7793
14.99
14.5504
17.6737
16.5399
15.9634
14.2707
13.1073
14.5281
13.3205
39.8634
44.991
38.2746
26.8143
30.1139
22.0575
29.6606
32.212
36.2822
31.2611
27.9423
26.2835
27.8732
26.7406
26.3951
29.7721
25.5315
24.9064
20.5522
25.1496
19.9632
21.5183
24.1682
19.3911
19.1879
15.7413
18.1707
14.1176
16.9351
17.7697
14.016
14.8325
12.4102
12.8617
9.84545
15.5966
13.1874
12.731
12.2155
13.7929
9.56276
11.3348
15.9647
13.1274
14.1928
14.5297
14.2525
12.801
13.6437
15.6795
14.3706
14.8103
14.2364
12.9669
13.6751
12.4698
37.5629
43.2716
36.1112
19.4216
28.5761
18.9044
26.9302
30.8486
34.2425
29.6433
27.1017
26.2213
24.6826
23.4348
25.1906
28.1857
23.8849
24.642
19.4059
21.896
16.689
19.1095
22.5103
18.7326
17.6213
13.7297
15.1843
12.4191
14.1433
17.6611
15.2505
12.6297
9.99438
11.7635
10.5507
12.8225
14.7267
14.2762
9.71104
11.4422
10.6261
12.9591
13.9964
14.3177
14.2249
12.8659
13.6043
13.8489
13.4601
14.5615
14.1448
14.2507
13.5605
12.1866
13.4394
12.1975
35.8307
44.5533
36.2046
28.3706
26.6631
33.2238
18.1258
29.1733
34.0197
28.7196
23.5592
21.8558
16.0927
18.6712
23.3361
27.1068
22.8804
20.7695
15.4049
18.0184
12.5038
18.2975
21.6877
18.5323
14.117
12.0464
11.4887
12.5886
15.25
17.7564
16.1048
11.6047
10.6555
12.2689
11.1586
14.5093
15.8094
15.1762
10.8449
13.5594
10.8366
11.9245
14.3033
15.0709
14.7703
13.5363
13.2202
11.8406
11.6095
14.2732
14.7196
14.9056
13.2071
12.0058
11.5653
11.2389
26.6515
29.0674
24.3717
28.602
26.6123
29.9607
24.0553
22.3156
29.2894
15.2313
24.9618
24.8302
30.1165
4.58142
15.4863
15.8982
10.0585
2.48323
19.1447
12.3427
2.74749
30.0621
32.691
31.5774
32.3099
31.6736
32.2489
30.3731
27.0243
28.8891
30.2577
25.2904
30.3576
24.3858
27.7444
22.3072
24.9702
31.2618
15.4925
30.7278
4.58885
25.7876
15.787
2.56144
17.0176
10.6906
12.7231
2.8194
20.1559
16.7885
22.7353
15.3904
20.7647
17.4296
22.8699
14.9878
8.71969
13.7933
7.0566
2.33523
11.7409
10.5385
2.21046
7.65489
9.17579
6.78278
4.51883
9.98413
7.69347
3.13152
19.4331
27.2069
25.1044
22.96
25.1587
22.029
20.4752
17.15
20.9639
23.0579
16.532
22.9965
15.4362
18.2892
9.24472
2.39923
14.9115
7.82124
10.9891
2.27432
12.9452
8.19164
4.93371
10.925
7.95875
8.31659
3.15378
11.5946
17.0413
9.28174
17.8472
2.48416
19.3809
2.74282
15.7793
26.8711
27.4785
26.2521
28.5064
25.993
28.9013
27.5418
24.9992
23.2133
25.348
25.408
24.4305
23.6457
26.4727
20.6369
24.3679
13.8936
29.9778
3.53968
29.5018
23.8703
17.2816
2.54049
9.68141
18.5355
2.81426
15.9379
20.3243
27.5553
29.3774
30.0707
28.457
29.7837
28.291
28.0499
25.535
25.9419
24.4928
27.2125
24.0615
27.1059
26.0651
14.4455
5.89154
15.305
3.89388
15.5589
2.43314
14.5048
21.5386
22.1457
22.5184
24.3634
21.2117
22.5023
23.3421
20.7333
19.6134
21.597
21.4609
20.3893
19.9783
22.3837
14.6193
2.40018
6.97322
17.3681
2.35029
15.1676
16.445
14.4954
4.38383
6.74314
15.6079
2.57933
14.6094
15.8022
21.8105
24.818
23.1729
23.6925
22.8384
23.7441
22.0424
20.9691
21.8341
20.28
22.6858
20.2003
22.7582
21.1025
1.89703
1.96419
1.90454
6.67543
8.19465
6.72066
7.60983
1.85935
1.74063
1.71189
9.10486
9.6428
8.51123
10.1664
1.72051
1.7066
1.69468
9.77205
10.5141
10.8569
11.2504
1.63353
1.68744
1.68211
10.1705
10.3728
11.3557
11.3306
1.56824
1.66792
1.65045
10.6118
10.7039
11.1321
10.826
1.49135
1.61174
1.57051
10.4705
10.2327
10.4509
10.0307
1.29087
1.51375
1.33518
9.94315
9.67864
9.57257
9.06952
0.958305
1.2684
1.0118
9.06721
10.5531
8.56658
9.55876
1.84509
2.33567
2.02637
7.28138
6.94433
7.59623
7.51066
2.37376
0.767647
0.731863
2.21466
2.35146
2.07764
0.559771
3.74298
0.652597
0.498892
2.67699
2.76656
3.3138
0.541124
4.86178
0.67189
0.671981
3.4152
3.57297
4.70874
0.679079
5.14904
0.692746
0.689887
4.31261
4.50275
5.10125
0.690724
4.95645
0.638521
0.624744
5.05706
5.0581
4.99895
0.582004
4.70403
0.524605
0.531219
5.05839
4.97374
4.77738
0.502832
4.2273
0.422801
0.431256
4.78682
4.65552
4.37634
0.401197
3.67823
0.31593
0.33538
4.37044
4.30071
3.75412
0.313202
0.915249
0.978352
0.804085
8.20521
9.94374
7.19279
8.8143
1.82959
1.83134
1.70084
7.34222
8.819
7.29692
9.14755
3.26891
0.589177
0.678758
2.43728
2.98873
2.45331
0.640678
4.94742
0.44138
0.457139
4.34539
4.80978
4.64807
0.463525
4.87749
0.573129
0.542442
5.1906
5.07169
4.97701
0.552101
4.85977
0.536925
0.529043
4.83946
4.83246
4.81777
0.530217
4.84689
0.535796
0.527612
4.9015
4.88066
4.89475
0.512967
4.35348
0.43781
0.428055
4.65727
4.52882
4.50228
0.397142
3.7778
0.320336
0.318219
4.08564
3.93016
3.89944
0.297363
3.33795
0.251765
0.246714
3.47827
3.41365
3.41278
0.23803
0.731251
0.828942
0.634167
6.08509
7.31534
5.5412
6.11945
1.69163
1.17886
1.76522
8.84604
9.7938
9.61448
10.3797
3.24633
0.595008
0.625796
2.64366
3.45514
2.67834
0.592101
4.18944
0.646087
0.596814
4.30337
4.39203
4.04593
0.605445
4.16026
0.550404
0.554745
4.45461
4.48388
4.20535
0.519726
4.02698
0.464868
0.427503
4.41064
4.41767
4.01778
0.402798
4.10104
0.386912
0.363857
4.39305
4.33441
4.11493
0.358069
3.76577
0.338685
0.3363
4.12304
4.01328
3.94899
0.325854
2.55456
0.222239
0.210727
3.04754
2.8917
2.51653
0.200341
3.53603
0.224518
0.246455
3.32131
3.38937
3.47326
0.261275
0.669068
1.16009
0.991161
5.48444
5.89136
6.71378
7.97704
1.75699
2.09635
1.82214
9.37228
10.516
7.98275
7.85516
2.9232
0.606327
0.696244
2.70085
3.19268
2.51875
0.608883
3.24357
0.548573
0.542408
3.33028
3.36737
3.16539
0.535715
4.01762
0.454071
0.558455
3.76231
3.93347
3.85131
0.572913
4.13691
0.474024
0.586834
4.14942
4.14082
4.19131
0.583143
3.6651
0.422443
0.514414
3.86454
3.74697
3.80528
0.481678
2.94149
0.332695
0.402435
3.34249
3.02408
3.24507
0.363328
2.49407
0.327029
0.292753
2.59808
2.82572
2.32909
0.331753
3.23669
0.421561
0.397665
3.22913
3.30454
3.08121
0.414844
1.09807
1.14041
1.10748
7.79539
8.98068
7.663
9.32987
1.82056
2.13973
1.75015