/*--------------------------------*- C++ -*----------------------------------*\
  =========                 |
  \\      /  F ield         | OpenFOAM: The Open Source CFD Toolbox
   \\    /   O peration     | Website:  https://openfoam.org
    \\  /    A nd           | Version:  10
     \\/     M anipulation  |
\*---------------------------------------------------------------------------*/
FoamFile
{
    format      ascii;
    class       volScalarField;
    location    "2.7";
    object      omega;
}
// * * * * * * * * * * * * * * * * * * * * * * * * * * * * * * * * * * * * * //

dimensions      [0 0 -1 0 0 0 0];

internalField   nonuniform List<scalar> 
12920
(
204.5
213.811
157.341
123.214
101.707
89.1702
80.5049
76.0386
71.2771
68.735
65.8883
63.4592
60.7989
57.2741
53.0284
49.4022
48.0627
47.0286
46.2871
43.5596
97.0764
189.125
164.048
135.704
117.492
103.733
89.9123
83.1761
78.0065
75.3717
71.1121
66.3271
61.609
59.124
58.5053
58.6732
59.1662
59.2011
58.9079
55.0569
208.315
232.526
174.218
138.361
117.715
104.1
90.0522
79.3406
69.788
63.9551
59.9808
58.1188
57.3372
57.1437
57.223
57.2161
57.3136
56.8537
55.1332
49.9426
354.178
240.073
181.965
152.98
123.528
102.984
88.1265
77.54
69.3809
64.3905
60.9648
59.1024
57.3522
55.9079
55.0852
53.8052
52.4596
49.8599
47.7903
44.2888
368.382
256.676
195.19
166.503
135.263
104.044
88.2284
80.1637
74.7777
70.8334
67.5482
65.0419
62.7451
61.1328
60.1832
58.7235
56.0245
50.8026
47.451
41.7908
227.48
248.383
214.546
184.712
153.115
122.615
100.715
88.3481
81.2414
74.9871
70.7081
67.1561
64.5987
62.8318
61.7985
59.7439
56.462
50.5992
47.2753
39.0351
145.938
247.443
223.712
188.678
149.516
127.791
108.553
96.599
87.8907
78.9457
74.1015
70.6161
67.4947
64.9055
63.3103
61.4947
57.0971
50.7951
46.0529
34.3931
150.237
238.911
226.515
187.399
142.341
119.813
178.853
146.669
143.091
133.003
127.351
122.307
114.96
106.702
67.224
63.9212
58.883
51.2743
43.0632
31.1471
112.045
237.852
213.337
180.141
139.353
193.533
285.264
217.455
212.37
218.674
216.707
207.903
195.634
175.565
105.247
64.4623
59.5559
50.9434
40.9607
31.3927
361.322
314.44
226.139
162.472
116.507
158.601
230.988
208.334
222.691
208.622
206.704
203.559
191.176
173.018
103.165
58.272
57.0068
51.1711
41.1464
35.8409
142.052
199.667
159.681
119.616
100.959
135.654
197.931
201.612
206.244
199.239
194.949
189.73
165.025
154.823
97.7079
53.9311
53.2302
50.7033
44.8731
44.358
80.3226
197.99
198.284
153.25
110.996
143.067
210.819
178.226
178.48
188.054
179.965
162.771
124.638
130.475
93.8656
54.9638
52.8182
50.9585
49.5342
48.0645
178.994
226.172
213.633
189.525
153.144
120.858
169.965
126.625
115.586
110.224
97.8952
82.276
72.5921
73.4505
49.9767
50.2482
50.1196
49.6395
48.9549
47.2471
299.631
294.891
220.688
166.342
132.07
108.869
90.815
79.7201
72.3459
65.0896
57.8575
51.2937
46.5873
43.4124
41.6035
41.3527
41.9966
43.3444
43.7038
42.5915
431.416
314.704
182.079
151.573
132.008
122.052
97.6822
85.7572
72.3528
64.283
57.3741
51.4963
46.6901
43.0972
40.7675
38.9371
37.7988
37.5839
37.5889
37.0101
248.361
210.472
172.882
162.337
139.991
131.487
109.526
93.6786
74.0967
62.3167
54.6487
50.2855
46.7626
44.3917
42.2236
40.244
38.9034
37.4675
36.9046
35.8294
398.068
216.596
166.663
146.428
131.86
125.253
113.57
101.976
83.2458
66.2535
55.596
51.2883
48.8594
46.7248
44.8734
42.5784
41.1806
38.7209
37.2535
34.297
340.075
241.532
155.458
113.087
100.617
98.2075
95.6981
90.5657
78.3892
66.4932
58.3908
54.8689
52.4238
50.3974
48.5691
46.5027
45.5456
43.9801
42.8434
39.4928
422.916
310.433
157.582
107.061
91.3984
87.6158
81.897
78.9947
72.6089
66.8723
61.2935
57.1691
53.9622
51.949
50.5725
48.8466
47.2972
44.4815
42.6438
38.6502
444.266
360.504
187.469
99.5332
84.9115
81.5116
76.6861
70.7398
65.3025
61.4288
57.8243
55.32
53.2023
50.6957
48.2726
45.8744
44.3683
41.6644
39.1419
32.8233
108.201
106.577
88.1588
65.704
51.8623
47.5074
45.8512
45.2654
43.4944
41.4821
39.2846
36.8809
34.2708
32.0276
30.5859
29.897
29.4117
28.3837
27.5266
25.2955
144.925
125.129
102.839
87.7998
74.5033
58.7455
47.4601
42.1484
38.9513
37.6589
36.3966
35.9069
35.9591
36.493
36.5938
36.2129
35.1666
34.0789
33.5977
31.9441
360.543
125.371
94.6762
71.2431
57.9347
48.6531
42.739
38.5367
36.4707
35.0995
34.5451
33.9755
33.4702
32.7114
31.9126
31.1141
30.6388
29.746
29.066
27.401
278.924
151.157
109.936
90.966
73.0352
55.0441
45.956
39.0971
35.6868
33.4658
32.57
31.9783
31.7666
31.275
31.1487
30.7297
30.0523
28.2839
26.744
24.1643
211.537
188.6
126.211
105.415
86.5944
64.4554
51.7216
42.6634
38.3727
35.1913
33.526
32.2593
31.5959
30.9329
30.7644
30.4729
30.0388
28.5577
27.0144
23.3343
205.808
159.784
134.896
110.839
91.7059
72.0917
58.1817
47.4066
40.9003
36.0579
33.434
32.1165
31.4326
30.9505
30.6427
30.0134
29.0663
27.1359
26.2473
23.2331
219.35
152.506
123.272
106.348
89.5177
72.8616
60.2426
50.7758
43.251
37.5142
34.1389
32.6991
31.982
31.6376
31.0529
29.9928
28.6279
27.5149
26.8956
22.7355
202.995
170.816
119.868
93.0851
80.4365
66.5269
65.8164
52.3306
43.8265
37.3262
35.0853
33.9379
33.0993
33.0922
31.4195
30.2076
28.5711
27.8854
26.7877
20.5502
343.727
145.272
106.922
90.2488
81.5456
81.3633
74.0775
56.7947
42.8891
38.373
36.2403
34.982
34.1874
33.6012
32.5737
29.2486
28.2178
27.3008
25.2125
18.8113
343.48
157.392
123.942
98.2756
72.5014
64.918
61.8029
54.3071
44.8366
38.7338
35.7934
36.5314
38.3911
39.3001
37.4332
28.8151
27.6192
26.1423
23.139
19.7997
194.192
121.52
80.7608
63.2173
52.8484
52.7208
50.7765
47.0573
42.2584
38.8041
39.1944
39.5196
38.6941
37.6709
36.1721
27.0457
26.4667
25.655
23.6389
22.7336
123.993
155.522
119.091
77.6665
58.6696
50.4433
52.7348
48.3034
43.1821
40.0912
37.5766
35.6974
29.915
25.7968
24.4322
24.7138
25.457
25.5758
25.4122
25.3952
138.763
144.497
129.64
115.003
90.3323
62.6023
61.3084
48.5949
39.2831
36.1431
32.9162
30.3507
26.292
23.6754
22.2573
23.3963
24.4283
25.2486
26.2174
26.6678
133.355
148.062
118.062
87.5955
69.4247
53.8243
45.6506
40.9831
36.6959
33.3942
30.4181
27.5888
25.0613
23.0323
22.0619
21.817
22.1551
23.3426
25.0256
25.3497
258.34
135.942
100.781
82.2672
66.3804
58.0209
47.8666
42.8653
37.5916
32.9718
29.0345
25.7779
23.5851
22.0094
20.8143
20.2423
20.246
20.5995
21.4621
21.5744
226.369
139.695
97.6242
81.3467
64.4358
59.3223
50.1065
47.0423
39.99
33.7034
28.2538
24.9126
23.0876
21.8499
21.1031
20.4566
20.0959
19.6794
19.626
19.1311
215.843
115.229
89.8256
79.7358
65.4222
64.0345
59.4469
60.6936
57.3544
43.0275
30.0012
24.836
22.9771
22.1265
21.4993
20.8345
20.4777
19.8388
19.4651
18.3948
381.53
151.182
110.611
80.4159
65.7656
62.4488
60.7606
59.2578
52.3784
39.7574
31.1674
27.2875
25.6493
24.6987
23.9356
23.152
22.7502
22.3607
22.3035
21.7272
234.106
181.085
94.5523
64.1942
50.8273
47.9094
46.2308
44.2648
41.7998
38.0976
34.8973
32.4117
30.468
29.3309
28.3368
27.0808
25.6984
23.7555
22.5866
20.7715
189.737
127.555
82.3632
63.3279
53.1373
46.5474
44.5693
43.3869
40.6785
38.3615
36.1373
34.447
32.6841
30.6739
28.8486
27.4023
26.1154
23.9019
21.7498
18.0373
61.2609
97.7065
93.7013
71.7405
56.8252
52.0504
49.803
48.6424
46.2554
43.1583
39.9179
36.6749
34.0499
32.3464
31.5698
30.8334
29.941
28.3866
27.3783
24.822
323.544
148.897
94.1098
72.2639
59.1517
49.8629
42.7795
40.2459
37.454
36.2235
34.6348
33.8742
33.4193
33.3784
33.3365
33.1962
33.0712
32.7629
32.3296
31.0353
218.254
151.675
88.1897
60.5372
50.4509
41.6598
37.2187
34.1715
32.3555
31.6066
30.956
30.6986
30.25
29.8855
29.4887
29.0802
28.7473
27.9349
27.3711
26.2204
332.098
187.118
94.8922
69.4291
55.1501
43.8523
37.3928
33.2787
30.7469
29.4736
28.7334
28.4313
28.1928
27.9975
27.8043
27.4144
26.7596
25.4348
24.3443
23.0238
261.458
164.474
101.776
74.0377
59.2287
46.9603
39.5967
34.8127
31.8021
30.0556
28.921
28.3148
27.8799
27.5941
27.4282
27.0985
26.3832
24.9157
23.6857
21.9948
106.327
141.318
118.202
86.4712
66.5477
52.4662
43.3047
37.2452
32.819
30.0642
28.4659
27.6824
27.2606
26.922
26.702
26.1596
25.3197
23.9152
23.1189
21.3421
477.459
139.943
102.865
82.2454
66.6503
54.9307
45.4773
38.7371
33.7321
30.3415
28.7521
27.968
27.5433
27.1511
26.6573
25.7186
24.8274
23.9531
23.0417
19.9762
257.766
158.166
110.64
76.3958
61.3516
52.1046
48.008
39.5667
34.2264
30.7343
29.4444
28.6719
28.1463
27.9032
27.28
25.8224
24.836
23.9181
22.2347
18.5367
395.488
159.916
96.8922
66.4521
56.9917
54.0947
50.2942
41.1697
34.7183
32.1673
30.7568
30.0185
29.6966
29.2135
28.1279
26.076
24.766
23.0645
20.8625
18.6822
346.636
140.022
83.9896
58.9671
50.5684
48.4617
46.5169
42.2176
36.4048
32.7424
32.6454
36.9081
39.2905
36.3896
29.8856
26.1844
24.52
22.8479
21.2187
20.4841
433.66
133.285
65.9431
48.3271
43.4989
41.9088
40.6627
38.2223
35.1251
34.0779
86.891
62.6905
42.9808
35.3987
29.6883
25.9215
24.5291
23.5209
22.8944
22.9767
161.984
120.461
87.1691
55.8886
44.4368
40.5578
41.3908
38.122
35.3907
33.1829
30.991
28.7274
26.0195
24.5037
24.4081
24.8961
24.6223
24.6663
24.7393
24.9355
166.565
148.972
101.465
74.312
58.0956
45.6532
43.6874
37.4797
32.1032
29.6696
26.5174
24.2429
22.1638
21.4864
21.9227
22.6727
23.5558
24.2962
24.8424
25.0721
91.7758
136.367
102.329
67.139
52.0587
42.4994
37.268
33.0833
29.9474
26.8166
24.5506
22.4134
21.0342
20.0915
19.9335
20.0967
20.8124
21.9845
22.8769
23.1573
173.286
115.617
78.5369
60.4939
50.7276
43.4614
37.6895
33.6674
29.6442
26.2964
23.6067
21.5889
20.2281
19.3673
18.8808
18.7487
18.8855
19.376
19.9813
20.4916
268.17
112.684
79.8763
63.095
51.4873
45.3405
39.0994
35.3051
29.8967
26.0298
23.0801
21.373
20.2356
19.5234
19.0641
18.7784
18.6297
18.5924
18.6747
18.7761
188.427
103.099
74.4733
61.1909
53.7694
49.9517
45.6939
43.1888
36.6319
29.3451
24.065
22.0875
20.9071
20.3175
19.7804
19.3077
19.0327
18.7288
18.5409
18.3493
294.995
107.259
85.8354
65.7471
55.454
52.3168
47.3523
43.7376
36.3747
30.6049
26.5004
25.1728
24.1445
23.5929
22.9629
22.3942
22.0076
21.6371
21.404
20.9675
287.91
138.459
91.8549
65.7835
51.9971
46.8787
41.9033
39.5299
35.8999
33.8323
31.6334
30.8498
29.8597
29.3987
28.5851
27.5055
26.0886
24.3298
23.0291
21.758
200.683
125.846
106.956
91.4461
68.9602
52.937
48.0138
46.9228
45.0589
42.3877
39.5676
37.1915
34.9351
32.7395
30.8773
29.1002
27.4498
24.732
22.487
19.1768
94.2858
109.829
96.0381
72.0857
60.2337
55.8225
52.982
49.3006
45.1943
40.7309
37.0417
34.0682
32.3427
30.9813
29.9827
28.7052
27.6559
26.2564
25.5514
24.0397
154.707
130.511
95.8998
70.5992
63.7763
55.2142
50.7528
47.8449
44.8549
42.8305
40.9577
39.9616
39.5831
39.3859
39.3342
39.2367
39.1636
38.7779
38.0752
37.091
431
175.338
93.2367
60.7876
54.8994
43.9179
42.2706
38.3809
37.8295
36.7069
36.5408
36.1496
35.8864
35.5174
35.169
34.6077
34.0701
33.1159
32.5073
31.8695
304.387
163.252
89.1539
62.9456
55.2197
44.2138
40.9464
36.7161
35.4903
33.9856
33.7466
33.2809
33.1629
32.8434
32.4817
31.8379
31.0173
29.9502
29.2382
29.0291
314.064
128.061
90.3444
61.508
55.3857
44.138
41.108
36.6435
35.2417
33.6121
33.2326
32.7245
32.5815
32.2781
31.94
31.2114
30.1138
28.8743
28.0918
28.031
192.303
143.326
104.098
72.0226
60.2961
47.8581
43.4993
38.2823
35.3293
32.9166
32.0381
31.3596
31.2002
30.9083
30.6658
29.8962
28.9231
27.8336
27.027
27.0964
213.346
127.161
96.5144
68.749
60.1642
49.6844
43.9695
38.1143
35.2004
32.5466
32.0962
31.3609
31.2555
30.7579
30.1756
29.0571
28.0719
26.939
25.9015
25.9823
217.107
161.527
114.167
70.6024
58.9
49.8064
45.7347
39.1467
36.0287
33.714
33.1066
32.4897
32.0306
31.3855
31.433
29.0524
27.4649
25.8117
24.9001
24.9225
139.955
160.865
114.208
63.7248
53.4387
49.1626
46.8979
40.7589
37.6532
36.6535
35.6313
35.0185
34.2688
33.3108
32.9056
30.0161
27.2996
25.6316
25.3164
25.4105
486.142
192.943
87.3188
54.2493
49.2841
45.9386
45.2179
43.1364
39.98
37.5203
37.2233
38.7679
38.9088
36.4636
34.1706
30.6031
27.8638
26.9954
27.0871
27.1968
289.53
124.076
70.4308
49.9404
44.9063
42.1103
41.3283
40.525
39.1747
38.1706
57.881
48.8577
40.6104
37.1243
34.8251
31.1329
29.043
28.6597
28.8045
29.2694
227.172
114.677
84.2355
52.4218
44.8801
40.6117
41.4818
39.7253
38.1852
35.7969
33.1859
31.6479
32.2273
32.9623
33.5868
31.104
29.9486
29.9769
30.1519
30.5676
263.281
114.643
84.1829
60.4936
52.5439
43.7796
42.3036
37.7562
34.3079
31.7604
29.6907
28.5824
28.595
28.8468
28.8509
28.2552
28.5465
29.1976
29.603
29.9906
136.032
125.32
89.8683
59.1958
51.4678
40.7817
38.7006
32.9558
31.1447
27.6551
26.4851
24.7519
24.4968
24.0682
24.2779
24.7212
25.6256
26.6319
27.2082
28.0419
409.923
132.53
76.7301
55.893
49.645
40.4472
38.0795
32.7708
30.3868
27.3114
25.7005
24.1665
23.4561
23.0185
23.0496
23.2467
23.6916
24.5788
25.2249
26.4206
308.759
129.93
76.0651
57.9878
50.6053
41.4269
38.0216
32.4691
29.9346
26.9056
25.6438
24.3434
23.7973
23.2763
23.2355
23.2684
23.5043
23.9482
24.3483
25.1603
152.457
111.123
70.7338
58.2191
52.5317
44.362
41.4969
35.8225
32.3824
28.64
26.8046
25.6463
25.0122
24.4146
24.0588
23.7674
23.7718
23.8971
24.1748
24.9253
254.498
108.874
74.9322
59.9607
56.0765
47.1901
44.065
38.4276
34.8379
31.6778
30.2819
29.667
29.2443
28.8184
28.4307
27.9936
27.7362
27.4909
27.4554
27.8565
205.634
125.18
91.0195
67.2964
55.8824
47.7252
44.8179
41.1205
39.2152
38.0517
37.096
37.0323
36.5806
36.206
35.3192
34.1626
32.5628
31.1745
30.2774
30.551
132.445
115.489
107.25
87.5384
64.0376
51.8621
48.7683
47.189
44.6035
41.5635
38.5226
35.761
33.4506
31.3253
29.5793
27.538
25.5892
22.8954
21.1326
18.6574
93.9859
96.9054
82.1035
70.5741
65.312
59.151
52.3573
45.3988
39.3838
35.0206
32.3748
30.7603
29.6721
28.4288
27.4526
26.3269
25.5712
24.4838
23.8888
22.5686
224.848
144.423
107.687
81.1348
81.5899
65.5274
67.6437
58.0312
58.2783
53.6746
54.0976
52.6516
53.3382
52.9107
53.2479
52.5358
51.9408
50.4141
49.6232
49.1494
351.977
168.448
100.908
73.8863
65.9096
53.5384
54.231
47.5775
49.618
46.9375
48.2884
47.1577
47.6608
46.8008
46.5199
45.1867
44.4208
43.2673
43.0248
42.9889
399.016
150.724
92.0832
72.447
64.2471
52.5525
52.428
46.2095
47.0041
44.2955
45.1066
44.0368
44.5284
43.8655
43.6618
42.5538
41.7929
40.8481
40.5829
40.7979
227.969
146.976
94.5939
69.9629
63.658
50.5747
50.6088
44.4833
45.1921
42.9236
43.8225
43.0268
43.5978
43.0424
42.7732
41.4355
40.6368
39.8528
39.76
40.1251
218.083
132.832
103.537
69.9163
66.3545
52.8869
51.756
45.4722
44.1968
41.6233
41.6733
41.043
41.5084
41.3266
41.199
40.2421
39.6183
39.0111
38.9388
39.2351
434.194
132.497
96.5598
71.6969
65.5765
54.5425
49.043
44.9447
42.748
40.956
41.3428
40.8195
41.4382
41.168
40.5339
39.1713
38.542
37.6901
37.5265
37.7738
320.785
179.543
120.772
70.3194
67.164
56.4306
50.7667
45.8787
45.3876
43.7927
44.8851
44.4832
45.1984
44.8402
42.2281
38.699
37.0636
36.2448
35.9625
35.8921
241.149
200.014
110.069
67.3464
59.3212
56.3186
54.3337
49.9235
50.5483
51.0041
51.5055
51.3974
51.3613
51.1822
49.1547
39.6974
36.9468
36.2381
36.0563
35.6597
238.149
171.657
96.9846
66.7366
57.6131
51.3851
54.2873
55.1682
55.4586
54.9059
54.7975
55.7525
55.9284
55.3231
50.9447
40.2085
37.6119
37.1713
37.245
37.2555
383.321
151.353
84.1417
73.6182
52.6418
50.5824
50.1371
53.7917
55.3507
53.8273
53.8594
54.5146
56.7518
56.1759
50.8948
40.7365
38.7739
38.6263
38.8926
39.3879
204.163
118.109
89.441
59.96
52.2646
47.318
49.8796
52.0474
52.7626
51.9827
51.8559
52.7684
54.2982
54.7345
50.2806
40.964
39.4431
39.5776
39.9107
40.5429
193.676
126.352
82.1382
70.6756
57.5394
54.3549
49.2623
45.6635
45.4833
43.5465
44.3857
44.1069
45.3282
45.2917
39.9199
38.0968
38.2395
38.8959
39.3964
40.1775
217.615
136.372
95.5241
63.5823
61.0835
48.113
48.5315
40.9377
38.8069
35.9976
35.585
34.5617
34.8989
34.6163
34.7713
35.1156
36.0234
36.9683
37.6135
38.8237
478.176
214.956
88.6387
73.6216
56.0975
53.1615
44.7603
40.4418
37.4805
35.5385
34.5475
33.739
33.5338
33.3917
33.5184
33.763
34.3272
35.2933
36.0559
37.3953
257.489
175.477
85.405
69.6165
57.1664
50.4046
43.9663
39.9025
37.0382
35.4798
34.672
33.9891
33.8543
33.6801
33.8989
34.0884
34.4697
34.9926
35.4833
36.2744
184.74
136.44
79.6198
83.0249
57.2359
54.8112
45.2106
41.6605
38.2517
36.6091
35.9963
34.9894
34.7398
34.32
34.3417
34.3696
34.7036
35.0827
35.4967
36.1161
312.882
145.367
81.2471
78.4034
63.3901
51.8813
49.0548
42.2867
41.9178
39.1847
39.5548
38.1907
38.3329
37.7129
37.9051
37.8247
38.2854
38.5379
38.9517
39.5394
204.752
133.282
90.8052
78.6856
63.0103
54.6429
53.5042
47.2234
49.4732
46.6852
48.5262
46.519
46.6756
44.7667
44.081
42.8334
42.621
42.6799
43.2122
44.6813
64.0206
98.9459
85.225
61.9731
52.9378
49.1237
46.8875
43.4675
39.9978
35.9464
32.7036
29.5734
27.1729
24.7313
22.8944
21.0987
19.9533
18.6874
18.1785
17.1152
32.3266
35.0492
79.2987
35.2837
35.1219
37.8045
83.8906
35.694
78.9652
67.7331
35.4501
37.5062
81.5404
61.4578
84.6332
33.5091
32.4804
36.8582
88.3374
34.5847
33.2443
72.9118
32.0462
30.6018
86.8575
65.8173
32.716
31.174
223.735
247.736
204.421
89.2977
73.1205
81.3166
68.0067
207.667
205.587
222.995
66.2092
51.2892
62.9918
51.9949
216.344
223.376
215.347
49.2066
44.7537
49.7583
44.8515
217.757
211.503
206.757
43.7941
41.364
43.6636
40.934
209.447
206.402
204.845
41.0659
39.6861
40.2924
39.383
198.155
203.609
196.898
39.4049
38.1897
39.37
39.952
180.264
192.814
178.463
38.0354
37.1422
40.3147
41.3589
149.808
173.437
152.022
36.8633
35.328
41.4676
40.0528
205.721
200.673
201.633
69.6722
63.3859
58.4933
55.0439
222.868
206.993
214.946
60.3352
52.4118
54.3774
50.8226
211.776
214.329
208.286
50.4175
45.1871
49.216
44.4653
206.393
205.783
204.305
43.7543
40.6667
43.4014
42.0164
205.205
203.375
196.362
40.1183
39.7769
42.0901
42.5241
195.143
193.644
182.56
40.0022
40.956
42.5363
42.1759
178.339
175.68
163.141
41.1833
41.7854
42.0047
41.2106
154.192
162.067
148.423
42.0186
41.4587
41.2926
43.2186
196.269
211.698
188.492
58.0067
54.088
59.6973
55.0025
206.636
185.764
184.253
52.8428
48.8339
53.1037
48.3429
201.607
184.017
184.214
47.5103
44.265
47.382
45.4216
195.659
184.631
183.909
43.5098
42.5273
44.9098
43.1847
191.132
181.912
172.382
42.5183
42.5072
42.6095
41.1719
175.535
169.046
135.493
42.4303
42.1883
41.0244
39.5638
152.69
131.131
139.504
42.0606
40.4691
36.8017
31.1314
147.569
139.741
136.447
40.4345
43.2067
30.659
28.8606
182.169
278.705
190.993
60.7832
56.2895
74.713
59.1866
176.399
191.314
178.383
54.5536
49.5567
55.3271
47.0123
187.518
178.261
173.057
48.237
45.5212
45.335
42.1345
183.712
175.952
167.023
44.8759
42.8379
41.9701
40.3282
168.025
162.546
142.894
42.1401
40.4871
39.7262
37.7227
131.391
137.381
114.493
40.0656
35.8778
36.9516
33.1567
126.119
114.361
114.457
33.1766
28.5276
31.6618
27.8632
137.954
119.504
121.909
28.0083
27.1377
27.4003
25.3196
62.5202
71.306
60.7955
54.103
46.4057
52.4056
46.6077
44.753
56.5099
46.5262
43.1988
36.7764
44.5014
38.6018
39.1966
44.3611
39.7467
35.5101
33.0356
37.06
33.754
36.5232
38.6597
36.265
32.5182
31.2615
33.0003
31.5774
35.2065
35.7581
35.2749
31.0045
30.3075
31.4254
32.1736
34.245
35.4166
36.526
30.2095
29.9366
32.7689
34.6418
33.799
36.9933
38.1845
29.9381
29.7281
35.0759
35.2353
32.8608
38.2748
37.0843
29.5956
28.9071
34.7023
31.4484
56.8941
51.37
49.0407
48.9357
45.4067
42.5617
40.8967
46.8178
48.3642
44.9306
43.8932
38.7581
40.1827
37.3051
39.9801
43.4849
39.5149
37.277
33.8712
36.2888
33.9768
36.181
38.6359
38.4864
33.0838
32.1785
34.2752
51.0455
36.0341
38.8316
39.795
32.3365
34.8454
52.2717
52.2271
38.0407
39.9186
39.6051
36.0194
38.6049
51.5791
47.3264
39.081
39.3639
38.7112
38.938
38.2979
45.1354
39.556
38.9536
38.7759
40.7822
37.398
32.8658
38.3387
34.8457
48.1176
52.0928
48.6996
41.7977
40.0106
42.437
39.7971
43.445
47.1956
43.3398
39.2072
36.5789
38.8853
36.5996
39.4395
42.489
40.6657
35.7565
34.0464
36.0199
34.6088
38.9439
40.1791
38.5986
34.1257
51.9386
34.1898
33.061
39.5965
38.089
36.8573
53.513
52.1972
32.6366
31.3101
38.939
36.641
34.8947
49.6533
42.8222
30.8419
29.1482
37.6554
32.9279
28.892
40.7291
36.4852
28.3612
26.6017
40.1696
28.4329
27.0464
35.643
33.6915
26.2364
25.308
49.672
60.9137
51.9558
42.8058
40.184
46.1196
41.2166
44.2799
48.9246
42.1189
39.3414
36.9577
39.5899
35.411
40.7184
40.5509
37.8439
36.2536
34.4617
34.2045
32.2044
38.175
37.5165
35.7712
33.9255
32.2777
31.7817
29.7158
36.1659
35.1363
33.3585
31.748
30.2223
28.964
27.1497
31.9714
32.5215
29.0262
29.5633
27.1078
26.3575
23.8998
26.2993
27.7345
24.8275
26.1966
24.4918
23.1938
21.988
25.1765
24.3942
23.1618
24.1766
23.8713
21.8205
21.5805
43.9051
48.9684
44.2878
46.5669
41.712
45.4008
42.8478
35.8266
42.5959
37.5834
39.8512
36.6129
41.8312
38.6257
32.6117
36.2311
33.3244
35.9687
34.8544
37.7693
35.8184
31.0056
32.6603
31.4717
34.5457
33.5907
35.2934
34.2898
30.109
31.403
32.3951
33.3744
32.8209
34.2401
34.8883
29.7203
33.0113
34.7127
32.6764
32.1098
35.177
35.6351
29.3727
34.9948
34.5591
31.9642
31.2938
35.5478
34.2111
28.4485
33.7338
30.4925
31.0327
29.9286
33.461
31.1401
43.5348
41.3351
39.8344
44.4284
42.6588
40.989
40.1646
37.7189
39.1243
36.4488
41.7624
38.7587
39.649
37.8854
33.4161
35.5488
33.7748
37.9075
35.8131
37.3024
36.1001
34.0623
32.3223
32.9488
32.973
33.2831
32.665
33.269
41.8601
33.3547
37.2419
33.3358
39.221
34.1783
39.5204
39.22
64.2903
51.8697
37.9444
38.2641
57.0719
45.6417
37.6826
48.1989
39.9697
37.9639
35.7337
43.134
37.8216
31.6894
38.1982
33.6583
34.6922
31.6229
36.4419
32.8295
38.9754
41.0913
38.5914
40.4059
39.4016
40.4001
38.7237
35.8517
37.7941
35.807
38.9289
37.502
38.2829
37.071
33.8061
35.2816
33.9279
37.0247
35.967
36.6587
35.1514
45.6637
62.3095
34.1027
41.266
39.3537
233.277
34.5234
48.0446
85.6241
43.4478
196.616
42.9624
184.569
49.4365
46.4727
30.0968
28.5994
57.9134
43.9232
30.7705
30.3457
36.6065
28.0034
26.6302
41.1806
36.3332
30.288
30.1683
32.5915
26.3151
25.5928
35.273
32.5649
30.1031
29.9168
38.8755
43.9141
39.7686
40.6959
38.7885
42.3087
39.0264
36.027
38.2647
34.4872
38.3119
36.8999
37.7648
34.8031
33.7163
33.3753
31.5681
36.4093
34.7787
33.9668
32.607
31.5389
31.0889
28.8803
34.1311
32.2123
31.9348
29.5247
29.3823
28.116
26.3506
31.6047
30.057
28.8553
27.6881
26.6991
25.6143
23.5185
29.6429
29.119
27.1841
26.3988
24.7467
22.9699
22.1735
29.0716
29.1097
26.2593
26.5273
24.3103
22.084
21.988
29.0994
29.1313
26.5372
26.6909
42.4257
46.0122
44.013
51.83
47.97
52.0599
51.6728
38.1262
43.1476
40.4889
46.8988
46.4416
51.3131
50.7154
36.9375
39.8132
38.139
46.7356
47.3209
50.7214
50.1126
35.8135
37.6159
36.5285
47.0606
47.1776
49.7155
49.0335
35.186
36.4376
36.8128
47.2653
47.4741
49.0675
49.5578
34.4256
37.0251
37.4295
47.1402
47.0323
49.8351
50.4676
33.6151
37.3657
36.2208
46.8759
46.8101
50.4916
50.0633
32.052
35.6059
33.4971
46.418
45.1227
49.8374
48.2233
43.8957
41.892
41.5423
51.3598
51.7289
47.6914
49.7569
40.6627
41.1885
39.9232
51.552
51.1808
50.2161
51.0951
38.0756
39.4421
37.9423
51.151
49.9844
50.9241
49.2323
37.0289
38.6303
57.5792
49.4876
48.6668
48.6179
49.7293
38.546
57.1583
50.4377
48.7214
49.3259
49.8643
48.8601
39.0893
48.5025
43.1083
49.7774
50.9221
48.783
51.1601
37.2693
41.7834
38.7361
51.0145
50.5249
51.6177
51.3675
33.87
37.7864
34.9001
50.2398
48.3948
51.0338
48.8206
40.8182
41.2147
40.0864
47.1828
49.2331
46.9167
48.3689
39.5788
39.8156
38.943
49.7822
50.8379
48.7869
49.4067
37.747
38.5808
36.9173
50.6718
48.8893
49.3806
47.7261
58.2095
36.2483
34.6289
48.1898
49.0034
46.9769
45.4932
51.4176
34.0872
32.67
49.0128
48.3019
45.2692
45.3261
42.1343
32.3993
32.8076
48.2588
50.7231
45.9709
48.6161
37.8567
33.0629
33.6198
51.2659
51.2847
49.1949
49.8734
34.84
33.6854
33.469
51.0221
48.8967
49.8688
48.5849
40.0672
42.8684
39.9271
47.0561
47.9817
47.6357
45.8886
38.614
38.7075
36.0632
48.235
48.5297
44.8752
43.9529
36.5185
35.3624
34.2321
48.5208
47.3374
44.0708
44.06
33.7713
33.4974
31.2304
46.6463
45.4961
43.2501
42.7959
31.8677
30.6914
29.9901
45.4268
45.8336
42.9293
43.5358
31.979
29.6014
29.484
46.3244
48.1515
43.2845
44.1118
32.8872
29.5275
30.1304
48.5956
49.2306
44.2931
45.1476
32.8618
30.1329
30.1757
49.2593
48.1343
45.0206
44.414
50.8091
55.0537
55.0785
62.9277
61.189
64.377
64.0269
50.0938
54.8638
54.7741
60.6215
60.3594
64.0626
64.4724
51.2746
54.9335
54.9897
60.7778
62.6633
64.9663
68.0791
51.3662
54.8354
54.7534
62.3278
62.9795
69.0111
70.918
51.7482
54.897
55.259
63.1745
64.4462
71.3161
71.8342
51.4599
55.2743
55.3745
64.0501
64.673
71.4667
70.3674
51.4852
55.3479
55.0623
64.7576
65.9467
70.3418
70.8526
49.8621
54.9559
53.2868
65.9879
64.0969
71.0964
68.9782
55.1845
50.551
53.4674
63.2306
63.9683
60.7306
62.8227
55.326
54.1516
55.4941
64.2079
64.9491
63.6725
65.6441
55.1742
55.5956
54.7589
65.6944
69.9153
67.1779
73.5382
54.6323
54.2587
54.5128
71.1649
73.4791
75.3162
78.6207
55.5206
54.699
54.5765
73.9621
74.3762
79.5721
80.4931
55.9485
55.0469
56.7585
73.8391
71.7867
79.3315
75.3392
55.4957
56.9233
56.395
71.4302
71.5286
74.2192
73.1865
53.4007
56.1145
53.6586
71.6903
69.0875
73.0964
69.452
53.0375
49.8533
52.1521
61.6752
62.6873
60.9693
62.153
55.2594
52.7246
53.6214
63.5452
65.5317
62.9256
64.1166
54.4157
53.7221
52.9859
67.0775
73.5227
64.9651
69.721
53.7812
52.4982
51.8574
75.327
78.4764
71.15
73.5638
53.9877
51.9147
52.593
79.3428
80.2377
74.1682
75.153
56.5066
53.1427
54.6065
79.1244
75.2733
74.6869
72.8168
56.4186
54.9811
55.3397
74.2415
73.4051
72.5092
72.9068
53.7162
55.3072
53.449
73.3682
69.6806
73.0098
69.4851
51.6561
50.1091
49.0992
59.0815
61.8151
59.1721
62.1745
52.6521
48.1361
47.6684
62.5602
63.5407
61.194
59.776
52.3683
48.0196
48.3103
64.1545
68.1183
60.5688
64.4416
51.7058
47.576
47.6826
69.2709
71.527
64.0276
64.6457
52.4934
47.9564
48.6689
72.1541
73.4309
65.2372
68.0979
53.9904
48.424
49.341
73.1974
72.0652
67.6544
67.9665
54.7287
49.5413
50.3097
72.0733
72.7167
68.0239
69.5382
53.0581
50.1637
49.0672
72.8376
69.5175
69.0573
65.0683
36.0334
32.2175
35.8894
32.912
34.4936
32.7046
37.8779
43.7817
33.7344
57.5933
40.7161
37.6073
34.5341
181.598
57.4662
50.1254
75.1439
209.849
45.0933
65.4137
227.373
35.0352
33.7984
34.9877
35.477
33.5379
34.098
36.0895
37.0815
33.8276
34.9826
38.864
33.6079
38.8657
37.5428
45.9606
42.389
36.3886
65.1923
35.4607
188.49
41.7066
59.3277
218.063
53.3981
82.7359
66.6475
235.211
49.3114
43.9663
34.4368
43.2489
36.4816
41.4155
35.3039
45.2333
74.9456
53.323
77.7072
197.246
57.0171
69.6091
182.778
74.2997
58.8233
74.1133
90.7953
59.7743
67.4426
123.914
42.5162
34.2492
36.1047
40.0765
35.0618
40.4077
41.6079
44.196
37.0019
36.8565
43.1836
36.0565
44.9437
42.7164
73.5286
204.141
55.3023
78.4733
69.7569
189.527
56.9753
71.9267
85.9959
53.8959
70.3697
64.615
129.307
56.2959
50.0201
79.6498
43.6061
207.126
42.7245
218.222
50.3478
34.565
33.6697
33.1712
33.3201
34.1724
33.6528
32.998
35.2254
34.6748
32.8456
32.3072
34.6521
35.2238
32.6855
46.8251
42.8544
70.5361
36.0693
226.576
35.2169
42.3451
51.3406
210.383
86.6711
46.1988
222.724
51.4449
45.7571
35.042
33.6498
35.0509
34.1278
34.0891
33.2906
35.6065
35.6876
32.5325
35.9342
33.7089
35.6408
32.9467
36.0311
45.9074
85.8438
40.5467
109.197
42.1962
173.201
43.1871
34.4248
34.4801
31.5841
31.8441
34.077
34.9424
31.3509
33.7593
33.0296
31.0674
30.308
33.5512
33.1289
30.8004
48.7318
198.613
83.8857
45.5884
185.607
50.2986
44.6445
46.3341
99.6541
80.3736
41.6321
164.588
43.5036
43.4927
34.7118
32.034
35.5434
32.1806
35.28
31.513
34.9979
33.9969
30.4607
33.7365
31.6323
33.3316
30.9507
34.3474
151.093
177.674
151.39
104.232
86.8764
102.355
90.0538
147.5
138.388
136.049
73.7528
66.9097
73.8067
61.1834
136.847
135.682
134.745
63.2553
56.4215
56.544
53.4466
129.782
134.169
133.733
53.1278
50.4771
51.1111
50.0091
124.64
132.588
131.167
48.5585
47.0445
49.3366
48.884
118.457
128.077
124.778
46.2254
45.1486
48.0898
46.9982
109.506
120.222
114.696
44.0983
43.036
45.665
44.3447
96.5225
110.833
101.861
43.2613
38.6113
43.7241
39.8319
171.319
186.617
161.486
116.005
101.484
108.994
92.7538
132.074
249.65
262.903
159.148
141.78
154.553
230.892
94.9035
207.696
202.289
114.285
109.336
101.569
203.143
82.8478
213.73
213.883
97.2587
95.2701
84.5664
216.054
77.7767
220.237
219.316
85.6718
83.5762
78.7979
219.553
75.6285
214.963
214.518
76.1533
75.2095
76.3609
212.304
72.2657
204.87
205.642
71.5491
70.6004
73.1923
203.1
68.9745
190.58
194.061
66.8553
65.4533
69.8458
189.746
64.0213
167.105
175.596
60.2156
57.4482
66.1821
170.453
95.2496
103.043
89.7035
41.569
37.2839
42.9729
37.5573
145.487
145.492
135.242
91.0279
75.3155
84.9571
68.2485
104.195
214.262
216.809
127.739
111.926
123.058
204.072
88.1953
214.399
208.732
89.6765
87.5047
89.5553
214.702
85.717
221.113
220.717
85.2469
84.4677
87.5339
218.422
75.8824
206.682
207.986
78.286
76.5637
77.8641
207.044
73.0513
206.643
207.472
73.3785
72.8531
73.3287
207.156
72.0814
201.274
201.778
71.7663
71.4891
72.4034
198.894
68.8466
187.066
187.166
70.0314
69.4304
69.9458
183.269
67.6393
169.34
171.816
68.2424
67.6096
67.8224
168.167
86.8155
102.922
82.4086
47.601
41.4083
49.9905
44.1309
134.557
140.445
140.265
72.6195
67.9132
71.178
69.713
97.1372
189.425
200.552
107.856
94.5853
108.256
188.706
82.5458
205.257
189.487
87.5969
86.9535
84.5711
192.221
78.6792
205.502
193.317
83.076
81.1958
79.3814
192.154
75.5248
197.886
186.716
76.8825
75.6608
76.4387
185.798
73.276
193.802
185.585
73.6504
73.4494
73.4912
185.535
72.0855
187.741
182.831
72.0153
71.712
71.8811
179.951
69.3968
156.769
146.415
71.7291
70.2813
72.2649
141.699
59.9592
157.856
153.526
63.2034
63.2671
59.7237
156.573
79.1515
92.0972
81.0414
47.2424
41.7787
35.4603
30.2438
143.309
165.56
163.538
71.6715
68.8445
85.7144
86.1484
103.513
193.117
221.354
115.174
99.8376
121.006
193.838
84.1327
176.015
172.486
88.3211
85.5754
86.9338
170.33
76.1572
182.081
177.575
79.2495
78.1923
77.172
182.186
72.9289
187.774
186.539
76.4445
75.7754
73.8972
185.359
68.0038
175.492
174.196
72.856
71.4114
69.3154
169.757
60.1011
153.38
152.41
67.6582
66.4336
62.067
142.725
49.1998
123.468
115.031
54.7722
50.2527
52.5078
115
46.5809
133.897
126.418
46.838
47.3513
46.0336
131.839
87.1927
90.6362
87.9362
31.4789
27.8029
30.9266
26.9056
144.732
170.422
139.14
98.2731
82.3313
95.8927
77.3966
119.593
128.323
125.364
66.5469
57.3512
64.8319
60.1669
113.895
117.558
111.233
52.1183
49.554
55.3039
50.8051
104.328
108.579
104.948
47.8562
46.4449
51.0321
50.0376
90.767
96.6844
88.1156
43.7036
42.2977
46.9928
43.997
75.5063
83.135