/*--------------------------------*- C++ -*----------------------------------*\
  =========                 |
  \\      /  F ield         | OpenFOAM: The Open Source CFD Toolbox
   \\    /   O peration     | Website:  https://openfoam.org
    \\  /    A nd           | Version:  10
     \\/     M anipulation  |
\*---------------------------------------------------------------------------*/
FoamFile
{
    format      ascii;
    class       volScalarField;
    location    "2.7";
    object      turbidity_0;
}
// * * * * * * * * * * * * * * * * * * * * * * * * * * * * * * * * * * * * * //

dimensions      [0 0 0 0 0 0 0];

internalField   nonuniform List<scalar> 
12920
(
-0.0576796
-0.0509074
-0.0755062
-0.096683
-0.121985
-0.149142
-0.171047
-0.187813
-0.199757
-0.206734
-0.212835
-0.217553
-0.22387
-0.232197
-0.245964
-0.263911
-0.285952
-0.308481
-0.327954
-0.343878
-0.0156715
-0.0542081
-0.0800989
-0.102704
-0.127882
-0.158909
-0.189075
-0.205378
-0.213535
-0.219941
-0.233012
-0.252998
-0.278695
-0.301955
-0.326642
-0.349941
-0.369024
-0.383418
-0.392687
-0.406218
-0.0298696
-0.0475726
-0.083863
-0.110538
-0.137164
-0.164084
-0.203338
-0.239893
-0.275023
-0.301255
-0.321757
-0.339074
-0.354974
-0.370137
-0.384656
-0.39793
-0.405855
-0.416957
-0.440421
-0.477103
-0.0603396
-0.0509155
-0.0786904
-0.104397
-0.133998
-0.171119
-0.208394
-0.246845
-0.280036
-0.306891
-0.325796
-0.3403
-0.352369
-0.365538
-0.382042
-0.405207
-0.436863
-0.474401
-0.515772
-0.560305
-0.0559361
-0.0524217
-0.0641335
-0.0847773
-0.112755
-0.156191
-0.19681
-0.23488
-0.260369
-0.280021
-0.291985
-0.301505
-0.309358
-0.319297
-0.333979
-0.357088
-0.395598
-0.443441
-0.497992
-0.557295
-0.0215224
-0.0384367
-0.0521186
-0.06966
-0.0928406
-0.126405
-0.163494
-0.201232
-0.227934
-0.246074
-0.250808
-0.253113
-0.254089
-0.259827
-0.273449
-0.30419
-0.354824
-0.417154
-0.48093
-0.547455
-0.0156492
-0.0351079
-0.0509176
-0.0693347
-0.0936511
-0.11742
-0.145163
-0.172578
-0.191006
-0.202547
-0.196659
-0.18858
-0.182664
-0.185702
-0.201615
-0.237509
-0.300228
-0.374944
-0.451595
-0.537368
-0.00960327
-0.0303796
-0.0484813
-0.0721391
-0.102607
-0.133447
-0.137703
-0.145581
-0.147355
-0.129874
-0.106169
-0.0931681
-0.0881624
-0.0862329
-0.112571
-0.15482
-0.216253
-0.298948
-0.390892
-0.487475
-0.0119067
-0.037802
-0.0575743
-0.0824778
-0.108531
-0.110262
-0.122904
-0.135099
-0.124107
-0.105909
-0.0894178
-0.078215
-0.0707193
-0.067207
-0.0768983
-0.121648
-0.176373
-0.25459
-0.348802
-0.433471
-0.0547512
-0.0638235
-0.0810546
-0.108214
-0.144082
-0.143988
-0.1244
-0.120525
-0.114368
-0.0994784
-0.0860992
-0.0778156
-0.0753923
-0.0739961
-0.0821948
-0.124422
-0.170538
-0.236987
-0.319155
-0.384784
-0.0386607
-0.0884925
-0.109423
-0.151462
-0.180329
-0.157666
-0.141056
-0.123152
-0.11189
-0.101433
-0.0954309
-0.0950276
-0.1
-0.104795
-0.10614
-0.134922
-0.172467
-0.225585
-0.290027
-0.342027
-0.0109881
-0.0442209
-0.0750343
-0.122503
-0.174051
-0.168013
-0.162165
-0.147963
-0.139892
-0.135432
-0.133255
-0.139587
-0.150546
-0.153249
-0.139643
-0.146626
-0.176887
-0.216638
-0.264649
-0.308825
-0.01794
-0.0343352
-0.0499619
-0.0736336
-0.110485
-0.159986
-0.168314
-0.180298
-0.187034
-0.196857
-0.215105
-0.231246
-0.25137
-0.257755
-0.259968
-0.245445
-0.243562
-0.25549
-0.278908
-0.306585
-0.0180896
-0.0332123
-0.0622572
-0.0988556
-0.132868
-0.16695
-0.202804
-0.235874
-0.267809
-0.302407
-0.341142
-0.385834
-0.429613
-0.46829
-0.48343
-0.470097
-0.428398
-0.396292
-0.383914
-0.393606
-0.0293724
-0.0358347
-0.0548309
-0.0786574
-0.107351
-0.124355
-0.168479
-0.19829
-0.246004
-0.291892
-0.341518
-0.393779
-0.447957
-0.497882
-0.539433
-0.568403
-0.576121
-0.564475
-0.553448
-0.564741
-0.0214871
-0.0367112
-0.051396
-0.0661137
-0.0865263
-0.0989052
-0.129104
-0.159543
-0.218115
-0.282812
-0.34662
-0.399024
-0.443171
-0.478815
-0.51339
-0.544401
-0.574283
-0.601207
-0.622182
-0.633641
-0.027496
-0.0482929
-0.0623695
-0.0847412
-0.0971513
-0.107847
-0.124913
-0.145968
-0.183643
-0.249424
-0.328138
-0.376993
-0.397784
-0.41653
-0.439351
-0.46734
-0.498566
-0.535412
-0.571052
-0.589149
-0.0150701
-0.0443967
-0.0700402
-0.101119
-0.116686
-0.127832
-0.139954
-0.161801
-0.200138
-0.259198
-0.31548
-0.343717
-0.353492
-0.356393
-0.36382
-0.373339
-0.385998
-0.405516
-0.440416
-0.483885
-0.0220726
-0.0512042
-0.0829573
-0.107956
-0.125689
-0.149263
-0.174919
-0.201917
-0.234026
-0.27182
-0.306994
-0.334106
-0.35169
-0.356195
-0.353804
-0.348366
-0.348689
-0.360728
-0.391793
-0.440197
-0.0666085
-0.0784238
-0.0890159
-0.102043
-0.104427
-0.127992
-0.1585
-0.191017
-0.214205
-0.232534
-0.246339
-0.258741
-0.270132
-0.282922
-0.296601
-0.311778
-0.329135
-0.350907
-0.379706
-0.418129
-0.0387617
-0.0255525
-0.0376105
-0.0513082
-0.0588985
-0.0547009
-0.0469947
-0.0396973
-0.0377424
-0.0374848
-0.0379256
-0.0375448
-0.0368861
-0.0372783
-0.0418497
-0.0537789
-0.0714157
-0.0878635
-0.0993652
-0.105072
-0.0108982
-0.0184255
-0.0339334
-0.0431745
-0.0516173
-0.0449832
-0.0390463
-0.0327681
-0.0331886
-0.0369779
-0.0439575
-0.0545484
-0.0698139
-0.0875265
-0.097549
-0.0989871
-0.0927639
-0.089375
-0.0953386
-0.106538
-0.0161777
-0.0125557
-0.0236587
-0.0247004
-0.024161
-0.0256869
-0.036199
-0.0494574
-0.0703774
-0.086519
-0.101673
-0.108187
-0.109069
-0.102409
-0.0914195
-0.0823521
-0.0810184
-0.0884129
-0.101335
-0.115407
-0.0098106
-0.0129686
-0.0290062
-0.038461
-0.0484472
-0.0433959
-0.0519813
-0.056617
-0.069297
-0.0791937
-0.0907017
-0.1012
-0.112368
-0.121931
-0.132867
-0.141235
-0.147017
-0.152076
-0.159419
-0.163893
-0.0186602
-0.0241651
-0.0331759
-0.0447464
-0.0627287
-0.0676459
-0.067369
-0.0545637
-0.0499788
-0.0444818
-0.044904
-0.0463394
-0.051578
-0.058395
-0.0702357
-0.0869269
-0.110036
-0.138197
-0.165817
-0.183034
-0.0105132
-0.0119898
-0.019231
-0.0252496
-0.0370432
-0.0472979
-0.0527101
-0.0421293
-0.0319365
-0.0229634
-0.0217256
-0.0254234
-0.031572
-0.0402882
-0.0525243
-0.0698987
-0.0941214
-0.127253
-0.173189
-0.221253
-0.0120719
-0.0144912
-0.0210275
-0.025373
-0.0315495
-0.0306981
-0.0314082
-0.0234567
-0.0178704
-0.0159747
-0.0165081
-0.020831
-0.026975
-0.034774
-0.0459903
-0.0637932
-0.0919295
-0.136258
-0.199126
-0.257745
-0.0100809
-0.0120778
-0.0179835
-0.02545
-0.0376683
-0.0356142
-0.0416378
-0.0255491
-0.0125188
-0.0103787
-0.0119575
-0.0163931
-0.024083
-0.0336905
-0.0452571
-0.061402
-0.0889402
-0.13309
-0.186076
-0.21149
-0.0184994
-0.0129559
-0.021586
-0.0310769
-0.0472878
-0.0496093
-0.0561142
-0.0479602
-0.013135
-0.00828802
-0.00938979
-0.0142061
-0.0243569
-0.0397055
-0.0500631
-0.0587243
-0.0837493
-0.121169
-0.158305
-0.158585
-0.0190357
-0.0373927
-0.0481595
-0.0568064
-0.0676745
-0.0494933
-0.0466908
-0.046182
-0.0303274
-0.0189552
-0.014086
-0.0204364
-0.0322404
-0.0468036
-0.0618043
-0.0573426
-0.0743686
-0.101029
-0.123881
-0.121935
-0.0198563
-0.021758
-0.0225142
-0.0379136
-0.0394562
-0.035933
-0.0488586
-0.0537286
-0.0498715
-0.0450486
-0.0454587
-0.0556408
-0.0780464
-0.0819971
-0.0780739
-0.0537696
-0.0631403
-0.0797622
-0.0932537
-0.0947081
-0.0060319
-0.0221119
-0.0251994
-0.0309074
-0.0473579
-0.0328544
-0.0552137
-0.0891568
-0.0880002
-0.0764112
-0.0753299
-0.097161
-0.109628
-0.0842847
-0.0540195
-0.0451746
-0.0516421
-0.0615064
-0.0705754
-0.0758154
-0.00353989
-0.00884939
-0.0167094
-0.0290982
-0.0488697
-0.0416624
-0.0514677
-0.0600672
-0.0476443
-0.0514621
-0.0751313
-0.107926
-0.11149
-0.0852108
-0.0595047
-0.0552274
-0.0567253
-0.0625233
-0.0726789
-0.0866107
-0.00157899
-0.00420309
-0.0118581
-0.0175717
-0.0304674
-0.025148
-0.0361802
-0.0430796
-0.048956
-0.061124
-0.0805738
-0.0965469
-0.107085
-0.109986
-0.108982
-0.104239
-0.0997003
-0.102812
-0.116244
-0.136155
-0.00299592
-0.0100572
-0.0158277
-0.0122248
-0.0182103
-0.0183552
-0.0339849
-0.0428808
-0.055243
-0.057231
-0.0635
-0.067349
-0.0767612
-0.0843143
-0.0917599
-0.106195
-0.125655
-0.145678
-0.165677
-0.187199
-0.0060995
-0.00392901
-0.00629071
-0.0064187
-0.010634
-0.0179957
-0.0336159
-0.0508701
-0.0704291
-0.0719615
-0.066706
-0.051634
-0.0476566
-0.0440292
-0.0476764
-0.052248
-0.0601287
-0.0687532
-0.0787082
-0.0775754
-0.00487959
-0.01086
-0.0113213
-0.0155829
-0.0144315
-0.02275
-0.0380033
-0.0595933
-0.0922325
-0.0966928
-0.0691646
-0.036918
-0.0286402
-0.0284048
-0.0308043
-0.0339486
-0.0370763
-0.0398085
-0.0426808
-0.0440152
-0.0171724
-0.0276442
-0.0424282
-0.0415149
-0.0410423
-0.0418854
-0.0547994
-0.0673307
-0.0842683
-0.0749883
-0.055491
-0.0357949
-0.0307156
-0.0306255
-0.0329173
-0.0367502
-0.0417856
-0.0475432
-0.0543494
-0.0612843
-0.00924887
-0.0310209
-0.0265135
-0.0216859
-0.0159452
-0.0224783
-0.0363385
-0.0452039
-0.0605858
-0.0617461
-0.0616583
-0.0537517
-0.0474624
-0.0437049
-0.0449447
-0.0492322
-0.0558968
-0.0642904
-0.0733938
-0.0763452
-0.0186684
-0.0515774
-0.0378731
-0.0221917
-0.0128222
-0.0129404
-0.0185176
-0.0274246
-0.038911
-0.0425595
-0.0444375
-0.0464952
-0.0535511
-0.0653056
-0.0802837
-0.0957973
-0.114473
-0.137891
-0.167269
-0.194882
-0.0110827
-0.0137381
-0.0245684
-0.0322837
-0.0319722
-0.0260515
-0.0215664
-0.0197977
-0.0206117
-0.0217838
-0.0225283
-0.0226861
-0.0230437
-0.0245535
-0.0280815
-0.033423
-0.0397956
-0.0463055
-0.0521736
-0.0567777
-0.0114894
-0.0108376
-0.0169173
-0.0206462
-0.0209402
-0.0170143
-0.0164024
-0.0173932
-0.0195805
-0.022476
-0.0263274
-0.0314437
-0.0382449
-0.0460085
-0.0521153
-0.0563191
-0.059193
-0.0617684
-0.0641235
-0.0658248
-0.00359451
-0.00896803
-0.0129863
-0.012059
-0.0117039
-0.0127433
-0.0162905
-0.0205198
-0.0270735
-0.0322367
-0.0378468
-0.0401303
-0.0412982
-0.0410407
-0.0415089
-0.043426
-0.0465375
-0.0496742
-0.0525088
-0.0535918
-0.0107789
-0.00843913
-0.0144642
-0.0155342
-0.0183086
-0.0160123
-0.0197916
-0.022631
-0.0282477
-0.0332142
-0.03936
-0.0449407
-0.0509355
-0.0554167
-0.05934
-0.0619778
-0.0642045
-0.0661119
-0.0683073
-0.0688764
-0.0100131
-0.0135822
-0.0202897
-0.0250598
-0.0322594
-0.0260182
-0.0228556
-0.0186951
-0.0191595
-0.0207002
-0.0235626
-0.0273101
-0.0320878
-0.0378314
-0.044835
-0.0529248
-0.0627874
-0.0740225
-0.0853839
-0.0942367
-0.0015215
-0.0035344
-0.00956537
-0.0149104
-0.0208709
-0.0209674
-0.0190833
-0.0147088
-0.0139319
-0.0156786
-0.0188387
-0.0230394
-0.0281078
-0.0344123
-0.0423739
-0.0527537
-0.0669416
-0.0862738
-0.112221
-0.138644
-0.0182731
-0.0100536
-0.0149199
-0.0169335
-0.0187687
-0.0157398
-0.0124818
-0.0104682
-0.0110117
-0.0136261
-0.0169652
-0.0211132
-0.0263721
-0.0335775
-0.0434686
-0.0569655
-0.0760041
-0.102088
-0.134638
-0.157059
-0.00587593
-0.00792965
-0.0125343
-0.0151698
-0.0171322
-0.0139159
-0.0134746
-0.00889569
-0.00942424
-0.0115381
-0.0142333
-0.0178703
-0.0221915
-0.0274738
-0.0435868
-0.0592601
-0.0787119
-0.101382
-0.119689
-0.117382
-0.0127046
-0.00856822
-0.0129772
-0.018178
-0.0232868
-0.0199685
-0.0187293
-0.00991657
-0.0071763
-0.00803819
-0.0114435
-0.0168658
-0.0230738
-0.0284713
-0.0343802
-0.0581463
-0.0761591
-0.09098
-0.0954678
-0.0823853
-0.0196531
-0.0157248
-0.0176408
-0.0215169
-0.022058
-0.0178092
-0.0185832
-0.0131694
-0.00796675
-0.00952438
-0.0152383
-0.0228152
-0.0304207
-0.035395
-0.0348365
-0.0512128
-0.0655014
-0.0745071
-0.0744118
-0.0651912
-0.0390678
-0.0121219
-0.0109408
-0.0128551
-0.0118178
-0.0124163
-0.0137979
-0.0127296
-0.0136014
-0.0174824
-0.0247209
-0.0353991
-0.0428668
-0.0440446
-0.0354486
-0.0416852
-0.0515608
-0.057646
-0.0581197
-0.0545268
-0.00579308
-0.00915886
-0.0105405
-0.0118357
-0.0133056
-0.0133835
-0.0175056
-0.0208967
-0.0219114
-0.0264927
-0.0381111
-0.0497273
-0.0428077
-0.033826
-0.0286762
-0.0345471
-0.0410494
-0.0461306
-0.0489436
-0.0501034
-0.00242628
-0.00548191
-0.00964598
-0.0135124
-0.0195362
-0.0160742
-0.0183784
-0.0212759
-0.0248408
-0.0329903
-0.0411939
-0.0444281
-0.0379211
-0.0331242
-0.0344498
-0.0382215
-0.0426501
-0.0470585
-0.0512382
-0.0549576
-0.000437068
-0.00188471
-0.00613737
-0.00950548
-0.0132301
-0.0146485
-0.0180162
-0.0222269
-0.0265503
-0.0310071
-0.0357848
-0.0380034
-0.0386961
-0.039889
-0.042349
-0.0454495
-0.0495709
-0.0552277
-0.0634822
-0.0731447
-0.000360882
-0.00316375
-0.00623973
-0.00809403
-0.0117198
-0.0161079
-0.0205332
-0.0236666
-0.0263431
-0.0265788
-0.0283966
-0.0292528
-0.0320702
-0.0355308
-0.0404418
-0.0472082
-0.055991
-0.0661367
-0.0774894
-0.0887771
-0.00192135
-0.0022919
-0.00401766
-0.00633169
-0.0113933
-0.0181408
-0.024962
-0.0292134
-0.0305551
-0.0272571
-0.0252678
-0.0239111
-0.0252714
-0.0273387
-0.0306735
-0.034145
-0.0383581
-0.0426574
-0.0472459
-0.0511254
-0.00197735
-0.00487826
-0.00625296
-0.0103333
-0.0146279
-0.0218443
-0.0329922
-0.0402691
-0.0472718
-0.0365961
-0.0257379
-0.0221289
-0.0232593
-0.0253292
-0.0275744
-0.0298447
-0.032198
-0.0346247
-0.0374077
-0.0407534
-0.012701
-0.0156082
-0.0188826
-0.019794
-0.0198863
-0.0194341
-0.0270228
-0.0292335
-0.0335592
-0.0265433
-0.0235218
-0.0239728
-0.0264347
-0.0293447
-0.0323076
-0.0351346
-0.037848
-0.0400552
-0.042057
-0.0450065
-0.00666032
-0.014003
-0.00675937
-0.007948
-0.00748665
-0.00941253
-0.0128362
-0.0154471
-0.0207343
-0.0219715
-0.0245435
-0.0270806
-0.0313134
-0.0362007
-0.0415146
-0.0471405
-0.0533072
-0.0590646
-0.0633689
-0.0647634
-0.0123208
-0.0239944
-0.0132198
-0.00767798
-0.00574458
-0.00541171
-0.00675609
-0.00914689
-0.0124662
-0.0141871
-0.0163726
-0.0197109
-0.0255058
-0.033858
-0.0445815
-0.0568467
-0.0713684
-0.0884132
-0.107094
-0.121274
-0.0118059
-0.0150894
-0.0180819
-0.0197976
-0.0173702
-0.0140876
-0.012856
-0.0130837
-0.0141381
-0.015309
-0.0167883
-0.0190989
-0.022346
-0.0261371
-0.0299766
-0.0335155
-0.0364635
-0.0386092
-0.0399223
-0.0397144
-0.00300841
-0.00607022
-0.00885636
-0.0104461
-0.0108962
-0.0114759
-0.0129387
-0.0149021
-0.0174184
-0.0206907
-0.0248076
-0.029281
-0.0334504
-0.0364232
-0.0378949
-0.0377952
-0.0368346
-0.0355089
-0.03429
-0.0327648
-0.0134407
-0.00791146
-0.00847512
-0.00812491
-0.00850541
-0.00969559
-0.0116862
-0.0138678
-0.0166858
-0.0190358
-0.0216227
-0.0232482
-0.0246735
-0.0255704
-0.0262617
-0.0267375
-0.0271002
-0.0272915
-0.0276168
-0.0277028
-0.00989542
-0.0066779
-0.00724983
-0.00796334
-0.0087231
-0.00929954
-0.0115003
-0.0135371
-0.0163395
-0.0189057
-0.0220427
-0.024799
-0.0277093
-0.029778
-0.0315099
-0.0327787
-0.034086
-0.0351674
-0.0362001
-0.0368016
-0.0102123
-0.00999708
-0.0100624
-0.0117544
-0.0131861
-0.0106732
-0.0108804
-0.0115758
-0.013332
-0.0153888
-0.0179572
-0.0209314
-0.0244872
-0.0283605
-0.0327938
-0.0375945
-0.0430723
-0.0486669
-0.0538827
-0.0580919
-0.00303976
-0.00576186
-0.00819186
-0.00836729
-0.0106237
-0.00981006
-0.0101766
-0.0109701
-0.0130919
-0.0157088
-0.0189881
-0.0225963
-0.0269591
-0.0318532
-0.0377953
-0.0450695
-0.0541513
-0.064764
-0.0767233
-0.0859054
-0.00422173
-0.0103347
-0.0120681
-0.0102644
-0.00973784
-0.0080403
-0.0083354
-0.0102615
-0.0130932
-0.016281
-0.0200661
-0.0244454
-0.0298314
-0.0359211
-0.0429993
-0.051468
-0.0613425
-0.071685
-0.0813772
-0.0820913
-0.00341557
-0.00757186
-0.0118589
-0.0117454
-0.00988373
-0.00791008
-0.00785358
-0.00949269
-0.0120521
-0.0144617
-0.0168746
-0.0200843
-0.025299
-0.0325944
-0.0444166
-0.0509504
-0.0568168
-0.0612422
-0.0614675
-0.0534066
-0.0013723
-0.0044421
-0.00847441
-0.01183
-0.0109784
-0.00930165
-0.00849929
-0.00800361
-0.00964987
-0.0116614
-0.0144912
-0.0170059
-0.0197249
-0.0258742
-0.0406847
-0.0477618
-0.0491816
-0.047834
-0.0429283
-0.0345068
-0.0171131
-0.0130951
-0.0124036
-0.0120866
-0.0103793
-0.00961616
-0.00914092
-0.00760449
-0.00863631
-0.0118692
-0.0155408
-0.0185318
-0.0202781
-0.0232225
-0.0365732
-0.0435206
-0.0438533
-0.0418042
-0.0383462
-0.0346077
-0.0134272
-0.00899664
-0.00881366
-0.00919432
-0.00898136
-0.00911628
-0.0092274
-0.0100224
-0.0124032
-0.0158937
-0.0201321
-0.023585
-0.0234454
-0.0232734
-0.0317265
-0.0374317
-0.0385419
-0.0382468
-0.0375032
-0.0373557
-0.00286403
-0.00552153
-0.00754432
-0.00865015
-0.00954727
-0.0108811
-0.012354
-0.0138982
-0.0169729
-0.0212491
-0.0234985
-0.0222778
-0.0208655
-0.0215226
-0.025708
-0.0310857
-0.0337589
-0.0356875
-0.0373032
-0.0388787
-0.00315578
-0.00450021
-0.00644603
-0.00832447
-0.0102914
-0.0113088
-0.0127999
-0.0163391
-0.01837
-0.0203791
-0.0213137
-0.021068
-0.0211778
-0.0228398
-0.0272122
-0.0305913
-0.0338262
-0.0369484
-0.0399431
-0.042534
-0.000269729
-0.00181243
-0.0047316
-0.00714268
-0.00966086
-0.0119207
-0.0141526
-0.0164621
-0.0184515
-0.0203924
-0.0220518
-0.0240207
-0.0258448
-0.0286818
-0.0318499
-0.0356267
-0.0397884
-0.0448592
-0.050883
-0.0573101
-0.00177074
-0.00267581
-0.00502171
-0.00756659
-0.01035
-0.0128935
-0.0149134
-0.0164122
-0.0181454
-0.0196411
-0.0218707
-0.0245422
-0.0278162
-0.0316769
-0.0359084
-0.0406717
-0.0458442
-0.0515381
-0.0574782
-0.0628327
-0.00152553
-0.00267627
-0.00481756
-0.00763197
-0.0111563
-0.0142622
-0.0162649
-0.0177273
-0.0188684
-0.0199277
-0.0218169
-0.0242198
-0.0269899
-0.029863
-0.0328404
-0.0356284
-0.0383664
-0.0407284
-0.042872
-0.0444297
-0.000680721
-0.00472519
-0.00635089
-0.00912007
-0.012445
-0.0152999
-0.019942
-0.0210376
-0.0231036
-0.0214113
-0.0222423
-0.0247226
-0.02742
-0.0301564
-0.0328676
-0.0356251
-0.0383966
-0.0410956
-0.043755
-0.0461007
-0.00451669
-0.00717804
-0.00721531
-0.0101631
-0.0100777
-0.00989552
-0.0138778
-0.0153742
-0.0183165
-0.0196705
-0.0225426
-0.0259619
-0.0292005
-0.032361
-0.0354457
-0.0387043
-0.0424288
-0.0466948
-0.0518334
-0.057437
-0.00185622
-0.00307316
-0.00263383
-0.00425856
-0.00501741
-0.00672874
-0.009201
-0.0121932
-0.0158313
-0.0193278
-0.0233917
-0.0276288
-0.0320569
-0.0366204
-0.0413996
-0.0460951
-0.0504279
-0.053654
-0.0564971
-0.0601987
-0.00414052
-0.00944584
-0.0059533
-0.00426007
-0.00333061
-0.00363628
-0.00500506
-0.00667623
-0.00865682
-0.010946
-0.0139848
-0.01831
-0.0241338
-0.0315413
-0.040212
-0.0497382
-0.0598362
-0.0690231
-0.0759786
-0.0785946
-0.00575555
-0.0125253
-0.0147018
-0.0142995
-0.0123894
-0.0102153
-0.00912106
-0.00968952
-0.01194
-0.015063
-0.0179518
-0.0198841
-0.0209801
-0.0215097
-0.0218002
-0.0219401
-0.0220402
-0.0221064
-0.022122
-0.0214845
-0.00147347
-0.00450555
-0.007368
-0.00907926
-0.00920757
-0.010184
-0.011936
-0.0143944
-0.016646
-0.0184971
-0.0196874
-0.0202156
-0.0204649
-0.0200659
-0.0193782
-0.0184199
-0.0174897
-0.016432
-0.0153648
-0.0142251
-0.0123911
-0.0126675
-0.00784704
-0.00743516
-0.00857542
-0.0102264
-0.0119974
-0.0135222
-0.014936
-0.0159927
-0.016963
-0.0175419
-0.0179021
-0.017859
-0.0175033
-0.0168518
-0.0159195
-0.0148058
-0.0136981
-0.0128176
-0.00695127
-0.0083442
-0.00725333
-0.00712624
-0.00804696
-0.00970067
-0.0115483
-0.0133659
-0.0152036
-0.0167922
-0.0183212
-0.0193859
-0.0201704
-0.020344
-0.0201435
-0.0195661
-0.0188617
-0.0179867
-0.0172095
-0.0166988
-0.00288272
-0.00640919
-0.00624643
-0.00706658
-0.00796304
-0.00926694
-0.0112771
-0.0132372
-0.0155104
-0.0175284
-0.019573
-0.0211865
-0.0225995
-0.0235521
-0.0243559
-0.0249183
-0.0254208
-0.0258233
-0.0262644
-0.0267283
-0.00513745
-0.00674096
-0.00693145
-0.00682014
-0.00807024
-0.00989233
-0.0124595
-0.0148889
-0.0177736
-0.0199736
-0.0220323
-0.0233578
-0.0243792
-0.0250554
-0.0257279
-0.0264647
-0.0272723
-0.0279953
-0.0291401
-0.0295336
-0.0108717
-0.00896688
-0.00873667
-0.00692536
-0.00747543
-0.00968577
-0.0129687
-0.0160373
-0.0192945
-0.0215811
-0.0234156
-0.0243388
-0.0244415
-0.0241049
-0.0235084
-0.022952
-0.0222927
-0.0216933
-0.0215866
-0.0195588
-0.00558973
-0.00676555
-0.0128497
-0.0101926
-0.00850861
-0.00972087
-0.011284
-0.0153821
-0.0181711
-0.0207664
-0.0229697
-0.024719
-0.0251611
-0.024296
-0.0176556
-0.0160143
-0.0147052
-0.0137417
-0.01263
-0.0105883
-0.00239579
-0.00588289
-0.0101187
-0.01025
-0.00939897
-0.00966015
-0.010497
-0.0131392
-0.0154053
-0.0171964
-0.0199298
-0.0233438
-0.0258227
-0.0252357
-0.0191652
-0.0114795
-0.00962186
-0.00812605
-0.00657403
-0.00518237
-0.00148347
-0.006166
-0.0101975
-0.0105763
-0.00997127
-0.00986053
-0.0100367
-0.0112978
-0.0135281
-0.0154996
-0.0176145
-0.0212494
-0.0255582
-0.0272228
-0.0223508
-0.015812
-0.0136398
-0.0113651
-0.008985
-0.00724513
-0.0076987
-0.00758464
-0.00796533
-0.00900652
-0.00979607
-0.0101745
-0.0105793
-0.0117542
-0.0133718
-0.0148412
-0.016387
-0.01908
-0.0238102
-0.0282075
-0.0285902
-0.0226208
-0.0211665
-0.0192158
-0.0167624
-0.0150573
-0.00253679
-0.00562614
-0.00739167
-0.00854564
-0.0103091
-0.0115728
-0.0123877
-0.0134889
-0.0147296
-0.0156147
-0.016533
-0.0182411
-0.0210234
-0.0242143
-0.0269924
-0.0234678
-0.022627
-0.0208873
-0.0185118
-0.0165992
-0.00233569
-0.00440526
-0.00628821
-0.00798483
-0.0100241
-0.012377
-0.0135047
-0.0166394
-0.0183805
-0.0198787
-0.0210211
-0.0218419
-0.0227625
-0.0239095
-0.025808
-0.0265548
-0.0267774
-0.0266304
-0.0260962
-0.0256838
-0.000578043
-0.00121847
-0.00426045
-0.00769131
-0.0106952
-0.0138915
-0.0161713
-0.0193472
-0.0216196
-0.0242743
-0.0262129
-0.0286331
-0.0305176
-0.032827
-0.0347721
-0.0370816
-0.0389283
-0.0408418
-0.0423607
-0.0436948
-0.00237382
-0.00232245
-0.00551738
-0.00905817
-0.0122128
-0.0153214
-0.0173768
-0.0203777
-0.0226919
-0.0254511
-0.0275777
-0.0296879
-0.0313668
-0.0327233
-0.0338328
-0.034439
-0.0349245
-0.0348791
-0.0346291
-0.0342011
-0.00119756
-0.00285199
-0.00625412
-0.00961867
-0.0129534
-0.0161896
-0.018887
-0.0219108
-0.0242167
-0.0268067
-0.028485
-0.0298983
-0.0303851
-0.0302648
-0.0294728
-0.0280221
-0.026222
-0.0240771
-0.022143
-0.020846
-0.00135606
-0.00427798
-0.00669492
-0.00924742
-0.0126941
-0.015702
-0.0192264
-0.0222349
-0.0253667
-0.028765
-0.0318487
-0.0347683
-0.0368308
-0.0386075
-0.0394848
-0.0398689
-0.0393174
-0.0380889
-0.0362718
-0.0343811
-0.00259344
-0.00344122
-0.0045286
-0.00684184
-0.0088371
-0.0116844
-0.0152423
-0.0186467
-0.0224212
-0.0264642
-0.0306968
-0.0349715
-0.0393455
-0.0437329
-0.0479108
-0.0517682
-0.0548896
-0.0570015
-0.0578338
-0.0576003
-0.000851293
-0.00167434
-0.00253747
-0.00438314
-0.00621319
-0.00897271
-0.0120381
-0.0154303
-0.0186988
-0.0218231
-0.0249291
-0.0281366
-0.0316279
-0.0354465
-0.0396673
-0.0443464
-0.0495103
-0.0551861
-0.0609864
-0.0661441
-0.00141115
-0.00491977
-0.00353008
-0.00320737
-0.00376068
-0.0049516
-0.00654851
-0.00915775
-0.0124233
-0.0165877
-0.0209145
-0.0254478
-0.0297073
-0.0336424
-0.0372845
-0.0405947
-0.0439222
-0.0465042
-0.0495429
-0.0524941
-0.0135328
-0.0145373
-0.0195443
-0.0113806
-0.014832
-0.0156855
-0.0197958
-0.0208826
-0.0218112
-0.0293925
-0.0159501
-0.0190518
-0.0211766
-0.0246647
-0.0224526
-0.0249971
-0.0321051
-0.0177414
-0.0220237
-0.0230277
-0.0274119
-0.0324735
-0.0353648
-0.0456264
-0.0235986
-0.0271804
-0.0284003
-0.0292765
-0.133944
-0.1126
-0.120158
-0.1188
-0.130931
-0.107575
-0.115422
-0.127878
-0.122139
-0.119052
-0.129635
-0.107858
-0.117492
-0.110485
-0.110781
-0.115867
-0.104016
-0.0968212
-0.0657204
-0.105545
-0.089387
-0.0928594
-0.0999892
-0.0889901
-0.0571931
-0.0429912
-0.0833437
-0.0613134
-0.0806909
-0.0857582
-0.0780366
-0.0400976
-0.0347023
-0.0541138
-0.0397141
-0.0722258
-0.0762069
-0.0729803
-0.0337053
-0.0356489
-0.0377441
-0.0393436
-0.0677535
-0.0724231
-0.0711514
-0.0378994
-0.0490212
-0.0416162
-0.0512759
-0.0669338
-0.0707031
-0.0701019
-0.0538141
-0.0674032
-0.0551343
-0.06862
-0.119794
-0.13344
-0.122518
-0.1174
-0.114816
-0.130148
-0.118651
-0.117283
-0.120239
-0.113652
-0.115818
-0.11071
-0.116095
-0.108416
-0.103233
-0.11129
-0.10381
-0.106901
-0.093055
-0.105499
-0.0948566
-0.0891304
-0.101156
-0.0940716
-0.0865331
-0.0615939
-0.0906988
-0.0795257
-0.0792402
-0.0923722
-0.0895703
-0.0541336
-0.0417337
-0.0780614
-0.077855
-0.0756657
-0.0892366
-0.0898213
-0.0407479
-0.0446074
-0.0789219
-0.0872156
-0.0745757
-0.090888
-0.0939518
-0.0472138
-0.0563541
-0.0902086
-0.0935135
-0.072484
-0.0938458
-0.0898752
-0.0595762
-0.0710664
-0.0933587
-0.0927634
-0.12657
-0.153564
-0.141562
-0.137083
-0.123226
-0.147417
-0.138344
-0.114562
-0.137657
-0.128636
-0.119656
-0.110411
-0.135523
-0.13011
-0.10393
-0.127252
-0.125712
-0.107521
-0.0996119
-0.129446
-0.128243
-0.0962152
-0.125549
-0.124322
-0.0976327
-0.0946443
-0.127862
-0.126632
-0.0948361
-0.124038
-0.125043
-0.094325
-0.0950231
-0.126734
-0.129938
-0.0977397
-0.126509
-0.133666
-0.0964434
-0.104768
-0.132279
-0.139236
-0.104828
-0.136971
-0.139878
-0.107118
-0.107011
-0.139343
-0.123886
-0.0996952
-0.13813
-0.12754
-0.105429
-0.10139
-0.117917
-0.101951
-0.15151
-0.170566
-0.172
-0.158007
-0.151446
-0.168877
-0.171236
-0.140839
-0.172167
-0.168279
-0.148834
-0.142326
-0.170055
-0.163815
-0.136495
-0.168467
-0.167043
-0.140902
-0.136613
-0.162341
-0.1579
-0.132952
-0.17171
-0.178916
-0.13542
-0.133569
-0.15995
-0.167354
-0.137165
-0.18474
-0.192436
-0.134209
-0.139449
-0.173422
-0.183686
-0.146946
-0.199063
-0.206955
-0.142525
-0.149795
-0.190708
-0.197879
-0.154129
-0.214446
-0.219763
-0.149715
-0.130283
-0.201532
-0.184966
-0.142212
-0.223373
-0.207172
-0.121503
-0.0966134
-0.174786
-0.125077
-0.0562058
-0.0588367
-0.0598717
-0.0350933
-0.0217552
-0.0416674
-0.028294
-0.0180347
-0.0532537
-0.0286862
-0.0162908
-0.00898765
-0.0229329
-0.011819
-0.00864969
-0.0245298
-0.0187863
-0.00804335
-0.00738277
-0.00997224
-0.00845436
-0.00885322
-0.0172096
-0.0135694
-0.00768364
-0.0096713
-0.00885547
-0.0118736
-0.0125593
-0.013358
-0.0162437
-0.0107194
-0.0148929
-0.0133723
-0.0189493
-0.0212652
-0.0181342
-0.0256953
-0.016541
-0.0221314
-0.0210683
-0.0279006
-0.0355984
-0.0287343
-0.039611
-0.0240175
-0.0293842
-0.0302
-0.0362208
-0.0506859
-0.0439036
-0.0572232
-0.0307703
-0.0339555
-0.0375358
-0.0391678
-0.0496813
-0.0463947
-0.04711
-0.0365384
-0.0265499
-0.0255971
-0.0169936
-0.0330872
-0.0474068
-0.0436994
-0.0220208
-0.0120321
-0.0152675
-0.0126328
-0.0219779
-0.0406915
-0.0298036
-0.0103793
-0.00927565
-0.0125051
-0.0139846
-0.0140195
-0.0273838
-0.0271823
-0.00976953
-0.0131153
-0.0150428
-0.0200746
-0.0181618
-0.0290843
-0.0374156
-0.0147694
-0.0209144
-0.0224295
-0.0308897
-0.0290298
-0.0413278
-0.0563694
-0.0232093
-0.0304192
-0.0339065
-0.0422509
-0.0427729
-0.0609245
-0.06897
-0.0327797
-0.038965
-0.0444006
-0.0490077
-0.0600858
-0.0709861
-0.078403
-0.0403422
-0.041634
-0.0501194
-0.0509004
-0.0535112
-0.0504372
-0.0684092
-0.0234239
-0.0178262
-0.0251024
-0.0241953
-0.0513865
-0.072282
-0.0790829
-0.0167852
-0.0156446
-0.0242364
-0.024928
-0.0457661
-0.0800518
-0.0799895
-0.0158248
-0.0178174
-0.025318
-0.0274372
-0.0448302
-0.0791603
-0.0769031
-0.0189576
-0.0241764
-0.0287283
-0.0357154
-0.0514275
-0.0771584
-0.086322
-0.0266353
-0.0357922
-0.0393299
-0.0522873
-0.0736448
-0.0929287
-0.108875
-0.0392239
-0.0479464
-0.0563468
-0.0599677
-0.0814399
-0.107059
-0.0929469
-0.0496908
-0.0523129
-0.0575497
-0.0488548
-0.0858922
-0.0885992
-0.0774703
-0.0528292
-0.0523214
-0.0464104
-0.0410395
-0.0850942
-0.0528341
-0.073475
-0.0267617
-0.0273266
-0.0300332
-0.0287319
-0.090258
-0.0744094
-0.0675926
-0.0274895
-0.0271087
-0.0288123
-0.0293576
-0.0789151
-0.0642501
-0.0501347
-0.0270096
-0.0287017
-0.0303371
-0.0357321
-0.0739914
-0.048849
-0.0608804
-0.0303332
-0.0390797
-0.0397877
-0.052232
-0.0892464
-0.0696931
-0.0970798
-0.0433389
-0.0569271
-0.0576242
-0.0689218
-0.112454
-0.107375
-0.122763
-0.0606034
-0.0605169
-0.0716702
-0.0684706
-0.0909341
-0.119345
-0.0933504
-0.0566488
-0.0449258
-0.0650095
-0.0491465
-0.0685587
-0.0842597
-0.0644862
-0.0419702
-0.0368911
-0.045475
-0.036686
-0.012646
-0.0238284
-0.0174936
-0.01214
-0.00804236
-0.0148191
-0.00933727
-0.00716333
-0.0141124
-0.00810437
-0.0074608
-0.00775248
-0.0081796
-0.00713516
-0.00753984
-0.00746766
-0.00796106
-0.00821014
-0.00966488
-0.00742924
-0.00964628
-0.0103483
-0.00871753
-0.012362
-0.0104729
-0.0130634
-0.0106933
-0.0140532
-0.0154088
-0.0139199
-0.0191153
-0.0139983
-0.0167271
-0.0151441
-0.0181933
-0.0215509
-0.020928
-0.0264597
-0.0175741
-0.0199503
-0.0190973
-0.0214772
-0.0273665
-0.0281979
-0.0323767
-0.0206748
-0.0232757
-0.0221067
-0.0237274
-0.0310959
-0.033229
-0.0342287
-0.0246729
-0.0310565
-0.0243579
-0.0284665
-0.0155436
-0.0141013
-0.0116452
-0.0133204
-0.00911369
-0.0101404
-0.00877343
-0.00847753
-0.011101
-0.0106511
-0.00815437
-0.00746693
-0.0088074
-0.0100432
-0.00868344
-0.0109098
-0.0129997
-0.00784972
-0.0102891
-0.010808
-0.0140801
-0.012496
-0.0106341
-0.0105036
-0.0101024
-0.011732
-0.0113608
-0.011114
-0.0190227
-0.0170646
-0.0168041
-0.0158754
-0.0188143
-0.0174639
-0.0173568
-0.0286331
-0.0317108
-0.0379081
-0.0199351
-0.0221453
-0.0254404
-0.0261074
-0.0345846
-0.0393595
-0.0420203
-0.0227182
-0.0241032
-0.0260086
-0.0256649
-0.035738
-0.042498
-0.0417175
-0.0245821
-0.0279201
-0.0256324
-0.0268126
-0.0128929
-0.0160376
-0.0180899
-0.0100001
-0.00985722
-0.0118607
-0.0131459
-0.0131449
-0.0185697
-0.0200502
-0.0101435
-0.0118457
-0.0137184
-0.0160426
-0.0160546
-0.0206471
-0.0234753
-0.0126994
-0.0161494
-0.0171171
-0.0213587
-0.0210395
-0.0188586
-0.0204856
-0.0170251
-0.0220526
-0.0186198
-0.0192793
-0.0305291
-0.0271768
-0.0287203
-0.0248526
-0.0316683
-0.027313
-0.0278881
-0.0418046
-0.0481681
-0.0478653
-0.0279399
-0.0278851
-0.0287656
-0.0261046
-0.0440385
-0.045588
-0.039167
-0.0274662
-0.0262076
-0.0253186
-0.0240273
-0.0422264
-0.0374977
-0.0340282
-0.0258671
-0.0263623
-0.023849
-0.0244428
-0.0204807
-0.0174121
-0.0209095
-0.0136416
-0.0144859
-0.0144487
-0.0165402
-0.0215644
-0.0214846
-0.0230936
-0.0149235
-0.0171601
-0.0176946
-0.0214288
-0.0247099
-0.0240772
-0.028083
-0.0183191
-0.0228242
-0.0227644
-0.0265207
-0.0345969
-0.0306689
-0.0391433
-0.0245135
-0.0284906
-0.0278976
-0.0303551
-0.0479602
-0.0422386
-0.0485619
-0.0292207
-0.0289964
-0.030748
-0.0293829
-0.0459386
-0.0485093
-0.0426579
-0.0280559
-0.0248387
-0.0285827
-0.0254672
-0.035472
-0.0391628
-0.0325357
-0.0240541
-0.0230754
-0.024909
-0.0236504
-0.0312089
-0.0316053
-0.0301751
-0.023024
-0.023841
-0.0238979
-0.024638
-0.00765008
-0.00982987
-0.0079198
-0.00764237
-0.0084809
-0.00796445
-0.00786193
-0.00914816
-0.00756618
-0.0079143
-0.00934001
-0.0113881
-0.00818479
-0.0100478
-0.0109323