/*--------------------------------*- C++ -*----------------------------------*\
  =========                 |
  \\      /  F ield         | OpenFOAM: The Open Source CFD Toolbox
   \\    /   O peration     | Website:  https://openfoam.org
    \\  /    A nd           | Version:  10
     \\/     M anipulation  |
\*---------------------------------------------------------------------------*/
FoamFile
{
    format      ascii;
    class       volScalarField;
    location    "2.7";
    object      turbidity;
}
// * * * * * * * * * * * * * * * * * * * * * * * * * * * * * * * * * * * * * //

dimensions      [0 0 0 0 0 0 0];

internalField   nonuniform List<scalar> 
12920
(
-0.0584702
-0.0509363
-0.0755775
-0.0968153
-0.122045
-0.149214
-0.171206
-0.188062
-0.200055
-0.207052
-0.21316
-0.217845
-0.224155
-0.23244
-0.246132
-0.264014
-0.286009
-0.308569
-0.328097
-0.344061
-0.015621
-0.0544289
-0.080413
-0.103001
-0.128096
-0.159032
-0.189233
-0.205617
-0.213816
-0.220161
-0.233147
-0.253062
-0.278822
-0.302108
-0.326799
-0.350148
-0.369292
-0.383751
-0.392986
-0.406347
-0.0284416
-0.0475169
-0.0841233
-0.110827
-0.137455
-0.164305
-0.203505
-0.240036
-0.27524
-0.301528
-0.322072
-0.339407
-0.35531
-0.370474
-0.384998
-0.398293
-0.406211
-0.417207
-0.440538
-0.477082
-0.0602776
-0.0509995
-0.0786894
-0.104411
-0.133989
-0.171197
-0.208501
-0.24699
-0.280224
-0.307142
-0.326082
-0.340614
-0.352678
-0.365832
-0.382296
-0.405409
-0.437027
-0.47454
-0.515883
-0.56038
-0.0596111
-0.0527928
-0.0643091
-0.0847876
-0.112606
-0.15605
-0.196749
-0.235027
-0.260601
-0.280336
-0.292308
-0.301838
-0.309659
-0.319575
-0.334199
-0.357203
-0.395662
-0.443503
-0.498032
-0.557324
-0.0200628
-0.0384155
-0.0521889
-0.0697148
-0.0928661
-0.126323
-0.163398
-0.201282
-0.228137
-0.246411
-0.251168
-0.253464
-0.254368
-0.260056
-0.273588
-0.304218
-0.354792
-0.417135
-0.480939
-0.547453
-0.0158873
-0.0353344
-0.0511956
-0.0694938
-0.0938488
-0.117497
-0.145288
-0.172817
-0.19132
-0.20297
-0.19705
-0.188905
-0.182855
-0.185853
-0.201715
-0.237493
-0.300143
-0.374892
-0.451529
-0.537254
-0.00938392
-0.0304444
-0.0485467
-0.0721066
-0.102631
-0.133474
-0.137649
-0.145708
-0.147551
-0.130202
-0.106288
-0.0932234
-0.0881905
-0.086243
-0.112691
-0.154907
-0.216218
-0.298881
-0.39079
-0.487443
-0.0120336
-0.0379396
-0.0576367
-0.0826209
-0.108861
-0.110364
-0.122883
-0.135149
-0.124262
-0.10602
-0.0894811
-0.0782586
-0.0707382
-0.0672038
-0.076879
-0.121795
-0.176438
-0.254578
-0.348784
-0.433634
-0.0550893
-0.0639636
-0.0812543
-0.108301
-0.143992
-0.144041
-0.124412
-0.120517
-0.114466
-0.0995803
-0.0861741
-0.0778539
-0.0754153
-0.0740431
-0.082218
-0.124599
-0.17068
-0.237054
-0.31927
-0.385023
-0.0393949
-0.0887878
-0.10974
-0.152003
-0.180639
-0.157635
-0.140951
-0.123132
-0.11193
-0.101486
-0.0954558
-0.0950549
-0.100027
-0.104921
-0.106278
-0.135158
-0.172678
-0.225751
-0.290259
-0.34231
-0.0111696
-0.0434806
-0.0745047
-0.122079
-0.173903
-0.168121
-0.162248
-0.148067
-0.139931
-0.135468
-0.133287
-0.139631
-0.150604
-0.153396
-0.139761
-0.146901
-0.177151
-0.216874
-0.264934
-0.309123
-0.018271
-0.0346131
-0.0503418
-0.0738495
-0.110382
-0.160038
-0.16824
-0.180338
-0.187118
-0.197024
-0.215261
-0.231454
-0.251546
-0.258029
-0.260381
-0.245798
-0.243866
-0.255764
-0.279196
-0.306898
-0.0182489
-0.0329567
-0.0617424
-0.0985881
-0.13283
-0.167017
-0.203009
-0.236093
-0.268134
-0.302726
-0.341487
-0.386174
-0.429968
-0.468697
-0.483888
-0.470599
-0.428741
-0.396551
-0.384108
-0.393777
-0.0290417
-0.0360831
-0.0549294
-0.0788887
-0.107703
-0.124619
-0.168844
-0.198398
-0.246235
-0.292099
-0.341797
-0.394065
-0.448264
-0.498216
-0.53982
-0.568823
-0.576546
-0.564807
-0.553628
-0.564886
-0.0219801
-0.0367687
-0.0515969
-0.0663392
-0.0867821
-0.0990772
-0.129262
-0.159586
-0.218151
-0.282861
-0.346807
-0.39929
-0.443518
-0.479148
-0.513765
-0.544765
-0.574649
-0.601585
-0.622558
-0.634028
-0.027236
-0.0484573
-0.0626974
-0.0850557
-0.0974757
-0.108217
-0.125209
-0.146178
-0.183733
-0.249272
-0.328105
-0.377247
-0.398107
-0.41682
-0.439642
-0.467589
-0.498792
-0.535636
-0.57134
-0.589484
-0.0146655
-0.044494
-0.0701847
-0.101374
-0.117024
-0.128211
-0.140263
-0.161984
-0.200108
-0.259069
-0.315537
-0.343999
-0.353842
-0.356686
-0.364118
-0.373611
-0.38624
-0.405673
-0.440533
-0.483941
-0.021041
-0.0508578
-0.0829062
-0.108272
-0.126021
-0.149521
-0.175175
-0.202159
-0.234185
-0.271979
-0.307231
-0.334412
-0.352063
-0.35661
-0.354226
-0.348713
-0.348905
-0.360772
-0.391742
-0.440128
-0.065382
-0.0776241
-0.0890914
-0.102271
-0.104682
-0.127981
-0.158416
-0.1911
-0.214442
-0.232863
-0.246738
-0.259166
-0.270541
-0.283295
-0.296924
-0.31205
-0.329344
-0.35103
-0.379712
-0.418024
-0.0365583
-0.0255332
-0.0373513
-0.0512465
-0.0590378
-0.0550309
-0.0473234
-0.0399001
-0.0378198
-0.0374801
-0.0379082
-0.0375387
-0.0368932
-0.0372686
-0.0417719
-0.0536186
-0.0712452
-0.087753
-0.0993201
-0.10504
-0.0107444
-0.0183076
-0.033879
-0.043212
-0.0516889
-0.045099
-0.0391796
-0.0328036
-0.0331636
-0.0369139
-0.0438629
-0.0544132
-0.0696428
-0.08745
-0.0976493
-0.0992163
-0.092984
-0.0894177
-0.0952512
-0.10638
-0.0173276
-0.0124939
-0.0236436
-0.024732
-0.0242125
-0.0256718
-0.0361595
-0.0493626
-0.0703054
-0.0864734
-0.101723
-0.108297
-0.109266
-0.10264
-0.0916351
-0.0824774
-0.0810165
-0.0883354
-0.101221
-0.115274
-0.00969828
-0.0128773
-0.0289022
-0.0385624
-0.0486932
-0.0435503
-0.052121
-0.0565973
-0.0693143
-0.0791934
-0.0907138
-0.101218
-0.112403
-0.121966
-0.132917
-0.141277
-0.147042
-0.152074
-0.159419
-0.163829
-0.0173528
-0.024113
-0.0330179
-0.0446887
-0.0627538
-0.0677937
-0.0676829
-0.054741
-0.0501253
-0.0445399
-0.04494
-0.0463382
-0.0515638
-0.0583446
-0.0701562
-0.0868199
-0.109904
-0.138053
-0.165765
-0.182927
-0.0110216
-0.0119108
-0.0190616
-0.0251414
-0.0369572
-0.0472511
-0.0528682
-0.0423441
-0.0321447
-0.0230194
-0.021727
-0.0254045
-0.0315394
-0.0402415
-0.0524548
-0.0698017
-0.0939927
-0.127084
-0.173009
-0.220989
-0.0124776
-0.0144262
-0.0209622
-0.0253231
-0.0315607
-0.0307404
-0.0315249
-0.0235567
-0.0179629
-0.0160196
-0.0165082
-0.0208127
-0.0269482
-0.0347382
-0.0459352
-0.063699
-0.0917789
-0.136034
-0.198898
-0.257518
-0.0102757
-0.0120449
-0.0178846
-0.0253383
-0.0376149
-0.0356044
-0.0418545
-0.0257279
-0.0125663
-0.0103954
-0.0119488
-0.0163685
-0.0240417
-0.033649
-0.0452134
-0.0613192
-0.0887977
-0.132889
-0.185991
-0.211537
-0.0189925
-0.0128966
-0.0214385
-0.0310852
-0.0473642
-0.0495682
-0.0561788
-0.0482806
-0.0131948
-0.00829315
-0.00938373
-0.0141774
-0.0242886
-0.0396135
-0.0500579
-0.0586662
-0.0836363
-0.121029
-0.158324
-0.158679
-0.0212474
-0.0372404
-0.0482912
-0.0568819
-0.0682133
-0.0496991
-0.0467838
-0.0464665
-0.0304121
-0.0190296
-0.0140883
-0.020404
-0.0321994
-0.046714
-0.0618074
-0.0573337
-0.0743081
-0.100971
-0.123936
-0.122018
-0.0191409
-0.0218162
-0.0230817
-0.0383929
-0.0396237
-0.0360766
-0.0491524
-0.0539583
-0.0500637
-0.0451863
-0.0455424
-0.0556594
-0.0781312
-0.082018
-0.0781216
-0.0537845
-0.0631259
-0.0797582
-0.0933081
-0.0947645
-0.00555459
-0.0219396
-0.0254706
-0.031126
-0.0477692
-0.0329658
-0.0554437
-0.0894642
-0.0882387
-0.0765329
-0.0753486
-0.0971031
-0.10974
-0.0843034
-0.0540222
-0.0451808
-0.0516461
-0.0615196
-0.0706123
-0.0758385
-0.00339708
-0.00888542
-0.0166816
-0.0291063
-0.0491303
-0.0417817
-0.0519641
-0.0603012
-0.0477243
-0.0514925
-0.0750902
-0.107977
-0.111602
-0.0852885
-0.0595001
-0.0552129
-0.056707
-0.062499
-0.0726404
-0.0865579
-0.00147894
-0.00407164
-0.0116592
-0.017495
-0.0305773
-0.0252006
-0.0362316
-0.0430974
-0.0489977
-0.0611052
-0.0805978
-0.0965635
-0.107171
-0.110057
-0.109074
-0.104289
-0.0997064
-0.102773
-0.116211
-0.136127
-0.00302793
-0.0101456
-0.0161161
-0.0123036
-0.0183989
-0.0183568
-0.0340229
-0.0428629
-0.0552749
-0.0572591
-0.0635467
-0.0673258
-0.0767991
-0.0843243
-0.091797
-0.106232
-0.125742
-0.145794
-0.165797
-0.187281
-0.00607217
-0.00399533
-0.0062988
-0.0064295
-0.0106371
-0.0179686
-0.0335514
-0.0507866
-0.0703867
-0.0719954
-0.0668516
-0.0516434
-0.0477065
-0.044026
-0.0476999
-0.0522479
-0.0601742
-0.068818
-0.0788552
-0.0776259
-0.00493455
-0.0107528
-0.0113071
-0.0156998
-0.0144318
-0.0227608
-0.0379462
-0.0594685
-0.0922016
-0.0968658
-0.069576
-0.0369904
-0.0286529
-0.0284042
-0.0308003
-0.0339436
-0.0370722
-0.0398061
-0.0426906
-0.0440172
-0.017978
-0.0274928
-0.0425982
-0.0417115
-0.0411159
-0.0419274
-0.0547895
-0.0673167
-0.0843889
-0.0752571
-0.0557959
-0.0358709
-0.0307313
-0.0306249
-0.0329111
-0.03674
-0.0417743
-0.0475297
-0.0543348
-0.0612521
-0.00879901
-0.0306853
-0.027146
-0.0220309
-0.0159701
-0.0224167
-0.0362274
-0.0451648
-0.0606625
-0.0618794
-0.0618273
-0.0538583
-0.0475427
-0.0437222
-0.0449341
-0.0492035
-0.0558529
-0.0642315
-0.073398
-0.0763668
-0.0179018
-0.0518305
-0.0391194
-0.022944
-0.0129833
-0.012916
-0.0184198
-0.0273159
-0.0388944
-0.0426527
-0.0445759
-0.046592
-0.0535871
-0.0652732
-0.0802154
-0.0956839
-0.114287
-0.137624
-0.167012
-0.19469
-0.0120417
-0.0136519
-0.0243039
-0.0322454
-0.0321138
-0.0262544
-0.0216959
-0.0198401
-0.0206013
-0.0217584
-0.0225126
-0.0226806
-0.0230379
-0.0245308
-0.028035
-0.0333586
-0.0397219
-0.0462321
-0.0521032
-0.0567029
-0.0123198
-0.0108312
-0.0168566
-0.0206785
-0.0209859
-0.0170434
-0.016409
-0.017381
-0.0195605
-0.0224491
-0.0262924
-0.0313966
-0.0381841
-0.0459671
-0.0521039
-0.0563137
-0.059172
-0.0617306
-0.0640807
-0.0657845
-0.00357368
-0.00891387
-0.0129796
-0.0120665
-0.0117178
-0.0127427
-0.0162794
-0.0204968
-0.027058
-0.0322173
-0.0378669
-0.0401594
-0.0413492
-0.0410783
-0.0415242
-0.043416
-0.0465169
-0.0496516
-0.0524963
-0.0535858
-0.0101099
-0.00845338
-0.0144229
-0.0155847
-0.018399
-0.0160429
-0.0198225
-0.0226172
-0.0282497
-0.0332
-0.0393627
-0.044939
-0.0509454
-0.0554216
-0.0593504
-0.0619828
-0.0642018
-0.066101
-0.0683066
-0.0688649
-0.0103178
-0.0135643
-0.0202885
-0.0250751
-0.032416
-0.0261176
-0.0229868
-0.0187346
-0.0191799
-0.0207048
-0.023561
-0.0273057
-0.0320791
-0.0378175
-0.0448152
-0.0528946
-0.0627466
-0.0739736
-0.0853549
-0.0941903
-0.00160822
-0.00344954
-0.00940889
-0.0148706
-0.020862
-0.0209922
-0.019172
-0.0147516
-0.0139492
-0.0156776
-0.0188303
-0.0230301
-0.0280941
-0.0343952
-0.0423491
-0.0527162
-0.0668849
-0.0861935
-0.112125
-0.138537
-0.0185128
-0.0100765
-0.0148654
-0.0169167
-0.0187943
-0.0157683
-0.0125136
-0.0104869
-0.0110151
-0.0136259
-0.0169604
-0.0211059
-0.0263589
-0.0335582
-0.04344
-0.0569181
-0.0759294
-0.101991
-0.134562
-0.157024
-0.00628923
-0.00792359
-0.0125048
-0.0151485
-0.0171457
-0.0139391
-0.0135466
-0.00892045
-0.00942583
-0.0115431
-0.0142269
-0.0178601
-0.0221776
-0.0274551
-0.0435494
-0.0592097
-0.0786439
-0.101327
-0.119727
-0.117466
-0.0132355
-0.00856386
-0.0129015
-0.018174
-0.0232436
-0.0198927
-0.0187539
-0.0099426
-0.00718321
-0.00803787
-0.0114335
-0.0168506
-0.0230564
-0.0284608
-0.0343576
-0.0580929
-0.0761135
-0.090971
-0.0955405
-0.0824511
-0.020361
-0.0156572
-0.017628
-0.0215557
-0.0222568
-0.0178402
-0.0186559
-0.013242
-0.00797592
-0.00951112
-0.0152153
-0.0227886
-0.030397
-0.0353936
-0.0348486
-0.0511844
-0.0654908
-0.0745279
-0.0744704
-0.0652298
-0.0383047
-0.0120826
-0.0110233
-0.0129333
-0.0118518
-0.0124694
-0.0138511
-0.0127434
-0.0135964
-0.0174668
-0.0246874
-0.0353739
-0.0428637
-0.0440377
-0.0354673
-0.0416835
-0.0515748
-0.0576769
-0.0581608
-0.0545511
-0.00546818
-0.00935024
-0.0106451
-0.0118823
-0.0134147
-0.0133998
-0.0175433
-0.0209368
-0.0219275
-0.0264789
-0.0380803
-0.0497236
-0.0428154
-0.0338173
-0.0286776
-0.0345522
-0.0410627
-0.0461468
-0.0489593
-0.0501073
-0.00246478
-0.00547451
-0.00965598
-0.0135446
-0.0196678
-0.0161097
-0.0184725
-0.0213043
-0.0248441
-0.0329965
-0.0411886
-0.0444557
-0.0379342
-0.0331267
-0.0344402
-0.0382125
-0.0426409
-0.0470485
-0.0512265
-0.0549481
-0.000409706
-0.0018227
-0.00605177
-0.00948529
-0.0132574
-0.0146488
-0.018024
-0.0222429
-0.0265564
-0.0310065
-0.035797
-0.0380131
-0.0387188
-0.0399093
-0.0423646
-0.0454561
-0.0495748
-0.0552231
-0.0634816
-0.0731463
-0.000368197
-0.00318817
-0.00626923
-0.00811578
-0.0117359
-0.0161259
-0.0205267
-0.0236827
-0.0263541
-0.0265821
-0.0284074
-0.029251
-0.0320809
-0.0355378
-0.0404535
-0.0472219
-0.0560084
-0.0661672
-0.0775303
-0.0888121
-0.00180911
-0.00230348
-0.00402555
-0.00633011
-0.011388
-0.0181355
-0.0249424
-0.0292267
-0.0305614
-0.0272696
-0.025288
-0.0239114
-0.0252767
-0.0273406
-0.0306784
-0.0341459
-0.0383631
-0.0426646
-0.0472615
-0.051136
-0.00212272
-0.00485346
-0.00627353
-0.0103774
-0.0146303
-0.0218443
-0.0329697
-0.0402337
-0.0473497
-0.0366775
-0.0257972
-0.0221318
-0.0232605
-0.025332
-0.0275772
-0.0298481
-0.0322015
-0.0346272
-0.0374085
-0.0407527
-0.0123721
-0.0155639
-0.0190369
-0.0198917
-0.0199053
-0.0194352
-0.0270188
-0.0292517
-0.0336642
-0.0266106
-0.0235533
-0.0239728
-0.0264313
-0.0293425
-0.0323076
-0.0351373
-0.0378568
-0.0400692
-0.0420724
-0.0450093
-0.00639761
-0.0141112
-0.00700626
-0.00801897
-0.00747957
-0.00939623
-0.012813
-0.0154349
-0.0207582
-0.0219868
-0.0245542
-0.0270663
-0.0312907
-0.0361747
-0.0414859
-0.0471087
-0.0532763
-0.0590495
-0.0633989
-0.0647934
-0.0124498
-0.0248533
-0.0139185
-0.00789249
-0.00579941
-0.00541759
-0.00673312
-0.00911569
-0.0124569
-0.0141963
-0.016381
-0.0196932
-0.0254556
-0.0337702
-0.0444634
-0.0566961
-0.0711794
-0.0882022
-0.106938
-0.121204
-0.0112122
-0.0149356
-0.0179973
-0.0198147
-0.0174688
-0.0141713
-0.0128877
-0.0130786
-0.0141217
-0.0152924
-0.0167692
-0.0190725
-0.0223114
-0.0260984
-0.0299374
-0.0334796
-0.0364343
-0.0385897
-0.0399142
-0.0397127
-0.00316267
-0.00604322
-0.00885763
-0.0104742
-0.0109099
-0.0114754
-0.0129296
-0.014888
-0.0173991
-0.0206657
-0.0247768
-0.0292509
-0.0334281
-0.0364119
-0.0378942
-0.0377994
-0.0368366
-0.0355095
-0.0342934
-0.0327702
-0.0134664
-0.00795804
-0.00847605
-0.00813135
-0.00851184
-0.00969705
-0.0116871
-0.0138645
-0.016685
-0.0190309
-0.0216283
-0.0232516
-0.0246821
-0.0255752
-0.0262654
-0.026739
-0.0271015
-0.0272919
-0.0276193
-0.0277039
-0.00952149
-0.00671309
-0.00725787
-0.00798344
-0.00874202
-0.00930369
-0.0115081
-0.0135341
-0.0163429
-0.0189023
-0.0220456
-0.0247989
-0.0277139
-0.0297794
-0.0315119
-0.0327773
-0.0340825
-0.0351621
-0.0361991
-0.0367982
-0.0104235
-0.00998506
-0.0100847
-0.0117775
-0.0132596
-0.0106946
-0.0109025
-0.0115807
-0.0133355
-0.0153908
-0.0179593
-0.0209318
-0.0244868
-0.0283564
-0.0327863
-0.0375813
-0.0430563
-0.0486515
-0.0538738
-0.0580813
-0.00287934
-0.00572275
-0.00818408
-0.00837982
-0.0106506
-0.00981532
-0.0101929
-0.0109719
-0.0130919
-0.0157087
-0.018988
-0.0225946
-0.0269571
-0.0318475
-0.0377853
-0.0450525
-0.0541281
-0.0647405
-0.0767073
-0.0858963
-0.00446317
-0.0103005
-0.0120327
-0.0102531
-0.00974482
-0.00805064
-0.0083429
-0.0102697
-0.0130976
-0.0162847
-0.0200694
-0.0244457
-0.0298303
-0.0359173
-0.0429907
-0.0514517
-0.061325
-0.0716757
-0.0813992
-0.0821176
-0.00332351
-0.00754504
-0.0118476
-0.0117392
-0.00989094
-0.00791164
-0.00786477
-0.00950232
-0.012056
-0.0144704
-0.0168761
-0.0200871
-0.0252939
-0.0325889
-0.0444075
-0.0509455
-0.0568165
-0.0612541
-0.0615145
-0.0534477
-0.00128391
-0.00440307
-0.00843956
-0.0118219
-0.0109638
-0.00928368
-0.00850059
-0.00801122
-0.00965624
-0.0116635
-0.0144884
-0.0170031
-0.0197189
-0.0258607
-0.0406733
-0.047758
-0.0491871
-0.0478454
-0.0429587
-0.0345251
-0.0178688
-0.013063
-0.0123833
-0.0120899
-0.0103984
-0.00962267
-0.00915516
-0.00760618
-0.00863144
-0.0118628
-0.015535
-0.0185267
-0.0202754
-0.0232169
-0.0365632
-0.0435225
-0.0438578
-0.0418083
-0.0383509
-0.0346032
-0.0138912
-0.00901289
-0.00881253
-0.00920256
-0.00898764
-0.00912583
-0.00922834
-0.0100165
-0.012396
-0.0158886
-0.0201311
-0.0235773
-0.0234416
-0.023272
-0.0317293
-0.037441
-0.0385509
-0.0382518
-0.0375036
-0.0373499
-0.00276378
-0.00554966
-0.00754853
-0.0086569
-0.00955638
-0.0108886
-0.0123614
-0.0139021
-0.0169718
-0.0212489
-0.0234998
-0.0222772
-0.020862
-0.0215223
-0.0257174
-0.0310977
-0.0337676
-0.035691
-0.0373028
-0.0388771
-0.00327318
-0.0045067
-0.00646316
-0.00834567
-0.0103184
-0.0113258
-0.0128197
-0.0163513
-0.0183748
-0.0203858
-0.0213146
-0.0210754
-0.0211798
-0.0228447
-0.0272158
-0.0305954
-0.0338283
-0.0369479
-0.0399419
-0.0425346
-0.000283758
-0.00179356
-0.00472912
-0.00714105
-0.00966461
-0.0119265
-0.014158
-0.0164706
-0.0184572
-0.0203978
-0.0220569
-0.0240298
-0.0258527
-0.0286928
-0.0318559
-0.0356323
-0.0397911
-0.0448603
-0.050882
-0.0573113
-0.00188207
-0.00271766
-0.00504704
-0.00758697
-0.0103637
-0.0129078
-0.0149149
-0.0164224
-0.018151
-0.019648
-0.0218779
-0.0245506
-0.0278251
-0.0316874
-0.0359183
-0.040683
-0.0458531
-0.0515489
-0.0574888
-0.0628443
-0.0015426
-0.00267676
-0.00482958
-0.00763878
-0.011162
-0.01427
-0.0162669
-0.0177383
-0.0188709
-0.0199347
-0.0218229
-0.0242268
-0.0269965
-0.0298698
-0.0328472
-0.0356341
-0.0383722
-0.0407338
-0.0428781
-0.0444342
-0.000699452
-0.00472483
-0.00637544
-0.00914481
-0.0124516
-0.0153028
-0.0199361
-0.0210337
-0.023129
-0.0214245
-0.0222485
-0.0247293
-0.0274263
-0.0301636
-0.0328743
-0.0356317
-0.0384028
-0.0411013
-0.0437607
-0.0461013
-0.00449437
-0.00715133
-0.00725358
-0.0102001
-0.0100808
-0.00989565
-0.0138851
-0.0153769
-0.0183411
-0.0196731
-0.0225431
-0.0259657
-0.0292053
-0.0323681
-0.0354545
-0.0387142
-0.0424397
-0.0467025
-0.0518364
-0.0574365
-0.0019707
-0.00314916
-0.00265268
-0.0042653
-0.00501229
-0.0067195
-0.00919195
-0.0121866
-0.0158304
-0.0193202
-0.0233815
-0.0276157
-0.0320408
-0.036602
-0.0413807
-0.0460808
-0.0504288
-0.0536721
-0.0565193
-0.060205
-0.00484059
-0.00993856
-0.00612649
-0.00431829
-0.00335392
-0.00363121
-0.00498781
-0.00665999
-0.00864292
-0.0109282
-0.0139559
-0.0182616
-0.0240631
-0.0314493
-0.0401044
-0.0496216
-0.0597243
-0.068951
-0.0759801
-0.0786374
-0.00570027
-0.0124683
-0.0146774
-0.0143193
-0.0124248
-0.0102443
-0.00913392
-0.00968438
-0.0119227
-0.015044
-0.0179381
-0.0198765
-0.0209765
-0.021508
-0.0217999
-0.0219404
-0.0220407
-0.0221074
-0.0221256
-0.0214863
-0.00161778
-0.00449668
-0.00738613
-0.00909641
-0.00921824
-0.0101822
-0.0119277
-0.0143866
-0.0166381
-0.0184944
-0.0196864
-0.0202156
-0.0204669
-0.0200682
-0.0193818
-0.0184204
-0.0174897
-0.0164321
-0.0153652
-0.0142263
-0.0126961
-0.0125738
-0.00784333
-0.00744223
-0.00857975
-0.0102292
-0.0119989
-0.0135251
-0.0149387
-0.015995
-0.016966
-0.0175434
-0.0179043
-0.0178593
-0.0175027
-0.0168505
-0.0159176
-0.0148037
-0.0136966
-0.0128179
-0.0076947
-0.00836475
-0.00725509
-0.00713032
-0.00805033
-0.00970469
-0.0115511
-0.0133697
-0.0152064
-0.0167948
-0.0183233
-0.019387
-0.0201713
-0.0203435
-0.0201424
-0.0195639
-0.018859
-0.0179841
-0.0172095
-0.0166993
-0.00286432
-0.0064228
-0.00625432
-0.0070779
-0.00797201
-0.00927447
-0.0112813
-0.0132426
-0.0155147
-0.0175325
-0.0195761
-0.0211886
-0.0226007
-0.0235521
-0.0243551
-0.0249166
-0.0254189
-0.025822
-0.026266
-0.0267286
-0.00500749
-0.00672868
-0.00693422
-0.00682503
-0.0080763
-0.00989752
-0.0124629
-0.0148927
-0.0177781
-0.0199764
-0.0220353
-0.023359
-0.0243803
-0.0250562
-0.0257291
-0.0264659
-0.0272733
-0.0279977
-0.0291447
-0.0295379
-0.0115486
-0.00894349
-0.00871005
-0.00692879
-0.00748654
-0.00970123
-0.012979
-0.0160458
-0.0193018
-0.0215848
-0.0234181
-0.0243385
-0.0244405
-0.0241039
-0.0235078
-0.0229522
-0.0222938
-0.0216956
-0.0215958
-0.0195636
-0.0057141
-0.00678275
-0.0128326
-0.0101799
-0.00851007
-0.00972694
-0.0112936
-0.0153928
-0.0181786
-0.0207754
-0.0229746
-0.0247202
-0.0251593
-0.0242896
-0.0176525
-0.0160143
-0.014707
-0.0137428
-0.012638
-0.0105917
-0.002328
-0.00584044
-0.0101089
-0.0102445
-0.00940106
-0.00966136
-0.0105034
-0.0131542
-0.0154128
-0.0172064
-0.0199366
-0.0233517
-0.025824
-0.0252343
-0.0191515
-0.0114758
-0.0096208
-0.0081243
-0.00657579
-0.00518483
-0.00161271
-0.00617605
-0.0101948
-0.0105722
-0.00997263
-0.0098603
-0.0100344
-0.011302
-0.0135319
-0.0155036
-0.0176209
-0.0212597
-0.0255655
-0.0272193
-0.0223348
-0.0158019
-0.0136289
-0.0113549
-0.00897769
-0.00724426
-0.00818555
-0.0075954
-0.00797695
-0.00901462
-0.00980675
-0.0101796
-0.0105758
-0.0117547
-0.0133733
-0.0148425
-0.0163895
-0.0190884
-0.0238232
-0.0282163
-0.0285734
-0.022611
-0.0211543
-0.0192032
-0.0167519
-0.0150549
-0.00253254
-0.00562438
-0.00739066
-0.00854868
-0.010312
-0.0115778
-0.0123881
-0.0134918
-0.0147316
-0.0156171
-0.0165366
-0.0182478
-0.0210336
-0.024228
-0.0269911
-0.0234646
-0.0226208
-0.0208796
-0.0185058
-0.0165992
-0.0023693
-0.00440206
-0.00629844
-0.00799903
-0.0100409
-0.0123909
-0.0135189
-0.0166541
-0.0183843
-0.0198894
-0.0210226
-0.02185
-0.0227649
-0.0239179
-0.0258096
-0.026554
-0.0267751
-0.026627
-0.0260938
-0.0256851
-0.000603355
-0.00122146
-0.00426131
-0.00769053
-0.010697
-0.0139005
-0.0161809
-0.0193587
-0.0216283
-0.0242836
-0.0262204
-0.0286408
-0.0305241
-0.0328337
-0.0347763
-0.0370859
-0.0389302
-0.0408436
-0.042362
-0.0436965
-0.00238714
-0.00234753
-0.00554495
-0.0090767
-0.0122324
-0.0153343
-0.0173863
-0.0203914
-0.0227013
-0.0254613
-0.0275847
-0.0296944
-0.0313715
-0.032727
-0.0338354
-0.0344411
-0.0349263
-0.0348821
-0.0346344
-0.0342067
-0.0011262
-0.00281895
-0.00622776
-0.00962077
-0.0129604
-0.0161963
-0.0188955
-0.0219197
-0.0242251
-0.0268147
-0.0284894
-0.0299021
-0.0303849
-0.0302629
-0.0294687
-0.0280158
-0.0262165
-0.0240724
-0.0221417
-0.0208481
-0.0014093
-0.00429369
-0.00671044
-0.00925944
-0.0127013
-0.0157063
-0.0192336
-0.0222418
-0.0253758
-0.0287716
-0.0318551
-0.0347754
-0.0368354
-0.0386111
-0.0394845
-0.0398672
-0.0393136
-0.0380839
-0.0362689
-0.0343814
-0.00261883
-0.00344299
-0.00453469
-0.00684907
-0.00883614
-0.0116848
-0.0152451
-0.0186514
-0.0224274
-0.0264726
-0.030707
-0.0349824
-0.0393563
-0.0437434
-0.0479196
-0.0517757
-0.0548938
-0.0570034
-0.0578344
-0.057602
-0.000888308
-0.00169554
-0.00254866
-0.00438205
-0.00620793
-0.00897115
-0.0120335
-0.0154321
-0.0186995
-0.0218256
-0.0249301
-0.0281384
-0.0316296
-0.0354498
-0.0396706
-0.0443503
-0.0495133
-0.0551881
-0.0609846
-0.0661356
-0.00166852
-0.00501435
-0.00356196
-0.00321432
-0.00375547
-0.00494477
-0.00653974
-0.00914667
-0.0124072
-0.0165678
-0.0208903
-0.0254236
-0.0296837
-0.0336241
-0.0372725
-0.0405903
-0.0439299
-0.0465228
-0.0495727
-0.0525084
-0.0135113
-0.0145193
-0.0195161
-0.0113705
-0.0148222
-0.0156733
-0.0197873
-0.0208569
-0.0217796
-0.0293583
-0.0159407
-0.019043
-0.0211698
-0.0246625
-0.0224224
-0.0249832
-0.0320729
-0.0177268
-0.0220136
-0.0230137
-0.0274041
-0.0324388
-0.0353295
-0.0455983
-0.0235905
-0.0271705
-0.0283954
-0.0292785
-0.13394
-0.112584
-0.120123
-0.118803
-0.130954
-0.107573
-0.11541
-0.128047
-0.122142
-0.119137
-0.129708
-0.108092
-0.117517
-0.110527
-0.110918
-0.115965
-0.104126
-0.0970085
-0.0657865
-0.105581
-0.0894296
-0.0929332
-0.100097
-0.0890793
-0.0572066
-0.0429826
-0.0834139
-0.0614316
-0.08074
-0.0858394
-0.0780883
-0.0400887
-0.0346958
-0.0542223
-0.0397577
-0.0722504
-0.0762487
-0.073002
-0.0336888
-0.0355847
-0.0377654
-0.0393098
-0.0677549
-0.0724432
-0.071178
-0.037814
-0.0488809
-0.0415691
-0.0511925
-0.0669071
-0.0707277
-0.0700995
-0.0536627
-0.0672937
-0.0550346
-0.0685013
-0.119756
-0.133426
-0.122496
-0.117404
-0.114781
-0.130197
-0.118676
-0.117363
-0.120236
-0.113693
-0.115826
-0.110794
-0.116134
-0.108494
-0.103341
-0.111335
-0.103864
-0.106996
-0.0931828
-0.105585
-0.0949745
-0.0892128
-0.101213
-0.0941183
-0.0866826
-0.061749
-0.0908293
-0.0796669
-0.0792874
-0.0924134
-0.089597
-0.054265
-0.0417809
-0.0781873
-0.077943
-0.0756889
-0.0892628
-0.0898423
-0.0407745
-0.0445942
-0.0790033
-0.087284
-0.0746186
-0.090913
-0.0940345
-0.0471955
-0.0563173
-0.0902999
-0.0936305
-0.0725046
-0.0939571
-0.0899954
-0.0595235
-0.0709689
-0.0934597
-0.0928208
-0.126529
-0.153665
-0.14164
-0.137025
-0.123232
-0.147557
-0.138458
-0.114591
-0.13772
-0.128649
-0.11968
-0.110473
-0.135622
-0.130158
-0.103986
-0.127265
-0.125722
-0.107591
-0.0996812
-0.129487
-0.128277
-0.0962433
-0.12556
-0.124349
-0.097706
-0.094725
-0.1279
-0.126676
-0.0948593
-0.124071
-0.12508
-0.0944084
-0.0951099
-0.126777
-0.129969
-0.0977546
-0.126547
-0.133689
-0.0965275
-0.104841
-0.13231
-0.139301
-0.104926
-0.137012
-0.140005
-0.107209
-0.107131
-0.139449
-0.123952
-0.0998354
-0.138279
-0.127662
-0.105526
-0.101465
-0.117948
-0.101939
-0.151615
-0.170493
-0.171991
-0.158093
-0.15155
-0.168804
-0.171244
-0.140889
-0.172223
-0.168421
-0.148938
-0.142397
-0.170098
-0.163924
-0.136527
-0.168568
-0.167055
-0.140964
-0.136664
-0.162422
-0.157927
-0.132987
-0.171806
-0.179048
-0.135472
-0.133611
-0.160041
-0.167452
-0.1372
-0.184837
-0.192516
-0.134247
-0.139478
-0.173498
-0.183724
-0.146987
-0.199178
-0.207098
-0.142561
-0.149872
-0.190808
-0.198003
-0.154254
-0.21456
-0.219844
-0.149835
-0.130373
-0.201666
-0.185104
-0.142321
-0.223525
-0.207331
-0.121571
-0.096614
-0.174958
-0.125154
-0.0564876
-0.0588809
-0.0601353
-0.0351098
-0.0218434
-0.0416821
-0.0283694
-0.0181516
-0.0535951
-0.0287962
-0.0163418
-0.00901562
-0.0230047
-0.0118571
-0.00866041
-0.0245856
-0.0188058
-0.00805859
-0.00738318
-0.0099988
-0.00845355
-0.00885012
-0.0172369
-0.0135858
-0.00768344
-0.0096625
-0.00884875
-0.0118548
-0.0125382
-0.0133633
-0.0162197
-0.0107079
-0.0148754
-0.0133505
-0.0189208
-0.0212083
-0.0181035
-0.0256478
-0.0165207
-0.0221072
-0.0210378
-0.0278655
-0.0355068
-0.0286794
-0.0395179
-0.0239934
-0.0293685
-0.0301653
-0.0362021
-0.0506275
-0.0437968
-0.0571337
-0.0307576
-0.0339508
-0.0375261
-0.039187
-0.0499235
-0.0466117
-0.0472797
-0.0366218
-0.026654
-0.0256634
-0.0170487
-0.033199
-0.0476226
-0.04397
-0.0221188
-0.0120814
-0.0153132
-0.0126439
-0.0220532
-0.0409578
-0.0299665
-0.0104113
-0.00927295
-0.012507
-0.0139707
-0.0140387
-0.0275291
-0.0272292
-0.00976036
-0.013093
-0.0150255
-0.0200449
-0.0181345
-0.02912
-0.0374223
-0.0147441
-0.0208824
-0.022395
-0.0308463
-0.0289905
-0.0413243
-0.0563811
-0.0231756
-0.0303827
-0.0338661
-0.0422266
-0.0427015
-0.0609589
-0.0690024
-0.0327435
-0.0389426
-0.0443806
-0.0489848
-0.0599905
-0.0709922
-0.0783641
-0.0403292
-0.0416577
-0.0501006
-0.0509289
-0.0537212
-0.0508911
-0.0687583
-0.0234536
-0.0178471
-0.025133
-0.0242348
-0.0515959
-0.0726028
-0.0792961
-0.0168029
-0.0156468
-0.0242752
-0.0249571
-0.0458903
-0.0802478
-0.0801238
-0.0158226
-0.0178069
-0.0253419
-0.0274367
-0.0449321
-0.0792764
-0.0769679
-0.0189447
-0.0241459
-0.0287186
-0.0356782
-0.0514643
-0.0772027
-0.0862874
-0.026598
-0.0357461
-0.0392863
-0.0522437
-0.0736939
-0.09288
-0.108951
-0.0391863
-0.0479381
-0.0563165
-0.059992
-0.0814966
-0.10717
-0.0929545
-0.049687
-0.0522944
-0.0575685
-0.0488425
-0.0858753
-0.0885866
-0.0774597
-0.05281
-0.0523537
-0.0463971
-0.0410411
-0.0853995
-0.0531992
-0.0737322
-0.0267915
-0.0273703
-0.030084
-0.0287506
-0.0905169
-0.0745881
-0.0676935
-0.0275401
-0.0271482
-0.028851
-0.0293794
-0.0790591
-0.0644103
-0.0501954
-0.0270399
-0.0286963
-0.030345
-0.0357191
-0.0740269
-0.0488752
-0.0608774
-0.0303194
-0.0390416
-0.039798
-0.0522168
-0.0891862
-0.0696519
-0.0970411
-0.0432968
-0.0568929
-0.0576106
-0.0689115
-0.112537
-0.107339
-0.122844
-0.0605864
-0.0605518
-0.07169
-0.0685126
-0.0909658
-0.119427
-0.0934327
-0.0566769
-0.0449208
-0.0650579
-0.0491373
-0.0685598
-0.0843216
-0.0645143
-0.0419622
-0.0368883
-0.0454976
-0.0366664
-0.0126964
-0.0238819
-0.0175736
-0.0121259
-0.00804776
-0.0148153
-0.00934209
-0.00717186
-0.0141767
-0.00811964
-0.00746508
-0.00776014
-0.00818363
-0.00713496
-0.00753893
-0.00747544
-0.00795393
-0.00821649
-0.00966576
-0.00742697
-0.0096393
-0.0103405
-0.00870705
-0.0123441
-0.0104741
-0.0130599
-0.0106854
-0.0140445
-0.0153955
-0.0139004
-0.0190928
-0.0139931
-0.0167208
-0.0151353
-0.0181844
-0.0215338
-0.0209047
-0.026436
-0.0175672
-0.0199443
-0.0190883
-0.0214695
-0.027354
-0.0281763
-0.0323686
-0.0206688
-0.0232672
-0.0221004
-0.0237249
-0.0310892
-0.033227
-0.0342423
-0.0246604
-0.0310302
-0.0243545
-0.0284507
-0.0156315
-0.014161
-0.0116793
-0.0133431
-0.00912536
-0.0101472
-0.00877248
-0.00849756
-0.0111269
-0.010653
-0.0081623
-0.00746435
-0.00880336
-0.0100322
-0.00867391
-0.0109063
-0.0129858
-0.00784438
-0.0102795
-0.0107955
-0.0140665
-0.0124765
-0.0106174
-0.0104879
-0.0100883
-0.0117124
-0.0113445
-0.0110969
-0.0190021
-0.0170405
-0.0167779
-0.0158568
-0.018787
-0.0174454
-0.0173356
-0.0286071
-0.0316794
-0.0378894
-0.0199264
-0.0221378
-0.0254348
-0.026105
-0.0345761
-0.0393442
-0.0420097
-0.0227118
-0.0241017
-0.0260061
-0.025664
-0.0357571
-0.0424916
-0.04175
-0.0245807
-0.0279085
-0.0256325
-0.026812
-0.0129129
-0.0161154
-0.0181316
-0.0100015
-0.0098513
-0.0118793
-0.0131486
-0.0131432
-0.0186046
-0.020068
-0.0101357
-0.0118333
-0.0137182
-0.0160347
-0.0160424
-0.0206599
-0.0234679
-0.0126861
-0.0161347
-0.0171067
-0.0213438
-0.0210179
-0.0188403
-0.0204725
-0.0170057
-0.0220349
-0.0186015
-0.019261
-0.0304986
-0.0271415
-0.0286871
-0.0248244
-0.0316314
-0.0272849
-0.0278575
-0.0418004
-0.0481526
-0.0478777
-0.0279289
-0.0278807
-0.028769
-0.026102
-0.0440287
-0.0455922
-0.0391559
-0.0274624
-0.0262077
-0.0253139
-0.0240224
-0.0422566
-0.0374874
-0.0340315
-0.0258679
-0.0263629
-0.0238457
-0.0244437
-0.0205216
-0.0174655
-0.0209458
-0.0136449
-0.014489
-0.0144495
-0.0165499
-0.0215871
-0.021516
-0.0230996
-0.0149252
-0.0171542
-0.0177072
-0.021431
-0.0247014
-0.0240879
-0.0280768
-0.0183104
-0.0228122
-0.0227642
-0.0265214
-0.0345674
-0.0306783
-0.0391302
-0.0245036
-0.0284863
-0.0279034
-0.0303557
-0.0479419
-0.0422316
-0.0485643
-0.0292189
-0.0290003
-0.0307523
-0.0293814
-0.0459517
-0.0485352
-0.0426671
-0.0280605
-0.0248357
-0.0285908
-0.025467
-0.0354641
-0.0391923
-0.0325335
-0.0240495
-0.0230702
-0.0249134
-0.0236424
-0.0312081
-0.0316076
-0.0301649
-0.0230202
-0.0238414
-0.0238961
-0.0246287
-0.0076542
-0.00984273
-0.00792344
-0.0076428
-0.00849166
-0.00796169
-0.00786471
-0.00915538
-0.0075679
-0.00791301