/*--------------------------------*- C++ -*----------------------------------*\
  =========                 |
  \\      /  F ield         | OpenFOAM: The Open Source CFD Toolbox
   \\    /   O peration     | Website:  https://openfoam.org
    \\  /    A nd           | Version:  10
     \\/     M anipulation  |
\*---------------------------------------------------------------------------*/
FoamFile
{
    format      ascii;
    class       volVectorField;
    location    "2.7";
    object      U_0;
}
// * * * * * * * * * * * * * * * * * * * * * * * * * * * * * * * * * * * * * //

dimensions      [0 1 -1 0 0 0 0];

internalField   nonuniform List<vector> 
12920
(
(-36.0571 -42.3971 45.6258)
(-39.7237 2.33554 -26.4722)
(134.128 -5.74533 -5.15974)
(54.5996 -0.0182672 6.98153)
(111.545 -6.25345 7.84592)
(65.3014 -13.9773 5.11945)
(94.8762 -15.307 2.88182)
(78.4648 -16.652 1.17032)
(97.6801 -14.7475 0.539365)
(94.4428 -13.6791 -0.357927)
(107.797 -11.5558 -0.38343)
(108.979 -5.94346 -0.857129)
(115.15 1.32922 -0.697557)
(111.545 6.36213 -0.873175)
(111.558 7.53713 -0.835001)
(109.923 7.07311 -0.635805)
(109.336 2.9291 0.482025)
(108.689 -2.6757 1.33803)
(109.983 -4.47982 1.70743)
(107.003 -3.81175 1.07392)
(89.9376 -77.4946 2.54202)
(-37.4898 -16.0508 20.9979)
(101.76 -37.9769 8.95951)
(22.1024 -36.4728 5.75662)
(93.36 -22.8931 4.7099)
(39.943 -14.9209 1.56588)
(71.758 -0.566486 1.68036)
(42.2805 -2.09731 -0.335259)
(61.6093 3.79844 -0.893869)
(51.9128 1.73106 -1.68074)
(63.0058 4.17045 -1.72337)
(61.1007 2.34366 -1.58988)
(68.8228 1.42486 -0.176702)
(68.3742 -0.547261 0.959986)
(70.681 -4.06857 1.72289)
(68.77 -6.5737 2.11035)
(69.2475 -7.72748 1.22644)
(67.856 -7.80638 0.584553)
(67.1291 -6.54126 -0.169148)
(63.04 -2.36804 -0.857647)
(-8.33229 40.0841 125.706)
(-55.6956 -26.1057 -21.3256)
(101.859 -32.9648 6.50402)
(-34.7429 -31.8685 1.3916)
(73.1283 -20.9984 0.115132)
(3.27391 -10.8049 -1.2864)
(57.1303 -11.1908 -0.672566)
(25.7412 -7.36023 -0.578062)
(51.0164 -8.24112 0.466407)
(38.2141 -5.85536 0.692468)
(50.1176 -5.31993 1.35071)
(46.0858 -3.6746 1.30598)
(51.8044 -2.84023 1.43493)
(50.8101 -1.81881 1.21416)
(53.3575 -1.54068 0.857361)
(52.6431 -1.51312 0.454788)
(53.0779 -1.4268 -0.221051)
(51.3818 -1.82882 -0.658827)
(49.2765 -0.393356 -0.877312)
(43.879 1.92092 -0.945804)
(22.5258 256.826 -140.366)
(-43.7223 -4.40413 -7.00924)
(123.254 -52.6592 3.18767)
(8.7712 -32.807 5.311)
(86.1511 -31.2342 6.0966)
(25.2607 -4.80245 1.83661)
(61.9239 -6.7537 1.72304)
(31.0979 0.282871 0.3053)
(47.4057 -4.86885 0.744627)
(33.2264 -4.91973 0.480842)
(41.2795 -7.81221 0.743587)
(36.6315 -8.49872 0.767844)
(41.5979 -9.66399 0.987564)
(41.4105 -9.46193 0.84791)
(45.5494 -9.37873 0.974057)
(46.5652 -7.92576 0.785414)
(49.2642 -3.62583 0.62983)
(46.6418 -0.521182 0.414888)
(42.2454 2.15263 0.341495)
(35.2799 3.42702 -0.184677)
(144.121 47.9875 -129.999)
(-45.9902 -35.2815 3.24622)
(117.542 -78.7883 5.95681)
(49.1469 -56.7833 3.84215)
(95.8207 -51.1777 8.01739)
(39.5586 -15.149 4.30661)
(63.3526 -17.74 4.11962)
(30.4261 -1.30694 1.15572)
(45.5683 -9.91624 0.963693)
(30.4708 -4.76577 0.190267)
(38.8459 -10.1394 0.269694)
(33.2742 -9.01269 0.0867043)
(38.2786 -11.5841 0.119408)
(37.5695 -10.7925 -0.00323143)
(41.5308 -11.4146 -0.0969972)
(43.1214 -9.28098 -0.492545)
(47.6473 -4.16368 -0.325895)
(45.1616 2.5104 0.132708)
(41.0566 6.04109 0.52331)
(34.3685 5.6504 -0.210204)
(155.054 -86.5298 159.747)
(54.934 -26.1002 11.7474)
(129.658 -60.3828 4.68836)
(72.9578 -51.7391 -1.1753)
(113.418 -38.6421 1.6762)
(64.439 -11.7412 0.348175)
(76.2291 -11.1676 2.68785)
(47.2751 3.66692 1.36744)
(48.7655 -6.28042 1.15629)
(32.4906 -3.67 0.115402)
(33.841 -10.0991 -0.306396)
(29.1348 -10.2631 -0.248397)
(32.3949 -13.2098 -0.283605)
(32.8203 -12.9086 -0.308147)
(36.5879 -13.4664 -0.551967)
(38.6188 -10.9606 -0.761912)
(41.8212 -3.04766 -0.701858)
(40.3901 4.72946 -0.22223)
(39.2405 7.41719 0.284858)
(35.0317 6.60981 -0.0977654)
(-21.297 24.8196 -12.7791)
(-108.67 -57.4145 -10.4553)
(79.0628 -81.0914 -8.454)
(34.081 -63.7441 -7.10269)
(98.2626 -37.3361 -0.270606)
(54.4404 -0.570028 -1.69264)
(69.0187 -12.1987 1.04672)
(43.9669 12.6424 -0.116245)
(46.5407 0.0237471 0.448621)
(28.1961 6.47237 0.181907)
(31.3567 -4.6947 0.00644573)
(27.4204 -6.45716 -0.257906)
(32.7633 -12.8952 -0.345574)
(33.1913 -12.7728 -0.148759)
(36.4668 -13.4827 -0.186531)
(37.2588 -10.1349 -0.859178)
(40.007 -1.80409 -0.697587)
(39.2556 5.29598 0.0624778)
(38.8947 6.84836 0.667529)
(31.1549 5.51657 0.226653)
(310.503 2.91456 167.195)
(38.9477 -49.3428 14.643)
(111.8 -47.1062 -4.32517)
(50.9654 -40.653 -7.20771)
(99.3223 -32.2129 1.29737)
(52.2639 10.857 0.290726)
(65.2125 5.9104 0.0268075)
(27.2344 14.0453 0.64128)
(25.971 15.1716 -0.328816)
(16.258 10.9607 -0.659781)
(26.9558 0.0351213 -0.764355)
(30.8936 -7.50868 -0.42034)
(36.6389 -12.9364 0.00128814)
(37.6301 -15.5147 0.594243)
(36.8441 -15.3451 0.27536)
(36.9933 -9.62838 -0.55954)
(38.0335 -0.545877 -0.953388)
(38.7941 4.17109 0.0657595)
(35.3402 8.27654 0.799886)
(23.3475 7.36518 0.133325)
(88.3714 194.379 55.2458)
(-130.657 -29.4222 -23.7376)
(81.2093 -34.8964 -17.117)
(25.2658 -38.3012 -7.81421)
(69.1067 -32.4259 3.63966)
(25.3907 6.00252 -1.06413)
(43.8647 20.2132 2.24594)
(26.4846 25.5872 -0.141898)
(19.772 19.5424 -0.301897)
(24.6404 10.7495 -0.640939)
(37.1591 -0.862509 -0.610265)
(41.1107 -6.65523 -0.352557)
(43.5598 -10.5295 -0.26068)
(43.4169 -15.8714 -0.149194)
(41.9806 -15.8131 0.7921)
(34.3746 -6.9726 -0.395675)
(35.8916 2.28509 -0.871632)
(33.9776 6.23166 -0.227301)
(28.657 13.3036 0.683313)
(18.529 12.052 -0.353882)
(302.365 1.64797 -134.776)
(42.2854 43.265 -34.5568)
(160.793 3.43377 10.8953)
(74.9833 -12.1246 6.55479)
(87.4274 -2.75804 14.6997)
(21.5964 -7.97246 0.139909)
(26.9368 16.1497 0.496618)
(40.2536 35.3206 -0.921928)
(43.6788 22.2794 -0.054057)
(43.3526 6.18484 0.0708916)
(42.1328 -0.971708 -0.179313)
(46.1873 -6.06371 -0.378558)
(54.3124 -12.0152 -0.380828)
(59.8155 -12.6463 -0.0469204)
(53.9022 -12.9327 0.272626)
(35.5179 -0.643231 0.0826985)
(33.34 5.41563 -0.611158)
(30.2633 10.3554 -0.520421)
(25.3478 17.2271 0.145539)
(20.2882 16.4407 -0.778576)
(19.2245 -348.09 -39.39)
(-153.082 -40.1444 20.8772)
(61.0846 -83.1423 4.53517)
(-98.6769 -37.6978 8.47836)
(13.9991 -13.075 2.85415)
(-51.2113 7.85598 -1.28825)
(-4.73068 10.1627 0.195372)
(21.6609 14.1647 0.300148)
(38.4359 10.936 0.290116)
(43.6152 5.58635 0.149087)
(50.698 -3.01984 0.0157834)
(54.3903 -8.8568 -0.0742988)
(55.7572 -15.1373 0.481644)
(57.0651 -16.164 0.0861329)
(50.2271 -7.31337 0.521387)
(31.2269 5.38768 -0.632616)
(30.4251 11.3602 -0.710157)
(28.8111 15.1518 -0.598624)
(25.4082 20.5789 -0.299014)
(23.443 19.1099 -0.998814)
(334.985 30.1038 -19.7021)
(108.648 -32.4896 30.1898)
(148.845 -40.8085 16.7831)
(32.5572 -23.641 6.44754)
(69.7146 -18.7279 7.30608)
(-13.3325 -27.3739 -1.31113)
(14.9629 -16.2934 0.134504)
(26.3579 -2.753 0.622966)
(38.7531 -3.55055 0.435921)
(40.9884 -5.27423 0.202677)
(39.9023 -7.36256 0.223836)
(37.9818 -12.2399 0.229748)
(25.2597 -13.6778 0.318345)
(16.1071 -10.9321 -0.104404)
(18.3628 -4.24763 -0.925215)
(22.5607 7.81306 -1.1242)
(27.5704 12.455 -0.870078)
(29.6846 17.4797 -0.722702)
(30.2347 22.2094 -0.394125)
(31.0911 20.9474 -0.704451)
(135.072 -114.285 -61.6656)
(30.2265 -97.4624 1.03785)
(123.854 -56.3337 4.32478)
(71.2089 -17.3392 1.68402)
(91.4798 0.652485 8.97089)
(19.0026 -36.7192 3.09222)
(48.3088 -2.91134 -0.781422)
(14.7417 -12.2117 0.276585)
(26.1409 -6.09747 -0.0369835)
(14.1659 -10.6782 -0.0764254)
(25.7803 -9.82701 -0.188116)
(18.6779 -11.0505 0.128689)
(17.7646 -8.45048 0.229054)
(9.08468 -7.32503 0.0350613)
(8.78133 1.84543 -0.172846)
(16.5169 3.76221 -0.594621)
(22.4879 11.0936 -0.400902)
(29.732 16.2232 -0.374571)
(32.8282 19.722 -0.093077)
(35.5188 17.2869 0.00160231)
(179.018 -9.66962 12.2553)
(133.314 -52.8974 -15.8975)
(160.423 -17.6039 -6.5692)
(58.636 -11.1998 -1.43114)
(92.2495 9.81813 3.49469)
(19.5117 -9.66744 0.831098)
(42.1954 27.9805 0.865942)
(5.57332 -20.3319 0.31409)
(27.6516 4.07687 0.331716)
(13.6319 -17.7751 -0.0473612)
(22.8797 -4.06864 0.108042)
(14.1248 -11.5268 0.319189)
(16.6369 -2.61233 0.333596)
(10.9859 -5.64213 0.314272)
(11.5744 -0.850141 0.512819)
(11.5464 -0.811771 0.343282)
(14.9111 3.79089 0.246988)
(23.3372 9.33447 0.20782)
(28.3575 14.7119 0.466613)
(32.6212 12.7674 0.530904)
(319.604 -75.1024 -89.2321)
(54.4128 7.07295 5.11801)
(142.446 44.3155 18.9544)
(-1.60237 20.2582 4.3215)
(66.8109 18.8758 4.02762)
(0.460897 -7.81446 -1.76702)
(48.3169 3.34472 0.00345588)
(17.3357 -12.9576 -1.6754)
(32.9759 -5.49035 0.0730088)
(17.9342 -14.0899 -0.327492)
(24.0164 -6.37123 0.095014)
(14.9178 -9.09958 -0.172602)
(16.0493 -2.78679 0.0541544)
(10.7618 -4.40633 0.0384421)
(10.6393 -0.857999 0.108479)
(9.48131 -1.09165 0.214091)
(9.734 0.34719 0.508722)
(13.4543 2.24795 0.718124)
(17.1977 5.79579 0.791905)
(23.6175 4.45653 0.550752)
(147.529 -210.814 -44.9212)
(21.1083 50.9179 -23.2324)
(107.355 23.4671 -7.65144)
(19.5394 22.9538 -4.82745)
(76.233 26.8117 -1.80641)
(20.217 8.73444 -4.91621)
(58.2942 21.4089 -3.46832)
(26.0889 1.0299 -3.92116)
(43.5813 4.79747 -0.901144)
(17.9279 -9.42607 -0.165933)
(24.9485 -1.61689 0.676291)
(10.7156 -4.61662 -0.124953)
(16.3435 0.796527 0.0996439)
(10.4123 -2.01575 -0.112185)
(14.0637 -0.0790323 0.0372899)
(12.5566 -1.826 0.0649513)
(14.8707 -1.31326 0.0689909)
(16.4951 -1.35299 0.0828734)
(18.0918 -0.983958 0.227004)
(20.8385 -0.386434 -0.430249)
(153.04 -78.0662 -51.8831)
(-41.252 82.1295 1.89198)
(71.2691 71.3399 2.98089)
(-44.9479 44.495 1.91738)
(62.4602 37.4379 -0.650708)
(10.516 19.7841 -1.19913)
(66.1674 19.9629 -1.74101)
(48.3239 12.0816 -1.9937)
(66.4891 7.09222 1.94107)
(34.2338 -1.45802 2.37498)
(29.2182 -2.24113 2.01435)
(10.0654 -3.42554 -0.137488)
(15.4895 -2.01264 -0.628543)
(10.2383 -2.78867 -0.632726)
(13.8134 -2.43317 -0.56476)
(12.4972 -2.9392 -0.478338)
(14.7241 -3.02723 -0.502145)
(16.8915 -1.92837 -0.249953)
(17.7979 -0.528392 -0.0599027)
(19.4698 1.59349 -0.634473)
(106.606 -0.877903 62.4511)
(27.2255 128.616 4.44038)
(64.2364 55.1789 20.3882)
(-11.5363 14.6438 6.67886)
(70.6736 5.15366 3.28012)
(38.9891 0.375689 1.95255)
(79.7161 6.63525 1.9906)
(58.421 2.51667 1.99928)
(67.9617 9.89912 3.5539)
(38.1594 8.91232 2.16768)
(37.9414 10.9006 1.29268)
(20.5491 5.94017 -0.201806)
(25.4802 5.21501 -0.54554)
(19.3945 2.78831 -0.870447)
(23.1832 2.0724 -0.78162)
(21.0395 0.125929 -0.827356)
(24.1241 -1.20988 -0.857048)
(26.7028 -2.73594 -1.04027)
(30.4836 -3.93149 -0.833958)
(32.2015 -1.19581 -0.843486)
(135.44 209.381 -124.57)
(65.4199 103.01 -6.78973)
(85.4143 -3.30338 21.1337)
(-35.4947 -19.0826 3.49077)
(55.0107 -21.4209 -0.773818)
(0.998591 -11.7934 -0.885887)
(58.6024 -2.60033 -0.179179)
(26.434 5.06319 0.718537)
(51.4234 10.5321 1.34867)
(31.394 11.5066 1.07823)
(43.2144 9.22582 1.23191)
(31.4907 7.57977 0.645403)
(36.3488 4.19505 0.511123)
(29.3062 3.87497 0.0961776)
(30.9279 1.9152 -0.16645)
(26.7072 0.978256 -0.758549)
(27.3251 -1.64432 -1.3579)
(27.7315 -2.85213 -1.85154)
(29.992 -3.77937 -1.87313)
(31.9497 0.264447 -1.26306)
(309.386 430.337 -82.4267)
(165.949 183.028 45.0935)
(165.413 26.8021 37.7794)
(31.791 -4.5143 17.8626)
(71.3257 -17.17 0.868201)
(27.4047 -4.92711 -1.14557)
(67.2729 -6.15471 -1.71818)
(47.1289 2.2092 0.0876022)
(69.9388 3.56218 0.921181)
(62.0026 7.1473 0.824814)
(77.6724 7.17381 0.760694)
(75.9111 7.86616 0.462688)
(84.38 7.73831 0.572649)
(83.2951 8.44281 0.831743)
(86.4575 8.77671 1.07973)
(85.8292 9.25862 0.93433)
(87.3984 8.76532 0.756035)
(87.1954 7.17798 0.75418)
(84.2335 0.823618 1.33747)
(69.8191 0.0648788 1.25504)
(154.888 43.603 81.9283)
(16.6355 -9.30603 -36.4555)
(120.205 -18.7012 -20.094)
(43.7037 -6.82938 7.79902)
(106.542 -8.47694 9.36581)
(64.8472 -13.0873 6.67818)
(95.5729 -11.6639 3.66538)
(78.6129 -11.7794 1.16723)
(95.7184 -8.40034 0.614005)
(89.382 -6.85137 -1.05473)
(98.0787 -2.31283 -0.981899)
(94.741 1.3275 -1.64761)
(96.4165 3.4363 -0.794722)
(93.2883 3.40038 -0.543878)
(92.652 1.68192 0.37681)
(91.5774 -1.75287 1.27164)
(94.4858 -3.36869 2.09172)
(98.168 -4.92978 2.2626)
(102.632 -2.60774 1.26294)
(98.6459 -0.295558 0.0504062)
(31.9286 9.47387 191.307)
(-85.9271 23.7209 -21.9575)
(80.9803 -9.65552 -1.9642)
(-9.78722 -9.22939 4.63465)
(79.8567 2.01731 3.64206)
(22.3497 0.637205 0.451087)
(62.4517 8.14722 0.426481)
(33.7516 1.97749 -2.35907)
(54.0428 5.50138 -2.59127)
(42.5038 1.42739 -3.60864)
(52.449 2.59231 -2.84549)
(48.6347 0.206276 -2.38857)
(54.0632 -0.309617 -0.307659)
(53.211 -2.17316 1.24891)
(55.9662 -2.89586 1.98442)
(55.3625 -3.28672 1.86287)
(56.433 -2.92342 0.910915)
(55.2453 -2.03057 -0.483354)
(55.0241 0.611532 -1.54215)
(50.7913 1.64028 -2.41078)
(46.2398 -27.5438 5.30277)
(-99.5759 -4.92643 -43.0403)
(84.5869 -11.7352 -5.76963)
(-52.5766 -13.9962 0.0868976)
(64.432 -8.5232 -0.953095)
(-8.33851 -2.67285 -1.38594)
(47.9725 -5.4111 -0.859698)
(14.3831 -2.42836 -0.891307)
(41.6984 -3.83057 0.718865)
(28.2448 -1.88109 0.5266)
(41.0505 -1.73822 1.78432)
(36.425 -0.475899 1.47175)
(41.8892 0.0350723 1.84015)
(40.0044 0.805596 1.36888)
(41.5534 0.927356 0.845884)
(39.8007 0.795146 0.200683)
(39.4353 0.759337 -0.720405)
(36.8152 0.537794 -1.19478)
(34.8452 1.57444 -1.19541)
(30.8232 2.22931 -1.84069)
(37.045 8.32289 -6.79541)
(-51.6486 32.4619 -37.4559)
(100.463 -13.8464 -9.13231)
(-24.881 -5.3882 5.34215)
(72.0452 -12.6222 7.09831)
(5.03226 3.1683 2.01757)
(49.3027 -3.2774 2.79049)
(16.6793 2.71048 0.151799)
(36.6179 -1.70066 1.2633)
(22.5062 -0.320787 0.465479)
(32.0577 -2.14029 1.09315)
(27.3827 -1.82492 0.935404)
(32.6924 -2.31476 1.3379)
(31.8804 -1.70327 1.09659)
(34.9288 -1.01007 1.20561)
(34.4535 0.089172 0.868572)
(34.6992 2.10399 0.525119)
(31.7805 2.65313 0.159148)
(28.6106 3.28598 0.170948)
(24.5382 3.40877 -0.95651)
(131.469 48.0353 -44.1791)
(-22.1782 -9.38448 -4.52122)
(97.8769 -40.2164 -3.07138)
(-6.42231 -14.5723 4.12894)
(70.3953 -23.0439 12.9195)
(8.06848 3.60093 5.20158)
(47.6807 -9.7727 5.80472)
(14.1977 4.3533 1.20545)
(33.6712 -5.41651 1.48713)
(18.3245 0.75998 0.170454)
(28.4537 -4.03263 0.607883)
(23.0778 -1.5921 0.173388)
(28.7799 -3.17932 0.36148)
(27.5972 -1.49879 0.0148002)
(31.343 -0.616349 0.00654601)
(30.9086 1.54371 -0.643162)
(31.5474 4.484 -0.488985)
(28.6761 6.37992 -0.0338545)
(26.4069 6.39267 0.376719)
(23.1499 5.10013 -0.883132)
(129.825 15.465 -5.92203)
(42.8722 32.0302 -32.4469)
(110.527 4.27472 -15.2271)
(30.8238 0.773327 -5.84629)
(81.1492 -5.97499 4.32225)
(24.6492 12.9364 0.949)
(51.5412 -0.316965 4.91555)
(24.2116 9.9258 1.39688)
(31.6597 -2.04571 1.65411)
(18.5174 1.3859 -0.0976404)
(21.9799 -4.85935 -0.153307)
(18.3589 -3.68505 -0.138564)
(22.1195 -5.68602 -0.158045)
(22.2606 -4.41589 -0.38359)
(26.0399 -3.35711 -0.616997)
(26.7479 0.510133 -0.831968)
(27.5305 5.33679 -0.810364)
(26.1989 7.27369 -0.26576)
(25.6685 7.24941 0.275315)
(23.5821 5.22709 -0.522965)
(-17.0881 52.8421 136.985)
(-135.444 -21.8178 -41.2056)
(60.1048 -32.6671 -10.9464)
(-10.3762 -17.1996 -9.87369)
(67.6953 -8.25579 3.20827)
(12.0463 15.7072 -1.86801)
(39.3325 -6.13533 3.37473)
(13.9683 19.2958 0.287572)
(23.266 1.39219 1.02681)
(11.3401 8.07888 0.262135)
(18.0752 -3.50479 -0.0308636)
(15.8408 -2.13907 -0.201157)
(21.1538 -6.64565 -0.212868)
(21.2935 -5.04938 -0.118875)
(24.828 -4.76607 -0.441489)
(24.9099 0.300542 -1.01927)
(25.975 5.56768 -0.739528)
(25.3376 7.68804 0.155205)
(25.519 7.13674 1.06555)
(20.9537 5.19491 0.085352)
(131.216 -12.0982 119.737)
(10.8437 -20.2269 -8.91352)
(87.5728 -29.0099 -10.9582)
(7.36585 -19.3086 -13.1907)
(71.724 -9.933 1.82922)
(18.808 28.6743 -0.246658)
(42.8049 9.44008 3.11262)
(13.8837 17.2062 0.820103)
(17.2173 9.75287 -0.169151)
(10.6403 7.53554 -1.15146)
(19.0725 -1.61713 -1.42386)
(20.0951 -5.0198 -1.25025)
(24.7398 -8.22677 -0.459885)
(25.2397 -7.38738 0.367558)
(23.8724 -6.02669 -0.221807)
(24.9785 -0.528182 -1.06281)
(24.2041 5.82465 -1.1988)
(23.8537 7.40509 0.0737468)
(21.478 8.98523 1.52013)
(14.5271 7.83242 -0.104617)
(26.5469 149.608 205.806)
(-145.415 2.30651 -34.9617)
(47.606 -10.1589 -31.0298)
(-41.5521 -22.2203 -11.6038)
(30.9099 -7.91458 1.80997)
(1.70774 19.9761 0.715635)
(35.2374 21.4069 3.65399)
(17.9049 23.1246 2.51204)
(16.9824 13.2863 -0.334017)
(20.0408 3.88948 -1.85576)
(26.7893 -3.59226 -1.76812)
(28.9577 -7.37727 -1.46518)
(31.1816 -9.9337 -0.898572)
(30.7307 -11.4225 -0.242008)
(28.7024 -4.39605 0.773877)
(21.8438 0.650294 -1.38602)
(22.2589 7.71032 -1.23109)
(18.5645 10.1311 -0.0515319)
(15.1871 13.6171 0.584851)
(10.532 11.6635 -1.18799)
(-88.6183 -159.203 -58.3643)
(-250.972 -5.23848 43.146)
(73.3835 -3.77417 21.7584)
(-51.0188 -9.13444 4.549)
(54.5904 5.96083 12.3806)
(14.782 -1.57829 -1.68578)
(24.181 11.7055 -1.92883)
(30.7196 24.2317 0.613478)
(32.0899 10.933 0.47645)
(32.8346 0.21186 -0.265331)
(34.0145 -5.23987 -1.25779)
(37.2644 -9.64857 -1.65772)
(41.6601 -12.7552 -1.23489)
(41.8402 -11.6655 -0.457952)
(31.8211 -5.53223 1.39187)
(21.3292 5.70554 -0.873173)
(19.4309 9.93308 -0.891942)
(15.6794 13.2766 -0.621144)
(13.3292 16.2984 -0.160303)
(11.7921 13.9772 -1.65568)
(-7.70525 -294.974 144.881)
(-180.827 -112.874 -15.3645)
(16.9578 -80.2025 11.4676)
(-111.463 -24.8227 8.14863)
(0.680683 -9.09657 2.88086)
(-46.1912 9.30257 0.323785)
(-1.95177 9.32654 1.91429)
(19.6778 9.39967 2.50946)
(31.2478 4.98723 1.88275)
(35.7038 -1.15086 1.02423)
(38.6407 -7.24334 -0.0832143)
(39.9752 -11.53 -0.125619)
(40.691 -14.1765 0.665466)
(40.2549 -8.72916 -0.450837)
(29.437 1.26932 0.149237)
(19.2208 9.34634 -1.40531)
(17.9172 13.7523 -0.913391)
(16.2537 15.106 -0.709297)
(14.9291 17.1414 -0.531136)
(15.4444 14.1119 -1.8526)
(268.592 -150.509 4.25003)
(42.5673 -22.296 37.3999)
(108.934 -20.5224 15.9167)
(-16.5357 -6.65649 6.22551)
(57.4579 -9.69 7.63834)
(-4.23427 -28.6303 -0.707133)
(14.0581 -15.9052 2.3858)
(19.5978 -4.22838 3.27628)
(26.2187 -1.81653 2.0411)
(26.3772 -3.53427 0.96764)
(26.4192 -6.71471 0.700795)
(23.1628 -9.76277 0.881563)
(18.0829 -9.74058 0.138116)
(15.2935 -5.77412 -1.58037)
(15.6635 1.7616 -2.19429)
(14.4819 10.5477 -1.64932)
(17.7016 12.9879 -1.08859)
(19.0465 15.273 -0.943396)
(19.9517 16.4984 -0.73498)
(22.0396 13.0939 -1.24384)
(90.2306 -37.6675 51.2428)
(-53.4257 -41.2034 10.0996)
(65.6788 -8.46433 -5.729)
(-23.3904 4.40704 1.78666)
(51.2996 3.12114 12.1419)
(-16.9066 -38.6601 3.30722)
(26.5235 3.75937 4.86594)
(-1.8918 -7.36066 2.52281)
(14.5672 -1.89909 0.673673)
(2.99628 -7.05166 0.512018)
(13.0635 -5.91194 0.11979)
(5.1816 -7.77306 0.739852)
(8.04325 -5.40974 0.230441)
(3.64571 -4.22313 -0.168305)
(4.06236 4.04338 -0.532772)
(11.0447 5.67883 -0.37216)
(14.7052 10.4895 -0.316955)
(20.1952 12.4687 -0.251476)
(22.2174 13.3523 -0.0695268)
(25.2485 10.0702 -0.215814)
(256.325 172.842 52.3623)
(127.123 20.9558 -15.4994)
(134.076 14.0477 -4.7469)
(20.2654 -1.30022 0.79832)
(74.5385 11.9824 5.80157)
(-3.99128 -10.3333 0.528424)
(28.1164 31.2258 0.6723)
(-10.6541 -21.1422 0.343045)
(14.1409 8.8738 0.418322)
(-2.09129 -15.2174 0.166876)
(9.17918 0.849203 0.293335)
(0.436593 -8.56687 0.559527)
(4.99938 0.403985 0.493109)
(0.939473 -3.91667 0.427139)
(3.38608 1.42479 0.704219)
(4.73109 0.800284 0.711403)
(8.92028 5.18674 0.822887)
(15.111 7.31093 0.604322)
(18.3379 9.70622 0.846053)
(22.7431 7.51689 0.502312)
(130.482 191.174 -28.3528)
(-183.401 61.8339 11.0512)
(81.0543 47.7928 8.37104)
(-67.1597 18.0769 -0.0844168)
(50.891 20.9877 1.93588)
(-35.4481 -8.72961 -2.19335)
(31.3244 8.56445 0.417514)
(-8.36054 -12.2551 -2.24134)
(16.3018 -1.4397 0.653107)
(0.040821 -11.4405 -0.40481)
(10.0844 -2.43425 0.321433)
(1.63049 -6.34061 -0.175523)
(5.09877 -0.849606 0.187264)
(1.24404 -2.73948 0.0716448)
(2.369 0.471945 0.208498)
(2.04376 -0.0568789 0.418757)
(3.23484 1.45704 0.87592)
(7.81523 2.66649 1.45265)
(10.5467 4.06325 1.33203)
(16.3951 3.27237 0.336732)
(130.661 -91.1508 -51.8088)
(-20.5939 40.4476 -7.79575)
(82.4614 10.1713 -3.41555)
(-23.8016 13.2318 -5.53622)
(59.7446 18.8815 -2.54191)
(-12.4238 -2.07677 -5.44896)
(39.6793 15.0281 -3.27191)
(-3.84267 -8.42963 -3.68369)
(23.6006 2.76877 -0.110477)
(-2.07691 -10.3652 -0.429318)
(12.5629 0.157849 0.803442)
(-0.703629 -4.16193 -0.348678)
(7.02069 1.16436 0.190614)
(1.10094 -1.71163 -0.222074)
(5.37878 0.577978 0.203901)
(3.80376 -0.856448 0.0890688)
(6.27616 -0.0378221 0.373258)
(8.13883 0.0804751 0.403082)
(9.69163 0.371305 0.353811)
(12.5107 0.84167 -0.892101)
(0.482887 81.3194 21.3678)
(-115.538 84.9691 -6.99563)
(39.8884 49.6932 -3.04277)
(-69.7652 19.3438 6.1469)
(49.7238 16.6592 -0.947275)
(-18.5547 -1.12945 0.329752)
(46.5689 1.89772 -1.25259)
(10.3389 -5.70834 -1.37244)
(36.5314 -3.53648 4.10945)
(8.82069 -5.69854 2.72808)
(17.759 -2.11956 2.63466)
(3.04077 -2.63833 -0.626153)
(8.79583 -1.20502 -0.732714)
(3.05779 -2.02105 -0.933384)
(6.47517 -1.62317 -0.72542)
(4.60133 -1.93322 -0.611333)
(6.56103 -1.85844 -0.36281)
(8.20977 -0.947165 -0.201858)
(9.10057 -0.226873 -0.15325)
(11.4193 1.00966 -1.19068)
(-6.5551 9.95611 -40.8423)
(-127.069 63.3015 -7.22633)
(62.1221 14.9331 26.6479)
(-23.4162 -7.29388 12.9336)
(65.0211 -9.27767 6.25898)
(16.4198 -11.4746 2.55249)
(60.3869 -2.19852 3.31038)
(27.5461 -3.99913 2.19326)
(44.6614 5.68059 5.13262)
(18.172 4.57064 2.27864)
(26.4083 6.92564 1.69033)
(12.0006 2.77183 -0.660359)
(18.1143 2.44543 -0.92358)
(11.8735 0.596629 -1.51163)
(15.7867 0.188054 -1.26598)
(13.585 -0.723594 -1.32477)
(16.4272 -1.56089 -1.22288)
(18.0404 -2.15716 -1.28765)
(19.7006 -2.50452 -0.870322)
(20.7858 -0.33512 -1.57203)
(143.789 161.972 58.1733)
(-6.68674 21.1083 22.0137)
(72.4411 -17.5324 25.5276)
(-37.6493 -15.2206 11.4627)
(52.9168 -18.1317 1.94812)
(-7.33392 -7.26429 -0.415629)
(49.994 -1.35977 -1.06934)
(13.6956 4.55613 -0.0724585)
(42.1534 7.9048 1.78973)
(23.1414 8.53899 1.09881)
(37.9054 6.12057 1.49726)
(27.7354 4.59133 0.20636)
(34.0683 1.61062 -0.00482532)
(28.2787 0.980164 -0.842243)
(30.8236 -0.895664 -1.10946)
(27.6863 -1.40063 -1.73325)
(28.9793 -3.41084 -2.46679)
(28.9459 -4.23806 -3.42019)
(29.2343 -4.74711 -2.89295)
(28.2056 -1.30553 -1.97412)
(68.7426 212.592 100.732)
(73.9511 72.8975 98.1807)
(129.356 8.72058 39.5037)
(73.448 -14.2553 3.3772)
(98.7629 -27.2722 -10.0417)
(52.6989 -15.4276 -7.64697)
(73.4905 -11.3642 -5.51874)
(49.8392 -0.0697825 -1.23947)
(70.1358 2.61789 1.48696)
(62.7385 6.4837 1.44718)
(78.0766 6.64938 1.99577)
(75.9882 7.36722 1.69734)
(83.4296 7.20061 2.24832)
(82.0793 7.69615 2.45131)
(85.2494 7.74021 2.7716)
(84.6675 7.8945 2.37642)
(86.294 6.77447 2.06821)
(85.0263 4.47964 1.70931)
(79.8133 -2.27463 2.74118)
(65.9969 -2.0432 2.2941)
(364.787 234.815 182.678)
(110.08 40.0174 -7.61224)
(122.839 -10.0192 -11.4337)
(45.8506 -7.03077 11.1925)
(106.786 -6.69956 11.051)
(69.8421 -8.08708 7.89215)
(100.4 -4.76298 4.12043)
(82.1642 -4.15455 1.09003)
(95.0468 -0.120364 0.535028)
(84.4471 1.02304 -1.19401)
(87.4871 4.49686 -1.18317)
(79.0354 5.10189 -1.8677)
(78.3822 4.38744 -0.690005)
(73.9046 1.80644 -0.251124)
(74.8479 -0.211123 0.599277)
(75.5303 -1.78353 0.638821)
(79.2383 -1.60388 0.64538)
(81.4509 -0.484003 0.533606)
(81.6951 1.77691 0.360279)
(73.7505 2.26814 -0.724328)
(218.781 129.8 176.735)
(-73.939 52.2858 -14.0365)
(80.2001 17.8119 -4.57154)
(-17.6308 11.6865 4.61368)
(72.3414 17.8012 1.86889)
(14.1814 8.98052 -0.69175)
(57.297 13.067 -0.918963)
(27.2247 4.74516 -3.73232)
(47.7302 7.19465 -3.37953)
(33.4456 2.32163 -4.56799)
(42.5493 2.99849 -2.93059)
(36.5848 0.30829 -2.17609)
(40.6805 -0.0107905 0.102115)
(39.0941 -1.02167 0.965706)
(41.5373 -0.80127 1.36293)
(40.9698 -0.624672 0.821294)
(42.4162 0.333661 -0.268603)
(41.4601 1.12374 -1.44274)
(40.5315 2.83136 -1.94119)
(35.667 2.19728 -2.78548)
(170.321 -94.6192 112.309)
(-57.9641 16.9277 -45.5896)
(74.8772 3.07658 -4.01399)
(-56.8265 -3.34523 0.233015)
(56.1843 -0.742845 -1.61967)
(-18.4909 2.09042 -0.656426)
(40.5412 -1.49119 -0.562532)
(4.18583 0.90128 -0.884503)
(32.7787 -0.707344 0.71977)
(17.2907 0.894739 0.141146)
(30.3634 0.640732 1.5428)
(24.49 1.39599 1.0677)
(29.8902 1.46444 1.60505)
(27.4787 1.99814 0.912124)
(29.0099 1.96955 0.484942)
(26.868 1.90021 -0.108939)
(26.4325 1.88407 -0.876247)
(23.8236 1.61549 -1.2031)
(21.8812 2.19907 -1.02544)
(18.9545 2.11587 -2.1104)
(185.593 66.9788 -0.443754)
(-16.997 51.3769 -35.29)
(93.5652 4.36965 -2.03998)
(-40.8584 7.23481 7.03219)
(60.3183 -2.8082 6.03336)
(-11.3994 7.67513 1.96385)
(38.8917 -0.345143 2.61846)
(4.2828 5.27052 -0.0556176)
(27.0686 0.891921 1.13751)
(12.0363 2.76603 0.235667)
(22.54 1.14034 0.976777)
(17.1151 1.73232 0.705541)
(22.3911 1.35198 1.17186)
(20.8445 1.98178 0.831715)
(23.079 2.40418 0.876837)
(21.7662 3.07264 0.56663)
(21.4477 3.60818 0.286806)
(18.7241 3.2282 -0.127111)
(16.4565 3.10828 -0.158959)
(14.3999 2.8731 -1.23063)
(74.9232 11.5591 87.0271)
(-66.8662 10.0041 11.024)
(77.9002 -20.4392 8.58114)
(-39.9604 4.89472 6.67175)
(54.4431 -8.35112 11.3376)
(-13.9861 11.52 4.1847)
(35.3766 -5.91676 4.70975)
(0.286768 7.90339 0.845822)
(23.354 -2.58469 1.261)
(7.43515 4.17756 0.13998)
(18.9547 -0.535555 0.674216)
(13.1574 2.50262 0.276612)
(19.1999 1.04385 0.564775)
(17.4536 2.88817 -0.00683097)
(20.3502 3.59527 -0.00216707)
(18.8068 5.07904 -0.713451)
(18.3346 6.1914 -0.557173)
(15.8083 6.14123 -0.262805)
(14.301 5.24331 -0.0546026)
(13.206 3.90852 -1.07482)
(359.111 32.4296 66.4129)
(124.304 22.0237 6.59482)
(108.944 23.51 5.28694)
(1.93578 19.4067 -1.51043)
(59.9934 8.73011 6.25233)
(-3.62844 23.1521 0.249403)
(34.8746 3.41067 4.50492)
(7.19098 13.1028 0.657476)
(19.4045 0.0595917 1.40121)
(7.37784 4.57373 -0.275854)
(12.8083 -1.59334 0.0428509)
(9.23381 0.480214 0.0201226)
(13.2331 -1.16513 0.141217)
(13.0679 0.550619 -0.133711)
(16.2505 1.93036 -0.385852)
(15.8104 4.51019 -0.69837)
(15.6928 6.66394 -0.782212)
(14.5505 6.57229 -0.460758)
(13.906 5.49233 -0.075158)
(13.2446 3.69 -0.724066)
(228.476 -30.3781 16.263)
(-207.894 2.46244 -17.4415)
(50.6248 -2.20564 -14.1164)
(-49.7586 5.31029 -5.11067)
(46.2891 7.71129 3.51418)
(-18.008 24.4925 -2.19677)
(21.0197 -4.92388 2.78098)
(-4.1933 22.0216 -0.219414)
(10.1758 1.04761 0.532663)
(0.216367 9.5416 0.0864166)
(8.56418 -1.80493 0.131938)
(6.37379 1.33196 0.361073)
(11.8553 -2.49207 0.330884)
(11.5263 -0.204346 0.393713)
(14.6461 0.498194 -0.250508)
(14.0801 4.61881 -0.756986)
(14.242 6.91943 -0.734255)
(13.1559 7.17526 -0.251222)
(12.8878 5.90017 0.585231)
(10.5177 4.52488 -0.0845017)
(114.146 -105.601 49.5531)
(-41.9337 -22.5746 -14.1158)
(71.533 -26.7035 -6.14866)
(-23.0622 -6.16903 -11.3883)
(53.1666 2.67065 2.20103)
(-6.11179 37.9661 -0.831215)
(23.3112 9.8639 3.53725)
(0.207179 20.2267 1.24333)
(7.10389 7.30511 -0.414643)
(2.92454 7.48344 -0.595889)
(10.697 -0.807764 -1.32981)
(10.6933 -1.48421 -0.948633)
(14.7715 -3.41566 -0.0458962)
(14.9438 -1.21198 0.323626)
(12.8659 -0.549927 0.430209)
(13.6802 3.53564 -0.802955)
(11.8491 7.53106 -1.21042)
(10.2786 7.84646 -0.429359)
(7.9314 8.52506 0.635414)
(4.87314 7.45974 -0.137463)
(170.335 -44.3838 -137.304)
(-94.8056 -45.9432 -57.4713)
(40.589 -19.2842 -49.7735)
(-64.8008 -18.1444 -13.9469)
(10.2321 3.51706 -4.94702)
(-22.4475 33.2326 -0.178673)
(12.0074 22.1442 2.93227)
(5.8846 19.1701 2.28784)
(10.6484 9.3933 -0.84601)
(12.4589 1.73249 -2.04067)
(17.4136 -3.21969 -1.92068)
(18.3441 -5.37608 -1.45148)
(19.7798 -5.99437 -0.379644)
(19.3112 -4.77795 0.483)
(17.133 2.79571 0.658883)
(10.3295 4.44763 -0.898938)
(9.45719 9.68323 -1.15344)
(5.42654 10.6567 -0.703583)
(3.9418 12.1094 -0.0283904)
(2.17015 9.58704 -0.860953)
(-3.18749 -76.0098 -0.320949)
(-209.618 -22.1866 -78.4301)
(67.852 7.47624 -13.5745)
(-73.4362 -1.92605 1.67033)
(38.2607 11.9602 4.79436)
(-5.6239 4.67013 -1.15369)
(9.78244 16.8665 -0.459934)
(17.9279 17.2527 1.44405)
(22.1166 5.48768 0.486954)
(23.4072 -2.12092 -0.722298)
(24.1196 -6.31378 -1.70483)
(25.142 -8.65086 -1.76236)
(25.8237 -8.72462 -0.766671)
(23.2512 -5.91362 0.475107)
(17.0126 2.28137 1.28104)
(9.19826 8.49149 -0.626484)
(7.18531 10.9384 -0.944181)
(4.54023 12.2883 -0.868993)
(3.62785 13.4496 -0.398458)
(3.68016 10.2812 -0.941851)
(231.359 -503.48 98.4481)
(-262.913 -83.9911 10.798)
(10.6721 -61.7984 3.73899)
(-115.955 -18.217 6.0658)
(-10.7834 -7.44384 0.750538)
(-47.4456 9.21101 1.4335)
(-5.00332 9.43143 2.71658)
(14.0971 6.79403 3.03177)
(23.126 2.40147 2.13288)
(26.1633 -3.40272 1.315)
(28.2807 -7.84881 -1.46299)
(27.2601 -9.42576 -0.227971)
(26.4094 -8.62437 -0.48424)
(23.2907 -2.56318 -0.547693)
(15.3714 6.30246 -0.0761352)
(7.71456 10.1411 -0.775137)
(6.84452 12.7715 -0.620742)
(6.09959 12.4973 -0.609033)
(5.74788 13.1897 -0.642185)
(7.68229 9.22157 -1.15859)
(92.6973 -82.4884 79.2507)
(-25.1592 8.4426 31.4502)
(87.0888 -15.3347 13.194)
(-34.0537 -0.501024 4.79228)
(45.116 -6.3038 4.61576)
(-10.1977 -28.6135 0.966442)
(8.39444 -13.2207 3.06567)
(11.3347 -1.58081 3.42469)
(16.3688 0.00597885 2.15861)
(16.0105 -2.16522 0.960809)
(15.6545 -5.25521 0.514248)
(12.6063 -6.77385 0.511499)
(11.1382 -5.11643 -0.892166)
(9.9501 -0.94562 -2.19512)
(9.05796 5.24565 -2.17461)
(5.32252 10.356 -0.813363)
(8.04459 11.0679 -0.534597)
(9.22461 11.5715 -0.655225)
(10.0912 11.2068 -0.678877)
(12.7931 7.32171 -1.05949)
(60.8628 -31.8845 -12.7129)
(-46.5596 -46.5002 -10.8687)
(41.3634 -6.22133 -3.79048)
(-61.5024 4.90831 3.79647)
(31.0156 1.69601 7.71554)
(-37.9703 -38.3516 3.16596)
(10.2413 10.313 4.59668)
(-11.3021 -4.26006 2.14905)
(4.71902 1.71059 0.31646)
(-5.196 -4.44669 0.398051)
(3.2598 -2.83873 -0.0436465)
(-3.00247 -4.95559 0.695479)
(1.06399 -2.84998 0.0124587)
(-1.4786 -1.93142 -0.522049)
(-1.63573 4.95214 -0.376217)
(3.75285 5.46236 -0.0752328)
(5.87877 8.33281 0.153396)
(10.419 8.45034 0.147036)
(11.4724 8.2418 0.028252)
(14.4561 5.26784 -0.35781)
(314.998 175.758 -72.8356)
(100.148 27.291 -29.6335)
(111.208 17.0622 9.07286)
(-5.59001 -1.7057 3.69175)
(61.7521 10.1285 5.8208)
(-20.8096 -10.0642 -0.57566)
(16.9134 31.9729 0.144648)
(-22.019 -20.5795 0.338964)
(3.75969 11.8732 0.171342)