/*--------------------------------*- C++ -*----------------------------------*\
  =========                 |
  \\      /  F ield         | OpenFOAM: The Open Source CFD Toolbox
   \\    /   O peration     | Website:  https://openfoam.org
    \\  /    A nd           | Version:  10
     \\/     M anipulation  |
\*---------------------------------------------------------------------------*/
FoamFile
{
    format      ascii;
    class       volScalarField;
    location    "9.8";
    object      k_0;
}
// * * * * * * * * * * * * * * * * * * * * * * * * * * * * * * * * * * * * * //

dimensions      [0 2 -2 0 0 0 0];

internalField   nonuniform List<scalar> 
12920
(
1262.6
1238.13
1111.94
879.205
787.702
729.139
573.136
353.955
246.225
198.695
165.699
142.075
125.415
114.545
108.101
102.799
100.265
94.7661
91.2936
82.9289
1218.42
3394.87
2970.67
2330.46
1751.57
1304.26
904.466
535.958
314.883
233.463
200.439
188.721
180.964
178.928
178.17
178.751
179.46
178.934
178.005
172.555
5973.5
2833.35
2154.63
1546.95
912.656
602.197
392.067
316.644
248.076
224.638
203.267
196.891
188.624
184.219
179.595
174.164
171.278
165.259
162.278
154.572
3316.3
2178.22
1628.95
965.714
606.484
444.017
319.545
253.008
204.272
183.016
166.937
159.896
151.394
146.385
140.902
135.916
133.418
129.443
127.547
122.401
2523.23
1768.41
1377.25
1105.82
891.926
614.59
464.201
314.41
255.048
201.46
167.409
153.129
139.835
132.533
125.188
120.676
118.565
116.087
114.917
111.783
914.698
1189.58
1462.39
1552.24
1499.56
1409.57
1224.08
890.404
577.378
343.087
214.685
157.327
133.948
121.805
113.882
109.958
108.51
108.015
107.909
106.441
435.864
1507.79
1852.01
1790.76
1428.27
1277.3
1049.73
839.227
606.88
383.569
234.571
161.191
134.334
119.81
110.308
103.087
98.7132
96.4946
96.1889
94.979
3516.55
2468.84
1841.42
1638.39
1327.63
1168.88
763.413
507.02
446.777
344.986
175.019
102.003
98.2492
92.62
147.622
122.359
106.66
96.3987
92.8145
85.69
10475.5
2756.69
2064.72
1418.78
1158.53
775.544
571.209
322.583
272.094
231.159
159.693
80.0583
73.2196
75.4852
124.436
151.075
123.83
103.285
95.874
84.387
2172.21
2705.06
2886.36
1800.29
954.396
543.222
393.976
308.751
247.246
135.119
81.8182
72.2201
77.4154
71.8726
109.503
149.024
137.418
114.724
99.9882
85.6247
6106.95
4137.38
2681.23
1642.61
898.852
431.878
197.7
165.352
145.628
121.701
108.664
98.9128
91.2557
84.9115
127.077
162.432
152.845
130.364
106.676
86.2435
15906.5
8384.71
3168.67
1416.13
846.845
444.465
227.732
144.601
156.404
83.5976
98.5708
105.546
106.041
103.251
166.011
197.044
152.752
112.52
93.493
81.4965
794.932
2369.64
2121.77
1332.07
926.807
677.326
396.376
271.096
185.75
149.656
140.546
139.943
130.377
123.787
170.248
136.017
108.097
91.3684
83.4536
79.1511
1534.27
1717.12
1713.61
1282.13
836.735
575.415
383.638
296.398
250.017
231.095
209.462
184.862
159.6
137.285
120.215
108.374
100.639
94.8042
89.9376
82.7553
6965.7
4558.88
1834.24
1076.66
823.325
673.53
459.841
406.627
325.084
280.645
232.683
199.819
167.945
143.307
126.208
116.293
112.706
111.35
108.813
97.8822
1177.53
2283.76
1978.32
1331.58
919.34
754.162
593.485
514.923
402.327
324.708
259.673
223.987
191.988
168.683
149.317
137.622
129.276
124.593
121.257
109.123
6695.23
3900.41
1986.88
1293.65
877.675
735.493
571.157
464.265
353.31
277.249
223.735
195.699
173.851
160.027
147.502
139.188
132.614
125.421
120.81
108.037
1823.31
2428.94
2211.03
1566.01
972.24
762.32
551.315
402.855
289.628
231.916
194.672
175.598
157.541
145.364
135.452
128.663
123.455
117.086
114.014
106.546
363.949
1649.81
1630.96
1179.2
784.461
619.763
445.441
336.269
257.485
223.012
195.51
177.879
156.982
140.138
125.958
116.136
111.428
108.434
107.281
104.025
494.647
661.109
677.852
645.655
532.999
413.722
307.363
242.5
201.725
180.501
163.711
145.772
127.134
110.382
98.0717
84.9991
72.6786
60.6031
55.5779
49.3541
5820.17
4251.95
2959.5
1751.36
1361.76
1034.74
682.208
504.951
442.33
411.725
348.768
295.103
254.803
232.231
218.998
213.648
211.802
207.87
203.883
190.362
8777.46
10972.8
8474.32
4891.38
3333.91
2808.64
1523.34
920.738
655.202
590.862
532.894
520.232
501.901
498.479
497.569
499.071
499.022
496.813
496.285
492.088
8337.62
7071.52
4689.15
3564.69
1746.19
1432.5
950.856
811.582
660.845
617.042
568.418
549.574
524.591
510.194
497.121
484.398
476.888
465.699
460.661
447.907
6310.56
5309.69
4071.75
2317.27
1514.36
1101.69
782.577
651.379
535.488
510.915
475.314
464.98
440.135
422.894
405.857
392.56
383.822
374.429
369.651
358.449
2080.83
4238.33
3719.83
2962.15
2270.05
1605.6
1128.57
774.467
560.713
499.868
446.611
431.635
399.771
380.276
361.016
350.761
346.008
341.293
338.225
330.234
9578.77
5683.19
4848.62
4159.95
3436.41
3192.44
2567.59
1819.61
1003.74
605.211
460.095
401.949
359.457
333.766
316.518
309.205
308.498
309.71
312.025
311.055
2025.01
4100.07
4685.98
4198.96
3295.52
3047.68
2512.73
2005.99
1352.31
786.069
507.462
390.421
341.061
308.797
290.396
278.59
273.419
273.822
277.091
277.845
6794.97
4306.4
4056.38
3670.47
2984.34
2732.32
2314.4
2016.67
1733.11
1185.12
612.726
435.738
350.051
316.814
312.583
280.18
264.669
255.625
253.533
249.088
11305.5
6018.31
4913.23
3382.5
2687.79
2374.97
2149.3
1939.64
1728.38
1274.27
837.726
436.362
384.958
358.346
331.206
302.979
272.997
257.41
250.783
238.625
3642.51
6419.78
6119.94
4282.52
2301.97
1815.29
1777.04
1660
1322.98
807.833
500.351
439.602
406.091
359.899
324.038
318.582
302.579
273.152
260.608
245.512
22705.7
11562.8
6291.72
3767.48
2114.15
1510
1107.92
911.572
746.62
666.395
559.986
453.386
395.177
355.705
328.16
380.661
363.697
303.931
267.099
242.412
21504.1
7859.2
5069.25
2847.83
1834.8
1490.28
1210.75
1038.29
922.97
678.858
609.44
573.652
533.493
483.452
423.872
411.575
332.23
266.217
241.272
230.124
2661.51
5951.67
4607.02
2820.52
2025.32
1539.13
1190.65
1070.41
763.256
670.739
588.412
538.148
474.075
422.355
368.99
310.311
265.332
242.644
231.983
228.357
1404.8
3642.42
3585.35
2627.97
1755.91
1422.86
997.017
794.067
693.574
627.756
560.635
489.426
419.434
361.257
320.386
291.725
272.238
260.094
250.509
238.73
7123.68
5308.62
3008.62
2450.07
1905.07
1660.67
1180.03
1046.56
844.844
736.95
613.014
529.288
444.852
384.181
346.263
325.805
314.827
307.628
299.638
274.779
3427.33
5725.25
5265.25
3622.75
2385.19
1940.93
1478.91
1280.45
1003.86
837.44
681.069
592.214
508.869
453.107
408.044
384.618
364.563
351.787
341.861
312.115
10767.8
6552.87
5008.8
3291.87
2187.35
1851.18
1396.46
1167.9
882.838
728.849
599.697
530.895
472.396
436.181
406.109
388.476
373.121
358.495
347.25
318.926
4067.51
7203.78
5001.57
3318.79
2128.85
1788.8
1216.13
949.263
697.544
613.155
526.765
484.513
437.955
409.452
382.383
366.654
354.297
343.417
337.65
323.589
2510.99
4237.08
3038.71
2277.66
1422.47
1250.58
877.034
780.649
638.819
606.046
541.056
510.164
453.946
415.196
374.382
347.021
331.053
324.907
323.822
319.617
517.595
1655.8
1679.06
1528.36
1163.44
798.383
531.485
445.158
400.422
385.585
357.467
328.993
296.18
266.088
236.162
202.426
168.868
138.629
121.966
113.236
4893.89
6816.97
3845.33
1841.21
1276.26
914.936
674.977
602.348
565.382
521.639
447.383
386.389
340.161
310.204
288.733
269.977
261.918
248.036
240.865
222.988
9917.81
14631.7
11132
5467.98
2962.8
2409.72
1488.96
1234.38
958.664
886.56
798.598
776.554
744.497
741.573
739.967
740.528
730.88
713.615
704.47
692.914
16106.3
10442.1
5533.97
3555.04
2024.54
1613.72
1214.03
1066.49
929.041
877.027
815.846
789.658
753.812
734.619
714.065
697.53
681.954
665.386
655.728
636.491
4374.5
7175.86
5439.23
2984.94
2012.03
1386.23
1110.41
940.781
841.566
790.99
727.977
693.365
649.128
621.791
594.676
574.971
558.846
544.901
535.671
522.387
8441.82
7460.39
5396.19
3871.64
2821.65
1851.9
1298.9
1013.09
852.899
778.335
691.431
642.956
585.28
554.708
526.994
512.485
501.186
492.759
486.061
477.022
11088.5
11004.5
7462.7
5172.95
3986.05
3193.46
2209.21
1567.12
1064.14
853.403
697.053
601.767
527.463
489.072
465.366
454.793
450.363
449.473
448.81
446.17
2377.2
6822.2
6504.56
5231.22
4034.93
3421.81
2649.59
1993.48
1394.52
975.644
711.153
568.019
485.865
442.488
418.629
406.961
402.512
403.278
404.772
404.231
8268.99
6172.72
5143.81
4477.36
3608.89
3242.49
2809.24
2589.36
2148.77
1651.26
921.426
619.309
487.037
431.22
407.351
382.89
374.804
371.661
370.425
365.382
10161
7691.89
5765.25
4103.04
3235.19
3024.81
2822.99
2562.9
2352.21
1910.72
1054.62
650.854
538.692
476.117
422.093
383.567
367.396
363.567
359.916
347.72
8854.11
9198.74
7180.71
4330.17
2661.83
2321.21
2217.92
1906.23
1430.63
976.975
768.723
651.804
574.655
494.896
431.563
418.003
391.326
374.96
366.984
350.026
15594.9
11215.3
7311.06
4406.15
2612.05
2017.56
1573.99
1254.51
1047.47
948.125
614.313
461.016
451.491
438.6
450.133
504.251
446.812
391.784
367.548
347.13
11663
9947.12
5914.21
3385.83
2371.92
1986.97
1775.62
1446.41
1221.76
1012.31
900.874
803.796
718.557
632.172
557.333
498.231
414.725
367.147
350.21
344.898
13188.9
8093.4
5589.64
3471.81
2532.82
1906.32
1628.14
1419.81
1110.86
984.948
853.424
748.688
644.434
561.229
465.108
404.837
367.386
350.474
345.105
347.109
7555.44
6685.93
4795.19
3231.22
2396.76
1871.41
1423.18
1179.36
1042.59
909.838
788.174
675.059
573.209
496.396
441.566
406.348
382.586
369.187
359.215
352.633
19861.7
7505
4852.93
3548.46
2658.17
2104.15
1575.76
1363.46
1127.53
973.068
820.967
709.311
606.009
537.575
487.668
458.285
438.287
422.263
407.414
381.302
7977.85
7738.84
7056.98
4915.55
3236.09
2461.12
1867.66
1573.17
1258.75
1057.37
882.194
770.127
671.279
607.196
555.629
524.36
497.286
477.898
461.167
426.914
5437.12
9171.99
7267.19
4204.27
2847.88
2278.42
1779.82
1487.13
1169.43
975.702
817.79
726.115
651.242
604.463
565.833
540.464
517.535
498.422
482.187
454.674
12198.8
10193.2
6105.86
3739.7
2569.78
2040.94
1523
1266.33
1004.3
874.783
749.965
685.601
623.72
588.188
555.573
536.07
518.397
504.799
495.135
477.281
10386
6604.01
3945.97
2649.73
1809.39
1530.34
1198.44
1098.53
919.429
851.215
746.163
701.91
633.219
592.802
546.148
519.004
500.216
489.311
484.586
475.134
400.965
2264.45
2111.92
1741.8
1236.92
849.863
631.167
545.172
485.534
443.554
399.343
360.081
322.928
285.131
247.174
209.826
182.906
161.889
152.812
143.118
5143.6
7104.79
3628.48
1583.89
1105.68
840.744
720.167
664.375
600.971
537.164
469.375
414.196
373.967
343.529
323.972
298.812
283.027
258.491
246.203
218.417
25946.7
16956.1
9398.81
4435.06
2619.09
1989.71
1597.05
1422.05
1233.97
1174.53
1092.55
1073.88
1035.63
1027.18
1015.37
1011.81
995.782
966.986
946.562
921.228
15042.3
9972.11
5699.13
3301.32
2329.35
1694.18
1466.24
1255.37
1182.24
1104.55
1066.66
1029.8
1000.1
972.241
948.82
923.229
900.919
876.326
860.286
836.606
6915.8
8726.43
6377.66
3470.14
2418.95
1604.65
1425.38
1166.64
1117.45
1021.7
967.478
909.305
862.931
822.126
790.461
761.735
740.844
722.228
710.13
698.989
14856.6
10072.7
6783.71
4310.91
3152.55
1892.54
1525.12
1200.18
1123.78
995.642
913.608
836.354
776.33
734.85
705.474
684.796
669.932
657.21
647.986
641.281
14000.4
12032.6
9065.73
5818.39
4299.76
2746.59
1965.93
1437.06
1212.98
1028.84
886.971
775.824
699.242
655.667
630.218
615.875
609.279
605.548
603.111
601.687
6208.35
11273.1
9317.73
6087.61
4605.75
3287.69
2445.22
1733.88
1349.6
1047.31
855.086
715.697
636.455
591.87
569.926
558.525
554.988
554.572
553.937
553.34
8138.25
11253.8
7206.44
5146.71
4089.82
3257.42
2798.94
2329.82
1841.09
1374.62
990.431
748.9
615.36
551.346
532.019
517.08
515.607
514.163
512.013
506.153
13870.8
10370.5
7177.7
4669.25
3655.33
3225.19
2934.71
2507.94
2056
1528.99
1036.71
796.441
665.851
583.777
524.428
504.463
500.319
499.276
495.412
480.546
9886.28
10458.5
7537.69
4368.94
2959.62
2511.26
2296.34
1823.42
1362.73
1115.93
961.034
822.998
712.438
613.495
550.127
539.12
519.63
509.852
501.301
479.609
21626.7
10060.4
7527.05
4419.07
2904.83
2287.36
1829.48
1469.69
1266.77
1147.84
883.353
710.808
634.768
588.867
620.283
609.329
549.915
514.473
500.004
480.664
8141.86
9457.59
6892.61
3829.19
2763.8
2265.51
2063.14
1642.71
1400.02
1232.22
1102.82
972.409
858.543
763.282
687.315
580.448
520.078
497.96
492.094
491.498
15501.2
10400
6705.57
3980.41
3011.56
2193.06
1918.57
1605.14
1346.7
1192.33
1036.58
902.06
776.074
676.103
563.102
513.759
492.752
486.898
488.313
498.391
14371.5
7169.37
5991.46
3876.12
2980.41
2156.93
1754.54
1439.42
1293.22
1094.06
955.675
812.777
704.972
622.046
566.754
531.349
510.545
499.245
492.895
493.603
17119.3
6850.37
6030.5
4026.67
3226.3
2315.04
1884.43
1559.41
1340.69
1135.48
983.333
851.545
749.268
678.469
628.072
594.138
569.765
549.423
531.466
512.633
6841.96
7903.32
7763.91
5411.53
3731.88
2654.59
2138.04
1723.24
1444.92
1200.27
1044.04
912.129
821.411
751.502
703.762
666.95
638.11
614.209
592.408
564.694
12823
13926
8810.35
4548.96
3318.44
2430.82
2074.92
1657.14
1378.78
1139.1
997.156
886.864
817.462
763.381
727.105
696.581
672.208
650.723
631.894
610.512
22132.9
12932.1
7358.29
3815.56
2938.5
2152.24
1820.38
1474.61
1246
1061.37
943.214
860.749
804.395
764.174
736.172
714.367
696.672
680.517
667.162
651.285
8165.56
7573.94
3928.15
2428.95
2050.96
1627.69
1464.47
1298.97
1137.92
1027.04
916.523
856.634
790.867
755.126
720.074
701.76
686.151
673.812
666.224
654.392
936.251
2639.6
2073.99
1547.22
1109.15
820.259
670.098
572.708
497.141
424.94
368.569
317.984
279.466
244.744
218.879
196.891
184.17
171.917
166.943
157.038
3712.59
4833.36
2429.94
1319.69
1025.32
786.666
701.432
615.771
548.306
486.664
433.703
389.217
354.504
318.993
281.967
246.716
222.239
201.669
192.745
177.62
11231.9
11618.2
8382.44
3995.62
3071.37
1969.35
2068.09
1640.09
1717.97
1537.02
1574.52
1486.94
1479.9
1405.05
1382.73
1343.68
1331.04
1286.94
1262.31
1215.93
12204.5
11959
6983.22
3926.32
3096.06
1945.77
1975.5
1508.72
1590.29
1382.82
1438.03
1327.23
1337.87
1265.1
1250.95
1194.34
1171.36
1125.54
1110.26
1082.78
9549.66
10538.9
8143.13
4213.05
3286.1
2020.67
1959.84
1457.75
1514.77
1288.62
1304.57
1177
1157.14
1073.22
1050.86
997.567
979.648
949.345
940.545
934.187
12983.1
10924.4
8760.02
4877.03
3998.95
2132.16
2030.29
1473.79
1508
1239.94
1233.12
1080.25
1053.21
971.618
957.207
915.853
905.473
880.781
874.719
871.349
18544.6
14133.6
12047.3
6664.2
5216.9
2709.59
2262.49
1586.13
1522.45
1233.38
1167.1
1000.6
954.435
886.635
868.497
842.218
837.038
826.148
824.82
826.899
34561.9
17595.2
13546.4
6867.37
5733.11
3183.28
2564.67
1747.72
1546.09
1172.96
1097.05
917.668
878.999
817.108
806.628
782.968
783.332
775.153
774.789
775.396
91373.2
33058.5
11828
5980.28
5275.11
3453.48
2707.06
2011
1607.81
1303.04
1094.66
895.774
795.113
728.989
760.624
742.044
736.618
729.233
725.95
722.017
15965.8
12252.6
9847.09
5337.38
4447.66
3312.41
2906.65
2110.33
1639.82
1349.1
1146.42
963.599
844.273
760.356
715.13
726.119
720.038
707.013
700.602
687.575
51302.1
13883.2
8918.76
4604.37
3780.68
2717.02
2330.26
1766.59
1449.54
1275.52
1135.93
995.825
889.405
804.981
743.558
748.037
731.449
713.008
701.182
679.042
23566.1
11450.2
8429.11
4636.02
3478.59
2502.42
2041.1
1672.72
1476.82
1321.72
1161.47
978.619
860.866
834.102
824.466
782.672
739.908
713.535
703.208
685.98
7530.74
8836.39
8387.59
4511.8
3611.9
2599.53
2294.34
1816
1587.47
1419.91
1277.9
1135.51
1034.64
951.663
846.682
749.214
718.546
710.143
711.629
714.49
6801.14
9448.42
8036.66
4599.57
3866.78
2671.46
2192
1785.44
1564.83
1360.51
1213.51
1050.53
929.542
813.097
742.717
707.68
700.218
703.321
712.762
732.56
9677.54
7260.35
7627.93
4572.85
4115.9
2575.34
2304.82
1783.73
1634.74
1312.73
1193.05
987.194
901.026
801.21
760.746
720.288
710.699
700.857
701.745
713.263
11662.5
8150.66
7307.87
4608.1
4158.55
2578.4
2376.75
1787.19
1645.96
1331.25
1213.57
1032.58
953.627
867.715
827.761
786.481
762.677
738.751
722.414
717.343
9158.09
10455.1
10499.1
6039.96
4815.57
2953.82
2692.97
1971.09
1778.13
1389.09
1296.74
1096.56
1044.11
943.073
916.87
862.98
841.053
807.626
785.971
770.875
56270.2
23852.9
11825.3
5068.71
4177.01
2613.38
2588.99
1869.74
1710.3
1325.18
1256.91
1085.06
1050.94
968.517
949.953
905.057
886.922
858.324
841.241
831.775
21240.9
15863.3
10324.4
4416.34
3976.02
2492.01
2426.92
1758.07
1629.88
1274
1225.76
1074.73
1055.67
987.39
979.537
944.56
934.534
909.73
896.687
888.55
17883.7
10036.8
4368.31
2818.81
2783.98
1850.33
2016.59
1520.86
1494.97
1209.64
1167.77
1032.53
1020
966.856
964.623
942.547
937.343
918.206
909.404
899.483
4115.31
2754.45
1564.94
1151.33
932.977
767.211
637.373
515.862
412.326
327.394
273.483
238.543
217.691
201.273
189.935
178.446
170.985
160.609
155.961
146.167
808.393
920.682
675.398
1077.88
958.707
1063.51
782.623
674.992
612.796
501.116
917.32
809.906
709.203
629.057
684.481
990.055
910.176
1096.26
822.415
1164.57
1074.32
491.181
881.937
804.244
741.589
620.642
1039.7
938.85
352.659
473.68
407.096
1695.18
1684.72
1777.76
1827.19
277.086
399.17
403.094
1652.55
1511.69
1773.09
1631.43
249.459
429.666
338.07
1451.04
1202.93
1575.93
1144.04
155.7
211.162
109.543
1042.13
672.664
969.817
526.645
103.089
92.7056
68.5222
636.105
379.449
440.034
362.63
72.5452
68.5594
74.5146
352.998
332.445
357.92
353.085
75.6326
75.605
75.5532
331.849
320.82
349.734
329.905
60.1055
74.3741
58.9617
316.826
298.813
321.297
301.672
316.16
215.611
160.616
1526.64
1552.7
947.493
858.436
283.289
165.706
146.883
1493.77
1306.26
824.049
686.501
158.683
131.097
102.326
1201.23
815.823
636.884
540.058
94.3868
98.493
92.4048
703.848
449.899
523.545
483.781
71.0726
92.2857
91.3304
413.81
374.953
464.224
405.944
77.2332
90.0424
84.0823
370.384
356.734
388.923
347.54
73.6944
81.5841
74.1927
350.198
323.154
335.801
302.611
57.8616
72.2596
52.4971
312.679
294.222
292.544
259.494
161.188
193.484
134.314
892.636
823.464
857.418
818.247
153.648
141.908
146.472
789.769
681.302
806.292
752.207
127.224
136.131
91.9331
648.522
588.259
712.808
578.79
111.849
88.6938
96.2865
575.218
518.918
550.578
520.718
101.268
100.152
106.852
493.835
426.44
515.106
497.272
92.9036
107.685
107.843
408.222
367.851
491.074
470.625
86.1826
107.251
104.234
357.757
328.98
462.831
435.189
59.6471
103.139
88.0918
321.493
284.357
424.514
398.35
142.862
344.456
197.941
933.689
882.914
1011.15
987.307
158.795
191.265
186.29
873.76
841.762
978.211
937.881
90.7337
181.787
135.065
803.308
607.841
902.991
711.465
93.7543
109.457
105.79
557.724
514.848
669.126
547.995
104.901
104.341
93.9061
511.933
500.443
519.155
469.354
106.255
93.2632
94.3342
495.537
475.624
463.058
434.464
104.049
92.5271
89.5153
467.624
439.088
424.571
394.133
87.5087
88.0233
70.3709
428.835
398.217
386.284
363.597
1985.61
2101.22
2015.17
2704.27
2515.6
2486.31
2278.72
1798.13
1950.04
1774.62
2470.5
2347.36
2192.81
1924.41
1447.82
1698.54
1270.12
2276.13
1995.17
1804.46
1392.45
923.601
1122.66
618.184
1831.45
1378.14
1235.09
796.873
478.363
527.134
438.383
1071.98
663.56
731.599
621.352
390.139
428.445
412.154
608.128
520.975
598.943
551.616
364.647
405.8
378.108
505.936
462.692
536.8
487.369
327.642
367.574
333.986
450.989
407.76
470.906
423.203
1731.11
1161.34
999.042
2153.04
1985.24
1532.65
1293.03
1436.53
951.166
791.094
1889.9
1575.2
1221.88
1029.56
925.687
739.1
637.755
1440.37
1055.33
976.615
869.73
537.474
620.162
562.384
950.14
749.992
850.856
688.172
448.842
535.279
458.495
711.255
625.827
635.997
518.015
415.363
437.029
388.748
605.26
554.665
492.206
451.38
372.102
376.149
341.144
537.869
483.885
443.614
416.4
326.585
330.34
287.764
466.225
420.192
405.295
374.277
957.221
1110.34
981.497
1478.62
1250.64
1549.41
1336.91
782.596
955.957
872.447
1184.86
1023.32
1284.47
1138.4
680.112
828.747
691.87
982.595
899.374
1086.36
950.875
592.358
662.121
619.097
882.97
701.858
921.605
848.476
475.345
607.646
575.227
643.669
518.622
823.437
755.062
406.344
565.458
536.019
490.274
448.34
735.436
680.61
364.338
525.64
490.229
443.142
425.841
662.6
606.094
307.349
477.055
430.398
417.929
384.401
586.513
532.698
1060.7
1305
1174.59
1664.39
1424.91
1702.07
1519.66
970.334
1151.31
1077.08
1372.98
1226.24
1468.46
1304.95
729.599
1028.62
835.804
1165.89
986.918
1233.46
1044.12
619.155
789.117
644.102
944.48
863.751
996.507
863.254
582.391
611.129
553.316
839.721
774.256
827.422
745.536
544.37
542.367
504.128
754.987
698.981
725.047
660.375
496.546
490.467
452.363
680.003
621.137
639.16
580.168
434.102
441.352
403.384
600.973
541.174
563.036
512.022
2609.3
2552.18
2300.71
2946.55
2669.07
2597.53
2238.11
2431.45
2206.61
1903.74
2585.09
2315.39
2111.78
1712.25
2081.11
1772.57
1351.44
2204.36
1872.26
1571.62
1228.18
1342.05
1197.47
843.435
1666.92
1145.07
1145.38
973.566
704.872
785.734
671.144
1021.15
812.601
924.331
803.49
556.553
646.073
590.278
760.919
655.378
773.526
697.433
489.424
572.875
516.877
632.079
569.642
673.592
602.798
426.983
498.614
444.174
552.707
497.732
580.66
519.285
2009.69
1623.32
1361.4
2290.9
1980.4
1805.65
1513.23
1567.45
1286.35
1091.42
1856.22
1487.71
1434.39
1247.84
1066.23
1039.56
932.288
1370.09
1126.08
1201.02
1100.83
924.837
907.068
899.103
1006.56
867.937
950.908
954.129
776.812
733.436
759.966
821.777
726.328
784.482
812.418
593.819
481.576
465.532
780.958
702.675
623.536
597.127
514.215
462.403
439.817
676.991
602.107
585.497
541.733
441.7
428.832
398.581
579.364
520.411
529.056
511.905
1323.47
1665.86
1421.22
1774.73
1495.39
1904.52
1610.37
1088.63
1362.73
1204.27
1422.67
1256.91
1540.23
1365.05
960.502
1151.39
1018.99
1216.25
1126.46
1314.22
1193.32
972.084
890.305
964.414
994.425
922.759
861.75
1020.99
698.632
562.644
731.113
486.05
683.946
440.47
746.557
448.644
781.689
719.039
600.626
581.738
908.593
824.996
445.976
698.641
636.197
576.411
549.387
798.806
727.516
407.568
615.271
557.015
540.911
526.651
706.304
656.102
1505.26
1805.89
1596.37
2006.53
1675.88
2015.9
1747.2
1283.28
1533.48
1344.15
1603.01
1416.66
1656.64
1440.49
1051.32
1271.03
1091.79
1358.54
1216.58
1374.38
1224.38
928.111
1047.46
922.813
1182.84
1090.42
1186.97
1071.95
825.995
885.43
797.48
1057.07
961.628
1032.31
929.983
739.917
774.14
702.505
932.367
849.343
901.138
812.841
653.782
678.869
614.59
822.735
748.955
784.975
709.579
566.846
595.857
537.836
726.201
665.104
687.951
620.638
2615.91
2585.64
2185.9
2883.02
2346.47
2533.74
2024.49
2173.39
2049.57
1641.16
2175.57
1782.53
1876.2
1531.63
1712.78
1511.52
1224.16
1684.97
1432.45
1449.53
1283.45
1132.58
1160.53
1013.05
1348.39
1167.42
1243.79
1126.99
846.765
965.263
845.743
1111.36
959.548
1086.17
978.052
690.284
814.937
734.233
915.526
815.907
945.621
862.265
601.554
709.143
636.41
792.242
728.701
838.509
770.055
525
613.746
547.957
709.168
655.024
747.306
685.85
1950.75
1851.79
1552.36
2297.34
1876.09
1976.57
1669.34
1466.31
1474.4
1294.31
1751.75
1471.52
1595.98
1435.13
1157.48
1249.32
1149.13
1405.2
1265.73
1392.86
1283.18
1001.96
1117.35
928.656
1230.2
1124.91
1246.64
1131.91
853.204
867.158
746.373
1088.32
984.119
1088.43
959.343
739.274
722.723
656.226
950.503
862.197
918.887
813.974
636.344
637.235
586.467
838.393
772.287
792.2
754.948
550.636
574.139
553.773
750.491
691.774
745.167
723.041
1542.01
1967.99
1659.25
1973.05
1678.6
2130.5
1797.5
1306.99
1587.15
1411.67
1608.57
1456.06
1722.11
1551.19
1173.52
1362.43
1244.56
1415.51
1307.22
1505.84
1387.75
952.224
1215.07
1122.25
1273
1151.13
1353.64
1253.53
739.113
1086.59
981.483
1102.97
965.64
1217.21
1106.23
649.313
949.373
860.989
924.677
821.819
1070.52
981.963
597.131
834.192
764.594
802.2
774.341
960.605
907.703
571.164
744.384
691.826
768.036
746.543
890.024
834.801
1718.1
2089.51
1784.64
2224.86
1838.49
2276.22
1878.83
1455.57
1686.74
1472.31
1758.24
1577.39
1770.82
1576.52
1265.72
1409.72
1267.8
1529.01
1404.41
1526.71
1390.48
1137.3
1230.29
1115.47
1368.19
1265.88
1349.29
1233.75
1003.3
1075.06
970.677
1230.35
1124.95
1196.26
1089.28
885.538
940.236
848.474
1091.21
1006.37
1055.44
960.836
785.621
819.794
743.029
983.612
921.222
933.99
856.774
699.074
720.693
647.572
899.789
833.968
832.127
752.931
2291.34
2554.91
2010.32
3563.75
2679.96
3129
2508.19
1729.71
1862.84
1548.1
2479.51
2131.88
2343.32
2048.86
1415.82
1476.74
1323.79
2035.52
1787.1
1980.35
1804.27
1195.47
1284.69
1171.88
1740.41
1694.23
1764.6
1689.05
1006.77
1133.52
1027.32
1682.79
1570.45
1664.37
1570.04
867.653
993.881
913.252
1533.8
1449.82
1540.5
1527.74
781.073
890.993
823.851
1434.73
1338.87
1508.82
1418.02
704.443
800.904
734.569
1319.42
1260
1390.37
1331.7
1887.55
2041.52
1728.77
2910.62
2424.09
2623.59
2343.33
1509.19
1655.81
1496.69
2289.52
2039.94
2255.8
2074.32
1312.48
1452.9
1334.22
1973.99
1809.91
2016.95
1868.41
1170.98
1295.53
1186.27
1770.2
1689.58
1823.86
1730.48
1030.82
1145.32
1013.74
1663.66
1556.75
1692.51
1530.82
910.245
970.04
864.95
1521.58
1503.28
1475.43
1424.26
826.708
847.809
819.207
1508.44
1427.83
1455.9
1445.69
741.235
809.161
775.612
1400.6
1330.7
1426.57
1368.76
1742.58
2199.33
1861.51
2620.88
2363.57
2802.93
2510.84
1519.48
1784.66
1612.93
2280.12
2105.72
2413.11
2217.24
1358.82
1567.15
1442.61
2050.15
1903.89
2159.61
2005.91
1206.55
1405.48
1301.48
1861.08
1758.99
1961.65
1856.47
1022.71
1264.89
1151.31
1715.65
1545.83
1819.91
1690.01
875.914
1114.53
1030.54
1490.09
1442.24
1650.68
1626.57
841.173
1012.76
964.078
1475.74
1475.51
1637.76
1574.2
800.9
945.372
878.574
1457.47
1394.04
1546.68
1459.27
1898
2379.23
1927.29
3024.25
2547.84
3174.67
2468.19
1634.98
1817.05
1629.02
2437.47
2232.57
2336.42
2192.05
1458.74
1581.44
1441.21
2181.2
2019.15
2147.16
1963.84
1313.72
1396.7
1280.75
1973.46
1867.1
1909.41
1820.01
1170.02
1244.06
1135.17
1832.82
1710.87
1794.87
1662.23
1055.18
1099.24
1005.07
1677.1
1660.42
1626.83
1540.02
974.177
978.887
900.48
1647.34
1567.61
1524.83
1417.45
875.759
874.231
789.559
1536.57
1448.28
1394.05
1298.18
888.954
852.21
796.425
862.325
832.555
904.163
850.941
926.713
894.061
867.851
966.792
868.757
952.731
855.024
871.409
770.846
767.642
575.703
819.163
817.35
682.9
977.226
1040.75
1037.46
1055.51
994.72
1006.42
1025.31
941.997
912.355
998.899
952.167
953.191
903.13
990.965
979.168
1009.78
1058.17
1005.68
1007.52
889.137
1026.52
928.498
600.826
931.827
894.618
873.562
711.259
982.987
742.224
701.363
668.9
721.401
694.49
750.22
714.372
732.581
728.094
558.346
515.211
690.226
771.215
465.517
690.813
627.218
520.922
456.743
652.841
664.338
448.542
826.851
871.202
878.294
912.579
832.624
863.653
875.157
791.051
766.145
842.179
806.492
797.04
760.35
839.284
787.9
538.604
885.929
666.267
826.763
494.675
845.952
746.569
488.281
771.355
650.366
712.943
476.853
808.831
881.562
777.977
785.127
562.498
851.097
680.544
804.865
1005.8
976.756
964.191
1052.69
947.036
1036.82
1026.2
966.27
872.545
937.643
968.099
910.351
925.467
997.901
1033.01
1039.32
1054.51
1124.28
921.605
1075.6
1090.4
943.647
594.301
933.944
952.662
724.013
864.383
1023.43
1063.91
1110.71
1146.38
1137.42
1093.73
1084.02
1117.44
1023.81
1023.02
1036.28
1107.1
981.414
1054.54
1078.63
674.231
517.418
619.255
410.789
650.728
405.479
634.82
849.786
835.959
854.586
937.212
802.26
886.109
907.052
818.568
745.673
828.528
850.715
773.364
787.858
878.023
752.83
515.01
688.466
890.605
471.007
801.888
839.275
722.833
449.95
639.808
753.429
437.355
678.942
795.814
900.893
989.99
993.739
1005.22
939.913
957.373
952.734
866.009
895.415
879.287
971.175
832.628
925.514
914.594
581.433
745.764
579.735
1213.25
1199.6
1190.02
1182.36
487.84
492.844
451.893
1162.71
1097.99
1163.52
1130.08
406.294
419.777
366.654
993.501
828.842
1047.64
840.636
265.098
325.805
298.168
627.821
421.513
686.05
553.966
115.689
237.794
152.949
316.19
301.904
401.239
323.055
100.529
114.642
107.852
293.1
268.196
298.059
288.821
95.4129
108.201
109.293
255.169
248.854
284.154
280.422
74.9255
108.175
95.1104
236.158
243.865
266.803
277.113
717.956
694.477
656.133
1333.58
1466.64
1290.77
1502.62
804.818
470.574
524.252
756.03
766.826
753.303
440.432
950.041
299.483
360.111
809.283
803.635
939.145
354.961
976.155
263.068
373.942
721.106
670.822
978.697
380.051
455.863
176.091
314.138
495.111
332.399
709.557
218.452
277.135
158.925
130.122
289.506
283.986
316.015
121.841
165.453
72.6689
66.4404
154.159
151.556
162.423
65.6996
198.897
74.6208
74.4177
182.758
187.128
195.307
76.4437
196.639
75.0959
77.7526
193.13
192.509
198.779
77.3068
95.6403
123.686
97.856
257.274
264.241
257.946
266.762
509.872
483.334
383.818
1071.02
1238.46
958.429
933.482
633.091
328.827
325.186
654.577
796.748
566.02
263.252
643.649
302.025
227.948
904.821
882.468
662.871
221.238
374.101
214.046
142.191
741.891
641.052
454.116
115.889
260.336
120.615
97.8924
381.212
326.124
272.723
95.9737
196.341
74.0504
76.8906
211.891
192.245
203.629
74.1964
202.511
74.5586
77.5432
189.955
194.57
201.56
78.6299
189.79
77.1809
77.4933
198.444
196.901
195.456
75.602
159.856
70.084
66.7728
181.097
177.21
165.763
63.7342
88.8542
91.1376
61.1464
241.212
256.726
207.716
217.878
337.494
424.074
322.132
871.002
824.517
849.771
785.991
359.526
160.516
193.253
354.172
395.499
343.125
147.638
433.032
164.946
156.263
454.497
448.655
433.707
158.8
383.736
139.56
150.582
387.122
370.311
397.795
145.682
337.698
118.094
128.477
332.647
323.032
347.706
124.577
293.67
105.857
114.597
287.873
277.41
303.706
111.743
263.732
96.6179
105.569
250.721
242.936
269.854
104.029
245.509
89.2759
101.06
222.668
215.864
250.293
99.8793
227.997
83.0364
95.2811
198.916
193.898
231.279
94.2578
76.574
161.96
118.516
245.133
241.162
310.375
321.684
358.272
459.369
436.282
862.268
864.724
892.559
899.232
390.995
171.753
238.773
359.355
365.889
376.223
188.415
476.497
150.244
160.901
433.755
453.903
465.526
161.81
478.637
140.098
170.19
460.606
415.969
496.038
166.614
246.286
83.0525
93.7786
251.311
245.253
257.942
88.7087
273.967
101.789
99.5287
271.462
277.37
272.25
100.555
275.257
106.011
100.82
282.89
282.885
273.44
101.867
270.689
105.551
103.362
279.068
276.702
274.046
103.025
256.134
102.932
100.059
265.496
262.825
258.507
99.6567
120.48
151.478
117.887
330.113
343.04
321.223
332.669
314.413
398.659
299.406
677.352
701.881
652.029
642.996
225.395
229.411
177.489
686.319
604.619
579.668
420.859
161.795
139.265
116.916
494.595
459.518
342.974
326.528
142.134
115.313
121.973
431.773
404.296
335.046
334.534
140.569
125.864
126.778
393.644
391.927
340.921
340.444
136.969
125.11
123.27
384.835