/*--------------------------------*- C++ -*----------------------------------*\
  =========                 |
  \\      /  F ield         | OpenFOAM: The Open Source CFD Toolbox
   \\    /   O peration     | Website:  https://openfoam.org
    \\  /    A nd           | Version:  10
     \\/     M anipulation  |
\*---------------------------------------------------------------------------*/
FoamFile
{
    format      ascii;
    class       volScalarField;
    location    "9.8";
    object      nut;
}
// * * * * * * * * * * * * * * * * * * * * * * * * * * * * * * * * * * * * * //

dimensions      [0 2 -1 0 0 0 0];

internalField   nonuniform List<scalar> 
12920
(
3.00374
7.98753
3.52018
3.51605
2.4036
2.45395
1.8659
1.323
0.884076
0.746398
0.596807
0.518185
0.445758
0.407342
0.378128
0.35643
0.340035
0.314677
0.297804
0.259343
2.20964
12.8937
9.18183
8.83919
5.34221
4.24334
2.89069
2.20654
1.36386
1.13923
0.924744
0.893215
0.823033
0.81715
0.795126
0.795613
0.787049
0.782592
0.775
0.73314
9.54063
12.1777
7.44421
8.85826
3.88729
3.9804
2.10417
2.16934
1.34767
1.30353
1.0411
1.03057
0.933104
0.917682
0.867861
0.842476
0.811645
0.782945
0.767547
0.719784
5.09548
10.509
6.30252
7.01887
2.97952
3.88201
1.75628
1.7485
1.10777
1.07619
0.873532
0.865982
0.784926
0.772884
0.730234
0.710176
0.689096
0.669425
0.660702
0.621263
3.87296
9.49461
5.13708
7.46378
4.10737
4.04827
2.30228
1.88669
1.32345
1.17107
0.872116
0.836749
0.733414
0.71254
0.658258
0.639508
0.617077
0.604033
0.598498
0.571204
1.79029
7.7509
4.79845
7.341
5.13671
5.39288
4.17574
3.29434
2.16169
1.56597
1.02217
0.819733
0.711699
0.675494
0.627599
0.607531
0.589415
0.578635
0.57374
0.547514
0.972064
8.56174
6.99397
9.17709
5.02052
4.91862
3.63271
2.98228
2.15887
1.59655
1.08681
0.863727
0.738995
0.677783
0.611774
0.573331
0.53908
0.520536
0.513682
0.490866
8.18028
11.1829
5.76722
7.87414
4.38384
4.31656
1.19446
0.805673
0.660649
0.518712
0.314119
0.247969
0.257578
0.246734
0.78371
0.651377
0.562076
0.503111
0.483746
0.436979
18.6695
11.9319
7.20721
8.47886
4.61497
1.58436
0.468002
0.241667
0.188976
0.161696
0.135203
0.0868042
0.0856282
0.0900216
0.297464
0.748399
0.614745
0.509941
0.475997
0.415333
5.3638
11.6001
9.2853
9.60777
3.9983
1.40408
0.473859
0.357092
0.271517
0.159569
0.095416
0.0776605
0.0823621
0.0779243
0.242221
0.671686
0.628412
0.532738
0.471693
0.404396
7.6137
14.7224
7.95564
9.12274
4.18314
1.35132
0.267116
0.226557
0.213701
0.16776
0.128149
0.106667
0.0929197
0.083238
0.251528
0.701193
0.675125
0.60053
0.506675
0.409674
26.8597
20.3632
9.69147
8.54767
3.52855
1.11504
0.257552
0.16445
0.172109
0.0905584
0.105859
0.115396
0.117799
0.115033
0.374901
0.907117
0.719856
0.551016
0.47091
0.403312
1.42595
10.703
7.74028
8.21626
3.87155
3.90001
0.899387
0.61428
0.39811
0.351495
0.33555
0.348602
0.322988
0.310406
0.881531
0.704242
0.563627
0.477478
0.441929
0.406586
2.90311
9.19616
5.50443
7.29082
3.06936
3.08772
1.76682
1.65219
1.27344
1.24394
1.07022
0.973304
0.830013
0.727678
0.634299
0.580948
0.537136
0.504521
0.481504
0.429472
9.36913
14.5515
5.15254
6.003
3.1433
4.41674
2.16478
2.27666
1.6307
1.46866
1.1671
1.0225
0.848924
0.740194
0.655372
0.607984
0.587229
0.575895
0.562564
0.494546
1.96674
9.22369
5.35691
4.4003
2.8128
2.87257
2.20511
2.20174
1.68279
1.4887
1.18685
1.083
0.924293
0.833523
0.732893
0.681806
0.637006
0.613278
0.599209
0.532184
17.7285
14.1322
6.2167
6.44128
3.22946
3.60192
2.31024
2.17665
1.54867
1.34393
1.0638
0.981862
0.859292
0.803749
0.729469
0.686466
0.644129
0.606224
0.586225
0.516241
4.30014
7.08582
5.78345
5.75689
3.20954
3.01961
1.98517
1.66292
1.17726
1.06142
0.889455
0.853624
0.755808
0.711914
0.653136
0.620789
0.58603
0.552399
0.539126
0.494999
0.86278
8.93147
4.85514
5.68882
2.84348
2.8488
1.71092
1.47836
1.05242
0.982146
0.83283
0.786115
0.684494
0.622976
0.558344
0.519126
0.496423
0.483439
0.481019
0.458407
1.08523
2.90558
1.88354
2.18782
1.52382
1.33523
0.926223
0.790974
0.63134
0.581116
0.513817
0.464568
0.404879
0.360205
0.324925
0.289245
0.249917
0.211267
0.196343
0.172738
7.60627
37.1883
19.2886
16.6292
11.4997
9.47563
6.204
5.24638
4.43798
4.45193
3.63749
3.14633
2.62843
2.39378
2.208
2.12495
2.03955
1.96913
1.91595
1.76511
16.826
52.9671
56.4875
45.3166
32.6298
26.3347
14.8453
11.8745
12.7692
14.5653
14.9018
15.7592
16.0371
16.3168
16.4674
16.5783
16.5951
16.5623
16.5445
16.4232
16.0996
39.4022
40.1133
32.8651
19.9767
22.8565
19.7348
19.6465
18.0945
18.2484
18.0799
18.2575
17.9698
17.7906
17.5024
17.2477
17.0227
16.7115
16.5602
16.2566
12.8019
36.3946
43.851
31.3264
26.1631
22.7875
17.6776
16.442
14.4966
15.2467
15.5049
16.5085
16.5965
16.463
16.1245
15.8307
15.5904
15.3467
15.217
14.9535
6.2536
34.0444
38.0384
36.0692
31.2864
27.2815
20.5389
16.3094
12.8189
13.3129
13.6136
15.1433
15.4045
15.399
14.9614
14.7438
14.5937
14.4764
14.3986
14.2173
32.0641
35.448
41.5303
44.1887
40.8452
37.2922
30.2479
21.1166
13.0866
10.4183
10.8582
12.8535
14.0479
14.2936
14.0519
13.8804
13.8376
13.8012
13.778
13.6461
10.0759
26.9843
40.3977
45.7284
41.0479
37.9458
31.1009
24.6163
16.9988
11.0752
10.3638
12.1395
13.604
13.5063
13.16
12.8727
12.7206
12.7345
12.8428
12.8138
21.6729
26.3432
38.2097
41.545
38.3548
36.2689
26.8916
22.4585
19.5065
13.304
6.91382
10.9539
13.2716
12.768
13.6138
12.453
11.9264
11.6041
11.588
11.7128
29.7649
40.1092
43.2708
39.0266
37.8218
30.1362
25.4078
22.9254
19.6888
14.2209
8.59683
9.33763
13.0891
13.0152
13.0188
12.5671
11.4021
10.9812
10.8283
10.8498
7.36572
37.7861
38.3235
38.549
33.5372
27.8912
25.5166
24.4666
19.8026
10.0023
9.5054
12.6384
13.0414
12.0701
11.2764
11.134
10.8774
10.4866
10.5299
10.7479
29.0219
39.7655
46.4334
40.3878
31.8466
24.1448
19.5928
21.1899
18.9785
16.3673
14.3987
12.3352
11.0065
9.99031
9.44932
12.3166
12.1658
11.1173
10.9033
10.8711
52.4557
41.0569
47.1274
35.0388
28.0885
23.0343
18.4817
18.0358
16.6473
11.9461
14.1816
15.8509
15.6771
14.9368
14.3778
14.3961
11.736
10.459
10.9518
11.1331
6.36898
45.9615
49.4529
39.262
32.6955
27.8137
19.3126
17.1916
12.8272
12.795
15.1186
16.0479
15.5957
14.8266
14.6357
12.5114
11.3917
11.4881
11.6174
11.5851
4.62045
28.1804
37.2282
33.2045
26.0081
26.3475
21.6207
18.7722
17.7321
17.1822
16.664
15.7169
14.6978
13.8648
13.2835
12.8212
12.5167
12.3728
12.3029
11.9611
20.815
25.3096
24.1399
26.8966
26.8473
29.674
25.9067
24.8732
22.1176
20.6726
18.3572
16.9034
15.0726
13.9845
13.6977
13.6528
13.5958
13.4177
13.1406
12.4519
10.0347
34.5446
37.9202
36.2908
31.5321
30.3779
27.3127
25.855
22.9596
21.444
19.4998
18.3887
16.8858
15.8263
14.9164
14.6725
14.3063
14.1141
13.8805
13.188
27.9181
45.0029
46.636
39.6754
31.9255
29.9994
25.5133
23.8072
20.6541
19.8856
18.6744
17.927
16.8058
16.0351
15.3187
14.9647
14.5603
14.3092
14.041
13.3849
20.7722
35.0518
35.4786
34.7556
28.983
27.4214
20.8161
18.547
16.2304
17.2076
17.0432
16.9873
16.1023
15.5276
14.7243
14.3656
13.9916
13.7813
13.6878
13.5113
4.20199
23.9235
24.0176
22.971
17.2586
18.4714
15.2486
16.3399
15.875
17.0145
16.401
16.0496
14.8204
14.1209
13.361
12.9183
12.6727
12.8037
13.0028
13.1529
1.15043
17.0579
12.0728
15.0854
9.20602
7.77831
4.66864
4.38906
3.73267
3.77883
3.40577
3.21366
2.87647
2.63092
2.3462
2.05599
1.73141
1.43512
1.27326
1.16496
20.0649
36.1633
28.0182
20.3929
12.8553
10.1551
7.2626
7.03678
6.07982
5.91071
4.78912
4.19677
3.54966
3.22365
2.91047
2.65908
2.51159
2.37566
2.32038
2.11848
19.6176
67.1345
63.0345
55.2906
37.4565
30.9093
21.6602
23.6101
23.6826
24.5749
23.9252
23.8299
23.2496
23.0928
22.917
22.8214
22.597
22.346
22.2683
22.2977
53.2897
60.613
55.8724
46.5479
34.7871
34.3402
30.8062
30.2779
29.0254
28.8509
28.2093
27.7591
26.9658
26.3701
25.7431
25.274
24.8086
24.4093
24.1788
23.8191
18.9829
47.2265
62.3552
51.1507
41.9483
35.0544
29.9508
28.1994
26.9483
27.3117
27.0401
27.0557
26.3505
25.6802
24.9393
24.3397
23.8403
23.4236
23.1444
22.7991
22.0772
54.9404
59.3838
56.5247
47.8054
39.2263
30.035
27.4367
25.2216
25.8016
25.5394
25.7677
24.9266
24.2568
23.452
22.9491
22.5473
22.2646
22.0557
21.7765
31.7868
54.7675
58.2776
62.7958
57.6758
49.04
36.6408
28.8749
22.4507
22.3201
23.0937
23.9384
23.4379
22.7739
22.0908
21.6544
21.4051
21.2273
21.0778
20.8374
8.90152
45.0733
55.435
62.939
58.2181
51.9465
41.2443
32.2196
24.1243
20.5294
21.6736
22.7404
22.1186
21.1613
20.3481
19.9263
19.7097
19.6896
19.6684
19.5649
21.2818
43.2408
51.5305
58.0395
54.734
49.4478
41.4113
34.4069
27.5425
17.9073
12.8379
18.85
21.3479
19.7504
18.4915
17.8899
17.744
17.8224
17.8745
17.9286
20.778
54.3223
56.5933
55.886
53.6774
48.9907
42.7752
35.9665
28.9471
20.273
12.66
18.4595
21.3247
19.7792
17.8631
15.7951
15.702
16.2258
16.4447
16.6275
32.8939
57.2314
54.0752
54.4344
49.8315
45.9862
41.0207
34.9372
25.0071
16.5784
20.8416
22.3885
20.8234
18.1344
15.1534
14.4517
14.6324
15.1964
15.6003
15.932
36.0672
58.4558
59.798
55.3181
48.1261
42.1458
37.0363
34.194
29.8574
27.683
8.67436
7.36636
9.68153
11.2878
12.667
16.8159
16.3747
15.8939
15.8487
15.9047
37.2631
66.6439
67.9598
55.097
47.0069
40.3489
35.1417
31.3326
27.4481
23.8969
25.9705
25.4985
23.7032
21.37
19.5687
18.3929
16.6712
16.2399
16.3301
16.4847
41.9232
53.0066
61.9144
56.8713
49.2917
42.8416
35.5557
30.3141
25.836
26.1457
27.1385
26.1162
24.1132
22.0098
19.4984
17.9582
17.3255
17.2616
17.2999
17.3485
19.544
43.3611
53.2684
50.2819
45.9108
43.1775
36.9847
33.8055
31.7874
29.9751
27.9295
25.7606
23.5318
21.77
20.3396
19.4246
18.8257
18.5119
18.2737
17.9322
56.1381
44.5892
45.6822
47.018
46.9468
45.7029
40.501
38.1585
34.7967
32.2404
29.1744
26.7442
24.3618
22.8143
21.7449
21.0577
20.4753
19.9068
19.3756
18.5892
16.8159
47.2567
50.0031
50.3311
48.1932
45.5411
41.0637
38.6023
35.3063
32.9397
30.2725
28.1344
25.9704
24.3979
23.124
22.3454
21.5845
21.0513
20.5515
19.6062
29.0311
64.3531
64.9688
57.9065
48.9468
44.01
38.882
36.5237
33.4986
31.731
29.5545
27.7648
25.9669
24.644
23.5122
22.7423
22.0171
21.5172
21.0278
20.296
57.3093
60.8725
60.8518
52.6136
43.8026
39.2492
33.3724
31.6447
29.5761
29.1088
27.5735
26.4172
24.9199
23.8896
22.8428
22.1811
21.5735
21.1867
20.9237
20.5148
26.4516
45.1447
43.2599
36.5737
29.9032
29.9606
27.4717
28.2119
26.9261
26.326
24.5753
23.6066
22.1782
21.3508
20.3704
19.8796
19.5233
19.3671
19.3274
19.1112
0.848885
21.0785
15.817
17.8735
9.81216
8.54146
5.86427
5.86697
4.88641
4.71614
4.08745
3.76891
3.32801
2.96521
2.57041
2.23356
1.97602
1.76906
1.68652
1.5575
10.8505
46.8967
28.7176
22.6041
12.7468
10.8251
8.49138
7.97614
6.62647
6.16098
5.07849
4.53417
3.91721
3.56514
3.2082
2.84193
2.59509
2.32205
2.25272
2.04347
44.6853
64.8222
67.9443
56.1682
40.094
34.3821
30.1519
30.7945
29.1834
28.3495
26.4198
25.5906
24.436
23.8434
23.4601
22.8419
21.8429
20.5659
20.3104
20.2691
52.7768
74.5552
68.7673
55.7287
45.079
40.6894
36.9436
35.0738
33.4324
32.1656
30.9651
29.851
28.7832
27.8634
27.1754
26.5936
26.1943
25.865
25.6304
25.3451
11.3479
63.5767
75.3813
61.2475
49.6075
41.4149
37.405
34.1937
33.2646
32.2596
31.1701
30.0374
28.7889
27.7014
26.8274
26.0716
25.5136
25.0446
24.7197
24.3701
76.3793
72.1454
75.3887
68.4314
55.7613
44.1921
37.2267
33.9408
32.7011
31.6647
30.2787
28.9348
27.4255
26.3025
25.4248
24.7674
24.2849
23.9101
23.6154
23.337
48.078
70.2359
71.742
73.2121
64.4454
51.7279
40.1317
34.9353
31.427
30.5448
29.1975
27.7084
25.9291
24.7658
23.9392
23.3946
23.0632
22.8049
22.5938
22.3594
31.8668
61.8817
66.7833
71.7303
66.1356
56.2354
44.7444
37.4031
31.2254
29.3051
27.9418
26.2226
23.9916
22.7089
21.8871
21.4928
21.2907
21.1891
21.0622
20.9116
15.6526
52.9679
61.5695
68.161
62.7605
53.8604
46.1869
37.7897
30.7615
22.8257
22.678
24.1917
22.3137
20.1295
18.1206
18.7292
19.1123
19.3433
19.338
19.1799
22.4058
57.4615
65.3099
66.4442
61.5012
54.5908
47.9626
38.9176
29.5939
22.4913
22.3554
24.6739
21.5815
19.1913
16.4194
15.796
16.9709
17.803
18.1135
17.8789
35.4896
66.5314
69.9855
66.4213
58.8073
52.6257
45.4799
37.3165
29.1756
26.5816
26.9718
24.4706
21.1273
17.8421
15.0567
15.3997
16.2997
17.0607
17.4315
17.2934
49.8338
72.3078
72.7081
65.4391
56.8256
50.8878
45.0139
38.2907
33.4802
30.7469
14.5013
12.5403
13.6087
13.7431
15.4138
17.2819
17.2454
17.252
17.3507
17.1912
24.9396
68.04
77.4506
65.7642
56.1851
49.2717
44.3504
38.1143
33.7336
31.4251
29.8662
26.8929
23.695
20.9636
19.1267
17.766
17.4947
17.5491
17.6075
17.7219
38.2615
54.3584
68.5448
66.3175
57.7441
50.8804
44.2638
38.6315
35.2038
33.2316
30.9045
27.5186
24.3752
21.6348
18.873
18.5287
18.3834
18.2978
18.3076
18.4262
42.4733
48.8166
62.5956
63.8063
57.6548
51.7883
45.0814
41.6747
38.4282
34.9766
31.5815
28.4836
25.4647
23.2805
21.5798
20.5822
19.9133
19.4777
19.1783
18.8984
49.6015
57.9935
62.885
62.0172
58.66
53.238
47.3817
43.9481
39.9101
36.2263
32.6529
29.6129
26.9701
25.0872
23.5901
22.534
21.6925
21.0004
20.4309
19.7025
23.6748
50.3706
60.391
66.9193
59.762
53.332
48.0792
44.3826
40.3467
36.7271
33.4935
30.6242
28.3397
26.4777
25.0703
23.9477
23.0528
22.3151
21.7386
20.8937
58.5321
72.9644
75.5013
67.2372
57.6341
50.6843
46.0747
42.522
38.7757
35.4263
32.5772
30.1366
28.1803
26.5882
25.3766
24.3746
23.5768
22.9278
22.4224
21.7553
77.4847
74.1462
71.5686
59.9426
51.412
45.4026
41.1214
38.2732
35.2274
32.6161
30.2733
28.4883
26.9318
25.6968
24.7313
23.9205
23.2934
22.7596
22.4006
21.9421
12.4552
57.9058
50.8624
40.2035
36.0356
34.2088
33.0774
32.1596
30.0124
28.0699
26.0277
24.8687
23.6114
22.8202
22.0391
21.2575
20.9462
20.3823
20.2337
19.8303
3.60363
28.6697
14.2472
14.888
9.41569
9.0027
6.77318
6.58397
5.28526
4.70345
3.9253
3.43098
2.99466
2.66265
2.40755
2.21558
2.10215
1.98151
1.94085
1.79666
7.25385
38.7355
10.9215
20.5113
5.66239
8.63109
3.58354
3.5966
2.49145
2.25922
1.80364
1.60887
1.39105
1.24827
1.09276
0.990093
0.91169
0.859757
0.841364
0.802022
32.4385
70.9727
39.0304
51.7817
20.5445
26.7202
14.2831
14.152
10.852
10.8542
9.69943
9.5973
8.93166
8.66906
8.33162
8.27102
8.18408
8.06812
7.98735
7.67415
23.3587
65.4794
46.2471
56.0728
22.4508
37.1298
15.016
17.2798
11.9212
12.2804
10.3968
10.2988
9.47626
9.27006
8.81817
8.55126
8.26589
8.02536
7.93455
7.62461
21.5956
75.3175
43.7924
60.3235
22.3951
33.5064
14.6716
17.0612
11.5711
11.8132
9.68743
9.41671
8.50886
8.18727
7.76247
7.49451
7.25944
7.08658
7.04213
6.84122
79.9273
81.1537
59.172
71.3603
27.4433
32.8905
15.3862
17.2313
11.9601
11.8141
9.3
8.75591
7.79415
7.48669
7.11137
6.93427
6.74288
6.60758
6.5739
6.40849
28.9473
80.4629
59.0253
67.8108
30.27
29.7481
15.6415
16.8714
12.3699
11.3063
8.79005
7.82641
7.09873
6.7774
6.55511
6.41834
6.30912
6.22595
6.23505
6.08803
60.9088
78.9945
66.086
78.2462
34.3579
34.1387
19.1059
17.3918
12.8926
11.0907
8.36612
7.26388
6.56678
6.27086
6.04059
5.94539
5.85656
5.80185
5.80864
5.67518
113.572
91.0694
40.8996
53.824
26.5652
28.2885
46.4277
39.0814
33.1337
29.1939
26.0805
21.8646
19.2983
17.8047
5.6639
5.51758
5.44514
5.37043
5.3766
5.23691
27.7266
60.098
43.8894
71.8572
29.249
54.0414
47.3455
38.1611
31.2873
27.4131
24.4618
20.3722
17.8543
16.1459
15.0024
5.34996
5.27205
5.12965
5.10857
4.92112
91.6498
76.2862
41.2004
69.5504
22.5931
50.4624
43.987
34.7303
28.9747
25.7391
22.5949
19.4321
17.1149
15.64
14.7603
5.43534
5.26587
5.09183
5.04745
4.81069
76.2977
80.3701
45.7592
69.1807
25.0368
50.9251
43.896
35.3772
30.4428
26.73
21.9722
18.1425
15.7273
15.4953
16.0867
5.58311
5.26163
5.06523
5.0462
4.83667
24.0482
65.9427
43.4085
69.7497
21.5772
49.7169
45.5041
37.3616
32.6799
28.9577
25.4555
22.0948
19.7966
18.3796
17.1338
5.36174
5.19042
5.08544
5.14547
5.03558
12.0628
36.5934
36.1231
59.373
21.9073
24.8104
45.3878
40.6669
35.9847
31.8511
27.6552
23.8694
20.859
18.4917
5.44539
5.17053
5.10137
5.09074
5.20491
5.17387
52.7695
60.3332
36.0386
49.1063
20.5419
22.2381
14.5501
14.4575
11.5522
10.2267
8.53178
7.40424
6.50741
5.90451
5.51885
5.30305
5.18965
5.10849
5.15186
5.06951
41.3327
66.533
31.1184
50.5526
21.4196
27.56
14.8611
15.2332
11.61
10.3614
8.67941
7.66486
6.85285
6.33874
5.98709
5.70559
5.49794
5.31859
5.25225
5.08395
21.6682
41.7344
36.6724
35.4105
21.917
19.1039
14.5299
13.5372
10.958
9.85641
8.60833
7.8566
7.20508
6.74432
6.42066
6.13252
5.91929
5.70926
5.60706
5.39533
96.571
87.167
46.9775
47.7306
22.1507
22.8925
15.0079
14.4407
10.8095
9.7351
8.3936
7.8237
7.24265
6.88729
6.60146
6.35007
6.16568
5.97979
5.90649
5.71538
70.4542
82.2672
43.9277
34.188
18.3566
16.3523
12.3668
11.5359
9.33709
8.53577
7.67268
7.36912
6.97549
6.80575
6.60384
6.46744
6.3321
6.1916
6.14676
5.96471
61.6508
69.9777
18.5204
40.5629
13.2505
14.4025
10.2928
10.1433
8.25007
7.74611
6.90869
6.6441
6.34453
6.25163
6.12101
6.05736
5.9671
5.86338
5.84858
5.66469
19.5563
22.0554
5.13824
6.78445
3.21302
3.62619
2.44451
2.36438
1.70396
1.50221
1.20618
1.12799
1.01629
0.975851
0.913811
0.869037
0.826934
0.775413
0.754738
0.688584
19.4606
25.1608
8.9748
24.6998
26.4528
28.9403
7.73095
22.4603
8.12163
7.9878
26.5444
25.3657
6.98366
8.42934
9.68091
25.9578
25.7612
30.7187
9.42019
31.2579
29.4531
7.50904
25.5034
24.2355
8.39685
8.04667
28.5824
26.0451
0.271545
0.445364
0.362842
16.3178
17.692
18.862
20.4326
0.196885
0.35911
0.36307
17.5409
16.0817
20.0751
19.7267
0.170568
0.38006
0.295346
15.3314
12.596
19.1893
12.9281
0.123071
0.203352
0.124579
10.9184
6.73209
10.4741
6.24591
0.105934
0.105823
0.0749996
6.3375
5.09368
6.26595
8.37677
0.0839414
0.0745434
0.0803104
6.5049
9.61396
9.02067
10.0072
0.0902956
0.0817095
0.083141
10.0103
10.2693
10.109
9.99328
0.0720275
0.0825461
0.0662264
10.2482
10.3944
9.85436
9.94213
0.370045
0.310421
0.222695
18.4985
19.8848
14.2477
16.4221
0.316477
0.22923
0.213497
19.728
18.5608
16.8501
15.3617
0.178797
0.195162
0.150676
17.0164
9.88816
14.2083
11.1588
0.112307
0.140076
0.114542
8.35243
6.67241
10.7342
10.7294
0.0773736
0.110107
0.101215
7.13503
8.96873
10.6598
10.2523
0.0821827
0.0978953
0.0880099
9.42143
10.0235
10.0322
9.25775
0.0796003
0.0844182
0.074309
10.0242
9.63431
8.97051
8.04725
0.0639501
0.0717634
0.0514591
9.41734
9.55098
7.71516
6.75638
0.216996
0.251816
0.16856
13.3353
15.9741
12.3152
14.2459
0.223045
0.180198
0.189033
16.5033
15.7784
14.7706
14.8646
0.181386
0.17735
0.114561
15.0316
13.1272
14.1803
11.246
0.136403
0.107503
0.107869
12.7589
11.9388
10.6618
11.1819
0.111408
0.110696
0.115333
11.5911
10.6239
11.5901
12.1186
0.095923
0.115797
0.115428
10.2884
9.41337
12.1149
11.9335
0.0853131
0.114805
0.111577
9.16006
8.40581
11.8272
11.4959
0.0576985
0.110216
0.0935467
8.20481
7.34655
11.3187
11.4834
0.162432
0.339363
0.202329
12.0874
13.6006
11.6863
13.1386
0.178209
0.192482
0.172726
13.8158
13.8948
13.3392
12.681
0.0989955
0.16525
0.125518
13.322
9.86618
12.1719
9.44482
0.100311
0.103555
0.110968
9.02924
9.92683
8.83319
9.01176
0.114185
0.113919
0.10977
10.7662
12.0738
9.86322
11.369
0.117712
0.110867
0.11248
12.2092
12.3039
11.6483
11.7002
0.115959
0.111391
0.107014
12.2588
12.0289
11.6732
11.4507
0.0960818
0.105692
0.0822695
11.8882
11.8001
11.4091
11.6765
23.4968
26.6135
25.612
39.5811
35.4516
39.5214
35.6882
20.6738
24.9452
23.2833
33.9615
29.5842
34.1241
28.7222
16.1823
22.2119
14.9158
27.8267
22.7017
25.9923
17.3209
9.56171
12.596
7.69191
20.2984
11.9983
15.2351
13.8475
7.31729
8.07697
11.4132
10.7397
12.8397
15.6229
19.991
12.7829
12.1845
13.1586
15.9686
20.0483
20.4428
20.3481
13.135
13.2026
12.8458
19.9557
19.122
20.0534
18.702
12.3946
12.6325
11.8384
18.7731
17.6643
18.1953
16.5851
24.9586
20.7776
21.4324
38.4584
34.8358
34.3729
32.7652
21.8433
21.5963
19.2568
33.3184
27.2333
31.9376
27.8042
11.6573
17.8823
14.3991
23.9894
15.8603
26.2523
23.0399
8.62365
13.9678
13.7941
14.4551
16.4212
22.6958
14.6095
12.1473
13.5608
12.6048
17.9743
20.4466
13.4016
11.3492
13.1164
12.2299
11.2184
20.579
19.9864
11.2798
11.4984
12.3784
10.9206
9.94402
19.5654
17.8736
11.7046
11.7995
11.3763
9.59901
8.09934
17.2634
15.9137
11.6725
10.8949
20.8415
18.6969
18.8657
33.2006
32.3474
31.9685
30.2062
19.8962
19.1321
18.6473
31.8082
28.8999
29.7027
27.5792
16.737
17.8023
14.6059
27.786
25.4058
26.5267
23.5799
15.0058
13.9695
14.686
25.1055
14.9972
23.2226
23.6258
12.7989
15.1423
15.6318
13.5002
10.8639
23.6289
22.9105
11.273
15.5839
15.2211
10.4927
10.5306
22.5488
21.4202
10.2243
15.0431
14.4284
10.8257
11.4055
21.0103
19.5885
8.5329
14.1523
13.3042
11.4533
10.9336
19.0508
17.7768
18.0305
18.5136
17.5253
31.3098
29.1381
31.1015
28.5455
17.4559
17.3576
15.8436
28.5515
26.2415
27.5646
23.9299
12.8499
15.0326
11.8918
25.0597
21.4029
22.5981
19.3411
13.1725
11.2106
12.0205
20.8489
22.8628
19.0076
21.9964
15.7251
13.1472
15.1322
23.5595
24.06
22.977
24.1123
15.7967
15.3725
15.3615
23.8815
22.9423
24.0532
23.2091
15.1681
15.2391
14.8446
22.5239
21.0577
22.8245
21.5845
13.8406
14.6789
14.0603
20.5187
18.7107
21.136
19.8904
37.6762
42.4116
37.4922
47.1677
40.842
46.1977
39.9269
30.9617
35.7069
29.4303
38.6556
30.963
37.8193
30.8028
23.3308
26.4682
18.0461
27.5807
22.1771
28.1992
22.8033
13.1996
16.1382
16.7806
20.8852
18.8549
22.5824
25.182
15.4695
18.6923
22.2416
19.457
21.4873
25.8806
25.497
21.596
22.4301
21.8173
23.945
22.9032
24.9468
22.9619
20.1963
21.3919
19.7202
22.2577
20.4971
22.2212
19.9497
18.4647
19.1284
17.2382
19.9571
18.4234
19.2448
17.1972
36.6723
37.9695
35.2666
44.9496
39.2736
44.066
39.241
28.2198
34.1648
29.8028
37.2391
30.5347
37.6167
33.2705
17.6334
28.3343
25.4622
28.2651
24.5302
32.1608
30.2587
22.6806
16.8513
19.0616
19.2278
19.7833
19.9041
22.0862
23.1736
21.822
21.5289
23.3825
21.7071
23.9412
23.255
21.3629
8.63835
10.4716
24.7575
22.6054
9.78726
12.6081
18.8198
11.0308
11.7178
21.7689
19.2025
13.0752
13.2209
16.5326
11.707
11.2138
18.4436
16.6704
13.1582
13.2423
35.0155
35.8067
33.0937
43.8782
39.4912
43.2216
38.8924
30.943
32.3866
29.8847
38.0495
34.2788
37.6805
34.4598
27.5677
28.8329
26.1743
33.3188
31.3907
33.492
31.5041
18.9743
16.9098
27.6371
24.7126
23.1293
3.4969
28.9589
10.5216
8.03571
14.4979
1.35194
13.5756
1.27987
11.0615
8.96269
23.7516
22.3842
8.49862
11.1432
25.2915
23.2583
11.0957
21.9108
20.3076
11.8324
12.7282
22.5674
20.6015
11.223
19.7294
18.3588
12.863
13.3395
20.0363
19.0515
32.0823
35.305
31.5912
42.6498
38.3431
37.8595
38.3707
28.6396
30.3824
26.4536
37.1453
33.8602
36.8525
33.2468
24.1752
25.1178
22.2809
32.8171
30.6933
32.1512
30.3448
25.5644
22.2318
25.0316
30.5391
30.2399
30.3222
30.6664
25.8245
25.6979
26.181
29.8225
27.9615
30.3869
28.796
24.2203
25.9479
24.7608
27.2695
25.1085
28.1225
26.0148
21.974
24.263
22.76
24.347
22.1909
25.2871
23.2752
19.372
22.238
20.7749
21.5496
19.9247
22.654
21.073
41.1256
46.6059
40.021
47.9858
40.7752
45.7884
38.6196
32.5153
37.8941
31.1809
38.6701
33.0894
36.5192
31.1029
24.5125
28.9435
24.948
31.3875
27.8644
29.7145
27.2962
22.2708
24.9567
26.5575
27.2711
26.4366
26.8724
25.0751
23.9908
26.6939
25.2409
25.6824
22.4201
24.2058
21.6142
22.2757
24.5384
22.2473
21.38
19.1126
20.7967
18.6458
19.7315
21.4572
19.1676
18.5061
17.0042
18.0682
16.5697
17.7664
18.4869
16.6299
16.5732
15.4823
16.1236
14.8656
39.37
44.9764
39.4954
44.8869
37.7749
44.559
37.7784
31.0548
37.7743
33.5054
35.7471
30.8122
35.9714
31.8518
26.4454
32.4742
30.6786
29.5833
27.4313
30.875
28.5067
27.2599
29.7005
15.1283
26.9356
25.0241
27.6769
23.5479
25.1797
13.7748
13.057
24.2124
21.7832
22.2068
19.3086
22.0415
13.5602
14.473
20.9588
18.4966
18.5944
16.405
18.5591
14.5032
13.9882
17.8431
16.3275
15.8416
15.0311
16.2062
13.8506
13.8967
15.8998
14.7924
14.9158
14.8345
39.8646
44.7135
39.7848
44.9235
38.312
45.9703
39.5064
34.4242
38.4386
35.056
36.5632
32.5275
37.9127
34.1797
31.5601
34.0972
32.1101
31.5455
29.0432
33.1205
30.572
16.1403
31.7553
29.7141
28.2057
23.7026
29.8151
27.3187
12.4948
28.7667
26.0422
22.2523
19.1738
26.3641
23.6282
13.3783
25.2389
22.9551
18.4092
16.298
22.7688
20.3058
13.7133
22.1846
20.194
15.81
15.2482
19.699
18.5037
14.0987
19.6723
18.8267
15.2249
15.2321
18.208
17.482
39.4317
40.4649
39.7364
46.242
39.695
42.906
40.9741
34.73
38.2039
34.8445
38.1378
34.5305
39.507
36.4238
31.6936
33.7789
31.9219
33.4865
30.9028
35.2667
32.4099
30.4709
31.7097
31.1743
30.1725
27.8384
31.6151
29.1593
27.6604
30.6155
28.492
26.9561
24.3402
28.1321
25.2608
24.5032
27.7157
25.4224
23.4809
21.1363
24.3994
22.146
21.5618
24.663
22.5981
20.5364
19.164
21.4305
19.6402
19.5719
21.9856
20.5058
18.7857
17.7289
19.1143
17.6412
40.1985
44.9802
37.5931
10.258
8.25558
9.26633
7.3035
32.8384
35.5314
30.4778
7.4588
6.53134
6.91269
6.27929
28.0733
29.2106
26.5743
6.23269
5.87389
6.15093
5.30744
25.5404
25.9022
23.5415
5.63319
5.41754
5.08117
4.57405
21.2841
22.6365
20.1843
5.40562
5.23916
4.45528
4.31481
18.3936
19.4704
17.8148
5.16
5.06488
4.41446
5.4902
16.537
17.3805
16.1692
5.061
4.88061
5.42977
5.21346
15.2515
15.7865
14.737
4.84435
4.70318
5.15548
5.05835
36.681
43.4213
36.5158
8.38184
7.01001
7.8949
6.63393
30.1404
34.7972
30.8394
6.72174
6.20258
6.44369
5.88116
26.4557
29.8384
27.1048
5.92085
5.11094
5.55521
4.89006
23.4212
26.232
22.984
4.8911
4.36378
4.71142
4.19622
20.2168
21.8341
18.9656
4.23092
3.98706
4.04036
3.59126
17.5558
18.1376
15.9829
4.05004
5.14571
3.53067
4.42947
15.9881
15.6169
15.1981
5.49371
5.25949
5.10563
5.30395
14.7012
15.1278
15.0101
5.19851
5.11334
5.23294
5.07506
37.0602
45.2436
38.5666
7.73782
6.59269
7.92652
6.71783
31.4504
36.9908
33.2792
6.4266
5.8867
6.53601
6.09422
27.6078
32.1884
29.3565
5.56515
4.90779
5.83188
5.10927
23.2044
28.4719
25.8152
4.73308
4.24477
4.93362
4.51609
18.9839
24.888
22.2471
4.08739
3.62011
4.40102
4.11409
16.0434
21.409
19.4446
3.55243
4.42785
4.14053
5.08739
15.4973
19.0398
18.1943
5.10188
5.32644
5.48662
5.30234
15.4328
17.9525
17.2195
5.25788
5.13497
5.23871
5.07279
38.9058
45.8446
40.5539
7.39612
6.68946
7.86628
6.67132
33.7475
39.1029
35.976
6.52557
6.07221
6.505
5.60823
29.8292
34.7263
31.6345
5.98543
5.19688
5.73531
5.26044
26.3509
30.6838
27.9955
5.01853
4.64698
5.24502
4.94199
22.8899
26.8927
24.1686
4.55674
4.3434
5.0747
4.81416
20.2446
23.3376
21.2603
4.40468
5.41385
4.85528
4.69917
18.7064
20.5964
18.9691
5.37838
5.21768
4.81126
4.58397
17.3933
18.4625
17.11
5.15731
5.02808
4.62831
4.39555
22.9909
17.9891
21.1405
22.3713
20.5225
21.0808
23.1926
22.405
22.5066
16.7404
24.0577
21.7581
25.0225
4.66872
19.3622
19.0248
11.3093
1.72439
20.0515
18.1561
2.29885
25.1721
22.1258
25.3144
26.8537
22.8648
24.8062
27.0366
25.0997
24.7985
26.0062
26.2692
23.8826
24.9251
26.7123
23.9191
24.6474
28.514
17.0994
27.0202
4.67879
26.7834
20.3477
2.04559
21.5008
9.9811
18.8088
2.65019
23.5108
22.8079
22.3033
21.414
23.9781
21.6238
24.0765
22.4203
16.7725
18.3908
7.44021
1.47503
17.8593
17.3662
1.3731
15.9143
16.9626
7.20009
4.64626
17.2185
16.2248
2.49815
24.3416
25.3323
26.3374
25.7892
25.4678
24.7014
25.1989
23.7432
24.966
25.911
23.7949
25.3053
23.1961
24.4762
17.1579
1.76698
20.2944
6.6602
17.8956
1.72437
19.404
16.381
4.66572
18.4473
7.11655
16.655
2.38015
18.6788
13.7599
11.6507
15.8523
1.63768
18.3156
2.21457
11.9479
27.771
27.5225
25.9448
28.2884
26.4735
29.3205
28.1453
25.3938
23.4207
25.8981
27.4203
24.8252
23.6619
27.8347
19.683
25.1352
18.368
30.9701
3.81558
30.0875
25.6101
14.1547
2.06031
11.781
16.819
2.74478
12.2859
19.6799
29.0183
30.0898
31.5053
30.8926
30.6709
29.8182
30.1921
26.3698
28.6624
25.8439
30.2459
24.4378
29.2997
27.8429
10.9768
7.24909
12.5431
3.26583
13.0584
1.48989
10.4367
21.4657
22.3231
25.1419
26.9197
21.4403
22.3936
26.3478
20.763
20.0408
24.7161
25.1329
20.7289
20.009
25.7569
10.7914
1.74035
7.86988
15.252
1.69544
11.3276
14.3378
11.0817
3.59521
7.32902
13.2857
2.12262
10.578
13.7542
21.9855
27.9427
24.3092
27.7012
23.0208
27.1905
23.1104
21.1995
25.7209
21.3386
26.8552
20.3919
26.4567
22.1797
0.941756
1.2031
0.938574
8.80909
9.99636
8.59976
9.82205
0.735427
0.772476
0.681932
10.5092
10.1302
10.4928
10.4434
0.598013
0.581301
0.495416
9.60921
8.19756
9.72091
7.8563
0.429951
0.441276
0.408744
6.20878
4.20254
6.41983
5.25879
0.253139
0.351472
0.278025
3.26061
3.98266
3.88317
3.45983
0.258623
0.249189
0.255381
5.93109
6.90211
4.81794
6.58914
0.256529
0.261999
0.270448
7.25723
7.41146
7.45054
7.689
0.200359
0.273417
0.240127
7.15267
9.12579
7.43557
9.21293
1.25593
1.60259
1.29047
10.2592
12.7467
10.2684
14.2205
4.18317
0.38429
0.446003
3.41172
3.90103
3.42198
0.354351
6.65174
0.2217
0.27364
5.3908
5.63422
6.35511
0.268028
7.09755
0.180611
0.270292
5.08514
4.7051
7.02259
0.270089
3.15025
0.129045
0.226262
3.44086
2.28921
5.02922
0.166492
2.52167
0.14073
0.125696
2.05833
2.20839
2.40669
0.124482
2.57345
0.0811816
0.0733324
1.87232
2.04066
2.2868
0.0739098
3.48694
0.0884753
0.0843142
3.0689
3.22681
3.39318
0.0877198
3.52055
0.0904435
0.0899495
3.53544
3.55218
3.53245
0.090392
0.234896
0.290948
0.23236
7.81259
9.8578
7.59817
9.45906
1.24811
1.39631
1.00243
9.96448
13.9646
9.31167
11.5254
4.48497
0.394289
0.424672
3.60682
5.20168
3.20079
0.333498
6.65448
0.344858
0.280417
7.2243
7.37704
6.43924
0.274699
4.56329
0.231119
0.187422
7.40304
6.49023
5.58599
0.154417
2.9678
0.145206
0.130096
3.51744
3.06883
3.00359
0.124109
2.59256
0.084119
0.0901826
2.72129
2.54884
2.61547
0.0843494
3.06545
0.0796944
0.0833591
2.81732
2.9738
2.95761
0.0837493
3.09557
0.0824473
0.0816756
3.23764
3.26515
3.1418
0.079737
2.75176
0.0766473
0.0711496
3.12365
3.10826
2.79058
0.0681269
0.199702
0.188043
0.12748
6.85706
8.88641
5.09082
6.16848
0.86612
1.35697
0.789627
8.89917
10.3801
8.75936
9.76511
3.06354
0.214816
0.268738
2.46403
3.47878
2.37014
0.196215
5.51785
0.229645
0.214278
5.5672
5.68963
5.34099
0.219946
5.14517
0.205341
0.214729
5.21485
5.00252
5.31122
0.207691
4.49368
0.156102
0.171182
4.41673
4.27866
4.6299
0.160008
4.0854
0.121434
0.132898
3.91302
3.86499
4.14305
0.126367
3.7905
0.102634
0.11277
3.68072
3.59801
3.85911
0.109748
3.53551
0.0900951
0.102998
3.29545
3.18335
3.60279
0.101078
3.34485
0.0808376
0.0945535
2.92341
2.84357
3.37535
0.0932016
0.155654
0.33824
0.247625
5.63572
6.48585
7.79289
9.4236
0.815434
1.16401
0.858277
8.17283
9.59944
8.35116
9.33602
2.82575
0.195517
0.272115
2.34293
2.81848
2.39956
0.205832
4.55055
0.170232
0.16382
4.5947
4.90412
4.33377
0.160712
4.94159
0.154232
0.159926
5.19427
4.81666
5.07516
0.155079
2.78866
0.0896441
0.0927527
2.99175
3.05348
2.75716
0.0888267
3.69526
0.109937
0.104624
3.77356
3.87479
3.59823
0.108425