/*--------------------------------*- C++ -*----------------------------------*\
  =========                 |
  \\      /  F ield         | OpenFOAM: The Open Source CFD Toolbox
   \\    /   O peration     | Website:  https://openfoam.org
    \\  /    A nd           | Version:  10
     \\/     M anipulation  |
\*---------------------------------------------------------------------------*/
FoamFile
{
    format      ascii;
    class       volScalarField;
    location    "9.8";
    object      omega;
}
// * * * * * * * * * * * * * * * * * * * * * * * * * * * * * * * * * * * * * //

dimensions      [0 0 -1 0 0 0 0];

internalField   nonuniform List<scalar> 
12920
(
158.23
156.689
148.489
132.039
124.979
120.243
106.607
83.778
69.875
62.7696
57.3213
53.078
49.869
47.6589
46.2988
45.1493
44.5893
43.3493
42.5477
40.5516
155.437
259.458
242.707
214.969
186.367
160.819
133.922
103.091
79.0187
68.0401
63.0445
61.1738
59.9034
59.5655
59.4392
59.536
59.6539
59.5665
59.4117
58.4951
344.168
237.031
206.7
175.143
134.527
109.276
88.173
79.2393
70.1371
66.7417
63.4877
62.484
61.1581
60.4398
59.6764
58.7672
58.2782
57.2451
56.7264
55.3633
256.438
207.829
179.725
138.382
109.664
93.8329
79.6015
70.8308
63.6444
60.242
57.535
56.3085
54.791
53.8771
52.8585
51.9147
51.4354
50.6634
50.2911
49.2661
223.684
187.261
165.258
148.08
132.99
110.395
95.942
78.9594
71.1158
63.2048
57.6163
55.1042
52.6579
51.2646
49.8238
48.9177
48.4878
47.9785
47.7362
47.0808
134.677
153.586
170.289
175.443
172.44
167.185
155.797
132.877
107
82.4817
65.2463
55.8544
51.5375
49.146
47.5207
46.6949
46.3863
46.2805
46.2578
45.942
92.9675
172.912
191.636
188.441
168.291
159.148
144.276
129.002
109.7
87.2122
68.2013
56.5361
51.6116
48.7418
46.7691
45.2123
44.2429
43.7428
43.6735
43.398
264.067
221.26
191.088
180.246
162.254
152.244
246.074
200.539
188.248
165.419
117.822
89.9481
88.2775
85.7112
54.1042
49.2576
45.9893
43.7211
42.9006
41.2212
455.767
233.802
202.342
167.731
151.569
248.021
425.709
319.916
293.816
270.814
225.091
159.374
152.415
154.756
99.3478
54.7333
49.5528
45.2558
43.602
40.9066
207.542
231.603
239.238
188.941
137.569
207.575
353.55
312.982
280.079
207.054
161.124
151.373
156.722
151.007
93.1962
54.3604
52.2008
47.6961
44.5277
41.2055
347.991
286.43
230.58
180.477
133.506
185.083
250.448
229.045
214.951
196.517
185.711
177.159
170.155
164.134
100.397
56.7534
55.053
50.8433
45.9928
41.3541
561.621
407.755
250.665
167.574
129.586
187.761
268.799
214.191
222.761
162.861
176.847
182.995
183.422
180.993
114.75
62.5082
55.0362
47.2357
43.0571
40.1999
125.551
216.769
205.118
162.525
135.566
115.892
177.312
146.638
121.381
108.951
105.583
105.357
101.692
99.0885
58.1027
51.934
46.2979
42.5651
40.6797
39.6172
174.424
184.525
184.336
159.449
128.81
106.818
87.22
76.6642
70.411
67.6941
64.4477
60.5452
56.2564
52.1755
48.8241
46.3573
44.6724
43.358
42.2305
40.5092
371.653
300.666
190.714
146.115
127.774
115.567
95.4903
89.7953
80.2885
74.5992
67.9263
62.9469
57.7084
53.3077
50.0263
48.0211
47.2746
46.9895
46.4512
44.0562
152.806
212.804
198.063
162.495
135.019
122.289
108.483
101.048
89.3193
80.2421
71.7578
66.6449
61.701
57.835
54.4139
52.2396
50.6308
49.7053
49.0353
46.5173
364.366
278.106
198.491
160.164
131.924
120.766
106.422
95.9486
83.7015
74.1465
66.6074
62.2945
58.7144
56.3316
54.0823
52.536
51.2803
49.8701
48.9449
46.2852
190.145
219.464
209.388
176.219
138.849
122.949
104.558
89.3779
75.7836
67.8142
62.1308
59.0086
55.8923
53.6888
51.8261
50.5106
49.4778
48.1846
47.5483
45.9647
84.9524
180.872
179.836
152.915
124.721
110.858
93.9833
81.658
71.4548
66.4997
62.2644
59.3906
55.7931
52.7149
49.9768
47.9888
47.0059
46.37
46.123
45.4177
99.0383
114.496
115.937
113.15
102.806
90.5753
78.0695
69.3445
63.2464
59.8268
56.9764
53.7641
50.2096
46.7848
44.0989
41.0547
37.9629
34.6659
33.1976
31.2836
135.889
116.147
96.9003
74.5423
65.7304
57.2968
46.5237
40.0258
37.4618
36.1426
33.2647
30.5986
28.4327
27.1441
26.3594
26.0355
25.9227
25.681
25.4335
24.5757
236.731
202.769
151.055
108.969
102.258
107.007
104.05
78.1608
51.4497
40.5909
35.77
33.0048
31.2864
30.5332
30.198
30.0889
30.0605
29.9915
29.9923
29.9653
202.215
177.735
117.088
108.615
87.7971
62.8158
48.3116
41.3709
36.5593
33.817
31.4389
30.0975
29.1912
28.6751
28.4022
28.0844
28.0163
27.8683
27.8195
27.5585
273.292
145.519
93.301
74.3784
58.1139
48.4922
44.4284
39.7008
36.9952
33.5175
30.653
28.1641
26.5289
25.6942
25.1764
24.8007
24.6213
24.3991
24.2941
23.9755
101.876
116.955
98.0857
82.123
72.6668
59.1108
55.3466
47.8307
43.9656
37.6101
32.8226
28.5078
25.9654
24.7057
24.136
23.7894
23.7059
23.5724
23.4882
23.2289
269.978
162.098
116.996
93.8611
83.9597
85.4428
85.0901
85.0705
77.8226
58.6074
42.5017
31.322
25.6117
23.3633
22.5274
22.2688
22.2819
22.4265
22.635
22.7883
140.877
148.991
114.888
91.7082
80.2703
80.2691
80.9286
81.9385
80.3944
71.7917
49.2798
32.2644
25.1059
22.8811
22.0744
21.6415
21.4856
21.4898
21.5616
21.6765
306.62
147.209
105.874
88.171
77.7619
75.2874
86.1337
89.7596
89.0766
90.277
89.512
40.0239
26.4247
24.8422
22.9953
22.5212
22.1988
22.0271
21.8742
21.2657
201.157
149.964
113.462
86.8138
71.0223
78.5191
84.459
84.6085
88.0093
90.8927
98.6583
47.056
29.4106
27.5435
25.4839
24.1511
23.9729
23.454
23.1682
22.0006
135.319
168.882
157.821
111.113
69.0688
65.0328
69.2038
67.7515
67.186
81.7345
52.8182
34.7834
31.1619
29.8643
28.7678
28.6177
27.8538
26.0861
24.7745
22.8576
628.998
297.009
135.947
93.4531
66.7061
62.698
56.6242
43.1017
39.3938
40.676
38.957
36.7959
35.9044
35.633
34.8727
30.8863
29.9297
27.4441
24.5538
22.3235
300.36
163.212
105.343
81.7608
65.4698
64.7236
65.6213
57.5333
55.6672
57.0709
42.95
36.1661
34.025
32.3871
29.5396
28.6271
28.4304
25.5297
22.0588
20.6779
156.945
128.44
93.3478
72.0149
62.0211
55.4017
61.669
62.4031
59.635
52.444
38.9098
33.5464
30.4217
28.5163
25.2575
24.8625
23.3355
21.1421
19.9749
19.7087
128.541
127.505
96.0824
79.5949
67.7833
54.2319
46.3287
42.4057
39.1482
36.5487
33.6738
31.1851
28.5879
26.1005
24.153
22.7745
21.7618
21.028
20.3701
19.9627
170.959
185.773
125.613
91.3298
70.9254
56.078
45.6987
42.1718
38.2897
35.7212
33.4663
31.3806
29.5818
27.5194
25.3019
23.87
23.1527
22.9229
22.8066
22.0875
162.841
164.014
138.513
100.867
76.2242
64.1493
54.3206
49.6404
43.8543
39.1568
35.0144
32.2663
30.1895
28.6692
27.3786
26.2238
25.4885
24.9255
24.6363
23.6906
229.968
146.59
107.685
83.4596
68.7884
61.8103
54.8595
49.1709
42.8736
36.7441
32.1798
29.6562
28.1391
27.2197
26.5203
25.9636
25.6318
25.0595
24.7443
23.8501
145.844
200.48
142.207
96.2553
73.8405
65.4489
58.781
51.4426
43.1575
35.7145
30.9623
28.5585
27.2279
26.3896
25.9822
25.5281
25.3273
24.9228
24.6733
23.9591
286.618
174.703
127.135
99.6353
82.6776
67.8059
57.7094
47.8502
40.2982
35.6477
33.0255
31.8292
30.6818
29.4523
28.0646
26.8898
26.1315
25.3725
24.8998
24.3019
40.5238
72.4802
72.9875
69.6352
60.7559
50.3293
41.064
37.5814
35.643
34.9764
33.677
32.3079
30.6544
29.0555
27.3729
25.3424
23.1467
20.9722
19.6714
18.9543
124.607
147.066
110.454
76.4306
63.6334
53.8779
46.2765
43.7159
42.3532
40.6818
37.6752
35.0129
32.8517
31.3718
30.2666
29.2671
28.8269
28.0526
27.6441
26.5984
169.355
212.976
176.347
100.266
79.6478
78.3029
69.1466
52.4224
40.5636
36.1101
33.3985
32.5911
32.0188
32.0991
32.2746
32.4409
32.3583
31.9464
31.6422
31.0818
267.384
170.249
99.3357
76.721
58.417
47.0707
39.4606
35.2384
32.0175
30.3946
28.9204
28.443
27.953
27.8556
27.7378
27.6
27.4929
27.2637
27.1257
26.7284
121.17
126.264
87.5957
58.7506
48.1578
39.6722
37.1354
33.3827
31.238
28.962
26.928
25.6342
24.6432
24.2196
23.8516
23.6276
23.4456
23.2663
23.1487
22.9159
173.691
135.053
91.199
68.5954
59.1934
47.4608
43.4717
37.0335
33.8707
30.1876
27.0971
24.9706
23.4973
22.8784
22.477
22.3328
22.2287
22.1319
22.0387
21.9059
178.932
197.672
128.753
82.5017
69.1918
65.2889
60.6668
54.6783
47.6983
38.353
30.2571
25.1888
22.535
21.489
21.0701
20.9995
21.0339
21.1676
21.2873
21.4094
135.804
150.265
116.806
83.1812
69.373
65.9452
64.4235
61.9364
58.2322
47.8128
32.9661
25.0604
22.0055
20.9286
20.5803
20.422
20.4166
20.4743
20.5742
20.6587
253.568
138.025
100.29
77.0491
65.9505
65.568
67.8766
75.249
78.1848
89.1724
69.163
29.0286
22.8747
21.8671
22.0552
21.4137
21.1235
20.8523
20.7228
20.3838
177.533
142.42
102.166
73.5211
60.2492
61.5859
65.9345
71.1647
81.2957
92.8825
84.6804
31.6357
25.3079
24.1057
23.6802
24.3177
23.4102
22.411
21.8924
20.9247
162.864
160.56
132.254
79.9153
53.6512
50.4615
53.8956
54.6058
57.5891
59.2649
36.9758
29.1545
27.6426
27.3538
28.5396
28.9611
26.7801
24.6956
23.5427
21.986
250.397
191.465
122.33
79.8076
54.4601
47.9432
42.5728
36.7541
35.0966
34.2422
71.0466
62.6263
46.597
38.9182
35.5622
30.0167
27.3626
24.7047
23.2227
21.8435
217.922
143.83
87.3663
61.6881
50.5833
49.2361
50.5902
46.1984
44.6146
42.3925
34.7014
31.5321
30.3357
29.627
28.5196
27.153
24.9525
22.6468
21.4603
20.9265
277.251
153.691
90.4445
61.1911
51.4627
44.5551
45.8003
46.9343
43.0414
37.6759
31.4681
28.6962
26.7623
25.5379
23.9028
22.5857
21.2301
20.3137
19.9488
20.0032
197.643
153.185
90.315
64.5141
52.3526
43.5002
38.5828
34.9265
32.8114
30.3707
28.2524
26.247
24.4032
22.8399
21.7379
20.9377
20.3335
19.9493
19.6617
19.6649
340.67
172.046
106.752
75.8624
56.7441
46.1737
39.0017
35.7894
32.4539
30.2249
28.1861
26.5676
24.9186
23.594
22.4464
21.773
21.4108
21.2179
21.0396
20.5231
205.056
162.082
140.372
98.4664
67.6509
54.2872
45.6153
40.8352
35.7328
32.1625
29.1948
27.4133
25.8823
24.9111
24.0446
23.4765
23.0476
22.7085
22.4544
21.7897
125.134
141.429
112.44
73.1854
58.3967
51.8384
45.8395
40.7775
34.9844
30.8076
27.7151
26.1815
25.1007
24.5405
24.0744
23.7713
23.5138
23.1719
22.9445
22.4137
201.021
167.497
101.071
71.7232
58.9339
52.1647
45.7953
40.1262
34.0461
30.112
27.2438
25.9814
25.0502
24.6339
24.3301
24.1728
24.0347
23.8308
23.6712
23.2722
291.54
147.255
91.5327
72.8668
60.6609
51.123
43.6527
38.9489
34.1826
32.3654
30.3987
29.7645
28.5862
27.7977
26.8402
26.1251
25.6308
25.2683
25.0754
24.865
35.6672
84.7611
81.8567
74.3387
62.645
51.9266
44.7495
41.5894
39.2487
37.5136
35.5949
33.7999
32.0087
30.0772
28.0038
25.8015
24.0896
22.6633
22.0189
21.309
127.747
150.138
107.295
70.8888
59.2285
51.6473
47.8005
45.9116
43.6659
41.2828
38.59
36.2509
34.4455
33.0139
32.0604
30.7903
29.9661
28.6377
27.9487
26.3244
359.142
225.665
139.371
80.0844
65.7584
58.0504
53.0329
46.2351
42.3239
41.4522
41.364
41.9653
42.3795
43.0717
43.273
43.3142
43.0239
42.1294
41.2631
40.0646
215.133
133.693
83.4753
59.5063
51.8277
41.7105
39.7172
35.8047
35.3547
34.3302
34.4345
34.4883
34.7369
34.8878
34.9116
34.7174
34.3974
33.8847
33.5701
33.0115
161.774
136.623
85.4719
57.0653
48.9755
38.8608
38.1345
34.1258
33.5818
31.666
31.0366
30.2762
29.9775
29.6823
29.4675
29.2194
29.0382
28.8371
28.7249
28.677
186.139
139.286
90.3858
63.1983
56.7824
43.0622
41.0821
35.4044
34.3704
31.4548
30.1857
28.9209
28.3169
27.9432
27.7469
27.646
27.5819
27.4818
27.4329
27.4708
179.226
171.007
126.652
79.8301
67.0471
53.5038
49.2872
41.3086
38.6579
33.7275
30.4228
28.0371
26.9877
26.4816
26.3236
26.3174
26.407
26.5421
26.6824
26.8992
187.898
181.512
139.275
85.0635
69.8624
58.7358
54.9042
46.6176
43.3904
35.8497
30.6865
27.351
26.5556
26.0721
26.0364
25.9775
26.0553
26.1607
26.2895
26.4517
256.967
226.506
119.755
75.7598
65.3696
60.718
60.7042
61.8557
60.0774
60.6129
38.7665
29.6139
27.6318
27.4192
29.3748
27.6061
26.97
26.5752
26.4732
26.388
315.997
183.899
110.767
70.4534
59.504
59.0535
61.1839
64.4518
68.2924
68.6313
43.5501
32.4189
30.9151
30.4699
31.9962
31.9532
29.4805
28.0436
27.3545
26.8885
216.072
158.199
107.722
66.0998
50.5427
47.7745
50.4431
48.9859
46.8864
42.0048
35.689
33.6803
33.7881
34.4678
36.6153
35.0517
31.8992
29.8965
28.7728
27.7505
341.828
138.987
103.719
67.663
51.2399
44.9918
40.7089
38.4116
37.8162
37.3145
60.983
56.7238
46.7076
42.9151
40.2642
35.3297
31.9425
29.8506
28.836
27.9719
198.483
138.681
89.3244
58.4416
49.3643
46.0111
46.5886
43.1255
41.5188
39.1888
36.9273
36.1735
36.2642
36.4567
35.9825
32.749
29.7696
28.3867
27.9463
27.7284
323.354
190.763
98.1759
60.1871
52.2536
43.1675
43.3442
41.5872
38.2565
35.8669
33.5576
32.8067
31.8743
31.2957
29.8846
27.7507
26.8083
26.6026
26.6592
27.0281
332.609
148.758
95.7888
60.8892
51.8767
41.8149
38.9902
34.566
33.6623
31.3041
30.2921
28.5751
27.7208
26.7488
26.2815
25.8244
25.6393
25.6276
25.6918
26.1064
280.07
118.896
96.2021
65.2725
55.1484
43.6295
39.8464
35.5387
33.6291
31.383
30.1507
28.7925
27.8104
27.0634
26.6344
26.3705
26.2678
26.1653
26.0172
26.0177
188.233
156.366
128.54
81.8985
62.9406
50.0549
44.5969
38.9287
35.8827
32.7391
31.2109
29.8164
29.0055
28.396
28.0785
27.8549
27.6839
27.5284
27.2593
27.0296
216.711
190.593
117.957
68.228
57.7698
48.0391
45.0788
39.0476
35.6203
32.2094
30.6415
29.4497
29.0181
28.7153
28.6526
28.5787
28.5127
28.3839
28.1857
28.0618
276.11
174.427
103.52
64.2899
57.3737
47.5757
44.3567
38.6337
35.4428
32.6023
31.1907
30.235
29.8756
29.7395
29.7633
29.8608
29.9056
29.8986
29.783
29.6793
165.728
130.867
78.1736
60.6648
56.9351
47.5647
44.2358
40.4038
37.9413
36.6283
35.2465
34.4734
33.5173
33.0801
32.6803
32.6126
32.5997
32.6485
32.6602
32.7316
54.5019
91.5133
81.1183
70.0634
59.3213
51.0142
46.1089
42.6267
39.7151
36.718
34.196
31.7627
29.7769
27.8658
26.3523
24.9936
24.1727
23.3547
23.0144
22.3212
108.531
123.834
87.8037
64.707
57.0354
49.9586
47.1746
44.2003
41.7087
39.2943
37.0947
35.1408
33.5371
31.8131
29.9099
27.9779
26.5537
25.295
24.7291
23.7389
244.767
163.379
131.546
77.7039
77.2395
55.3634
65.9017
55.0634
64.647
59.915
65.1724
63.1448
65.3906
63.7607
63.8351
62.3724
61.9587
60.4374
59.867
58.6362
206.602
154.503
99.2387
69.9304
68.6076
47.7428
55.9065
44.1247
51.5004
45.8957
51.1258
48.6562
51.2351
49.8686
50.7234
49.7021
49.6494
48.7302
48.6446
48.2131
176.535
138.697
107.453
70.0548
69.269
49.5289
54.5018
42.0249
48.3459
42.3138
46.7622
43.9488
45.7849
44.2723
44.8336
44.0168
44.1271
43.6724
43.761
43.9035
158.655
133.779
106.889
68.4889
73.6378
50.1387
55.2791
42.3299
47.4958
41.0214
45.405
42.3282
44.1384
42.5701
43.3202
42.6068
42.9103
42.4994
42.6523
42.8128
238.8
175.305
149.813
83.6042
83.2406
55.9693
57.9154
44.5472
46.6979
41.4489
44.317
42.0687
42.7437
41.5126
41.6782
41.3338
41.6251
41.6201
41.8889
42.2955
456.61
223.429
171.819
88.2709
86.5593
59.2321
59.1299
46.7008
46.9554
40.5497
43.4365
41.0146
42.3009
41.2779
41.7427
41.2631
41.7189
41.6099
41.8889
42.1385
783.999
392.982
175.488
81.823
86.7419
66.1742
58.7382
51.8005
48.7645
44.7983
42.043
41.1518
41.3076
41.02
45.6028
43.2677
42.7162
42.3956
42.4107
42.4053
282.341
212.144
141.742
74.6776
73.0858
61.596
61.6626
55.591
52.6334
49.3357
47.016
47.4182
47.3586
47.1415
47.7737
46.7848
44.7377
43.6467
43.5308
43.2595
550.289
189.886
120.233
66.4423
68.2531
54.1004
53.1451
51.0454
50.0866
49.5593
50.3105
51.3114
52.0324
51.5325
50.5034
48.5428
46.205
45.0162
44.6735
44.1098
303.337
142.236
108.744
67.1583
62.3665
49.2204
46.6385
47.3543
48.5223
49.4406
52.8837
54.0007
54.7685
53.8428
51.3804
48.8392
46.2603
44.9773
44.6335
44.2117
207.153
134.155
108.763
64.901
67.3538
52.4571
50.6767
48.6894
48.6076
49.0381
50.2216
51.4287
52.2941
51.8193
49.5788
46.8672
44.4678
43.6437
43.5793
43.7983
237.666
161.599
107.957
65.1474
68.3906
52.0974
48.4347
43.983
43.5865
42.7946
43.9918
44.1272
44.6748
44.0873
44.7185
42.4935
41.8413
41.8877
42.0355
43.0133
178.757
120.147
112.064
64.4768
73.6288
50.0845
52.4229
42.5928
44.4944
40.3875
42.392
40.2714
41.2872
40.4272
40.7748
40.2908
40.5984
40.634
40.8653
41.9023
166.513
122.306
104.602
65.9116
70.2167
48.0304
51.9298
41.707
43.9979
40.3089
41.8891
40.2386
40.9686
40.3654
40.7712
40.7071
40.9565
40.9321
40.963
41.4535
211.274
182.392
159.035
81.7291
81.0359
56.9383
58.8512
46.6274
48.3342
42.5104
44.1911
41.4575
42.6026
41.561
42.413
42.0744
42.4688
42.2257
42.1739
42.306
543.293
282.585
148.751
71.7154
71.4321
51.0532
57.3919
45.0522
48.2485
42.0147
44.0909
41.4488
42.9098
42.1221
43.1242
42.9874
43.4352
43.308
43.3366
43.6128
248.277
191.73
137.06
72.608
78.1573
55.0822
61.4226
48.0804
51.5691
44.6192
46.6221
43.4471
44.9595
43.9703
45.1461
44.9746
45.5583
45.4399
45.5096
45.7659
287.525
142.145
88.8669
69.4766
76.1867
53.3003
64.5454
51.2483
57.5477
50.3788
52.9321
49.3314
50.7649
49.5553
50.6616
50.5332
51.1785
51.1444
51.2779
51.6421
114.266
93.483
70.4635
60.4387
54.4065
49.337
44.9689
40.456
36.169
32.2293
29.4565
27.5105
26.2806
25.2702
24.5481
23.7941
23.2913
22.5736
22.2446
21.5347
41.6464
36.5848
75.5361
43.6982
36.3082
36.7405
101.562
30.1063
75.7043
62.9202
34.6289
31.9808
101.72
74.608
70.9761
38.1434
35.341
35.6867
87.5771
37.2383
36.4799
65.6289
34.5936
33.1968
88.4816
77.2314
36.3857
36.0661
334.497
387.666
359.388
103.62
95.2113
93.5787
89.1291
296.498
355.873
357.617
94.2485
94.1662
88.1639
82.5402
281.329
369.216
327.507
95.0018
96.3637
82.1151
89.8218
222.259
258.837
186.43
97.2752
100.322
93.9866
86.0291
180.851
171.505
147.447
101.031
75.2839
71.1807
43.3083
151.712
147.486
153.757
54.5274
34.5455
39.6397
35.2534
154.907
154.878
154.825
33.1163
31.2373
34.5845
33.0394
138.093
153.612
136.773
30.9145
28.7924
32.631
30.3779
316.715
261.548
225.741
81.8478
77.8553
66.5169
52.3327
299.799
229.29
215.875
75.5881
70.5337
48.989
44.889
224.381
203.945
180.19
71.0083
83.4827
45.0177
48.4044
173.057
176.789
171.255
85.3881
67.9794
48.7258
45.0815
150.167
171.144
170.24
58.2392
41.7756
43.5718
39.6452
156.537
169.029
163.331
39.2783
35.5883
38.8099
37.569
152.909
160.886
153.425
34.9486
33.5919
37.4642
37.6543
135.491
151.413
129.058
33.2479
30.8443
37.9774
38.6044
226.142
247.764
206.431
66.9256
51.6129
69.7521
57.4577
220.79
212.187
215.572
47.9324
43.2788
54.5995
50.7449
200.92
207.823
170.788
43.2161
44.7763
50.4992
51.6792
188.414
167.753
174.79
45.0415
43.5078
51.7517
46.5204
179.262
178.264
184.126
42.6634
40.1897
44.3969
40.9936
171.685
184.841
184.975
39.7134
39.0811
40.4939
39.4099
165.358
184.466
181.853
39.0572
39.1493
39.1093
37.8586
137.566
180.895
167.18
39.2052
38.8789
37.5104
34.78
212.899
330.584
250.601
77.2917
64.8716
86.1876
75.0218
224.458
246.339
243.114
63.1668
60.6473
73.1372
73.9094
169.669
240.158
207.008
60.5926
62.1111
74.1633
75.7605
172.472
186.353
183.206
62.1286
51.8046
75.9898
60.9761
182.435
181.946
172.609
47.4876
41.3994
52.7375
41.2677
183.608
172.017
173.002
40.5422
38.633
39.7175
37.1415
181.691
171.337
168.525
38.1281
36.5093
36.3745
34.4335
166.625
167.115
149.421
36.0818
33.8346
33.8594
31.1808
84.4778
78.5485
78.501
68.2309
70.8912
62.7268
63.7819
87.0369
78.0298
76.1584
72.6581
79.3034
64.2091
67.1405
90.1808
76.5638
86.0042
81.8305
88.2489
69.6965
81.0078
97.1128
90.1196
81.8641
90.7814
99.4944
82.0334
58.0392
66.1509
66.0103
38.4653
95.3024
43.7718
47.0927
31.1641
30.5293
35.1684
31.3164
34.0249
26.04
29.3483
27.1367
27.7688
30.7422
29.466
25.3921
24.2272
26.8008
26.1059
26.4676
29.1302
28.2386
24.0515
23.1313
25.9281
25.5671
69.2187
55.9683
46.6837
55.7591
56.9666
44.6426
39.5376
65.9342
44.1308
41.2378
56.7356
58.1012
38.3389
37.1136
80.205
41.4731
44.287
60.4298
67.0513
37.264
37.729
62.7323
44.3562
40.791
66.2362
45.812
37.4675
47.2187
36.9591
39.5169
36.4352
39.6733
30.6589
47.5753
45.7456
31.6809
35.784
34.6766
29.4482
27.7868
43.6952
39.2689
30.1092
34.4677
34.3487
27.5314
27.1292
37.9146
35.3489
28.7369
34.467
35.6468
27.0643
26.4578
34.7919
34.421
46.0047
59.6007
52.0762
44.6093
38.7379
48.6492
44.3287
39.4117
50.0005
46.9062
37.3222
35.45
43.2979
41.3555
40.5993
46.7277
47.5108
35.384
35.3694
41.0426
40.3646
39.5268
47.4682
42.1381
35.1548
46.9292
39.696
35.9207
37.1954
40.111
36.7791
47.8065
47.8403
34.8585
32.9648
36.05
36.2626
35.2024
46.7737
42.5545
32.6196
31.7847
35.6514
34.9326
33.9897
40.9142
37.3694
31.5502
30.9768
36.1388
33.7266
32.4196
36.5392
35.221
30.8294
30.0449
58.8193
70.4211
66.9675
53.1989
48.9452
54.6621
53.2569
55.6788
66.2164
67.9856
48.1139
46.8166
53.2562
54.6029
57.1152
68.4374
70.5523
46.6504
46.2171
54.6526
54.086
46.9863
70.5869
53.7259
45.3585
37.7907
52.4952
39.3011
37.0107
46.5678
36.5677
35.6529
32.1865
36.052
30.9392
34.4516
35.2705
32.8354
31.6177
30.4803
30.1528
28.4838
32.7522
32.1995
30.4951
30.2061
29.532
28.0288
26.9128
31.431
30.0818
28.7214
29.3288
28.985
26.6653
25.7834
69.1729
60.0423
61.3239
62.44
65.2803
56.1857
56.1039
78.4855
61.7769
64.8831
66.8361
71.8693
55.9235
55.8751
89.5159
67.2878
75.5247
74.1077
79.5591
56.0698
54.1403
95.8998
75.0408
50.5679
79.1147
61.4261
50.9392
38.7724
38.2895
42.2277
30.2567
49.5521
32.663
35.824
31.5834
25.8302
28.8573
27.0902
30.7814
28.685
31.0655
30.4261
24.2688
26.8186
26.2616
28.4583
27.8418
30.3699
30.2845
23.1721
26.1198
25.8191
27.7429
27.0758
30.2432
30.2713
54.8125
42.807
38.6756
50.8873
50.5068
41.0257
38.6206
55.8252
37.7274
36.6897
49.959
48.9623
38.1844
37.5281
60.8641
36.7356
36.5911
48.7152
46.0014
37.3504
36.3697
40.7944
54.0596
47.2178
52.549
43.9028
47.9082
43.2223
33.5855
33.6936
35.3605
35.229
33.5239
32.8474
34.9965
27.8366
55.7896
44.4574
31.5929
31.1403
63.692
47.411
27.3845
41.9303
37.6082
31.1619
31.434
44.8488
41.0788
26.7701
36.7104
35.5893
31.4932
31.2933
40.3008
38.7104
37.8676
46.7067
43.0138
40.5155
37.917
44.2265
41.4607
35.214
42.1305
40.363
37.43
36.6712
40.9133
39.6374
34.8118
40.0036
38.9529
36.4937
35.8738
39.2603
37.8656
51.3714
52.7896
34.8948
40.2346
39.9826
247.279
35.2538
66.5036
70.209
50.5326
200.896
50.4627
186.799
67.6549
49.9975
32.9201
32.1389
70.6779
52.2207
35.9452
35.504
40.2418
31.9056
31.3705
48.7555
43.2476
35.4344
35.3679
36.3562
31.2346
30.408
42.1286
39.5075
35.3076
34.4908
46.9694
51.0948
50.5622
47.0923
43.7599
46.7618
45.5831
44.8873
50.4762
50.8903
43.1878
41.8763
44.9818
43.3771
43.5537
50.669
49.0672
41.4351
39.636
42.7857
40.3506
36.3167
47.1545
36.9082
38.721
36.063
39.1345
34.9768
31.996
34.492
30.4811
35.4535
34.4067
33.9959
32.3175
30.5675
29.8483
28.404
34.2073
33.8561
32.0606
31.2829
29.7927
28.009
27.0386
33.8245
33.799
31.0764
30.5277
29.3127
26.8242
25.9274
33.7495
33.432
30.4029
29.4994
63.5686
55.471
54.6964
60.2323
57.7138
55.4808
52.6034
67.0055
54.1999
52.8992
56.4735
54.0875
51.5595
49.3834
70.3485
52.503
49.2264
53.8911
51.5628
48.8825
47.021
51.2476
46.6138
38.2345
49.5912
44.2832
46.2801
44.9783
33.4937
36.2527
33.5712
43.4065
42.9023
44.9106
45.2868
31.0574
33.2678
33.059
42.9116
42.7344
45.5074
46.2794
30.539
33.1095
33.2743
42.8483
42.8797
46.441
46.5127
29.6047
33.2736
33.0255
42.8129
42.3279
46.3867
46.1734
49.6458
41.2222
39.3545
51.2548
49.814
44.4474
44.2401
47.4104
39.0727
38.6354
49.1428
47.8346
44.3992
45.0387
43.8107
38.4634
37.4349
47.5404
46.1162
45.0828
44.9714
36.8081
37.6035
61.4646
45.6452
44.9626
45.0029
48.0522
33.9332
62.998
57.1918
44.9641
45.2048
49.0005
49.7006
33.5991
53.3501
45.4116
45.3837
46.6526
49.4501
49.6625
34.3681
44.0211
42.0219
47.0231
47.3389
50.0399
50.2354
34.0499
41.5374
39.8921
47.2398
46.7995
49.9626
48.7417
38.7226
44.1714
41.7522
44.0105
43.8591
46.5398
45.5555
37.959
41.3181
40.2772
44.0182
44.7413
45.4543
45.3737
37.1567
39.96
38.7345
44.8378
44.9683
45.4458
45.3527
59.0883
38.2354
37.7651
45.0893
48.5549
45.3585
45.8611
59.2076
37.7764
37.7049
49.5606
50.3779
46.1515
46.8191
48.5857
37.6351
37.5408
50.2565
50.4592
47.0219
48.3606
43.6231
37.6396
37.9117
50.7591
50.7754
48.7597
49.0487
40.527
37.8888
36.7894
50.433
48.9898
48.8759
47.7614
43.6179
46.2113
44.9558
48.2557
46.3795
48.5747
45.9264
41.9305
44.1771
42.2866
46.1367
45.6772
44.8657
43.2994
39.9198
41.7548
39.7012
45.6478
45.4109
43.2986
42.8839
37.3204
38.7767
35.7942
45.3073
45.4495
42.6536
42.3127
36.2846
35.1322
34.0845
45.6248
46.214
42.528
43.1267
36.1676
33.9378
33.4085
46.4711
47.6105
43.2581
43.3956
36.4806
33.271
32.9177
47.8902
48.0708
43.5887
43.635
35.7599
32.8137
31.6235
47.8993
47.0584
43.5446
42.6999
57.2618
57.0528
53.7236
96.8959
85.1107
89.14
88.9876
52.9126
52.6603
50.9377
84.3164
83.0962
87.0028
84.6763
50.5632
50.6583
49.8372
82.908
77.932
84.3223
88.1865
46.9416
49.617
49.834
79.4642
90.4251
90.9185
101.184
47.4285
50.1357
50.9659
93.9465
97.0438
104.042
108.315
47.2468
51.1171
51.3317
98.3774
99.158
108.213
104.434
47.2827
51.3294
51.0185
100.368
97.4584
103.73
101.551
46.2074
50.7957
49.8897
98.079
96.8999
101.109
102.195
51.6599
47.1633
47.4429
86.9545
88.0951
79.1147
86.7343
50.1634
47.6612
48.5572
86.7076
85.1039
86.3673
87.5341
49.6141
48.7026
49.2195
85.5175
92.0394
89.7022
101.267
50.0278
49.3806
51.6228
95.31
105.574
105.424
116.315
51.0457
52.471
53.4998
108.345
112.501
118.86
121.491
51.9154
53.5455
54.1765
112.211
106.954
119.956
111.492
51.7734
54.3313
53.9316
105.172
102.413
108.414
103.537
50.4594
53.5142
51.6913
101.834
101.426
102.763
102.276
47.1132
48.8612
48.3729
78.6133
86.4556
82.231
88.9248
48.3371
48.3258
48.5025
86.2767
87.9464
88.1799
88.3622
49.2154
48.7128
49.1435
90.2958
102.225
89.3325
97.216
52.0119
49.3632
50.4273
106.538
116.544
100.208
107.221
53.9217
50.841
51.7876
118.717
121.086
108.921
111.394
54.6458
52.0983
53.031
119.553
111.4
110.909
106.432
54.2942
53.218
53.019
108.463
103.839
104.985
103.009
51.8933
52.6935
51.0634
103.047
101.901
102.578
102.815
48.8984
52.0524
47.6368
93.8765
89.9069
96.9499
81.2503
48.4858
46.5485
45.3323
88.3419
88.0983
78.7604
84.1902
48.9104
45.59
45.5833
88.5164
94.0591
84.5098
84.3045
49.8694
45.5383
45.7906
96.4784
102.633
84.5484
90.9632
51.1488
46.3068
47.016
104.286
106.469
92.4218
93.2124
52.1544
47.1451
47.3169
106.29
103.394
93.8146
96.2483
52.1155
47.5687
47.5138
103.145
101.888
97.175
96.1137
50.392
47.3948
46.1826
101.484
101.922
96.5031
97.1482
38.7013
47.5186
37.7263
38.6327
40.607
42.9863
36.7436
41.3914
39.7204
51.9416
40.1882
39.9426
38.0698
183.762
45.0658
40.5743
68.1259
220.005
40.906
45.0796
237.157
38.8333
47.1502
41.0294
39.3014
43.5832
40.577
37.929
37.5659
36.8663
38.4637
36.2922
39.982
36.2874
37.1266
40.9773
40.9709
37.1027
58.9506
37.2808
190.768
38.3438
45.7041
225.644
43.4005
90.018
46.5166
243.041
41.8665
32.5986
31.5156
31.2898
30.1393
32.1726
31.2266
31.9191
43.757
39.6508
75.2868
208.121
38.7177
44.4741
195.796
43.5013
37.0496
72.6222
98.3921
37.9764
41.018
133.087
34.0296
34.4699
33.4147
35.4373
32.7688
35.0237
34.7836
33.3733
30.7403
32.5597
33.9444
31.5593
32.8355
34.3436
45.998
213.64
43.7119
100.093
46.2698
202.687
43.656
45.6778
104.597
41.8601
91.4698
42.8637
139.699
43.3594
64.3105
67.0689
49.6411
216.119
46.5886
232.179
67.57
36.2225
35.4784
37.1627
37.2087
35.7794
35.3484
36.458
38.0703
37.2811
36.208
35.316
36.6883
39.1401
35.8535
52.5974
41.351
57.5031
36.2763
242.331
35.7375
42.6246
66.8998
221.401
79.6308
56.7605
238.837
70.5648
52.1099
36.6627
36.9024
36.3645
36.804
35.6423
36.3468
37.0036
38.8411
35.7003
40.118
36.5974
40.186
35.9912
38.7487
61.5257
71.5819
49.4579
125.822
49.9185
169.747
60.9545
39.6216
37.4773
34.0046
34.8288
37.4486
39.6016
34.4422
39.4608
37.2327
33.5355
33.8639
37.3376
39.4112
34.105
69.8778
206.103
87.5723
58.502
192.638
70.9552
58.642
65.3677
125.145
87.2933
56.83
166.941
64.331
57.9849
41.0094
35.4423
40.9057
36.3027
40.8599
35.2264
41.2549
40.8868
34.8306
41.2419
36.1803
40.8718
34.9996
41.2666
214.751
243.213
214.437
137.905
120.178
138.499
120.459
196.709
197.715
189.323
110.851
108.695
110.907
108.354
179.517
182.471
170.535
103.908
102.142
108.32
108.321
145.007
160.755
153.786
102.648
102.004
107.788
106.518
95.7924
137.336
110.144
97.5305
75.6932
104.932
93.9158
89.2957
95.3582
92.4908
49.4668
38.9537
61.947
43.803
86.9939
92.6406
93.1068
35.1869
33.5937
38.1176
36.4546
77.0904
92.6292
86.8559
33.0311
26.7618
35.9035
30.1391
238.635
234.701
228.13
129.12
114.557
124.958
104.972
191.411
386.393
407.836
220.894
195.967
218.936
373.814
142.815
308.249
338.013
150.348
143.08
147.548
335.587
137.414
288.901
344.443
142.959
143.914
139.034
347.245
151.913
236.365
315.701
149.265
151.574
146.775
263.265
112.331
224.549
203.185
139.526
128.937
131.901
196.613
63.9724
151.841
145.188
82.8925
74.2349
71.0523
144.377
56.8912
153.867
153.657
59.185
57.8255
57.3214
155.735
55.8528
154.356
157.063
54.5515
54.1702
56.2503
156.612
87.0976
99.0479
88.1007
32.9716
26.8729
33.9832
28.2579
201.102
195.798
174.481
106.87
88.0324
102.96
80.9743
140.245
322.998
321.204
179.594
151.387
175.429
289.002
96.8901
309.555
268.926
124.865
119.356
102.867
264.939
83.5402
260.597
212.399
101.203
100.039
82.7
191.752
88.0388
195.627
176.242
110.388
107.719
91.1706
174.509
75.6391
153.284
156.203
78.7206
75.7803
78.117
153.441
65.8903
153.804
156.855
67.0864
65.1511
67.8963
157.948
61.4247
156.484
156.801
61.2091
60.2958
62.2594
154.875
58.2281
149.116
145.551
58.0362
57.06
59.5482
142.201
83.9507
85.0226
69.6419
35.1825
28.9237
40.8865
35.3182
163.613
183.403
159.846
98.0856
79.555
97.3178
80.7586
116.922
225.671
247.616
143.648
112.958
145.008
216.429
78.4658
228.763
222.661
81.6286
78.9507
81.1235
224.461
74.6755
210.426
218.577
74.4298
74.1562
75.0149
214.992
75.1728
193.591
201.91
75.3047
75.497
75.1103
198.828
71.9036
183.293
190.706
73.6129
71.8162
73.3373
188.313
69.5338
175.088
183.021
68.1342
67.5283
69.9036
181.678
69.3987
168.299
179.063
67.5878
67.8309
69.4082
178.014
68.1367
162.312
173.868
68.0681
68.2685
68.4625
172.932
77.9339
113.342
96.9558
43.7416
37.3063
39.9719
34.2681
168.575
190.883
186.024
105.416
90.0077
106.597
95.9624
137.75
233.436
275.238
153.838
129.704
156.783
244.497
104.333
218.33
225.941
94.0546
92.2397
106.988
226.578
97.5588
210.83
232.371
89.0814
87.8756
97.8409
229.917
88.5407
162.329
172.492
84.6916
80.4221
94.8273
167.765
73.9897
179.71
177.702
71.6429
71.3414
75.3868
178.615
68.6486
183.397
178.85
70.8402
70.194
70.1789
179.776
64.4581
182.998
181.091
67.5137
66.5005
65.2326
180.796
61.3684
180.714
178.174
63.9483
63.1986
62.1145
177.815
97.7559
109.613
96.6983
37.3301
31.3525
36.0084
30.3495
157.919
177.822
154.105
101.585
85.6647
98.244
82.1844
133.708
134.894
118.651
79.4638
76.7628
77.3538
72.1538
113.284
105.101
96.2991
72.3174
70.3832
65.1753
59.5267
106.178
95.6369
98.3598
66.756
58.8197
55.8994
54.2251
105.592
99.9163
100.279
52.1431