/*--------------------------------*- C++ -*----------------------------------*\
  =========                 |
  \\      /  F ield         | OpenFOAM: The Open Source CFD Toolbox
   \\    /   O peration     | Website:  https://openfoam.org
    \\  /    A nd           | Version:  10
     \\/     M anipulation  |
\*---------------------------------------------------------------------------*/
FoamFile
{
    format      ascii;
    class       volScalarField;
    location    "9.8";
    object      p;
}
// * * * * * * * * * * * * * * * * * * * * * * * * * * * * * * * * * * * * * //

dimensions      [0 2 -2 0 0 0 0];

internalField   nonuniform List<scalar> 
12920
(
-207871
-570954
-739728
-762238
-822856
-830519
-833819
-808946
-782435
-738276
-691021
-632712
-571483
-503655
-433456
-359653
-283928
-205973
-128125
-45281.4
-378775
-539042
-739057
-783339
-842629
-850620
-850509
-822889
-792762
-747576
-698993
-639325
-576850
-507988
-436903
-362365
-285958
-207370
-128938
-45587.6
-661514
-606152
-848265
-854032
-899571
-892901
-884763
-851416
-817101
-766880
-714412
-651895
-587090
-516264
-443544
-367487
-289764
-209918
-130486
-46225.7
-865177
-829028
-943138
-941897
-965354
-942834
-926247
-887024
-846711
-792230
-735228
-669516
-601393
-528108
-453043
-374975
-295412
-214035
-132972
-47219.7
-1.06366e+06
-1.02342e+06
-1.07485e+06
-1.04939e+06
-1.0564e+06
-1.01709e+06
-987803
-935453
-888095
-826366
-762971
-692094
-619961
-543169
-465149
-384482
-302620
-219124
-136120
-48487.6
-1.20503e+06
-1.1627e+06
-1.20672e+06
-1.17025e+06
-1.15551e+06
-1.09949e+06
-1.05543e+06
-995137
-932342
-864720
-794018
-718742
-641331
-561114
-479570
-395779
-311041
-225047
-139714
-49922.9
-1.66888e+06
-1.41098e+06
-1.41091e+06
-1.32184e+06
-1.28609e+06
-1.21137e+06
-1.14663e+06
-1.06847e+06
-993164
-909492
-831561
-748730
-666397
-581593
-495898
-408297
-320317
-231554
-143708
-51432
-1.90383e+06
-1.6114e+06
-1.56356e+06
-1.46181e+06
-1.40957e+06
-1.31806e+06
-1.23419e+06
-1.14536e+06
-1.0574e+06
-970021
-880872
-793069
-706520
-618362
-512935
-421766
-330524
-238755
-148025
-53136.5
-2.37564e+06
-1.91214e+06
-1.78529e+06
-1.63012e+06
-1.55555e+06
-1.44036e+06
-1.34213e+06
-1.23451e+06
-1.13588e+06
-1.0368e+06
-939894
-842389
-746723
-652738
-545834
-436289
-341314
-246575
-152685
-54885.6
-2.22952e+06
-2.05041e+06
-1.98795e+06
-1.79324e+06
-1.69054e+06
-1.56167e+06
-1.4472e+06
-1.32376e+06
-1.20876e+06
-1.09911e+06
-990975
-885552
-784553
-681606
-568265
-450042
-352446
-254708
-157926
-56910.1
-2.37554e+06
-2.23414e+06
-2.15694e+06
-1.94041e+06
-1.8119e+06
-1.67488e+06
-1.54263e+06
-1.40333e+06
-1.27776e+06
-1.16121e+06
-1.04487e+06
-933075
-820478
-709578
-589228
-465241
-363984
-262982
-163199
-58985.2
-2.87211e+06
-2.60118e+06
-2.36491e+06
-2.09776e+06
-1.93551e+06
-1.77642e+06
-1.63135e+06
-1.48247e+06
-1.34425e+06
-1.21483e+06
-1.09116e+06
-971226
-852988
-736816
-612549
-483960
-376870
-272315
-168797
-60916.2
-3.38688e+06
-2.75115e+06
-2.45693e+06
-2.18887e+06
-2.0109e+06
-1.81622e+06
-1.69159e+06
-1.53421e+06
-1.3885e+06
-1.24946e+06
-1.12096e+06
-995451
-873258
-753539
-613026
-500008
-390256
-281252
-173937
-62666.5
-3.21861e+06
-2.82603e+06
-2.55939e+06
-2.28043e+06
-2.07503e+06
-1.87098e+06
-1.70581e+06
-1.54434e+06
-1.40174e+06
-1.25831e+06
-1.12629e+06
-995922
-871880
-749205
-630217
-514651
-401655
-289255
-178656
-64280.3
-3.09562e+06
-2.77155e+06
-2.52311e+06
-2.27316e+06
-2.09093e+06
-1.89742e+06
-1.74165e+06
-1.57687e+06
-1.42995e+06
-1.28546e+06
-1.14986e+06
-1.01723e+06
-890124
-765777
-645120
-527212
-411137
-295907
-182692
-65777.9
-3.21313e+06
-2.82749e+06
-2.56749e+06
-2.29943e+06
-2.10842e+06
-1.91407e+06
-1.75323e+06
-1.5912e+06
-1.44621e+06
-1.30147e+06
-1.16592e+06
-1.03193e+06
-903895
-778031
-656364
-536487
-418485
-301259
-186157
-67052.5
-2.95407e+06
-2.66316e+06
-2.48046e+06
-2.26069e+06
-2.09701e+06
-1.91714e+06
-1.76604e+06
-1.60725e+06
-1.46169e+06
-1.31692e+06
-1.18059e+06
-1.04537e+06
-915851
-788320
-665049
-543298
-423999
-305464
-188903
-68103.6
-2.83194e+06
-2.5631e+06
-2.41305e+06
-2.22809e+06
-2.07588e+06
-1.91026e+06
-1.76308e+06
-1.60776e+06
-1.46656e+06
-1.32296e+06
-1.18737e+06
-1.05286e+06
-923308
-794956
-670747
-548192
-427649
-308190
-190791
-68832.2
-2.55463e+06
-2.37833e+06
-2.35098e+06
-2.18396e+06
-2.06001e+06
-1.90396e+06
-1.76568e+06
-1.6133e+06
-1.47373e+06
-1.32982e+06
-1.19463e+06
-1.0587e+06
-928424
-799559
-674636
-551107
-430026
-309982
-191998
-69271.4
-2.56152e+06
-2.38744e+06
-2.30122e+06
-2.15878e+06
-2.04392e+06
-1.89587e+06
-1.76063e+06
-1.61198e+06
-1.4736e+06
-1.3311e+06
-1.19592e+06
-1.06037e+06
-930473
-801413
-676325
-552723
-431422
-311036
-192694
-69493.6
-676349
-595787
-745232
-762757
-823634
-830547
-833876
-808831
-782395
-738224
-690951
-632648
-571428
-503650
-433479
-359662
-283925
-205980
-128125
-45292.5
-319534
-552658
-745293
-785167
-843598
-850990
-850518
-822443
-792888
-747525
-698844
-639255
-576803
-507985
-436936
-362382
-285971
-207393
-128937
-45598.2
-521477
-621071
-847626
-855541
-900376
-892767
-884415
-851443
-817181
-766852
-714415
-651910
-587145
-516306
-443566
-367508
-289762
-209900
-130459
-46220.6
-987357
-826624
-951096
-943637
-965932
-943999
-926474
-887191
-846817
-792234
-735218
-669499
-601439
-528144
-453061
-374990
-295434
-214042
-132928
-47213.6
-1.20448e+06
-1.04351e+06
-1.07518e+06
-1.05184e+06
-1.05699e+06
-1.01696e+06
-988200
-936616
-888319
-826389
-763031
-692098
-620002
-543219
-465206
-384520
-302640
-219171
-136087
-48480.2
-1.19807e+06
-1.1501e+06
-1.21044e+06
-1.16868e+06
-1.15529e+06
-1.09865e+06
-1.05589e+06
-993859
-933771
-865004
-794174
-718613
-641358
-561171
-479580
-395797
-311047
-225076
-139707
-49905.7
-1.61722e+06
-1.41531e+06
-1.41289e+06
-1.32157e+06
-1.28568e+06
-1.21046e+06
-1.14608e+06
-1.06864e+06
-991707
-910027
-831678
-748659
-666403
-581535
-495838
-408273
-320309
-231566
-143671
-51409.1
-1.86909e+06
-1.60967e+06
-1.56812e+06
-1.4613e+06
-1.41015e+06
-1.31823e+06
-1.23348e+06
-1.14489e+06
-1.05741e+06
-969599
-880569
-793057
-706466
-618281
-512759
-421732
-330526
-238790
-148007
-53120
-2.27964e+06
-1.89818e+06
-1.78257e+06
-1.63054e+06
-1.55692e+06
-1.44142e+06
-1.34154e+06
-1.23348e+06
-1.13484e+06
-1.03538e+06
-939208
-842267
-746713
-652446
-545302
-436193
-341261
-246551
-152658
-54916.1
-2.15216e+06
-2.02311e+06
-1.97957e+06
-1.79432e+06
-1.69201e+06
-1.5635e+06
-1.44874e+06
-1.32396e+06
-1.20891e+06
-1.09854e+06
-990685
-885690
-784119
-681404
-567682
-449940
-352462
-254718
-157876
-56915.8
-2.43265e+06
-2.20478e+06
-2.15858e+06
-1.94279e+06
-1.81371e+06
-1.675e+06
-1.54431e+06
-1.40471e+06
-1.27872e+06
-1.16113e+06
-1.04459e+06
-933229
-820534
-709248
-588248
-465210
-364094
-263030
-163246
-58951.1
-2.88349e+06
-2.61132e+06
-2.3682e+06
-2.0975e+06
-1.9373e+06
-1.77702e+06
-1.6316e+06
-1.482e+06
-1.34393e+06
-1.21466e+06
-1.09121e+06
-971097
-852871
-736833
-612590
-483525
-376720
-272294
-168713
-60872.5
-3.32626e+06
-2.74968e+06
-2.45568e+06
-2.19079e+06
-2.00971e+06
-1.81693e+06
-1.69236e+06
-1.5337e+06
-1.3883e+06
-1.25009e+06
-1.12104e+06
-995637
-873427
-753779
-612930
-499902
-390210
-281228
-173893
-62606.1
-3.26642e+06
-2.83233e+06
-2.56065e+06
-2.28e+06
-2.07383e+06
-1.8704e+06
-1.7069e+06
-1.54459e+06
-1.40159e+06
-1.25829e+06
-1.12642e+06
-996034
-872005
-749298
-630155
-514661
-401602
-289234
-178602
-64287.3
-3.13687e+06
-2.78584e+06
-2.52828e+06
-2.27582e+06
-2.0926e+06
-1.89835e+06
-1.74169e+06
-1.57701e+06
-1.43003e+06
-1.28549e+06
-1.14989e+06
-1.01729e+06
-890189
-765797
-645159
-527177
-411129
-295928
-182678
-65770
-3.21175e+06
-2.84001e+06
-2.56912e+06
-2.29888e+06
-2.10729e+06
-1.91428e+06
-1.75344e+06
-1.59196e+06
-1.44643e+06
-1.30144e+06
-1.16584e+06
-1.03193e+06
-904015
-778076
-656416
-536419
-418463
-301157
-186087
-67047.7
-2.89548e+06
-2.67438e+06
-2.48725e+06
-2.26039e+06
-2.09684e+06
-1.91745e+06
-1.76597e+06
-1.60641e+06
-1.46176e+06
-1.3167e+06
-1.18043e+06
-1.04533e+06
-915861
-788348
-665222
-543473
-423945
-305381
-188813
-68050.6
-2.75549e+06
-2.54942e+06
-2.41014e+06
-2.22595e+06
-2.07566e+06
-1.91008e+06
-1.76343e+06
-1.60801e+06
-1.4663e+06
-1.32312e+06
-1.18762e+06
-1.05275e+06
-923197
-794947
-670790
-548062
-427638
-308173
-190721
-68771.7
-2.48838e+06
-2.35303e+06
-2.34165e+06
-2.18056e+06
-2.05952e+06
-1.9035e+06
-1.76546e+06
-1.61338e+06
-1.47382e+06
-1.32975e+06
-1.1943e+06
-1.05862e+06
-928467
-799621
-674659
-551109
-429974
-309914
-191919
-69226
-2.43158e+06
-2.35491e+06
-2.29349e+06
-2.15646e+06
-2.04371e+06
-1.89581e+06
-1.76056e+06
-1.61183e+06
-1.4735e+06
-1.331e+06
-1.19599e+06
-1.06048e+06
-930422
-801368
-676368
-552715
-431384
-311023
-192658
-69446.4
-770892
-640776
-748112
-764350
-824183
-830327
-833972
-808526
-782221
-738003
-690781
-632507
-571359
-503580
-433466
-359677
-283908
-205916
-128077
-45315.8
-384247
-572421
-748236
-785531
-843891
-850471
-849616
-821734
-792643
-747253
-698712
-639191
-576730
-507865
-436871
-362330
-285893
-207327
-128848
-45584.2
-483594
-620769
-850133
-855258
-900975
-892462
-884535
-851581
-817279
-766847
-714423
-651928
-587218
-516397
-443611
-367538
-289749
-209802
-130378
-46200
-985639
-843892
-952576
-945551
-966208
-944433
-926539
-887191
-846895
-792241
-735229
-669478
-601495
-528219
-453134
-375049
-295472
-214089
-132854
-47208.2
-1.19985e+06
-1.04429e+06
-1.07212e+06
-1.05338e+06
-1.05737e+06
-1.01691e+06
-988517
-937373
-888579
-826484
-763096
-692150
-620093
-543344
-465327
-384588
-302682
-219208
-136023
-48451.4
-1.11088e+06
-1.16046e+06
-1.20767e+06
-1.16981e+06
-1.15478e+06
-1.09836e+06
-1.0559e+06
-993422
-934318
-865149
-794352
-718558
-641417
-561211
-479606
-395822
-311051
-225139
-139719
-49845.6
-1.60484e+06
-1.41478e+06
-1.41516e+06
-1.32197e+06
-1.28516e+06
-1.20976e+06
-1.14573e+06
-1.06847e+06
-992054
-910332
-831747
-748615
-666424
-581432
-495726
-408254
-320307
-231580
-143647
-51354.4
-1.79702e+06
-1.61189e+06
-1.56868e+06
-1.46017e+06
-1.41016e+06
-1.31802e+06
-1.23253e+06
-1.14422e+06
-1.05627e+06
-968757
-880483
-793266
-706369
-618106
-512637
-421690
-330561
-238843
-147976
-53107.2
-2.09213e+06
-1.86938e+06
-1.77572e+06
-1.63016e+06
-1.55747e+06
-1.4431e+06
-1.3404e+06
-1.23216e+06
-1.13268e+06
-1.03379e+06
-937946
-840901
-746672
-652012
-544872
-436181
-341242
-246586
-152617
-54927.7
-2.20413e+06
-2.02215e+06
-1.97568e+06
-1.79317e+06
-1.6931e+06
-1.5656e+06
-1.45099e+06
-1.32399e+06
-1.20902e+06
-1.09764e+06
-990385
-886145
-783420
-680826
-567108
-449996
-352478
-254723
-157879
-56888
-2.20452e+06
-2.22023e+06
-2.15574e+06
-1.94584e+06
-1.81613e+06
-1.67612e+06
-1.54607e+06
-1.40583e+06
-1.28018e+06
-1.15713e+06
-1.0454e+06
-932690
-820137
-708423
-587526
-465412
-364180
-263053
-163119
-58848.1
-2.98374e+06
-2.59561e+06
-2.37228e+06
-2.09926e+06
-1.93623e+06
-1.77758e+06
-1.6327e+06
-1.48141e+06
-1.34301e+06
-1.21426e+06
-1.09086e+06
-971004
-853035
-736946
-612266
-483333
-376661
-272362
-168589
-60777.4
-3.27537e+06
-2.74804e+06
-2.454e+06
-2.19065e+06
-2.00784e+06
-1.81766e+06
-1.69299e+06
-1.53278e+06
-1.38803e+06
-1.25067e+06
-1.12112e+06
-995755
-873629
-753938
-612873
-499772
-390039
-281176
-173818
-62523.8
-3.10623e+06
-2.80694e+06
-2.55397e+06
-2.27678e+06
-2.07127e+06
-1.86998e+06
-1.70721e+06
-1.54487e+06
-1.40139e+06
-1.2583e+06
-1.1265e+06
-996190
-872105
-749384
-630308
-514675
-401521
-289184
-178564
-64263.2
-3.05101e+06
-2.76468e+06
-2.52424e+06
-2.27518e+06
-2.09265e+06
-1.8989e+06
-1.74193e+06
-1.57712e+06
-1.43021e+06
-1.28555e+06
-1.14999e+06
-1.01734e+06
-890274
-765832
-645259
-527225
-411142
-296017
-182734
-65773.3
-3.25321e+06
-2.83381e+06
-2.56794e+06
-2.29833e+06
-2.10699e+06
-1.91565e+06
-1.75417e+06
-1.59221e+06
-1.44651e+06
-1.30134e+06
-1.16577e+06
-1.03195e+06
-904047
-778090
-656444
-536288
-418406
-301069
-185987
-67003.6
-3.02047e+06
-2.66946e+06
-2.48472e+06
-2.25822e+06
-2.09699e+06
-1.91657e+06
-1.76525e+06
-1.60598e+06
-1.46161e+06
-1.31652e+06
-1.1802e+06
-1.0452e+06
-915875
-788381
-665124
-543315
-423819
-305180
-188604
-67932
-2.67683e+06
-2.54767e+06
-2.41538e+06
-2.22495e+06
-2.07584e+06
-1.9099e+06
-1.76307e+06
-1.60831e+06
-1.46666e+06
-1.32323e+06
-1.18769e+06
-1.05261e+06
-923068
-794915
-670766
-547974
-427528
-308023
-190551
-68670.8
-2.43272e+06
-2.34152e+06
-2.33897e+06
-2.17753e+06
-2.05906e+06
-1.90293e+06
-1.76483e+06
-1.61271e+06
-1.47325e+06
-1.32959e+06
-1.19413e+06
-1.05858e+06
-928427
-799640
-674680
-551124
-429964
-309847
-191821
-69170.4
-2.31402e+06
-2.31951e+06
-2.28837e+06
-2.15418e+06
-2.04361e+06
-1.89537e+06
-1.76041e+06
-1.61169e+06
-1.47345e+06
-1.33096e+06
-1.19597e+06
-1.06056e+06
-930456
-801414
-676411
-552703
-431348
-310995
-192594
-69371.8
-750468
-682980
-751088
-766191
-824570
-829767
-833718
-808040
-782021
-737789
-690519
-632362
-571278
-503543
-433428
-359655
-283939
-205920
-127943
-45295
-641612
-588970
-755715
-787037
-845084
-850821
-848916
-821461
-792281
-746933
-698572
-639115
-576563
-507647
-436791
-362254
-285812
-207217
-128687
-45591.9
-357869
-620908
-844555
-855529
-901560
-892316
-884883
-851300
-817628
-767016
-714506
-652021
-587344
-516606
-443700
-367524
-289706
-209795
-130271
-46200.9
-958179
-843494
-949383
-946240
-966522
-944642
-926690
-887125
-846936
-792244
-735230
-669496
-601548
-528314
-453237
-375142
-295542
-214129
-132784
-47207.9
-1.14364e+06
-1.0428e+06
-1.07268e+06
-1.05518e+06
-1.05756e+06
-1.01728e+06
-988696
-937963
-888743
-826592
-763161
-692207
-620150
-543443
-465437
-384666
-302732
-219194
-135907
-48341.5
-1.13717e+06
-1.16472e+06
-1.2108e+06
-1.17039e+06
-1.15445e+06
-1.09876e+06
-1.05608e+06
-993775
-934780
-865275
-794476
-718535
-641476
-561222
-479637
-395863
-311102
-225177
-139674
-49715.6
-1.63126e+06
-1.43872e+06
-1.42225e+06
-1.32254e+06
-1.28481e+06
-1.20936e+06
-1.14579e+06
-1.0685e+06
-992443
-910371
-831807
-748554
-666446
-581350
-495669
-408294
-320375
-231681
-143619
-51245
-1.81622e+06
-1.59676e+06
-1.56496e+06
-1.45867e+06
-1.41e+06
-1.31798e+06
-1.23239e+06
-1.1441e+06
-1.0559e+06
-968031
-880643
-793523
-706365
-617980
-512595
-421694
-330582
-238878
-147932
-53004.4
-2.20451e+06
-1.85366e+06
-1.77282e+06
-1.6308e+06
-1.55782e+06
-1.44361e+06
-1.33907e+06
-1.23109e+06
-1.13022e+06
-1.03266e+06
-936886
-839911
-746682
-651761
-544942
-436229
-341246
-246640
-152537
-54826.6
-2.06482e+06
-2.01581e+06
-1.97338e+06
-1.79322e+06
-1.69422e+06
-1.5673e+06
-1.45237e+06
-1.32386e+06
-1.2094e+06
-1.0976e+06
-990152
-886381
-782851
-680385
-566986
-450033
-352495
-254768
-157885
-56743.2
-2.53611e+06
-2.24411e+06
-2.16533e+06
-1.95e+06
-1.81846e+06
-1.67741e+06
-1.54708e+06
-1.40636e+06
-1.28087e+06
-1.15918e+06
-1.04498e+06
-931748
-819194
-707759
-587423
-465580
-364231
-263027
-163072
-58667
-3.09326e+06
-2.59806e+06
-2.38119e+06
-2.10359e+06
-1.93578e+06
-1.77804e+06
-1.63347e+06
-1.48094e+06
-1.34243e+06
-1.21387e+06
-1.09063e+06
-970960
-853268
-737001
-611833
-483440
-376771
-272396
-168491
-60603.2
-3.29103e+06
-2.74268e+06
-2.45483e+06
-2.19e+06
-2.00636e+06
-1.81816e+06
-1.69341e+06
-1.53234e+06
-1.38774e+06
-1.25078e+06
-1.12099e+06
-995700
-873630
-754032
-612958
-499825
-389953
-281186
-173736
-62403.2
-3.02412e+06
-2.7891e+06
-2.55238e+06
-2.27583e+06
-2.07032e+06
-1.8703e+06
-1.70739e+06
-1.54511e+06
-1.40109e+06
-1.25831e+06
-1.12643e+06
-996282
-872165
-749507
-630514
-514655
-401490
-289317
-178638
-64153.4
-3.04079e+06
-2.76697e+06
-2.52574e+06
-2.27592e+06
-2.09256e+06
-1.89917e+06
-1.74185e+06
-1.5772e+06
-1.4303e+06
-1.28555e+06
-1.15014e+06
-1.01744e+06
-890396
-765924
-645303
-527032
-411151
-295944
-182692
-65693
-3.10294e+06
-2.81971e+06
-2.56563e+06
-2.29791e+06
-2.10771e+06
-1.91587e+06
-1.75461e+06
-1.59229e+06
-1.4463e+06
-1.30126e+06
-1.16573e+06
-1.03195e+06
-904057
-778057
-656305
-536080
-418156
-300906
-185812
-66844.7
-2.89806e+06
-2.66924e+06
-2.48838e+06
-2.25756e+06
-2.09597e+06
-1.91598e+06
-1.7645e+06
-1.60575e+06
-1.46151e+06
-1.31637e+06
-1.18004e+06
-1.04507e+06
-915816
-788340
-664938
-543081
-423562
-304939
-188358
-67744.1
-2.6051e+06
-2.5318e+06
-2.41239e+06
-2.22281e+06
-2.0755e+06
-1.90937e+06
-1.76276e+06
-1.60844e+06
-1.46682e+06
-1.32322e+06
-1.18763e+06
-1.05253e+06
-923039
-794937
-670738
-547921
-427436
-307833
-190348
-68502.4
-2.28118e+06
-2.3116e+06
-2.32984e+06
-2.17376e+06
-2.05808e+06
-1.90215e+06
-1.76433e+06
-1.61241e+06
-1.473e+06
-1.32946e+06
-1.19403e+06
-1.05853e+06
-928403
-799635
-674691
-551163
-429982
-309790
-191727
-69066.9
-2.14731e+06
-2.2852e+06
-2.27866e+06
-2.15114e+06
-2.04322e+06
-1.89509e+06
-1.76041e+06
-1.61162e+06
-1.47343e+06
-1.33094e+06
-1.196e+06
-1.06059e+06
-930514
-801499
-676435
-552705
-431341
-310964
-192525
-69301.5
-738709
-706541
-747526
-766736
-824539
-829363
-833468
-807574
-781736
-737599
-690480
-632427
-571288
-503422
-433433
-359656
-283825
-205867
-127922
-45303.5
-693150
-622496
-752350
-787993
-845750
-850731
-848491
-821300
-792132
-746588
-698203
-638765
-576299
-507505
-436717
-362144
-285756
-207192
-128659
-45624.3
-384364
-623997
-841123
-857040
-901522
-892434
-884789
-851236
-817875
-767229
-714549
-652137
-587493
-516686
-443717
-367572
-289772
-209918
-130180
-46248.5
-956586
-853119
-948712
-946938
-967016
-944863
-926675
-886824
-846774
-792197
-735212
-669555
-601599
-528389
-453308
-375190
-295568
-214137
-132824
-47212.7
-1.21982e+06
-1.04391e+06
-1.07701e+06
-1.05685e+06
-1.05751e+06
-1.01763e+06
-988760
-938408
-888786
-826661
-763177
-692259
-620182
-543488
-465481
-384697
-302761
-219191
-135855
-48297.7
-1.16873e+06
-1.17017e+06
-1.21208e+06
-1.1709e+06
-1.15431e+06
-1.09907e+06
-1.05626e+06
-994314
-934949
-865319
-794499
-718538
-641505
-561189
-479647
-395878
-311138
-225174
-139557
-49670.1
-1.68776e+06
-1.43783e+06
-1.42377e+06
-1.32297e+06
-1.28452e+06
-1.20914e+06
-1.14588e+06
-1.06862e+06
-992610
-910482
-831807
-748581
-666520
-581429
-495659
-408351
-320491
-231747
-143553
-51207.2
-1.8212e+06
-1.54755e+06
-1.56026e+06
-1.4568e+06
-1.40968e+06
-1.31818e+06
-1.23252e+06
-1.14418e+06
-1.05602e+06
-968031
-880840
-793712
-706432
-617895
-512634
-421706
-330607
-238904
-147888
-52918.3
-2.12156e+06
-1.85261e+06
-1.7695e+06
-1.63079e+06
-1.55712e+06
-1.44419e+06
-1.33831e+06
-1.23098e+06
-1.13016e+06
-1.03157e+06
-935485
-840230
-746885
-651783
-545231
-436354
-341279
-246664
-152504
-54704
-2.03492e+06
-2.00201e+06
-1.96719e+06
-1.78926e+06
-1.69364e+06
-1.56789e+06
-1.45143e+06
-1.32378e+06
-1.20971e+06
-1.09869e+06
-991060
-886498
-782807
-680230
-567173
-450099
-352518
-254807
-157723
-56635.5
-2.53888e+06
-2.24802e+06
-2.1665e+06
-1.95135e+06
-1.81877e+06
-1.67835e+06
-1.5475e+06
-1.40654e+06
-1.28058e+06
-1.16087e+06
-1.04447e+06
-930954
-818585
-707798
-587833
-465708
-364272
-263122
-163051
-58568.6
-3.03845e+06
-2.57916e+06
-2.38454e+06
-2.10456e+06
-1.93441e+06
-1.77816e+06
-1.63356e+06
-1.48076e+06
-1.34236e+06
-1.21348e+06
-1.09032e+06
-970705
-853319
-736812
-611374
-483618
-376968
-272409
-168422
-60523.3
-3.04215e+06
-2.72451e+06
-2.45156e+06
-2.18752e+06
-2.00549e+06
-1.81816e+06
-1.69292e+06
-1.53205e+06
-1.38736e+06
-1.25056e+06
-1.12066e+06
-995534
-873440
-753776
-613134
-499887
-389922
-281198
-173700
-62361.1
-2.97751e+06
-2.78801e+06
-2.54898e+06
-2.2743e+06
-2.0696e+06
-1.8705e+06
-1.70746e+06
-1.54518e+06
-1.40073e+06
-1.25829e+06
-1.12627e+06
-996262
-872147
-749600
-630619
-514632
-401449
-289291
-178697
-64122.9
-2.98128e+06
-2.74625e+06
-2.5258e+06
-2.2756e+06
-2.09172e+06
-1.89922e+06
-1.7411e+06
-1.57724e+06
-1.43044e+06
-1.28561e+06
-1.15022e+06
-1.01752e+06
-890443
-765985
-645295
-526957
-411034
-295904
-182580
-65534.2
-3.22671e+06
-2.82229e+06
-2.56835e+06
-2.29874e+06
-2.10799e+06
-1.91586e+06
-1.75484e+06
-1.59238e+06
-1.44638e+06
-1.3012e+06
-1.16572e+06
-1.03193e+06
-904076
-778044
-656222
-535945
-417978
-300743
-185626
-66654.4
-2.87047e+06
-2.64588e+06
-2.48629e+06
-2.25601e+06
-2.0952e+06
-1.9156e+06
-1.76415e+06
-1.60559e+06
-1.46138e+06
-1.31625e+06
-1.17998e+06
-1.04498e+06
-915782
-788299
-664808
-542884
-423334
-304765
-188205
-67611
-2.62855e+06
-2.54136e+06
-2.41487e+06
-2.22169e+06
-2.07529e+06
-1.90914e+06
-1.76252e+06
-1.60839e+06
-1.46683e+06
-1.32311e+06
-1.18753e+06
-1.05251e+06
-923054
-794972
-670716
-547902
-427393
-307731
-190212
-68368.7
-2.20354e+06
-2.30721e+06
-2.32647e+06
-2.17174e+06
-2.05729e+06
-1.90179e+06
-1.76387e+06
-1.61227e+06
-1.47289e+06
-1.32943e+06
-1.19398e+06
-1.05851e+06
-928404
-799667
-674710
-551188
-429998
-309772
-191664
-68998.7
-1.95363e+06
-2.26487e+06
-2.27241e+06
-2.14973e+06
-2.04319e+06
-1.89481e+06
-1.76032e+06
-1.61155e+06
-1.4734e+06
-1.33093e+06
-1.19602e+06
-1.06059e+06
-930579
-801596
-676496
-552692
-431295
-310920
-192465
-69284.2
-1.01702e+06
-1.14295e+06
-1.05748e+06
-1.09747e+06
-1.01666e+06
-1.14333e+06
-1.05793e+06
-911583
-1.02944e+06
-950914
-990154
-911968
-1.02986e+06
-951201
-1.0743e+06
-1.20222e+06
-1.11059e+06
-1.15713e+06
-1.07438e+06
-1.20186e+06
-1.11035e+06
-963242
-1.08053e+06
-991443
-1.0454e+06
-962825
-1.08032e+06
-991390
-1.262e+06
-1.4196e+06
-1.33149e+06
-1.3417e+06
-1.26151e+06
-1.42062e+06
-1.33167e+06
-1.1631e+06
-1.30219e+06
-1.21829e+06
-1.23384e+06
-1.16248e+06
-1.3024e+06
-1.21833e+06
-1.06408e+06
-1.19102e+06
-1.10948e+06
-1.13519e+06
-1.0633e+06
-1.19107e+06
-1.10918e+06
-966658
-1.08261e+06
-1.005e+06
-1.03591e+06
-966448
-1.08307e+06
-1.00484e+06
-868477
-978813
-900304
-939504
-868283
-978560
-900255
-772802
-874990
-799926
-842471
-772653
-874987
-799879
-679108
-774949
-699589
-746721
-678955
-774749
-699526
-583284
-674511
-598215
-652550
-582991
-674477
-597774
-1.3538e+06
-1.51648e+06
-1.41758e+06
-1.44822e+06
-1.35393e+06
-1.51764e+06
-1.41807e+06
-1.23695e+06
-1.38491e+06
-1.2911e+06
-1.32392e+06
-1.23712e+06
-1.38528e+06
-1.29139e+06
-1.12438e+06
-1.26102e+06
-1.17343e+06
-1.20892e+06
-1.12474e+06
-1.26126e+06
-1.1736e+06
-1.01782e+06
-1.1438e+06
-1.0566e+06
-1.09872e+06
-1.01768e+06
-1.14404e+06
-1.05679e+06
-911384
-1.02886e+06
-948456
-990773
-911367
-1.029e+06
-948195
-810054
-921923
-839906
-885629
-809879
-921578
-839884
-707234
-812230
-729930
-784270
-707058
-812206
-729783
-604436
-702882
-620746
-681508
-604037
-702746
-620190
-1.43689e+06
-1.60857e+06
-1.49834e+06
-1.54369e+06
-1.43789e+06
-1.60885e+06
-1.49851e+06
-1.30798e+06
-1.46273e+06
-1.3607e+06
-1.40435e+06
-1.30875e+06
-1.46286e+06
-1.36089e+06
-1.19064e+06
-1.3281e+06
-1.23346e+06
-1.2784e+06
-1.19077e+06
-1.32818e+06
-1.23345e+06
-1.07322e+06
-1.2026e+06
-1.11076e+06
-1.16115e+06
-1.07307e+06
-1.20258e+06
-1.11083e+06
-961148
-1.08062e+06
-991286
-1.04463e+06
-961130
-1.08066e+06
-991242
-848553
-961871
-874106
-933237
-848685
-961805
-873934
-737045
-844865
-758492
-820525
-736880
-844842
-758461
-627319
-730109
-644937
-709358
-626831
-730046
-644723
-1.51834e+06
-1.68441e+06
-1.57235e+06
-1.63125e+06
-1.51816e+06
-1.68508e+06
-1.57157e+06
-1.3778e+06
-1.53181e+06
-1.42537e+06
-1.48213e+06
-1.37785e+06
-1.53091e+06
-1.42453e+06
-1.24615e+06
-1.38626e+06
-1.2841e+06
-1.34408e+06
-1.246e+06
-1.38552e+06
-1.28419e+06
-1.12171e+06
-1.24698e+06
-1.15471e+06
-1.2147e+06
-1.12175e+06
-1.24747e+06
-1.15486e+06
-1.00094e+06
-1.12001e+06
-1.03027e+06
-1.09125e+06
-1.00091e+06
-1.12014e+06
-1.03031e+06
-882490
-996343
-908498
-971146
-882270
-996353
-908470
-765532
-875145
-788665
-852877
-765516
-875168
-788747
-651323
-756067
-670900
-736825
-651109
-756111
-670658
-1.26116e+06
-1.42121e+06
-1.33165e+06
-1.34057e+06
-1.26025e+06
-1.42218e+06
-1.33151e+06
-1.16221e+06
-1.30242e+06
-1.21828e+06
-1.2325e+06
-1.16089e+06
-1.30233e+06
-1.2181e+06
-1.06283e+06
-1.19099e+06
-1.10914e+06
-1.13343e+06
-1.06103e+06
-1.19073e+06
-1.10948e+06
-966182
-1.08342e+06
-1.0047e+06
-1.03402e+06
-965276
-1.08336e+06
-1.0042e+06
-868189
-978423
-900240
-938142
-867551
-977953
-900158
-772598
-874990
-799843
-841171
-772483
-875045
-799667
-678872
-774656
-699471
-746673
-678593
-774449
-699232
-582782
-674409
-597511
-652119
-582431
-674110
-597010
-1.35397e+06
-1.5183e+06
-1.41823e+06
-1.45037e+06
-1.35403e+06
-1.51982e+06
-1.41863e+06
-1.23712e+06
-1.38546e+06
-1.29156e+06
-1.324e+06
-1.23718e+06
-1.38595e+06
-1.2924e+06
-1.12499e+06
-1.26147e+06
-1.17372e+06
-1.20894e+06
-1.12503e+06
-1.2625e+06
-1.1743e+06
-1.01753e+06
-1.14409e+06
-1.05694e+06
-1.09783e+06
-1.01713e+06
-1.14325e+06
-1.05732e+06
-911373
-1.02912e+06
-948189
-990445
-911477
-1.02946e+06
-949920
-809787
-921450
-839788
-885983
-809407
-921453
-839271
-706958
-812110
-729659
-783593
-706566
-811547
-729004
-603788
-702589
-619903
-680977
-603299
-701749
-619184
-1.43823e+06
-1.60919e+06
-1.49864e+06
-1.54562e+06
-1.43904e+06
-1.60994e+06
-1.499e+06
-1.30909e+06
-1.46299e+06
-1.36101e+06
-1.4056e+06
-1.31016e+06
-1.46333e+06
-1.36097e+06
-1.19086e+06
-1.32817e+06
-1.23342e+06
-1.27985e+06
-1.19096e+06
-1.32799e+06
-1.23321e+06
-1.07309e+06
-1.20256e+06
-1.11084e+06
-1.15922e+06
-1.07361e+06
-1.20236e+06
-1.11071e+06
-961076
-1.08068e+06
-991247
-1.04487e+06
-962380
-1.08061e+06
-991374
-848696
-961797
-873896
-932895
-848485
-961943
-874012
-736811
-844832
-758458
-820305
-736404
-844987
-758498
-626505
-730015
-644579
-708683
-625665
-729965
-644179
-1.51806e+06
-1.68571e+06
-1.57114e+06
-1.6323e+06
-1.51764e+06
-1.68658e+06
-1.57e+06
-1.37771e+06
-1.53038e+06
-1.42408e+06
-1.48156e+06
-1.37711e+06
-1.52897e+06
-1.42313e+06
-1.24592e+06
-1.38519e+06
-1.28425e+06
-1.34323e+06
-1.24566e+06
-1.38454e+06
-1.28453e+06
-1.12168e+06
-1.24762e+06
-1.15493e+06
-1.21439e+06
-1.12136e+06
-1.24812e+06
-1.15506e+06
-1.00087e+06
-1.12019e+06
-1.03032e+06
-1.09096e+06
-1.00073e+06
-1.12017e+06
-1.03021e+06
-882208
-996367
-908449
-970995
-882239
-996251
-908361
-765543
-875170
-788798
-852969
-765694
-875136
-788998
-651005
-756132
-670519
-736902
-650783
-756394
-670367
-1.25993e+06
-1.42252e+06
-1.33139e+06
-1.33909e+06
-1.25901e+06
-1.42227e+06
-1.33084e+06
-1.16028e+06
-1.30222e+06
-1.21806e+06
-1.23127e+06
-1.15876e+06
-1.30182e+06
-1.21787e+06
-1.06051e+06
-1.19063e+06
-1.10937e+06
-1.13071e+06
-1.05938e+06
-1.19037e+06
-1.10884e+06
-964994
-1.0831e+06
-1.00403e+06
-1.03301e+06
-964096
-1.08244e+06
-1.0034e+06
-867345
-977833
-900128
-937316
-866612
-977392
-900137
-772484
-875075
-799592
-840025
-772542
-875112
-799365
-678493
-774373
-699144
-746664
-678275
-774136
-698938
-582277
-674006
-596775
-651803
-582284
-673766
-596614
-1.35402e+06
-1.52037e+06
-1.41876e+06
-1.45216e+06
-1.35383e+06
-1.52137e+06
-1.4191e+06
-1.23728e+06
-1.38611e+06
-1.29276e+06
-1.32387e+06
-1.23769e+06
-1.38653e+06
-1.29368e+06
-1.12489e+06
-1.26291e+06
-1.1747e+06
-1.20928e+06
-1.12496e+06
-1.26388e+06
-1.17519e+06
-1.0849e+06
-1.07056e+06
-1.11261e+06
-1.09749e+06
-1.08471e+06
-1.07043e+06
-1.11272e+06
-976045
-963769
-1.00291e+06
-990333
-975904
-963769
-1.00307e+06
-809265
-921631
-839000
-886391
-808821
-921348
-838136
-706418
-811289
-728712
-782964
-706015
-810446
-727816
-603054
-701398
-618950
-680473
-602833
-700545
-618837
-1.43924e+06
-1.61043e+06
-1.49906e+06
-1.54677e+06
-1.43963e+06
-1.61107e+06
-1.49916e+06
-1.31049e+06
-1.46338e+06
-1.36088e+06
-1.40628e+06
-1.31118e+06
-1.46337e+06
-1.36059e+06
-1.19102e+06
-1.32793e+06
-1.23309e+06
-1.2808e+06
-1.1909e+06
-1.32772e+06
-1.23277e+06
-1.14434e+06
-1.13243e+06
-1.17503e+06
-1.15859e+06
-1.14579e+06
-1.13657e+06
-1.17414e+06
-1.02947e+06
-1.01658e+06
-1.05872e+06
-1.04768e+06
-1.02978e+06
-1.01855e+06
-1.05834e+06
-848324
-962032
-874100
-931957
-847550
-962043
-874212
-736189
-845034
-758525
-819443
-735618
-845100
-758502
-625390
-729961
-643897
-707901
-625173
-729821
-643392
-1.5175e+06
-1.68707e+06
-1.56972e+06
-1.63324e+06
-1.51725e+06
-1.68729e+06
-1.56911e+06
-1.37686e+06
-1.52862e+06
-1.42292e+06
-1.48103e+06
-1.37623e+06
-1.52791e+06
-1.42247e+06
-1.24557e+06
-1.38442e+06
-1.28461e+06
-1.34253e+06
-1.24533e+06
-1.38408e+06
-1.28471e+06
-1.12122e+06
-1.24826e+06
-1.15501e+06
-1.21394e+06
-1.12099e+06
-1.24837e+06
-1.15469e+06
-1.00071e+06
-1.1201e+06
-1.03014e+06
-1.09067e+06
-1.00062e+06
-1.11983e+06
-1.02991e+06
-882302
-996229
-908386
-971006
-882498
-996205
-908484
-765772
-875212
-789122
-853238
-765961
-875497
-789419
-650552
-756593
-670281
-737008
-650213
-756905
-670248
-1.25885e+06
-1.4222e+06
-1.33072e+06
-1.33817e+06
-1.25862e+06
-1.42148e+06
-1.33057e+06
-1.15845e+06
-1.30173e+06
-1.21788e+06
-1.23091e+06
-1.15829e+06
-1.30167e+06
-1.21818e+06
-1.05903e+06
-1.19036e+06
-1.10879e+06
-1.12992e+06
-1.05829e+06
-1.19056e+06
-1.109e+06
-963758
-1.08233e+06
-1.0032e+06
-1.0318e+06
-962724
-1.08246e+06
-1.0032e+06
-866459
-977276
-900232
-935731
-866107
-977439
-900504
-772608
-875100
-799323
-840084
-772889
-875196
-799375
-678229
-774079
-698867
-746820
-678207
-774069
-698674
-582231
-673691
-596480
-651766
-582367
-673524
-596700
-1.35378e+06
-1.52172e+06
-1.41917e+06
-1.45171e+06
-1.35368e+06
-1.52202e+06
-1.41934e+06
-1.23779e+06
-1.38662e+06
-1.29383e+06
-1.3238e+06
-1.238e+06
-1.38674e+06
-1.29384e+06
-1.12523e+06
-1.26403e+06
-1.17517e+06
-1.20974e+06
-1.12591e+06
-1.26391e+06
-1.17532e+06
-1.01661e+06
-1.14396e+06
-1.05862e+06
-1.09847e+06
-1.01727e+06
-1.14595e+06
-1.0595e+06
-912068
-1.03062e+06
-949768
-990836
-912350
-1.03132e+06
-947848
-808707
-920941
-837843
-886435
-808664
-920121
-837192
-705911
-810177
-727603
-782771
-705762
-809621
-727580
-602680
-700440
-618781
-680238
-602838
-700583
-619168
-1.43969e+06
-1.61134e+06
-1.49917e+06
-1.54736e+06
-1.43988e+06
-1.61148e+06
-1.49928e+06
-1.31129e+06
-1.46335e+06
-1.36049e+06
-1.40648e+06
-1.31127e+06
-1.46338e+06
-1.36035e+06
-1.19088e+06
-1.32763e+06
-1.23267e+06
-1.2807e+06
-1.19069e+06
-1.32745e+06
-1.23227e+06
-1.07386e+06
-1.20178e+06
-1.1103e+06
-1.16102e+06
-1.07341e+06
-1.20135e+06
-1.10995e+06
-961411
-1.08027e+06
-991256
-1.0446e+06
-959407
-1.07995e+06
-990836
-847274
-961927
-874207
-931100
-846658
-961508
-874048
-735464
-845044
-758494
-818653
-735223
-844927
-758321
-625079