/*--------------------------------*- C++ -*----------------------------------*\
  =========                 |
  \\      /  F ield         | OpenFOAM: The Open Source CFD Toolbox
   \\    /   O peration     | Website:  https://openfoam.org
    \\  /    A nd           | Version:  10
     \\/     M anipulation  |
\*---------------------------------------------------------------------------*/
FoamFile
{
    format      ascii;
    class       surfaceScalarField;
    location    "9.8";
    object      phi;
}
// * * * * * * * * * * * * * * * * * * * * * * * * * * * * * * * * * * * * * //

dimensions      [0 3 -1 0 0 0 0];

internalField   nonuniform List<scalar> 
38556
(
679.725
1696.46
38.453
978.403
242.043
-540.721
1553.21
91.4889
-666.301
1821.32
26.3921
-294.501
1810.73
-144.549
155.144
1747.41
-212.999
276.315
1578.46
-209.83
378.786
1490.33
-157.896
246.016
1445.47
-118.092
162.957
1454.37
-117.45
108.553
1465.98
-111.037
99.4246
1481.87
-112.793
96.8984
1490.63
-106.738
97.9802
1499.94
-101.864
92.5539
1509.58
-95.5732
85.937
1523.96
-89.8466
75.4679
1550.62
-85.492
58.8286
1589.81
-74.374
35.1868
1645.04
-58.1064
2.87497
-42.5137
4.48488
1754.5
2635.49
2319.91
1617.25
607.936
-228.64
1779.81
458.838
-529.917
2092.06
159.745
-445.602
2208.97
-53.7005
-207.758
2174.82
-129.672
-49.1708
1844.65
-76.1783
196.517
1513.45
-28.3727
201.673
1306.24
-44.23
133.354
1237.2
-97.2121
48.7958
1230.12
-124.236
20.2845
1237.68
-124.338
3.98557
1249.01
-112.615
-5.45871
1259.95
-92.9351
-19.8662
1270.3
-77.3431
-28.5831
1279.57
-57.9931
-41.1252
1287.95
-44.0767
-49.7907
1298.23
-29.6647
-54.9893
1313.95
-12.148
-61.6766
-4.49188
-48.6698
1309.43
1456.82
-4267.12
826.312
727.137
363.92
1421.8
103.919
-240.568
1506.89
54.9142
19.738
1271.36
-11.6891
193.518
1091.61
31.1629
18.9183
989.439
16.3159
9.67548
988.056
10.9392
-37.929
1036.36
-81.8867
-10.6495
1074.59
-118.548
-16.8941
1111.25
-150.262
-10.6316
1134.81
-127.861
-20.0392
1154.92
-109.994
-22.7324
1172.29
-79.7044
-30.5964
1187.48
-61.072
-31.4648
1202.49
-39.035
-33.9692
1215.75
-23.6867
-33.6486
1223.27
-7.63667
-29.5406
1227.45
10.4695
-26.8044
15.6901
-21.2289
930.589
535.094
2533.43
1113.52
489.04
55.1672
1175.65
164.031
-122.239
1071.28
101.213
58.0651
976.596
45.838
37.1597
930.664
68.0807
9.01449
974.217
-25.1949
-2.04198
992.395
-6.40978
-0.828612
1033.19
-137.284
14.5976
1054.03
-155.53
16.1418
1079.72
-194.235
18.2879
1086.05
-139.918
5.72123
1090.71
-116.158
1.50665
1090.33
-74.0512
-5.27523
1091.23
-54.7447
-7.22388
1092.63
-32.1456
-8.29266
1096.05
-18.4463
-8.66141
1098.93
-2.608
-7.90524
1102.75
14.2547
-7.60256
18.5517
-5.5489
1115.27
1691.65
-1900.31
1122.25
632.741
-150.684
1166.48
387.847
-268.047
1126.85
128.871
11.9709
1102.92
51.6446
18.127
1105.25
78.6405
-12.8891
1108.17
13.3759
-41.4938
1094.25
39.5064
-31.9994
1062.15
-94.2298
-10.9527
1051.51
-166.258
21.3649
1066.19
-251.106
42.1969
1067.23
-161.291
20.3294
1067.84
-125.112
8.34548
1068.16
-71.749
-2.61913
1073.05
-59.3793
-0.255359
1081.33
-38.145
-2.28421
1091.68
-26.8047
-1.99023
1096.73
-6.56331
-1.09108
1099.32
13.0627
-1.3985
19.1518
-1.41604
1696.73
2146.88
-76.0631
1651.05
732.896
-54.4782
1652.46
276.934
109.504
1719.01
56.358
5.97132
1790.23
43.6722
-63.2552
1884.79
88.5163
-104.433
1913.51
62.7139
-78.0538
1850.2
171.402
-68.5853
1599.65
67.4808
88.8337
1320.99
-28.8677
141.275
1180.19
-223.947
113.636
1088.39
-118.707
49.2147
1033.5
-91.2457
21.025
1007.32
-45.395
-0.168885
1005.53
-51.5791
-6.01292
1015.28
-41.9439
-5.95615
1034.47
-40.1426
-5.84774
1056.07
-23.2917
-4.87199
1076.97
-3.65349
-4.18387
9.27356
-1.30791
791.88
-346.823
964.249
1196.6
-80.9069
409.083
1359.63
47.3578
66.549
1576.86
-57.603
-103.27
1711.99
-19.1141
-72.3419
1804.67
76.2536
-80.4223
1860.69
13.3073
-6.73058
-2.62409
7.5283
-4.78348
1871.4
20.0774
30.3494
44.8656
19.8148
45.5809
1697.84
48.9172
60.3997
43.5457
47.412
40.766
1425.69
32.3067
136.541
25.9487
27.7135
20.7751
1176.09
-25.2309
155.748
-41.0984
-23.669
-40.0986
1044.39
-19.9033
70.1169
-8.46172
-19.4048
-9.35693
993.202
-8.52152
16.1045
-19.3465
-9.20091
-19.0887
986.508
-11.4833
6.33112
-12.3199
-10.0682
-11.1611
992.986
-56.4892
-1.56786
1002.17
-51.2654
0.134759
1018.56
-57.1999
0.668062
1039.98
-45.7456
1.03257
1062.85
-25.845
-0.678988
-2.49803
0.176888
1633.73
-56.9528
2145.34
1635.84
176.454
-259.473
1569.71
117.299
-3.81002
1642.15
-17.888
-112.153
1739.59
-47.4091
-69.1439
440.836
10.6461
-58.1566
451.008
448.588
452.775
29.4341
10.4933
30.218
450.82
10.0702
-6.74701
-447.616
470.093
-5.03055
2.6304
-485.066
497.068
24.8018
12.1133
-485.731
465.973
14.8379
37.2266
-417.73
360.005
-1.07099
33.5643
-294.865
275.428
-7.33901
6.87328
-257.54
259.188
-8.74899
-1.42041
-248.627
257.762
-18.3709
-2.2476
1044.77
-12.9844
-5.31203
-255.06
-268.318
-251.47
-260.958
-17.5022
-12.5742
-17.079
1048.67
-52.3299
-2.83977
1058.52
-67.2989
0.247586
1071.88
-63.5342
4.42911
1083.17
-44.1706
7.03701
-10.0314
3.07797
116.123
329.275
-4240.67
679.71
68.4901
-455.623
1162.46
29.5919
-395.04
1261.78
-27.2331
-89.9774
329.53
-15.455
-72.7464
317.939
330.664
324.44
381.234
-24.8667
-16.192
-7.27075
-102.591
107.943
3.51516
-1.59662
-118.757
5.56901
123.227
-9.54033
-0.498631
-128.647
5.52729
132.936
-13.4206
3.60424
-131.794
3.70814
129.59
-8.33932
6.83587
-99.341
-11.2521
95.7217
14.8895
-0.0181415
-81.8218
-11.1964
79.9409
12.0878
0.989525
-72.9432
-2.40107
74.0296
1.25303
0.0616778
-71.0973
0.937012
72.7149
-2.1321
-0.422463
-71.1788
289.592
-15.7215
-1.8684
-72.2264
-70.4341
-71.147
1130.42
-39.6995
-17.4262
-281.088
-287.226
-274.927
-282.383
1134.79
-59.7511
-11.9229
1140.03
-67.5064
-1.26119
1137.04
-52.5418
11.354
-12.867
7.67191
-560.271
-223.088
-1173.75
317.576
-547.755
-261.602
918.463
-213.738
-357.557
1038.28
-96.104
-50.9432
261.544
4.0593
-26.337
257.123
262.908
263.524
12.6768
268.949
-5.3767
-14.7052
0.958982
-66.0117
67.9707
-1.96697
-0.950984
4.19251
-70.6558
71.0706
-4.33975
-0.267622
12.7564
-74.9312
77.6063
-9.4726
-5.95893
-6.28556
-73.4097
69.0326
12.5268
-1.86411
-22.3403
-70.9967
73.3044
19.8044
0.228168
-10.6289
-79.5703
80.4186
8.57495
1.20569
-2.4644
-81.5935
81.3983
2.24186
0.417779
-0.755834
-80.2605
79.552
1.06543
0.398863
-78.5007
6.26279
311.084
-3.7442
0.385576
-79.1109
-77.5297
-78.8469
1256.76
-4.19197
-24.4417
-313.1
-327.537
-305.917
-321.275
1237.88
-29.2936
-11.5779
1222.59
-52.8464
0.636634
1205
-36.8115
1.85484
-2.23563
2.11226
-106.775
-798.249
2882.2
347.905
-575.956
-426.479
952.03
-322.977
-494.886
924.824
-27.9979
-40.8997
211.881
61.292
-20.7366
223.859
220.41
232.178
-13.4731
229.643
6.54836
-10.8382
-2.24718
-56.7471
57.8006
1.34823
-0.154511
0.902718
-58.9518
58.1378
1.47344
-1.5621
-0.126789
-54.7758
54.4176
1.61213
-1.12717
-5.08375
-57.6996
60.304
2.36113
0.118133
-5.61189
-69.9619
72.6148
2.26236
0.69663
-1.57708
-78.3983
79.8814
-0.633153
0.727172
1.43395
-83.9641
85.1177
-3.2362
0.648645
3.17342
-88.0778
89.0213
-4.96124
0.844287
-90.93
5.46299
355.013
-7.79654
3.70728
-88.4646
-89.6072
-87.385
1325.74
20.5725
-4.86906
-348.232
-335.343
-336.94
-325.116
1276.73
9.5637
10.1475
1225.27
-10.6333
9.24968
1191.84
-1.88643
-1.49442
15.5255
-2.56767
1216.81
1056.78
-1955.01
1228.51
-337.058
-250.604
1200.58
-379.295
84.2496
1162.68
-60.9068
70.8139
263.098
12.7839
129.962
268.507
268.557
281.062
-4.14215
268.371
1.08096
-2.2112
-2.1045
-69.5176
71.2419
-0.177677
0.557887
-5.79865
-71.4017
71.9089
5.8476
-0.556184
-4.3754
-74.7742
76.8596
4.20811
-1.91806
5.18097
-77.5309
76.9238
-4.6698
0.0959223
5.96448
-78.1429
78.1609
-6.25837
0.275931
4.91442
-77.6015
76.9289
-4.68889
0.446984
5.64566
-75.8116
75.4579
-5.36832
0.0763208
5.88536
-75.2262
75.3037
-5.42415
-0.538721
-77.0255
7.21144
304.103
0.289825
-7.41468
-74.9528
-77.2893
-74.9222
1217.46
14.6579
-10.7621
-312.673
-293.984
-306.03
-288.101
1178.48
33.0989
15.4519
1127.51
25.5695
14.7623
1105.67
19.3483
0.610739
19.6844
-1.64866
1338.33
2189.34
2998.84
660.242
225.095
115.935
789.589
-20.6975
-487.945
838.666
-2.51537
-107.468
987.028
-27.2961
-108.281
258.085
-213.255
-10.719
28.2123
60.9469
29.6147
64.3546
262.614
251.539
255.635
6.74416
279.142
-32.7421
1.76423
-1.98027
6.93842
-1.7808
1.58886
-297.24
298.633
-3.45912
1.4581
-1.41708
1.783
-1.34633
3.61041
-316.325
312.157
-8.26988
7.81917
-1.18878
3.41226
-1.21566
0.548749
-301.529
280.187
13.8433
12.3529
-2.93193
0.292206
-2.76364
1.27659
-283.028
275.631
-2.49975
8.77872
-1.33925
2.08936
-0.908778
4.57461
-273.018
265.056
-6.57238
2.79368
1.47169
4.42903
1.26541
5.78758
-270.629
266.372
-9.89178
-0.756186
2.13305
5.31855
1.66535
5.15119
-268.437
262.283
-3.79691
-2.17073
1.48755
4.5582
0.924563
1049.66
-1.60056
-10.0486
3.57866
-2.65034
-0.54676
-5.98477
-266.173
-255.165
-260.931
-250.142
1052.13
10.8056
1.39052
1044.86
34.7103
5.65469
1037.49
32.0245
0.917868
1037.42
21.8451
-2.43547
13.6569
-0.00244272
937.591
1033.89
-1122.76
688.748
317.423
156.514
1215.33
57.5081
-604.783
1234.32
107.184
-128.691
1210.33
-19.1759
15.8701
1096.17
-110.962
11.8703
1031.44
-6.71913
24.6348
31.4726
-7.5136
30.0838
-7.23615
992.019
-152.117
54.194
26.1395
38.3489
29.2441
43.6148
1004.2
-75
31.7867
21.3834
-7.16594
23.5371
-6.72314
1023.6
-123.856
40.8676
9.67729
19.8097
12.8624
21.2408
1036.86
-78.7489
21.4301
18.4553
4.78306
17.7846
3.03671
1037.25
-85.4367
16.994
18.8308
17.1688
17.0747
14.9741
1030.95
-46.5126
13.0236
17.4373
5.24916
14.4752
2.63305
1025.6
-33.0051
8.21434
11.4322
6.00589
9.06148
3.63404
1017.39
7.01478
-0.396907
1010.93
20.497
-3.23849
1014.43
37.6703
-6.45254
1018
37.6404
-9.18882
1025.58
23.1015
-8.83442
9.78159
-3.29794
2349.42
-360.941
-1308.72
1864.16
507.398
295.28
1396.27
118.554
406.843
1198.6
148.107
156.743
1023.71
18.8254
136.889
932.717
2.4756
-22.4402
980.036
-8.91118
-45.1275
975.462
-100.426
-47.1162
1020.03
-94.8743
-24.6986
1044.05
-136.326
-11.5456
1064.17
-103.895
5.02793
1071.51
-99.0552
6.2807
1066.74
-55.7418
13.991
1051.2
-32.3854
14.9252
1042.06
7.34909
8.80518
1039.34
21.4801
1.73261
1045.43
35.3342
-3.74806
1059.48
34.9495
-11.3614
1072.18
22.6787
-12.2727
13.4529
-9.12049
1830.31
-50.0324
2666.22
1719.47
321.108
297.128
1786.54
103.525
-52.0416
1807.16
155.003
-27.5164
1634.54
183.234
8.21332
1507.19
145.369
-15.5433
1398.87
124.808
-25.406
1335.05
3.28238
-39.8851
1273.5
-12.6306
-20.691
1221.98
-72.0835
-12.7195
1177.37
-57.934
-1.35223
1148.25
-62.8665
-7.07397
1130.73
-35.961
-2.25585
1122.26
-21.3051
-2.61542
1120.2
4.04907
5.35808
1118.94
21.7165
1.03216
1121.81
33.4664
-1.00791
1127.96
33.7733
-4.97048
1129.79
27.153
-6.3083
21.4378
-6.64458
1394.37
833.885
-1562.97
1544.98
339.934
-169.43
1443.8
155.214
49.4901
1356.77
256.135
-14.1033
1264.9
269.281
5.8259
1246.87
187.679
-24.2791
1243.39
131.815
-3.53487
1216.01
51.2148
-20.5534
1180.94
10.2419
12.202
1136.39
-31.2077
3.67747
1105.35
-32.5068
5.60605
1087.21
-41.0771
-3.64792
1085.43
-29.9293
-4.24473
1091.78
-22.392
-5.2674
1104.73
-8.33112
-0.568037
1122.65
7.34365
-3.54992
1138.4
22.5487
-4.83037
1147.49
27.1484
-2.46123
1149.62
25.4834
-0.466548
22.0704
0.0079659
2275.68
50.9041
380.026
2255.52
116.078
244.015
1867.59
320.865
222.275
1694.11
359.783
69.8331
1557.26
358.153
47.9819
1517.21
246.821
-19.0891
1453.6
183.043
12.381
1379.42
106.646
18.7501
1275.28
70.4689
43.908
1192.04
30.2774
21.7542
1139.59
6.31373
13.6308
1114.45
-14.1754
-1.75875
1108.75
-23.6577
-0.574866
1112.85
-27.0354
0.541017
1123.66
-23.6037
4.46843
1141.16
-12.8516
2.69627
1159.57
0.451012
3.68155
1170.92
11.9904
3.81429
1176.35
16.5534
3.50037
18.1445
2.13269
1341.47
-315.077
2696.56
1336.22
-34.8323
156.16
1323.43
114.327
219.33
1331.82
196.018
155.375
1304.2
168.689
217.088
1331.98
136.432
82.6085
1324.88
98.435
91.7063
1305.62
80.5488
45.3537
1277.72
59.7744
38.5974
1261.78
39.8373
6.38265
1252.98
16.9339
-1.82181
1248.36
-2.38741
-7.17391
1243.38
-27.1591
8.48999
1236.1
-34.9084
15.1489
1229.83
-34.96
17.6308
1227.96
-28.2119
17.2225
1229.44
-16.894
15.8634
1233.54
-3.62988
11.5289
1236.95
8.16972
4.96695
13.9291
1.80117
1457.66
2048.23
1506.73
-83.9042
1524.26
96.7995
1598.22
122.06
1614.26
152.651
1642.29
108.399
1628.92
111.8
1639.02
70.4492
1648.61
50.1869
1673.83
14.6157
1683.5
7.26757
1680.25
0.860084
1646.54
6.55124
1604.69
6.9426
1558.98
10.7452
1531.59
-0.814862
1514.04
0.656026
1495.73
14.6746
1479.97
23.9325
20.0523
298.916
497.351
-5403.53
598.031
-209.15
-630.685
1227.89
-181.694
-1114.46
1387.9
-81.7786
-372.738
1476.58
-134.002
200.469
1525.29
-84.7758
312.376
1512.71
-75.1401
466.515
1522.97
-55.2037
290.954
1505.41
-50.7092
231.224
1504.92
-58.8895
167.935
1502.19
-59.2028
161.363
1511.27
-61.8118
149.629
1519.89
-56.1695
145.529
1534.88
-51.3485
128.909
1554.55
-44.7973
111.067
1591.17
-41.9093
80.7573
1636.65
-34.9466
48.2942
1678.23
-26.0007
19.6087
1712.97
-9.40119
-22.4639
-0.665359
-12.7365
1866.79
-470.15
2889.99
1843.08
-329.408
-84.6703
1582.29
-7.41244
-443.405
1559.89
-53.2788
-451.698
1535.67
-109.519
-208.025
1525
-70.2144
-53.064
1399.6
-14.164
260.943
1286.91
13.3121
245.847
1205.04
-15.0834
179.599
1177.4
-48.8968
66.4413
1178
-66.7141
27.199
1190.41
-64.4946
-5.74514
1205.61
-54.2096
-22.62
1219.99
-39.9138
-45.6799
1233.66
-27.3262
-59.7203
1244.77
-17.7177
-76.4259
1252.41
-8.67039
-83.7111
1258.65
-2.01119
-85.2183
1263.95
9.11704
-85.4935
11.1866
-63.5888
1405.33
-726.434
-1021.71
1122.89
-257.289
574.242
1001.25
-217.046
90.7046
1000.87
-87.07
53.9109
924.773
-98.8941
258.985
862.354
-5.72964
16.8531
865.193
-29.3845
22.057
879.056
-4.81078
-33.6685
936.863
-76.9094
-6.63113
977.038
-87.9148
-18.0508
1021.13
-108.29
-13.1515
1047.54
-84.2277
-26.7097
1069.41
-69.2118
-29.6077
1083.52
-45.4432
-39.1674
1095.47
-30.8878
-39.862
1103.63
-17.4413
-42.4061
1108.63
-7.13634
-40.1756
1110.89
1.16413
-34.9811
1110.02
13.3136
-30.1302
14.7605
-23.3136
609.822
255.111
-1064.71
729.307
120.187
-441.793
927.164
18.368
-555.511
876.251
-5.3522
27.2607
843.059
-43.7442
15.2018
801.028
39.8958
5.42019
851.713
-78.8274
-3.28499
861.927
-19.1124
3.25941
917.136
-135.531
18.0092
944.195
-119.634
20.803
981.37
-148.971
21.7931
993.618
-95.4654
4.71159
1004
-77.5671
-0.520331
1004.98
-42.6896
-9.01138
1006.57
-29.0574
-10.644
1006.63
-13.4416
-12.3493
1007.25
-4.49389
-11.9251
1007.63
3.56915
-10.6884
1008.43
14.1985
-9.29129
15.178
-6.73965
1906.06
998.58
-1172.54
1353.51
140.956
381.096
1071.72
172.928
-140.819
991.83
17.599
68.9071
959.642
-29.9158
36.4868
940.303
52.1171
-5.7714
926.122
-63.5452
-42.5942
904.994
-0.612981
-29.3711
908.049
-141.63
-7.90956
924.63
-146.526
31.6756
960.195
-192.861
50.522
971.691
-111.622
24.9906
978.158
-86.7806
11.0923
978.403
-42.7762
-2.7773
981.91
-32.8018
-0.0189585
984.905
-15.5349
-3.18561
988.952
-8.03965
-2.49151
990.889
2.79927
-2.25894
992.184
13.1107
-1.60481
14.7665
-1.30338
1109.87
1334.67
-1844.31
792.868
384.088
19.3927
1350.02
183.738
-458.454
1391.91
22.1731
-40.4959
1395
22.9817
-119.239
1384.93
73.1919
-115.448
1330.01
0.579047
-87.2535
1236.77
74.1223
-50.0841
1133.42
-37.011
87.569
1055.46
-79.4447
152.155
1020.54
-182.79
138.484
983.02
-86.6756
61.7885
958.607
-67.2886
25.945
941.55
-28.0921
2.20367
938.698
-31.525
-4.43782
943.593
-21.1191
-5.26693
953.784
-19.1911
-4.88739
964.57
-8.44651
-4.41273
974.973
1.88485
-3.36109
8.03019
-0.307528
653.103
129.425
2931.89
937.535
125.59
383.149
1175.4
81.4985
-69.0766
1316.06
-53.0289
-168.73
1381.52
2.6111
-117.431
1390.25
97.0224
-112.98
1399.8
12.7729
-30.2436
-4.51255
12.2478
-5.97137
1371.89
19.9115
6.58039
42.848
19.4936
43.5531
1250.58
29.461
65.7497
16.5134
25.6541
7.31831
1114.75
14.7755
171.616
3.74229
4.68701
-1.89226
1013.54
-22.5005
192.462
-37.1019
-23.591
-35.0975
954.613
-16.3414
86.9245
-7.44058
-13.9185
-6.85908
928.431
-8.00014
24.5088
-17.1346
-7.81951
-16.5571
925.082
-7.80904
11.9293
-8.83518
-6.70532
-6.99121
929.319
-38.1043
0.774689
936.295
-30.719
2.7582
947.979
-32.8719
2.66435
960.163
-21.9404
2.34252
971.438
-10.4015
0.331531
2.0251
1.03415
390.398
479.011
653.973
972.358
311.227
-1027.07
1318.53
83.7158
-352.2
1381.52
-45.6626
-182.508
1470.84
-39.2204
-116.637
370.468
18.2118
-80.8307
380.175
349.81
361.333
40.6304
21.2832
48.6289
9.14997
383.365
12.1143
-21.3876
-6.64074
-379.502
401.985
4.73617
-0.666636
-19.8585
-418.097
435.962
24.5906
6.86408
-65.3489
-434.839
431.632
9.3149
74.0175
-69.1143
-398.751
347.156
1.7476
96.4612
-16.2702
-282.931
265.847
-8.87229
25.8848
1.08967
-248.025
249.005
-10.3547
0.284803
3.59086
-237.144
244.956
-15.9765
-3.23573
970.524
-10.3313
1.13176
-240.387
-249.03
-235.294
-242.351
-14.6316
-9.77936
-13.2674
973.714
-38.001
1.2516
980.282
-43.8368
4.64458
987.744
-34.2852
9.31176
990.717
-15.696
9.35797
1.46672
3.82645
-187.689
1393.89
-2345.01
569.973
379.803
-1281.86
983.342
59.7739
-784.468
1022.39
-37.4579
-137.231
278.737
-39.9653
-119.2
270.776
264.576
255.502
20.9072
325.545
-19.8292
-29.675
4.37778
-8.25323
-88.6226
93.6267
4.29814
-5.42678
1.71736
-99.8987
-0.245119
103.733
-3.14359
-2.16255
-5.47956
-111.773
-2.12914
116.494
-1.90151
4.78939
-14.8916
-117.705
-2.76704
118.746
1.00613
15.6119
-10.8364
-108.595
-8.43182
101.059
11.6431
15.1605
-7.20822
-75.6998
-7.2903
74.0285
7.97661
8.19313
-0.435237
-68.6012
-1.47649
69.6317
0.426026
0.455252
1.0577
-66.3934
1.04656
67.8039
-2.38676
-1.12802
-66.0797
3.88564
269.345
-15.4865
-3.80182
-66.8517
-65.2885
-66.0535
1042.29
-40.8604
-10.0714
-261.225
-269.693
-254.236
-261.634
1039.38
-49.6085
-3.236
1038.7
-42.4668
7.60201
1032.74
-14.2797
15.8885
7.08761
8.3404
1251.26
2193.45
2206.44
1225.39
471.051
-326.986
1026.8
-13.5211
-85.6627
1006.86
-64.0404
-4.41977
237.733
-22.4614
28.3343
238.081
229.012
229.854
20.394
16.6073
241.782
-15.0146
-26.0356
5.34174
1.20787
-61.1276
64.6203
-3.438
-6.60436
4.76598
3.1412
-68.6933
69.8676
-2.89487
-6.18659
13.6803
4.12716
-72.7316
72.8528
-3.33193
-14.5968
4.61196
-7.87691
-69.7054
67.2773
9.86347
-4.17041
-4.29407
-17.3998
-66.0692
67.4525
14.6389
5.67171
-3.3506
-8.01575
-72.5432
73.4932
6.73532
3.68108
-1.04321
-1.93439
-74.6675
74.6092
1.98024
1.05564
-0.569827
0.0537406
-74.1601
73.8418
0.341911
0.492486
-73.5905
-0.0375524
8.35748
291.452
-4.38991
-0.695453
-74.8216
-72.5148
-73.7601
1135.58
-16.2369
-17.6047
-290.705
-304.173
-281.311
-290.855
1112.07
-35.6999
-1.97569
1097.15
-33.6363
6.72842
1078.57
-1.0523
7.20893
18.1677
4.0378
1921.13
26.6604
-1737.83
733.809
497.882
734.017
900.848
-73.7486
-601.697
800.265
6.34082
-10.6983
184.694
39.3541
-18.8062
195.01
173.659
183.156
10.1393
-5.97523
202.587
-7.9436
-14.1137
0.411239
-0.301508
-53.4779
55.7234
-1.32654
-1.02866
3.06698
1.07881
-55.0531
54.5908
-0.263203
-3.42024
3.20857
-0.715558
-53.6179
53.6977
0.936172
-3.50896
-1.7634
-4.59646
-56.1865
58.1163
2.13322
2.29684
-3.29649
-5.41666
-65.6151
68.0443
2.41483
3.86907
-1.68663
-2.12566
-74.0104
75.4824
0.909645
1.43065
-1.47529
-0.629261
-78.9031
79.776
-0.287929
1.51957
-1.7059
-0.0627665
-81.9277
82.4217
-0.388975
1.66364
-82.7924
-3.90359
-1.80503
321.883
6.65091
2.91902
-81.4722
-81.3004
-80.1792
1167.45
16.1853
6.99186
-315.059
-304.423
-299.649
-292.604
1125.51
0.0043196
16.3843
1093.18
-1.90519
9.84769
1070.44
18.9181
1.27395
27.5038
-0.812633
-587.913
-224.386
-1186.71
-25.7965
-161.518
-153.32
650.929
-360.46
-305.765
720.445
-39.3725
47.0106
219.664
-18.4677
27.619
231.884
208.553
220.509
1.61815
9.89073
234.751
-17.5204
-9.07528
-1.87007
4.87439
-63.2334
66.3876
-7.60753
1.44899
1.05929
-1.95416
-67.5069
67.8434
1.77038
-1.21201
3.58741
-1.03488
-69.5799
69.9303
0.717294
-3.62016
-0.81355
3.16225
-70.2205
70.0002
-3.55506
1.4267
-2.83754
3.27619
-70.1939
70.2255
-3.78893
3.3187
-1.13987
2.25325
-70.8952
71.0373
-2.43481
1.17926
0.193023
1.97168
-72.0276
72.2334
-2.02994
-0.340565
1.68792
1.1933
-73.1857
73.3655
-1.13916
-1.92187
-74.469
8.46935
-7.79712
285.739
13.8304
-8.76473
-72.1651
-73.5184
-71.3249
1084.62
18.8741
0.66253
-287.691
-270.962
-277.503
-262.574
1053.61
26.2856
20.1722
1027.45
24.4596
14.5592
1019.22
27.3211
0.437894
26.8411
-0.385522
207.08
152.949
2483.04
610.851
2.71098
-452.065
611
-182.154
-666.4
665.689
-66.2884
-135.241
810.335
-127.569
-143.825
206.105
-282.269
2.9016
48.7154
80.7355
56.6607
87.2755
208.584
194.049
196.857
8.96141
-8.3008
222.84
-31.6582
5.8766
-0.576489
9.22712
-0.263941
2.6246
-4.04393
-231.711
236.301
-9.9201
4.55348
-0.522646
2.92107
-0.202563
4.14068
-14.8788
-259.986
259.501
-11.6025
18.5378
-0.203273
4.41436
0.0768082
1.87841
-24.0649
-254.054
242.739
5.91246
27.5529
-1.18759
2.12542
-0.901583
2.98387
-13.9681
-251.323
247.142
-2.11304
15.2032
-0.446405
3.01005
-0.487881
3.16571
-4.00306
-248.127
243.295
-0.892146
3.79182
0.0218433
2.9525
-0.204978
3.12443
1.69005
-250.652
247.469
-0.52784
-2.88734
-0.341046
2.78524
-0.660482
2.12579
4.4715
-250.649
245.92
5.67313
-6.73733
-1.15738
1.77877
-1.42617
966.609
12.6241
-4.62754
-3.3599
-8.10887
-4.51627
-8.08975
-249.344
-237.369
-242.544
-231.321
966.752
15.0906
5.03076
962.985
30.4092
5.29856
962.182
26.3254
-0.145597
967.77
21.1043
-1.80708
17.1245
2.20086
1203.21
-809.23
660.831
879.883
114.402
368.151
882.379
-262.317
-527.117
935.635
-145.341
-102.894
1002.33
-184.74
6.35096
914.508
-187.831
5.2493
893.436
-0.257148
8.1246
29.1652
-7.21055
24.8018
-8.91681
869.536
-164.711
58.7484
36.4561
51.0496
42.2535
54.2973
892.058
-53.8413
31.3407
23.4412
-6.74081
21.903
-6.838
910.55
-100.726
48.7409
14.7163
21.2063
16.7998
21.6379
924.095
-42.3233
25.0142
14.3187
-0.475587
13.1097
-1.75863
926.861
-51.6602
19.6596
13.2968
11.0591
12.1691
9.70335
927.265
-13.0713
13.6259
9.32083
-1.56545
7.31207
-3.00205
927.743
-10.4572
8.47272
5.14864
0.604456
3.90379
0.0640009
927.665
10.2267
2.07795
926.31
16.3836
-3.17652
931.098
26.1919
-7.02251
936.332
21.7877
-9.88527
945.928
10.5019
-7.82775
6.81384
-0.749646
1542.64
-577.805
415.478
1059.07
-91.0023
984.258
1028.7
-290.512
465.405
946.841
-79.1144
172.377
879.942
-87.4943
106.542
806.801
-95.3336
-41.7963
871.832
-63.8769
-46.5395
857.667
-147.303
-50.3588
897.755
-101.364
-17.2637
915.201
-124.425
-5.29214
936.2
-69.3214
11.0262
942.01
-61.6012
10.4124
944.493
-18.0565
16.4926
941.632
-7.00721
14.3361
941.946
9.29672
9.42132
944.832
12.5819
2.64852
951.904
19.8598
-4.48806
960.594
13.4627
-11.726
965.672
3.57107
-10.4193
2.88713
-7.18764
972.734
-251.445
3037.08
1531.33
-219.228
-133.241
1619.61
-156.217
-274.62
1588.18
22.1583
-97.3609
1413.28
97.3109
-1.69205
1295.31
23.2302
-16.1338
1194.88
19.4368
-8.28919
1125.54
-77.7885
-40.0591
1074.6
-60.9749
-10.1386
1036.45
-90.4556
-8.53845
1013.22
-50.8767
3.43166
997.008
-47.1967
-5.26844
990.795
-14.9806
0.881786
988.697
-7.28948
-0.235624
991.323
5.73983
6.28907
995.202
9.27406
0.460538
1000.53
14.5543
-1.0291
1004.73
9.96668
-5.67919
1003.29
4.26263
-5.55643
4.30561
-5.59419
343.42
-1057.9
704.738
797.662
-275.985
-566.917
1058.39
-0.654266
-366.796
1057.45
132.92
-123.931
1057.11
133.59
-30.117
1054
49.9097
-47.8409
1070.42
9.23243
-9.75932
1046.83
-54.7206
-20.026
1027.86
-45.2042
15.3972
998.55
-61.7019
4.23741
984.56
-38.4007
7.12072
974.531
-37.0098
-3.80611
978.217
-20.2987
-2.61289
985.188
-15.9376
-3.58997
996.762
-5.45759
-0.944306
1008.73
-1.72218
-4.51837
1019.67
2.02758
-3.24925
1026.87
2.44976
-2.13793
1028.29
2.20139
0.172018
3.90098
0.851645
2317.22
84.3792
152.455
1855.36
-174.095
603.992
1475.46
181.459
420.056
1348.44
215.637
114.141
1298.46
176.05
55.5011
1274.75
67.6966
-13.1647
1233.95
43.1316
19.2833
1178.1
-1.80973
21.6854
1121.91
5.04128
49.851
1070.47
-3.89611
15.3895
1039.86
-4.27606
10.1117
1021.67
-16.3631
-4.21396
1018.68
-18.1716
0.291425
1023.26
-20.675
0.694073
1034.46
-18.1947
6.01023
1045.87
-14.7143
4.2755
1056.57
-9.1717
4.17935
1064.2
-3.79518
2.43349
1066.86
-0.0825979
3.1247
3.06898
2.46546
1592.72
277.231
-1804.64
1299.7
286.866
-11.7714
1138.31
291.319
270.854
1101.41
280.405
127.507
1112.19
171.643
210.717
1133.09
81.9227
47.4807
1160.95
35.5176
71.4655
1159.49
25.1236
19.8736
1158.94
20.756
23.4352
1150.46
18.422
-7.45713
1144.56
8.91642
-9.11605
1137.62
2.38114
-18.9741
1136.14
-6.90959
-1.29051
1136.23
-10.4642
4.84644
1138.61
-16.8003
13.8553
1141.16
-15.7102
15.6713
1142.91
-11.1697
16.1054
1144.65
-5.05656
11.0515
1145.01
-1.23578
5.7601
1.94399
2.36216
1524.99
1697.94
1689.36
38.5854
1630.72
446.76
1692.81
340.375
1640.67
376.43
1610.14
220.861
1551.08
206.373
1531.01
115.639
1520.35
81.6031
1528.66
24.7348
1533.19
11.6525
1537.8
-1.37606
1530.86
6.5868
1520.16
7.17326
1497.19
16.9156
1469.8
10.8706
1442.59
16.6906
1426.41
25.8044
1417.7
31.4005
24.7142
628.577
-1278.29
-3475
1020.87
-471.193
-551.787
1003.74
-245.782
-851.553
1026.43
-124.889
-270.54
1174.66
-113.104
165.348
1281.8
3.94753
201.289
1370.08
8.53736
369.699
1436.99
2.89539
221.151
1458.07
-10.6755
220.82
1480.28
-23.2902
169.008
1496.94
-22.7113
167.418
1522.77
-23.7323
147.528
1545.56
-18.1987
140.941
1575.77
-14.4203
113.12
1615.88
-7.10846
78.0661
1666.22
-1.91446
32.3256
1697.24
12.0974
5.18362
1701.02
21.7814
-5.95466
1681.28
30.6625
-33.386
27.7877
-24.9819
2609.02
-1385.87
5874.15
2235.76
-363.724
181.127
1561.4
-32.2326
17.396
1245.72
-91.4685
-169.432
1094.48
-109.465
-60.4294
1054.24
-10.6815
1.80697
1055.45
28.0798
240.196
1069.94
41.727
192.516
1085.99
15.2065
137.668
1096.77
-10.0012
42.3762
1114.55
-25.4899
12.2012
1131.64
-24.5155
-22.0508
1148.47
-17.6793
-39.9779
1161.24
-8.22708
-64.6388
1173.65
1.02975
-80.2657
1183.58
4.36044
-92.6373
1189.65
10.3317
-88.0122
1191.7
13.3935
-78.8765
1186.23
19.8714
-69.2388
17.0719
-47.6388
584.682
-321.575
-3445.83
447.896
-141.591
488.895
674.216
-229.993
62.1444
669.139
-96.671
64.191
730.28
-117.151
205.53
713.287
7.38149
15.783
771.454
-33.8168
25.7861
792.523
8.91164
-21.9221
854.434
-54.4599
1.12441
891.04
-53.3068
-11.3514
935.773
-73.1829
-10.191
959.82
-52.3043
-22.9685
980.913
-43.1313
-25.2481
991.603
-24.8421
-33.2432
1001.09
-14.4808
-33.8389
1004.61
-6.0522
-35.5117
1005.29
0.630799
-31.1537
1004.69
4.46956
-25.4576
1000.99
14.5007
-21.0598
13.3443
-16.3509
1026.51
249.868
-1593.31
1029.77
63.8206
-650.46
829.929
-46.0957
-539.569
771.85
-28.8633
17.5317
734.285
-71.2532
6.86992
697.511
36.1998
13.376
755.306
-92.8754
-2.02179
760.022
-2.30084
9.75578
820.466
-111.883
14.9886
847.846
-76.8772
16.9938
889.612
-108.732
15.5757
903.168
-62.1888
1.04017
915.892
-54.0649
-2.31057
916.81
-25.584
-9.18787
918.771
-17.5033
-9.58217
917.24
-6.04187
-10.8286
916.017
-0.531506
-9.54049
914.789
3.76824
-8.75904
914.936
11.7564
-6.69304
11.2406
-4.65724
1088.78
285.83
87.8778
1181.12
-38.1199
390.701
874.616
125.406
-5.82094
822.648
3.70505
88.3071
799.23
-44.7156
33.3667
770.823
54.1756
4.66005
771.728
-106.553
-29.8211
757.483
-4.28819
-13.1392
787.481
-145.923
-3.86783
816.143
-101.631
27.7668
862.392
-141.979
37.5205
879.523
-71.6916
17.3622
891.2
-62.6993
8.0499
892.423
-27.1973
-2.38681
895.722
-21.0589
0.237102
895.886
-6.89594
-2.49498
897.1
-2.70015
-1.53794
897.475
3.7338
-2.59952
898.581
10.1456
-1.09985
10.3708
-0.439385
1701.45
540.896
-382.778
1400.26
149.85
132.614
1249.82
177.97
-360.582
1203.4
33.7644
-24.132
1099.22
33.258
-93.038
1025.14
86.0369
-73.2304
949.429
-57.416
-60.6763
859.735
59.1298
-23.8079
841.99
-97.3788
56.7699
851.005
-67.8894
109.399
881.296
-133.605
99.8188
880.088
-51.8392
43.1448
876.896
-50.9115
17.3496
867.737
-17.1242
1.28892
865.083
-20.4914
-2.3514
867.422
-11.1229
-3.37885
873.483
-10.5349
-3.11454
879.709
-3.97713
-2.92738
886.049
2.06305
-1.61945
5.80955
0.641332
708.448
-185.862
5289.7
997.566
49.8894
193.992
1058.94
83.665
-36.146
1122.06
-44.1388
-153.944
1112.98
24.9489
-100.042
1045.49
132.769
-92.2207
1006.08
8.00741
-27.7839
-13.5864
4.12695
-19.0184
940.041
19.1908
4.33591
44.577
18.963
44.6844
870.127
16.4582
39.7049
-7.98988
9.55777
-19.4452
850.568
-4.81522
141.051
-5.03866
-6.62261
-1.28853
860.151
-18.33
141.601
-29.8981
-16.0759
-28.0235
857.485
-9.84386
61.9465
-3.67353
-8.04024
-2.63737
856.08
-6.80407
17.7647
-15.0395
-6.49606
-14.4234
857.269
-5.02814
10.4707
-4.9609
-4.07049
-2.79462
861.141
-25.2741
1.68502
865.705
-16.5624
3.63317
873.507
-18.6889
3.01679
880.625
-10.8047
2.05131
887.051
-4.6461
0.615065
2.67717
1.38626
86.0856
52.636
1143.72
960.744
221.196
-2073.03
1206.48
85.4851
-599.759
1204.91
-34.8115
-190.26
1232.38
-8.73231
-110.424
291.847
27.4044
-62.267
303.839
270.822
282.728
65.2832
33.1049
71.5518
18.1116
295.771
11.6582
-25.6862
6.52576
-280.421
295.24
7.6145
-9.76826
4.66579
-304.676
313.159
16.0977
-12.7877
-81.0569
-300.393
296.305
-3.86327
84.1932
-106.997
-277.727
266.303
0.50227
99.5886
-28.9327
-241.154
240.648
-8.8938
28.4889
-0.898657
-229.197
232.417
-10.3602
1.23509
2.81894
-221.314
228.835
-13.6658
-1.70252
893.916
-7.82502
8.70557
-223.314
-229.985
-216.515
-221.944
-11.16
-6.90281
-9.11966
894.854
-21.3374
5.08928
898.494
-24.3397
6.6546
902.844
-14.8415
8.99835
903.266
-3.21975
7.50939
5.11715
2.86716
156.512
425.027
1457.35
713.368
220.791
-1838.31
849.337
54.8068
-889.759
848.954
-27.5164
-144.144
230.473
-18.3763
-130.536
221.839
212.942
204.68
29.327
264.976
-4.32282
-32.1027
5.35269
-9.45412
-72.0283
75.564
6.77177
-6.20607
3.94247
-78.0157
-2.70162
80.9407
0.260949
-4.42676
-0.455034
-86.2542
-4.23303
89.3397
2.28346
-0.680916
-15.4569
-87.7924
-4.16541
88.0414
4.38619
14.9872
-26.1496
-73.7211
-11.2768
71.653
12.9625
26.532
-9.1774
-65.0869
-4.16605
65.8522
4.08912
8.48902
-0.420047
-63.058
-0.905922
64.2445
-0.213257
0.352737
1.18751
-61.268
0.881033
62.6759
-2.3686
-1.1078
-60.9469
3.56087
247.714
-13.8779
-1.98582
-61.6494
-59.991
-60.6489
942.246
-29.9838
4.16645
-238.574
-245.424
-229.672
-234.167
939.008
-29.4693
5.13162
937.688
-17.0805
11.1607
933.285
4.11674
12.9553
12.7095
5.592
210.9
896.014
1137
843.547
191.332
-930.174
753.299
-12.4946
71.8873
782.999
-52.2463
-9.38943
203.004
-25.7402
25.4348
204.768
191.176
194.314
24.0634
7.8145
208.812
-13.477
-24.2095
7.5554
-1.42349
-53.8055
57.0184
-1.59632
-7.74845
8.51305
-0.120308
-59.4304
59.8
-0.149085
-8.61323