/*--------------------------------*- C++ -*----------------------------------*\
  =========                 |
  \\      /  F ield         | OpenFOAM: The Open Source CFD Toolbox
   \\    /   O peration     | Website:  https://openfoam.org
    \\  /    A nd           | Version:  10
     \\/     M anipulation  |
\*---------------------------------------------------------------------------*/
FoamFile
{
    format      ascii;
    class       surfaceScalarField;
    location    "9.8";
    object      phi_0;
}
// * * * * * * * * * * * * * * * * * * * * * * * * * * * * * * * * * * * * * //

dimensions      [0 3 -1 0 0 0 0];

internalField   nonuniform List<scalar> 
38556
(
271.403
1040.24
-503.595
786.183
111.465
-626.245
1470.28
28.7307
-712.824
1790.86
-21.3123
-299.269
1820.76
-190.194
160.291
1789.77
-250.299
281.293
1646.96
-239.662
382.473
1583.24
-181.314
245.036
1559.19
-138.22
162.264
1585.56
-134.901
108.533
1610.78
-125.698
100.477
1637.69
-125.117
98.2063
1655.23
-116.629
99.0893
1672.44
-109.901
92.695
1688.96
-101.966
85.4452
1708.7
-94.9269
75.1863
1739.37
-89.135
58.4596
1781.32
-76.6913
34.7437
1837.82
-59.2773
2.77552
-42.7545
4.37042
1505.01
2573.77
2893.89
1397.94
495.402
-276.871
1676.36
316.301
-565.985
2062.15
49.8016
-456.912
2230.74
-148.914
-209.863
2227.76
-200.658
-46.6658
1915.11
-132.982
205.968
1604.81
-76.9025
205.895
1421.7
-87.1223
132.006
1371.02
-132.863
48.6418
1377.22
-153.046
21.1494
1395.77
-147.928
4.26172
1415.8
-131.674
-4.98882
1434.17
-108.631
-19.6328
1450.86
-89.8668
-28.7904
1464.88
-67.907
-41.0385
1476.66
-51.3767
-49.5374
1489.29
-34.4536
-54.8674
1506.26
-14.9408
-61.3121
-5.62027
-48.2379
1062.63
1067.43
-3205.7
733.644
438.51
385.876
1369.06
-77.5947
-241.517
1502.51
-100.19
16.5403
1304.71
-139.842
188.729
1152.14
-60.9685
12.8805
1077.74
-63.5474
4.96138
1097.62
-55.2136
-41.5644
1163.72
-140.922
-12.2988
1215.93
-167.603
-17.4686
1264.41
-190.591
-10.9344
1297.75
-160.58
-20.6892
1326.36
-136.744
-23.5409
1350.58
-101.521
-31.332
1371.3
-78.8026
-31.7892
1390.68
-53.0352
-34.2457
1407.06
-34.1608
-33.5927
1416.65
-14.9472
-29.1024
1421.89
6.16915
-26.3527
13.9552
-20.8876
876.015
574.543
2922.58
1038.84
203.709
71.9719
1162.14
-21.0089
-179.877
1095.01
-79.5085
46.4456
1038.09
-112.674
29.7465
1007.13
-26.0011
-3.9985
1077.98
-130.564
-3.84059
1112.46
-86.9786
-2.71152
1169.13
-211.275
13.681
1202.66
-216.923
15.7902
1239.09
-245.104
18.085
1253.95
-180.858
5.41668
1266.31
-150.128
1.02459
1272.4
-101.662
-5.95044
1278.54
-77.3322
-7.60707
1283.73
-49.784
-8.44699
1289.94
-31.634
-8.72793
1294.77
-11.9695
-7.80782
1299.31
8.69164
-7.06375
16.228
-5.39104
975.284
1005.11
-2718.58
1106.83
295.169
-223.002
1200.67
132.602
-247.454
1189.67
-70.8187
2.30701
1192.37
-132.293
16.9203
1209.65
-28.4843
-14.7981
1235.64
-110.087
-46.4696
1225.91
-30.4806
-46.7626
1208.43
-180.006
-13.7916
1210.16
-239.766
21.1146
1234.67
-311.406
41.7937
1243.03
-208.868
19.6444
1250.5
-165.255
7.66413
1256.44
-104.581
-3.02071
1265.8
-86.2204
-0.471187
1277.24
-58.965
-2.26738
1289.75
-42.2106
-1.92682
1296.58
-17.374
-1.43223
1299.71
6.62071
-1.05521
16.5508
-1.55802
1777.63
1555.32
782.994
1684.75
303.866
84.179
1716.47
6.87431
94.0093
1828.1
-198.652
16.2052
1917.54
-161.62
-60.1116
2020.11
-38.5097
-92.5432
2061.28
-69.1483
-82.113
2005.31
79.9289
-54.4333
1752.36
-2.39268
75.3359
1485.97
-111.569
138.191
1357.36
-294.358
111.564
1272.41
-172.643
48.7173
1223.74
-136.992
20.414
1202.22
-82.871
-0.196864
1204.02
-82.0339
-5.97876
1216.42
-65.3715
-5.99896
1237.6
-57.6082
-5.78006
1260.59
-35.3109
-5.05189
1282.42
-11.0162
-4.19375
6.57693
-1.39776
1073.35
-1061.35
1445.05
1390.59
-424.973
411.6
1525.4
-197.792
69.8516
1735.29
-304.204
-104.335
1874.06
-235.401
-64.9896
1974.54
-73.4769
-65.5148
2037.54
-32.8362
6.98443
-32.5281
-39.423
-34.3472
2056.55
-16.244
33.3445
28.432
-13.2614
28.6489
1881.59
20.6214
78.9004
27.401
20.1167
25.5317
1603.05
8.82302
128.347
14.6768
3.88305
11.2403
1365
-55.7754
154.343
-50.982
-53.9309
-49.9668
1237.88
-44.3297
68.637
-12.499
-43.7937
-13.5383
1191.22
-30.4814
15.7
-22.3772
-31.128
-22.0406
1187.91
-31.5833
7.00779
-13.1549
-30.058
-11.7746
1196.39
-89.4513
-1.06866
1207.95
-77.1166
0.187478
1226.65
-76.8861
0.5806
1249.84
-59.3338
0.833066
1273.03
-33.7286
-0.481109
-5.57222
0.194436
2039.29
-212.675
2927.77
1826.61
-3.69174
-208.598
1752.17
-90.1601
-33.1865
1820.11
-260.615
-111.537
1924.35
-268.622
-71.0201
495.415
-47.2375
-58.9941
496.04
503.861
498.289
3.76128
-46.5791
6.3226
495.11
-27.4828
-5.04863
-497.6
518.047
-40.1015
3.41017
-538.095
543.318
2.48237
12.9161
-537.284
511.531
-5.31618
39.8923
-467.958
402.623
-23.371
32.9304
-347.429
320.694
-24.1549
6.56011
-310.211
304.631
-23.303
-1.59879
-303.048
303.487
-29.846
-2.17677
1254.74
-30.9151
-3.81273
-307
-322.617
-302.71
-314.936
-16.1744
-30.3821
-15.6398
1260.28
-80.0963
-2.56264
1271.99
-88.6956
0.10315
1286.96
-78.5246
4.21364
1298.56
-52.6177
7.29631
-13.0754
2.84691
718.52
491.725
-3698.09
1024.93
49.7191
-359.825
1420.56
-143.812
-341.972
1484.53
-241.895
-82.6942
389.473
-217.886
-82.7501
366.929
388.737
371.408
431.468
-71.4932
-17.7399
5.22261
-120.03
122.329
-6.47557
-1.04584
-133.124
17.5189
135.373
-19.6502
-0.118262
-142.847
15.1038
145.101
-21.473
4.11529
-145.6
12.2179
140.877
-15.0124
7.51778
-112.95
-3.97177
107.854
9.46864
-0.400095
-95.287
-4.01555
91.8006
6.83215
0.669823
-86.7383
3.79861
85.5807
-2.60402
-0.0369951
-85.1366
6.42841
84.6194
-5.57003
-0.341131
-85.031
336.288
-25.383
-0.871588
-86.5344
-84.108
-85.2747
1349
-68.2653
-16.9861
-334.691
-343.471
-327.837
-337.846
1353.67
-82.0625
-11.3088
1359.32
-83.5187
-0.652307
1356.93
-62.153
11.9239
-16.3434
7.46833
-337.408
-164.306
-1128.1
598.1
-771.911
-113.879
1191.29
-444.702
-292.302
1303.02
-307.823
-45.8018
329.554
-170.606
-39.2813
316.583
328.513
320.373
63.0206
330.502
-46.0576
-17.9112
11.5889
-83.2194
84.3862
-11.429
-1.32668
13.5552
-86.3416
86.8262
-13.7563
-0.283469
20.8539
-90.7375
93.4218
-17.4091
-6.12912
-2.61945
-86.9611
83.7458
7.03543
-1.20064
-16.5078
-86.1973
88.4914
13.8171
0.396631
-5.58431
-94.3607
94.8672
3.99036
1.08743
0.768654
-96.1866
96.0309
-1.2288
0.615873
2.59868
-94.7599
94.0607
-2.27617
0.376744
-92.3257
16.1788
366.309
-13.4254
1.60444
-93.8578
-91.1547
-93.3283
1481.49
-33.3467
-24.5273
-367.834
-384.729
-360.423
-378.896
1463.56
-52.5024
-11.6241
1448.7
-69.3725
0.712185
1431.11
-46.5808
2.01142
-5.85871
1.95488
-53.2417
-1413.11
2963.4
586.642
-981.366
-430.428
1231.62
-574.881
-514.795
1225.85
-251.408
-50.6428
283.44
-56.1314
-40.6423
286.014
289.951
292.607
20.6781
300.323
-27.8083
-9.75309
8.16571
-76.3061
75.7887
-6.8464
-0.801841
9.01158
-75.9318
75.0688
-5.67157
-2.477
7.42928
-70.875
70.2233
-5.2405
-1.53702
-0.0287583
-73.8129
76.8113
-3.23345
0.263732
-0.179781
-85.9441
88.4498
-3.28499
0.959054
3.41892
-94.382
95.894
-5.34378
0.412838
5.47756
-99.9383
101.03
-7.25415
0.685283
6.47756
-103.755
104.637
-8.34712
0.987654
-105.396
15.6015
413.294
-18.5591
6.19789
-103.927
-104.208
-103.004
1555.66
-1.65451
-6.96757
-404.907
-396.064
-393.651
-385.766
1507.98
-13.4175
8.60364
1457.69
-27.7595
8.66846
1425.08
-12.4606
-1.50452
12.1195
-2.63351
1635.73
98.298
-2698.85
1668.59
-693.672
-320.547
1578.29
-617.545
132.958
1505.85
-253.587
74.6243
355.213
-88.7599
118.854
348.479
357.53
358.401
40.2792
346.95
-28.1991
-3.81779
5.7945
-90.0435
90.9309
-7.77974
1.0978
-1.27726
-89.9108
89.7623
1.66014
-0.234379
-0.260956
-92.6885
94.6964
0.091293
-1.83827
11.2022
-94.4628
93.7543
-10.5864
0.092758
10.8948
-94.6148
94.728
-11.1734
0.165388
9.41406
-94.1374
93.3987
-9.15306
0.477701
9.48302
-92.0984
91.6089
-9.15615
0.162633
9.19056
-91.072
91.0392
-8.66115
-0.49657
-92.0281
18.1366
363.801
-9.2778
-7.06376
-90.8305
-92.1182
-90.6191
1459.41
-7.64817
-5.28387
-373.219
-357.83
-366.202
-350.882
1416.81
11.0535
18.1301
1365.95
8.30224
14.7969
1344.34
8.73259
0.419895
16.1785
-1.71807
2057.43
2262.22
3187.75
1168.27
83.6779
111.804
1219.44
-176.119
-492.599
1189.16
-83.8478
-139.451
1337.45
-140.028
-97.0205
347.634
-332.054
-16.3245
51.2322
106.098
52.3275
109.51
343.4
339.811
335.813
11.1443
360.462
-50.5034
1.49767
6.71606
11.2666
7.05098
4.09309
-375.999
374.925
-24.2074
2.40947
7.27892
4.28919
7.2102
6.01949
-392.446
386.607
-28.447
8.22734
7.19784
5.78168
7.06007
1.09555
-374.456
349.308
2.47979
11.5311
4.05587
1.58281
4.40204
2.72647
-353.526
343.992
-18.1332
8.482
6.2617
3.53732
6.65941
5.49128
-341.738
331.946
-19.73
2.19428
8.39666
5.31943
8.12086
6.24132
-337.531
331.538
-21.3318
-1.07451
8.4599
5.75895
7.93936
5.30113
-334.314
326.833
-14.2222
-2.62651
7.45898
4.70663
6.86262
1305.62
-36.5292
-7.76275
2.42472
18.1572
-1.58462
13.9748
-330.319
-322.599
-324.194
-317.187
1303.36
-8.27132
2.87857
1293.57
14.2996
6.54765
1284.32
16.3093
1.24441
1282.86
12.3223
-2.13604
10.2218
0.168481
1423.26
763.735
-1833.49
1184.6
165.125
157.205
1669.98
-33.7916
-627.709
1652.22
30.0278
-96.114
1582.16
-90.8952
20.9344
1446.44
-202.605
6.26743
1353.97
-40.9702
8.25797
44.3188
20.1954
42.7702
17.9013
1301.07
-228.7
52.9093
36.0102
74.2518
38.8969
79.5308
1306.91
-139.538
33.1952
28.8618
19.6669
31.0349
20.9412
1315.69
-180.667
41.73
12.6969
49.89
16.3428
51.2202
1320.27
-127.841
19.4843
20.9182
32.2842
20.1148
30.4606
1313.76
-128.881
15.3183
19.8802
42.2616
18.0165
39.9206
1301.68
-84.2625
10.8903
16.9806
28.4244
13.8179
26.2277
1293.76
-66.7152
6.84087
9.54662
26.7817
6.98309
24.4778
1278.41
-21.1749
-0.000296344
1268.82
5.72888
-4.41106
1269.9
19.0108
-5.78624
1270.9
24.0805
-8.77119
1276.81
14.5238
-8.11522
6.58461
-3.3725
3027.05
-127.615
-1556.31
2346.51
467.528
378.134
1814.97
120.004
377.742
1595.25
105.648
144.107
1389.79
-10.9492
125.514
1271.17
-43.6028
-40.3827
1319.3
-40.4474
-48.6614
1296.76
-157.281
-48.8758
1328.72
-146.057
-25.4374
1343.12
-183.485
-11.5829
1354.92
-144.987
5.3423
1355.81
-135.544
5.77498
1345.46
-87.3313
13.4225
1324.56
-60.5512
14.7282
1309.2
-14.0496
8.24171
1304.1
8.96315
1.85891
1306.8
20.1784
-3.86683
1318.36
24.1511
-11.6302
1329.43
15.8628
-12.4099
10.9546
-9.07379
2436.57
-3.49894
3613.75
2269.23
312.171
322.7
2272.7
123.66
-7.12485
2235.5
133.671
9.18029
2022.48
152.482
49.5803
1860.13
101.753
16.9982
1740.24
81.573
-2.12988
1655.7
-17.3946
-55.3495
1583.82
-48.967
-25.2099
1522.88
-109.923
-12.6232
1470.55
-90.6721
-1.97917
1434.5
-91.7818
-7.71488
1411.8
-61.4483
-3.1845
1398.17
-43.9149
-3.00646
1391.8
-12.4869
4.80662
1388.33
10.145
2.28783
1387.42
22.063
-0.974019
1390.33
25.1021
-3.86109
1390.36
21.5046
-5.66576
19.3207
-6.60667
1994.33
998.362
-1060.85
2014.49
412.04
-120.029
1880.12
197.228
60.805
1752.25
274.093
-12.554
1636.08
260.572
8.07773
1602.15
163.407
-27.7205
1583.95
102.494
-2.71902
1547.99
28.7654
-10.2017
1495.71
-6.30504
9.62261
1442.08
-58.5822
2.29003
1402.41
-56.3103
5.30116
1377.22
-62.774
-3.81109
1369.13
-48.8266
-4.5331
1369.29
-38.3252
-5.75157
1380.76
-20.9987
-2.95471
1395.48
1.99314
-6.57508
1407.27
14.8079
-4.53578
1413.08
21.1715
-1.88059
1413.57
21.3766
-0.358372
20.4513
-0.0108671
2859.99
510.51
1494.79
2692.9
270.76
308.367
2265.58
409.173
215.385
2069.37
399.414
70.8804
1918.64
367.075
44.2322
1867.69
239.77
-25.4188
1794.16
169.701
6.32719
1707.06
87.521
28.3468
1594.22
51.7138
54.8145
1501.04
14.9296
19.6755
1438.12
-2.90951
9.5144
1406.52
-29.4815
-1.69466
1394.16
-36.1658
-0.300139
1393.29
-37.6973
0.247458
1400.4
-32.3291
4.22341
1416.05
-18.9004
5.23611
1431.05
-3.59908
3.40922
1440.26
8.37242
3.59344
1443.57
14.0621
4.00237
17.2514
2.47516
1643.37
-308.492
2668.29
1675.32
17.0238
221.789
1668.19
149.587
266.718
1680.08
216.323
171.2
1652.44
173.561
221.147
1676.23
134.199
81.7894
1660.42
91.5848
93.9216
1632.87
72.7227
42.3483
1596.15
51.0229
37.4136
1571.04
31.0269
9.01378
1555.24
9.88673
3.00367
1541.97
-10.0605
-6.15445
1531.1
-33.8163
8.52145
1518.66
-40.1008
14.8429
1507.83
-39.0781
17.5777
1503.04
-31.577
17.4632
1502.28
-19.5421
16.705
1503.97
-5.58434
12.2719
1505.55
6.86525
5.61234
13.5793
1.89134
1793.1
1221.31
1854.31
-44.1851
1856.61
147.286
1935.99
136.939
1955.58
153.974
1982.04
107.735
1961.53
112.104
1964.75
69.4947
1966.27
49.5012
1983.55
13.7546
1986.7
6.72966
1977.11
-0.462738
1936.13
7.16166
1888.6
7.42496
1839.11
10.4134
1808.28
-0.743989
1787.43
1.30797
1766.58
15.2591
1748.91
24.5444
20.4159
-131.714
6.4231
-5910.57
483.738
-299.219
-942.478
1150.18
-225.185
-1154.08
1357.4
-125.114
-381.374
1488.18
-174.417
203.929
1571.01
-119.241
317.703
1585.91
-103.897
471.467
1618.74
-78.9759
291.18
1619.59
-70.8498
232.268
1635.66
-76.4847
168.943
1646.48
-73.8647
163.527
1667.41
-74.1303
151.403
1685.94
-66.0019
146.56
1708.57
-59.3236
129.385
1734.47
-51.0419
110.592
1776.38
-46.8284
80.1011
1825.67
-38.4027
47.5751
1869.81
-28.2217
18.8237
1905.51
-10.5014
-22.4245
-1.06495
-12.4169
1632.79
-567.352
2794.56
1617.68
-427.059
-133.921
1468.76
-143.384
-498.866
1523.22
-164.494
-471.987
1552.12
-198.645
-214.535
1575.74
-139.242
-50.2844
1475.3
-72.4334
274.942
1383.33
-35.2129
254.104
1320.65
-57.1567
180.988
1309.98
-84.049
66.8771
1324.54
-95.2569
27.9773
1348.46
-87.9588
-5.82516
1372.95
-73.3989
-22.0776
1394.21
-55.7011
-44.5168
1413.59
-39.8542
-59.3617
1429.28
-27.6895
-75.8664
1440.18
-15.9676
-82.8696
1448.45
-6.63013
-84.7288
1454.9
6.31691
-84.5889
10.0203
-63.0389
1066.6
-1249.89
99.1491
1010.91
-583.753
598.258
945.735
-413.735
94.0099
995.679
-247.423
49.5251
959.491
-226.158
252.431
925.089
-102.906
10.9476
953.931
-111.627
15.3124
988.38
-71.7856
-39.4411
1063.73
-134.91
-9.89394
1117.72
-136.012
-19.4945
1173.69
-148.136
-14.024
1209.55
-116.613
-27.8953
1239.44
-95.8018
-31.0296
1260.45
-66.9856
-41.0586
1278.12
-48.3971
-40.9185
1290.6
-31.2164
-43.2013
1298.77
-17.3684
-40.3526
1302.7
-6.20682
-33.4597
1302.84
8.88098
-29.0598
12.9847
-22.9055
526.71
-227.19
-2311.53
734.902
-239.392
-480.582
920.497
-216.433
-562.775
903.685
-206.15
21.9852
904.143
-206.099
9.22947
878.812
-78.9597
-2.61459
954.947
-185.233
-6.36868
981.394
-102.343
1.39781
1052.78
-209.34
16.7209
1092.33
-180.102
20.337
1140.38
-199.489
21.3886
1160.98
-136.113
4.31161
1178.67
-111.286
-1.18023
1185.72
-69.8411
-10.1447
1192.44
-51.1607
-11.5618
1196.39
-30.7405
-12.8673
1200.06
-17.6373
-12.1318
1202.35
-4.98526
-11.3207
1203.86
8.58858
-8.27964
12.8569
-6.68873
1949.09
545.863
-2230.03
1380.44
-167.154
273.415
1107.56
-64.8845
-126.125
1054.27
-210.968
60.4145
1048.62
-218.783
35.2589
1043.2
-81.9223
-6.41262
1051.01
-191.865
-47.6474
1038.33
-97.0947
-39.3363
1055.59
-229.257
-11.1302
1083.54
-217.85
30.904
1128.43
-252.536
49.9601
1146.66
-158.774
24.0675
1159.48
-126.601
10.1668
1165.13
-75.0403
-3.47326
1173.26
-59.1607
-0.601481
1179.66
-36.1367
-3.27834
1185.96
-23.6784
-2.17626
1189.64
-8.0315
-2.06876
1191.4
6.5197
-0.748976
12.1596
-1.82758
1114.71
717.716
-1473.59
823.972
71.1679
136.59
1423.78
-104.975
-465.705
1497.64
-234.801
-33.824
1520.07
-186.18
-115.149
1512.98
-55.8375
-111.531
1476.91
-148.315
-89.5982
1386.2
-13.7143
-47.1072
1291.76
-139.135
79.6585
1223.91
-162.138
150.33
1198.05
-251.546
136.432
1167.02
-139.758
60.7361
1148.39
-112.611
25.0494
1135.82
-64.8931
2.2212
1136.47
-61.4568
-4.32415
1144.02
-44.2785
-5.40923
1155.86
-36.5253
-4.77736
1167.76
-20.6499
-4.32936
1179.07
-5.51426
-3.46736
5.34846
-0.774478
913.57
-121.147
2959.41
1128.46
-118.625
386.498
1338.94
-154.167
-91.4292
1471.69
-299.869
-172.016
1541.12
-210.053
-110.546
1555.75
-35.1031
-100.88
1572.96
-32.7324
-22.602
-34.4806
-32.8785
-35.8481
1557.66
-15.7203
9.95791
27.3448
-14.0674
27.4094
1432.16
5.27184
57.7555
7.82495
-0.286719
-5.29124
1296.86
-17.6872
168.082
-6.25084
-28.5724
-14.0642
1203.45
-51.8825
191.583
-46.6503
-52.4375
-44.411
1147.69
-40.4776
85.5897
-11.5331
-37.9189
-11.0216
1125.68
-29.7865
23.881
-20.0197
-29.554
-19.4139
1125.47
-27.6027
12.9752
-9.31625
-26.4168
-7.32083
1132
-70.5019
1.45254
1141.36
-56.2407
2.78286
1155.19
-52.3218
2.54992
1168.73
-35.5308
2.17636
1180.47
-18.5184
0.779129
-0.964754
1.00212
725.522
172.664
1390.35
1206.47
126.929
-935.1
1507.32
-151.075
-337.124
1558.58
-293.239
-169.431
1653.05
-257.926
-117.612
424.548
-36.6732
-80.8781
425.424
403.606
406.102
20.5061
-30.3167
26.6312
4.42571
426.326
-21.0249
-17.9111
-9.76325
-428.191
448.617
-28.7912
2.40829
-21.3623
-470.417
481.591
4.24895
11.2112
-70.6253
-487.153
476.878
-15.8413
79.0548
-68.4944
-448.682
389.198
-20.0548
96.1514
-15.4271
-334.633
310.261
-25.1679
24.4887
1.49112
-300.093
293.737
-24.6291
-0.29242
3.34903
-290.647
289.701
-27.0751
-2.93121
1179.87
-27.8754
2.15398
-291.391
-302.929
-286.097
-295.799
-13.2154
-27.235
-11.7919
1185.02
-65.3752
1.41863
1193.2
-64.7613
4.35991
1201.78
-48.8781
8.98078
1204.88
-24.2435
9.92501
-1.84832
3.46013
445.7
1521.24
-1246.56
902.764
342.783
-1032.74
1231.07
-100.012
-721.337
1239.51
-258.698
-125.682
335.603
-246.291
-128.385
316.857
320.26
300.792
24.3646
373.925
-64.1844
-35.1751
3.66511
2.72565
-104.318
106.23
-3.53818
-4.76403
0.768743
-112.779
10.5137
114.713
-11.9953
-1.22086
-6.80994
-125.064
6.9244
127.825
-8.90552
6.03052
-16.8009
-130.832
5.46054
129.712
-5.24744
17.7081
-11.2308
-121.007
-2.66044
112.031
6.77124
16.0961
-7.71402
-88.7119
-1.64364
85.3773
3.67734
9.01491
-0.321483
-81.4176
4.64318
80.3911
-3.6314
0.336197
0.855608
-79.5129
6.26708
78.9219
-5.6215
-0.91018
-79.2863
2.51433
314.91
-24.9437
-2.59038
-80.4997
-78.388
-79.5915
1258.89
-69.228
-10.2483
-313.743
-324.947
-306.59
-316.493
1257.32
-71.6387
-2.8619
1258.21
-58.0704
7.64574
1252.76
-23.8609
16.9936
3.4572
8.10014
1386.72
2163.91
2000.24
1476.6
439.693
-300.665
1294.88
-163.705
-46.8901
1265.05
-273.443
-1.22341
302.272
-209.238
16.2894
293.501
292.473
284.177
26.0726
65.0398
299.335
-55.1018
-33.0728
6.60996
10.7029
-77.1318
79.666
-11.7582
-8.08885
4.92388
11.4079
-82.8739
83.9093
-10.9771
-6.39007
13.9931
11.2602
-86.6907
86.9312
-10.5225
-14.9714
4.24419
-4.11111
-83.3255
81.2931
5.44059
-3.54129
-4.62846
-11.9935
-80.006
81.4715
9.20246
5.95395
-3.00224
-3.94152
-86.1414
86.8806
2.92295
3.2816
-1.51621
1.24819
-88.2677
88.209
-1.24912
1.5759
-0.813058
3.21133
-87.7018
87.3968
-2.87755
0.784322
-86.6249
-1.48463
18.0943
345.429
-13.8788
0.60627
-88.8584
-85.5815
-87.7014
1360.19
-46.2593
-18.8797
-344.515
-360.938
-335.344
-348.014
1337.93
-58.7491
-2.25263
1323.32
-49.6684
6.91949
1304.83
-11.1169
7.75669
14.6111
3.72368
1939.17
20.5617
-1597.65
904.174
350.962
693.297
1176.65
-302
-648.979
1095.71
-206.743
-36.4012
254.18
-94.9037
-54.1256
255.536
242.316
242.827
10.6345
39.3087
268.925
-47.9377
-16.7499
1.9134
9.13234
-71.236
72.2523
-9.59497
-2.46707
4.15026
8.7741
-70.6203
69.8691
-7.74332
-4.42978
4.18084
6.1639
-68.1746
68.0081
-5.62535
-4.55291
-2.005
-0.109796
-70.9084
72.9504
-2.78336
2.85622
-3.42153
-0.666264
-80.143
82.4772
-2.1015
3.85503
-1.73179
1.56426
-88.6781
90.3509
-3.22411
1.71882
-1.53689
3.13552
-93.9092
94.7384
-4.07788
1.65002
-2.10609
3.04654
-96.717
97.1968
-3.60258
2.18236
-97.1691
-7.73382
7.64136
379.635
-0.273639
5.1312
-96.5821
-95.4577
-95.1912
1398.72
-12.6477
2.85937
-371.352
-363.615
-355.366
-351.826
1357.6
-24.2506
15.2284
1325.31
-19.3915
10.6751
1303.12
9.16074
0.410967
23.9995
-1.00055
-516.746
-1066.35
-2536.93
160.409
-507.734
-139.006
988.412
-607.319
-389.726
1062.32
-238.79
32.7661
308.024
-159.925
35.1132
309.829
295.774
297.452
5.45174
55.016
309.048
-49.4812
-12.0109
-1.35033
13.6258
-82.6351
84.3718
-14.7901
0.777889
0.845016
4.82989
-84.5257
84.5341
-4.6707
-1.01254
3.316
5.26782
-85.7318
85.9315
-5.55308
-3.23037
-0.954461
8.66751
-86.0374
85.641
-8.98017
1.66352
-2.88548
7.8693
-85.5737
85.5036
-8.35372
3.43998
-1.23983
6.3288
-86.0452
86.1155
-6.44809
1.28876
0.214743
5.53946
-86.9798
87.1336
-5.52039
-0.387681
1.74862
4.28219
-87.9482
88.0792
-4.16337
-1.99841
-88.7042
9.55028
-1.42553
344.586
5.38957
-8.4172
-87.1364
-87.5879
-86.2549
1325.24
-2.28913
2.56083
-347.846
-333.6
-337.12
-324.88
1291.59
7.02288
20.5055
1265.71
8.23709
13.0482
1257.58
16.9304
0.779591
23.3859
-0.466787
849.165
-139.311
3228.54
1083.92
-194.054
-436.629
1021.85
-368.871
-668.975
1016.51
-231.598
-141.309
1153.75
-264.807
-129.378
292.84
-398.933
-3.25094
70.2844
125.024
78.0045
131.138
287.569
279.774
274.976
12.8114
-7.54973
301.786
-48.7367
4.81139
8.23703
12.8945
8.58683
5.3995
-5.88406
-307.396
310.213
-31.0305
6.48134
8.03419
5.79609
8.38595
6.73238
-15.5078
-334.511
332.028
-31.5016
19.2029
8.11402
7.02811
8.41458
3.8032
-20.6107
-325.099
310.201
-11.0581
25.4127
6.53658
4.04493
6.76931
4.37839
-13.3646
-319.417
313.447
-17.04
14.5151
6.63661
4.37165
6.47321
3.93641
-3.15202
-315.183
308.413
-13.6513
3.03035
6.61869
3.70903
6.27843
3.47278
2.39198
-316.123
311.197
-11.5423
-3.58436
5.75809
3.10183
5.3277
2.22041
4.87939
-315.074
308.563
-4.26914
-6.8008
4.52856
1.80771
4.14436
1221.14
-18.1532
-3.3428
-4.03713
10.617
-5.02939
10.7595
-312.439
-304.102
-305.376
-297.797
1216.95
-1.88749
6.66287
1210.67
12.1348
7.71213
1207.96
11.2859
0.911917
1212.49
11.7223
-1.46252
13.6882
2.35663
1889.71
-1046.74
878.187
1392.92
3.89711
456.052
1339.22
-411.78
-531.104
1344.51
-242.296
-90.7012
1373.77
-286.122
12.9848
1260.69
-280.51
0.925276
1217.68
-56.637
0.818093
42.1653
15.0099
37.2942
12.6159
1177.72
-240.325
56.9565
46.5314
86.9907
52.7021
90.0178
1193.65
-117.067
32.535
30.8053
20.8895
29.1323
20.9648
1200.87
-157.446
49.1894
19.0543
50.8852
21.6381
51.1896
1206.51
-93.1507
23.6127
16.8241
26.3998
15.3657
24.7956
1202.31
-95.3071
17.6494
14.0326
35.8514
12.9505
34.3375
1197.28
-51.672
12.096
8.39863
21.4541
5.94955
19.6969
1195.15
-45.2067
6.99922
2.64568
21.8631
1.51165
21.162
1187.69
-10.358
-0.342619
1183.36
1.74344
-3.70864
1185.59
10.3964
-6.27831
1188.56
8.90777
-9.36235
1196.48
3.1043
-7.42313
3.77617
-1.19265
2172.27
-134.062
814.854
1551.05
38.0714
965.186
1467.65
-410.872
460.229
1341.45
-134.95
162.961
1242.71
-164.173
102.312
1143.78
-166.996
-54.9727
1209.19
-118.003
-52.7012
1176.7
-203.476
-53.2426
1205.06
-152.043
-18.817
1212.9
-170.897
-5.97467
1225.65
-109.942
9.3856
1224.78
-98.0004
9.33577
1222.17
-50.7947
15.1605
1213.9
-35.9515
13.7451
1208.07
-4.0005
7.70855
1208.3
1.58119
1.79804
1212.15
8.07985
-5.402
1218.16
4.96958
-13.7045
1221.51
-1.19078
-11.4594
0.611667
-7.47966
1524.05
-269.867
2433.42
2120.27
-160.351
-75.1017
2101.74
-132.347
-267.116
2014.72
22.46
-61.2174
1797.02
69.3588
33.7512
1647.27
9.69527
-9.94141
1531.35
7.48943
-11.7049
1446.7
-127.008
-47.1637
1384.48
-102.055
-12.9822
1336.48
-126.577
-8.93802
1305.2
-83.8476
3.20689
1281.73
-76.1822
-6.06088
1269.17
-41.0202
-0.408579
1261.37
-29.9558
-1.19475
1260.3
-4.1664
6.04521
1260.76
1.55283
1.85617
1263.13
6.55138
-1.82227
1265.5
4.08602
-5.34424
1263.04
0.677153
-5.07651
2.39184
-5.70494
771.048
-909.446
871.038
1259.79
-121.519
-647.599
1497.19
77.0339
-385.983
1453.92
153.593
-100.415
1427.49
126.886
-23.0155
1408.32
39.2271
-38.0801
1411.28
3.89797
-2.08976
1374.93
-84.5956
-16.2706
1342
-74.1986
14.7049
1303.19
-88.1313
2.64705
1280.6
-62.2052
6.25466
1263.22
-58.4947
-4.1249
1260.45
-39.624
-3.15535
1261.11
-32.3456
-4.02361
1270.97
-17.8814
0.902902
1279.91
-11.8421
-2.11622
1287.18
-2.9697
-2.28607
1291.57
-0.876542
-1.31048
1291.5
-0.336172
0.721863
2.3826
0.805377
2729.66
117.042
982.372
2267.7
-37.6549
686.467
1863.53
282.54
414.05
1720.7
253.376
113.926
1660.14
182.856
48.8184
1623.48
61.5908
-11.1179
1574.04
33.457
26.2046
1503.53
-4.01084
18.274
1436.48
0.0888725
47.5775
1376.22
-20.9285
12.73
1336.55
-20.651
7.62884
1312.25
-31.2722
-4.61738
1303.01
-30.9025
0.220411
1301.73
-31.3781
0.558048
1308.54
-26.9182
6.45836
1317.4
-21.3107
5.83621
1325.84
-14.1009
6.10055
1331.48
-7.54817
4.63154
1332.76
-2.58604
4.97104
2.134
2.72842
1819.47
291.779
-1157.1
1576.93
304.968
121.7
1463.38
330.707
332.101
1443.88
300.289
143.79
1459.7
174.829
213.354
1475.94
78.5529
48.5813
1495.65
30.4709
77.1983
1486.34
20.0974
27.5508
1477.61
15.0869
31.1473
1459.07
11.3613
-4.73808
1445.23
3.04638
-6.84607
1430.16
-3.26701
-19.098
1422.23
-13.2966
-1.14647
1416.35
-15.4026
4.74267
1414.1
-21.0333
13.9393
1413.72
-19.2325
15.7732
1413.88
-14.0349
16.4776
1414.04
-7.29934
11.8618
1412.79
-2.76459
7.03835
1.47966
2.53731
1826.53
1500.07
1998.15
89.1632
1949.92
526.228
2028.54
358.611
1978.91
378.424
1947.4
217.8
1881.98
208
1855.51
116.057
1837.31
82.7915
1837.79
24.6358
1834.79
12.7758
1831.95
-0.894629
1819
6.81532
1803.97
7.05666
1776.73
16.6182
1745.78
10.9699
1715.77
17.2886
1697.24
26.4889
1686.69
32.3322
25.2705
481.33
-1223.83
-4004.64
919.299
-498.926
-881.521
928.652
-284.685
-878.75
996.408
-166.192
-282.938
1188.22
-152.002
164.115
1329.57
-29.8145
206.172
1445.62
-18.2508
373.669
1533.63
-20.2094
223.375
1572.64
-30.9043
224.162
1611.33
-40.7675
171.019
1641.45
-37.3047
170.713
1679.19
-36.0831
149.743
1712.43
-27.8302
141.158
1750.54
-22.0092
113.281
1796.81
-12.8697
77.1963
1851.8
-6.03804
31.1423
1885.58
9.1471
4.6511
1890.45
19.5886
-5.63536
1871.01
29.4233
-32.4106
27.3538
-24.6369
2329.01
-1138.28
4959.51
2060.09
-426.622
62.6956
1449.31
-170.563
-2.21552
1204
-202.24
-190.627
1106.61
-198.074
-71.0747
1103.79
-80.1232
2.84813
1133.81
-25.5924
252.264
1168.34
4.80199
194.565
1203
-25.9098
141.327
1229.53
-44.8279
44.4122
1260.92
-53.723
13.0046
1289.03
-47.7655
-22.2486
1314.39
-36.8932
-38.3748
1334.23
-24.1652
-62.2022
1352.94
-11.5547
-79.388
1367.36
-4.02687
-92.2977
1376.28
4.87873
-87.5259
1379.95
8.77861
-77.5866
1375.83
16.9789
-68.0183
15.8565
-47.3521
357.984
-1090.46
-2765.8
365.444
-467.521
631.697
619.209
-425.305
94.9874
667.449
-257.708
56.7526
766.684
-244.003
199.124
775.694
-88.6903
10.5042
860.652
-115.294
20.0565
901.76
-54.956
-20.791
980.979
-111.383
-3.64091
1031.21
-100.429
-14.1235
1087.77
-112.573
-11.7373
1121.24
-84.2639
-24.8602
1150.19
-69.4645
-27.4134
1167.51
-46.0066
-36.5343
1182.23
-31.6154
-35.5752
1189.99
-19.341
-35.6567
1194.29
-9.41777
-30.3474
1195.22
-0.473488
-25.1413
1192.87
9.9884
-19.7201
11.518
-15.9783
1028.69
-357.598
-1221.45
1010.71
-293.851
-636.268
824.739
-279.781
-522.329
801.488
-228.6
16.1276
795.133
-231.193
2.7751
775.796
-82.0509
10.083
858.37
-199.659
-4.57746
878.84
-84.5543
10.5258
955.791
-185.271
13.6588
995.455
-136.33
16.5738
1048.19
-158.915
14.9942
1069.96
-102.412
0.690874
1089.89
-87.4721
-3.09893
1096.42
-52.3532
-10.3286
1103.02
-39.2379
-10.5381
1105.44
-23.0165
-11.6199
1107.68
-13.5361
-10.2443
1108.98
-4.08719
-9.00964
1109.84
6.34752
-5.49802
9.02149
-4.92733
1232.37
110.268
157.701
1187.99
-359.546
383.497
908.008
-127.552
1.62328
884.054
-222.182
77.9511
888.124
-232.591
32.5862
872.606
-76.8782
3.93286
895.603
-236.473
-33.8304
891.463
-99.3107
-20.4401
935.551
-233.943
-6.54606
974.94
-171.615
26.7998
1030.33
-201.235
36.8887
1054.04
-118.584
16.5327
1071.66
-102.34
7.41585
1077.74
-58.9285
-2.97734
1085.29
-47.1014
-0.287956
1089.12
-27.2569
-2.87209
1093.13
-18.1825
-1.53957
1095.61
-6.81581
-1.8259
1097.26
4.05862
-0.10503
7.7744
-1.26605
1554.26
56.7424
-65.5125
1431.47
-268.493
168.322
1318.76
-85.8914
-394.649
1305.86
-219.954
-23.1536
1221.4
-172.543
-90.7413
1148.87
-38.6535
-77.2285
1095.47
-208.811
-63.8525
1007.28
-31.4976
-26.732
1003.31
-202.353
52.0327
1021.43
-147.98
108.581
1059.78
-201.303
98.1513
1063.89
-104.38
42.4174
1065.59
-95.8536
16.8613
1060.98
-53.2918
1.19321
1062.11
-50.1533
-2.39779
1067.05
-34.2928
-3.3174
1074.72
-27.9819
-2.64852
1082.1
-16.2155
-2.30762
1089.66
-5.23433
-1.73357
3.07539
0.131052
959.202
-415.48
5802.68
1179.46
-286.015
183.764
1219.22
-136.249
-80.8343
1276.9
-286.25
-163.394
1270.91
-180.249
-96.8569
1207.05
10.7828
-86.4497
1176.66
-37.9538
-25.8166
-44.3693
-42.7458
-50.1412
1122.22
-14.7178
5.83548
27.8939
-14.1301
28.022
1053.19
-16.8027
34.1966
-27.3136
-26.6978
-38.9528
1034.95
-37.1701
143.231
-16.4611
-38.6192
-12.6404
1050.7
-46.4772
140.946
-38.9255
-44.0059
-37.0042
1049.66
-33.6618
62.474
-7.99134
-31.7964
-6.77154
1052.29
-28.3987
17.0666
-17.8841
-28.1073
-17.2841
1056.79
-24.5999
11.2807
-5.09557
-23.6071
-2.79077
1063.28
-57.2134
2.01512
1070.22
-41.916
3.46515
1080.02
-38.0994
2.86966
1088.35
-24.5073
2.14285
1095.48
-12.9669
1.38151
0.202463
0.870378
345.614
-517.314
1225.02
1193.13
-14.9198
-2053.71
1389.83
-144.189
-525.884
1378.88
-276.471
-168.256
1412.34
-220.575
-110.745
345.29
-14.5024
-61.0575
348.631
324.029
327.538
38.8814
-7.87789
41.3089
16.0208
337.713
-20.8777
-25.5193
3.58033
-327.978
340.617
-22.507
-8.43079
-1.18283
-357.374
357.878
-5.6584
-10.4656
-86.0779
-352.481
341.041
-28.0201
88.3682
-106.699
-328.208
310.006
-20.584
99.0085
-27.1017
-292.877
284.816
-24.9481
26.4494
-0.225071
-281.131
276.9
-24.511
0.568078
2.54021
-274.374
273.156
-24.4601
-1.46163
1102.97
-25.1627
8.6681
-274.049
-283.564
-267.225
-275.32
-9.64308
-24.2286
-7.50986
1106.33
-48.6212
4.76982
1111.11
-44.986
6.46266
1116.06
-29.4095
8.93855
1116.59
-11.9682
8.39456
1.84899
2.75011
500.266
501.184
306.053
1004.94
221.168
-1773.5
1083.69
-102.875
-841.408
1061.81
-244.015
-136.25
284.772
-220.073
-134.226
266.74
266.53
249.103
36.9331
315.503
-47.0504
-35.1165
4.31918
0.856352
-86.5201
87.1935
-0.545041
-5.30394
3.16429
-90.109
7.52263
91.2423
-8.16178
-3.6585
-2.78214
-99.0908
3.39881
100.289
-3.17531
1.3607
-16.5078
-100.212
2.80594
98.1325
-0.185521
15.9674
-27.0627
-86.2831
-4.10955
82.7257
7.53204
27.1976
-9.65635
-77.9298
1.38673
76.4344
0.873584
8.89147
-0.208844
-75.3468
5.01486
74.6381
-4.23434
0.137055
0.995366
-73.9662
5.95063
73.4246
-5.45417
-0.950232
-73.8715
2.85524
292.825
-23.1803
-1.91393
-74.9958
-72.8986
-73.9826
1158.99
-58.1106
3.07733
-290.876
-300.444
-282.003
-289.5
1157.29
-51.1894
5.03424
1157.26
-32.593
10.864
1152.57
-5.11662
14.8334
9.08141
5.33363
531.176
1084.96
2188.69
1105.01
199.001
-852.335
1017.31
-202.598
140.533
1033.96
-261.528
-0.360145
265.898
-217.282
21.8173
258.651
253.448
247.647
31.3836
54.1905
264.182
-53.0473
-30.8105
9.21607
7.11583
-69.0294