/*--------------------------------*- C++ -*----------------------------------*\
  =========                 |
  \\      /  F ield         | OpenFOAM: The Open Source CFD Toolbox
   \\    /   O peration     | Website:  https://openfoam.org
    \\  /    A nd           | Version:  10
     \\/     M anipulation  |
\*---------------------------------------------------------------------------*/
FoamFile
{
    format      ascii;
    class       volScalarField;
    location    "9.8";
    object      turbidity;
}
// * * * * * * * * * * * * * * * * * * * * * * * * * * * * * * * * * * * * * //

dimensions      [0 0 0 0 0 0 0];

internalField   nonuniform List<scalar> 
12920
(
-0.0198746
-0.0324513
-0.0407755
-0.0574595
-0.0748185
-0.0952611
-0.123281
-0.159949
-0.195526
-0.226983
-0.254676
-0.280173
-0.302953
-0.322611
-0.339134
-0.353018
-0.365231
-0.376983
-0.388193
-0.400068
-0.0150431
-0.0280299
-0.0324276
-0.0411909
-0.0563636
-0.0769769
-0.100191
-0.141064
-0.195893
-0.2445
-0.281693
-0.309065
-0.326772
-0.333597
-0.334562
-0.331616
-0.328876
-0.329989
-0.336066
-0.351924
-0.0362711
-0.0392186
-0.0449658
-0.0629982
-0.0921884
-0.131889
-0.176002
-0.205878
-0.241899
-0.273054
-0.305429
-0.32851
-0.34706
-0.357188
-0.364257
-0.367647
-0.3709
-0.378039
-0.391346
-0.411724
-0.0313227
-0.0496166
-0.0723911
-0.108492
-0.14394
-0.169889
-0.197466
-0.226814
-0.260042
-0.299046
-0.341273
-0.382081
-0.417579
-0.444299
-0.467409
-0.487034
-0.504686
-0.522448
-0.541285
-0.564789
-0.0231358
-0.0476715
-0.0752697
-0.106901
-0.132613
-0.157938
-0.181269
-0.21119
-0.239511
-0.279419
-0.326491
-0.376945
-0.419439
-0.453972
-0.485482
-0.513204
-0.539221
-0.564255
-0.58814
-0.612145
-0.015106
-0.0382733
-0.0625068
-0.0766353
-0.0835513
-0.0942943
-0.106076
-0.126747
-0.155366
-0.203051
-0.26581
-0.335415
-0.387769
-0.424234
-0.449478
-0.474161
-0.500808
-0.531231
-0.562814
-0.59348
-0.0209752
-0.0426636
-0.0535235
-0.0629425
-0.0757643
-0.0896744
-0.106113
-0.124371
-0.14479
-0.174334
-0.221291
-0.287863
-0.323613
-0.340596
-0.352261
-0.374966
-0.406972
-0.451315
-0.503695
-0.556834
-0.0448074
-0.0548384
-0.0501439
-0.0556963
-0.0673101
-0.08117
-0.0828604
-0.0878406
-0.101082
-0.10611
-0.118087
-0.169915
-0.183875
-0.164666
-0.148495
-0.180287
-0.216736
-0.260728
-0.313968
-0.374112
-0.0433937
-0.0560368
-0.0543129
-0.0637695
-0.0715845
-0.0676609
-0.0641661
-0.0557876
-0.0518957
-0.0511124
-0.0805093
-0.133532
-0.140021
-0.117022
-0.103485
-0.112669
-0.147629
-0.187971
-0.232867
-0.282485
-0.0329001
-0.0624015
-0.0629188
-0.0807003
-0.0986878
-0.0924105
-0.0819341
-0.0807192
-0.0800747
-0.0731015
-0.0998732
-0.11476
-0.108663
-0.10068
-0.099607
-0.111125
-0.137213
-0.17122
-0.210415
-0.25315
-0.0299386
-0.0584136
-0.0596819
-0.0849234
-0.114537
-0.113291
-0.110365
-0.102993
-0.102799
-0.103106
-0.103572
-0.102462
-0.101955
-0.101928
-0.105964
-0.126878
-0.154573
-0.188324
-0.226323
-0.26638
-0.0289619
-0.0518117
-0.0621476
-0.085378
-0.11329
-0.111989
-0.106687
-0.10031
-0.0943453
-0.0899977
-0.101049
-0.114898
-0.126234
-0.132241
-0.128085
-0.148034
-0.18393
-0.227368
-0.272322
-0.311937
-0.0108951
-0.041686
-0.0458764
-0.0755773
-0.103779
-0.134675
-0.132452
-0.127825
-0.128218
-0.134429
-0.16188
-0.186459
-0.202042
-0.197819
-0.210077
-0.24029
-0.282609
-0.334678
-0.386018
-0.428147
-0.0308109
-0.0419019
-0.0484469
-0.0754044
-0.113012
-0.159635
-0.198078
-0.234475
-0.263859
-0.295213
-0.326074
-0.356868
-0.384781
-0.40755
-0.422338
-0.435858
-0.454847
-0.484777
-0.526721
-0.570118
-0.031797
-0.0468022
-0.0656931
-0.0897288
-0.119018
-0.147125
-0.183931
-0.208987
-0.243319
-0.274471
-0.309164
-0.342604
-0.37785
-0.412075
-0.441205
-0.462279
-0.475388
-0.488388
-0.511525
-0.544336
-0.0130611
-0.0388777
-0.0552294
-0.0755275
-0.101705
-0.127636
-0.151276
-0.168632
-0.195631
-0.229294
-0.267961
-0.303004
-0.338294
-0.372574
-0.40606
-0.434971
-0.459336
-0.480768
-0.505806
-0.537769
-0.0398981
-0.0541351
-0.0655192
-0.0838659
-0.110592
-0.131602
-0.155093
-0.18055
-0.215516
-0.255909
-0.296102
-0.329683
-0.361035
-0.388879
-0.415934
-0.440536
-0.466082
-0.494167
-0.526655
-0.563084
-0.0180441
-0.0374583
-0.0609082
-0.086016
-0.109922
-0.127158
-0.148728
-0.178748
-0.219965
-0.267178
-0.310374
-0.344912
-0.377204
-0.408007
-0.437312
-0.464774
-0.491211
-0.518679
-0.548884
-0.582021
-0.0144273
-0.0471754
-0.0729506
-0.095321
-0.115566
-0.13704
-0.163699
-0.198479
-0.235741
-0.268291
-0.294946
-0.316809
-0.339702
-0.36691
-0.399683
-0.436741
-0.475366
-0.512489
-0.546601
-0.578239
-0.022078
-0.0547472
-0.0773006
-0.0964107
-0.114906
-0.135683
-0.159073
-0.184266
-0.206746
-0.224585
-0.237765
-0.249249
-0.261657
-0.276393
-0.294604
-0.317789
-0.348489
-0.385522
-0.4267
-0.467681
-0.00296526
-0.00442263
-0.0092729
-0.019692
-0.0400047
-0.0590612
-0.0748139
-0.0785284
-0.0799818
-0.0859335
-0.0993397
-0.114479
-0.128566
-0.138887
-0.145212
-0.146216
-0.141948
-0.133108
-0.12053
-0.112109
-0.00527732
-0.00384958
-0.00618366
-0.0110316
-0.0195679
-0.0314219
-0.0537844
-0.0692745
-0.0729037
-0.0671459
-0.0605941
-0.0493489
-0.0394951
-0.0322072
-0.0276081
-0.0253084
-0.0248661
-0.0258099
-0.0278721
-0.0310151
-0.00288651
-0.00590106
-0.0108035
-0.0197033
-0.0382801
-0.0351827
-0.040934
-0.0457234
-0.0518296
-0.0499797
-0.0445864
-0.0364215
-0.0295899
-0.0246561
-0.0218338
-0.0207721
-0.0213208
-0.0234231
-0.0269813
-0.0318771
-0.00905199
-0.0094804
-0.014012
-0.025813
-0.0366705
-0.0462327
-0.0666983
-0.0779582
-0.0908659
-0.0878133
-0.0785001
-0.0602124
-0.0460948
-0.0373544
-0.0331157
-0.0316643
-0.0322753
-0.0345423
-0.0382407
-0.0440575
-0.000705965
-0.00510936
-0.0142396
-0.0240527
-0.0356793
-0.0501324
-0.0671253
-0.0831815
-0.0988572
-0.102611
-0.0957899
-0.0725449
-0.0547042
-0.0453604
-0.0441799
-0.0460056
-0.0492691
-0.0531301
-0.057673
-0.0640585
-0.0142436
-0.0174754
-0.0143981
-0.013154
-0.0178769
-0.0299132
-0.0452183
-0.0669184
-0.0933538
-0.112347
-0.110664
-0.0858525
-0.0564103
-0.039663
-0.0355789
-0.0375809
-0.0423978
-0.0488913
-0.0569934
-0.0682532
-0.0143143
-0.0156942
-0.00791659
-0.00742381
-0.0108464
-0.0182492
-0.0300745
-0.0480688
-0.0703497
-0.0946578
-0.099975
-0.0782473
-0.0482726
-0.0357065
-0.0340626
-0.0381509
-0.0450448
-0.0531931
-0.0624827
-0.0741223
-0.0247666
-0.00946033
-0.00531225
-0.0060657
-0.00939044
-0.0156792
-0.0205311
-0.0354242
-0.0525799
-0.0710885
-0.0875626
-0.0693782
-0.0345538
-0.025161
-0.0252211
-0.0314264
-0.0391026
-0.0491073
-0.0591508
-0.0676753
-0.00509833
-0.013531
-0.00960531
-0.00744255
-0.00744338
-0.00893213
-0.0126627
-0.0185205
-0.0338727
-0.0476472
-0.0682126
-0.0961551
-0.0583556
-0.0338897
-0.0214213
-0.0244047
-0.0317032
-0.0402013
-0.050363
-0.0575715
-0.00622425
-0.0209142
-0.0249263
-0.017286
-0.0118133
-0.0108739
-0.0138939
-0.0238987
-0.0419539
-0.0595424
-0.0933301
-0.0978649
-0.0822036
-0.0691372
-0.0472342
-0.0371769
-0.0370984
-0.0405789
-0.0450324
-0.0490794
-0.0443669
-0.0235519
-0.0112252
-0.0126062
-0.02017
-0.0223211
-0.0230331
-0.0223985
-0.0344108
-0.0547019
-0.0645132
-0.0641513
-0.0694373
-0.0791668
-0.0793872
-0.0636139
-0.0617452
-0.059094
-0.0550513
-0.051886
-0.0111965
-0.0133271
-0.00802718
-0.0157636
-0.023012
-0.0222507
-0.0324175
-0.0323509
-0.0454078
-0.0705128
-0.0806692
-0.0637267
-0.0425236
-0.0430136
-0.0619367
-0.0715681
-0.0761188
-0.0718143
-0.0618672
-0.0544293
-0.010062
-0.00426568
-0.00459902
-0.0101059
-0.0202267
-0.0358141
-0.0448569
-0.0640671
-0.0877626
-0.0957037
-0.0843387
-0.0604579
-0.0497674
-0.0519387
-0.0569044
-0.0629566
-0.0644446
-0.0613614
-0.0580236
-0.056753
-0.00236321
-0.00555501
-0.0117871
-0.0208949
-0.0379382
-0.0448165
-0.0647348
-0.0769917
-0.0841383
-0.0812016
-0.0767034
-0.0731028
-0.070286
-0.0659729
-0.0608529
-0.0581572
-0.0581732
-0.0604254
-0.0644229
-0.0703874
-0.00212413
-0.0211731
-0.0294469
-0.0271122
-0.0288
-0.0229632
-0.0293678
-0.0278368
-0.0313494
-0.0343998
-0.0444505
-0.0529154
-0.0638874
-0.0679134
-0.0626301
-0.0565664
-0.056443
-0.0625793
-0.0738721
-0.0869589
-0.00841908
-0.0101089
-0.0119557
-0.0158352
-0.0198285
-0.0191199
-0.0181726
-0.0177198
-0.0194259
-0.0213592
-0.0241696
-0.0273838
-0.0329433
-0.0388156
-0.0451613
-0.0486069
-0.0547881
-0.0653842
-0.0814305
-0.101691
-0.00773441
-0.0105124
-0.00967166
-0.0126049
-0.0161403
-0.015052
-0.0175142
-0.0206101
-0.0276768
-0.0284442
-0.0294471
-0.0313878
-0.0358271
-0.0416617
-0.0487231
-0.0578215
-0.0702284
-0.0869587
-0.10879
-0.13322
-0.00999883
-0.0199374
-0.0247767
-0.0221165
-0.0244327
-0.0289764
-0.0430837
-0.0547445
-0.0619711
-0.0521831
-0.0431313
-0.0394093
-0.0445971
-0.0544713
-0.069118
-0.0842917
-0.100928
-0.118554
-0.136099
-0.152363
-0.019764
-0.0221452
-0.0352529
-0.0419731
-0.0531003
-0.0564312
-0.065932
-0.0630489
-0.0576148
-0.0450266
-0.039633
-0.0401186
-0.0489848
-0.060406
-0.0737884
-0.0883788
-0.102367
-0.112747
-0.120201
-0.127316
-0.00895339
-0.0174331
-0.0260633
-0.0346283
-0.0460309
-0.0587263
-0.0711656
-0.0720559
-0.0657547
-0.0532883
-0.0436138
-0.0367074
-0.0343547
-0.0333126
-0.0352748
-0.0429447
-0.060873
-0.0869565
-0.11136
-0.125795
-0.00167893
-0.00438282
-0.00722168
-0.0126152
-0.0285842
-0.037245
-0.0425099
-0.0396637
-0.0406089
-0.0459471
-0.0553448
-0.0648343
-0.0729996
-0.0779091
-0.0795068
-0.0770032
-0.0709905
-0.0630905
-0.0555211
-0.0500025
-0.00249845
-0.00468121
-0.00665339
-0.0113806
-0.0200549
-0.0280163
-0.0387627
-0.0391836
-0.0350017
-0.0281542
-0.0230313
-0.0194033
-0.0177245
-0.0173143
-0.0178661
-0.0191724
-0.02119
-0.0230704
-0.0247129
-0.0261525
-0.00443813
-0.00703946
-0.0122386
-0.0161301
-0.0243329
-0.0224429
-0.024467
-0.0227244
-0.0210486
-0.0177567
-0.0150344
-0.0131081
-0.0123557
-0.012518
-0.01342
-0.01485
-0.0167431
-0.0190037
-0.0215503
-0.0242264
-0.000847418
-0.0056988
-0.0109149
-0.0188741
-0.0302097
-0.0354254
-0.0428615
-0.0407725
-0.0391471
-0.0313793
-0.0243393
-0.018264
-0.0153746
-0.0145321
-0.0149729
-0.0160742
-0.0175824
-0.0192953
-0.0210735
-0.0228379
-0.00180942
-0.00732212
-0.0124797
-0.0194989
-0.0304026
-0.0415885
-0.0489792
-0.0493313
-0.0491884
-0.0412287
-0.0323293
-0.0231819
-0.0191706
-0.0183118
-0.0192286
-0.0205453
-0.0219297
-0.0231248
-0.0241067
-0.0249687
-0.00706664
-0.011165
-0.00900625
-0.0105223
-0.0172958
-0.0302427
-0.0425116
-0.0532692
-0.0613989
-0.0578568
-0.0444848
-0.0296428
-0.0221969
-0.0207528
-0.0220675
-0.0240042
-0.0260015
-0.0277896
-0.0292867
-0.0305754
-0.0113092
-0.00679553
-0.00489019
-0.00671772
-0.0106674
-0.0188883
-0.0294596
-0.0433937
-0.054561
-0.0578266
-0.0454644
-0.0300995
-0.0227923
-0.0225649
-0.0247139
-0.0273927
-0.0297044
-0.0312626
-0.0319123
-0.0318509
-0.00457815
-0.0020273
-0.00293889
-0.00555239
-0.0106176
-0.018094
-0.0227016
-0.0338112
-0.0451483
-0.0586484
-0.0590782
-0.0280863
-0.0162575
-0.01633
-0.0192661
-0.0231374
-0.0266924
-0.0294936
-0.0307049
-0.0301516
-0.000899813
-0.00386756
-0.00386567
-0.00430018
-0.00717308
-0.0110118
-0.0170149
-0.0253466
-0.0349711
-0.0462156
-0.0631465
-0.0326433
-0.0118834
-0.0101013
-0.0124136
-0.0167689
-0.0202438
-0.0235733
-0.0261187
-0.0267966
-0.00630038
-0.0120144
-0.0111099
-0.00734546
-0.00780128
-0.00979336
-0.0162716
-0.0275837
-0.0432737
-0.0556251
-0.0476639
-0.0279111
-0.0207192
-0.0175555
-0.0154787
-0.0180746
-0.0197315
-0.0211471
-0.0222794
-0.0229333
-0.00320905
-0.00755593
-0.00600143
-0.00668417
-0.00855557
-0.00953053
-0.0115689
-0.0149824
-0.0207661
-0.0276267
-0.0300694
-0.0333269
-0.040974
-0.0495636
-0.0436337
-0.0278811
-0.0266349
-0.0250536
-0.0237857
-0.0235732
-0.00215406
-0.00304274
-0.00359476
-0.00701339
-0.0120056
-0.0152934
-0.021613
-0.0257844
-0.0366664
-0.0432029
-0.0330964
-0.0252346
-0.0302219
-0.0406647
-0.0410423
-0.0333346
-0.0338004
-0.0315394
-0.029306
-0.0287553
-0.0108669
-0.00287445
-0.003017
-0.0067984
-0.0141424
-0.0221707
-0.0288138
-0.0432245
-0.0514079
-0.0445192
-0.0314108
-0.0252957
-0.0255872
-0.0277429
-0.0291894
-0.0321609
-0.0338098
-0.0347106
-0.0355458
-0.0367415
-0.00449554
-0.00495738
-0.00636467
-0.00955062
-0.0156597
-0.0190973
-0.0290009
-0.0312177
-0.031532
-0.0289504
-0.026862
-0.0261309
-0.0265223
-0.0276332
-0.0293159
-0.0313977
-0.0336518
-0.0358986
-0.038092
-0.0403308
-0.00554269
-0.0111058
-0.00911811
-0.00866159
-0.0104187
-0.0112833
-0.015356
-0.0147332
-0.0164656
-0.0176363
-0.02039
-0.0226591
-0.0254006
-0.0274294
-0.0292412
-0.0316166
-0.0346515
-0.0379238
-0.0408275
-0.042464
-0.00421153
-0.00301245
-0.00412413
-0.00612948
-0.00839665
-0.00978962
-0.0106887
-0.01129
-0.012449
-0.0140761
-0.0162356
-0.0187778
-0.0219459
-0.0255392
-0.0296852
-0.0341697
-0.0390425
-0.0439108
-0.048547
-0.0519502
-0.00254737
-0.00351144
-0.00479603
-0.00684168
-0.008588
-0.009832
-0.0108944
-0.0122862
-0.014177
-0.0163006
-0.0192366
-0.0227129
-0.0267076
-0.0313265
-0.0365675
-0.0423949
-0.0485892
-0.05478
-0.0607837
-0.0657714
-0.0110975
-0.0131038
-0.0119669
-0.0133536
-0.0169173
-0.0200433
-0.0242196
-0.0236467
-0.0229274
-0.020781
-0.0218882
-0.0252528
-0.0303952
-0.0363656
-0.0431263
-0.0497481
-0.0561062
-0.0615271
-0.0660227
-0.0693529
-0.0154638
-0.0164401
-0.0229545
-0.0268
-0.0314129
-0.0260151
-0.0253951
-0.0194385
-0.016227
-0.0144382
-0.0154401
-0.0184557
-0.0233119
-0.0293917
-0.0363776
-0.0431708
-0.048796
-0.0521657
-0.0535117
-0.0531469
-0.00489327
-0.0139095
-0.0204019
-0.0269988
-0.0361053
-0.0418565
-0.042655
-0.0347264
-0.0257773
-0.0176328
-0.0128949
-0.0104608
-0.0101113
-0.0115635
-0.0154511
-0.0219892
-0.0309303
-0.0402247
-0.0471421
-0.0497223
-0.00183971
-0.00438431
-0.00712733
-0.0105088
-0.0195141
-0.0201861
-0.0228263
-0.023028
-0.0263206
-0.0307472
-0.0359437
-0.0400941
-0.0428464
-0.0431814
-0.0408218
-0.0362989
-0.0318299
-0.0284462
-0.026077
-0.0245074
-0.00478248
-0.0056057
-0.00765848
-0.0111827
-0.0176343
-0.0201765
-0.024291
-0.0211844
-0.0184243
-0.0161158
-0.0157273
-0.0160309
-0.0168281
-0.0172771
-0.0177181
-0.0178487
-0.0179613
-0.0180816
-0.0182348
-0.0182628
-0.00350343
-0.00829617
-0.0107509
-0.0131763
-0.0163306
-0.0139825
-0.0135445
-0.0118253
-0.0108188
-0.0101356
-0.0100542
-0.0103312
-0.0109379
-0.011653
-0.012474
-0.0132451
-0.0139941
-0.0146426
-0.0151575
-0.0155006
-0.000828918
-0.00521877
-0.00983229
-0.0160528
-0.0212047
-0.0201753
-0.0200595
-0.0165112
-0.0146267
-0.01197
-0.0106635
-0.0100326
-0.0101546
-0.0105278
-0.0110121
-0.0114531
-0.0118259
-0.0121118
-0.0123593
-0.0126681
-0.00446482
-0.00956654
-0.0122811
-0.0177479
-0.0256793
-0.0270912
-0.026313
-0.0212819
-0.0192305
-0.0155205
-0.0133933
-0.0119839
-0.0118379
-0.0119393
-0.0121149
-0.0120928
-0.0119366
-0.0116985
-0.0114904
-0.0114557
-0.00302623
-0.0065199
-0.00805885
-0.0111624
-0.0183966
-0.0259677
-0.0296431
-0.0282388
-0.0282023
-0.0229819
-0.0176145
-0.0144551
-0.0136933
-0.0136835
-0.01372
-0.0135065
-0.0131018
-0.0125868
-0.0120754
-0.0117748
-0.0106357
-0.00459831
-0.00498411
-0.00825657
-0.0142565
-0.0216137
-0.0272647
-0.0294358
-0.0297429
-0.0260048
-0.018969
-0.0151535
-0.014141
-0.0142355
-0.0141974
-0.0138576
-0.0132091
-0.0123598
-0.0115297
-0.0109898
-0.00149692
-0.00154409
-0.0030854
-0.00685437
-0.0134277
-0.0208952
-0.0247091
-0.0334377
-0.0403325
-0.0433483
-0.0258197
-0.0139296
-0.0128617
-0.0136474
-0.0127587
-0.0128828
-0.0125445
-0.0119599
-0.0111365
-0.0104828
-0.000645137
-0.00132949
-0.00242584
-0.00395032
-0.00770042
-0.0135821
-0.0204081
-0.0301717
-0.042229
-0.0466739
-0.0286612
-0.0108415
-0.00945691
-0.0104829
-0.0116909
-0.0111055
-0.0112885
-0.0112605
-0.0110594
-0.0107235
-0.00196731
-0.00316156
-0.0040698
-0.00439019
-0.00675529
-0.00936853
-0.0153464
-0.0201411
-0.0242776
-0.0217071
-0.0123425
-0.00902071
-0.00897623
-0.0100556
-0.0122594
-0.0124141
-0.0120634
-0.0117241
-0.0117223
-0.0120106
-0.0012889
-0.00301112
-0.00261026
-0.00401117
-0.00636925
-0.00750727
-0.00931228
-0.0106305
-0.0125945
-0.0149303
-0.0174052
-0.020145
-0.0199139
-0.0168632
-0.0151027
-0.0163681
-0.015904
-0.0153088
-0.0153821
-0.0161005
-0.000551812
-0.00140379
-0.00264709
-0.00549009
-0.0090841
-0.0116683
-0.0154774
-0.0168893
-0.0185222
-0.0175949
-0.0175864
-0.0205315
-0.0223479
-0.0203768
-0.0176205
-0.0212466
-0.0220427
-0.0224382
-0.0231184
-0.0240904
-0.00297835
-0.00132209
-0.00231612
-0.0054136
-0.00980235
-0.0131997
-0.0162925
-0.0200196
-0.0196485
-0.0168143
-0.0151867
-0.015238
-0.0161258
-0.0178146
-0.0217102
-0.0240275
-0.0261066
-0.0281571
-0.0299141
-0.0312579
-0.00378074
-0.00255533
-0.00382863
-0.00654705
-0.00934951
-0.0110714
-0.0138
-0.0144272
-0.0146047
-0.0149916
-0.0155923
-0.0166579
-0.0178591
-0.0190607
-0.0202188
-0.0212231
-0.0222276
-0.0230773
-0.0239062
-0.0247214
-0.00301458
-0.0055829
-0.00469553
-0.00661922
-0.00823714
-0.0090479
-0.0107183
-0.0111424
-0.0124543
-0.0136542
-0.0152122
-0.0166668
-0.0180781
-0.0191639
-0.0199349
-0.0204195
-0.0207028
-0.020724
-0.0205014
-0.0201883
-0.000870986
-0.00114816
-0.00293402
-0.00553538
-0.00744052
-0.00828072
-0.00908348
-0.0102088
-0.0116461
-0.0133308
-0.0151183
-0.0169912
-0.0188317
-0.0204691
-0.0217976
-0.0227226
-0.02337
-0.0237491
-0.0239721
-0.0239473
-0.00561209
-0.0046126
-0.00495884
-0.00654045
-0.00756929
-0.00843462
-0.00938901
-0.0109013
-0.012835
-0.0148927
-0.0170269
-0.0191135
-0.0211447
-0.0229837
-0.0246029
-0.0259109
-0.0270156
-0.0279425
-0.0289025
-0.0297333
-0.01698
-0.0114414
-0.00969391
-0.0104514
-0.0113683
-0.0114082
-0.0127005
-0.0129904
-0.0143393
-0.0158504
-0.0180744
-0.0203037
-0.0226954
-0.024709
-0.0265294
-0.0276458
-0.0284612
-0.0289469
-0.0296591
-0.030679
-0.00953916
-0.0165252
-0.01934
-0.0188822
-0.0177577
-0.0132604
-0.0115922
-0.0105535
-0.0112767
-0.0128435
-0.0150268
-0.0174019
-0.0199495
-0.0221202
-0.0237591
-0.0243055
-0.0238062
-0.0223877
-0.0208446
-0.0197174
-0.00731828
-0.0169237
-0.0225992
-0.0277732
-0.0320506
-0.0288157
-0.0233379
-0.0159788
-0.011142
-0.00848917
-0.00778621
-0.00849659
-0.0102929
-0.0129983
-0.0162282
-0.0194397
-0.0220688
-0.0236204
-0.0239435
-0.0230873
-0.00201137
-0.00472265
-0.00788155
-0.0105114
-0.0130352
-0.0136222
-0.0156347
-0.0166288
-0.0186219
-0.0200102
-0.0212984
-0.0215852
-0.0211378
-0.0194017
-0.0169107
-0.015066
-0.0139189
-0.0132232
-0.0126861
-0.0121856
-0.00118411
-0.00457459
-0.00751584
-0.00970716
-0.0121627
-0.0125442
-0.0136497
-0.0127987
-0.0129289
-0.0131134
-0.0135351
-0.013523
-0.0133087
-0.0126902
-0.011922
-0.0111495
-0.0105884
-0.0102837
-0.0102496
-0.0104855
-0.0013411
-0.00606413
-0.00768566
-0.00913161
-0.0094675
-0.00887017
-0.0088032
-0.00869096
-0.00877433
-0.00887029
-0.00901664
-0.00909359
-0.00917205
-0.00921397
-0.00932505
-0.00952493
-0.00986091
-0.010291
-0.0107718
-0.0113018
-0.00169173
-0.00689858
-0.00871728
-0.0101289
-0.0095384
-0.00901823
-0.00831092
-0.00789341
-0.00774124
-0.00767325
-0.00772928
-0.00784752
-0.00804038
-0.00832184
-0.00868402
-0.00911329
-0.00958101
-0.0100521
-0.0105044
-0.0109137
-0.00293138
-0.00817374
-0.0102361
-0.0117024
-0.0120116
-0.010469
-0.0093625
-0.00836649
-0.00816507
-0.00788266
-0.0077746
-0.00767507
-0.00774267
-0.00790114
-0.00817786
-0.00853025
-0.00895117
-0.00940576
-0.00986009
-0.0102649
-0.00287568
-0.00534941
-0.00699523
-0.0098131
-0.0124409
-0.0117067
-0.0109956
-0.00977086
-0.00964286
-0.00877053
-0.00805041
-0.0076259
-0.00751129
-0.00759476
-0.00783076
-0.00818033
-0.00862146
-0.0091246
-0.00965049
-0.0101378
-0.0108769
-0.00425202
-0.00484429
-0.00792601
-0.0111215
-0.0117419
-0.0110611
-0.0104847
-0.00985181
-0.00920296
-0.00796368
-0.00747348
-0.00734244
-0.00750974
-0.00776164
-0.00811441
-0.00857015
-0.0091113
-0.00971146
-0.0102785
-0.00510294
-0.00259703
-0.00288047
-0.00585148
-0.00953609
-0.0111606
-0.0120611
-0.0126838
-0.0126397
-0.0124454
-0.00875305
-0.0073126
-0.00697133
-0.00703658
-0.00771769
-0.00814466
-0.00858139
-0.00908368
-0.00961984
-0.0101295
-0.000655358
-0.0010136
-0.00234162
-0.00409863
-0.00613375
-0.00865774
-0.0105467
-0.0124191
-0.0130019
-0.0115852
-0.00848028
-0.00734447
-0.00694026
-0.00658473
-0.0066697
-0.00821608
-0.00872539
-0.00918348
-0.00962108
-0.010013
-0.00334143
-0.00286739
-0.00313264
-0.00429231
-0.00571677
-0.0065679
-0.00774184
-0.00741955
-0.00704979
-0.00701404
-0.00736268
-0.00834532
-0.00918022
-0.00880319
-0.00798164
-0.00946595
-0.00997223
-0.0104508
-0.0108803
-0.011225
-0.00104557
-0.00209926
-0.0028997
-0.00447392
-0.0061783
-0.00704849
-0.00780194
-0.00815711
-0.00858959
-0.00898471
-0.00927813
-0.00976548
-0.011021
-0.0119288
-0.011418
-0.0117568
-0.0119989
-0.0122717
-0.0125396
-0.0127946
-0.000106497
-0.00110343
-0.00268269
-0.00496234
-0.00701338
-0.00846547
-0.00929986
-0.0097277
-0.0105675
-0.0111684
-0.0109489
-0.0110584
-0.0121662
-0.0137626
-0.0147469
-0.014914
-0.0147094
-0.0142068
-0.0136787
-0.0133652
-8.41731e-05
-0.00115482
-0.00348362
-0.00558383
-0.00722383
-0.00877053
-0.00913566
-0.0101661
-0.0105894
-0.0109884
-0.0114296
-0.0122468
-0.0133399
-0.0147863
-0.0147425
-0.0150345
-0.0149092
-0.0145177
-0.0140171
-0.0138232
-0.000641131
-0.0018676
-0.00411099
-0.00640585
-0.00769949
-0.00880296
-0.00947876
-0.0102893
-0.0106841
-0.0111383
-0.0113658
-0.0115429
-0.0116675
-0.0117222
-0.0118001
-0.011687
-0.0115597
-0.0113519
-0.0112387
-0.0113905
-0.0017548
-0.00380118
-0.00547257
-0.00697111
-0.00799382
-0.00892655
-0.00966169
-0.0103229
-0.0108517
-0.0112822
-0.0115363
-0.0116404
-0.0116265
-0.0114656
-0.0112275
-0.0109487
-0.0106772
-0.010426
-0.0102673
-0.0103125
-0.000973122
-0.00152695
-0.00401995
-0.0061951
-0.00733485
-0.00843272
-0.00953028
-0.0104909
-0.0111981
-0.0117655
-0.0121247
-0.0123522
-0.0124562
-0.0124517
-0.0123429
-0.0121467
-0.0119179
-0.0116832
-0.0115096
-0.0114992
-0.0110425
-0.00824878
-0.0063424
-0.00628975
-0.00722432
-0.00856761
-0.00983914
-0.0108648
-0.0117187
-0.012333
-0.0128843
-0.0133213
-0.0137033
-0.0139737
-0.0141498
-0.0141931
-0.014122
-0.013964
-0.0138015
-0.0138021
-0.00823765
-0.0129534
-0.00991448
-0.00768737
-0.00789335
-0.008853
-0.0100706
-0.0108957
-0.0117231
-0.012262
-0.0129358
-0.013492
-0.0142192
-0.0148327
-0.0155481
-0.0160959
-0.0166156
-0.0169685
-0.0172356
-0.017543
-0.0214977
-0.0150217
-0.0128918
-0.00996026
-0.00900082
-0.00845042
-0.00923045
-0.0102435
-0.0111701
-0.0117332
-0.012023
-0.0120918
-0.0122908
-0.0126194
-0.0133707
-0.0143346
-0.015677
-0.0172912
-0.0191446
-0.0208906
-0.0241664
-0.0194988
-0.0220857
-0.0209546
-0.0191329
-0.0131094
-0.00988767
-0.00820007
-0.00838279
-0.00948374
-0.0108017
-0.0118524
-0.0124912
-0.0127323
-0.0127106
-0.0123747
-0.0119263
-0.0114638
-0.0112153
-0.0113261
-0.0523551
-0.0339802
-0.0323977
-0.0309046
-0.0208324
-0.0176751
-0.0182806
-0.0316812
-0.0317326
-0.0318241
-0.0175052
-0.0116761
-0.0186355
-0.0200713
-0.0296766
-0.0325665
-0.0294604
-0.0178811
-0.0195571
-0.0191503
-0.0199134
-0.0320775
-0.0279401
-0.0250547
-0.0203488
-0.0231075
-0.0206357
-0.0240438
-0.0576627
-0.0616263
-0.0577751
-0.056402
-0.0509624
-0.0464235
-0.0362516
-0.0524378
-0.0589053
-0.0664342
-0.0505469
-0.0510931
-0.0353904
-0.0368233
-0.0507622
-0.066717
-0.0629374
-0.0515847
-0.053084
-0.0386023
-0.0474306
-0.0684615
-0.0637896
-0.0857984
-0.0535111
-0.0617722
-0.0521433
-0.078148
-0.121002
-0.0961117
-0.117765
-0.070656
-0.113523
-0.0913275
-0.119861
-0.144298
-0.119706
-0.115415
-0.125301
-0.128503
-0.122416
-0.118344
-0.12302
-0.112598
-0.104169
-0.122401
-0.0984897
-0.115445
-0.105365
-0.10363
-0.101534
-0.0944998
-0.0912339
-0.0738387
-0.101236
-0.0846135
-0.0789995
-0.0942116
-0.0964885
-0.0559119
-0.0418561
-0.076994
-0.0639825
-0.0823237
-0.0978402
-0.10093
-0.0411822
-0.045792
-0.0606979
-0.0667705
-0.0722218
-0.100926
-0.0997885
-0.048836
-0.0585404
-0.0734993
-0.0931424
-0.0919965
-0.100479
-0.104397
-0.0628395
-0.0879062
-0.0969907
-0.105615
-0.114082
-0.105175
-0.104641
-0.0986328
-0.117711
-0.107417
-0.108927
-0.110693
-0.103976
-0.101984
-0.118948
-0.11571
-0.108717
-0.107717
-0.102654
-0.101403
-0.0998946
-0.113807
-0.107263
-0.107378
-0.106433
-0.0948227
-0.0994197
-0.0976496
-0.104538
-0.0923969
-0.106145
-0.105057
-0.10404
-0.115127
-0.108636
-0.0982666
-0.0717552
-0.109888
-0.0998029
-0.102663
-0.106515
-0.101781
-0.0649327
-0.064013
-0.0937726
-0.0842093
-0.102927
-0.100431
-0.0966984
-0.0696126
-0.0908885
-0.0853855
-0.0940907
-0.10366
-0.0964609
-0.100074
-0.0952717
-0.101488
-0.0958552
-0.10041
-0.102737
-0.101971
-0.107694
-0.102312
-0.102912
-0.1021
-0.105247
-0.102007
-0.109578
-0.115027
-0.102814
-0.102106
-0.105178
-0.10067
-0.101948
-0.116697
-0.120833
-0.101772
-0.100883
-0.0977664
-0.0868112
-0.101128
-0.121633
-0.120913
-0.10078
-0.101267
-0.0836972
-0.0802264
-0.101935
-0.109744
-0.101329
-0.0991456
-0.0943464
-0.103588
-0.0903527
-0.0959354
-0.0985435
-0.093198
-0.0909752
-0.0831127
-0.0857461
-0.0840902
-0.0897109
-0.0907113
-0.0873164
-0.083211
-0.0882979
-0.0836792
-0.0853947
-0.097509
-0.0876286
-0.104341
-0.0897286
-0.0974206
-0.0867859
-0.107203
-0.111649
-0.113235
-0.144773
-0.101116
-0.109317
-0.116715
-0.137524
-0.123794
-0.152386
-0.170993
-0.109921
-0.10357
-0.13874
-0.131003
-0.131558
-0.173931
-0.17855
-0.0989605
-0.0842897
-0.124709
-0.107906
-0.130204
-0.177023
-0.170738
-0.0807264
-0.0775524
-0.102371
-0.0955826
-0.0165206
-0.0113358
-0.0166463
-0.0141992
-0.0196858
-0.0132637
-0.0213139
-0.0296893
-0.0194496
-0.0303721
-0.0218221
-0.028859
-0.0248502
-0.036758
-0.044774
-0.0340479
-0.0443076
-0.0312678
-0.0394127
-0.0406243
-0.0510417
-0.0597131
-0.0494778
-0.0767958
-0.0431396
-0.0602912
-0.0552387
-0.0661386
-0.096058
-0.0882447
-0.104208
-0.0665059
-0.0581796
-0.0649248
-0.0460539
-0.0681125
-0.10201
-0.0864022
-0.0466878
-0.0218622
-0.0391819
-0.0258986
-0.0379961
-0.0805331
-0.0631253
-0.0177644
-0.0127953
-0.0234573
-0.0188697
-0.0257048
-0.0573157
-0.0411477
-0.0123781
-0.0128767
-0.0178258
-0.0153906
-0.0204477
-0.015415
-0.0204516
-0.0153342
-0.0235007
-0.0150656
-0.0183842
-0.0373639
-0.0233183
-0.0371521
-0.0270284
-0.0394046
-0.0201947
-0.0288826
-0.0542427
-0.04352
-0.0650452
-0.0437225
-0.0550992
-0.0324902
-0.0407354
-0.0849202
-0.0717057
-0.0807673
-0.0585032
-0.0625555
-0.0422129
-0.0413823
-0.100719
-0.0810112
-0.0779757
-0.0596295
-0.0432108
-0.0404945
-0.0392482
-0.0857819
-0.0775676
-0.0805803
-0.0383364
-0.029696
-0.0400078
-0.0448063
-0.0726613
-0.0826897
-0.0897771
-0.0281942
-0.0249745
-0.0470458
-0.0543547
-0.0553425
-0.0919236
-0.0959155
-0.0239169
-0.0202566
-0.0564823
-0.0587794
-0.0214151
-0.029525
-0.0295145
-0.0204016
-0.0178872
-0.0241057
-0.0238744
-0.0304064
-0.029866
-0.0372827
-0.018424
-0.0237598
-0.0245628
-0.0302319
-0.0491309
-0.0420843
-0.0606851
-0.0262992
-0.0324958
-0.0328646
-0.0390289
-0.0638296
-0.0663408
-0.073249
-0.033657
-0.0351373
-0.039629
-0.0368264
-0.0638981
-0.0721604
-0.0621615
-0.0353616
-0.0368913
-0.0350167
-0.0306442
-0.0675649
-0.057566
-0.0443478
-0.0380297
-0.0432176
-0.0300179
-0.0313755
-0.0763884
-0.0412069
-0.0392435
-0.0454634
-0.0532439
-0.0329234
-0.0403274
-0.0877443
-0.0410619
-0.0520743
-0.0559193
-0.061609
-0.0433751
-0.0517509
-0.0321277
-0.0356527
-0.0392748
-0.0263825
-0.0286359
-0.0341586
-0.0407313
-0.0404107
-0.0405002
-0.0503574
-0.0300829
-0.0379952
-0.0430768
-0.0539211
-0.0645136
-0.0546253
-0.0706775
-0.0414364
-0.0498067
-0.0562218
-0.0620845
-0.0806927
-0.0758799
-0.0917643
-0.0507418
-0.0456472
-0.0625981
-0.0557137
-0.0698566
-0.093364
-0.077435
-0.0422064
-0.0332181
-0.050851
-0.0388903
-0.046027
-0.0684153
-0.0493856
-0.0315297
-0.0311565
-0.0364295
-0.0340098
-0.0410965
-0.0470434
-0.0477878
-0.0324778
-0.0394926
-0.0341911
-0.0369884
-0.053417
-0.049626
-0.0582386
-0.0423569
-0.0501951
-0.0383187
-0.0425516
-0.0229744
-0.0154589
-0.0234801
-0.018832
-0.0273755
-0.0169822
-0.0244194
-0.0327413
-0.026913
-0.0386974
-0.0309571
-0.0414607
-0.0269114
-0.0352846
-0.0424766
-0.0427196
-0.0532206
-0.0446148
-0.0515001
-0.0380091
-0.041099
-0.06088
-0.0563429
-0.0583113
-0.0528863
-0.0476686
-0.0393479
-0.0261802
-0.0434906
-0.0538238
-0.0331553
-0.0403092
-0.0180776
-0.0210528
-0.0114072
-0.0141259
-0.0275815
-0.0180596
-0.0136887
-0.00972081
-0.0100765
-0.00880679
-0.0100153
-0.0164572
-0.0136197
-0.0095487
-0.010125
-0.00882052
-0.00940611
-0.0113769
-0.0130738
-0.0122052
-0.0104692
-0.0118944
-0.00973451
-0.0109974
-0.0243394
-0.0127026
-0.0159672
-0.0165732
-0.0222154
-0.0123082
-0.0131791
-0.039089
-0.017456
-0.0238504
-0.02388
-0.0296029
-0.0136163
-0.0155126
-0.0536729
-0.0265425
-0.033344
-0.0314602
-0.032713
-0.0161179
-0.0170095
-0.0407735
-0.0563402
-0.0506904
-0.0496936
-0.0504067
-0.048436
-0.0422181
-0.0277646
-0.0420452
-0.0419797
-0.0358752
-0.0379125
-0.0306003
-0.0311747
-0.02175
-0.032709
-0.037485
-0.0108901
-0.0100554
-0.0206201
-0.0214822
-0.0183384
-0.039498
-0.0452687
-0.0100017
-0.0101444
-0.0213744
-0.0197264
-0.0152743
-0.0466065
-0.0462546
-0.0103137
-0.0112509
-0.0188682
-0.0163101
-0.0139509
-0.0145128
-0.0179751
-0.0114409
-0.0124666
-0.0152324
-0.017815
-0.0190479
-0.0196251
-0.0256404
-0.0128404
-0.0145712
-0.0182802
-0.0191388
-0.026031
-0.0277777
-0.0323582
-0.0152382
-0.0169508
-0.0192576
-0.019195
-0.0215316
-0.0286431
-0.0231464
-0.0223563
-0.0242913
-0.0235021
-0.0204783
-0.0254018
-0.0305397
-0.0268071
-0.0268354
-0.0275613
-0.0278476
-0.0243919
-0.038784
-0.0250947
-0.0288249
-0.0241482
-0.0260856
-0.0254119
-0.0289681
-0.0476549
-0.031141
-0.0395901
-0.0262365
-0.0249433
-0.0296823
-0.0295967
-0.0518441
-0.0423432
-0.047886
-0.023998
-0.0203336
-0.0288034
-0.0248819
-0.024186
-0.0253231
-0.0314484
-0.0221251
-0.023364
-0.0252943
-0.0287605
-0.0335785
-0.034245
-0.0457093
-0.0235529
-0.0241011
-0.0297426
-0.0316529
-0.0431971
-0.0489713
-0.0545153
-0.0240659
-0.0226941
-0.0313057
-0.0279844
-0.0363639
-0.0539244
-0.0429754
-0.0218209
-0.0199367
-0.0260314
-0.0210553
-0.0259997
-0.0382608
-0.0275589
-0.0200582
-0.0226216
-0.0201924
-0.0200805
-0.0280157
-0.0260468
-0.0265397
-0.0238582
-0.0271107
-0.0203533
-0.0207518
-0.038173
-0.027656
-0.0312341
-0.0277763
-0.0277336
-0.0207658
-0.0203511
-0.0457977
-0.0324506