/*--------------------------------*- C++ -*----------------------------------*\
  =========                 |
  \\      /  F ield         | OpenFOAM: The Open Source CFD Toolbox
   \\    /   O peration     | Website:  https://openfoam.org
    \\  /    A nd           | Version:  10
     \\/     M anipulation  |
\*---------------------------------------------------------------------------*/
FoamFile
{
    format      ascii;
    class       volScalarField;
    location    "9.8";
    object      turbidity_0;
}
// * * * * * * * * * * * * * * * * * * * * * * * * * * * * * * * * * * * * * //

dimensions      [0 0 0 0 0 0 0];

internalField   nonuniform List<scalar> 
12920
(
-0.0201503
-0.0324149
-0.0408589
-0.0576912
-0.0750022
-0.0955828
-0.123866
-0.160675
-0.196094
-0.227361
-0.254934
-0.28037
-0.303093
-0.322691
-0.339153
-0.35299
-0.36518
-0.376932
-0.388123
-0.400014
-0.0159999
-0.028052
-0.032338
-0.0412631
-0.0565836
-0.0772599
-0.10056
-0.142031
-0.197015
-0.245225
-0.282069
-0.309204
-0.326706
-0.333346
-0.334217
-0.33125
-0.328571
-0.329828
-0.3361
-0.352166
-0.0365078
-0.038911
-0.0448079
-0.0630203
-0.0925052
-0.132382
-0.17646
-0.206092
-0.242132
-0.273223
-0.305585
-0.328509
-0.346975
-0.356986
-0.36401
-0.367365
-0.370647
-0.377903
-0.391383
-0.411908
-0.0323999
-0.0495672
-0.0725955
-0.108865
-0.144204
-0.16992
-0.197517
-0.226916
-0.260287
-0.299446
-0.341755
-0.382508
-0.417873
-0.444433
-0.467476
-0.487038
-0.504657
-0.522429
-0.541322
-0.564938
-0.0234621
-0.047838
-0.0757086
-0.107149
-0.132734
-0.158039
-0.181452
-0.211486
-0.23989
-0.280089
-0.327345
-0.377707
-0.419967
-0.454312
-0.485737
-0.513383
-0.539355
-0.564347
-0.588214
-0.612233
-0.0150447
-0.0384799
-0.0627285
-0.0765678
-0.083349
-0.0942534
-0.106114
-0.127089
-0.155952
-0.204152
-0.267242
-0.336745
-0.388586
-0.424617
-0.44968
-0.474333
-0.501017
-0.531484
-0.563059
-0.593682
-0.0201436
-0.0425527
-0.0532658
-0.0628372
-0.0757845
-0.0897732
-0.106255
-0.124571
-0.145066
-0.174872
-0.222482
-0.289188
-0.324136
-0.340688
-0.352286
-0.375175
-0.407391
-0.451959
-0.504454
-0.557528
-0.048474
-0.0548326
-0.0494894
-0.0554783
-0.0672775
-0.0812476
-0.082901
-0.0880327
-0.101275
-0.105863
-0.118788
-0.171243
-0.183801
-0.164278
-0.148663
-0.180578
-0.217144
-0.261309
-0.314746
-0.375002
-0.043223
-0.0559601
-0.0541206
-0.0635675
-0.0713438
-0.0673878
-0.0638945
-0.0555432
-0.0518153
-0.051202
-0.0820264
-0.134846
-0.139596
-0.116515
-0.103312
-0.11286
-0.148003
-0.188462
-0.233468
-0.283179
-0.0311538
-0.0621296
-0.0626982
-0.0806061
-0.0986259
-0.0920935
-0.0816247
-0.0808662
-0.0798042
-0.0733013
-0.100755
-0.114797
-0.108467
-0.100501
-0.0994628
-0.111116
-0.137414
-0.171585
-0.210909
-0.25373
-0.0305886
-0.0583038
-0.0596584
-0.0850141
-0.114692
-0.113222
-0.110244
-0.102942
-0.102841
-0.103168
-0.10359
-0.102462
-0.101966
-0.101923
-0.105867
-0.127041
-0.15484
-0.188716
-0.226803
-0.266897
-0.0298948
-0.0522483
-0.0620738
-0.085524
-0.113507
-0.111866
-0.106517
-0.100148
-0.094183
-0.0901006
-0.101449
-0.115207
-0.12641
-0.132239
-0.127879
-0.148303
-0.184356
-0.227949
-0.272892
-0.312384
-0.0115161
-0.0421507
-0.0458402
-0.0757831
-0.103971
-0.134749
-0.132283
-0.12767
-0.128088
-0.134674
-0.162478
-0.186852
-0.202085
-0.19754
-0.209977
-0.240479
-0.283111
-0.33538
-0.386702
-0.428618
-0.0309981
-0.0416402
-0.0485119
-0.0757745
-0.11354
-0.160407
-0.198517
-0.234882
-0.264052
-0.295456
-0.326288
-0.357083
-0.38491
-0.40755
-0.422163
-0.435712
-0.454909
-0.485088
-0.527268
-0.570637
-0.0322233
-0.0470925
-0.0659619
-0.0899806
-0.119289
-0.147335
-0.184343
-0.209292
-0.243762
-0.27485
-0.309542
-0.342956
-0.378212
-0.412389
-0.441364
-0.462256
-0.475225
-0.488281
-0.511653
-0.544667
-0.0139455
-0.0393161
-0.0553562
-0.0758033
-0.102216
-0.128065
-0.151588
-0.168782
-0.195971
-0.229718
-0.26844
-0.303386
-0.338656
-0.372911
-0.406357
-0.435151
-0.459415
-0.480813
-0.505958
-0.538096
-0.0412021
-0.0542884
-0.0654223
-0.0839894
-0.11091
-0.131745
-0.155242
-0.18079
-0.215933
-0.256425
-0.296571
-0.329986
-0.361283
-0.389054
-0.416071
-0.440654
-0.466236
-0.494376
-0.526963
-0.563487
-0.0180595
-0.0377888
-0.0615105
-0.0865176
-0.110274
-0.127249
-0.148909
-0.179179
-0.220679
-0.267963
-0.310973
-0.345273
-0.377498
-0.408263
-0.437529
-0.464944
-0.491365
-0.518871
-0.549148
-0.582358
-0.0148732
-0.0476353
-0.0732686
-0.0955203
-0.115681
-0.13719
-0.164015
-0.199007
-0.2363
-0.268677
-0.295166
-0.316937
-0.339857
-0.367198
-0.400122
-0.437279
-0.475917
-0.512965
-0.546991
-0.578566
-0.0233029
-0.0553005
-0.0775212
-0.0965266
-0.115027
-0.135889
-0.159376
-0.18461
-0.206987
-0.224668
-0.23771
-0.249157
-0.261596
-0.276404
-0.294719
-0.318055
-0.34898
-0.386201
-0.427475
-0.468422
-0.00281074
-0.00443166
-0.0093847
-0.0200109
-0.0405093
-0.0594684
-0.0749542
-0.0782454
-0.0796581
-0.0858374
-0.0994939
-0.114707
-0.128764
-0.138982
-0.145187
-0.14604
-0.141629
-0.132696
-0.120129
-0.111806
-0.00494354
-0.00378704
-0.00625628
-0.01116
-0.0197747
-0.0317823
-0.0542901
-0.0694175
-0.0726792
-0.066853
-0.0603705
-0.049078
-0.039276
-0.0320469
-0.0275081
-0.0252616
-0.0248621
-0.0258395
-0.0279316
-0.0311039
-0.00300798
-0.00571373
-0.0108927
-0.0198407
-0.0384415
-0.0350823
-0.0409816
-0.0458015
-0.0518677
-0.049876
-0.0444028
-0.0362169
-0.029427
-0.0245437
-0.0217693
-0.0207487
-0.0213352
-0.0234745
-0.027067
-0.0319943
-0.00773209
-0.00948809
-0.0141121
-0.0259416
-0.0367866
-0.0463777
-0.0670316
-0.0781473
-0.0910188
-0.0876431
-0.0781636
-0.0597771
-0.0457803
-0.0371693
-0.0330238
-0.0316328
-0.0322891
-0.0345932
-0.0383247
-0.044187
-0.000690837
-0.00526539
-0.0144927
-0.0242638
-0.0359103
-0.0504281
-0.0675144
-0.0835188
-0.0991757
-0.102568
-0.0953976
-0.071923
-0.0542837
-0.0451799
-0.0441646
-0.046049
-0.0493397
-0.0532126
-0.0577731
-0.0641987
-0.0145437
-0.0175525
-0.0143036
-0.0131192
-0.018023
-0.0302476
-0.0456718
-0.067527
-0.0939508
-0.112567
-0.110313
-0.0850918
-0.0556825
-0.039334
-0.0355031
-0.0376226
-0.0424942
-0.0490224
-0.0571595
-0.0684862
-0.0146305
-0.0154889
-0.00769723
-0.00741878
-0.0109405
-0.0184482
-0.0304183
-0.0485262
-0.0708836
-0.0950829
-0.0997755
-0.0775208
-0.0476143
-0.0354365
-0.0340415
-0.0382361
-0.0451814
-0.0533504
-0.0626717
-0.0743604
-0.0234526
-0.00945962
-0.00523426
-0.00608603
-0.00948795
-0.0158669
-0.0208213
-0.035882
-0.0530025
-0.0713937
-0.0878165
-0.0683373
-0.0339637
-0.0250665
-0.0253039
-0.0315603
-0.0392671
-0.0493026
-0.0593261
-0.067835
-0.00541954
-0.0138004
-0.00962883
-0.00738162
-0.00743516
-0.00899076
-0.0127712
-0.0188042
-0.0343784
-0.047959
-0.0693443
-0.0959673
-0.0574379
-0.0335119
-0.0213659
-0.0245049
-0.0318584
-0.0403871
-0.0505445
-0.0576936
-0.00696698
-0.0213854
-0.0250799
-0.0171269
-0.0116803
-0.0108338
-0.0139941
-0.0241989
-0.0423476
-0.0601346
-0.0941402
-0.0974534
-0.0818015
-0.0687378
-0.0467702
-0.0369752
-0.0370784
-0.0406453
-0.0451281
-0.0491623
-0.0439022
-0.0227828
-0.0111127
-0.0126328
-0.0203104
-0.0223941
-0.0229875
-0.0224806
-0.0347314
-0.054979
-0.0643368
-0.0640881
-0.0696012
-0.0794556
-0.0795878
-0.0635316
-0.0616793
-0.0590061
-0.0549581
-0.0518163
-0.0113591
-0.0133252
-0.00796966
-0.0157933
-0.0229085
-0.0222108
-0.0324682
-0.0323786
-0.0459054
-0.0710606
-0.0805498
-0.0630501
-0.0421888
-0.0432025
-0.0623363
-0.0717597
-0.0761859
-0.0716697
-0.0616499
-0.054271
-0.0101703
-0.00414844
-0.00459296
-0.010171
-0.0203392
-0.0360425
-0.0450766
-0.0644912
-0.088033
-0.0956895
-0.0837905
-0.0599145
-0.049634
-0.0520517
-0.057049
-0.0630722
-0.0644437
-0.0612883
-0.0579541
-0.0567283
-0.00247152
-0.00553188
-0.0118717
-0.0210874
-0.0383107
-0.0450359
-0.0651021
-0.0772444
-0.0842301
-0.0810751
-0.0765483
-0.0729633
-0.0701571
-0.0658335
-0.0607513
-0.0581048
-0.0581742
-0.0604751
-0.0645095
-0.0705132
-0.00225112
-0.0217075
-0.0294617
-0.0268906
-0.0286164
-0.0228691
-0.029514
-0.0278517
-0.031449
-0.0344972
-0.0446563
-0.0530882
-0.0640402
-0.0679003
-0.0624572
-0.0564296
-0.0564432
-0.0627125
-0.0741135
-0.0872376
-0.00835695
-0.00999797
-0.0120742
-0.0159869
-0.019936
-0.0190911
-0.0181477
-0.0177084
-0.0194575
-0.0213912
-0.0242263
-0.0274504
-0.0330616
-0.0389397
-0.0452553
-0.0486679
-0.0549201
-0.0656145
-0.0817795
-0.102132
-0.0079624
-0.0105689
-0.00963786
-0.0126867
-0.0162063
-0.0150285
-0.017572
-0.0206422
-0.0277573
-0.0284123
-0.0294267
-0.0314235
-0.0359169
-0.0417802
-0.0488694
-0.0580163
-0.0705013
-0.0873284
-0.10927
-0.133758
-0.010577
-0.0203145
-0.024814
-0.0219671
-0.0244447
-0.0291212
-0.0434551
-0.0550004
-0.062004
-0.0518547
-0.0428579
-0.0393294
-0.0447107
-0.054682
-0.0694056
-0.0846001
-0.101271
-0.118923
-0.136467
-0.152715
-0.0192074
-0.0221312
-0.0354753
-0.0420529
-0.053195
-0.056414
-0.0660021
-0.0628528
-0.0573415
-0.0446878
-0.0395034
-0.0401407
-0.0491552
-0.0605965
-0.0740113
-0.0886269
-0.102596
-0.112907
-0.120337
-0.127472
-0.00858736
-0.0176682
-0.0261853
-0.0347167
-0.0462006
-0.0590029
-0.071392
-0.0719249
-0.0654091
-0.0528407
-0.0432783
-0.036485
-0.0342495
-0.0332451
-0.035284
-0.0431893
-0.061425
-0.0876589
-0.111935
-0.126081
-0.00169467
-0.00441214
-0.00728176
-0.012734
-0.0288783
-0.0373067
-0.042338
-0.0393583
-0.0404592
-0.0459842
-0.0555051
-0.0650004
-0.0731145
-0.0779262
-0.0794223
-0.0768108
-0.0707156
-0.0627923
-0.0552771
-0.0498259
-0.00256589
-0.00477118
-0.00672851
-0.0115116
-0.0202569
-0.0281914
-0.038909
-0.0390395
-0.0347768
-0.027956
-0.022902
-0.0193263
-0.0176891
-0.0173062
-0.0178802
-0.019207
-0.0212342
-0.0231077
-0.0247438
-0.0261823
-0.00440903
-0.00708547
-0.0122919
-0.016167
-0.0243477
-0.0224033
-0.0244614
-0.0226849
-0.020992
-0.0176818
-0.0149696
-0.0130659
-0.0123386
-0.0125208
-0.0134388
-0.0148806
-0.0167838
-0.0190525
-0.0216052
-0.0242847
-0.000873291
-0.00580339
-0.0110289
-0.0189988
-0.0303812
-0.0354985
-0.0429518
-0.0407341
-0.0390755
-0.0312044
-0.0241723
-0.018141
-0.0153162
-0.0145146
-0.0149802
-0.0160955
-0.0176122
-0.0193295
-0.0211086
-0.0228725
-0.00191777
-0.00745202
-0.0126029
-0.0196286
-0.0306079
-0.0417787
-0.0491285
-0.0493414
-0.049145
-0.0410164
-0.0320747
-0.0229826
-0.0190859
-0.018295
-0.0192444
-0.0205696
-0.0219555
-0.0231478
-0.024126
-0.0249856
-0.00757784
-0.0112962
-0.00894741
-0.0105665
-0.0174685
-0.0305364
-0.0428133
-0.0534939
-0.0615051
-0.0576247
-0.04406
-0.0293006
-0.0220432
-0.0207256
-0.0220909
-0.0240391
-0.0260377
-0.0278231
-0.0293157
-0.0306006
-0.011828
-0.00665333
-0.00484324
-0.00675495
-0.0107492
-0.0190597
-0.0296954
-0.0436786
-0.0547631
-0.0577559
-0.0450357
-0.0297456
-0.0226584
-0.0225621
-0.0247569
-0.027443
-0.0297473
-0.0312908
-0.0319241
-0.031849
-0.00430014
-0.00203673
-0.00295248
-0.0056167
-0.0107441
-0.0182818
-0.0229205
-0.0340926
-0.0453987
-0.0590048
-0.0585943
-0.027369
-0.0161391
-0.0163681
-0.0193344
-0.0232142
-0.0267625
-0.0295453
-0.0307227
-0.030138
-0.000967347
-0.00397913
-0.00388393
-0.00430262
-0.00722302
-0.0111423
-0.0171639
-0.0255743
-0.0352093
-0.0466967
-0.0632668
-0.031545
-0.0116955
-0.01011
-0.0124697
-0.0168328
-0.0203134
-0.0236378
-0.0261612
-0.0268044
-0.0063409
-0.0122457
-0.0111056
-0.0072845
-0.00780635
-0.00986737
-0.0164378
-0.0278545
-0.0436454
-0.0557544
-0.0470738
-0.0275365
-0.0206193
-0.0174722
-0.0154166
-0.0180816
-0.0197625
-0.0211727
-0.0222991
-0.0229437
-0.00334298
-0.00742109
-0.0059878
-0.00669586
-0.00858072
-0.00955184
-0.0116043
-0.015058
-0.0208956
-0.0277016
-0.0300723
-0.033453
-0.0411874
-0.0497452
-0.0434306
-0.0277999
-0.0265964
-0.0250133
-0.0237595
-0.0235694
-0.0020233
-0.00303749
-0.00361209
-0.00705372
-0.0120683
-0.0153841
-0.0216871
-0.0259042
-0.0369009
-0.0431306
-0.0327636
-0.0251633
-0.0304211
-0.0408968
-0.0410399
-0.0333656
-0.0337923
-0.031483
-0.0292641
-0.0287476
-0.0108781
-0.00280936
-0.0030095
-0.00684476
-0.0142495
-0.0223178
-0.0289942
-0.0434702
-0.0514215
-0.0442278
-0.0311272
-0.025218
-0.0256144
-0.0277946
-0.0292513
-0.0322133
-0.0338371
-0.0347286
-0.0355649
-0.0367675
-0.00478506
-0.00493762
-0.00638253
-0.00961771
-0.015799
-0.0191995
-0.029175
-0.0312657
-0.0315183
-0.0288784
-0.026806
-0.0261038
-0.0265188
-0.0276476
-0.0293459
-0.0314363
-0.0336942
-0.035942
-0.0381347
-0.0403737
-0.00561813
-0.0110822
-0.00894097
-0.00860087
-0.0104212
-0.0113048
-0.0154324
-0.0147368
-0.0165037
-0.0176656
-0.0204388
-0.0226984
-0.0254392
-0.0274556
-0.0292686
-0.0316595
-0.0347094
-0.0379883
-0.0408842
-0.0424961
-0.0038642
-0.0029814
-0.00417563
-0.0062014
-0.00846733
-0.00982667
-0.0107101
-0.0113012
-0.0124706
-0.0141048
-0.0162747
-0.0188236
-0.0220052
-0.0256065
-0.0297622
-0.0342555
-0.0391372
-0.0440064
-0.048637
-0.0520169
-0.00235586
-0.00353527
-0.00483753
-0.00689075
-0.00862475
-0.00984476
-0.0108993
-0.0122887
-0.0141972
-0.0163347
-0.0192895
-0.0227778
-0.0267822
-0.0314132
-0.0366675
-0.0425074
-0.0487105
-0.054902
-0.0609018
-0.0658692
-0.0114752
-0.0130523
-0.011845
-0.0133776
-0.0170038
-0.0201131
-0.0243103
-0.0236247
-0.0228765
-0.0207295
-0.0219103
-0.0253256
-0.0305014
-0.0364881
-0.0432615
-0.0498812
-0.0562335
-0.0616367
-0.0661116
-0.0694185
-0.0155406
-0.0164585
-0.0230298
-0.0268511
-0.0314169
-0.0258669
-0.0253054
-0.0192755
-0.0161313
-0.0143987
-0.0154636
-0.0185249
-0.023423
-0.0295279
-0.0365288
-0.043314
-0.0489076
-0.0522285
-0.0535337
-0.0531353
-0.00480755
-0.0140829
-0.0205024
-0.0271471
-0.0363344
-0.0419641
-0.0425579
-0.034398
-0.0254461
-0.0173756
-0.0127486
-0.0103898
-0.0100986
-0.0116045
-0.0155602
-0.0221755
-0.0311749
-0.0404593
-0.0472912
-0.0497539
-0.00190756
-0.00442404
-0.00717541
-0.0105515
-0.019603
-0.0201269
-0.0227305
-0.0229602
-0.0263424
-0.0308169
-0.0360257
-0.0401419
-0.0428441
-0.0431122
-0.0406854
-0.0361366
-0.0316919
-0.0283431
-0.0260039
-0.0244619
-0.00466245
-0.00561921
-0.00769458
-0.0112459
-0.0177433
-0.0202152
-0.0242813
-0.021061
-0.0183287
-0.0160618
-0.0157177
-0.0160355
-0.0168373
-0.0172788
-0.0177171
-0.0178433
-0.0179567
-0.0180788
-0.0182329
-0.0182611
-0.00370439
-0.00831483
-0.0107615
-0.0131818
-0.0163088
-0.0139475
-0.0135218
-0.0117917
-0.0107978
-0.0101226
-0.0100522
-0.0103363
-0.0109489
-0.0116663
-0.0124885
-0.013259
-0.0140074
-0.0146539
-0.0151659
-0.0155064
-0.000885927
-0.00537384
-0.00993972
-0.0161381
-0.021261
-0.0201568
-0.0200447
-0.0164584
-0.0145844
-0.0119201
-0.0106344
-0.0100205
-0.0101551
-0.0105337
-0.0110201
-0.0114606
-0.0118322
-0.0121166
-0.0123628
-0.0126729
-0.00465425
-0.00966683
-0.0123315
-0.0178275
-0.0257949
-0.0271129
-0.0262973
-0.0212137
-0.0191775
-0.0154428
-0.0133377
-0.0119554
-0.0118325
-0.0119402
-0.012117
-0.0120922
-0.0119339
-0.0116945
-0.0114869
-0.011455
-0.00313758
-0.00659241
-0.00809312
-0.0112308
-0.0185512
-0.026106
-0.0297169
-0.0282224
-0.0281598
-0.0228277
-0.0174783
-0.0143917
-0.013678
-0.0136831
-0.0137205
-0.0135031
-0.0130953
-0.0125785
-0.0120671
-0.0117698
-0.0108076
-0.00454549
-0.00498269
-0.00831904
-0.0143683
-0.0217447
-0.0273593
-0.0294672
-0.0297163
-0.0258575
-0.0187948
-0.0150777
-0.0141242
-0.0142359
-0.0141972
-0.0138513
-0.0131978
-0.0123451
-0.0115156
-0.0109804
-0.00130282
-0.00152742
-0.00313313
-0.00695136
-0.0135788
-0.0210513
-0.0248529
-0.0335974
-0.0405066
-0.0431607
-0.0252704
-0.0137852
-0.0128641
-0.0136686
-0.0127672
-0.0128843
-0.0125373
-0.011947
-0.0111195
-0.0104708
-0.000572825
-0.00135825
-0.00244752
-0.00397347
-0.00775789
-0.0137302
-0.0205276
-0.0304075
-0.0424448
-0.0465386
-0.0278707
-0.0106576
-0.00946407
-0.010507
-0.01171
-0.0111108
-0.0112904
-0.0112572
-0.0110518
-0.010716
-0.00191913
-0.00319885
-0.00407163
-0.00439498
-0.00678658
-0.00945135
-0.0154674
-0.0202341
-0.0243658
-0.0215034
-0.0121501
-0.00899255
-0.00898418
-0.0100841
-0.0122826
-0.0124118
-0.0120549
-0.0117159
-0.0117205
-0.0120153
-0.00120897
-0.0029555
-0.0026054
-0.0040213
-0.00638986
-0.00752435
-0.00933021
-0.0106505
-0.0126314
-0.0149662
-0.0174467
-0.0201713
-0.0198843
-0.0167983
-0.0151037
-0.0163711
-0.0158914
-0.0152966
-0.0153842
-0.0161146
-0.00050104
-0.00140948
-0.00266145
-0.00551772
-0.00912617
-0.0117315
-0.0155115
-0.016913
-0.0185198
-0.017548
-0.0176071
-0.020595
-0.0223616
-0.0203231
-0.017646
-0.021276
-0.0220529
-0.0224445
-0.0231335
-0.0241104
-0.00270824
-0.0012767
-0.00232192
-0.00544985
-0.00986257
-0.0132553
-0.01636
-0.0200616
-0.0195988
-0.0167444
-0.0151592
-0.0152441
-0.0161445
-0.0178506
-0.0217535
-0.0240656
-0.0261416
-0.028193
-0.0299465
-0.0312828
-0.00373554
-0.00249664
-0.00384172
-0.00658928
-0.0093999
-0.011109
-0.0138414
-0.0144354
-0.0146021
-0.0149894
-0.015598
-0.016672
-0.0178767
-0.0190791
-0.020237
-0.0212393
-0.0222435
-0.023091
-0.0239188
-0.024733
-0.00290843
-0.00545881
-0.0046753
-0.00664178
-0.00825983
-0.00906264
-0.0107445
-0.0111523
-0.0124747
-0.0136732
-0.0152352
-0.0166886
-0.0180987
-0.0191794
-0.019946
-0.0204271
-0.0207076
-0.0207245
-0.0204973
-0.0201826
-0.000830803
-0.00114175
-0.00298504
-0.00560533
-0.00748655
-0.00829852
-0.00909926
-0.0102283
-0.0116703
-0.0133574
-0.0151472
-0.0170212
-0.0188619
-0.0204957
-0.0218191
-0.0227375
-0.0233807
-0.0237552
-0.0239752
-0.0239466
-0.00554825
-0.00453887
-0.00495692
-0.00656632
-0.0075837
-0.00844054
-0.0093981
-0.0109219
-0.0128647
-0.0149261
-0.0170614
-0.0191478
-0.021178
-0.0230139
-0.0246295
-0.0259327
-0.0270342
-0.0279584
-0.0289183
-0.0297467
-0.0175321
-0.0113327
-0.00965213
-0.0104543
-0.0113753
-0.011404
-0.0127237
-0.0129976
-0.0143626
-0.0158811
-0.0181162
-0.0203457
-0.0227386
-0.0247455
-0.0265606
-0.0276653
-0.0284753
-0.0289564
-0.0296715
-0.0306968
-0.0108009
-0.0167102
-0.0193736
-0.0188598
-0.0176826
-0.0131357
-0.0115288
-0.010526
-0.011291
-0.012878
-0.015074
-0.0174541
-0.0200038
-0.0221664
-0.0237916
-0.0243132
-0.0237909
-0.0223554
-0.0208108
-0.0196939
-0.00742352
-0.0170925
-0.0227449
-0.0279133
-0.0321277
-0.0286599
-0.0231052
-0.0157424
-0.0109925
-0.00841652
-0.00776761
-0.00851516
-0.0103398
-0.0130676
-0.0163097
-0.0195178
-0.0221279
-0.0236486
-0.0239377
-0.0230547
-0.00213801
-0.0047832
-0.00793207
-0.0105365
-0.0130495
-0.013616
-0.0156329
-0.0166318
-0.0186382
-0.0200168
-0.0212951
-0.0215594
-0.0210916
-0.0193335
-0.0168451
-0.015022
-0.0138935
-0.0132088
-0.0126754
-0.0121759
-0.00106236
-0.00458696
-0.00754535
-0.0097327
-0.012192
-0.0125474
-0.0136376
-0.0127735
-0.0129226
-0.0131124
-0.0135354
-0.0135159
-0.0132963
-0.0126721
-0.0119028
-0.0111331
-0.0105773
-0.0102778
-0.0102481
-0.0104885
-0.00140769
-0.00606173
-0.00768448
-0.00913258
-0.00945939
-0.00886203
-0.00879979
-0.00868667
-0.00877385
-0.00887047
-0.0090183
-0.00909425
-0.00917268
-0.00921383
-0.00932573
-0.00952729
-0.00986531
-0.0102968
-0.0107782
-0.0113089
-0.00176818
-0.00699909
-0.0087468
-0.0101392
-0.00952782
-0.00900899
-0.00830239
-0.00788699
-0.00773829
-0.00767153
-0.00772952
-0.00784909
-0.00804301
-0.00832557
-0.00868882
-0.00911892
-0.00958712
-0.0100583
-0.0105102
-0.010919
-0.00298087
-0.00823198
-0.010264
-0.0117116
-0.0120116
-0.0104503
-0.00934814
-0.00835612
-0.00816026
-0.00787696
-0.00777108
-0.00767324
-0.00774342
-0.00790326
-0.00818151
-0.00853484
-0.00895664
-0.00941164
-0.0098659
-0.0102701
-0.00293851
-0.00537864
-0.00702103
-0.00985409
-0.0124783
-0.0116985
-0.0109873
-0.00975777
-0.00963405
-0.00874721
-0.00803417
-0.00761835
-0.00750917
-0.00759586
-0.00783381
-0.00818482
-0.00862711
-0.00913103
-0.00965721
-0.010144
-0.0101696
-0.00416337
-0.00484959
-0.00796728
-0.0111598
-0.0117488
-0.0110554
-0.0104778
-0.00984085
-0.00917412
-0.00793736
-0.00746361
-0.00734016
-0.00751121
-0.00776481
-0.00811872
-0.00857588
-0.00911826
-0.00971922
-0.0102859
-0.00499044
-0.00245589
-0.00289076
-0.00591196
-0.00959757
-0.0111839
-0.0120901
-0.0126869
-0.012648
-0.0123494
-0.00867722
-0.00729191
-0.00696942
-0.00703958
-0.00772239
-0.00814989
-0.00858674
-0.00909
-0.00962678
-0.0101362
-0.000571238
-0.00102257
-0.00237914
-0.00412172
-0.00615448
-0.00870069
-0.0105649
-0.0124514
-0.0130044
-0.0114953
-0.00841447
-0.00732915
-0.00693485
-0.0065788
-0.00667304
-0.00822191
-0.00873164
-0.00918916
-0.00962669
-0.0100182
-0.00334353
-0.00285991
-0.00313083
-0.0043027
-0.00572952
-0.00658771
-0.00775837
-0.00741347
-0.00704718
-0.00701178
-0.00737133
-0.00836397
-0.00918792
-0.00878898
-0.00797462
-0.00947031
-0.0099784
-0.010457
-0.0108862
-0.0112298
-0.00106596
-0.00209556
-0.00290746
-0.00448363
-0.0061895
-0.00705672
-0.00780417
-0.0081576
-0.0085914
-0.00898842
-0.00927902
-0.00977849
-0.0110432
-0.0119372
-0.0114105
-0.0117584
-0.0120011
-0.012275
-0.0125432
-0.0127982
-0.000106239
-0.0011105
-0.00269202
-0.00497588
-0.00703244
-0.00849424
-0.00930866
-0.00973484
-0.01058
-0.0111696
-0.010941
-0.0110665
-0.0121891
-0.0137878
-0.01476
-0.0149197
-0.0147055
-0.0141996
-0.0136715
-0.0133608
-8.22616e-05
-0.00119285
-0.00352401
-0.00560132
-0.00723818
-0.00878291
-0.00914308
-0.0101755
-0.0105905
-0.0109925
-0.0114354
-0.0122606
-0.0133573
-0.0148093
-0.0147568
-0.0150382
-0.0149073
-0.0145127
-0.0140104
-0.0138195
-0.000656751
-0.00185782
-0.00412667
-0.00642795
-0.00771411
-0.00881701
-0.00948684
-0.0102978
-0.0106882
-0.011142
-0.0113679
-0.0115442
-0.0116685
-0.0117226
-0.0118009
-0.0116857
-0.0115577
-0.011349
-0.011237
-0.0113916
-0.00182543
-0.00378824
-0.0054989
-0.0069893
-0.00800769
-0.00893835
-0.00966965
-0.0103302
-0.0108572
-0.0112863
-0.0115385
-0.0116405
-0.0116253
-0.0114624
-0.0112237
-0.0109446
-0.0106734
-0.0104224
-0.0102651
-0.010313
-0.000835222
-0.00150794
-0.0040679
-0.006233
-0.00735441
-0.00845012
-0.009547
-0.0105042
-0.0112075
-0.0117725
-0.0121289
-0.0123544
-0.0124569
-0.0124508
-0.0123406
-0.0121434
-0.0119144
-0.0116796
-0.011507
-0.0114989
-0.0110478
-0.0081441
-0.0062953
-0.00628748
-0.00723573
-0.00858351
-0.00985466
-0.0108781
-0.0117295
-0.0123411
-0.0128913
-0.013327
-0.013708
-0.0139768
-0.0141513
-0.014193
-0.0141203
-0.0139612
-0.0137985
-0.0138015
-0.00799577
-0.013026
-0.00986933
-0.0076482
-0.00789424
-0.00886891
-0.0100906
-0.0109094
-0.0117353
-0.0122704
-0.0129457
-0.0135005
-0.0142297
-0.0148418
-0.0155578
-0.0161035
-0.0166225
-0.0169732
-0.0172386
-0.0175467
-0.0213673
-0.0150046
-0.0128308
-0.00988897
-0.0089501
-0.00843004
-0.00924107
-0.0102622
-0.0111871
-0.0117436
-0.0120281
-0.0120929
-0.0122936
-0.0126242
-0.0133806
-0.0143478
-0.015696
-0.0173151
-0.0191723
-0.0209169
-0.0248524
-0.0194741
-0.0221228
-0.0208949
-0.0190142
-0.0129374
-0.00978796
-0.00815749
-0.00838543
-0.00950707
-0.0108283
-0.0118728
-0.0125034
-0.0127366
-0.0127089
-0.0123662
-0.0119144
-0.0114515
-0.0112069
-0.0113259
-0.0519203
-0.0339782
-0.0322579
-0.0306699
-0.0204422
-0.0176635
-0.0182817
-0.0311917
-0.0316228
-0.0318651
-0.0171672
-0.0115583
-0.0186518
-0.0201227
-0.0296602
-0.0325047
-0.0292764
-0.0179127
-0.0196081
-0.0191309
-0.0199476
-0.0321693
-0.0277658
-0.0249989
-0.0204104
-0.0231841
-0.0206926
-0.0241508
-0.0573744
-0.0612984
-0.0576186
-0.0562388
-0.0509737
-0.046094
-0.0361474
-0.0523361
-0.0588969
-0.066419
-0.0506121
-0.0512446
-0.0353389
-0.0369354
-0.0507405
-0.0665653
-0.0627993
-0.0517265
-0.0531939
-0.0387802
-0.0478822
-0.0697898
-0.0639607
-0.0869671
-0.0535768
-0.0625603
-0.0527002
-0.0794987
-0.122688
-0.0972885
-0.1182
-0.071915
-0.115284
-0.0928151
-0.120413
-0.144183
-0.119852
-0.115157
-0.126509
-0.128171
-0.122609
-0.11808
-0.122491
-0.112317
-0.103913
-0.12182
-0.0978364
-0.115147
-0.105
-0.10332
-0.101292
-0.0943089
-0.0906382
-0.0734336
-0.100821
-0.0840004
-0.0790701
-0.0941791
-0.0965828
-0.0554106
-0.0417348
-0.0768051
-0.0637482
-0.0821785
-0.0979605
-0.101004
-0.0411735
-0.046054
-0.0605969
-0.0673242
-0.0720836
-0.100948
-0.0998626
-0.049151
-0.0589295
-0.0741873
-0.0935861
-0.0929334
-0.100637
-0.104562
-0.0633526
-0.0890758
-0.0973354
-0.105845
-0.114314
-0.105278
-0.104609
-0.0997708
-0.118011
-0.107568
-0.108908
-0.110502
-0.103933
-0.101946
-0.119021
-0.115526
-0.108682
-0.107679
-0.102473
-0.101369
-0.099862
-0.113607
-0.107017
-0.107342
-0.106405
-0.0946538
-0.0993834
-0.0975836
-0.104253
-0.0918824
-0.106118
-0.105005
-0.103935
-0.115064
-0.108472
-0.0979178
-0.0712153
-0.109911
-0.0994148
-0.102708
-0.106367
-0.101692
-0.0645736
-0.0644125
-0.0933917
-0.084321
-0.102975
-0.100339
-0.0966929
-0.0701978
-0.0913797
-0.0856886
-0.0943784
-0.103697
-0.0965351
-0.100304
-0.0955933
-0.101569
-0.0960464
-0.100586
-0.102733
-0.102204
-0.107892
-0.102349
-0.102894
-0.102263
-0.10527
-0.102018
-0.109766
-0.11517
-0.102791
-0.102074
-0.105134
-0.100418
-0.10195
-0.116824
-0.120891
-0.101739
-0.100865
-0.0974552
-0.0864811
-0.101065
-0.121656
-0.120779
-0.100776
-0.10129
-0.083439
-0.0803159
-0.101778
-0.109273
-0.101011
-0.0989621
-0.0941278
-0.103015
-0.0898421
-0.0957971
-0.0981808
-0.092837
-0.090725
-0.0831353
-0.085259
-0.0839131
-0.0896705
-0.0902304
-0.0872168
-0.0833949
-0.088499
-0.0834162
-0.0854028
-0.0978958
-0.0876765
-0.105164
-0.0898946
-0.0977614
-0.0868565
-0.108041
-0.111986
-0.114112
-0.145586
-0.10147
-0.109449
-0.1175
-0.137824
-0.124002
-0.152927
-0.171296
-0.109933
-0.103196
-0.138734
-0.130506
-0.131607
-0.174024
-0.178467
-0.0985054
-0.0839143
-0.124081
-0.107434
-0.13001
-0.176783
-0.170404
-0.0804551
-0.0776637
-0.101899
-0.0955362
-0.0167252
-0.0114271
-0.0168542
-0.0143267
-0.0198806
-0.0133977
-0.0215814
-0.0302325
-0.019709
-0.0307118
-0.0220335
-0.0291356
-0.0251556
-0.037112
-0.045158
-0.0343636
-0.0447453
-0.0315447
-0.0398094
-0.0409615
-0.0514123
-0.0604959
-0.0500841
-0.0780631
-0.0436076
-0.0611157
-0.0556917
-0.0662338
-0.0966558
-0.0894664
-0.104201
-0.067139
-0.0571449
-0.0646316
-0.0452452
-0.067012
-0.101676
-0.0857845
-0.0454813
-0.0213325
-0.0384806
-0.0255921
-0.0375266
-0.0799272
-0.0625364
-0.0174128
-0.0127279
-0.02323
-0.0187525
-0.0255301
-0.0567285
-0.0406399
-0.012347
-0.0129138
-0.0177229
-0.0153183
-0.0206855
-0.015499
-0.0206074
-0.0154708
-0.0237555
-0.0151327
-0.0184954
-0.037774
-0.0235428
-0.0376046
-0.0273225
-0.0397847
-0.0203488
-0.0291696
-0.0546695
-0.0440458
-0.065563
-0.0441012
-0.0554254
-0.0327856
-0.040839
-0.0859117
-0.0721077
-0.0806658
-0.0588097
-0.0623595
-0.0422277
-0.0412062
-0.1005
-0.0807829
-0.0777473
-0.0591747
-0.0425954
-0.0403273
-0.0392456
-0.0853285
-0.0774384
-0.0807052
-0.0378314
-0.0294969
-0.0400854
-0.0449967
-0.072301
-0.0828694
-0.0899956
-0.0280468
-0.0248667
-0.0472645
-0.0545816
-0.0547934
-0.0921242
-0.0959624
-0.0238024
-0.0201185
-0.0566748
-0.0587145
-0.0214195
-0.0295364
-0.0294871
-0.0203333
-0.0178867
-0.0240855
-0.0238693
-0.0306817
-0.0299035
-0.0376165
-0.0184825
-0.0239523
-0.0246101
-0.0304096
-0.0494968
-0.0425234
-0.061221
-0.0265061
-0.03259
-0.0330556
-0.0390795
-0.0637127
-0.0667737
-0.0731336
-0.0336994
-0.0351014
-0.0396009
-0.0366186
-0.0637692
-0.0718894
-0.0616194
-0.0353397
-0.0369582
-0.0348039
-0.0305315
-0.0676847
-0.0569979
-0.0439029
-0.0381463
-0.043417
-0.0299557
-0.0314725
-0.0766483
-0.0408656
-0.0393132
-0.0456895
-0.0535181
-0.0330728
-0.0406023
-0.0880007
-0.0412492
-0.0525361
-0.0561876
-0.0617137
-0.0436694
-0.051994
-0.0320402
-0.0357678
-0.0393087
-0.0264302
-0.0287076
-0.0342929
-0.0408504
-0.0407939
-0.0405124
-0.0505758
-0.0302031
-0.0382624
-0.0431808
-0.0540925
-0.0651409
-0.0548173
-0.0711138
-0.0417245
-0.0499421
-0.0563021
-0.0621642
-0.0807648
-0.076288
-0.0920597
-0.0507635
-0.0453183
-0.0625717
-0.0552747
-0.0692511
-0.0933935
-0.0765914
-0.0418442
-0.0329865
-0.0503697
-0.0385941
-0.0455294
-0.0675461
-0.0490167
-0.031373
-0.0312177
-0.0362113
-0.0339899
-0.0411807
-0.0468401
-0.0478981
-0.0326038
-0.0397489
-0.0342105
-0.0371043
-0.0538229
-0.0497936
-0.0585571
-0.0426289
-0.050425
-0.038445
-0.0426994
-0.0231875
-0.0156179
-0.0237456
-0.0190007
-0.0276362
-0.0171497
-0.0246322
-0.0329919
-0.0272092
-0.0390571
-0.0312487
-0.0417455
-0.0271313
-0.0355535
-0.0428565
-0.0430732
-0.0535369
-0.0448854
-0.0516764
-0.0382524
-0.0410063
-0.0614096
-0.0566431
-0.0580058
-0.0529912
-0.0471137
-0.0390893
-0.0255983
-0.0422882
-0.0532172
-0.0324629
-0.0394455
-0.0174791
-0.0205185
-0.0112113
-0.0137934
-0.027037
-0.0178575
-0.0133139
-0.00968414
-0.00995972
-0.00879517
-0.0100044
-0.0163109
-0.0135525
-0.00953716
-0.0101488
-0.0088213
-0.00942724
-0.0114246
-0.0130192
-0.0121851
-0.0104982
-0.0119355
-0.00976035
-0.0110339
-0.0245812
-0.0127773
-0.0160658
-0.016725
-0.0223677
-0.0123517
-0.0132139
-0.0394533
-0.0175745
-0.0240489
-0.0240356
-0.0297994
-0.0136601
-0.0155703
-0.053905
-0.0267528
-0.0334198
-0.0316322
-0.0325966
-0.016167
-0.0170131
-0.040519
-0.0563219
-0.0506943
-0.0496409
-0.0502579
-0.0482078
-0.0421065
-0.0273973
-0.0414024
-0.0415001
-0.0352753
-0.0374507
-0.030033
-0.0307507
-0.0216166
-0.0328024
-0.0376613
-0.0108195
-0.0100442
-0.0206673
-0.0214945
-0.0182579
-0.0396882
-0.0454247
-0.00999616
-0.0101514
-0.0213656
-0.0196599
-0.0151965
-0.0467166
-0.0461119
-0.0103262
-0.0112809
-0.0187879
-0.0162279
-0.0140162
-0.014482
-0.0180474
-0.011465
-0.0124893
-0.015209
-0.0178237
-0.0191664
-0.0197253
-0.025774
-0.0128697
-0.0146211
-0.0182868
-0.0191322
-0.0261248
-0.0279088
-0.032367
-0.015287
-0.0169874
-0.0192447
-0.0191704
-0.0215874
-0.0286446
-0.0232171
-0.0223904
-0.0243549
-0.0235367
-0.0205312
-0.0254842
-0.0305713
-0.0268544
-0.0268949
-0.0276177
-0.0279259
-0.0244632
-0.0389829
-0.0250941
-0.0289938
-0.0242237
-0.0261233
-0.0255244
-0.0290545
-0.0478634
-0.031355
-0.0398614
-0.0262518
-0.0248814
-0.0297477
-0.0295689
-0.0518162
-0.0426019
-0.0480088
-0.023914
-0.020208
-0.0287431
-0.0247637
-0.024259
-0.0254697
-0.0315942
-0.0221965
-0.0233686
-0.0254343
-0.0288133
-0.0338053
-0.0344018
-0.0459703
-0.0235578
-0.0240955
-0.0297789
-0.0316339
-0.0432459
-0.0491951
-0.0545538
-0.0240453
-0.0226112
-0.0312481
-0.0278213
-0.0360301
-0.053839
-0.0425247
-0.0217253
-0.0199025
-0.0258406
-0.0209284
-0.0258448
-0.0378296
-0.0273303
-0.0200642
-0.0227132
-0.0201155
-0.0200946
-0.0281676
-0.0259204
-0.02661
-0.0239582
-0.0271918
-0.0203721
-0.0207615
-0.0384199
-0.0277528
-0.03135
-0.0278379
-0.0277149
-0.0207708
-0.0203452
-0.0459208
-0.0325595