/*--------------------------------*- C++ -*----------------------------------*\
  =========                 |
  \\      /  F ield         | OpenFOAM: The Open Source CFD Toolbox
   \\    /   O peration     | Website:  https://openfoam.org
    \\  /    A nd           | Version:  10
     \\/     M anipulation  |
\*---------------------------------------------------------------------------*/
FoamFile
{
    format      ascii;
    class       volScalarField;
    location    "0.3";
    object      k_0;
}
// * * * * * * * * * * * * * * * * * * * * * * * * * * * * * * * * * * * * * //

dimensions      [0 2 -2 0 0 0 0];

internalField   nonuniform List<scalar> 
12920
(
0.00129358
0.001728
0.00185516
0.00194594
0.00183935
0.00163907
0.00138323
0.00119804
0.00109214
0.00104753
0.00103676
0.00103516
0.00103486
0.00103483
0.00103482
0.00103481
0.00103477
0.00103474
0.00103474
0.00103469
0.00127412
0.00162489
0.00252188
0.00266661
0.00253666
0.00168028
0.00128047
0.00110342
0.00104946
0.00103727
0.00103519
0.00103484
0.00103487
0.00103492
0.00103491
0.00103489
0.00103487
0.00103479
0.00103477
0.00103476
0.00141315
0.00180378
0.00265646
0.00302975
0.00304497
0.0016433
0.00116919
0.00105985
0.00103947
0.00103567
0.00103505
0.00103496
0.00103496
0.00103496
0.00103495
0.00103487
0.0010348
0.00103475
0.00103474
0.00103475
0.00183109
0.00418059
0.00554995
0.00376979
0.0026141
0.00126489
0.00107967
0.00104184
0.00103604
0.00103511
0.00103496
0.00103491
0.00103491
0.00103486
0.00103492
0.00103493
0.0010349
0.00103481
0.00103477
0.00103476
0.00317423
0.00563632
0.00421178
0.0018132
0.00156931
0.00111778
0.00106
0.00104072
0.00103514
0.00103459
0.00103451
0.00103473
0.0010349
0.00103493
0.00103494
0.00103492
0.00103488
0.00103484
0.00103477
0.00103477
0.00329291
0.00381911
0.00215376
0.00192461
0.0014039
0.00107269
0.00106489
0.00103944
0.00103752
0.00103543
0.00103509
0.00103491
0.00103486
0.0010348
0.00103489
0.00103493
0.00103491
0.00103483
0.00103476
0.00103475
0.00116246
0.0021364
0.00208197
0.00215747
0.0015263
0.00114359
0.0010746
0.00104772
0.0010793
0.00106428
0.00104568
0.00103442
0.00103046
0.0010308
0.00103091
0.00103286
0.00103423
0.00103474
0.00103479
0.0010348
0.00126542
0.00181731
0.00198323
0.00190262
0.00167001
0.00127158
0.00110545
0.00106408
0.00106932
0.00108368
0.00107124
0.00107109
0.00106849
0.00106952
0.000960886
0.000978119
0.00100878
0.0010256
0.00103192
0.00103419
0.001414
0.0016017
0.00159486
0.00158945
0.00149717
0.00133654
0.00111448
0.00108539
0.00113915
0.001171
0.00115346
0.00115302
0.00114927
0.00114837
0.00103341
0.000935491
0.000974698
0.00100867
0.00102541
0.00103256
0.00104039
0.00136381
0.00141549
0.00138398
0.00124772
0.0011251
0.00108491
0.00110003
0.00114061
0.0011503
0.00115034
0.00115048
0.00115078
0.0011504
0.000983896
0.000911339
0.000964451
0.00100425
0.00102396
0.00103224
0.00103239
0.00126553
0.00178736
0.00190544
0.00143551
0.0011907
0.00110539
0.00110332
0.00112506
0.00115107
0.00114848
0.00115001
0.00114915
0.00114714
0.00098459
0.000911524
0.000964423
0.00100418
0.00102399
0.00103226
0.00190702
0.00251071
0.0035583
0.00452128
0.00337002
0.00175262
0.00156887
0.00112652
0.00111463
0.00114766
0.00115054
0.00115125
0.00115129
0.00115122
0.000992757
0.000935193
0.000974672
0.00100856
0.00102549
0.00103261
0.00107349
0.00239438
0.0037783
0.00660727
0.0061445
0.00451247
0.00253716
0.00119292
0.00107078
0.00107497
0.00107134
0.00106922
0.0010691
0.00106896
0.000958654
0.000979305
0.00100935
0.00102581
0.0010322
0.00103432
0.00259966
0.00655245
0.0115978
0.0100977
0.00667159
0.00459479
0.00229406
0.00138498
0.00112045
0.00105278
0.00103667
0.00103426
0.00103237
0.00103256
0.00103282
0.00103363
0.00103443
0.00103482
0.00103492
0.00103491
0.00171514
0.0028707
0.00649865
0.00635101
0.00508024
0.00359706
0.00240306
0.00155707
0.00115952
0.00105303
0.00103693
0.00103515
0.00103497
0.00103497
0.00103497
0.00103497
0.00103498
0.00103498
0.00103497
0.00103492
0.00441633
0.00349939
0.00278466
0.0027825
0.00267725
0.00233933
0.00167947
0.00118457
0.00105901
0.00103736
0.00103518
0.001035
0.00103499
0.00103499
0.00103499
0.00103499
0.00103499
0.00103499
0.00103497
0.00103492
0.00571467
0.00422115
0.00263405
0.00247752
0.00233392
0.00169309
0.0012241
0.00107382
0.00104184
0.00103595
0.00103511
0.001035
0.00103499
0.00103499
0.00103499
0.00103499
0.00103499
0.00103499
0.00103497
0.00103493
0.00144987
0.00199724
0.00224746
0.00322942
0.00292536
0.00191916
0.00124934
0.00107761
0.00104231
0.0010361
0.00103514
0.00103493
0.00103497
0.00103491
0.00103496
0.00103499
0.00103499
0.00103499
0.00103498
0.00103494
0.0010518
0.00110991
0.00133844
0.00160734
0.00159458
0.0012698
0.0011104
0.00104774
0.00103581
0.00103469
0.00103475
0.00103482
0.00103493
0.00103495
0.00103497
0.00103499
0.00103499
0.00103499
0.00103498
0.00103494
0.0010048
0.00101066
0.00104943
0.00111815
0.00109765
0.00104983
0.00103871
0.00103552
0.001035
0.00103497
0.00103497
0.0010349
0.00103496
0.0010349
0.00103496
0.00103495
0.00103497
0.00103499
0.00103499
0.00103496
0.00124103
0.00238738
0.00286901
0.00376332
0.00367604
0.00310836
0.00203179
0.00134064
0.00108932
0.00102947
0.00101701
0.00101422
0.00101313
0.00101287
0.0010127
0.00101277
0.00101282
0.00101305
0.00101318
0.00101348
0.00170377
0.00292611
0.00492229
0.00979394
0.00749808
0.00400703
0.00250862
0.00175518
0.00123901
0.000980482
0.00087044
0.000828551
0.000808806
0.000800696
0.00079503
0.000792655
0.000790512
0.000789238
0.000789493
0.000790207
0.00151093
0.00209481
0.00367156
0.00972002
0.00870306
0.00388574
0.00181616
0.00121349
0.000979828
0.000879438
0.000830113
0.000809534
0.000798092
0.000793008
0.000790027
0.000788568
0.000787628
0.000787178
0.000787773
0.000789278
0.00251372
0.0105871
0.01934
0.0228209
0.011903
0.00324739
0.00164752
0.00111239
0.000995489
0.000874021
0.000839726
0.000809977
0.000800627
0.000793311
0.000790761
0.000788825
0.000787915
0.00078735
0.000787955
0.000789405
0.00165524
0.0108452
0.0148083
0.0100363
0.00882204
0.00291353
0.00193566
0.00112198
0.00095819
0.000850236
0.000825516
0.000803901
0.000797889
0.000792331
0.000790255
0.000788681
0.000787833
0.00078742
0.000788035
0.000789523
0.00209502
0.01037
0.00913167
0.00565934
0.00466345
0.00210777
0.00265947
0.00149479
0.00116119
0.000897752
0.000848012
0.000809043
0.000801068
0.000793156
0.000790996
0.000789225
0.000788199
0.00078766
0.000788263
0.000789667
0.00182054
0.00779557
0.0076699
0.00654953
0.0032157
0.00290729
0.00247691
0.00145007
0.00130885
0.000978673
0.000893825
0.000825871
0.000807428
0.000795414
0.00079197
0.000789832
0.00078863
0.000788001
0.000788546
0.000789843
0.00141351
0.0029558
0.00391668
0.00291092
0.00189684
0.00229628
0.00228722
0.00408834
0.00291935
0.00199008
0.00129611
0.000994752
0.000878956
0.000828695
0.000808467
0.000799462
0.000793422
0.000789634
0.000789563
0.000790109
0.00113933
0.00195031
0.00222218
0.00200089
0.00169287
0.0019215
0.00216445
0.00356552
0.00286616
0.00134646
0.000957244
0.000929599
0.000879365
0.000877933
0.000857718
0.000817143
0.000804179
0.00079417
0.000791773
0.000790925
0.00105947
0.0015826
0.00186192
0.00178176
0.00161185
0.00171021
0.00222347
0.00302573
0.00124332
0.00085787
0.000814052
0.000803292
0.000796598
0.000792908
0.000792072
0.000791303
0.000790178
0.000788974
0.000789311
0.000790241
0.00125228
0.00148079
0.00213247
0.00433258
0.0041469
0.00270347
0.00255264
0.00228919
0.00120958
0.000869248
0.000814698
0.000807365
0.000806796
0.000803139
0.000794914
0.000791564
0.000790304
0.000788846
0.000789249
0.000790221
0.00341155
0.00272972
0.00738826
0.00926928
0.00645748
0.00746194
0.00928073
0.00299144
0.00187948
0.00102632
0.000826949
0.000809423
0.000802684
0.000798808
0.000808976
0.000816845
0.000803219
0.000793709
0.00079166
0.000790999
0.00120453
0.00327212
0.00835924
0.0123951
0.0100965
0.00645158
0.00580975
0.00347917
0.00209347
0.00119821
0.000977888
0.000855995
0.000828864
0.000811884
0.000802894
0.000797218
0.000792577
0.000789529
0.000789623
0.000790268
0.00186494
0.0100771
0.0163411
0.0178418
0.0118342
0.00796927
0.00518829
0.00270234
0.00158223
0.00101703
0.000881792
0.000815105
0.000802415
0.000792415
0.000791575
0.000789408
0.000788731
0.000788109
0.000788652
0.000789984
0.00170328
0.00354061
0.00857622
0.00792775
0.00541577
0.00299095
0.00225296
0.00200275
0.00157852
0.00105716
0.000866027
0.000817107
0.000798778
0.000793004
0.000790373
0.000788972
0.000788166
0.000787704
0.000788273
0.00078977
0.00465374
0.00657902
0.00461546
0.00316901
0.00252342
0.00212135
0.00185271
0.00177185
0.0011917
0.000924038
0.000828421
0.000807655
0.000795634
0.000792026
0.000789532
0.000788401
0.000787721
0.000787421
0.000788006
0.000789608
0.00975541
0.0108118
0.00627664
0.00521819
0.00290354
0.00253724
0.00178605
0.0012907
0.00096379
0.000872731
0.000817532
0.000804747
0.000794306
0.000791798
0.000789225
0.000788473
0.000787633
0.000787312
0.000787854
0.000789492
0.00118017
0.00373273
0.00830956
0.0200727
0.0104518
0.00476912
0.00218087
0.00129788
0.000982545
0.000875
0.00082401
0.000806687
0.000795636
0.000792023
0.000789199
0.000788254
0.000787404
0.00078713
0.000787689
0.000789386
0.00106655
0.00153651
0.0025664
0.00476067
0.00506312
0.00231413
0.00152618
0.00105801
0.000929069
0.000850679
0.00081901
0.000805242
0.000796407
0.000793956
0.000790897
0.000790316
0.000788892
0.000788357
0.000788626
0.000789849
0.00102913
0.00106036
0.00108996
0.00114882
0.00113409
0.0010738
0.0010418
0.00102033
0.00100755
0.00100791
0.00100699
0.00100916
0.0010098
0.00101151
0.0010119
0.00101265
0.00101281
0.00101315
0.00101328
0.00101354
0.00107396
0.00250384
0.00350892
0.00334867
0.00240396
0.00167946
0.00132992
0.00109983
0.00103084
0.00101624
0.00101377
0.0010133
0.0010129
0.0010128
0.00101269
0.00101276
0.00101282
0.00101305
0.00101318
0.00101348
0.00160604
0.00629131
0.0126484
0.0101561
0.00564626
0.00268025
0.00189123
0.00125295
0.00108316
0.000926336
0.000857557
0.000825324
0.000807947
0.000800414
0.000794927
0.000792587
0.000790457
0.000789188
0.000789444
0.000790151
0.00123537
0.00301864
0.0107911
0.0122857
0.00801744
0.00359526
0.00179751
0.00116266
0.00095019
0.000865815
0.000825208
0.000807709
0.000797532
0.000792792
0.000789941
0.000788503
0.000787575
0.00078713
0.000787725
0.000789221
0.00336452
0.0130752
0.0174128
0.0419935
0.0184692
0.00548844
0.00203752
0.00115304
0.00100177
0.000873799
0.000839286
0.000809642
0.000800477
0.000793223
0.000790709
0.000788773
0.000787861
0.0007873
0.000787906
0.000789347
0.00120399
0.00688126
0.0145569
0.0237219
0.010011
0.00486451
0.00235377
0.00123621
0.000979854
0.000854084
0.000826081
0.000803894
0.000797847
0.000792269
0.000790206
0.000788626
0.000787783
0.000787372
0.000787987
0.000789459
0.00330573
0.0154013
0.0114504
0.0068539
0.00387228
0.0019478
0.00252038
0.00146821
0.00115701
0.000896515
0.000847696
0.000808874
0.000800963
0.000793059
0.000790936
0.000789172
0.000788149
0.000787612
0.000788211
0.000789596
0.0016467
0.0060645
0.00984821
0.00967878
0.00468397
0.00236861
0.0025775
0.00146977
0.00131464
0.000981029
0.000895282
0.00082663
0.000807923
0.00079564
0.000791984
0.000789777
0.000788541
0.000787923
0.000788474
0.00078977
0.00194788
0.00285157
0.00382772
0.00530599
0.00471218
0.00318826
0.00369617
0.0050769
0.00303616
0.00200037
0.00128423
0.000990255
0.00087389
0.000827632
0.000808435
0.000799418
0.000793358
0.000789561
0.000789472
0.000790004
0.00131564
0.00239312
0.00314091
0.00711446
0.00657259
0.00625795
0.00475406
0.00401549
0.00337506
0.00138986
0.000957813
0.000929462
0.000879281
0.000877829
0.00085693
0.000817085
0.000804143
0.000794099
0.000791659
0.000790795
0.00217498
0.00277169
0.00515463
0.00700609
0.00489264
0.00406361
0.00506317
0.00413006
0.00125589
0.000858971
0.000818972
0.000814171
0.000809771
0.000801012
0.000798864
0.000792984
0.0007903
0.000788909
0.00078923
0.000790153
0.00605691
0.00347816
0.0112551
0.0123531
0.00509394
0.00334595
0.00322333
0.00243274
0.00124987
0.000942514
0.00106227
0.00136555
0.00175157
0.00119247
0.000877123
0.000794064
0.000790563
0.000788809
0.000789188
0.000790142
0.0135534
0.00447665
0.0127989
0.00890661
0.00677619
0.00755542
0.00991955
0.00342022
0.00210685
0.00102269
0.000826062
0.000811086
0.00080496
0.000799929
0.000808898
0.000816762
0.000803179
0.000793653
0.00079154
0.000790861
0.00321245
0.00374415
0.0049995
0.011392
0.0106839
0.0067698
0.00489563
0.00307854
0.00212021
0.0011994
0.000972393
0.000855108
0.000828598
0.00081182
0.000802933
0.000797213
0.000792519
0.000789441
0.000789519
0.000790161
0.00230128
0.00381462
0.0101304
0.0175687
0.0138716
0.00668299
0.00392814
0.00205298
0.00137574
0.000967369
0.000868744
0.000812901
0.00080176
0.000792411
0.000791524
0.000789323
0.000788666
0.000788043
0.00078859
0.000789924
0.00228831
0.00828167
0.0177969
0.0109147
0.00471917
0.00399064
0.00368466
0.00279435
0.00145143
0.00100361
0.000853836
0.000814157
0.000797957
0.000792709
0.000790259
0.000788903
0.000788112
0.000787652
0.000788222
0.000789716
0.00329806
0.0125885
0.0110892
0.00664739
0.00326331
0.00314392
0.00293992
0.00179422
0.00106842
0.00089674
0.000822378
0.000805994
0.000795089
0.000791824
0.00078944
0.000788334
0.000787667
0.000787369
0.000787956
0.000789555
0.012001
0.0115897
0.00766968
0.00938188
0.00536268
0.00349069
0.00197145
0.00133516
0.000978895
0.000877434
0.000817627
0.000804562
0.000794121
0.000791688
0.000789156
0.000788414
0.000787581
0.00078726
0.000787803
0.000789438
0.001522
0.00837225
0.00923608
0.0146379
0.00941243
0.0032967
0.00174197
0.0011578
0.000946975
0.000865451
0.000820766
0.000805756
0.000795296
0.000791876
0.000789127
0.000788192
0.000787352
0.000787077
0.000787638
0.000789331
0.00168068
0.00303391
0.00374866
0.00889134
0.0052017
0.00271151
0.00155219
0.00104477
0.000917103
0.000846977
0.000817934
0.000804905
0.000796287
0.00079387
0.000790837
0.000790255
0.00078884
0.000788305
0.000788575
0.000789794
0.001224
0.00117938
0.00125199
0.00147312
0.00136164
0.00114456
0.00105487
0.00102086
0.00100687
0.00100754
0.0010068
0.00100911
0.00100978
0.00101151
0.0010119
0.00101265
0.00101281
0.00101315
0.00101328
0.00101354
0.00104482
0.00193525
0.00324947
0.00297963
0.00150656
0.00112449
0.0010509
0.00102157
0.00101524
0.00101399
0.00101344
0.00101323
0.00101287
0.00101279
0.00101268
0.00101276
0.00101282
0.00101305
0.00101318
0.00101348
0.00133685
0.00328571
0.0108599
0.0146509
0.00738699
0.00388949
0.00286542
0.00173975
0.00129715
0.000924326
0.000852923
0.000823668
0.000807703
0.000800439
0.000795047
0.000792724
0.000790593
0.000789373
0.000789727
0.000790634
0.00128521
0.00218663
0.00374088
0.00956381
0.00956036
0.0058393
0.00272963
0.00136592
0.000960957
0.000861559
0.000823407
0.000807263
0.000797557
0.000792912
0.000790093
0.00078866
0.000787732
0.000787373
0.000788038
0.000789679
0.00148328
0.00538536
0.00526395
0.00855337
0.0261077
0.0140612
0.00530868
0.00149667
0.00109118
0.000869847
0.000838219
0.000809551
0.000800542
0.000793334
0.000790861
0.000788926
0.000788013
0.000787505
0.00078818
0.000789815
0.00186614
0.012806
0.018983
0.021277
0.0181333
0.00525443
0.00275687
0.00128148
0.00097668
0.000854005
0.000825217
0.000804007
0.000798001
0.00079243
0.000790423
0.000788803
0.000788085
0.00078774
0.000788336
0.000789882
0.00632791
0.0224221
0.0292753
0.017441
0.0134585
0.00294273
0.00340493
0.00164071
0.00122946
0.000907014
0.000854504
0.000811506
0.000803416
0.000795115
0.00079204
0.00078956
0.000788346
0.000787834
0.000788424
0.000789984
0.0036921
0.017084
0.0233433
0.0130611
0.0152033
0.00418457
0.00298737
0.00131919
0.00125375
0.000974489
0.00088939
0.000824702
0.000807352
0.000795148
0.00079316
0.000791544
0.000790744
0.000789621
0.000789731
0.000790448
0.00857879
0.00707557
0.011751
0.0128768
0.0102753
0.00432751
0.00475728
0.00499414
0.00286938
0.00199441
0.00127056
0.000988937
0.000872387
0.000827389
0.000808321
0.000799473
0.00079351
0.000789895
0.000790248
0.000791325
0.0141244
0.00662873
0.0132943
0.0153448
0.0124035
0.00869918
0.00519802
0.00421948
0.00308161
0.00137081
0.000957824
0.000929416
0.000879279
0.00087791
0.000856776
0.000816583
0.000804227
0.000794295
0.000792278
0.000792274
0.0119476
0.00845588
0.0166723
0.00958174
0.00591518
0.00898266
0.00878952
0.00669472
0.00129517
0.000860833
0.000816901
0.0008082
0.000803884
0.000796474
0.000794206
0.000791257
0.000790102
0.000789062
0.000789535
0.000790996
0.0136119
0.0109224
0.0180402
0.0107237
0.00538983
0.00374354
0.0041376
0.0025707
0.00119111
0.000889046
0.0008875
0.00098877
0.00103782
0.000923808
0.000806425
0.000791599
0.000790253
0.000788905
0.000789364
0.000790657
0.00995244
0.018702
0.0231769
0.022669
0.0182919
0.0125554
0.0146274
0.00410563
0.0019652
0.00100787
0.000825706
0.000810354
0.000803837
0.000799191
0.000808844
0.000816248
0.000803174
0.000793706
0.000793309
0.000793904
0.0066926
0.00999815
0.0155009
0.0184439
0.0240882
0.0180286
0.00915558
0.00300043
0.00253269
0.00124462
0.000976078
0.000855463
0.000828496
0.000811822
0.000802852
0.000797215
0.000792503
0.00079052
0.000792346
0.000792583
0.00405711
0.0129962
0.0221194
0.0343114
0.0183589
0.00967193
0.00443384
0.00193779
0.00135303
0.00094492
0.000863658
0.000810626
0.000801334
0.000792256
0.000791715
0.000789695
0.000788913
0.000788983
0.000789946
0.000791061
0.0116054
0.0319883
0.0451419
0.0224387
0.00722411
0.00682029
0.00470905
0.00243684
0.00133462
0.000972879
0.000847684
0.000812737
0.000797862
0.000792836
0.000790465
0.000789127
0.000788295
0.000787944
0.0007888
0.00079047
0.00701052
0.0296431
0.0226636
0.0141243
0.0071303
0.00544014
0.00302835
0.00160759
0.00103981
0.000890912
0.00082263
0.000806036
0.000795336
0.000792014
0.000789647
0.00078852
0.000787876
0.000787705
0.000788561
0.000790318
0.0219502
0.0267382
0.0195442
0.0121229
0.0077492
0.00426535
0.00226816
0.00139712
0.000991692
0.0008754
0.000817255
0.000804244
0.000794255
0.000791862
0.000789363
0.000788611
0.000787817
0.000787563
0.000788343
0.000790167
0.00249864
0.00532337
0.00462972
0.00701427
0.0141359
0.00745758
0.00350432
0.00151132
0.00098215
0.000865523
0.000820622
0.000805749
0.000795487
0.000792059
0.000789331
0.000788383
0.000787589
0.000787348
0.000788142
0.000790036
0.00132542
0.00210454
0.00218167
0.00277359
0.00485546
0.00452571
0.00464266
0.00199387
0.00132996
0.000935276
0.000848761
0.00080993
0.000797913
0.000794197
0.000791117
0.000790454
0.000789139
0.000788603
0.000789085
0.000790488
0.00104976
0.00127385
0.00127702
0.00128409
0.00117482
0.00112255
0.00115623
0.00105418
0.00101875
0.00100979
0.00100737
0.00100923
0.00100981
0.0010115
0.0010119
0.00101265
0.00101281
0.00101315
0.00101328
0.00101354
0.00106225
0.00168707
0.00226031
0.0021439
0.00182929
0.00141458
0.00117408
0.0010577
0.00102293
0.00101697
0.00101962
0.00102477
0.00103687
0.00104139
0.00105283
0.00104792
0.00104888
0.00103745
0.00103251
0.00101976
0.00182751
0.00465842
0.0112485
0.0105234
0.00590462
0.00285175
0.00375623
0.00637311
0.0159253
0.0156835
0.0215373
0.0210661
0.0246629
0.0243135
0.0263848
0.0263195
0.0275936
0.0275553
0.0281807
0.0290015
0.001328
0.00267158
0.0127893
0.0224679
0.0503218
0.023768
0.0347553
0.0248402
0.0328742
0.0268219
0.0304978
0.0272219
0.0292088
0.0277127
0.0289476
0.0283762
0.0291781
0.0288154
0.0291899
0.0296898
0.00134537
0.00196699
0.00276118
0.00422528
0.0318236
0.027696
0.0382649
0.0220385
0.0299503
0.0224732
0.0264625
0.0237209
0.0262626
0.0256191
0.0272772
0.0272787
0.0284298
0.0283948
0.0289075
0.0295793
0.00150882
0.00651755
0.0385733
0.0514965
0.0731055
0.0303917
0.045278
0.026071
0.0331639
0.025637
0.0294198
0.0264404
0.0289617
0.0278511
0.0293061
0.0289494
0.0297635
0.0294336
0.0297977
0.0302143
0.0119563
0.0113862
0.0487305
0.0711911
0.0759481
0.034718
0.0556961
0.0233427
0.0289818
0.0222787
0.0254083
0.0241242
0.0262191
0.0264131
0.0277709
0.0282117
0.0292029
0.0292237
0.0296666
0.0302167
0.00841837
0.00582795
0.0102382
0.0180999
0.0793197
0.0308925
0.0709719
0.0273246
0.0316885
0.0230125
0.0278206
0.0254378
0.0287023
0.0280335
0.0291988
0.0293873
0.030504
0.0302523
0.0305512
0.0308781
0.00484133
0.00525555
0.0157439
0.0271277
0.0736757
0.0372994
0.0210604
0.0119248
0.00939439
0.00201533
0.00303303
0.00116842
0.00185689
0.00125724
0.0286067
0.0209944
0.021882
0.0264598
0.0294624
0.0307897
0.0113301
0.00660945
0.0106116
0.022239
0.0711361
0.0381962
0.026523
0.00876346
0.00404104
0.00137619
0.000954421
0.000929197
0.000879965
0.00087871
0.00086278
0.0153244
0.0144242
0.0199313
0.0271467
0.0306826
0.0141606
0.0105443
0.0372509
0.0447768
0.0619014
0.0343925
0.0197773
0.00707761
0.00140273
0.000867237
0.000813459
0.000802073
0.000796658
0.000793827
0.000794609
0.0154545
0.0144836
0.020441
0.027553
0.0310451
0.0154379
0.0309469
0.0667632
0.0529185
0.0825566
0.0274644
0.00847559
0.00556324
0.00274826
0.000980453
0.000811513
0.0008045
0.000803866
0.000797624
0.000795635
0.0157243
0.0146647
0.0207378
0.0280579
0.0316597
0.0108379
0.0223558
0.0526994
0.042488
0.0695571
0.0428722
0.033732
0.0110967
0.0034602
0.0010343
0.000825728
0.000808905
0.000802345
0.000798174
0.000824707
0.0163066
0.0150891
0.0209841
0.0285699
0.0321321
0.0032594
0.00901305
0.0131534
0.0191669
0.0620518
0.0749725
0.0509715
0.00982756
0.00551852
0.00163494
0.00145215
0.000984696
0.000971538
0.000894137
0.034329
0.0243314
0.0249709
0.0296988
0.0325921
0.0336585
0.00359083
0.0207297
0.0245871
0.0567726
0.164519
0.0637329
0.0587146
0.0415332
0.0445407
0.0383091
0.0405887
0.0366098
0.0375508
0.0354019
0.0356349
0.0349139
0.0351859
0.0345008
0.0344505
0.0344111
0.00528894
0.0179552
0.0755111
0.0577555
0.0773442
0.0365077
0.0479922
0.0384494
0.052703
0.0464593
0.0479883
0.0427227
0.0418884
0.0388128
0.0381763
0.0366889
0.0362994
0.035367
0.035223
0.0352191
0.00422292
0.0467793
0.100021
0.0456102
0.059318
0.0318034
0.0483702
0.0356606
0.0501018
0.0382681
0.0435622
0.0369805
0.0392251
0.0361487
0.0370822
0.0357394
0.0361191
0.0352693
0.0353086
0.0353433
0.00791904
0.0295537
0.0352479
0.0558352
0.0874475
0.0299541
0.0556263
0.0330422
0.0510434
0.0390103
0.0456346
0.0391917
0.0413032
0.0380214
0.0385892
0.0369515
0.0369324
0.0358939
0.0358177
0.0358949
0.0060882
0.00213059
0.00219093
0.00469011
0.0566471
0.0291816
0.058822
0.0311827
0.0483981
0.0337275
0.0421127
0.0349487
0.0389161
0.0355932
0.0373409
0.0357795
0.0364415
0.0355881
0.0357397
0.0358663
0.00150893
0.00128934
0.00127336
0.0014539
0.00434356
0.0105169
0.0481222
0.0265809
0.0436763
0.0312452
0.0404851
0.0342942
0.0387249
0.0356527
0.0374936
0.0359266
0.036592
0.0357392
0.0358963
0.0360867
0.00100474
0.00109575
0.00110379
0.00109848
0.00109736
0.00111628
0.00144894
0.00144549
0.00189389
0.00145342
0.00150248
0.00124516
0.00122898
0.00112369
0.00110736
0.00106562
0.00105897
0.0010408
0.00103633
0.0010231
0.000822253
0.000938918
0.00110946
0.000858977
0.000822311
0.000936622
0.00111569
0.0008151
0.00108531
0.00139704
0.000819059
0.000815444
0.00108808
0.00143244
0.00105754
0.000949128
0.00082523
0.000938174
0.00105624
0.000940858
0.000824124
0.00131136
0.000816648
0.000805966
0.00106019
0.00132394
0.000816102
0.000806204
0.00107805
0.00109387
0.00108659
0.00120513
0.00121041
0.00116756
0.00123841
0.00111805
0.00109246
0.00111809
0.00138701
0.002533
0.00130931
0.00190865
0.00117235
0.00113145
0.0011537
0.00255656
0.00154482
0.0018253
0.00102499
0.00115439
0.00115039
0.0011493
0.00141463
0.000961233
0.000914764
0.000822103
0.00115369
0.00115051
0.00115127
0.000955431
0.000929161
0.000817713
0.000804968
0.0011505
0.00115123
0.00115117
0.000929259
0.000879609
0.000803821
0.000798351
0.00114866
0.00115116
0.00115064
0.000878907
0.000876375
0.000798797
0.000796179
0.00117321
0.00115054
0.00122232
0.000877243
0.000854681
0.000795977
0.000792997
0.00109465
0.00108759
0.00109942
0.00113933
0.00121643
0.00125513
0.0014394
0.00112598
0.0011046
0.00111583
0.0012756
0.00157647
0.00157541
0.00152982
0.00115441
0.00112696
0.00115405
0.00146251
0.000950514
0.00133633
0.000974397
0.00114886
0.00115178
0.00114791
0.00088243
0.00081936
0.000906907
0.00082703
0.0011506
0.00114831
0.0011504
0.000814144
0.000803203
0.000817509
0.000812434
0.00115066
0.00115032
0.00114829
0.000802115
0.000796919
0.000810835
0.000805527
0.00115068
0.00114984
0.00114858
0.000796605
0.000793494
0.000804185
0.000803072
0.00122446
0.00114837
0.00122245
0.000793201
0.000791677
0.000801147
0.000795496
0.00109969
0.0012742
0.00113135
0.00140209
0.00161835
0.00278515
0.00184674
0.00111475
0.00111501
0.00111063
0.00169776
0.00166888
0.00167824
0.00186726
0.00115278
0.00111652
0.00114608
0.00140552
0.000958921
0.00189197
0.00121918
0.00114811
0.00114782
0.00114973
0.000896396
0.000820041
0.00101242
0.000828264
0.00115004
0.00115034
0.00115083
0.000811686
0.000804718
0.000816287
0.000801655
0.0011481
0.00115067
0.00115017
0.000803774
0.000804447
0.000799671
0.000796244
0.00114818
0.00115027
0.00115045
0.000804278
0.000798829
0.000795646
0.000794196
0.0012227
0.00115055
0.0012247
0.000798318
0.000795296
0.000793308
0.000792242
0.00115865
0.00253041
0.00127212
0.00500844
0.00256274
0.0044202
0.00169379
0.00111226
0.00115314
0.00109583
0.0019801
0.00169314
0.00131239
0.00140063
0.00114526
0.00109524
0.00112154
0.00173394
0.00131743
0.00166717
0.00136925
0.00114969
0.00112608
0.00112085
0.00109623
0.000843309
0.00122744
0.000972915
0.00115125
0.00112088
0.00112528
0.000828841
0.000811741
0.000922028
0.000884336
0.00115128
0.00112605
0.00112494
0.000809007
0.000803156
0.000873179
0.000855326
0.00115123
0.001126
0.00113028
0.000802395
0.000798999
0.00084674
0.000847613
0.00122055
0.0011306
0.00115468
0.000798308
0.00079327
0.000845784
0.000827274
0.00311643
0.00219055
0.00407628
0.00361445
0.00371859
0.00408606
0.00433953
0.00323098
0.00407935
0.00215882
0.00369465
0.00343187
0.00443683
0.0021805
0.00142437
0.00164009
0.000958351
0.00306659
0.00143442
0.00162457
0.000954476
0.000961185
0.000883638
0.00082024
0.00134905
0.000961173
0.000882474
0.000821183
0.000929579
0.000817198
0.000805783
0.000957145
0.00092937
0.000818456
0.000807394
0.00088017
0.000804636
0.000798585
0.000929476
0.000880089
0.000806194
0.000800494
0.000876968
0.00079894
0.00079693
0.000879284
0.000876946
0.000800861
0.000797591
0.000859938
0.000796782
0.000792974
0.000877936
0.000860379
0.000797208
0.000793677
0.00313954
0.00282151
0.00284444
0.0044304
0.00405073
0.00361028
0.00289754
0.00143825
0.00241011
0.00128888
0.00343544
0.00133328
0.00232804
0.00128158
0.000901553
0.0011348
0.000923563
0.00118586
0.000897271
0.00113643
0.000913103
0.000817573
0.000879754
0.000827764
0.000856498
0.000820103
0.000899521
0.000919502
0.000804361
0.000820643
0.000819593
0.000816931
0.000808841
0.000902302
0.00101304
0.000797186
0.000820277
0.000821012
0.000808177
0.000804521
0.00103489
0.00101653
0.000793335
0.000821326
0.000807857
0.000804053
0.000798172
0.00101306
0.000951552
0.000791566
0.000806421
0.000800759
0.000796589
0.000793601
0.000944316
0.000877109
0.00236703
0.00574669
0.00330592
0.00292986
0.00253002
0.0059608
0.00399366
0.00150695
0.00264062
0.00210453
0.00243667
0.00157836
0.00310296
0.00227135
0.000902829
0.00199539
0.00110233
0.00125743
0.000900493
0.00204706
0.00109336
0.000821114
0.000956284
0.000824821
0.000885358
0.000911149
0.00095187
0.000824979
0.000808305
0.000815042
0.000801853
0.000886175
0.000955892
0.000815431
0.000802992
0.000805554
0.000800186
0.000796733
0.000982687
0.0010425
0.000800915
0.000798905
0.000805744
0.000795946
0.000795183
0.00104518
0.000939439
0.000798597
0.000795772
0.000796259
0.000794367
0.000792058
0.000927789
0.000858515
0.000794801
0.000792876
0.00403036
0.00719676
0.00433272
0.00979447
0.0049836
0.00689739
0.00432262
0.00195403
0.0029455
0.00208387
0.00387826
0.00229749
0.00326048
0.00223424
0.00118593
0.00196058
0.00124024
0.00202198
0.00117522
0.00200557
0.00123464
0.000838378
0.00114738
0.000967277
0.00101992
0.000837749
0.00114121
0.000961981
0.000812337
0.00091848
0.000882661
0.00082646
0.000812833
0.000916568
0.000882511
0.000803452
0.000872318
0.000855018
0.000810428
0.000805052
0.000872107
0.000854939
0.000799492
0.000847367
0.000849688
0.00080391
0.000799896
0.000847333
0.000849728
0.000793236
0.000848033
0.000839104
0.000799052
0.000793152
0.000847974
0.00084099
0.00404537
0.00509787
0.00459309
0.00593413
0.00443923
0.00882605
0.00690674
0.00377425
0.00471394
0.00260796
0.00418805
0.00358573
0.00634529
0.00243019
0.00151149
0.00188293
0.000984031
0.0031652
0.00147528
0.0017763
0.000976375
0.000962351
0.000893589
0.000822339
0.00137628
0.000962343
0.000891076
0.000822258
0.000929308
0.000819286
0.000809313
0.000957748
0.000929291
0.000819272
0.000809327
0.000880091
0.000807938
0.000801504
0.000929436
0.000880067
0.000807948
0.000801511
0.000876857
0.00080187
0.000798868
0.000879254
0.000876833
0.000801901
0.000799006
0.000860367
0.000798573
0.000794342
0.000877819
0.000860349
0.000798677
0.000794469
0.00464536
0.0040054
0.00287486
0.00787069
0.0066936
0.00412212
0.00273939
0.00146477
0.00227431
0.0012723
0.00488868
0.00144198
0.00215435
0.0012378
0.000903298
0.00114394
0.000924757
0.00124045
0.000902879
0.0011191
0.000918941
0.000863894
0.000838368
0.000867841
0.000858242
0.000854248
0.000838842
0.000865696
0.000865511
0.000816245
0.00083499
0.000821871
0.000835149
0.000821863
0.000861097
0.000810158
0.00140102
0.00147514
0.000814603
0.000810311
0.0014415
0.00151833
0.000803066
0.00151342
0.0013078
0.000810005
0.000803646
0.00157782
0.00136686
0.000795427
0.00122071
0.000984457
0.000801304
0.000795875
0.00125711
0.000996206
0.0025962
0.00548399
0.00392726
0.00325345
0.0025634
0.00596149
0.00405589
0.00154405
0.00323298
0.00236363
0.0023746
0.00147125
0.00323258
0.00219987
0.000908973
0.00205164
0.00108381
0.00119786
0.000900109
0.00193487
0.00106767
0.000913479
0.00103227
0.000873253
0.000966838
0.000891013
0.000975942
0.000877583
0.000929473
0.00108198
0.000859744
0.00095625
0.000857065
0.000979363
0.000927337
0.00164209
0.000803485
0.000801221
0.00138218
0.00169136
0.000803655
0.000801324
0.00131407
0.000801552
0.000800637
0.00182703
0.00134517
0.000801601
0.000800347
0.00101482
0.000799642
0.000794129