/*--------------------------------*- C++ -*----------------------------------*\
  =========                 |
  \\      /  F ield         | OpenFOAM: The Open Source CFD Toolbox
   \\    /   O peration     | Website:  https://openfoam.org
    \\  /    A nd           | Version:  10
     \\/     M anipulation  |
\*---------------------------------------------------------------------------*/
FoamFile
{
    format      ascii;
    class       volScalarField;
    location    "0.3";
    object      nut;
}
// * * * * * * * * * * * * * * * * * * * * * * * * * * * * * * * * * * * * * //

dimensions      [0 2 -1 0 0 0 0];

internalField   nonuniform List<scalar> 
12920
(
2.15629e-06
5.61369e-06
1.4886e-05
4.26269e-05
1.23689e-05
1.31503e-05
7.92959e-06
8.81485e-06
7.86421e-06
1.36106e-05
1.37503e-05
1.85956e-05
1.55528e-05
1.71615e-05
1.5356e-05
1.59219e-05
1.49559e-05
1.53692e-05
1.52626e-05
1.52025e-05
3.6288e-06
5.08142e-06
3.27341e-05
1.86223e-05
4.00532e-05
2.23968e-05
2.21678e-05
4.21253e-05
1.69718e-05
3.20132e-05
1.77286e-05
2.22723e-05
1.71947e-05
1.87785e-05
1.66157e-05
1.71444e-05
1.60832e-05
1.64854e-05
1.63707e-05
1.62893e-05
4.28006e-06
1.27635e-05
1.81691e-05
7.1156e-05
3.31083e-05
4.92592e-05
1.81015e-05
8.8203e-05
1.74191e-05
2.90135e-05
1.70083e-05
2.09355e-05
1.66636e-05
1.81498e-05
1.61931e-05
1.67433e-05
1.5758e-05
1.61865e-05
1.60939e-05
1.60551e-05
4.13508e-06
1.01054e-05
7.57472e-05
1.60049e-05
4.1543e-05
1.47374e-05
1.80158e-05
4.60705e-05
1.77232e-05
3.84607e-05
1.7737e-05
2.21769e-05
1.70498e-05
1.83047e-05
1.63239e-05
1.66755e-05
1.5748e-05
1.60536e-05
1.59881e-05
1.59028e-05
1.01027e-05
1.8e-05
3.72245e-05
8.28777e-06
1.52372e-05
1.26661e-05
1.23929e-05
6.65682e-05
1.46106e-05
2.96516e-05
1.59435e-05
2.02601e-05
1.58842e-05
1.73343e-05
1.5557e-05
1.60167e-05
1.51856e-05
1.55661e-05
1.55332e-05
1.55145e-05
1.76188e-05
1.56091e-05
2.85758e-05
8.18633e-06
1.22956e-05
9.18745e-06
9.6315e-06
3.96807e-05
1.45183e-05
2.6843e-05
1.6551e-05
1.92532e-05
1.62477e-05
1.67484e-05
1.56464e-05
1.56699e-05
1.50821e-05
1.52731e-05
1.53175e-05
1.52525e-05
4.05515e-06
2.20082e-05
1.07569e-05
1.89206e-05
9.65836e-06
2.9124e-05
7.13486e-06
5.19067e-05
1.26979e-05
2.88351e-05
1.4652e-05
1.8468e-05
1.46269e-05
1.59541e-05
1.46593e-05
1.49078e-05
1.43756e-05
1.47269e-05
1.47926e-05
1.48001e-05
4.70442e-06
1.56439e-05
1.19936e-05
4.67931e-05
9.54088e-06
2.30786e-05
4.48746e-06
1.12655e-05
9.00259e-06
9.41041e-06
8.19627e-06
8.55757e-06
7.81347e-06
8.03367e-06
1.35935e-05
1.3552e-05
1.38233e-05
1.42029e-05
1.4414e-05
1.44324e-05
2.3713e-06
1.82909e-05
6.09639e-06
1.82198e-05
8.1066e-06
5.72456e-06
2.42803e-06
3.60552e-06
3.21365e-06
3.65838e-06
3.88786e-06
4.07276e-06
4.03759e-06
4.06854e-06
7.04717e-06
1.27744e-05
1.29587e-05
1.36643e-05
1.39047e-05
1.39514e-05
1.90651e-06
5.74041e-06
5.37346e-06
1.39582e-05
7.80613e-06
8.52852e-06
3.66589e-06
3.13658e-06
3.14762e-06
3.25629e-06
3.47801e-06
3.63985e-06
3.71604e-06
3.74027e-06
6.34759e-06
1.17356e-05
1.23274e-05
1.30649e-05
1.34559e-05
1.35626e-05
2.06394e-06
4.96207e-06
7.04948e-06
1.82388e-05
1.00419e-05
7.09831e-06
2.69087e-06
2.64961e-06
2.74338e-06
3.01356e-06
3.18962e-06
3.35626e-06
3.44109e-06
3.50773e-06
6.06221e-06
1.13019e-05
1.19289e-05
1.26525e-05
1.30365e-05
1.31429e-05
6.21367e-06
1.31172e-05
3.19595e-05
3.06282e-05
2.60594e-05
8.05327e-06
2.8426e-06
2.33982e-06
2.57986e-06
2.92197e-06
3.07601e-06
3.21217e-06
3.29531e-06
3.38519e-06
5.82437e-06
1.12803e-05
1.16952e-05
1.2352e-05
1.26761e-05
1.27966e-05
2.31441e-06
1.27117e-05
1.59172e-05
4.48857e-05
2.90295e-05
2.73988e-05
7.98233e-06
6.32086e-06
4.85057e-06
5.9464e-06
5.23175e-06
5.87757e-06
5.66736e-06
6.11824e-06
1.10323e-05
1.12809e-05
1.16403e-05
1.20222e-05
1.22958e-05
1.2424e-05
4.2016e-06
3.11886e-05
3.96057e-05
0.000106169
2.96049e-05
3.42512e-05
1.41984e-05
1.01839e-05
8.52198e-06
9.42275e-06
9.4592e-06
1.05838e-05
1.04633e-05
1.12382e-05
1.11648e-05
1.15702e-05
1.15186e-05
1.18631e-05
1.20349e-05
1.21711e-05
5.57574e-06
1.26824e-05
2.29895e-05
3.60106e-05
1.99936e-05
1.8037e-05
1.02889e-05
8.32457e-06
7.13115e-06
8.54487e-06
8.81458e-06
9.89725e-06
1.00288e-05
1.06546e-05
1.07711e-05
1.11814e-05
1.12106e-05
1.1518e-05
1.17059e-05
1.18373e-05
3.65681e-05
1.69163e-05
8.37876e-06
1.07422e-05
8.90727e-06
9.64203e-06
7.16481e-06
7.43542e-06
7.03331e-06
9.21985e-06
8.70884e-06
1.0313e-05
9.8339e-06
1.08593e-05
1.0593e-05
1.11722e-05
1.10401e-05
1.14109e-05
1.15332e-05
1.16817e-05
7.21523e-06
1.7041e-05
9.05836e-06
1.4845e-05
9.56856e-06
1.38535e-05
7.18216e-06
1.04522e-05
7.64375e-06
9.94627e-06
8.72778e-06
1.0187e-05
9.64365e-06
1.05701e-05
1.03514e-05
1.09083e-05
1.08275e-05
1.11812e-05
1.13179e-05
1.14598e-05
2.12317e-06
8.26651e-06
7.0284e-06
2.90174e-05
1.3454e-05
1.76692e-05
7.45602e-06
1.05551e-05
7.51486e-06
1.0326e-05
8.62426e-06
1.04822e-05
9.55814e-06
1.07215e-05
1.02726e-05
1.09434e-05
1.07406e-05
1.11349e-05
1.12219e-05
1.13773e-05
2.52036e-06
1.23051e-05
5.93377e-06
2.61615e-05
8.50581e-06
2.9258e-05
7.27466e-06
1.32253e-05
7.8438e-06
1.09275e-05
8.73044e-06
1.05425e-05
9.52457e-06
1.06177e-05
1.01697e-05
1.0812e-05
1.06253e-05
1.10073e-05
1.11021e-05
1.12585e-05
2.76431e-06
8.52573e-06
3.66041e-06
1.89622e-05
5.51772e-06
2.02291e-05
6.31728e-06
1.18265e-05
7.20701e-06
1.01845e-05
8.06274e-06
9.87126e-06
8.83096e-06
9.92418e-06
9.44623e-06
1.00822e-05
9.87671e-06
1.02453e-05
1.03148e-05
1.04546e-05
2.49953e-06
1.04241e-05
2.79134e-05
5.99103e-05
6.11233e-05
5.93131e-05
3.02947e-05
2.03172e-05
1.88556e-05
3.77177e-05
4.13937e-05
5.44585e-05
4.23622e-05
4.60393e-05
4.06087e-05
4.18698e-05
3.92602e-05
4.02571e-05
3.99914e-05
3.98086e-05
0.000397117
0.000390782
0.000478556
0.000567726
0.000503824
0.000397041
0.000375367
0.000280744
0.000222289
0.000163458
0.000127262
0.000113278
0.000106162
0.000103498
0.000101432
0.000100706
9.98724e-05
9.9512e-05
9.91905e-05
9.88751e-05
0.000339891
0.00025666
0.000322618
0.00050134
0.000458259
0.000288128
0.00019395
0.000147776
0.000124942
0.00011143
0.000103808
0.000100767
9.92865e-05
9.87259e-05
9.84262e-05
9.83004e-05
9.82168e-05
9.81772e-05
9.82169e-05
9.83279e-05
0.000171141
0.000610598
0.000736935
0.000768819
0.000500561
0.000244339
0.000157593
0.000123026
0.000113676
0.000104999
0.000102239
9.99624e-05
9.92076e-05
9.8643e-05
9.84396e-05
9.82965e-05
9.823e-05
9.8186e-05
9.8227e-05
9.83366e-05
0.000229949
0.000609711
0.000639999
0.000481075
0.000428897
0.000220421
0.000169103
0.000122704
0.000110598
0.000102919
0.000101001
9.94209e-05
9.8962e-05
9.85578e-05
9.83983e-05
9.82857e-05
9.82207e-05
9.81893e-05
9.82319e-05
9.83472e-05
0.000260774
0.000614996
0.00058365
0.000393852
0.000348926
0.000192145
0.000218411
0.000150028
0.000124708
0.000106657
0.000102736
9.98513e-05
9.92267e-05
9.86396e-05
9.84616e-05
9.83272e-05
9.82492e-05
9.82079e-05
9.82518e-05
9.83611e-05
0.00031863
0.000588803
0.000555248
0.000505325
0.000565961
0.000388004
0.000256378
0.000155924
0.000137788
0.000112105
0.000106085
0.000101093
9.96646e-05
9.87734e-05
9.85253e-05
9.83802e-05
9.82994e-05
9.82468e-05
9.82815e-05
9.83749e-05
0.000186757
0.000366755
0.000485408
0.000656331
0.00109893
0.000553917
0.000449849
0.000287202
0.0002238
0.000171455
0.000132683
0.000112999
0.000105047
0.000101264
9.97197e-05
9.90769e-05
9.86462e-05
9.83705e-05
9.83702e-05
9.84113e-05
0.000114585
0.000239927
0.000513854
0.00079891
0.000968925
0.000690486
0.000505989
0.000295005
0.000212691
0.000136354
0.000110103
0.000108234
0.00010476
0.000104664
0.000103304
0.000100369
9.9428e-05
9.87096e-05
9.85471e-05
9.84868e-05
0.000132965
0.000317477
0.000694257
0.000475545
0.00100128
0.000733825
0.000453005
0.000298786
0.000133939
0.000103678
0.000100155
9.93602e-05
9.88658e-05
9.85929e-05
9.85401e-05
9.84701e-05
9.83854e-05
9.83089e-05
9.83364e-05
9.84098e-05
0.000179525
0.000183435
0.000934497
0.000662008
0.000414324
0.000250984
0.000211984
0.000190698
0.000128363
0.000104347
0.000100195
9.96273e-05
9.95957e-05
9.93446e-05
9.87518e-05
9.84881e-05
9.8399e-05
9.82991e-05
9.83283e-05
9.8404e-05
0.00054925
0.000740635
0.000495205
0.00045759
0.000361002
0.000380244
0.000452261
0.000227308
0.000166848
0.000116696
0.000101164
9.98228e-05
9.93223e-05
9.90322e-05
9.97721e-05
0.000100344
9.93562e-05
9.86722e-05
9.85436e-05
9.84958e-05
0.000188314
0.000356288
0.000454179
0.0005399
0.000474019
0.00039627
0.000368477
0.000282727
0.000190782
0.000128475
0.000112119
0.000103288
0.000101216
9.99692e-05
9.93121e-05
9.89009e-05
9.85809e-05
9.83699e-05
9.83803e-05
9.84237e-05
0.000348996
0.000629011
0.000720323
0.000730924
0.000569697
0.000613088
0.000468892
0.000348856
0.000202961
0.000131403
0.000111367
0.000101981
9.98442e-05
9.86342e-05
9.85282e-05
9.83468e-05
9.82931e-05
9.8248e-05
9.82829e-05
9.83786e-05
0.000463344
0.000591612
0.000603911
0.000633022
0.000768084
0.00107379
0.00108487
0.000629972
0.000261477
0.000142211
0.000109745
0.000101913
9.94336e-05
9.87167e-05
9.84387e-05
9.83123e-05
9.82465e-05
9.82107e-05
9.82487e-05
9.83594e-05
0.00033323
0.000480711
0.000684858
0.00113242
0.000325696
0.000223681
0.00093742
0.00030897
0.000171026
0.000118053
0.000104254
0.00010052
9.90249e-05
9.85966e-05
9.83644e-05
9.82687e-05
9.82125e-05
9.81895e-05
9.82286e-05
9.8347e-05
0.000493513
0.000590143
0.000804874
0.000873054
0.00130351
0.000707802
0.000412608
0.000189786
0.000129126
0.000109879
0.000102071
9.99735e-05
9.87878e-05
9.85462e-05
9.83319e-05
9.82699e-05
9.82049e-05
9.8181e-05
9.82174e-05
9.83383e-05
0.000111312
0.000547338
0.000746035
0.000769269
0.000564204
0.000367209
0.000250407
0.000158974
0.000123936
0.000108971
0.000102404
0.000100086
9.89004e-05
9.8582e-05
9.83359e-05
9.82617e-05
9.81921e-05
9.81707e-05
9.82071e-05
9.8331e-05
0.000121767
0.000527576
0.000725056
0.000368258
0.000341886
0.000214417
0.000157354
0.000124102
0.000111332
0.00010562
0.000102014
0.000101378
0.000100153
0.0001001
9.95431e-05
9.95002e-05
9.91247e-05
9.89752e-05
9.87725e-05
9.86165e-05
2.09316e-06
1.52096e-05
9.8559e-06
1.75421e-05
1.41594e-05
6.52081e-05
1.70631e-05
3.2022e-05
1.90856e-05
2.64975e-05
2.12192e-05
2.5625e-05
2.32088e-05
2.58915e-05
2.48348e-05
2.64173e-05
2.59751e-05
2.69062e-05
2.71416e-05
2.74854e-05
2.26309e-06
1.20068e-05
7.13384e-05
4.65213e-05
3.60965e-05
2.00192e-05
1.7437e-05
1.78486e-05
2.86882e-05
5.68788e-05
4.37128e-05
5.5273e-05
4.24073e-05
4.6057e-05
4.06096e-05
4.18718e-05
3.92618e-05
4.02591e-05
3.9993e-05
3.98101e-05
0.000280287
0.000410307
0.000597241
0.000515398
0.000482497
0.000369055
0.000364492
0.000252061
0.000198448
0.000146318
0.000122477
0.000111847
0.000105729
0.000103362
0.000101394
0.000100689
9.98621e-05
9.95039e-05
9.91847e-05
9.88642e-05
0.000143519
0.000297679
0.000546201
0.000556149
0.000400815
0.000260517
0.000181645
0.000135729
0.00011566
0.000106149
0.000101733
9.99902e-05
9.90482e-05
9.86445e-05
9.84017e-05
9.82857e-05
9.82085e-05
9.81711e-05
9.82108e-05
9.83171e-05
0.000386143
0.000652062
0.000713154
0.00111477
0.000676808
0.000350556
0.000184084
0.00012555
0.000113374
0.000104449
0.00010195
9.981e-05
9.91434e-05
9.86134e-05
9.84301e-05
9.82879e-05
9.82206e-05
9.81788e-05
9.82206e-05
9.83254e-05
0.000124291
0.000442441
0.000629701
0.000784925
0.000473141
0.00030342
0.000193659
0.000130937
0.000112333
0.000103161
0.000101023
9.94004e-05
9.89517e-05
9.85454e-05
9.83928e-05
9.82775e-05
9.82148e-05
9.81842e-05
9.82265e-05
9.83337e-05
0.000306179
0.000677424
0.000525648
0.000411465
0.000282869
0.000175572
0.000197263
0.000143714
0.000123481
0.000106242
0.000102596
9.97703e-05
9.91796e-05
9.86035e-05
9.8446e-05
9.83181e-05
9.82422e-05
9.82022e-05
9.82432e-05
9.8344e-05
0.000235812
0.00046159
0.000566529
0.000539071
0.000378334
0.000210048
0.000211904
0.000144664
0.000134698
0.000112387
0.000106076
0.000101105
9.96961e-05
9.87981e-05
9.85242e-05
9.83634e-05
9.82712e-05
9.82254e-05
9.82627e-05
9.83568e-05
0.000177849
0.000287335
0.000427765
0.00057787
0.000496267
0.000289405
0.000280458
0.000297776
0.000221806
0.000170675
0.000130795
0.000112393
0.000104339
0.000101106
9.97273e-05
9.90768e-05
9.8632e-05
9.83485e-05
9.83381e-05
9.83743e-05
0.000146739
0.000248452
0.000367917
0.000638828
0.0005422
0.000450019
0.00034667
0.000264875
0.000232894
0.000137989
0.000110054
0.000108221
0.000104752
0.000104656
0.000103191
0.000100368
9.94297e-05
9.86895e-05
9.85005e-05
9.84339e-05
0.000223727
0.000355193
0.000648384
0.000660004
0.000456999
0.000332376
0.000320507
0.000267428
0.0001296
0.000103575
0.000100507
0.000100234
0.000100011
9.92876e-05
9.93767e-05
9.8792e-05
9.84295e-05
9.82918e-05
9.83162e-05
9.83854e-05
0.000449213
0.000451261
0.000745891
0.000638097
0.000353578
0.000240834
0.000229642
0.000191441
0.000130499
0.000108613
0.000142911
0.000168735
0.000199041
0.000137896
0.000110257
9.88438e-05
9.84422e-05
9.82935e-05
9.83163e-05
9.83839e-05
0.000681772
0.000521796
0.000608975
0.000446396
0.000371438
0.00038454
0.00044885
0.000241084
0.000175746
0.000115486
0.000101064
9.99359e-05
9.9485e-05
9.91137e-05
9.97581e-05
0.000100345
9.93608e-05
9.86577e-05
9.84916e-05
9.84384e-05
0.00030384
0.000411028
0.000436409
0.000534192
0.000506656
0.000398313
0.000307518
0.000228343
0.000176323
0.000126871
0.000111292
0.000103117
0.000101164
9.99564e-05
9.93208e-05
9.89088e-05
9.85687e-05
9.83392e-05
9.83416e-05
9.83852e-05
0.000210696
0.000373156
0.000637336
0.000755437
0.000664858
0.00047233
0.000296902
0.00019253
0.00014223
0.000112635
0.000104372
0.000100123
9.92482e-05
9.85584e-05
9.84905e-05
9.83277e-05
9.82803e-05
9.82342e-05
9.8271e-05
9.83676e-05
0.000268404
0.000545731
0.000808465
0.000724328
0.000726819
0.000582287
0.000476155
0.000284089
0.000154244
0.000115689
0.000103412
0.000100204
9.89748e-05
9.85795e-05
9.83985e-05
9.82974e-05
9.82395e-05
9.82052e-05
9.82438e-05
9.8352e-05
0.000239831
0.000585677
0.000577743
0.000606065
0.000822471
0.000591861
0.000357436
0.000190108
0.000121175
0.00010663
0.000100864
9.95632e-05
9.87553e-05
9.85118e-05
9.83369e-05
9.82553e-05
9.82062e-05
9.81841e-05
9.82239e-05
9.83399e-05
0.000614014
0.00063915
0.000608144
0.000583778
0.000563857
0.000322081
0.00019513
0.000141034
0.000113785
0.000105118
0.000100498
9.94587e-05
9.86842e-05
9.85022e-05
9.83162e-05
9.82611e-05
9.81999e-05
9.8176e-05
9.82128e-05
9.83311e-05
0.000128257
0.000512092
0.000520802
0.000615779
0.000463993
0.000252802
0.000165284
0.000125957
0.000110278
0.000104015
0.000100664
9.95536e-05
9.8774e-05
9.85266e-05
9.83189e-05
9.82509e-05
9.81861e-05
9.81648e-05
9.82019e-05
9.83236e-05
0.000159079
0.000317147
0.000377542
0.000493412
0.000362621
0.00023102
0.000155911
0.000120711
0.000108978
0.000104823
0.000101714
0.000101321
0.000100126
0.000100079
9.95317e-05
9.94902e-05
9.91188e-05
9.89699e-05
9.87679e-05
9.86088e-05
4.99539e-06
1.01737e-05
1.36552e-05
8.3391e-05
1.89377e-05
5.64524e-05
1.73857e-05
3.13355e-05
1.90604e-05
2.64526e-05
2.12161e-05
2.56238e-05
2.32095e-05
2.58923e-05
2.48352e-05
2.64179e-05
2.59756e-05
2.69068e-05
2.71422e-05
2.74858e-05
2.14146e-06
1.30701e-05
3.91574e-05
3.78365e-05
4.75335e-05
3.18828e-05
3.51065e-05
6.5766e-05
3.79167e-05
7.9396e-05
4.44144e-05
5.57317e-05
4.23827e-05
4.60655e-05
4.06087e-05
4.18729e-05
3.92623e-05
4.02596e-05
3.99936e-05
3.98099e-05
0.000151575
0.000275486
0.000561247
0.000667764
0.000635268
0.000497322
0.000451067
0.000274522
0.000206881
0.000141868
0.000120248
0.000111078
0.00010554
0.000103319
0.000101393
0.000100696
9.98713e-05
9.95192e-05
9.92111e-05
9.89126e-05
0.00012538
0.000193714
0.000277722
0.000470908
0.000470532
0.000351337
0.000243193
0.000152346
0.000115658
0.000105405
0.000101481
9.99299e-05
9.90451e-05
9.86528e-05
9.84133e-05
9.82978e-05
9.82206e-05
9.81925e-05
9.82402e-05
9.83624e-05
0.000143341
0.000362762
0.000346214
0.000468337
0.000893208
0.00062554
0.000390161
0.000159535
0.000124184
0.000104432
0.000101885
9.98042e-05
9.9149e-05
9.8622e-05
9.84419e-05
9.82997e-05
9.82322e-05
9.8196e-05
9.82457e-05
9.83719e-05
0.000171377
0.000588215
0.000708487
0.000742476
0.00072077
0.000335108
0.00022858
0.000135995
0.00011277
0.000103259
0.00010099
9.94161e-05
9.89665e-05
9.85588e-05
9.84111e-05
9.82913e-05
9.82424e-05
9.82193e-05
9.82596e-05
9.83748e-05
0.00045708
0.000779163
0.000924817
0.000736931
0.000640418
0.000248271
0.000257298
0.000158068
0.000130489
0.000107292
0.000103327
0.000100051
9.94449e-05
9.88238e-05
9.85627e-05
9.83556e-05
9.82586e-05
9.82212e-05
9.82612e-05
9.83809e-05
0.000361025
0.000663494
0.000795692
0.000565706
0.00067621
0.000297172
0.000228287
0.00013453
0.000130625
0.000111905
0.000105628
0.000100954
9.9657e-05
9.87494e-05
9.86471e-05
9.85526e-05
9.85057e-05
9.84061e-05
9.83958e-05
9.84261e-05
0.000454707
0.0004552
0.00062868
0.000624131
0.000550175
0.000299192
0.000301723
0.000295841
0.000214608
0.000170734
0.000129917
0.000112299
0.000104237
0.000101087
9.97162e-05
9.90781e-05
9.86417e-05
9.8376e-05
9.84134e-05
9.85113e-05
0.000620479
0.000391303
0.000611609
0.000654855
0.000613689
0.000466388
0.000324425
0.000268586
0.000219777
0.000136833
0.000110056
0.000108217
0.000104752
0.000104662
0.000103191
0.000100301
9.94272e-05
9.87019e-05
9.85535e-05
9.85813e-05
0.000567891
0.000514224
0.000742194
0.000524332
0.000375268
0.000450965
0.00043147
0.000349911
0.00013208
0.00010372
0.000100355
9.9726e-05
9.94249e-05
9.8873e-05
9.86979e-05
9.84757e-05
9.83846e-05
9.83102e-05
9.83446e-05
9.84698e-05
0.000640171
0.000600253
0.000767926
0.000529794
0.000332292
0.000256497
0.000268261
0.00019771
0.000127069
0.000105479
0.000105751
0.000114479
0.000120134
0.000108863
9.96287e-05
9.85042e-05
9.83983e-05
9.82986e-05
9.83294e-05
9.84325e-05
0.000534484
0.000787493
0.000798765
0.000763956
0.000714352
0.00053518
0.000579582
0.000272885
0.000169749
0.000114464
0.000101037
9.9885e-05
9.94047e-05
9.90609e-05
9.97572e-05
0.000100283
9.93542e-05
9.86558e-05
9.86688e-05
9.87597e-05
0.00041934
0.000543465
0.000657651
0.000671578
0.000805291
0.000708663
0.000466357
0.000219739
0.000195545
0.000129966
0.000111599
0.000103143
0.000101155
9.99564e-05
9.93194e-05
9.89078e-05
9.856e-05
9.84448e-05
9.86438e-05
9.86446e-05
0.000263182
0.000635442
0.000784628
0.000971895
0.000730177
0.000526233
0.000285002
0.000177297
0.000137291
0.000110258
0.000103839
9.99282e-05
9.92138e-05
9.85445e-05
9.85076e-05
9.83617e-05
9.83009e-05
9.83302e-05
9.84148e-05
9.84876e-05
0.000510029
0.000953123
0.00113465
0.000794008
0.000569193
0.000472723
0.000350905
0.000211797
0.000139665
0.000112456
0.000102809
0.000100082
9.89664e-05
9.85894e-05
9.84147e-05
9.83152e-05
9.82531e-05
9.82306e-05
9.83019e-05
9.84301e-05
0.000395514
0.000913948
0.000794894
0.000598777
0.000557354
0.000407351
0.000249757
0.000157965
0.000117804
0.000105964
0.000100834
9.95608e-05
9.87734e-05
9.85263e-05
9.8353e-05
9.82695e-05
9.82227e-05
9.82146e-05
9.82852e-05
9.8419e-05
0.000783872
0.000898413
0.000772812
0.000556576
0.000469543
0.000292575
0.000195459
0.000142274
0.00011397
0.000104826
0.000100437
9.94302e-05
9.8694e-05
9.85157e-05
9.83323e-05
9.82762e-05
9.82194e-05
9.8203e-05
9.82667e-05
9.84065e-05
0.000232203
0.000425674
0.000376769
0.00049424
0.00070397
0.000452737
0.000291712
0.000160028
0.00011409
0.000104112
0.000100648
9.95537e-05
9.87887e-05
9.85408e-05
9.83349e-05
9.82655e-05
9.82059e-05
9.81882e-05
9.82519e-05
9.83962e-05
0.000172562
0.000340725
0.000322957
0.000363428
0.000476216
0.00036429
0.000368573
0.000205262
0.000151544
0.000114711
0.000105299
0.000101927
0.000100313
0.000100109
9.95567e-05
9.95057e-05
9.9146e-05
9.8997e-05
9.88185e-05
9.86805e-05
3.07669e-06
1.60981e-05
1.12484e-05
1.40853e-05
1.32365e-05
3.0417e-05
1.91644e-05
3.22025e-05
1.93244e-05
2.64744e-05
2.12219e-05
2.5619e-05
2.32086e-05
2.58913e-05
2.48352e-05
2.64179e-05
2.59757e-05
2.6907e-05
2.71424e-05
2.74856e-05
2.46075e-06
1.31145e-05
1.7321e-05
7.2481e-05
1.74352e-05
5.35289e-05
1.28003e-05
3.10788e-05
1.54841e-05
2.47213e-05
1.56797e-05
1.92783e-05
1.57475e-05
1.7312e-05
1.56335e-05
1.6109e-05
1.51448e-05
1.53765e-05
1.51883e-05
1.49291e-05
0.000158143
0.000334491
0.000589088
0.000633019
0.000827789
0.000729405
0.000714831
0.000599453
0.000765088
0.000696063
0.000766176
0.000739793
0.000788676
0.000776586
0.000807412
0.000804476
0.000824298
0.000822566
0.000831716
0.000844567
0.00012403
0.000199671
0.000570848
0.000772698
0.00130615
0.000860821
0.00103985
0.000816562
0.000936718
0.000818917
0.000873568
0.000813479
0.000845555
0.000819447
0.000840549
0.000831086
0.0008449
0.00083898
0.000845161
0.000854066
0.000127869
0.000169789
0.000239292
0.000305365
0.0010577
0.000881157
0.00101666
0.000734758
0.000866731
0.000729366
0.000798666
0.000747486
0.000792844
0.000781455
0.000810977
0.000811491
0.000831981
0.000831696
0.000840416
0.000852319
0.00014915
0.000380471
0.00110992
0.00126071
0.00148804
0.000902099
0.00111497
0.000806722
0.000920417
0.000787838
0.000850919
0.000797975
0.000841314
0.000822324
0.000847401
0.000841676
0.000855636
0.000850272
0.0008562
0.000863484
0.000529213
0.000506304
0.00124837
0.00149396
0.00151232
0.00096976
0.00126838
0.000764379
0.000850746
0.000724963
0.000780172
0.000755442
0.000793079
0.000796649
0.000820778
0.000828896
0.000846242
0.000846793
0.000854272
0.000863733
0.000452916
0.000354464
0.000498499
0.000679273
0.00157235
0.000913423
0.00149656
0.000842767
0.000921567
0.00074888
0.000839846
0.000789186
0.000849027
0.000835076
0.000850629
0.00085197
0.00086942
0.00086522
0.000869909
0.000875368
0.000341573
0.000358371
0.000651366
0.000850146
0.00148724
0.00101213
0.000734319
0.000511366
0.000453689
0.000161442
0.000244129
0.000120018
0.000186536
0.000135831
0.00104208
0.000768225
0.000733557
0.000797612
0.000851535
0.000874207
0.000541092
0.00039238
0.000501665
0.00074267
0.00144488
0.00102404
0.000841667
0.000429759
0.000261108
0.000137449
0.000109819
0.000108191
0.00010481
0.00010475
9.96971e-05
0.000739609
0.000621957
0.000668696
0.000811498
0.000873002
0.000614325
0.000493082
0.00104922
0.00111222
0.00135795
0.000989642
0.000689328
0.000368062
0.000140142
0.000104305
0.00010011
9.927e-05
9.88703e-05
9.86582e-05
9.8854e-05
0.000751482
0.000624954
0.000679125
0.000819371
0.000879566
0.000667346
0.000896366
0.00140199
0.00125434
0.00162436
0.000931387
0.000429469
0.000323388
0.000210025
0.000113091
9.99842e-05
9.94258e-05
9.93817e-05
9.89346e-05
9.8976e-05
0.000761709
0.00063067
0.000685191
0.000828676
0.000890205
0.000505333
0.000774422
0.00124766
0.00108707
0.00143979
0.00108565
0.000943798
0.000492798
0.000243174
0.000117011
0.000101045
9.97847e-05
9.92974e-05
9.89866e-05
0.000101658
0.000768979
0.000641158
0.000690772
0.00083758
0.000898364
0.000239779
0.000466644
0.000564699
0.000714265
0.00141844
0.00152395
0.00122412
0.000521118
0.000337003
0.000162309
0.000157751
0.000116651
0.000116611
0.000108695
0.00116831
0.000839542
0.000797508
0.000856064
0.00090644
0.00092377
0.00025166
0.000755459
0.000825204
0.00130615
0.00241348
0.0014378
0.00133051
0.0010857
0.0011286
0.00102318
0.00104964
0.000982237
0.000993961
0.000958277
0.000959696
0.000947095
0.000950368
0.000939132
0.000937569
0.000936459
0.000310847
0.000687266
0.00153782
0.00130111
0.00157323
0.00102138
0.00118531
0.00105471
0.00126211
0.0011526
0.0011582
0.00107562
0.00105859
0.00100911
0.000998681
0.000975105
0.000968326
0.000953214
0.000950399
0.000949907
0.000283371
0.00117349
0.00184004
0.00118218
0.00133882
0.000938592
0.00120988
0.00100848
0.00120677
0.00101997
0.00108706
0.000985018
0.00101583
0.000967807
0.000981256
0.000960119
0.000965498
0.00095201
0.000952024
0.000952202
0.00047721
0.00110101
0.00121192
0.00128428
0.00166618
0.000931134
0.00129493
0.000953838
0.00120922
0.00102697
0.00111623
0.00101934
0.00104796
0.000997767
0.00100532
0.000979779
0.000978768
0.000962209
0.000960359
0.000961227
0.000669919
0.000442691
0.000446211
0.000587179
0.00154506
0.000961388
0.00133818
0.000923759
0.00116368
0.000941113
0.00106224
0.000952022
0.00101075
0.000959234
0.000985467
0.000961114
0.000970907
0.000957434
0.000959224
0.000960845
8.19072e-05
0.000890179
0.00089141
0.000857432
0.000849656
0.000713024
0.0011991
0.000846668
0.00110267
0.000906905
0.00104522
0.000949444
0.00101492
0.000967501
0.000993853
0.000969135
0.00097782
0.000963675
0.000964299
0.000965935
1.99718e-06
2.45466e-05
4.02052e-06
1.01909e-05
4.62785e-06
1.23106e-05
8.63401e-06
1.60857e-05
1.31751e-05
1.43137e-05
1.16836e-05
1.18744e-05
1.04647e-05
1.07558e-05
1.00829e-05
1.03539e-05
1.00783e-05
1.02739e-05
1.02986e-05
1.03061e-05
0.000100763
0.000108016
0.000125638
0.000103572
0.000100768
0.000107837
0.000125425
0.00010027
0.000127547
0.000152218
0.000100513
0.000100305
0.000127171
0.000154907
0.000134751
0.000110402
0.00010101
0.00010836
0.000135137
0.000109807
0.000100928
0.000163577
0.00010035
9.9547e-05
0.000142886
0.000166032
0.000100309
9.9562e-05
3.19193e-06
3.37501e-06
2.82634e-06
2.96318e-05
0.000177628
5.11416e-05
0.000316247
3.1435e-06
2.85726e-06
2.99642e-06
0.000505876
0.000409365
0.000640184
0.000384475
3.27267e-06
3.0707e-06
3.19777e-06
0.000325368
0.000170315
0.000294855
0.000133017
3.73939e-06
3.27799e-06
3.42651e-06
0.000151898
0.000110333
0.000115725
0.000101357
3.86654e-06
3.51018e-06
3.63471e-06
0.000109722
0.000108032
0.000100706
9.94604e-05
3.96665e-06
3.70354e-06
3.74729e-06
0.000108123
0.000104632
9.9384e-05
9.89894e-05
3.97649e-06
3.77078e-06
3.76611e-06
0.00010455
0.00010434
9.90186e-05
9.8829e-05
4.13959e-06
3.78753e-06
3.95334e-06
0.000104413
0.000101044
9.8814e-05
9.86372e-05
3.09777e-06
3.43697e-06
2.7437e-06
9.31992e-05
0.000503451
0.000415352
0.000633787
3.09681e-06
2.77559e-06
2.73902e-06
0.00074627
0.000365506
0.00062918
0.00035662
3.20812e-06
2.79422e-06
2.97533e-06
0.000261423
0.00012608
0.000259381
0.00012956
3.40306e-06
3.0277e-06
3.15872e-06
0.000112792
0.000101152
0.000115725
0.000101861
3.59657e-06
3.20789e-06
3.35843e-06
0.000100427
9.93399e-05
0.000100657
0.00010001
3.69419e-06
3.40015e-06
3.44355e-06
9.92667e-05
9.88906e-05
9.98832e-05
9.95118e-05
3.7337e-06
3.47272e-06
3.52597e-06
9.88663e-05
9.86364e-05
9.94134e-05
9.93322e-05
4.09403e-06
3.54407e-06
3.76112e-06
9.86147e-05
9.85003e-05
9.92001e-05
9.87775e-05
2.57147e-06
2.5626e-06
2.22895e-06
0.000731166
0.000503377
0.000535802
0.000515093
2.67626e-06
2.33416e-06
2.50854e-06
0.000493346
0.000358751
0.000506208
0.000476253
2.95532e-06
2.59433e-06
2.88008e-06
0.000270471
0.000129932
0.000371852
0.000161504
3.14735e-06
2.94495e-06
3.08991e-06
0.00011545
0.000101356
0.000128726
0.000102191
3.31427e-06
3.12643e-06
3.22273e-06
0.000100276
9.94453e-05
0.000100667
9.92494e-05
3.41143e-06
3.24598e-06
3.31029e-06
9.93699e-05
9.94214e-05
9.90974e-05
9.8843e-05
3.49692e-06
3.32893e-06
3.38485e-06
9.9411e-05
9.90214e-05
9.87973e-05
9.86881e-05
3.88735e-06
3.40087e-06
3.60288e-06
9.8987e-05
9.87663e-05
9.86227e-05
9.85392e-05
2.24578e-06
4.47331e-06
2.91408e-06
0.000496486
0.000412667
0.000646692
0.000751546
2.50401e-06
2.87157e-06
2.74611e-06
0.000416325
0.000392015
0.00052537
0.000964321
2.84912e-06
2.84604e-06
3.07516e-06
0.000380444
0.000174257
0.000585915
0.000198143
3.05027e-06
3.09225e-06
2.8993e-06
0.000137888
0.000103486
0.000157155
0.000118287
3.18113e-06
2.94333e-06
3.08121e-06
0.000101656
9.99984e-05
0.000111084
0.000105701
3.28035e-06
3.12467e-06
3.1011e-06
9.979e-05
9.93595e-05
0.00010442
0.000103006
3.36601e-06
3.14489e-06
3.24402e-06
9.92996e-05
9.90497e-05
0.000102257
0.000102111
3.72282e-06
3.27412e-06
3.26272e-06
9.89959e-05
9.86303e-05
0.000101963
9.71747e-05
0.000345611
0.0005029
0.000340677
0.000352121
0.000261535
0.000309551
0.000271755
0.00023029
0.000300319
0.000185137
0.000249753
0.000233455
0.00027462
0.000180009
0.000141293
0.000155193
0.000111069
0.000218031
0.00014085
0.000150949
0.000110349
0.000110483
0.00010552
0.000100617
0.000135564
0.000110373
0.00010522
0.000100669
0.000108223
0.000100377
9.95353e-05
0.000110031
0.000108205
0.00010046
9.96558e-05
0.000104822
9.94516e-05
9.90064e-05
0.000108222
0.000104813
9.95683e-05
9.91515e-05
0.000104583
9.90288e-05
9.8882e-05
0.000104752
0.000104585
9.9176e-05
9.89394e-05
0.000103283
9.8871e-05
9.8601e-05
0.000104664
0.000103445
9.89107e-05
9.86492e-05
0.000323259
0.000302104
0.000241868
0.000324525
0.000270939
0.000282064
0.000224815
0.000151444
0.000208008
0.00013388
0.000242845
0.000134805
0.00019225
0.000132601
0.000107036
0.000123456
0.000108365
0.00012518
0.000106314
0.000122849
0.000107366
0.000100432
0.000105163
0.000101159
0.000103363
0.0001006
0.000106248
0.000107564
9.94377e-05
0.00010063
0.000100504
0.000100357
9.97706e-05
0.000106312
0.000114219
9.89099e-05
0.000100547
0.000100612
9.97243e-05
9.94704e-05
0.000116275
0.000115598
9.86245e-05
0.000100641
9.96951e-05
9.94377e-05
9.90067e-05
0.000115319
0.000111008
9.84932e-05
9.95867e-05
9.91729e-05
9.88824e-05
9.86484e-05
0.000110727
0.000105619
0.000195381
0.000376356
0.000257142
0.000211361
0.000193381
0.000343269
0.000257549
0.000146006
0.000217701
0.000179868
0.000188998
0.000149334
0.000221445
0.000181463
0.000106897
0.000173585
0.000122807
0.000131039
0.000106563
0.000170895
0.000120504
0.000100672
0.000111767
0.000101056
0.000105229
0.000107159
0.000110573
0.000100993
9.97002e-05
0.000100269
9.92614e-05
0.000105651
0.000111504
0.000100266
9.93423e-05
9.95031e-05
9.91346e-05
9.88788e-05
0.000114054
0.000121095
9.91868e-05
9.90348e-05
9.95348e-05
9.88193e-05
9.87607e-05
0.000121222
0.000110557
9.90116e-05
9.88053e-05
9.88368e-05
9.86998e-05
9.85261e-05
0.000109301
0.000103542
9.87324e-05
9.85864e-05
0.000271136
0.000394105
0.000301694
0.000439898
0.000297129
0.000370937
0.00026746
0.000170777
0.000250131
0.000190367
0.000257174
0.000183626
0.000229845
0.000180323
0.000127909
0.00017967
0.000133009
0.000170056
0.000125427
0.000169105
0.000129085
0.000102098
0.000125728
0.000112405
0.000115201
0.000101962
0.000122797
0.000110794
0.000100039
0.000108151
0.00010504
0.000101091
0.000100073
0.000107573
0.000104994
9.93822e-05
0.000104251
0.000103059
9.989e-05
9.94977e-05
0.000104209
0.000103025
9.9085e-05
0.000102513
0.000102653
9.94095e-05
9.91151e-05
0.000102493
0.000102637
9.86194e-05
0.00010255
0.000101669
9.90509e-05