/*--------------------------------*- C++ -*----------------------------------*\
  =========                 |
  \\      /  F ield         | OpenFOAM: The Open Source CFD Toolbox
   \\    /   O peration     | Website:  https://openfoam.org
    \\  /    A nd           | Version:  10
     \\/     M anipulation  |
\*---------------------------------------------------------------------------*/
FoamFile
{
    format      ascii;
    class       volScalarField;
    location    "0.3";
    object      omega;
}
// * * * * * * * * * * * * * * * * * * * * * * * * * * * * * * * * * * * * * //

dimensions      [0 0 -1 0 0 0 0];

internalField   nonuniform List<scalar> 
12920
(
0.160159
0.185109
0.191799
0.196436
0.19098
0.180283
0.165616
0.154132
0.147161
0.144125
0.143382
0.143271
0.14325
0.143249
0.143248
0.143247
0.143245
0.143242
0.143242
0.143239
0.15895
0.179501
0.223624
0.229951
0.224278
0.182535
0.159346
0.147919
0.144258
0.143417
0.143273
0.143249
0.143251
0.143255
0.143254
0.143253
0.143251
0.143246
0.143245
0.143243
0.167398
0.189124
0.229513
0.245109
0.245724
0.180515
0.152264
0.14497
0.143569
0.143307
0.143263
0.143258
0.143257
0.143257
0.143257
0.143252
0.143247
0.143243
0.143242
0.143243
0.190551
0.287922
0.331742
0.27341
0.227676
0.158373
0.146319
0.143733
0.143332
0.143268
0.143257
0.143254
0.143254
0.143251
0.143255
0.143256
0.143254
0.143247
0.143244
0.143244
0.250885
0.334313
0.288994
0.189617
0.176405
0.148879
0.14498
0.143655
0.14327
0.143232
0.143227
0.143241
0.143253
0.143256
0.143256
0.143255
0.143252
0.143249
0.143244
0.143244
0.255532
0.275192
0.206659
0.195356
0.166849
0.145845
0.145314
0.143567
0.143435
0.14329
0.143266
0.143254
0.143251
0.143246
0.143252
0.143255
0.143254
0.143249
0.143244
0.143243
0.151825
0.205824
0.203185
0.206837
0.17397
0.150588
0.145975
0.144138
0.146294
0.145273
0.143997
0.14322
0.142945
0.142969
0.142977
0.143112
0.143207
0.143242
0.143246
0.143246
0.158406
0.189832
0.198309
0.194237
0.181976
0.158791
0.296112
0.290517
0.291233
0.293181
0.291493
0.291473
0.291119
0.29126
0.138036
0.139268
0.141434
0.142608
0.143047
0.143204
0.167448
0.178216
0.177835
0.177533
0.172302
0.325594
0.594636
0.586824
0.601183
0.60953
0.604946
0.604831
0.603845
0.603609
0.2863
0.136199
0.139024
0.141426
0.142595
0.143091
0.143633
0.164449
0.167536
0.165661
0.157295
0.298731
0.586696
0.590768
0.601567
0.60413
0.604154
0.604171
0.604244
0.604144
0.279357
0.13443
0.138292
0.141116
0.142494
0.143069
0.143079
0.158414
0.188262
0.194381
0.168717
0.307317
0.592207
0.591651
0.597455
0.604372
0.60375
0.604071
0.603816
0.603287
0.279456
0.134443
0.138289
0.141111
0.142496
0.143071
0.194461
0.223128
0.26563
0.299424
0.258507
0.372846
0.705521
0.59784
0.594675
0.60343
0.604192
0.60437
0.604376
0.604358
0.280613
0.136178
0.139022
0.141419
0.1426
0.143094
0.1459
0.217897
0.273718
0.361965
0.349059
0.299132
0.4486
0.307604
0.291431
0.292
0.291507
0.291218
0.291202
0.291183
0.137875
0.139352
0.141474
0.142623
0.143066
0.143213
0.227046
0.36046
0.479561
0.447472
0.363722
0.301848
0.213284
0.165721
0.149057
0.144485
0.143376
0.143209
0.143078
0.143092
0.143109
0.143165
0.143221
0.143248
0.143255
0.143254
0.184419
0.238589
0.358977
0.354876
0.317393
0.267073
0.218292
0.175715
0.151633
0.144503
0.143394
0.143271
0.143258
0.143258
0.143258
0.143258
0.143259
0.143259
0.143258
0.143255
0.295928
0.263422
0.234986
0.234895
0.230409
0.215378
0.182491
0.153263
0.144912
0.143424
0.143273
0.14326
0.143259
0.14326
0.14326
0.14326
0.143259
0.143259
0.143258
0.143255
0.336629
0.289315
0.228543
0.221648
0.215129
0.183229
0.155799
0.145922
0.143733
0.143326
0.143268
0.143261
0.14326
0.14326
0.14326
0.14326
0.143259
0.143259
0.143258
0.143255
0.169559
0.199008
0.211107
0.253057
0.240849
0.195079
0.157396
0.146179
0.143766
0.143336
0.14327
0.143256
0.143258
0.143254
0.143257
0.143259
0.143259
0.143259
0.143259
0.143256
0.144418
0.148354
0.162913
0.178529
0.177819
0.158681
0.148387
0.144139
0.143316
0.143239
0.143243
0.143248
0.143255
0.143256
0.143258
0.143259
0.143259
0.143259
0.143259
0.143256
0.141155
0.141566
0.144255
0.148904
0.147533
0.144283
0.143517
0.143296
0.143261
0.143258
0.143258
0.143253
0.143257
0.143253
0.143257
0.143257
0.143258
0.14326
0.143259
0.143258
0.0627489
0.0870315
0.0954073
0.10927
0.107996
0.0993072
0.0802889
0.0652187
0.0587887
0.0571507
0.0568039
0.056726
0.0566955
0.0566881
0.0566834
0.0566853
0.0566868
0.0566933
0.0566969
0.0567053
2.66194
7.62043
10.5711
17.3133
14.8684
10.1317
6.70527
6.28084
5.60121
6.0074
6.84359
7.31165
7.61502
7.73152
7.83313
7.86568
7.9098
7.92551
7.95372
7.98624
4.60889
8.53969
11.7555
19.5757
19.0957
13.5361
9.38122
8.21374
7.85007
7.89131
7.99504
8.02917
8.03364
8.02703
8.02122
8.01643
8.01363
8.01222
8.01497
8.02118
1.77159
18.2251
26.9736
30.1509
24.0412
13.3142
10.489
9.03927
8.76995
8.32112
8.21364
8.0983
8.0662
8.03702
8.02777
8.01947
8.01556
8.01331
8.01604
8.02179
7.37943
18.0416
23.3128
20.883
20.6868
13.1917
11.5513
9.15615
8.67812
8.25996
8.1719
8.08154
8.05804
8.03414
8.02588
8.01894
8.01547
8.0138
8.01648
8.02215
8.14174
17.1848
15.7913
14.4725
13.4222
10.9947
12.2863
9.98647
9.33995
8.41923
8.25589
8.0988
8.06923
8.03603
8.02835
8.02126
8.01698
8.01479
8.01723
8.02251
2.52866
13.2039
13.8985
13.1359
5.70142
7.53782
9.72518
9.37
9.56408
8.76653
8.43802
8.17216
8.09897
8.0489
8.03333
8.02336
8.01734
8.01518
8.01774
8.0232
7.61954
8.11431
8.06818
4.44475
1.72647
4.14454
5.07256
14.3364
13.1474
11.71
9.78837
8.82205
8.36627
8.18489
8.10358
8.06476
8.03813
8.0218
8.02093
8.02297
10.0568
8.07882
4.30936
2.50639
1.74478
2.77187
4.26015
12.1014
13.4436
9.91575
8.68078
8.59557
8.39074
8.38765
8.298
8.13679
8.08349
8.04055
8.02917
8.0252
7.99175
4.90948
2.67968
1.6215
1.61394
2.32411
4.87906
10.0434
9.29115
8.28414
8.12763
8.08246
8.05346
8.03771
8.03326
8.03112
8.02617
8.02016
8.02117
8.02448
7.20607
1.52463
2.06534
6.52943
10.078
10.8863
12.1169
12.0231
9.51611
8.33563
8.1289
8.09865
8.09487
8.07992
8.045
8.03234
8.02653
8.01965
8.02122
8.02472
6.28021
3.71672
15.0274
20.3283
17.9711
19.6297
20.8194
13.3738
11.2829
8.84782
8.17694
8.10761
8.07902
8.06262
8.10461
8.1364
8.07972
8.03901
8.02834
8.02525
6.4087
9.12956
18.4851
23.3221
21.5527
16.4819
15.9804
12.5774
11.0732
9.37346
8.75023
8.29123
8.18878
8.11718
8.08031
8.05562
8.03479
8.02085
8.02082
8.02358
5.2825
15.9405
22.6263
24.5817
21.0662
13.1611
11.1545
7.84014
7.87311
7.7778
7.93113
7.9931
8.0343
8.02937
8.02939
8.0216
8.01901
8.01626
8.01876
8.02433
3.17572
5.88637
14.1665
12.6198
7.15052
2.81403
1.8223
3.18815
6.08773
7.48173
7.90627
8.01908
8.03035
8.02871
8.02426
8.01983
8.01695
8.01507
8.01759
8.02366
14.5778
13.9719
6.88703
2.83631
1.04499
0.946915
1.54901
5.75367
7.04409
7.85457
7.95011
8.03294
8.03056
8.02818
8.02139
8.01748
8.01507
8.01387
8.01645
8.02299
19.1314
18.449
7.99071
6.095
2.25975
3.61112
4.35608
6.84522
7.48221
7.9505
8.00846
8.04688
8.03597
8.02998
8.02086
8.01815
8.01477
8.01342
8.01578
8.02249
10.475
6.62391
10.961
26.4494
18.9444
13.2184
8.8115
8.22143
7.94575
8.03685
8.04527
8.05735
8.04009
8.02935
8.02012
8.01654
8.0134
8.01237
8.01489
8.02197
8.76399
2.90276
3.55469
12.964
14.9894
10.9587
9.76002
8.55244
8.35238
8.05718
8.02567
7.94035
7.94736
7.9275
7.94033
7.93798
7.95337
7.95992
7.97866
8.00352
0.0571413
0.0580018
0.0588059
0.0603727
0.0599844
0.0583683
0.0574921
0.0568965
0.0565392
0.0565491
0.0565235
0.0565843
0.0566021
0.0566501
0.056661
0.056682
0.0566865
0.056696
0.0566995
0.0567069
0.0583726
0.0891289
0.105512
0.103075
0.0873331
0.0729962
0.0649572
0.0590715
0.0571887
0.0567824
0.0567132
0.0567002
0.056689
0.0566862
0.056683
0.0566851
0.0566868
0.0566932
0.0566968
0.0567053
5.89788
15.7403
21.2501
19.7728
11.7888
7.27702
5.2119
4.97792
5.48079
6.33428
7.00375
7.37576
7.6379
7.7389
7.83504
7.86633
7.91006
7.92564
7.95368
7.98655
8.92059
10.4268
19.8454
22.4979
20.2295
13.8688
9.92485
8.57079
8.223
8.15439
8.1093
8.07306
8.04722
8.03142
8.02233
8.01695
8.01376
8.01222
8.01497
8.02149
8.86485
20.2926
25.121
38.4097
27.4443
15.7771
11.1441
9.18452
8.85009
8.36282
8.23259
8.10728
8.06988
8.03853
8.02802
8.01964
8.01578
8.01338
8.01607
8.02212
9.76673
15.8305
23.3132
30.0167
21.0553
16.0005
12.2329
9.45825
8.73835
8.27835
8.17582
8.08314
8.05846
8.03451
8.02583
8.01905
8.01544
8.01371
8.01642
8.0226
10.9503
23.3168
22.0213
16.8212
13.8294
11.1141
12.9136
10.2389
9.39795
8.44024
8.2641
8.10365
8.072
8.03799
8.02901
8.02146
8.01703
8.01476
8.01739
8.02318
6.86424
12.9402
17.3873
18.088
12.5325
11.3468
12.3125
10.2401
9.82906
8.76545
8.45321
8.17869
8.10144
8.04918
8.03358
8.02417
8.01873
8.01612
8.01854
8.02393
10.7491
9.92626
8.94563
9.2732
9.56754
11.1404
13.2362
17.2296
13.8127
11.8282
9.83526
8.82978
8.37396
8.18713
8.10263
8.06432
8.03863
8.02284
8.02261
8.02492
10.486
9.59805
8.60371
11.186
12.1398
14.0073
13.8742
15.2488
14.4694
10.1258
8.68992
8.59538
8.39052
8.38732
8.29933
8.13627
8.08298
8.04146
8.03181
8.02819
10.6308
7.68441
7.94437
10.7144
10.7243
12.1811
15.7764
15.3764
9.68673
8.30351
8.14987
8.12458
8.09722
8.06583
8.03674
8.02247
8.02388
8.02089
8.02199
8.02557
15.0218
7.58937
15.0059
19.5184
14.5752
13.9841
14.1293
12.7423
9.66713
8.655
7.45143
8.06083
8.76533
8.65009
7.96303
8.02944
8.02575
8.01973
8.02157
8.02555
20.7238
8.63745
21.1203
20.1195
18.4066
19.7263
22.3686
14.3413
12.0856
8.90973
8.17569
8.11479
8.08854
8.06719
8.1048
8.13545
8.07894
8.03962
8.03136
8.02853
10.198
9.10953
11.4033
21.4953
21.3245
17.2568
16.2247
13.6926
12.1078
9.50183
8.76387
8.29587
8.19021
8.11754
8.08
8.05492
8.0352
8.02245
8.02293
8.02563
10.9767
10.2349
15.8151
23.3469
21.107
14.3648
13.3436
10.7791
9.73819
8.61629
8.33291
8.11872
8.07578
8.03549
8.03194
8.02228
8.01939
8.0167
8.01909
8.02462
8.34963
15.0499
22.3519
15.5035
6.5967
6.8755
7.77537
9.96387
9.51381
8.71649
8.2668
8.12511
8.05899
8.0368
8.02635
8.02033
8.01696
8.01499
8.01747
8.02372
13.0022
21.7351
19.3828
11.2441
4.01936
5.31438
8.26403
9.58549
8.88188
8.42777
8.15497
8.09296
8.04681
8.033
8.02268
8.01788
8.01503
8.01377
8.01631
8.02302
20.977
18.4126
12.7738
16.282
9.65825
10.9679
10.1807
9.5178
8.62417
8.35522
8.13484
8.08663
8.0425
8.03244
8.02143
8.01826
8.01465
8.0133
8.01564
8.02252
11.0372
16.2698
17.9382
24.0619
20.7032
13.3133
10.6358
9.23564
8.59881
8.32558
8.1514
8.09084
8.04686
8.03234
8.02076
8.01678
8.01335
8.0123
8.01478
8.02202
10.3897
9.657
9.99571
18.1689
14.4881
11.8716
10.0483
8.68773
8.4228
8.08244
8.0385
7.94148
7.94831
7.92827
7.94063
7.93817
7.95331
7.95981
7.97851
8.00359
0.0623169
0.0611706
0.0630255
0.0683651
0.0657273
0.0602607
0.0578516
0.0569113
0.0565199
0.0565387
0.0565182
0.0565828
0.0566018
0.0566502
0.056661
0.056682
0.0566865
0.056696
0.0566995
0.0567069
0.0575752
0.0783582
0.101536
0.0972291
0.0691367
0.05973
0.0577425
0.0569312
0.0567544
0.0567196
0.0567041
0.0566983
0.0566882
0.0566859
0.0566829
0.0566851
0.0566868
0.0566932
0.0566969
0.0567053
8.94391
12.1938
19.5927
22.1087
11.6954
7.86784
6.38615
6.37304
6.33113
6.51912
7.09451
7.41169
7.64932
7.74235
7.83628
7.8671
7.91072
7.92631
7.95448
7.98762
10.3137
11.5027
13.5219
20.4169
20.634
16.8487
11.3492
9.02321
8.31907
8.17141
8.11151
8.07342
8.04774
8.03198
8.02297
8.0176
8.01441
8.01299
8.01581
8.02253
10.4089
15.2186
15.7053
18.6399
29.597
22.7444
13.8662
9.41114
8.85089
8.32785
8.22729
8.10683
8.07011
8.03897
8.02863
8.02026
8.01641
8.01409
8.01686
8.02317
11.4521
22.5912
27.173
28.7866
25.4273
15.6583
12.2026
9.44903
8.67979
8.27024
8.16979
8.08304
8.05884
8.03511
8.02657
8.01975
8.01631
8.01466
8.01733
8.02362
13.4875
29.3162
32.9643
24.5741
21.6312
12.0484
13.4616
10.4123
9.46197
8.45697
8.2731
8.10766
8.07563
8.04123
8.03096
8.02246
8.01775
8.01551
8.01813
8.02415
10.1749
26.0254
29.3091
23.3597
23.0428
14.3132
13.2627
9.88752
9.66951
8.7456
8.43253
8.17138
8.09879
8.04813
8.03544
8.02693
8.02232
8.01895
8.02073
8.02534
19.8665
15.6154
18.7625
20.7201
18.9969
14.6531
15.8512
17.0514
13.4898
11.7868
9.79563
8.82535
8.36771
8.18618
8.10245
8.06476
8.03939
8.024
8.02438
8.02734
22.2685
17.0266
22.0678
23.8521
20.7263
19.0652
16.2948
15.8903
14.0017
10.0656
8.68993
8.59521
8.3905
8.38761
8.298
8.13684
8.08401
8.04243
8.03375
8.03122
19.2212
16.5155
22.8445
18.3722
15.8183
19.9837
20.6057
19.3744
9.80361
8.30978
8.14055
8.10365
8.08353
8.05217
8.04291
8.0302
8.02546
8.02094
8.02278
8.02732
22.3111
18.2704
23.8939
20.5406
16.329
14.641
15.5336
13.056
9.44727
8.42667
8.4071
8.6152
8.6281
8.47869
8.09142
8.03145
8.02608
8.0203
8.02232
8.02684
17.459
24.0864
29.2954
30.0851
26.1882
23.8599
25.6157
15.2762
11.6603
8.85605
8.17438
8.11171
8.08392
8.06422
8.10441
8.13538
8.07941
8.04025
8.03485
8.03352
16.308
18.5312
23.8037
27.6166
30.2091
25.9633
20.1579
13.8616
13.0624
9.631
8.77422
8.29732
8.18987
8.11755
8.07937
8.05506
8.03572
8.02478
8.02732
8.02953
14.955
20.2281
28.5916
35.5756
25.599
18.6984
15.6958
11.0261
9.90385
8.58905
8.32405
8.11083
8.07404
8.03499
8.03247
8.02336
8.02025
8.01853
8.02138
8.02664
22.4246
34.0305
40.3871
29.0756
12.8521
14.5203
13.5423
11.6437
9.63861
8.68317
8.25318
8.12039
8.05868
8.03731
8.02717
8.02122
8.01776
8.01592
8.01871
8.02519
17.1638
33.3117
29.3417
23.948
12.9226
13.4849
12.2925
10.2958
8.87447
8.42221
8.1594
8.09351
8.04787
8.03378
8.02351
8.01867
8.01585
8.01475
8.01759
8.0245
28.1434
30.3606
25.5667
22.0343
16.6927
14.7634
11.7018
9.88601
8.72608
8.35955
8.13595
8.08569
8.04308
8.03314
8.02226
8.01908
8.0155
8.01424
8.01683
8.02396
10.4964
12.5946
12.52
14.039
20.2572
16.8889
12.3438
9.5997
8.64706
8.32094
8.15137
8.0908
8.04763
8.03308
8.02158
8.01758
8.0142
8.0132
8.01593
8.02342
7.69094
6.21603
6.79712
7.62687
10.1457
12.4798
12.8495
9.94387
8.8916
8.1884
8.07054
7.94608
7.95042
7.92925
7.94151
7.93898
7.9542
7.96072
7.97968
8.00496
0.0577113
0.0635733
0.0636522
0.0638284
0.0610522
0.0596786
0.0605671
0.0578326
0.0568525
0.0566019
0.0565339
0.0565862
0.0566024
0.0566499
0.056661
0.056682
0.0566865
0.056696
0.0566995
0.0567069
0.0580534
0.0731615
0.0846836
0.0824742
0.0761827
0.066993
0.0610329
0.057929
0.056969
0.0568028
0.0568767
0.0570202
0.0573559
0.0574806
0.0577955
0.0576606
0.0576871
0.0573719
0.0572352
0.0568807
11.8511
14.3575
19.4213
16.9959
7.47517
3.98307
5.26866
10.6187
20.9952
22.558
28.3326
28.6256
31.5211
31.5295
32.953
32.9836
33.7732
33.7875
34.1692
34.6448
10.9758
13.3701
22.5318
29.4403
39.402
27.8043
33.7389
30.3831
35.3027
32.8105
35.1411
33.6288
34.803
34.0509
34.7259
34.4213
34.8448
34.6449
34.8364
35.0789
10.7508
12.0825
13.0674
14.7929
30.3963
31.6816
37.8481
29.9975
34.7798
30.8487
33.3588
31.8877
33.3785
33.0133
33.9197
33.8959
34.482
34.4449
34.6993
35.0279
11.484
17.9573
35.9427
42.5677
49.836
34.1998
41.2333
32.3113
36.3736
32.6125
34.8479
33.3158
34.7121
34.1258
34.8973
34.7018
35.1238
34.9445
35.1277
35.3345
23.5188
22.8375
38.9633
48.9043
51.4698
36.8534
45.09
30.6553
34.4433
30.8379
32.8397
32.1396
33.346
33.4308
34.1513
34.3541
34.8579
34.8524
35.0636
35.3412
18.1031
16.8861
20.8721
27.1628
52.1618
34.2294
49.2519
32.4862
35.0288
30.8579
33.5362
32.4969
34.1988
33.9251
34.6901
34.846
35.4652
35.3359
35.4858
35.6579
16.0342
14.8985
24.3805
32.4209
51.314
37.008
28.5593
23.5549
20.6324
12.2009
12.2115
9.32946
9.75034
8.97915
28.0806
27.7855
30.2307
33.5232
34.9722
35.6226
21.4332
17.2755
21.2769
30.069
50.6333
37.8521
31.9676
20.6791
15.4659
10.0604
8.67757
8.59486
8.39198
8.38823
8.42061
21.2182
23.6304
30.1433
33.8285
35.5708
23.9461
21.6457
36.2566
40.8719
46.8384
35.1542
28.75
19.2883
10.0399
8.32698
8.1254
8.07724
8.05383
8.04175
8.03453
21.0669
23.6156
30.4692
34.0338
35.749
23.5769
35.2166
48.6957
42.4818
52.1694
30.3686
20.0116
17.2809
13.2283
8.71274
8.11512
8.0867
8.08369
8.05701
8.03567
21.1589
23.6978
30.6644
34.2959
36.0503
21.7627
29.5859
43.5433
39.2444
49.5534
40.1569
36.6195
23.0401
14.5723
8.91004
8.17424
8.10534
8.07758
8.05994
8.12611
21.7605
23.9994
30.8114
34.5786
36.2837
13.4351
19.9007
23.6408
27.5168
44.9477
51.0306
42.9805
19.4547
16.8253
10.2542
9.44759
8.52263
8.42839
8.26344
30.3059
29.6884
31.9388
35.2257
36.4988
36.9999
13.7674
27.7568
30.4192
43.4087
71.2757
46.3797
45.7146
39.5034
40.5863
38.4472
39.6065
38.092
38.5628
37.6491
37.8211
37.5131
37.666
37.3482
37.3336
37.341
16.3228
25.9384
50.1758
45.0114
50.639
37.2366
41.5892
37.5773
42.9441
41.4166
42.4888
40.6368
40.4365
39.2431
38.9777
38.3212
38.1747
37.7521
37.6866
37.7073
14.5887
40.0636
56.448
40.198
45.5647
35.1862
40.9203
36.4951
42.6995
38.6193
41.1606
38.4354
39.4951
38.1193
38.5546
37.9277
38.1124
37.7128
37.7329
37.7666
15.9252
27.1663
29.4324
43.6733
54.3454
33.4169
44.1599
35.6769
43.4415
38.9906
41.9611
39.3524
40.3282
38.9141
39.188
38.4546
38.4691
38.0005
37.9685
38.0182
9.35923
4.88964
4.91885
7.8038
36.9531
31.5168
45.1947
34.9155
42.7936
36.8372
40.7374
37.5896
39.421
37.8981
38.6986
37.9647
38.2761
37.872
37.9416
38.0141
0.256602
1.45281
1.38067
1.68543
4.98916
14.6777
41.0509
32.2177
40.6863
35.3403
39.7836
36.9709
39.0718
37.6474
38.5442
37.8219
38.1789
37.8027
37.9225
38.0604
0.0564602
0.0589619
0.0591777
0.0590352
0.0590052
0.0595116
0.0678018
0.067721
0.0775163
0.0679064
0.0690431
0.0628533
0.0624435
0.0597087
0.0592735
0.0581456
0.0579639
0.0574644
0.0573409
0.0569736
8.16315
8.6944
8.8888
8.30398
8.16331
8.68382
8.95377
8.13024
8.56086
9.16161
8.15025
8.131
8.61189
9.23306
7.87286
8.64775
8.17294
8.63594
7.84118
8.61625
8.1682
7.97397
8.13745
8.09381
7.43866
7.9298
8.1351
8.09487
0.584836
0.589113
0.587148
0.633017
1.27149
0.770182
1.43059
0.595588
0.588732
0.595598
2.04942
6.16177
1.76781
4.95327
0.609879
0.599146
0.605012
7.83239
9.10202
6.18383
7.72052
0.60519
0.604146
0.603867
9.36344
8.70267
7.91537
8.11093
0.605007
0.604184
0.604376
8.69436
8.5988
8.11839
8.09044
0.604171
0.604365
0.604346
8.60115
8.40394
8.08508
8.06076
0.603687
0.604342
0.604208
8.40321
8.39577
8.06275
8.05151
0.610103
0.604181
0.622741
8.40128
8.4567
8.05077
8.03518
0.589321
0.587419
0.590605
0.861074
1.32287
1.34441
2.28195
0.597698
0.591994
0.594996
1.39321
4.30343
2.51368
4.32158
0.605202
0.59796
0.605131
5.60139
7.5621
5.18422
7.54443
0.603764
0.604558
0.603599
7.83916
8.10159
7.85331
8.12101
0.604208
0.603705
0.604195
8.10677
8.08294
8.1217
8.12051
0.604213
0.604154
0.603593
8.07801
8.05492
8.11445
8.09109
0.604215
0.603997
0.603665
8.05359
8.04023
8.08551
8.08084
0.623288
0.603611
0.622775
8.03903
8.03258
8.07237
8.04912
0.590677
0.635819
0.59912
1.92275
3.20513
5.41603
3.66925
0.594709
0.594777
0.593609
3.43032
4.68027
3.35922
3.91654
0.604798
0.595181
0.603014
5.24808
7.40093
5.10206
7.64356
0.603654
0.603478
0.603995
7.77703
8.09057
7.92912
8.11103
0.604102
0.604155
0.604269
8.09297
8.08802
8.11019
8.07494
0.603541
0.604221
0.604084
8.08383
8.08607
8.06635
8.05191
0.603559
0.604109
0.604156
8.08543
8.06217
8.04933
8.04345
0.622838
0.604182
0.623349
8.0598
8.04772
8.03951
8.03472
0.606306
0.896006
0.635301
10.3117
6.35997
6.882
2.29751
0.594045
0.604861
0.589641
4.82928
4.31531
1.21936
1.43368
0.602794
0.589483
0.596516
4.55464
7.63032
2.83536
6.96607
0.603968
0.597724
0.596335
8.01155
8.15805
7.84386
8.26715
0.604373
0.596342
0.597512
8.15693
8.11759
8.31986
8.36987
0.604375
0.597715
0.597421
8.10598
8.08125
8.35824
8.30024
0.604362
0.597702
0.598837
8.07796
8.06362
8.27701
8.29308
0.62229
0.598923
0.605266
8.06054
8.03877
8.28626
8.49979
8.98084
4.31015
11.9435
10.3166
14.3178
13.2526
15.9334
14.0124
13.5661
11.7178
14.8887
14.7013
16.1244
12.1522
10.0975
10.5965
8.63657
14.0556
10.2046
10.7731
8.65581
8.6905
8.37942
8.15128
9.99599
8.69928
8.39167
8.15708
8.58847
8.13976
8.09264
8.68576
8.58797
8.14598
8.09945
8.3942
8.08788
8.06179
8.59538
8.3942
8.0945
8.06977
8.382
8.06337
8.05473
8.39056
8.38159
8.07143
8.05738
8.32333
8.05422
8.03793
8.38768
8.31457
8.05585
8.04144
9.61614
9.34839
11.7629
13.6133
14.8731
12.8124
12.9414
9.49252
11.6635
9.71467
14.0969
9.87589
12.2302
9.75881
8.43834
9.23873
8.53786
9.47428
8.45349
9.3033
8.51925
8.14111
8.37557
8.18377
8.29541
8.15426
8.47357
8.56262
8.08683
8.15522
8.15094
8.14059
8.10581
8.49991
8.85354
8.05601
8.15364
8.15463
8.10351
8.08653
8.89591
8.79425
8.03944
8.15615
8.09969
8.08426
8.05897
8.78719
8.57062
8.03202
8.09349
8.0704
8.05264
8.04068
8.52593
8.31077
12.1437
15.819
13.1049
13.9451
13.1225
17.8988
15.8556
10.4611
12.2954
11.7124
12.924
10.7119
14.2772
12.5761
8.45622
11.5432
9.06657
9.69452
8.4678
12.0698
9.16261
8.15462
8.60813
8.16617
8.41292
8.51719
8.65992
8.17242
8.10304
8.12924
8.07584
8.40311
8.54367
8.13275
8.08062
8.09
8.06861
8.05406
8.59427
8.59162
8.07173
8.06286
8.09121
8.05064
8.04752
8.61031
8.49399
8.06154
8.04983
8.05148
8.04404
8.03392
8.48141
8.29222
8.04561
8.03721
15.1207
18.2687
14.6234
22.5296
17.0008
18.5754
16.3516
11.4626
11.9314
11.0048
15.3429
12.5945
14.3281
12.4629
9.34064
10.9611
9.38942
11.9701
9.43882
11.9242
9.63507
8.21824
9.15058
8.64278
8.90547
8.22288
9.31761
8.71579
8.12025
8.51209
8.40547
8.17774
8.12211
8.53744
8.40768
8.08245
8.36215
8.29181
8.11207
8.08919
8.36336
8.29373
8.06571
8.26081
8.26942
8.08427
8.06732
8.26198
8.27107
8.0393
8.26098
8.24408
8.0636
8.03894
8.26343
8.23332
15.0026
15.1736
15.8533
16.7051
15.9628
19.5425
19.0333
15.1578
16.3425
13.1075
15.7871
14.8847
18.5782
12.768
10.4341
11.4405
8.75652
14.1404
10.3356
11.1831
8.73245
8.70453
8.43039
8.16194
10.0843
8.70468
8.42225
8.16156
8.58792
8.1501
8.10752
8.68976
8.58788
8.15008
8.10751
8.39426
8.10171
8.07325
8.59535
8.39416
8.1017
8.07326
8.38132
8.07486
8.06219
8.39045
8.38121
8.07497
8.06267
8.31461
8.06131
8.0447
8.38732
8.31455
8.0617
8.04501
15.9769
14.7072
13.4869
19.5918
19.0429
15.51
13.5768
10.273
12.3539
9.7535
17.185
10.2099
12.2178
9.64417
8.47149
9.33216
8.56485
9.63935
8.47044
9.24563
8.54174
8.28939
8.2265
8.34614
8.30051
8.29474
8.23167
8.33735
8.11344
8.13865
8.2136
8.15526
8.21874
8.14801
8.12548
8.09978
8.92687
8.91438
8.12577
8.10043
9.07895
9.2049
8.07022
9.11888
8.63682
8.09814
8.07092
9.39552
8.8962
8.05198
8.39249
8.28186
8.06615
8.05268
8.62908
8.45979
13.0496
17.0931
15.3868
14.1687
12.9261
17.5553
15.5527
10.6003
14.1455
12.5492
12.6028
10.3613
14.1614
12.1852
8.49724
12.0006
9.1266
9.48608
8.46264
11.668
9.06919
8.49854
8.56419
8.36177
8.74976
8.44542
0.263153
8.3917
7.9582
7.50212
8.3411
0.281785
8.31422
0.27854
8.06599
8.36429
8.08342
8.07217
8.09917
8.53218
8.08418
8.07235
8.69613
8.07291
8.06952
9.04525
8.86536
8.07298
8.06815
8.75815
8.06519
8.04308
8.77701
8.85838
8.06462
8.04372
16.0667
18.6431
15.1384
24.1408
17.1711
20.6166
15.7513
12.6231
14.146
12.7999
14.9198
12.2039
14.1575
13.1379
9.44802
12.1703
9.66908
11.713
9.39569
12.456
9.75784
8.22092
9.33305
8.71923
8.88119
8.21801
9.3799
8.72638
8.12348
8.54402
8.40742
8.17401
8.12393
8.54481
8.40789
8.09215
8.36343
8.29382
8.11527
8.09304
8.3634
8.29371
8.07155
8.26209
8.27164
8.08949
8.07233
8.26202
8.27152
8.04072
8.26396
8.23513
8.0678
8.04082
8.26386
8.23475
16.4372
19.7182
19.7567
18.1001
18.1255
23.2968
23.4366
14.7784
19.4432
13.488
17.0525
14.9395
22.5254
13.5114
10.3017
11.5623
8.76772
14.1246
10.3271
11.6648
8.80508
8.70474
8.43578
8.15752
10.0752
8.70149
8.45159
8.15395
8.58787
8.14565
8.09935
8.68727
8.58858
8.1408
8.09214
8.39421
8.0944
8.07006
8.59567
8.39448
8.08729
8.06135
8.38166
8.07189
8.05794
8.3909
8.38179
8.06296
8.05448
8.3148
8.05635
8.04235
8.38833
8.3057
8.05427
8.03891
20.7418
17.2231
14.0643
23.2313
23.4372
17.9227
14.7866
10.5272
12.5064
9.72034
20.587
10.6315
13.4986
11.4635
8.48831
9.30228
8.55167
9.86162
8.49107
10.5897
8.72083
8.15473
8.48977
8.57247
8.31156
8.14198
8.44061
8.18557
8.10596
8.50715
8.86624
8.1277
8.08619
8.1527
8.15274
8.08599
8.90542
8.79528
8.08162
8.05578
8.15457
8.15431
8.05848
8.78569
8.56692
8.05316
8.03927
8.1552
8.09698
8.04144
8.52508
8.31746
8.03779
8.0325
8.08968
8.06811
13.6209
19.0694
15.9679
18.1738
17.4665
21.7774
18.9045
10.292
14.5564
12.322
16.9864
13.6378
17.2065
13.129
8.46728
11.5783
9.00295
11.8693
8.78272
11.9492
9.00143
8.53124
8.58169
8.16509
8.45582
8.15546
8.57521
8.16093
8.55855
8.12982
8.08045
8.12814
8.10216
8.1268
8.07597
8.61233
8.07169
8.06223
8.0976
8.08981
8.06874
8.05455
8.49251
8.06108
8.05069
8.09497
8.08778
8.05083
8.04685
8.3071
8.04694
8.03875
8.07766
8.04864
8.04355
8.03421
17.4921
23.5692
15.6333
29.5851
21.9126
30.0335
21.5718
12.3141
13.9635
13.6218
19.4309
13.7745
15.6673
13.5293
9.35265
12.9635
9.83255
12.3223
9.35819
12.7859
9.79109
8.21631
9.44995
8.73861
8.84564
8.21442
9.42965
8.74746
8.12152
8.55117
8.40768
8.17419
8.12043
8.56735
8.40906
8.08885
8.36376
8.29394
8.10769
8.08335
8.3651
8.29699
8.06829
8.26218
8.27173
8.08021
8.06642
8.26794
8.27458
8.03965
8.26398
8.23725
8.06303
8.03962
8.2692
8.21922
22.7781
31.0642
29.0245
62.2248
73.7857
80.1251
88.6616
16.5525
25.2916
13.5692
74.5082
91.0922
88.8128
86.6024
10.3416
11.6516
8.80164
88.0816
89.2486
82.1611
79.9124
8.69682
8.45603
8.15444
87.4757
89.7431
81.5293
89.6536
8.5876
8.13949
8.08909
87.8889
89.831
89.7081
89.1473
8.39367
8.08462
8.06036
87.6479
87.6431
87.9265
86.8511
8.38293
8.06197
8.05219
86.7507
87.8026
86.4726
86.2167
8.06314
8.05174
8.04005
86.8897
97.9186
85.699
105.38
24.601
18.1161
15.7821
80.8076
87.441
63.6244
76.0482
10.8925
14.4491
12.8897
83.1894
74.7442
79.0964
83.639
8.52297
12.0104
9.16475
73.7627
76.7244
81.5625
77.1345
8.1434
8.66004
8.18212
79.5269
89.106
79.462
90.4068
8.0814
8.13953
8.12431
89.4456
88.7478
91.8223
92.1628
8.05522
8.11625
8.09658
87.7884
86.8031
91.4489
89.2107
8.04219
8.08877
8.07717
86.6011
86.2619
89.4103
88.6596
8.0334
8.07328
8.04576
85.774
104.352
87.4866
106.753
17.7009
28.2215
21.5636
70.3008
81.0631
83.9709
94.0309
14.8437
19.6881
14.5964
81.8728
84.6119
92.7883
83.8907
9.32503
12.7294
9.05058
82.1266
75.6066
81.7063
81.0753
8.15746
8.59535
8.16045
77.3213
90.2051
82.5838
90.9978
8.0922
8.12613
8.07431
91.554
92.0669
92.3446
92.7758
8.08492
8.06547
8.05235
91.596
89.1211
92.5827
91.6029
8.05884
8.04978
8.04311
89.1307
88.7742
91.2604
90.1537
8.04268
8.03975
8.03471
87.52
106.004
89.907
110.243
26.859
39.7004
26.9305
93.3838
96.5204
71.5966
74.3331
16.8739
20.1272
16.7333
93.769
80.158
72.8188
70.4246
9.56734
15.0276
10.0788
78.8301
82.3371
73.4281
78.2714
8.21498
9.58106
8.73261
84.4543
91.0064
80.2323
80.4709
8.11657
8.57474
8.4259
92.4979
93.616
82.7281
85.0217
8.08091
8.3916
8.31698
93.2753
92.4024
84.8263
84.3214
8.06325
8.28639
8.28087
92.0138
90.8173
85.2377
86.1528
8.04148
8.27196
7.31817
90.3231
109.183
86.0469
96.0754
8.27155
8.1884
8.22235
8.17304
8.25758
8.20015
8.20549
7.74559
8.4648
8.91049
8.84962
8.51357
8.46324
0.200027
7.60938
8.47724
9.00899
0.291317
8.53268
7.34049
0.289544
8.29397
8.30107
8.22693
8.34779
8.23246
8.34279
8.29991
8.278
8.17462
8.18859
8.22675
8.20094
8.21191
8.26333
7.72337
8.85224
8.46753
8.9451
8.4624
0.203952
8.53739
7.62034
0.292716
8.49968
9.06668
7.37818
0.291187
8.56227
8.09878
8.13421
8.29217
8.14041
8.25789
8.14066
8.15325
6.69647
8.41313
8.49804
0.291365
8.42904
6.80564
0.290773
5.98522
8.78778
8.47824
2.6029
8.51154
6.12298
0.204745
8.12095
8.15732
8.13931
8.21418
8.14938
8.13355
8.21852
8.09616
8.14009
8.13443
8.293
8.14
8.14654
8.25248
6.74381
0.292759
8.4354
8.54225
6.85345
0.292841
8.45009
5.94835
2.29505
8.78594
8.52761
6.03487
0.208503
8.51234
8.50159
8.19346
8.43078
0.281692
8.48415
0.277047
8.3689
8.31679
8.37474
8.39429
8.64856
8.26651
8.36547
8.38887
8.2822
8.16904
8.25337
8.17223
8.20891
8.22124
8.24802
8.49967
8.748
8.55294
8.34634
0.249329
8.39876
8.46942
8.5166
0.280726
8.23156
8.44388
0.276325
8.38346
8.50301
8.32237
8.63385
8.35011
8.37733
8.35723
8.37756
8.25889
8.28922
8.1708
8.16797
8.24449
8.23186
8.2422
8.20737
8.04414
7.11466
8.49505
2.05883
8.33436
0.265225
8.1683
8.16969
8.14851
8.11482
8.14188
8.13939
8.18137
8.12345
8.17566
8.14601
8.10228
8.1027
8.13878
8.23067
8.1129
7.97742
0.280809
7.46221
8.34663
0.277677
8.07036
8.32232
8.0862
1.81281
7.08554
8.53798
0.251035
8.22678
8.34612
8.17468
8.14251
8.14791
8.11365
8.18704
8.12422
8.13992
8.18302
8.10325
8.15184
8.10177
8.24883
8.11276
8.14081
0.289667
0.295664
0.29064
0.526383
0.985321
0.361191
0.701423
0.290543
0.292012
0.295552
1.99187
2.148
1.35161
3.56681
0.294065
0.300821
0.311887
2.91278
5.64978
6.37817
8.26604
0.292025
0.307113
0.296577
8.52211
8.11907
8.90657
8.97692
0.291514
0.293504
0.292312
7.414
7.8933
8.72927
8.64887
0.291211
0.291635
0.291236
7.83475
7.40097
8.45651
8.35999
0.291336
0.291218
0.291187
7.00361
7.30955
8.21121
8.20847
0.295952
0.291163
0.296172
7.17685
7.31964
8.16058
9.48689
0.306243
0.314688
0.299331
0.478324
0.457089
0.407391
0.550831
1.17516
0.586865
0.594294
0.629258
1.25627
0.635746
0.587665
1.88044
0.589149
0.586498
1.82162
2.14475
1.8363
0.589003
2.46071
0.606058
0.599365
2.67971
3.06662
2.2977
0.604196
6.39787
0.606893
0.60765
6.94159
8.24645
5.22241
0.604735
8.34725
0.604087
0.60411
8.77534
8.21398
8.2023
0.604259
8.31782
0.604045
0.604305
8.07885
7.73761
8.34903
0.60432
8.27305
0.602917
0.604276
7.48691
7.10182
8.27473
0.604219
8.27182
0.603118
0.604259
7.29455
7.15636
8.27468
0.604226
0.290279
0.279953
0.285254
8.1879
8.42577
8.07288
9.50101
0.29324
0.296834
0.292868
0.522276
0.646144
0.54411
0.894042
1.48471
0.58711
0.586949
0.794719
1.23361
0.870164
0.588075
1.84995
0.592101
0.591533
1.79339
1.78907
1.86205
0.592896
2.23576
0.604702
0.60232
2.01616
2.13877
2.11709
0.605788
5.96517
0.603601
0.604484
4.62689
6.0041
4.59059
0.603616
8.01603
0.60428
0.604057
7.90162
8.03942
7.866
0.604279
8.05319
0.60418
0.604201
8.10808
8.10603
8.06287
0.60416
8.03317
0.604272
0.60417
8.07258
8.07157
8.06126
0.604259
8.07611
0.60414
0.604095
8.0828
8.08265
8.06214
0.604007
0.285605
0.279453
0.28574
8.0328
9.32451
8.0405
9.29326
0.299017
0.319537
0.322833
0.823792
1.71892
1.98687
4.17843
0.809886
0.590925
0.596113
0.534062
0.813502
0.538232
0.593855
1.55853
0.592783
0.591701
1.35025
1.50269
1.36635
0.592431
1.70864
0.601808
0.59735
1.65918
1.73842
1.67908
0.600946
5.45189
0.603741
0.603649
3.96577
5.54463
3.72439
0.6035
7.98916
0.603922
0.604083
7.8141
7.99074
7.78899
0.604132
8.10514
0.603843
0.604096
8.09492
8.101
8.10052
0.604064
8.08566
0.603923
0.603473