/*--------------------------------*- C++ -*----------------------------------*\
  =========                 |
  \\      /  F ield         | OpenFOAM: The Open Source CFD Toolbox
   \\    /   O peration     | Website:  https://openfoam.org
    \\  /    A nd           | Version:  10
     \\/     M anipulation  |
\*---------------------------------------------------------------------------*/
FoamFile
{
    format      ascii;
    class       surfaceScalarField;
    location    "0.3";
    object      phi;
}
// * * * * * * * * * * * * * * * * * * * * * * * * * * * * * * * * * * * * * //

dimensions      [0 3 -1 0 0 0 0];

internalField   nonuniform List<scalar> 
38556
(
-930.801
896.043
-298.063
-455.08
-19.4844
-456.237
122.12
-141.116
-436.084
475.665
-155.911
-197.634
644.941
-109.671
-59.6051
837.641
-138.674
-54.0263
831.838
-0.141935
5.9447
832.422
-0.0339377
-0.549468
585.227
102.262
144.933
393.549
56.8432
134.834
295.194
23.3809
74.9745
269.887
0.272007
25.0342
273.149
-8.4591
5.19727
280.271
-8.97033
1.84811
289.416
-9.61241
0.468005
296.815
-7.55603
0.156341
303.335
-6.56218
0.0426072
307.495
-4.16946
0.00966305
310.186
-2.64072
-0.050788
-0.506662
-0.0496289
-319.256
-191.03
1210.71
-536.206
-26.6553
224.121
-528.916
-239.397
90.9909
-422.346
-219.934
-42.547
-179.456
-209.822
-142.738
-67.9761
-168.279
-81.8747
56.1501
-57.824
-66.4441
129.749
-34.5885
-39.0442
179.103
22.2212
30.6868
200.864
7.67012
27.4116
226.661
-16.8434
14.4279
244.001
-21.2223
4.15363
261.835
-27.8913
1.59858
274.689
-22.2915
0.467028
287.688
-22.7542
0.142828
296.558
-16.4838
0.0583657
304.229
-14.2526
0.0191785
308.968
-8.90906
0.000173035
312.135
-5.76764
-0.0404214
-1.25478
-0.0411417
157.881
-631.206
1438.87
241.137
-30.2722
-79.6395
1.00535
-118.299
119.034
-21.0449
-149.986
-47.8985
3.97908
-57.6679
-177.178
39.1873
-161.751
-41.7365
90.6109
-70.5128
-38.7348
133.117
-80.31
3.21563
181.798
-42.3775
15.9171
216.969
-41.376
13.8757
241.108
-48.2608
7.27767
257.871
-40.8688
2.88415
274.046
-44.9477
0.881658
285.641
-34.2065
0.319452
297.079
-34.2684
0.0768964
305.072
-24.5186
0.0411673
311.836
-21.0176
0.00111551
315.949
-13.0096
-0.012538
318.427
-8.20628
-0.0391699
-1.65995
-0.0333892
-2789.67
-897.069
1176.22
-1319.28
-739.936
-760.726
-977.228
-389.977
-70.374
-636.193
-231.367
-259.653
-285.395
-75.2866
-333.179
-172.94
-169.633
-104.573
-9.15983
-162.914
-71.3791
37.7248
-123.736
-3.45811
132.026
-132.095
-4.58336
169.365
-80.7906
2.07513
217.348
-97.4267
1.18302
238.768
-62.7298
0.441092
265.421
-71.8534
0.252415
279.942
-48.8327
0.105264
295.161
-49.5141
0.026265
305.039
-34.4213
0.0246398
313.225
-29.2182
0.0145692
318.472
-18.2563
0.000281895
321.79
-11.4905
-0.0335889
-2.6545
-0.0360158
-1425.09
-336.974
627.142
-677.77
-919.697
-567.556
-635.321
-481.969
49.5432
-401.814
-413.79
-51.0836
-114.87
-314.446
-47.785
-120.963
-186.761
23.2211
83.4388
-355.993
-11.3223
103.52
-146.651
2.83364
183.245
-208.177
-3.6429
207.374
-105.667
0.748343
245.551
-134.987
-0.617273
264.407
-81.7651
0.179643
286.399
-93.7869
-0.0586699
298.93
-61.3981
0.0341752
312.015
-62.5844
-0.0143598
320.355
-42.7743
0.0128213
326.813
-35.669
-0.00662335
330.598
-22.0243
-0.0170157
332.793
-13.664
-0.0213444
-3.07447
-0.0129271
-772.066
381.983
-138.127
-729.672
-536.581
-425.51
-699.732
-284.815
-227.094
-474.586
-286.905
-352.032
-257.304
-383.768
-147.96
-193.067
-195.729
-55.269
103.532
-625.835
-26.7567
75.7416
-126.983
8.12216
183.838
-313.79
-2.48374
195.419
-118.432
1.18352
242.14
-181.764
0.0560994
261.469
-101.371
0.276039
286.545
-118.966
0.102872
301.5
-76.4591
0.105768
314.361
-75.4654
0.0200808
325.204
-53.6274
0.0103855
332.135
-42.61
0.00956961
337.279
-27.159
-0.00894471
339.601
-15.9896
0.00371581
-4.16542
0.00650502
1160.59
864.5
451.359
634.159
76.0244
-86.1727
132.084
-17.9661
235.227
123.318
107.258
-385.397
278.311
-295.112
-243.65
149.825
-66.8677
-0.374364
124.093
-123.093
59.0317
-206.865
-122.04
-207.137
81.4233
-37.1145
21.1824
-13.627
-41.2656
-13.4886
156.121
-69.5925
7.15634
-129.329
-68.9627
-127.759
207.356
-48.8215
0.857694
-36.7851
-48.1498
-36.7682
258.274
-42.7663
-0.660596
-73.4062
-42.9437
-72.9061
285.495
-30.7821
-0.257884
-33.3985
-30.8001
-33.3526
310.36
-25.5345
-0.362329
-46.2875
-25.5692
-46.0775
321.713
-17.4423
-0.20118
-26.2734
-17.4616
-26.433
335.917
-89.6364
-0.0333952
345.245
-62.9917
0.0359216
350.09
-47.5004
0.0456881
352.477
-29.5744
0.0288199
353.736
-17.2264
-0.0225864
-4.47776
-0.0307767
-108.46
280.356
1334.33
269.575
-16.9204
-285.09
505.804
-224.711
-29.4843
718.343
-59.0379
-46.2434
620.848
-374.066
176.449
127.543
-32.1231
136.401
113.787
128.294
115.972
11.1518
-42.4923
-4.55364
58.7079
-84.0717
29.8141
29.3776
1.69772
-74.1592
5.96935
-34.3452
39.357
-76.1321
1.52781
-23.0409
45.7496
-71.791
0.260844
-61.3887
68.4817
-49.8943
0.0349164
-60.0381
71.8177
-42.3095
-0.252183
-74.6041
80.5914
-31.5255
0.00359342
-74.087
81.7421
-25.0752
-0.0222809
345.585
-16.3896
-0.307642
-80.3426
-89.5148
-81.8337
-90.5623
-29.8841
-16.4921
-29.8942
356.254
-73.4491
-0.212101
359.891
-51.0274
-0.109514
363.861
-33.502
-0.0425878
364.764
-18.1388
0.00955991
-5.08104
0.0104307
944.806
-327.596
-1198.94
876.608
-78.3203
129.598
1015.5
-463.294
99.695
1076.47
-198.241
78.2246
164.07
-334.407
342.62
129.152
211.607
189.367
157.496
-45.1443
19.5957
12.9027
-38.3148
29.2123
-9.80412
6.00385
-12.6218
21.4157
13.9038
-23.8485
1.15069
-17.4873
22.1488
19.6299
-23.3767
-0.914769
-16.6884
18.1504
18.5562
-19.6865
-0.331753
-18.4149
12.7962
20.164
-14.5126
-0.032731
-18.3523
9.95739
20.1649
-11.7198
-0.0501434
-19.6887
7.43656
21.2977
-9.05217
0.00657595
-19.871
5.96107
21.4088
-7.47464
-0.0242351
-20.5715
92.1775
-21.1488
-0.0662272
-22.4347
-21.3059
-23.0399
365.958
-74.2641
-0.277243
-87.2702
-93.9032
-88.5937
-95.0988
371.08
-55.8409
-0.30817
375.372
-37.5413
-0.252237
379.064
-21.7056
-0.125252
-6.52555
-0.0226736
1319.98
-882.733
1341.17
1080.6
-120.637
281.7
902.157
-207.589
-77.26
793.418
-280.072
190.569
57.5087
-300.731
497.612
27.8603
110.415
66.3462
66.9785
50.1066
-98.6372
39.061
13.4348
-19.1815
19.551
-16.7406
2.93625
21.8473
-21.0743
20.994
-23.0226
1.25557
21.6462
-21.9009
22.5632
-21.5
-0.808597
18.4081
-23.2542
23.2641
-18.2352
-0.182814
14.999
-22.7459
22.6427
-14.9385
0.0427323
12.1301
-22.4256
22.4993
-12.199
-0.00482648
9.80215
-22.5385
22.6586
-9.9534
0.0311357
8.02832
-22.8449
22.9295
-8.11139
-0.00159107
-22.7448
23.9778
94.8829
-24.3619
-0.0623958
-23.8088
-23.4274
-24.4554
390.252
-73.357
-0.196553
-94.946
-99.2612
-96.1893
-100.566
390.402
-55.8479
-0.142291
392.108
-39.1219
-0.126122
393.206
-22.7399
-0.0632624
-7.39833
-0.0293081
2314.54
-518.579
-645.485
1594.58
-487.451
1086.77
634.388
-200.078
952.686
436.816
-516.61
434.11
85.2998
-359.319
197.306
55.175
91.4748
66.1485
115.689
80.7684
-116.305
5.14761
28.8352
-21.3195
22.2346
-30.4747
0.724442
24.6497
-25.0036
25.6739
-24.6244
-0.695613
20.6346
-27.3591
27.5128
-20.067
-0.721307
17.2129
-27.2305
26.9696
-16.6179
-0.334126
14.5699
-26.1583
25.9822
-14.1864
-0.207398
12.108
-25.3315
25.1852
-11.9518
-0.00978883
10.0311
-25.0806
24.9675
-9.95863
0.0405882
8.13319
-24.8498
24.8404
-8.03914
-0.0846908
-24.2776
25.8035
100.04
-25.4827
-0.013428
-25.2496
-24.9163
-25.9042
407.859
-71.5021
-0.071464
-99.4154
-104.14
-100.66
-105.426
406.652
-54.5409
-0.100034
407.627
-39.9723
-0.125226
408.852
-23.8664
-0.0981955
-8.43244
-0.0480477
-323.976
530.949
-2127.06
-480.745
-848.062
517.381
-327.929
-625.801
272.906
-90.7905
-671.478
-82.2705
-2.22193
-434.999
-150.653
63.7258
5.74729
68.2914
144.213
32.5023
-163.969
-14.9686
40.6736
-27.726
31.3478
-42.0452
-2.25021
24.6506
-33.3724
32.5122
-24.1519
0.361551
17.7223
-31.3868
31.2111
-16.8308
-0.71584
15.0134
-29.6153
29.0343
-14.2156
-0.21676
13.3549
-28.1467
27.9819
-13.164
-0.0261601
11.5431
-27.1902
27.0291
-11.3855
0.00356609
9.75708
-26.7216
26.6744
-9.73032
0.0204536
8.04091
-26.2596
26.1892
-7.97562
0.00505889
-25.7958
25.5284
106.569
-25.1489
-0.00828391
-26.9984
-26.5042
-27.642
424.039
-65.984
-0.370062
-105.776
-107.55
-107.041
-108.82
422.144
-52.3563
-0.289796
422.33
-39.9731
-0.185169
423.301
-24.7814
-0.0561898
-9.19462
-0.00176379
777.59
741.097
230.958
595.148
-784.472
118.852
567.571
-320.515
-277.708
697.655
-406.409
-395.153
837.691
-126.7
-448.336
182.407
-366.89
-298.239
171.96
221.101
169.495
227.918
175.174
179.163
175.602
38.5665
171.59
-106.371
-20.4787
29.3071
40.201
29.5921
24.6541
-125.709
99.6734
-73.1174
3.43539
22.1271
25.7798
23.1566
20.338
-118.823
127.174
-86.1502
2.96541
16.5896
20.79
17.1157
14.6706
-114.253
110.172
-52.4356
0.0835139
13.4495
14.837
13.4762
13.7655
-122.982
125.67
-52.6772
0.0293917
11.1656
13.7951
11.2343
11.5582
-117.595
114.344
-39.44
-0.0733937
9.79232
11.5982
9.8159
10.2594
-118.679
117.87
-35.4433
-0.00781127
7.85449
10.2672
7.87897
8.59722
-113.206
110.949
-28.1269
0.0594384
6.5347
8.62918
6.56391
445.522
-76.6753
-0.384836
27.6421
16.3785
27.5723
16.2052
-112.11
-114.791
-113.266
-116.093
447.588
-67.8164
-0.232679
444.783
-49.4048
-0.14653
443.554
-38.7176
-0.0271993
441.084
-22.3187
0.00781009
-8.66486
-0.00672326
640.741
299.641
-1559.92
130.041
-366.341
92.5686
875.317
58.8148
-1124.61
807.934
170.11
-509.136
965.691
263.253
-547.709
868.936
89.8773
-360.012
831.424
61.826
-145.559
63.6909
-3.54625
64.1099
-3.00946
751.373
-270.732
-29.888
74.449
116.897
73.9056
115.42
640.412
-185.496
57.1362
86.6526
33.3402
84.5401
34.7878
579.32
-258.076
35.7294
63.3452
77.7667
64.4078
77.9186
535.881
-140.496
20.6458
54.9919
26.4336
54.9194
26.9443
510.704
-161.416
6.45208
45.0301
44.8861
45.278
44.9471
493.607
-97.5776
2.47882
36.9009
19.1823
36.8102
19.3021
478.598
-103.77
0.579598
32.5911
26.6222
32.5789
26.4072
471.594
-69.8443
0.172985
466.255
-62.5513
0.0736319
460.675
-43.8537
0.0290666
456.187
-34.2446
0.0143719
453.275
-19.3554
-0.0509315
-7.56895
-0.0528921
1047.39
-571.283
-1479.26
969.226
-222.803
-65.37
1188.1
184.25
-344.307
1257.32
376.204
-275.318
1365.27
327.947
-172.639
1432.07
114.424
-91.3501
1343.26
27.9528
122.681
1095.2
-188.109
165.435
813.146
-89.3374
185.9
655.226
-176.082
75.9252
593.075
-94.8537
16.5085
552.062
-126.287
5.88517
528.13
-75.2846
1.63934
509.545
-85.7192
0.534157
494.878
-55.3087
0.131862
485.463
-53.1711
0.0341883
477.343
-35.7276
-0.00627849
472.372
-29.2635
-0.0102262
468.691
-15.596
-0.0783679
-6.51281
-0.0679655
1675.72
-764.701
268.683
1987.3
-258.314
-276.069
1856.37
163.994
151.185
1858.43
124.847
249.293
1677.96
67.9345
440.487
1549.02
-169.454
412.81
1216.45
-37.3672
397.897
942.662
-135.984
221.66
745.841
-18.758
126.242
643.103
-110.02
36.6756
588.72
-54.7102
14.2397
552.184
-93.2605
3.50886
530.999
-55.4056
1.30585
512.359
-67.4196
0.340227
501.271
-44.3242
0.10373
491.731
-43.6719
0.0397786
485.073
-29.0683
-0.000877876
479.708
-23.8951
-0.00399342
476.68
-12.4903
-0.0766496
-5.23446
-0.0656482
1858.85
-1210.04
1137.37
1662.8
-241.803
179.538
1479.19
198.23
149.379
1415.93
-90.3652
278.469
1050.26
-208.786
642.395
917.422
-302.465
265.845
776.56
-121.13
224.625
698.132
-133.002
75.4464
659.533
-24.0521
43.8929
616.911
-81.2149
13.8171
592.913
-35.5174
4.80505
564.936
-66.726
1.443
547.293
-38.2168
0.453387
529.272
-49.5428
0.144577
516.394
-31.4762
0.0298308
505.221
-32.5155
0.0167708
497.026
-20.8634
-0.00940451
491.033
-17.895
-0.00739378
487.604
-8.98829
-0.073296
-4.04904
-0.0643687
2826.58
104.084
-139.546
2208.05
9.05168
367.675
1403.77
177.504
825.005
1161.56
3.52396
148.315
933.658
-36.1394
55.2594
847.167
-134.671
-81.3026
754.787
-34.7131
5.96267
694.348
-68.9427
-3.62039
653.569
1.92156
14.8047
612.469
-44.4439
4.32904
590.176
-16.6149
3.39076
562.782
-40.2881
0.956528
547.335
-23.2192
0.449473
529.48
-31.8356
0.14795
518.616
-20.6466
0.0342391
507.749
-21.6737
0.0255522
500.93
-14.0395
-0.0051265
495.094
-12.0579
-0.000981899
492.186
-6.01237
-0.0680116
-2.68149
-0.0607554
628.213
669.573
1552.71
589.391
216.786
-168.912
551.631
160.262
55.0018
533.657
35.3726
-13.8741
574.924
21.7474
-99.1537
569.018
-22.4994
-106.266
608.1
6.62937
-80.4243
592.886
-25.744
-27.985
607.633
1.26821
-14.0936
589.182
-23.0225
-2.97082
582.953
-9.10776
-1.27805
563.459
-20.6693
-0.12474
551.95
-11.6368
-0.0738123
536.22
-16.1353
0.0298075
525.74
-10.1739
0.00720952
514.916
-10.8699
0.0201412
507.697
-6.80985
-0.0104306
501.554
-5.90949
-0.00528788
498.344
-2.73403
-0.0680259
-1.27299
-0.0601048
1177.4
-486.019
1644.08
-249.891
1203.6
600.734
893.068
345.909
651.03
263.786
619.734
8.79638
632.657
-6.29386
610.486
-3.57304
615.231
-3.47703
592.446
-0.236869
583.469
-0.131126
562.673
0.127348
551.026
0.00914246
534.835
0.0558225
524.658
0.00357749
513.764
0.0244246
506.959
-0.0055271
501.051
-0.000913691
498.385
-0.0678097
-0.0616557
-1610.45
1498.23
-3220.85
-807.937
-74.5033
-1184.25
-66.8962
-97.4061
-1079.72
300.721
-233.017
-332.235
597.979
-290.77
-66.0926
837.454
-296.551
3.04832
751.368
-95.3235
187.355
608.271
-41.7953
184.343
383.41
91.7315
278.063
301.342
42.1038
174.798
272.731
19.4537
84.1319
268.916
-0.00658965
28.8559
274.454
-8.28142
7.94063
282.751
-8.98525
2.53617
292.107
-9.60376
0.715944
299.594
-7.55106
0.220117
306.13
-6.55517
0.061562
310.291
-4.1656
0.0150735
312.907
-2.63624
-0.0307449
-0.503221
-0.0383511
-1388.04
1291.21
-1458
-934.11
-120.81
-183.502
-247.131
-221.888
-471.506
-299.129
-232.212
8.64599
-281.066
-303.778
-147.794
-184.706
-219.75
-255.036
-35.7302
-86.0071
-224.736
34.1403
-48.8758
-101.834
134.433
9.30535
12.8196
182.238
-1.67943
23.3907
223.33
-21.4505
14.2403
244.803
-22.4252
5.09834
264.065
-27.9907
2.04616
277.242
-22.3167
0.62055
290.31
-22.7355
0.206672
299.217
-16.476
0.0765823
306.897
-14.2405
0.0248445
311.635
-8.90611
0.00288103
314.745
-5.76137
-0.0260346
-1.25167
-0.0332828
-32.0579
-582.405
-648.216
-15.4702
-562.593
345.557
292.787
-377.906
-33.2042
337.433
-274.194
-50.5628
90.3433
-130.285
-103.582
79.516
-189.09
-61.5686
86.1
-80.565
-50.7611
129.324
-76.973
-11.9111
180.073
-42.1111
16.5844
217.696
-41.2916
15.8651
243.058
-48.4704
8.93529
260.358
-40.7531
3.91224
276.717
-44.8423
1.37397
288.386
-34.1541
0.488642
299.795
-34.2144
0.146212
307.796
-24.496
0.0603345
314.541
-20.9943
0.00980482
318.63
-12.9999
-0.007283
321.05
-8.1952
-0.0253833
-1.6545
-0.0276101
-2184.26
-2049.04
1504.92
-1306.16
-1089.84
-1111.58
-1073.12
-580.049
-101.271
-652.295
-368.34
-586.331
-274.839
-110.339
-730.58
-155.875
-180.075
-232.554
-1.67902
-159.01
-147.13
45.0374
-118.458
-8.69022
134.75
-128.965
-7.44241
171.968
-80.43
3.99612
219.661
-97.0421
2.06201
241.256
-62.6349
0.728124
267.944
-71.736
0.458256
282.535
-48.8017
0.161042
297.761
-49.4631
0.0497164
307.672
-34.4122
0.0294951
315.878
-29.2
0.0141617
321.132
-18.2538
0.000639172
324.404
-11.4789
-0.0215564
-2.64803
-0.0295163
-146.84
-1147.57
-563.864
-580.331
-803.694
-420.214
-642.803
-507.169
39.1345
-419.211
-456.764
-186.252
-105.447
-329.48
-142.408
-113.661
-182.795
34.1556
89.1817
-345.622
-27.5528
110.03
-144.44
7.96777
186.995
-204.805
-4.76702
211.079
-104.934
1.16788
248.481
-134.469
-0.592284
267.305
-81.6567
0.376843
289.166
-93.6651
0.00904613
301.718
-61.3848
0.0649613
314.769
-62.5269
-0.00045793
323.117
-42.7618
0.0140532
329.562
-35.6484
-0.00405414
333.318
-22.0145
-0.0121075
335.485
-13.6509
-0.0152922
-3.07097
-0.0142334
-262.191
-220.991
193.088
-569.318
-217.749
-704.327
-606.056
-269.926
-427.599
-436.16
-472.915
-505.775
-199.131
-540.34
-174.13
-168.126
-224.386
-44.6828
109.894
-642.568
-7.83057
83.5509
-124.058
14.0831
186.716
-311.445
0.990658
198.449
-118.215
2.73211
244.628
-181.178
0.585429
264.015
-101.192
0.424279
289.067
-118.722
0.10829
304.082
-76.3707
0.0763106
316.946
-75.3727
0.00239184
327.808
-53.6188
0.00448717
334.773
-42.6111
0.00818721
339.921
-27.166
-0.00581417
342.26
-15.9907
0.00466056
-4.1655
-0.00141498
305.372
1023.32
-8.49173
77.8252
50.7613
-127.136
349.253
-299.583
-6.54445
172.013
-373.284
-307.787
171.036
-586.927
-196.086
58.0544
-128.832
17.0532
110.196
-133.223
58.9672
-213.055
-134.881
-213.486
78.1624
-36.9836
29.4384
-13.3848
-36.2298
-13.6824
159.031
-69.7147
11.2928
-128.62
-69.5208
-128.594
210.517
-48.7472
2.67171
-37.0062
-48.7525
-37.0087
260.844
-43.198
0.663042
-73.2122
-43.2013
-73.2168
288.073
-30.9008
0.160515
-33.5185
-30.9005
-33.5192
312.829
-25.7109
-0.0495088
-46.1822
-25.713
-46.1848
324.328
-17.5107
-0.0481304
-26.5003
-17.5095
-26.5026
338.561
-89.6266
-0.0128399
347.928
-62.9542
0.00513236
352.818
-47.4691
0.0136187
355.218
-29.5442
0.00685708
356.417
-17.1933
-0.0190755
-4.45771
-0.0272121
-89.1173
-146.366
1754.11
83.6848
-495.657
88.5258
233.419
-639.69
160.889
330.104
-528.987
12.7745
341.988
-675.001
252.638
79.9284
-56.201
175.524
68.0451
77.318
65.1351
-3.90923
-56.387
0.104121
-51.1582
42.8875
-95.6889
50.6648
-16.8623
28.5061
4.55483
-73.1527
19.9705
-2.72716
-36.2808
41.7042
-75.9577
3.54671
-0.318322
-25.7731
48.4359
-71.6083
0.516588
-0.233936
-63.7085
70.8509
-50.3343
0.227888
0.0233497
-62.4692
73.9887
-42.4657
0.0220065
-0.0926548
-76.5579
82.5744
-31.7005
0.0657077
-0.0144665
-76.0557
83.7025
-25.1487
0.00552971
348.64
-16.5279
-0.107416
-81.9783
-90.8406
-81.9545
-90.8335
-29.9116
-16.5167
-29.9041
359.011
-73.4661
-0.0710769
362.438
-50.9645
-0.0410722
366.354
-33.4876
-0.0149338
367.296
-18.1303
0.00436309
-5.0728
-0.00430241
1104.71
-1635.58
-2595.26
357.99
-649.262
1029.92
430.015
-864.846
252.826
363.373
-474.974
90.8537
96.8076
-538.577
275.195
78.2966
76.814
42.456
-25.0049
118.771
-77.0313
23.8713
-13.3584
13.8674
-37.5553
33.4241
-9.42439
13.0466
-3.03378
-19.4307
20.4568
20.5277
-22.2682
3.74816
0.649148
-23.1452
21.6553
24.2479
-22.8071
-0.600039
0.259446
-19.0308
18.1732
20.4821
-19.6331
-0.250939
-0.0127524
-19.5951
12.9375
21.3171
-14.6582
0.0114782
0.00123428
-19.3885
10.0431
21.1365
-11.7932
0.00080788
-0.0206431
-20.5781
7.49467
22.2019
-9.11445
0.0166259
-0.00839925
-20.7981
6.00325
22.309
-7.51475
0.00902417
-21.4493
0.0142525
94.073
-21.3148
-0.0268761
-23.1952
-21.4427
-23.1862
369.416
-74.4855
-0.157377
-88.9177
-95.3713
-88.8914
-95.3363
374.145
-55.8573
-0.143519
378.058
-37.5341
-0.118944
381.531
-21.6731
-0.0554125
-6.5078
-0.0220773
2335.85
-1402.39
-147.568
1448.03
-210.066
730.321
555.831
-334.127
284.219
394.788
-407.664
284.301
65.0468
-395.894
585.077
27.8045
49.0643
22.7252
-56.6439
90.009
75.9212
-98.3405
54.1009
-8.47167
17.1013
-24.7778
25.8043
-18.0122
8.35613
-2.25021
20.1406
-26.5064
26.2993
-19.7218
2.03856
0.183665
20.4272
-24.9318
24.9379
-20.6354
0.0185158
0.0425452
18.3019
-24.5414
24.3707
-18.1617
-0.0120823
-0.222591
14.9913
-23.577
23.4481
-14.878
0.238162
0.0323298
12.1195
-23.1088
23.163
-12.1562
-0.0498902
-0.0838169
9.79583
-23.3521
23.5183
-9.92904
0.0508679
-0.0464406
8.05901
-23.7532
23.7984
-8.12609
0.0682616
-23.6134
0.0844774
24.1017
96.7674
-24.424
-0.0716463
-24.6187
-23.5843
-24.6417
393.339
-73.486
-0.0177452
-96.5067
-100.825
-96.4271
-100.758
393.272
-55.891
-0.0418476
394.802
-39.1285
-0.0617894
395.829
-22.7239
-0.0394386
-7.39183
-0.0304137
823.154
-1336.06
1151.45
667.798
-208.055
1240.11
527.185
-110.863
870.036
484.777
-438.855
507.71
75.8708
-329.663
341.003
58.6895
76.6665
63.6219
-18.1965
108.822
75.3725
-111.817
21.6894
-1.82166
26.7389
-22.0058
23.3929
-28.2075
1.90327
0.496466
24.3756
-26.7394
27.6993
-25.1912
-0.640684
0.405756
20.9687
-30.2512
30.2901
-21.0161
-0.397334
0.14367
17.2423
-28.5555
27.7962
-16.6204
-0.00625648
0.894284
14.6114
-26.5248
26.4077
-14.0758
-1.31284
0.137171
12.1522
-26.0191
25.9697
-12.0347
-0.205316
0.094367
10.1687
-25.8451
25.7292
-10.103
-0.0441359
0.0235206
8.13399
-25.4217
25.4008
-8.02477
-0.111876
-25.138
-0.0370493
25.8205
101.824
-25.5153
0.0547817
-26.1421
-24.9438
-25.9226
410.943
-71.4451
0.0165926
-100.891
-105.742
-100.762
-105.678
409.574
-54.5836
-0.0384731
410.38
-40.0085
-0.0512246
411.492
-23.8903
-0.0432183
-8.44987
-0.0348279
-560.977
753.452
-691.553
-274.555
-401.977
424.881
-75.4516
-404.999
367.939
16.4082
-506.741
-106.244
5.44223
-362.85
-232.42
56.8239
11.1104
57.9854
25.8143
129.1
37.1573
-142.5
-44.1294
5.61175
36.0505
-28.9072
32.7694
-37.6454
-7.87897
1.35072
26.2191
-37.1605
37.4933
-25.8151
-2.08754
0.586583
19.817
-35.2918
34.1283
-18.8625
-0.377641
-0.0367188
15.1452
-30.9453
30.1209
-14.3942
0.110094
-0.0121404
13.3092
-28.9799
28.8066
-13.1509
0.0271486
-0.0238215
11.5577
-28.0336
27.8698
-11.3982
0.0281292
-0.0672521
9.78047
-27.5422
27.502
-9.74512
0.0720425
-0.0152536
8.0494
-27.1218
27.0576
-7.98668
0.0166999
-26.6369
0.00367357
25.5653
108.27
-25.0823
-0.0182799
-27.7167
-26.6687
-27.7157
427.187
-65.9686
-0.17043
-107.302
-109.145
-107.285
-109.132
424.87
-52.4134
-0.142279
424.765
-39.998
-0.0908024
425.675
-24.8155
-0.0409087
-9.22692
-0.0219862
1509.48
1188.82
1740.8
1266.64
-543.213
502.926
787.26
-182.808
-20.5183
798.468
-419.319
-493.782
804.195
-213.143
-603.77
168.496
-509.079
-382.88
159.404
210.796
155.093
208.961
163.549
168.497
163.119
36.9202
35.3814
154.338
-98.5665
-47.829
25.649
36.9859
25.6173
23.1705
-0.762021
-114.092
98.3806
-70.5871
-0.96214
20.9416
23.0656
20.8446
19.8987
-3.57151
-120.017
129.049
-82.7686
4.78061
16.3787
19.8792
16.3707
14.6925
-0.995671
-116.422
112.198
-52.6086
1.67192
13.3868
14.69
13.3865
13.7442
-0.657472
-124.532
127.008
-52.5384
0.862363
11.1852
13.743
11.1844
11.5652
-0.16685
-119.091
115.879
-39.5402
0.221253
9.78571
11.564
9.78313
10.2467
-0.077108
-120.101
119.281
-35.4001
0.0886658
7.85817
10.2462
7.85773
8.59802
-0.0759307
-114.695
112.586
-28.1455
0.0559342
6.53962
8.5981
6.53909
448.628
-76.6291
-0.119727
27.5265
16.1999
27.5487
16.2084
-113.539
-116.346
-113.531
-116.332
450.346
-67.8316
-0.0879484
447.294
-49.4383
-0.0702341
446.052
-38.7623
-0.0207252
443.652
-22.3934
-0.0144154
-8.71471
-0.0235412
207.536
-258.574
-899.827
425.119
-848.461
180.234
830.174
-405.598
-1306.87
817.469
-383.563
-532.188
862.976
-251.125
-555.233
707.22
-401.395
-311.939
672.28
-193.266
-64.9827
70.1309
2.45056
71.2404
3.80816
610.228
-407.932
14.2862
84.6873
126.976
85.8472
128.3
575.21
-218.774
74.2304
84.5812
33.5278
85.0944
33.4948
551.56
-259.772
36.1179
63.6239
77.8669
63.6654
77.8763
528.47
-139.368
20.8487
54.6304
26.4922
54.6428
26.49
510.064
-161.154
6.33408
45.0689
44.773
45.0693
44.7665
495.414
-97.6353
2.68012
36.7766
19.2681
36.7721
19.2671
481.171
-103.789
0.664599
32.5647
26.4102
32.5655
26.4058
474.368
-69.8951
0.242562
469.095
-62.5616
0.0755919
463.537
-43.8722
0.0214545
459.047
-34.2634
0.00507642
456.025
-19.3838
-0.0376831
-7.58773
-0.0464858
1984.54
-433.269
-728.936
1376.23
-528.689
223.166
1280.34
-405.408
-248.602
1277.17
-381.55
-274.163
1171.07
-314.347
-3.32147
1097.09
-406.808
-11.9573
998.081
-236.127
264.555
841.622
-295.445
209.407
729.603
-128.597
207.741
643.989
-182.742
84.5097
590.321
-94.5509
25.3593
553.602
-126.37
7.82016
530.628
-75.3664
2.34413
512.386
-85.705
0.692524
497.776
-55.3461
0.192511
488.367
-53.1707
0.0529448
480.23
-35.7448
0.00298805
475.236
-29.274
-0.00609831
471.44
-15.6144
-0.051235
-6.52196
-0.0529594
1139.31
-843.157
-3075.19
1346.28
-405.441
-606.278
1414
-231.131
-90.8197
1550.06
-393.013
124.694
1394.61
-247.407
528.998
1246.45
-325.922
480.092
991.803
-72.5266
488.94
816.433
-148.452
250.036
702.393
-27.4387
139.124
629.297
-113.806
40.8357
587.336
-55.0599
16.7103
553.698
-93.3796
4.15567
533.525
-55.4888
1.60143
515.153
-67.4022
0.410158
504.12
-44.3512
0.141365
494.609
-43.6652
0.0452703
487.943
-29.0835
0.00374302
482.569
-23.9002
-0.00388034
479.431
-12.5022
-0.0509808
-5.23929
-0.0519885
1755.43
-1170.1
60.1284
1306.99
-335.213
557.752
967.318
-137.063
394.986
888.136
-239.874
204.512
773.455
-185.296
694.965
715.805
-195.98
193.553
705.618
-19.5273
181.813
659.014
-89.9435
63.5412
648.612
-10.8135
37.6697
613.828
-78.2022
12.9977
594.091
-35.1919
4.6746
567.332
-66.6444
1.46676
550.07
-38.256
0.482364
532.172
-49.5095
0.150639
519.297
-31.4845
0.0371484
508.133
-32.5012
0.0171822
499.915
-20.8694
-0.00603123
493.907
-17.8938
-0.00578076
490.375
-8.99445
-0.0483178
-4.05033
-0.0507482
1208.11
82.6967
1155.17
809.651
113.78
317.144
697.154
130.98
669.459
677.827
2.7633
-74.9951
809.404
0.20873
-261.823
727.359
-71.4783
-123.758
704.651
36.1504
-27.0076
661.035
-41.4426
-8.50548
643.6
12.8406
8.58636
609.094
-41.9248
2.55738
591.091
-16.28
2.48206
564.891
-40.189
0.701297
549.959
-23.2476
0.372685
532.286
-31.8109
0.12214
521.451
-20.6507
0.0361041
510.616
-21.6626
0.0222845
503.788
-14.0436
-0.00296134
497.953
-12.0575
-0.00196858
494.952
-6.01726
-0.0446249
-2.68215
-0.0483076
810.165
721.594
2924.14
322.689
-29.2947
461.638
284.736
-62.7967
286.731
268.544
-42.6448
47.726
571.554
-19.3405
-382.615
533.596
-43.2025
-96.5833
612.807
6.3552
-129.84
596.009
-25.5879
-27.0409
611.394
1.27718
-17.916
592.529
-22.9921
-3.03861
585.821
-9.24729
-1.60203
566.331
-20.6703
-0.15369
554.761
-11.6575
-0.0939949
539.078
-16.1198
0.0218204
528.606
-10.1755
0.00397949
517.811
-10.863
0.0156432
510.577
-6.81142
-0.0084332
504.427
-5.90808
-0.00470893
501.122
-2.7359
-0.044909
-1.27291
-0.0478334
344.566
-555.559
404.793
-339.412
421.617
521.113
432.607
292.275
625.494
51.558
590.935
0.152095
640.549
-49.5523
614.609
-3.22115
618.981
-6.57157
595.601
0.151043
586.343
-0.120425
565.596
0.204119
553.903
0.0442596
537.779
0.0597034
527.598
0.00892371
516.739
0.0206957
509.926
-0.00403763
504.019
-0.00135917
501.26
-0.0448557
-0.0493787
-358.588
847.244
-2878.35
-343.407
-312.645
-886.785
-222.43
-313.626
-887.068
-55.4462
-320.512
-178.707
204.847
-186.457
-139.928
317.921
-154.431
44.4044
258.002
44.6667
202.607
234.011
46.921
161.413
223.863
89.0536
199.157
245.651
35.5345
117.476
254.199
16.8898
58.6942
263.39
-1.12561
20.7905
272.995
-8.64518
6.98065
282.33
-9.08006
2.28181
291.993
-9.63495
0.687491
299.562
-7.55882
0.209973
306.12
-6.5564
0.0593881
310.286
-4.16522
0.0145405
312.907
-2.63556
-0.0162396
-0.50285
-0.023338
-1483.95
510.494
1373.09
-800.608
-474.05
-705.436
-793.697
-537.055
-254.989
-561.096
-489.457
-55.0096
-311.662
-382.648
-201.037
-230.215
-250.087
-240.827
-55.0903
-83.6413
-271.553
18.7263
-40.5704
-88.1596
126.702
2.40587
-8.50871
178.911
-8.63382
15.3501
222.266
-23.621
11.3968
244.337
-23.2536
5.15568
263.9
-28.2558
2.09285
277.188
-22.3931
0.646143
290.291
-22.7582
0.226531
299.211
-16.4813
0.0790226
306.895
-14.2413
0.0255821
311.635
-8.90584
0.00391977
314.749
-5.76101
-0.0143448
-1.25134
-0.0207905
-24.193
-852.583
870.18
154.472
-427.482
120.324
9.1604
-413.808
-11.1382
24.206
-390.955
-164.111
3.24893
-252.351
-212.921
26.0014
-249.337
-85.0715
72.5758
-116.626
-64.3507
119.477
-88.2749
-11.1077
176.118
-48.9672
11.3166
214.63
-44.9224
13.6415
241.683
-49.687
7.94853
259.742
-41.1195
3.71963
276.51
-45.0062
1.35548
288.311
-34.1981
0.493446
299.77
-34.2285
0.156586
307.789
-24.4997
0.0604383
314.54
-20.9954
0.0129047
318.63
-13.0004
-0.00329371
321.053
-8.19496
-0.0142103
-1.65421
-0.0173856
-293.719
-1150.6
562.945
-831.454
-683.975
-317.353
-454.205
-684.662
-207.666
-461.776
-483.127
-486.587
-207.233
-271.492
-965.983
-158.619
-237.286
-293.218
-2.62939
-196.898
-222.848
42.9282
-129.143
-13.3792
134.361
-136.383
-11.4601
171.329
-82.0072
4.11335
219.515
-97.9234
2.11246
241.167
-62.8585
0.814911
267.924
-71.8247
0.519831
282.529
-48.821
0.179153
297.757
-49.4703
0.0628899
307.672
-34.4145
0.0296322
315.879
-29.2003
0.0123576
321.133
-18.2538
0.00029617
324.406
-11.478
-0.0113443
-2.64779
-0.0180878
585.01
-600.443
26.7624
-79.7759
-785.241
345.838
-313.451
-670.023
258.17
-306.277
-569.651
-106.901
-112.563
-456.71
-150.903
-116.46
-233.248
34.014
84.8475
-376.221
-49.5365
107.472
-149.612
5.81163
185.118
-208.738
-10.0568
210.103
-105.889
0.0641234
247.994
-134.921
-1.48508
267.12
-81.7457
0.137949
289.091
-93.6874
-0.0997061
301.69
-61.388
0.0332399
314.757
-62.53
-0.00790869
323.114
-42.7651
0.0083104
329.562
-35.6502
-0.00293926
333.32
-22.0152
-0.00806403
335.487
-13.6504
-0.0101323
-3.07059
-0.010727
-788.626
316.231
2052.34
-549.894
-636.806
-1091.49
-415.301
-594.091
-638.123
-381.51
-653.162
-456.055
-203.13
-653.738
-155.483
-177.292
-253.9
-49.869
105.452
-662.898
-3.89811
81.0847
-121.075
9.91356
185.265
-312.074
0.146131
197.87
-117.944
2.18184
244.359
-181.108
0.282532
263.935
-101.148
0.25177
289.036
-118.695
0.014099
304.077
-76.3652
0.011989
316.948
-75.3867
-0.0113357
327.813
-53.6243
-0.00163902
334.777
-42.6113
0.00512222
339.925
-27.165
-0.0033326
342.265
-15.9887
0.00257719
-4.16579
-0.00244362
1052.86
759.188
888.001
903.859
-593.546
-21.3949
343.031
-653.809
614.002
146.48
-600.763
-163.634
145.541
-708.882
-140.002
17.1693
-131.805
23.3296
89.6204
-136.658
31.6053
-217.007
-136.837
-217.485
66.2916
-33.845
23.4251
-12.3198
-33.5457
-12.0223
154.884
-69.1424
6.9128
-129.06
-69.0449
-129.039
208.593
-48.7572
2.26824
-36.8745
-48.7407
-36.8764
260.26
-43.179
0.715177
-73.2339
-43.1795
-73.235
287.832
-30.9017
0.263268
-33.5093
-30.9021
-33.5097
312.748
-25.7112
0.138079
-46.1871
-25.7116
-46.1882
324.28
-17.5118
0.0757262
-26.4969
-17.5121
-26.5004
338.533
-89.6363
-0.0155056
347.907
-62.9718
-0.0213947
352.796
-47.4651
-0.0216142
355.193
-29.5331
-0.0229626
356.401
-17.1875
-0.0280044
-4.45742
-0.0257178
469.972
-323.83
2677.24
333.039
-1155.88
787.793
200.309
-1067.82
707.635
156.333
-709.952
165.939
247.292
-757.867
210.665
57.6928
-52.5872
167.043
45.7162
56.6112
44.3211
11.674
-52.249
12.7886
-49.6739
28.442
-97.6646
39.9311
-21.2815
40.1754
0.224392
-70.7604
17.797
-4.00047
-33.7746
40.6627
-75.6039
3.57378
-0.686814
-25.1198
48.0952
-71.7079
0.662101
-0.217189
-63.5933
70.7906
-50.3121
0.153029
-0.0323012
-62.4236
73.9835
-42.4634
0.0341749
-0.0427883
-76.5648
82.5759
-31.7009
0.0213453
-0.00463902
-76.0467
83.6826
-25.145
0.00190185
348.644
-16.5179
-0.00522668
-81.9567
-90.8338
-81.9494
-90.8291
-29.891
-16.5137
-29.8905
359.028
-73.4624
0.0354528
362.441
-50.9604
0.0405751
366.357
-33.4785