/*--------------------------------*- C++ -*----------------------------------*\
  =========                 |
  \\      /  F ield         | OpenFOAM: The Open Source CFD Toolbox
   \\    /   O peration     | Website:  https://openfoam.org
    \\  /    A nd           | Version:  10
     \\/     M anipulation  |
\*---------------------------------------------------------------------------*/
FoamFile
{
    format      ascii;
    class       volScalarField;
    location    "0.3";
    object      turbidity_0;
}
// * * * * * * * * * * * * * * * * * * * * * * * * * * * * * * * * * * * * * //

dimensions      [0 0 0 0 0 0 0];

internalField   nonuniform List<scalar> 
12920
(
-0.0257157
-0.0413161
-0.0527917
-0.0645389
-0.0755102
-0.0849097
-0.096311
-0.109706
-0.123577
-0.136803
-0.14464
-0.147495
-0.148263
-0.14844
-0.148477
-0.148485
-0.148486
-0.148485
-0.14848
-0.148471
-0.0415281
-0.0485861
-0.0709426
-0.088871
-0.0916909
-0.104108
-0.117076
-0.1312
-0.140997
-0.145915
-0.147792
-0.148326
-0.148453
-0.14848
-0.148485
-0.148486
-0.148486
-0.148485
-0.148481
-0.148474
-0.0488306
-0.0692023
-0.0666862
-0.0844189
-0.0910404
-0.114916
-0.129938
-0.141485
-0.145964
-0.1477
-0.148273
-0.148433
-0.148474
-0.148483
-0.148485
-0.148485
-0.148484
-0.148482
-0.14848
-0.148474
-0.0488381
-0.0643828
-0.0761155
-0.0900657
-0.0921452
-0.122297
-0.134545
-0.143933
-0.147047
-0.148049
-0.148349
-0.148445
-0.148473
-0.148482
-0.148484
-0.148485
-0.148485
-0.148484
-0.148482
-0.148474
-0.0523906
-0.0645376
-0.0984645
-0.120895
-0.118257
-0.136769
-0.13984
-0.144148
-0.145785
-0.147286
-0.147905
-0.148264
-0.148393
-0.148452
-0.14847
-0.14848
-0.148481
-0.148479
-0.14848
-0.148476
-0.069489
-0.0566426
-0.0971584
-0.105726
-0.125878
-0.141663
-0.139034
-0.145061
-0.144949
-0.146972
-0.147107
-0.147797
-0.147881
-0.148148
-0.148243
-0.148357
-0.14842
-0.148456
-0.148474
-0.148474
-0.0166279
-0.0447508
-0.0751064
-0.0802649
-0.102091
-0.127683
-0.12511
-0.137013
-0.124328
-0.133273
-0.130202
-0.136349
-0.13596
-0.139608
-0.141696
-0.144484
-0.146363
-0.147529
-0.148103
-0.148344
-0.026845
-0.0486348
-0.0652603
-0.0804857
-0.0961106
-0.117604
-0.109427
-0.0719793
-0.0623095
-0.0334535
-0.0373202
-0.028213
-0.0299034
-0.0266381
-0.054044
-0.0879165
-0.113336
-0.13029
-0.140047
-0.144964
-0.0332779
-0.049527
-0.062604
-0.0756834
-0.0910432
-0.0936963
-0.0980119
-0.0568466
-0.0184521
0.000962169
0.00617445
0.00692373
0.00657917
0.00671777
-0.00115148
-0.0487755
-0.0858117
-0.112777
-0.130211
-0.140058
-0.0147031
-0.0423487
-0.0663714
-0.0867381
-0.106434
-0.0891976
-0.0716552
-0.0340843
-0.00898176
0.00358418
0.00848914
0.00945659
0.00957262
0.00957314
0.00118638
-0.0473816
-0.0844141
-0.111837
-0.129693
-0.139825
-0.0110562
-0.037788
-0.0735362
-0.102404
-0.120135
-0.0955459
-0.0656021
-0.0340355
-0.0125298
0.00199619
0.00812357
0.00940593
0.00952691
0.00949752
0.00122943
-0.0472712
-0.0842992
-0.111725
-0.129597
-0.139756
-0.070596
-0.0688032
-0.0784643
-0.0793379
-0.083843
-0.0734458
-0.0707756
-0.0537189
-0.0228966
-0.000509389
0.00775889
0.00934015
0.00952881
0.00955998
0.000990241
-0.0488729
-0.0856264
-0.112549
-0.130018
-0.139928
-0.0229039
-0.0446733
-0.0515697
-0.0499403
-0.0544494
-0.0706261
-0.0762374
-0.073652
-0.0587935
-0.0356386
-0.0265645
-0.0196942
-0.018127
-0.0167078
-0.0568431
-0.0893284
-0.113777
-0.130311
-0.139928
-0.144858
-0.0614153
-0.0461976
-0.0318412
-0.0414728
-0.0538483
-0.0720097
-0.0991014
-0.122936
-0.133613
-0.140555
-0.140872
-0.143054
-0.142537
-0.143776
-0.144912
-0.146254
-0.147262
-0.147904
-0.148232
-0.148377
-0.0319433
-0.0468177
-0.0468181
-0.0533374
-0.0652901
-0.0803728
-0.0967881
-0.114843
-0.132017
-0.142929
-0.146856
-0.148006
-0.148266
-0.148372
-0.14841
-0.148442
-0.148461
-0.148472
-0.14847
-0.148467
-0.021409
-0.0331168
-0.045788
-0.0589365
-0.0728107
-0.0913372
-0.110883
-0.131301
-0.142639
-0.147038
-0.148159
-0.148415
-0.148469
-0.148482
-0.148485
-0.148486
-0.148485
-0.148484
-0.148474
-0.148468
-0.0271169
-0.0415142
-0.0534803
-0.0688673
-0.088257
-0.11379
-0.131182
-0.141873
-0.146196
-0.147792
-0.148293
-0.148436
-0.148474
-0.148484
-0.148486
-0.148486
-0.148485
-0.148484
-0.148475
-0.148469
-0.015573
-0.037635
-0.0594218
-0.0756685
-0.0956569
-0.110643
-0.131409
-0.141884
-0.146296
-0.147818
-0.148301
-0.148438
-0.148475
-0.148484
-0.148486
-0.148486
-0.148485
-0.148485
-0.148476
-0.14847
-0.0197133
-0.0349143
-0.0613382
-0.0800787
-0.0955992
-0.110183
-0.126919
-0.13865
-0.144599
-0.147257
-0.148105
-0.1484
-0.148463
-0.148482
-0.148484
-0.148486
-0.148484
-0.148484
-0.148476
-0.14847
-0.0145358
-0.027434
-0.050392
-0.0936748
-0.123822
-0.138844
-0.143895
-0.146498
-0.147605
-0.148242
-0.148416
-0.14847
-0.148481
-0.148485
-0.148485
-0.148486
-0.148485
-0.148485
-0.148477
-0.14847
-0.00314497
-0.00455723
-0.00599906
-0.00788048
-0.00930309
-0.010642
-0.0142711
-0.0220469
-0.0368667
-0.0353237
-0.0200177
-0.00836711
-0.00278712
-0.000883389
-0.00025779
-7.84074e-05
-2.7077e-05
-1.3249e-05
-9.89362e-06
-1.09244e-05
-0.0147803
-0.0142911
-0.0135247
-0.00891612
-0.00406319
-0.0029992
-0.0056428
-0.00771175
-0.0130057
-0.00904843
-0.00427114
-0.00158352
-0.000548212
-0.000182158
-5.95234e-05
-2.44916e-05
-1.29516e-05
-9.25596e-06
-9.32196e-06
-1.13194e-05
-0.0207998
-0.0139916
-0.0101218
-0.00653676
-0.00357636
-0.00200879
-0.00248147
-0.00387672
-0.00520742
-0.00380596
-0.00196611
-0.000860011
-0.000322221
-0.000120142
-4.11048e-05
-1.95979e-05
-1.03815e-05
-7.92742e-06
-9.03528e-06
-1.15564e-05
-0.0288607
-0.0114524
-0.00430078
-0.00184249
-0.00108064
-0.000720591
-0.000789602
-0.000876329
-0.000751497
-0.000621922
-0.000352363
-0.000180808
-7.99895e-05
-3.73399e-05
-1.64729e-05
-1.18173e-05
-1.0236e-05
-8.76572e-06
-9.45735e-06
-1.17163e-05
-0.014685
-0.00708518
-0.00642482
-0.00436726
-0.00197417
-0.00422815
-0.00125223
-0.000724048
-0.000215428
-0.000120717
-4.21616e-05
-2.93862e-05
-1.35787e-05
-1.26666e-05
-8.32076e-06
-8.64522e-06
-7.0285e-06
-6.55035e-06
-9.08553e-06
-1.33581e-05
-0.0158313
-0.0113535
-0.0145624
-0.0122021
-0.0130986
-0.00690556
-0.0071242
-0.00293185
-0.000876771
-0.000382644
-0.000142802
-8.51742e-05
-5.20014e-05
-3.54418e-05
-1.81826e-05
-1.10016e-05
-8.57354e-06
-7.33091e-06
-1.21805e-05
-1.62983e-05
-0.0218371
-0.0141924
-0.017286
-0.0189639
-0.031859
-0.029821
-0.0231576
-0.00944148
-0.00266058
-0.000697039
-0.000153456
-4.15135e-05
-1.50221e-05
-8.48796e-06
-1.10186e-05
-1.65821e-05
-1.81549e-05
-1.57777e-05
-1.52913e-05
-1.64906e-05
-0.00961065
-0.0118142
-0.018055
-0.0292598
-0.0484891
-0.0444854
-0.048226
-0.0101904
-0.00216367
-0.000307082
-0.000112725
-3.32927e-05
-1.90459e-05
-1.08055e-05
-1.94225e-06
-3.49705e-06
-5.77198e-06
-9.13868e-06
-2.16341e-05
-2.57929e-05
-0.00271604
-0.0113651
-0.0235231
-0.0306898
-0.0492092
-0.0471796
-0.053472
-0.0176226
-0.000923277
-7.53964e-05
-8.33585e-06
-1.88347e-06
-4.95259e-07
-2.12789e-07
-2.36219e-07
-1.0548e-06
-3.52178e-06
-8.32021e-06
-1.77099e-05
-2.86656e-05
-0.0051329
-0.014814
-0.0277933
-0.0456101
-0.0606044
-0.0550767
-0.0419065
-0.0154274
-0.0023021
-0.000234144
-2.05621e-05
-1.21739e-06
-5.36624e-08
-1.75496e-09
-3.38546e-10
-9.34586e-07
-2.69157e-06
-5.13403e-06
-9.9056e-06
-1.585e-05
-0.00830142
-0.0309999
-0.0369929
-0.0397061
-0.0293332
-0.0186834
-0.00800034
-0.0015746
-0.000270037
-3.49104e-05
-6.54295e-06
-9.13766e-07
-3.96914e-08
-9.61109e-10
-5.9654e-11
-9.40406e-07
-2.49494e-06
-4.37481e-06
-7.45638e-06
-1.32296e-05
-0.0242257
-0.0305695
-0.0167788
-0.00373872
-0.00229911
-0.00198285
-0.00218149
-0.00117129
-0.000397423
-0.000150267
-2.07088e-05
-1.60024e-06
-7.6904e-08
-3.73778e-09
-2.99098e-08
-1.15182e-06
-3.55352e-06
-8.52571e-06
-2.19831e-05
-3.23919e-05
-0.0130835
-0.0125904
-0.00684688
-0.00336435
-0.00191475
-0.00552299
-0.00521804
-0.00717184
-0.00501913
-0.00138127
-0.000461189
-9.01339e-05
-2.14517e-05
-5.22173e-06
-4.76646e-06
-4.23232e-06
-6.80396e-06
-1.33051e-05
-2.3871e-05
-2.53894e-05
-0.0177191
-0.0105795
-0.00656496
-0.00710767
-0.00920927
-0.0174514
-0.0224674
-0.0265049
-0.0229085
-0.0134363
-0.00644561
-0.00245281
-0.000862686
-0.000242878
-7.83058e-05
-3.08497e-05
-1.50422e-05
-1.20201e-05
-9.73205e-06
-1.04557e-05
-0.0182667
-0.0146018
-0.0149467
-0.0196174
-0.0260561
-0.0361042
-0.0475648
-0.0484739
-0.038132
-0.0195934
-0.00749209
-0.0025549
-0.000815261
-0.000255953
-7.65456e-05
-2.454e-05
-1.02635e-05
-7.25092e-06
-6.90667e-06
-8.51623e-06
-0.00334549
-0.0101462
-0.0232114
-0.0358856
-0.0493906
-0.0588368
-0.0619959
-0.0453006
-0.0266932
-0.0107595
-0.00411122
-0.0013572
-0.000464009
-0.000151285
-5.06196e-05
-2.06505e-05
-9.76825e-06
-7.28192e-06
-6.76883e-06
-8.379e-06
-0.00476914
-0.0109849
-0.0252414
-0.0372945
-0.0581953
-0.0532114
-0.0478314
-0.0282103
-0.0153606
-0.00657091
-0.00255044
-0.000891897
-0.00029701
-9.99831e-05
-3.33203e-05
-1.45934e-05
-8.10527e-06
-6.76068e-06
-6.70419e-06
-8.43021e-06
-0.00081455
-0.0222056
-0.0262297
-0.00752809
-0.00919705
-0.0109153
-0.0177097
-0.0119882
-0.00867904
-0.00423223
-0.00197626
-0.000766603
-0.000284098
-0.000101792
-3.47708e-05
-1.64706e-05
-8.95316e-06
-7.4976e-06
-7.05146e-06
-8.67973e-06
-0.00165118
-0.0131419
-0.0241026
-0.00530282
-0.00231919
-0.00207764
-0.00276002
-0.00162565
-0.00111237
-0.000478456
-0.000214631
-8.82854e-05
-3.78165e-05
-2.2845e-05
-1.24858e-05
-1.03743e-05
-7.27164e-06
-6.71896e-06
-6.80866e-06
-8.60628e-06
-0.00588566
-0.0193055
-0.0426194
-0.036821
-0.0322478
-0.0104944
-0.00323517
-0.00121379
-0.000500989
-0.000230708
-0.000116031
-7.53777e-05
-3.61653e-05
-2.58293e-05
-1.34228e-05
-1.17253e-05
-7.90955e-06
-7.23601e-06
-7.00625e-06
-8.75957e-06
-0.00155473
-0.00254397
-0.00272962
-0.00321393
-0.00478837
-0.00666976
-0.00980143
-0.0121295
-0.0131513
-0.00806868
-0.00296687
-0.000807136
-0.000183348
-3.77113e-05
-7.16428e-06
-1.27806e-06
-2.1492e-07
-3.44695e-08
-5.49691e-09
-1.19382e-09
-0.00345585
-0.0054125
-0.00536438
-0.00238968
-0.00121476
-0.00128933
-0.00256812
-0.00252751
-0.00214254
-0.000966138
-0.000297919
-7.16134e-05
-1.49339e-05
-2.84887e-06
-4.99646e-07
-8.29295e-08
-1.32228e-08
-2.20956e-09
-6.19159e-10
-5.24454e-10
-0.00433378
-0.00810461
-0.00491249
-0.00238701
-0.00112621
-0.00056885
-0.000518158
-0.000409117
-0.000305406
-0.000140551
-4.47712e-05
-1.17132e-05
-2.60809e-06
-5.36435e-07
-1.02442e-07
-1.91814e-08
-3.57849e-09
-8.00736e-10
-4.24155e-10
-5.16745e-10
-0.0230424
-0.00824227
-0.0026087
-0.00185178
-0.00129314
-0.000411149
-0.000147406
-6.81293e-05
-3.17984e-05
-1.31021e-05
-3.95479e-06
-1.05026e-06
-2.3778e-07
-5.07356e-08
-1.01299e-08
-2.23588e-09
-7.11847e-10
-3.6438e-10
-3.74872e-10
-5.24718e-10
-0.00342905
-0.00402285
-0.00356443
-0.00220037
-0.00117152
-0.000586656
-0.00025611
-8.91002e-05
-3.15144e-05
-1.03426e-05
-3.0679e-06
-8.44585e-07
-2.12213e-07
-5.0437e-08
-1.12169e-08
-2.56272e-09
-6.60782e-10
-2.74365e-10
-3.54168e-10
-6.50879e-10
-0.00807866
-0.0052791
-0.00478821
-0.00464061
-0.0042292
-0.00144444
-0.00116185
-0.000270867
-6.81562e-05
-1.57891e-05
-3.67587e-06
-8.35403e-07
-1.85572e-07
-4.07804e-08
-8.61577e-09
-1.94516e-09
-5.99016e-10
-2.9753e-10
-5.79612e-10
-9.19068e-10
-0.0105663
-0.00822155
-0.00807796
-0.0108249
-0.0137565
-0.00843171
-0.00410521
-0.00113788
-0.000230012
-4.90692e-05
-9.70519e-06
-1.92747e-06
-3.57553e-07
-6.46646e-08
-1.13677e-08
-2.42649e-09
-1.02178e-09
-6.97478e-10
-7.97088e-10
-9.28177e-10
-0.00504147
-0.00794145
-0.0140896
-0.0185042
-0.0253788
-0.0158502
-0.0115295
-0.000878689
-0.000151918
-1.35629e-05
-2.47337e-06
-2.60891e-07
-4.07262e-08
-4.29032e-09
-2.31066e-10
-1.70153e-10
-3.05144e-10
-5.51185e-10
-1.73295e-09
-2.09036e-09
-0.00251875
-0.0077663
-0.0127987
-0.0154623
-0.0207667
-0.0154945
-0.013758
-0.00226579
-0.000178031
-1.73112e-05
-9.27448e-07
-3.98573e-08
-2.10225e-09
-1.28163e-10
-6.13632e-12
-1.90258e-11
-1.8222e-10
-6.29839e-10
-1.78923e-09
-3.03446e-09
-0.00446514
-0.0124377
-0.0184792
-0.0250931
-0.0279627
-0.0173128
-0.00796466
-0.00152034
-0.000256357
-1.9333e-05
-8.35758e-07
-2.53362e-08
-6.40023e-10
-1.19481e-11
-8.68648e-14
-1.56573e-11
-8.12536e-11
-2.09908e-10
-5.02149e-10
-9.07774e-10
-0.00813957
-0.0214522
-0.018078
-0.0175475
-0.00998693
-0.00420618
-0.00108732
-0.000196667
-3.17567e-05
-3.00656e-06
-1.89748e-07
-9.70724e-09
-3.03517e-10
-6.5157e-12
-3.4106e-14
-1.62451e-11
-6.54248e-11
-1.50362e-10
-3.6203e-10
-7.40003e-10
-0.0151889
-0.0188395
-0.00807096
-0.00311388
-0.00152411
-0.000945677
-0.000771481
-0.000326172
-8.86371e-05
-8.29612e-06
-3.55892e-07
-1.02496e-08
-2.31774e-10
-4.7069e-12
-7.7517e-12
-5.01752e-11
-1.68794e-10
-5.81157e-10
-1.9409e-09
-3.08912e-09
-0.0101631
-0.0138155
-0.010646
-0.00484625
-0.00196432
-0.00318255
-0.00205004
-0.000737851
-0.000531448
-8.64465e-05
-2.06913e-05
-2.31034e-06
-3.40758e-07
-3.05964e-08
-1.89025e-08
-3.13613e-09
-7.90329e-10
-9.02429e-10
-1.66362e-09
-1.84547e-09
-0.00770277
-0.0101196
-0.00793382
-0.00719062
-0.00833199
-0.0109254
-0.00812926
-0.00715862
-0.00390998
-0.00150262
-0.00043838
-0.000105078
-2.20378e-05
-4.18069e-06
-7.34801e-07
-1.22074e-07
-1.9434e-08
-3.21454e-09
-7.35149e-10
-4.36507e-10
-0.0055723
-0.00784925
-0.00936987
-0.0160195
-0.0234802
-0.0251304
-0.0264962
-0.0190338
-0.0100947
-0.00335587
-0.000840727
-0.000174769
-3.26185e-05
-5.63924e-06
-9.28969e-07
-1.47107e-07
-2.27886e-08
-3.57522e-09
-6.94333e-10
-3.42077e-10
-0.000895857
-0.00502858
-0.0116366
-0.0215586
-0.0346169
-0.0349603
-0.0292746
-0.013913
-0.00502713
-0.0012528
-0.000273758
-5.32748e-05
-9.99122e-06
-1.81957e-06
-3.24222e-07
-5.67719e-08
-9.76757e-09
-1.7585e-09
-4.36494e-10
-2.98688e-10
-0.00414028
-0.0118364
-0.0190548
-0.0193395
-0.0337753
-0.0204411
-0.0137023
-0.00567661
-0.00206464
-0.00060114
-0.000154392
-3.57875e-05
-7.68094e-06
-1.54751e-06
-2.94833e-07
-5.36149e-08
-9.41573e-09
-1.70817e-09
-4.30464e-10
-2.99828e-10
-0.000636581
-0.0104291
-0.00620304
-0.0016328
-0.00102471
-0.00103286
-0.0016911
-0.000816127
-0.000428207
-0.00014785
-4.65112e-05
-1.25269e-05
-3.08239e-06
-6.96878e-07
-1.4647e-07
-2.91389e-08
-5.56424e-09
-1.14902e-09
-3.60427e-10
-3.01251e-10
-0.00271455
-0.00812148
-0.0104684
-0.0032405
-0.00102573
-0.000352383
-0.000227519
-9.18308e-05
-4.52451e-05
-1.43236e-05
-4.45923e-06
-1.16894e-06
-2.85874e-07
-6.43823e-08
-1.36115e-08
-2.9199e-09
-6.86706e-10
-2.72847e-10
-2.07956e-10
-2.72811e-10
-0.00512062
-0.00732691
-0.0228663
-0.0118027
-0.00335438
-0.000916615
-0.000245903
-6.69625e-05
-1.74848e-05
-4.38357e-06
-1.04935e-06
-2.48636e-07
-5.54768e-08
-1.29019e-08
-2.91188e-09
-9.29786e-10
-3.48231e-10
-2.35014e-10
-2.07692e-10
-2.79303e-10
-0.00150863
-0.00207196
-0.00157062
-0.00148979
-0.00210516
-0.00279969
-0.0037484
-0.00319522
-0.00246073
-0.00106529
-0.000305
-6.91212e-05
-1.38145e-05
-2.55921e-06
-4.45225e-07
-7.33007e-08
-1.14125e-08
-1.68648e-09
-2.36819e-10
-3.17453e-11
-0.00393961
-0.00458137
-0.00343
-0.00145257
-0.000812593
-0.000554659
-0.000654547
-0.000393426
-0.000235144
-8.59454e-05
-2.2883e-05
-4.93224e-06
-9.37337e-07
-1.64695e-07
-2.67389e-08
-4.091e-09
-5.8911e-10
-8.04971e-11
-1.04541e-11
-1.30789e-12
-0.00354197
-0.00437752
-0.00404863
-0.00263896
-0.00146181
-0.000593303
-0.000234636
-9.33591e-05
-3.77245e-05
-1.25535e-05
-3.30452e-06
-7.5703e-07
-1.53227e-07
-2.87109e-08
-5.0052e-09
-8.24776e-10
-1.28874e-10
-1.92278e-11
-2.75257e-12
-3.89718e-13
-0.00364748
-0.0026189
-0.00199957
-0.00211756
-0.00190687
-0.000797108
-0.000231089
-6.59653e-05
-1.94408e-05
-5.57227e-06
-1.50891e-06
-3.6691e-07
-8.47149e-08
-1.76422e-08
-3.48556e-09
-6.33701e-10
-1.0894e-10
-1.75167e-11
-2.67854e-12
-3.98897e-13
-0.00644717
-0.00215458
-0.00160884
-0.00121543
-0.000884558
-0.000583619
-0.00032471
-0.000165274
-6.80334e-05
-2.48575e-05
-7.77717e-06
-2.2053e-06
-5.55218e-07
-1.28565e-07
-2.71061e-08
-5.31985e-09
-9.71267e-10
-1.66304e-10
-2.67728e-11
-4.08835e-12
-0.00803921
-0.00223599
-0.0011594
-0.00101917
-0.000837149
-0.000317197
-0.00021701
-5.67733e-05
-1.55689e-05
-4.5643e-06
-1.17248e-06
-2.9428e-07
-6.51548e-08
-1.36192e-08
-2.59675e-09
-4.63691e-10
-7.77115e-11
-1.23055e-11
-1.85904e-12
-2.90398e-13
-0.0118554
-0.00385545
-0.00467082
-0.00342378
-0.0032877
-0.00179564
-0.000785427
-0.000193623
-3.72934e-05
-7.80996e-06
-1.5116e-06
-2.91981e-07
-5.20887e-08
-8.93895e-09
-1.43166e-09
-2.21087e-10
-3.29527e-11
-4.76849e-12
-6.85766e-13
-1.15468e-13
-0.00822652
-0.00767034
-0.009327
-0.0096109
-0.00963395
-0.00507664
-0.00272371
-0.000153169
-2.53278e-05
-2.35257e-06
-3.82283e-07
-3.57569e-08
-5.07267e-09
-4.61983e-10
-2.05851e-11
-3.28656e-12
-5.39408e-13
-1.13493e-13
-6.77307e-14
-6.18491e-14
-0.00946314
-0.00570182
-0.00711547
-0.00601764
-0.00559749
-0.00466583
-0.00337697
-0.000473359
-4.59346e-05
-3.72514e-06
-1.65485e-07
-5.88359e-09
-2.42586e-10
-1.08656e-11
-2.48296e-13
-1.29475e-14
-3.59202e-14
-8.99075e-14
-1.30009e-13
-1.16996e-13
-0.00730818
-0.0097963
-0.00964469
-0.00956657
-0.00766198
-0.0040379
-0.0015426
-0.000250977
-2.204e-05
-1.32995e-06
-4.40829e-08
-1.05532e-09
-1.76974e-11
-2.30409e-13
-1.1167e-15
-4.29285e-16
-5.13301e-15
-1.10434e-14
-1.91332e-14
-2.70511e-14
-0.00289332
-0.00945826
-0.00837444
-0.00693988
-0.00304109
-0.00116482
-0.000273866
-4.90284e-05
-6.4138e-06
-4.58701e-07
-2.06305e-08
-6.52144e-10
-1.40094e-11
-2.1155e-13
-9.66248e-16
-1.02725e-14
-8.77367e-15
-1.94811e-14
-2.74098e-14
-2.85585e-14
-0.00427166
-0.00885187
-0.00503371
-0.00236325
-0.00100613
-0.0006176
-0.000460021
-0.000209339
-5.1197e-05
-3.89031e-06
-1.13343e-07
-1.88029e-09
-2.31655e-11
-3.02958e-13
-4.94559e-13
-1.88434e-12
-2.8883e-13
-8.27795e-14
-6.91602e-14
-8.43996e-14
-0.00453915
-0.00643491
-0.00452972
-0.00230195
-0.00123971
-0.00162196
-0.000885793
-0.000172539
-9.30903e-05
-1.1548e-05
-2.19492e-06
-2.16651e-07
-2.82004e-08
-2.30655e-09
-1.36424e-09
-2.08363e-10
-2.88827e-11
-3.95322e-12
-5.25644e-13
-1.01023e-13
-0.00578506
-0.00759897
-0.00531092
-0.0041547
-0.00493037
-0.00504813
-0.0025191
-0.00175011
-0.000646169
-0.000194826
-4.57275e-05
-9.69654e-06
-1.84489e-06
-3.30915e-07
-5.5261e-08
-8.73384e-09
-1.30578e-09
-1.84667e-10
-2.47287e-11
-3.15341e-12
-0.00690809
-0.00484329
-0.00417911
-0.00806248
-0.0154624
-0.0121538
-0.0107274
-0.00569821
-0.00223848
-0.000601555
-0.000130133
-2.4149e-05
-4.09486e-06
-6.49513e-07
-9.88814e-08
-1.45297e-08
-2.08822e-09
-2.93323e-10
-4.04331e-11
-5.45744e-12
-0.00129102
-0.00212792
-0.00344221
-0.00749073
-0.0181073
-0.0147584
-0.00956879
-0.00333894
-0.000902011
-0.000184547
-3.40583e-05
-5.82088e-06
-9.64113e-07
-1.56157e-07
-2.46776e-08
-3.80716e-09
-5.69434e-10
-8.23604e-11
-1.14744e-11
-1.54393e-12
-0.00248704
-0.00317088
-0.00350686
-0.00377055
-0.0119892
-0.00505384
-0.00286847
-0.000966812
-0.000295097
-7.51128e-05
-1.73653e-05
-3.69473e-06
-7.37954e-07
-1.39334e-07
-2.5051e-08
-4.2982e-09
-7.06653e-10
-1.11408e-10
-1.6888e-11
-2.46723e-12
-0.00232354
-0.00382142
-0.00256033
-0.0013647
-0.000648472
-0.000325586
-0.000285328
-9.27796e-05
-3.38964e-05
-8.83722e-06
-2.25765e-06
-5.09915e-07
-1.08894e-07
-2.17245e-08
-4.09179e-09
-7.28655e-10
-1.22876e-10
-1.96752e-11
-2.99911e-12
-4.40581e-13
-0.00331963
-0.00595177
-0.00449237
-0.0024053
-0.00111029
-0.000331056
-8.99456e-05
-2.01414e-05
-4.88073e-06
-1.02721e-06
-2.24655e-07
-4.60575e-08
-9.26971e-09
-1.77895e-09
-3.25785e-10
-5.67347e-11
-9.3781e-12
-1.47693e-12
-2.24394e-13
-3.70002e-14
-0.00191803
-0.00596465
-0.00959391
-0.00331712
-0.00100066
-0.000320567
-9.41401e-05
-2.37973e-05
-5.54522e-06
-1.23981e-06
-2.55294e-07
-4.95018e-08
-8.85372e-09
-1.48476e-09
-2.32278e-10
-3.43314e-11
-4.80619e-12
-6.46586e-13
-8.67992e-14
-1.60103e-14
-0.000791957
-0.000629881
-0.000567385
-0.000635933
-0.000744161
-0.000828616
-0.000625572
-0.000339841
-0.000155111
-5.48516e-05
-1.34381e-05
-2.69364e-06
-4.8037e-07
-7.98675e-08
-1.25354e-08
-1.87353e-09
-2.66406e-10
-3.61332e-11
-4.67319e-12
-5.78076e-13
-0.00367871
-0.00126935
-0.0010899
-0.000697
-0.00047439
-0.000334421
-0.000208138
-7.86805e-05
-2.49086e-05
-6.24203e-06
-1.33948e-06
-2.51018e-07
-4.2299e-08
-6.6447e-09
-9.70636e-10
-1.3417e-10
-1.75404e-11
-2.18467e-12
-2.59431e-13
-2.95186e-14
-0.00195455
-0.00176189
-0.00162003
-0.00103762
-0.000462938
-0.000168882
-6.07659e-05
-1.93101e-05
-5.40577e-06
-1.31949e-06
-2.80304e-07
-5.41029e-08
-9.51182e-09
-1.57072e-09
-2.45004e-10
-3.66106e-11
-5.26071e-12
-7.31225e-13
-9.85567e-14
-1.29251e-14
-0.00245447
-0.00122477
-0.00117334
-0.00176138
-0.00206771
-0.00108288
-0.00026073
-4.59273e-05
-7.67034e-06
-1.37353e-06
-2.39077e-07
-4.1812e-08
-7.31479e-09
-1.25535e-09
-2.15999e-10
-3.59499e-11
-5.85371e-12
-9.11794e-13
-1.36729e-13
-1.955e-14
-0.00199161
-0.00154917
-0.00141703
-0.00106849
-0.000788907
-0.00027674
-6.8897e-05
-2.27463e-05
-6.6823e-06
-2.01652e-06
-5.53192e-07
-1.43936e-07
-3.41715e-08
-7.60755e-09
-1.56355e-09
-3.02213e-10
-5.47584e-11
-9.35772e-12
-1.50944e-12
-2.30753e-13
-0.0128081
-0.00515182
-0.00106275
-0.000386041
-0.000177576
-5.2921e-05
-2.05954e-05
-5.25653e-06
-1.33456e-06
-3.59136e-07
-8.64266e-08
-2.0487e-08
-4.38745e-09
-8.96174e-10
-1.69276e-10
-3.01988e-11
-5.0942e-12
-8.16059e-13
-1.24272e-13
-1.80191e-14
-0.0194713
-0.00629689
-0.00222773
-0.00103088
-0.000512024
-0.000168048
-6.9211e-05
-1.60783e-05
-3.04512e-06
-6.26753e-07
-1.20516e-07
-2.31061e-08
-4.10464e-09
-7.01988e-10
-1.12217e-10
-1.73457e-11
-2.59581e-12
-3.77664e-13
-5.35299e-14
-7.41634e-15
-0.00535018
-0.00516592
-0.00463492
-0.00276526
-0.00131145
-0.000651191
-0.000337751
-1.96322e-05
-2.7108e-06
-2.46756e-07
-3.5073e-08
-3.16145e-09
-4.18441e-10
-3.71764e-11
-1.59293e-12
-2.54462e-13
-3.96692e-14
-6.12762e-15
-9.20979e-16
-1.31917e-16
-0.0061944
-0.00473525
-0.00350792
-0.00186874
-0.000742832
-0.000417215
-0.000441385
-9.03309e-05
-1.1683e-05
-8.71439e-07
-3.00541e-08
-7.9489e-10
-2.43868e-11
-9.32206e-13
-1.95363e-14
-8.88861e-16
-1.85821e-16
-5.59504e-17
-2.20465e-17
-6.35405e-18
-0.00387585
-0.00403216
-0.00215855
-0.00167682
-0.000988506
-0.000482204
-0.000199938
-5.56255e-05
-3.60466e-06
-1.77857e-07
-5.56343e-09
-1.16768e-10
-1.71644e-12
-1.79552e-14
-9.11303e-17
-7.32927e-18
-2.08685e-18
-1.79253e-18
-1.12343e-18
-6.72597e-19
-0.00256042
-0.00368442
-0.00215396
-0.00172675
-0.000643755
-0.000310942
-9.52247e-05
-2.13643e-05
-3.99005e-06
-4.53216e-07
-2.64499e-08
-8.93312e-10
-1.84752e-11
-2.46367e-13
-1.19017e-15
-8.08876e-16
-1.25535e-16
-1.87575e-17
-4.29738e-18
-1.36967e-18
-0.00409107
-0.00331274
-0.00191731
-0.00136628
-0.000757711
-0.000387454
-0.000211338
-5.93637e-05
-1.34088e-05
-9.13904e-07
-2.3644e-08
-3.72297e-10
-4.49864e-12
-4.80469e-14
-3.90674e-14
-1.56397e-13
-2.19987e-14
-2.89261e-15
-3.34095e-16
-3.45121e-17
-0.00193935
-0.00289327
-0.00231843
-0.00159285
-0.00108994
-0.000780643
-0.000423982
-5.22177e-05
-1.21563e-05
-1.20143e-06
-1.92391e-07
-1.66899e-08
-2.11121e-09
-1.64221e-10
-1.14592e-10
-1.7382e-11
-2.39119e-12
-3.22528e-13
-3.93223e-14
-4.41209e-15
-0.00206739
-0.00408669
-0.00227928
-0.0014474
-0.0016899
-0.00148259
-0.000551028
-0.000285188
-8.06999e-05
-2.10677e-05
-4.42322e-06
-8.89443e-07
-1.62654e-07
-2.85985e-08
-4.70292e-09
-7.36132e-10
-1.09214e-10
-1.53526e-11
-2.04295e-12
-2.5818e-13
-0.00356815
-0.00296791
-0.00235914
-0.00257461
-0.00587023
-0.00370679
-0.00245868
-0.00104365
-0.000333916
-8.00116e-05
-1.61296e-05
-2.85937e-06
-4.69388e-07
-7.26978e-08
-1.0882e-08
-1.58031e-09
-2.25298e-10
-3.14378e-11
-4.30381e-12
-5.75497e-13
-0.00183383
-0.00196343
-0.0030878
-0.00324849
-0.00656193
-0.00379584
-0.00178521
-0.000502869
-0.00011486
-2.1181e-05
-3.61115e-06
-5.77951e-07
-9.01302e-08
-1.37664e-08
-2.05676e-09
-3.00549e-10
-4.26812e-11
-5.87171e-12
-7.79099e-13
-9.96581e-14
-0.000845849
-0.00112284
-0.000883763
-0.000734672
-0.00281648
-0.000897136
-0.000389957
-0.000110565
-2.96644e-05
-6.85231e-06
-1.46846e-06
-2.94183e-07
-5.6039e-08
-1.02034e-08
-1.78554e-09
-3.00315e-10
-4.86495e-11
-7.58104e-12
-1.13758e-12
-1.64298e-13
-0.00254499
-0.00208048
-0.00147127
-0.000904173
-0.000462907
-0.000163787
-6.06156e-05
-1.50013e-05
-3.93193e-06
-8.49317e-07
-1.83279e-07
-3.66766e-08
-7.0871e-09
-1.30623e-09
-2.30275e-10
-3.87781e-11
-6.22762e-12
-9.54366e-13
-1.39563e-13
-1.95101e-14
-0.00542703
-0.00329725
-0.00213122
-0.00156528
-0.00105554
-0.000447348
-0.00012937
-3.07589e-05
-6.2749e-06
-1.2011e-06
-2.0695e-07
-3.37236e-08
-5.07587e-09
-7.29833e-10
-9.94221e-11
-1.31081e-11
-1.67092e-12
-2.08167e-13
-2.53427e-14
-3.02861e-15
-0.000343234
-0.00197027
-0.00230462
-0.00201927
-0.00177731
-0.00100849
-0.000372255
-9.86301e-05
-2.21131e-05
-4.59667e-06
-8.66119e-07
-1.52785e-07
-2.47569e-08
-3.75685e-09
-5.31257e-10
-7.08996e-11
-8.93928e-12
-1.07375e-12
-1.23206e-13
-1.35868e-14
-1.91666e-06
-1.23994e-05
-1.44968e-06
-7.29533e-06
-7.59278e-07
-4.72352e-06
-4.73141e-07
-6.18364e-08
-6.70297e-07
-5.9013e-08
-3.34377e-07
-2.49474e-08
-2.02564e-07
-1.49756e-08
-3.91693e-07
-4.98976e-06
-4.83259e-07
-1.4133e-06
-1.639e-07
-3.75509e-06
-3.56475e-07
-2.18263e-08
-2.06901e-07
-1.40903e-08
-7.50711e-08
-6.90138e-09
-1.52124e-07
-1.01748e-08
-0.0702772
-0.0841627
-0.0555804
-0.0954995
-0.0762376
-0.0833712
-0.0632438
-0.0255293
-0.0446357
-0.0174369
-0.0639049
-0.0317335
-0.053349
-0.0255272
-0.00257869
-0.0115246
0.000441311
-0.024537
-0.00990512
-0.019112
-0.00716268
0.00601761
0.00309274
0.00772573
-0.0067414
-0.0019048
-0.0048591
-0.00121697
0.00695786
0.00844908
0.00937269
-0.00129712
-0.000424977
-0.000710782
-0.000114056
0.00687041
0.00947047
0.00956962
-0.000293276
-0.000133198
-5.76449e-05
-6.21314e-06
0.00677795
0.00957713
0.00957509
-0.000126612
-8.54667e-05
-2.79852e-06
-2.30938e-07
0.00666547
0.00957384
0.00957758
-7.39056e-05
-5.97678e-05
-1.00309e-07
-1.30405e-08
-0.0434194
-0.0604983
-0.0387433
-0.0737934
-0.053401
-0.0625083
-0.0431599
-0.0136469
-0.0327568
-0.0164723
-0.0453273
-0.0233358
-0.0377474
-0.0226834
0.0012431
-0.0117325
-0.000394821
-0.0176637
-0.00662815
-0.0181714
-0.00757453
0.00780536
0.00235899
0.00735487
-0.00450614
-0.00114479
-0.00527959
-0.00139863
0.00936091
0.00818669
0.00930206
-0.00067198
-0.000109179
-0.000829317
-0.000137773
0.00956294
0.00941871
0.00951399
-5.54442e-05
-6.05429e-06
-7.03468e-05
-7.70705e-06
0.00957398
0.00954128
0.00952004
-2.72199e-06
-2.097e-07
-3.45109e-06
-2.56991e-07
0.0095826
0.0095275
0.00955442
-8.42089e-08
-4.82822e-09
-1.00926e-07
-4.89295e-09
-0.0406533
-0.0720164
-0.0560187
-0.0592191
-0.037832
-0.0573929
-0.0486439
-0.0172932
-0.0487133
-0.0256753
-0.0326865
-0.0204938
-0.045207
-0.0302849
-0.000861346
-0.0187797
-0.00268673
-0.0169101
-0.00767561
-0.0249195
-0.0103711
0.00725705
0.000886942
0.00707708
-0.00542045
-0.00145078
-0.0070434
-0.00172695
0.00928674
0.00803911
0.0092759
-0.000858895
-0.000141834
-0.0010016
-0.000159796
0.00950402
0.0094036
0.00953454
-7.19978e-05
-7.7445e-06
-8.11803e-05
-8.99527e-06
0.00950497
0.00955031
0.00956221
-3.46385e-06
-2.61101e-07
-4.09291e-06
-3.5576e-07
0.00955617
0.00956623
0.00957957
-1.02942e-07
-3.04053e-09
-1.61098e-07
-2.3445e-08
-0.0602897
-0.0747844
-0.0713096
-0.0444761
-0.0451026
-0.0529475
-0.062892
-0.0304134
-0.065483
-0.046935
-0.0435794
-0.0317228
-0.0612719
-0.046595
-0.004695
-0.0382808
-0.0169042
-0.0270459
-0.0121619
-0.0388133
-0.0198561
0.0066654
-0.0126564
-0.00651231
-0.00833643
-0.00208048
-0.0151433
-0.00780777
0.00918506
-0.00433291
4.27394e-05
-0.00121995
-0.000203111
-0.00568763
-0.00225429
0.0095114
0.000385272
0.00109007
-0.000105296
-1.3315e-05
-0.00169215
-0.000992812
0.00955581
0.00144206
0.00287029
-6.67978e-06
-1.04606e-06
-0.000790083
-0.000422352
0.0095613
0.0028395
0.00312557
-6.65072e-07
-2.51505e-07
-0.000390649
-0.000311017
-0.030398
-0.0484068
-0.0232279
-0.0276928
-0.00876989
-0.0213786
-0.00699117
-0.00182634
-0.0142355
-0.00260104
-0.00518093
-0.00102913
-0.00452112
-0.001145
-0.000144304
-0.00152262
-0.000298379
-0.000596935
-0.000102245
-0.000705039
-0.000148333
-1.25164e-05
-0.000164552
-2.54541e-05
-5.25458e-05
-7.02916e-06
-8.32476e-05
-1.22794e-05
-3.02594e-06
-1.43324e-05
-2.27762e-06
-3.68699e-06
-6.08181e-07
-6.10698e-06
-6.47608e-07
-5.93244e-07
-1.11593e-06
-1.06822e-07
-3.29892e-07
-6.85575e-08
-2.90503e-07
-2.29208e-08
-2.65934e-07
-4.69559e-08
-3.34715e-09
-4.01975e-08
-9.25793e-09
-9.37384e-09
-5.66042e-10
-2.11122e-07
-1.28314e-09
-1.00596e-10
-5.44568e-09
-1.37879e-09
-2.1116e-10
-9.65292e-12
-0.0219619
-0.0232191
-0.00833401
-0.0177743
-0.00625819
-0.0112638
-0.00430934
-0.00387623
-0.00567672
-0.00165812
-0.00446741
-0.0014541
-0.00319068
-0.00108192
-0.000429629
-0.00103786
-0.000208192
-0.000929455
-0.000201268
-0.000692059
-0.00014128
-3.69614e-05
-0.000121835
-2.52413e-05
-0.000113182
-1.66199e-05
-7.68504e-05
-1.03605e-05
-2.60599e-06
-1.70266e-05
-4.47023e-06
-8.25124e-06
-8.69653e-07
-5.07468e-06
-5.18922e-07
-1.15196e-07
-2.16849e-06
-1.90824e-07
-3.92139e-07
-3.1836e-08
-2.3506e-07
-2.03242e-08
-4.48204e-09
-8.67244e-08
-6.77191e-09
-1.31358e-08
-8.05893e-10
-8.54357e-09
-5.54604e-10
-8.57102e-11
-2.65226e-09
-1.33154e-10
-3.02242e-10
-1.38814e-11
-2.11409e-10
-1.01622e-11
-0.00234
-0.011466
-0.00704365
-0.00307451
-0.000855277
-0.00279228
-0.00080281
-0.000434883
-0.00483953
-0.000932174
-0.000582346
-0.000187326
-0.000578921
-0.000202517
-5.73184e-05
-0.000588459
-0.000199988
-0.000124885
-3.00518e-05
-0.000128317
-2.41389e-05
-1.05075e-05
-0.000130853
-2.60486e-05
-1.72549e-05
-2.6933e-06
-1.3e-05
-1.82733e-06
-1.70988e-06
-1.34319e-05
-1.53639e-06
-1.38994e-06
-1.64193e-07
-9.17895e-07
-1.0326e-07
-9.48586e-08
-7.19711e-07
-7.08697e-08
-7.76182e-08
-7.15619e-09
-4.75232e-08
-4.08377e-09
-2.50219e-09
-3.19847e-08
-2.49825e-09
-3.04115e-09
-2.02843e-10
-1.72598e-09
-1.16274e-10
-3.67453e-11
-1.18574e-09
-1.66967e-10
-7.78084e-11
-3.7441e-12
-4.55678e-11
-2.7232e-12
-0.00139215
-0.00420375
-0.00611262
-0.00138142
-0.000712554
-0.00310886
-0.00193725
-0.000535254
-0.00778334
-0.0042962
-0.00060287
-0.000282619
-0.00176291
-0.00145372
-0.000199464
-0.0031126
-0.00131314