/*--------------------------------*- C++ -*----------------------------------*\
  =========                 |
  \\      /  F ield         | OpenFOAM: The Open Source CFD Toolbox
   \\    /   O peration     | Website:  https://openfoam.org
    \\  /    A nd           | Version:  10
     \\/     M anipulation  |
\*---------------------------------------------------------------------------*/
FoamFile
{
    format      ascii;
    class       volVectorField;
    location    "0.3";
    object      U;
}
// * * * * * * * * * * * * * * * * * * * * * * * * * * * * * * * * * * * * * //

dimensions      [0 1 -1 0 0 0 0];

internalField   nonuniform List<vector> 
12920
(
(10.941 230.23 -9.85732)
(-126.6 38.4885 -2.9934)
(63.9206 12.0322 -1.09346)
(13.8894 -4.04023 0.139933)
(89.5654 -5.57132 0.351136)
(74.3739 -11.9059 -1.51041)
(103.676 1.41104 -4.24932)
(90.0509 0.991163 -7.63253)
(89.8869 14.1918 -0.238428)
(49.1378 9.66035 2.94952)
(45.9964 5.22953 1.96946)
(32.8302 2.29673 0.658283)
(38.6008 1.08571 0.118043)
(34.7448 0.596746 0.0486925)
(38.741 0.106381 0.0118225)
(37.313 0.0985574 0.0043189)
(39.7159 -0.061414 0.00108157)
(38.6265 0.0362736 9.35655e-05)
(38.8995 -0.0162961 -0.00238684)
(39.0484 0.0756157 -0.00287751)
(116.723 -6.5672 66.5029)
(-127.527 -21.7912 24.9941)
(37.9687 -33.079 21.5565)
(-94.3518 -24.2038 -0.191148)
(25.1483 -16.7891 -7.97677)
(-34.6232 -15.762 0.210807)
(36.6053 -0.43215 0.659581)
(2.01337 0.00458609 -0.738369)
(38.5698 6.39969 1.11325)
(20.2916 2.37704 0.981019)
(36.4447 0.0701133 0.519157)
(28.824 -1.63579 0.142979)
(37.129 -2.28584 0.0535737)
(33.9804 -2.14156 0.0157455)
(38.4272 -1.97782 0.00450971)
(37.2584 -1.58197 0.0020118)
(39.743 -1.24474 0.000599406)
(38.7776 -0.864207 -0.000162566)
(39.0585 -0.515277 -0.00193903)
(39.2599 -0.170827 -0.00241991)
(150.286 -31.4324 79.3392)
(-38.7066 25.1642 -5.61579)
(81.6933 -7.85013 5.8262)
(-38.6109 -14.4534 0.96385)
(47.0405 -17.3941 -8.98554)
(-16.6295 -14.6238 0.740517)
(38.6806 -7.27274 -0.0480629)
(5.82825 -3.85004 1.26769)
(36.8646 -0.249924 0.885548)
(22.0506 0.165527 0.583138)
(37.5613 -2.08629 0.263764)
(30.5169 -1.56988 0.100516)
(38.2529 -2.99989 0.0263638)
(35.1558 -2.08507 0.00915524)
(39.405 -2.52106 0.00156947)
(38.1487 -1.65973 0.00118538)
(40.5507 -1.60041 -0.000108821)
(39.4922 -0.902957 -0.000734005)
(39.7287 -0.652252 -0.00187414)
(39.8331 -0.0712582 -0.00210321)
(-220.716 -72.7555 13.2408)
(-252.622 -22.4323 -4.3546)
(-14.2628 -6.57558 -6.12964)
(-142.392 -5.99875 2.30054)
(21.8996 10.7619 -7.52596)
(-52.3793 -12.2962 -0.80908)
(33.9443 -3.92324 -1.26284)
(-10.5957 -9.63507 0.384148)
(34.5122 -6.15602 0.00639881)
(15.003 -6.52463 0.0927004)
(35.1633 -6.58278 0.0348437)
(28.2107 -5.7073 0.0155657)
(37.0083 -5.68789 0.00711227)
(34.6197 -4.50346 0.00351889)
(38.9354 -4.1977 0.00079933)
(38.2126 -3.14419 0.00093991)
(40.5305 -2.55359 0.000486241)
(39.7968 -1.67272 -0.000120187)
(39.9843 -1.00147 -0.00168262)
(40.215 -0.256588 -0.00223426)
(-103.182 -52.3002 42.3235)
(-154.41 -99.8905 -21.2373)
(31.9288 -48.2951 1.54269)
(-128.394 -24.0721 -2.36495)
(54.9734 -15.0064 -1.10534)
(-53.5243 -11.0376 -0.715791)
(43.5795 -24.1818 -1.46337)
(-1.68972 -9.48026 -0.32263)
(39.0791 -18.3497 -0.41459)
(19.9937 -7.02971 -0.0765757)
(38.0206 -12.2072 -0.068133)
(30.8741 -6.01663 -0.0105896)
(39.3284 -8.4247 -0.00890896)
(36.5246 -4.92074 -0.00108653)
(40.7219 -5.54989 -0.00139001)
(39.7524 -3.59054 0.000311325)
(41.9897 -3.24028 -0.000360483)
(41.0321 -1.94343 -0.000875891)
(41.1475 -1.31252 -0.00116948)
(41.2179 -0.272302 -0.00116736)
(-18.1847 41.5272 -30.2021)
(-153.695 -65.9011 -9.73264)
(25.9163 -30.6277 -1.94601)
(-135.918 -48.7509 -9.38985)
(45.803 -42.3045 -3.43722)
(-72.5423 -18.5178 -2.18742)
(47.2593 -43.5048 -0.973312)
(-4.71223 -14.8888 0.151367)
(37.6484 -21.413 -0.151737)
(20.2867 -12.2282 0.00412018)
(35.9354 -13.6265 -0.011232)
(31.7858 -9.44347 0.00563155)
(38.1147 -9.59379 0.00296163)
(37.5366 -6.843 0.00432674)
(40.3274 -6.60539 0.0011822)
(40.5264 -4.74489 0.000455375)
(42.239 -3.77154 0.000238256)
(41.8008 -2.41813 -0.0006672)
(41.726 -1.42466 -0.000122898)
(41.9264 -0.350756 -0.000327954)
(202.526 37.2378 36.1288)
(22.6398 -11.112 21.928)
(107.441 -5.82177 28.9525)
(-57.7444 7.91431 -16.2501)
(89.9374 -23.1979 -9.93294)
(-7.4371 -8.39229 -1.92683)
(47.4356 -79.994 1.83385)
(0.0385399 -3.2675 0.402493)
(32.725 -40.8246 0.0565864)
(19.8078 -9.12354 -0.032122)
(38.009 -22.1158 -0.0672328)
(33.0142 -9.7186 -0.0222554)
(41.2804 -13.7763 -0.0229709)
(39.0912 -7.88854 -0.0113573)
(42.6638 -8.20853 -0.00243796)
(42.4169 -5.69232 0.00179372)
(44.2226 -4.61354 0.00222284)
(43.3163 -2.9445 0.00131244)
(43.1941 -1.77886 -0.00116354)
(43.2142 -0.501943 -0.00206135)
(44.6449 108.971 41.5089)
(-45.9536 14.7387 -0.962868)
(100.137 5.95922 12.6875)
(33.6615 16.7867 -3.3554)
(108.59 -33.2602 2.13128)
(41.8248 2.42356 2.87777)
(64.915 -34.0114 2.66879)
(-3.10703 -19.7473 0.0828221)
(27.1212 -22.8343 0.136706)
(19.7345 -27.1457 -0.00765862)
(36.0187 -17.0186 -0.0189598)
(34.2281 -16.4145 -0.0638093)
(40.4177 -11.2457 -0.0141839)
(39.7744 -9.26472 -0.0118235)
(42.643 -9.32217 -0.0228943)
(44.0657 -6.65419 -0.0149451)
(44.8533 -4.67785 -0.00703057)
(44.5391 -2.90464 -0.00289937)
(44.2246 -1.67738 4.92531e-05)
(44.2953 -0.431739 3.19368e-06)
(186.087 -10.9034 0.372521)
(3.42558 -1.64859 12.6959)
(161.354 -36.8283 19.6102)
(90.2748 -16.8546 3.59685)
(121.447 -34.8543 12.2776)
(57.4974 -14.7722 1.67621)
(66.7152 -13.4398 3.71474)
(28.25 -35.4593 1.07182)
(38.3605 -36.6791 -0.138734)
(36.2342 -31.7004 -0.120531)
(39.3125 -22.1071 -0.0313062)
(39.0531 -18.2271 -0.0343545)
(41.233 -13.7037 -0.0064433)
(41.4555 -11.6949 -0.0113588)
(44.4263 -7.80436 -0.0270093)
(44.5136 -7.76973 -0.0171351)
(46.1285 -5.35982 -0.0176548)
(45.4508 -3.68399 -0.0132131)
(45.5408 -1.94317 -0.00645249)
(45.7566 -0.620256 -0.00176646)
(225.44 -96.9306 -65.4685)
(80.0339 -13.3083 -28.6281)
(140.271 -58.5019 -4.88423)
(73.9233 -20.0835 5.62428)
(90.5161 -33.1886 16.026)
(6.00674 -33.2884 4.04878)
(37.2319 -23.7238 1.42136)
(41.2937 -34.6802 0.18885)
(44.0598 -33.2015 -0.427025)
(45.9165 -28.4094 -0.0679744)
(45.066 -23.0882 0.0136632)
(44.6778 -18.7786 -0.0394457)
(44.8855 -15.254 -0.0442913)
(45.3961 -12.5479 0.0323582)
(46.861 -9.01521 -0.0203294)
(47.4527 -6.75193 -0.0184587)
(47.9964 -5.63039 -0.0111394)
(47.344 -3.7663 -0.00777471)
(46.9732 -2.39235 -0.00320667)
(47.0466 -0.725077 -0.00192319)
(349.514 -100.396 -132.419)
(172.412 -9.39146 -8.1646)
(150.035 11.5434 25.6347)
(11.8556 -37.6483 12.552)
(86.7172 -26.8351 4.84734)
(25.3462 -46.1413 0.09302)
(39.2781 -47.9106 0.474891)
(48.3974 -39.0333 -0.670561)
(52.2752 -31.7574 -0.47851)
(51.9182 -26.2896 -0.215754)
(50.3809 -22.4267 -0.0584719)
(49.0167 -18.8823 -0.0713811)
(48.6825 -15.6824 -0.0843356)
(48.4817 -12.6784 -0.0103271)
(49.0187 -9.94579 -0.00201305)
(49.2193 -7.61388 -0.0119997)
(49.6518 -5.37294 -0.00878473)
(48.8807 -3.97334 -0.00698927)
(48.5033 -2.14115 -0.00472487)
(48.5553 -0.786839 -0.00283754)
(100.255 49.4607 -113.714)
(-117.729 -65.4436 29.1165)
(42.5822 -38.3468 11.0345)
(-78.839 -58.2289 -3.8904)
(67.2376 -43.5732 -3.85088)
(-24.6083 -65.2906 -1.84656)
(50.2017 -67.5929 -1.35174)
(60.1426 -39.0691 0.286063)
(58.5105 -26.9363 -0.243288)
(55.3063 -22.9126 -0.145443)
(53.4491 -20.7576 -0.0261784)
(51.8787 -18.1119 -0.00743052)
(51.2883 -15.3796 0.00186503)
(50.5314 -12.7124 -0.000935658)
(51.6276 -9.7267 -0.00287886)
(50.7907 -6.45081 -0.0239853)
(51.2148 -5.37774 -0.0174227)
(50.3173 -3.95169 -0.010103)
(49.9563 -2.61645 -0.00267273)
(49.896 -0.93678 -0.000184314)
(212.759 28.6617 -12.9495)
(18.2452 -114.485 22.6987)
(115.483 -85.9407 17.8948)
(28.9773 -81.1826 -0.62472)
(121.358 -42.8169 -9.31573)
(67.0705 -70.1795 -9.3939)
(87.191 -46.4368 -3.59955)
(47.6165 -34.0497 0.469114)
(61.2378 -29.5634 0.357781)
(50.7169 -22.3866 -0.0759387)
(60.2139 -18.8724 -0.0633024)
(53.5341 -16.6327 -0.0333781)
(56.55 -13.6808 -0.0119076)
(52.5883 -11.7365 0.00553806)
(53.164 -7.30073 -0.0261774)
(53.2534 -6.55055 -0.0145404)
(53.3822 -4.95953 -0.00792204)
(52.6119 -3.99756 -0.00131422)
(51.8562 -2.34549 0.000643307)
(51.4763 -0.94489 -0.000449438)
(341.464 152.53 -82.6149)
(-156.579 -20.8265 20.0066)
(170.909 31.6621 -25.5331)
(32.2968 4.124 -16.377)
(135.796 24.1097 -19.4255)
(82.2489 -0.676236 -17.4582)
(103.093 10.6794 -9.56305)
(82.9737 -32.1582 -3.02187)
(81.7917 -19.8403 1.30891)
(64.4343 -30.3807 1.17919)
(66.8906 -14.6677 0.72011)
(57.9173 -18.4329 0.240006)
(60.254 -10.0319 0.0906807)
(55.7087 -11.3091 0.020625)
(56.6854 -7.59488 0.00631258)
(54.8205 -6.77985 0.00277707)
(55.3195 -4.80058 0.00107884)
(53.8048 -3.69165 0.000529544)
(53.1265 -2.11537 -0.00196337)
(52.5791 -0.824877 -0.00271074)
(210.648 -66.3101 -43.906)
(32.4041 -40.8318 0.731229)
(166.204 -3.38077 -11.8468)
(98.3566 37.1255 -18.3942)
(160.363 33.2313 -17.2318)
(137.791 22.205 -12.5625)
(159.361 4.51372 -1.54853)
(128.477 -21.6476 4.04772)
(105.598 -15.7649 5.9489)
(74.3834 -21.1547 2.32788)
(72.4458 -12.5516 0.503914)
(63.3297 -13.6582 0.196657)
(63.2588 -8.80483 0.0585755)
(59.3739 -9.14538 0.0201409)
(59.1041 -6.07694 0.00482848)
(56.9645 -5.59629 0.00111837)
(56.96 -3.86063 -0.000506561)
(55.4765 -3.11886 -0.00063401)
(54.6447 -1.74686 -0.00319123)
(54.0702 -0.724653 -0.00339173)
(166.602 -35.4034 51.389)
(177.084 -1.07777 2.10822)
(230.468 36.9404 11.1165)
(179.883 40.4654 6.87838)
(195.122 35.495 8.51085)
(163.782 3.55524 10.0826)
(157.287 5.22001 11.3772)
(105.671 -13.0176 7.15366)
(96.834 0.434118 4.21667)
(69.9754 -12.4219 1.27597)
(73.8354 -5.26918 0.486651)
(61.289 -10.6176 0.12482)
(64.8968 -5.6682 0.0459417)
(58.4678 -7.49884 0.0126419)
(60.2497 -4.71492 0.00370674)
(57.0867 -4.83472 0.00151075)
(57.8949 -3.15998 -1.8403e-05)
(56.0264 -2.66158 -0.000170979)
(55.4805 -1.35208 -0.00299606)
(54.795 -0.592712 -0.00325437)
(231.336 -151.638 63.4871)
(170.377 -47.7125 10.7027)
(194.795 13.2382 0.307464)
(131.118 -5.15011 6.1373)
(154.302 -16.1957 17.8333)
(81.4225 -31.834 9.39868)
(109.876 -8.91444 8.29991)
(66.0762 -12.6077 2.94055)
(85.6618 -2.06278 1.74388)
(64.4078 -8.91348 0.590233)
(73.4533 -4.83338 0.231335)
(62.3918 -7.79218 0.0746438)
(66.2239 -5.02934 0.026086)
(60.271 -5.818 0.00855245)
(61.7192 -3.94868 0.00210836)
(58.5529 -3.80788 0.000945071)
(59.0661 -2.56874 -0.000295386)
(57.2069 -2.09539 -0.000326187)
(56.5456 -1.13406 -0.00288537)
(55.8598 -0.483434 -0.00319952)
(324.056 -43.9571 -30.7443)
(256.571 18.3512 -33.9689)
(205.954 26.4481 2.96171)
(98.1016 -9.23447 -1.48318)
(136.662 -21.6771 1.22228)
(72.9962 -27.1064 -5.39062)
(105.584 -11.1914 -1.42069)
(64.6999 -11.8294 -0.947364)
(86.4446 -0.0388697 0.312454)
(62.2004 -5.87738 0.104185)
(74.4216 -0.92562 0.11834)
(60.9102 -4.80997 0.0367949)
(66.9861 -2.12752 0.0175079)
(59.5771 -3.73644 0.00605259)
(62.2923 -2.13534 0.0013733)
(58.4369 -2.54641 0.00104849)
(59.5874 -1.5325 -0.000215223)
(57.4686 -1.44656 -8.54447e-05)
(57.0408 -0.66882 -0.00267837)
(56.2682 -0.339653 -0.00305303)
(130.301 90.8245 -90.1984)
(-2.15957 10.5232 -57.5734)
(123.966 33.85 -22.8647)
(-5.20794 20.6376 -11.6513)
(109.582 19.968 -1.17232)
(27.2052 3.28274 -6.0354)
(92.9413 6.31716 -2.65322)
(48.1985 -0.848465 -1.33722)
(81.4118 1.24968 -0.513387)
(58.2934 -2.50406 -0.140015)
(73.3065 -1.5404 -0.0481841)
(60.596 -2.97734 -0.00635996)
(67.1977 -2.24491 -0.00259938)
(60.2237 -2.53492 0.00108551)
(62.9323 -1.88971 0.000343077)
(59.1777 -1.74636 0.000798401)
(60.2421 -1.23571 -0.000408878)
(58.1462 -0.964991 -0.000262935)
(57.6595 -0.537729 -0.00269794)
(56.8637 -0.221553 -0.00304564)
(98.8861 91.9142 -43.7981)
(113.6 60.3408 0.377511)
(184.71 5.01001 23.6767)
(59.0643 -10.646 17.501)
(115.07 -13.2123 19.4162)
(36.5496 -5.72443 1.51398)
(94.5263 -3.19734 1.61828)
(50.7288 -3.21202 0.046676)
(82.6974 0.014903 0.0203341)
(58.3107 -1.52404 -0.00934085)
(73.8644 0.386836 -0.00267631)
(60.1391 -0.864651 0.00231883)
(67.384 0.126014 -0.000485273)
(59.8486 -0.575488 0.00174721)
(62.9673 -0.082952 3.95201e-05)
(58.9442 -0.382493 0.000919322)
(60.212 -0.104178 -0.000216091)
(58.0254 -0.20504 -8.24149e-05)
(57.6521 -0.0125205 -0.00268204)
(56.872 -0.0369009 -0.00312669)
(-31.6977 228.776 -21.9746)
(-198.428 11.5373 -38.2114)
(52.2951 -1.32108 -36.7469)
(-13.6181 -23.4851 -15.4262)
(82.6257 -31.3117 -4.89702)
(71.7085 -38.1062 -2.8015)
(106.169 -14.9491 4.52076)
(71.674 -3.71412 7.58126)
(63.7605 14.6 11.9188)
(35.0871 8.43569 7.95362)
(41.7618 5.38914 4.02673)
(32.5974 2.52355 1.36953)
(38.6157 1.15495 0.316975)
(34.9785 0.605769 0.103579)
(38.9968 0.111244 0.0271432)
(37.5884 0.101184 0.00867093)
(39.9885 -0.0591932 0.00231798)
(38.905 0.0378749 0.000398701)
(39.1738 -0.0152571 -0.00265746)
(39.3146 0.0762812 -0.00275013)
(46.4705 132.515 27.9781)
(-246.246 -1.16925 6.98023)
(55.8622 -9.25246 -16.2874)
(-65.1602 -21.1082 -1.81745)
(21.3897 -28.6875 -3.59191)
(-48.4749 -21.4325 -6.96637)
(28.976 -3.35724 -5.58529)
(-10.0974 -2.90182 -2.92739)
(32.636 3.97317 1.45579)
(17.2417 0.692336 1.29132)
(35.8178 -0.840279 0.678325)
(28.7837 -1.91774 0.204461)
(37.3216 -2.32317 0.0773973)
(34.2287 -2.15559 0.0225706)
(38.6813 -1.98111 0.00703653)
(37.5223 -1.5835 0.00299276)
(40.0035 -1.24546 0.000935892)
(39.043 -0.864959 -0.000155935)
(39.3203 -0.515339 -0.00225402)
(39.5165 -0.170709 -0.0023106)
(160.123 83.1436 51.4818)
(-97.1965 -12.3067 13.1209)
(86.7413 -25.3262 1.66658)
(19.8401 -20.426 -4.15652)
(56.3315 -24.2504 -5.09604)
(-8.27242 -19.685 -4.19244)
(38.0537 -9.65358 -2.95417)
(5.46443 -3.6736 -0.953699)
(36.4706 -0.40538 0.40174)
(22.0598 0.156443 0.477477)
(37.7146 -2.08431 0.29296)
(30.7556 -1.54003 0.128639)
(38.5038 -2.9829 0.0454196)
(35.4311 -2.07658 0.0169129)
(39.6703 -2.5138 0.00463377)
(38.4201 -1.65654 0.00231394)
(40.8165 -1.59716 0.000257278)
(39.7599 -0.901475 -0.000786251)
(39.9908 -0.650823 -0.00219403)
(40.0916 -0.0706408 -0.00193791)
(-124.627 -181.579 92.0084)
(-233.83 -86.5083 -60.0637)
(-30.3086 -34.2155 -1.03584)
(-144.904 -24.7667 -25.8547)
(21.2057 3.84753 -20.011)
(-49.7691 -15.1041 -7.71953)
(34.4126 -3.53844 -4.40702)
(-9.47656 -9.1787 -0.436236)
(34.7174 -5.95265 -0.393887)
(15.3238 -6.47213 0.0809365)
(35.3687 -6.58956 0.0443189)
(28.4601 -5.70636 0.0145683)
(37.2489 -5.68263 0.0127161)
(34.8774 -4.50002 0.00536715)
(39.1882 -4.19377 0.00124591)
(38.473 -3.14259 0.00119025)
(40.7892 -2.55202 0.000568012)
(40.0612 -1.67221 -0.000193579)
(40.2461 -1.00054 -0.00195572)
(40.4727 -0.255899 -0.0020836)
(150.057 -198.44 -19.3062)
(-136.112 -111.565 -28.9271)
(34.0504 -59.3707 0.561894)
(-132.799 -33.4098 -4.23666)
(56.2799 -16.8212 -3.59662)
(-52.6185 -10.1984 2.6122)
(43.8159 -22.7365 0.563769)
(-0.787175 -8.71254 0.465229)
(39.3903 -17.8771 0.132437)
(20.446 -6.86581 0.121213)
(38.2946 -12.1227 0.0222132)
(31.1786 -5.99524 0.0251791)
(39.5934 -8.40592 0.00380098)
(36.8052 -4.91786 0.00365539)
(40.9907 -5.54351 3.28335e-05)
(40.0272 -3.59026 0.000707288)
(42.2597 -3.23815 -0.000315997)
(41.3046 -1.94332 -0.00106725)
(41.4132 -1.31105 -0.0013981)
(41.4868 -0.271534 -0.000877846)
(107.164 -10.0578 -45.5414)
(-130.534 -34.9 -40.2933)
(36.8186 -24.7568 -19.0732)
(-131.597 -53.8103 -20.9004)
(50.3113 -44.5816 -8.12342)
(-67.0654 -18.7644 -2.52174)
(47.2306 -42.9048 -1.08278)
(-3.4325 -14.7426 0.45684)
(37.8627 -21.1976 -0.0627724)
(20.6526 -12.2089 0.082632)
(36.1676 -13.6047 0.0155234)
(32.0431 -9.44136 0.0166775)
(38.3571 -9.5882 0.00485782)
(37.7913 -6.84299 0.00426496)
(40.5816 -6.60015 0.000284227)
(40.7829 -4.74265 0.000292851)
(42.497 -3.76946 0.000435441)
(42.0634 -2.41627 -0.00061736)
(41.9861 -1.42354 -0.000185636)
(42.1947 -0.350602 -6.71423e-05)
(154.474 36.9451 41.5881)
(-111.762 17.63 -30.5735)
(138.558 -9.4952 -14.2677)
(-40.9878 -28.2576 -13.2953)
(82.1844 -51.8418 -8.89607)
(-22.3512 -15.9743 1.23725)
(45.14 -83.8412 3.23194)
(-0.729422 -2.79566 1.27038)
(32.9435 -40.5499 0.564293)
(20.1799 -9.08517 0.113699)
(38.2436 -22.0192 0.0173519)
(33.2908 -9.68401 0.00221209)
(41.5091 -13.733 -0.00735703)
(39.3492 -7.87021 -0.00473189)
(42.9229 -8.19515 -0.000889837)
(42.6804 -5.69287 0.000835455)
(44.4885 -4.61584 0.00126488)
(43.5887 -2.94762 0.000678353)
(43.4639 -1.77997 -0.00134411)
(43.4773 -0.501982 -0.00178048)
(65.3345 141.944 71.9378)
(-69.407 -18.0422 -25.0109)
(95.0213 -40.8816 -14.8833)
(-18.5076 -41.9505 0.01768)
(85.5307 -66.1132 12.0828)
(8.36799 -1.4437 7.80092)
(53.7062 -38.1639 9.13077)
(-1.03827 -20.3106 2.9802)
(27.9686 -23.0645 0.478789)
(20.9205 -27.1414 0.0647835)
(36.8772 -17.327 0.046369)
(35.158 -16.5122 0.0144144)
(41.172 -11.3789 0.0186495)
(40.5177 -9.32268 0.00676884)
(42.9616 -9.33449 -0.00327775)
(44.3557 -6.64631 -0.00258251)
(45.109 -4.66945 -0.00235197)
(44.7868 -2.89544 -0.00110956)
(44.4704 -1.66961 9.33755e-05)
(44.5528 -0.427292 -5.82823e-05)
(296.528 -141.46 -108.108)
(-68.3851 -63.7152 4.5693)
(134.492 -80.7579 -9.01072)
(-10.6004 -53.6032 3.67373)
(83.9366 -61.4906 15.445)
(35.1031 -29.6469 3.79727)
(68.8609 -12.8606 9.36986)
(38.7425 -33.9524 2.20239)
(46.394 -35.601 -0.438581)
(39.7498 -31.8678 -0.149277)
(41.1591 -22.4218 0.0135821)
(40.6472 -18.4301 0.00420618)
(42.6514 -13.8444 0.0128005)
(42.8951 -11.8004 0.00773177)
(45.1288 -7.8896 -0.0117462)
(44.874 -7.78015 -0.00377022)
(46.4499 -5.3554 -0.00721377)
(45.7364 -3.69037 -0.00774757)
(45.7872 -1.94907 -0.00413205)
(46.0006 -0.622826 -0.00127842)
(354.501 -223.667 190.281)
(148.826 -81.3132 60.0989)
(132.641 -98.0622 -1.22273)
(13.1879 -47.8557 10.7525)
(72.6972 -48.1067 24.1666)
(19.8467 -37.2843 9.60376)
(47.5186 -29.5743 5.88782)
(50.1242 -30.6182 1.66111)
(48.2586 -31.3484 0.0132681)
(47.8378 -28.2632 -0.0226358)
(46.4961 -23.089 0.195038)
(45.7606 -18.7346 -0.0178345)
(46.2209 -15.2433 0.0205068)
(46.8129 -12.5901 0.0468621)
(47.5773 -9.06301 -0.0223741)
(47.7659 -6.78562 0.00447099)
(48.292 -5.6379 4.68109e-05)
(47.6175 -3.75838 -0.0029267)
(47.2338 -2.3798 -0.00252229)
(47.3079 -0.718991 -0.00199776)
(200.144 -112.115 108.73)
(25.2348 35.0774 91.8251)
(113.673 21.3084 51.84)
(25.8199 -36.9154 22.2928)
(81.6081 -31.2387 11.1468)
(21.8866 -45.2111 4.02139)
(41.2077 -44.7873 1.28764)
(51.4317 -39.3559 -0.42508)
(56.8582 -32.8193 -0.254561)
(53.8262 -26.4509 0.100964)
(51.544 -22.8237 -0.74271)
(50.2806 -19.1991 -0.291628)
(49.9249 -16.0541 -0.243051)
(49.3248 -12.5991 0.122484)
(49.6994 -9.9572 0.00969466)
(49.5381 -7.60803 0.00470525)
(49.9505 -5.37501 -0.000775713)
(49.1618 -3.98261 -0.00365065)
(48.7682 -2.15046 -0.00361585)
(48.816 -0.791341 -0.00270137)
(22.6047 -65.376 37.5746)
(-100.293 -45.1908 19.2231)
(68.7357 -26.9085 14.1319)
(-62.7044 -43.0368 -2.47517)
(66.7547 -32.9406 -7.43367)
(-19.3601 -55.4079 -5.07914)
(53.3788 -60.4582 -4.75136)
(67.7542 -42.032 -1.20541)
(63.8369 -30.3244 -0.332618)
(57.2517 -23.1538 0.0451879)
(54.8266 -20.7416 0.012055)
(53.2413 -18.1416 0.0138502)
(52.596 -15.4031 0.044945)
(51.9207 -12.7371 0.0150422)
(52.2562 -9.74373 -0.0108788)
(51.132 -6.44571 -0.00746184)
(51.5035 -5.38424 -0.00726325)
(50.5696 -3.9498 -0.00529691)
(50.1873 -2.61193 -0.00227992)
(50.1374 -0.93599 -0.000901206)
(239.089 178.001 106.549)
(124.583 -33.2745 3.59872)
(137.36 -51.1764 -34.2897)
(50.7154 -62.5289 -31.9735)
(120.462 -38.8698 -26.7307)
(61.1761 -69.469 -14.4414)
(81.56 -42.0569 -7.52785)
(46.3657 -31.4658 -0.259521)
(61.8925 -28.3352 0.579086)
(51.5704 -22.2607 0.202173)
(60.6909 -18.8857 0.141579)
(54.1472 -16.6436 0.0387202)
(57.0863 -13.7183 0.0180817)
(53.1846 -11.7571 0.010239)
(53.488 -7.28365 -0.00533394)
(53.5465 -6.55214 -0.00429069)
(53.6354 -4.96406 -0.00393456)
(52.8568 -4.0043 -0.00107284)
(52.1074 -2.35688 -0.000428413)
(51.7366 -0.952275 -0.00120589)
(188.491 42.5133 -74.0696)
(-83.5784 -51.0242 -13.123)
(159.227 24.2084 -69.7065)
(35.2693 -17.3441 -25.362)
(134.562 1.10636 -25.2784)
(62.5716 -30.4377 -11.721)
(90.8124 -0.998436 -2.31637)
(63.5193 -43.4116 0.729682)
(73.0976 -20.295 3.36245)
(60.1191 -30.2565 1.71173)
(65.671 -14.4816 0.927203)
(57.6585 -18.372 0.28042)
(60.375 -10.0302 0.110266)
(55.9454 -11.3122 0.0265492)
(56.9542 -7.60132 0.00845184)
(55.1025 -6.78109 0.00339706)
(55.6019 -4.80282 0.00125994)
(54.0911 -3.69404 0.000282843)
(53.4084 -2.11906 -0.00261375)
(52.8455 -0.827328 -0.00327831)
(308.988 -65.9752 -88.5069)
(122.941 -102.343 -10.5358)
(174.285 -85.5002 -14.9775)
(107.862 -50.4631 -3.73427)
(154.614 -42.9767 2.47221)
(104.553 -47.1367 4.74107)
(125.874 -35.1065 11.2441)
(92.9031 -38.3026 9.16153)
(90.3867 -22.0612 8.85919)
(72.8188 -21.6288 3.73683)
(71.7678 -12.4818 0.88378)
(63.419 -13.6621 0.280636)
(63.4758 -8.81641 0.0786427)
(59.6522 -9.14514 0.0239782)
(59.3902 -6.08102 0.00625815)
(57.2551 -5.59713 0.00188289)
(57.247 -3.86214 4.94737e-05)
(55.7636 -3.12024 -0.000503249)
(54.9269 -1.74888 -0.00342329)
(54.3362 -0.725934 -0.00373545)
(181.495 -5.85623 -59.894)
(82.6674 1.01189 -9.98894)
(179.633 2.2705 -0.227397)
(140.061 -21.5233 12.0377)
(172.466 -16.1759 25.5937)
(129.726 -31.9441 22.5831)
(130.813 -8.48565 20.6553)
(86.7793 -17.9724 10.5864)
(90.493 -1.42844 5.9491)
(67.5542 -13.2572 1.70955)
(73.4896 -5.30295 0.670593)
(61.3603 -10.6313 0.160707)
(65.1244 -5.67526 0.0597605)
(58.7437 -7.49643 0.0152823)
(60.5286 -4.71839 0.00488919)
(57.3747 -4.83384 0.00181427)
(58.1784 -3.16197 -2.23807e-05)
(56.3132 -2.6623 -0.000373423)
(55.7623 -1.35371 -0.00339898)
(55.0622 -0.593271 -0.00366094)
(283.069 -155.625 18.5107)
(111.843 -79.6677 14.8442)
(169.647 -33.5164 14.0846)
(50.9784 -45.8591 16.6888)
(130.124 -27.0674 33.8363)
(49.1487 -28.3893 11.6201)
(102.104 -2.13888 9.73049)
(59.6258 -10.1673 3.25495)
(84.1783 -1.55725 1.74141)
(63.7529 -8.87475 0.536877)
(73.4764 -4.875 0.153955)
(62.6058 -7.80408 0.0424914)
(66.4866 -5.03916 0.0108557)
(60.5615 -5.81702 0.00337879)
(62.0049 -3.9507 0.000328365)
(58.8451 -3.80739 0.000514071)
(59.3524 -2.56981 -0.000398221)
(57.4949 -2.09569 -0.000455049)
(56.829 -1.1348 -0.00320043)
(56.1291 -0.48382 -0.00357136)
(277.577 -68.7484 -22.5617)
(11.4271 23.7695 55.1219)
(151.956 10.0785 59.8139)
(7.98059 -1.13913 11.6653)
(130.926 -6.29806 3.54213)
(53.4423 -8.70593 -0.665692)
(100.972 2.53239 1.98342)
(59.2868 -5.52276 0.653849)
(85.1628 2.08176 0.857612)
(61.5147 -5.30694 0.251423)
(74.431 -0.80481 0.15737)
(61.0854 -4.78042 0.0425746)
(67.2287 -2.12602 0.0187324)
(59.8582 -3.7307 0.00606056)
(62.5691 -2.13493 0.00147784)
(58.7246 -2.54397 0.00113506)
(59.8695 -1.53263 -0.000205458)
(57.7547 -1.44603 -0.000170001)
(57.3231 -0.669301 -0.00294113)
(56.5379 -0.339525 -0.00338894)
(258.429 113.592 203.482)
(-71.0605 24.6077 35.0244)
(124.681 39.9522 23.1868)
(-63.7354 12.3309 8.97194)
(116.775 11.9672 -6.57328)
(19.4439 -0.659049 -2.14897)
(93.5846 5.77592 -3.84137)
(48.5409 -0.912468 -0.864666)
(81.7472 1.12417 -0.605872)
(58.6885 -2.54019 -0.100004)
(73.5812 -1.58743 -0.0573737)
(60.8954 -2.98787 -0.0034738)
(67.47 -2.25257 -0.0030873)
(60.5118 -2.5357 0.00142128)
(63.2125 -1.89095 0.000352557)
(59.4681 -1.74656 0.000923215)
(60.527 -1.23641 -0.000427573)
(58.434 -0.965407 -0.000350692)
(57.9429 -0.538248 -0.00297483)
(57.1345 -0.221817 -0.00338213)
(99.9801 97.222 -28.7125)
(-76.5424 -6.99614 -27.2812)
(118.036 -44.1608 22.0891)
(-33.4386 -16.5186 9.74064)
(117.332 -12.9017 1.20771)
(29.214 -6.35787 -0.592244)
(95.838 -2.68858 -2.14686)
(51.1174 -3.01513 -0.214474)
(83.0926 0.145203 -0.29169)
(58.6695 -1.47646 -0.00435607)
(74.1335 0.407364 -0.00702163)
(60.445 -0.853703 0.00853162)
(67.6596 0.129302 0.00156394)
(60.1468 -0.571543 0.00291714)
(63.2545 -0.0820343 0.000371269)
(59.2426 -0.380891 0.00114073)
(60.505 -0.103776 -0.000200034)
(58.3224 -0.204351 -0.000131287)
(57.9452 -0.0123863 -0.00298214)
(57.1525 -0.0366563 -0.00348935)
(76.9246 78.6212 -146.917)
(-91.5011 24.59 -54.9953)
(51.1952 8.4691 -46.2704)
(-53.7373 -9.98343 -8.37365)
(55.9022 -7.6758 -0.346069)
(18.901 -10.9515 2.80801)
(57.2107 9.77075 11.0532)
(21.6335 10.6991 7.11455)
(40.1304 14.9495 10.4563)
(26.906 7.93245 6.02763)
(38.9749 5.164 2.83156)
(31.711 2.424 0.995197)
(38.3914 1.11242 0.332985)
(34.912 0.590506 0.106366)
(38.9792 0.106789 0.0319288)
(37.5833 0.100135 0.00952252)
(39.987 -0.0593471 0.00267198)
(38.9041 0.0379105 0.000661011)
(39.1734 -0.0151676 -0.000648591)
(39.3144 0.0763339 -0.000774106)
(-53.6849 103.92 -136.241)
(-173.758 -66.9612 -22.9843)
(17.6833 -65.5959 -13.5213)
(-123.982 -53.3133 1.9002)
(21.3904 -30.5558 -6.82725)
(-53.3744 -19.7009 -13.3594)
(26.5888 -0.277157 -12.5032)
(-11.8001 -0.709977 -5.04399)
(31.499 3.23781 -0.214146)
(16.7472 -0.0522675 0.666235)
(35.6609 -1.10938 0.529701)
(28.7162 -2.01696 0.218279)
(37.2987 -2.3572 0.0908654)
(34.2194 -2.16646 0.0278077)
(38.6788 -1.9842 0.00995229)
(37.5214 -1.58423 0.00358516)
(40.0031 -1.24555 0.00117734)
(39.0427 -0.864936 0.000273462)
(39.3203 -0.515252 -0.000502222)
(39.5166 -0.170632 -0.00064464)
(100.078 -11.2464 -71.7535)
(-52.3273 -21.5329 19.1782)
(72.1109 -37.2334 3.1167)
(-30.333 -41.3367 0.624732)
(47.3726 -38.4488 -2.53816)
(-17.2792 -27.7104 -0.486806)
(36.9308 -12.1419 -1.05317)
(3.85638 -4.29874 0.151758)
(36.0909 -1.07581 0.895539)
(21.6405 -0.243186 0.746229)
(37.5424 -2.28238 0.392545)
(30.6657 -1.61701 0.175717)
(38.4736 -3.00707 0.0651982)
(35.4191 -2.08293 0.0229213)
(39.6668 -2.51564 0.00733525)
(38.4189 -1.65703 0.00277331)
(40.8161 -1.59729 0.000625438)
(39.7597 -0.901483 -5.57545e-05)
(39.9909 -0.65082 -0.000490985)
(40.0917 -0.0706265 -0.000465523)
(226.673 -120.043 61.7069)
(-231.366 -50.0914 -17.6421)
(59.4035 -35.4151 -6.58084)
(-115.956 -34.8867 -21.8002)
(32.6713 -9.23065 -40.005)
(-50.6451 -22.0086 -11.0491)
(34.532 -8.25684 -8.00095)
(-9.75507 -11.0059 -0.391112)
(34.6057 -6.78663 -0.301261)
(15.3113 -6.79276 0.221608)
(35.3289 -6.70286 0.122928)
(28.4477 -5.74033 0.0340245)
(37.249 -5.69373 0.0255623)
(34.8755 -4.5029 0.0090228)
(39.1878 -4.19469 0.00299265)
(38.473 -3.14291 0.00132885)
(40.7891 -2.55214 0.000533948)
(40.0611 -1.67228 9.6935e-05)
(40.2461 -1.00049 -0.00033786)
(40.4725 -0.25585 -0.000508102)
(271.611 -109.756 -61.7103)
(-74.0977 -66.6608 -4.10999)
(68.1371 -77.6319 2.83782)
(-104.696 -47.6515 -12.3195)
(53.6142 -34.501 -8.79672)
(-52.6292 -18.6196 0.798491)
(43.2242 -27.2743 -2.24726)
(-1.30923 -10.5473 0.206097)
(39.2696 -18.5616 -0.513512)
(20.275 -7.11466 -0.0115184)
(38.2438 -12.2069 -0.0665766)
(31.1489 -6.01359 0.00814848)
(39.5826 -8.41349 -0.00344166)
(36.801 -4.91976 0.00180643)
(40.9892 -5.54427 -8.55912e-05)
(40.0267 -3.59045 0.000404218)
(42.2594 -3.23811 -7.57436e-05)
(41.3045 -1.94328 -0.00034077)
(41.4133 -1.31092 -0.000231229)
(41.4867 -0.271492 -0.000161242)
(22.4542 37.3259 82.5321)
(-151.6 -69.8136 6.6744)
(61.5187 -49.8818 -14.2616)
(-120.181 -63.9725 -19.154)
(51.0736 -54.2438 -5.45199)
(-68.534 -22.1802 -1.24031)
(46.8142 -44.897 0.480237)
(-3.84028 -15.0818 0.773568)
(37.6835 -21.2626 0.137763)
(20.5719 -12.2282 0.15733)
(36.1311 -13.5995 0.0364112)
(32.0299 -9.44145 0.0213134)
(38.3524 -9.58519 0.00404593)
(37.7902 -6.84162 0.00217376)
(40.5816 -6.60004 -6.78647e-05)
(40.7835 -4.74319 4.15637e-05)
(42.4973 -3.76987 0.000203375)
(42.0636 -2.4165 -0.00013539)
(41.9864 -1.42348 0.000243876)
(42.1948 -0.350581 0.000161545)
(148.969 88.2016 -48.8683)
(47.2666 -29.4892 22.0283)
(139.407 -51.1598 13.7214)
(-43.9173 -52.4463 -11.5361)
(81.2817 -64.5995 -5.60033)
(-27.2885 -18.9388 0.0904369)
(42.5003 -85.8973 1.6847)
(-2.4282 -1.83261 1.03347)
(32.4456 -40.6355 0.365972)
(19.8588 -9.00347 0.124595)
(38.1702 -22.0148 0.0355732)
(33.2519 -9.67668 0.0113126)
(41.5002 -13.7309 0.00274507)
(39.3427 -7.8706 0.000683482)
(42.9197 -8.19825 -0.000544317)
(42.6783 -5.69343 -0.000486007)
(44.4865 -4.61544 -0.000300815)
(43.5861 -2.94716 -0.000457253)
(43.4615 -1.77971 -0.000764184)
(43.4761 -0.502118 -0.000718323)
(129.258 53.8188 71.8499)
(-49.3608 -94.0973 32.4445)
(114.698 -84.7736 30.3168)
(-45.8874 -67.3882 1.10119)
(80.9736 -78.0442 9.71112)
(-7.06606 1.0342 6.47272)
(48.6348 -39.1022 7.9483)
(-3.5085 -18.1318 3.22614)
(27.5457 -22.7304 0.602077)
(20.7107 -27.1939 0.119532)
(36.8498 -17.3162 0.0412595)
(35.1457 -16.516 0.0187708)
(41.1741 -11.3793 0.0103737)
(40.5132 -9.32208 0.00403425)
(42.9595 -9.33329 -0.00523698)
(44.3584 -6.64948 -0.00316572)
(45.1095 -4.66914 -0.00128434)
(44.7868 -2.89368 -0.000714394)
(44.4708 -1.66865 -0.000167182)
(44.5535 -0.427117 -0.000291075)
(248.554 -97.415 -49.8415)
(-39.0637 -120.326 85.7866)
(129.909 -117.193 32.7563)
(-24.8641 -63.9461 1.93206)
(73.3627 -65.9083 8.34492)
(18.8185 -25.871 3.48075)
(56.1848 -11.3733 8.72639)
(36.7564 -32.4127 3.38554)
(47.6504 -35.6848 -0.25854)
(40.0114 -31.9532 -0.134237)
(41.171 -22.3961 0.0101664)
(40.6412 -18.4148 0.00986743)
(42.6526 -13.8403 0.00975081)
(42.8965 -11.796 0.0028797)
(45.1167 -7.88291 -0.00617098)
(44.8708 -7.77572 -0.00781297)
(46.4533 -5.35472 -0.00424418)
(45.7379 -3.69014 -0.00246693)
(45.7856 -1.94876 -0.00142463)
(45.999 -0.622643 -0.000795633)
(295.804 -108.228 -166.862)
(105.556 -51.2254 16.9677)
(100.367 -94.0257 27.0804)
(-48.1248 -41.8031 13.0584)
(71.8365 -44.7486 24.2997)
(5.67959 -35.6447 8.05039)
(46.02 -28.5318 4.85788)
(50.3124 -30.6956 0.193112)
(48.3767 -31.193 0.192116)
(47.9886 -28.2616 -0.0170639)
(46.5102 -22.7064 0.162611)
(45.8135 -18.4635 0.0690357)
(46.1409 -15.1923 0.15826)
(46.6898 -12.5181 -0.0483409)
(47.4719 -9.11392 -0.00504279)
(47.757 -6.78952 -0.00607131)
(48.2938 -5.64007 -0.00346608)
(47.6198 -3.75913 -0.00257993)
(47.2344 -2.37924 -0.00168616)
(47.308 -0.718609 -0.00104168)
(102.774 79.122 18.6167)
(-75.8556 27.4275 32.3618)
(93.0458 0.68481 16.4341)
(-3.28108 -41.949 19.389)
(81.6911 -27.9969 16.9204)
(15.7174 -39.1517 3.83228)
(38.5609 -39.7666 1.10666)
(51.8153 -37.0899 -0.346761)
(57.4616 -32.4218 -0.16393)
(53.699 -27.3796 -0.859877)
(51.6932 -24.6547 -4.24172)
(49.7372 -18.0456 -0.697237)
(49.8446 -14.7155 -0.454466)
(49.4534 -13.5384 0.532404)
(49.5721 -10.0117 0.000600001)
(49.5414 -7.6079 -0.00476924)
(49.9577 -5.37295 -0.00288529)