/*--------------------------------*- C++ -*----------------------------------*\
  =========                 |
  \\      /  F ield         | OpenFOAM: The Open Source CFD Toolbox
   \\    /   O peration     | Website:  https://openfoam.org
    \\  /    A nd           | Version:  10
     \\/     M anipulation  |
\*---------------------------------------------------------------------------*/
FoamFile
{
    format      ascii;
    class       volVectorField;
    location    "0.3";
    object      U_0;
}
// * * * * * * * * * * * * * * * * * * * * * * * * * * * * * * * * * * * * * //

dimensions      [0 1 -1 0 0 0 0];

internalField   nonuniform List<vector> 
12920
(
(30.2247 239.545 -36.8719)
(-108.506 42.0672 -3.7076)
(76.6019 12.9792 -2.00266)
(29.3708 -3.54494 0.178973)
(101.762 -5.30684 0.403736)
(85.2932 -11.3901 -1.55785)
(112.665 1.9837 -4.40116)
(98.0983 1.46832 -7.71113)
(96.5214 14.6333 -0.106184)
(55.1453 9.90338 2.99821)
(51.5731 5.40644 1.95033)
(38.1648 2.43834 0.657738)
(43.5977 1.13181 0.11984)
(39.5299 0.627955 0.0487989)
(43.3711 0.14323 0.0117353)
(41.8473 0.129232 0.00431389)
(44.0945 -0.0375105 0.000975167)
(42.8682 0.0508055 -7.93961e-05)
(43.5114 -0.0105739 -0.00237827)
(45.2355 0.0711597 -0.0035706)
(132.276 -20.9961 48.6673)
(-117.386 -23.1969 28.0707)
(48.5098 -30.3904 20.8418)
(-80.3305 -21.9386 0.365153)
(36.5669 -13.8506 -8.10733)
(-23.6935 -13.7346 0.134127)
(45.1199 1.22362 0.745304)
(10.0864 1.14658 -0.864534)
(45.0895 7.32031 1.15966)
(26.63 3.08963 1.00191)
(41.9681 0.478372 0.524076)
(34.0265 -1.34338 0.143)
(42.0157 -2.0787 0.0529155)
(38.7563 -1.97988 0.0158669)
(43.0559 -1.83855 0.00445841)
(41.7791 -1.47519 0.00205068)
(44.1052 -1.16592 0.000507316)
(43.0008 -0.815379 -0.000310933)
(43.6517 -0.494902 -0.00194194)
(45.446 -0.178907 -0.00313563)
(181.351 -45.8421 73.4922)
(-8.38325 22.6052 -3.88447)
(99.0003 -4.32361 4.29542)
(-23.3126 -11.5174 1.09281)
(58.1784 -14.2892 -9.1033)
(-7.05437 -12.2142 0.608548)
(46.4431 -5.29904 -0.0744736)
(13.3126 -2.56226 1.24994)
(43.2346 0.825031 0.876414)
(27.9805 1.0162 0.56181)
(42.8133 -1.4918 0.251566)
(35.659 -1.09104 0.0975312)
(43.119 -2.549 0.0258244)
(39.8729 -1.72886 0.00916335)
(43.9803 -2.24179 0.00148413)
(42.622 -1.45188 0.00122057)
(44.8714 -1.45461 -0.000207343)
(43.6743 -0.812298 -0.000838354)
(44.284 -0.614171 -0.00187525)
(46.0117 -0.0832027 -0.0028339)
(-194.916 -38.5612 15.1852)
(-229.698 -8.99922 -4.59286)
(3.28676 5.4795 -7.34924)
(-129.716 1.63964 2.07234)
(32.9534 15.4411 -7.60528)
(-42.646 -8.46964 -0.837126)
(41.2645 -1.10641 -1.25517)
(-3.39758 -7.56724 0.379135)
(40.6516 -4.58297 0.00356538)
(20.9214 -5.30917 0.0833071)
(40.3216 -5.56308 0.0330473)
(33.2711 -4.8827 0.0150859)
(41.7704 -5.01088 0.00691028)
(39.223 -3.96523 0.00368879)
(43.415 -3.77555 0.000799293)
(42.5997 -2.83042 0.000969952)
(44.7753 -2.33271 0.000400936)
(43.9134 -1.53383 -0.000269493)
(44.4785 -0.939452 -0.00168705)
(46.3803 -0.266644 -0.00297488)
(-93.1141 5.08078 35.8202)
(-142.186 -76.9314 -22.2026)
(45.3796 -32.3641 1.18796)
(-121.211 -13.4992 -2.80941)
(62.3016 -7.70605 -1.42782)
(-45.7694 -6.61971 -0.696721)
(49.4573 -19.9607 -1.41585)
(4.51814 -6.62494 -0.290228)
(44.5985 -15.8978 -0.415344)
(25.3669 -5.26952 -0.076683)
(42.8855 -10.7572 -0.0685388)
(35.6753 -4.88189 -0.0106354)
(43.9108 -7.53517 -0.00883344)
(40.9877 -4.21067 -0.00104205)
(45.0731 -5.00712 -0.00141071)
(44.0243 -3.18438 0.000324871)
(46.1345 -2.95535 -0.000434004)
(45.0564 -1.7597 -0.000980115)
(45.5592 -1.22686 -0.00121109)
(47.3525 -0.276394 -0.00202948)
(-27.1497 82.6735 -60.1887)
(-168.404 -42.8728 -16.0849)
(30.0878 -16.136 -1.74729)
(-132.275 -38.6538 -9.62864)
(50.765 -34.7995 -3.23068)
(-66.0923 -13.3705 -2.14042)
(52.9968 -39.4503 -0.937903)
(0.718965 -12.0542 0.184127)
(42.7336 -18.9377 -0.14464)
(25.2089 -10.2748 0.00580066)
(40.4741 -12.0191 -0.0100718)
(36.2878 -8.1689 0.00595277)
(42.4517 -8.58274 0.00296131)
(41.7935 -6.05096 0.00430719)
(44.504 -5.9796 0.00114507)
(44.6624 -4.27102 0.000425865)
(46.2569 -3.43039 0.000160118)
(45.7165 -2.19682 -0.000775688)
(46.0358 -1.31616 -0.000203182)
(48.0199 -0.350659 -0.0011896)
(194.757 31.0491 33.0731)
(9.47518 2.04882 21.4308)
(106.304 3.67268 28.821)
(-56.7416 16.6503 -16.0678)
(92.2766 -16.9256 -9.76043)
(-4.24361 -3.50481 -1.90274)
(51.3843 -76.3626 1.93666)
(4.97307 -0.454474 0.422973)
(37.4054 -38.1485 0.0645741)
(24.4018 -7.25181 -0.0248398)
(42.2092 -20.4792 -0.0659367)
(37.2361 -8.48616 -0.021189)
(45.386 -12.7765 -0.0231228)
(43.171 -7.11954 -0.0111707)
(46.697 -7.55221 -0.00240043)
(46.415 -5.18499 0.0017814)
(48.1105 -4.23693 0.0021481)
(47.1058 -2.69061 0.00122538)
(47.389 -1.65083 -0.00114451)
(49.2507 -0.494443 -0.00273832)
(43.1513 115.62 55.7418)
(-51.6665 26.9961 1.56285)
(98.375 9.89709 11.4696)
(35.1816 22.7921 -3.68446)
(110.377 -29.3943 2.23231)
(45.1091 5.95948 2.84183)
(67.4716 -31.7586 2.72198)
(1.9377 -17.7578 0.149597)
(30.9397 -20.8292 0.13797)
(24.0688 -26.0181 -0.0213617)
(39.8418 -16.0702 -0.0171722)
(38.292 -15.7985 -0.0642787)
(44.3 -10.8774 -0.0135111)
(43.7149 -9.11975 -0.0134129)
(46.6064 -8.65746 -0.0229837)
(47.9215 -6.12907 -0.0148863)
(48.6212 -4.27791 -0.00709789)
(48.2037 -2.63208 -0.00293567)
(48.2961 -1.53268 7.05893e-05)
(50.2658 -0.41771 -0.000731549)
(178.261 -22.812 -3.35471)
(-11.9266 -1.22941 12.7966)
(155.575 -34.2908 20.926)
(91.2732 -14.1831 3.5442)
(121.879 -31.4183 12.5185)
(58.9683 -11.5441 1.60836)
(68.2273 -10.8914 3.66276)
(32.3615 -33.4608 1.08237)
(41.7838 -35.1703 -0.131895)
(40.0205 -30.5648 -0.124935)
(43.0078 -21.2599 -0.0337486)
(42.8483 -17.5602 -0.0329833)
(44.9721 -13.2621 -0.0081561)
(45.2703 -11.3959 -0.00789026)
(48.0681 -7.82109 -0.0262862)
(48.3074 -7.22476 -0.0168014)
(49.7801 -4.946 -0.0176625)
(48.9966 -3.40427 -0.0132893)
(49.4841 -1.78715 -0.00641363)
(51.6476 -0.601612 -0.00236984)
(228.85 -138.835 -64.7581)
(77.5208 -28.7397 -24.1288)
(141.202 -61.7649 -4.95369)
(75.8645 -21.1643 6.09411)
(93.1643 -31.4377 16.3057)
(9.11604 -30.3678 4.20357)
(40.2152 -20.2674 1.41295)
(44.4017 -31.7843 0.200025)
(47.3605 -30.9417 -0.428306)
(49.3005 -26.5929 -0.0649598)
(48.5671 -21.5431 0.0119429)
(48.2331 -17.4574 -0.0395962)
(48.4575 -14.1272 -0.0438932)
(48.9791 -11.6229 0.0320011)
(50.5325 -8.2135 -0.0205491)
(51.0133 -6.18082 -0.0177427)
(51.4924 -5.22283 -0.0110251)
(50.759 -3.48853 -0.00783257)
(50.7905 -2.23754 -0.00311478)
(52.8586 -0.703501 -0.00251612)
(373.151 -107.16 -138.583)
(182.233 -9.87945 -3.78775)
(157.244 8.60199 25.3501)
(17.6884 -37.4756 12.4838)
(91.6518 -24.8172 4.91984)
(28.6938 -44.1049 0.113768)
(41.9595 -45.7248 0.469167)
(51.0198 -36.8116 -0.664341)
(55.1838 -29.7736 -0.479806)
(55.0338 -24.5508 -0.218621)
(53.6658 -20.8736 -0.0525101)
(52.364 -17.5461 -0.0705845)
(52.0594 -14.5472 -0.0865524)
(51.8833 -11.7178 -0.00894578)
(52.5154 -9.20299 0.00179033)
(52.6145 -7.07939 -0.0121904)
(53.0093 -4.97007 -0.00913246)
(52.1708 -3.69418 -0.00706167)
(52.1934 -1.98607 -0.00466009)
(54.2873 -0.766153 -0.00328642)
(103.821 47.2333 -101.023)
(-118.435 -67.3928 32.0892)
(47.9571 -38.5999 12.0693)
(-72.2524 -57.7507 -3.69858)
(71.2993 -42.0892 -3.82136)
(-21.2435 -63.365 -1.81463)
(52.9136 -65.8655 -1.34039)
(62.7477 -37.3105 0.283722)
(61.3247 -25.1579 -0.244207)
(58.2652 -21.2643 -0.146422)
(56.5017 -19.2364 -0.0257477)
(55.049 -16.8156 -0.00671184)
(54.4653 -14.2519 0.00209722)
(53.7903 -11.7425 -0.00134533)
(54.9493 -8.84922 0.00220732)
(54.0855 -5.93405 -0.0242666)
(54.4561 -4.9902 -0.0176752)
(53.485 -3.67893 -0.0101221)
(53.5211 -2.46735 -0.00260038)
(55.5492 -0.914057 -0.000755885)
(228.837 -7.98273 -3.52242)
(38.8 -121.935 25.662)
(126.443 -84.2456 19.5099)
(36.6513 -80.0498 -0.812682)
(127.264 -40.9375 -9.4005)
(70.2132 -68.7956 -9.40023)
(90.4474 -44.5865 -3.57068)
(50.2192 -32.5173 0.482409)
(64.2559 -27.7361 0.350988)
(53.479 -20.8128 -0.0679814)
(63.1255 -17.4297 -0.0610051)
(56.4412 -15.3838 -0.0315221)
(59.5429 -12.6008 -0.0110839)
(55.6336 -10.8786 0.00587928)
(56.3188 -6.69144 -0.0262972)
(56.4373 -6.03323 -0.0144811)
(56.5012 -4.58185 -0.00789739)
(55.6589 -3.73232 -0.00124709)
(55.2972 -2.20119 0.000692651)
(57.0537 -0.921319 -0.00106198)
(356.175 169.103 -86.6042)
(-134.142 -11.7862 21.2594)
(184.278 40.7889 -26.072)
(37.5997 9.21631 -16.5021)
(141.212 27.2794 -19.4823)
(85.3977 1.48778 -17.5086)
(106.066 12.626 -9.48775)
(85.3124 -30.8945 -2.9146)
(84.2839 -18.3215 1.35881)
(66.88 -29.1025 1.17512)
(69.5368 -13.4677 0.711402)
(60.5977 -17.4372 0.23553)
(63.0589 -9.17587 0.0895005)
(58.6248 -10.5494 0.0200563)
(59.687 -6.94574 0.00634907)
(57.8478 -6.28681 0.00280899)
(58.3066 -4.4389 0.00105524)
(56.7336 -3.43602 0.000519115)
(56.4502 -1.97387 -0.0019141)
(58.0806 -0.799872 -0.00315402)
(210.14 -17.9237 -16.3389)
(37.6146 -20.8484 -0.000279574)
(172.984 5.89532 -11.6935)
(100.016 43.7841 -18.3714)
(163.897 37.3109 -17.2146)
(140.475 24.8535 -12.4667)
(161.979 6.48999 -1.26463)
(130.24 -20.1022 4.2022)
(107.554 -14.0154 5.90294)
(76.6258 -19.7406 2.28856)
(74.9153 -11.2539 0.504078)
(65.891 -12.6114 0.19514)
(65.9374 -7.87348 0.0582408)
(62.1404 -8.39596 0.0199597)
(61.953 -5.48106 0.00475829)
(59.8629 -5.14065 0.00113672)
(59.833 -3.5272 -0.000510314)
(58.3054 -2.87816 -0.000660856)
(57.8595 -1.61249 -0.00316081)
(59.4981 -0.695309 -0.00376965)
(160.561 -12.6127 13.3488)
(166.539 10.8154 0.686607)
(230.122 45.6405 10.9934)
(181.781 46.4901 6.8031)
(197.014 39.1892 8.38216)
(165.45 5.90439 10.1474)
(158.94 7.26562 11.4334)
(106.945 -11.1957 7.07746)
(98.681 1.87353 4.20436)
(71.8316 -11.2355 1.25505)
(76.1231 -4.13835 0.480375)
(63.6009 -9.71736 0.122416)
(67.4116 -4.86659 0.045283)
(61.0494 -6.85372 0.0124645)
(62.9575 -4.19193 0.00365016)
(59.8507 -4.43811 0.00151212)
(60.6713 -2.85981 -3.74424e-05)
(58.7527 -2.44778 -0.000191497)
(58.5966 -1.22979 -0.00295099)
(60.1469 -0.565283 -0.00361995)
(223.114 -171.099 69.5618)
(160.64 -44.6315 10.3372)
(194.671 19.3997 1.31767)
(128.385 -1.80474 6.28172)
(154.093 -13.661 18.1334)
(81.411 -29.5638 9.30147)
(111.224 -6.74734 8.29137)
(67.457 -11.0541 2.92574)
(87.5837 -0.784049 1.71709)
(66.3396 -7.89223 0.583356)
(75.6555 -3.93246 0.228546)
(64.6288 -7.06659 0.0734112)
(68.6476 -4.38653 0.0257352)
(62.759 -5.29154 0.00842812)
(64.3246 -3.51443 0.00201517)
(61.2198 -3.4737 0.0009396)
(61.7539 -2.32161 -0.000333848)
(59.8539 -1.92083 -0.000340429)
(59.5794 -1.0361 -0.00284603)
(61.1503 -0.46008 -0.00355451)
(316.68 -30.6464 -49.6784)
(252.828 21.4649 -34.0052)
(207.39 28.068 2.80456)
(97.0999 -8.26482 -1.95707)
(137.35 -20.7189 1.27692)
(73.4557 -25.8726 -5.37181)
(106.961 -9.71868 -1.36616)
(65.7551 -10.6756 -0.912483)
(88.1529 0.995664 0.323846)
(63.8072 -5.12082 0.104677)
(76.4523 -0.237769 0.118546)
(62.9705 -4.2607 0.0366127)
(69.3023 -1.64048 0.0173276)
(61.9492 -3.3468 0.00598565)
(64.8077 -1.80871 0.0013108)
(61.0129 -2.29736 0.00105939)
(62.2007 -1.34621 -0.000224383)
(60.0485 -1.31984 -8.5992e-05)
(60.0097 -0.597162 -0.00266177)
(61.5087 -0.324304 -0.00343183)
(117.222 91.6568 -124.907)
(-12.3959 13.7071 -59.8793)
(124.324 36.7144 -23.1364)
(-7.88218 22.0165 -11.6028)
(109.751 20.4192 -1.06882)
(27.7036 3.89493 -6.05463)
(94.2323 6.87005 -2.62427)
(49.3409 -0.343733 -1.35161)
(83.0929 1.68167 -0.50408)
(59.963 -2.11707 -0.137841)
(75.331 -1.18688 -0.0479926)
(62.6444 -2.65316 -0.00612118)
(69.4642 -1.96664 -0.0025181)
(62.553 -2.30363 0.00113707)
(65.3976 -1.69951 0.000334331)
(61.7043 -1.59454 0.000814246)
(62.806 -1.12284 -0.000439908)
(60.6801 -0.886517 -0.000278223)
(60.5833 -0.49373 -0.00266566)
(62.074 -0.211965 -0.00340786)
(107.225 74.3344 -30.7872)
(124.907 59.1712 2.60216)
(186.723 4.2424 24.2605)
(55.0403 -10.8174 17.1752)
(115.094 -12.9805 19.3552)
(37.0957 -5.45868 1.42797)
(95.8508 -2.764 1.60812)
(51.7099 -2.97182 0.0419094)
(84.3316 0.30386 0.0206284)
(59.8633 -1.34548 -0.00996674)
(75.8384 0.560985 -0.00290725)
(62.1262 -0.740179 0.00233816)
(69.6072 0.239062 -0.000525381)
(62.1324 -0.495033 0.00178503)
(65.4033 -0.0157224 1.89698e-05)
(61.4425 -0.331435 0.000937291)
(62.7506 -0.0654922 -0.000253917)
(60.5379 -0.179131 -0.0001069)
(60.5547 0.00285343 -0.00265458)
(62.0642 -0.0328334 -0.00349691)
(-12.8449 228.807 -28.2305)
(-173.691 16.3863 -36.165)
(65.283 -0.636818 -37.4331)
(2.57112 -22.8867 -15.136)
(94.9355 -31.2203 -4.74428)
(82.9921 -37.7346 -2.89073)
(115.344 -14.1554 4.62906)
(79.4318 -2.98538 7.61851)
(70.2308 14.947 11.9899)
(41.3192 8.70559 7.94957)
(47.4027 5.57804 4.00125)
(37.9388 2.65956 1.37312)
(43.6116 1.19815 0.319798)
(39.7625 0.636556 0.103629)
(43.6266 0.148004 0.0268672)
(42.1221 0.131849 0.00862188)
(44.3667 -0.0352969 0.00209774)
(43.1463 0.0524171 -4.18754e-05)
(43.7849 -0.00954666 -0.00312032)
(45.5015 0.0718166 -0.00408523)
(42.0732 123.033 25.4805)
(-232.032 -1.08325 6.95301)
(65.1573 -6.05045 -15.908)
(-50.5595 -18.691 -1.29626)
(32.5794 -25.8647 -3.47568)
(-37.6347 -19.4965 -7.07016)
(37.4298 -1.69459 -5.48632)
(-2.00182 -1.76505 -3.01783)
(39.2079 4.87243 1.57229)
(23.6078 1.39632 1.34268)
(41.3389 -0.42745 0.695828)
(33.986 -1.62509 0.203471)
(42.2084 -2.11674 0.0759564)
(39.0046 -1.99391 0.0230496)
(43.3096 -1.84182 0.00706285)
(42.0425 -1.47668 0.00310129)
(44.3652 -1.1666 0.000783225)
(43.2658 -0.816079 -0.000571738)
(43.9128 -0.494939 -0.00273471)
(45.7024 -0.178792 -0.00365253)
(162.858 50.5889 21.9152)
(-62.5641 -16.7375 13.6416)
(103.338 -21.6085 2.66453)
(36.0725 -17.7907 -3.90016)
(67.546 -21.1822 -5.28758)
(1.26863 -17.2489 -4.45009)
(45.8814 -7.7006 -3.06061)
(12.9574 -2.33263 -0.996475)
(42.8405 0.65221 0.368378)
(27.9905 0.99485 0.430055)
(42.974 -1.49372 0.264415)
(35.9017 -1.06194 0.121431)
(43.3708 -2.53211 0.0444673)
(40.1478 -1.72042 0.0170185)
(44.2452 -2.23453 0.00448995)
(42.8928 -1.44866 0.00238888)
(45.1367 -1.45134 8.76912e-05)
(43.9415 -0.810786 -0.00116811)
(44.5454 -0.612727 -0.00267784)
(46.27 -0.0825728 -0.00328635)
(-112.965 -162.568 94.8644)
(-211.473 -77.0461 -63.901)
(-12.8768 -21.8756 -1.53382)
(-132.105 -17.5193 -26.2981)
(32.3084 8.50191 -20.1878)
(-39.9692 -11.2022 -7.83434)
(41.7493 -0.685926 -4.48395)
(-2.28241 -7.09018 -0.514932)
(40.8599 -4.37787 -0.40873)
(21.2417 -5.24984 0.0401369)
(40.5307 -5.56604 0.0473174)
(33.5206 -4.88092 0.0153169)
(42.0111 -5.00549 0.0126811)
(39.4803 -3.96175 0.00597847)
(43.6674 -3.77155 0.00130113)
(42.8596 -2.82878 0.00125012)
(45.0336 -2.33107 0.000397273)
(44.1774 -1.53326 -0.000618883)
(44.7395 -0.938492 -0.00245408)
(46.6377 -0.265986 -0.00344658)
(163.741 -159.924 -39.8741)
(-121.988 -90.8719 -30.3675)
(47.6363 -43.0542 0.989637)
(-125.75 -22.8195 -4.73135)
(63.7804 -9.36019 -4.11105)
(-44.7237 -5.74395 2.62673)
(49.7052 -18.4918 0.779904)
(5.39733 -5.84137 0.612885)
(44.8994 -15.4215 0.120921)
(25.8184 -5.10173 0.129753)
(43.1598 -10.6721 0.0169691)
(35.9795 -4.86019 0.0251833)
(44.1757 -7.51634 0.00400438)
(41.2678 -4.20776 0.00375157)
(45.3415 -5.00068 -3.19973e-05)
(44.2985 -3.18402 0.000713412)
(46.404 -2.95316 -0.000481371)
(45.3285 -1.75948 -0.00145042)
(45.8241 -1.22538 -0.00193884)
(47.6214 -0.275637 -0.00235416)
(108.476 31.7497 -80.1745)
(-130.878 -10.6473 -45.6387)
(42.9954 -9.8999 -17.7536)
(-128.276 -43.3765 -21.0404)
(55.2593 -36.6988 -7.72829)
(-60.5722 -13.6322 -2.33994)
(52.9844 -38.7689 -0.956633)
(1.97773 -11.9086 0.595559)
(42.939 -18.7198 -0.0351599)
(25.5711 -10.2522 0.0937343)
(40.706 -11.9972 0.0180591)
(36.5443 -8.16626 0.0180999)
(42.6937 -8.57724 0.00491644)
(42.0478 -6.05076 0.00421961)
(44.7578 -5.97427 0.000166005)
(44.9185 -4.26872 0.000220595)
(46.5143 -3.42819 0.000261845)
(45.9787 -2.19488 -0.00102471)
(46.2951 -1.31496 -0.000707871)
(48.2881 -0.350393 -0.00153229)
(146.292 63.0666 44.7532)
(-125.286 34.7361 -29.1523)
(137.274 -0.504028 -12.3813)
(-40.7376 -19.4603 -12.9698)
(84.4436 -45.4174 -8.62705)
(-19.0346 -11.0716 1.26209)
(49.1038 -80.1182 3.40931)
(4.18137 -0.0307702 1.32096)
(37.6187 -37.8799 0.580724)
(24.7734 -7.21901 0.13058)
(42.4411 -20.3825 0.0200196)
(37.5131 -8.45255 0.00354899)
(45.6139 -12.7326 -0.00760041)
(43.429 -7.10121 -0.00462944)
(46.9556 -7.53875 -0.00100849)
(46.678 -5.18547 0.000773139)
(48.3759 -4.23916 0.0010964)
(47.3777 -2.69358 0.000321454)
(47.658 -1.65182 -0.00179379)
(49.5135 -0.494391 -0.00305114)
(58.1359 142.68 83.1697)
(-82.1599 -5.72078 -18.2334)
(91.6229 -36.354 -15.7001)
(-16.5417 -36.0013 -0.55238)
(87.0933 -61.947 12.6363)
(11.7615 2.18487 7.81072)
(56.4189 -35.8257 9.30877)
(3.96941 -18.2797 2.76837)
(31.8131 -21.0499 0.459296)
(25.2512 -25.97 0.0725085)
(40.6993 -16.3774 0.0499269)
(39.218 -15.8845 0.0154735)
(45.0533 -11.0103 0.0195652)
(44.4566 -9.17569 0.00637615)
(46.9252 -8.66869 -0.0034404)
(48.2107 -6.12073 -0.00259853)
(48.8762 -4.26934 -0.0025697)
(48.4508 -2.6228 -0.00138638)
(48.5411 -1.52487 -0.000259925)
(50.5231 -0.413208 -0.00135565)
(286.449 -149.647 -105.015)
(-86.9496 -61.4711 5.91263)
(127.15 -77.317 -6.46578)
(-10.1037 -50.8913 3.50169)
(84.1823 -58.0974 15.9445)
(36.4967 -26.0424 3.98697)
(70.4027 -10.1638 9.7074)
(42.6401 -32.0085 2.25113)
(49.7438 -34.0989 -0.433574)
(43.4868 -30.7132 -0.145925)
(44.843 -21.5788 0.0111138)
(44.4347 -17.7557 0.00538756)
(46.3829 -13.4081 0.0118285)
(46.7034 -11.4989 0.00892264)
(48.7714 -7.90493 -0.0103381)
(48.6673 -7.23367 -0.00319707)
(50.1002 -4.94141 -0.00728187)
(49.2813 -3.41057 -0.00798614)
(49.7295 -1.79297 -0.00432436)
(51.8913 -0.604028 -0.00240019)
(371.375 -263.62 215.366)
(141.934 -93.499 63.6175)
(131.078 -101.927 -1.98908)
(14.4841 -49.4245 11.5875)
(75.3246 -46.3932 24.8767)
(22.7398 -34.4783 10.0489)
(50.2985 -26.2574 6.14035)
(53.2364 -27.782 1.60015)
(51.5375 -29.0781 0.000733893)
(51.2036 -26.4361 -0.0325719)
(49.9921 -21.5452 0.184905)
(49.3117 -17.414 -0.0175733)
(49.7935 -14.1155 0.0206197)
(50.3896 -11.6635 0.0455002)
(51.2485 -8.26187 -0.0221272)
(51.326 -6.21361 0.00537987)
(51.7869 -5.23008 0.000127701)
(51.0317 -3.48048 -0.00312702)
(51.0502 -2.22489 -0.00264325)
(53.1195 -0.697307 -0.00311841)
(214.019 -89.4723 94.1851)
(36.6023 31.7179 95.5711)
(122.179 18.6009 49.2684)
(32.3105 -37.0185 22.2205)
(86.406 -29.3939 11.4809)
(25.1851 -43.2706 4.11951)
(43.7824 -42.5759 1.27073)
(54.0832 -37.1348 -0.438811)
(59.7669 -30.8023 -0.253822)
(56.927 -24.7134 0.0369587)
(54.8423 -21.251 -0.673597)
(53.6492 -17.8574 -0.259689)
(53.2957 -14.9158 -0.241278)
(52.7203 -11.6341 0.128125)
(53.1967 -9.21067 0.0140386)
(52.9326 -7.07399 0.00391463)
(53.3073 -4.97223 -0.0012961)
(52.4513 -3.70335 -0.00384902)
(52.4574 -1.99529 -0.00372387)
(54.5475 -0.770563 -0.00363648)
(9.96334 -72.1864 36.4083)
(-108.088 -45.8272 25.5735)
(73.0506 -26.7456 14.3177)
(-56.1245 -42.7103 -2.24665)
(70.8088 -31.5203 -7.62644)
(-15.9715 -53.5241 -4.89389)
(56.0682 -58.5467 -4.644)
(70.4412 -40.3425 -1.19559)
(66.5868 -28.5007 -0.31277)
(60.1978 -21.4864 0.0467898)
(57.8736 -19.2182 0.0157736)
(56.4056 -16.846 0.0166792)
(55.7683 -14.2742 0.0468775)
(55.1738 -11.7642 0.012881)
(55.5791 -8.86309 -0.00533036)
(54.4249 -5.93011 -0.00791619)
(54.7439 -4.99646 -0.00765683)
(53.7364 -3.67681 -0.00546022)
(53.7511 -2.46278 -0.00240735)
(55.7901 -0.913246 -0.00191524)
(247.613 158.798 108.613)
(139.949 -44.9581 2.42422)
(146.355 -50.3937 -34.8795)
(57.4506 -61.8711 -32.3271)
(126.248 -37.1445 -26.9013)
(64.3519 -68.1611 -14.4101)
(85.0356 -40.1221 -7.45935)
(49.0137 -29.918 -0.142687)
(64.9415 -26.5051 0.604902)
(54.3069 -20.6867 0.209909)
(63.6076 -17.4381 0.144727)
(57.0484 -15.3973 0.03976)
(60.0798 -12.6346 0.0193745)
(56.2275 -10.8982 0.0106684)
(56.6411 -6.67459 -0.00552701)
(56.7294 -6.0348 -0.00425295)
(56.7533 -4.58599 -0.00397435)
(55.903 -3.73896 -0.00107562)
(55.5474 -2.21247 -0.000610428)
(57.3135 -0.928573 -0.00225249)
(211.887 64.6206 -62.8445)
(-58.9651 -41.4114 -9.53304)
(172.635 33.6709 -71.4576)
(40.5927 -12.1291 -25.3985)
(139.908 4.5264 -25.341)
(65.4007 -28.048 -11.7674)
(93.7094 1.25241 -2.28791)
(65.9149 -41.9945 0.780436)
(75.7162 -18.6814 3.36199)
(62.615 -28.9855 1.68875)
(68.3446 -13.2837 0.914509)
(60.3505 -17.3774 0.275639)
(63.1817 -9.1754 0.109211)
(58.8615 -10.5529 0.0262502)
(59.9553 -6.95185 0.0085225)
(58.1287 -6.28776 0.00348897)
(58.5881 -4.44101 0.00127501)
(57.0191 -3.43832 0.000182336)
(56.731 -1.97747 -0.00270764)
(58.3462 -0.802184 -0.00414882)
(309.558 -36.1152 -75.9151)
(123.356 -84.6273 -13.3611)
(180.679 -77.1372 -14.3294)
(108.64 -44.1626 -3.13502)
(157.492 -38.9879 2.91901)
(106.371 -44.3545 4.81445)
(128.192 -32.6061 11.4416)
(94.8658 -36.3211 9.22004)
(92.6442 -20.1419 8.79908)
(75.112 -20.1418 3.6706)
(74.2565 -11.1954 0.886898)
(65.9746 -12.6163 0.278724)
(66.154 -7.8849 0.0781656)
(62.4178 -8.39547 0.02382)
(62.2382 -5.48499 0.00622572)
(60.1526 -5.14129 0.00195051)
(60.1191 -3.52863 7.91491e-05)
(58.5916 -2.87945 -0.000594552)
(58.1407 -1.61445 -0.00350127)
(59.7633 -0.696515 -0.00449406)
(166.507 25.4844 -39.2868)
(80.3564 13.5922 -7.48689)
(180.084 10.1904 1.85566)
(142.536 -16.4376 12.9486)
(174.453 -12.5682 25.9163)
(131.247 -29.396 22.7586)
(132.447 -6.00704 20.7557)
(88.2036 -16.1332 10.4495)
(92.4652 0.157421 5.89735)
(69.4473 -12.0555 1.68398)
(75.7932 -4.17154 0.662962)
(63.6746 -9.73093 0.15816)
(67.6392 -4.87373 0.0591275)
(61.3245 -6.85124 0.0151813)
(63.2355 -4.1953 0.00487088)
(60.1378 -4.43715 0.00185009)
(60.9539 -2.86171 -4.35555e-05)
(59.0386 -2.44838 -0.000453459)
(58.8774 -1.23136 -0.00344766)
(60.4133 -0.565796 -0.00438739)
(287.747 -169.262 7.00581)
(104.546 -78.6717 17.7512)
(169.976 -27.4166 15.8313)
(47.2753 -42.4766 16.7599)
(130.313 -23.9439 34.3279)
(49.1839 -25.8241 11.4635)
(103.639 -0.00415176 9.73454)
(61.0637 -8.66413 3.26771)
(86.1232 -0.314694 1.71536)
(65.7009 -7.86286 0.529902)
(75.6819 -3.97618 0.152136)
(64.8432 -7.07849 0.0419056)
(68.9097 -4.39618 0.0109144)
(63.0485 -5.29044 0.00338358)
(64.6093 -3.51635 0.000247198)
(61.511 -3.47313 0.000536051)
(62.0393 -2.32259 -0.000444238)
(60.1409 -1.92105 -0.000513309)
(59.8617 -1.0368 -0.00325519)
(61.4187 -0.460438 -0.00428076)
(280.888 -77.1883 -25.8265)
(18.7447 24.7216 62.286)
(156.572 10.7065 60.1181)
(7.06304 0.180252 11.0314)
(132.443 -5.10057 3.59779)
(53.7396 -7.32863 -0.602841)
(102.431 3.92049 2.02369)
(60.3556 -4.48646 0.643736)
(86.8961 3.06685 0.852731)
(63.1321 -4.56958 0.247316)
(76.4663 -0.122768 0.156304)
(63.1461 -4.23224 0.0423611)
(69.5444 -1.63917 0.0185803)
(62.2294 -3.34104 0.00601147)
(65.0835 -1.80824 0.00141008)
(61.2995 -2.29488 0.00116616)
(62.4818 -1.34628 -0.000217253)
(60.3337 -1.31925 -0.000219046)
(60.2909 -0.597632 -0.00302357)
(61.7775 -0.324159 -0.00412698)
(260.256 105.728 158.39)
(-70.3975 28.8598 32.0525)
(126.059 43.1667 22.3716)
(-65.9671 13.7706 8.75774)
(116.745 12.4268 -6.61946)
(19.773 -0.00525428 -2.15572)
(94.8823 6.35732 -3.88571)
(49.6777 -0.408369 -0.91521)
(83.4383 1.55663 -0.607224)
(60.3556 -2.15364 -0.101983)
(75.6046 -1.23408 -0.058996)
(62.9427 -2.6636 -0.00358915)
(69.7354 -1.97421 -0.00302113)
(62.8399 -2.30433 0.00149545)
(65.6768 -1.70069 0.000350813)
(61.9937 -1.59471 0.000960606)
(63.0898 -1.12352 -0.000476279)
(60.9668 -0.886905 -0.000415775)
(60.8656 -0.494221 -0.00303583)
(62.344 -0.212211 -0.00409637)
(96.3046 95.3769 15.3703)
(-74.2733 -6.9239 -21.9156)
(118.676 -44.4308 22.9462)
(-36.585 -16.2558 9.1869)
(117.717 -12.6317 1.10174)
(29.7229 -6.0753 -0.61554)
(97.1802 -2.24864 -2.16934)
(52.0866 -2.76233 -0.221075)
(84.7222 0.433528 -0.290561)
(60.219 -1.29828 -0.00539798)
(76.106 0.581506 -0.00785365)
(62.4309 -0.729316 0.00839581)
(69.8817 0.242297 0.00144281)
(62.4295 -0.491109 0.00294542)
(65.6895 -0.0148093 0.000343947)
(61.7399 -0.329838 0.00117155)
(63.0426 -0.0650896 -0.000262537)
(60.8339 -0.178445 -0.000223969)
(60.8467 0.00299119 -0.00305196)
(62.3438 -0.0325905 -0.00421888)
(90.5254 96.506 -98.7002)
(-77.6312 27.9452 -51.3115)
(63.4314 10.3352 -46.5355)
(-37.6836 -9.20876 -8.1875)
(67.3679 -7.44228 -0.00471372)
(29.711 -10.3684 2.77027)
(65.8338 10.4199 11.1803)
(29.5785 11.1961 7.05952)
(46.8366 15.2453 10.4811)
(33.2937 8.22415 6.0238)
(44.6509 5.35805 2.82493)
(37.063 2.55576 1.01267)
(43.3852 1.15428 0.337184)
(39.6955 0.62134 0.106391)
(43.6089 0.14364 0.0316058)
(42.117 0.130844 0.00940335)
(44.3651 -0.03543 0.00247167)
(43.1453 0.0524523 0.000274533)
(43.7844 -0.00946012 -0.00134717)
(45.5017 0.0718752 -0.00161489)
(-43.7605 93.516 -141.557)
(-165.137 -69.498 -25.8983)
(28.8486 -62.4019 -13.393)
(-111.247 -51.2967 2.56077)
(32.6218 -27.7606 -6.72907)
(-42.7286 -17.7465 -13.4636)
(35.0324 1.33129 -12.6433)
(-3.69289 0.417355 -5.00062)
(38.1049 4.11572 -0.099846)
(23.0962 0.643821 0.71916)
(41.17 -0.704916 0.547023)
(33.9134 -1.7306 0.211223)
(42.1861 -2.15213 0.0884763)
(38.9956 -2.0049 0.0283838)
(43.307 -1.84489 0.0100982)
(42.0415 -1.47739 0.00369874)
(44.3647 -1.16668 0.00108165)
(43.2654 -0.81606 -0.000119414)
(43.9126 -0.494857 -0.00119585)
(45.7029 -0.178706 -0.00146229)
(130.282 -22.3176 -80.6877)
(-15.4595 -25.0303 15.8744)
(89.3159 -34.1417 3.578)
(-15.2619 -38.7492 0.535628)
(58.375 -35.5896 -2.67896)
(-7.6288 -25.2928 -0.706081)
(44.764 -10.2126 -1.16447)
(11.3787 -2.99242 0.050732)
(42.4584 -0.0582215 0.840891)
(27.577 0.570084 0.692304)
(42.8115 -1.69427 0.359598)
(35.8191 -1.13757 0.166348)
(43.3426 -2.5557 0.064068)
(40.136 -1.72667 0.0229238)
(44.2417 -2.23636 0.00720311)
(42.8916 -1.44916 0.00282688)
(45.1362 -1.45148 0.000503737)
(43.9411 -0.810797 -0.000467252)
(44.5453 -0.61273 -0.0011786)
(46.2705 -0.0825574 -0.00126103)
(249.472 -98.6676 19.9329)
(-206.205 -38.2316 -25.5698)
(76.5859 -23.4551 -7.59726)
(-103.195 -27.4947 -22.1535)
(43.4077 -4.59819 -40.2979)
(-40.8696 -18.0827 -11.3568)
(41.8619 -5.28289 -8.03181)
(-2.53362 -8.85648 -0.480677)
(40.7624 -5.19967 -0.302184)
(21.236 -5.5538 0.155505)
(40.504 -5.67335 0.132104)
(33.5064 -4.9127 0.0364004)
(42.0109 -5.01621 0.0259135)
(39.4784 -3.9646 0.00990164)
(43.6668 -3.77246 0.00312584)
(42.8594 -2.82911 0.00136571)
(45.0334 -2.33121 0.000395841)
(44.1771 -1.53333 -0.000312116)
(44.7394 -0.938453 -0.00103944)
(46.638 -0.265936 -0.00131465)
(288.605 -72.3599 -65.3013)
(-55.1987 -43.82 -5.98156)
(81.1643 -60.931 2.04432)
(-97.4039 -36.9486 -12.7068)
(61.1248 -26.9066 -9.27989)
(-44.5542 -14.101 0.449437)
(49.1594 -22.9445 -2.01026)
(4.8075 -7.60141 0.379017)
(44.735 -16.0902 -0.528111)
(25.6502 -5.33254 0.00233175)
(43.1054 -10.7568 -0.0717369)
(35.9518 -4.87831 0.00907086)
(44.1649 -7.52386 -0.00291425)
(41.2635 -4.20982 0.0019754)
(45.34 -5.00149 -9.83758e-05)
(44.298 -3.18425 0.000392466)
(46.4037 -2.95313 -0.000225148)
(45.3282 -1.75944 -0.00076701)
(45.8241 -1.22524 -0.000948919)
(47.6217 -0.275588 -0.000952997)
(14.6809 70.1384 96.5711)
(-153.255 -44.3854 0.246838)
(66.7203 -34.7095 -12.4138)
(-117.046 -53.4893 -19.5636)
(55.9614 -46.1271 -5.09661)
(-62.1217 -17.0317 -0.897148)
(52.5775 -40.775 0.637766)
(1.54426 -12.2813 0.982758)
(42.7219 -18.7774 0.17623)
(25.4834 -10.2714 0.174636)
(40.6663 -11.9898 0.0395776)
(36.5306 -8.16628 0.023745)
(42.6885 -8.57433 0.00436506)
(42.0466 -6.04945 0.00208012)
(44.7578 -5.97419 -0.000188251)
(44.9191 -4.26928 -2.65604e-05)
(46.5145 -3.4286 2.78354e-05)
(45.9787 -2.19511 -0.000575035)
(46.2953 -1.3149 -0.000418239)
(48.2886 -0.350364 -0.00061474)
(139.14 97.8115 -44.4973)
(34.9492 -11.8097 23.0877)
(138.33 -42.7439 16.0403)
(-44.0666 -43.8582 -11.1397)
(83.4548 -58.1538 -5.56473)
(-24.0091 -14.0542 0.195468)
(46.4645 -82.1453 1.81511)
(2.4646 0.8196 1.08118)
(37.1067 -37.9703 0.382479)
(24.4514 -7.14109 0.14198)
(42.364 -20.3779 0.0396898)
(37.4737 -8.44564 0.012019)
(45.6049 -12.7304 0.00289884)
(43.4225 -7.10155 0.000641735)
(46.9524 -7.54182 -0.000659171)
(46.6759 -5.18598 -0.000521827)
(48.3738 -4.23877 -0.00043126)
(47.3749 -2.69309 -0.000807233)
(47.6554 -1.65154 -0.00137629)
(49.5127 -0.49451 -0.00148415)
(128.796 53.8868 72.2973)
(-61.2477 -83.3279 36.6209)
(110.352 -79.935 30.2315)
(-44.2604 -61.7371 0.765899)
(82.5798 -73.6521 9.98235)
(-3.62551 4.6628 6.59239)
(51.3858 -36.7005 8.09173)
(1.37989 -16.1048 2.99743)
(31.4458 -20.7167 0.580459)
(25.0398 -26.0286 0.134171)
(40.6698 -16.3677 0.0456203)
(39.2051 -15.8885 0.019945)
(45.0555 -11.0109 0.0109041)
(44.452 -9.17504 0.00425903)
(46.9232 -8.66737 -0.00539613)
(48.2134 -6.12378 -0.0031926)
(48.8765 -4.26899 -0.00140846)
(48.4507 -2.62098 -0.00103802)
(48.5413 -1.52381 -0.000732021)
(50.5242 -0.413002 -0.00101667)
(251.815 -97.3776 -14.0594)
(-58.8042 -121.167 91.7102)
(123.032 -114.15 34.0686)
(-24.3436 -60.9268 1.54025)
(73.7748 -62.3615 8.63272)
(20.49 -22.2068 3.63761)
(57.9288 -8.69331 8.8622)
(40.6923 -30.4538 3.36792)
(50.9655 -34.1762 -0.24338)
(43.7399 -30.804 -0.128766)
(44.8558 -21.5549 0.0105192)
(44.4287 -17.7411 0.00988276)
(46.3843 -13.4044 0.00947384)
(46.7042 -11.4946 0.00294856)
(48.7595 -7.89807 -0.00615278)
(48.6641 -7.22916 -0.00763497)
(50.1035 -4.94065 -0.00430307)
(49.2827 -3.41029 -0.00266512)
(49.7277 -1.79261 -0.00179181)
(51.8901 -0.603826 -0.00147171)
(304.59 -149.969 -118.64)
(90.9878 -64.9759 31.2035)
(96.4823 -99.9851 27.8902)
(-46.0755 -43.3273 14.0749)
(74.2977 -42.966 24.9891)
(8.60507 -32.8511 8.1873)
(48.7371 -25.3633 4.93198)
(53.4842 -27.9207 0.132149)
(51.6648 -28.9272 0.175791)
(51.3399 -26.4159 -0.00839184)
(50.0036 -21.1644 0.152369)
(49.3573 -17.1779 0.0481858)
(49.7115 -14.0649 0.15236)
(50.2665 -11.5937 -0.0473308)
(51.142 -8.31189 -0.0048259)
(51.3174 -6.21776 -0.00575093)
(51.7886 -5.2323 -0.00341164)
(51.0339 -3.48119 -0.00275371)
(51.0506 -2.22431 -0.00206962)
(53.1198 -0.696912 -0.00170733)
(97.6189 80.3851 14.4347)
(-52.3518 20.502 34.8157)
(100.04 -3.17732 12.1702)
(3.59255 -42.0986 19.5951)
(86.4815 -26.4194 17.3658)
(18.8047 -37.3579 3.93596)
(41.129 -37.5569 1.11666)
(54.4932 -34.9018 -0.363572)
(60.382 -30.4146 -0.149092)
(56.5734 -25.3257 -2.68156)
(55.1562 -22.988 -3.88782)
(53.2259 -16.6651 -0.654909)
(53.2181 -13.565 -0.4661)
(52.8389 -12.588 0.532597)
(53.0635 -9.26215 0.00105829)
(52.9358 -7.07402 -0.00460065)
(53.3145 -4.97022 -0.00279263)