/*--------------------------------*- C++ -*----------------------------------*\
  =========                 |
  \\      /  F ield         | OpenFOAM: The Open Source CFD Toolbox
   \\    /   O peration     | Website:  https://openfoam.org
    \\  /    A nd           | Version:  10
     \\/     M anipulation  |
\*---------------------------------------------------------------------------*/
FoamFile
{
    format      ascii;
    class       volScalarField;
    location    "3.8";
    object      k_0;
}
// * * * * * * * * * * * * * * * * * * * * * * * * * * * * * * * * * * * * * //

dimensions      [0 2 -2 0 0 0 0];

internalField   nonuniform List<scalar> 
12920
(
679.254
1473.63
1357.82
1214.48
912.225
636.171
471.399
379.099
311.174
258.336
215.726
185.121
166.078
148.546
123.032
92.7605
70.3613
58.939
54.8795
52.7586
211.989
1277.4
1507.2
1448.48
1127.42
824.811
682.762
613.793
496.383
403.549
320.961
260.928
213.358
178.5
153.024
135.3
121.393
112.337
108.921
109.12
436.206
1900.34
1813.31
1409.66
1021.83
899.203
801.548
777.584
717.794
669.781
601.874
514.445
391.406
285.309
206.674
154.892
129.627
121.924
121.102
120.129
42.1824
357.193
897.488
972.036
816.471
714.163
661.16
658.189
642.486
620.065
572.144
479.24
364.469
264.245
197.694
160.471
146.151
138.649
135.284
126.679
29.5107
704.607
1264.13
1054.92
796.028
649.135
533.255
497.119
466.76
444.751
395.37
330.394
272.075
233.468
214.274
197.654
176.232
150.448
139.591
124.33
954.91
1346.6
1286.95
1030.99
802.653
620.06
478.66
427.617
385.184
361.579
325.205
293.608
263.144
237.144
211.044
177.274
149.105
129.254
122.419
110.788
467.07
1221.2
872.182
895.936
843.031
712.623
554.323
420.291
341.062
309.977
286.019
268.257
248.191
220.948
185.391
151.999
132.779
119.566
114.749
105.096
2010.23
2608.4
1578.97
1375.93
1048.8
890.53
525.218
359.121
267.725
185.798
158.294
154.56
151.795
137.507
154.476
126.292
115.728
111.353
108.482
100.279
1671.49
2819.27
2095.76
1585.14
1208.77
664.802
406.344
254.288
199.052
132.482
126.551
92.8178
81.7955
72.7544
87.5781
113.861
110.739
103.721
99.1321
93.326
6776.12
3459.31
2050.04
1439.52
1002.53
549.111
283.901
184.194
132.389
91.7141
117.744
90.8501
76.186
60.412
85.1762
128.849
119.396
101.325
88.4786
79.9842
2543.01
3164.03
2480.47
1771.91
1243.72
666.908
349.341
204.526
183.56
155.956
93.4356
75.4584
73.0807
63.4904
93.2557
179.206
148.537
110.389
88.1137
72.9365
3649.85
3011.43
2002.09
1936.47
1610.94
880.914
384.306
162.886
167.115
198.799
152.874
76.2301
74.885
76.5914
164.569
236.325
160.548
106.373
78.5694
65.2972
5494.85
4040.23
1964.97
1429.39
1044.99
779.045
476.524
257.517
200.366
167.762
115.475
117.267
141.209
176.935
318.459
249.834
172.468
114.495
83.2019
66.6338
6859.49
4467.78
2479.53
1728.24
1041.9
686.53
490.744
413.433
351.342
317.945
285.728
281.618
287.658
295.956
292.596
265.448
201.298
142.35
105.255
77.1525
2522.66
3010.22
2190.52
1888.31
1400.07
976.559
620.287
505.04
434.397
411.448
378.275
356.593
328.207
309.924
287.251
243.77
190.834
139.341
108.564
80.8321
78.4038
1540.28
1487.88
1232.16
974.187
718.847
521.492
425.233
392.382
383.501
368.614
352.78
320.374
284.118
238.207
187.299
147.618
115.563
100.64
82.1913
316.378
1305.98
1270.92
1023.33
737.419
538.16
387.546
328.491
318.744
318.184
313.684
299.728
262.182
215.168
171.542
136.895
116.969
103.162
98.1443
88.232
2060.28
901.474
615.345
557.363
448.693
417.096
351.689
335.268
302.003
292.311
270.515
256.396
222.935
188.096
156.33
133.475
119.782
111.862
109.482
106.408
847.405
991.666
554.332
401.096
367.673
338.288
276.117
267.746
251.738
246.518
231.097
217.119
190.485
165.92
143.468
128.038
121.301
120.973
122.939
124.984
496.766
730.576
598.512
446.345
320.53
283.898
214.853
153.315
132.863
127.546
121.609
113.056
103.436
94.8453
87.4305
81.8743
78.837
75.1801
73.8191
69.8626
1388.7
2183.67
2289.5
2036.23
1332.06
991.731
817.676
735.738
649.62
560.067
473.958
417.106
375.769
318.307
246.69
185.481
149.76
130.218
121.921
119.911
2707.4
3765.24
3699.69
3398.54
2499.16
1995.98
1583.76
1364.95
1081.6
897.396
731.368
622.009
526.93
472.301
439.995
416.665
379.78
354.854
349.593
353.222
1869.13
5285.73
4383.65
3247.82
2535.75
2303.56
2032.46
1926.57
1699.21
1548.05
1353.55
1181.52
936.707
700.816
534.524
447.518
407.829
400.187
400.126
398.577
335.562
948.429
2036.25
2605.52
2196.89
1950.32
1779.87
1758.54
1649.98
1555.06
1378.69
1175.3
897.321
674.419
556.479
502.55
471.004
445.53
433.611
408.925
296.088
3701.34
3985.63
2924.46
2111.14
1746.17
1425.94
1392.44
1291.5
1226.12
1063.95
913.297
768.379
685.442
650.103
602.601
524.897
453.545
427.83
392.512
1904.37
4621.38
3357.04
2465.35
1969.6
1564.73
1236.49
1153.28
1039.89
996.247
902.522
824
744.085
679.479
598.218
496.917
426.692
388.567
374.942
347.593
1983.18
4593.82
2120.95
2084.63
1877.8
1748.73
1364.69
1091.61
905.738
834.653
771.701
722.411
662.301
589.597
498.395
427.122
389.207
364.466
353.384
329.788
9254.71
9126.69
3115.02
2711.4
2210.92
2138.76
1687.84
1347.15
978.942
772.674
665.629
596.959
538.383
467.272
392.423
352.645
339.921
334.299
327.485
310.227
7157.48
7241.81
4553.51
3344.31
2550.84
2142.4
1784.68
1504.02
1119.67
882.616
689.066
536.541
448.334
377.486
307.365
304.402
299.881
293.932
289.663
288.058
11089.7
7098.55
4437.45
3364.7
2254.42
1887.29
1490.41
1254.39
931.32
730.657
591.491
480.861
401.854
333.765
283.701
288.215
276.366
256.721
248.905
251.659
7575.85
6246.21
4312.13
3967
2526.32
2049.23
1556.79
1416.19
1231.44
823.181
550.436
389.657
319.029
273.768
277.753
368.081
321.172
264.677
232.411
219.843
2889.59
4081.03
4394.38
4305.21
3047.27
2487.27
1697.14
1300.95
1193.12
956.115
686.135
463.174
389.636
388.087
456.713
465.315
328.911
240.248
201.603
193.212
4986.85
5166.68
4205.53
3462.61
2274.93
1843.91
1442.54
1036.65
837.035
658.069
536.934
526.864
562.015
604.141
664.267
546.582
368.875
260.154
216.52
198.019
7339.14
7206.38
5629.53
3541.62
1943.77
1604.51
1268.81
1136.01
978.026
903.505
817.93
815.493
823.704
822.111
780.95
663.985
488.639
343.541
268.264
220.498
3555.39
7755.95
6173.09
4818.74
2816.27
2149.91
1430.51
1333.33
1182.83
1144.45
1049.16
999.896
923.669
866.278
778.641
649.396
490.731
359.748
291.395
233.675
1039.56
8449.91
5146.5
3397.17
2054.14
1554.22
1168.06
1121.26
1070.99
1065.18
1006.57
944.311
844.74
755.16
629.112
503.074
394.742
320.493
287.408
246.037
534.218
5107.9
4112.19
2690.63
1417.05
1178.23
899.084
920.054
895.074
890.647
832.229
759.559
652.578
562.169
458.447
384.065
335.528
305.49
293.043
271.052
3711.96
3798.81
2313.84
1984.32
1124.5
1105.89
941.108
937.342
842.905
805.728
712.252
659.896
566.299
502.209
430.578
388.305
359.88
344.046
338.704
331.603
8596.81
2556.29
1168.21
1477.73
1048.52
942.857
795.418
753.376
679.609
644.355
581.891
545.036
482.812
440.366
394.204
373.824
367.427
368.823
375.417
379.862
1303.73
1156.11
965.63
845.554
636.386
493.559
345.161
320.575
302.279
287.169
266.349
243.978
219.288
199.679
183.038
175.929
171.644
168.214
169.711
168.561
53.9204
1787.52
2450.79
2212.57
1459.05
1129.37
969.494
858.195
741.059
626.533
527.926
446.795
374.43
300.039
236.027
190.744
172.435
163.296
162.062
159.937
1672.41
4609.62
4756.57
4212.24
2936.07
2442.21
1923.3
1625.73
1247.34
1022.06
828.734
719.256
637.329
594.677
581.111
572.78
562.709
558.366
560.365
571.237
20553.9
12354.2
6654.68
4272.57
3350.15
3041.73
2635.17
2367.89
1962.63
1692.08
1412.57
1198.35
997.844
852.294
754.791
695.291
664.525
648.649
641.811
633.235
3009.69
6148.89
4524.88
3976.59
3056.36
2680.32
2367.83
2212.36
1919.29
1716.69
1452.73
1230.92
1029.36
889.931
803.441
741.489
701.366
668.942
652.717
621.591
1779.86
6970.89
5990.95
4015.88
3040.39
2470.33
2043.4
1881.58
1639.96
1480.71
1272.1
1119.56
993.562
911.434
849.101
779.216
717.726
664.812
640.473
595.034
3948.23
7456.31
5135.58
3584.3
2874.77
2201.11
1818.2
1622.84
1418.35
1291.83
1146.13
1036.52
938.194
852.112
763.85
681.014
628.477
588.417
569.076
532.499
3400.9
8873.36
4054.19
3146.54
2849.09
2407.47
1874.01
1526.84
1279.22
1140.54
1017.53
922.306
828.492
738.464
662.218
609.945
581.165
554.488
540.145
509.189
38648.3
16003
4447.68
3382.42
2942.82
2691.16
2249.83
1716.16
1313.59
1087.98
937.196
816.075
722.922
634.007
579.266
556.729
545.645
530.959
516.792
491.585
24504.9
14251.6
5671.9
4106.82
3102.81
2725.5
2369.32
1870.18
1402.21
1137.5
897.698
736.122
624.719
541.91
482.107
489.985
483.242
479.089
473.651
470.24
13759.7
7891.26
5408.55
4007.95
2876.82
2492.87
2077.65
1698.18
1320.7
1040.41
798.712
655.137
555.949
480.948
430.33
431.411
421.835
421.989
424.342
433.92
11882.6
7800.49
5402.3
4272.08
2833.62
2497.23
2138.42
1839.07
1479.46
1105.26
602.453
389.108
368.369
371.532
407.954
473.845
426.622
398.312
383.324
383.505
10112.2
7275.93
6194.84
4711.89
2876.52
2385.55
2055
1799.48
1499.47
1151.98
869.908
672.253
574.799
556.937
585.81
518.541
413.409
357.158
334.393
332.228
18005.3
10391.4
6819.65
4532.94
2836.47
2218.16
1841.26
1452.01
1208.34
992.111
879.078
837.684
820.601
793.852
729.013
575.11
446.373
373.628
338.573
321.437
9637.56
9796.9
7619.14
4495.92
2700.32
2197.37
1751.92
1554.9
1369.39
1281.47
1174.7
1136.55
1062.26
977.481
841.484
691.37
547.628
444.125
383.023
336.315
8772.89
9703.25
7360.19
5011.3
3123.07
2435.74
1856.89
1731.75
1559.14
1476.4
1335.72
1237.77
1104.38
986.248
840.173
686.831
553.443
454.953
396.101
338.898
9847.79
10879.5
7195.52
4325.97
2708.49
2092.75
1712.5
1599.06
1477.8
1384.13
1249.59
1130.68
983.194
850.684
707.252
586.636
494.017
432.409
397.677
353.645
1320.96
7572.83
5687.89
3378.11
2058.13
1754.75
1475.24
1392.37
1271.45
1158.46
1021.36
903.97
774.593
674.576
580.557
517.222
472.141
439.135
423.345
397.874
8752.22
4868.9
3303.2
2301.13
1833.64
1547.72
1368.15
1235.53
1096.96
990.953
869.691
791.807
696.634
639.069
581.536
548.34
524.072
509.998
505.062
495.04
9462.29
3025.87
1971.1
1697
1455.72
1138.56
1101.58
954.376
878.122
796.545
724.119
676.365
623.105
595.325
566.076
557.893
557.852
565.075
580.001
583.702
3171.44
1809.22
1021.68
891.624
682.417
525.335
455.228
399.499
384.965
348.763
326.963
298.29
279.067
263.634
253.26
248.211
243.181
236.334
235.071
224.657
1034.02
2367.25
2614.2
2317.25
1590.44
1245.06
1036.09
857.112
706.706
577.208
477.566
386.859
310.397
250.221
212.864
190.296
179.652
174.141
172.315
172.67
9392.39
6986.5
6519.52
4768.97
3439.42
2846.25
2249.83
1776.47
1331.62
1073.14
901.492
817.944
770.557
757.704
762.964
769.216
780.018
791.561
807.037
837.572
14156.3
13198.8
8653.31
5029.29
4192.87
3562.57
3108.62
2554.28
2052.49
1675.52
1398.5
1207.13
1082.44
1001.22
954.846
921.936
905.63
895.637
891.132
889.813
43659.8
15234.4
7416.35
4777.15
3887.94
3136.89
2816.68
2390.77
2021.58
1705.87
1454.39
1264.08
1138.82
1050.66
996.523
946.044
916.827
888.996
873.448
848.593
15085.3
11713.6
8258.53
4818.82
3811.05
2846.23
2476.55
2104.94
1833.81
1585.79
1395.83
1244.89
1144.71
1063.82
1005.13
944.458
905.862
867.484
845.838
806.244
11986
10447.6
6825.51
4374.18
3614.42
2546.55
2249.05
1879.13
1656.52
1450.7
1297.53
1168.05
1067.26
978.532
909.112
851.202
817.07
782.668
763.303
732.176
13806.6
12186.9
6112.52
4051.31
3690.46
2748.13
2231.98
1774.24
1521.04
1317.79
1170.02
1046.45
949.875
870.781
819.615
785.288
766.74
743.213
730.071
704.558
49041.6
10954.6
5696.93
3953.35
3740.95
3068.23
2539.72
1898.9
1519.99
1265.75
1090.74
949.034
851.805
777.074
764.248
748.997
741.014
724.991
710.903
692.003
32817.9
16783.8
6769.24
4596.48
3590.56
3072.12
2666.95
1977.87
1527.13
1247.58
1015.13
857.126
755.725
693.321
670.984
687.423
680.965
678.964
676.091
677.189
27923.9
8479.82
6658.76
4357.35
3377.04
2805.32
2349.25
1880.81
1480.18
1172.36
921.792
767.187
673.648
619.599
596.112
612.49
615.198
626.142
635.052
648.995
14686.5
8815.1
6515.81
4217.95
3183
2658.2
2320.08
1923.92
1544.42
1228.48
775.142
541.104
510.529
515.256
562.538
598.619
576.78
572.048
572.986
578.648
12106.7
10906.9
7970.78
4797.08
3128.89
2492.73
2274.1
1908.68
1544.83
1237.76
1001.62
824.408
717.408
679.409
663.047
580.307
523.382
501.744
496.75
501.037
19129.4
14315.3
9172.89
4990.71
3372.55
2506.27
2107.54
1703.83
1466.94
1270.31
1160.08
1069.25
976.814
872.455
727.422
605.079
534.575
496.766
475.263
467.352
12936.8
13904.9
9068.19
4733.82
3341.16
2513.6
2149.83
1839.71
1692.27
1546.04
1436.45
1317.58
1164.86
1003.01
835.837
700.226
604.031
540.167
497.44
466.571
15425.8
13504.8
8428.97
4889.08
3477.56
2531.62
2256.21
2004.66
1859.44
1687.26
1531.2
1350.9
1173.49
999.098
838.055
702.329
610.01
542.417
496.414
454.165
15671
15424.5
9474.15
4672.16
3283.4
2364.21
2177.4
1880.51
1773.73
1543.62
1398.3
1187.97
1030
868.213
745.899
647.85
584.949
536.625
505.096
469.438
7795.09
10790.9
6672.83
3760.06
2782.41
2074.22
1949.74
1635.91
1524.83
1273.71
1133.78
958.292
846.872
745.575
679.991
627.971
595.271
565.359
550.148
523.911
13277.2
6102.46
3852.16
2776.83
2440.81
1794.5
1737.09
1385.71
1292.77
1069.87
978.014
861.913
802.683
751.009
720.502
697.129
685.383
674.026
668.516
653.598
12354.3
4817.09
2367.53
2103.91
1702.86
1316.74
1348.57
1055.7
1023.63
868.933
831.812
768.098
756.377
743.938
744.614
749.375
759.429
775.402
791.27
788.406
9257.71
3496.45
951.77
800.545
652.13
521.096
500.404
417.488
402.847
352.069
333.387
299.324
287.038
273.6
267.464
262.352
258.267
247.682
240.236
222.382
72.8101
1611.86
2564.7
2247.72
1616.1
1254.44
960.738
698.793
520.713
386.516
300.304
242.668
211.889
194.17
186.272
180.906
179.117
177.783
177.729
177.806
1702.44
6854.63
8483.33
4884.13
4348.87
3020.84
2685.6
1757.1
1418.02
1065.36
994.563
914.65
923.182
927.404
963.993
982.411
1015.88
1041.7
1067.36
1110.13
16460.8
12986.1
10745.5
5262.69
5240.39
3748.68
3546.99
2502.18
2090.79
1570
1409.43
1219.08
1178.15
1123.8
1122.41
1110.55
1114.35
1115.55
1117.83
1127.33
28747.7
13242.1
9933.63
5045.18
4851.16
3297.9
3232.54
2374.94
2093.33
1619.24
1474.51
1280.39
1232.25
1163.17
1147.04
1110.71
1100.55
1080.43
1069.18
1056.36
7886.48
12744.6
10656
5304.82
4668.65
2975.67
2864.89
2146.83
1986.74
1601.51
1497.13
1313.47
1255.93
1168.51
1135.45
1087.38
1070.28
1043.94
1028.49
1003.47
25076.3
12291.6
7923.01
5218.5
4378.11
2788.24
2663.79
1990.95
1846.31
1522.17
1407.81
1241.23
1159.38
1076.75
1035.72
997.866
981.525
955.976
941.065
923.163
75005.3
13963.2
7397.82
5011.47
4670.81
2970.51
2587.98
1914.26
1710.43
1414.67
1288.34
1132.1
1061.52
991.569
963.727
939.384
930.427
913.504
905.847
893.359
26535.1
9912.43
6737.02
4676.79
4756.36
3316.23
2724.72
2007.74
1668.03
1385.67
1215.17
1069.58
994.32
943.961
938.717
915.979
908.613
896.715
889.361
883.501
33779
12680.7
8473.51
5225.74
4209.38
3281.21
2826.06
2025.29
1636.19
1341.08
1132.53
990.839
922.503
889.68
885.339
869.925
859.038
859.216
862.779
869.777
21651.1
10662.9
8572.55
4934.92
4107.43
2961.22
2519.23
1999.96
1602.7
1279.02
1037.64
889.947
833.412
811.622
795.448
788.528
795.901
813.352
830.691
845.004
20746.3
10735.1
7978.83
4812.1
3809.88
2776.15
2436.7
2003.71
1639.74
1312.42
995.189
760.771
700.305
720.007
744.471
741.567
739.435
745.482
755.379
764.203
19943.6
13388.5
10542.3
4928.08
3828.54
2713.53
2528.7
1991.93
1635.01
1377.08
1171.29
982.695
875.646
819.454
763.041
679.587
659.786
657.263
664.405
676.597
10380.9
15213.2
12695.6
5314.06
4393.42
2850.11
2373.96
1889.81
1734.71
1526.58
1433.82
1261.48
1106.7
921.047
758.89
676.836
643.189
627.697
621.65
624.593
29637.1
17160.3
11308.7
4929
4392.37
2741.53
2689.37
2077
2037.53
1735.54
1675.91
1412.46
1235.31
992.237
850.859
733.366
685.722
642.176
622.452
611.885
54348.8
20021.3
11269.2
5110.5
4306.98
2664.93
2779.55
2199.23
2159.27
1827.26
1709.18
1397.45
1221.71
984.249
855.296
738.042
688.092
635.732
606.833
584.081
40171.9
19547.3
11638
4975.84
4149.41
2550.31
2737.58
2064.63
2088.25
1633.63
1548.14
1193.06
1086.87
872.303
812.296
716.246
691.489
643.658
621.95
594.77
35764.2
15150.7
8319.62
4558.57
3692.71
2373.58
2474.63
1779.69
1791.05
1335.5
1266.14
989.896
944.67
812.996
794.625
735.266
725.232
691.353
676.644
646.582
27180.1
9316.02
4503.32
3997.99
2944.16
2151.2
2165.14
1504.63
1537.23
1127.92
1127.84
927.432
941.529
859.851
877.683
844.348
851.866
832.238
823.54
795.232
12629
8125.01
2925.73
3153.6
2027.23
1737.41
1679.49
1168.4
1237.99
919.651
994.006
857.147
931.31
894.115
949.62
947.354
971.303
966.378
965.715
946.03
13914.1
3475.81
866.69
705.89
590.932
506.906
486.784
395.018
374.552
321.843
299.139
277.257
268.476
259.874
256.462
250.298
245.01
231.011
217.918
189.853
849.579
1063.41
680.664
1146.08
947.84
1162.62
739.052
685.132
591.371
463.056
895.542
773.841
646.03
532.034
703.539
1170.79
937.159
1207.93
776.616
1230.94
1011.62
427.177
859.295
658.441
664.789
485.401
939.891
763.249
265.241
341.712
235.579
1468.41
1361.28
1366.95
1238.76
225.208
224.786
192.497
1311.16
1081.82
1185.41
961.615
135.366
158.803
97.0728
985.445
789.913
848.571
660.775
132.315
101.444
132.961
761.003
656.708
655.319
600.132
99.344
131.367
98.0078
600.49
483.346
561.152
456.262
83.6875
91.2553
78.4342
455.277
399.37
431.369
370.888
73.1636
75.0904
64.1663
381.522
337.943
353.695
304.833
56.2409
60.1416
41.8569
320.856
281.275
289.981
252.21
193.466
283.149
173.256
1196.32
1112.02
1030.38
1042.76
156.892
159.863
164.211
1063.46
867.765
1024.67
959.097
87.5664
169.01
141.288
773.085
603.489
925.959
693.004
118.323
113.018
95.9934
598.58
548.447
620.382
497.185
96.1412
89.5339
78.6725
516.709
438.29
455.935
374.346
79.7496
78.6937
78.3868
418.464
365.343
360.646
325.174
64.2827
76.8512
66.5251
349.08
300.924
312.513
273.849
41.143
64.5263
43.1659
286.621
249.011
261.171
222.886
220.585
367.27
211.576
1157.21
1184.72
1299.53
1219.46
176.908
201.314
178.815
1173.66
1107.13
1199.23
1130.11
182.964
178.803
202.099
1072.76
815.746
1108.97
948.907
101.83
201.512
170.043
714.569
528.446
871.691
681.862
76.9935
152.192
85.8327
477.244
366.94
616.449
419.1
74.4773
76.9222
71.9609
345.807
302.073
378.627
315.195
65.6311
71.4139
68.4974
289.187
255.21
303.66
291.303
40.9396
68.3379
66.6132
244.833
215.739
292.455
322.411
191.218
414.805
172.561
1241.98
1082.17
1174.57
946.182
155.956
130.444
124.666
1042.83
1015.58
842.027
757.599
199.172
134.245
137.568
1012.22
921.598
751.341
683.478
171.481
133.142
82.0826
858.114
677.167
646.079
468.879
84.5734
69.6876
51.9206
611.015
422.55
423.411
369.491
74.742
53.814
74.8129
389.374
342.307
373.123
401.837
75.3114
77.2663
93.594
334.36
331.49
408.528
437.575
73.5209
99.3208
101.555
335.666
357.617
448.066
480.091
1578.24
1664.95
1440.55
2254.84
1935.91
2119.18
1807.42
1222.94
1373.77
1113.04
1815.17
1458.95
1712.94
1399.01
918.906
1003.66
811.866
1355.78
1149.62
1300.83
1089.11
746.668
788.308
679.159
1095.41
913.334
1029.04
841.804
567.737
633.109
523.086
857.536
733.313
788.644
669.217
469.314
495.979
428.058
696.97
612.442
637.797
557.795
396.057
408.686
355.028
587.879
524.551
535.225
475.704
321.371
338.922
288.252
504.36
451.359
458.183
409.196
1316.46
1373.57
1280.17
1971.58
1710.41
1898.73
1717.55
1025.74
1245.03
1125.84
1622.87
1343.35
1647.2
1423.97
753.539
1075.15
811.836
1254.67
1047.74
1338.36
1060.78
630.179
739.879
581.48
988.088
806.874
998.36
707.987
503.481
529.564
426.742
757.442
648.464
627.367
484.949
420.217
407.831
363
619.799
544.935
462.185
427.469
349.455
349.08
308.451
523.159
464.81
419.131
388.568
285.228
294.787
249.989
447.335
401.718
376.215
341.376
1448.15
1710.62
1489.25
2045.69
1858.24
2099.33
1901.11
1291.41
1449.76
1340.94
1788.36
1549.08
1839.62
1631.66
920.188
1298.21
1059.41
1450.66
1125.64
1543.44
1230.42
612.784
970.75
761.396
1053.28
727.98
1140.02
907.492
416.697
691.905
488.486
636.707
456.083
830.389
623.614
333.515
442.549
362.725
419.639
364.112
574.363
479.149
283.974
348.611
335.912
358.407
348.552
464.166
453.968
242.066
337.621
363.475
344.222
333.438
456.142
480.091
1352.11
1641.36
1173.69
1992.24
1793.02
1871.73
1536.54
1218.83
1057.01
917.352
1733.91
1539.3
1451.14
1252.02
1031.66
894.199
784.441
1466.49
1206.47
1194.53
1007.96
754.584
738.868
554.94
1122.13
902.565
950.963
785.855
500.712
512.016
458.602
834.04
667.238
752.462
703.705
400.138
461.581
477.46
627.689
546.382
699.407
680.152
384.447
482.717
505.291
532.445
519.085
677.873
672.702
401.838
514.209
532.863
519.795
523.471
672.184
662.128
2002.61
2214.34
1879.67
2609.31
2115.13
2416.72
2018.69
1503.65
1777.3
1453.84
1960.49
1593.83
1896.58
1558.2
1195.56
1357.74
1140.07
1500
1288.92
1466.26
1237.71
952.324
1074.57
880.03
1223.58
1039.92
1165.23
968.693
772.267
826.759
705.695
988.586
863.933
916.55
793.912
649.34
673.546
592.181
828.71
744.843
761.351
682.846
561.168
569.501
510.637
722.583
667.532
662.524
613.499
489.104
493.607
444.586
653.04
617.959
600.452
567.546
1792.17
2014.87
1797.87
2294.73
1956.38
2218.82
1940.93
1408.89
1719.86
1476.44
1846.29
1536.86
1847.85
1572.47
1105.86
1386.54
1117.32
1448.65
1219.64
1482.53
1242.78
996.515
973.169
1021.42
1082.33
953.142
1012.34
1068.34
763.994
755.685
771.057
834.994
727.795
790.845
809.278
577.975
449.964
442.393
741.739
664.38
525.961
524.745
497.984
438.712
414.553
644.202
595.587
522.058
504.116
435.464
403.458
370.326
582.548
554.001
497.726
485.075
1917.7
2170.55
1959.43
2287.22
2004.42
2305.94
2037.5
1580.42
1889.7
1657.38
1909.66
1624.8
1943.29
1667.05
1170.76
1563.8
1257.32
1528.99
1272.9
1573.48
1306.48
1048.99
979.176
1146.96
1140.43
1036.37
917.772
1180.95
547.895
529.169
681.423
467.34
590.208
405.043
635.212
364.864
610.262
516.248
459.627
463.087
718.428
626.644
373.289
501.802
490.859
468.389
474.452
610.908
592.9
363.347
492.493
510.592
475.398
481.842
592.761
598.299
1865.85
1935.78
1618.77
2216.27
1985.01
2121.25
1800.52
1579.64
1534.74
1324.18
1892.02
1622.6
1709.74
1479.85
1234.22
1259.71
1062.89
1536.01
1287.83
1409
1214.17
935.449
1006.44
852.794
1215.27
1023.96
1164.34
1042.25
711.102
821.938
771.053
967.833
827.495
1015.28
947.436
589.527
764.169
735.8
789.317
702.528
931.914
875.003
557.47
730.669
715.685
684.902
655.866
859.309
811.845
553.968
712.101
688.342
651.117
632.889
797.041
738.746
2135.68
2466.51
2049.61
2792.26
2167.66
2579.41
2123.19
1618.31
1922.94
1584.16
2011.26
1689.77
1989.55
1660.91
1314.12
1493.49
1262.2
1607.35
1384.73
1574.33
1336.23
1065.43
1188.55
993.322
1316.46
1146.04
1261.01
1072.53
891.406
941.72
819.751
1099.93
983.365
1023.54
907.992
776.385
787.65
712.537
953.126
889.562
879.213
823.361
705.691
693.914
650.51
875.392
843.33
812.406
788.076
662.003
639.26
609.428
836.407
820.648
781.862
764.785
1994.86
2265.42
1972.27
2476.67
2090.09
2374.33
2057.16
1568.24
1876.29
1597.12
1968.85
1657.14
1956.79
1678.63
1247.33
1508.57
1268.33
1570.47
1327.6
1593.09
1346.88
974.013
1191.19
863.773
1250.27
1055.62
1262.96
1021.92
799.296
773.709
615.636
1004.75
884.059
946.449
773.831
692.221
590.472
560.349
853.577
795.424
735.022
674.568
630.735
554.629
538.591
785.398
763.49
670.793
672.443
594.149
534.245
524.551
757.574
743.175
673.051
672.586
2021.52
2346.37
2051.23
2401.99
2077.37
2469.6
2099.88
1637.26
1950.38
1667.14
1975.96
1695.34
1985.29
1697.88
1292.56
1575.96
1321.66
1609.25
1363.48
1616.27
1392.79
879.878
1248.75
1037.87
1285.35
1032.74
1326.1
1137.96
573.685
969.225
797.472
948.976
754.792
1076.65
909.319
510.695
752.968
660.844
711.543
647.276
863.615
775.91
513.35
644.832
625.852
645.672
657.15
763.389
745.341
522.063
625.067
624.528
661.421
669.647
741.399
724.054
2009.78
2192.07
1849.42
2454.46
2082.93
2404.71
1975.75
1630.22
1754.79
1523.67
1963.48
1677.98
1870.92
1657.98
1306.74
1453.61
1266.23
1601.41
1395.33
1600.91
1441.99
1055.33
1219.07
1103.29
1334.53
1172.96
1398.13
1293.49
863.123
1075.75
1000.44
1123.05
980.016
1264.53
1163.27
735.726
981.39
913.917
938.188
847.37
1130.57
1029.51
685.523
894.129
835.344
829.222
789.823
998.32
905.027
655.599
816.571
747.486
778.722
739.087
873.627
782.278
2180.35
2614.19
2149.8
3041.68
2334.84
2828.9
2350.02
1716.63
2014.48
1689.9
2189.23
1891.8
2204.36
1876.88
1409.59
1604.2
1363.83
1816.21
1564.22
1788.79
1534.78
1176.86
1288.59
1104.02
1497.06
1340.93
1457.75
1276.7
1019.46
1056.57
944.707
1300.81
1186.75
1230.7
1120.03
934.57
917.622
869.98
1161.85
1118.46
1095.25
1063.98
895.6
861.772
842.076
1110.43
1087.39
1059.26
1042.42
875.856
836.755
819.564
1082.74
1069.39
1037.94
1018.34
2123.41
2414.67
2091.62
2757.26
2341.43
2645.63
2326.41
1689.14
1989.82
1712.35
2205.09
1884.15
2214.03
1924.22
1356.56
1626.63
1376.14
1793.98
1532.71
1834.01
1558.13
1087.38
1291.98
1062.17
1452.21
1260.65
1467.93
1244.25
919.197
990.88
819.624
1211.57
1092.08
1177.36
1001.62
840.106
779.559
721.659
1064.24
1030.83
960.504
917.029
816.742
721.262
728.877
1030.26
1016.36
925.55
938.368
796.105
729.765
726.383
1011.48
988.878
937.5
922.931
2106.31
2523.29
2127.68
2670.73
2337.84
2802.22
2364.46
1725.14
2009.53
1723.49
2224.75
1935.77
2231.34
1934.84
1391.89
1644.59
1427.07
1846.62
1576.63
1855.77
1634.23
1073.61
1361.55
1179.51
1489.48
1258
1565.96
1383.7
805.015
1120.01
952.952
1184.45
992.281
1323.14
1144.76
699.335
907.174
824.16
947.675
902.741
1096.7
1025.58
716.301
813.691
794.502
912.641
930.72
1018.79
988.439
722.834
788.693
763.486
930.958
916.571
977.295
933.981
2116.01
2489.45
2018.44
2878.09
2362.42
2846.19
2262
1708.15
1910.67
1708.46
2220.26
1928.84
2138.72
1965.05
1436.36
1657.08
1504.25
1857.45
1657.12
1919.84
1755.51
1220.54
1458.96
1358.02
1596.08
1438.97
1694.88
1606.78
1025.54
1328.47
1218.49
1386.81
1222.9
1572.57
1431.31
893.401
1180.17
1070.46
1175.3
1090.8
1375.82
1252.96
832.681
1035.92
931.754
1071.35
1013.32
1208.4
1074.2
773.372
896.738
801.87
994.698
933.686
1029.91
932.779
926.617
908.386
823.464
886.705
884.951
946.289
863.429
996.072
1027.3
951.904
1104.9
953.305
1076.56
897.555
901.97
790.41
803.71
568.176
866.161
821.936
690.304
1032.53
1116.75
1073.77
1138.69
1045.29
1106.61
1063.21
962.637
919.209
1007.48
929.527
978.972
898.737
993.484
1029.42
1128.45
1146.66
1026.13
1114.49
908.052
1061.88
938.776
576.368
894.935
875.48
856.663
700.957
976.035
724.239
718.313
658.801
717.704
690.534
752.204
690.307
706.962
726.961
522.134
492.629
678.025
756.566
438.436
660.24
606.083
481.415
424.805
635.664
629.15
419.406
796.635
867.08
850.045
873.643
822.098
843.442
825.754
755.431
746.992
809.95
746.809
782.524
719.409
784.095
738.977
500.569
827.695
584.81
790.406
448.484
773.566
691.694
435.621
689.612
556.521
655.799
428.89
728.508
892.086
830.345
791.166
570.341
911.153
710.16
752.473
1109.56
1169.66
1091.09
1194.45
1083.08
1196.31
1116.23
1014.11
898.007
1014.63
962.552
992.682
914.647
1040.01
1079.38
1171.28
1087.73
1224.87
953.22
1205.89
1123.96
919.939
570.259
920.535
864.016
721.602
777.032
993.579
1133.23
1213.63
1235.24
1157.62
1217.56
1137.62
1154.87
1037.9
986.811
968.87
1085.28
938.409
1062.89
1064.27
480.748
462.883
459.695
348.317
515.562
342.887
427.066
729.867
802.815
784.468
885.583
713.695
817.357
813.202
656.596
569.242
717.16
693.232
636.425
592.41
749.34
573.919
465.341
585.31
752.351
402.554
660.495
663.844
508.121
359.329
515.444
537.891
345.739
455.776
591.737
758.05
912.15
877.061
873.772
842.718
842.951
795.671
688.337
728.5
667.966
815.503
627.029
782.352
727.721
412.022
548.963
450.132
928.108
1000.16
995.878
1079.96
318.655
402.169
363.993
956.513
827.545
1044.74
959.399
221.879
313.708
273.553
678.498
578.707
835.595
743.104
164.688
244.008
204.853
473.263
416.783
671.268
564.219
152.761
172.222
153.753
394.373
389.347
474.636
427.176
153.76
146.917
142.166
375.669
362.527
399.92
380.364
145.233
137.441
130.25
340.699
325.72
356.362
337.769
119.632
122.008
92.7781
291.175
292.769
299.88
291.039
588.589
645.31
550.752
1361.92
1355.8
1318.06
1319.54
659.695
321.983
377.033
653.605
677.845
626.957
306.637
690.412
246.086
249.849
695.01
682.137
696.705
244.957
447.054
169.157
197.222
561.132
488.404
545.772
160.029
390.59
132.864
127.675
400.754
394.846
379.099
131.756
324.865
119.339
132.383
317.77
275.459
367.851
121.299
222.965
89.6664
87.3126
202.03
194.24
236.368
82.3027
188.796
79.5801
73.4252
174.203
169.41
196.7
70.6116
156.376
70.5729
62.9992
149.318
143.874
163.056
60.1596
69.1421
86.302
57.0533
201.915
192.093
197.338
198.383
449.365
547.969
425.005
1064.71
1048.19
969.897
888.588
470.854
231.448
278.793
478.842
511.614
459.423
221.09
461.773
174.898
164.619
526.697
506.847
469.721
159.467
304.932
104.024
138.836
358.769
275.793
376.482
114.946
277.25
105.667
89.8058
270.993
303.939
257.208
95.5764
263.77
112.923
101.371
313.673
294.387
275.805
98.6913
230.567
86.8794
89.0581
245.829
234.429
238.253
86.2136
193.821
72.523
78.124
203.745
193.261
205.183
74.2068
154.897
57.38
62.1368
158.674
152.341
160.846
59.1905
59.4563
86.3724
67.458
195.632
202.173
191.901
205.384
516.977
720.171
554.694
1113.34
1018.16
1247.51
1158.11
485.085
283.272
352.298
491.079
480.537
494.652
285.55
472.24
186.393
211.134
491.887
492.439
496.409
191.409
551.438
190.495
167.971
548.957
558.518
494.218
183.755
424.503
126.534
187.491
399.183
334.101
496.756
164.352
271.115
86.1627
112.997
257.602
236.446
305.004
100.593
189.916
75.1785
75.72
197.696
195.088
196.421
74.0001
170.634
70.2004
70.485
182.211
174.665
176.245
68.5904
145.127
58.9584
62.8419
154.124
144.867
153.326
58.8769
73.1496
123.902
118.067
205.869
224.111
273.655
325.92
616.22
846.607
643.561
1404.28
1170.15
1346.55
1147.74
511.674
290.828
385.91
536.772
503.993
542.573
292.439
370.917
150.771
150.718
422.89
425.718
374.228
133.663
486.028
182.046
147.121
496.124
530.074
445.649
169.649
484.477
195.099
188.76
538.541
507.28
505.813
185.7
278.743
127.872
143.59
378.069
307.668
353.22
117.004
190.059
74.0817
72.3582
192.777
192.409
186.972
72.2418
207.497
74.9512
77.5221
194.035
193.802
205.011
78.6225
233.872
78.6365
85.9345
198.812
205.323
224.127
89.728
140.745
195.226
165.008
354.747
381.723
419.68
449.691
350.311
481.751
347.856
786.638
765.44
766.732
734.461
214.9
246.052
191.697
653.518
593.163
612.344
549.294
191.8
172.265
144.012
557.575
515.782
527.028
479.785
134.455
124.209
108.638
441.722
374.226
424.903
385.584
112.267
103.13
101.979
334.337
326.842
370.09
369.682
128.552