/*--------------------------------*- C++ -*----------------------------------*\
  =========                 |
  \\      /  F ield         | OpenFOAM: The Open Source CFD Toolbox
   \\    /   O peration     | Website:  https://openfoam.org
    \\  /    A nd           | Version:  10
     \\/     M anipulation  |
\*---------------------------------------------------------------------------*/
FoamFile
{
    format      ascii;
    class       volScalarField;
    location    "3.8";
    object      omega_0;
}
// * * * * * * * * * * * * * * * * * * * * * * * * * * * * * * * * * * * * * //

dimensions      [0 0 -1 0 0 0 0];

internalField   nonuniform List<scalar> 
12920
(
112.253
171.101
164.317
155.418
134.444
112.143
96.6043
86.6785
78.5371
71.5589
65.3987
60.6059
57.4196
54.2815
49.3544
42.8288
37.3168
34.1814
32.9946
32.3564
66.1148
159.222
173.137
169.753
149.301
127.794
116.462
110.389
99.2224
89.4428
79.759
71.9032
65.0141
59.4637
55.0683
51.7816
49.0506
47.1917
46.4761
46.5178
92.0217
193.047
189.235
167.207
142.292
133.642
126.235
124.335
119.448
115.376
109.345
100.988
88.0046
75.1042
63.9083
55.344
50.6711
49.1678
49.0061
48.8039
28.2635
85.1142
134.32
139.188
127.206
119.043
114.606
114.369
113.003
111
106.576
97.4251
84.8939
72.2533
62.5182
56.3649
53.8255
52.433
51.7915
50.1079
25.1466
119.86
158.095
144.72
125.725
113.503
102.892
99.3471
96.2657
93.936
88.5003
80.8683
73.396
68.0254
65.1926
62.6083
59.0962
54.6013
52.6022
49.6448
135.276
162.956
159.75
143.459
126.395
110.993
97.4969
92.1592
87.4677
84.7185
80.3228
76.3109
72.2439
68.5823
64.6805
59.2559
54.348
50.6144
49.264
46.8618
89.835
153.674
131.561
133.626
129.609
119
104.861
91.3026
82.2789
78.4525
75.3592
72.9762
70.1813
66.1887
60.603
54.8731
51.3003
48.6897
47.7003
45.6449
196.534
224.946
177.145
165.527
144.417
132.986
204.361
168.918
145.752
121.408
112.192
110.864
109.829
104.456
55.3024
50.0289
47.9142
47.007
46.3919
44.5873
172.265
235.785
203.906
177.563
155.064
229.992
360.048
284.208
250.482
205.108
200.387
171.705
161.221
151.981
83.2552
47.5355
46.8834
45.3634
44.348
43.0198
372.162
262.667
201.911
169.07
141.057
208.886
300.681
241.749
203.917
171.129
193.24
169.745
155.47
138.405
82.138
50.5876
48.6712
44.8154
41.8773
39.8188
226.211
253.055
222.979
187.565
156.984
230.152
333.688
254.944
241.915
221.543
172.149
154.911
152.361
141.965
86.1143
59.6753
54.2412
46.7523
41.7753
38.0189
278.26
244.441
199.721
196.774
178.905
263.75
348.714
226.96
230.847
251.411
219.624
155.452
154.351
156.189
114.443
68.4367
56.3554
45.8666
39.4398
35.976
338.345
282.327
196.271
168.298
144.02
124.318
194.411
142.754
126.064
115.023
95.6057
96.6033
106.009
118.641
79.5223
70.3384
58.4048
47.5793
40.5775
36.3353
373.326
298.636
221.69
185.067
143.487
116.521
98.6042
90.57
83.5113
79.4612
75.3557
74.828
75.6303
76.691
76.2301
72.5326
63.1016
53.0569
45.6301
39.0881
238.276
247.085
208.618
194.016
166.819
139.081
110.843
100.104
92.8867
90.4075
86.6869
84.1544
80.7316
78.4456
75.4873
69.4925
61.4561
52.5041
46.3537
40.012
41.3061
176.155
172.317
156.73
139.277
119.438
101.658
91.8573
88.285
87.2915
85.5789
83.6973
79.7394
75.0545
68.6897
60.8886
54.0546
47.8359
44.6514
40.3535
78.954
162.262
159.327
142.718
121.184
103.39
87.6724
80.7564
79.5821
79.512
78.9408
77.1374
72.096
65.285
58.2846
52.069
48.1438
45.223
44.1107
41.8239
193.96
131.968
110.465
105.379
94.5168
91.0729
83.5905
81.6021
77.4401
76.1839
73.292
71.3395
66.494
61.059
55.6619
51.4342
48.733
47.1011
46.6001
45.9405
129.989
140.765
103.947
89.1
85.5037
81.959
74.0399
72.9258
70.7096
69.97
67.7424
65.6437
61.4711
57.3585
53.3339
50.3886
49.0574
48.995
49.3936
49.794
99.4439
120.647
108.749
93.8533
79.7708
75.1195
65.3035
55.149
51.371
50.3378
49.1437
47.3729
45.31
43.3845
41.6543
40.3105
39.554
38.6255
38.273
37.2307
66.0827
83.7108
85.4214
80.3392
64.8147
56.0446
50.9703
48.3641
45.4289
42.1631
38.7867
36.3962
34.5355
31.7604
27.9426
24.2305
21.784
20.3193
19.6675
19.508
254.357
145.883
109.243
98.484
83.3558
68.4286
57.1281
51.6729
46.773
43.6805
40.4407
37.792
35.066
32.9099
31.4966
30.9366
30.2475
28.5116
27.082
25.5084
260.791
175.785
107.832
84.8806
73.3734
67.4735
61.5968
59.0928
55.9771
54.6308
53.0088
52.2691
51.3253
49.1238
42.9569
36.6611
32.6392
29.6685
28.3787
26.6485
84.8007
109.751
106.065
85.7657
68.2761
62.5013
58.4442
57.6934
56.1954
55.8633
55.1723
54.5606
53.1747
48.7713
41.4177
35.6552
32.3717
29.912
28.9209
26.882
115.052
129.038
101.069
78.888
67.4545
61.5769
56.7169
54.145
52.3896
51.2033
49.4827
47.4977
44.9026
41.2653
38.1769
36.5876
35.7896
33.6222
31.1249
27.1497
186.408
124.572
93.169
80.7023
69.4028
59.8293
53.7872
50.0786
47.0166
44.7195
42.2764
40.3743
38.5211
37.0186
35.6932
33.578
30.8284
27.7277
26.2121
24.1534
178.452
128.779
107.367
94.3074
82.0379
67.4332
56.3758
49.8146
44.5519
41.0653
38.2931
36.433
35.0321
33.3661
31.8861
30.0928
28.7563
27.3638
26.4766
24.2029
302.3
191.913
117.778
97.6805
81.4367
69.2363
70.6349
61.8661
55.5393
51.703
44.232
38.8349
36.4214
34.4708
29.6854
28.7777
28.2827
27.8293
27.0573
24.5504
279.708
216.245
122.271
86.0813
69.8286
71.967
72.4162
66.4875
62.0813
56.7839
50.6801
40.9164
35.0379
32.6545
28.9116
25.4492
25.336
25.2981
25.0322
23.7547
248.558
186.113
115.928
85.8214
73.0866
71.6236
67.3573
63.3245
62.2619
55.3698
39.7346
34.5917
31.3816
30.1031
27.3603
26.7348
27.2176
26.8567
25.3197
23.2522
203.381
178.203
137.384
105.873
92.4645
93.6767
91.771
84.647
72.9089
55.8183
43.124
37.6223
33.2659
29.999
28.3372
29.4472
29.3882
27.4046
23.9789
21.6855
113.699
146.22
124.425
103.516
90.774
104.076
100.081
78.2425
70.3113
54.6909
50.7707
48.2559
33.0436
29.5146
29.726
31.9301
31.2824
27.337
22.9834
20.0594
142.896
151.359
127.454
99.4795
82.1921
70.2382
70.533
63.648
48.9019
43.6934
40.4439
36.3171
33.1896
33.8187
36.3326
36.2848
34.935
29.4826
23.9557
20.1041
136.343
151.023
138.077
118.56
91.8621
70.9605
55.6792
49.1696
44.3097
43.0019
41.7204
41.4644
41.1953
40.849
40.4293
39.8579
38.7014
34.8583
29.1312
22.6397
128.753
152.481
142.955
127.63
104.376
79.8941
59.8642
52.3918
48.6523
47.6313
46.2654
45.097
43.4381
42.2851
41.2473
39.8738
37.9814
33.2196
28.3768
22.1799
100.896
166.356
145.023
118.613
95.55
76.7705
62.6554
54.3668
49.0655
45.9061
43.7103
42.4407
40.9691
39.5936
37.9306
34.4172
31.0154
26.8318
24.3068
21.1886
113.541
130.07
112.501
100.864
86.2871
69.1525
58.4982
50.3786
45.307
41.4584
38.906
37.5828
35.882
33.9503
31.5822
28.2078
25.5438
23.3947
22.4377
21.4903
202.102
131.6
90.6385
81.3463
67.7787
55.1744
49.2595
45.2405
41.7297
39.4215
36.8412
35.6618
33.9553
32.2383
30.0987
27.4209
25.2355
23.8379
23.308
23.2935
340.047
124.099
85.492
74.1117
54.6696
45.9726
43.4328
38.9487
36.6094
35.0755
33.6199
32.7377
31.6195
30.4692
29.073
27.2795
25.9254
25.4984
25.5434
25.7876
62.6291
60.2881
55.4122
51.8502
44.9693
39.5902
33.1128
31.919
30.9965
30.2058
29.0853
27.8318
26.3822
25.1737
24.1042
23.6337
23.3429
23.111
23.2138
23.1329
14.243
76.8718
88.4441
83.7448
67.8707
59.846
55.4985
52.2159
48.5071
44.5899
40.9276
37.6475
34.4531
30.8271
27.3376
24.5857
23.3878
22.7634
22.6775
22.5278
96.5668
128.011
108.135
86.441
68.4772
58.7639
50.9174
47.0179
42.2966
39.6326
36.5518
34.3391
32.0718
30.3442
29.3976
28.8909
28.3695
27.8108
27.4712
27.3496
444.356
291.861
122.4
78.2207
65.6026
60.5302
54.6421
51.4281
47.2309
45.1184
42.9349
41.6288
39.8517
37.2224
34.1317
31.3451
29.5103
28.2183
27.6014
26.8786
169.662
184.183
116.696
76.4487
60.0781
54.4306
50.2129
48.7584
46.1842
45.1658
43.5796
42.3154
40.1028
36.886
33.5302
30.8422
29.195
27.9167
27.322
26.3143
138.769
136.568
107.82
72.7265
58.2233
51.3675
46.5715
44.8399
42.4887
41.3888
39.4918
37.907
35.993
34.1034
32.5496
31.3725
30.4735
28.9098
27.7254
25.9661
213.974
141.54
93.6989
68.3427
55.9338
47.4991
43.2839
41.0456
38.4865
37.0396
35.167
33.8332
32.407
31.1795
29.9467
28.4657
27.0647
25.7085
24.9631
24.0466
191.38
166.955
95.0677
74.2013
61.935
51.476
43.8095
39.8135
36.3042
34.0127
32.1267
30.8507
29.7392
28.5602
27.662
26.8824
26.3112
25.6211
25.0801
24.0418
613.072
293.482
106.86
78.218
64.0336
54.8349
51.1295
44.9125
40.5009
37.4345
33.3695
30.5925
29.0457
27.9019
27.296
27.1979
27.0764
26.7169
26.0314
24.6706
466.996
287.055
115.942
76.1695
58.6337
55.0744
53.0981
48.9091
45.6995
41.524
35.553
30.7314
28.3082
27.0915
26.2545
26.697
26.5345
26.2139
25.8925
25.0992
256.902
148.184
94.8574
69.5282
56.5329
53.3738
50.6901
49.1601
48.6914
40.6603
32.653
29.4697
27.584
26.6231
26.7327
29.1014
28.4011
27.3395
26.3887
25.29
187.584
145.11
98.6736
75.0043
63.241
62.4641
61.9711
57.8304
49.8637
40.6503
74.3295
60.355
41.8469
32.6181
30.9078
29.5343
28.0511
26.0803
24.6744
23.4843
187.747
147.195
118.078
80.1131
61.5185
60.6758
61.7066
57.7672
50.8707
42.5241
41.873
38.5692
31.9806
29.3912
29.2243
29.1984
26.8302
24.2193
22.5027
21.2999
270.531
164.705
125.718
84.9536
62.4581
51.5631
50.4293
45.6316
40.1569
37.2945
35.3232
32.9977
31.7922
31.8394
31.9047
30.1409
27.432
24.2979
22.0925
20.5713
135.924
141.713
117.672
84.1343
63.4803
51.799
43.707
40.28
37.8931
37.2732
36.4398
36.3289
35.6937
34.8307
33.5551
32.0306
29.8189
26.6286
23.8396
21.208
188.609
144.461
112.992
90.0658
70.6173
56.0794
45.5194
42.4827
40.0535
39.4232
38.1671
37.4235
36.0216
34.8589
33.3677
31.3398
28.9786
25.866
23.3373
20.7829
264.695
170.668
117.765
88.1462
69.2711
56.8608
47.5927
42.735
39.4764
37.7403
36.2074
35.1857
33.6951
32.0945
29.9321
27.3521
25.1256
23.1465
21.9138
20.6823
106.037
139.685
108.42
80.6487
64.4562
52.7431
45.2146
39.8913
36.2323
34.0578
32.2224
31.1934
29.6234
28.0581
26.1258
24.3893
23.0791
22.2224
21.8077
21.4886
253.692
102.622
74.1493
63.5869
54.4838
44.4563
39.927
36.4097
33.6577
32.2179
30.4307
29.7696
28.4045
27.4057
25.98
24.8382
23.9336
23.6156
23.6152
23.8823
232.804
85.7181
59.5947
49.5257
44.2595
37.0645
35.9284
32.6379
30.9006
29.9174
28.8427
28.554
27.8842
27.541
26.9308
26.7839
26.8069
27.202
27.9794
28.4694
98.7352
74.1888
56.9882
53.2708
46.5732
40.8636
38.0316
35.6316
34.974
33.2857
32.2251
30.7777
29.7687
28.9343
28.361
28.0757
27.7868
27.3941
27.3186
26.7003
56.6489
87.0531
91.2382
85.7131
70.9592
62.8558
57.3546
52.1606
47.3554
42.7925
38.9179
35.0168
31.3581
28.1564
25.9761
24.5674
23.875
23.5083
23.3861
23.4104
309.136
165.447
113.897
80.8318
67.6321
59.9167
54.7049
50.246
45.4437
42.4939
39.467
37.4675
35.7841
34.94
34.8193
34.9025
35.2442
35.6979
36.0939
36.6643
193.845
208.373
126.676
76.9013
68.8435
60.9963
56.4508
51.1467
46.9476
43.8817
41.548
39.8067
38.2606
36.8091
35.6176
34.6969
34.2423
34.0951
34.0408
34.1101
546.447
235.074
114.187
72.8981
62.3977
53.3264
50.7601
46.9334
44.5487
42.4341
40.6713
39.0724
37.6132
36.0987
34.8691
33.835
33.3356
32.9858
32.8046
32.7105
295.634
178.954
112.515
70.8919
59.9121
49.0027
46.2804
42.7507
41.0639
39.279
37.9624
36.7134
35.7748
34.8532
34.2374
33.6067
33.1893
32.6706
32.2986
31.9933
204.601
152.348
95.8854
65.3147
56.2508
44.3739
42.9458
39.3927
37.8516
36.2649
35.1013
34.0243
33.1604
32.3974
31.8222
31.2308
30.8951
30.632
30.5025
30.5423
301.605
202.421
100.4
67.1818
59.4709
46.9244
42.413
37.8598
35.8522
33.7687
32.7285
31.7887
31.2754
30.7865
30.6338
30.5635
30.5915
30.5646
30.5277
30.58
574.644
190.032
98.6679
68.1943
61.8293
50.9875
46.6459
40.4135
37.1487
34.4734
32.3335
30.9506
30.2729
29.9991
32.1896
31.9794
31.9421
31.8015
31.5869
31.4165
442.874
264.64
110.787
72.4702
57.2651
52.0287
49.1036
43.45
39.643
36.4648
33.1564
31.4056
30.695
30.5629
31.8756
33.8319
33.1214
32.6518
32.5103
32.2944
392.278
131.865
92.9236
63.9313
54.3371
49.434
46.7698
44.5475
41.9361
36.8677
33.6819
32.2079
31.6516
31.8761
33.905
35.2061
34.1001
33.3997
33.0702
32.609
193.705
122.792
87.6025
61.7311
55.1738
51.171
50.0258
46.5324
42.5588
39.5818
58.2069
51.1615
39.7196
36.2139
35.9063
34.4734
33.0325
31.9844
31.3762
30.76
159.813
161.565
116.318
69.4203
54.2512
49.5801
50.1932
47.0262
42.7669
39.9455
39.1532
37.2703
34.995
34.0084
33.8926
32.4013
30.4493
29.2523
28.7198
28.4477
273.999
198.211
133.188
75.7376
58.1367
46.6885
44.9306
41.4452
39.0929
37.9204
36.7545
35.8668
34.9135
34.2391
33.024
30.734
29.0529
27.8968
27.307
27.058
170.213
171.945
118.669
70.476
58.1595
46.4199
43.1664
38.9009
38.5725
37.5292
37.5296
36.9323
35.8863
34.4268
32.875
31.1361
29.5772
28.1718
27.2069
26.7237
242.09
173.724
108.533
72.3019
60.2034
46.8766
44.0343
40.3958
39.6019
38.2421
37.7618
36.5648
35.3133
33.6534
32.0711
30.2642
28.8066
27.4549
26.5057
26.0282
244.793
201.668
121.846
74.6702
61.3612
47.6692
44.6906
39.2929
38.5036
36.1258
35.5912
33.8639
32.6497
30.8494
29.4257
28.0598
27.1902
26.6346
26.284
26.173
203.404
160.943
98.0205
68.6656
58.3364
44.5412
42.4979
36.4618
35.4461
32.703
32.0763
30.4757
29.6411
28.4388
27.7057
27.1074
26.8798
26.7779
26.7897
26.8782
247.158
94.9771
68.1199
57.4265
51.4073
39.9764
39.2665
33.8996
33.4438
31.0357
30.7464
29.7066
29.4558
28.9267
28.7466
28.6852
28.7898
29.1126
29.4448
29.8479
240.226
113.078
57.0636
50.8354
42.868
36.0779
36.5167
31.8098
32.0675
30.3864
30.7234
30.5267
30.9768
31.4883
32.2647
33.1245
34.0543
35.1381
36.1078
36.4279
168.054
102.819
54.733
50.4725
45.5254
40.6994
39.8649
36.4195
35.7713
33.4407
32.5395
30.8332
30.1949
29.4809
29.1499
28.8673
28.6391
28.0414
27.6128
26.5678
14.7456
72.6008
90.4791
84.4537
71.6261
63.1111
55.2109
47.0722
40.6321
35.0032
30.8517
27.7373
25.9238
24.8204
24.3128
23.9608
23.8428
23.7536
23.7496
23.7534
151.466
133.324
126.787
77.7683
83.0868
64.5244
68.0198
56.3558
55.881
48.6756
47.7666
44.6193
44.9976
44.8568
46.0127
46.6429
47.7289
48.5004
49.028
49.8596
217.104
174.515
132.421
74.9374
81.0721
62.0186
64.1326
52.7756
52.3706
46.2097
45.7846
42.9954
43.1204
42.5282
43.0332
43.1601
43.6226
43.9738
44.1574
44.5956
288.739
170.324
122.504
69.8236
73.1482
54.0104
57.3835
47.5026
48.6195
43.6414
43.7892
41.5658
41.8377
41.376
41.8903
41.813
42.1459
42.2612
42.4168
42.6866
206.962
198.38
128.6
70.9179
69.3408
49.4763
52.3977
43.7142
45.5008
41.5653
42.2931
40.5624
41.0167
40.5337
40.97
40.9037
41.2844
41.5478
41.7904
42.0514
303.506
154.567
100.234
69.4986
64.2154
45.8496
49.2685
40.9246
42.1675
39.123
39.5449
38.2472
38.4442
38.272
38.7228
39.0516
39.6814
39.9934
40.2275
40.7114
699.581
203.903
100.832
70.3262
69.266
48.155
47.696
39.9827
40.384
37.3883
38.0933
37.0227
37.6249
37.5327
38.1197
38.5974
39.2716
39.6957
40.0634
40.6038
317.71
146.293
100.019
68.6606
72.3389
52.8746
48.4611
41.8522
40.4932
38.1699
38.0716
37.45
37.9906
38.4184
40.8488
40.2365
40.5127
40.7274
40.8685
41.1652
400.343
184.73
124.431
75.6763
64.1048
53.6635
51.5712
45.0189
43.0971
41.568
41.2123
41.2772
41.8442
42.3838
43.3019
42.0925
41.2745
41.2012
41.3482
41.5055
264.069
142.045
111.622
67.7859
63.6239
50.514
49.8405
48.2139
46.5078
45.1081
44.6419
44.7098
45.2151
45.1313
44.3123
41.6604
40.9969
41.135
41.4373
41.5544
244.735
133.31
100.478
67.8303
62.0446
49.7323
49.2781
48.9426
48.3866
47.5545
48.4746
47.2685
46.8562
45.9985
43.979
40.6162
39.8423
39.7381
39.8625
39.7731
241.383
166.572
136.643
68.5452
64.3001
50.616
52.2893
49.1562
48.2925
48.0356
47.7829
47.0496
46.0111
44.7373
42.4758
38.3681
37.5226
37.3615
37.6225
37.668
260.298
228.402
160.124
72.8037
72.7231
52.1613
48.9254
44.2132
45.7514
44.5859
45.6158
44.1601
43.2531
40.8936
38.5492
36.5535
36.086
36.0492
36.0779
36.0998
295.566
199.564
136.534
68.5191
72.8743
49.192
52.5229
42.0531
45.1866
41.1102
44.0472
41.3183
41.5553
38.8141
37.8694
36.0663
36.0283
35.7229
35.8486
35.8651
501.482
228.294
134.934
69.3697
69.6276
47.0782
52.3734
42.6566
45.0714
41.2489
43.0271
40.2396
40.2287
37.6052
36.8913
35.3243
35.3112
34.9374
34.9662
34.8827
374.446
210.06
135.829
72.3056
70.9268
47.469
52.9595
41.0934
44.8792
38.2755
40.9797
36.4958
37.6696
34.8706
35.4894
34.3405
34.9689
34.6709
34.9112
34.8401
361.64
183.323
113.62
76.0991
67.8462
44.9351
50.2194
37.7978
42.0673
35.1408
38.0336
33.8994
35.6414
33.5471
34.7763
34.092
34.9856
34.8412
35.1621
35.0825
331.457
140.776
74.8463
76.5157
56.8516
44.0153
47.624
36.1092
41.0985
33.7605
37.6279
33.5868
36.3246
34.6416
36.644
36.2664
37.4741
37.5457
38.0276
38.038
216.61
166.287
69.9018
80.0409
51.0619
46.795
46.8291
35.81
41.8711
34.3782
40.0003
36.4455
40.7936
39.9977
43.1995
43.6394
45.4211
45.6837
46.0973
45.8757
210.482
101.616
52.2496
47.3828
43.3282
40.1431
39.3087
35.4197
34.4831
31.9688
30.8222
29.6757
29.2028
28.7321
28.5423
28.1955
27.8933
27.0774
26.2942
24.5402
33.8664
41.7304
86.1835
36.78
33.4406
39.6759
100.771
30.1323
85.7284
63.4434
32.7774
31.3129
98.103
67.8262
75.222
42.7258
43.0001
39.579
84.8328
39.9228
40.9332
63.5626
43.8461
43.388
83.5793
68.9385
41.6295
41.2917
290.369
330.073
273.594
87.5947
77.5248
82.465
74.4932
266.766
267.082
246.536
75.5657
70.5797
73.2637
70.4628
207.095
222.932
175.64
69.39
64.4113
70.3884
67.0922
205.037
179.887
205.472
62.6064
59.7387
61.224
49.0452
177.447
204.099
176.142
58.4873
51.2564
47.4631
42.5516
163.009
170.082
157.741
47.96
41.82
40.6865
36.4043
152.354
154.344
142.586
40.4837
38.2032
35.5866
34.1303
133.505
138.073
115.133
37.5596
34.6686
33.8942
31.6023
247.931
300.073
234.618
79.7855
71.533
94.7188
83.2577
222.725
225.378
228.714
70.5235
68.4029
80.4435
72.7188
166.893
231.861
210.788
68.003
65.3149
69.8393
64.2428
193.804
188.943
174.514
59.7552
45.7716
61.7707
46.0221
174.53
168.452
158.15
44.1105
40.1795
43.1522
39.394
159.07
158.187
157.849
38.7909
35.5455
38.5391
36.2183
142.726
156.229
145.339
34.9516
33.874
35.5611
33.2838
114.115
143.13
116.967
33.6073
31.6043
32.6848
30.2851
265.122
341.633
259.533
107.992
96.1062
109.321
91.0507
237.212
253.308
238.158
93.8717
86.4255
86.6097
84.978
240.814
238.287
253.627
81.5065
66.0973
84.4492
67.3157
179.779
253.148
232.149
62.9682
50.5326
62.0144
56.2575
156.4
219.283
164.542
46.7815
41.3334
56.0177
54.9938
153.886
156.159
151.296
40.0909
36.704
51.9866
37.951
144.391
150.708
147.602
35.7435
32.9629
35.6708
32.3697
113.912
147.464
145.715
32.4959
30.1039
31.7789
30.3154
245.816
362.505
232.955
118.092
91.6076
118.223
93.4848
222.788
202.923
199.249
84.1484
75.9815
83.0454
59.9519
251.729
206.583
208.684
75.3694
65.0422
57.3884
53.7381
233.014
205.065
160.074
60.9035
56.117
53.1313
49.5399
163.286
147.493
128.301
56.1615
55.8024
48.7776
46.4645
154.227
130.956
154.31
53.0832
38.1046
44.0511
36.4049
154.807
156.833
172.688
35.7049
32.3334
35.0924
33.22
153.025
177.941
179.656
31.8618
30.6038
33.2823
34.2755
67.8954
69.5598
65.8809
55.9358
52.5926
54.3391
52.3255
62.9052
65.2496
63.9939
51.6485
49.3957
52.1773
52.0925
58.3539
64.1223
62.0366
48.6578
45.6594
52.105
47.7616
52.67
56.5164
44.2482
44.3841
39.6978
43.96
36.0053
43.5269
42.4245
37.5585
37.8883
33.2506
34.4555
30.9317
36.1243
35.9656
32.4962
31.9182
29.4582
30.0107
28.0838
33.1951
31.8234
30.6049
28.8907
27.728
27.6751
26.8295
31.2618
30.3684
29.0678
27.4128
26.4321
26.6082
25.6992
63.8674
79.3541
74.4144
53.2357
51.6873
59.888
57.594
62.2913
72.3428
65.902
51.5286
51.4506
56.4838
52.3067
60.7082
63.3599
57.8421
51.5091
47.528
50.7496
45.9844
41.5643
55.1614
42.1102
43.3754
34.9031
43.4262
50.7609
35.792
39.741
36.4898
33.4692
30.5417
50.5606
46.3322
31.8982
35.7584
33.3832
29.7805
28.0503
44.0093
35.9511
30.3628
32.6206
30.294
27.6541
26.7691
33.6965
29.4709
28.9661
29.7214
28.4281
26.5378
25.7071
28.7785
28.4693
86.44
93.7883
83.9028
67.6697
64.2337
68.7469
65.4368
77.7538
80.8673
79.3631
63.0177
57.0723
64.5163
61.1879
58.7954
78.0535
60.1297
53.9301
46.4457
57.974
46.9487
45.7588
55.5525
50.7007
43.5478
51.4826
44.7461
43.6725
38.7673
50.568
49.8001
51.28
48.622
44.2303
43.6557
34.2552
47.265
35.2973
47.0383
40.4122
41.6418
35.2284
30.5433
33.3083
30.2403
37.9151
32.2545
33.7381
30.453
28.5462
29.6736
28.7868
31.1776
29.9161
29.7293
28.4176
83.8774
95.2871
81.9281
68.2051
63.8226
63.1856
57.5225
71.6874
74.1354
56.15
62.1264
57.4605
54.8826
47.258
58.4072
53.7882
49.6133
54.9615
46.3586
45.5936
41.8856
50.7142
48.8978
46.1875
44.4875
43.0468
41.2437
39.667
50.6206
45.8001
43.652
43.266
42.3577
39.3488
36.564
35.2063
41.2485
33.9526
39.8784
32.9712
35.1007
31.2166
29.9465
32.6878
31.043
31.611
29.22
30.6068
29.7674
29.0378
31.0701
32.3228
28.8047
28.2475
29.7861
30.3151
49.8944
51.8086
49.8426
49.4762
45.3224
48.0074
45.762
46.5138
49.6366
49.2439
44.1065
41.1799
45.1926
43.4036
42.7531
49.0271
44.1454
40.2868
37.761
42.5904
38.4107
37.126
41.0876
34.5387
36.7881
33.7566
36.8295
33.3509
31.7823
33.1973
30.2089
32.8583
30.9542
32.5884
30.9596
28.7542
29.455
27.8689
30.4852
29.573
30.5836
29.8676
27.3381
27.526
26.8058
29.3995
29.0399
29.7528
29.59
26.2797
26.6178
25.9085
28.9892
28.7651
29.5783
29.6348
49.368
55.828
53.9343
47.0741
45.4658
48.9062
47.0162
48.8412
52.9127
49.1803
44.9861
43.462
46.1936
43.5126
43.984
47.8398
43.3447
42.7304
38.4725
42.5906
39.342
36.7143
37.7204
40.4594
38.6612
37.7961
36.3476
38.5937
33.0279
31.6941
33.475
32.2886
32.6478
31.4803
33.6997
27.9403
55.1235
39.0452
30.9159
30.0642
57.8168
40.2607
26.8123
35.6938
30.4143
29.9218
29.7871
37.3732
33.6341
25.9528
29.6999
29.4274
29.8076
29.9729
33.3362
33.6229
59.0345
63.0288
60.644
51.8981
49.0416
53.0899
50.5261
52.397
59.7555
55.795
48.0237
44.4246
49.499
45.7555
43.9499
52.9003
44.345
43.1574
39.9563
44.2177
40.5821
71.6445
61.1744
43.1685
46.4519
50.3126
255.277
42.8224
92.275
72.1052
64.0647
196.995
63.1476
179.119
96.9269
45.9745
41.6692
36.1878
62.9439
44.821
40.3132
36.8393
33.9244
34.6572
31.1766
41.3118
35.9472
35.7707
33.6415
30.9615
30.436
28.9837
35.236
34.4929
33.2354
32.3598
59.1374
56.7051
53.1611
51.7838
49.7603
48.68
45.723
53.1736
51.1309
45.086
48.5991
44.8712
44.5108
41.1693
43.9405
43.6234
40.3724
43.5419
40.4008
40.2735
38.4331
41.6285
39.8146
38.4002
39.7846
39.2291
38.1344
37.0791
40.715
38.0394
35.4044
39.223
37.9524
36.7
35.0328
33.1614
34.2481
31.283
37.0154
34.4911
34.5638
33.3133
29.7843
30.806
30.1696
33.8478
32.6639
33.0789
32.6743
28.7463
30.1851
30.454
32.451
32.0133
32.6164
32.1687
44.7344
47.7503
45.3718
50.4359
45.2781
49.5127
47.1037
40.4933
44.6873
42.5705
43.9937
41.8127
46.2953
44.2364
37.3413
41.7049
38.0749
41.367
39.9187
43.6739
41.8622
33.8634
36.8092
34.0244
39.3418
38.2553
41.2979
40.222
31.7336
33.4185
32.1534
38.1429
37.941
40.0545
39.8513
30.781
31.886
31.4887
37.9013
38.0546
39.928
40.5568
30.5574
31.4672
31.5234
38.2413
38.6469
40.6873
40.9198
30.3726
31.5709
31.6511
38.7665
38.9121
40.9777
41.104
45.1109
47.7224
46.0044
48.4087
47.0879
47.6036
47.0476
42.7368
45.2755
42.9373
46.4852
44.7559
46.7614
45.773
38.2121
42.1295
39.2587
44.2155
42.2933
45.3468
43.8738
34.206
38.969
60.5516
41.7155
40.6063
43.2498
44.7413
32.5159
60.6734
52.9649
40.4272
40.0666
45.1542
44.3533
31.679
48.9252
39.012
40.0713
40.8303
43.6208
42.6129
31.7819
37.2096
35.0372
41.0178
41.2691
42.6293
42.5183
32.0489
34.9411
35.1413
41.3197
41.3305
42.4612
42.1134
47.4236
51.2603
48.688
48.4834
47.4694
50.3666
48.2589
43.5529
47.6884
44.4373
47.1386
46.0783
47.6259
46.2517
39.8307
43.2761
40.5917
45.6848
44.4111
45.9697
45.0589
57.838
40.0524
40.3895
43.9429
45.4365
44.7641
44.2372
54.009
40.8309
40.3825
45.7563
44.8047
44.1716
43.4734
41.8334
39.6062
37.0552
44.0912
43.1651
43.1574
42.8173
36.5869
36.322
34.9272
43.1236
42.789
42.6671
42.0425
35.7142
34.6588
33.8528
42.6616
42.1134
41.8203
41.0054
48.1399
47.4144
44.7795
50.4838
48.1511
48.9108
45.6275
43.7883
43.6817
40.8943
47.3599
45.8709
44.7275
43.6311
40.439
40.1781
38.7978
45.6548
44.9687
43.6996
43.601
39.2501
38.5693
37.5954
44.7103
44.0595
43.4186
43.0397
37.9699
37.2516
35.9315
43.9071
43.1688
43.0537
42.5351
35.4501
35.5954
34.571
42.9329
42.4845
42.208
41.2042
34.1677
34.3558
33.9286
42.2787
41.5956
40.9919
40.1601
33.5011
33.8315
33.1048
41.36
40.5757
39.78
38.6414
46.2513
50.8405
48.6426
59.7652
52.8701
58.8417
57.9007
43.3507
47.867
46.1719
52.2418
51.9644
57.0158
56.2639
42.0197
45.8245
44.7743
52.5694
51.6646
56.4111
58.7449
41.1437
44.4673
44.0906
51.8139
52.8381
59.571
61.4745
41.2888
44.1078
44.2608
53.4152
53.3801
61.8342
61.5882
41.6255
44.3721
44.7129
53.5523
54.1484
60.9617
58.8014
42.2857
44.7672
44.8162
54.5458
54.6977
58.5188
58.0221
42.3722
44.8269
44.6142
54.8898
54.4516
57.968
57.3852
48.7671
48.6859
48.7679
58.5211
58.7816
57.1563
60.2142
46.8371
48.658
48.2334
58.0743
57.4812
60.0765
60.7868
45.4114
48.0214
47.3267
57.9107
61.3975
62.141
67.1189
44.6624
46.9114
47.5129
62.4562
64.6939
68.2114
71.7493
44.6238
47.8381
47.39
65.108
64.7212
72.5593
71.983
45.1716
46.9532
46.6722
63.8013
60.2027
70.2372
63.5375
45.1597
46.5661
46.0883
59.4693
58.471
61.8347
59.3767
44.7286
45.9191
45.0504
58.2986
57.0644
58.9599
57.2318
49.0671
51.6346
49.8373
58.2852
60.92
62.0291
62.73
48.5483
49.3733
48.6466
60.7607
61.5143
62.0579
61.731
47.8653
48.6046
48.3255
62.9083
67.9961
62.3029
65.9905
48.2514
48.1915
47.9768
69.1967
72.4619
67.0122
68.8575
47.7418
47.9496
47.3933
73.021
72.1247
69.0782
68.038
46.9984
47.1902
46.6536
70.3129
63.6653
66.7311
62.0879
46.2223
46.4027
45.5022
61.9669
59.4251
60.971
58.9745
44.9572
45.202
44.0197
58.9749
56.9291
58.5027
56.7316
49.8168
51.104
47.0473
65.9445
63.0027
64.4188
57.4275
48.2797
46.1858
45.7714
61.9395
61.3939
56.2751
58.4082
48.1559
46.1705
46.3182
61.6074
64.1008
59.1049
58.3975
47.819
46.1003
46.1361
64.8788
66.4248
57.8135
59.5926
47.2732
46.3417
45.9404
66.6408
65.7057
60.0299
59.3907
46.2969
45.5101
44.5093
64.6393
61.1348
58.701
58.4292
45.0565
44.2971
43.1973
60.4241
58.5927
58.0957
56.2243
43.5625
42.7023
41.3671
58.114
56.2959
55.4848
54.1946
35.4959
35.4894
34.5204
33.2938
35.895
34.5958
34.5193
42.155
40.5111
59.4135
44.9654
40.1509
39.0327
188.297
45.4915
40.4218
77.6495
218.613
40.6339
45.5787
238.498
36.0346
37.3728
35.3387
36.9004
35.5529
37.4059
35.7557
35.2918
33.1548
34.2648
34.8129
34.1876
34.6442
35.2299
41.8636
44.9315
37.4522
67.7677
38.0201
192.821
38.8063
46.2585
221.101
43.1675
95.1057
46.9014
241.371
42.007
32.4362
30.8677
31.2176
30.1445
31.9317
30.779
31.7238
44.0632
39.868
84.1826
203.556
39.1107
44.9258
190.057
42.8853
36.6582
75.6996
89.8981
38.2011
39.8138
128.68
33.52
32.3319
32.225
34.3888
31.6552
34.038
33.9941
33.0395
30.5385
31.7524
33.04
31.0736
32.3634
33.5992
45.7512
206.048
43.1208
94.0774
46.4093
193.065
42.7896
44.5514
92.7405
40.0011
82.2492
41.1399
132.49
42.0455
92.2326
73.1497
63.7862
217.641
59.4737
237.207
98.2015
44.0858
42.8977
42.216
41.2759
43.6387
41.6869
41.2128
48.8679
48.3667
42.3896
42.6667
45.9819
52.2757
41.6728
70.4374
46.8052
64.5016
40.6343
246.532
41.9578
49.8972
89.8339
216.954
81.7434
65.4708
238.511
94.5365
60.7426
43.3466
40.3515
40.2205
39.8927
40.7991
40.4026
41.5298
48.08
41.911
47.0772
40.2143
51.3462
40.9179
44.5428
85.7967
71.5714
59.5106
104.352
61.9626
156.097
78.7501
54.0234
49.7643
44.0897
43.6167
49.913
54.0264
43.8756
53.485
49.0454
43.9675
43.2064
49.6506
52.6117
43.742
89.0935
195.959
80.8923
66.4996
178.106
93.2299
65.8136
82.9821
104.591
77.9436
62.2082
148.434
77.3706
64.6438
53.279
42.797
48.6906
41.819
53.1056
43.0472
49.1547
52.8132
42.4549
48.4798
41.7071
52.0576
42.9243
48.9819
181
208.905
189.125
116.156
96.356
113.25
95.3717
159.019
178.752
169.975
84.0971
78.3855
84.3049
78.5376
132.627
157.735
147.309
75.3483
72.2857
74.9396
73.1032
114.329
139.086
127.369
70.2448
66.5637
72.5463
71.401
110.197
116.834
110.484
61.5871
57.0648
67.6793
60.6371
110.536
108.041
106.265
54.5838
53.6816
53.8381
49.1409
107.371
104.473
101.664
52.751
51.857
46.6512
44.7402
97.3813
98.3766
85.6958
50.7309
47.5454
43.7042
38.0515
216.315
226.565
209.235
117.803
100.375
116.853
97.3837
156.167
320.335
346.599
187.871
154.843
187.221
312.512
116.607
279.462
281.645
122.138
119.143
121.27
278.853
107.414
230.812
248.905
107.052
103.096
109.816
224.197
84.9452
205.489
201.376
89.8327
89.3861
87.3731
204.748
84.5266
194.52
204.875
93.3422
93.8964
84.5779
195.798
74.7466
168.768
166.368
88.0853
85.808
78.3182
161.598
65.283
158.974
152.671
79.6971
79.1467
66.6813
149.694
60.7668
149.692
141.372
74.9147
74.4031
61.751
138.119
73.8962
82.646
67.2153
38.3548
35.1716
35.385
29.6681
188.932
208.672
183.739
116.206
94.2122
123.35
107.184
139.629
271.429
297.949
164.9
138.036
166.733
265.207
101.389
235.513
228.703
109.446
107.371
106.446
225.071
97.8526
180.853
209.4
102.988
100.875
98.4785
190.18
75.3692
183.79
169.121
78.4517
74.7361
81.2591
174.626
67.6396
188.99
179.315
72.0838
71.3256
68.3719
176.819
62.9436
166.036
168.117
66.1412
63.9516
64.4942
165.432
59.1915
151.67
157.458
59.6695
58.8067
59.4995
153.425
56.0197
134.909
140.422
57.0953
56.3014
57.3026
137.042
68.7093
82.7685
73.2504
34.8498
27.7598
33.2984
26.6052
202.721
238.978
209.784
139.843
121.222
141.386
120.784
169.003
300.475
335.042
187.011
167.815
187.984
301.62
131.696
243.089
259.092
135.02
128.514
135.011
246.088
108.117
246.193
231.356
110.718
108.361
110.435
242.514
98.8185
199.996
243.831
104.594
98.7766
101.772
227.834
78.7574
165.316
189.473
75.0902
70.1492
84.8346
178.596
64.785
154.645
155.101
64.9712
63.2524
67.7665
153.406
56.7783
149.313
149.685
59.712
58.4638
58.4006
147.655
52.4647
136.745
141.236
54.9303
54.1439
53.8236
136.701
76.3622
99.3454
96.9381
32.929
26.5136
34.8483
31.3852
220.606
258.984
225.587
159.623
130.149
158.408
127.447
172.092
303.284
349.435
200.193
171.529
200.327
304.022
102.03
218.792
218.122
113.697
104.208
113.658
205.749
93.4498
241.066
216.933
98.8416
100.37
92.0609
232.827
93.1099
248.908
244.907
98.04
94.6636
94.6812
242.768
90.8489
200.446
212.418
93.2313
93.2739
90.9911
191.232
66.0195
153.486
151.49
77.4263
68.9145
73.4111
151.512
57.0212
154.412
157.04
57.6637
56.3126
58.162
158.16
56.4637
158.3
165.499
54.4171
54.4854
56.1719
169.124
105.775
124.597
114.472
37.7599
33.5323
40.6983
37.8558
166.525
195.544
165.97
109.768
97.7187
105.058
97.8581
130.54
139.481
123.17
84.3689
69.3347
85.5062
70.0573
123.236
116.848
106.719
61.1378
57.3623
62.0184
54.0525
102.96
99.0585
92.7175
54.4028
51.0805
48.697
46.315
94.4122
90.5059
90.0043
48.8732
46.8202
45.2903
43.5109
101.122
90.8616
93.6082
44.4894
42.4165
42.8014
42.5
112.395