/*--------------------------------*- C++ -*----------------------------------*\
  =========                 |
  \\      /  F ield         | OpenFOAM: The Open Source CFD Toolbox
   \\    /   O peration     | Website:  https://openfoam.org
    \\  /    A nd           | Version:  10
     \\/     M anipulation  |
\*---------------------------------------------------------------------------*/
FoamFile
{
    format      ascii;
    class       volScalarField;
    location    "3.8";
    object      p;
}
// * * * * * * * * * * * * * * * * * * * * * * * * * * * * * * * * * * * * * //

dimensions      [0 2 -2 0 0 0 0];

internalField   nonuniform List<scalar> 
12920
(
621248
699200
606977
643086
597201
593665
560358
540662
506710
476684
439959
403577
362999
322207
279515
237059
193808
151387
109137
56666
920892
745693
641808
649727
606832
598395
564467
544401
509339
479589
441773
404942
364011
322855
279977
237314
193915
151383
108952
56229.5
1.13261e+06
812768
681187
683215
625654
614161
572501
551225
513918
483363
444648
407446
365842
324350
281237
238398
194707
151736
108928
56025.3
463989
682345
654941
669884
630963
620608
579162
557753
520158
488799
449393
411379
369184
327162
283615
240126
195923
152473
109248
56110.1
446115
754419
716479
721703
656819
647113
594264
571804
529812
497243
456056
416942
373784
330902
286401
242141
197395
153743
109990
56542.6
933248
842586
759654
747266
681858
673523
618542
587175
542811
507334
465372
424134
379878
335492
290075
245081
199703
155261
111157
56896
1.09681e+06
1.01039e+06
799010
798286
719180
704942
643200
610933
563150
522325
476489
433603
387382
341553
295044
248896
202591
157482
112816
57748.4
1.15109e+06
1.01326e+06
825378
823592
742299
728509
677233
639229
595090
551869
507262
459845
410671
361226
301280
254026
207240
161496
115287
58943.8
968783
984013
879115
868303
787594
768125
717572
671529
624459
579398
533277
483597
432003
379416
320267
261860
213807
165858
118193
60328.5
922340
957009
872891
887223
815254
800865
754084
704623
655133
607229
555402
501957
448072
393266
332736
271416
220778
170731
121306
61762.2
928875
974907
914946
932270
865839
847113
798325
743166
688921
634178
578494
522726
466950
409387
345434
280923
228247
176055
124619
63046.4
564005
905919
916643
957082
911764
890858
841092
784785
725711
664316
602532
544840
486144
425724
359080
291807
236429
181862
128166
64467.9
725617
1.02214e+06
994653
1.03959e+06
987615
959665
895913
832313
761419
692884
625714
562928
500375
438702
366275
306221
246005
188053
131933
66035
996414
1.20147e+06
1.13397e+06
1.1502e+06
1.08146e+06
1.03331e+06
950543
878166
790901
719363
642946
576564
508570
444928
378600
316557
254583
194713
136406
68077.5
1.30159e+06
1.40806e+06
1.31448e+06
1.28254e+06
1.18265e+06
1.11512e+06
1.00743e+06
924092
826727
747087
665188
593267
521270
453995
386811
322675
259037
197749
138287
68897.6
1.57317e+06
1.65102e+06
1.50457e+06
1.4149e+06
1.26791e+06
1.17766e+06
1.05061e+06
961844
854881
772624
683126
608011
531259
462077
392600
327206
261984
199740
139234
69023.5
2.05774e+06
1.90405e+06
1.70234e+06
1.55805e+06
1.36388e+06
1.2472e+06
1.09298e+06
995660
877712
791670
696337
618334
538315
467382
396323
329889
263739
200903
139959
69301.6
2.41417e+06
2.20956e+06
1.85992e+06
1.6748e+06
1.42708e+06
1.29514e+06
1.1185e+06
1.01744e+06
891484
803400
704208
624893
542515
470699
398397
331580
264989
202147
141126
70376
2.61935e+06
2.34695e+06
1.98129e+06
1.76274e+06
1.49386e+06
1.34157e+06
1.1432e+06
1.03553e+06
900519
810691
708044
628078
544404
472030
399199
332239
265677
203256
142797
72132.1
2.76109e+06
2.42243e+06
2.03639e+06
1.80382e+06
1.51754e+06
1.36288e+06
1.16068e+06
1.0459e+06
906037
813801
709811
629466
545402
472812
399793
332734
266402
204208
144027
73872.2
534260
674221
607614
643263
596938
593528
560057
540753
506823
476983
440116
403715
363065
322203
279443
236952
193685
151294
109023
56445.4
794934
734941
636325
648803
604790
597706
564215
544491
509322
479649
441891
405111
364039
322850
279863
237202
193746
151274
108803
55707.4
958567
797600
679596
679706
625683
614196
572233
551234
513800
483486
444707
407518
365838
324262
281125
238294
194621
151608
108747
55159.6
389661
678061
651383
668270
631116
620917
578674
557733
519963
488916
449440
411430
369199
327117
283501
240025
195825
152350
109061
55173.8
620649
770636
721298
724331
659037
648808
594766
572362
529786
497433
456099
417047
373780
330859
286251
242041
197280
153592
109710
55447.4
834185
840562
759815
746162
678447
672282
617510
588144
543110
507599
465428
424184
379827
335365
289954
244973
199534
155085
110884
55900.2
965674
985806
794013
797581
717695
706394
642209
610504
562809
522415
476623
433501
387110
341182
294916
248781
202438
157281
112526
56749.3
895042
978811
828376
824036
741486
728989
677477
639151
595064
551858
507164
459809
410856
361399
301323
254023
207121
161249
114985
57946.9
940613
958994
885961
869032
787471
768444
718131
671390
624270
579405
532753
483261
431847
379521
319898
261885
213711
165666
117901
59327
882501
956927
874174
888375
813620
801368
754407
704263
654869
606915
554850
501697
447959
393148
332215
271456
220678
170482
120931
60723.4
837579
983557
913619
933468
864202
846048
797409
742665
688983
633815
578009
522808
467101
409496
345107
281136
228185
175790
124189
61931.5
554322
912436
910995
959028
912028
892765
842449
785125
725467
663572
602363
544813
486186
425798
359092
292104
236412
181616
127677
63144
691845
1.01459e+06
983039
1.03953e+06
987593
960652
896676
831918
760940
692786
625795
563117
500729
439030
366203
306227
246189
187938
131521
64659.8
999103
1.20298e+06
1.12884e+06
1.1511e+06
1.0812e+06
1.03367e+06
950361
877415
790314
719108
642959
576924
508865
444968
378705
316599
254474
194470
135892
66791.1
1.20244e+06
1.4116e+06
1.30956e+06
1.28419e+06
1.18342e+06
1.1162e+06
1.00638e+06
923991
826300
747076
665029
593293
521244
454070
386928
322783
258944
197457
137728
67297.2
1.73094e+06
1.68245e+06
1.50779e+06
1.41972e+06
1.2686e+06
1.17879e+06
1.05003e+06
962195
854632
772739
682925
608027
531198
462127
392611
327213
261817
199377
138670
67512.1
1.93414e+06
1.9041e+06
1.70152e+06
1.56009e+06
1.36396e+06
1.24788e+06
1.09243e+06
996058
877359
791749
696022
618325
538172
467340
396209
329814
263493
200507
139410
67869.9
2.36708e+06
2.2205e+06
1.86395e+06
1.67408e+06
1.42557e+06
1.29599e+06
1.11784e+06
1.01776e+06
890790
803360
703704
624765
542231
470540
398187
331448
264732
201813
140684
69110.4
2.44341e+06
2.34713e+06
1.98379e+06
1.76049e+06
1.49133e+06
1.34174e+06
1.14185e+06
1.03572e+06
899405
810489
707488
627832
544010
471734
398864
332035
265452
203048
142534
71338.6
2.79949e+06
2.43971e+06
2.03946e+06
1.80349e+06
1.51642e+06
1.36331e+06
1.15749e+06
1.04516e+06
904379
813404
709185
629140
545055
472608
399613
332611
266299
204112
143869
73629.9
388353
660007
612458
642544
596974
593158
560144
541161
507022
477413
440357
403952
363160
322214
279321
236773
193479
151104
108808
56001.5
795309
730769
631501
647160
603658
597725
563969
544698
509553
480146
442289
405563
364196
322865
279669
236992
193513
151064
108563
54526.2
849206
801293
678717
679213
625640
614442
572053
551499
513840
483935
444976
407925
365922
324302
280918
238077
194390
151346
108399
53537.5
428458
692289
647608
668985
631868
622276
578187
558032
519800
489296
449627
411720
369288
327140
283230
239801
195601
152121
108644
53348.6
621653
771201
723461
727277
661614
650637
595280
573406
529773
497790
456197
417254
373748
330764
286034
241882
197079
153282
109166
53581.1
801849
836569
757481
746306
675931
671146
615837
589237
543405
508026
465483
424292
379743
335247
289805
244816
199260
154748
110419
53947.5
869711
960238
784904
795450
714723
708242
640918
610323
562455
522715
477016
433544
386989
340975
294844
248672
202234
156951
112048
54741
944976
974603
839900
826800
741232
729475
677760
638203
594540
551412
506633
459567
411067
361704
301662
254136
206947
160809
114470
55917.3
784915
938926
891270
871330
787917
768396
718999
671360
624002
579277
532047
482794
431574
379288
319189
261975
213458
165255
117368
57273.6
929090
966552
881669
890567
811949
801655
754913
703714
654533
605864
553836
501376
447864
393109
331643
271313
220484
170025
120208
58602.1
941965
1.01542e+06
923289
937888
862778
845223
796013
741957
688478
630388
577623
523377
467516
409748
344992
281449
228101
175365
123366
59729.7
614496
939994
905082
963256
913805
895442
844044
784800
724527
662810
602191
544723
486258
426104
359577
292589
236471
181180
126789
60743.9
606332
1.03397e+06
981852
1.04292e+06
988439
962446
898198
830609
760230
692589
625941
563332
501210
439378
366179
306383
246376
187710
130757
62117.2
945139
1.20488e+06
1.13306e+06
1.15396e+06
1.08142e+06
1.03453e+06
949865
876301
789538
718426
642891
576983
509014
444797
378869
316685
254317
193979
134812
63905.5
1.1317e+06
1.4215e+06
1.29849e+06
1.28557e+06
1.18362e+06
1.11722e+06
1.00489e+06
923711
825763
747093
664818
593325
521239
454225
387111
322962
258818
196934
136615
64496.3
1.79138e+06
1.70085e+06
1.51061e+06
1.42395e+06
1.26883e+06
1.17997e+06
1.04889e+06
962567
854169
772857
682658
608131
531150
462240
392631
327271
261542
198745
137482
64760.3
1.88465e+06
1.89891e+06
1.69626e+06
1.56338e+06
1.36433e+06
1.24903e+06
1.09143e+06
996549
876713
791864
695589
618407
538012
467328
396006
329707
263148
199899
138413
65209.3
2.2714e+06
2.19546e+06
1.86352e+06
1.67189e+06
1.42698e+06
1.29649e+06
1.11737e+06
1.0185e+06
889928
803421
702923
624658
541817
470365
397857
331232
264364
201311
139867
66646.1
2.61501e+06
2.33994e+06
1.99736e+06
1.75788e+06
1.49322e+06
1.33965e+06
1.14292e+06
1.03607e+06
898306
810417
706513
627554
543469
471399
398384
331764
265160
202766
142089
69678.9
2.82902e+06
2.44659e+06
2.047e+06
1.80209e+06
1.51743e+06
1.36232e+06
1.15445e+06
1.04428e+06
902266
812863
708107
628601
544482
472252
399291
332394
266126
204000
143665
73090.6
486597
653916
607593
641166
595809
592981
560205
541577
507283
477903
440688
404267
363271
322177
279114
236550
193252
150912
108600
55314.2
588260
730309
617263
643728
602860
597958
563736
545051
509849
480936
442888
406291
364358
322836
279329
236693
193195
150773
108288
52442.2
729331
774875
667479
674934
625095
615117
571938
552105
513907
484565
445208
408374
365923
324187
280512
237791
194118
151060
107895
50760.8
248587
727370
635651
672292
632754
623737
577853
558730
519629
489891
449750
411948
369277
327067
282839
239550
195336
151832
108146
50338.9
682547
788749
725546
731085
663890
652406
595572
574437
529808
498186
456258
417399
373702
330697
285769
241663
196785
152880
108777
50524.6
801011
825594
758383
747464
676793
670488
614137
590121
543729
508495
465533
424433
379730
335208
289667
244647
198914
154332
109805
50763.7
691500
935873
780022
793672
712516
709681
639530
610555
562290
523307
477765
434078
387477
341362
294911
248608
201998
156546
111357
51500
958830
962337
844053
827307
738682
729674
676813
636715
594032
550633
505680
458876
410707
361450
302340
254346
206769
160377
113847
52645.7
790764
929761
894759
872293
787624
766327
719238
671284
623673
578518
531064
481906
430863
378716
318945
262414
213296
164809
116666
53946
988482
991132
887671
893632
811085
800832
754221
703600
654228
604652
552868
501008
447913
393251
331756
271420
220190
169403
119476
55161.7
1.06409e+06
1.03839e+06
925097
939213
862363
844303
794266
741353
687861
630807
576892
523214
467587
409961
345347
281936
228050
174873
122422
56204.3
624814
953181
899989
967145
913646
896418
843832
784399
723731
662393
602274
544730
486466
426611
360715
293227
236537
180705
125810
57203.5
547393
1.01279e+06
976964
1.04516e+06
988762
964004
899388
828885
759819
692354
626109
563583
501539
439797
366430
306341
246335
187288
129839
58496.8
1.03019e+06
1.21131e+06
1.1401e+06
1.15732e+06
1.08108e+06
1.03535e+06
949006
875823
789069
717803
642876
576571
508792
444490
378938
316665
254101
193308
133508
60233.6
1.13806e+06
1.42258e+06
1.29636e+06
1.28813e+06
1.18319e+06
1.11754e+06
1.00358e+06
923465
825449
747273
664712
593391
521226
454339
387225
323006
258620
196301
135363
60745.7
1.88169e+06
1.72414e+06
1.52086e+06
1.42749e+06
1.26909e+06
1.18093e+06
1.04798e+06
962922
853919
773128
682452
608316
531016
462330
392584
327270
261282
198121
136345
61002.3
1.84528e+06
1.90091e+06
1.70725e+06
1.56869e+06
1.3655e+06
1.25023e+06
1.09078e+06
997159
876246
792163
695171
618592
537719
467351
395794
329623
262906
199312
137280
61497.2
2.60815e+06
2.2097e+06
1.87769e+06
1.67389e+06
1.43027e+06
1.29591e+06
1.11961e+06
1.0191e+06
889238
803619
702115
624689
541364
470322
397447
331116
264138
200811
138879
62979.2
2.46585e+06
2.31875e+06
2.0051e+06
1.75768e+06
1.49532e+06
1.33903e+06
1.14528e+06
1.03587e+06
897853
810590
705541
627468
542988
471151
397864
331552
264883
202510
141638
66818.6
2.79858e+06
2.47163e+06
2.0685e+06
1.80147e+06
1.51903e+06
1.36121e+06
1.15498e+06
1.04436e+06
900683
812602
706789
627985
543789
471833
398921
332182
265996
203949
143502
72160.3
458203
634995
605877
639671
594915
593211
560253
541938
507507
478358
440963
404566
363304
322108
278906
236331
193064
150793
108578
54623.3
497118
701391
614040
640931
603068
598582
563777
545639
510200
482002
443549
407180
364410
322759
278880
236342
192856
150533
108290
49480.3
568978
768166
657688
674642
624353
616355
571678
553208
513951
485384
445335
408926
365812
324072
280064
237509
193814
150791
107940
46869.2
351100
703377
630987
675670
633149
625576
577496
560003
519414
490777
449721
412088
369288
327104
282427
239319
195073
151589
108229
46226.3
698549
789029
729199
734879
665967
653604
595969
575337
530206
498425
456443
417465
373746
330744
285545
241480
196517
152541
108744
46370.6
792299
806333
757337
749741
678376
668495
615054
590119
544735
508778
465923
424557
379870
335243
289737
244665
198610
154001
109816
46500.9
635761
944041
780044
793045
713834
707460
641213
611003
563095
524309
478727
435062
388363
342128
295312
248760
201842
156225
111285
47227.4
790680
945341
847867
828809
739234
728111
676277
637509
594089
550676
505165
458271
410200
361082
303463
254624
206622
160037
113830
48291.2
735684
943258
890705
869338
787813
764849
719251
671227
623623
577749
529967
480968
430239
378407
319353
263333
213172
164433
116577
49521.7
1.16683e+06
1.01307e+06
897594
894290
812555
800277
752916
703980
654049
603923
552547
501012
448122
393442
332559
272308
220169
168929
119203
50688.8
1.22042e+06
1.0688e+06
926940
940356
864008
843615
792767
741211
687576
632016
576736
522813
467674
410162
346075
282737
228184
174530
121830
51692.8
531727
962443
894168
970005
913815
896072
842772
784264
723502
662313
602440
544841
486736
427107
362161
293878
236704
180462
125005
52718.2
609082
1.01279e+06
989791
1.05053e+06
989944
964846
898777
829321
759819
691875
626136
563534
501637
440229
366775
306176
246270
187009
128883
53970.1
1.0349e+06
1.2003e+06
1.14406e+06
1.15982e+06
1.0812e+06
1.03514e+06
948579
875841
789447
717695
643126
575934
508262
444141
378774
316474
254005
192857
132562
55215.5
1.09288e+06
1.43763e+06
1.28917e+06
1.29034e+06
1.18269e+06
1.1164e+06
1.00429e+06
923092
826023
747529
665101
593524
521293
454247
387251
322915
258577
195964
134409
55838.8
1.83893e+06
1.74055e+06
1.51992e+06
1.42815e+06
1.26959e+06
1.18129e+06
1.04895e+06
962878
854414
773148
682637
608445
531073
462314
392635
327276
261315
197759
135306
56194.7
1.9501e+06
1.90836e+06
1.70431e+06
1.56924e+06
1.36661e+06
1.24887e+06
1.09209e+06
997028
876914
792172
695355
618669
537779
467407
395819
329688
262936
199012
136211
56722.3
2.60887e+06
2.20099e+06
1.88148e+06
1.67371e+06
1.4315e+06
1.29578e+06
1.12156e+06
1.01894e+06
890142
803601
702461
624672
541561
470484
397449
331241
264111
200567
137975
58460.7
2.4657e+06
2.31257e+06
2.01508e+06
1.75784e+06
1.4972e+06
1.33898e+06
1.14695e+06
1.03552e+06
899023
810646
705791
627747
543201
471233
397506
331535
264718
202430
141551
62963.2
2.8157e+06
2.46817e+06
2.07366e+06
1.80106e+06
1.51983e+06
1.36101e+06
1.15666e+06
1.04417e+06
900736
812648
705499
627423
543068
471450
398567
332008
265914
203993
143627
71154
566953
624919
584872
604924
566084
624221
584117
514507
570942
533063
553050
514126
570285
533059
591680
655334
610327
629810
591073
654928
610216
538755
595847
553456
577139
538749
595891
553517
682868
743546
707946
717962
683171
743902
707709
636546
695782
659359
671410
636372
695535
658994
591555
647234
611852
624309
591087
646999
611819
544947
600058
562930
579346
545098
600030
562504
496894
549836
510560
532926
496715
549494
510305
445957
497327
457455
483382
445784
497135
457271
393724
444017
403309
431923
393633
443829
403191
340354
389689
348671
379513
339964
389528
348312
716801
785173
745411
754353
716635
785085
745385
667497
732518
693286
704394
667224
732487
693203
619036
680425
640334
654961
619060
680179
640323
568710
627290
586577
607050
568337
627121
586266
515388
572677
531052
555074
515147
572372
531002
461643
517182
475916
501781
461551
517288
476018
407025
462014
419553
447991
406973
462100
419606
351793
405244
361901
393181
351498
405267
361598
756662
829327
788651
798003
756103
830295
788632
702310
774598
731260
742831
702462
774397
731141
647995
717085
672549
689056
647836
716758
671814
592598
656962
611081
633996
592268
656337
610944
536580
596475
553528
578185
536537
596283
553493
481027
539475
496217
522785
481117
539447
496240
423901
481502
436821
467034
423976
481543
436878
365675
421768
376148
409451
365412
421809
375899
799162
877546
836273
842578
799551
878496
836597
740774
820120
770083
785061
740669
820039
769808
680019
752025
703814
725605
679552
751878
703787
617337
686190
638200
663826
617280
686072
638083
559118
621091
576977
602426
559099
621098
576959
501057
560321
515691
544831
501081
560366
515660
440974
499028
453849
486176
441017
499086
453699
379868
437090
389543
425757
379713
437122
389524
683352
743934
707615
718999
683688
744361
707338
636320
695416
658858
671350
636009
695086
658562
591045
646885
611780
624088
590985
646619
611418
545065
599925
562233
579362
544663
599287
561431
496589
549265
510171
532235
496132
548593
509669
445651
497019
457192
482925
445270
496617
456931
393531
443755
403138
431708
393278
443522
402997
339784
389463
348187
379442
339038
389299
347659
716528
784772
745272
755012
716166
784392
744829
667108
732398
693120
703829
666767
732006
692779
619028
680037
640231
654614
618580
679630
639637
568074
626949
586068
606179
567259
625288
585318
515030
572180
530970
554119
514630
571512
532260
461515
517320
476083
501450
461404
517777
476402
406952
462164
419649
447878
406924
462466
419843
351397
405296
361537
393101
350949
405452
361221
755882
830255
788477
796545
755220
831516
787924
702415
774242
731035
742131
702103
773726
730546
647697
716594
671548
688629
646966
715925
670798
592081
656098
610829
631712
591673
655499
610434
536497
596158
553478
577673
537897
595875
553447
481178
539420
496244
523246
481491
539349
496277
424032
481562
436919
467423
424275
481651
437104
365396
421846
375866
409683
365212
422025
375702
799579
878617
836657
844113
799544
881078
836598
740575
819760
769514
784921
739988
818999
768513
679294
751744
703738
724768
678587
751078
703450
617227
686015
638043
662969
617018
685747
637834
559094
621122
576951
602209
559085
621120
576744
501078
560394
515643
544741
501061
560274
515321
441055
499128
453668
486230
441248
499072
453571
379737
437185
389682
426006
379780
437438
389963
683783
744213
707270
719399
684060
743983
707263
635874
695017
658492
671341
635394
695027
658337
590951
646543
611204
623748
590608
646323
610477
544455
598999
561158
578765
543689
598121
560312
495930
548336
509512
531393
495267
547524
509070
445059
496479
456844
482211
444468
496071
456671
393095
443451
402969
431091
392563
443337
402984
338867
389268
347605
378850
338267
389274
347396
716059
783994
744654
754664
715862
783128
744130
666684
731856
692663
703572
666510
731445
692346
618332
679505
639444
654302
617537
679170
638809
599180
593066
612535
605539
599470
592729
612231
546098
540750
559539
553560
546327
540504
559273
461373
518061
476495
501099
461330
518120
476531
406935
462552
419911
447877
407036
462643
420043
350932
405512
361292
393210
350768
405667
361219
754999
831326
787771
794898
754378
831068
787412
701970
773605
730336
741478
701555
773241
729695
646781
715664
670586
687997
646102
714935
670068
624344
619188
639267
632199
625062
621361
638784
570578
563293
583761
578708
570228
563905
583826
481593
539347
496303
523417
481627
539374
496385
424346
481692
437179
467597
424485
481819
437432
365311
422102
375808
409907
365299
422378
376024
799473
881158
836513
844200
799214
882468
836568
739743
818722
768198
784482
739115
818159
767493
678394
750868
703351
723888
677958
750381
702987
616954
685675
637759
662465
616892
685395
637358
559093
621135
576669
602236
559135
621029
576320
501065
560256
515243
544717
501152
560130
514991
441339
499106
453670
486402
441681
499283
454258
379964
437618
390288
426471
380389
438349
390939
684105
743695
707313
719556
684291
743552
707601
635202
695088
658301
671236
634972
695497
658269
590435
646256
610246
623594
590145
646138
609733
543355
597860
560058
577890
542548
597272
559537
494953
547298
508948
530208
494245
546869
508823
444189
495970
456664
481177
443587
495868
456733
392339
443346
403016
430380
391974
443426
403123
338295
389303
347534
378482
338389
389388
347692
715863
782580
743974
753405
715961
781663
743687
666475
731335
692273
703860
666440
731222
692147
617299
679084
638730
654066
616744
678909
638587
565864
624041
584058
604029
565460
624849
584035
514031
570358
532050
552581
513997
570486
530602
461350
517691
476494
500987
461483
517221
476528
407080
462649
420096
448075
407235
462721
420291
350942
405730
361444
393402
351152
405916
361678
754201
830561
787317
793154
753875
829565
787181
701432
773147
729515
741182
701205
773037
729205
646049
714747
669943
687608
646061
714433
669721
590632
654820
610234
632030
590389
654642
610320
537779
595917
553534
576690
536296
596002
553613
481578
539378
496411
522796
481609
539422
496525
424528
481862
437527
467642
424692
482021
437822
365521
422487
376313
410133
365719
422815
376801
799126
882376
836546
843252
798981
882990
836443
738948
818038
767315
784255
738671
817835
767191
677869
750313
702912
723503
677759
750289
702921
616914
685366
637262
662297
617012
685336
637283
559156
621043
576244
602394
559265
621156
576364
501200
560178
515129
544813
501367
560455
515646
441812
499467
454564
486677
442190
500117
455445
380708
438698
391374
427015
381290
439631
392214
684165
743431
707719
718184
683961
743190
707865
635139
695641
658310
671365
636014
695792
658563
590122
646149
609650
623918
590197
646332
609659
542357
597167
559458
577709
542261
597168
559492
494094
546801
508816
529732
494036
546832
508816
443436
495867
456764
480749
443474
495851
456769
391990
443458
403177
430084
392080
443464
403240
338751
389421
347976
378377
339113
389491
348354
716033
781307
743686
752554
716249
781338
743948
666466
731259
692153
704196
666654
731462
692299
616651
678892
638537
654204
616662
679014
638577
565402
624805
584025
603919
565455
624885
584141
514027
570527
530617
552613
514065
570670
530725
461526
517230
476563
501031
461524
517277
476457
407291
462758
420330
448122
407350
462632
420271
351444
405951
362038
393497
351684
405917
362238
753865
829033
787191
792736
754106
828653
787355
701194
773074
729174
741390
701318
773263
729309
646044
714407
669710
687689
646134
714482
669790
590410
654639
610362
632128
590531
654764
610534
536328
596045
553625
576920
536402
596156
553661
481644
539417
496565
522805
481527
539425
496500
424722
482070
437888
467545
424668
482001
437875
366044
422891
377221
410136
366173
422904
377490
799009
882774
836384
842262
799134
881905
836421
738662
817960
767348
784405
738841
818335
768159
677770
750436
703151
723586
677865
750786
703255
617057
685455
637464
662453
617283
685950
638025
559310
621301
576614
602571
559348
621776
576975
501414
560662
515878
544841
501406
561131
516331
442281
500364
455709
486705
442298
500660
455953
381701
439793
392820
427131
381933
439877
393271
585737
580016
572827
566652
586085
579685
572513
604208
618282
612532
625664
604848
617784
611285
591202
578534
598678
583476
591745
578196
597125
598873
605223
592084
611641
592399
611933
598521
585406
566357
579065
571941
579363
572205
585113
603961
625473
617399
611744
617476
611430
603942
590888
583136
577665
597744
577898
596793
590796
532829
527604
519936
514391
533067
527410
519859
552208
565223
557095
569354
552159
565035
555454
539872
526562
543735
531922
539451
527072
542515
545871
553292
540077
558766
540271
559004
545689
532645
514258
527076
519585
527230
519720
532558
552052
569085
564501
556616
564795
555177
551601
539762
531943
526402
543324
527087
542217
539128
611137
605901
597625
592924
611480
607677
597515
632448
647701
640083
655187
632705
647533
639927
617792
603679
625048
610249
618057
603552
624897
624240
632009
618630
638661
621793
638545
624563
610978
592991
605171
597396
607724
597429
611020
632280
655052
647203
639715
647362
639805
632208
617652
610214
603526
624748
603507
624796
617635
558047
549753
543461
536555
557018
549343
544018
575809
589582
581653
595848
575733
589591
581699
562045
547990
567541
553476
561944
548039
567584
570647
578698
562940
583738
563759
583815
570380
558028
536182
549380
543711
548723
544106
557324
575840
595865
589622
581763
589605
581736
575840
562049
553496
548062
567634
548049
567613
562038
661096
693623
674064
677394
661087
693989
674335
618588
654132
630540
639132
618670
654060
630074
574191
608593
585028
595116
574096
608443
585103
530991
564016
539457
551914
531017
563779
539299
485187
517389
492811
507273
485187
517341
492723
437395
469321
443720
459819
437374
469202
443538
388282
418901
393078
410729
388258
418752
392844
339163
367776
341494
361283
339021
367601
341195
739355
782767
755052
768068
739369
782906
754981
714665
706193
728218
717578
706235
728198
714629
667035
660374
679646
671489
660372
679648
667087
620032
614161
632242
624415
614060
632196
620073
573996
568295
586367
579378
568237
586421
573987
526321
521877
539355
533241
521838
539238
526390
475497
471880
488769
483556
471857
488738
475542
423174
420192
436721
431979
420173
436679
423265
369592
367389
383358
379440
367384
383340
369637
298246
327432
300977
320183
297974
327323
300719
772693
822003
796486
801168
772921
822113
796352
750762
741088
763158
754045
741084
763174
750728
700880
692216
713656
704568
692166
713582
700951
650580
642868
663131
655107
642862
663106
650535
601182
594854
613940
607197
594814
613939
601233
547597
542113
561105
555352
542071
561047
547637
493239
488542
506784
501918
488520
506766
493229
438706
434445
452461
448050
434429
452459
438704
383108
379479
397118
393248
379442
397104
383143
306481
338809
312069
332546
306390
338598
311972
820249
866103
841605
846948
820173
866365
842187
794948
783812
808401
798163
783732
808252
794998
739937
729630
754207
743093
729596
754006
740003
684662
675367
698515
688994
675514
698497
684608
627180
620429
641801
634171
620384
641698
627233
570174
564434
584417
578442
564391
584353
570226
514412
508882
528358
522742
508905
528368
514399
457444
452704
471868
466962
452719
471883
457427
398796
394809
413567
409397
394807
413575
398797
318438
352208
323889
345285
318415
352044
323800
864287
913493
892057
891704
865445
914263
893065
838390
827082
851584
841122
827240
851869
838197
781013
770302
795789
784865
770362
795883
780944
718776
710716
734645
725708
710690
734632
718797
655413
648457
671776
664232
648368
671702
655484
593881
587946
608729
602516
587929
608721
593881
535449
530443
550187
544846
530451
550192
535441
475480
471184
490728
486152
471190
490736
475480
413954
410412
429623
425723
410413
429623
413948
329659
363777
337761
359059
329619
363643
337582
865104
920145
893509
896297
865235
920567
894061
795286
854501
818026
832186
795022
854371
817831
726226
777927
745309
761236
726197
777721
745249
657824
706031
672223
692850
657728
705934
672064
593957
636292
607293
625747
594003
636250
607237
531139
571698
541899
563021
531171
571676
541698
469096
507184
478408
500535
469187
507187
478313
407097
444467
415371
438847
406861
444495
415201
661159
694458
674826
678273
661499
695322
675469
618745
653855
629570
638717
618503
653689
629039
574174
608241
585107
594843
574142
608053
585056
530991
563612
539145
551661
530862
563359
538916
485140
517220
492496
506977
485040
516980
492160
437331
468974
443212
459755
437309
468663
442820
388216
418528
392556
411019
388222
418303
392271
338987
367472
341054
361618
338826
367445
340750
739716
783403
754533
768590
739689
783895
753856
714896
706755
728495
718484
714845
706969
728742
666548
660209
679545
671355
666647
660115
679516
619835
613823
632088
624195
619890
613788
632016
573877
568556
586393
579401
573916
568599
586361
525758
521582
538769
532578
525933
521459
538609
474957
471601
488466
483154
475135
471495
488327
422646
419952
436419
431824
422775
419905
436318
369238
367190
383267
379563
369359
367140
383218
297580
327042
300464
319566
297162
326715
300095
773052
821288
795794
801920
773022
821321
795091
750661
741078
763218
754704
750654
741114
763486
700576
691814
713336
704107
700674
691659
713224
650482
642783
662926
654780
650527
642728
662855
600433
594268
613619
606717
600706
594018
613394
547017
541654
560601
554631
547208
541461
560370
493265
488387
506728
501616
493263
488330
506713
438740
434359
452471
447927
438726
434336
452482
382976
379279
397054
393122
382998
379233
397051
306349
338330
312076
331871
305963
338109
311757
819518
866820
842427
846193
818795
868143
843094
793899
782747
807907
797260
794239
782379
807958
739255
729273
753089
742500
739432
729130
752850
684415
675401
698448
688891
684580
675287
698328
626514
619916
641158
633566
626751
619685
640869
569827
564035
583940
577837
569891
563860
583798
514488
509021
528400
522831
514460
509074
528432
457666
452862
472006
467199
457587
452961
472083