/*--------------------------------*- C++ -*----------------------------------*\
  =========                 |
  \\      /  F ield         | OpenFOAM: The Open Source CFD Toolbox
   \\    /   O peration     | Website:  https://openfoam.org
    \\  /    A nd           | Version:  10
     \\/     M anipulation  |
\*---------------------------------------------------------------------------*/
FoamFile
{
    format      ascii;
    class       volScalarField;
    location    "3.8";
    object      turbidity;
}
// * * * * * * * * * * * * * * * * * * * * * * * * * * * * * * * * * * * * * //

dimensions      [0 0 0 0 0 0 0];

internalField   nonuniform List<scalar> 
12920
(
-0.0269876
-0.0255239
-0.0364166
-0.0502788
-0.0675591
-0.0863691
-0.105322
-0.124124
-0.143087
-0.162847
-0.183627
-0.205733
-0.229325
-0.256126
-0.290346
-0.33578
-0.389393
-0.442563
-0.490072
-0.5316
-0.0185917
-0.0350179
-0.0411551
-0.0528146
-0.0695163
-0.0850211
-0.0990125
-0.110901
-0.127823
-0.14743
-0.171821
-0.199901
-0.232543
-0.268848
-0.308289
-0.347513
-0.386539
-0.427403
-0.470761
-0.514265
-0.024109
-0.0435498
-0.0519932
-0.0716773
-0.0828199
-0.0893506
-0.0958659
-0.101546
-0.110781
-0.122003
-0.137586
-0.158147
-0.186189
-0.221104
-0.26507
-0.316664
-0.370268
-0.421453
-0.468037
-0.511314
-0.0142886
-0.0359517
-0.0692567
-0.0982503
-0.113047
-0.120907
-0.126639
-0.130614
-0.137539
-0.146206
-0.160179
-0.180238
-0.206978
-0.241667
-0.285573
-0.334369
-0.381073
-0.421756
-0.458021
-0.494706
-0.010433
-0.0538129
-0.078581
-0.114123
-0.135848
-0.151459
-0.162115
-0.170963
-0.180663
-0.192678
-0.208244
-0.227476
-0.250029
-0.275824
-0.303801
-0.330752
-0.355134
-0.382142
-0.417967
-0.460044
-0.0732449
-0.0599373
-0.0742202
-0.105512
-0.130533
-0.158332
-0.181968
-0.200654
-0.215951
-0.229516
-0.243849
-0.257941
-0.275663
-0.297295
-0.322901
-0.353108
-0.388144
-0.423963
-0.454785
-0.481414
-0.0497624
-0.0484011
-0.0657782
-0.0800341
-0.0987106
-0.128429
-0.155932
-0.193074
-0.223285
-0.24646
-0.263829
-0.277568
-0.292916
-0.31346
-0.337254
-0.360115
-0.377547
-0.387645
-0.396806
-0.409723
-0.0523804
-0.0419427
-0.0538667
-0.0630393
-0.0788024
-0.096607
-0.0975734
-0.10178
-0.118366
-0.142181
-0.178823
-0.211155
-0.236847
-0.257597
-0.257631
-0.263659
-0.258588
-0.259753
-0.271704
-0.290778
-0.0273597
-0.0370984
-0.0410114
-0.0493848
-0.0659765
-0.0642851
-0.0694606
-0.0757134
-0.0795766
-0.0863005
-0.11095
-0.148152
-0.177805
-0.195233
-0.186472
-0.158216
-0.178932
-0.205339
-0.233024
-0.259707
-0.0429355
-0.0500393
-0.0582357
-0.0725285
-0.0921886
-0.0912052
-0.08703
-0.077833
-0.0754139
-0.0863944
-0.108224
-0.128168
-0.137271
-0.136998
-0.120102
-0.134682
-0.168911
-0.20402
-0.237488
-0.269832
-0.0296098
-0.0497626
-0.0585921
-0.0688252
-0.0807859
-0.0794849
-0.0766307
-0.0712768
-0.0667319
-0.0707354
-0.0917622
-0.106678
-0.109622
-0.104354
-0.102117
-0.137528
-0.180395
-0.22542
-0.269554
-0.314522
-0.0319163
-0.0464511
-0.0510786
-0.0525145
-0.0628989
-0.0635687
-0.0681074
-0.0721283
-0.0681035
-0.0672866
-0.0731548
-0.0846932
-0.0957479
-0.0973638
-0.105534
-0.145603
-0.200451
-0.264658
-0.334655
-0.406684
-0.0253414
-0.0430614
-0.0610651
-0.075812
-0.0890294
-0.10774
-0.10842
-0.111997
-0.108713
-0.103193
-0.101531
-0.104424
-0.109196
-0.111759
-0.138647
-0.181964
-0.238406
-0.313275
-0.402813
-0.496873
-0.0212341
-0.0375905
-0.0558422
-0.075114
-0.0973487
-0.12499
-0.149485
-0.172486
-0.182378
-0.188935
-0.190479
-0.195819
-0.203993
-0.21618
-0.235999
-0.26941
-0.31194
-0.367814
-0.442673
-0.533332
-0.0144123
-0.031808
-0.0503249
-0.068292
-0.0831488
-0.106122
-0.136885
-0.163114
-0.183738
-0.200305
-0.213613
-0.226957
-0.240451
-0.256023
-0.27577
-0.303657
-0.339198
-0.388315
-0.455429
-0.537482
-0.0106753
-0.0291845
-0.0528001
-0.0803186
-0.102008
-0.125285
-0.148961
-0.173482
-0.194559
-0.212459
-0.226512
-0.238539
-0.255628
-0.2791
-0.309799
-0.348806
-0.394526
-0.447586
-0.50647
-0.567321
-0.0162626
-0.032625
-0.0587058
-0.0909426
-0.11735
-0.140708
-0.162168
-0.186764
-0.209268
-0.228554
-0.24249
-0.254839
-0.275555
-0.305357
-0.343756
-0.389818
-0.439422
-0.488788
-0.534915
-0.57773
-0.0217759
-0.0325704
-0.0537245
-0.0959997
-0.132382
-0.154328
-0.171416
-0.188271
-0.20997
-0.229558
-0.250687
-0.267942
-0.292382
-0.322449
-0.359722
-0.402756
-0.447721
-0.487291
-0.521459
-0.551122
-0.0102909
-0.0239257
-0.0394351
-0.0817579
-0.130809
-0.165082
-0.192867
-0.210986
-0.231249
-0.246477
-0.266895
-0.28624
-0.312131
-0.341051
-0.373724
-0.409131
-0.442388
-0.464839
-0.476874
-0.480694
-0.0172869
-0.0205819
-0.0324573
-0.0520271
-0.0819193
-0.116566
-0.159556
-0.212338
-0.252442
-0.280348
-0.300645
-0.319409
-0.338911
-0.360545
-0.384402
-0.409485
-0.433467
-0.453836
-0.470316
-0.483659
-0.00860527
-0.00441929
-0.00766357
-0.0133335
-0.0236828
-0.0297906
-0.033129
-0.0326755
-0.0331357
-0.0351758
-0.0390529
-0.0414591
-0.0443247
-0.0558984
-0.0824523
-0.118798
-0.158011
-0.194559
-0.223984
-0.24286
-0.0140026
-0.00889654
-0.00877008
-0.00992469
-0.0107005
-0.00934398
-0.00902813
-0.0109206
-0.0152634
-0.0214574
-0.0291711
-0.0379528
-0.0484381
-0.0615447
-0.0782112
-0.0973874
-0.119413
-0.133734
-0.135604
-0.12579
-0.013415
-0.00987202
-0.0100551
-0.0128096
-0.0123239
-0.0108949
-0.0099356
-0.0104246
-0.0131772
-0.0190742
-0.0289172
-0.0439346
-0.0664458
-0.0953506
-0.123801
-0.145709
-0.159547
-0.161791
-0.15849
-0.153487
-0.00390911
-0.0039983
-0.00772586
-0.0170563
-0.0237376
-0.0226527
-0.0199664
-0.0186755
-0.0207711
-0.0273297
-0.0397898
-0.0589047
-0.0852946
-0.110697
-0.126267
-0.130037
-0.128085
-0.125288
-0.124416
-0.123259
-0.0123767
-0.0136537
-0.00978825
-0.021931
-0.0352016
-0.0424274
-0.0471271
-0.0450639
-0.0470457
-0.0496791
-0.0577726
-0.0678482
-0.0801162
-0.0882298
-0.0915572
-0.0975451
-0.110636
-0.120606
-0.120632
-0.110055
-0.02158
-0.00862061
-0.0114274
-0.0270476
-0.0383114
-0.0457024
-0.053089
-0.0516826
-0.050079
-0.0459176
-0.0452165
-0.0475739
-0.0526389
-0.0599845
-0.072373
-0.0866519
-0.0923494
-0.0851326
-0.0739948
-0.0629554
-0.0285111
-0.0184176
-0.0320353
-0.0316801
-0.0382636
-0.0394598
-0.0463286
-0.0536771
-0.0549734
-0.0494172
-0.0433089
-0.0412278
-0.0458312
-0.055451
-0.0709957
-0.0847819
-0.0912378
-0.0897273
-0.0827102
-0.0693305
-0.0187425
-0.0148667
-0.016213
-0.0154694
-0.0177781
-0.0186627
-0.0214173
-0.029239
-0.0517911
-0.0702853
-0.0642954
-0.0472205
-0.0450979
-0.0558789
-0.0843173
-0.093557
-0.0949188
-0.0904982
-0.0824064
-0.0699336
-0.0158703
-0.00976789
-0.00593325
-0.00440719
-0.00755485
-0.0100959
-0.0143489
-0.0205274
-0.0365371
-0.05889
-0.0742429
-0.0701465
-0.0583699
-0.0713373
-0.0969915
-0.0840257
-0.0833209
-0.0828403
-0.0788155
-0.0711787
-0.00564327
-0.00979222
-0.00873111
-0.00643239
-0.0155367
-0.0155522
-0.0177028
-0.0275984
-0.0550077
-0.0716917
-0.0738916
-0.0733975
-0.0792709
-0.092479
-0.0781645
-0.0668584
-0.0764717
-0.0842064
-0.0872245
-0.0868876
-0.00658507
-0.013511
-0.0175007
-0.0140154
-0.0262992
-0.0321477
-0.0406558
-0.0459232
-0.0474126
-0.0597022
-0.0785119
-0.0821728
-0.0704497
-0.0633929
-0.0553089
-0.0637205
-0.0810063
-0.0939335
-0.10162
-0.106835
-0.00326278
-0.0136808
-0.0116603
-0.0114298
-0.0225448
-0.0295938
-0.0421531
-0.0493281
-0.0451464
-0.0436065
-0.0621117
-0.0790544
-0.0719167
-0.0599391
-0.0514592
-0.0695656
-0.094068
-0.112561
-0.119114
-0.116538
-0.00159645
-0.0157443
-0.0185003
-0.0183017
-0.0256916
-0.0340429
-0.0402948
-0.0595056
-0.0633005
-0.068962
-0.0770959
-0.079038
-0.0711718
-0.0604843
-0.0553496
-0.0755419
-0.105751
-0.129304
-0.13455
-0.128022
-0.00223539
-0.0152342
-0.0248158
-0.0342016
-0.044937
-0.0442478
-0.0439611
-0.0420058
-0.0465398
-0.0522948
-0.0571437
-0.0549566
-0.0489335
-0.0455876
-0.0528868
-0.0745059
-0.111951
-0.148674
-0.168257
-0.163636
-0.00350268
-0.014195
-0.0218426
-0.0220581
-0.0283416
-0.0273014
-0.0324711
-0.0284591
-0.0313688
-0.0322072
-0.0361266
-0.035464
-0.0349477
-0.0369922
-0.0470012
-0.0678008
-0.100402
-0.12744
-0.137381
-0.121442
-0.00455579
-0.0186361
-0.0348733
-0.0407435
-0.046797
-0.0514238
-0.0555662
-0.0517871
-0.0441256
-0.0315652
-0.0259271
-0.0249841
-0.0290384
-0.03792
-0.0542733
-0.0708509
-0.0865394
-0.0916407
-0.0890514
-0.0796295
-0.00287953
-0.0134613
-0.0298607
-0.041116
-0.0562521
-0.0604706
-0.0672462
-0.0600984
-0.0493287
-0.0316073
-0.0242444
-0.0254924
-0.0338453
-0.0470497
-0.06482
-0.0746347
-0.0774049
-0.0730262
-0.0700294
-0.071723
-0.00501571
-0.0196631
-0.0313174
-0.037405
-0.0534576
-0.0423146
-0.0486473
-0.040076
-0.039061
-0.030811
-0.0276126
-0.0304785
-0.0402701
-0.052864
-0.0668561
-0.070161
-0.0667024
-0.0607251
-0.0578461
-0.0575652
-0.0141514
-0.0164825
-0.0342486
-0.0392565
-0.043625
-0.0318353
-0.0423858
-0.0328217
-0.0306029
-0.0275461
-0.0291736
-0.0346691
-0.0455016
-0.0577399
-0.0695147
-0.0692708
-0.0615442
-0.0525952
-0.0462324
-0.042293
-0.00496647
-0.00357347
-0.00687021
-0.0151144
-0.0303328
-0.0382779
-0.0679477
-0.0686409
-0.0803255
-0.0861557
-0.100076
-0.115021
-0.133432
-0.15157
-0.168409
-0.180511
-0.187922
-0.189519
-0.183623
-0.175395
-9.84779e-05
-0.00166037
-0.00391371
-0.00542895
-0.00793248
-0.00880496
-0.00931604
-0.00931266
-0.0106147
-0.013005
-0.0167657
-0.0219561
-0.030488
-0.044671
-0.0650056
-0.0882447
-0.109849
-0.12758
-0.139506
-0.14524
-0.00160959
-0.00275234
-0.00405503
-0.00560671
-0.00613359
-0.00660313
-0.0081108
-0.0110979
-0.0153102
-0.0206192
-0.0264827
-0.0326204
-0.03899
-0.0447483
-0.0484382
-0.0490736
-0.0482675
-0.0449631
-0.040361
-0.0362246
-0.0110838
-0.00919643
-0.00714342
-0.00753663
-0.00758978
-0.00762036
-0.00833896
-0.0108861
-0.0156742
-0.022819
-0.0321882
-0.0431225
-0.0554274
-0.0664526
-0.0743086
-0.0763954
-0.0737548
-0.0674931
-0.0612134
-0.0560688
-0.00147709
-0.00376863
-0.00646425
-0.00902551
-0.011314
-0.0121908
-0.0131161
-0.0155184
-0.0204047
-0.0276881
-0.0374319
-0.04798
-0.0583207
-0.0649032
-0.0652236
-0.0611469
-0.0566562
-0.0533926
-0.0515998
-0.0502583
-0.00852179
-0.00380003
-0.00431453
-0.00764059
-0.0119515
-0.0155246
-0.0193887
-0.0211043
-0.0249384
-0.0293259
-0.0352153
-0.04069
-0.0454083
-0.0477603
-0.0483958
-0.0495183
-0.0514581
-0.0508052
-0.047082
-0.0417298
-0.0118314
-0.00463293
-0.00579871
-0.00961874
-0.013369
-0.0164698
-0.0198875
-0.0205281
-0.0223118
-0.0242895
-0.0271237
-0.0299379
-0.0321896
-0.0338623
-0.0351624
-0.0356157
-0.0333848
-0.0293084
-0.0260748
-0.0246094
-0.00768375
-0.011642
-0.0163698
-0.0141819
-0.0150259
-0.0149333
-0.0183575
-0.0212613
-0.0226252
-0.0234169
-0.0251276
-0.0275929
-0.0304406
-0.0331611
-0.0356342
-0.0363072
-0.0347485
-0.0314395
-0.0278857
-0.024923
-0.0208548
-0.0152472
-0.0118569
-0.0093465
-0.00859419
-0.00963624
-0.0108595
-0.0171631
-0.024315
-0.0279058
-0.0269256
-0.0286135
-0.032895
-0.0391492
-0.047935
-0.0483236
-0.0452723
-0.0395758
-0.0332453
-0.0277555
-0.0153806
-0.00842851
-0.00334733
-0.00316011
-0.00625308
-0.00845249
-0.0105554
-0.0157025
-0.024806
-0.030056
-0.0311898
-0.0333889
-0.0404279
-0.0506297
-0.0591008
-0.0485687
-0.0447682
-0.0397316
-0.0338221
-0.0290094
-0.0030371
-0.0046811
-0.0040724
-0.00388408
-0.00719828
-0.00886433
-0.0134888
-0.0232878
-0.0384119
-0.0390467
-0.0328633
-0.034244
-0.0398118
-0.0463512
-0.0484504
-0.0445296
-0.0460738
-0.0441798
-0.0403333
-0.0366589
-0.00290762
-0.00691475
-0.00782089
-0.00720683
-0.0136839
-0.0145023
-0.018065
-0.0207647
-0.0263647
-0.0356121
-0.037313
-0.0358701
-0.0356689
-0.0375596
-0.0380551
-0.0459598
-0.0496528
-0.0491355
-0.0474161
-0.045673
-0.00224847
-0.00647969
-0.00640371
-0.00807714
-0.0163402
-0.0200581
-0.0259726
-0.0268204
-0.0271511
-0.034938
-0.0463625
-0.0475586
-0.0367716
-0.0296395
-0.0346431
-0.0505696
-0.0561249
-0.0557183
-0.0515216
-0.0462667
-0.00386303
-0.00687783
-0.00738256
-0.00792791
-0.0140834
-0.0182478
-0.022639
-0.0315603
-0.0369583
-0.042926
-0.0457809
-0.0413094
-0.0325824
-0.0300231
-0.0417431
-0.0533653
-0.0618328
-0.0622143
-0.0558404
-0.0487028
-0.00201976
-0.00399968
-0.00540335
-0.0105365
-0.0187223
-0.0168761
-0.0185095
-0.0178473
-0.0210751
-0.0227545
-0.0239521
-0.0232022
-0.0243344
-0.0295652
-0.0392604
-0.0517421
-0.0649865
-0.0720519
-0.06936
-0.0597938
-0.00431302
-0.00717205
-0.00784793
-0.00818534
-0.0123787
-0.011563
-0.0138276
-0.0120988
-0.0133766
-0.0135748
-0.0152909
-0.0166904
-0.0199458
-0.0251405
-0.0328661
-0.0419863
-0.0515446
-0.0551294
-0.0517925
-0.0439574
-0.00849961
-0.0138395
-0.0172015
-0.0196495
-0.0251673
-0.0258355
-0.0241776
-0.0180087
-0.0138538
-0.0114733
-0.0124217
-0.0148594
-0.0188641
-0.0236953
-0.0295452
-0.0340636
-0.0376229
-0.037463
-0.0356764
-0.033475
-0.00207556
-0.00741627
-0.019199
-0.0233728
-0.0312428
-0.0282515
-0.0276191
-0.0193106
-0.0144777
-0.0122212
-0.0137392
-0.0171738
-0.0215312
-0.0257122
-0.0296529
-0.0314011
-0.0322588
-0.0322198
-0.0325049
-0.0332788
-0.00735054
-0.0132537
-0.0158061
-0.0198332
-0.0244033
-0.0176609
-0.0187852
-0.0144689
-0.0137866
-0.0142523
-0.0165122
-0.0196754
-0.0232343
-0.0256044
-0.027278
-0.0270527
-0.0267484
-0.0266918
-0.0271189
-0.0278498
-0.00595884
-0.0101897
-0.0172392
-0.0159988
-0.0156163
-0.0151022
-0.0165722
-0.0144304
-0.0146834
-0.0159519
-0.0181599
-0.0203643
-0.0225686
-0.0236587
-0.0241403
-0.0236808
-0.0233361
-0.0233488
-0.0238859
-0.0248895
-0.00461939
-0.00395861
-0.00685065
-0.0113528
-0.0197337
-0.0200312
-0.0334096
-0.0331872
-0.0403517
-0.0469281
-0.0567336
-0.0672194
-0.078863
-0.0897769
-0.0992611
-0.105182
-0.107707
-0.106165
-0.100343
-0.0943179
-0.000652293
-0.0016485
-0.00263281
-0.00299657
-0.00320925
-0.00358897
-0.00459712
-0.00618187
-0.00853261
-0.0120712
-0.0173714
-0.0252991
-0.036152
-0.0493406
-0.0632174
-0.0758645
-0.085698
-0.0916793
-0.0930811
-0.0904046
-0.00129688
-0.00261462
-0.00408813
-0.00503104
-0.00572091
-0.0074817
-0.00989402
-0.0134909
-0.0173847
-0.021568
-0.0255011
-0.028934
-0.0314615
-0.0320203
-0.0306711
-0.0284144
-0.0259078
-0.0246007
-0.0236175
-0.0236275
-0.00337889
-0.00719111
-0.00611928
-0.00614243
-0.00638808
-0.00743019
-0.00977563
-0.013752
-0.0188518
-0.0237971
-0.0285217
-0.0317994
-0.0342407
-0.0347024
-0.0336255
-0.0307377
-0.027736
-0.0252382
-0.0241139
-0.024051
-0.0100026
-0.00700703
-0.00673281
-0.00796977
-0.00905302
-0.0101403
-0.0124362
-0.0158931
-0.0204204
-0.0242924
-0.0279183
-0.0299812
-0.0313171
-0.0306467
-0.0284483
-0.026093
-0.0247489
-0.0243966
-0.0249112
-0.0258634
-0.00272864
-0.00289307
-0.0040357
-0.00655882
-0.0096713
-0.0118384
-0.0143151
-0.0164213
-0.0191144
-0.0210717
-0.0228571
-0.0236592
-0.0241766
-0.0239587
-0.0237071
-0.0237654
-0.0239912
-0.0237023
-0.0235452
-0.0240506
-0.00389648
-0.00322297
-0.00440988
-0.00733475
-0.0100087
-0.0118251
-0.013515
-0.0147001
-0.015981
-0.0168781
-0.0173453
-0.0176172
-0.0176927
-0.0178951
-0.0181732
-0.018498
-0.0188369
-0.0197708
-0.0216613
-0.0244175
-0.00665255
-0.00842718
-0.00738201
-0.00706616
-0.00886975
-0.0105022
-0.0126267
-0.0143142
-0.0152951
-0.0157866
-0.0159663
-0.01613
-0.0165006
-0.0169454
-0.0175186
-0.0179762
-0.0186568
-0.0199083
-0.0220416
-0.0250387
-0.0108414
-0.00713925
-0.00598352
-0.00498146
-0.00621945
-0.00847792
-0.00999396
-0.013937
-0.0159468
-0.0173588
-0.0172374
-0.0177602
-0.0187717
-0.0206677
-0.0204329
-0.0199918
-0.019489
-0.0194719
-0.0206163
-0.0229904
-0.00847156
-0.00435791
-0.00207272
-0.00346889
-0.00740152
-0.00900523
-0.0102586
-0.0138771
-0.017006
-0.0193375
-0.0211608
-0.0233817
-0.0265881
-0.0302369
-0.0284059
-0.0182034
-0.017231
-0.01724
-0.0183065
-0.0205761
-0.00373155
-0.0027526
-0.00270001
-0.00406953
-0.00788566
-0.0100325
-0.0135934
-0.0192874
-0.0221893
-0.0212704
-0.0228862
-0.0257397
-0.0285029
-0.0286617
-0.020529
-0.016535
-0.0173216
-0.017876
-0.0190844
-0.0210791
-0.00200553
-0.00452924
-0.00466916
-0.00652518
-0.0108896
-0.0117275
-0.0139902
-0.0167179
-0.0198364
-0.0223916
-0.0245113
-0.0258508
-0.0260042
-0.0253482
-0.0232247
-0.0206545
-0.0208854
-0.0212488
-0.0225252
-0.0241013
-0.00200065
-0.00492782
-0.00498231
-0.00755091
-0.0128484
-0.0148965
-0.0178607
-0.0205614
-0.0242733
-0.0286049
-0.0296614
-0.023944
-0.0202787
-0.0220191
-0.0247025
-0.0246477
-0.0254304
-0.0252448
-0.0249686
-0.025106
-0.00343049
-0.00539296
-0.0053041
-0.0057641
-0.010126
-0.0109806
-0.0138142
-0.0195875
-0.0219701
-0.0231572
-0.0211747
-0.0185785
-0.0193913
-0.0230892
-0.02667
-0.0288857
-0.029806
-0.0286434
-0.0272319
-0.0269753
-0.00169339
-0.00313392
-0.00293815
-0.00487855
-0.00883617
-0.00781827
-0.00997038
-0.00954946
-0.0115242
-0.0128018
-0.0147017
-0.0170562
-0.0202901
-0.0240156
-0.0276402
-0.0307789
-0.0333425
-0.0334609
-0.0322068
-0.0313768
-0.00481251
-0.00605932
-0.00439532
-0.00459888
-0.00686521
-0.00634676
-0.0076618
-0.00740015
-0.00884212
-0.010258
-0.0126935
-0.0152282
-0.018248
-0.0209888
-0.023892
-0.0263258
-0.0284714
-0.0290929
-0.0295242
-0.030782
-0.00529885
-0.00834886
-0.00967383
-0.0102737
-0.0131011
-0.0111703
-0.00964457
-0.00806225
-0.00864118
-0.0103034
-0.0125623
-0.0148895
-0.0172507
-0.019192
-0.0212535
-0.0226638
-0.0240913
-0.0250983
-0.0264672
-0.0281478
-0.00230761
-0.00875938
-0.012819
-0.0122101
-0.0159369
-0.0114891
-0.0103506
-0.00896476
-0.00968424
-0.011606
-0.0136145
-0.0156061
-0.0173396
-0.0187119
-0.0201032
-0.021253
-0.022614
-0.0241407
-0.0259205
-0.0279986
-0.00601584
-0.00837875
-0.00903972
-0.010369
-0.0111746
-0.00906647
-0.00929567
-0.00986668
-0.0110735
-0.0127209
-0.014153
-0.0152608
-0.0162449
-0.0169719
-0.0178346
-0.0189266
-0.0202891
-0.0219325
-0.0237435
-0.0258738
-0.00448327
-0.00658124
-0.00913627
-0.00934841
-0.0102264
-0.0108908
-0.0109224
-0.0121307
-0.0130007
-0.0142712
-0.0151575
-0.0160022
-0.016671
-0.017379
-0.0181646
-0.0191558
-0.0203838
-0.0219364
-0.023829
-0.0257992
-0.00696645
-0.00502566
-0.00823994
-0.010627
-0.0152738
-0.0156523
-0.0216707
-0.0242829
-0.0295712
-0.035651
-0.042717
-0.050202
-0.0576464
-0.0641387
-0.0692443
-0.0715203
-0.0711902
-0.0680735
-0.0620474
-0.0556897
-0.000123239
-0.000915715
-0.00191253
-0.00258282
-0.00306048
-0.0046214
-0.00765819
-0.0121506
-0.0174091
-0.0236936
-0.0301336
-0.0364003
-0.0416521
-0.0455494
-0.0479116
-0.0486718
-0.0473666
-0.0438617
-0.0385433
-0.0332792
-0.000111733
-0.00221882
-0.00398936
-0.00574451
-0.00810549
-0.0119115
-0.0157397
-0.0197183
-0.0227789
-0.0246656
-0.025442
-0.0250426
-0.0242305
-0.0231557
-0.0221503
-0.0215708
-0.0209732
-0.0205392
-0.0199452
-0.0195083
-0.00177309
-0.00563967
-0.00622075
-0.00629952
-0.0076587
-0.0105634
-0.0140772
-0.0162332
-0.0174513
-0.0174917
-0.0173967
-0.0170169
-0.0171441
-0.0172131
-0.0174285
-0.0175329
-0.0176878
-0.0177751
-0.0177421
-0.0175927
-0.00510786
-0.00724634
-0.00789918
-0.00825133
-0.00890336
-0.0104536
-0.0123486
-0.0134331
-0.0142819
-0.0146418
-0.0152958
-0.0157701
-0.0166289
-0.0172532
-0.0179093
-0.0185526
-0.019185
-0.0196208
-0.0198743
-0.0199093
-0.000298353
-0.00196533
-0.00555472
-0.00875858
-0.00963998
-0.0102434
-0.0112109
-0.0118213
-0.0126884
-0.0133113
-0.0143383
-0.0152623
-0.0164784
-0.0176046
-0.018821
-0.0199801
-0.0211
-0.0220815
-0.0229926
-0.0237822
-0.00249799
-0.00314029
-0.00581191
-0.00853642
-0.00943926
-0.00990478
-0.0105202
-0.0110589
-0.0119953
-0.0130131
-0.0144062
-0.0158344
-0.0173808
-0.0188311
-0.020245
-0.0215295
-0.022729
-0.0237981
-0.0247699
-0.025724
-0.017315
-0.0059904
-0.00601246
-0.00744087
-0.00871389
-0.00965835
-0.0106006
-0.0113467
-0.012352
-0.0134948
-0.0150037
-0.0165302
-0.018096
-0.0195149
-0.0207518
-0.0217519
-0.0224451
-0.0228809
-0.0230903
-0.0233261
-0.00339731
-0.00440383
-0.00413598
-0.00585323
-0.00790285
-0.00936313
-0.0101226
-0.011578
-0.0120133
-0.0128896
-0.0136269
-0.0147229
-0.0159468
-0.0171813
-0.0189455
-0.0197393
-0.0199805
-0.0197498
-0.0191277
-0.0185148
-0.00362546
-0.00173789
-0.00200979
-0.00518223
-0.0086526
-0.00963878
-0.0101112
-0.0115541
-0.0123362
-0.0125118
-0.0123158
-0.0123438
-0.0127545
-0.0136399
-0.0161732
-0.0172929
-0.0177292
-0.0174297
-0.0164965
-0.015325
-0.00170177
-0.00171904
-0.00261676
-0.00570121
-0.0088303
-0.0102691
-0.0115395
-0.012974
-0.0134702
-0.013087
-0.0125196
-0.0117339
-0.0109899
-0.0112968
-0.0147066
-0.0167468
-0.0177663
-0.018055
-0.0175725
-0.016498
-0.00226011
-0.00319935
-0.00470402
-0.00761925
-0.0100157
-0.0112803
-0.0125702
-0.013363
-0.0143204
-0.0147377
-0.0139474
-0.012503
-0.0119172
-0.0122772
-0.014676
-0.017677
-0.0191658
-0.0201667
-0.0205093
-0.0202053
-0.00153949
-0.00275865
-0.004147
-0.00726473
-0.00961161
-0.0111302
-0.0122931
-0.0150325
-0.0152719
-0.0147206
-0.0135925
-0.0131523
-0.013664
-0.0143316
-0.0166978
-0.0198683
-0.0210324
-0.0217816
-0.0220353
-0.0219163
-0.000631987
-0.00189356
-0.00308004
-0.00509875
-0.00742253
-0.00801507
-0.00929349
-0.0111676
-0.0118747
-0.0130088
-0.0144744
-0.0162163
-0.0178484
-0.0192726
-0.0227595
-0.0240676
-0.0250215
-0.0257378
-0.0261478
-0.0263923
-0.00876913
-0.00413114
-0.0027974
-0.00403495
-0.00571047
-0.00676302
-0.00910523
-0.0112433
-0.0135785
-0.0159421
-0.0181079
-0.0203965
-0.0223397
-0.0243455
-0.0260403
-0.0278632
-0.0296198
-0.0314628
-0.0333157
-0.0351984
-0.0180844
-0.00666491
-0.00321906
-0.00384927
-0.00521438
-0.00674249
-0.00877544
-0.0111323
-0.0136122
-0.0162286
-0.0185694
-0.0209804
-0.0231154
-0.0252121
-0.0270399
-0.0287578
-0.030263
-0.0316336
-0.0327973
-0.0337689
-0.0109565
-0.0107269
-0.00682549
-0.00565144
-0.00672071
-0.00754548
-0.0092568
-0.011884
-0.0144
-0.0171707
-0.0195396
-0.0220106
-0.0240956
-0.0261538
-0.0277557
-0.029146
-0.0299763
-0.0302444
-0.0298633
-0.028954
-0.00795428
-0.00734044
-0.0056449
-0.0062143
-0.00749952
-0.00833008
-0.010019
-0.0124093
-0.0148177
-0.0172513
-0.0197751
-0.0222908
-0.0248393
-0.027465
-0.0298383
-0.0321952
-0.0341056
-0.0358221
-0.0370342
-0.0378321
-0.00648793
-0.00574865
-0.00606957
-0.00665059
-0.00780992
-0.00922257
-0.0106049
-0.012176
-0.0137678
-0.0150528
-0.0170399
-0.0188228
-0.0214525
-0.0241208
-0.0273882
-0.0308045
-0.0344949
-0.0382758
-0.0420584
-0.0453972
-0.0022728
-0.00435024
-0.00818868
-0.00930271
-0.0108004
-0.011999
-0.0129253
-0.0148855
-0.0155965
-0.0174051
-0.0180908
-0.0193379
-0.0199383
-0.0205844
-0.0213364
-0.0220852
-0.0233028
-0.0249534
-0.0274597
-0.030688
-0.00485403
-0.0048122
-0.00886701
-0.0113082
-0.0138325
-0.0159703
-0.019061
-0.0216749
-0.0253707
-0.0285301
-0.0327279
-0.0357096
-0.0388995
-0.0406727
-0.0414255
-0.0398843
-0.0363598
-0.0312339
-0.0257535
-0.0221965
-0.033579
-0.0378038
-0.0356319
-0.0239529
-0.024851
-0.0250445
-0.0261038
-0.0334041
-0.0348619
-0.0338252
-0.0255789
-0.0280589
-0.0265223
-0.0278976
-0.0373325
-0.0325201
-0.0407531
-0.025003
-0.0263435
-0.0286716
-0.0320129
-0.0363305
-0.0433091
-0.0465212
-0.0268378
-0.0281884
-0.0325381
-0.0309464
-0.0741462
-0.0680888
-0.0690951
-0.0561832
-0.0583066
-0.0552468
-0.0578987
-0.0789138
-0.0696917
-0.0718892
-0.0608468
-0.072742
-0.0612848
-0.0708547
-0.0833864
-0.0729041
-0.0803543
-0.0775993
-0.0900452
-0.0729694
-0.0811403
-0.102421
-0.0845911
-0.0998775
-0.0955674
-0.116558
-0.0862942
-0.108123
-0.138162
-0.105679
-0.124167
-0.125201
-0.145993
-0.11578
-0.131997
-0.170943
-0.12996
-0.14225
-0.15218
-0.163296
-0.134858
-0.137682
-0.191379
-0.144743
-0.148717
-0.166275
-0.171034
-0.137451
-0.134767
-0.199978
-0.149024
-0.144377
-0.17194
-0.168531
-0.133172
-0.12551
-0.0796524
-0.0872468
-0.0812659
-0.0770032
-0.0713842
-0.0845463
-0.0801539
-0.0753532
-0.0791655
-0.0729347
-0.0720682
-0.0742949
-0.0784708
-0.07344
-0.0818368
-0.0714631
-0.0730046
-0.0750815
-0.0814145
-0.0725267
-0.0758308
-0.102729
-0.0763694
-0.0941196
-0.0864926
-0.108776
-0.079659
-0.0982318
-0.123848
-0.100497
-0.113437
-0.115919
-0.12966
-0.104321
-0.114476
-0.136103
-0.115595
-0.117175
-0.131667
-0.132419
-0.115412
-0.113838
-0.137702
-0.116534
-0.112405
-0.131649
-0.127717
-0.112375
-0.106604
-0.130295
-0.110348
-0.102125
-0.125837
-0.117926
-0.104498
-0.0981507
-0.072575
-0.0733073
-0.0713373
-0.0748377
-0.0716026
-0.0711861
-0.0691084
-0.0676184
-0.0707036
-0.066524
-0.0705228
-0.0675028
-0.068091
-0.0653787
-0.0678212
-0.0652154
-0.0646083
-0.0670319
-0.0712572
-0.064701
-0.0655032
-0.085919
-0.0656563
-0.0715075
-0.0749494
-0.0908335
-0.0670265
-0.0749292
-0.10431
-0.0741075
-0.0829287
-0.0961136
-0.105825
-0.0780938
-0.0873963
-0.109762
-0.0863936
-0.0953851
-0.107157
-0.107178
-0.0904053
-0.0963937
-0.106292
-0.0969554
-0.097444
-0.106135
-0.101469
-0.0962077
-0.0897603
-0.097242
-0.096934
-0.0961393
-0.0998267
-0.0939332
-0.0865971
-0.0778198
-0.071598
-0.0771427
-0.0841593
-0.0648753
-0.0685814
-0.0747088
-0.0810848
-0.0694853
-0.0865472
-0.0866688
-0.0693075
-0.0676194
-0.082317
-0.0819362
-0.0666668
-0.0850914
-0.0815214
-0.0670499
-0.0672857
-0.0817902
-0.0828792
-0.0712682
-0.0811375
-0.0819803
-0.0683421
-0.0744646
-0.0835695
-0.0864527
-0.0811835
-0.0826213
-0.0867762
-0.0771453
-0.0860362
-0.0875705
-0.0923909
-0.0940008
-0.0888696
-0.0947281
-0.0891887
-0.0955982
-0.0945232
-0.0988979
-0.0973603
-0.096142
-0.0991094
-0.095263
-0.087514
-0.0982017
-0.0900491
-0.0980003
-0.099885
-0.101728
-0.0839341
-0.074949
-0.0866683
-0.0793566
-0.0184241
-0.0142808
-0.0203837
-0.0143082
-0.0183102
-0.014454
-0.0216158
-0.030817
-0.0237705
-0.0439437
-0.0207365
-0.0297396
-0.0250956
-0.037138
-0.0544604
-0.0520424
-0.0671115
-0.032457
-0.0381148
-0.0409976
-0.0456415
-0.0707717
-0.0685691
-0.068569
-0.039506
-0.0413705
-0.0443834
-0.0396986
-0.0739767
-0.0696835
-0.0719567
-0.0410712
-0.0400291
-0.038928
-0.0392216
-0.0592304
-0.0713709
-0.0733725
-0.0404017
-0.0446312
-0.0401436
-0.0449428
-0.0654839
-0.0764153
-0.0896702
-0.0471201
-0.055431
-0.0470037
-0.053399
-0.0910967
-0.0937334
-0.100914
-0.0587416
-0.0679381
-0.0553098
-0.0597678
-0.023545
-0.0382336
-0.044728
-0.0168275
-0.0229803
-0.0188032
-0.0203048
-0.0483121
-0.0447447
-0.0455116
-0.0260386
-0.0371712
-0.0211828
-0.0267416
-0.0691728
-0.0472077
-0.0604541
-0.0411518
-0.0473547
-0.0300093
-0.0408882
-0.0733954
-0.0663303
-0.0794819
-0.0463466
-0.0407427
-0.0432973
-0.0437496
-0.073939
-0.0820526
-0.0835796
-0.0395791
-0.0389389
-0.0429901
-0.0403341
-0.0762772
-0.0820346
-0.074939
-0.0395102
-0.0430329
-0.0395861
-0.0390174
-0.089844
-0.0729215
-0.0696802
-0.0446317
-0.0496983
-0.039535
-0.0424233
-0.0950597
-0.0693877
-0.0678271
-0.0512502
-0.0549911
-0.0434573
-0.0454011
-0.0451582
-0.0346643
-0.0385088
-0.0251588
-0.0247104
-0.028149
-0.0282354
-0.0472765
-0.0386528
-0.0423551
-0.0248191
-0.026592
-0.0278607
-0.0283748
-0.0544533
-0.04375
-0.0430685
-0.0283259
-0.0370251
-0.0289334
-0.0330888
-0.0750793
-0.0438081
-0.0563896
-0.0397485
-0.0441494
-0.0353623
-0.0436996
-0.0830783
-0.062288
-0.0767651
-0.044542
-0.0433641
-0.0467068
-0.0523195
-0.0737357
-0.0788599
-0.074278
-0.0424503
-0.040397
-0.0520023
-0.0469508
-0.0640654
-0.0706458
-0.0614636
-0.0404041
-0.0418475
-0.0448412
-0.0389535
-0.0616479
-0.0593353
-0.0551612
-0.0423492
-0.0427592
-0.0373727
-0.0352202
-0.0494474
-0.0415489
-0.0585281
-0.0356167
-0.0358166
-0.0375943
-0.042697
-0.0461025
-0.061669
-0.0588739
-0.0343648
-0.0308941
-0.0423868
-0.0400387
-0.0427995
-0.0574494
-0.0586673
-0.0309205
-0.0349126
-0.040353
-0.045132
-0.0560284
-0.0612907
-0.0720773
-0.0373001
-0.0462349
-0.047661
-0.0554138
-0.0768349
-0.0755789
-0.0831635
-0.049416
-0.0549213
-0.0573849
-0.0591122
-0.0752671
-0.0840974
-0.0809646
-0.0544084
-0.0481973
-0.058097
-0.0515275
-0.0624008
-0.0783813
-0.0693561
-0.0454594
-0.0378566
-0.0484054
-0.0393307
-0.0549736
-0.0665041
-0.0600048
-0.0359966
-0.0340963
-0.0371822
-0.0356023
-0.013913
-0.0126439
-0.0186095
-0.010789
-0.014262
-0.0131315
-0.0188374
-0.022363
-0.0217809
-0.0340658
-0.0156502
-0.0186649
-0.0208475
-0.0246459
-0.0293418
-0.0374137
-0.0387334
-0.019471
-0.0215546
-0.0248102
-0.0235052
-0.0310503
-0.0368025
-0.0323528
-0.0224232
-0.0250034
-0.023391
-0.0251084
-0.0322985
-0.0320169
-0.0335681
-0.0260514
-0.0293994
-0.0260406
-0.0289527
-0.0381787
-0.0347582
-0.0398289
-0.0307335
-0.0344023
-0.0298996
-0.0327366
-0.0477842
-0.0417993
-0.0475927
-0.0356495
-0.0391641
-0.033622
-0.0357655
-0.0586786
-0.0493021
-0.0534822
-0.040288
-0.0429991
-0.0362127
-0.036635
-0.0200793
-0.0141135
-0.0179223
-0.0142829
-0.0200697
-0.0134831
-0.0175335
-0.0349917
-0.0193502
-0.0260319
-0.0219624
-0.025875
-0.0188384
-0.0224113
-0.0409077
-0.0291333
-0.0370168
-0.0261236
-0.0243892
-0.0232896
-0.0243778
-0.0316896
-0.036829
-0.0402105
-0.0321059
-0.038374
-0.0303789
-0.0333262
-0.0292758
-0.0326599
-0.0340952
-0.0286521
-0.0335309
-0.0290171
-0.0292731
-0.0381869
-0.033678
-0.0346152
-0.0289287
-0.0316389
-0.0285069
-0.0303893
-0.0448005
-0.0354259
-0.0385413
-0.0324991
-0.0344131
-0.0308877
-0.0315469
-0.050281
-0.0395072
-0.0415709
-0.0346878
-0.0342606
-0.0314321
-0.0307083
-0.0201197
-0.0199455
-0.0216045
-0.0149195
-0.0169102
-0.0178276
-0.0187357
-0.0242642
-0.0220718
-0.0245291
-0.0178397
-0.0209908
-0.0194008
-0.0225092
-0.0337117
-0.0254536
-0.0301516
-0.0219595
-0.0240149
-0.0236905
-0.0273804
-0.0312573
-0.0366452
-0.0330613
-0.0304563
-0.0349479
-0.0320992
-0.0295575
-0.0365491
-0.0371098
-0.0389566
-0.0355813
-0.0397478
-0.0361279
-0.0355996
-0.0353825
-0.0455253
-0.039201
-0.0286518
-0.029712
-0.0295911
-0.0256849
-0.0371322
-0.0369603
-0.0319388
-0.0299463
-0.0303548
-0.0249232
-0.0248152
-0.0384701
-0.0310092
-0.031157
-0.0304121
-0.0309003
-0.0253711
-0.0284169
-0.0275722
-0.0252595
-0.0337777
-0.0220575
-0.0220071
-0.0220513
-0.0251232
-0.0263903
-0.0342716
-0.0348813
-0.0221111
-0.0246071
-0.0259487
-0.0290837
-0.0323215
-0.0360305
-0.0420657
-0.025854
-0.0298226
-0.0301858
-0.0333848
-0.0437744
-0.0445745
-0.0510748
-0.0311498
-0.0341222
-0.0342462
-0.0350832
-0.0489547
-0.0523362
-0.0517578
-0.0343198
-0.0313565
-0.0344888
-0.0300201
-0.0395844
-0.0499499
-0.0413532
-0.0295106
-0.0244974
-0.0278793
-0.0226129
-0.0306401
-0.0381247
-0.0307937
-0.0235587
-0.0234773
-0.021804
-0.0226302
-0.0303291
-0.0296612
-0.0310463
-0.0241823
-0.0278951
-0.023823
-0.0292598
-0.0128525