/*--------------------------------*- C++ -*----------------------------------*\
  =========                 |
  \\      /  F ield         | OpenFOAM: The Open Source CFD Toolbox
   \\    /   O peration     | Website:  https://openfoam.org
    \\  /    A nd           | Version:  10
     \\/     M anipulation  |
\*---------------------------------------------------------------------------*/
FoamFile
{
    format      ascii;
    class       volScalarField;
    location    "3.8";
    object      turbidity_0;
}
// * * * * * * * * * * * * * * * * * * * * * * * * * * * * * * * * * * * * * //

dimensions      [0 0 0 0 0 0 0];

internalField   nonuniform List<scalar> 
12920
(
-0.0254699
-0.0254954
-0.0364328
-0.0503891
-0.0676863
-0.0865297
-0.105469
-0.124236
-0.14318
-0.162938
-0.183726
-0.205837
-0.229443
-0.256311
-0.290687
-0.336302
-0.389981
-0.443073
-0.490464
-0.531883
-0.0191199
-0.0348339
-0.0410699
-0.0528271
-0.0695697
-0.0850005
-0.0989184
-0.110857
-0.127861
-0.147525
-0.171973
-0.200129
-0.232836
-0.269184
-0.308595
-0.347771
-0.386767
-0.427654
-0.471036
-0.514537
-0.0246261
-0.0438652
-0.0522996
-0.0716696
-0.0827
-0.089115
-0.0956117
-0.10133
-0.110612
-0.121889
-0.137536
-0.158192
-0.186333
-0.221368
-0.265506
-0.317193
-0.370778
-0.421871
-0.468355
-0.511576
-0.0136731
-0.0362202
-0.0695814
-0.0983364
-0.112942
-0.120666
-0.126377
-0.130355
-0.137324
-0.146063
-0.160139
-0.18032
-0.20717
-0.242026
-0.286072
-0.33486
-0.381435
-0.421966
-0.458167
-0.494871
-0.0103277
-0.0540552
-0.0789352
-0.114087
-0.135711
-0.151264
-0.161894
-0.170738
-0.180478
-0.192556
-0.208198
-0.227496
-0.2501
-0.27593
-0.303884
-0.330745
-0.355058
-0.382136
-0.418088
-0.460239
-0.0726083
-0.0600725
-0.0742494
-0.105239
-0.130365
-0.158189
-0.181836
-0.200461
-0.215739
-0.229316
-0.243665
-0.257777
-0.275541
-0.29722
-0.322879
-0.353155
-0.38824
-0.424023
-0.454771
-0.481379
-0.0470143
-0.0482377
-0.0654735
-0.0798766
-0.0986748
-0.128474
-0.15609
-0.193132
-0.223228
-0.246297
-0.263601
-0.277309
-0.292689
-0.313308
-0.337139
-0.359965
-0.377294
-0.387318
-0.396522
-0.409516
-0.0517944
-0.0419805
-0.0538069
-0.0629296
-0.0786979
-0.0965943
-0.0975652
-0.101844
-0.118582
-0.142574
-0.179191
-0.211381
-0.236929
-0.257612
-0.257251
-0.263085
-0.258012
-0.25933
-0.271427
-0.29061
-0.0262771
-0.0370619
-0.0408709
-0.0491848
-0.0657821
-0.0642233
-0.0695985
-0.0758589
-0.0796643
-0.0865775
-0.111544
-0.148664
-0.178039
-0.195267
-0.186086
-0.157868
-0.178747
-0.205237
-0.232944
-0.259629
-0.0430553
-0.0496202
-0.057861
-0.0723266
-0.0920937
-0.0911409
-0.086901
-0.0777357
-0.0754531
-0.0867329
-0.108615
-0.128414
-0.137273
-0.136859
-0.119793
-0.134634
-0.168918
-0.204029
-0.237475
-0.269825
-0.0298669
-0.0495523
-0.0583817
-0.0687072
-0.0807133
-0.0794131
-0.0765477
-0.0711805
-0.0666779
-0.0709819
-0.092043
-0.106741
-0.109584
-0.10422
-0.102072
-0.137649
-0.18054
-0.225547
-0.269644
-0.314618
-0.0327565
-0.0464935
-0.0505394
-0.0520111
-0.0626511
-0.0635139
-0.0681999
-0.0721441
-0.0680188
-0.0673936
-0.0733362
-0.084969
-0.0958768
-0.0973922
-0.105599
-0.145857
-0.200795
-0.265068
-0.335072
-0.407074
-0.0257524
-0.0433146
-0.061163
-0.0756805
-0.0888317
-0.107622
-0.108402
-0.112016
-0.108645
-0.103201
-0.101605
-0.104556
-0.109283
-0.111809
-0.138784
-0.182261
-0.238895
-0.313965
-0.403597
-0.497614
-0.0212556
-0.0376951
-0.0559311
-0.0752202
-0.097519
-0.125186
-0.149507
-0.172404
-0.182187
-0.188713
-0.19029
-0.195692
-0.203923
-0.216158
-0.236085
-0.269637
-0.312266
-0.368339
-0.443431
-0.534186
-0.0151542
-0.031853
-0.0502876
-0.0681592
-0.0830563
-0.106231
-0.137065
-0.163131
-0.183633
-0.200128
-0.213417
-0.22677
-0.240292
-0.255903
-0.275746
-0.303731
-0.339387
-0.3887
-0.456028
-0.538168
-0.0105306
-0.0291911
-0.0528477
-0.080288
-0.101945
-0.125272
-0.148995
-0.173459
-0.194472
-0.212283
-0.226279
-0.238327
-0.255501
-0.279093
-0.30989
-0.349013
-0.394826
-0.447951
-0.506874
-0.567702
-0.0166393
-0.0326439
-0.0589848
-0.0911247
-0.11727
-0.14058
-0.162086
-0.186678
-0.209161
-0.228358
-0.242226
-0.254632
-0.27546
-0.305396
-0.343884
-0.390035
-0.439673
-0.489
-0.535069
-0.577829
-0.0216829
-0.0325504
-0.0538838
-0.0962247
-0.132297
-0.154063
-0.171146
-0.188017
-0.209773
-0.229371
-0.250497
-0.267777
-0.29228
-0.322437
-0.359781
-0.402874
-0.447841
-0.487338
-0.521457
-0.551026
-0.0104693
-0.024002
-0.0395207
-0.0823612
-0.131175
-0.165096
-0.192699
-0.210718
-0.231008
-0.246252
-0.266686
-0.286085
-0.312023
-0.340989
-0.373712
-0.40914
-0.442336
-0.464647
-0.476599
-0.480363
-0.0169294
-0.0204989
-0.032552
-0.0522499
-0.0821031
-0.116827
-0.159875
-0.212591
-0.252479
-0.280219
-0.300455
-0.319212
-0.338732
-0.360396
-0.384282
-0.409374
-0.433332
-0.453655
-0.470091
-0.483409
-0.00841561
-0.00440354
-0.00775264
-0.0135047
-0.0238902
-0.029834
-0.0329912
-0.0324794
-0.0329794
-0.0350912
-0.0389891
-0.0413929
-0.0443626
-0.0561322
-0.0828778
-0.119313
-0.158524
-0.195
-0.22427
-0.242991
-0.0137413
-0.00885561
-0.00881158
-0.00995737
-0.0107196
-0.00931948
-0.0090202
-0.010954
-0.0153325
-0.0215577
-0.0292939
-0.0380965
-0.0486117
-0.0617592
-0.0784609
-0.0976661
-0.119672
-0.133839
-0.135534
-0.125635
-0.0136291
-0.00981464
-0.0101157
-0.0128581
-0.0123235
-0.0108753
-0.00992173
-0.0104319
-0.0132193
-0.0191659
-0.0290805
-0.0441998
-0.0668567
-0.0958077
-0.124134
-0.145906
-0.159571
-0.161688
-0.158365
-0.1534
-0.00385352
-0.00400417
-0.00785003
-0.0172467
-0.0238161
-0.022645
-0.0199296
-0.0186699
-0.0208191
-0.0274519
-0.0400176
-0.0592534
-0.0857211
-0.110995
-0.126305
-0.129928
-0.127944
-0.125182
-0.124352
-0.123235
-0.0132153
-0.0136159
-0.00984793
-0.0220346
-0.03534
-0.0424604
-0.0470946
-0.0450482
-0.0470575
-0.0497515
-0.0578812
-0.0679749
-0.0801789
-0.088181
-0.0914546
-0.0975338
-0.110699
-0.120598
-0.120489
-0.109873
-0.0214475
-0.0085947
-0.0114761
-0.0268492
-0.0381606
-0.0456148
-0.0529941
-0.0515988
-0.0499743
-0.0458329
-0.0451648
-0.0475627
-0.05264
-0.0600062
-0.0724361
-0.0866595
-0.0921993
-0.0848965
-0.0737731
-0.0627928
-0.0273323
-0.0185768
-0.0323022
-0.0317441
-0.0381927
-0.0393524
-0.0462596
-0.0536333
-0.0548597
-0.049271
-0.0431744
-0.0411844
-0.0458668
-0.0555454
-0.0711213
-0.0848473
-0.0912111
-0.0896287
-0.0825471
-0.0691405
-0.0168571
-0.0148654
-0.0163655
-0.0155716
-0.0178516
-0.0186461
-0.0214294
-0.0293573
-0.0519777
-0.0703009
-0.0640221
-0.0470355
-0.0451269
-0.056046
-0.084451
-0.0935713
-0.0948383
-0.0903728
-0.0822453
-0.0697605
-0.0164477
-0.00969584
-0.005875
-0.00438645
-0.00755457
-0.0101467
-0.0144064
-0.0206347
-0.0368446
-0.0590507
-0.074267
-0.0698223
-0.0583208
-0.0716204
-0.0971107
-0.0839772
-0.083292
-0.0828002
-0.0787239
-0.0710743
-0.00552669
-0.0096933
-0.00859522
-0.00636641
-0.015442
-0.0155257
-0.0177385
-0.0278488
-0.0552956
-0.0717862
-0.0739352
-0.0733535
-0.0794076
-0.0925568
-0.0780481
-0.0669327
-0.0765875
-0.0842865
-0.0872517
-0.0868726
-0.006456
-0.013483
-0.0175152
-0.0140007
-0.0262607
-0.0320618
-0.0405212
-0.0458218
-0.0473357
-0.0598479
-0.0785734
-0.0820731
-0.0702503
-0.0633178
-0.0553132
-0.0638926
-0.0811961
-0.0940558
-0.1017
-0.106877
-0.00245651
-0.0133481
-0.0113874
-0.0113859
-0.0227086
-0.029818
-0.0423645
-0.049257
-0.0450864
-0.0436513
-0.0624616
-0.0791488
-0.0717418
-0.0598342
-0.0514817
-0.0698118
-0.0943393
-0.112697
-0.119099
-0.116454
-0.00147431
-0.0156774
-0.0181689
-0.0180479
-0.0256869
-0.0341394
-0.0404625
-0.0595934
-0.0633242
-0.0690983
-0.0772056
-0.07901
-0.0710375
-0.0603718
-0.0554536
-0.0758203
-0.106086
-0.12946
-0.134493
-0.127883
-0.00223109
-0.0154383
-0.0249353
-0.0342217
-0.0448688
-0.0440698
-0.0437993
-0.041901
-0.0464957
-0.0522738
-0.0570741
-0.054833
-0.0487933
-0.045538
-0.0529982
-0.0748193
-0.112392
-0.148983
-0.168255
-0.163436
-0.00318898
-0.0142844
-0.0218052
-0.0219953
-0.0284145
-0.0272634
-0.0323511
-0.0283931
-0.0313299
-0.0321899
-0.0360709
-0.0353864
-0.0348814
-0.0370114
-0.0471406
-0.0680886
-0.100731
-0.127598
-0.137221
-0.121153
-0.00493305
-0.0189773
-0.0351304
-0.0408842
-0.046906
-0.0514615
-0.0555292
-0.0516459
-0.0438988
-0.0313744
-0.0258162
-0.0249593
-0.0290809
-0.0380378
-0.0544692
-0.0710033
-0.086567
-0.0915292
-0.0888421
-0.079486
-0.00248896
-0.013627
-0.0302088
-0.0413567
-0.0564281
-0.0604925
-0.0671873
-0.0598977
-0.0490245
-0.0313746
-0.0241486
-0.0255111
-0.0339511
-0.047215
-0.0649997
-0.0746995
-0.0773284
-0.0729074
-0.0699571
-0.0717194
-0.0056694
-0.0198942
-0.0311839
-0.0373508
-0.0533558
-0.0422012
-0.0485017
-0.0399752
-0.0389345
-0.0307313
-0.0275759
-0.0305212
-0.0403871
-0.0530124
-0.0669738
-0.0701644
-0.0666021
-0.060647
-0.0578049
-0.0575534
-0.0135592
-0.0166327
-0.0343886
-0.0391686
-0.0433259
-0.0317522
-0.042222
-0.0327387
-0.0304983
-0.0275185
-0.0291923
-0.034737
-0.0456195
-0.0578762
-0.0695802
-0.0692132
-0.0614117
-0.0524871
-0.0461547
-0.0422451
-0.00501535
-0.00355295
-0.00690457
-0.0152405
-0.030484
-0.0383752
-0.0679332
-0.068585
-0.0802273
-0.0861545
-0.100107
-0.11509
-0.133512
-0.151642
-0.168444
-0.180487
-0.187827
-0.189337
-0.183368
-0.175124
-0.000103643
-0.00171679
-0.00397241
-0.00546513
-0.00797192
-0.00878603
-0.0092561
-0.009267
-0.0106029
-0.0130293
-0.0168166
-0.0220474
-0.0306547
-0.0449312
-0.0653334
-0.0885744
-0.110123
-0.127778
-0.139598
-0.145225
-0.00154056
-0.0027989
-0.0040937
-0.00563583
-0.00614332
-0.00660995
-0.00813171
-0.0111404
-0.0153745
-0.0206982
-0.0265711
-0.0327138
-0.0390852
-0.0448263
-0.0484762
-0.0490758
-0.0482519
-0.0449159
-0.0403018
-0.0361727
-0.0116348
-0.00911405
-0.00708607
-0.00754168
-0.00759237
-0.00762121
-0.00834842
-0.0109169
-0.0157359
-0.022913
-0.0323177
-0.0432815
-0.0555983
-0.0665871
-0.0743521
-0.0763553
-0.0736514
-0.067375
-0.0611173
-0.0560034
-0.00135451
-0.0037646
-0.00650488
-0.00903978
-0.0113301
-0.0122029
-0.0131325
-0.0155515
-0.020469
-0.0277838
-0.0375571
-0.0481144
-0.0584306
-0.0649225
-0.0651345
-0.0610358
-0.0565695
-0.0533392
-0.0515691
-0.0502427
-0.00838517
-0.00375745
-0.00432321
-0.00767592
-0.0119959
-0.0155572
-0.0194051
-0.0211283
-0.0249729
-0.0293746
-0.0352665
-0.0407307
-0.045416
-0.0477309
-0.048358
-0.0495037
-0.0514446
-0.0507562
-0.0470042
-0.0416621
-0.0122151
-0.00467213
-0.00581699
-0.00958634
-0.013352
-0.0164583
-0.0198685
-0.020522
-0.0223078
-0.0242979
-0.0271356
-0.0299464
-0.0321875
-0.0338518
-0.0351439
-0.0355721
-0.033311
-0.0292399
-0.0260311
-0.0245896
-0.00789331
-0.0117963
-0.0164906
-0.0141812
-0.0149682
-0.0149055
-0.0183463
-0.0212561
-0.0226085
-0.0234078
-0.0251315
-0.0276077
-0.0304601
-0.0331808
-0.0356452
-0.0362947
-0.0347107
-0.03139
-0.0278354
-0.0248861
-0.0208755
-0.015158
-0.0119251
-0.0093684
-0.00859526
-0.00963094
-0.0108775
-0.0172051
-0.0243444
-0.0278812
-0.0269035
-0.028638
-0.0329452
-0.0392223
-0.0479645
-0.0483064
-0.0452109
-0.0394925
-0.0331632
-0.0276928
-0.0158307
-0.00824353
-0.00324371
-0.00315336
-0.00626934
-0.00847902
-0.0105855
-0.0157635
-0.0248811
-0.0300485
-0.0311638
-0.0334211
-0.0405172
-0.050742
-0.0591268
-0.0485267
-0.0447124
-0.039662
-0.0337484
-0.0289535
-0.00313411
-0.00462173
-0.00400622
-0.00386583
-0.00717447
-0.00888682
-0.0135532
-0.0234294
-0.0385449
-0.038933
-0.0328311
-0.0342736
-0.0398709
-0.0464064
-0.0484733
-0.0445621
-0.0460826
-0.0441498
-0.040286
-0.0366117
-0.00314137
-0.00694455
-0.00782341
-0.00719786
-0.0136561
-0.0144717
-0.0180322
-0.0207712
-0.0264477
-0.0356156
-0.0373075
-0.0358538
-0.0356841
-0.0375757
-0.038097
-0.0460345
-0.0496795
-0.0491185
-0.047391
-0.0456445
-0.0021522
-0.00636534
-0.00636493
-0.00809758
-0.0164344
-0.0201305
-0.026032
-0.0267662
-0.0272003
-0.0350956
-0.0465119
-0.0474737
-0.0366437
-0.0295979
-0.0347474
-0.0506742
-0.0561639
-0.0556825
-0.0514512
-0.046199
-0.00370985
-0.00691365
-0.00740685
-0.007928
-0.0141547
-0.018308
-0.0227233
-0.0315928
-0.0370001
-0.0429708
-0.0457521
-0.0411952
-0.0324864
-0.0300294
-0.0418618
-0.0534835
-0.0618902
-0.0621693
-0.0557448
-0.0486185
-0.00196576
-0.00399576
-0.00543179
-0.0105552
-0.0187093
-0.0168151
-0.0184799
-0.017829
-0.0210693
-0.0227373
-0.0239128
-0.0231658
-0.0243382
-0.0296254
-0.0393684
-0.0518754
-0.0650971
-0.0720526
-0.0692389
-0.0596632
-0.00399552
-0.0070808
-0.00782075
-0.00818091
-0.0124089
-0.0115446
-0.0138026
-0.0120779
-0.0133671
-0.01357
-0.0152826
-0.0166938
-0.0199724
-0.0251937
-0.0329437
-0.0420748
-0.0516036
-0.0550974
-0.0516775
-0.0438595
-0.0091497
-0.0140391
-0.0172984
-0.0197046
-0.0252444
-0.0258221
-0.0241066
-0.0179174
-0.0137775
-0.0114477
-0.0124242
-0.0148814
-0.0189015
-0.0237404
-0.0295917
-0.0340916
-0.0376147
-0.0374235
-0.0356286
-0.0334452
-0.00192378
-0.00744802
-0.0194105
-0.0234545
-0.0313229
-0.0282014
-0.0275238
-0.0191994
-0.0143907
-0.0122015
-0.0137541
-0.0172066
-0.0215729
-0.0257506
-0.0296804
-0.0314083
-0.0322488
-0.0322102
-0.0325036
-0.0332819
-0.00726906
-0.0131066
-0.0156849
-0.0197888
-0.0243497
-0.0176027
-0.0187143
-0.0144349
-0.0137623
-0.0142583
-0.0165341
-0.019705
-0.0232656
-0.025625
-0.0272844
-0.0270454
-0.026737
-0.0266858
-0.027118
-0.0278533
-0.00645828
-0.0102533
-0.0173312
-0.0159548
-0.0155909
-0.0150882
-0.0165404
-0.0144167
-0.0146774
-0.0159635
-0.0181789
-0.0203848
-0.0225863
-0.0236679
-0.0241364
-0.0236738
-0.0233297
-0.0233467
-0.0238891
-0.0248986
-0.00458369
-0.00390544
-0.00682138
-0.0113953
-0.0197686
-0.020034
-0.0333443
-0.0331746
-0.0403508
-0.0469705
-0.0567907
-0.0672907
-0.0789323
-0.0898301
-0.0992815
-0.105156
-0.107628
-0.106031
-0.100181
-0.0941567
-0.000652056
-0.00165493
-0.00264358
-0.00299646
-0.0032081
-0.00359362
-0.00461082
-0.0062094
-0.00857567
-0.0121361
-0.0174674
-0.0254378
-0.0363323
-0.0495417
-0.0634087
-0.076017
-0.0857915
-0.0917048
-0.09303
-0.0902868
-0.00127605
-0.00265462
-0.00411452
-0.00504261
-0.00572956
-0.0075001
-0.00992753
-0.0135352
-0.017437
-0.0216192
-0.0255502
-0.0289737
-0.0314808
-0.0320106
-0.0306388
-0.0283743
-0.0258743
-0.0245783
-0.0236039
-0.0236172
-0.00364745
-0.00729421
-0.0060966
-0.00614099
-0.00639087
-0.00743902
-0.00979647
-0.0137876
-0.0188988
-0.0238461
-0.0285677
-0.0318353
-0.0342624
-0.0346985
-0.0335855
-0.0306864
-0.0276878
-0.0252075
-0.0241013
-0.0240459
-0.00983128
-0.00695084
-0.00673566
-0.0079788
-0.009063
-0.0101492
-0.0124562
-0.0159222
-0.0204557
-0.0243259
-0.0279452
-0.0299966
-0.031315
-0.0306129
-0.0283958
-0.0260542
-0.0247275
-0.0243893
-0.0249134
-0.0258675
-0.00285762
-0.00289592
-0.00402378
-0.00657568
-0.00969301
-0.0118525
-0.0143272
-0.016436
-0.0191279
-0.0210823
-0.0228616
-0.0236571
-0.0241643
-0.0239404
-0.0236917
-0.023757
-0.0239811
-0.023689
-0.0235367
-0.0240496
-0.00408734
-0.00322322
-0.00440319
-0.00733352
-0.0100103
-0.0118261
-0.0135154
-0.0147044
-0.0159828
-0.0168789
-0.017343
-0.0176122
-0.0176866
-0.0178886
-0.0181652
-0.0184883
-0.0188299
-0.0197739
-0.0216741
-0.0244372
-0.00647643
-0.00854509
-0.0073991
-0.00706981
-0.00886279
-0.0105059
-0.0126295
-0.0143172
-0.0152942
-0.0157849
-0.015964
-0.0161287
-0.0165003
-0.0169454
-0.0175166
-0.0179735
-0.0186561
-0.0199145
-0.0220559
-0.0250612
-0.0108553
-0.00717789
-0.00601163
-0.00498728
-0.00621561
-0.00848382
-0.0100083
-0.0139453
-0.015952
-0.0173555
-0.0172323
-0.0177635
-0.0187822
-0.0206808
-0.0204259
-0.0199788
-0.0194739
-0.0194655
-0.020623
-0.0230085
-0.00866125
-0.00426258
-0.00203806
-0.00347704
-0.00741089
-0.00901949
-0.0102757
-0.0138958
-0.0170162
-0.0193414
-0.0211628
-0.0233964
-0.0266139
-0.0302581
-0.0283706
-0.0181779
-0.0172147
-0.0172339
-0.0183129
-0.0205927
-0.00373828
-0.00272477
-0.00266915
-0.00406456
-0.00787714
-0.0100477
-0.0136203
-0.0193292
-0.0221699
-0.0212596
-0.0228993
-0.0257634
-0.0285209
-0.0286487
-0.0204985
-0.0165358
-0.0173201
-0.0178744
-0.0190911
-0.0210903
-0.00209146
-0.00450758
-0.00465189
-0.00652051
-0.0108753
-0.0117234
-0.0139959
-0.016737
-0.0198483
-0.0224109
-0.0245262
-0.0258554
-0.0260052
-0.0253463
-0.023239
-0.020656
-0.0208804
-0.0212461
-0.0225307
-0.0241058
-0.00199299
-0.00490918
-0.00497291
-0.00757268
-0.0128873
-0.0149298
-0.0178928
-0.0205812
-0.0243201
-0.0286499
-0.0296347
-0.0238663
-0.02027
-0.0220485
-0.0247337
-0.0246565
-0.0254265
-0.0252322
-0.0249586
-0.0250991
-0.00338207
-0.00549077
-0.00534503
-0.00577224
-0.0101675
-0.0110044
-0.0138472
-0.0196009
-0.0219712
-0.023138
-0.0211286
-0.0185507
-0.0194091
-0.0231282
-0.0266924
-0.0289006
-0.0297984
-0.0286199
-0.0272142
-0.0269656
-0.00178149
-0.00313786
-0.00293118
-0.00489054
-0.00883273
-0.00780651
-0.0099677
-0.00954748
-0.0115251
-0.0128029
-0.0147062
-0.0170712
-0.0203148
-0.0240442
-0.0276669
-0.0308008
-0.0333477
-0.0334385
-0.0321751
-0.0313581
-0.00472745
-0.00601766
-0.00435624
-0.0045937
-0.00687547
-0.00633714
-0.00765581
-0.007397
-0.00884603
-0.0102675
-0.0127071
-0.0152458
-0.018268
-0.0210077
-0.0239104
-0.0263405
-0.0284735
-0.0290812
-0.0295134
-0.0307843
-0.00571462
-0.00844112
-0.00970253
-0.0102832
-0.0131222
-0.0111455
-0.00960904
-0.00804579
-0.00864055
-0.0103148
-0.0125774
-0.0149043
-0.0172649
-0.0192034
-0.0212627
-0.0226693
-0.0240915
-0.0250989
-0.0264714
-0.0281558
-0.0022057
-0.00890169
-0.0128806
-0.012206
-0.0159484
-0.0114507
-0.0103149
-0.00895112
-0.00968582
-0.0116177
-0.0136274
-0.0156172
-0.0173491
-0.0187188
-0.0201086
-0.0212581
-0.0226192
-0.0241486
-0.0259299
-0.0280089
-0.00640644
-0.0083468
-0.00901345
-0.0103498
-0.0111501
-0.00905097
-0.00928776
-0.00986887
-0.0110798
-0.0127295
-0.0141603
-0.0152659
-0.0162484
-0.0169741
-0.0178367
-0.0189306
-0.0202949
-0.0219395
-0.0237503
-0.0258845
-0.00443107
-0.00661193
-0.00914567
-0.00934493
-0.0102244
-0.0108872
-0.0109245
-0.0121334
-0.0130062
-0.0142777
-0.0151625
-0.0160065
-0.0166749
-0.0173832
-0.01817
-0.0191626
-0.0203926
-0.0219473
-0.0238416
-0.0258079
-0.00688262
-0.00494176
-0.00827899
-0.0106392
-0.0152716
-0.0156539
-0.021663
-0.0242958
-0.0295941
-0.0356912
-0.042762
-0.0502495
-0.0576847
-0.0641581
-0.0692346
-0.0714733
-0.0711032
-0.0679533
-0.0619047
-0.0555477
-0.000119575
-0.000935625
-0.00192828
-0.00258651
-0.00306719
-0.00464402
-0.00770011
-0.0122052
-0.0174698
-0.0237599
-0.0302034
-0.0364629
-0.0417012
-0.0455777
-0.0479146
-0.0486458
-0.0473099
-0.0437807
-0.0384488
-0.0331853
-0.000117936
-0.00227533
-0.00401166
-0.00575593
-0.00812042
-0.0119343
-0.015772
-0.0197465
-0.0228002
-0.0246748
-0.0254386
-0.0250286
-0.0242104
-0.0231353
-0.0221324
-0.0215552
-0.0209602
-0.0205279
-0.0199371
-0.019501
-0.00180637
-0.00566282
-0.00622628
-0.0063
-0.00766537
-0.0105762
-0.0140881
-0.0162393
-0.0174505
-0.0174876
-0.0173912
-0.017012
-0.0171416
-0.0172099
-0.0174223
-0.0175293
-0.0176858
-0.0177745
-0.0177419
-0.0175899
-0.00512363
-0.00725414
-0.00790759
-0.00825311
-0.00890661
-0.0104576
-0.0123513
-0.0134349
-0.0142821
-0.0146416
-0.0152963
-0.0157705
-0.0166281
-0.0172504
-0.0179062
-0.0185524
-0.0191858
-0.0196218
-0.0198749
-0.0199069
-0.000338325
-0.00205147
-0.00563702
-0.00877769
-0.00964423
-0.0102445
-0.011211
-0.0118216
-0.0126884
-0.0133117
-0.0143387
-0.0152636
-0.0164789
-0.0176056
-0.0188223
-0.0199822
-0.0211021
-0.0220837
-0.0229949
-0.0237842
-0.00254194
-0.00314487
-0.00580275
-0.00853605
-0.00943836
-0.00990319
-0.0105196
-0.011059
-0.0119951
-0.0130142
-0.0144075
-0.0158364
-0.017383
-0.0188336
-0.0202478
-0.0215327
-0.0227326
-0.0238012
-0.0247723
-0.0257269
-0.0168751
-0.00594826
-0.00600967
-0.00744321
-0.00871362
-0.00965799
-0.0106004
-0.0113467
-0.0123515
-0.0134957
-0.0150048
-0.0165322
-0.018098
-0.0195172
-0.0207542
-0.0217542
-0.022447
-0.022882
-0.0230909
-0.0233261
-0.00314433
-0.00438882
-0.00413701
-0.00585362
-0.00790163
-0.00936317
-0.0101243
-0.011578
-0.0120131
-0.0128883
-0.0136282
-0.0147257
-0.01595
-0.0171858
-0.0189483
-0.0197408
-0.0199811
-0.0197493
-0.0191263
-0.0185115
-0.00334044
-0.00170499
-0.00200685
-0.00518834
-0.00865184
-0.00964033
-0.0101148
-0.0115552
-0.0123351
-0.0125062
-0.0123121
-0.0123433
-0.0127563
-0.0136446
-0.0161812
-0.0172949
-0.0177301
-0.017429
-0.0164942
-0.0153196
-0.00178185
-0.00170602
-0.00259586
-0.00569637
-0.00882551
-0.0102695
-0.0115411
-0.0129762
-0.0134651
-0.0130798
-0.0125157
-0.0117301
-0.0109873
-0.0112999
-0.0147131
-0.0167496
-0.0177683
-0.0180555
-0.0175711
-0.0164926
-0.00224722
-0.00318756
-0.00469771
-0.00761604
-0.0100154
-0.0112772
-0.0125673
-0.0133624
-0.0143206
-0.0147335
-0.0139397
-0.0124977
-0.011916
-0.012279
-0.0146804
-0.0176799
-0.0191683
-0.0201684
-0.0205098
-0.0202024
-0.00136566
-0.00274285
-0.00414955
-0.00726983
-0.0096192
-0.0111449
-0.0123096
-0.0150372
-0.0152698
-0.0147125
-0.0135824
-0.0131521
-0.0136668
-0.0143336
-0.016701
-0.01987
-0.0210335
-0.0217819
-0.022035
-0.0219141
-0.00056729
-0.00193702
-0.0031087
-0.00511396
-0.00743448
-0.00802168
-0.0092982
-0.0111673
-0.0118754
-0.0130116
-0.014481
-0.0162249
-0.0178552
-0.0192774
-0.0227629
-0.0240695
-0.0250222
-0.0257381
-0.0261482
-0.0263922
-0.0085733
-0.00410106
-0.00279161
-0.00403656
-0.00570929
-0.00676526
-0.00910693
-0.011247
-0.0135826
-0.0159474
-0.0181142
-0.020403
-0.0223454
-0.0243506
-0.0260443
-0.027867
-0.0296227
-0.0314659
-0.0333198
-0.0352044
-0.0175696
-0.00660032
-0.00319477
-0.00384703
-0.00521654
-0.00674449
-0.00877922
-0.0111371
-0.0136179
-0.0162338
-0.0185758
-0.0209862
-0.023121
-0.0252169
-0.027044
-0.0287613
-0.0302663
-0.0316367
-0.0328004
-0.0337723
-0.011057
-0.0107515
-0.00679982
-0.00564727
-0.00672288
-0.00754378
-0.00926022
-0.0118901
-0.0144078
-0.0171768
-0.0195456
-0.0220158
-0.0241003
-0.0261579
-0.0277594
-0.0291488
-0.0299786
-0.030245
-0.029862
-0.0289521
-0.008043
-0.00733196
-0.00562758
-0.00621659
-0.00750209
-0.00832894
-0.0100235
-0.0124158
-0.0148238
-0.0172569
-0.0197799
-0.0222956
-0.024844
-0.0274695
-0.0298433
-0.0321999
-0.0341108
-0.0358267
-0.0370392
-0.0378386
-0.00666334
-0.00574049
-0.00606094
-0.00664288
-0.00780832
-0.00922162
-0.0106075
-0.0121771
-0.0137694
-0.015054
-0.0170413
-0.0188257
-0.0214555
-0.0241255
-0.0273935
-0.030811
-0.0345025
-0.0382846
-0.0420682
-0.0454142
-0.00230271
-0.00440015
-0.00823519
-0.00930013
-0.0108026
-0.0119991
-0.0129287
-0.014886
-0.0155992
-0.0174036
-0.0180914
-0.0193326
-0.0199311
-0.0205749
-0.0213265
-0.0220784
-0.0232987
-0.0249554
-0.0274703
-0.0307048
-0.00491188
-0.00481062
-0.00891275
-0.0113136
-0.0138318
-0.0159744
-0.0190664
-0.0216825
-0.02538
-0.0285419
-0.0327352
-0.035713
-0.038893
-0.0406513
-0.0413829
-0.0398148
-0.0362685
-0.0311381
-0.0256819
-0.0221505
-0.0335201
-0.0377719
-0.0355817
-0.0239282
-0.0248665
-0.0250314
-0.0261142
-0.0334221
-0.0348269
-0.0338161
-0.0255989
-0.0280835
-0.0265364
-0.027918
-0.0373219
-0.0326427
-0.0409077
-0.0250152
-0.0263637
-0.0287385
-0.0320543
-0.0363232
-0.0434508
-0.0465127
-0.0268572
-0.0282034
-0.0325564
-0.0308913
-0.0742851
-0.0680505
-0.0691465
-0.0564969
-0.0586353
-0.0553036
-0.058174
-0.078987
-0.0697695
-0.0719833
-0.0611855
-0.0730317
-0.061589
-0.0710249
-0.0835884
-0.0730191
-0.0806403
-0.0778909
-0.0903133
-0.073113
-0.0813852
-0.10289
-0.0849225
-0.100287
-0.0959032
-0.116922
-0.0866269
-0.108556
-0.13862
-0.106107
-0.124558
-0.12562
-0.146212
-0.116185
-0.132168
-0.171128
-0.130294
-0.142365
-0.152395
-0.163281
-0.134956
-0.137633
-0.191344
-0.144803
-0.148646
-0.1663
-0.17089
-0.137378
-0.134639
-0.199699
-0.148916
-0.144074
-0.171848
-0.168172
-0.133025
-0.125295
-0.0795226
-0.0872473
-0.0812038
-0.076977
-0.0714238
-0.0845344
-0.0800796
-0.0753521
-0.0790833
-0.0728623
-0.0721311
-0.0743363
-0.0783756
-0.0733597
-0.0821124
-0.0714287
-0.0731934
-0.0751315
-0.0816351
-0.0724837
-0.0759747
-0.103125
-0.0766359
-0.0944911
-0.0868194
-0.109201
-0.0798871
-0.0985485
-0.124155
-0.100819
-0.113555
-0.116289
-0.12979
-0.104575
-0.114502
-0.136153
-0.115655
-0.117125
-0.131728
-0.132351
-0.115388
-0.113727
-0.137593
-0.11646
-0.112271
-0.131561
-0.127583
-0.112246
-0.106448
-0.130003
-0.110195
-0.101926
-0.125686
-0.117721
-0.104342
-0.0979989
-0.0724835
-0.0733337
-0.0713182
-0.0747512
-0.0715143
-0.0711971
-0.0690666
-0.0675388
-0.0706383
-0.0663859
-0.0704304
-0.0674317
-0.0680186
-0.0653067
-0.0679809
-0.0651131
-0.0646815
-0.0669976
-0.0714154
-0.0646422
-0.0655636
-0.0862457
-0.0657816
-0.0716968
-0.0751617
-0.0910893
-0.0671256
-0.0750896
-0.104408
-0.0742989
-0.0831538
-0.096318
-0.105856
-0.0782549
-0.0875602
-0.109748
-0.0866362
-0.0955417
-0.107153
-0.107098
-0.0905675
-0.096443
-0.106178
-0.0970587
-0.0974405
-0.106035
-0.101346
-0.096188
-0.0896265
-0.0970987
-0.0969243
-0.0961733
-0.0997082
-0.093792
-0.0864506
-0.0777143
-0.0716665
-0.0770938
-0.0842746
-0.0649376
-0.0686512
-0.0745664
-0.0810796
-0.0693848
-0.0866646
-0.0866102
-0.0693367
-0.0676043
-0.0823319
-0.0819551
-0.0667291
-0.0850471
-0.0815795
-0.0670397
-0.0673468
-0.0818488
-0.082996
-0.0714359
-0.0812226
-0.0821155
-0.0684393
-0.0746323
-0.0836948
-0.0865928
-0.0814423
-0.082772
-0.0869914
-0.0773225
-0.0862336
-0.087717
-0.0925689
-0.0941825
-0.0890944
-0.0948862
-0.089386
-0.0956598
-0.0947073
-0.0989591
-0.0973933
-0.0962779
-0.0991972
-0.0952451
-0.0873641
-0.0981903
-0.0899341
-0.0980605
-0.0999679
-0.101794
-0.0837774
-0.0748677
-0.0865529
-0.079341
-0.0185027
-0.0143467
-0.0205375
-0.0143637
-0.0183967
-0.0145261
-0.0217653
-0.0310457
-0.0239861
-0.0443779
-0.0208481
-0.0298539
-0.0252687
-0.0373387
-0.0546349
-0.052432
-0.0672481
-0.0325657
-0.0381635
-0.041177
-0.0456145
-0.0708687
-0.0686068
-0.0686008
-0.0395443
-0.0413382
-0.0443072
-0.0396417
-0.0737469
-0.0697378
-0.0718874
-0.0410279
-0.0400029
-0.0388903
-0.0392381
-0.0590961
-0.0712831
-0.0734588
-0.0404089
-0.0447127
-0.0401772
-0.0450153
-0.0657159
-0.0765672
-0.0898775
-0.0472217
-0.0555649
-0.0470832
-0.0534744
-0.0914071
-0.0939048
-0.10093
-0.0588801
-0.0680656
-0.0553762
-0.0597942
-0.0237049
-0.0380194
-0.0445089
-0.0168781
-0.0231078
-0.0187628
-0.0203127
-0.0486416
-0.0445461
-0.0454384
-0.0261872
-0.0373672
-0.0212116
-0.026868
-0.0693287
-0.0471892
-0.060642
-0.0413389
-0.047343
-0.0301688
-0.0409933
-0.0734303
-0.0665234
-0.0795736
-0.0462701
-0.0406682
-0.0433381
-0.0436981
-0.0738942
-0.0821051
-0.0835035
-0.0395279
-0.0389433
-0.0429423
-0.040311
-0.0763748
-0.0819159
-0.074786
-0.0395288
-0.0430842
-0.0395529
-0.0390249
-0.0899641
-0.0727792
-0.0695876
-0.0446893
-0.0497547
-0.0395583
-0.0424708
-0.0949855
-0.0693093
-0.0677231
-0.0513011
-0.0550188
-0.0435019
-0.0454166
-0.0450228
-0.0346284
-0.0383787
-0.0251044
-0.0246846
-0.0280846
-0.0281672
-0.0472111
-0.038567
-0.042483
-0.0248024
-0.0266323
-0.0278254
-0.0283926
-0.0545605
-0.0438057
-0.0429748
-0.0284062
-0.0371346
-0.0289621
-0.0331956
-0.0751713
-0.0437916
-0.056639
-0.0398192
-0.0441442
-0.035491
-0.0438722
-0.0830399
-0.062567
-0.0769281
-0.0445355
-0.0433502
-0.0468805
-0.0523541
-0.0735316
-0.0789269
-0.0740923
-0.0424136
-0.0403857
-0.051975
-0.0468554
-0.0639624
-0.0704501
-0.0613425
-0.0404105
-0.041877
-0.0447457
-0.0388757
-0.0615991
-0.0592394
-0.0551198
-0.0423731
-0.0427589
-0.0373067
-0.0352192
-0.0494348
-0.041874
-0.0587765
-0.0357038
-0.0357463
-0.0377313
-0.0427225
-0.046041
-0.061763
-0.0587996
-0.0342705
-0.0308725
-0.0423574
-0.0400408
-0.0427606
-0.0574002
-0.058842
-0.0309375
-0.0350408
-0.0403926
-0.0452722
-0.0563583
-0.0615269
-0.0723574
-0.0374563
-0.0464393
-0.0478204
-0.0555462
-0.0770292
-0.0758477
-0.0832879
-0.0496135
-0.0549505
-0.0574899
-0.0590818
-0.0751104
-0.0841623
-0.0808751
-0.0543699
-0.0480757
-0.0580287
-0.0514007
-0.0622737
-0.0782621
-0.0692454
-0.0453342
-0.0377626
-0.048264
-0.0392345
-0.0549328
-0.0663974
-0.0599495
-0.0359231
-0.0341113
-0.0371082
-0.0356409
-0.0139607
-0.0126957
-0.018718
-0.0108159
-0.0142939
-0.0131768
-0.0189045
-0.0224493
-0.0219211
-0.0342326
-0.0156844
-0.0186847
-0.02091
-0.0246581
-0.0293502
-0.0375368
-0.038651
-0.0194898
-0.021568
-0.0247967
-0.0234783
-0.0310278
-0.0366941
-0.0323092
-0.0224409
-0.0250263
-0.0233799
-0.0251313
-0.0323131
-0.0319969
-0.0335984
-0.0260799
-0.0294369
-0.026067
-0.0289801
-0.0382596
-0.0348011
-0.0398991
-0.0307733
-0.0344453
-0.0299269
-0.0327657
-0.0479015
-0.0418728
-0.0476586
-0.0356903
-0.0392037
-0.0336499
-0.0357825
-0.0587865
-0.0493615
-0.053516
-0.0403232
-0.0430169
-0.0362234
-0.0366209
-0.0201946
-0.0141145
-0.0179606
-0.0143365
-0.0201328
-0.0135207
-0.0175802
-0.0351562
-0.0194055
-0.0261519
-0.0220227
-0.0258878
-0.0188842
-0.0224384
-0.0408323
-0.0292631
-0.0370523
-0.0261083
-0.0243479
-0.0233035
-0.0243623
-0.0315989
-0.036716
-0.040114
-0.0320005
-0.0382638
-0.0302945
-0.033224
-0.0292734
-0.032649
-0.0340514
-0.0286467
-0.0335079
-0.0290264
-0.0292556
-0.0382416
-0.0336703
-0.0346398
-0.0289548
-0.0316686
-0.0285296
-0.0304113
-0.0448588
-0.0354606
-0.0385849
-0.0325278
-0.0344271
-0.0309067
-0.0315498
-0.0503198
-0.0395459
-0.0415916
-0.0346938
-0.0342384
-0.0314295
-0.0307046
-0.020114
-0.0199017
-0.0215805
-0.014925
-0.0169386
-0.0177969
-0.0187448
-0.0243258
-0.0220841
-0.0245659
-0.0178727
-0.0210223
-0.0194286
-0.0225616
-0.033766
-0.0254942
-0.0302516
-0.0219838
-0.0240218
-0.0237465
-0.0274452
-0.0313019
-0.0366393
-0.0331159
-0.03045
-0.0349948
-0.0320951
-0.0295994
-0.0365892
-0.0371023
-0.0390099
-0.0356041
-0.0397935
-0.0361451
-0.0356515
-0.0353888
-0.0454645
-0.0390896
-0.0286674
-0.0297227
-0.0295266
-0.025641
-0.0371528
-0.0368574
-0.0318784
-0.0299556
-0.0303603
-0.0248944
-0.0248281
-0.0384804
-0.0309669
-0.031182
-0.0304176
-0.0309183
-0.0253949
-0.0284681
-0.0275142
-0.0254056
-0.033825
-0.0220745
-0.0219998
-0.0221035
-0.0251466
-0.0264154
-0.0342649
-0.0349218
-0.0221184
-0.024662
-0.0259726
-0.0291214
-0.0324545
-0.0361003
-0.0421954
-0.0259164
-0.0298934
-0.0302256
-0.0334151
-0.0439483
-0.0447106
-0.0511557
-0.0312196
-0.0341516
-0.0342692
-0.0350548
-0.0489274
-0.0523859
-0.0516855
-0.0343205
-0.0312778
-0.0344392
-0.0299244
-0.0394457
-0.0498405
-0.041209
-0.0294234
-0.024443
-0.0277776
-0.0225623
-0.0305736
-0.0379798
-0.0307261
-0.0235235
-0.0234945
-0.0217749
-0.0226636
-0.0303692
-0.0296217
-0.0311048
-0.0242123
-0.0279562