/*--------------------------------*- C++ -*----------------------------------*\
  =========                 |
  \\      /  F ield         | OpenFOAM: The Open Source CFD Toolbox
   \\    /   O peration     | Website:  https://openfoam.org
    \\  /    A nd           | Version:  10
     \\/     M anipulation  |
\*---------------------------------------------------------------------------*/
FoamFile
{
    format      ascii;
    class       volVectorField;
    location    "3.8";
    object      U;
}
// * * * * * * * * * * * * * * * * * * * * * * * * * * * * * * * * * * * * * //

dimensions      [0 1 -1 0 0 0 0];

internalField   nonuniform List<vector> 
12920
(
(-70.5475 -169.607 174.258)
(-65.808 -16.0395 -41.1442)
(170.454 -29.04 -17.045)
(148.57 -18.4438 -8.67332)
(187.64 -21.5397 1.94471)
(159.973 -22.9459 4.52657)
(160.48 -20.0505 5.39694)
(145.529 -17.5716 3.3677)
(146.217 -9.71052 2.10278)
(137.136 -5.90569 1.39811)
(133.116 -3.594 1.46846)
(123.138 -4.43673 0.89408)
(119.977 -3.86657 -0.128977)
(117.036 0.787872 -0.36897)
(109.504 7.38778 0.208315)
(96.6024 7.09382 0.636475)
(87.2675 1.55079 0.797057)
(82.8417 -2.94125 1.07555)
(82.378 -5.96789 1.45807)
(80.0556 -6.49733 1.34543)
(71.7616 -105.326 109.962)
(33.1493 -28.1485 3.93931)
(158.744 5.3297 -8.41867)
(126.044 11.9984 -5.86225)
(153.977 23.1763 -1.27185)
(113.83 14.0988 -0.722226)
(110.891 12.2185 -0.852173)
(89.7673 5.81447 -2.95094)
(92.9403 6.03266 -2.73104)
(87.0356 5.64499 -2.46708)
(88.8411 7.6472 -1.9094)
(84.9958 8.73484 -1.59967)
(83.5802 8.81121 -1.33164)
(81.9711 7.77634 -1.03893)
(83.1323 6.97638 -0.424933)
(83.7778 6.15726 -0.149182)
(83.6601 3.84202 0.367203)
(80.5867 -0.733924 0.706078)
(79.0784 -5.06428 0.640556)
(73.7986 -5.87261 0.138196)
(-5.99162 2.67772 -6.10474)
(-95.0903 -7.75807 -41.1856)
(161.294 -5.38624 -31.1947)
(64.5055 5.14023 -2.72537)
(122.014 20.9349 -2.06796)
(90.5443 17.5717 -2.32667)
(111.437 19.3742 -2.3759)
(100.188 15.0975 -3.23079)
(108.393 13.9078 -2.85457)
(105.2 12.6062 -2.90848)
(109.108 12.3828 -2.72159)
(110.415 11.5279 -2.42865)
(112.539 9.25899 -0.846166)
(109.139 8.43869 0.673624)
(99.3098 8.17589 1.81485)
(88.8337 6.86489 1.59475)
(82.2639 2.67424 1.52297)
(78.1046 -0.833074 0.973466)
(77.1046 -4.13291 0.532292)
(72.5454 -5.29499 0.108921)
(186.609 90.6869 68.2617)
(66.1371 42.768 26.6685)
(120.468 25.4935 -5.52303)
(56.5107 17.4345 -5.19035)
(98.4857 25.6036 -0.773629)
(73.4229 19.5992 0.106986)
(100.725 22.9269 0.23504)
(92.7082 19.9029 -0.720815)
(104.043 20.2258 -0.697431)
(102.652 18.7089 -1.2354)
(108.381 18.0773 -1.22829)
(110.219 16.1759 -0.8405)
(110.654 14.7688 0.360461)
(104.162 15.5057 1.55366)
(93.1098 15.8255 2.12223)
(84.0309 13.0774 1.17747)
(79.1889 6.20707 0.628243)
(75.8799 -0.171433 0.333754)
(75.3892 -4.83542 0.189449)
(70.3986 -6.01138 -0.0755908)
(257.085 -87.0365 129.276)
(-111.043 121.771 35.4668)
(105.53 69.4919 -5.40758)
(8.15615 19.8128 3.01994)
(93.1068 20.0526 3.2666)
(52.1417 8.50234 2.21692)
(88.7879 10.0822 2.31472)
(77.4144 12.8876 0.835017)
(91.6807 12.3513 0.820896)
(88.5256 13.5666 0.248314)
(93.449 12.1879 0.434268)
(91.6707 12.0649 0.405064)
(90.8657 12.6619 1.10406)
(85.1518 15.0384 1.05428)
(83.5292 15.2351 0.472542)
(83.1774 13.0961 0.158167)
(84.2252 6.91338 0.627454)
(80.361 1.4864 0.933119)
(77.8689 -2.32522 0.8546)
(69.8971 -4.00035 0.185145)
(-216.494 182.553 53.4892)
(-204.391 66.4637 -20.3435)
(40.919 36.0095 -16.5082)
(-31.1739 -4.50138 4.32015)
(72.6393 -7.62844 4.40987)
(20.4955 -2.39013 2.56509)
(69.073 -2.52263 2.47239)
(53.8413 6.16806 1.31436)
(68.7661 9.44528 1.10779)
(66.7348 13.0789 0.41851)
(71.9503 14.0992 0.22155)
(71.153 15.2804 -0.157996)
(72.2392 15.9261 -0.149635)
(71.7526 16.3669 -0.121249)
(72.5948 14.5452 0.106306)
(71.1731 10.3122 0.77273)
(67.9112 4.8936 1.12254)
(65.2102 1.29409 0.674859)
(65.0107 -1.56275 0.274895)
(61.4566 -3.22784 -0.0960681)
(-123.024 144.072 27.3274)
(-154.909 -17.663 -23.392)
(81.0126 -0.248583 -4.15031)
(18.1622 -36.8054 0.279108)
(99.9579 -30.5385 5.95724)
(47.132 -10.716 3.07296)
(73.7739 -24.9822 3.04957)
(50.3667 1.90397 1.46357)
(60.0476 -3.67431 1.19745)
(52.8104 6.73741 0.791072)
(58.8861 6.94249 0.444897)
(57.8316 12.2575 -0.0222634)
(61.167 12.8704 -0.28398)
(61.2166 14.6135 -0.24397)
(62.6265 14.1627 0.022101)
(63.0524 11.8102 0.422141)
(64.0906 5.95557 0.515491)
(65.3763 1.05503 0.40298)
(66.7709 -2.52201 0.343232)
(62.8818 -3.81683 -0.0413201)
(-130.742 -7.94182 -40.5204)
(-146.537 -62.1673 -13.533)
(91.0221 -65.9542 -8.91221)
(22.8816 -63.9148 -3.83011)
(104.081 -50.1259 -0.283213)
(63.9566 -6.80253 -2.06682)
(87.0529 -8.72951 -1.25829)
(69.1457 -4.52322 -0.339623)
(73.5654 3.96411 0.766906)
(68.4309 4.34469 1.51853)
(65.1003 8.80465 0.71703)
(59.7058 12.3386 -0.0584582)
(59.7987 16.4019 -0.438556)
(59.6495 18.0072 -0.573905)
(59.3563 11.1339 0.71524)
(62.4404 5.46361 1.0154)
(65.6296 -0.516739 1.0225)
(68.4105 -2.99341 0.652608)
(70.2295 -3.12485 0.41892)
(66.0641 -2.84141 -0.0645815)
(17.5466 -41.3026 -33.1785)
(-86.7224 -59.4186 -31.1142)
(110.387 -63.757 -22.3008)
(19.0719 -44.8537 -11.7187)
(90.3619 -41.1157 -7.30182)
(50.346 -16.615 -3.65868)
(86.4666 0.0993777 -1.38986)
(84.0799 1.17371 -0.712622)
(86.6671 -1.11123 0.0946757)
(82.8507 -6.04782 0.539347)
(82.3395 7.60885 0.576458)
(68.3816 15.9893 0.272736)
(61.0557 17.5951 -0.206732)
(60.1171 17.6798 -0.369456)
(60.4382 12.9511 -0.0532729)
(60.1806 -0.370776 0.834644)
(63.0733 -5.53707 0.370034)
(65.6375 -6.69076 0.354882)
(68.0059 -4.64327 0.363732)
(66.2722 -2.8501 -0.182112)
(101.65 -10.7592 -21.9077)
(-36.6528 17.4879 -7.67131)
(100.374 -23.6223 -2.82385)
(31.6217 -5.58574 -1.42539)
(93.9696 -12.348 2.8558)
(56.6376 -5.6992 -1.57167)
(69.2016 -5.48495 -0.0452021)
(81.6598 -1.16933 0.0606654)
(87.4355 -4.41091 1.08355)
(71.5048 2.55543 -0.559552)
(64.2518 17.3444 -0.396964)
(59.9224 21.5803 0.079371)
(60.1726 16.6389 0.073637)
(63.9417 13.2107 0.235252)
(64.189 6.77542 0.607258)
(65.5703 -2.90703 -0.414351)
(67.3515 -8.57684 0.0418044)
(68.4888 -9.45953 0.0914699)
(70.0133 -7.52747 -0.0280974)
(68.0917 -3.68084 -0.141763)
(75.6598 -23.0168 49.4908)
(38.6933 -72.2867 -0.363821)
(116.19 -73.9256 2.42096)
(72.9898 -45.1192 -0.79874)
(120.373 -46.6921 5.66861)
(73.3144 -23.58 0.381762)
(97.9189 -16.5968 0.535837)
(119.668 -10.3782 0.2217)
(112.783 -11.1441 -1.02226)
(93.5649 6.48286 1.06694)
(69.3205 21.902 0.428456)
(65.2989 15.3686 0.310413)
(67.6248 12.1321 0.0600203)
(66.449 10.3186 0.115792)
(65.1642 5.88657 -0.654548)
(69.1148 -4.33269 -0.414453)
(67.9044 -8.77974 0.387525)
(65.2545 -9.34958 0.378339)
(64.5953 -6.01444 -0.026301)
(60.6135 -3.83584 0.0200732)
(275.734 28.6104 -15.6071)
(90.1264 -95.8868 -1.02324)
(150.36 -74.9137 3.84368)
(114.065 -39.2471 -5.70532)
(149.537 -31.4135 -2.33643)
(106.035 -31.6072 -1.49039)
(107.151 -32.3085 1.4201)
(98.84 -24.0013 -0.887505)
(102.969 7.1618 -0.571605)
(99.5281 18.0097 -0.256766)
(99.8323 23.8006 0.442023)
(82.359 22.38 0.408659)
(70.1396 15.7368 -0.135442)
(66.4428 12.4315 -0.258295)
(69.5971 5.75847 -0.885213)
(70.7515 -2.67023 -0.64068)
(68.0735 -6.72345 0.364716)
(60.9151 -7.03027 0.788377)
(58.0125 -4.61937 0.566755)
(53.1302 -3.39214 0.174587)
(293.062 -170.643 -99.9486)
(62.9211 -145.771 -14.4273)
(145.286 -81.8076 10.8596)
(89.2726 -31.1185 7.01013)
(124.019 -9.4432 3.57924)
(91.1465 -18.2873 0.198615)
(99.953 -3.71267 -1.68309)
(76.0645 -3.98635 0.159518)
(71.5551 8.50886 0.0453486)
(69.2003 17.0497 0.334513)
(71.3091 23.4789 0.308943)
(71.6393 25.5053 0.190419)
(71.9113 22.24 -0.115283)
(73.0329 15.4177 -1.47414)
(77.9677 5.796 -0.866232)
(78.7483 0.415082 -0.395431)
(74.5201 -1.54384 0.592171)
(64.5908 -3.31855 1.1679)
(59.3257 -3.1534 0.672196)
(52.365 -3.31127 0.0681324)
(171.858 -136.288 -98.1581)
(38.0714 -126.132 -21.7268)
(140.357 -114.572 10.7064)
(99.6237 -72.8117 11.1738)
(124.522 -33.1081 10.248)
(84.0869 -23.4849 5.09733)
(82.0395 14.7845 2.69335)
(60.4728 0.613524 1.01574)
(66.8323 15.2802 0.70563)
(63.0291 7.79569 0.727074)
(72.1001 15.2096 1.20856)
(74.0028 11.4089 0.935219)
(82.3236 12.5897 0.566629)
(82.7911 9.19558 -0.073858)
(86.0249 7.61643 -0.764816)
(85.8586 3.34388 -0.594119)
(84.3981 2.47114 0.441529)
(77.7377 1.38884 1.2034)
(70.2841 1.98297 1.41524)
(58.0908 -0.185757 0.503768)
(163.921 -218.681 -9.32497)
(72.6969 -148.471 -15.8335)
(149.537 -122.963 2.09994)
(121.912 -86.9875 0.0169516)
(148.023 -26.227 1.48243)
(99.7435 -9.4065 0.4546)
(98.8297 13.5041 2.09435)
(77.6692 6.43124 -0.107671)
(83.9251 8.97303 0.25876)
(80.2008 4.32269 0.00619368)
(85.3074 7.4177 0.494432)
(84.5925 7.01017 0.29802)
(86.7387 9.42521 0.254259)
(85.8106 8.91546 0.0112231)
(86.5599 8.33108 -0.304263)
(85.0596 4.35714 -0.22302)
(82.1873 3.36306 0.498052)
(74.1196 3.72216 0.933531)
(67.8035 6.46248 1.25206)
(55.514 2.53264 0.246933)
(217.81 -44.3898 -56.9682)
(97.7347 -136.551 2.59169)
(135.726 -134.516 12.7833)
(68.5876 -84.9094 1.57958)
(110.398 -6.80923 0.571037)
(77.1713 9.32529 1.08401)
(93.1485 27.9568 2.52992)
(73.4749 9.78012 1.36395)
(82.4228 13.4975 1.43852)
(71.6974 4.02895 0.329307)
(77.1049 9.39394 0.0826529)
(72.7438 7.5363 -0.525867)
(76.3223 11.0287 -0.494959)
(74.3427 9.6513 -0.494862)
(74.8335 10.1628 -0.0424675)
(70.7927 7.83449 0.269176)
(66.1467 9.66698 0.662165)
(59.3369 10.3945 0.532209)
(57.7133 11.6865 0.335193)
(52.9927 7.65709 -0.263919)
(224.818 -71.9921 62.8352)
(81.2525 -113.084 16.4107)
(129.801 -88.0835 5.75246)
(43.5169 -68.9367 -1.77805)
(93.9507 -18.4481 2.90678)
(51.9377 -11.0398 1.08613)
(84.5208 12.4097 3.06732)
(58.2192 1.76545 1.7543)
(72.7829 8.66326 1.8741)
(57.1972 3.81055 0.391025)
(64.4597 9.00771 0.0371979)
(58.52 8.38456 -0.658117)
(63.1555 11.4492 -0.581891)
(60.451 10.9859 -0.490156)
(60.8534 11.7046 0.113284)
(56.5045 10.249 0.284344)
(53.8741 10.6884 0.45026)
(51.545 9.70695 0.147391)
(53.0976 9.78687 -0.0522385)
(51.6759 6.09467 -0.208047)
(209.115 -127.644 -189.875)
(30.8434 -99.9198 -0.100692)
(117.193 -72.709 15.9831)
(10.8958 -45.7402 3.139)
(71.5675 -9.48536 3.62278)
(17.286 -5.89284 -0.456079)
(69.0438 12.0225 1.30006)
(42.6098 0.932525 -0.374961)
(65.9306 10.0139 0.624165)
(50.1698 5.30406 -0.279865)
(60.851 11.2766 0.00498589)
(53.7313 10.1798 -0.518896)
(59.915 13.2313 -0.258145)
(56.7868 12.8541 -0.225002)
(58.8452 13.6942 0.16614)
(55.8091 12.7843 0.173005)
(55.0318 12.7891 0.257866)
(53.612 11.5149 -0.0724523)
(55.4797 11.4647 -0.237857)
(55.7737 8.02695 -0.16526)
(206.092 -94.9988 53.3448)
(114.777 -146.349 11.7659)
(162.08 -106.196 15.7528)
(37.3291 -56.1842 6.32643)
(79.9727 -26.0725 8.8619)
(7.48886 -17.585 -1.18639)
(62.6509 -5.90676 1.82526)
(24.4164 -4.32623 -0.498998)
(57.2489 5.04499 0.128004)
(38.9497 5.2313 -0.689754)
(55.2426 9.39483 -0.259951)
(48.6765 9.57025 -0.48228)
(57.3857 11.2756 -0.100219)
(55.4763 11.7288 0.0578073)
(59.1631 12.4111 0.428586)
(57.7862 12.4846 0.420184)
(58.4263 12.3855 0.342565)
(58.1385 11.2224 0.0690813)
(61.4762 9.23519 -0.223779)
(60.7824 4.81595 -0.486586)
(64.7064 162.009 -2.80316)
(-3.17303 -2.64102 -36.7363)
(128.651 1.37554 -29.2884)
(68.9088 -12.5081 -16.3759)
(117.602 -1.99261 -1.83319)
(67.8961 0.186826 -2.08564)
(85.1495 -4.39841 4.74724)
(40.5305 -2.63107 0.913532)
(59.8815 1.33914 2.15219)
(40.7958 4.29445 0.825885)
(56.7518 6.98525 1.36295)
(50.997 7.82279 1.34048)
(60.3674 8.97031 1.76048)
(59.7814 9.78342 2.01933)
(65.4243 10.4154 2.27535)
(66.9705 11.4311 2.43218)
(71.4094 12.3849 2.50587)
(74.7832 10.9238 2.13793)
(79.3097 11.6901 1.65583)
(82.5888 10.4973 1.16796)
(158.79 -34.1901 -227.422)
(-68.3347 -14.0686 -68.6707)
(141.318 -36.0744 -36.6631)
(80.478 -19.099 -12.3277)
(135.562 -16.289 2.16483)
(116.173 -11.9518 4.15981)
(132.139 -7.18371 6.8795)
(123.393 -4.82403 4.73058)
(125.858 -2.54353 4.15066)
(119.072 -2.64612 3.05439)
(116.984 -1.99411 3.09066)
(110.416 -2.81764 2.21027)
(107.276 -0.750716 0.830212)
(99.159 3.25364 0.891971)
(91.3604 4.8715 2.25694)
(82.7339 3.05598 2.72468)
(78.0182 -0.745864 2.5805)
(76.8543 -3.4874 2.60462)
(78.0106 -5.1245 3.00218)
(77.4367 -5.03939 2.76205)
(132.342 -193.341 20.2934)
(42.7087 -53.4037 -29.7576)
(147.048 -25.6137 -29.001)
(84.6654 -10.2443 -12.1588)
(114.895 8.28354 -2.94089)
(80.406 5.5792 -2.62193)
(91.61 9.41205 -2.16011)
(75.0904 5.49237 -5.12295)
(79.2708 6.62852 -4.30123)
(70.7909 6.26413 -4.29663)
(71.2496 8.10074 -3.20036)
(65.8919 8.38828 -3.14197)
(65.1647 7.79055 -2.59916)
(62.7138 6.02317 -2.01301)
(63.9798 4.05746 -0.568021)
(63.9912 2.02352 -0.10879)
(64.6258 -0.975357 0.53559)
(64.5169 -2.75752 0.537828)
(65.2973 -3.90337 0.24501)
(62.3991 -3.67591 -0.473809)
(161.856 -26.1065 68.5258)
(74.1321 9.65642 -62.1299)
(146.091 -16.0576 -42.0451)
(52.0038 -12.7777 -3.46864)
(103.93 3.75339 -3.50708)
(69.4163 3.58214 -3.2647)
(91.4464 9.06822 -2.76817)
(75.8056 7.74055 -4.37727)
(82.3498 8.7298 -3.36083)
(74.9893 8.69659 -3.77537)
(77.2734 8.93437 -2.87433)
(74.3063 8.67812 -2.44529)
(75.2271 7.55629 -0.758828)
(72.4685 6.76844 1.26611)
(70.3136 4.9704 2.84867)
(66.0517 3.17892 2.28384)
(63.7629 0.508226 1.91634)
(62.2345 -0.915087 1.13879)
(62.4164 -2.4378 0.54932)
(59.244 -2.78412 -0.211446)
(186.816 -38.6591 -132.981)
(121.911 -54.9572 -71.9608)
(152.563 -15.4567 2.46467)
(54.8696 -7.29415 3.98837)
(87.11 7.14952 2.51769)
(52.3766 3.79684 -0.0297016)
(79.4354 10.1638 0.336131)
(65.7277 9.04534 -1.44739)
(76.4054 11.1856 -0.952845)
(71.2205 10.7713 -1.73025)
(75.0779 10.8129 -1.10435)
(72.7586 10.3128 -0.74866)
(73.2117 10.3676 0.914977)
(69.5034 11.3157 2.55713)
(66.6943 10.486 3.0578)
(62.2964 7.86969 1.70184)
(60.4318 3.18422 0.987316)
(59.2133 -0.189715 0.511592)
(59.6698 -2.63628 0.205176)
(56.317 -2.97203 -0.398555)
(193.472 -50.0285 -26.8215)
(-33.1598 101.309 -21.1424)
(99.7115 56.4249 -34.4283)
(-3.28707 14.5439 -0.562058)
(80.9348 16.7676 -1.03874)
(32.2114 5.42286 0.779953)
(70.3681 6.38774 2.23116)
(52.6384 8.95807 0.129097)
(66.7348 7.95355 0.94212)
(60.1204 9.80351 0.0191514)
(64.9266 8.9396 0.666992)
(61.6642 10.1455 0.504473)
(62.4935 10.752 1.29102)
(60.3147 12.1054 1.32418)
(60.6752 11.4317 0.906564)
(60.1478 8.12775 0.598675)
(60.8513 3.01098 1.17954)
(59.8559 0.320687 1.27813)
(59.9431 -1.5113 1.0358)
(55.7405 -2.15273 -0.051359)
(-120.345 208.838 -78.0739)
(-118.8 103.248 -39.8094)
(25.358 39.7287 -19.482)
(-47.4991 -2.1747 4.86234)
(60.8632 0.260001 2.9649)
(2.14313 3.47963 2.15936)
(56.2571 1.55671 2.68715)
(36.8061 7.76758 0.981914)
(51.907 8.49727 1.24167)
(46.9861 10.9116 0.30154)
(51.4289 11.1048 0.244039)
(49.549 12.2857 -0.320889)
(50.7235 12.5249 -0.139628)
(50.376 12.4687 0.0602887)
(51.791 9.83434 0.632643)
(52.2552 6.31168 1.50382)
(52.4674 3.01325 1.69558)
(52.2993 1.29445 0.940414)
(53.0699 -0.385517 0.329717)
(50.6145 -1.47726 -0.367556)
(-77.7056 105.947 -1.80262)
(-190.482 -4.86328 -34.126)
(71.5418 15.0368 -12.5774)
(-26.508 -15.7337 1.93295)
(81.8476 -8.3691 6.68675)
(18.4854 4.03233 2.70421)
(54.9552 -16.6485 3.63579)
(31.7125 10.3791 1.82167)
(45.2804 0.438696 1.73317)
(38.0403 9.16974 1.18431)
(44.1153 6.79272 0.838833)
(42.2818 10.4468 0.186937)
(45.0367 9.67596 0.13146)
(44.7509 10.1683 0.180722)
(46.6412 8.47359 0.614284)
(48.6581 6.10008 0.8709)
(50.4512 2.64399 0.884145)
(51.8288 0.402927 0.604598)
(53.4944 -1.63206 0.355127)
(51.1535 -2.37734 -0.35989)
(-44.5125 38.4164 43.9048)
(-143.675 -8.94702 -78.6891)
(70.5717 -46.8892 -19.3632)
(-15.3864 -37.6842 -5.43899)
(81.1613 -20.9551 0.305013)
(30.8142 18.7876 -2.53176)
(60.5139 3.92767 0.168316)
(41.4755 5.33059 -0.0557191)
(48.6374 7.58522 1.39957)
(45.6945 8.36724 2.61796)
(47.2098 10.1555 1.43191)
(44.4451 11.5355 0.0115502)
(45.6579 12.6497 -0.531481)
(46.4225 12.5608 -0.364543)
(47.9231 4.71413 0.994266)
(51.3943 1.80115 1.3292)
(54.1117 -0.461627 1.40612)
(55.888 -1.17814 0.939553)
(57.2194 -1.30137 0.520417)
(53.8936 -1.63154 -0.411706)
(103.068 -27.1086 -54.7732)
(29.9043 -19.8133 -53.37)
(103.361 -44.1366 -32.2312)
(3.75918 -34.9783 -15.1803)
(69.3197 -29.1526 -7.80585)
(31.7352 -1.84154 -8.40303)
(63.4432 6.18312 -4.16045)
(56.5376 4.03687 -2.63738)
(58.4624 1.15799 0.166019)
(58.4644 2.63522 1.25341)
(54.7575 12.4515 1.76566)
(49.0311 13.6556 1.1644)
(48.2481 12.2536 0.163927)
(49.6864 10.2226 0.131783)
(51.62 5.602 1.37368)
(52.2844 -0.446704 1.07266)
(54.25 -2.07465 0.709898)
(55.7384 -2.18849 0.661197)
(57.7326 -1.23699 0.316526)
(55.4801 -1.51201 -0.515072)
(67.4143 12.2464 -45.4875)
(-56.0914 -37.0816 2.72642)
(84.861 -45.2719 -0.324276)
(-2.53914 -16.8283 -1.63574)
(68.4443 -15.9131 3.78423)
(40.1121 -8.72703 -4.75141)
(58.8066 -5.1257 -2.24831)
(66.6285 -0.474858 -0.134159)
(70.7566 -0.996326 3.63257)
(61.6866 6.47541 2.49398)
(51.1841 14.3381 0.413967)
(50.0654 13.1605 0.31782)
(52.5413 8.95672 0.295474)
(54.883 6.16458 0.733785)
(54.8068 2.31463 0.814844)
(55.0321 -2.87409 -0.517761)
(56.1218 -4.86567 0.211562)
(57.0316 -4.43322 0.261087)
(58.8588 -2.34605 -0.0831572)
(56.9337 -1.88689 -0.436546)
(96.2471 -101.338 -96.5766)
(-49.1959 -93.5348 -1.438)
(85.7241 -81.9741 6.15911)
(6.94457 -32.6444 -1.92967)
(76.1394 -28.7272 9.10732)
(54.2341 -18.4521 5.49043)
(77.973 -12.398 6.37877)
(88.4045 -5.2689 3.75594)
(79.787 -3.10664 2.31811)
(71.3257 15.6417 4.01859)
(62.9484 18.8144 2.65668)
(59.7914 11.0383 1.01737)
(59.5822 8.00743 0.0178851)
(59.005 5.97807 0.134001)
(58.1964 2.17845 -1.05029)
(54.968 -3.9616 -0.653936)
(54.0258 -4.999 0.466195)
(53.6249 -4.66126 0.327364)
(54.5183 -2.86948 -0.0445034)
(51.9559 -2.44689 -0.224987)
(192.453 48.3786 163.318)
(5.08177 -103.216 54.8426)
(102.543 -85.2581 11.9264)
(36.8052 -36.9543 -5.81269)
(78.2075 -27.9258 -1.14556)
(64.5021 -24.1759 -2.71505)
(90.4511 -24.6619 2.33654)
(87.3717 -11.828 0.54691)
(81.0059 10.0458 -0.291365)
(75.0703 18.0019 0.310649)
(75.6454 20.6564 2.17814)
(68.875 16.6567 2.43903)
(61.1158 11.3783 -0.279966)
(59.2096 7.73317 -1.41741)
(58.1461 2.09167 -1.69206)
(53.2491 -2.36341 -1.12135)
(50.853 -3.91431 0.678248)
(48.194 -3.72082 1.10405)
(48.5242 -2.42825 0.718551)
(45.7218 -1.96571 0.0326689)
(160.058 -151.635 172.044)
(-41.6232 -116.161 37.8482)
(106.096 -68.0075 12.4151)
(45.81 -32.4265 3.10641)
(90.738 -19.2899 1.92685)
(47.7825 -32.4399 -1.28945)
(65.9504 -10.5905 -2.51202)
(48.2321 0.143973 2.85914)
(57.5993 9.37843 1.31335)
(55.7726 14.997 1.04848)
(60.5564 18.479 1.35227)
(60.2027 17.8339 1.21246)
(62.5017 12.9101 -0.458883)
(61.4468 7.39897 -2.01281)
(57.6503 2.65902 -2.02369)
(56.4799 -0.39501 -0.533952)
(52.6936 -0.736501 1.2263)
(48.8917 -1.7187 1.62036)
(47.5651 -1.7285 0.850418)
(43.4365 -1.92467 -0.0831992)
(90.8831 -127.069 -38.2146)
(-62.7143 -85.1258 -2.64465)
(97.8262 -57.4347 -0.387066)
(47.8819 -31.6399 6.80446)
(92.4347 -12.6253 10.8589)
(50.3141 -13.0386 4.422)
(58.3319 18.6814 3.1343)
(40.2008 -2.56189 1.22253)
(51.4719 14.3162 1.05064)
(48.2276 6.07203 1.12925)
(57.7969 14.0688 1.70016)
(58.3926 9.40286 1.01349)
(62.999 10.5019 0.429524)
(61.5821 6.17752 -0.605245)
(61.7046 5.26793 -0.984555)
(59.2762 2.1988 -0.437038)
(57.9663 2.82561 1.09019)
(54.0985 2.10467 1.96502)
(51.9995 1.91949 2.00159)
(45.7175 0.243736 0.446222)
(192.08 -201.74 165.089)
(-2.42137 -114.703 -2.89282)
(114.549 -58.865 0.379349)
(67.0344 -29.8061 -3.96152)
(103.284 0.974109 2.65213)
(51.4743 -3.27539 0.540562)
(70.8299 11.8611 4.07808)
(51.0977 1.2196 0.0531764)
(61.5314 7.07086 1.00482)
(56.2599 3.90317 0.160608)
(62.2108 9.11203 0.959485)
(60.5717 8.21302 0.430313)
(62.7422 9.87275 0.353372)
(60.9419 7.71575 -0.0902847)
(60.8475 6.24181 -0.181003)
(57.3566 3.06239 0.0892693)
(55.5331 4.09601 1.14758)
(51.2246 4.74222 1.59708)
(49.4955 5.53602 1.73999)
(43.4638 2.38769 0.097979)
(174.266 -85.4814 38.1695)
(-18.8683 -111.334 -18.6114)
(112.047 -68.963 3.53361)
(49.9286 -27.9425 -2.93542)
(92.8993 16.0314 2.35852)
(50.4434 9.26635 2.12251)
(72.9871 22.7692 5.17929)
(50.5291 2.58557 1.8248)
(62.8554 11.0617 2.28063)
(50.861 3.30135 0.151898)
(57.7279 10.8754 0.225363)
(51.9659 8.20119 -0.692632)
(55.4082 11.3095 -0.32018)
(51.6778 8.62693 -0.262496)
(52.2578 8.87656 0.363662)
(48.2801 6.88608 0.462429)
(46.7428 8.51137 1.08233)
(44.005 8.554 0.691928)
(44.8516 8.70183 0.405802)
(41.9845 4.80014 -0.549265)
(263.161 -159.159 104.996)
(33.9153 -75.3008 10.8806)
(121.513 -35.7784 -7.84886)
(26.2361 -14.7627 -5.79667)
(85.8423 17.796 1.87461)
(31.2257 4.21433 1.28975)
(69.7549 19.1527 5.03883)
(38.3973 4.45416 1.97717)
(57.179 11.7065 2.65264)
(39.9534 5.46846 0.11929)
(49.1208 10.636 0.126016)
(41.495 8.37938 -0.87041)
(46.3304 10.7072 -0.391049)
(42.3147 8.96601 -0.306061)
(43.9587 9.31192 0.319896)
(41.2019 7.96281 0.252981)
(41.4496 8.40387 0.47171)
(40.9763 7.76703 0.0800455)
(43.1493 7.36429 -0.284094)
(41.9528 3.76989 -0.531488)
(292.939 142.591 -134.294)
(-69.8524 -12.9875 36.7932)
(93.5546 -30.5294 15.8033)
(-40.6461 -4.4935 3.11854)
(68.5723 17.528 2.72292)
(1.01121 5.93369 0.331148)
(57.8466 19.9041 2.70143)
(22.4608 4.99218 -0.359824)
(50.1645 14.1625 1.33436)
(31.2283 6.88623 -0.594756)
(45.0757 12.1367 0.18601)
(36.4437 9.06219 -0.779662)
(43.9171 11.2925 -0.0794656)
(40.1363 9.76953 -0.269486)
(43.7994 10.4014 0.248098)
(42.0592 9.41718 0.0553196)
(43.47 9.6766 0.11799)
(43.5248 8.64032 -0.373678)
(46.4848 8.25607 -0.687349)
(46.6219 5.04448 -0.631826)
(59.8268 -58.6897 -122.725)
(-142.34 -56.1335 -29.3731)
(101.254 -37.6737 -4.77884)
(-59.3386 -16.6166 3.81695)
(75.208 -2.78154 2.93661)
(-17.3096 -3.5791 0.167482)
(55.826 7.47527 3.11168)
(10.3948 2.01236 -0.0511882)
(47.1518 9.17425 1.00553)
(25.81 6.02122 -0.791401)
(43.9811 8.99556 0.087599)
(35.7724 7.69919 -0.615309)
(45.1196 8.65708 0.0711489)
(42.607 8.28906 -0.0174406)
(47.566 8.46992 0.416341)
(47.3733 8.30181 0.179173)
(49.5838 8.32664 -0.00830519)
(50.9066 7.06721 -0.607603)
(55.2899 5.50263 -1.25113)
(54.6582 3.13603 -1.5782)
(22.2691 174.81 67.9456)
(-22.258 15.9611 -43.6182)
(113.557 28.4902 -33.6064)
(6.50592 15.5439 -15.98)
(84.4019 7.47841 3.13158)
(10.144 0.726827 -1.28461)
(62.0063 -2.83163 8.58363)
(18.7964 -0.0714676 0.674465)
(51.8547 3.39504 3.90802)
(33.2999 4.31484 1.64492)
(51.5462 6.1294 3.12669)
(45.6366 6.33768 2.90761)
(55.7749 7.17464 3.78919)
(55.5726 7.73767 4.01886)
(62.0858 8.24769 4.45316)
(64.3216 9.35711 4.49861)
(70.2064 9.78077 4.60363)
(75.0543 7.77259 4.01842)
(80.2443 8.93672 3.1359)
(85.2146 7.61177 2.13146)
(393.995 -37.3271 153.518)
(37.3233 -4.07507 -5.82584)
(139.764 -36.7467 -26.3293)
(65.307 -21.7542 -9.70633)
(117.494 -12.9858 1.08609)
(96.2846 -3.30447 2.72295)
(115.406 3.70635 5.19608)
(106.651 5.06425 3.24409)
(110.517 4.93745 3.55917)
(103.776 2.92121 2.62281)
(102.333 2.21107 2.98111)
(95.8748 2.10611 2.09401)
(91.1214 4.14916 1.73009)
(79.8514 5.66413 2.06178)
(74.4542 4.20691 3.26952)
(70.3557 2.04887 3.75914)
(69.3542 -0.528102 3.90425)
(70.5057 -1.64239 3.84092)
(72.958 -2.54182 3.82292)
(74.8624 -2.054 3.34517)
(244.654 72.4049 117.06)
(145.493 -8.78056 -4.6857)
(162.178 -14.1476 -9.31145)
(71.9754 -9.63691 -3.54415)
(96.8184 6.39057 0.884305)
(60.6971 4.30462 -1.51611)
(78.3413 9.93671 -1.78083)
(61.6698 6.54225 -4.83817)
(67.0729 7.82094 -3.99991)
(56.7495 6.90308 -4.59128)
(57.0412 7.92088 -3.76095)
(50.872 7.46628 -4.13532)
(50.439 6.61141 -3.16128)
(47.7089 4.61929 -2.12144)
(49.0697 2.5493 -0.866026)
(49.1921 0.846588 -0.570232)
(50.2362 -1.10746 -0.204179)
(51.2474 -1.66809 -0.33864)
(52.803 -2.23507 -0.624425)
(51.1388 -1.92651 -1.18977)
(425.492 183.998 -3.75143)
(140.139 95.4452 -17.4627)
(154.127 11.5779 -19.6763)
(43.3435 -8.11091 -0.910774)
(90.625 3.62346 -2.70141)
(49.5685 1.70149 -2.91707)
(73.2737 7.78163 -2.12367)
(54.0008 6.5443 -3.8476)
(61.6271 7.76593 -2.74147)
(51.9981 7.56917 -3.61927)
(54.322 7.46546 -2.74071)
(49.5251 6.97746 -2.61405)
(50.0722 5.90558 -0.85242)
(47.3101 4.72777 0.547128)
(48.0973 3.10017 1.98033)
(47.1365 1.97288 1.73961)
(47.0813 0.373414 1.45292)
(47.3159 -0.229026 0.755032)
(48.3537 -1.1943 0.150216)
(46.3792 -1.35995 -0.561149)
(264.143 -99.4735 173.13)
(40.0028 -21.5517 -7.35925)
(101.73 -7.31246 24.8281)
(23.4916 -5.62633 5.25186)
(71.2013 6.1865 2.02782)
(31.3173 1.71949 -1.11334)
(61.5118 7.71773 0.150523)
(43.1807 5.99896 -1.63171)
(54.9642 8.09967 -0.835738)
(47.0142 7.63273 -1.84388)
(50.766 7.89391 -1.15093)
(46.4886 7.71432 -0.906711)
(46.9479 7.75671 0.598445)
(44.698 7.95416 1.91164)
(45.4646 7.11219 2.37149)
(44.4427 5.26179 1.51001)
(44.5904 2.0044 0.897197)
(44.6831 0.188912 0.386964)
(45.7719 -1.29553 -0.0450458)
(43.5792 -1.43531 -0.67741)
(136.111 28.4981 158.841)
(36.0551 90.6162 -35.7187)
(96.4702 53.1719 -35.0121)
(-1.68646 13.6514 -2.81969)
(69.397 16.0881 -2.82734)
(13.7785 5.26747 -0.127023)
(53.9147 5.54565 1.50491)
(31.3711 7.84226 -0.420193)
(47.097 6.08492 0.691152)
(38.2401 8.3073 -0.308087)
(43.8132 7.29214 0.443155)
(39.9867 8.78791 0.199461)
(41.9244 8.69366 1.02007)
(40.8784 9.30079 1.1001)
(42.5398 7.93021 0.925423)
(42.6352 4.9842 0.646805)
(43.535 1.68587 0.995393)
(43.9023 0.420801 1.01043)
(45.1536 -0.704247 0.568276)
(42.905 -1.06533 -0.424573)
(1.4261 247.625 -47.8289)
(-83.0057 116.461 -47.0563)
(27.611 46.8513 -17.7453)
(-51.8152 2.0494 1.99975)
(50.1273 5.64754 0.455188)
(-13.7387 6.16245 1.44095)
(44.065 1.96907 1.80886)
(20.1462 7.46079 0.47366)
(36.7617 6.42197 1.04881)
(30.0768 8.73212 0.0618199)
(35.2215 8.32672 0.113916)
(32.998 9.47542 -0.304227)
(34.7694 9.23812 -0.0261356)
(34.6828 8.94384 0.156415)
(36.5377 6.39213 0.681542)
(37.667 4.37004 1.25823)
(39.0457 2.36231 1.36057)
(39.9703 1.42916 0.710701)
(41.3301 0.184395 0.0537941)
(39.8209 -0.61413 -0.599403)
(26.7908 127.016 -20.7304)
(-129.332 20.9191 -72.3456)
(58.657 27.1889 -24.1413)
(-43.7333 -8.26468 0.806353)
(68.2215 0.1717 3.90333)
(-3.0878 8.56139 1.93747)
(39.7624 -14.8664 2.62232)
(14.8097 13.4361 1.44882)
(31.3683 0.208286 1.34155)
(23.7999 8.83864 0.979057)
(30.844 4.77138 0.77905)
(28.7699 8.11328 0.164771)
(31.8939 6.50481 0.223338)
(31.7 7.05359 0.224411)
(33.9675 5.36576 0.596465)
(36.1275 4.01966 0.711772)
(37.9939 1.82027 0.779869)
(39.407 0.578986 0.484061)
(41.3199 -0.866133 0.0849704)
(39.9852 -1.42629 -0.599348)
(336.406 120.626 41.6717)
(-65.4366 52.9575 -49.9694)
(80.9363 -23.5691 -15.8801)
(-32.1863 -23.9757 -3.18172)
(67.9681 -8.19774 0.370035)
(8.61622 25.8487 -2.22726)
(40.1897 4.72677 0.0493463)
(21.3557 9.99593 -0.171149)
(30.2544 6.88531 1.46013)
(28.3468 8.77249 2.3056)
(32.2845 8.67479 1.07427)
(31.3447 9.45327 -0.0435654)
(33.3177 9.44171 -0.437442)
(34.5653 9.01902 -0.0822518)
(36.1324 2.3867 0.842141)
(38.9385 1.28079 1.07096)
(41.0573 0.302371 1.19935)
(42.5642 -0.00374899 0.805238)
(43.9902 -0.445239 0.18555)
(41.8581 -1.02577 -0.622172)
(253.931 -183.349 42.0607)
(59.9225 -62.726 -14.3061)
(107.526 -48.5272 -15.8104)
(-13.9781 -30.3629 -13.7949)
(56.932 -21.9967 -6.96321)
(13.6753 8.63655 -7.54591)
(40.9767 8.56413 -3.10448)
(33.1138 3.02922 -1.89921)
(36.3069 2.81651 0.943856)
(36.5933 5.98267 1.98743)
(36.7048 10.4301 1.77883)
(36.043 9.54525 0.716682)
(37.5542 7.96584 0.13026)
(39.6428 5.92352 0.380127)
(41.3136 3.84063 1.3766)
(40.8701 0.810536 1.09479)
(42.3486 0.241187 0.8497)
(43.4165 0.0942586 0.645375)
(45.1528 -0.0601183 0.0133497)
(43.3456 -1.10824 -0.722271)
(77.6604 -122.998 11.7292)
(-65.7285 -33.9668 8.58945)
(73.7475 -43.1896 10.2865)
(-28.6319 -17.3152 -0.46719)
(51.6228 -15.3946 2.50653)
(17.6694 -7.02016 -4.58042)
(40.1964 -2.21621 -1.22602)
(46.1309 -0.415755 0.253099)
(46.3377 1.59682 3.53042)
(42.6643 7.7514 3.00701)
(39.8414 9.77341 0.657772)
(41.0347 7.35646 0.165293)
(43.2092 4.60954 0.158709)
(44.6514 2.73583 0.463136)
(43.752 1.4142 0.533546)
(41.6073 -0.790136 0.0888119)
(42.4821 -1.54333 0.56414)
(43.8877 -0.858568 0.400782)
(45.8545 -0.541517 -0.119154)
(44.2941 -1.26236 -0.549822)
(146.043 -100.26 -105.637)
(-57.3504 -90.5769 2.18135)
(81.5678 -79.1624 6.61898)
(-32.969 -24.9915 0.0752209)
(55.0839 -22.9492 6.41886)
(20.2323 -13.017 2.7496)
(47.4928 -7.71306 5.71749)
(55.3964 -1.78254 3.35976)
(53.1923 4.25289 3.24649)
(52.312 13.8825 2.86284)
(52.3246 13.7436 2.91406)
(51.8266 7.08087 1.17053)
(49.925 4.75447 -0.169578)
(48.5829 3.64543 -0.270121)
(45.6104 1.0762 -0.913515)
(40.6186 -2.40506 0.144095)
(40.4941 -2.14949 0.569352)
(41.208 -1.92706 0.307974)
(42.892 -1.41137 -0.0413305)
(41.0032 -1.70834 -0.357863)
(112.286 97.8079 93.5105)
(-42.7713 -93.5835 28.2116)
(93.0878 -84.7513 10.0838)
(7.29573 -31.5394 -2.66614)
(53.9402 -25.0859 -1.98989)
(27.1483 -22.0866 -3.09051)
(53.3539 -20.1343 1.52529)
(57.3278 -1.63869 0.842215)
(54.7997 10.7626 0.603291)
(54.2712 14.8734 0.837724)
(54.7586 14.2924 2.57598)
(52.2659 10.8755 2.11668)
(49.4388 7.51745 -0.474366)
(48.13 4.67406 -1.68482)
(44.6879 0.71447 -1.4272)
(37.7542 -1.46134 -0.1481)
(36.6214 -1.79712 0.688672)
(36.4611 -1.7106 0.838133)
(38.0577 -1.2319 0.38714)
(36.5286 -1.09934 -0.234386)
(138.916 -216.734 136.912)
(-54.0155 -71.2981 -17.0484)
(114.23 -53.7825 -3.16684)
(30.0842 -28.0573 -1.07849)
(72.7412 -18.806 1.59883)
(21.4225 -34.914 -1.71343)
(42.4996 -8.81217 -0.395664)
(28.0132 1.6975 1.99769)
(42.8514 8.53888 1.27626)
(40.6622 11.5474 1.12672)
(47.1495 13.2066 1.50554)
(46.7966 11.6092 1.13111)
(49.6212 7.32187 -0.600206)
(46.8773 3.73871 -1.74531)
(40.5384 1.43265 -0.912432)
(38.4094 -0.48815 -0.0873376)
(36.2465 -0.0128889 0.96851)
(35.7489 -0.677539 1.12996)
(36.4477 -0.813957 0.409298)
(34.1451 -1.06811 -0.322686)
(130.847 -136.742 -165.282)
(6.20682 -49.4861 -52.4757)
(99.6026 -29.074 -18.478)
(22.6378 -14.5278 1.06178)
(71.2541 -5.36991 8.47896)
(24.4772 -12.4362 2.56215)
(41.2966 19.1615 2.34909)
(24.1168 -7.23838 0.997291)
(38.0688 12.6573 0.882379)
(33.6884 2.97973 1.22561)
(43.3161 11.8387 1.52974)
(42.3586 6.19353 1.06314)
(46.1121 8.09399 0.438323)
(43.5878 3.32376 -0.459918)
(43.1459 3.49726 -0.760224)
(40.006 1.59362 -0.472998)
(38.8838 2.70465 0.831478)
(37.133 2.06441 1.4356)
(37.8259 1.67794 1.35236)
(34.9902 0.4896 0.0970885)
(154.403 -258.081 221.261)
(-55.3274 -88.5963 -3.79233)