/*--------------------------------*- C++ -*----------------------------------*\
  =========                 |
  \\      /  F ield         | OpenFOAM: The Open Source CFD Toolbox
   \\    /   O peration     | Website:  https://openfoam.org
    \\  /    A nd           | Version:  10
     \\/     M anipulation  |
\*---------------------------------------------------------------------------*/
FoamFile
{
    format      ascii;
    class       volScalarField;
    location    "5.9";
    object      k;
}
// * * * * * * * * * * * * * * * * * * * * * * * * * * * * * * * * * * * * * //

dimensions      [0 2 -2 0 0 0 0];

internalField   nonuniform List<scalar> 
12920
(
795.54
543.302
351.816
267.558
302.119
349.516
346.972
307.378
244.477
205.623
168.441
138.096
107.58
85.6353
71.5193
63.5398
59.1549
58.727
59.9909
58.7416
3048.66
2614.32
1649.95
838.058
446.375
365.952
306.074
262.096
196.958
153.846
121.469
103.745
96.8366
96.7826
98.8527
104.411
107.009
111.094
114.589
110.951
16876.6
5652.51
1854.13
897.991
524.068
400.004
301.378
247.489
189.708
156.764
129.714
116.476
105.722
101.049
96.4628
93.9766
90.4167
88.2784
86.1637
81.8752
2429.7
1738.56
1594.24
1051.7
640.364
499.29
375.865
316.807
242.013
188.572
142.152
117.967
102.263
93.971
87.265
83.3919
80.3587
79.0857
78.4456
78.3511
3836.41
2739.42
1493.18
754.488
546.958
448.924
361.462
311.607
240.039
189.725
150.711
128.951
114.847
106.106
98.5224
93.4034
89.9315
87.5067
86.2369
84.2704
4398.56
3979.87
2804.01
1540.51
849.412
506.952
373.74
296.098
235.471
192.281
165.945
148.877
140.652
131.884
121.977
109.959
100.181
93.852
89.4115
84.8241
6093.59
4600.91
3187.73
1815.67
1050.06
708.106
515.158
347.79
276.925
228.515
212.512
198.467
184.058
171.16
159.019
149.043
133.676
115.196
99.9127
88.4738
2268.94
2328.97
1792.39
1325.67
1066.39
902.611
520.908
272.953
211.323
173.143
162.455
148.025
136.76
100.518
149.087
151.029
145.583
120.877
95.8936
84.3474
18111.7
6173.2
2871.06
2093.52
1273.1
708.061
478.514
219.949
123.212
114.743
111.562
104.168
86.4472
47.4342
96.2711
153.355
126.689
101.409
86.7968
79.6542
1975.84
3521.36
2829.95
1811.71
973.665
432.735
223.548
114.38
108.475
119.539
114.028
101.652
62.3299
65.2379
90.5368
110.592
100.436
88.614
79.5839
77.1297
6658.47
2417.32
1890.78
1249.05
670.196
284.8
130.877
107.995
118.833
114.344
94.8505
81.2467
77.5822
76.4057
85.7251
91.4097
84.0519
78.867
77.6263
80.5111
2292.05
1773.35
1249.85
1030.03
652.995
283.971
135.487
90.0451
73.2054
103.707
123.281
119.98
104.501
86.824
59.5203
103.299
91.7378
85.0824
84.9197
88.6924
4577.71
1397.94
934.486
765.089
588.201
523.002
297.566
229.306
187.253
210.898
216.476
183.812
139.381
75.0644
104.365
99.3461
93.6596
91.4971
92.3864
97.8626
3868.58
2466.5
1281.82
782.546
596.444
499.877
427.125
347.804
318.422
270.16
222.426
167.472
129.383
118.57
114.02
109.944
108.224
108.677
110.106
114.209
1095.82
3521.46
2530.34
1280.07
766.324
504.216
357.611
285.114
248.988
208.568
177.671
158.094
145.888
146.969
149.171
151.806
153.401
152.139
149.186
141.443
1691.18
3061.51
2496.26
1457.66
819.689
516.866
332.769
278.214
234.813
213.948
190.166
187.141
183.731
185.769
187.208
188.75
190.18
189.5
185.607
168.853
5769.97
2414.88
1974.48
1186.3
697.313
488.252
337.67
303.292
264.863
255.41
234.662
228.015
218.086
214.22
211.995
213.846
216.505
214.242
205.833
181.068
11620
1685.36
1504.39
987.372
720.852
609.924
467.445
454.902
402.639
391.761
364.383
355.198
333.932
312.918
285.764
259.949
243.827
221.852
205.756
177.627
3145.68
2780.73
1559.11
1035.75
777.405
650.577
500.389
432.682
347.373
296.943
255.622
237.599
226.42
223.489
220.323
214.616
199.779
175.007
158.358
133.678
7093.88
5192.88
2099.14
921.322
621.218
514.902
407.177
327.748
257.93
229.322
207.126
194.11
170.044
144.132
127.629
116.12
110.126
98.0616
90.7733
77.073
678.011
1081.62
682.537
543.021
646.392
851.605
854.703
730.685
554.452
439.425
357.652
294.841
243.506
204.188
174.651
154.435
145.599
144.007
141.865
132.002
5750.4
5653.83
3888.56
2650.3
1278.86
1113.73
868.721
784.957
553.361
437.657
322.838
292.66
277.585
284.821
290.526
298.947
302.373
310.946
315.549
310.823
23096.7
7437.76
4494.92
2308.38
1368.85
1108.33
804.779
691.245
500.113
426.681
344.767
324.603
297.016
287.931
275.47
270.729
264.439
263.081
260.305
254.005
5969.5
4465.57
3736.08
2395.38
1571.89
1275.6
940.279
805.725
583.92
475.862
363.904
322.396
284.709
268.645
252.266
245.092
238.269
238.243
237.882
237.917
11343.7
5935.02
3331.35
1622.88
1417.17
1132.18
902.577
783.29
585.977
489.715
400.112
359.438
324.384
304.84
284.198
273.818
264.702
260.995
258.002
254.935
13037.8
6150.04
3460.68
2362.67
1518.67
1194.1
919.434
758.677
605.832
512.548
452.686
411.321
387.719
365.442
346.251
321.51
296.42
280.362
268.445
259.449
11083.1
9391.25
4037.89
3020.26
1971.02
1632.04
1130.06
836.256
708.056
607.53
559.053
516.249
473.636
459.818
444.172
421.894
375.88
332.761
291.234
269.787
8202.99
5045.24
2796.25
2782.36
2400.94
2070.55
1490.36
943.503
749.185
616.91
554.482
497.046
441.3
370.009
411.462
413.137
387.293
308.877
263.614
251.859
22616.9
6725.75
4360.83
3857.76
2307.1
1989.47
1547.44
976.162
699.921
611.675
545.325
478.514
387.885
301.558
312.712
334.491
293.119
252.468
237.266
237.871
11629.2
10487.2
4984.14
3534.24
1714.65
1421.57
1117.18
853.743
732.694
649.143
558.721
457.687
346.388
289.419
242.481
254.677
237.388
224.04
224.752
236.034
14447.9
6346.72
3733.24
2608.96
1305.21
1049.84
838.629
780.111
707.823
627.478
496.037
389.842
329.897
311.948
230.891
213.19
212.052
218.582
233.213
255.323
7939.07
6046.84
3112.62
2300.37
1352.75
1091.3
895.341
761.334
633.827
648.301
625.271
547.308
459.934
353.764
232.587
238.056
236.935
242.564
253.862
275.855
10627
3793.98
2443.22
1719.01
1306.5
1316.53
1062.76
1067.93
858.818
835.027
694.409
576.371
405.676
256.733
272.189
264.641
265.699
270.839
281.099
303.102
5478.92
5892.39
3214.45
1834.48
1419.26
1251.69
1103.54
940.042
787.462
669.066
522.457
426.182
356.121
344.287
332.637
328.314
328.599
332.375
339.861
352.822
3665.76
7364.98
5505.13
2682.55
1656.56
1196.43
926.863
773.411
650.307
555.459
479.944
445.969
427.535
432.25
438.418
441.78
445.199
443.436
438.261
425.121
1856.02
6353.7
5159.62
3003.63
1690.22
1237.17
821.42
762.739
641.247
599.897
542.969
541.486
529.992
533.197
534.453
535.131
537.516
535.647
528.649
498.788
4259.8
3566.92
4302.54
2322.34
1536.85
1217.72
892.958
854.014
763.548
745.369
697.646
681.652
649.586
642.415
633.631
628.675
625.243
610.772
591.23
543.845
16965.7
4755.44
3438.27
2195.91
1819.83
1563.25
1269.32
1240.87
1124.2
1123.5
1081.02
1073.05
1019.15
961.86
870.958
795.972
729.336
653.23
604.032
547.725
3252.2
5909.6
3649.9
2286.76
1775.97
1580.87
1190.11
1104.23
875.519
843.26
761.833
753.901
711.881
690.387
652.934
614.757
550.117
487.174
424.778
393.81
6109.51
3738.31
1761.67
1169.01
1056.88
980.541
801.67
699.644
598.179
542.256
488.817
449.245
408.109
363.37
315.799
269.794
237.946
211.375
202.263
178.637
711.472
1154.67
1274.5
1227.1
1187.77
1175.16
1062.21
802.378
600.167
468.162
380.226
316.658
267.693
231.007
203.681
183.972
170.999
160.688
153.753
135.107
4886.7
6763.59
4697.68
3453.79
1920.23
1657.07
1160.5
1029.24
736.433
643.626
511.283
482.616
438.634
434.665
423.05
425.32
424.503
428.526
426.935
420.318
30494.7
8214.46
5241.52
2971.69
1958.87
1502.69
1111.17
920.483
696.948
604.012
504.618
469.687
428.473
414.315
397.851
393.379
387.664
387.66
386.119
386.928
12319.6
7010.77
4758.83
3020.76
2150.02
1628.41
1241.68
995.549
740.216
609.374
500.338
452.412
411.455
392.551
375.325
368.535
362.55
363.009
363.3
366.015
7092.24
7111.15
4155.14
2354.36
2044.08
1535.34
1244.67
989.485
766.712
634.942
543.038
490.595
452.89
429.335
409.362
398.776
388.978
384.751
380.936
379.477
11677.8
6821.44
4180.34
2825.27
2170.92
1608.74
1304.79
1014.6
821.878
681.441
610.348
552.13
521.92
492.402
468.057
443.379
422.412
407.89
396.62
389.397
24992.6
11263.4
4159.53
3612.44
2557.16
2010.94
1495.62
1101.45
930.579
780.075
711.648
654.242
613.405
595.182
563.75
529.579
484.649
447.388
417.035
402.96
9612.84
9666.56
5233.19
3862.35
2854.81
2335.98
1895.51
1287.43
1026.76
832.88
733.352
655.136
591.277
551.98
557.423
525.914
464.633
413.613
388.886
386.398
19977.6
7691.59
4648.83
3857.23
2581.23
2242.55
1967.59
1326.75
1010.58
841.496
723.266
621.581
521.689
458.424
455.944
422.927
377.644
356.888
355.834
369.905
30939.3
11222
5051.35
3525.09
2122.66
1806.47
1606.94
1276.17
1048.92
877.699
723.103
571.929
449.712
367.117
349.149
343.367
330.18
332.715
343.839
371.856
29087.8
8345.66
4572.46
2823.64
1923.71
1562.89
1365.49
1194.78
1036.52
896.952
505.873
376.08
368.248
357.81
306.629
312.251
319.335
343.78
368.158
391.853
19906.5
7519.11
4216.44
2844.94
2047.56
1713.95
1508.51
1234.77
1061.18
966.004
822.91
676.612
544.429
404.152
332.909
344.972
354.69
379.496
401.519
420.561
22758.9
6102.06
3743.45
2511.15
2108.72
1859.97
1641.91
1531.43
1201.32
1071
827.074
658.591
471.259
382.065
399.172
400.92
411.446
429.336
445.622
460.063
7553.9
6635.2
4201.37
2558.7
2065.08
1622.54
1482.19
1174.78
981.202
804.645
652.255
570.35
514.399
507.898
498.019
498.343
502.466
510.657
518.483
522.999
6272.86
8751.07
6143.48
3087.18
2012.23
1449.68
1276.61
1025.93
875.27
750.893
666.009
635.219
616.856
619.755
620.483
620.168
621.331
618.394
614.637
601.665
4737.72
8154.04
6174.9
3470.96
2079.65
1476
1185.72
1031.13
901.681
834.555
775.081
765.247
747.357
746.786
742.835
736.944
734.374
723.918
713.665
683.05
9980.45
5457.99
4936.74
2734.04
2068.33
1525.72
1294.84
1174.44
1084.6
1042.06
984.42
957.253
918.166
900.866
880.621
859.908
842.332
808.895
785.256
735.131
15905.4
5699
3987.05
2785.77
2421.86
1945.61
1680.57
1603.95
1477.6
1468.03
1391.63
1348.46
1246.64
1170.81
1078.38
1001.32
928.735
853.902
808.48
750.211
5419.36
6342.29
4094.49
2635.99
2241.53
1941.58
1582.04
1530.57
1345.37
1331.22
1229.16
1172.7
1060.31
991.859
904.138
827.989
737.481
666.12
597.927
570.732
5150.34
2457.28
1835.76
1331.67
1170.22
1047.18
886.807
785.492
679.101
617.39
556.445
508.697
456.947
407.511
361.81
317.538
291.321
261.127
239.657
188.575
301.865
821.764
1642.05
1776.01
1595.44
1359.92
1077.3
773.107
557.88
429.452
353.209
299.007
257.81
224.857
200.414
180.773
164.16
148.938
136.487
129.271
7579.8
8800.72
5882.44
3916.52
2500.77
1930.14
1345.37
1120.91
858.743
772.72
665.908
630.887
579.705
563.987
544.446
542.019
535.107
534.604
531.527
535.589
22290.2
8277.27
5738.25
3274.9
2467.89
1710.6
1342.25
1036.34
845.474
719.337
636.777
584.501
547.758
527.111
514.227
508.671
506.393
507.504
509.179
517.648
11262.8
7651.31
5437.65
3469.07
2642.16
1851.23
1475.73
1086.17
859.113
700.305
615.379
558.151
525.767
503.207
490.593
483.599
481.041
482.189
484.395
492.152
5743.79
7358.87
4857.17
3038.37
2538.91
1805.77
1500.68
1105.41
901.526
734.742
659.705
593.646
563.83
535.062
520.581
508.646
501.756
498.455
496.946
500.177
9841.72
8122.76
4828.86
3245.99
2684.42
1892.16
1600.95
1174.99
978.031
797.077
727.567
654.236
627.164
590.821
568.809
544.539
529.604
519.292
512.598
512.74
28796.1
11009.6
4987.39
3775.36
3050.26
2233.36
1744.34
1275.1
1069.95
888.4
816.639
747.15
717.319
683.01
643.404
603.388
569.359
546.033
531.393
530.424
19704.8
9679.25
5463.48
4174.19
3235.47
2571.04
2088.02
1468.76
1170.6
949.892
839.573
761.559
709.149
681.717
638.491
583.232
539.822
517.914
512.744
523.062
17187.9
7602.67
5161.31
3758.57
2902.31
2474.11
2191.46
1516.69
1172.81
964.149
820.707
714.337
631.636
594.247
564.96
493.135
470.571
471.116
482.969
512.184
14986.7
9779.88
5452.82
3518.56
2586.38
2161.25
1940.7
1519.44
1227.58
1002.03
802.877
626.94
511.337
462.921
458.913
439.678
441.006
458.184
481.918
511.66
17538.4
8891.81
5345.58
3232.4
2452.35
1971.12
1741.71
1484.2
1261.63
1050.17
671.846
481.782
426.617
411.884
411.83
436.023
450.753
482.396
505.833
524.146
13319.4
8064.05
5227.82
3354.5
2627.94
2138.06
1906.76
1559.48
1336.47
1131.4
892.625
701.422
560.059
466.401
436.786
468.405
489.135
518.759
539.757
552.419
12324
8288.08
4525.58
3207.85
2790.54
2133.83
1996.76
1736.2
1348.66
1120.12
845.502
666.623
538.958
495.676
524.89
534.608
554.486
574.129
587.72
594.493
6240.31
7458.26
4776.86
3145.85
2625.13
1883.58
1785.25
1297.32
1100.32
864.272
746.69
674.546
643.517
639.76
636.403
640.043
648.5
656.86
661.947
660.494
6685.29
9571.84
5586.97
3235.03
2337.9
1676.4
1570.12
1189.9
1040.35
874.075
803.852
773.54
762.544
760.709
759.281
755.613
756.386
753.676
750.246
736.298
8038.01
10547.5
6564.18
3654.49
2461.25
1694.08
1504.73
1214.69
1105.56
991.68
949.766
915.392
904.45
893.548
889.439
877.487
872.724
857.458
847.411
820.14
12027.7
6788.66
5209.35
3167.69
2502.61
1786.79
1619.64
1386.23
1321.82
1219
1174.83
1118.24
1088.81
1056.75
1035.82
1003.47
981.967
943.791
921.849
876.356
12222.2
6162.13
4352.82
3275.31
2832.47
2138.2
1983.68
1764.1
1715.18
1617.15
1550.62
1449.86
1360.1
1267.91
1193.33
1118.24
1059.49
995.155
958.856
902.037
18612.8
6249.78
4276.7
2844.19
2540.14
2023.01
1850.15
1716.63
1632.03
1569.34
1473.73
1368.42
1252.22
1155.1
1058.25
966.444
879.724
811.032
767.097
749.399
2904.85
1974.71
1916.17
1367.9
1102.94
951.561
830.943
731.709
653.737
600.508
545.714
491.411
434.925
382.067
342.904
305.938
274.418
231.071
204.409
169.252
2045.99
2511.12
2386.26
1979.33
1661.45
1325.9
951.53
625.65
431.233
343.971
285.999
241.577
204.463
172.914
151.28
138.258
131.32
128.615
128.023
132.026
13923.8
10842
7865.53
3987.8
3431.18
1964.39
1657.99
1099.56
1023.28
820.968
809.598
707.481
693.865
635.913
632.527
611.612
612.966
607.716
608.503
621.537
18269.9
10533
6374.27
4094.04
3206.02
1955.28
1684.37
1143.7
1034.69
810.723
773.755
678.012
662.439
621.977
619.106
605.24
608.068
606.048
611.002
625.138
15248.5
10212.9
7036.62
4226.88
3362.03
2178.28
1809.13
1214.54
1026.71
806.711
747.699
665.084
643.097
608.158
600.597
588.024
588.05
586.37
589.449
600.899
8556.82
8595.62
5944.47
3990.62
3228.4
2233.95
1848.41
1289.17
1076.84
866.577
788.313
706.311
674.96
636.803
623.584
605.866
601.337
595.86
596.279
603.331
9024.58
8672.58
5880.86
4097.84
3372
2391.18
1962.25
1398.68
1152.26
940.779
848.164
762.726
726.435
680.329
656.607
629.571
619.006
610.279
607.698
613.788
9985.38
11715.9
6682.9
4411.36
3932.99
2665.44
2031.41
1603.5
1216.68
1056.55
924.486
849.201
804.128
746.531
700.108
658.34
637.646
625.165
622.359
631.092
15226.8
10965.5
7377.2
4745.61
4152.01
3198.4
2251.1
1698.83
1305.49
1078.75
953.179
868.365
822.407
774.867
676.537
628.861
608.142
604.997
610.562
631.096
21421.7
10102.3
5888.54
4624.14
3450.81
2967.14
2466.13
1686.56
1318.95
1065.61
915.687
809.087
750.362
710.403
645.225
562.941
557.745
568.744
589.174
619.012
19008.8
10429.7
6672.93
4529.79
3267.64
2637.5
2285.19
1737.77
1378.68
1080.39
840.537
667.038
604.978
589.859
565.609
532.242
539.762
562.78
586.976
612.76
21584.5
10818.8
6421.5
4762.72
2992.54
2410.89
2074.34
1749.85
1444.98
1114.92
785.605
565.796
524.452
536.823
538.171
542.601
557.458
583.704
602.758
618.748
25603.8
9673.31
6103.51
4606
3201.78
2516.97
2204.48
1831.76
1527.56
1192.91
885.09
687.647
607.018
574.498
562.053
580.972
597.699
621.073
636.285
645.622
10442.5
9969.53
5447.86
4685.28
3414.61
2634.53
2310.63
1852.64
1467.49
1108.01
862.86
702.013
642.778
619.144
646.234
649.139
665.535
678.54
684.406
687.026
21808.7
8693.01
5451.82
4299.68
3178.94
2415.3
2294.49
1564.56
1311.02
984.392
881.392
794.895
773.024
757.313
751.549
751.057
754.796
755.994
753.689
747.11
26945
10661.5
5927.76
4229.53
2753.54
2318.99
1900.33
1471.25
1222.24
1031.34
947.935
907.824
889.262
875.406
865.793
854.321
848.362
839.233
828.991
812.161
27491.3
16233.8
8377.53
4661.95
3036.66
2257.86
1864.28
1509.76
1315.52
1170.87
1096.47
1045.17
1019.82
997.33
984.743
964.066
952.253
929.62
914.092
887.57
25412.5
9886.61
5894.41
4502.85
3000.84
2398.77
1930.89
1690.42
1507.65
1378.9
1295.52
1216.23
1179.89
1131.05
1107.61
1064.55
1040.94
998.465
975.487
936.351
12858
7944.46
4979.74
4590.53
3205.06
2588.96
2263.92
1919.32
1865.5
1658.92
1602.66
1433.98
1371.56
1255.86
1207.96
1131.87
1092.42
1032.33
1002.48
952.014
14369.2
5490.9
5053.09
3517.93
2948.85
2195.32
2128.91
1754.33
1784.34
1560.75
1526.71
1326.41
1256.04
1114.33
1051.76
962.161
916.242
856.599
830.654
806.075
2084.13
1760.09
1816.91
1274.76
1007.36
842.728
723.339
640.917
574.38
516.848
453.99
386.483
329.817
279.871
244.85
214.867
195.484
176.093
166.083
149.007
761.947
890.673
570.213
978.739
836.093
997.93
647.309
608.61
497.853
394.212
789.339
656.643
568.089
456.477
576.989
937.334
826.968
1020.61
668.169
1077.54
911.106
391.908
788.039
679.44
586.815
461.849
856.854
715.913
253.917
292.269
144.278
1154.18
966.647
1028.51
797.44
129.59
120.34
100.077
799.907
595.238
717.666
615.474
111.731
102.074
115.665
574.229
535.99
604.031
571.573
112.262
116.773
116.708
521.661
487.273
559.204
514.974
105.818
115.223
107.014
473.896
436.513
497.873
445.603
94.3756
105.022
84.039
422.674
366.018
426.032
345.098
54.842
70.7765
58.7045
342.512
269.764
317.993
272.153
41.1778
61.2694
55.6715
254.564
250.536
263.353
228.696
128.439
144.592
108.269
893.352
746.829
688.075
673.044
104.958
110.207
119.618
700.782
631.429
669.078
638.746
119.317
121.195
121.681
619.414
581.05
623.005
570.906
116.227
119.6
101.071
566.082
514.071
550.145
471.126
104.659
94.9414
80.711
494.826
434.625
441.722
364.769
71.2465
76.0033
68.1247
411.295
324.703
342.902
294.078
61.3582
68.1483
70.5611
303.153
269.806
283.807
267.117
58.7639
71.2213
60.7112
261.421
224.514
264.676
231.078
105.132
122.56
88.3447
658.884
651.629
624.497
592.235
117.65
83.5745
75.8177
647.046
617.889
571.461
508.586
117.346
77.3719
99.7743
602.727
557.118
504.273
528.981
99.497
105.674
115.558
540.373
467.951
537.017
534.493
84.0767
117.204
116.672
441.437
372.943
525.182
483.5
78.1274
114.997
106.073
354.229
312.183
468.224
420.159
77.032
102.855
90.7705
302.913
288.731
404.344
355.53
62.4211
87.872
49.1283
286.331
240.821
335.78
214.674
94.0745
210.233
127.09
674.376
634.47
838.813
831.46
73.1253
127.41
112.049
611.845
516.651
822.933
706.997
93.8485
89.8566
76.0295
504.449
529.325
658.733
620.347
120.579
93.4039
133.125
544.677
556.053
641.049
631.805
122.425
135.329
128.139
549.492
507.065
614.445
548.353
108.781
124.853
105.638
490.446
435.283
528.107
443.629
90.5013
99.571
73.5044
416.163
356.21
414.388
304.877
43.2135
62.2184
25.1458
328.58
198.732
256.887
181.147
1181.06
1287.64
958.425
1891.37
1456.49
1626.71
1293.09
736.006
872.936
741.862
1256.67
1006.79
1206.4
1021.72
632.599
718.932
660.736
950.488
829.799
974.311
857.721
563.473
642.459
583.415
796.192
716.33
824.628
728.772
495.697
562.182
498.182
688.806
615.734
697.188
603.78
413.025
474.228
387.826
592.64
516.892
571.413
477.462
315.984
361.437
308.827
492.19
432.157
451.333
387.294
291.783
296.014
255.995
421.761
415.693
370.858
343.927
907.289
878.284
819.601
1501.9
1258.93
1289.31
1169.35
755.376
806.98
752.624
1192.73
1031.92
1134
1020.02
670.025
729.651
659.164
986.287
867.477
980.615
866.637
582.406
634.828
533.462
832.34
727.389
834.88
610.364
485.243
496.556
404.265
691.936
585.842
547.821
425.284
368.71
379.394
323.467
550.779
455.883
399.667
347.93
302.315
311.193
290.433
430.855
366.413
337.865
322.9
247.011
286.834
244.696
348.591
322.516
317.937
283.846
793.465
814.606
741.514
1247.97
1140.01
1257.68
1118.84
728.479
714.379
637.274
1105.58
1000.23
1076.99
968.416
647.607
627.011
632.773
965.544
865.333
944.042
892.367
530.339
634.543
612.976
836.613
607.638
874.107
785.405
411.955
597.656
541.261
546.886
427.409
752.055
655.65
340.591
522.205
465.126
402.479
366.698
626.77
546.225
315.331
446.791
388.865
361.975
356.948
520.913
436.584
256.358
362.986
242.853
350.666
297.842
402.145
319.276
793.343
1090.2
1018.57
1375.31
1182.23
1601.5
1456.45
651.373
1002.18
857.038
1132.85
997.25
1406.69
1191.85
640.121
804.651
754.228
968.554
918.215
1133.67
1047.22
638.884
762.658
714.11
901.102
819.301
1026.32
881.931
567.847
689.239
608.431
786.617
687.077
837.195
720.661
482.005
585.223
487.287
656.008
563.708
686.63
554.836
388.4
454.268
333.002
533.527
433.131
512.992
386.672
230.892
285.827
216.685
393.438
315.033
354.457
312.691
1514.05
1713.9
1374.98
2137.71
1639.55
1938.05
1565.25
1072.13
1287
1089.32
1477.63
1212.25
1468.81
1238.58
878.105
1036.48
906.167
1140.1
982.682
1174.72
1014.27
753.325
869.182
763.349
939.864
834.592
967.599
837.223
645.387
728.894
627.871
800.605
716.651
796.105
679.517
545.4
593.861
499.103
692.972
623.475
643.393
552.108
466.801
473.078
409.189
604.761
566.444
528.834
478.233
451.742
393.972
371.38
562.208
552.443
469.563
458.418
1346.66
1404.88
1262.76
1862.4
1552.32
1691.15
1493.48
1099.93
1221.06
1091.27
1468.23
1253.67
1435.68
1265.97
916.654
1047.64
923.199
1191.27
1027.7
1211.3
1055.45
878.598
839.753
882.304
917.01
841.146
875.682
923.446
678.796
684.576
702.031
749.592
656.306
708.203
727.975
475.416
378.584
347.746
616.853
520.071
430.664
389.608
383.624
341.306
330.345
495.729
443.518
382.95
373.256
347.777
325.474
298.308
435.442
432.542
371.445
368.869
1234.9
1387.49
1223.96
1657.73
1473.61
1701.36
1489.92
1075.32
1178.58
1060.93
1419.71
1263.46
1436.01
1291.29
925.491
1032.26
962.821
1213.31
1066.58
1249.28
1123.78
850.108
795.396
897.951
937.017
821.746
735.539
950.35
559.032
454.24
607.029
385.226
565.328
344.348
598.268
368.866
647.628
560.173
440.088
413.059
676.979
576.833
365.222
532.831
443.812
408.896
397.555
547.767
468.347
309.884
410.892
338.33
391.417
372.214
446.597
402.944
1287.78
1740.55
1564.61
1821.74
1549.62
2047.76
1794.13
1093.58
1501.97
1268.98
1488.9
1326.09
1700.25
1431.25
991.381
1207.08
1110.95
1280.9
1152.02
1362.23
1228.86
861.545
1082.18
914.673
1103.86
939.573
1177.12
959.352
710.859
865.141
740.371
885.986
743.606
901.093
760.357
576.806
703.341
563.776
702.354
590.639
716.527
575.417
440.609
521.155
403.052
557.184
469.162
538.898
460.524
336.471
377.048
339.168
446.916
406.071
447.546
421.572
1672.82
2009.55
1616.7
2382.16
1776.22
2252.51
1773.51
1247.21
1516.36
1276.04
1632.65
1355.82
1659.35
1387.37
1008.96
1209.45
1040.52
1273.52
1083.68
1311.85
1110.52
855.177
990.744
853.268
1032.46
918.589
1049.67
889.945
737.214
810.594
691.414
884.302
801.133
843.508
722.188
648.389
655.522
568.303
779.097
727.576
689.934
625.518
598.035
547.157
503.914
715.731
686.746
612.964
588.553
580.186
497.177
485.917
679.496
649.976
583.694
565.826
1608.57
1773.85
1559.24
2188.02
1779.21
2017.51
1756.44
1293.26
1496.58
1314.34
1674.23
1409.95
1678.87
1454.6
1054.53
1255.84
1086.99
1333.59
1122.7
1380.47
1156.52
851.527
1029.37
745.804
1057.66
881.742
1079.6
841.315
666.899
665.471
506.51
828.885
689.387
765.192
583.309
533.447
470.255
411.623
652.538
584.29
541.057
482.393
468.368
403.944
396.943
573.199
555.671
481.298
490.929
460.536
397.046
399.129
553.439
543.948
494.353
497.998
1542.59
1790.99
1566.54
1985.46
1748.03
2032.49
1788.91
1316.15
1509.61
1354.25
1676.87
1466.74
1721.19
1523.2
1100.03
1306.85
1160.71
1395.39
1172.92
1456.28
1238.16
753.888
1107.16
924.719
1097.3
846.813
1160.96
934.848
514.091
866.457
717.935
768.559
589.604
867.885
706.785
432.817
677.729
578.158
549.468
493.861
667.183
590.065
415.904
550.804
481.58
492.505
497.476
575.049
543.182
400.232
464.164
427.762
498.527
496.152
535.516
515.462
1623.26
2124.79
1849.18
2130.25
1833.95
2328.97
1982.26
1386.91
1746.14
1467.65
1759.16
1546.66
1857.37
1560.1
1187.18
1396.25
1248.9
1477.92
1257.51
1484.71
1274.76
950.103
1189.99
960.2
1178.21
951.463
1191.9
945.898
743.761
900.842
758.64
885.901
727.379
887.45
745.455
591.348
714.354
579.951
686.704
603.337
704.469
610.586
484.151
547.7
483.167
585.196
549.083
593.002
562.527
431.999
473.246
450.148
540.891
521.077
557.397
543.678
1825.87
2348.9
1839.12
2751.16
2104.95
2704.28
2134.67
1406.42
1719.95
1436.53
1970.09
1662.35
2005.58
1686.34
1118.13
1357.15
1140.85
1550.84
1329.51
1594.28
1340.36
950.173
1075.56
907.483
1279.52
1148.48
1266.18
1073.69
830.891
859.804
738.801
1108.97
1020.87
1022.63
903.49
761.564
708.712
654.644
1002.39
955.773
880.251
852.676
719.469
644.825
623.449
944.114
907.09
848.734
830.898
674.936
618.17
595.692
897.774
834.524
825.421
780.904
1848.85
2108.16
1832.71
2646.9
2149.66
2475.95
2146.22
1459.93
1749.68
1509.34
2025.73
1708.25
2047.71
1764.17
1150.67
1428.33
1181.51
1614.08
1343
1668.06
1363.93
894.825
1098.22
857.871
1260.76
1048.31
1263.68
1005.34
701.528
782.38
600.234
991.093
855.788
930.331
755.416
611.965
559.188
513.026
828.93
809.791
722.068
719.454
592.41
516.645
531.681
813.275
807.218
739.754
763.868
575.033
534.83
534.018
803.993
764.226
764.574
736.321
1826.34
2116.21
1870.73
2450.56
2145.26
2459.65
2203.93
1523.77
1798.17
1583.1
2054
1783.94
2114.37
1850.99
1198.35
1508.68
1263.29
1688.83
1382.8
1758.72
1454.07
863.21
1177.71
937.545
1280.34
1012.22
1346.87
1075.38
605.397
868.322
705.505
934.956
758.7
1001.08
840.67
521.323
667.707
605.673
725.67
722.351
808.739
791.53
535.504
596.144
574.52
742.02
764.119
795.093
790.463
532.04
568.591
549.654
764.162
734.772
785.468
749.635
1911.99
2400.55
2035.19
2525.71
2243.26
2759.63
2348.57
1603.33
1901.68
1597.94
2143.4
1867.31
2179.08
1831.94
1280.7
1521.99
1288.23
1775.69
1471.24
1761.15
1487.9
952.757
1196.09
949.707
1361.55
1093.09
1356.37
1108.77
725.951
892.039
751.928
1020.84
867.662
1052.6
933.283
620.05
712.848
634.3
835.63
812.241
888.47
840.449
581.064
620.527
597.291
808.656
798.838
828.625
820.889
556.011
592.3
579.507
792.728
757.873
806.583
776.372
829.522
800.954
748.97
791.491
795.865
833.727
778.69
873.279
884.165
796.015
928.237
836.187
928.765
754.4
800.501
707.624
672.378
470.727
771.636
729.429
576.187
910.543
950.588
931.023
987.705
906.066
958.571
936.346
858.621
816.236
883.64
825.598
861.32
804.582
882.029
906.662
960.258
997.609
889.366
966.797
772.135
936.214
831.866
487.541
787.412
759.341
756.84
593.609
862.665
631.33
646.32
571.364
627.705
612.076
667.415
588.252
604.157
647.341
439.942
403.048
592.955
663.592
348.838
543.978
497.738
404.121
353.572
539.721
503.651
332.854
698.915
771.681
743.587
769.631
727.866
750.825
715.855
649.026
643.639
699.241
616.88
685.016
603.394
664.684
623.804
418.696
716.485
512.95
687.341
367.358
651.026
561.589
375.573
544.894
482.484
519.833
350.924
591.684
733.903
673.286
661.185
451.377
733.517
556.832
652.713
917.043
914.534
904.467
992.663
869.983
968.943
952.8
856.939
769.541
866.666
862.083
818.089
802.005
908.047
901.203
976.886
920.815
1037.04
780.981
998.722
956.044
779.705
482.126
779.36
764.682
590.406
693.924
851.807
960.387
1039.58
1054.3
1025.06
1016.17
993.287
995.611
894.886
890.36
861.727
968.259
834.023
942.2
927.329
533.139
411.306
504.488
339.99
533.565
315.977
505.923
711.121
726.581
749.859
817.695
687.648
753.966
774.937
674.189
621.482
713.873
697.297
653.564
638.788
735.066
589.69
415.783
527.42
696.738
373.784
634.909
640.831
557.496
374.942
484.971
562.771
349.544
529.544
597.068
732.794
840.761
802.951
805.833
780.427
793.624
750.422
691.556
709.334
663.156
759.012
652.896
750.044
704.552
379.803
543.709
404.889
846.423
781.892
895.323
854.159
252.57
280.387
223.162
573.666
465.758
653.016
518.485
181.274
192.974
177.499
451.49
437.264
493.544
486.6
171.256
170.538
166.453
395.232
362.385
453.233
430.345
152.163
159.864
154.807
364.438
361.871
414.442
398.746
145.206
149.026
142.129
346.16
332.009
378.002
357.422
113.309
125.692
97.3171
317.831
283.254
313.457
250.577
76.5165
85.2487
63.2948
247.094
251.613
209.199
219.271
646.581
618.111
490.091
1113.78
1041.71
1051.77
968.811
511.307
365.683
403.087
578.054
529.011
555.308
302.926
290.372
177.7
164.349
353.947
296.381
345.02
135.701
266.983
112.172
100.302
230.239
228.495
259.356
99.4935
286.281
114.073
106.903
238.643
237.255
285.252
108.069
278.771
109.717
107.866
231.906
232.426
280.661
107.289
260.386
102.584
103.219
231.951
228.593
266.302
101.802
188.062
76.8861
82.6994
202.129
185.39
210.775
72.6473
141.471
44.8478
51.6567
133.521
130.978
141.389
51.9146
87.5737
97.2249
73.6899
228.191
261.012
211.598
226.381
335.789
361.767
269.433
853.193
755.26
721.536
634.456
329.769
179.026
185.027
375.336
373.297
333.35
146.408
324.085
106.642
111.736
317.528
307.063
321.079
110.111
341.73
113.705
116.206
324.134
331.902
338.901
119.557
327.767
119.057
121.563
333.669
328.148
334.964
119.877
282.024
110.503
110.104
305.58
294.941
295.782
105.062
216.463
95.7928
92.1885
266.01
247.771
242.05
81.859
163.443
59.4607
60.7158
168.994
161.671
164.265
60.6133
168.92
66.8975
67.2996
167.522
166.973
169.503
68.6
65.8809
91.831
56.5828
185.094
198.909
173.772
164.752
228.561
270.223
219.209
627.54
567.515
601.255
553.128
264.495
110.554
124.522
253.411
278.703
243.181
105.885
305.344
112.05
100.481
321.559
330.699
297.892
103.957
308.734
119.141
109.601
335.291
332.402
309.002
109.983
298.587
109.943
109.932
311.773
299.744
304.355
108.351
266.465
90.9203
98.9627
259.101
247.891
272.6
97.5263
243.14
79.4999
95.1847
218.527
211.638
249.232
94.1816
220.446
77.3353
88.9575
198.333
195.409
225.498
87.4802
203.161
75.8094
82.44
191.03
189.389
208.112
80.6996
54.135
69.7004
50.2779
171.369
157.503
161.879
164.101
239.878
304.228
284.689
607.421
605.671
679.952
724.107
290.055
109.39
150.831
250.712
261.478
267.815
127.616
308.604
83.2875
112.095
267.607
252.543
319.514
107.156
223.21
75.2127
74.9581
219.483
225.148
220.268
75.2843
316.781
110.888
103.223
294.157
310.357
295.202
112.962
342.763
123.974
128.252
330.734
330.019
343.638
128.728
308.281
116.263
122.385
311.646
301.69
319.787
117.94
255.989
99.2882
104.133
269.855
256.61
270.633
98.345
174.229
79.0159
83.2334
222.946
198.628
212.092
70.2647
54.4474
57.3095
57.7614
158.544
168.296
158.75
178.422
253.122
305.041
230.897
579.054
663.772
590.795
704.481
206.003
217.902
213.187
663.285
629.789
711.823
657.164
189.459
188.01
179.147
570.566
586.098
596.821
596.666
220.113
188.852
187.686
599.509
583.173
596.11
560.478
203.916
178.808
161.536
544.5
504.741
499.173
456.948
166.073
146.428
118.936
460.607
406.703