/*--------------------------------*- C++ -*----------------------------------*\
  =========                 |
  \\      /  F ield         | OpenFOAM: The Open Source CFD Toolbox
   \\    /   O peration     | Website:  https://openfoam.org
    \\  /    A nd           | Version:  10
     \\/     M anipulation  |
\*---------------------------------------------------------------------------*/
FoamFile
{
    format      ascii;
    class       volScalarField;
    location    "5.9";
    object      nut;
}
// * * * * * * * * * * * * * * * * * * * * * * * * * * * * * * * * * * * * * //

dimensions      [0 2 -1 0 0 0 0];

internalField   nonuniform List<scalar> 
12920
(
1.41506
2.25841
0.864026
0.899954
0.975642
1.49457
1.43263
1.43385
1.10452
1.00223
0.824781
0.731438
0.578002
0.489702
0.410544
0.377399
0.34996
0.349877
0.345613
0.310282
5.81418
11.5376
5.86015
4.77023
1.94757
2.40507
1.76354
1.94726
1.29816
1.17931
0.895514
0.865495
0.801414
0.870913
0.879951
0.96548
0.976996
1.02926
1.03498
0.913619
25.3907
17.0535
6.92124
6.75405
2.81516
4.49352
2.04281
2.58607
1.5041
1.59441
1.16466
1.23887
1.06273
1.12637
1.03186
1.04753
0.974545
0.962852
0.907012
0.786845
4.66068
9.38343
6.02549
7.29979
3.61435
5.01723
2.66212
3.43956
2.03374
2.07818
1.40393
1.40238
1.14172
1.15186
1.01897
1.00765
0.937814
0.931525
0.898909
0.824597
7.82668
11.7358
7.31192
6.17268
3.33865
4.75557
2.65907
3.6444
2.05883
2.14288
1.50074
1.52492
1.25776
1.26289
1.10252
1.0732
0.993664
0.983075
0.944436
0.857671
14.7577
14.0553
11.6664
8.80756
4.88453
5.05782
2.90409
3.54287
2.22443
2.21221
1.75879
1.73018
1.53639
1.45795
1.26601
1.13064
1.00774
0.960579
0.915078
0.82797
17.4659
15.2574
9.57611
9.59157
4.93781
5.86062
3.68264
3.47463
2.64396
2.49303
2.17759
2.11344
1.81118
1.6308
1.38802
1.2794
1.13934
1.0194
0.929509
0.820473
5.97023
10.8663
6.33897
7.95676
4.87847
5.67572
1.41716
1.10091
0.925886
0.961966
0.80227
0.748474
0.60994
0.428979
1.30901
1.2853
1.249
1.09596
0.940021
0.808831
18.1779
18.1711
11.3699
10.2437
6.53805
2.15217
0.630197
0.364172
0.252346
0.28758
0.26848
0.241455
0.179018
0.0986597
0.440887
1.52379
1.2788
1.06674
0.920127
0.783885
3.29082
13.2557
11.9075
9.58065
4.88642
1.54696
0.351534
0.19587
0.205456
0.228242
0.214414
0.188055
0.123285
0.142211
0.398708
1.10433
1.02994
0.929886
0.825925
0.742841
14.1736
10.9781
9.7502
7.92483
4.6793
1.41064
0.28524
0.218969
0.226773
0.217757
0.187105
0.166037
0.157875
0.150455
0.354188
0.914146
0.846487
0.809827
0.79119
0.781885
6.17831
9.47271
7.73306
7.19609
4.25875
1.76037
0.315624
0.188987
0.146769
0.204394
0.241983
0.235519
0.202507
0.167692
0.288783
1.15892
0.997987
0.927843
0.903486
0.887505
15.1419
8.18384
5.90044
6.1984
3.52332
5.129
1.03596
0.990561
0.642355
0.851747
0.835386
0.776943
0.573852
0.359983
1.31789
1.21253
1.13191
1.07022
1.05135
1.01358
11.4331
11.1862
7.84002
6.26982
4.01249
5.01485
3.25243
4.18569
2.99351
3.69026
2.28609
2.16888
1.47299
1.5084
1.35287
1.33163
1.23603
1.2311
1.1914
1.12115
4.62735
13.1825
11.3173
8.03528
5.03048
5.04161
2.92887
3.79099
2.62993
3.24268
2.07322
2.23175
1.73947
1.86284
1.72515
1.73285
1.64876
1.5955
1.49692
1.28255
2.23091
12.2815
10.8248
8.57443
4.78314
5.10954
2.54882
3.74511
2.22107
3.2837
2.03124
2.58092
2.02131
2.2141
1.98538
2.02712
1.9025
1.86112
1.71658
1.41249
6.37098
11.3581
7.03604
7.74767
3.75473
4.96339
2.51074
3.90972
2.44649
3.58766
2.26417
2.54787
2.02889
2.09094
1.9058
1.96332
1.90877
1.87442
1.71858
1.40275
18.9691
6.29358
8.63171
7.04536
4.13939
5.54008
3.01093
4.72244
2.68818
3.0686
2.3178
2.39608
2.06397
2.01651
1.81534
1.74224
1.66999
1.62351
1.50484
1.25029
3.95921
7.80135
5.97829
7.22136
4.07218
5.72335
2.79444
3.18003
1.98561
1.94718
1.49972
1.52385
1.39053
1.44875
1.39935
1.39694
1.29636
1.18591
1.06869
0.868826
10.9856
7.85336
3.93874
4.84181
2.512
3.41133
1.80906
1.72883
1.14028
1.09977
0.919525
0.910544
0.775731
0.683336
0.601913
0.565
0.532094
0.476449
0.432805
0.360835
2.28388
13.7133
4.9017
5.23958
6.0257
11.0125
10.3624
10.7524
7.69006
6.85738
5.52639
5.04812
4.20615
3.78147
3.22137
2.93855
2.75651
2.7149
2.54184
2.16692
16.2448
35.3587
33.4975
29.6503
18.6943
18.7874
18.5076
18.8311
14.9608
12.4097
9.95395
9.80572
10.2162
11.2863
12.1139
12.5704
12.7325
13.0344
13.2089
13.0783
68.2865
40.8044
37.0623
28.039
22.675
21.9302
19.152
18.2537
14.5637
13.4644
12.0271
12.5289
12.6271
12.9598
12.8748
12.8658
12.7443
12.7596
12.6283
12.1925
29.1696
27.6798
34.4069
34.118
28.1289
25.4953
21.5573
20.2128
16.574
15.2063
13.2443
13.1736
12.6958
12.6958
12.3284
12.2191
11.9882
12.1303
12.153
12.085
34.3389
45.9092
39.9534
23.5751
24.6765
21.9153
20.021
19.459
16.501
15.7074
14.401
14.2711
13.5966
13.2611
12.4853
12.2399
11.9468
12.0269
12.0736
12.2211
45.4451
44.7118
31.8026
25.1749
20.0309
21.306
20.0995
19.1202
17.6049
16.7477
16.0359
15.4581
14.7609
14.1299
13.3603
12.4685
11.6395
11.4422
11.5095
11.9525
29.0338
46.8731
23.7546
24.9836
21.878
22.974
19.712
18.9054
18.8381
18.4171
17.6967
16.6912
15.364
14.7814
13.997
13.1795
11.8965
11.2183
10.9901
11.7281
23.5247
29.0709
22.6379
29.6519
30.8587
29.5072
19.7225
15.0812
16.7147
16.7525
15.8972
14.9173
13.4197
11.3861
13.8854
13.5483
12.7059
10.6767
10.7953
11.8008
43.1086
35.6091
28.3485
30.627
25.6921
19.6685
14.6539
13.3801
15.2487
16.3649
15.7349
14.5053
11.9229
9.96343
12.305
13.4036
11.9624
10.9941
11.2606
11.6832
35.4034
53.0466
37.1658
34.8213
21.8555
19.3986
16.5336
15.3239
16.9607
16.8657
15.3973
13.0919
10.6107
10.1655
8.79011
10.6313
10.6194
10.5064
10.8731
11.5057
31.4867
48.0665
34.9363
30.578
18.9197
17.1964
15.2871
16.5778
16.8984
16.6772
13.6088
11.1348
9.76586
9.72901
7.40329
9.31168
9.77971
10.2652
10.9483
11.9908
17.762
46.499
28.9931
26.6603
18.9543
17.0973
15.1491
14.6237
13.1405
16.4125
17.6519
16.1454
13.782
10.1936
8.54526
11.4057
11.2704
11.2804
11.5455
12.5359
37.0399
36.6076
26.4123
20.8962
18.1823
20.8579
16.9537
17.7281
16.0401
18.2811
17.5108
15.1236
10.9049
7.64972
12.4403
12.4388
12.4272
12.3688
12.6487
13.4282
22.33
50.7551
41.3192
26.9639
23.5607
25.1269
23.3514
21.6477
19.8589
17.6658
15.1932
13.4978
12.6646
13.3564
13.5403
13.611
13.6083
13.6847
13.9067
14.3239
15.5917
38.3034
44.5886
35.006
27.6708
24.8132
22.2493
20.5906
18.5369
16.9459
15.8682
15.6421
15.6202
16.2096
16.4833
16.5406
16.5103
16.3318
15.9588
15.4456
6.38792
40.6035
43.8661
36.3566
26.8172
23.8594
19.2931
20.3957
18.6369
18.6404
17.8591
18.2808
18.1967
18.2869
18.2779
18.2528
18.2278
18.0292
17.6827
16.7398
9.05172
24.8931
36.4163
28.7555
25.1599
24.1498
21.0314
22.2919
21.2804
21.2415
20.305
19.8865
19.0497
19.1489
19.1805
19.3249
19.2681
18.9487
18.4486
17.3956
39.5704
30.8637
40.2885
28.7636
29.2925
28.172
25.949
25.8907
24.1419
23.9207
23.0296
22.7779
21.8313
21.2142
20.0304
19.6767
19.3972
18.8115
18.2533
17.468
6.16235
24.8443
37.3593
30.6181
26.4657
25.4037
20.3578
20.0981
16.9223
17.3109
16.6442
17.4314
17.3339
17.6467
17.5522
17.3478
16.3779
15.4923
14.4723
14.1849
14.2113
7.77244
7.95001
9.90502
12.9494
17.5473
10.457
11.2865
7.82764
7.84169
6.46799
6.35989
5.62094
5.27277
4.59346
4.06822
3.52
3.09192
2.8448
2.46863
1.46001
5.08654
10.7338
16.132
12.4089
16.7292
13.5763
12.5115
8.76834
7.69449
6.18443
5.70805
4.84225
4.44751
3.88264
3.58781
3.29106
3.03944
2.8042
2.32855
12.1087
48.1712
47.2775
44.3902
32.5335
31.5985
26.9389
25.4976
21.3441
19.2204
17.5243
17.5618
17.2202
17.5245
17.4902
17.6208
17.6921
17.8806
17.9539
18.0104
69.5228
52.0469
51.5945
45.0076
39.0906
35.9911
31.0485
28.2724
23.9341
22.2416
20.5743
20.3855
19.8734
19.7444
19.4352
19.3401
19.2105
19.213
19.1174
18.9692
43.9112
42.3108
49.6567
49.5155
45.1643
39.822
34.5617
30.7243
26.0685
23.8456
21.8512
21.2086
20.4042
20.0212
19.5307
19.315
19.096
19.1003
19.0825
19.0502
18.6305
47.1414
57.2718
44.612
43.7574
38.02
34.4828
30.84
27.0385
24.9193
23.2787
22.3448
21.3027
20.5967
19.8398
19.5051
19.1992
19.1703
19.1421
19.1528
32.0679
57.1001
50.7216
44.1618
41.1235
38.8293
36.2624
32.1271
29.1891
26.6517
25.1609
23.68
22.4404
21.3655
20.3759
19.6043
19.0413
18.9387
18.9468
19.1154
71.3322
45.1041
36.1714
43.7329
40.6665
41.0912
36.6842
33.3109
31.0053
28.6378
26.3375
24.4672
22.6956
21.6734
20.4736
19.5375
18.7928
18.6043
18.5766
19.0008
28.2101
44.5226
37.7085
46.897
46.1834
45.1318
37.033
32.0781
30.646
27.8882
25.6613
23.3208
21.1508
19.5722
19.8643
19.1119
18.0634
17.6041
18.0104
18.6233
38.8509
52.6969
43.0127
47.8126
42.9303
41.5157
30.5074
30.0338
29.3582
27.1433
24.6459
21.9557
19.0316
17.6961
18.1397
17.2894
16.4686
16.4895
17.075
17.8643
68.1606
69.8926
51.0359
49.6726
39.5284
37.4509
34.6198
31.5805
29.7931
27.131
23.1876
18.7546
15.5697
13.334
13.2567
14.3757
14.7012
15.3511
16.1917
17.7231
74.3815
66.4863
56.3042
46.3835
37.6804
34.3056
32.0923
30.9732
29.3923
19.0038
7.00386
6.28879
9.13617
11.5124
11.1039
13.0042
14.0214
15.5792
17.038
18.506
64.5495
61.4395
49.5341
43.461
37.1748
34.1339
31.1435
28.7968
26.9659
28.1335
25.9634
22.4859
18.8974
14.5402
14.4059
15.7302
16.4689
17.6778
18.7353
19.7035
51.4964
47.121
49.7963
39.6066
37.0929
37.5825
33.395
31.9869
29.0646
29.1339
25.7681
21.5043
16.9468
15.984
18.8228
19.131
19.5738
20.1673
20.73
21.1412
24.4492
61.8585
58.8586
46.843
41.5857
39.9284
37.2314
33.6917
30.3112
27.0037
23.818
22.4454
21.7195
22.3097
22.3029
22.3286
22.3467
22.4167
22.5215
22.4953
26.2181
57.3573
60.5609
51.3219
42.666
38.4613
36.3676
33.0132
30.0443
27.818
26.0678
25.7616
25.5789
25.782
25.7264
25.5184
25.2486
24.8807
24.4467
23.7934
8.71739
51.0633
55.9231
52.0523
42.5612
37.7634
34.5204
33.2157
30.9984
30.1333
29.1154
29.007
28.5297
28.3181
28.0288
27.6631
27.3375
26.807
26.2774
25.1491
25.406
43.097
56.7178
46.599
42.9737
38.7294
36.3953
35.3628
33.9916
33.0859
31.8759
31.0814
30.1501
29.7806
29.3395
28.8861
28.3761
27.5234
26.8643
25.6023
56.999
38.1963
55.5958
47.5361
46.3666
42.1058
39.0706
37.7346
35.6564
35.2536
34.0752
33.3468
31.8308
30.8193
29.5802
28.7478
27.8244
26.8337
26.1188
25.2347
10.9628
32.6265
45.5045
41.7233
40.1216
37.3432
32.8405
32.2734
30.0305
30.3078
29.7179
29.3671
28.0129
27.0548
25.5729
24.1122
22.0609
20.562
18.3627
17.1611
23.4879
12.1071
13.5986
20.4783
14.6694
18.1458
12.4981
13.5716
9.6752
9.6071
8.05034
7.84948
6.88173
6.41528
5.63477
4.96201
4.34755
3.77165
3.35155
2.69245
0.567019
5.20169
10.1618
20.0942
17.4321
18.2981
13.4765
10.8874
7.86335
6.57459
5.72052
5.14539
4.52622
4.01385
3.56146
3.17883
2.87574
2.63729
2.49648
2.40799
17.968
59.3424
56.6268
51.9236
40.2985
36.5401
28.9308
26.4766
23.7516
22.8274
21.0963
20.5256
19.399
18.889
18.3918
18.3823
18.389
18.5243
18.7434
19.0353
48.7716
43.0346
63.5052
55.0069
47.9074
42.2714
35.6948
31.965
27.6868
25.5713
23.6663
22.5438
21.5833
21.1145
20.7768
20.6789
20.6141
20.6258
20.6526
20.7602
30.7112
56.3134
61.5532
59.7087
53.8636
47.2539
40.4412
34.9623
29.801
27.0313
24.8297
23.6361
22.5787
21.9277
21.3997
21.1005
20.9117
20.7662
20.7472
20.7602
32.6933
61.2809
67.6123
57.8863
54.533
47.1508
41.7245
36.0422
31.4164
28.4024
26.3473
24.8207
23.6569
22.7366
22.081
21.6241
21.2876
21.0777
20.9506
20.8617
23.697
66.2769
65.38
59.2181
55.3084
49.3074
44.4609
38.0957
33.9491
30.441
28.2446
26.2301
24.9259
23.6565
22.7841
22.0495
21.5894
21.2778
21.091
21.0268
57.9686
61.4015
55.1858
59.392
55.5443
52.8728
46.1647
40.2424
35.5629
32.1794
29.0692
27.0021
25.2983
24.1266
22.8602
22.0674
21.519
21.2116
21.0582
21.0682
51.5404
57.3669
54.2732
61.7008
57.6172
55.3514
48.095
41.9188
36.3381
31.8434
28.5327
25.9253
24.0684
22.8704
21.1637
20.5538
20.1319
20.0458
20.1967
20.555
77.2717
63.5488
58.1619
59.7361
55.2976
52.8724
37.1251
40.2615
35.0083
29.9443
26.3371
23.3689
21.2533
20.2093
18.998
17.2962
17.5456
18.0898
18.7504
19.8451
35.9966
75.2738
65.0178
60.1099
52.3132
49.3661
45.6892
39.5768
34.2471
29.4451
24.2207
19.3949
16.2515
15.0408
15.1209
15.1397
16.0692
17.1673
18.3773
19.7261
43.0163
74.3046
69.9906
58.3136
50.3536
46.1236
42.8148
38.5556
34.4656
29.4469
12.6783
11.121
11.9898
12.5879
13.021
14.7366
16.2137
18.0186
19.3815
20.3984
52.3412
71.2766
65.9018
56.7307
50.2652
45.6577
42.0669
37.7833
34.5737
31.6186
26.5338
22.1177
18.563
15.968
15.0965
16.8921
18.5026
20.0432
21.0467
21.5907
26.9644
45.3016
64.2281
54.6686
50.9752
47.7821
43.7348
40.3381
35.6925
31.9851
26.9443
22.5802
19.7629
18.9893
20.1032
20.9834
21.9082
22.6126
23.0235
23.0727
19.5447
66.442
66.419
58.5679
52.3277
47.7524
44.3608
39.3263
34.5183
30.6905
27.3901
26.1653
25.1662
25.2904
25.0627
25.0852
25.0625
25.0349
24.8923
24.5617
23.633
70.8083
68.7602
59.7908
51.4152
45.7862
43.2676
38.7075
35.0866
32.2714
30.1006
29.7041
29.1583
28.9362
28.564
28.1278
27.6575
27.1804
26.6715
25.929
37.9512
64.5034
67.6617
61.1538
51.819
45.7203
42.5085
39.3191
36.5593
34.8775
33.5281
32.6673
31.9542
31.3948
30.8801
30.2422
29.6787
28.9303
28.2734
27.194
35.8784
59.6888
66.8666
57.8096
52.9032
46.6889
43.8753
41.3939
39.5468
37.8234
36.3452
35.0211
33.9894
33.1044
32.3972
31.4773
30.7538
29.6713
28.96
27.6771
30.9385
32.3967
63.181
57.2434
54.2922
48.131
44.9842
42.5255
41.1796
39.8233
38.48
36.7391
35.0569
33.3802
31.9866
30.6484
29.4771
28.4436
27.8259
26.9218
52.132
44.4478
48.2636
46.2972
44.9702
41.1927
38.3717
37.3476
36.2109
35.6448
34.4372
32.5154
30.4526
28.2782
26.1977
24.217
21.8781
20.0052
19.7849
20.2876
5.31175
12.8266
16.4982
20.8033
14.8519
17.3076
12.5781
11.9552
9.87229
9.06601
8.19012
7.40115
6.49948
5.6253
4.89079
4.1192
3.57404
3.00869
2.8387
2.68537
4.91417
15.3307
8.71461
16.5391
7.75385
8.30707
5.0329
4.46839
2.99794
3.12591
2.37931
2.27766
1.79454
1.64032
1.40501
1.36986
1.30721
1.37701
1.39709
1.4227
60.1399
70.1107
44.3907
55.299
23.8587
32.9586
14.7402
18.8352
11.7834
14.4219
10.7729
11.7729
9.891
10.3831
9.64435
10.2282
10.0023
10.6135
10.3214
10.0852
25.5387
67.6946
41.2525
57.6418
25.578
41.9429
17.5782
30.7524
13.595
19.0443
12.1624
14.9293
11.7688
13.4511
11.9443
12.9497
12.2133
12.8454
12.1843
11.7007
42.9894
60.5781
34.5711
63.5675
29.0817
48.5915
21.0334
33.9701
15.0427
21.4779
13.1707
16.2146
12.6073
14.1565
12.5177
13.3541
12.5797
13.0987
12.4562
11.8968
13.4866
59.0814
40.1998
60.5323
31.3506
48.8977
21.7422
35.936
15.8544
22.7755
14.2462
17.8201
13.756
15.6017
13.4736
14.2299
13.1927
13.6874
12.7922
12.118
20.5379
54.9257
42.1534
64.9382
33.2065
51.8845
24.2285
36.1625
19.1291
22.9309
16.8388
18.3501
15.4815
15.5943
14.3164
14.2459
13.5626
13.6844
12.8548
12.0836
15.4234
40.5823
41.8869
67.1983
36.2031
55.1178
30.0178
30.7615
22.5012
24.1539
19.0061
20.0886
16.835
16.863
14.7548
14.4839
13.6779
13.9742
13.1101
12.316
43.7059
64.8275
41.6013
69.4884
32.6612
38.0828
49.7122
41.6556
34.7186
30.5575
26.8259
24.8096
23.0746
22.0195
14.2452
13.1584
13.2869
13.4289
12.9227
12.3001
54.3367
39.1396
66.2669
42.3532
49.7806
54.0642
45.2186
39.8224
32.0519
26.6669
22.9433
20.568
19.176
18.358
17.2583
12.7188
12.6249
13.1782
12.9092
12.4828
93.7504
76.7243
70.3614
62.8684
36.9604
51.3716
45.5407
37.1074
30.2212
24.6686
19.8384
16.0356
14.5562
14.385
14.7822
12.4689
12.3029
12.9703
12.8038
12.4275
80.3153
61.0655
71.8794
37.5263
53.2142
49.036
43.7524
36.7627
30.996
24.9948
17.7593
13.3904
12.3587
12.8075
13.8623
12.7073
12.6881
13.5886
13.4193
12.8956
83.4805
64.2259
71.7387
63.0908
53.4451
49.8156
44.2308
37.8035
32.6926
26.9185
21.0095
16.9318
15.0155
14.1766
14.8389
14.1996
13.94
15.0213
14.4232
13.6938
26.2691
78.5029
70.3481
60.5862
43.1184
51.2522
45.0835
41.2531
34.3661
28.7828
23.3567
19.9902
18.2045
17.6806
16.685
15.7358
16.4996
16.667
16.0675
14.8637
53.3955
68.6425
64.7773
61.568
37.7254
49.1757
31.7707
39.9659
24.5452
30.2664
19.91
25.8782
19.1766
22.3869
18.5844
19.5694
18.121
18.7211
17.3217
15.8577
59.8685
74.0024
46.5251
61.953
33.7523
44.7381
28.0625
39.5696
25.4946
32.3404
22.6127
29.4668
21.9349
24.7665
21.2497
21.6168
20.2299
20.2435
18.7715
16.7173
81.4674
73.959
53.3628
65.2077
31.6341
46.0117
24.9781
40.4549
22.0696
35.2677
21.8278
32.3709
22.3238
27.4285
22.19
23.5905
21.3405
21.6983
19.6081
17.3549
77.4138
68.8491
50.6443
58.7882
29.9928
46.8649
24.4997
42.8728
24.1167
38.4139
23.6998
34.0667
23.15
26.7659
22.3244
23.2363
21.5041
21.7001
19.8217
17.5344
21.6386
55.655
63.2861
57.3258
32.567
49.5985
23.9985
43.9351
23.6009
39.9999
23.4239
29.9908
22.0523
24.3408
20.8199
21.3484
19.5254
19.8168
18.1408
16.3731
33.2775
27.2437
27.8906
47.9211
21.8907
41.4894
19.1772
37.7274
19.8897
29.8836
19.4774
22.5779
17.1854
17.5068
14.8371
14.5782
13.3607
13.6016
12.9377
12.4739
3.88547
20.5779
6.45631
14.035
4.90205
12.7072
4.55099
8.0856
4.32256
5.78202
3.78618
3.90959
2.85831
2.6418
2.16313
1.98811
1.79087
1.77614
1.72006
1.61447
24.3034
20.3374
6.71514
29.6493
25.851
27.9338
7.33075
19.805
5.95436
6.65526
24.4745
20.623
6.70383
8.13987
7.95563
27.9523
24.9203
27.4735
8.62515
31.2033
26.41
6.0416
24.0019
21.5442
7.79289
7.90609
25.1362
22.0795
0.38908
0.412363
0.23005
10.6175
10.4482
11.447
10.681
0.235627
0.205589
0.191908
8.95061
9.72339
10.3649
11.8193
0.266233
0.202537
0.236925
10.5983
12.023
12.4824
13.2558
0.26412
0.239556
0.236332
12.1917
12.0991
13.2136
12.7785
0.245313
0.230579
0.207423
11.9791
11.5851
12.5298
11.5267
0.199903
0.201863
0.158129
11.3401
9.9903
11.0781
9.00506
0.111933
0.135645
0.128509
9.36996
7.56567
8.41038
8.47917
0.0919116
0.136214
0.124761
7.4638
8.76778
8.58973
8.13093
0.209535
0.287827
0.209106
11.0654
10.9913
10.6156
12.315
0.195166
0.214939
0.227541
11.0351
12.4169
12.6951
13.361
0.22903
0.230653
0.230407
12.8886
13.2987
13.4299
13.3148
0.220117
0.226074
0.191689
13.1717
12.4772
13.0448
11.5945
0.195033
0.180974
0.159298
12.1704
11.0368
11.0108
9.54925
0.135334
0.152044
0.140674
10.4839
8.45005
9.12525
8.26614
0.133396
0.140956
0.144621
8.18719
8.48612
8.12085
7.92935
0.128349
0.14385
0.121271
8.46329
7.7796
7.90277
6.92948
0.212087
0.346045
0.193436
10.5279
12.1107
10.0964
10.7656
0.225663
0.182732
0.155871
12.4374
12.9812
10.6755
10.2734
0.22285
0.156621
0.195168
13.0278
13.0423
10.5163
12.2045
0.19382
0.206348
0.227603
12.9152
11.6822
12.749
13.5502
0.171218
0.232027
0.231568
11.1949
9.93885
13.5442
12.913
0.159746
0.22772
0.207473
9.56601
8.71418
12.5992
11.4644
0.153277
0.200278
0.175404
8.5332
8.38554
11.0708
9.68596
0.122293
0.168454
0.0970882
8.32876
6.95585
9.01602
5.50805
0.198626
0.356082
0.215535
10.325
10.951
10.9096
12.2174
0.147376
0.210618
0.174346
10.7685
9.479
12.2701
10.9095
0.184919
0.136903
0.130311
9.55896
11.7634
10.2258
10.9607
0.236242
0.16251
0.249339
12.6051
13.8876
12.2922
14.3876
0.240318
0.25004
0.247169
13.9593
13.3116
14.2935
13.3066
0.211422
0.238913
0.204478
12.9707
11.6723
12.8416
10.9576
0.175095
0.191256
0.148202
11.1764
9.46049
10.217
7.39283
0.0895567
0.12713
0.0585946
8.54119
5.02276
6.20498
5.4771
15.3056
16.852
14.8851
27.192
27.8192
30.9879
27.9829
14.4414
14.5498
15.9939
25.8212
26.3502
27.4279
27.1494
16.2933
16.5659
17.0304
26.4471
25.6541
26.9844
25.7578
15.995
16.8929
16.1408
25.192
23.723
25.2091
23.3014
14.8921
15.7784
14.3951
23.1512
21.3732
22.5681
20.1079
12.6822
13.7878
11.4602
20.7167
18.4532
19.2004
16.6697
10.0007
10.9016
10.6701
17.6849
16.2762
16.0847
14.7692
10.9972
10.6186
9.69942
16.2154
16.7214
14.3909
13.8039
15.3207
15.6909
16.7161
30.2731
28.4037
28.9925
28.7394
16.574
16.9865
17.4105
28.0248
27.5027
28.5208
27.6617
17.0859
17.4139
17.0885
27.2539
25.862
27.3069
25.9085
15.8362
16.7815
14.442
25.2635
22.9346
24.8803
12.4417
13.7998
13.5383
11.4353
21.992
18.9943
11.0309
9.44516
10.905
10.8723
9.65243
17.9896
15.4923
9.25641
8.80063
10.3822
9.38999
9.04138
14.9252
13.2869
8.80583
9.53693
9.03982
9.05325
7.83266
12.7775
12.3761
9.87649
9.63524
16.3604
14.7611
14.7939
28.2098
28.0571
27.2099
26.1956
16.8827
14.618
14.0283
27.8413
27.0733
25.7956
24.7659
16.7989
14.2328
15.9816
26.8115
25.7668
24.7672
25.6072
14.4581
16.5623
17.1805
25.1737
12.7831
25.8125
23.9523
11.6547
17.0453
15.9952
11.2714
8.84127
23.19
20.9331
10.001
15.5558
14.0878
8.55065
9.07584
20.2812
18.3904
9.71467
13.5823
11.7536
9.39864
10.9432
17.7298
15.1571
7.97082
10.7902
6.99518
11.3075
10.2474
14.0101
11.9034
14.9356
15.6878
16.0503
27.5075
26.0744
27.9376
27.4977
13.0948
16.022
14.2303
25.5429
23.8508
26.9606
24.1665
15.4966
13.4583
14.4605
23.8059
25.3329
23.5054
24.927
17.6949
15.7921
17.8134
25.8393
25.3209
25.6747
25.5897
16.6236
17.662
16.3258
24.7315
22.4502
24.9597
22.546
14.4342
15.7556
13.3454
21.6622
19.1498
21.5856
18.0615
11.4562
12.4264
9.00701
18.233
14.9394
16.8286
13.342
6.61336
7.77138
7.49818
13.6442
12.0479
12.7456
13.7223
31.6693
35.2038
31.842
34.0913
40.2689
44.4992
39.8721
29.6371
31.1292
30.0065
38.6761
35.6523
38.535
35.0351
27.7824
29.5634
27.7364
34.4658
30.9502
33.8888
30.5469
25.3179
27.0407
24.7513
29.9285
27.3697
29.4961
26.3818
22.6404
23.9017
21.1553
26.4971
24.1697
25.3187
22.1639
19.7398
20.2002
17.6617
23.5081
21.6938
21.1921
18.7526
17.7698
17.0453
15.5513
21.1844
20.1959
18.1299
16.7623
17.9473
15.1787
14.7794
20.0796
19.8076
16.5567
16.4815
32.162
32.964
32.0515
43.8425
39.8423
41.7955
38.954
30.2961
31.6549
30.3105
38.5925
35.1595
38.0061
35.1505
27.8637
29.8114
27.8634
34.0277
30.7217
34.1889
30.9302
27.0837
26.3238
27.2175
28.4995
26.0295
27.556
28.5903
19.7168
22.0539
21.1323
23.9685
19.6011
22.7121
21.3959
16.1988
7.18132
8.09535
19.5563
16.99
8.72593
9.9272
13.7851
8.39128
9.61382
16.3374
14.9521
10.2698
11.1665
13.2748
9.99986
10.0755
14.8063
15.2379
11.3975
11.943
31.3435
30.9978
29.5265
40.9658
38.3789
39.8453
37.1261
29.7895
29.0585
27.8463
37.5145
34.9249
36.3632
34.2951
27.7885
27.7391
28.0512
34.071
31.0957
33.7439
32.0972
12.7914
13.7896
26.3682
19.2613
18.4293
3.22802
26.8776
7.8017
6.38319
11.0047
1.98176
10.4005
1.95704
7.81951
8.49702
20.8888
18.9935
8.56828
10.6217
21.3144
19.1815
11.1413
18.3229
15.7504
11.1441
12.2217
18.4873
16.3552
10.6665
14.7144
13.0413
12.3196
12.1438
15.7338
14.6087
29.3808
31.207
30.819
39.9969
37.126
34.9736
38.6866
27.0796
30.1327
27.2339
36.3104
34.1008
37.6115
34.475
27.8911
26.5506
27.7001
33.5907
32.2794
33.7265
32.8054
26.7426
28.1208
27.1615
31.6347
28.2267
32.2212
29.0488
23.3402
26.3714
23.6487
27.021
23.7007
27.8975
24.5428
19.8449
22.6095
18.9605
22.7343
19.9701
23.4513
20.1237
15.6445
17.7573
14.7027
19.0849
16.6412
19.2424
17.4387
13.3438
14.3458
15.1552
16.0575
15.1182
17.3183
17.1678
41.891
46.409
41.1534
39.6016
42.7819
47.5005
40.6827
36.469
39.6109
35.4684
40.8694
35.4433
38.7196
33.3562
31.029
34.1422
30.4336
33.458
28.8982
31.7297
27.5292
27.2563
29.3047
26.0505
27.8428
25.0061
26.3018
22.9112
23.9852
24.9704
21.8316
24.0318
21.8488
21.8682
19.048
21.7061
20.885
18.531
21.4187
20.1878
18.2689
16.5884
20.3273
17.9474
16.759
19.8671
19.1134
16.2694
15.7217
19.8339
16.6041
16.5236
19.0117
18.4898
15.6481
15.508
41.034
43.5984
40.0949
46.7129
40.4047
45.0671
39.6739
35.5473
38.9593
35.5913
38.5262
33.3437
38.0932
33.5849
30.6009
34.4873
31.0052
31.7505
27.5992
32.2279
28.0343
25.5841
28.8645
13.4124
26.3064
22.5655
26.4614
19.9657
20.4429
12.1262
11.1606
21.3613
18.1
18.2239
14.5351
16.8646
11.0182
11.0736
17.1995
15.3326
13.7023
12.2998
15.1182
11.2163
11.7731
15.0338
14.6773
12.2451
12.5925
15.4163
11.9529
12.5057
14.6804
14.812
12.7437
13.233
39.6057
41.8734
38.6457
44.5457
39.4631
44.2375
39.5159
35.4709
37.7466
35.2838
37.9806
33.732
38.2462
34.6427
31.2203
34.5503
32.2435
32.4418
28.3069
33.4268
29.5878
14.0516
31.1841
26.4079
26.7282
19.985
28.1485
23.4966
11.1287
25.0386
21.7602
18.2471
14.6858
22.0789
18.662
11.7392
20.9328
18.6781
13.9228
12.638
17.781
15.7834
12.5465
17.9926
16.085
12.5809
12.7853
15.3655
14.4668
12.5639
15.5697
14.5438
12.8594
13.1361
14.2566
13.9056
38.7144
39.4702
39.5224
44.6639
39.8337
44.7328
41.7787
35.2636
39.1288
35.8513
38.5861
35.043
40.4534
36.4506
32.5185
34.9469
33.2401
33.837
30.0296
35.0779
31.2356
27.8256
32.4123
28.7484
28.6068
24.1516
29.9731
25.4561
23.0994
27.5295
24.0827
22.7786
19.3564
24.1584
20.7639
19.3865
23.0402
19.9482
18.4386
16.3226
19.989
17.6991
16.4516
19.1844
17.6121
15.8393
14.8205
17.2374
16.2528
15.054
17.4913
17.1392
14.6
14.2435
16.1893
15.9859
41.7907
46.2848
39.3239
22.7856
16.3543
20.4917
14.4279
34.0587
37.3062
31.8306
16.5076
9.95762
13.7518
10.9506
27.6637
30.2096
26.0023
10.3199
9.24444
10.4111
8.7951
23.8516
24.7613
21.3746
9.28302
7.48269
8.3137
7.07099
20.9351
20.3699
17.7682
7.52702
7.18743
6.77598
6.2487
19.4537
17.1201
15.8825
7.20519
6.50074
6.1852
6.58699
18.4723
15.6674
15.2732
6.54258
6.34707
6.56187
6.49833
17.863
15.2014
15.0965
6.41536
5.62161
6.44834
6.05917
39.0355
44.1909
38.4305
19.3632
14.0424
20.0672
13.6491
31.8276
36.7909
32.1444
13.545
10.9988
13.4214
11.1577
25.9894
30.7311
26.287
10.3869
8.6421
10.535
8.64318
20.9792
24.7406
19.3622
8.14221
6.85301
8.10365
6.54791
16.8223
17.7441
14.0811
6.53224
5.884
6.12778
5.3288
14.7168
13.2204
12.0723
5.80069
6.29504
5.18291
5.77051
14.3843
12.1355
12.6168
6.539
6.50765
6.31828
6.64088
14.5045
12.7606
13.26
6.47843
6.15684
6.58409
6.14324
38.308
43.7252
38.6906
20.9779
13.8235
21.7616
14.5066
32.3604
37.363
33.5412
13.6096
11.3252
14.3098
11.9685
26.5653
32.2087
27.9566
10.6777
8.74892
11.3215
9.3579
19.3726
26.4159
21.7871
8.16737
6.60165
8.70004
7.05473
14.2052
20.4053
17.1049
6.1927
5.37245
6.65298
5.91444
12.3034
16.2816
14.8172
5.22337
5.76205
5.79108
6.31668
12.7197
14.5643
14.0108
6.297
6.63487
6.61991
6.63833
13.1684
13.8743
13.7647
6.59558
6.26191
6.57187
6.09762
39.1018
45.6903
41.1848
16.9746
14.7741
16.8846
19.4562
34.0319
39.916
35.6721
14.6155
12.1402
17.4997
11.7515
28.4499
34.163
29.8869
11.5521
9.66125
11.1066
11.4036
22.3646
28.5642
23.9665
8.96762
7.26841
10.11
7.6066
17.7373
22.6936
19.4816
6.87856
6.25998
7.31055
7.75577
15.3471
18.7907
16.8506
6.15675
6.70593
7.28379
6.60072
14.3298
16.4821
15.7246
6.68583
6.70209
6.4631
6.89267
14.0582
15.686
15.6879
6.63415
6.32413
6.54211
5.75315
25.2236
25.3777
22.7889
25.2249
24.5023
26.4593
23.2414
22.8709
27.0045
13.6864
20.6198
24.0793
28.1732
4.37888
18.4928
17.7729
8.50784
2.36693
20.3721
15.9842
2.6473
27.7761
29.3423
28.5123
29.7659
28.2861
29.4406
28.1327
25.7463
25.7335
27.2402
23.989
27.0769
23.6133
26.1409
23.209
23.9755
29.5138
13.5992
28.9992
4.35187
25.5829
18.6751
2.39878
18.2878
8.80964
16.0543
2.67528
21.2247
18.2172
20.9269
17.0318
20.2952
18.2148
21.4799
17.0324
12.624
15.8112
5.44805
2.09364
14.2081
14.141
1.89849
11.3272
12.056
5.6221
4.51576
12.8706
11.0665
2.90203
19.9254
24.3885
23.1259
22.0494
23.059
21.6732
20.3132
18.3944
20.5583
21.8356
17.5737
21.772
17.1951
18.8265
12.6231
2.22279
16.1829
6.39085
14.1725
2.10267
14.4909
11.3682
4.82249
12.5648
7.06944
11.2067
2.92757
13.2486
9.17204
9.6041
11.9562
2.33126
13.8934
2.65345
8.16206
24.4019
27.3268
27.1352
29.5742
24.6349
28.6837
28.3035
20.9383
20.0542
25.9971
25.5275
21.7451
19.3133
26.8046
13.4575
23.6221
14.2542
29.0965
3.50865
27.7554
19.8548
9.77276
2.41709
10.0413
13.5104
2.73914
8.77586
15.2552
25.1438
30.6642
30.342
29.6538
29.7005
29.1485
26.8012
21.6074
26.0384
21.6954
27.9297
19.9414
27.4561
23.5419
7.99346
5.77
9.9282
3.47288
10.0075
2.02928
8.54866
17.7807
19.0018
23.1213
24.4858
18.2184
18.364
23.5416
17.4246
17.1958
22.3259
21.9013
17.6735
17.1098
22.7084
8.41045
2.2437
7.28868
12.5939
2.17605
8.46217
12.0465
8.63328
4.19263
7.06454
11.9983
2.33959
9.45109
11.7334
18.2877
24.8808
20.4318
23.988
18.9269
23.8448
19.5249
17.887
22.0948
18.3524
22.9892
17.5782
22.9426
18.8552
1.34619
1.40984
1.17435
7.19293
7.32961
7.67089
7.72104
0.948432
0.983841
0.86539
6.45039
6.24141
6.6699
6.98022
1.03188
0.780773
0.881117
6.79384
7.7799
8.01539
9.05111
0.78996
0.929601
0.83899
7.39725
6.8246
9.29457
9.11296
0.787771
0.760245
0.767904
7.1248
7.65871
9.04117
9.02456
0.659171
0.733011
0.649494
7.37741
7.11784
8.679
8.29509
0.497074
0.525497
0.407688
7.04054
6.64752
7.29731
5.85208
0.311222
0.359427
0.272552
5.87535
6.52525
4.9378
6.34925
1.52227
2.07895
1.26195
8.61416
9.04597
8.33224
9.3492
2.9309
0.526786
0.533406
2.84678
2.85986
2.80423
0.421405
2.47402
0.292142
0.277765
2.59171
2.22962
2.71832
0.237811
3.20766
0.230089
0.206531
2.12424
2.22623
2.90817
0.212388
3.94411
0.271889
0.257315
2.67062
2.70114
3.87455
0.258204
4.05153
0.251138
0.251946
2.79013
2.87247
4.01937
0.244068
3.99882
0.227219
0.228214
3.1217
3.14167
4.03848
0.218086
2.9869
0.155921
0.16508
3.05082
2.87875
3.33986
0.14226
2.61113
0.0964027
0.108919
2.36496
2.50568
2.38581
0.113465
0.412165
0.443409
0.341796
7.29227
9.59306
6.6876
8.44679
1.00617
1.40691
0.864847
7.99687
8.66408
7.65126
8.12088
2.7904
0.276237
0.340762
2.51586
2.87619
2.3606
0.248711
3.9015
0.188176
0.196477
3.36782
3.52431
3.64426
0.196111
4.5249
0.218424
0.217473
4.25433
4.43669
4.42167
0.225038
4.47767
0.226802
0.226545
4.54897
4.49603
4.5419
0.222784
3.99754
0.207301
0.202483
4.31491
4.21019
4.13702
0.193408
3.1518
0.176325
0.169361
3.90306
3.62337
3.52681
0.151371
2.83376
0.123252
0.124338
2.54956
2.62831
2.64142
0.127749
3.21429
0.146788
0.144205
3.19014
3.21924
3.19908
0.14706
0.298026
0.384173
0.245464
5.6088
6.89012
4.82209
5.26064
0.837558
1.77646
0.972827
7.47167
7.74513
7.46432
7.71349
2.73729
0.22036
0.308265
2.15349
2.83579
2.11139
0.222666
3.97817
0.220728
0.207106
4.01976
4.23118
3.77692
0.206993
4.29137
0.226154
0.209693
4.45945
4.49361
4.23559
0.209246
4.27578
0.210134
0.210767
4.36664
4.2155
4.33577
0.209461
4.06483
0.181785
0.197738
3.78387
3.71884
4.08598
0.196679
3.9032
0.162819
0.193619
3.51257
3.4596
3.95742
0.191279
3.65975
0.156504
0.177349
3.39575
3.38911
3.70443
0.173584
3.39277
0.148697
0.159525
3.35865
3.31428
3.49168
0.156539
0.234263
0.299425
0.231967
4.27249
4.64235
3.88781
5.46587
0.964446
1.62289
0.93752
6.9699
7.96234
7.24951
8.59625
2.65851
0.235704
0.325776
2.08329
2.60168
2.14392
0.242501
3.45201
0.169839
0.201651
3.21442
3.06472
3.55695
0.187599
2.74235
0.150228
0.134819
2.89554
3.09626
2.55084
0.140741
4.43694
0.217114
0.200918
4.21168
4.43849
4.1363
0.219287
4.80708
0.24344
0.249797
4.71773
4.72257
4.8026
0.2509
4.46058
0.227503
0.239047
4.54294
4.43226
4.58419
0.229294
3.8653
0.192239
0.201617
4.06649
3.91345
4.02953
0.190585
2.57605
0.153167
0.161854
3.44564
3.01498