/*--------------------------------*- C++ -*----------------------------------*\
  =========                 |
  \\      /  F ield         | OpenFOAM: The Open Source CFD Toolbox
   \\    /   O peration     | Website:  https://openfoam.org
    \\  /    A nd           | Version:  10
     \\/     M anipulation  |
\*---------------------------------------------------------------------------*/
FoamFile
{
    format      ascii;
    class       volScalarField;
    location    "5.9";
    object      omega_0;
}
// * * * * * * * * * * * * * * * * * * * * * * * * * * * * * * * * * * * * * //

dimensions      [0 0 -1 0 0 0 0];

internalField   nonuniform List<scalar> 
12920
(
115.037
100.48
81.135
72.3326
78.3033
83.7836
83.2058
77.8231
69.4426
63.7333
57.6947
52.2146
46.0738
41.1253
37.6266
35.5
34.2827
34.1741
34.5454
34.1694
231.453
225.553
178.497
126.488
93.3039
85.0774
77.8215
71.8895
62.295
55.0822
48.988
45.3293
43.8524
43.8576
44.3426
45.5604
46.1113
46.9788
47.6937
46.9085
576.811
327.537
189.999
132.546
101.674
89.0006
77.2407
69.981
61.2827
55.7358
50.7273
48.0775
45.806
44.7819
43.751
43.1775
42.3475
41.8415
41.3319
40.2889
197.367
185.308
179.179
143.767
112.499
99.5528
86.4294
79.3382
69.3111
61.135
53.0654
48.3522
45.0293
43.1686
41.6041
40.673
39.93
39.6129
39.4527
39.4296
272.664
233.711
171.64
122.177
104.186
94.4638
84.7651
78.6678
68.9935
61.3162
54.66
50.5796
47.7424
45.8904
44.218
43.0543
42.2477
41.6736
41.3689
40.8921
307.407
285.402
238.953
175.06
129.591
100.244
86.1417
76.6421
68.3434
61.7585
57.4001
54.3895
52.8631
51.1736
49.187
46.6887
44.5666
43.1433
42.1104
41.018
346.021
301.165
253.06
188.872
143.691
118.587
101.146
83.0832
74.1713
67.4175
65.0235
62.8432
60.4953
58.3148
56.1963
54.3855
51.4713
47.7597
44.4836
41.8762
211.428
213.683
186.832
162.146
145.849
134.017
203.225
147.007
129.49
117.413
113.685
108.558
104.187
89.146
54.4727
54.8175
53.7679
48.8846
43.5605
40.8886
566.556
330.186
239.73
205.101
158.773
236.728
387.806
263.287
197.618
191.549
188.709
182.273
165.345
122.258
87.5407
55.2142
50.1017
44.8136
41.4722
39.7444
205.791
266.055
237.801
188.636
137.728
183.452
264.184
190.083
186.287
195.05
190.218
179.443
140.23
144.425
84.479
46.892
44.651
41.9201
39.7238
39.1162
350.347
221.237
194.045
157.848
115.466
150.353
203.706
185.283
194.262
190.295
173.431
160.846
157.358
156.052
81.94
42.6003
40.8466
39.5625
39.254
39.98
212.76
186.738
158.093
143.351
114.077
150.599
208.057
169.481
152.596
182.295
198.28
195.257
182.076
165.893
68.704
45.2957
42.6754
41.1033
41.0686
41.9706
305.385
166.657
136.486
123.708
108.422
102.13
153.85
134.821
121.94
129.898
131.16
120.653
104.805
76.7395
45.5591
44.4191
43.1207
42.6235
42.8337
44.0852
277.463
220.156
159.578
125.18
109.181
99.826
92.075
83.1514
79.4864
73.2353
66.3614
57.5715
50.6382
48.5256
47.5874
46.7206
46.3547
46.4515
46.7546
47.6139
150.453
269.867
223.418
159.608
123.536
100.106
84.1767
75.2474
70.2808
64.3431
59.3678
56.0182
53.8442
54.0503
54.4525
54.9247
55.1984
54.9579
54.4085
52.9651
190.626
251.896
222.992
170.271
127.546
101.182
81.2142
74.3214
68.2835
65.1867
61.4698
60.99
60.4334
60.766
60.9953
61.2393
61.4613
61.3432
60.6884
57.8482
334.083
207.057
198.234
152.997
117.492
98.4222
81.8628
77.618
72.544
71.2286
68.2643
67.2889
65.8173
65.2266
64.8911
65.1801
65.5698
65.2065
63.8839
59.8929
458.708
183.767
173.394
140.512
119.884
110.266
96.5229
95.1815
89.4516
88.2206
85.0588
83.9571
81.391
78.7476
75.2472
71.7715
69.5237
66.2923
63.8242
59.3139
247.868
233.6
174.944
143.676
124.523
113.823
99.7588
92.6747
82.9578
76.6507
71.1511
68.6364
67.0523
66.6363
66.1628
65.2754
62.9056
58.8452
55.9631
51.4236
396.923
310.299
195.434
132.799
110.956
101.214
89.8924
80.5576
71.4934
67.4899
64.1949
62.0963
58.0542
53.4296
50.323
48.0252
46.7618
44.1033
42.4235
39.107
46.8099
57.8663
45.2029
41.3508
46.0821
52.4163
52.3039
48.0107
41.8369
37.2774
33.6458
30.5523
27.7666
25.4301
23.528
22.1411
21.5177
21.4053
21.2394
20.473
178.509
160.543
116.096
89.2993
68.3796
59.1859
46.8339
41.6191
36.9657
35.2505
32.4126
29.8205
27.1482
25.2191
23.9798
23.7863
23.7544
23.8614
23.893
23.7659
333.371
184.109
121.925
82.2577
60.2875
50.493
41.9957
37.8588
34.3415
31.6813
28.6523
25.8891
23.5095
22.2115
21.3949
21.0429
20.7509
20.6208
20.6164
20.8326
201.185
161.933
108.538
70.0011
55.8726
50.0447
43.641
39.8738
35.2383
31.2826
27.4646
24.4599
22.4197
21.1576
20.4642
20.0609
19.8788
19.6432
19.5765
19.6843
204.211
130.275
83.5503
68.9649
57.4717
51.6854
45.0995
40.2585
35.5127
31.1669
27.7787
25.1844
23.8643
22.9966
22.7733
22.3795
22.1627
21.7036
21.37
20.8545
242.136
138.345
109.887
94.1856
75.7533
55.9933
45.7236
39.6609
34.4058
30.5975
28.2346
26.6203
26.2837
25.8818
25.9345
25.8005
25.4741
24.4978
23.3143
21.6946
204.567
202.149
170.268
120.363
89.8115
70.9398
57.2628
44.1862
37.5698
32.9931
31.6135
30.9598
30.8588
31.1448
31.7689
32.0372
31.6107
29.6426
26.4711
22.9818
241.655
172.53
122.774
93.5329
77.7769
70.2109
75.6439
62.3617
44.7381
36.8237
34.8851
33.3429
32.9094
32.5276
29.6604
30.523
30.5021
28.912
24.3767
21.3238
312.694
186.497
154.44
120.851
89.6319
82.7999
80.8491
72.7452
45.761
37.372
34.672
33.0109
32.5647
30.2269
25.421
24.9639
24.5022
22.9505
21.0622
20.355
255.384
197.378
134.008
101.164
78.1368
73.0138
67.4687
55.5458
43.1762
38.5185
36.3152
34.991
32.6077
28.4692
27.6025
23.9393
22.3474
21.321
20.671
20.5123
222.517
133.173
107.689
85.4404
69.0618
61.0094
54.834
47.0871
41.8995
37.6325
36.4417
35.0167
33.8037
32.0875
31.1957
22.8777
21.6813
21.2971
21.3063
21.2907
185.414
130.888
107.976
86.4864
71.5019
63.9223
59.1674
52.243
48.3371
39.4973
35.4294
33.9193
33.4033
34.7797
27.1038
20.8701
21.0296
21.5142
21.9938
22.0014
239.066
104.218
93.2103
82.4867
72.0137
63.2017
62.7531
60.2798
53.5622
45.6279
39.6621
38.1354
37.2282
33.481
21.8651
21.2777
21.389
21.9083
22.231
22.5695
168.968
115.947
77.8753
68.1331
60.3173
49.83
47.2679
43.4562
39.6728
37.8788
34.393
31.5666
28.1104
25.7734
24.5727
24.1304
24.1584
24.2985
24.4462
24.6286
179.658
195.298
122.946
76.6474
59.9621
48.2472
41.6687
37.5713
35.097
32.784
30.2497
28.5153
27.3783
26.6763
26.6112
26.7222
26.9783
27.1639
27.4712
27.5213
170.027
156.548
117.822
82.6517
63.0892
51.8549
42.5817
37.4059
34.422
32.1946
30.4174
29.6349
29.1426
29.1734
29.2559
29.3321
29.5024
29.7228
29.907
29.7942
214.533
142.364
100.505
80.4982
61.0458
50.4084
42.4654
38.3244
35.9082
35.1178
34.392
34.3049
34.1219
33.5613
33.0436
32.54
32.4588
32.24
32.0534
31.2584
329.193
115.328
84.2327
76.2549
62.1708
55.5178
48.9698
47.9916
46.6489
47.0445
47.0159
47.1702
46.7267
45.3516
43.4758
40.4282
37.5732
34.7036
33.0799
31.3479
150.364
159.157
96.0552
74.6993
67.1679
62.3102
58.5435
54.9979
51.7757
48.7233
45.7711
43.2419
41.0597
39.11
37.1833
35.4195
33.5694
31.4198
29.328
27.7518
148.249
104.976
73.642
61.0817
58.2973
55.991
50.5172
47.1761
43.6242
41.5308
39.4307
37.7936
36.0076
33.9505
31.6377
29.2403
27.471
25.9097
25.3482
23.8068
43.4168
61.2931
63.9096
62.6394
61.7932
61.3892
58.0747
50.3303
43.5414
38.487
34.7039
31.6788
29.1314
27.0665
25.4208
24.1663
23.3033
22.5917
22.0928
20.6961
154.748
141.068
99.3852
77.7519
58.9636
52.3693
43.019
39.91
34.4748
32.5764
29.1545
27.4621
25.4617
24.7998
24.1906
24.1419
23.9994
23.9707
23.7826
23.3378
430.403
158.719
102.137
65.9902
50.0783
41.7235
35.7806
32.5486
29.1168
27.1475
24.5178
23.0317
21.5565
20.9832
20.472
20.3421
20.1828
20.181
20.203
20.4026
287.301
164.321
95.7687
60.8792
47.6071
40.9033
35.9432
32.4066
28.3956
25.5483
22.8932
21.3287
20.166
19.6092
19.2211
19.0846
18.9902
19.0105
19.0444
19.2177
141.617
121.35
72.3392
52.7978
46.7609
40.3971
36.1118
32.0874
28.3584
25.4778
23.3302
21.961
21.268
20.8542
20.6419
20.4519
20.2656
20.0749
19.9056
19.8164
186.312
119.443
82.7826
64.1347
52.7978
41.4179
35.9814
31.5766
28.1598
25.5726
24.2681
23.3311
23.2739
23.0615
22.9834
22.6234
22.1874
21.5381
20.9338
20.3711
353.498
193.975
115.149
82.4494
62.8225
48.9017
40.7463
33.0575
30.0194
27.258
27.0441
26.7681
27.0567
27.4897
27.5585
27.1166
25.785
24.0383
22.4423
21.2048
193.633
222.08
137.269
81.9421
61.7519
51.737
51.1776
40.0913
33.4883
29.881
28.597
28.1195
27.9813
28.2324
28.084
27.5282
25.7133
23.4817
21.5845
20.7478
258.662
146.405
108.217
80.7578
60.101
53.9629
53.0216
44.0969
34.4023
31.0196
29.3671
28.3293
27.4252
25.9057
25.1458
24.4625
22.928
21.6415
20.8426
20.711
380.976
158.152
99.0702
70.8886
53.6116
48.1636
46.3867
40.3773
35.2116
32.3673
31.2059
30.512
28.8908
27.5447
26.3259
23.8803
22.4604
21.6776
21.2416
20.9856
389.494
126.635
81.5953
61.013
51.0878
45.5717
42.5322
38.5972
35.2772
33.0466
72.2111
59.7813
40.3133
31.0698
27.6037
24.0109
22.7788
22.0716
21.6135
21.177
308.013
123.219
85.5501
65.6645
55.1853
50.3046
48.4446
42.9644
39.3947
34.3357
31.6951
30.0974
28.8226
27.7979
23.0849
21.9342
21.5436
21.4751
21.4385
21.3487
355.385
98.2133
75.5707
63.5769
56.937
49.58
49.1934
47.8588
41.3227
36.7365
32.0992
30.6297
27.7948
23.8729
21.2094
20.9638
21.0295
21.2992
21.5067
21.7683
180.279
107.488
71.5572
54.701
49.707
40.676
39.8139
34.903
32.3765
29.8107
27.3884
25.4137
23.6867
22.7728
22.3402
22.3298
22.4978
22.7925
23.0337
23.2569
182.8
152.711
101.575
60.1388
47.2083
37.7228
35.1017
31.0973
29.1417
27.0069
25.5583
24.67
24.1288
24.0535
24.1347
24.3185
24.6238
24.8694
25.1566
25.296
261.823
156.577
110.714
66.6659
48.8702
39.0988
34.3579
31.0651
29.1028
27.7148
26.639
26.4014
26.2159
26.392
26.5216
26.6581
26.8802
27.0209
27.1742
27.1697
283.078
126.384
87.1639
58.662
48.1278
39.4077
35.5916
33.2406
31.9398
31.5287
30.9145
30.8256
30.4754
30.2692
30.0321
29.7844
29.6991
29.4019
29.2438
28.7203
286.413
108.153
71.7967
58.6296
52.277
46.2527
43.0757
42.5775
41.5154
41.7123
40.8939
40.4785
39.1894
38.0018
36.4616
34.8305
33.3767
31.8206
30.9573
29.731
159.627
142.343
89.7635
63.107
55.901
52.0406
48.2365
47.4828
44.8395
43.9514
41.3704
39.9346
37.8528
36.6603
35.3561
34.3367
33.4275
32.255
31.1046
29.2046
129.803
87.6089
76.6346
65.1046
61.1459
57.7976
53.1467
49.9974
46.4778
44.3116
42.0622
40.2028
38.0914
35.9583
33.8758
31.7396
30.4106
28.786
27.5585
24.4224
28.5563
50.3849
73.3376
75.6377
71.355
65.8042
58.4198
49.414
41.9902
36.8844
33.4679
30.8
28.6002
26.7119
25.22
23.9517
22.8201
21.7331
20.8058
20.2558
190.851
148.358
103.955
75.4405
62.0142
52.7797
46.4681
40.9884
36.1339
33.7663
31.5674
30.747
29.8994
29.8787
29.6226
29.5067
29.1183
28.8796
28.3795
28.16
288.756
130.63
90.5324
59.525
51.4932
40.4546
37.5962
32.4201
30.5411
28.1365
26.9136
25.9379
25.3904
24.9784
24.7646
24.6148
24.5823
24.6244
24.6754
24.9588
216.687
134.256
88.157
58.026
49.0536
39.1853
36.499
31.0706
28.8327
25.9127
24.7923
23.6259
23.2995
22.9639
22.9415
22.9362
23.0215
23.2393
23.3685
23.7303
125.594
118.161
71.3319
52.4812
46.569
38.308
35.9786
30.6736
28.7056
25.8786
25.053
23.9341
23.8525
23.5526
23.5956
23.5418
23.5899
23.6686
23.7412
23.9999
148.576
116.363
73.7663
54.8377
48.5534
38.3685
36.017
30.8478
28.8212
26.1984
25.7794
24.965
25.185
24.998
24.9861
24.715
24.5491
24.4243
24.3246
24.4084
423.148
174.225
90.4088
63.5807
54.9011
42.2291
37.7901
31.69
30.1065
27.6312
28.1265
27.7035
28.3897
28.3424
28.1723
27.3614
26.4742
25.7589
25.2547
25.2011
285.879
167.566
99.9229
67.4919
56.1144
46.4062
43.4002
35.0336
32.2266
29.8584
29.4548
29.4087
29.4975
29.8396
30.1954
28.3927
26.8276
25.8535
25.4101
25.4741
217.248
120.09
88.0345
62.9875
52.4655
46.7656
45.6676
37.6663
33.5202
32.23
31.1907
30.5898
29.7399
29.4275
29.7577
28.5324
26.8414
26.0669
25.7845
25.8384
170.541
130.124
83.8087
58.4968
49.432
43.7593
42.4642
38.409
35.8697
34.0519
33.1692
32.3415
31.4809
30.7925
30.3619
29.0669
27.4704
26.7156
26.2503
25.9659
227.749
120.913
76.7189
55.4761
48.7442
42.7379
40.675
38.5246
36.6277
35.6827
52.9875
43.3138
35.5888
32.7369
31.6446
29.6152
27.8267
26.7973
26.1243
25.7225
176.416
114
79.7422
59.2424
52.3686
46.8853
45.3168
41.3255
38.6863
35.7975
33.6492
31.7185
30.1758
29.2165
28.9502
27.755
26.4616
25.9085
25.6732
25.6146
220.759
108.215
70.6827
58.7485
54.8215
44.731
45.6811
43.0281
37.788
35.0096
31.3851
29.5181
27.2723
26.1119
26.1351
25.5041
25.3375
25.4187
25.5567
25.7969
143.215
111.954
72.1114
53.7474
50.2391
39.471
40.2355
33.0171
31.8802
28.1814
27.2756
25.8031
25.5928
25.3242
25.4204
25.5444
25.9069
26.27
26.6258
26.9248
141.561
135.201
81.0347
54.0844
45.5094
36.6167
36.3014
30.7581
29.6707
27.1104
26.7302
26.0715
26.1822
26.3223
26.6156
26.8982
27.384
27.7649
28.1667
28.4333
200.594
163.753
96.7784
59.7309
47.5063
37.0519
35.4169
30.9144
30.2684
28.4652
28.3632
28.0601
28.3446
28.5025
28.8434
29.056
29.4465
29.6796
30.0134
30.1991
210.427
113.62
77.8786
54.7641
47.3228
38.2689
36.9459
33.5201
33.4722
32.273
32.3731
31.9776
32.0807
31.9681
32.0175
31.9226
31.9724
31.8495
31.874
31.7043
202.555
99.6712
68.9519
57.2005
52.2367
44.4678
44.1723
41.5547
41.7362
40.6846
40.3678
39.5272
38.8528
38.0355
37.3541
36.5302
35.9835
35.0253
34.498
33.5437
340.496
140.395
88.5526
61.377
56.5197
49.1532
48.2916
46.0376
45.1411
44.096
42.8519
42.1405
41.1728
40.9007
40.446
39.9539
39.2974
37.9283
36.5656
34.912
103.76
78.9451
78.4379
65.7127
59.2193
55.0327
51.4197
48.2587
45.6074
43.7184
41.6575
39.5127
37.1583
34.8244
32.9891
31.1563
29.4926
27.0495
25.4417
23.1563
74.0066
89.8446
87.6054
79.5544
72.831
64.9404
54.8787
44.457
36.9446
33.0382
30.1283
27.6865
25.463
23.4145
21.9027
20.9429
20.4143
20.2058
20.1609
20.478
202.835
155.697
125.872
72.1421
79.9807
56.5532
59.0814
43.5533
45.2438
38.5745
40.9416
37.9743
39.1677
37.2301
37.4156
36.2769
36.2133
35.6497
35.3408
35.4917
243.048
155.772
93.3863
71.3101
65.9118
46.6944
48.6051
37.1968
38.9997
33.4685
34.7477
32.1096
32.8003
31.4421
31.7892
31.2122
31.4678
31.3577
31.5079
31.9243
244.064
167.926
105.45
66.5793
60.7273
44.904
45.442
35.7771
36.2749
31.3636
32.005
29.8535
30.4418
29.577
29.9999
29.7354
30.0581
30.1701
30.3351
30.7782
171.406
131.729
84.5613
66.163
57.3637
45.8038
44.2998
35.9062
35.504
31.5192
31.5484
29.8763
30.276
29.6075
30.0107
29.7897
30.119
30.2085
30.4203
30.8287
147.965
122.656
80.8643
63.2886
57.0469
46.1546
44.0451
36.451
34.8407
31.7184
31.4499
30.3378
30.6941
30.3061
30.4947
30.3051
30.4881
30.6498
30.7757
31.134
261.62
192.288
97.9057
65.7121
65.6961
48.3931
42.9897
39.631
35.0686
33.5269
33.0691
32.3824
33.0013
32.3968
32.1832
31.5296
31.3671
31.2812
31.3587
31.7331
228.408
169.134
113.305
68.2513
68.1051
57.6236
45.3111
40.7765
37.6455
35.3386
35.594
35.0621
35.7113
35.2524
34.2027
32.4224
31.7425
31.678
31.7203
32.078
270.465
148.325
89.2419
72.0883
59.7562
54.727
50.4272
42.3782
41.2095
40.0238
39.9798
39.4016
39.1973
38.758
37.4421
33.442
32.1563
31.9219
31.9294
32.1238
205.061
137.221
92.8268
72.2471
59.0422
51.2885
50.1758
46.8988
45.6943
43.8589
42.426
41.6568
41.6237
41.0633
38.319
33.8728
32.6019
32.2752
32.1158
32.0636
259.358
147.09
89.8382
80.4271
56.3514
49.0046
47.4301
47.6722
46.692
44.6612
44.2734
42.3045
42.4997
41.9781
38.8822
34.2091
32.711
32.1519
31.8272
31.6869
302.721
124.821
85.6031
73.0974
58.8246
50.5438
49.8885
48.5341
46.8004
44.3734
42.178
40.6639
40.4873
40.5887
37.9353
33.2704
32.0104
31.6302
31.5302
31.5311
186.528
127.398
77.6466
77.5021
62.0822
51.4406
51.265
44.9068
42.733
38.5165
36.9801
35.1567
35.3624
35.0722
32.7175
31.4868
31.1909
31.2361
31.3264
31.5008
312.059
122.176
77.8794
69.9339
58.5118
49.2059
52.3982
39.1869
38.4879
32.5724
32.6047
30.762
31.2948
30.8123
31.0045
31.0165
31.4234
31.7077
32.0468
32.2809
315.78
143.134
82.4612
68.4295
52.1901
51.9364
43.6253
37.2486
34.651
31.9478
31.6122
30.8563
31.1773
31.0973
31.4135
31.6264
32.1294
32.5292
32.9555
33.2414
344.175
221.839
115.066
71.5267
56.6871
49.1609
43.0337
37.3923
35.5554
33.2618
32.972
32.3395
32.6408
32.5752
32.984
33.1403
33.606
33.9107
34.4063
34.7053
333.546
144.388
84.6373
76.9002
54.5191
51.3245
42.8997
39.5195
37.6303
35.9628
35.9416
35.198
35.5725
35.2095
35.4349
35.2485
35.4068
35.4057
35.7074
35.8395
212.066
132.244
78.7971
80.4551
57.6979
52.3584
49.1594
43.7704
44.3724
41.365
42.1505
40.4212
40.7749
39.6957
39.7007
38.9373
38.7902
38.1195
38.027
37.5454
285.246
139.544
100.972
73.1428
64.8792
53.026
54.297
46.5355
48.7239
44.8136
46.5547
44.7188
45.7022
44.4752
44.534
43.298
42.7594
41.1715
40.5485
39.8121
88.733
74.588
76.361
63.2181
56.5576
51.7563
47.9611
45.1483
42.7343
40.529
37.9631
35.0135
32.3343
29.7838
27.8581
26.0985
24.8967
23.63
22.9483
21.7325
31.3718
34.1912
85.1496
33.0287
32.3638
35.8006
88.5926
30.7487
83.7154
59.0151
32.2721
31.858
84.8689
56.0052
72.5128
33.5395
33.1669
34.9346
77.4377
34.5471
34.4862
64.847
32.8135
31.5264
75.2407
58.4067
34.0743
32.4147
283.085
302.097
212.264
104.935
92.5821
89.6354
74.4073
202.088
194.364
178.659
89.2627
60.9148
68.9706
51.9479
188.668
180.623
192
53.9826
44.5287
48.3342
43.1553
189.042
192.836
192.62
42.7767
40.279
42.3657
40.338
183.512
191.282
184.331
39.5741
37.6949
39.7761
38.7013
172.895
182.602
162.303
37.2956
36.6647
38.5044
38.3586
131.056
148.828
136.796
36.5917
35.6492
37.806
32.0387
115.111
140.032
133.022
34.0527
28.5567
30.6253
28.146
200.727
213.381
185.581
80.5377
67.7091
64.6575
54.6297
183.138
187.32
195.134
63.2855
50.779
52.6961
47.8062
194.936
196.393
196.64
48.0293
43.725
46.3913
42.8839
192.162
194.767
178.715
43.014
41.2344
42.1833
40.6314
182.226
173.316
159.889
40.6921
39.4172
40.1046
38.1857
149.324
155.172
147.447
39.2747
38.4214
37.5672
35.5765
140.193
147.51
150.115
36.9652
31.7642
34.954
33.7125
136.596
150.748
138.72
30.8788
28.8921
33.5223
33.4071
182.867
197.838
167.48
62.5284
53.8362
61.9251
55.1335
193.338
162.628
154.932
52.0598
47.6168
53.6558
49.5893
192.874
156.689
178.53
46.2778
42.7246
48.0108
43.3573
177.579
183.683
191.997
41.8491
40.0438
42.1315
39.4485
163.487
193.306
192.706
39.4119
37.5181
38.7809
37.462
157.926
191.267
183.609
37.0331
35.844
37.1861
36.678
156.738
180.771
169.821
35.5211
34.4638
36.5542
36.7559
140.423
167.024
123.828
34.4181
34.7037
37.3189
38.993
173.444
258.502
201.478
65.4156
58.15
76.9813
68.1898
152.397
201.846
186.857
57.0398
54.696
67.2315
64.9858
173.577
167.281
156.243
52.8978
45.0045
64.5943
56.4663
196.212
174.423
205.977
43.2155
40.0512
52.0489
43.9016
197.3
207.634
201.475
39.3778
38.1159
43.0051
41.2358
185.84
198.944
182.762
37.8375
37.3235
41.1625
40.5173
169.527
177.393
151.925
37.2706
37.7118
40.6052
41.2866
115.984
139.25
88.9478
38.5663
39.5284
41.4342
32.9041
77.1454
73.8437
64.177
58.0737
52.2974
52.41
46.1269
50.7597
59.785
46.2948
48.5711
38.1476
43.9105
37.6118
38.7967
43.3593
38.8302
35.9032
32.3525
36.104
33.3218
35.2396
38.069
36.1782
31.6204
30.2134
32.7351
31.2972
33.3056
35.6644
34.6433
29.7737
28.8298
30.9139
30.0463
32.5969
34.4321
33.858
28.6278
28.0285
29.7779
28.644
31.5805
33.1386
28.9076
27.8482
26.5457
28.0549
26.2192
26.518
27.8561
26.4023
26.0038
24.8649
25.771
24.9214
59.0308
55.8982
49.017
49.5418
44.2547
44.4378
40.6962
45.5197
47.5036
43.2297
42.5047
37.5078
39.7714
36.8824
39.241
41.9039
38.5808
36.1882
33.5599
35.9177
33.4661
36.8054
37.8383
36.9378
32.9648
31.7361
33.5564
49.0434
35.1926
36.6706
35.347
31.4837
30.8613
49.6262
44.9555
33.7986
34.8952
33.5227
30.6333
29.4289
43.1887
39.5835
29.1039
33.159
32.1414
28.8682
27.5884
38.4108
33.852
27.3428
31.701
31.273
27.2942
26.0709
32.1834
29.4755
48.5242
55.2417
50.2259
44.2229
40.6534
46.2611
42.7796
43.1658
48.9766
45.5022
39.733
36.9595
41.819
39.1486
38.559
44.1067
39.6022
36.0242
33.5996
38.1501
34.8542
36.6774
38.3164
35.6785
33.2237
47.5525
33.8665
32.7787
35.347
35.065
33.853
48.5345
48.3482
32.4173
31.3159
34.0771
33.5871
33.0399
47.0939
40.4238
30.9016
29.7095
32.4767
32.9213
33.1305
38.5284
32.5989
29.3913
28.8242
32.2038
33.7095
34.6961
31.0006
29.0832
28.7225
26.7954
53.2934
69.6211
63.6004
50.0349
45.4455
57.3378
53.0314
49.8983
62.7086
60.3929
44.4539
41.8877
52.2578
49.3904
41.3073
59.9486
52.055
40.7376
36.2457
48.2798
41.9664
36.1097
48.2009
40.0838
34.8703
32.3558
39.928
34.4567
34.1773
39.0365
37.3017
31.8077
30.6135
33.5463
31.9811
33.4209
37.178
36.5529
30.2938
29.4529
31.8282
30.7385
33.9614
36.6008
37.0129
29.2801
29.0157
30.5006
28.9676
34.8325
36.7956
28.7712
28.8496
26.0971
27.7711
22.7449
47.7586
48.6342
43.1258
46.6092
40.699
43.528
39.2532
36.1412
41.2974
36.2952
38.1905
34.0073
38.1201
35.3716
31.6195
35.0641
32.6919
33.0916
31.7774
34.6863
33.2276
29.7734
32.1651
30.8599
31.4304
30.5179
32.8269
31.753
28.5261
30.5142
29.6952
30.2399
29.6711
31.4605
30.6717
27.6436
29.4127
28.2612
29.4957
28.7545
30.3712
29.4495
26.2685
27.7527
26.3128
28.5623
28.0626
29.1775
28.5402
25.1785
25.9586
25.134
28.0142
27.9028
28.3711
27.8184
41.8278
42.604
39.4112
42.4695
38.9641
40.4641
38.3625
36.3024
38.5889
36.0121
38.0538
35.6745
37.7982
36.0331
32.9142
35.15
33.1322
35.0285
33.4711
35.4454
34.1447
32.4598
31.9176
32.4317
32.1925
32.3305
31.7944
32.3136
34.4732
31.0612
33.2564
31.2957
33.5193
31.2027
34.0679
29.3561
52.6759
43.0053
31.5578
30.6237
49.3622
39.2616
27.842
40.7111
34.354
30.3567
29.6744
37.3013
33.434
26.204
32.5421
29.6191
29.4195
28.3878
32.6
30.8875
39.4209
44.791
41.5146
40.4662
38.4239
42.7148
40.1818
36.1119
40.6189
38.1388
37.8715
36.1972
39.5372
37.6845
33.3088
37.2425
34.3311
35.6292
34.3207
37.0493
35.0269
67.4409
58.1684
34.0783
40.0216
44.8461
227.602
35.4449
71.6978
71.1721
55.1111
179.135
54.2768
165.45
76.5688
43.4215
30.996
29.4962
51.3676
38.8913
31.7548
30.0715
32.7595
29.0856
28.189
36.6934
32.5319
29.6291
28.6387
29.0636
27.9329
25.9162
31.781
30.6555
28.3876
27.5796
43.9193
54.5577
50.8191
45.5305
41.7997
49.7023
46.3905
40.4437
49.9103
46.6463
41.0605
38.925
45.23
41.5353
35.5463
45.4998
40.0769
38.1624
35.7012
40.4053
37.4549
32.2147
38.4516
33.6728
34.9036
33.2904
36.5245
33.0301
30.4623
32.8115
31.3229
32.7922
31.3785
32.3071
30.9869
29.0772
31.1235
29.7485
30.8973
29.5799
30.5542
28.5951
28.1747
29.3577
27.3945
29.1971
28.194
28.0018
26.4007
25.1762
26.2476
22.351
27.8317
26.852
25.833
24.5528
39.9272
43.2821
39.2908
47.8543
41.5376
47.4219
43.6293
34.2129
38.2942
36.0027
39.9623
38.2817
42.8962
41.6388
32.5494
35.4518
34.2168
38.099
37.5515
41.3925
40.386
31.4036
33.8341
32.7748
37.1275
36.7801
39.9524
38.883
30.7607
32.4814
31.6854
36.8435
36.7129
38.6108
37.9524
29.8907
31.4011
30.6805
36.418
36.0844
37.8046
37.7505
29.4418
30.5006
30.0837
36.0713
35.9753
37.7176
37.4779
29.2743
29.9586
29.4243
35.7825
35.1872
37.3422
36.5161
39.2114
40.6836
38.9138
46.8507
44.0707
44.7825
44.3122
36.4052
38.4398
36.9508
43.4983
42.3331
44.1181
43.359
34.4833
36.4349
35.0665
42.0494
40.7214
42.8799
41.2904
33.3052
35.6864
55.598
40.2462
39.1124
40.8345
42.1642
32.6405
54.8433
45.3473
38.8397
38.1243
42.0097
40.1589
31.6476
42.6755
37.1855
37.9779
38.1509
39.5175
39.2616
30.9962
36.0271
33.7302
38.1704
37.9012
39.3491
39.0306
29.8876
33.2333
31.9313
37.74
36.7553
38.8366
37.6683
38.9765
42.7891
40.5834
44.5851
44.3388
45.988
45.3294
37.1295
40.0385
38.4151
44.1983
43.5316
45.0619
44.0242
35.2402
37.8539
36.0178
43.0592
41.4737
43.619
41.8887
53.6637
35.5214
35.0126
41.0908
42.3967
41.2832
39.8161
46.1852
34.6005
32.9896
42.138
40.1749
39.3362
37.9012
36.8772
32.3753
30.9568
39.4944
39.1175
37.5519
37.424
33.1614
30.6164
29.9488
39.1903
38.956
37.4656
37.5944
31.8738
29.8229
29.4297
38.8139
37.808
37.6111
37.1082
41.985
48.9182
45.9115
47.7258
46.1022
50.6033
47.4637
39.3668
44.6482
40.9566
45.6511
44.1902
45.9463
42.8376
36.5253
39.9717
37.5738
43.7296
41.9158
42.3601
40.834
34.1538
36.7113
33.4085
41.224
39.4277
39.7862
37.1892
32.2045
32.7326
31.5066
38.9226
37.608
36.7642
35.9258
30.5088
31.0045
29.075
37.2738
37.0014
35.2643
34.5355
29.4367
28.5493
27.4345
36.9865
37.0959
34.4385
34.6545
28.7103
27.0575
26.2776
37.0948
36.6204
34.4696
34.048
43.7274
50.7546
46.8305
60.5526
55.315
64.1808
59.1926
41.3445
46.1693
45.2031
54.9931
53.9828
58.7298
57.6011
40.4921
44.9981
43.9456
52.9915
51.7692
57.2897
58.0431
39.9067
43.5034
42.5186
51.8975
51.4452
58.4002
58.2917
39.7585
42.2701
41.6405
51.4207
51.1115
58.1403
57.2478
39.2158
41.4566
41.281
51.0277
50.7145
56.6965
55.0612
39.0138
41.2184
40.8799
50.7661
50.621
54.8837
54.4538
37.8452
40.7233
39.5179
50.6216
48.3509
54.3884
51.9409
47.426
47.7241
47.7551
63.5542
59.8776
61.5257
60.242
45.9451
47.6298
47.0321
59.3848
58.1701
59.9771
59.4028
44.3411
46.5511
45.0042
58.169
59.929
60.2127
63.6177
42.7111
44.4434
44.3507
60.4236
60.4739
64.2959
65.4706
41.7604
44.1321
42.6728
60.3725
59.3821
65.6999
64.8886
41.6458
42.3491
42.5569
58.63
56.1696
63.4205
59.0581
41.2443
42.6373
42.2035
55.7587
55.0792
58.0442
56.5782
39.7051
41.9744
40.3351
54.9416
52.153
56.2394
52.8153
47.7446
48.4509
48.432
61.7563
60.1802
60.2843
60.2766
47.166
48.2079
47.2788
59.971
59.4694
59.9245
58.6522
45.1684
46.9181
45.2502
60.3109
63.7796
58.8092
60.933
44.599
44.6424
43.081
64.466
65.7183
61.1862
60.9988
42.6628
42.6012
41.2944
65.8872
64.9559
60.7093
59.6758
42.4321
41.0616
40.9359
63.4182
58.9217
58.6459
56.1787
42.1644
40.9942
41.071
57.921
56.5876
55.8063
55.5826
40.467
41.0468
39.9976
56.288
52.9063
55.4176
52.4777
48.9791
52.6152
49.4374
60.0875
60.504
65.4256
61.8897
47.1896
47.6777
44.8451
59.9007
58.2297
58.541
54.9214
45.0774
44.598
43.134
58.0681
59.1871
55.5404
55.6714
42.6527
41.906
39.6698
59.0628
58.5492
52.9369
51.6725
40.9773
39.3519
38.6325
58.2437
57.5884
51.5241
53.0756
40.4606
37.9723
37.6946
56.7701
55.3184
51.6543
52.1331
40.6137
37.7014
38.0403
55.1991
55.2467
51.7953
52.8592
39.6161
37.8147
37.0011
55.0829
52.2845
51.8138
48.9856
32.9083
31.5794
32.896
31.3984
32.5029
31.5279
33.5406
38.2706
32.7519
58.8404
38.8898
34.768
32.9778
172.185
43.2939
39.8432
79.4768
198.865
37.8924
45.6645
217.624
32.802
32.4129
32.6712
33.1987
32.0486
32.5742
33.302
33.3725
31.7398
32.4583
34.4528
31.8286
34.112
33.768
39.1491
40.1091
33.8142
66.1641
33.3494
177.336
36.6508
44.5582
203.28
43.111
86.6364
47.188
221.903
40.6776
34.7025
30.9041
33.5792
30.9478
33.639
31.0921
34.5779
47.9437
40.9866
80.7889
184.012
41.7862
46.9918
169.491
48.1245
41.3378
71.6192
77.9703
41.9983
45.5999
114.732
35.1244
31.6624
32.1739
34.9458
31.5862
34.6889
35.2816
35.3318
31.3265
32.0422
35.1347
31.4835
35.132
35.3455
49.5201
188.381
44.343
80.3274
48.5792
174.736
45.0032
49.5057
77.557
43.4308
68.042
46.4689
119.902
44.7335
80.3978
70.17
55.2804
193.76
52.8624
209.9
80.155
37.6883
33.4724
33.3366
33.5746
35.3626
33.7938
33.6739
40.9474
38.3346
33.333
33.7546
37.6166
41.4978
33.8721
67.9085
41.3825
65.0906
35.6751
222.422
36.0779
48.4028
80.1863
199.641
77.6252
56.5882
215.636
79.2751
55.8902
38.2976
33.9134
34.7621
34.5768
34.2308
34.0885
37.1934
41.4321
34.1788
39.6839
34.6674
41.7957
34.3135
39.3812
66.7083
71.2676
50.7059
97.2605
53.2316
150.153
59.0001
39.9379
38.1853
32.4148
33.372
37.6879
40.9995
32.8982
38.6415
36.0943
31.9619
31.8246
36.9302
37.2821
32.3535
70.2062
185.506
72.2912
55.2668
171.967
75.135
53.1512
64.6035
88.8379
68.5489
46.8233
149.584
55.8615
50.8213
40.0177
33.7706
39.2475
33.5806
41.1779
33.2647
38.3881
38.6132
32.0909
36.0957
33.0049
37.092
32.6765
37.3234
173.353
207.651
178.907
117.682
106.729
116.766
110.764
141.519
148.701
132.849
88.7347
74.4706
97.6553
73.9493
120.003
123.685
118.765
66.3202
56.1292
61.3617
53.6537
116.702
116.49
115.052
53.4372
53.1014
48.7488
47.2265
110.01
112.741
110.968
51.1356
47.2523
45.8488
44.2048
107.418
108.875
106.234
46.9491
46.6486
43.5817
43.1135
94.6049
99.6408
87.5942
45.142
42.6339
43.0027
42.8619
77.7732
82.058
70.9847
42.0804
38.6105
42.3876
34.5063
226.067
220.425
196.113
128.804
115.076
125.565
103.387
174.257
339.771
356.137
202.618
184.901
197.472
308.817
116.996
236.016
226.976
136.459
132.837
126.646
206.166
82.9854
188.707
178.648
108.169
102.402
88.8693
178.128
72.5972
190.637
184.705
89.4064
87.8325
73.6147
185.616
68.8179
186.836
185.36
83.1641
80.8721
69.841
184.828
65.129
180.522
181.206
74.3774
72.7285
65.9744
179.938
63.0148
155.582
161.367
66.2416
64.373
63.1845
151.086
54.0059
119.207
128.082
56.3428
52.1438
59.1593
128.594
83.6623
87.7387
76.687
31.317
27.2635
31.6653
26.848
162.095
167.678
145.545
106.12
86.9485
93.7324
77.9172
117.698
236.275
240.192
148.643
129.351
140.441
214.015
82.9533
184.026
188.409
93.9556
86.8941
87.8911
187.348
75.5551
190.598
192.655
76.1996
74.8637
76.67
195.306
73.248
194.591
196.634
73.4253
73.0512
73.8012
195.146
70.5693
187.2
186.711
70.8632
70.0905
71.5286
182.377
68.7602
173.791
170.374
68.2246
68.4888
68.709
160.14
57.5316
137.491
138.972
66.1757
61.3002
61.9772
138.98
52.588
146.034
146.629
52.5177
51.8847
53.0215
147.911
72.3159
84.9587
66.6399
33.022
28.8845
36.072
31.3173
134.666
147.043
132.154
83.8911
73.269
80.738
71.7842
96.65
187.43
199.158
117.474
98.2283
115.054
183.634
76.7904
188.732
178.449
80.054
78.1982
78.9485
181.334
71.9367
194.455
186.208
75.1862
73.963
72.9339
186.647
69.8322
186.579
186.776
71.4123
71.1175
70.218
185.445
65.5598
169.869
177.47
68.3991
66.5853
66.6971
176.324
62.3385
159.28
174.277
62.2165
61.2024
63.0136
173.299
60.29
157.107
168.367
58.4488
57.7071
60.9328
166.956
59.9744
155.42
162.005
56.963
57.2378
59.6883
160.208
65.1211
73.9101
63.2074
40.1361
33.8553
41.5689
29.8902
138.445
155.96
150.56
87.2078
76.1772
93.9827
84.3449
109.36
187.175
220.094
120.336
100.678
124.998
202.958
89.7522
162.601
189.603
83.6586
82.8219
90.2519
185.02
81.3537
154.942
154.43
75.9446
72.808
86.5719
155.015
71.5057
188.356
182.173
69.9237
70.0147
71.4765
190.332
71.3644
198.733
202.215
70.1656
69.9381
71.6192
202.478
69.1496
192.158
197.107
68.6433
68.1094
69.796
193.455
66.2488
177.427
181.687
66.3939
65.6028
67.188
176.505
67.7902
157.556
162.182
64.7902
66.0767
66.1862
148.103
66.0097
67.6555
67.9935
37.8113
26.4246
33.7025
25.1657
141.948
155.981
135.534
88.2256
78.7872
88.1632
75.4808
127.576
131.4
129.636
73.1316
68.4116
69.916
62.0032
122.896
121.992
119.339
65.5583
62.2621
57.7482
55.5738
132.405
122.544
122.023
58.746
55.7078
55.8185
53.5926
127.072
119.027
113.093
53.2537
51.9614
51.1593
49.395
114.647
107.604
96.7939
50.6973
50.0115
49.371
47.985