/*--------------------------------*- C++ -*----------------------------------*\
  =========                 |
  \\      /  F ield         | OpenFOAM: The Open Source CFD Toolbox
   \\    /   O peration     | Website:  https://openfoam.org
    \\  /    A nd           | Version:  10
     \\/     M anipulation  |
\*---------------------------------------------------------------------------*/
FoamFile
{
    format      ascii;
    class       volVectorField;
    location    "5.9";
    object      U;
}
// * * * * * * * * * * * * * * * * * * * * * * * * * * * * * * * * * * * * * //

dimensions      [0 1 -1 0 0 0 0];

internalField   nonuniform List<vector> 
12920
(
(66.0868 -235.974 -168.802)
(56.5745 -81.296 -26.3689)
(232.769 -79.3045 -11.7025)
(162.848 -53.2227 2.18306)
(171.576 -14.0589 3.30681)
(128.071 -4.89607 -1.10139)
(135.792 1.09955 -2.68612)
(122.182 3.7352 -3.41545)
(127.153 7.20764 -3.21616)
(118.998 8.62742 -2.97336)
(119.198 9.65783 -2.25395)
(111.833 9.62767 -1.99493)
(110.905 8.17861 -1.1246)
(104.752 6.53043 -0.84856)
(104.437 3.25506 0.142937)
(99.9698 -0.647509 0.602377)
(100.343 -2.09124 0.462832)
(99.1576 -4.59053 0.366331)
(102.398 -6.76569 -0.396814)
(114.161 -5.37259 -0.073573)
(135.556 -135.755 -72.2351)
(76.9311 -43.9213 -22.4696)
(172.051 11.2368 -17.2242)
(115.655 15.6179 -8.1821)
(146.081 30.8385 1.35123)
(102.577 18.228 1.65147)
(110.478 25.6952 1.79655)
(87.074 18.3027 -0.067704)
(96.3083 20.3123 0.365561)
(84.0855 13.9383 0.596332)
(86.976 11.2322 1.43099)
(77.2901 6.02537 1.49808)
(77.4492 3.32945 1.54118)
(71.0826 0.938485 1.06819)
(71.6926 0.675433 0.396937)
(69.0024 0.455647 -0.421669)
(69.8599 0.702317 -0.781008)
(69.2891 0.588055 -1.14047)
(70.9492 1.493 -1.8486)
(78.6977 1.9274 -1.39056)
(250.382 69.62 -153.049)
(-14.2922 -28.8938 -0.00375575)
(179.797 -38.2188 -1.30988)
(48.9162 -24.3194 1.61284)
(121.938 6.91565 2.56825)
(60.9491 10.2246 0.554351)
(95.0827 18.4024 1.13989)
(64.0002 15.5448 0.270338)
(81.8849 13.2502 0.780722)
(65.6531 11.2751 0.498037)
(73.2762 8.54888 0.771949)
(62.6452 8.27289 0.438077)
(65.4768 6.53275 0.306542)
(59.2105 6.24556 -0.082542)
(61.2907 4.73398 -0.159729)
(59.0504 3.73239 -0.269426)
(60.9617 2.80201 -0.2289)
(60.4938 1.53912 -0.234827)
(62.536 1.02711 -0.047575)
(68.6969 1.05651 0.604384)
(231.511 21.6126 -147.963)
(116.279 38.4072 -3.24454)
(171.858 -3.06596 13.4754)
(59.917 21.9072 0.337892)
(113.064 25.4364 2.15427)
(57.6644 25.7818 -0.10982)
(90.479 25.0391 0.529897)
(61.7955 22.05 -0.427766)
(78.3271 17.7335 0.0217079)
(61.6653 15.3047 -0.161221)
(67.2141 11.3897 0.387072)
(56.2934 9.77038 0.257913)
(59.0201 6.53641 0.286449)
(53.9078 5.20184 0.136699)
(56.2218 2.79333 0.118161)
(54.4898 1.95099 0.121372)
(56.2866 0.649399 0.153209)
(55.9418 -0.065903 0.120018)
(57.278 -0.714126 0.202104)
(62.406 -1.04593 0.605224)
(131.668 12.2251 -28.2419)
(-11.6094 41.713 -8.76364)
(134.347 18.6617 -1.75585)
(10.4062 18.065 3.04306)
(104.426 12.1784 3.32671)
(40.2309 21.9554 1.84297)
(87.8977 17.1926 1.28603)
(55.4025 25.2375 0.0133288)
(76.6553 16.6553 0.442987)
(58.2453 21.2978 0.059152)
(66.6244 13.4899 0.308631)
(56.2862 14.7475 0.054122)
(60.9278 8.30942 0.0433391)
(56.3704 7.93729 -0.0372674)
(59.8545 3.84958 0.114967)
(58.5324 2.63699 0.116928)
(60.7757 0.0880362 0.208777)
(59.9062 -1.06877 0.246605)
(61.1124 -2.22855 0.272438)
(65.5675 -2.13822 0.594513)
(122.217 243.954 84.4821)
(37.5442 112.285 -19.208)
(149.013 69.689 -11.2453)
(84.9235 20.3783 0.839669)
(114.94 -1.27199 8.52097)
(44.5716 21.4994 2.90831)
(84.015 10.098 2.19195)
(51.8029 25.3915 0.878956)
(69.0307 16.1284 0.507341)
(55.5453 21.854 0.178741)
(62.2504 13.7387 0.0823921)
(57.0446 13.9562 -0.149916)
(61.3379 7.28376 -0.307874)
(60.8424 5.48098 -0.532618)
(65.3359 0.477097 -0.321374)
(66.3814 -0.291712 -0.0355989)
(67.7915 -2.537 0.314903)
(66.6509 -2.76841 0.562058)
(66.1414 -3.59952 0.633779)
(68.5925 -3.17257 0.753977)
(92.2042 164.318 -62.9907)
(113.592 108.326 -16.3941)
(225.844 63.0272 11.664)
(138.613 28.3473 5.30127)
(147.981 15.9416 7.59745)
(88.8494 27.9419 3.32644)
(98.7344 3.14623 3.47328)
(62.2111 32.2733 2.10351)
(71.5893 12.8911 1.12611)
(58.0614 27.0856 0.353601)
(65.7761 13.0529 -0.255439)
(62.7062 16.4124 -0.447626)
(68.702 6.24797 -0.430734)
(71.5862 5.50401 -0.516334)
(79.301 -0.609783 -0.171585)
(81.6556 -0.82526 0.181129)
(82.4193 -2.75728 0.281514)
(79.6613 -3.19609 0.643293)
(74.4908 -2.97543 1.02712)
(73.0596 -2.50028 0.872243)
(130.496 120.49 96.7724)
(113.435 88.259 21.0036)
(176.803 79.7031 19.037)
(119.844 36.5294 4.66673)
(148.349 24.36 0.0143842)
(105.488 45.9264 -3.1037)
(113.063 26.8494 -1.47049)
(76.5627 21.0081 1.3745)
(69.5866 23.5294 0.251859)
(55.0693 15.8932 -0.532645)
(63.0322 15.7027 -0.760346)
(62.7974 8.8216 -0.741378)
(71.525 5.17901 -0.901365)
(74.6784 -5.10349 0.114764)
(76.8418 -8.70097 0.188832)
(80.5059 -5.5802 -0.373562)
(81.3665 -2.62016 -0.369007)
(76.9769 1.02179 0.464463)
(69.2835 2.429 0.868605)
(69.6431 -0.0212462 0.552458)
(447.804 139.065 -405.858)
(50.7633 4.38319 -17.6578)
(195.755 15.7437 -0.113382)
(117.536 26.3462 -0.550446)
(141.828 33.2818 6.16272)
(88.562 47.4049 -2.0685)
(105.585 41.5055 2.59254)
(84.3113 34.8216 -0.211099)
(68.6466 32.9717 0.449839)
(58.6098 20.3319 -0.320077)
(62.6194 16.5777 -0.560345)
(66.6504 8.27052 -0.687809)
(75.7929 0.840327 -0.612834)
(75.7018 -7.42505 0.299626)
(67.8382 -12.9741 0.547414)
(67.2502 -3.82286 -0.788956)
(66.345 2.26727 -0.679199)
(63.3696 5.27379 -0.290855)
(62.4704 4.85701 -0.158003)
(67.1747 0.672211 0.256183)
(187.568 -126.266 39.1543)
(128.263 -1.66502 -7.23772)
(165.276 45.6596 -6.73615)
(102.435 57.8334 -3.65778)
(121.377 68.6305 5.50999)
(62.4843 53.7297 -0.658902)
(75.446 57.3299 0.669125)
(73.6027 51.8025 -0.344761)
(74.6091 37.6589 0.0541221)
(79.2997 25.5494 -0.00257864)
(82.4175 19.4362 -0.180467)
(85.5854 12.4337 -0.204015)
(80.8403 4.20143 0.612681)
(72.0815 3.1959 -0.253422)
(72.2043 -6.87261 -0.363339)
(67.185 0.41149 -0.219545)
(64.5395 4.41779 -0.15391)
(63.0652 6.12304 -0.200139)
(63.6005 4.91497 -0.337288)
(68.9354 0.0924868 0.207626)
(78.0915 -112.93 -250.919)
(-160.571 18.2468 -0.431005)
(99.8618 69.1277 -8.33007)
(-16.305 64.3097 2.63286)
(74.4991 66.1698 4.63143)
(9.82555 60.9511 -1.62379)
(44.7873 52.399 0.418807)
(64.0186 41.5178 -0.0111714)
(77.0266 29.2143 0.0260818)
(79.8633 21.8062 0.0532613)
(78.3188 15.5715 0.317543)
(76.1591 10.1732 0.0958528)
(76.7214 7.28872 -0.153445)
(79.7714 6.44916 -0.320776)
(77.8563 -4.74285 0.749127)
(66.5722 4.0003 -0.161191)
(65.4433 7.47621 -0.205988)
(64.5068 7.2904 -0.269136)
(65.2679 5.72748 -0.108928)
(68.9242 0.412876 0.373157)
(12.4463 -199.082 -79.7862)
(-47.4136 -64.4434 -16.6213)
(97.1693 -8.31243 -4.67755)
(19.0796 50.3622 -0.179144)
(86.2397 61.9236 3.87308)
(25.2612 40.4314 0.25054)
(58.0325 28.329 0.369531)
(68.1518 24.8506 0.0754902)
(73.7814 19.5095 0.258745)
(76.7033 20.2849 -0.00338683)
(78.4185 17.5943 -0.275236)
(79.8509 12.7726 -0.377134)
(81.666 10.1267 -0.235907)
(82.5455 7.19744 -0.0232239)
(66.7139 -0.996698 1.05813)
(58.4109 7.40899 -0.336943)
(60.1944 7.67854 -0.169078)
(60.699 7.49427 0.0295438)
(62.4544 5.40184 0.401743)
(66.8213 0.582554 0.636256)
(9.7716 -39.3884 -110.75)
(-117.483 -16.3916 -5.45939)
(90.6531 22.201 -1.69713)
(-5.27875 45.8716 3.39645)
(93.8763 55.2965 2.99477)
(40.5508 -13.2871 2.18099)
(87.4241 24.11 -0.265225)
(73.094 13.053 -0.445531)
(91.8238 24.023 0.128509)
(78.672 23.9054 0.0428969)
(83.1873 20.2554 0.000286126)
(77.5269 13.6455 -0.08273)
(80.2958 9.65071 0.301618)
(69.5088 4.74317 1.38025)
(52.2506 7.5903 0.539891)
(53.4429 5.91213 0.179384)
(54.1441 4.95706 0.0392082)
(56.3629 3.56204 0.274381)
(58.0881 1.74799 0.417196)
(64.2393 -1.82685 0.611418)
(-87.3584 -5.666 -122.066)
(-137.747 -81.1422 -23.6484)
(86.4639 -40.8163 -12.8997)
(-24.239 -5.00579 4.01242)
(95.6419 5.73328 0.593444)
(24.3345 -5.58598 0.409828)
(74.5257 45.3709 -1.06481)
(36.5423 -3.98569 0.0968093)
(63.7029 34.9152 -0.479088)
(49.0348 8.02112 0.429126)
(64.361 21.8177 0.299177)
(55.126 7.20444 0.548487)
(59.432 13.4508 0.804535)
(53.9849 5.91261 0.637176)
(56.5013 7.64062 0.482914)
(55.4482 4.16591 0.306624)
(58.4029 3.06524 0.398364)
(59.1549 0.995869 0.411627)
(61.7738 -0.737461 0.442238)
(68.2908 -3.56542 0.618861)
(119.211 5.23137 77.3866)
(-71.4697 -40.9534 -1.54598)
(121.804 21.2198 -24.5227)
(9.77596 5.79273 -4.96223)
(98.4684 15.7513 -3.09291)
(10.6419 -1.06943 -1.69774)
(76.4454 22.6771 -0.996728)
(30.7914 4.27656 0.547762)
(60.6822 20.8283 -0.39569)
(42.6553 9.13051 0.546695)
(56.5704 15.1784 0.293398)
(48.7528 8.02562 0.333208)
(56.0891 10.1005 0.334426)
(53.598 5.70906 0.133989)
(58.5223 4.2028 -0.104189)
(59.6126 1.05199 -0.256597)
(63.2253 -1.55692 -0.330518)
(64.9421 -3.23235 -0.144432)
(67.5064 -5.29597 0.114549)
(74.644 -6.42159 0.542972)
(230.934 -104.945 -30.0569)
(14.8246 -54.053 20.0772)
(146.46 50.7319 -12.7392)
(38.4174 17.2863 -1.81984)
(109.888 33.3816 0.432555)
(35.9669 11.718 -0.864765)
(81.07 30.3339 1.30965)
(34.4867 8.19256 0.0209312)
(66.4537 23.7492 0.463189)
(41.5133 8.02917 -0.00972795)
(61.0662 14.5483 0.152853)
(49.8007 5.16873 -0.153692)
(60.6208 7.06651 -0.0559939)
(57.1003 1.92772 -0.401276)
(63.5739 2.13036 -0.439479)
(63.284 -0.276974 -0.593176)
(67.86 -1.44137 -0.803191)
(69.4596 -3.58667 -0.785061)
(73.3389 -6.68604 -0.365886)
(81.2011 -7.76857 0.336382)
(559.368 -283.44 -364.034)
(-56.297 15.5528 -2.77542)
(196.894 61.1644 -4.49883)
(19.7366 33.8264 5.64563)
(118.042 41.6262 2.78124)
(26.2608 16.2536 -0.0222471)
(84.7233 27.8109 0.936216)
(32.5906 14.4141 -0.751055)
(69.1052 16.2013 -0.633747)
(45.4649 10.5889 -0.917232)
(66.6368 9.13959 -0.556077)
(58.5309 6.61532 -0.282778)
(70.3252 4.95682 0.227966)
(68.0938 3.14668 0.104406)
(74.2784 1.02103 0.154242)
(73.4826 -0.636409 -0.443031)
(76.7632 -3.77765 -0.928361)
(78.1566 -5.70716 -1.15942)
(81.627 -10.077 -0.683968)
(88.0631 -10.0635 0.10217)
(-20.1895 220.533 -128.701)
(-196.164 64.0182 3.08452)
(109.339 5.62741 -7.52505)
(-17.3362 19.8877 7.11047)
(112.611 30.4625 0.328858)
(36.3916 25.0659 -0.527789)
(98.1179 29.372 -0.0404064)
(63.8161 22.4282 -1.94081)
(97.8663 19.4677 -1.29193)
(87.7097 12.3443 -1.88118)
(107.835 7.09606 -1.02915)
(104.983 0.719672 -0.893582)
(114.245 -2.23473 -0.198589)
(111.046 -3.65801 -0.141199)
(111.71 -2.93733 0.3927)
(105.672 -0.645923 0.321698)
(102.018 -1.09931 0.274729)
(94.6973 -2.48824 -0.259474)
(93.528 -7.25301 -0.476291)
(96.5756 -8.18924 -0.0916517)
(107.721 -170.452 -19.8835)
(14.9861 -152.063 -50.5606)
(128.091 -48.7729 -13.2065)
(42.5704 -18.8224 -1.75826)
(121.736 4.99674 2.14799)
(69.4528 17.1589 0.690155)
(115.599 17.2006 2.08322)
(91.7277 14.9453 1.49535)
(115.254 8.04514 2.66518)
(103.399 4.67758 2.16054)
(114.067 0.94326 2.57047)
(105.771 1.39638 1.77663)
(109.269 2.00807 1.7859)
(103.754 4.60624 1.20171)
(105.261 5.71385 0.844138)
(102.858 7.17552 0.279065)
(102.263 6.91198 0.0839873)
(97.2967 5.10106 -0.0377199)
(96.4003 -2.34801 -1.30243)
(100.569 -5.42587 -1.25991)
(509.352 358.622 -224.854)
(396.462 269.334 -54.7494)
(330.525 62.4383 29.8596)
(135.733 7.82497 24.597)
(151.653 14.1885 14.4215)
(93.9344 11.6801 4.37419)
(132.955 10.0796 3.06528)
(113.288 5.94221 0.855276)
(133.814 1.77027 0.434757)
(124.165 -1.39971 -0.920869)
(133.423 -4.41535 -0.945949)
(126.855 -6.1481 -1.47412)
(130.219 -7.35273 -1.07207)
(125.622 -7.25016 -0.863075)
(126.227 -5.40123 0.312501)
(121.226 0.141043 1.4989)
(121.349 5.05422 1.88108)
(119.988 6.65134 1.56273)
(122.305 6.62402 0.728502)
(126.983 3.69628 0.419711)
(107.408 25.6307 99.811)
(92.1536 -12.1225 -18.8278)
(208.108 -32.3589 18.4031)
(160.587 -22.0135 17.7124)
(182.406 -9.81957 15.0522)
(145.998 -7.02218 3.72532)
(147.119 -1.58043 -1.68562)
(128.865 -0.121207 -4.8657)
(130.622 2.65629 -4.73168)
(120.509 3.35638 -4.42875)
(118.937 3.75017 -2.26979)
(108.83 3.05215 -1.71049)
(106.827 1.97273 -0.0698717)
(100.312 0.772325 0.0202573)
(100.09 0.161977 0.624317)
(98.1205 -0.348953 0.822623)
(98.4931 -0.705473 0.601882)
(98.6151 -1.65575 0.312687)
(101.267 -0.802263 -0.527403)
(107.063 0.835984 0.113649)
(192.128 -128.117 -74.8267)
(114.048 -58.2281 -15.5849)
(168.015 6.90007 -2.7925)
(87.5245 13.0742 -5.69343)
(126.475 30.3298 4.5751)
(79.2909 14.7239 0.971036)
(98.4976 22.4818 1.6749)
(74.7655 13.217 -1.48321)
(86.7656 15.1207 0.351019)
(73.3598 8.87287 0.93149)
(78.1128 7.64492 2.69138)
(68.9363 3.7997 2.3627)
(70.8764 3.25998 2.15426)
(65.7097 1.92041 1.05119)
(67.0701 2.13575 0.151663)
(64.5135 1.76294 -0.897249)
(65.2533 1.71369 -1.34042)
(63.9942 1.31871 -1.84038)
(65.2231 1.62839 -2.42617)
(70.4297 1.35412 -1.17491)
(87.708 59.7688 -128.474)
(-78.7126 -29.5668 -5.07595)
(146.74 -15.8411 -8.79257)
(15.9037 -8.53805 2.84412)
(107.91 15.6685 3.3187)
(40.8183 12.3029 0.332049)
(84.5362 16.6068 1.71645)
(50.4511 13.017 0.0431339)
(72.2684 10.9139 1.4004)
(53.8237 10.1055 0.866636)
(63.5809 7.81733 1.39297)
(52.5924 7.83363 0.621881)
(57.2097 5.83284 0.407055)
(51.3346 5.38116 -0.240259)
(54.1717 3.7232 -0.319472)
(51.8111 2.83122 -0.44397)
(53.7829 1.79196 -0.389281)
(52.9167 0.844793 -0.398838)
(54.6689 0.411459 0.0654935)
(59.7975 0.35358 1.42206)
(148.886 21.1061 -100.89)
(12.7427 19.0248 -14.1422)
(149.952 -12.2103 -2.35969)
(25.5894 21.1619 -5.82222)
(100.973 24.0987 -0.392342)
(36.8776 23.0832 -0.678067)
(78.4534 21.0309 0.787028)
(44.5966 18.6461 -0.767116)
(65.4594 14.6679 0.465859)
(46.5383 13.4762 -0.0311255)
(56.2132 9.89267 0.6826)
(46.1086 8.98517 0.472775)
(51.3196 6.00069 0.344847)
(46.7417 5.09252 0.184298)
(49.8055 2.82059 0.0680705)
(48.0229 2.10326 0.136317)
(49.9346 0.811199 0.171556)
(49.2977 0.206573 0.145277)
(50.6481 -0.549192 0.449906)
(55.1385 -0.869189 1.63368)
(24.7045 16.1025 -74.9105)
(-79.5744 68.154 -39.5461)
(105.8 28.3761 -15.3597)
(-18.4036 26.2694 2.455)
(95.1983 17.5343 1.69425)
(22.4698 22.649 3.08755)
(77.9102 13.6695 2.01018)
(39.0505 22.4211 0.17989)
(64.8624 12.0256 0.859341)
(43.9157 18.1566 0.138966)
(55.6335 9.76416 0.388976)
(45.0508 12.4007 0.154406)
(51.4382 6.0265 0.00680905)
(46.7993 6.57198 -0.0265856)
(50.6773 2.80151 0.0943134)
(49.1813 2.31253 0.221202)
(51.3352 0.129582 0.315306)
(50.3683 -0.624588 0.434071)
(51.7982 -1.83994 0.680959)
(55.9734 -1.90818 1.69917)
(58.9871 67.9873 -77.0758)
(-33.4013 57.2069 -31.9415)
(107.6 48.385 -21.9798)
(18.4773 19.7728 -0.131641)
(96.3403 6.39916 9.04022)
(21.2935 28.2426 3.24495)
(74.4691 10.095 2.66054)
(38.2409 25.059 1.19703)
(59.0477 13.1624 0.606849)
(43.8795 19.7135 0.341328)
(52.2841 10.7143 0.0187339)
(46.6377 12.0418 -0.165631)
(51.6257 5.27966 -0.388024)
(50.7828 4.83744 -0.428184)
(53.7343 0.935748 -0.125014)
(53.665 0.789359 0.187686)
(54.9328 -1.02408 0.5959)
(54.0555 -1.23061 0.869049)
(54.661 -2.48611 1.10535)
(58.1691 -2.56592 1.87)
(143.954 44.2322 -49.4121)
(55.7319 35.2911 -65.9083)
(161.69 31.5495 14.2978)
(59.9955 20.358 5.29368)
(110.376 21.6419 13.0042)
(44.3511 35.3525 3.60033)
(73.7446 0.366927 5.09791)
(40.0634 35.355 3.16181)
(56.833 8.98559 1.37382)
(43.8164 24.7028 0.475425)
(53.4966 8.44555 -0.569652)
(50.083 12.9458 -0.480907)
(56.9183 2.00616 -0.217864)
(57.8228 3.07677 -0.231204)
(62.2519 -0.702409 -0.0656403)
(62.4908 0.0981286 0.320583)
(62.7405 -1.21123 0.628927)
(59.9333 -1.03502 1.04954)
(58.4642 -1.8023 1.64307)
(60.5528 -2.15791 2.01358)
(131.469 200.633 -92.9847)
(43.9252 106.118 -10.9046)
(141.974 76.8437 -1.93861)
(76.802 41.642 -3.75359)
(118.477 37.5175 0.150028)
(58.3711 61.5702 -2.60913)
(78.6901 26.6836 1.48486)
(49.4152 27.661 6.78039)
(53.4521 17.399 2.11903)
(45.3031 15.7371 -0.457123)
(53.141 9.43775 -0.906803)
(53.4609 4.22527 -0.746289)
(61.5958 -1.58385 -0.533456)
(62.9504 -6.59343 1.10605)
(64.2501 -3.85868 -0.322826)
(65.2087 -0.367917 -0.547591)
(62.7227 0.904054 -0.198281)
(58.9075 2.63505 1.0146)
(56.84 1.41875 1.30867)
(59.6966 -0.975631 1.60939)
(-44.6996 -97.175 -96.2709)
(-118.93 4.39795 86.7755)
(105.713 23.7258 12.7763)
(10.9747 31.1748 3.17628)
(86.1459 34.5086 9.92094)
(50.592 52.4642 -1.39218)
(76.6536 44.5979 -0.258954)
(58.4176 32.5314 5.0785)
(56.0214 25.1158 2.56047)
(52.1014 14.3202 -0.415732)
(57.4168 8.51233 -1.52302)
(60.4567 0.732107 -1.53032)
(64.7174 -4.8455 0.10065)
(63.6322 -7.80917 0.930794)
(61.2204 -7.03351 -0.209603)
(57.6947 0.762362 -1.45968)
(56.013 3.67847 -0.74957)
(53.8051 4.08841 -0.13471)
(53.9891 2.31689 0.030171)
(58.5954 -1.66507 1.25319)
(158.369 -155.125 148.12)
(66.9888 -45.9591 -18.6539)
(120.112 14.1856 1.88826)
(29.7627 43.4865 -1.34774)
(84.6085 55.98 9.40602)
(45.3684 46.2978 -2.10809)
(65.3638 52.4167 0.397684)
(62.891 42.8325 3.06637)
(64.8011 27.4689 0.843836)
(67.5664 17.0406 -0.280802)
(69.6278 9.78175 -0.695968)
(69.6155 3.51849 -0.318854)
(66.334 1.4773 0.699263)
(64.3439 -0.743539 -1.32245)
(62.4197 -4.13877 -0.538517)
(56.934 3.14454 -0.667948)
(55.9868 4.05501 -0.298824)
(54.7361 3.91416 -0.310443)
(55.5153 1.01624 -0.105928)
(59.5206 -2.41769 1.1651)
(46.1707 -74.8028 74.352)
(-135.919 6.87099 -5.48299)
(71.8217 51.4782 -10.6733)
(-57.9822 48.1367 5.07988)
(59.5466 50.6477 4.32997)
(8.38692 49.7336 -0.375054)
(45.8225 45.2651 1.22751)
(60.7771 34.2096 1.33368)
(68.6763 22.3421 0.765237)
(70.5878 15.2801 0.779649)
(70.2377 10.4016 1.03952)
(69.5944 6.73839 -0.435975)
(69.851 4.82316 -1.40644)
(69.7478 0.746659 -1.19856)
(65.1515 -3.20684 1.16416)
(57.4164 5.06021 -0.61589)
(56.9922 5.73637 -0.397489)
(55.6381 4.23792 -0.285296)
(55.8575 1.11224 0.284741)
(58.4784 -2.33685 1.39181)
(54.5406 -167.247 56.7752)
(-63.9298 -89.6703 -14.9588)
(85.3056 -17.0959 3.34567)
(-13.0052 36.4779 3.16735)
(71.8545 43.8163 5.03359)
(24.4231 26.8848 -1.6874)
(59.1113 22.6372 -0.739028)
(67.1315 21.7752 -0.215088)
(71.6469 17.0566 1.93496)
(69.9959 14.5974 0.65277)
(68.8382 11.8346 -1.01482)
(67.6408 8.30537 -1.46952)
(67.4231 5.12458 -0.714742)
(65.474 0.13822 0.886138)
(56.1824 1.79553 1.21719)
(51.4411 6.53795 -0.613803)
(52.794 5.22041 -0.106387)
(52.0629 4.07172 0.259471)
(53.4155 1.42716 0.854704)
(56.8666 -1.64798 1.69667)
(34.2526 -87.2031 20.428)
(-120.596 -12.1337 -37.8675)
(84.919 15.5026 -14.2539)
(-29.1602 33.0635 6.93728)
(85.7456 39.007 1.3831)
(20.9428 -22.8339 5.0131)
(73.7972 24.0825 3.22445)
(54.1157 14.5308 1.20043)
(71.9256 22.6721 0.7422)
(58.1671 16.9745 0.808899)
(65.1638 13.8242 -0.0201662)
(58.3315 7.7485 -0.200752)
(59.7222 5.50204 1.03532)
(49.8952 3.14399 3.00204)
(45.4952 6.53671 0.468573)
(47.7083 4.82917 0.198028)
(48.0059 3.34318 0.0154521)
(49.2443 1.84296 0.293831)
(50.5383 -0.010925 0.840254)
(55.1983 -2.65026 1.77314)
(-5.66028 -43.07 24.4686)
(-62.131 -65.4936 -40.7499)
(63.0928 -35.3879 -19.1646)
(-37.78 -1.96057 2.97001)
(86.4472 5.49898 -2.24458)
(6.15641 -3.83695 1.68249)
(58.9726 47.7833 -2.04812)
(16.6794 -10.2787 0.843781)
(49.587 32.2499 -1.35154)
(31.6322 0.873778 0.88322)
(49.1001 18.478 0.209573)
(39.1681 2.68867 1.1054)
(46.6982 10.8719 0.863646)
(43.1737 3.10809 0.84857)
(47.2371 5.95718 0.478106)
(46.6938 2.7262 0.443361)
(49.8895 2.27085 0.349411)
(50.1724 0.6233 0.504767)
(52.5073 -1.08735 0.827957)
(57.5955 -3.48585 1.72791)
(107.964 -24.9785 70.2823)
(66.8762 -22.7233 0.396829)
(116.591 14.2427 -25.3599)
(-3.64906 0.309685 -5.767)
(86.1128 12.6792 -2.81619)
(-10.4398 -5.54324 -0.653839)
(65.4347 24.3333 -1.4429)
(15.7647 0.416895 0.857426)
(49.4177 18.3234 -0.903468)
(30.2281 4.59096 0.854232)
(46.0498 12.2122 -0.0912851)
(38.0319 4.94778 0.559198)
(46.3749 7.9028 0.136241)
(43.9502 3.70318 0.0279646)
(48.5072 3.37915 -0.249124)
(49.0287 0.962886 -0.199659)
(51.9727 -0.805146 -0.492894)
(52.9012 -1.97452 0.0302673)
(55.2232 -3.79431 0.536968)
(61.2539 -4.95756 1.6597)
(128.374 -26.096 246.386)
(35.5155 -36.0242 2.1068)
(119.504 34.2085 -25.0372)
(2.88604 -0.118312 -3.21838)
(93.1847 23.5534 -0.146479)
(4.1852 0.658327 -0.378169)
(69.7813 26.5025 1.35284)
(18.7298 1.36641 0.217567)
(57.1629 19.6327 -0.147139)
(30.7521 3.12974 0.0548162)
(52.1335 10.965 -0.377116)
(39.9125 2.05067 -0.336473)
(51.3839 4.63609 -0.411111)
(46.9704 0.0962024 -0.568283)
(53.189 0.593116 -0.689382)
(52.1853 -1.46578 -0.871637)
(55.9485 -2.56932 -0.999137)
(56.2593 -4.09178 -0.733818)
(59.4155 -5.87453 0.00155291)
(65.8868 -6.22656 1.45982)
(149.432 -78.5782 -61.548)
(-126.449 53.3196 84.318)
(128.884 35.8414 -9.10797)
(-25.1617 14.303 12.5875)
(102.996 29.7296 1.35771)
(1.00237 5.9138 1.17928)
(75.0227 21.0406 -0.0578602)
(21.758 7.99952 -1.30547)
(61.7528 11.3574 -1.95436)
(37.8427 6.36264 -1.41796)
(59.352 5.79803 -0.91379)
(49.7247 3.64695 -0.444794)
(60.8803 2.17665 0.312667)
(57.2658 0.791643 -0.093123)
(62.664 -1.15795 0.0481983)
(61.1245 -2.56259 -0.777879)
(63.3469 -5.57882 -1.25666)
(62.6495 -6.97813 -1.3198)
(64.8414 -9.38857 -0.545526)
(70.4377 -8.26802 1.15167)
(-38.7944 23.1723 -159.919)
(-150.6 15.2758 -1.72318)
(61.9655 -17.2348 -7.25192)
(-34.7502 2.65594 9.55817)
(97.9428 16.7605 -1.35816)
(17.7909 12.126 -0.580421)
(88.2103 16.5039 -0.569911)
(49.4856 9.76373 -3.55768)
(84.4373 7.8444 -1.87238)
(68.2764 3.11179 -2.77736)
(85.643 0.906616 -0.932676)
(77.7918 -1.16673 -1.27942)
(85.5323 -1.78233 -0.0459306)
(80.547 -2.12464 -0.356922)
(82.7274 -1.93896 0.349596)
(78.8193 -1.77097 -0.0195332)
(78.749 -3.82257 -0.114077)
(74.5923 -6.0482 -0.658427)
(75.0606 -8.76027 -0.669004)
(78.5403 -8.09148 0.476186)
(422.861 -217.376 -135.529)
(110.742 -87.7405 -34.5028)
(128.548 -48.3382 3.48001)
(24.933 -35.2637 0.210931)
(111.331 -7.79032 2.0884)
(51.8079 1.72435 -0.305022)
(103.939 3.39478 2.34163)
(74.5148 3.87872 0.324349)
(100.507 0.329885 2.82978)
(85.0595 0.531279 1.44145)
(97.0051 -0.744802 2.89172)
(87.5397 1.03741 1.49251)
(92.6062 1.32897 2.0243)
(87.5857 2.75126 1.12018)
(90.0233 2.60089 0.994254)
(87.5436 2.66507 0.199114)
(88.5805 1.08237 -0.261982)
(85.98 -1.83652 -1.16377)
(87.2004 -6.99325 -2.86003)
(89.3157 -6.85182 -2.00699)
(137.533 42.0597 16.8629)
(116.644 102.709 172.596)
(187.192 26.5684 77.9867)
(49.0216 -6.41534 26.5614)
(138.506 10.2033 16.0413)
(82.6997 8.42464 6.14203)
(126.725 10.0195 5.85916)
(106.006 8.88547 2.12755)
(127.682 7.33754 2.23087)
(117.404 5.9488 -0.374262)
(127.236 3.93189 0.351422)
(120.108 2.63394 -0.741933)
(123.641 1.13361 0.461044)
(118.933 0.657808 0.566641)
(119.909 0.420298 2.04033)
(118.105 1.79939 2.93191)
(119.818 2.5007 3.42777)
(120.329 2.61199 2.82073)
(122.499 -0.462603 1.14193)
(121.418 -3.11711 0.223183)
(435.957 -293.149 -141.151)
(86.9282 -33.3762 -31.4006)
(186.96 -10.2801 -9.66593)
(121.746 -5.52821 2.21255)
(162.556 -3.21444 11.8251)
(134.374 -4.3984 3.69596)
(141.694 -0.969541 -0.0384215)
(123.171 -0.126509 -4.85797)
(123.559 2.17884 -5.07265)
(110.104 1.5363 -4.71371)
(108.503 1.36194 -1.03818)
(98.8672 0.559137 -0.567796)
(98.3736 0.264354 0.800925)
(93.8733 0.0649424 0.379923)
(94.2104 0.31261 0.564349)
(92.4524 0.675707 0.342602)
(92.8766 1.09089 0.00389474)
(91.4363 1.41544 -0.653149)
(91.5096 3.14754 -1.16321)
(91.8551 3.59359 0.355506)
(155.356 -35.6226 -51.8612)
(25.8447 27.9339 -5.3681)
(142.999 26.5424 -1.02414)
(55.3249 12.4428 -6.5304)
(111.428 27.8791 3.27752)
(60.7091 11.3736 -0.215204)
(88.3826 20.3177 0.17067)
(60.6279 9.8721 -3.02158)
(75.637 12.0551 -0.466531)
(59.8866 5.77249 0.309232)
(67.5071 5.97225 2.47995)
(58.8965 3.32515 2.00949)
(63.0339 3.69624 1.74543)
(58.2968 2.76662 0.447253)
(60.3322 3.03017 -0.288715)
(57.5017 2.45981 -1.20117)
(58.239 2.34237 -1.6392)
(56.3198 1.80017 -2.20672)
(57.25 1.90303 -2.36056)
(60.6947 1.25415 0.305849)
(145.803 99.0888 -248.248)
(-90.5277 -42.3197 -29.5425)
(143.911 -10.6327 -20.9495)
(-0.168047 -1.56996 2.26559)
(99.0596 16.8026 1.05844)
(24.9499 11.2808 0.852625)
(75.7934 14.5255 0.369714)
(37.226 11.3238 0.223041)
(63.1505 9.35714 0.909715)
(42.4028 9.25158 1.08666)
(54.8145 6.92127 1.14641)
(43.4194 7.3789 0.622956)
(49.7011 5.22875 0.182419)
(43.6434 5.00964 -0.233286)
(47.061 3.28676 -0.406741)
(44.3113 2.59622 -0.430173)
(46.3421 1.49926 -0.439522)
(45.1567 0.91463 -0.436181)
(46.8543 0.588979 0.098591)
(50.6577 0.437465 2.03114)
(189.25 -129.484 -152.322)
(56.3335 -7.25307 -26.9591)
(155.194 -14.0436 -9.9173)
(19.4448 19.9948 -3.55761)
(92.0919 21.2388 -1.89821)
(21.8802 20.3589 0.586233)
(69.1653 17.4675 -0.144376)
(30.9083 16.0419 -0.113602)
(56.18 12.1599 0.0110066)
(35.3357 12.1173 0.339653)
(48.0388 8.68161 0.464812)
(37.6526 8.53076 0.440755)
(44.2533 5.58954 0.226515)
(39.4551 5.03499 0.150415)
(42.9363 2.80821 0.0121628)
(40.883 2.27063 0.100223)
(42.8795 0.966429 0.103409)
(42.0407 0.507931 -0.0465344)
(43.5348 -0.29339 0.352332)
(46.9214 -0.568502 1.96667)
(180.403 205.483 -108.272)
(14.5054 77.0209 -60.0367)
(99.9866 27.1305 -23.3614)
(-18.6378 27.1016 0.776062)
(84.3131 18.6715 -0.467786)
(8.15115 21.3319 3.94155)
(68.7538 10.4595 0.948105)
(26.0303 20.4132 0.897327)
(55.8605 8.79143 0.332128)
(32.9725 16.5015 0.483111)
(47.2132 7.57708 0.180402)
(35.8981 11.2409 0.190994)
(43.3976 4.8333 -0.0846413)
(38.2491 6.14231 -0.0196501)
(42.456 2.49631 0.0181252)
(40.5843 2.41889 0.200194)
(42.8219 0.330978 0.236441)
(41.8435 -0.210779 0.240177)
(43.5753 -1.43915 0.598304)
(46.8607 -1.53024 2.04668)
(74.3403 95.5547 -103.487)
(-12.3883 36.0896 -39.9239)
(94.7014 54.0769 -23.6076)
(1.05021 22.8965 1.26579)
(84.0955 13.7516 6.38275)
(5.89071 29.4971 3.4978)
(65.7558 8.10632 1.51017)
(26.5744 24.1829 1.60208)
(50.4542 10.4372 0.322981)
(33.9236 18.3008 0.424384)
(43.8047 8.52765 -0.141811)
(37.4972 10.9682 -0.139767)
(42.8922 4.34302 -0.385478)
(41.3835 4.90371 -0.292802)
(43.7872 1.36127 -0.165567)
(43.1642 1.63757 0.205355)
(44.3634 -0.196243 0.5072)
(43.7485 -0.410532 0.679456)
(45.0699 -1.80347 1.05992)
(48.3456 -2.01943 2.34104)
(168.088 -76.0586 157.362)
(-73.0389 -9.67828 -63.1216)
(124.365 19.7837 26.1783)
(1.49663 19.5536 2.17867)
(88.7778 24.1096 12.1888)
(16.0614 35.1907 2.94877)
(58.4445 -4.10295 3.79959)
(25.1962 35.8952 2.82953)
(46.4563 5.72243 0.900795)
(32.9943 23.067 0.359334)
(43.8996 5.36744 -0.690744)
(39.432 11.7131 -0.496985)
(46.2147 0.835934 -0.548615)
(45.3623 3.75601 -0.119182)
(48.592 0.282506 -0.141638)
(47.6723 1.50293 0.263745)
(48.0215 0.0245682 0.608041)
(46.0825 0.0222897 0.851816)
(46.7163 -1.22019 1.50305)
(49.7018 -1.77036 2.58134)
(266.521 -81.7734 -8.70348)
(144.033 54.9265 7.27485)
(152.161 53.9455 12.5685)
(54.6568 38.6137 -1.17777)
(100.762 39.3126 3.32934)
(31.4431 63.7567 -2.40416)
(55.7735 18.228 1.52091)
(31.8707 31.4465 5.31001)
(41.662 11.0739 1.38045)
(35.9264 14.8385 -0.537093)
(44.2655 4.98576 -1.48567)
(43.7799 2.82926 -0.863225)
(50.6884 -3.24652 -0.144631)
(50.7507 -3.90629 1.16375)
(50.7379 -0.767935 -0.170067)
(50.568 2.2363 -0.114424)
(48.1601 2.11664 0.186772)
(46.1851 2.37737 0.870769)
(46.5051 0.711938 1.19304)
(49.8399 -1.23151 2.26396)
(-40.3128 -0.95748 -85.265)
(-142.083 24.7633 16.2774)
(78.7405 35.2607 -3.79021)
(-36.165 33.1512 2.96995)
(63.3618 35.8823 5.63938)
(20.507 56.1176 -0.482577)
(46.8722 36.7188 0.000474697)
(37.0548 26.5651 5.23351)
(45.6086 18.042 1.58975)
(44.1923 9.81636 -0.892566)
(49.5195 3.95014 -2.08139)
(50.6533 -1.95134 -1.53093)
(53.1951 -4.95888 0.0950643)
(52.9734 -5.44088 0.6206)
(51.5029 -2.89983 -0.538362)
(46.8587 2.87349 -0.791216)
(45.6878 3.67896 -0.32822)
(44.379 3.04363 0.0113805)
(45.3275 0.554346 0.220697)
(48.9379 -2.1217 1.83933)
(218.112 -42.9869 -0.644766)
(-35.609 -15.7039 -7.15173)
(90.3128 29.9788 -0.104506)
(-13.835 43.279 -1.05675)
(69.5806 47.3595 6.09839)
(23.0384 42.3424 -1.44163)
(46.4824 44.8188 1.07905)
(50.1133 31.7748 2.96382)
(54.696 19.973 0.586314)
(56.7864 11.6384 -0.669128)
(57.8217 5.35009 -1.2329)
(56.7371 1.28112 -0.721009)
(54.9721 0.536099 -0.27134)
(53.4919 -0.837731 -1.13552)
(51.0341 0.16664 -0.384416)
(46.3301 3.88004 -0.123974)
(46.2407 3.15303 -0.0552546)
(45.3927 2.23526 -0.167663)
(46.406 -1.05606 0.312351)
(49.1957 -2.67555 1.77875)
(137.383 -184.009 -125.086)
(-188.477 12.2009 -1.74321)
(49.5452 51.004 -13.2525)
(-78.0667 41.6298 6.2156)
(43.2107 39.1853 1.50122)
(-3.05993 39.4353 0.86692)
(37.187 35.6853 1.789)
(52.0339 26.1251 1.76301)
(58.2504 17.0984 0.950652)
(59.2577 12.9182 -2.77913)
(62.9473 7.19196 0.554663)
(60.8143 5.21747 -1.26172)
(58.0061 2.64112 -1.49091)
(56.6461 -1.31806 -0.518983)
(52.9026 1.24421 0.375562)
(46.9615 4.32152 -0.018777)
(46.9049 3.82774 -0.0250266)
(45.4991 1.70158 0.0511174)
(45.8889 -0.801572 0.73044)
(47.9107 -2.67354 1.8812)
(98.0777 -276.418 -59.5604)
(-134.539 -45.8521 -17.9827)
(66.3905 -7.02525 -5.09638)
(-42.595 29.3345 4.60378)
(58.6288 30.0286 1.89207)
(10.7834 12.1596 -1.892)
(49.8271 13.7329 -0.320822)
(55.4419 17.7148 0.370914)
(58.9052 15.1211 2.03533)
(58.1838 11.7637 0.644159)
(57.1275 8.72363 -1.19402)
(55.1376 5.54272 -1.54186)
(53.8519 2.36393 -0.384014)
(51.1131 -0.23796 1.53846)
(47.267 3.59796 0.269414)
(42.7527 5.28041 -0.0447645)
(43.981 3.12686 0.173422)
(42.7035 1.97913 0.379681)
(44.0965 -0.23331 1.00213)
(46.5899 -2.0352 1.98282)
(88.8701 -218.593 -79.4355)
(-125.105 -11.3644 -32.74)
(57.8399 7.77435 -16.5127)
(-48.7796 23.8447 8.60585)
(73.5476 27.1079 -0.741342)
(0.572474 -28.4942 5.73336)
(56.0037 25.8326 2.17928)
(34.3061 13.1137 0.671991)
(53.1224 20.5657 0.686662)
(41.9653 12.1494 0.651296)
(50.187 10.7764 -0.0357555)
(42.7627 4.76139 0.392697)
(44.4998 4.50873 1.72098)
(39.4141 2.99633 2.42702)
(37.857 5.86243 0.453067)
(40.1859 3.84082 0.0907054)
(40.0177 2.32804 0.110686)
(40.7928 0.978936 0.291797)
(42.0748 -0.626952 0.880107)
(45.2416 -2.59992 1.90994)
(0.6261 10.1639 -25.6912)
(-56.6495 -63.8544 -50.2567)
(48.2591 -33.221 -16.0212)
(-46.1236 -4.39513 1.23924)
(75.1706 2.98199 -2.82446)
(-7.18205 -4.20659 2.16468)
(45.7935 45.2125 -2.72779)
(4.06211 -13.6775 1.06628)
(38.2295 29.3788 -1.78676)
(19.0317 -2.97024 0.976277)
(37.6842 16.5511 -0.228408)
(27.6028 0.433361 1.03939)
(36.8299 9.47243 0.354202)
(33.8011 1.74742 0.503736)
(38.3973 5.17158 0.235259)
(37.828 2.17406 0.192873)
(40.7798 1.98207 0.18384)
(40.7623 0.535953 0.284776)