/*--------------------------------*- C++ -*----------------------------------*\
  =========                 |
  \\      /  F ield         | OpenFOAM: The Open Source CFD Toolbox
   \\    /   O peration     | Website:  https://openfoam.org
    \\  /    A nd           | Version:  10
     \\/     M anipulation  |
\*---------------------------------------------------------------------------*/
FoamFile
{
    format      ascii;
    class       volVectorField;
    location    "5.9";
    object      U_0;
}
// * * * * * * * * * * * * * * * * * * * * * * * * * * * * * * * * * * * * * //

dimensions      [0 1 -1 0 0 0 0];

internalField   nonuniform List<vector> 
12920
(
(47.2905 -232.976 -182.764)
(39.691 -83.9787 -31.0217)
(217.765 -78.584 -10.7045)
(145.868 -52.2953 2.43017)
(153.738 -12.9927 3.28863)
(110.76 -4.45351 -1.22777)
(118.402 1.29 -2.73496)
(104.498 3.91676 -3.41831)
(109.075 7.34095 -3.2035)
(100.569 8.77641 -2.95478)
(100.435 9.76046 -2.24875)
(92.7814 9.71302 -1.97982)
(91.6178 8.24792 -1.1161)
(85.2391 6.56265 -0.833225)
(84.7723 3.25854 0.151151)
(80.1944 -0.662036 0.605399)
(80.4911 -2.11052 0.458623)
(79.5399 -4.66432 0.354915)
(83.4449 -6.89375 -0.409787)
(91.9097 -5.54711 -0.1609)
(130.015 -132.825 -52.1533)
(62.6628 -39.79 -21.8304)
(157.274 14.9047 -17.2687)
(98.6016 17.159 -7.97648)
(128.933 31.9585 1.54952)
(85.2375 18.763 1.73001)
(92.8916 26.1284 1.80082)
(69.2406 18.67 -0.0653206)
(78.1661 20.6102 0.386309)
(65.6188 14.2033 0.611192)
(68.1974 11.4519 1.44922)
(58.2047 6.20811 1.50195)
(58.1407 3.5125 1.53638)
(51.5591 1.09963 1.05439)
(52.0431 0.801195 0.385404)
(49.2203 0.533766 -0.438178)
(49.9716 0.72931 -0.781725)
(49.5743 0.502147 -1.15153)
(51.7839 1.28973 -1.86735)
(56.6543 1.58199 -1.50755)
(242.456 82.1912 -144.548)
(-39.5567 -26.2987 2.75251)
(161.479 -36.8187 -0.691612)
(30.2853 -23.3036 1.73218)
(104.288 8.19588 2.72449)
(43.367 10.6786 0.496335)
(77.646 18.8985 1.18741)
(46.1961 15.984 0.246562)
(63.7868 13.6559 0.814817)
(47.2119 11.7049 0.481736)
(54.5216 8.95243 0.781462)
(43.5817 8.64624 0.417772)
(46.1829 6.84728 0.305163)
(39.6627 6.50205 -0.0940125)
(41.5972 4.93683 -0.155322)
(39.216 3.86379 -0.270444)
(40.9854 2.88428 -0.220626)
(40.6382 1.5293 -0.238441)
(43.237 0.891155 -0.0594168)
(46.9018 0.777531 0.406762)
(226.712 1.83661 -116.524)
(100.112 31.1156 0.323491)
(152.831 -7.893 14.8283)
(41.3843 19.3156 0.42585)
(95.4935 24.9094 2.23455)
(39.9667 25.6546 -0.147147)
(73.2592 25.4803 0.589958)
(44.1129 22.6273 -0.45306)
(60.3054 18.3716 0.0450257)
(43.2716 15.935 -0.188844)
(48.4356 11.9779 0.389763)
(37.1893 10.2676 0.236207)
(39.6764 6.9516 0.282458)
(34.3127 5.5437 0.127473)
(36.4735 3.07485 0.123853)
(34.596 2.1968 0.124239)
(36.2446 0.879356 0.159658)
(35.9864 0.101001 0.118824)
(37.8053 -0.653748 0.225131)
(40.7318 -1.1193 0.458477)
(146.558 -0.162399 -24.9523)
(-12.1869 34.0911 -6.20763)
(120.517 15.0214 -1.45184)
(-4.46265 15.611 3.22031)
(89.5063 12.2609 3.44521)
(23.7935 22.7024 1.83264)
(71.3152 18.1365 1.31611)
(37.8928 26.3135 -0.00920656)
(58.6545 17.6698 0.450501)
(39.7645 22.2242 0.0282685)
(47.7542 14.2632 0.312668)
(37.0792 15.4125 0.0294073)
(41.5096 8.8422 0.0485123)
(36.7152 8.40636 -0.0368262)
(40.0786 4.23825 0.127745)
(38.655 3.02356 0.126301)
(40.7146 0.442479 0.202445)
(39.8691 -0.79152 0.240109)
(41.5538 -2.03775 0.276131)
(43.7683 -2.02363 0.423471)
(128.853 256.477 81.6213)
(33.8813 113.899 -19.7216)
(136.218 67.5152 -11.3206)
(70.8246 19.6977 0.800623)
(100.226 -0.696562 8.51322)
(27.5372 23.1154 2.8161)
(67.1221 11.8488 2.15413)
(34.1921 27.0582 0.843291)
(50.8625 17.6886 0.489705)
(36.9477 23.1439 0.148011)
(43.2613 14.8466 0.0865733)
(37.7576 14.8806 -0.156506)
(41.8357 8.04288 -0.306699)
(41.1415 6.16349 -0.525282)
(45.5407 1.11212 -0.302554)
(46.4627 0.284929 -0.027783)
(47.6389 -2.09527 0.323977)
(46.5078 -2.44746 0.551396)
(46.4752 -3.36243 0.611316)
(46.614 -3.0212 0.575972)
(92.7101 168.277 -60.5162)
(107.175 108.123 -13.631)
(212.196 64.2686 12.069)
(125.679 30.1229 5.34261)
(133.677 18.1028 7.36556)
(73.2519 30.8164 3.26329)
(82.0452 5.85051 3.38836)
(44.4502 34.6754 2.01805)
(53.216 15.0232 1.07038)
(39.1983 28.8916 0.301867)
(46.6134 14.546 -0.292641)
(43.2425 17.702 -0.463103)
(49.1031 7.38593 -0.434474)
(51.8677 6.62323 -0.496393)
(59.4775 0.28715 -0.164139)
(61.5825 -0.11469 0.165684)
(62.1106 -2.2419 0.293693)
(59.3699 -2.83254 0.638881)
(54.6802 -2.73572 0.989188)
(50.84 -2.37739 0.673202)
(131.194 115.866 100.765)
(106.01 85.8109 21.1366)
(165.085 84.4012 18.9325)
(105.552 40.3603 4.40461)
(133.687 28.137 -0.236589)
(88.8632 49.9584 -3.18194)
(95.6112 32.8749 -1.41435)
(58.6467 27.144 1.30136)
(50.9839 29.1523 0.205382)
(36.0616 21.5117 -0.561929)
(43.7053 20.8293 -0.758868)
(43.296 13.8673 -0.756511)
(51.8577 9.82869 -0.818329)
(55.0771 -0.484414 0.11298)
(56.5839 -7.63628 0.182635)
(60.2505 -4.77375 -0.363054)
(60.8666 -1.98499 -0.322023)
(56.4709 1.43016 0.444368)
(49.3115 2.60173 0.818967)
(47.2787 0.0126092 0.337189)
(440.712 107.295 -385.831)
(40.8817 2.94103 -14.9262)
(189.411 22.0758 -2.17294)
(104.621 33.4181 -0.818484)
(127.512 39.6822 6.02244)
(72.1698 54.8873 -2.20871)
(87.471 48.7258 2.60889)
(65.9042 41.8059 -0.267911)
(49.7306 39.2228 0.410612)
(39.1857 26.4342 -0.348444)
(43.2273 22.3003 -0.554226)
(46.7944 13.8596 -0.672544)
(55.8568 6.01009 -0.625539)
(55.5032 -2.82097 0.299907)
(47.6201 -8.49365 0.53832)
(46.5415 -2.9219 -0.759425)
(45.5828 2.95443 -0.698494)
(42.6527 5.65785 -0.316704)
(42.3952 5.02093 -0.200134)
(44.7874 0.697161 0.0632202)
(170.905 -114.08 39.1376)
(123.078 17.3137 -10.165)
(155.546 58.7427 -6.44502)
(87.574 68.8722 -3.44224)
(104.653 77.6254 5.51903)
(43.3412 60.9114 -0.73267)
(55.922 63.2581 0.685443)
(54.7464 56.3819 -0.355863)
(55.423 41.446 0.0508625)
(59.7277 28.8974 -0.00167802)
(62.6222 22.2615 -0.170112)
(65.6062 14.8489 -0.18449)
(60.2809 6.1958 0.638836)
(51.3276 4.78803 -0.257038)
(51.6265 -5.70011 -0.381086)
(46.282 1.39666 -0.230983)
(43.4822 5.0815 -0.170688)
(42.1674 6.53977 -0.225031)
(43.405 5.13599 -0.368136)
(46.3813 0.147549 0.0151682)
(73.1367 -63.9154 -255.729)
(-164.509 43.7066 -2.36232)
(84.9528 84.5223 -7.82382)
(-32.6286 77.7713 2.64852)
(56.1967 76.0293 4.63079)
(-10.3368 68.8367 -1.58819)
(24.2547 58.6268 0.495051)
(44.5464 46.8105 0.0190514)
(57.0641 33.6744 0.027544)
(59.4937 25.5877 0.0466342)
(57.7284 18.6365 0.309443)
(55.5013 12.5843 0.0969042)
(55.912 9.20604 -0.153931)
(58.823 8.01516 -0.318863)
(56.9129 -3.6021 0.724757)
(45.4024 4.91647 -0.177887)
(44.1964 8.13521 -0.214286)
(43.4337 7.73825 -0.284837)
(44.9019 5.96158 -0.116686)
(46.1861 0.438941 0.184266)
(9.42708 -159.528 -64.2793)
(-65.1104 -33.6203 -15.4813)
(76.1198 13.4099 -4.08032)
(0.137475 66.297 0.0546635)
(64.9007 73.7611 3.89087)
(2.85266 48.9163 0.330063)
(36.2517 35.86 0.435528)
(47.5703 30.7907 0.100939)
(52.8649 24.4016 0.266606)
(55.5848 24.3486 -0.00771615)
(57.2502 20.7704 -0.278026)
(58.6447 15.2911 -0.377669)
(60.4508 12.1477 -0.24097)
(61.3176 8.83721 -0.019782)
(45.2619 0.335303 1.02665)
(36.8191 8.35361 -0.363854)
(38.7684 8.35245 -0.160439)
(39.4294 7.95244 0.0413879)
(41.8733 5.63385 0.386941)
(43.9248 0.598383 0.473433)
(7.79074 4.17846 -106.508)
(-141.657 12.9036 -3.40735)
(60.4496 43.0047 -0.92314)
(-30.7528 60.3457 3.87412)
(69.0478 66.2286 3.10229)
(16.6877 -3.98969 2.28217)
(64.0147 31.0658 -0.198764)
(50.6701 18.4459 -0.404121)
(69.8306 28.5891 0.147053)
(56.406 27.3317 0.0563793)
(61.3774 23.0291 0.0212195)
(55.6013 15.9462 -0.0586626)
(58.684 11.5173 0.318732)
(47.7529 6.28809 1.34111)
(30.1864 8.7118 0.467718)
(31.7183 6.85028 0.16932)
(32.4503 5.63004 0.0512231)
(34.8829 4.03191 0.273342)
(37.2892 2.00925 0.408395)
(41.1993 -1.72767 0.463777)
(-105.267 25.9741 -121.481)
(-183.038 -60.7344 -23.6106)
(50.5292 -25.9984 -12.6486)
(-53.1118 9.01456 4.55894)
(68.8376 16.2303 0.723452)
(-0.972901 3.42805 0.203771)
(49.9295 52.2592 -0.983635)
(12.59 1.75739 0.0348505)
(40.4256 39.2092 -0.520534)
(26.1004 11.6184 0.349628)
(41.735 24.546 0.277378)
(32.6146 9.53727 0.472821)
(37.0891 15.1268 0.72994)
(31.8117 7.21394 0.575492)
(34.4105 8.68963 0.451313)
(33.5447 5.02908 0.283078)
(36.5246 3.73451 0.40112)
(37.5001 1.47158 0.413799)
(40.832 -0.430223 0.433458)
(45.0061 -3.36577 0.457249)
(109.929 36.3918 90.2997)
(-110.281 -22.8164 -2.25525)
(85.4257 36.9947 -23.5677)
(-20.2249 18.1621 -4.78819)
(68.8797 25.0948 -2.98054)
(-16.8209 6.61876 -1.74053)
(50.0318 28.811 -1.01449)
(5.54763 9.38909 0.468557)
(36.2395 24.8877 -0.455445)
(18.8749 12.4374 0.484441)
(33.2765 17.7408 0.20276)
(25.7633 10.0788 0.287706)
(33.3693 11.7269 0.264399)
(31.116 6.98569 0.0722758)
(36.2348 5.22276 -0.127812)
(37.5588 1.90773 -0.290312)
(41.1629 -0.918614 -0.311577)
(43.1209 -2.75653 -0.119275)
(46.4558 -4.94409 0.0991864)
(51.079 -6.17928 0.354658)
(174.664 -75.8499 -29.2993)
(-50.6912 -41.8667 14.85)
(106.368 65.4629 -13.2661)
(2.60749 25.6246 -1.70017)
(78.8168 40.7451 0.538916)
(7.46943 17.8585 -0.748778)
(53.8997 35.5502 1.17211)
(8.33335 12.504 -0.0641455)
(41.3517 27.276 0.358294)
(17.033 10.8965 -0.0816024)
(37.1903 16.811 0.101166)
(26.3758 7.00989 -0.214572)
(37.5624 8.56817 -0.0894376)
(34.3945 3.18594 -0.458344)
(41.105 3.19798 -0.455443)
(41.0164 0.600535 -0.568283)
(45.6356 -0.815495 -0.784758)
(47.542 -3.08663 -0.785302)
(52.1816 -6.29053 -0.412394)
(57.3221 -7.4999 0.121814)
(560.668 -324.304 -384.215)
(-127.138 25.7372 4.88938)
(159.569 65.4201 -6.76536)
(-18.5473 36.6158 5.18707)
(86.4347 46.7638 2.57534)
(-3.55737 20.7771 -0.0899944)
(56.5764 31.6944 0.858775)
(5.63918 17.8193 -0.8287)
(43.2744 19.0513 -0.664143)
(20.4625 12.9578 -0.968909)
(42.3894 11.1281 -0.560503)
(34.824 8.29373 -0.302264)
(47.074 6.37601 0.232533)
(45.1977 4.35209 0.118288)
(51.627 1.96976 0.184091)
(51.0146 0.124997 -0.450636)
(54.3535 -3.17546 -0.928141)
(56.1239 -5.2068 -1.17429)
(60.3466 -9.6482 -0.728824)
(63.8154 -9.77067 -0.121082)
(-42.4722 171.556 -115.379)
(-225.124 58.2765 3.47941)
(74.1123 3.06207 -8.21408)
(-51.5224 20.5373 7.43322)
(83.1509 33.9381 0.27796)
(6.62644 28.1814 -0.807798)
(70.0345 32.3764 -0.0790337)
(36.8877 24.9466 -1.97313)
(72.0116 21.7458 -1.31961)
(62.5942 14.2119 -1.8891)
(83.5465 8.67608 -1.0557)
(81.1542 2.00664 -0.899194)
(90.8788 -1.1433 -0.174015)
(87.9417 -2.77823 -0.137257)
(88.8328 -2.2277 0.405962)
(82.9791 -0.0353009 0.330078)
(79.4245 -0.609989 0.257412)
(72.5247 -2.06515 -0.294888)
(72.0919 -6.86931 -0.518875)
(71.9192 -7.90248 -0.312176)
(88.444 -119.5 -32.5527)
(-15.3866 -142.003 -52.515)
(97.3545 -42.5666 -11.5406)
(12.0458 -14.3181 -1.51508)
(92.6575 8.92496 2.19178)
(39.4491 19.7919 0.756919)
(87.1537 19.5134 2.10435)
(64.3089 16.5782 1.5635)
(89.0048 9.48156 2.70685)
(77.8154 5.8672 2.21408)
(89.3113 1.94677 2.62009)
(81.5138 2.26242 1.80443)
(85.4945 2.70772 1.78532)
(80.3598 5.1553 1.1926)
(82.2518 6.15386 0.829031)
(80.1469 7.54493 0.264683)
(79.6972 7.22261 0.0750098)
(75.1161 5.37175 -0.0630812)
(74.9111 -2.13189 -1.34751)
(75.5726 -5.18265 -1.39914)
(500.298 437.009 -270.757)
(320.963 270.715 -51.4933)
(283.394 62.3427 29.3837)
(97.7968 9.71506 23.8394)
(120.012 16.1255 14.1071)
(62.5929 12.6394 4.24455)
(104.101 10.8854 3.02639)
(85.5104 6.45853 0.867408)
(107.395 2.21608 0.420908)
(98.379 -1.0211 -0.922429)
(108.505 -4.12667 -0.953901)
(102.454 -5.89521 -1.47704)
(106.318 -7.16681 -1.07464)
(102.133 -7.0822 -0.859547)
(103.1 -5.21181 0.332389)
(98.4183 0.392877 1.52459)
(98.7811 5.22457 1.87656)
(97.8847 6.79626 1.54036)
(100.899 6.73474 0.701942)
(101.751 3.78866 0.286522)
(98.0215 39.1545 97.7507)
(75.0412 -12.2206 -21.9907)
(193.86 -31.8752 20.7193)
(144.036 -21.484 17.8421)
(165.25 -9.22509 14.9275)
(128.896 -6.66459 3.45592)
(129.646 -1.47549 -1.81003)
(111.156 0.0196827 -4.90048)
(112.54 2.76146 -4.69984)
(102.071 3.47266 -4.38401)
(100.151 3.84083 -2.23954)
(89.7701 3.12455 -1.67962)
(87.5274 2.03712 -0.0581429)
(80.8177 0.825951 0.0319693)
(80.467 0.210464 0.616812)
(78.4021 -0.323308 0.814602)
(78.6809 -0.705297 0.593198)
(79.0174 -1.7095 0.281211)
(82.2586 -0.879063 -0.574358)
(84.7691 0.654381 -0.185504)
(171.297 -96.1387 -75.0177)
(93.9533 -54.2035 -15.6397)
(152.756 10.5966 -1.62904)
(70.1089 14.6751 -5.32877)
(109.272 31.514 4.78041)
(61.9856 15.2395 1.03644)
(81.0078 22.923 1.6795)
(56.9889 13.5492 -1.46584)
(68.6609 15.4146 0.439439)
(54.9204 9.13365 0.961583)
(59.3682 7.88677 2.72679)
(49.9025 4.01322 2.35911)
(51.6327 3.46134 2.14223)
(46.2198 2.09042 1.02421)
(47.4462 2.27314 0.1333)
(44.7481 1.84125 -0.924929)
(45.3762 1.74325 -1.34202)
(44.2786 1.23398 -1.85935)
(46.006 1.4121 -2.43736)
(48.4247 0.959216 -1.52856)
(72.6208 63.0456 -113.926)
(-106.145 -25.1121 0.231173)
(126.866 -13.6984 -6.4317)
(-2.54477 -7.48422 3.49202)
(90.1428 16.863 3.80871)
(23.2224 12.6672 0.188472)
(67.1369 17.0691 1.84849)
(32.6539 13.4341 -0.00482487)
(54.1891 11.3285 1.4852)
(35.3764 10.5386 0.830408)
(44.8368 8.22865 1.41447)
(33.5398 8.20393 0.581641)
(37.937 6.14826 0.40705)
(31.8049 5.63724 -0.250066)
(34.4936 3.92939 -0.305393)
(31.9869 2.96744 -0.44383)
(33.8217 1.87712 -0.377443)
(33.0632 0.836801 -0.404795)
(35.2887 0.288017 0.0929757)
(38.0894 0.0610395 0.961683)
(138.012 -1.39643 -28.149)
(-14.1896 12.2152 -5.98122)
(131.227 -16.7136 0.450186)
(6.72735 18.6142 -5.38347)
(83.37 23.5331 -0.129878)
(19.1642 22.9357 -0.719567)
(61.2451 21.453 0.888285)
(26.8935 19.2309 -0.783626)
(47.4343 15.3078 0.488093)
(28.1397 14.1103 -0.0822032)
(37.457 10.486 0.67059)
(27.0263 9.48652 0.394672)
(32.0029 6.42426 0.340526)
(27.1694 5.44304 0.163396)
(30.0766 3.1084 0.0966124)
(28.142 2.35494 0.145322)
(29.9139 1.03964 0.190945)
(29.3666 0.37121 0.141175)
(31.1237 -0.481192 0.572156)
(33.519 -0.930772 1.27097)
(28.7119 -10.936 -45.5559)
(-83.3314 61.3497 -31.7854)
(89.9466 24.5435 -11.9329)
(-32.9687 23.6741 3.00469)
(80.1272 17.5794 2.13824)
(5.9985 23.3632 3.0891)
(61.3193 14.5526 2.04421)
(21.518 23.4907 0.167381)
(46.8632 13.0147 0.847215)
(25.4472 19.0822 0.0526783)
(36.7814 10.5426 0.3838)
(25.8592 13.0765 0.0753231)
(32.0393 6.56813 0.03214)
(27.1538 7.05345 -0.0254639)
(30.9104 3.20179 0.158856)
(29.3023 2.70604 0.245611)
(31.286 0.495022 0.303359)
(30.3484 -0.35229 0.401177)
(32.1791 -1.66712 0.745842)
(34.2418 -1.80724 1.28004)
(63.0375 75.8405 -92.3719)
(-37.4005 58.2594 -31.1627)
(93.1871 46.284 -21.7243)
(4.28282 19.7294 -0.671496)
(81.9213 7.05597 8.90867)
(4.35928 29.8465 3.08713)
(57.6026 11.7791 2.57451)
(20.6459 26.6933 1.14477)
(40.8884 14.6967 0.560244)
(25.3005 21 0.223025)
(33.3168 11.8142 0.0188859)
(27.3605 12.9779 -0.174534)
(32.1465 6.05072 -0.360801)
(31.0958 5.53768 -0.400124)
(33.9283 1.58091 -0.0767582)
(33.7481 1.36816 0.218152)
(34.7897 -0.575305 0.604524)
(33.9216 -0.905491 0.830435)
(34.9494 -2.27131 1.08969)
(36.2631 -2.42954 1.42341)
(139.591 56.6947 -44.7378)
(48.1497 36.6534 -62.0073)
(146.914 33.2017 14.3354)
(47.4773 23.051 5.23927)
(96.3375 24.2254 12.4759)
(28.9154 38.2955 3.53904)
(57.0876 3.1161 4.91822)
(22.3723 37.6904 2.96753)
(38.4935 11.0768 1.23415)
(24.9709 26.5028 0.348655)
(34.3476 9.92539 -0.629124)
(30.623 14.2288 -0.498002)
(37.3296 3.18263 -0.200068)
(38.0945 4.19462 -0.183227)
(42.3924 0.203805 -0.0740675)
(42.4248 0.829935 0.316028)
(42.4347 -0.680369 0.687723)
(39.6427 -0.672287 1.01964)
(38.6136 -1.58112 1.57407)
(38.4563 -2.0543 1.52601)
(125.149 188.69 -76.3584)
(34.1005 100.106 -10.3762)
(130.098 80.8652 -1.30647)
(62.7798 45.8239 -3.63638)
(103.895 41.5787 -0.0391249)
(41.6701 65.6082 -2.67616)
(61.4494 32.6967 1.59764)
(31.538 33.7475 6.51281)
(34.9814 22.9732 1.94072)
(26.4336 21.2712 -0.538594)
(33.8287 14.5597 -0.866881)
(34.0486 9.19255 -0.745192)
(42.0353 3.00002 -0.401669)
(43.3023 -2.02572 1.07605)
(44.0003 -2.76089 -0.316288)
(44.9341 0.449013 -0.506306)
(42.1721 1.52188 -0.116354)
(38.4086 3.00241 0.940992)
(36.8398 1.57725 1.21436)
(37.4657 -0.939604 1.10755)
(-39.7368 -107.106 -103.972)
(-116.297 6.31969 81.0873)
(98.8862 30.0456 10.6207)
(-1.27289 38.0829 2.77903)
(71.7119 40.5592 9.62908)
(34.4445 59.7037 -1.93569)
(59.0807 51.0934 -0.423209)
(40.3526 39.3165 4.82534)
(37.5978 31.1886 2.32712)
(33.074 20.2081 -0.541831)
(38.3485 13.992 -1.48426)
(40.7854 6.13006 -1.46681)
(45.0599 0.263481 0.101282)
(43.7571 -3.26886 0.911168)
(41.0717 -2.56332 -0.128399)
(36.9591 1.64551 -1.41886)
(35.2356 4.30442 -0.783202)
(33.1048 4.46099 -0.214671)
(33.869 2.46639 0.000629416)
(36.2923 -1.62226 0.77848)
(166.654 -137.265 128.461)
(73.188 -27.9121 -21.5714)
(112.066 27.9691 1.93444)
(15.1024 54.3888 -1.26912)
(68.4056 64.9448 9.32262)
(26.5235 53.2254 -2.51562)
(46.4049 58.1214 0.346262)
(44.496 47.4221 2.9266)
(45.9374 31.2828 0.773688)
(48.2981 20.3276 -0.286928)
(50.1 12.559 -0.634313)
(49.8499 5.89997 -0.111082)
(46.1076 3.49813 0.74548)
(43.7699 0.874274 -1.4251)
(41.8807 -2.90463 -0.531821)
(36.0271 4.07648 -0.681225)
(34.9475 4.6976 -0.340747)
(33.8482 4.32591 -0.379779)
(35.2616 1.23007 -0.105454)
(37.0451 -2.34652 0.67835)
(57.0532 -26.1857 88.7118)
(-136.059 33.7888 -3.8986)
(58.2224 66.9914 -10.9218)
(-74.1251 61.5305 5.45277)
(40.9484 60.4801 4.3236)
(-11.6362 57.5928 -1.06794)
(25.8535 51.4886 1.09324)
(41.5927 39.4718 1.36831)
(49.038 26.7565 0.754283)
(50.6348 18.992 0.678977)
(49.9807 13.4448 1.04836)
(49.1563 9.10407 -0.386941)
(49.2344 6.69788 -1.37597)
(48.9355 2.2152 -1.17592)
(44.2949 -1.97681 1.14099)
(36.2622 5.93054 -0.636812)
(35.7633 6.39097 -0.415926)
(34.5643 4.67664 -0.322701)
(35.4104 1.34756 0.305443)
(35.8149 -2.28415 0.901164)
(47.0767 -117.846 93.1929)
(-86.1975 -59.17 -8.54205)
(63.7861 4.49462 5.05078)
(-32.1164 52.3956 3.69891)
(50.2515 55.5912 5.23369)
(2.25607 35.6165 -1.76783)
(37.7023 30.2838 -0.626147)
(46.7611 27.6748 -0.14825)
(51.0391 21.8446 1.94598)
(49.1884 18.5606 0.601397)
(48.0402 14.9717 -1.04342)
(46.7598 10.7792 -1.46537)
(46.4883 7.08621 -0.709145)
(44.3503 1.74441 0.985452)
(34.9201 3.08362 1.14209)
(29.8699 7.46922 -0.66091)
(31.3888 5.88562 -0.0914886)
(30.793 4.52816 0.26565)
(32.767 1.66469 0.843938)
(34.0468 -1.60922 1.24735)
(30.0739 -48.7205 43.6619)
(-147.813 16.4186 -33.7448)
(54.9695 36.2179 -13.1965)
(-54.7427 47.5752 8.35016)
(60.7078 50.0172 2.0441)
(-2.92889 -13.5735 5.26957)
(50.3906 31.1064 3.61489)
(31.6651 19.9964 1.1339)
(49.9977 27.0894 0.832195)
(35.9661 20.3363 0.790765)
(43.4295 16.5601 0.0331075)
(36.4328 10.0681 -0.185846)
(38.1026 7.34998 1.02617)
(28.2319 4.64402 2.80315)
(23.5139 7.67037 0.346143)
(26.0331 5.76559 0.139534)
(26.3268 4.0113 0.0650912)
(27.7639 2.3106 0.345933)
(29.6875 0.257383 0.855073)
(32.2211 -2.54653 1.34414)
(-27.2632 -12.0456 34.0752)
(-106.339 -45.3125 -43.6084)
(27.7606 -20.5025 -19.4424)
(-66.6334 11.9027 3.94966)
(59.3277 16.0774 -1.77849)
(-19.1401 5.11514 1.22666)
(34.416 54.5803 -1.79157)
(-7.31044 -4.60283 0.801064)
(26.2838 36.4553 -1.36076)
(8.69939 4.4621 0.642806)
(26.4565 21.1551 0.144866)
(16.6445 5.01509 0.901622)
(24.3813 12.5299 0.680365)
(21.0421 4.4331 0.676936)
(25.1723 7.02553 0.416344)
(24.8139 3.58531 0.39707)
(28.0364 2.95146 0.365918)
(28.5232 1.11574 0.511651)
(31.506 -0.779986 0.820029)
(34.3823 -3.3015 1.2762)
(89.4682 -2.40184 75.7339)
(25.8428 -6.38689 -1.97925)
(80.6696 30.3081 -25.8072)
(-34.0084 12.5315 -5.57142)
(56.4604 21.997 -2.58575)
(-37.9357 2.25354 -0.838393)
(38.983 30.3332 -1.37771)
(-9.45698 5.51437 0.55831)
(24.9747 22.3301 -0.965206)
(6.46155 7.90472 0.729003)
(22.7706 14.7542 -0.198657)
(15.0692 7.01545 0.378948)
(23.6586 9.54416 -0.0374938)
(21.504 4.98768 -0.125991)
(26.2312 4.42119 -0.28467)
(26.998 1.84933 -0.275865)
(29.9385 -0.149652 -0.449396)
(31.0702 -1.4909 0.0415408)
(34.0853 -3.45434 0.515549)
(37.7709 -4.73614 1.15739)
(97.9472 -11.9159 214.165)
(-15.2418 -28.3071 -5.68748)
(80.6874 47.1592 -25.8726)
(-32.6178 8.00218 -3.18599)
(62.0384 30.7586 0.247789)
(-24.4093 6.80176 -0.255774)
(42.5197 31.6593 1.2284)
(-7.3683 5.67774 -0.0904286)
(32.0738 23.153 -0.281798)
(6.32399 6.00586 -0.148324)
(28.2685 13.2582 -0.519948)
(16.5123 3.90788 -0.503469)
(28.3302 6.16323 -0.507143)
(24.2797 1.38826 -0.691299)
(30.755 1.67636 -0.704381)
(29.9359 -0.572718 -0.849868)
(33.7152 -1.94697 -0.964718)
(34.3098 -3.59328 -0.745852)
(38.1756 -5.48382 -0.0766315)
(42.1125 -5.96803 0.91894)
(125.638 -104.997 -53.3607)
(-172.251 52.5309 82.4045)
(92.482 39.4228 -12.6206)
(-61.2537 17.3123 11.8628)
(71.4347 34.8479 1.26229)
(-28.7326 10.3118 0.993652)
(46.8559 24.9492 -0.236885)
(-5.12124 11.439 -1.50106)
(35.9444 14.2445 -2.04098)
(12.8782 8.76239 -1.5441)
(35.1259 7.79337 -0.962211)
(26.0282 5.34712 -0.507151)
(37.644 3.61014 0.293727)
(34.3906 2.02018 -0.0856269)
(40.0149 -0.204962 0.0727363)
(38.6602 -1.80847 -0.787844)
(40.9308 -4.99171 -1.24672)
(40.5854 -6.47347 -1.36899)
(43.4731 -8.94646 -0.652338)
(46.3023 -7.97156 0.592)
(-51.855 -20.3652 -160.729)
(-179.742 11.1361 -3.66748)
(27.1847 -18.5327 -8.62632)
(-68.3621 3.64555 10.3595)
(68.0939 20.3279 -1.21927)
(-11.9812 15.2766 -1.16715)
(60.1838 19.5142 -0.716903)
(22.4887 12.3113 -3.64384)
(58.5055 10.1214 -1.96308)
(43.0667 5.0355 -2.7966)
(61.2241 2.53483 -0.97336)
(53.9 0.218442 -1.28075)
(62.0826 -0.648292 -0.0108884)
(57.3987 -1.22592 -0.373344)
(59.8387 -1.25199 0.363694)
(56.2072 -1.19893 -0.0200949)
(56.2411 -3.36936 -0.132079)
(52.4498 -5.63104 -0.740016)
(53.5688 -8.35414 -0.769533)
(54.0308 -7.7586 -0.0359629)
(427.218 -170.126 -157.309)
(83.5273 -78.608 -36.7343)
(96.9615 -44.1866 2.73363)
(-6.26315 -31.5452 -0.261034)
(82.1982 -3.95818 2.0274)
(21.7134 4.40297 -0.29263)
(75.474 5.71132 2.42589)
(47.058 5.56888 0.496424)
(74.238 1.83016 2.94506)
(59.4711 1.78801 1.56985)
(72.2469 0.312024 2.98287)
(63.2879 1.9275 1.53981)
(68.8426 2.00979 2.02251)
(64.2211 3.27348 1.11076)
(67.0295 3.01204 0.972923)
(64.8735 3.00173 0.176329)
(66.0625 1.36617 -0.278845)
(63.8425 -1.57778 -1.23008)
(65.6757 -6.71147 -2.95357)
(64.4053 -6.55048 -2.40686)
(97.2735 86.6941 2.92701)
(45.8673 104.145 170.055)
(148.655 29.2615 71.5304)
(12.1531 -4.58356 24.7379)
(108.069 12.2022 15.7122)
(51.4536 9.4023 6.06166)
(97.9211 10.9127 5.84289)
(78.2537 9.4953 2.21599)
(101.286 7.86361 2.22969)
(91.6587 6.38422 -0.340687)
(102.352 4.24732 0.360959)
(95.7404 2.90518 -0.729456)
(99.7662 1.3251 0.464228)
(95.4747 0.824687 0.570952)
(96.8272 0.5585 2.04388)
(95.3964 1.93855 2.95069)
(97.3225 2.6192 3.44751)
(98.2414 2.73362 2.77586)
(101.021 -0.390009 1.06461)
(96.1903 -3.02452 -0.139327)
(425.136 -292.094 -130.639)
(55.5806 -24.8245 -32.2915)
(170.663 -8.64904 -8.70526)
(104.568 -5.15691 2.33998)
(145.525 -2.83384 11.94)
(117.53 -4.19764 3.63162)
(124.399 -0.84687 -0.175352)
(105.507 0.00517271 -4.89855)
(105.45 2.27028 -5.01033)
(91.6355 1.61609 -4.63431)
(89.722 1.43839 -0.991055)
(79.8439 0.627855 -0.541613)
(79.1289 0.337829 0.800796)
(74.425 0.129195 0.369744)
(74.6338 0.37409 0.539814)
(72.7502 0.71482 0.300295)
(73.0845 1.11222 -0.012437)
(71.8224 1.38632 -0.700348)
(72.3635 3.09049 -1.24693)
(69.6231 3.39747 -0.103191)
(136.04 -7.25264 -56.7058)
(8.09866 34.6953 -6.74901)
(128.402 29.629 0.000596938)
(37.5015 13.8357 -6.15162)
(94.1783 29.1445 3.47214)
(43.4341 11.8422 -0.230325)
(70.9558 20.7992 0.18274)
(42.8758 10.1803 -2.98978)
(57.5445 12.35 -0.346104)
(41.4494 6.02602 0.339374)
(48.7982 6.23267 2.51805)
(39.8976 3.54954 2.00539)
(43.8241 3.9116 1.73394)
(38.8296 2.94458 0.424244)
(40.7224 3.17822 -0.306577)
(37.7467 2.54313 -1.23063)
(38.368 2.37531 -1.64523)
(36.6044 1.72293 -2.23105)
(37.9305 1.71307 -2.32874)
(38.7767 0.834466 -0.374231)
(129.59 114.21 -243.451)
(-114.972 -35.6828 -26.1203)
(122.928 -8.18654 -18.0042)
(-19.0996 -0.580605 3.2186)
(81.0597 17.9509 1.57505)
(7.26263 11.5948 0.698853)
(58.414 14.982 0.572132)
(19.4183 11.7441 0.123203)
(45.0791 9.7554 1.01746)
(23.9541 9.68268 0.994925)
(36.0865 7.32844 1.17449)
(24.381 7.73333 0.568608)
(30.4503 5.54905 0.206499)
(24.1278 5.26704 -0.248416)
(27.3887 3.50636 -0.384831)
(24.4897 2.741 -0.422942)
(26.3834 1.58969 -0.431323)
(25.3196 0.912054 -0.432183)
(27.3649 0.503553 0.211546)
(29.0394 0.153733 1.53449)
(168.621 -145.983 -88.7099)
(13.7523 -11.9989 -11.9496)
(134.234 -17.7222 -6.85932)
(0.0181377 17.423 -3.19018)
(74.3303 20.635 -1.53962)
(4.1305 20.2393 0.541591)
(51.9488 17.8544 -0.105681)
(13.1926 16.6477 -0.102918)
(38.1337 12.7801 -0.000810121)
(16.9477 12.7465 0.264696)
(29.2782 9.27473 0.414486)
(18.5936 9.02408 0.406475)
(24.9618 6.0263 0.21362)
(19.9004 5.38921 0.158691)
(23.2194 3.11681 0.0422618)
(21.0038 2.53029 0.130912)
(22.8607 1.19347 0.12862)
(22.1485 0.664867 -0.0200256)
(23.926 -0.215059 0.564571)
(25.3516 -0.623142 1.55816)
(185.666 164.672 -68.9471)
(4.36972 66.3926 -50.4045)
(82.5744 22.3679 -18.6187)
(-34.299 24.2429 1.27378)
(69.0487 18.6329 0.131015)
(-8.39565 22.008 4.01608)
(52.1383 11.3014 0.934709)
(8.50237 21.4684 0.922098)
(37.8245 9.77375 0.271915)
(14.5258 17.4023 0.439621)
(28.3643 8.36684 0.113616)
(16.7287 11.9415 0.204471)
(24.0205 5.39188 -0.0960599)
(18.6188 6.64102 0.0259543)
(22.6942 2.90501 0.0855424)
(20.6841 2.82401 0.244928)
(22.7584 0.694797 0.226621)
(21.8548 0.0539131 0.228837)
(23.8685 -1.302 0.731352)
(25.2082 -1.45085 1.57616)
(79.2337 87.2124 -105.904)
(-10.8532 35.3227 -39.2159)
(80.3513 50.4852 -22.5405)
(-13.2264 22.7754 0.4514)
(69.8118 14.1718 6.24385)
(-10.937 31.0681 3.42511)
(48.8986 9.74458 1.43019)
(9.00699 25.7641 1.60342)
(32.2666 11.951 0.170329)
(15.3687 19.5787 0.40725)
(24.8725 9.63021 -0.215701)
(18.2343 11.931 -0.112879)
(23.4179 5.12477 -0.369283)
(21.6943 5.62414 -0.229319)
(23.9849 1.99049 -0.0624619)
(23.2429 2.21949 0.266428)
(24.1975 0.275039 0.518568)
(23.6209 -0.0836713 0.632318)
(25.2709 -1.62419 1.07225)
(26.5477 -1.90043 1.81327)
(162.548 -56.688 150.969)
(-86.3278 -8.80176 -57.9022)
(106.932 21.7874 25.6968)
(-10.2443 22.6519 1.76206)
(74.9301 26.7037 11.67)
(0.781528 38.0727 2.91626)
(41.7582 -1.28006 3.54753)
(7.57186 38.1351 2.72256)
(28.1346 7.81053 0.688885)
(14.1831 24.8913 0.304204)
(24.7716 6.8759 -0.78675)
(19.9777 13.0228 -0.473111)
(26.6236 2.03822 -0.473296)
(25.5996 4.87454 -0.0354012)
(28.6993 1.19493 -0.152591)
(27.6117 2.24097 0.29296)
(27.694 0.573265 0.67038)
(25.7892 0.378998 0.774214)
(26.793 -1.02523 1.43169)
(27.7372 -1.67424 1.99926)
(256.72 -80.8034 -1.77668)
(134.413 49.4072 4.386)
(140.57 58.4468 13.6937)
(40.2311 43.0842 -1.35141)
(86.1603 43.53 3.14592)
(14.8081 67.7153 -2.47691)
(38.625 24.1864 1.58707)
(14.0619 37.3607 4.8714)
(23.3137 16.6283 1.28447)
(17.1844 20.3263 -0.720718)
(24.9851 10.1172 -1.38424)
(24.4172 7.76418 -0.727657)
(31.1636 1.35768 -0.0637224)
(31.068 0.656159 1.15983)
(30.4841 0.384128 -0.100628)
(30.2811 3.04453 -0.0680853)
(27.5872 2.69437 0.218423)
(25.6941 2.72858 0.766454)
(26.4434 0.87867 1.10849)
(27.7413 -1.18309 1.67128)
(-44.9028 -0.0586642 -123.086)
(-144.07 28.9094 8.30127)
(72.4467 41.4208 -5.55767)
(-48.1953 39.9737 2.4374)
(48.7341 41.9075 5.52217)
(4.543 63.1767 -1.12215)
(29.4882 43.0802 -0.373271)
(19.4676 33.0921 4.87814)
(27.5453 23.9834 1.39018)
(25.4826 15.565 -0.955161)
(30.5639 9.35769 -2.03594)
(31.067 3.35442 -1.51821)
(33.655 0.104127 0.172368)
(33.2382 -0.913142 0.699025)
(31.3934 1.56694 -0.393766)
(26.0758 3.73226 -0.76653)
(24.9029 4.26563 -0.360959)
(23.7008 3.41305 -0.0780683)
(25.122 0.729389 0.255434)
(26.7378 -2.06912 1.24324)
(216.825 -27.4589 -21.4935)
(-35.6547 4.29313 -10.4068)
(81.9571 43.3364 0.701814)
(-28.0587 54.2694 -1.27903)
(53.5075 56.2924 6.06896)
(4.56371 49.2652 -1.7329)
(28.0382 50.3052 0.810756)
(32.1245 36.3368 2.82566)
(36.1148 23.7941 0.507074)
(37.7445 14.9129 -0.695398)
(38.4684 8.12024 -1.07916)
(37.0597 3.68107 -0.51758)
(34.8282 2.61253 -0.314872)
(33.0898 0.762557 -1.1159)
(30.5778 1.44917 -0.294071)
(25.4062 4.78026 -0.128562)
(25.2097 3.78402 -0.10745)
(24.5319 2.649 -0.254915)
(26.0456 -0.8275 0.349634)
(26.8275 -2.60294 1.14759)
(135.777 -135.689 -93.4279)
(-198.412 40.3432 2.74451)
(35.4033 67.338 -14.1431)
(-94.2615 55.1425 6.80032)
(24.5876 49.1308 1.63397)
(-23.0328 47.2968 0.708572)
(17.9546 41.8666 1.43405)
(33.1331 31.3656 1.7405)
(38.8601 21.4647 0.900194)
(39.9849 15.3075 -3.13285)
(42.4735 10.5611 1.23209)
(40.1342 7.48971 -1.04834)
(37.347 4.48685 -1.45317)
(35.8732 0.209288 -0.47757)
(32.0761 2.47387 0.452489)
(25.8102 5.16556 -0.0331976)
(25.6709 4.48294 -0.0511003)
(24.4414 2.15249 0.0166636)
(25.3309 -0.564428 0.72037)
(25.3614 -2.60968 1.21752)
(85.8965 -227.705 -52.5069)
(-168.014 -13.6522 -12.5778)
(43.3123 15.0763 -4.05014)
(-62.1044 45.2981 5.33279)
(36.7126 42.0503 2.37884)
(-11.445 20.9465 -2.3377)
(28.7353 21.413 -0.546033)
(35.3114 23.5221 0.420267)
(38.5799 19.8535 2.00519)
(37.6401 15.6475 0.521389)
(36.5423 11.8541 -1.2242)
(34.3892 7.99132 -1.50483)
(33.0347 4.29549 -0.337176)
(30.0955 1.36818 1.56248)
(26.1028 4.74716 0.208419)
(21.1922 6.18422 -0.0840497)
(22.5889 3.8068 0.179726)
(21.4401 2.46758 0.364979)
(23.3404 0.0105441 0.977448)
(23.8876 -1.98228 1.33333)
(68.3393 -179.335 -33.5617)
(-159.815 14.6561 -29.5487)
(27.3169 27.8455 -14.9937)
(-74.262 38.4205 10.4645)
(48.1424 38.2626 -0.163322)
(-23.3898 -19.3143 5.9201)
(32.538 32.9095 2.68728)
(11.7491 18.6323 0.481721)
(31.2857 24.9049 0.830514)
(19.8324 15.5305 0.541171)
(28.4873 13.4885 0.00519519)
(20.8637 7.10064 0.28844)
(22.841 6.31455 1.68857)
(17.8105 4.48817 2.15978)
(15.9222 6.99997 0.366)
(18.5564 4.77808 0.0463908)
(18.3874 3.00168 0.123734)
(19.3131 1.45354 0.320297)
(21.0923 -0.354388 0.893086)
(22.3705 -2.49453 1.27715)
(-26.5301 38.7946 -25.8801)
(-104.639 -45.388 -53.8268)
(13.8996 -18.9011 -15.8799)
(-74.7351 9.16932 2.39199)
(47.7947 13.4226 -2.3382)
(-32.48 4.66665 1.77394)
(21.2986 51.9362 -2.5006)
(-19.9539 -8.10841 1.246)
(14.8231 33.5239 -1.611)
(-3.92939 0.597345 0.771681)
(15.0386 19.1949 -0.178413)
(5.06721 2.71021 0.788274)
(14.526 11.104 0.176046)
(11.7107 3.07794 0.335222)
(16.3704 6.25695 0.152573)
(15.9715 3.04196 0.13381)
(18.9433 2.66417 0.183783)
(19.1147 1.00381 0.303191)
(21.9505 -0.840396 0.770724)