/*--------------------------------*- C++ -*----------------------------------*\
  =========                 |
  \\      /  F ield         | OpenFOAM: The Open Source CFD Toolbox
   \\    /   O peration     | Website:  https://openfoam.org
    \\  /    A nd           | Version:  10
     \\/     M anipulation  |
\*---------------------------------------------------------------------------*/
FoamFile
{
    format      ascii;
    class       volScalarField;
    location    "1";
    object      nut;
}
// * * * * * * * * * * * * * * * * * * * * * * * * * * * * * * * * * * * * * //

dimensions      [0 2 -1 0 0 0 0];

internalField   nonuniform List<scalar> 
12920
(
5.20649
8.14894
3.16218
3.40083
1.37903
0.873746
0.646924
0.679442
0.682413
0.67032
0.587932
0.412645
0.213332
0.104243
0.0547774
0.0246528
0.00771447
0.00186728
0.000381651
5.90697e-05
3.47157
11.0615
6.34047
5.27512
1.83522
1.09873
0.512896
0.47692
0.413242
0.417806
0.356789
0.251426
0.134642
0.062201
0.0250869
0.00818199
0.00196566
0.000418986
7.90524e-05
1.42027e-05
7.53132
14.0295
6.74167
6.07358
2.73132
1.82732
0.667004
0.313061
0.172975
0.145624
0.0973955
0.0581707
0.025989
0.00922318
0.0026686
0.000691999
0.000148646
3.26829e-05
1.01372e-05
6.24612e-06
0.062453
2.76911
3.57544
3.72577
1.65238
1.30256
0.644268
0.326977
0.104176
0.0416417
0.0157828
0.00684956
0.00219334
0.000646572
0.000167233
4.46425e-05
1.37068e-05
7.5739e-06
6.37779e-06
5.98627e-06
3.1322
3.93881
3.30825
4.91896
0.984696
1.07349
0.268066
0.14746
0.028179
0.00813056
0.001566
0.000471581
0.000111038
3.46602e-05
1.29433e-05
7.98214e-06
6.60505e-06
6.31057e-06
6.20725e-06
6.00746e-06
0.438656
3.56065
2.10331
4.1547
0.741649
0.480412
0.0530351
0.0214796
0.0030726
0.000879947
0.0001559
4.36795e-05
1.43663e-05
8.7443e-06
7.26858e-06
6.76362e-06
6.51746e-06
6.40058e-06
6.34481e-06
6.11324e-06
13.0752
10.493
2.84217
4.70375
1.23868
0.579281
0.111314
0.0287099
0.0015347
0.000258129
6.57469e-05
2.39365e-05
1.7146e-05
1.10502e-05
8.23362e-06
7.24099e-06
6.63269e-06
6.44991e-06
6.33881e-06
6.10306e-06
5.87839
11.4319
5.30628
4.19876
1.6226
0.965951
0.152821
0.00741048
0.0001571
5.17586e-05
0.0005177
0.000112828
1.18565e-05
7.34815e-06
1.64129e-05
1.00017e-05
7.51848e-06
6.49426e-06
6.10711e-06
5.81575e-06
5.23773
13.1122
5.70697
4.52792
1.63063
0.360219
0.0767491
0.00971148
0.000160619
0.000723008
0.00864339
0.00484635
5.34195e-05
2.27078e-06
1.39526e-05
7.07036e-06
5.70555e-06
5.40973e-06
5.38728e-06
5.32044e-06
0.586899
5.94846
5.86926
5.92754
2.80972
0.681303
0.058386
0.014627
0.000467721
0.000419564
0.00558483
0.0162088
0.00818772
5.98226e-05
1.99654e-05
8.12067e-06
5.51389e-06
5.03383e-06
5.0238e-06
5.05646e-06
3.50094
7.17507
4.3278
5.64714
3.0808
0.827892
0.126037
0.0193307
0.0106917
0.000463326
0.0049556
0.0263407
0.00794795
0.000265802
3.0297e-05
8.54298e-06
5.57556e-06
5.03397e-06
5.01396e-06
5.05323e-06
6.90876
9.49225
3.53135
3.18326
2.17103
0.761741
0.167812
0.0450621
0.0216386
0.019834
0.0174854
0.0261239
0.00128472
8.07232e-06
1.15271e-05
8.33424e-06
6.53866e-06
5.8449e-06
5.61223e-06
5.44769e-06
20.8064
16.4573
5.35757
3.62963
1.76072
1.48361
0.42296
0.250684
0.110006
0.051202
0.0530651
0.00813403
0.00116923
5.96926e-05
8.81529e-05
2.24332e-05
9.75476e-06
6.88386e-06
6.12121e-06
5.78421e-06
2.6971
5.6943
3.69852
3.17844
1.86223
1.58574
1.00686
0.81764
0.627761
0.548478
0.450234
0.3026
0.132015
0.0369356
0.0061954
0.000831834
0.000103763
1.78465e-05
7.53203e-06
6.11549e-06
4.49461
8.16851
3.34929
4.87942
1.90849
1.93516
1.12616
0.920421
0.677122
0.53849
0.412859
0.280588
0.121945
0.0369411
0.00846813
0.00164004
0.000278032
4.94945e-05
1.23735e-05
6.72807e-06
2.79173
7.15872
3.45394
5.25415
2.74695
2.52157
1.25901
0.735345
0.371024
0.22395
0.182924
0.170444
0.0990728
0.0429749
0.015467
0.00447451
0.00101376
0.00019383
3.34773e-05
9.02302e-06
2.83505
7.46571
3.20432
5.60089
3.55217
3.40318
1.18908
0.563109
0.150467
0.075098
0.0555165
0.0587514
0.0525304
0.0337078
0.0120764
0.00320911
0.000628481
0.000102416
1.77569e-05
7.03385e-06
0.482041
4.85079
4.85988
7.47732
4.42955
3.39436
1.69025
0.986832
0.384921
0.175681
0.0758999
0.0421059
0.0212373
0.00844485
0.00217766
0.000421739
6.77357e-05
1.37797e-05
6.83272e-06
5.94669e-06
1.19171
9.65295
5.40409
7.21744
2.29173
1.29778
0.666059
0.523544
0.227149
0.109745
0.0336658
0.0101964
0.00255098
0.00058535
0.000110076
2.19956e-05
8.06463e-06
6.28248e-06
6.03304e-06
5.89182e-06
2.31973
6.27879
2.37571
2.90074
1.25492
0.893438
0.386707
0.207228
0.0790167
0.0311061
0.00794532
0.00189548
0.000328387
6.21608e-05
1.40087e-05
7.01718e-06
5.73605e-06
5.64283e-06
5.59463e-06
5.48273e-06
14.8036
18.5466
18.3411
17.6091
8.63654
6.76735
5.08837
5.50258
4.77239
4.34316
3.48318
2.84881
2.0263
1.13798
0.610135
0.304208
0.0869579
0.0172626
0.00285664
0.000364921
14.1095
35.1033
38.0249
24.3981
17.6367
12.763
8.16724
4.22219
2.10162
0.804857
0.497234
0.320068
0.30259
0.341929
0.39252
0.170798
0.0422562
0.0112623
0.00810748
0.00131295
15.1834
35.1204
40.1424
30.3254
19.3084
14.3298
9.35339
4.26845
1.24677
0.393574
0.234225
0.158928
0.115747
0.0905777
0.0779193
0.0364299
0.0108598
0.00239226
0.000544821
0.000170051
2.25039
30.1552
38.6504
30.1002
16.7449
12.8479
11.3075
8.29948
4.89613
1.78928
0.349312
0.0818087
0.0190526
0.00963264
0.00518553
0.00210876
0.000630142
0.000226232
0.000135646
0.000106002
14.1473
20.1334
23.7257
22.0549
12.7165
7.77716
4.76519
4.1207
1.73787
0.472704
0.0995869
0.0150677
0.00281137
0.00105536
0.000483824
0.000239805
0.000143701
0.000113352
0.00010462
9.89984e-05
4.57588
19.5512
14.02
18.3062
15.9734
5.32494
1.01646
0.476847
0.108514
0.0405811
0.0086266
0.00230559
0.000726189
0.000334158
0.000193053
0.000138188
0.000115562
0.000105695
0.00010152
9.82161e-05
35.5286
32.9436
16.7892
21.0826
18.2522
5.96463
1.09596
0.316036
0.109631
0.0208766
0.00319728
0.00102031
0.00055501
0.000280125
0.000184155
0.000139431
0.000118378
0.000107458
0.000102453
9.85831e-05
33.4727
33.6707
24.2067
21.6805
17.9999
10.8236
1.11447
0.223239
0.0595182
0.0153969
0.00813361
0.00586363
0.00248516
0.000933339
0.000337275
0.000206657
0.000151255
0.000124076
0.000110737
0.000101917
42.5807
44.8411
34.2565
19.7793
8.74056
4.91333
0.982174
0.159183
0.315981
0.104585
0.0597191
0.0622999
0.0146114
0.00197876
0.000207251
0.000121646
0.00011679
0.000111701
0.000107783
0.000102072
9.92995
31.4491
41.6939
32.922
17.1438
4.82778
1.5074
0.148501
0.0599154
0.102463
0.558467
0.60114
0.221604
0.00969689
0.000477693
0.000129764
0.000114492
0.000108709
0.000104992
0.000100463
10.5598
23.4446
30.8012
31.4263
22.5194
12.8078
5.781
2.58653
0.461068
0.0342784
0.412892
0.289532
0.349684
0.0394502
0.000673285
0.00013978
0.00011321
0.00010627
0.000103735
0.000100136
28.5065
32.1019
27.768
23.435
18.7554
15.7991
11.9754
6.34597
2.19271
0.884014
0.775077
0.629458
0.216585
0.00217184
0.000312423
0.000143605
0.000124037
0.000114425
0.000108992
0.000102476
59.8122
48.2144
35.8227
23.5612
17.9546
12.0444
8.95592
6.37493
3.27769
2.0438
1.19893
0.426106
0.0574516
0.00326121
0.00146772
0.000489918
0.000216451
0.000137332
0.000112377
0.000101676
6.87144
31.9818
29.3638
22.7492
14.7647
12.359
8.07738
7.01758
5.98216
5.39395
4.01078
2.2889
0.957279
0.378303
0.104393
0.0177409
0.002892
0.00056944
0.000192269
0.000117256
6.44044
28.4171
26.154
20.5152
15.293
13.173
10.1649
8.48302
7.62399
6.09328
4.23988
2.75007
1.51251
0.538326
0.156174
0.0497379
0.0150039
0.00337536
0.000659915
0.000178714
3.64081
22.4162
24.8345
22.9009
16.8007
9.57032
7.79764
3.72291
3.07647
1.69728
1.6496
1.32798
0.704355
0.30105
0.148365
0.092366
0.0336784
0.0123548
0.0019763
0.000308713
10.8247
23.5923
29.637
27.3764
18.8797
3.76942
2.4573
0.7678
0.628916
0.292195
0.330674
0.329
0.294634
0.202063
0.0777771
0.0230693
0.0134774
0.00318172
0.000428527
0.000136466
3.39004
19.3063
31.6862
33.1774
25.5962
8.22395
4.42883
1.12502
0.748879
0.405604
0.334468
0.186506
0.11061
0.0461814
0.0284414
0.00788888
0.0013225
0.000264555
0.000125866
0.000102015
1.7723
25.854
30.3828
25.7324
15.2799
6.22418
3.12242
1.06843
0.827197
0.235386
0.139725
0.057812
0.0171566
0.00389082
0.00100378
0.000277029
0.000138097
0.000108701
0.000102211
9.99437e-05
2.88714
8.42097
10.6872
13.5744
5.73357
4.00266
1.54222
0.703712
0.181553
0.0625193
0.0141712
0.00354461
0.000643428
0.000132012
3.20056e-05
1.67897e-05
1.37512e-05
1.36146e-05
1.358e-05
1.3506e-05
4.62067
23.0341
18.9356
20.6592
9.97527
8.46391
6.76731
7.02666
5.50841
4.57301
3.61092
2.95956
2.34649
1.88568
1.2455
0.655259
0.221598
0.0411612
0.00521497
0.00052503
36.7574
43.839
46.7761
34.256
24.9989
19.1928
13.6608
7.98436
3.7961
1.81049
1.10042
0.871635
0.973306
0.736104
0.857044
0.729519
0.237325
0.106354
0.0224536
0.00181171
24.0144
51.1383
52.9769
41.2836
29.1997
21.4106
13.6418
7.00475
2.73829
0.734507
0.200584
0.113158
0.126391
0.190901
0.25776
0.176664
0.0491699
0.00804001
0.00113538
0.000208778
14.0258
42.1259
54.5892
43.607
30.2831
24.3814
17.8285
11.2849
5.82144
1.90724
0.346921
0.0576051
0.0241955
0.025235
0.0223023
0.0106313
0.00278106
0.000587418
0.000177598
0.000108125
28.4013
36.3255
47.5395
35.8953
22.9404
13.3986
5.95049
3.88025
1.21144
0.271737
0.045021
0.0101051
0.00423311
0.00324299
0.00186902
0.000829046
0.000294294
0.000140152
0.000106689
9.85021e-05
13.927
45.5244
39.5193
34.9631
23.4311
7.4268
2.16634
0.808661
0.31076
0.0921742
0.0214088
0.00568131
0.00166572
0.000690639
0.000316825
0.000178921
0.000124114
0.000106168
0.000100726
9.77012e-05
29.1919
58.3932
43.0378
36.1861
23.481
8.17349
2.47521
1.99018
0.864398
0.182318
0.015548
0.00233745
0.000661193
0.000309211
0.000199002
0.000143291
0.000118391
0.000106465
0.000101528
9.80214e-05
19.0769
59.4104
52.9235
42.4508
29.5694
16.3817
2.29444
2.14798
0.832043
0.0496208
0.0284474
0.00813411
0.00229829
0.000762886
0.000984286
0.000891252
0.000366352
0.000167403
0.000116511
0.000101984
57.8492
60.0592
53.8705
32.5359
13.6571
9.96527
2.04563
1.59898
1.96451
0.811121
0.199711
0.0777902
0.00505562
0.000649659
0.000157919
0.0138273
0.0139941
0.00766973
0.00187664
0.000364764
23.187
53.6101
59.0808
42.0417
20.0819
5.83918
2.28156
0.465389
0.483834
1.12268
0.659697
0.265274
0.0955229
0.00345738
0.0002757
0.0225084
0.0226243
0.012727
0.00315977
0.000563468
28.8868
47.2444
50.2545
42.0118
28.942
10.3884
4.24851
2.21521
0.255444
0.159377
1.29162
0.979219
0.266714
0.00937269
0.000399189
0.0212767
0.0227778
0.0137352
0.00350225
0.000623216
39.356
46.8559
43.5008
36.8625
32.5677
26.8584
20.9467
9.06388
1.649
2.32438
1.31731
0.999129
0.186521
0.00192176
0.00032152
0.0135262
0.0143615
0.00871995
0.00233151
0.000457452
28.7733
59.5523
47.3014
35.8194
32.7064
25.2595
19.5698
13.754
7.62635
3.93067
1.9667
0.669
0.0485774
0.00202924
0.000976714
0.000405557
0.000200611
0.000129716
0.00010782
9.9686e-05
35.1285
51.5303
45.5022
34.4614
28.6394
21.5928
15.3572
10.6828
6.7615
4.9503
3.40261
1.76075
0.799682
0.187424
0.0290286
0.00402518
0.0006861
0.000211629
0.000123061
0.000101708
38.744
42.2652
33.7269
26.2175
20.8524
15.0822
12.5022
8.48813
6.19848
4.1142
2.82765
1.56102
0.561282
0.129658
0.02731
0.00723449
0.00232178
0.000701346
0.000230766
0.000119908
37.4581
46.4263
38.3213
28.347
17.1753
8.69587
7.75517
4.62833
3.02503
1.24209
0.730414
0.28584
0.101671
0.0365261
0.0216621
0.0142685
0.00689891
0.00211504
0.000517171
0.00016184
22.4251
40.7269
44.3739
33.8405
17.2304
3.7742
2.55863
1.04692
0.597331
0.186066
0.0933225
0.0372254
0.0355641
0.0372551
0.0233161
0.00755127
0.00171198
0.000371193
0.000140724
0.000102599
14.9519
29.2175
41.282
42.3231
24.7477
4.89823
1.39652
0.306357
0.0972998
0.0418853
0.0421316
0.042749
0.0289581
0.0112167
0.0030788
0.000680657
0.000208305
0.000118122
0.000100993
9.68676e-05
17.9785
39.2778
37.6181
27.9633
13.9361
3.87375
1.50095
0.542274
0.30769
0.115646
0.0310503
0.00683634
0.0015972
0.000508638
0.0002478
0.000149439
0.000116433
0.000104947
0.00010126
9.95613e-05
2.75369
16.2333
9.3127
13.4889
4.71881
4.31306
1.2384
0.659118
0.159599
0.0609729
0.0150677
0.00382999
0.0006488
0.000120764
2.83794e-05
1.60288e-05
1.36468e-05
1.36047e-05
1.35782e-05
1.35091e-05
1.00623
17.3995
17.3703
17.8461
9.98138
9.79391
8.50068
8.46529
6.47022
5.02696
3.7428
2.9357
2.28811
1.97545
1.61082
0.952018
0.367565
0.0846155
0.0112164
0.00108106
28.84
51.956
48.4227
36.8099
29.5053
26.0609
20.0877
14.159
8.81842
4.88388
2.65479
1.33314
1.08544
1.56282
1.81296
1.57786
0.744383
0.243297
0.0405032
0.00473742
79.0462
62.7418
59.6094
46.159
34.7207
27.2024
18.8786
12.3359
6.81235
3.24981
1.48404
0.727133
0.438128
0.334343
0.332157
0.2337
0.1095
0.0341217
0.00672355
0.00148619
33.1204
64.9389
63.4069
51.0865
37.0734
29.4622
20.4642
12.6283
5.40228
1.5828
0.369305
0.111181
0.07129
0.0677968
0.0583917
0.0373998
0.0166796
0.00485104
0.00138618
0.000657273
35.8352
64.2546
59.9433
44.0274
28.2069
16.2263
7.74054
3.87016
1.37355
0.419405
0.110311
0.0351575
0.0196248
0.0178467
0.0139445
0.00946851
0.00429233
0.00137602
0.000655675
0.000531994
33.7879
59.4284
56.5843
45.837
29.5063
12.1238
8.15359
4.06481
1.79682
0.603929
0.165187
0.0388453
0.00957418
0.00382536
0.00195395
0.0011694
0.000614311
0.000420797
0.000388935
0.000410131
85.9891
72.5239
60.8171
46.8233
28.7247
12.6602
9.27897
7.13908
3.0636
0.884089
0.157782
0.0288451
0.0189168
0.00533516
0.00563511
0.00273252
0.000938845
0.000539632
0.000465375
0.000457748
60.4241
65.5429
69.3048
54.1801
35.1494
19.8315
10.4545
5.9674
3.21076
0.254445
0.031534
0.00671388
0.00361888
0.00403347
0.317996
0.213233
0.104283
0.0439046
0.0165096
0.00497575
44.8318
72.5833
66.0534
36.8345
13.861
11.7098
5.72314
3.70951
3.00701
3.65608
0.220035
0.0043432
0.000487493
0.00360848
0.045583
0.862417
0.755943
0.47618
0.225712
0.0783983
45.6287
73.6464
71.6612
43.2083
17.253
4.84283
4.87712
1.92554
1.28576
3.77695
2.83702
0.248537
0.00441695
0.00111637
0.118851
1.01901
0.893941
0.576407
0.279403
0.0986282
45.8051
68.7593
63.3354
47.3836
29.6303
12.0471
3.78163
0.6495
0.220511
1.98214
4.02566
1.26541
0.406837
0.0495836
0.128268
1.04252
0.926089
0.61835
0.302034
0.107659
30.2142
63.2594
57.5145
47.2739
41.3517
32.3897
25.2409
12.0589
7.76058
8.2596
4.72007
2.43699
0.145746
0.00218682
0.102561
0.877755
0.767011
0.504504
0.25367
0.0922398
39.2965
58.0557
60.5724
47.3371
43.2987
33.7104
27.6738
19.501
11.8182
4.37582
1.39883
0.19867
0.0103198
0.00441846
0.103648
0.087502
0.0512057
0.0247665
0.0106448
0.00360889
62.145
77.1409
56.5538
44.4312
39.4878
28.9436
21.1953
10.4304
6.02724
3.18511
1.51411
0.636497
0.173247
0.0318324
0.00619454
0.00188213
0.00104403
0.000822474
0.000734058
0.000638963
48.3137
53.3547
39.9492
31.769
28.4351
18.4092
15.6762
8.70287
4.36963
1.82387
0.888979
0.288917
0.0722923
0.0302741
0.0105112
0.00343227
0.0015982
0.00103969
0.000833564
0.000681174
30.0956
40.6385
43.2646
25.9412
18.141
9.3497
10.3995
6.54721
3.17786
1.08004
0.456733
0.170744
0.0713641
0.027225
0.00755773
0.00325075
0.00198796
0.00132582
0.00100354
0.000768403
64.0134
60.7248
53.8437
31.9672
11.5166
3.43231
3.66307
1.6683
0.906584
0.298839
0.168973
0.0756998
0.0227593
0.00681168
0.00318308
0.00167012
0.00112462
0.000875029
0.000798813
0.000697336
25.7423
52.0187
54.1633
43.305
22.5458
5.20154
1.33136
0.515876
0.245175
0.108884
0.054569
0.0191015
0.00641733
0.00281242
0.00157476
0.00102682
0.000872105
0.000785362
0.000752069
0.00069381
59.392
52.4871
42.0768
19.3997
8.39893
2.20843
1.75604
1.13433
0.597834
0.189556
0.0437186
0.0147918
0.0113626
0.00870564
0.00619887
0.00356535
0.00177882
0.00102775
0.000781452
0.000696347
1.78058
12.7383
9.83232
12.6222
2.41174
2.88269
0.823739
0.490719
0.1621
0.0673779
0.0164468
0.00371649
0.000566155
0.00011798
5.01736e-05
2.95488e-05
1.98058e-05
1.58253e-05
1.45135e-05
1.37347e-05
0.428513
15.7131
6.81078
6.66322
3.92199
4.4936
3.83558
3.93313
3.22591
2.52905
1.79814
1.1989
0.840907
0.675539
0.525949
0.335704
0.151767
0.0415744
0.00665113
0.000725972
29.6121
44.7313
25.1555
21.1617
14.4131
14.1268
10.7548
9.65594
7.83542
6.07289
4.80527
3.79143
3.11757
2.36747
2.21182
1.98813
0.867795
0.269659
0.148778
0.105102
60.455
71.6547
41.8953
45.3144
17.2746
14.9582
10.3006
9.07259
7.58578
6.29026
5.60485
4.90708
3.22818
1.6654
1.09181
0.570384
0.250681
0.131847
0.103651
0.0866562
43.4712
58.3244
43.8711
29.3013
17.1041
13.7188
8.93129
5.85811
4.54644
3.62443
2.93918
1.13631
0.553366
0.330466
0.225181
0.133948
0.0920521
0.074645
0.0707612
0.0682731
81.0822
74.5409
60.3218
45.7395
14.5849
15.1695
5.92597
4.23223
3.71927
3.12545
1.52819
0.528782
0.237412
0.132879
0.0956195
0.0738396
0.0674642
0.0651861
0.064636
0.0654614
61.617
71.6175
40.5715
32.293
14.4282
14.4752
7.58235
6.10724
4.20798
3.31976
1.01775
0.262988
0.0942493
0.0574309
0.048224
0.0466908
0.0470599
0.0501849
0.0522512
0.0569365
44.52
80.3912
43.4799
35.005
14.2974
10.9265
8.13002
7.60008
3.92483
2.05563
0.687264
0.26691
0.428705
0.246199
0.164214
0.0918877
0.0702737
0.0630459
0.0614548
0.0610444
78.86
66.826
42.3335
46.2406
17.937
12.2698
17.4203
11.6813
6.49712
1.18677
0.940079
1.10155
1.30163
1.29633
3.2242
2.16557
1.32181
0.748076
0.41904
0.194509
94.587
86.3532
38.399
36.3481
8.15229
15.9011
16.0348
10.062
7.06401
6.64327
3.72672
3.36227
3.70008
3.72407
4.46094
3.44162
3.04728
2.93654
2.13098
0.880001
76.7976
93.7036
50.6177
39.5111
8.83886
10.1222
9.72937
5.99682
7.83173
9.11911
5.69748
4.53943
4.78353
4.96513
5.43967
3.53852
3.07324
2.95415
2.45356
1.01332
19.6057
77.7989
46.5435
47.8678
13.0023
14.479
8.3861
4.29051
5.04634
7.76544
6.06611
5.30619
5.96733
5.56741
5.65176
3.55132
3.09096
2.96846
2.58004
1.0728
29.3214
58.843
29.0197
30.2542
17.8243
32.4638
25.4472
14.5656
12.5667
11.1988
6.57
5.74268
4.98118
5.04393
5.33507
3.45778
3.0879
2.98135
2.31216
0.989774
78.7165
84.2945
31.7266
35.5825
18.5052
15.2207
28.2524
17.6471
9.93277
5.24602
2.41866
1.38429
0.946348
1.37988
1.92404
1.30097
0.888482
0.551609
0.341143
0.173734
105.31
94.9966
36.5395
31.5897
16.5095
12.6211
8.95389
4.73009
3.99138
2.23202
1.23716
0.502318
0.286448
0.143829
0.110706
0.0971663
0.0941598
0.0894369
0.0843274
0.0766741
77.6316
60.2606
23.1571
36.7203
11.7778
13.4325
8.36811
5.50399
4.25639
1.99677
1.07499
0.46517
0.261135
0.151452
0.120857
0.110592
0.108785
0.101934
0.0916678
0.0800265
48.845
59.5564
22.9169
26.7291
8.22542
9.02021
7.36531
5.12128
4.39794
1.83152
0.955236
0.396761
0.264568
0.16122
0.145879
0.12805
0.126939
0.118581
0.105265
0.0876867
24.5668
63.3662
32.203
28.4315
6.36638
5.01875
3.90087
2.31174
1.66496
0.703924
0.424183
0.189246
0.162471
0.126434
0.124971
0.116108
0.109775
0.0997549
0.0918087
0.0820525
63.923
57.5907
36.0762
41.7431
7.1354
3.91863
1.80429
1.08272
0.612837
0.288887
0.232127
0.171388
0.158206
0.127657
0.116518
0.098956
0.0941133
0.0885473
0.0853701
0.0809862
20.0086
50.3574
17.7605
11.6272
2.55565
2.2492
0.988038
0.349215
0.158549
0.174392
0.214561
0.13301
0.110179
0.0909076
0.0865011
0.0803836
0.080435
0.0784672
0.078672
0.0780217
7.00507
11.1453
3.52425
3.4458
0.486691
0.364928
0.168664
0.10497
0.0390273
0.0136968
0.00282218
0.000545641
0.000123501
0.000103877
0.000181376
0.000258067
0.000384592
0.000326863
0.000264401
9.5611e-05
0.608797
0.161927
1.00464
3.02927
1.96545
0.417987
3.39199
0.31825
1.02439
0.697799
1.96996
0.440719
3.33479
1.05105
1.32018
2.61196
2.84608
1.05914
3.7501
6.99623
5.30923
0.618548
1.90427
0.962414
3.37266
1.03108
3.83217
1.6544
0.0222931
0.0462541
0.0278259
0.69558
0.333697
0.582935
0.167074
0.000256533
0.0164404
0.00140461
0.110248
0.0860404
0.175904
0.0724094
0.000518546
0.00048086
0.00029252
0.138839
0.0846974
0.0500558
0.0789641
0.00751447
0.000612569
0.00395893
0.0689032
0.0429923
0.0641873
0.287362
0.00691701
0.00636358
0.0142877
0.0503707
0.0459462
0.272791
0.205345
0.000202066
0.0145306
0.00999297
0.0455568
0.0260493
0.238219
0.145072
2.71091e-06
0.004695
9.30875e-05
0.016147
0.00353557
0.104981
0.0137388
1.60385e-06
2.49156e-05
1.72578e-06
0.00232568
0.000486599
0.0061019
0.00169009
0.0229196
0.123967
0.0265862
1.47578
0.426983
2.86912
1.56081
0.00132526
0.0169598
0.00768108
0.223737
0.0695307
1.39587
0.462187
0.000161184
0.00344025
0.00010428
0.0413161
0.0547223
0.167083
0.0247606
0.00371755
0.000101537
0.00133741
0.0553719
0.358462
0.0212163
0.194701
0.0151015
0.00414347
0.0238604
0.393949
0.296621
0.192742
0.152838
0.0137352
0.0251666
0.0146339
0.268499
0.191571
0.145311
0.251123
0.000258771
0.0101376
0.00099655
0.147396
0.0250276
0.26315
0.0764681
1.19322e-06
0.000276204
4.24973e-06
0.0100276
0.00177138
0.0325254
0.0024521
0.0302007
0.136951
0.0391373
4.00451
2.35878
6.24562
5.00968
0.0121529
0.0276537
0.0142657
1.88353
1.24037
3.88147
1.74319
0.00108047
0.012274
0.0102865
0.595218
0.0735766
1.48097
0.7067
0.00110051
0.0104917
0.0136068
0.0335439
0.125104
0.518879
0.404095
0.0254624
0.0147699
0.0270506
0.0999727
0.200361
0.425151
0.4314
0.0118254
0.0255127
0.00471249
0.198692
0.341962
0.53692
0.367255
0.000891067
0.00179518
4.81599e-05
0.330048
0.0789349
0.194662
0.0092462
4.5751e-06
1.69064e-05
2.11834e-06
0.0342608
0.0022125
0.00367409
0.000613139
0.0627536
0.184303
0.102471
7.29372
6.49945
6.34917
6.70186
0.0257941
0.0893891
0.0567028
5.02001
2.33828
6.5424
3.79856
0.0195086
0.043794
0.0229182
2.03853
1.12792
2.82573
1.58675
0.0191069
0.0165457
0.0125244
0.957467
0.766878
1.15795
0.829585
0.0281731
0.0127312
0.0116845
0.529046
0.492451
0.813436
0.989922
0.00374984
0.0103996
0.00110004
0.599274
0.369711
1.03925
0.383145
2.5236e-05
0.000331963
9.13298e-06
0.158634
0.00872222
0.143619
0.00689955
2.22545e-06
3.77715e-06
2.30045e-06
0.00231303
0.000487859
0.00196525
0.000339609
0.387449
0.490617
0.185081
1.64371
0.525174
0.918237
0.673349
0.308836
0.179967
0.107232
0.979197
1.50356
0.619591
0.725537
0.144809
0.11233
0.201845
1.49314
1.03997
0.725745
1.08157
0.0466956
0.113619
0.388615
0.45743
0.230504
0.854943
0.417112
0.0680893
0.444582
0.470556
0.245787
0.164039
0.45405
0.359056
0.0244199
0.449553
0.238866
0.0934235
0.0129478
0.366732
0.191008
0.00325479
0.143569
0.0134705
0.00727597
0.00144421
0.1056
0.00865339
0.000386288
0.00573662
0.00112032
0.000810718
0.000240352
0.00359848
0.000323275
0.274888
3.8165
1.97565
2.02305
0.367347
3.67847
2.30521
0.0629201
1.62736
0.367787
0.419412
0.456455
1.99674
0.283505
0.139866
0.188677
0.0281316
0.49107
0.833759
0.148049
0.0994292
0.459723
0.0256214
0.427466
0.609179
0.531727
0.0924564
1.02464
0.622599
0.497139
0.315754
0.624768
0.503704
1.12132
0.98719
0.341958
0.26454
0.320781
0.494432
0.290391
0.896042
0.578876
0.0254341
0.31229
0.0826853
0.179608
0.0167615
0.378607
0.0494361
0.00127422
0.0359093
0.0021949
0.00653928
0.000455664
0.0199094
0.00108017
3.23588
9.54591
6.36114
5.56887
3.1266
13.5899
8.05546
0.781853
4.86985
2.15084
2.61185
0.883402
5.8207
1.82992
0.0533198
1.75063
0.650365
0.357198
0.0664017
1.20335
0.7392
0.382154
0.447346
0.327617
0.0721316
1.45309
1.32469
1.65589
0.328818
0.376543
0.493254
1.43975
0.821591
1.17009
0.731053
0.363253
0.596235
0.480332
0.854452
0.619743
0.766886
0.454205
0.0874763
0.251425
0.0127635
0.402785
0.0476082
0.210186
0.00891141
0.00217721
0.00501413
0.000682751
0.0194947
0.00117802
0.00354787
0.000698858
8.40951
11.3763
9.27936
18.9529
11.9758
20.0899
16.5233
2.64329
8.63051
5.1667
8.54735
2.29351
14.8831
8.69798
1.013
3.99911
2.50958
1.52797
1.04802
7.16869
4.12958
0.947263
1.73583
1.06852
1.28232
1.25873
3.63326
2.86714
0.543027
1.05668
1.31232
1.16094
0.854475
2.57376
2.10081
0.474369
1.33605
0.451471
0.885694
0.492195
1.78834
0.424184
0.00699602
0.192394
0.00433289
0.217927
0.00691592
0.141105
0.00234138
0.000531917
0.00113886
0.000254856
0.00245778
0.000609925
0.00071201
0.000233553
0.920838
1.68427
0.971024
3.89508
2.35647
5.75149
4.16725
1.88375
0.785629
0.724284
2.10807
2.47936
2.72148
0.632528
1.60728
0.680812
1.57517
2.6092
3.35802
0.805887
4.50591
0.188214
1.46813
0.476153
2.73979
0.341653
4.43381
1.66233
0.139365
0.468408
0.166952
0.133891
0.0161085
1.25075
0.17625
0.00872575
0.159424
0.108169
0.00933574
0.00167411
0.0741102
0.00383663
0.00105761
0.0519305
0.00446379
0.00118717
0.00039688
0.0019905
0.000477842
0.000228907
0.00186707
0.000244913
0.000315345
0.000195997
0.000356527
0.000203643
0.621044
2.7673
2.13551
4.03255
3.20741
2.23267
0.718244
0.488405
1.84585
0.208994
1.88286
0.487182
0.510519
0.133411
1.33993
0.121081
0.129316
0.720658
3.82542
0.118388
0.165437
0.513496
0.616467
0.460296
1.82193
0.371185
0.985856
0.736476
0.918947
0.624017
0.872156
0.842845
0.789811
0.73575
1.14434
0.170886
0.934747
0.436732
0.198986
0.0118605
0.923102
0.18436
0.00857941
0.253118
0.0246739
0.00429707
0.000673443
0.0922237
0.0062342
0.000301128
0.00996501
0.000733493
0.000473865
0.000261431
0.00262439
0.000666963
2.4454
14.5067
8.23659
3.31189
0.876028
16.9303
9.6597
0.61808
5.79796
1.51291
0.585849
0.168149
6.95258
4.31349
0.0776708
1.07075
1.79408
0.126012
0.456386
4.53632
6.85408
2.86836
0.356361
0.28494
0.264715
1.31865
0.207425
0.7463
2.54175
1.12485
2.86032
0.256155
2.0686
0.21396
3.47034
0.487
0.966453
0.378763
1.18205
0.237285
1.58562
0.317288
0.0239424
0.153369
0.00587456
0.136752
0.0161405
0.120509
0.00572391
0.000815051
0.00273208
0.000746694
0.00609239
0.000656949
0.00371985
0.00106716
12.7882
23.4201
18.4505
24.3867
14.9509
29.4394
22.8231
2.25737
16.446
9.63032
11.2876
6.19045
20.4884
13.1319
2.04945
7.90982
4.47292
6.04769
7.1005
11.2533
7.24033
1.51592
3.91732
3.37992
7.06849
4.39308
6.4746
3.94368
0.978557
3.28737
2.25323
3.27199
1.90229
3.62216
2.9809
0.461619
1.92617
0.384599
1.96107
0.35158
2.50808
0.13351
0.00515198
0.115346
0.00171877
0.103851
0.00212187
0.0302438
0.000810801
0.000602453
0.000578669
0.000228057
0.00136469
0.000649148
0.000454282
0.000294145
4.19641
7.07815
4.92985
14.0526
10.0651
10.7025
7.14156
2.79169
2.98209
0.977235
8.6095
5.96831
5.2253
4.25535
4.11453
1.35065
5.66156
5.8149
6.30237
5.10139
8.74168
0.568484
5.46266
2.60432
6.02153
3.10957
8.53217
5.74624
0.00855174
1.89967
0.220474
2.19834
1.37913
4.71519
3.16563
0.000846637
0.0779086
0.00258898
1.35621
1.52439
2.86073
2.62751
7.35835e-05
0.00132711
0.000649022
1.5811
1.67132
2.55759
2.47681
0.000656519
0.000596823
0.000835845
1.64186
1.41615
2.44103
2.27868
3.42631
2.4366
0.790446
7.80945
5.19648
5.16506
2.50553
0.82005
0.488062
0.208327
4.1983
4.37619
2.05888
2.71981
4.74077
0.209279
0.304654
5.80969
8.27108
2.89407
3.62657
2.94332
0.627181
4.31586
8.03911
6.08981
4.7579
6.08268
0.586578
3.78855
1.35603
5.21931
3.6749
5.31091
3.88741
0.0127453
0.905123
0.344464
3.28616
2.85571
3.85676
4.00627
0.00114133
0.286793
0.0362594
2.78843
2.79233
3.98379
3.52229
0.0349852
0.0136142
0.0561708
2.79857
2.65971
3.3615
3.02276
1.01878
18.0356
10.2865
7.20897
3.56678
18.9909
11.3807
0.228524
7.70646
5.56193
2.89459
2.42833
9.7163
8.89454
0.762042
5.98238
7.75219
2.50432
4.56628
9.32447
10.047
4.66537
7.80601
6.06128
6.19642
6.10204
9.89444
6.4057
1.80975
4.76831
2.18275
5.39362
2.95275
4.9694
3.26958
0.451775
1.91643
0.500038
3.249
4.39956
3.64452
3.9723
0.122619
0.305636
0.0348796
4.45907
3.94877
3.90942
3.79226
0.00595393
0.0183036
0.0291611
3.59935
3.0004
3.64729
3.01541
15.4275
30.9149
23.7193
25.8455
16.1067
29.5886
23.8334
7.85678
21.3785
14.4843
14.005
11.708
21.6136
16.0565
8.33036
12.6777
8.90225
11.6262
11.1928
14.5679
10.6019
5.83733
6.79086
3.90136
10.8073
6.85274
8.67216
5.2553
2.61464
3.75795
3.49544
5.66404
4.03982
4.64136
2.22247
0.370056
1.96973
0.0797583
4.14445
3.07119
1.62235
0.631765
0.00397341
0.0197683
0.00194406
2.89598
2.9692
0.650772
1.11476
0.0047183
0.00146174
0.000130087
2.96539
2.767
1.20187
1.08082
11.6806
12.6575
8.26575
7.66491
6.67354
6.97115
7.81133
7.40659
6.71195
6.04904
6.55603
7.1963
7.61495
7.04079
7.02023
6.83815
9.58592
7.10934
5.41819
6.7739
4.36441
4.249
9.29407
6.29079
5.34766
5.14452
3.9142
3.25991
3.34982
5.44648
4.49529
5.36873
5.29876
3.23133
3.48239
3.63111
4.4179
4.59013
5.39499
5.55051
3.80926
5.65513
3.77881
4.61422
4.65291
5.70384
5.67671
5.69481
5.76406
3.2303
4.62701
4.37819
5.76833
5.64895
5.80003
5.84134
6.64224
6.63382
3.9476
6.47132
7.9277
5.35144
7.78744
6.51386
3.77573
5.52141
7.71461
7.25812
7.74376
6.96271
9.45755
5.73772
6.59218
6.42673
4.02915
5.73017
3.13498
6.4788
7.31
6.37704
3.49656
2.66314
2.56072
1.95258
4.67182
5.85703
5.05401
2.62091
2.8355
1.94419
2.04253
4.68982
5.04695
5.35056
3.14992
5.11154
2.28212
4.15045
4.96044
5.49716
5.50807
5.6767
5.75755
5.11334
5.70932
4.66645
5.42726
5.02106
5.80097
5.84078
5.73571
5.71889
4.66871
18.8623
11.7491
5.1989
7.72706
5.33702
6.73506
4.84137
10.4762
10.1136
7.70957
6.84139
6.73831
6.66656
7.16922
10.4072
10.4999
5.58397
2.93898
5.9472
3.74731
6.52262
10.209
7.41813
2.42308
2.02579
3.39566
3.25964
5.22334
5.88378
4.78382
2.04907
2.1493
3.27488
3.29845
5.7691
5.33276
5.66206
2.38564
4.20954
3.54818
5.21398
5.7829
5.7117
5.68921
5.1512
5.71784
5.76762
5.68975
4.99591
5.55605
4.9114
5.73756
5.75112
5.70163
5.67209
16.295
30.6785
23.388
6.09181
6.79318
7.13913
6.52121
12.7065
21.1927
15.763
6.76651
6.86438
6.32315
6.63135
11.7968
14.4737
11.3637
6.89017
4.62788
7.19234
6.37692
7.69587
9.93157
5.30949
4.22279
3.98199
6.22498
6.31677
5.64782
4.76763
3.17064
3.98513
4.04284
6.76125
6.63879
5.03639
2.96475
1.95949
4.2781
5.90149
6.61569
6.3338
5.0569
2.00553
2.7951
5.78621
5.66137
6.39766
5.81564
4.75454
2.92767
2.55457
5.67385
5.7218
5.87426
5.71417
0.687772
0.511529
0.85016
0.821302
0.517485
0.74613
1.14412
0.254318
0.231139
0.144181
0.126514
0.252423
0.2714
0.119792
0.974664
0.969369
0.863891
0.199693
0.728839
1.13995
0.15785
0.69437
2.15782
1.78759
1.03795
1.33923
0.945387
0.997881
1.04598
1.24944
1.74357
2.63666
1.11402
1.72891
1.71263
0.360337
0.319126
0.414916
0.984489
0.307645
0.164784
0.718428
1.43993
0.41743
3.1374
2.191
1.76488
0.352782
2.1223
0.626952
0.447012
0.548828
0.282382
0.625552
0.450313
0.503484
0.826992
0.954342
0.99444
0.207215
0.832913
1.08152
0.158334
0.638403
0.815483
0.642745
0.550326
0.814485
0.750336
0.203763
1.39517
1.27405
1.64226
2.63654
1.07886
1.74065
2.08397
0.894772
0.330255
0.905021
0.743947
0.616112
0.613055
1.29379
1.26442
0.366757
3.02251
2.39107
1.67509
0.259937
2.2193
0.932524
0.639798
1.00065
1.0887