/*--------------------------------*- C++ -*----------------------------------*\
  =========                 |
  \\      /  F ield         | OpenFOAM: The Open Source CFD Toolbox
   \\    /   O peration     | Website:  https://openfoam.org
    \\  /    A nd           | Version:  10
     \\/     M anipulation  |
\*---------------------------------------------------------------------------*/
FoamFile
{
    format      ascii;
    class       volScalarField;
    location    "1";
    object      omega;
}
// * * * * * * * * * * * * * * * * * * * * * * * * * * * * * * * * * * * * * //

dimensions      [0 0 -1 0 0 0 0];

internalField   nonuniform List<scalar> 
12920
(
192.852
161.826
149.748
128.822
90.7038
67.4279
61.6517
62.2541
64.7707
64.6351
61.8583
51.7162
36.8231
24.5328
16.9415
11.0205
6.27298
3.07501
1.33893
0.496783
201.738
220.236
183.519
131.566
94.6347
63.9655
48.7869
44.1586
43.5385
42.7875
40.7753
33.7458
24.541
15.8113
9.79941
5.62661
2.82894
1.29762
0.54906
0.231225
354.414
277.19
198.768
150.43
118.848
86.0666
55.1794
34.9243
27.2266
23.7657
19.7358
14.6594
9.80216
5.71817
3.09755
1.58009
0.738641
0.344072
0.193076
0.154592
37.8922
148.692
154.48
125.638
92.6529
73.154
54.5541
35.4623
20.4447
12.1022
7.47599
4.71142
2.66281
1.41341
0.724482
0.376674
0.214777
0.162687
0.15145
0.149544
140.374
131.168
120.771
97.1765
64.9809
49.3058
32.207
21.2098
10.169
5.0556
2.28325
1.20633
0.595338
0.330405
0.207013
0.164588
0.152524
0.149906
0.149417
0.149309
51.117
117.773
107.493
81.4511
59.0624
30.3759
14.3033
7.76526
3.20705
1.6406
0.696684
0.366516
0.212135
0.16732
0.153855
0.15051
0.149611
0.149378
0.149321
0.149292
265.995
202.811
115.673
92.3159
79.3601
42.0609
20.6641
6.7965
1.8853
0.710248
0.399353
0.245579
0.222944
0.182022
0.162853
0.154336
0.15106
0.149706
0.149147
0.148992
236.707
249.034
194.837
128.994
88.7639
54.5861
65.9398
9.97535
1.42839
0.824881
3.13664
1.46191
0.53336
0.430596
0.234422
0.184025
0.160821
0.150475
0.146219
0.145128
214.893
258.854
199.901
138.746
86.8002
95.8549
134.424
40.4866
4.8385
10.2875
41.7891
31.2332
3.10831
0.699557
0.622528
0.157027
0.141238
0.137807
0.13726
0.138254
85.0056
177.633
194.739
165.254
119.834
148.409
119.692
58.0863
9.91058
9.19645
36.1815
62.9798
43.6575
3.4208
0.746758
0.169101
0.139716
0.133488
0.132906
0.135114
202.927
160.366
158.317
152.123
125.928
172.712
178.867
69.0394
52.9506
11.0122
37.855
80.0086
44.8771
7.4756
0.924574
0.17367
0.140763
0.133804
0.133086
0.135256
273.375
236.12
151.424
125.859
111.901
176.108
231.161
111.689
77.0368
77.6568
70.9364
78.9674
16.9167
1.28986
0.572441
0.171989
0.152245
0.144198
0.14106
0.140752
425.273
324.001
181.459
122.638
99.3579
85.6162
136.084
98.7699
63.3189
39.0082
40.3595
14.7406
5.69233
1.24134
0.538817
0.275676
0.185099
0.156919
0.14822
0.146062
171.126
185.204
158.562
127.647
106.032
90.8171
75.6661
67.4686
61.0833
56.9341
51.4425
40.547
24.8926
11.955
4.75219
1.69937
0.600177
0.250587
0.165679
0.151412
211.743
160.878
138.852
115.772
98.4442
89.5935
77.5238
67.7737
60.7598
53.0223
47.1818
36.786
23.4033
12.4274
5.88477
2.52355
1.0226
0.421972
0.211652
0.158693
185.271
142.314
139.762
135.937
121.104
97.9132
76.5139
51.3804
39.9775
29.7498
28.6653
27.1382
21.2849
13.9385
8.41316
4.42834
2.05598
0.857195
0.350135
0.183749
196.452
144.145
146.96
146.051
137.061
106.691
72.7216
41.0336
24.479
16.2846
15.3296
15.6358
15.4115
12.1453
7.28444
3.63841
1.5733
0.609148
0.252276
0.162384
86.6924
144.849
176.324
175.72
159.033
124.539
94.2987
64.9312
42.1823
26.6489
18.1232
13.007
9.40332
5.73319
2.89849
1.23369
0.493137
0.22229
0.159219
0.150298
99.3499
192.602
190.302
161.125
109.666
71.2524
55.823
43.1703
30.9884
19.1824
11.2436
5.77706
3.0162
1.39421
0.618985
0.274042
0.171552
0.152033
0.149571
0.149293
138.337
129.302
133.399
113.889
88.111
66.0409
45.3665
29.7752
19.1376
10.9986
5.71943
2.61898
1.1195
0.472116
0.231677
0.164186
0.151524
0.149589
0.149323
0.14927
92.4462
90.5072
85.9163
73.4154
56.3786
44.2937
40.8375
40.0974
39.0904
36.7475
33.9306
30.8061
26.8669
20.6717
14.5407
9.11685
4.78369
2.14836
0.853289
0.29358
162.642
138.207
98.9448
78.594
62.4237
44.8777
35.12
34.837
34.1415
33.6676
29.4467
24.9943
19.1262
13.513
9.49112
7.24431
4.81984
2.92319
2.3196
3.04884
215.455
143.783
104.529
80.8628
71.3901
58.3302
45.126
34.8394
26.5995
22.1243
17.7854
14.5543
11.6353
9.46793
7.36537
6.0215
4.85282
4.31263
4.33807
4.9194
116.434
131.783
96.5752
67.1794
58.1495
53.5044
49.2317
43.8035
29.5435
17.2952
11.0844
8.65375
7.2808
6.47471
5.95463
5.52519
5.31579
5.27057
5.34038
5.47343
273.296
110.778
83.8981
58.7778
46.9791
43.2997
34.3356
26.2138
16.3547
12.0609
10.0573
8.42561
7.17537
6.36924
5.94883
5.66577
5.57481
5.53372
5.54309
5.53852
188.312
124.87
91.4046
69.9557
46.9017
28.2588
25.4006
20.0064
16.9412
12.7328
9.77313
7.73102
6.7935
6.2459
6.03317
5.85157
5.73834
5.64756
5.61308
5.55413
195.858
137.377
93.1917
76.3207
54.1193
33.8732
30.6548
22.5698
22.9746
13.2534
11.9839
9.64022
9.17442
7.83914
6.97617
6.35483
6.00863
5.76176
5.65644
5.56157
172.633
179.956
130.086
92.9721
65.7645
41.8039
48.871
24.7563
28.851
23.6614
15.8055
14.9148
13.1564
11.1538
8.71532
7.41962
6.5925
6.08708
5.81805
5.63
332.884
270.945
132.965
93.8073
62.8753
44.7079
53.7207
36.3274
38.9654
34.6009
11.6855
10.7502
15.7525
4.95454
6.41816
6.00095
5.74361
5.58563
5.54216
5.52881
153.126
158.932
117.469
88.3084
62.0086
74.4597
68.4878
47.5118
27.4926
38.2999
42.2126
38.359
21.2688
16.4361
7.10189
5.93293
5.56835
5.45286
5.43936
5.45623
157.95
135.244
108.318
87.5555
64.2621
68.0853
63.9016
44.7663
55.2221
21.3991
44.7831
27.4162
26.8524
17.0421
9.33204
6.04664
5.53218
5.41143
5.40496
5.43796
207.814
159.334
97.232
83.5555
69.5102
66.6488
59.3245
43.664
43.045
40.5616
45.9894
43.7641
18.3892
14.3878
9.35487
6.48052
5.92976
5.66355
5.58277
5.54756
223.447
164.933
99.9367
75.1686
66.0867
61.1332
60.1854
58.6858
49.8044
39.178
33.7765
23.7825
12.512
9.46065
7.63245
6.67259
6.13274
5.8174
5.65951
5.56202
124.518
151.065
103.694
83.0057
74.6124
66.5499
62.418
60.3728
57.6412
55.9719
52.3075
42.5071
24.4182
13.6549
9.14601
6.85696
5.73509
5.32742
5.27078
5.3408
164.692
120.627
81.2559
80.0963
70.7106
65.5883
63.4979
62.031
61.3657
59.5159
53.9663
37.8088
22.7921
16.9285
13.2955
8.96219
5.91727
4.85791
4.88282
5.25076
163.753
133.057
95.1235
92.0746
76.6953
62.285
54.1967
41.2094
38.6518
31.9556
29.7212
25.4905
22.9892
21.04
16.0904
8.8605
4.69138
3.7718
4.10467
5.02627
269.517
129.615
103.149
97.1413
81.1182
66.7583
39.7352
30.2755
25.7137
21.1733
19.8953
20.2552
20.0203
16.4615
9.25475
4.43793
3.11798
3.61289
4.70164
5.24475
193.306
136.796
108.65
95.3549
76.2139
81.0349
62.7261
50.3994
33.4347
27.7762
19.6876
14.4195
9.67396
6.21151
4.43253
4.1233
4.36343
4.97636
5.26995
5.41913
99.1316
133.589
104.385
90.5651
70.5872
71.9861
54.3092
42.9734
26.0014
15.4305
9.20498
6.7129
5.95458
5.70346
5.58846
5.5541
5.51292
5.46071
5.43619
5.4145
46.4392
66.3872
65.9344
56.3078
44.6757
33.2076
21.2438
12.1953
6.86671
3.67333
1.86756
0.870278
0.382656
0.16771
0.0854651
0.061932
0.0572572
0.0567623
0.0568369
0.057251
59.4733
87.9267
89.1382
79.7559
60.217
49.7154
46.7813
45.0822
41.485
37.0585
33.5776
30.1366
28.0894
25.6974
21.2264
14.5132
7.53549
3.08817
1.08964
0.345919
161.329
139.789
95.2987
69.719
57.1902
47.3529
42.7838
40.6575
37.6174
35.159
28.6733
20.8613
15.2661
12.117
9.9678
7.03536
4.16116
2.83891
2.79823
3.73341
195.771
133.806
96.3784
72.3547
61.7388
52.0722
43.1623
35.237
27.2779
23.1105
20.8477
19.3966
15.9676
11.3446
8.09228
6.12759
5.00953
4.84645
5.00226
5.35095
185.199
169.656
109.339
68.095
53.9581
52.0544
49.31
44.1693
29.1597
18.5443
13.5715
11.4391
9.55942
7.97656
6.74502
6.00495
5.73054
5.60709
5.60003
5.56985
178.004
130.106
87.8487
60.3045
46.3929
43.0697
35.001
26.1876
18.4919
15.2643
12.5752
10.2147
8.29469
7.03882
6.35616
5.94196
5.77183
5.65523
5.6275
5.56438
193.204
126.961
90.1379
67.6286
49.3965
31.1392
32.5644
26.9259
22.7109
17.0418
12.544
9.55554
7.98377
6.93216
6.39574
6.03471
5.84276
5.70625
5.64512
5.56559
155.074
131.791
90.4102
68.5158
52.8591
33.5755
40.7904
36.048
27.6959
15.0505
12.5236
10.1386
9.65122
8.12078
7.13916
6.44207
6.05801
5.79759
5.68052
5.57328
188.432
134.501
103.376
82.4888
60.3069
42.4277
49.0079
51.8669
33.4268
24.5181
14.3469
13.205
13.7219
11.8302
8.90543
7.58597
6.70687
6.15671
5.86248
5.64927
273.842
164.973
100.06
76.1568
46.228
38.2849
56.2597
56.5782
47.2307
38.3354
26.857
13.0395
10.2809
7.31758
6.85001
6.32379
6.27661
6.01591
5.76954
5.6174
117.116
142.63
111.014
76.7779
49.0147
41.8953
49.9592
58.0965
42.0651
44.747
37.6826
25.152
27.5647
12.9766
7.10607
5.57358
5.6579
5.53032
5.37788
5.38734
181.189
142.482
97.7586
73.7811
51.6108
50.2411
52.1063
53.8989
38.6115
47.4097
69.1109
48.1034
26.7677
14.7548
9.14955
6.23182
6.10142
5.87321
5.64072
5.5346
132.219
123.881
87.119
69.1773
56.6741
52.1148
47.9036
37.0189
31.9678
38.7524
35.2835
39.8118
17.8256
13.7927
9.58931
6.84453
6.48173
6.08061
5.82508
5.64195
268.167
154.063
92.6095
68.6121
57.3593
53.3115
50.0725
46.4464
42.2102
40.7524
38.8284
23.2811
12.2348
9.36398
7.79679
6.87051
6.27382
5.90763
5.72888
5.59652
206.937
196.388
101.744
71.0447
60.0692
56.5767
51.3355
51.162
50.6714
50.8259
46.9129
34.5359
19.4409
12.4114
9.08557
7.30236
6.39327
5.89792
5.68436
5.56078
274.799
118.486
74.769
70.5764
61.8318
56.9283
56.0293
53.4716
50.0681
45.7512
39.4037
27.0316
18.3942
14.3699
11.8229
9.36874
7.40133
6.26256
5.80269
5.58577
447.078
161.773
83.7376
77.043
59.1565
45.1121
45.7695
39.0673
36.2096
28.4293
23.9541
19.6951
16.8591
15.2421
13.6128
10.9697
8.27138
6.55713
5.89268
5.60621
259.646
136.796
104.451
83.4687
54.7228
31.7393
34.2925
28.7564
27.0356
20.7847
15.4697
12.2578
11.3679
9.92224
7.65666
6.31417
5.86108
5.68584
5.59668
5.52963
231.815
148.712
113.007
85.1104
56.3633
40.7227
28.8544
22.8682
18.3029
15.3558
12.7592
10.5041
8.2377
6.91506
6.16544
5.8667
5.71276
5.61153
5.55149
5.51347
333.889
169.83
97.6226
78.9478
53.9514
57.0195
41.8292
23.7678
14.4159
9.33973
8.11262
7.36309
7.10491
6.54056
6.15363
5.83065
5.64853
5.51461
5.45554
5.41939
60.5206
71.453
67.226
51.0243
38.4998
27.917
18.7576
11.1126
6.46172
3.63203
1.91446
0.893438
0.380082
0.159009
0.0802371
0.0604884
0.05702
0.0567204
0.0568208
0.0572515
26.8692
81.2736
85.7838
75.6248
58.8756
53.251
51.915
49.949
45.3997
39.6209
34.6446
30.0713
27.4455
26.4665
24.248
17.9993
10.2669
4.41162
1.56901
0.49229
213.989
139.948
98.0005
67.6918
62.208
53.7131
53.4615
50.8116
49.6119
46.6121
44.5777
38.525
24.7518
17.7748
16.9112
15.9182
11.9883
5.9835
4.51331
4.80763
295.889
136.332
106.187
70.096
62.7394
53.0954
50.417
45.336
42.0284
36.4806
33.7367
31.8661
30.3985
26.1662
20.4145
17.2145
12.0076
7.71469
6.45711
6.26183
118.017
152.393
138.273
78.2382
61.032
56.1323
52.1551
43.7863
32.3465
25.798
21.2358
18.4471
16.4816
15.6999
13.9584
11.0532
8.32608
6.7949
6.36746
6.21915
166.825
152.513
104.271
65.1864
55.1976
44.3326
38.7577
29.3181
26.7405
21.9827
16.8801
14.0637
11.6434
10.2925
9.12042
7.95625
6.93074
6.38647
6.25258
6.17918
177.879
155.002
109.41
71.2847
57.6109
43.963
45.9989
39.3696
35.1041
26.1647
16.518
11.6213
9.13707
7.85381
7.09438
6.60845
6.31555
6.17048
6.11392
6.08751
246.042
153.8
103.673
70.8023
58.6796
43.8777
48.2034
44.794
40.4952
25.3753
15.1539
10.7309
10.3671
8.69325
7.73658
6.9158
6.51997
6.27953
6.18381
6.11526
259.174
142.201
106.767
81.5101
66.0333
50.4293
49.1228
53.3642
45.3216
26.0791
17.1248
15.8127
14.223
11.9734
15.859
14.942
12.6422
10.251
8.58436
7.13252
230.903
144.323
97.8102
66.0267
46.8379
44.2138
49.4186
52.5194
47.7961
51.1409
20.0005
10.8036
10.4118
9.60203
9.38914
21.0859
20.2499
18.4005
15.1051
10.5262
275.704
182.373
118.257
69.21
46.9003
41.7149
46.1601
41.7446
40.9574
54.9032
53.3752
32.6905
12.2322
8.77223
11.9902
22.571
21.1853
19.1599
15.9011
11.0236
248.353
148.566
100.756
67.4713
51.4442
44.6097
44.6574
38.0336
31.723
49.9481
54.0307
35.5461
29.3323
14.1091
12.835
22.8696
21.5421
19.553
16.2755
11.256
149.867
121.511
87.909
64.8069
57.5236
52.7433
49.8137
42.6392
46.3304
49.713
42.4351
38.2149
17.6607
14.3965
12.9383
21.9885
20.7205
18.6228
15.6698
11.021
141.1
167.217
102.931
65.5557
58.9069
53.415
50.2128
49.2958
44.5437
48.3801
34.0481
18.1216
12.001
9.92485
12.4921
12.1093
10.9156
9.30168
8.12606
6.97822
280.911
225.226
115.94
67.8226
60.6929
54.3736
52.6488
49.8085
41.4013
37.4486
28.259
19.6718
13.2564
9.97631
8.09829
7.17628
6.76718
6.49817
6.36762
6.23722
227.876
122.453
73.9927
64.4395
59.5709
50.5218
50.4556
43.9036
35.7956
27.0795
21.4235
17.153
14.6371
12.9589
9.97232
8.38684
7.44573
6.80659
6.49506
6.27858
178.168
130.806
83.6286
61.5773
56.0149
46.0241
49.7032
43.7056
38.325
32.2511
25.8977
19.6258
14.913
11.6044
10.283
9.29851
8.17825
7.16065
6.66397
6.35546
355.77
148.41
110.112
69.5919
45.275
35.5246
45.4542
37.4014
38.3048
33.4948
25.6549
15.4877
9.98669
8.30306
7.57377
7.05655
6.75959
6.50234
6.37303
6.25781
217.773
155.577
126.161
85.1666
52.3229
28.5247
26.8261
20.0471
19.1835
17.426
15.0485
11.6975
9.59931
8.21377
7.36851
6.81212
6.55429
6.38968
6.32065
6.25203
470.372
234.792
98.7759
57.4816
38.9006
32.9105
29.7617
18.7389
10.6069
8.9893
9.45809
10.475
10.9736
10.462
8.76727
7.41546
6.71799
6.35646
6.22259
6.15416
67.6
80.9244
64.4828
39.0536
27.7622
21.4228
15.7837
10.5431
6.74967
3.91065
1.99269
0.871383
0.352305
0.157419
0.107455
0.0819399
0.0684251
0.0610339
0.0586841
0.0577041
26.1346
76.6035
75.8742
63.7477
58.0726
56.1655
55.5545
53.5464
50.9661
45.2187
39.4497
32.6154
28.1177
26.3354
23.7761
18.4246
11.2801
5.29177
2.03317
0.67011
233.025
135.625
117.329
74.345
92.4181
73.2768
83.8165
75.266
82.6798
78.5043
80.0822
75.5485
71.2695
60.6294
60.6393
57.6454
54.606
54.747
57.6212
62.6979
366.489
147.954
120.038
71.2993
84.8631
65.6684
76.7103
68.8351
76.8215
72.857
76.0179
72.5807
72.9972
67.7476
66.9572
65.0054
65.439
64.8093
65.1313
65.6571
233.19
203.186
164.485
82.8488
86.4125
65.4485
73.3095
59.3798
63.8177
58.4392
60.3162
55.8749
55.2694
53.892
56.3678
57.9925
60.5733
61.2377
62.6095
63.5278
188.78
151.49
121.146
73.8462
76.4236
56.8539
65.2344
50.9518
60.0213
52.7677
55.1893
52.1148
54.4696
54.4503
56.583
57.7063
59.9497
60.7814
62.0268
62.7389
312.607
175.393
133.93
77.8404
80.5273
59.0415
72.3841
57.6923
60.8478
54.4923
49.8249
47.9011
48.3846
50.365
52.5419
54.8803
56.7436
58.1945
59.3897
60.7225
253.409
178.412
136.137
78.5599
85.0669
60.9589
75.8837
58.9771
55.8912
44.7024
40.8049
38.9489
43.1503
44.6647
49.048
51.3185
55.0849
56.6606
58.3968
60.0322
431.8
207.317
131.027
83.7611
93.502
72.9254
69.882
64.9001
59.1359
39.9021
36.9291
37.9785
42.8829
43.8417
55.5675
53.6579
54.308
56.1198
57.5545
59.2649
310.83
162.951
124.996
79.6675
78.438
66.931
74.8331
69.7127
69.7774
63.7313
60.0059
60.3782
62.1329
62.9173
63.75
55.743
53.0397
53.4693
54.6666
56.8975
260.217
211.076
147.61
80.9711
77.366
62.6596
69.5965
71.9456
72.3611
75.6277
60.6925
60.2136
63.2445
64.1272
64.0149
56.2679
53.082
53.3988
54.4743
56.9716
210.966
158.239
126.744
76.1198
76.6433
60.2928
54.6178
60.5691
72.9436
70.2225
66.8696
67.6838
64.7741
64.7926
64.1276
56.4114
53.2119
53.5231
54.5762
56.9424
157.847
138.424
108.912
73.5284
79.5034
61.6198
60.5725
63.7886
69.3481
72.6469
75.4939
76.4659
65.7196
63.9991
63.7218
56.3136
53.8452
54.2204
55.3274
57.5127
356.481
238.429
130.661
73.2999
82.8284
61.3527
62.2362
62.4497
59.4394
57.9753
55.4357
53.1895
48.6103
53.4203
59.5945
57.2501
57.6718
58.7258
59.6278
60.387
249.096
218.926
149.566
82.6883
89.4017
61.8787
80.6767
54.5816
65.1057
49.9448
52.4166
49.9104
54.8197
56.7882
58.5677
58.3743
59.363
59.9849
61.2271
61.7458
292.617
153.441
95.7381
90.3527
80.0312
58.8516
83.5228
57.1152
66.6876
53.0121
56.7122
55.4145
60.2761
59.9075
59.2165
57.8233
58.5721
59.6433
61.462
61.9246
235.588
127.695
100.108
88.0295
81.3048
56.8198
79.9807
57.0044
68.9897
57.0316
61.9799
57.7996
61.813
59.7976
59.7955
57.622
58.2728
59.6439
62.3714
63.0073
186.911
156.436
127.078
84.0692
79.1749
49.7519
65.1278
46.0443
60.8872
50.4225
56.868
51.9468
55.1922
52.5685
54.3164
54.8957
58.3541
60.2034
62.338
62.6592
319.946
144.567
136.919
83.2712
76.4841
41.5649
45.5361
28.6796
43.8731
42.0822
52.7546
50.8173
55.6273
54.5481
57.9131
58.3865
60.9964
61.6057
62.9236
63.1412
320.171
173.286
120.806
83.4627
68.274
38.2372
42.6371
20.7073
16.6146
15.4849
33.9025
37.8496
49.7434
51.4436
57.8686
58.421
61.0079
61.2649
62.2973
62.6379
110.8
81.2226
62.6614
34.0969
20.4036
14.9468
11.6129
8.41299
5.42707
2.93553
1.36204
0.557798
0.277198
0.250595
0.342318
0.402522
0.496698
0.453605
0.408206
0.24634
39.3727
50.4771
59.4914
53.6513
48.2684
36.3575
57.8155
27.2997
59.8822
56.5828
48.4598
37.5876
54.5954
41.8709
69.7435
45.5058
40.8889
43.5717
56.6302
50.0677
44.0248
55.9067
35.1756
33.6956
52.1711
42.5634
40.3331
35.0627
66.823
103.118
79.7344
68.1138
67.3931
64.5681
54.8668
6.42228
60.1207
16.8249
38.4384
24.2532
56.0182
31.0836
8.51025
9.83422
7.52847
34.7898
34.8645
25.5476
35.8817
36.5728
10.5782
29.2501
30.3267
19.2939
32.0267
43.9226
37.0124
38.6669
58.1014
19.5632
15.0384
42.9505
28.6232
5.88863
58.7955
47.8226
15.2732
16.4501
26.49
17.1053
0.744384
31.6918
4.26619
16.452
6.4086
16.6773
16.9489
0.605198
2.22885
0.635485
4.60804
4.85886
15.424
5.48604
75.1707
177.34
80.7857
73.5935
78.1379
75.7509
59.4472
16.6045
64.2793
43.5953
65.2184
30.8293
58.3993
55.7858
5.8699
28.6121
4.95554
22.8495
33.1645
38.4905
16.7898
27.9683
4.9537
18.751
33.0146
43.9841
19.9121
42.6928
60.8578
33.1849
75.4314
43.6436
31.9379
42.0769
38.6576
57.9685
78.5241
61.1665
29.3689
20.1265
32.8958
26.4435
7.12398
50.7964
14.6804
19.4439
17.8883
25.5754
20.3008
0.529316
7.54512
0.954432
16.3226
5.88535
18.9961
9.47282
86.3136
188.164
98.5766
70.1617
53.358
63.8037
44.7822
56.4532
82.5557
59.9695
51.5746
52.5806
40.5802
34.5684
16.7034
56.2953
54.5141
51.3891
17.9008
34.5619
33.4565
18.6732
55.8686
65.5403
18.0152
29.9318
31.511
27.9519
77.1647
66.3865
78.521
32.6397
49.6462
31.3333
54.3367
54.9775
77.8835
33.3856
45.3557
31.2908
46.1648
28.251
14.0254
20.2326
3.14682
27.5059
19.4786
19.5486
16.0309
0.989727
1.89354
0.706556
18.328
11.0226
16.5384
13.0887
133.629
265.329
193.692
71.4774
54.4514
83.5857
71.7633
83.6702
181.009
135.606
49.6083
46.4584
68.5642
68.89
76.6258
115.222
75.3142
46.4447
42.2512
71.0813
75.0126
77.331
61.6091
53.5898
42.5313
46.5807
69.4585
43.0327
80.1812
53.1608
50.619
51.6946
58.5262
39.7001
38.7994
29.4517
48.185
15.3949
46.8054
28.4254
40.5044
21.4998
2.2513
8.30717
1.3469
19.0292
8.77507
13.7513
5.92921
0.721739
0.886926
0.71634
11.1457
12.6157
5.69283
6.517
62.4496
55.5943
48.5366
50.4574
45.9702
47.4434
75.3912
36.0732
48.1271
33.9044
44.6366
47.3862
61.9321
41.3405
33.4124
33.0486
38.1063
45.301
37.6155
40.1723
39.6241
12.7593
38.8836
44.8498
35.4642
33.0943
45.3264
34.9314
10.1666
43.9421
33.1246
32.5391
16.7037
32.6487
27.1052
15.1073
32.6694
21.4012
13.9898
14.7974
28.544
32.0108
6.39704
17.5651
16.9897
13.5719
6.68093
28.4101
17.0786
5.68852
15.4226
6.7048
6.77697
7.29357
13.0789
8.06972
64.3431
70.2837
53.9355
54.9877
58.151
62.8306
55.2097
28.6463
55.3271
56.9435
59.5454
40.3949
56.8311
38.0775
37.2607
34.081
23.429
38.7386
36.8381
35.2315
31.7899
42.3295
27.1282
44.1243
42.7791
38.2342
40.0476
48.7939
38.581
44.9033
30.1987
36.3562
31.53
51.6559
58.0876
25.9335
25.1112
23.7398
32.3439
32.7724
54.8091
35.7542
17.8175
24.5375
19.8957
29.1677
18.5221
30.5147
17.0331
7.09973
18.1335
10.7077
14.8416
8.39841
15.2582
11.154
46.9225
54.7635
41.0876
58.1062
52.6812
46.0969
37.8523
58.2414
37.8841
34.0069
53.2382
51.2006
35.3051
32.743
21.6911
34.5842
33.4351
38.5885
29.2334
32.9596
33.4116
42.6049
30.9953
28.6286
39.4327
51.7343
39.1088
36.5317
32.8546
29.5536
42.6589
54.4028
58.0242
31.8513
33.2096
27.561
40.7616
27.4371
50.7591
34.6011
37.9736
23.9331
18.8282
20.1029
15.2352
29.5999
16.8613
18.8017
15.3417
11.7689
14.9571
12.9685
15.1114
11.7229
14.4771
11.8421
47.9845
68.9155
65.2632
49.019
40.3622
56.5895
52.1105
41.7957
63.0195
61.5878
37.2222
32.6703
50.6274
49.9049
40.3613
62.025
67.2234
32.3507
32.9896
50.4108
50.4351
44.0385
67.1205
43.5808
34.3987
36.401
50.2772
46.8299
49.1781
41.2098
40.0096
37.2794
38.6875
43.6408
42.4971
27.4862
40.6535
22.456
39.8218
23.708
43.8358
18.4297
12.7178
15.5145
9.26735
18.1519
14.1821
13.7807
9.92394
13.063
8.62344
7.75737
14.023
12.2601
9.2078
8.15768
55.4078
56.37
66.5266
52.6245
62.0895
45.6539
51.4944
51.9542
73.0802
52.9973
59.4629
48.2135
49.3052
35.3073
41.2903
42.4884
42.1214
47.0381
49.3405
36.314
56.9335
26.6903
45.7364
34.9606
48.6223
24.9451
56.9675
46.3788
15.8706
32.4575
23.5489
21.4705
12.544
45.0404
33.4899
11.618
23.7911
30.4284
11.1315
10.1601
25.637
13.0267
7.14764
26.6519
14.1696
10.0999
9.21651
12.3098
9.88638
7.34794
11.2934
8.04811
8.65006
7.45628
9.0833
7.30355
55.7708
56.4123
55.3316
43.039
46.7718
40.9297
44.0985
53.1588
55.7686
41.4412
42.8091
32.6581
43.3823
31.1303
39.8329
41.995
41.321
34.4273
55.3726
30.0626
32.1765
44.4278
45.0712
41.4424
48.9991
44.9046
46.3471
45.0987
48.8858
36.1672
45.9282
41.1251
44.7188
39.2752
50.1885
30.4011
48.2147
32.8328
33.1137
13.8837
36.9064
25.1192
16.2262
26.8659
16.2505
11.7689
9.24568
22.8726
10.4058
8.446
14.9258
11.7428
8.51557
7.1419
8.00618
5.51404
53.0106
45.1655
37.8052
42.5834
39.7511
45.6776
39.1855
45.5049
35.4347
32.6185
40.36
39.1377
37.762
40.1652
41.3904
32.7405
43.6792
36.8478
35.0876
43.3518
49.7293
49.5628
51.6894
47.4847
50.1495
47.7317
73.6954
49.5458
38.9458
63.6822
41.295
91.8518
41.5573
76.087
41.3324
30.6624
38.2136
22.2226
37.3494
24.7315
35.6341
23.2174
15.7634
18.1098
15.3923
22.9952
14.725
18.1574
16.6849
11.8378
15.0764
11.8044
11.5275
7.20441
16.6427
12.1764
39.8702
54.1967
50.0627
48.5327
41.3674
52.9231
48.2281
32.0508
48.4722
47.232
39.7533
40.5036
46.5871
43.7988
38.3607
47.5445
47.657
42.6634
46.2426
43.1076
41.5965
35.421
47.3289
42.8909
46.064
42.3955
41.3046
43.0341
37.1903
40.8335
44.0883
39.7092
36.0845
43.9345
50.7583
22.5848
45.2976
17.4003
38.4924
21.6091
46.8046
15.1408
13.9781
13.443
9.96985
16.8146
15.3723
12.9793
10.6038
11.9594
9.28229
8.18562
15.3584
11.7897
9.78065
8.55231
54.8252
48.0266
49.4556
63.6932
63.2041
66.6471
64.8176
47.3367
46.7044
37.8707
62.8509
61.8846
61.851
62.1387
51.8745
41.6291
59.8718
62.3419
59.7295
64.006
68.6861
28.1038
59.3375
54.4377
58.8962
57.7624
68.7796
60.779
11.9672
50.4502
29.4142
55.7522
50.1581
57.0392
54.5612
10.3805
21.3228
12.944
50.2403
52.6054
54.836
56.7786
10.0073
12.2516
10.1261
53.645
55.2085
56.9623
57.2955
7.54428
9.36809
7.07746
55.2422
55.8664
57.2722
60.7607
45.4416
43.289
40.9141
62.9523
61.3593
52.5515
46.8914
36.5452
38.3724
31.2969
60.781
62.8804
46.2481
59.9437
57.6985
30.3395
31.7036
64.9189
71.5752
62.4663
67.8005
55.1608
38.008
59.3981
72.1106
61.3987
70.3505
61.1229
41.6053
56.7057
39.4592
57.3589
54.8855
60.7639
61.782
14.2265
36.3239
29.7396
55.1862
56.7865
60.2826
58.3002
9.39119
27.4069
13.0017
57.0101
57.6915
58.2813
58.4315
6.73791
10.6279
6.25864
57.8373
61.0631
58.4926
61.4405
39.3956
47.0073
40.8316
49.6456
45.5168
53.0529
53.763
34.3995
40.208
44.1674
45.1912
52.1068
55.0818
60.8874
35.9964
46.6488
53.2895
53.8777
65.7406
62.2426
65.5514
58.3836
54.1937
47.1866
66.6729
62.9989
66.9112
69.9419
38.1264
42.9066
35.7404
63.9717
66.1829
69.5082
61.6021
30.0281
35.5617
30.9337
65.7094
60.6793
65.2402
62.9164
18.3745
22.5814
17.4611
60.3545
59.5703
60.4039
59.7745
7.08683
17.2789
11.7357
59.3105
61.7267
60.0746
61.8443
43.4308
53.5973
49.2548
55.9356
55.8316
58.5633
58.8619
44.5892
47.8266
45.4946
56.6597
61.1509
58.784
58.6481
49.8268
44.7966
43.589
62.4908
66.3301
58.4665
60.407
45.1103
43.6255
47.4685
67.1326
67.0749
61.2605
55.0891
37.3487
49.1399
50.1523
65.923
59.1845
53.2817
47.1332
25.8005
42.8655
15.3803
62.7777
63.9316
48.9644
40.1162
13.8821
12.8695
10.3113
60.5365
58.237
39.4756
45.5684
11.2757
9.60999
8.37205
58.3335
61.4491
47.4964
47.5904
70.3951
75.6915
72.7711
135.947
121.905
123.274
137.205
68.7677
71.7832
70.4825
122.529
130.271
134.932
128.078
64.5938
70.842
72.476
127.038
105.744
124.758
118.044
60.6832
72.1654
63.3121
102.999
102.33
115.352
109.266
60.2946
60.7959
59.9422
106.1
105.824
109.222
109.488
61.5052
60.6523
63.0597
107.871
110.381
110.324
110.152
62.9106
63.3231
63.7792
112.629
112.292
110.653
112.05
62.258
63.8582
63.9997
114.14
114.762
112.81
115.575
71.759
57.1566
60.2217
124.059
139.703
109.103
139.102
71.9155
63.8477
74.8679
136.684
131.405
138.394
138.919
76.0996
75.3856
75.9137
129.613
126.807
141.166
144.555
63.4862
74.5625
63.696
122.899
111.467
138.157
120.189
59.5442
63.5891
63.7076
110.866
110.991
118.112
117.724
62.7974
63.1233
62.8851
111.854
111.089
118.23
115.075
63.9484
63.4267
64.1976
110.82
112.026
113.324
112.161
64.3259
64.3636
64.4226
112.807
114.788
112.589
114.165
57.5769
57.8848
61.59
109.579
139.13
105.957
127.556
72.2276
63.505
68.0959
138.509
138.116
127.066
126.211
72.5711
68.7014
69.8682
140.103
140.126
126.216
129.016
65.6234
71.1277
76.169
134.337
121.23
128.858
126.379
68.8692
77.7141
75.797
120.221
122.44
126.523
127.506
64.6968
75.7402
66.7006
122.706
117.079
126.813
117.031
64.794
65.4096
64.8258
114.632
112.555
114.516
112.63
64.5676
64.9515
64.4022
112.808
114.093
112.784
114.053
62.5194
63.8162
64.0909
116.929
128.565
126.953
118.332
68.2014
64.1022
64.2778
127.698
128.763
119.43
131.693
72.0013
64.8667
68.3103
128.578
130.415
135.373
125.682
75.185
68.4968
62.483
129.964
127.732
122.643
125.599
74.8914
61.8006
67.0128
127.656
127.804
127.155
125.008
67.7774
70.0154
62.6608
126.526
116.743
125.745
125.392
63.9814
62.6657
62.7011
114.914
112.576
124.482
117.794
64.1339
62.3222
60.6848
112.695
114.767
117.688
118.595
44.8171
42.0462
45.478
41.4988
43.9634
41.4773
49.2063
47.152
44.1847
49.9176
54.3358
47.1422
48.6372
34.1082
53.1793
54.7642
52.4693
82.0527
48.3599
65.253
74.2251
43.3837
52.295
46.4037
44.9575
46.0143
45.4574
43.2757
44.9352
43.711
46.3104
51.0067
42.643
50.5343
46.9251
44.2821
43.1296
39.4812
48.0232
43.4892
44.0465
42.2406
56.2477
112.449
55.1036
57.365
68.214
101.356
52.4579
42.6061
32.5917
34.1046
28.4652
40.1711
35.3124
33.2981
61.2051
55.6862
57.7812
78.2817
53.6518
65.7434
63.8809
45.7433
44.9805
58.4704
46.7778
47.3093
38.5965
39.2693
49.1694
44.2088
45.7881
50.7299
42.384
51.0814
46.4583
43.7466
35.1615
40.5556
38.7728
38.5487
37.1852
40.9448
65.0421
107.055
53.5365
47.3293
69.0961
85.6516
47.197
49.9454
45.7724
39.9518
44.9485
40.2733
47.5508
42.184
48.6074
63.3232
42.866
97.3267
46.1442
92.566
45.5651
48.2035
46.9246
45.1895
46.9029
46.6017
48.7386
45.8901
45.5954
42.5951
44.0898
42.133
44.2915
42.7735
44.4658
52.029
44.9361
54.5601
52.4402
90.8831
49.2796
56.3005
52.2316
111.379
57.3773
54.6546
108.915
50.0891
56.4253
49.673
47.5563
52.8515
49.5798
49.7913
46.7457
53.266
48.3196
42.7334
47.9692
47.1673
44.3225
44.8243
52.3074
38.6723
59.7389
40.893
54.3545
41.6013
63.8596
39.6907
36.0251
40.2546
32.0992
37.0665
36.4489
39.7869
33.7511
34.5536
35.5764
31.655
34.872
34.8188
35.5141
33.1609
38.3184
100.768
49.5204
47.6111
80.4792
43.6863
40.6557
36.9092
50.8814
46.9864
36.3912
62.402
36.9117
37.7278
36.2911
38.4521
41.7915
36.334
40.2125
34.8434
37.2497
34.6713
35.0585
35.3
34.6207
35.2034
33.8707
35.3353
30.8945
66.4632
40.0246
54.3877
47.2466
47.8643
54.6637
4.36567
14.0827
4.05542
13.0686
12.6472
19.8165
18.0992
1.07264
2.96674
2.97889
21.0964
11.5993
26.531
23.013
1.05441
3.58234
7.11089
6.07432
4.66809
19.0565
14.8078
2.85692
10.7684
9.94093
7.4731
9.4326
14.0317
12.8711
0.709981
6.20362
3.13817
12.2737
11.7171
13.2768
13.5483
0.473073
1.54018
0.814679
10.1728
9.46795
11.4017
7.54698
0.339917
0.639733
0.552878
9.00238
9.30371
6.73514
7.31428
78.9665
71.9911
58.9939
56.917
46.5501
60.3537
47.1441
84.9579
113.551
126.378
75.8415
73.4854
77.4378
112.084
30.2215
24.7316
43.9973
34.4712
21.0322
42.6643
27.7637
22.5514
5.48193
5.21043
14.4708
22.2194
14.8415
5.06855
23.0109
17.2577
11.4839
22.5502
22.9188
22.3781
17.9178
53.3662
42.2221
45.3494
39.2477
45.3319
43.7114
49.6204
40.2833
21.7156
48.2812
40.0694
34.1713
50.0604
41.4238
30.272
1.64971
8.40981
31.128
23.3679
30.8889
4.28145
6.72794
0.711385
0.955749
7.73408
6.88698
9.05734
0.840059
0.482283
0.648314
0.498817
5.3097
6.0378
4.85473
5.89424
92.4099
167.89
126.448
105.513
80.4601
99.4802
87.06
68.7623
98.3661
129.896
69.5525
62.6956
78.9881
103.891
40.2621
40.9588
60.0351
62.0492
43.1016
48.1765
43.0603
15.4163
5.80077
9.69763
15.992
14.4651
16.9647
5.35981
34.6868
15.6391
7.97952
29.0152
33.4028
26.9261
17.1177
47.116
47.5497
34.7236
44.1924
49.229
42.016
47.3161
83.7584
63.5876
68.0736
75.5296
74.1062
84.8387
68.7681
37.4304
27.7987
49.1585
44.3301
34.3531
47.741
35.4699
17.354
1.75487
5.28861
20.7325
15.4485
21.6416
2.54777
0.556984
0.885245
0.589009
4.68974
5.58744
5.42081
5.96144
127.05
175.147
130.443
105.716
82.7749
104.103
77.3815
93.7088
137.242
179.773
114.516
103.589
110.136
140.961
71.0549
58.5882
81.1205
75.2344
68.19
73.5565
68.9755
38.6582
40.3333
54.9935
40.4748
27.3058
49.1821
47.7893
19.8565
10.0482
28.2282
17.2458
18.7027
21.4412
27.2969
70.7719
54.6185
49.7412
28.9119
61.3872
36.7589
58.7967
65.3236
78.3416
79.6493
96.8318
80.8066
81.5539
75.9136
24.924
34.8115
31.7687
42.364
34.834
31.4765
21.589
18.6631
3.82858
4.46414
22.1624
19.8634
20.2457
2.57906
0.61443
0.821583
0.595044
6.86881
6.71772
7.83418
8.0347
148.428
172.767
152.305
101.04
83.1126
103.599
91.3474
125.809
192.194
241.186
137.743
121.019
139.333
208.243
83.4793
97.2425
144.431
76.0629
69.6191
88.572
132.889
79.7036
74.0245
111.775
57.1916
53.5325
81.6545
106.847
69.1409
78.1767
90.3306
58.5299
59.8383
75.7995
85.9017
76.5905
67.8629
60.4452
71.3268
83.6655
74.417
62.5538
56.6385
66.3273
81.1724
68.3717
57.1055
65.9606
68.4078
13.9079
8.82899
14.426
25.79
15.5692
24.4293
6.90132
3.19022
0.953516
0.947729
4.49586
4.67361
3.4111
0.786038
0.48923
0.454307
0.457004
6.93451
7.74811
5.68295
5.80069
118.709
139.799
113.497
81.9378
78.3104
82.4512
79.2147
75.3441
91.2685