/*--------------------------------*- C++ -*----------------------------------*\
  =========                 |
  \\      /  F ield         | OpenFOAM: The Open Source CFD Toolbox
   \\    /   O peration     | Website:  https://openfoam.org
    \\  /    A nd           | Version:  10
     \\/     M anipulation  |
\*---------------------------------------------------------------------------*/
FoamFile
{
    format      ascii;
    class       volScalarField;
    location    "1";
    object      p;
}
// * * * * * * * * * * * * * * * * * * * * * * * * * * * * * * * * * * * * * //

dimensions      [0 2 -2 0 0 0 0];

internalField   nonuniform List<scalar> 
12920
(
2.09516e+06
1.72926e+06
1.46704e+06
1.35269e+06
1.2168e+06
1.11659e+06
1.00995e+06
921773
829731
747601
665754
588836
513157
440661
369228
300312
231789
162883
94142.3
32626.6
1.70371e+06
1.59836e+06
1.4372e+06
1.33209e+06
1.20616e+06
1.11026e+06
1.0037e+06
915652
824577
742760
661787
585566
510970
438936
367827
299115
230774
162493
94098.1
32477.7
1.28183e+06
1.46254e+06
1.33906e+06
1.2811e+06
1.16693e+06
1.08389e+06
986621
903845
815632
736064
656428
581629
507725
436483
365969
297615
229424
161634
93417.8
32292.6
1.52208e+06
1.46923e+06
1.3528e+06
1.26088e+06
1.14738e+06
1.06268e+06
966737
884323
801177
723130
647145
573739
501867
431472
362211
294549
227338
160227
92533.9
31961.9
1.31255e+06
1.32262e+06
1.21607e+06
1.18165e+06
1.08854e+06
1.01899e+06
930532
860174
780983
707599
634898
564271
494207
425926
357864
291307
224842
158451
91400.3
31430.9
1.18821e+06
1.34966e+06
1.25159e+06
1.16995e+06
1.06201e+06
985099
896151
824518
751313
683327
616667
550041
484476
417955
352208
286876
221600
156166
89990.6
30801.4
1.82986e+06
1.43116e+06
1.1975e+06
1.1118e+06
1.00759e+06
939649
860923
790313
727075
663125
597880
534765
469723
408157
344854
282094
217969
153600
88315.4
30043.1
1.85055e+06
1.43497e+06
1.17931e+06
1.07673e+06
965301
891354
849180
783317
722481
664963
601253
538708
476825
415503
334654
274124
213174
150638
86477.7
29165.1
1.26291e+06
1.09109e+06
954111
935751
881205
858463
813900
761780
702024
647610
591686
533354
473789
413668
344629
266536
206877
145876
83964.1
28060.9
547406
818292
840808
845565
811564
803242
773903
726828
678305
626251
574681
519618
462687
404407
336866
261512
202033
141783
80796.2
26484.4
392617
676475
675904
736002
737128
747275
734203
699848
657232
609632
559756
507373
452928
396525
331123
256771
198289
139084
78980.1
25561.6
514628
640103
687889
727231
723623
723116
707252
678840
641023
596073
548037
497757
444762
389405
324256
251832
195121
136743
77445.4
24776.7
600785
675651
655891
705099
705045
707336
684899
659797
621214
578966
531195
481480
428819
374972
304267
248878
192243
134892
76126.4
24113
662839
738028
726574
737828
724728
714810
679864
650731
603735
562952
511085
463714
409345
357075
300978
246279
190121
133348
75041.3
23542.2
813005
845523
793137
794579
749601
733124
688204
653870
605322
561353
509433
460372
407346
354002
299029
244242
188397
132109
74155.3
23062.7
747197
917973
850198
849943
783575
754854
700404
662195
609035
563754
509550
459653
405888
353053
297489
242989
187317
131262
73589.3
22695.1
1.24796e+06
1.19269e+06
913936
906683
815032
774384
715363
671784
614559
566676
511043
460158
405118
352202
296668
242436
186664
130651
73130.3
22499.6
1.65231e+06
1.23649e+06
1.03233e+06
959848
849611
795100
725928
678035
618316
568559
511957
460522
405016
352037
296349
241982
186107
130297
72900.8
22451.3
1.00075e+06
1.10103e+06
978171
956858
861172
808012
735795
685085
622581
571476
513546
461399
405212
351958
296030
241718
185809
130164
72782.8
22425.2
1.201e+06
1.12162e+06
1.01588e+06
969056
869637
814025
740338
687285
624539
572224
514154
461497
405250
351861
295948
241611
185690
130096
72734
22401.2
2.05609e+06
1.72849e+06
1.46753e+06
1.35147e+06
1.21659e+06
1.11651e+06
1.00998e+06
921695
829630
747567
665690
588755
513063
440437
369246
300283
231696
162914
94131.7
32584.5
1.60397e+06
1.58798e+06
1.43272e+06
1.33111e+06
1.20591e+06
1.10988e+06
1.00388e+06
915742
824597
742658
661716
585384
510812
438574
367532
298953
230758
162478
94053.8
32465.5
1.37849e+06
1.44066e+06
1.3349e+06
1.28257e+06
1.1663e+06
1.08399e+06
986834
904705
815921
736219
656555
581686
507745
436469
365983
297554
229439
161647
93385.9
32308.4
1.35425e+06
1.43858e+06
1.34629e+06
1.25996e+06
1.14699e+06
1.06284e+06
967206
884627
801463
723243
647147
573808
501934
431434
362200
294535
227335
160223
92532.1
31960.8
1.18218e+06
1.31544e+06
1.2152e+06
1.18141e+06
1.08837e+06
1.01885e+06
929546
859542
780194
707697
634578
564347
494260
425940
357868
291308
224842
158451
91397.3
31429.9
1.1372e+06
1.35979e+06
1.25205e+06
1.17053e+06
1.06262e+06
984716
896270
823887
751599
683044
616541
549924
484300
417916
352196
286877
221595
156163
89988.6
30800.8
1.60035e+06
1.40988e+06
1.1913e+06
1.11112e+06
1.00907e+06
938777
860910
790636
726936
663301
598127
534600
469677
408146
344829
282079
217956
153592
88311.6
30042.1
1.78923e+06
1.41692e+06
1.17826e+06
1.0796e+06
965622
891492
849043
783969
722524
664423
601222
538894
476840
415527
334708
274170
213192
150625
86468
29162.4
1.22491e+06
1.08646e+06
957156
937872
881369
858615
813521
762024
702596
647407
591628
533261
473831
413698
344675
266553
206911
145921
83975.3
28063.1
652641
824519
837604
842142
806748
802352
773008
727318
678249
626350
574467
519587
462643
404414
336859
261508
202041
141784
80798.6
26488.1
408159
655523
670456
735239
737825
748534
733976
699792
657302
609531
560068
507170
452897
396493
331077
256743
198286
139084
78981.7
25563.9
632778
646687
688354
727941
723564
723164
707299
679093
640884
596393
547707
497782
444712
389375
324226
251853
195126
136748
77445
24775.3
710525
673099
652933
705543
705602
707575
685293
659819
621315
578829
531092
481369
428879
374942
304206
248872
192245
134905
76134.7
24111.9
583972
714590
723035
737709
724706
714771
679258
650315
603666
562814
511103
463799
409350
357072
301017
246281
190138
133374
75045.8
23540.2
731960
832161
789747
790791
749295
733065
688234
653806
605168
561240
509293
460315
407272
353959
299031
244305
188437
132143
74167.6
23067.1
818412
922310
853863
847390
783728
754622
700158
662100
608722
563589
509448
459717
405836
352981
297473
242987
187356
131291
73602.1
22706
1.12427e+06
1.16017e+06
901110
902980
815090
774336
715727
671769
614472
566629
510944
460154
405075
352153
296643
242446
186670
130653
73138.2
22516.1
1.53439e+06
1.22871e+06
1.02911e+06
959454
849252
794623
726122
678035
618249
568562
511926
460529
405022
352070
296337
241986
186106
130312
72899.1
22453.1
922770
1.10142e+06
976391
954638
860865
807744
736052
685188
622590
571477
513514
461409
405192
351938
296028
241724
185810
130168
72784.9
22424.6
1.12774e+06
1.12709e+06
1.01644e+06
968738
869764
814092
740424
687357
624510
572228
514123
461492
405242
351860
295947
241608
185689
130096
72733.4
22400.4
2.02208e+06
1.72105e+06
1.47055e+06
1.351e+06
1.21707e+06
1.11688e+06
1.01002e+06
921701
829614
747564
665535
588634
513092
440358
369085
300191
231884
162977
94206.9
32593.2
1.68614e+06
1.6011e+06
1.43556e+06
1.33092e+06
1.20626e+06
1.11005e+06
1.00386e+06
915819
824651
742821
661920
585703
510984
438771
367474
298808
230751
162491
93992.5
32537.9
1.49172e+06
1.47083e+06
1.34351e+06
1.28471e+06
1.16631e+06
1.08447e+06
987151
904708
815774
736129
656354
581657
507748
436460
365934
297530
229447
161638
93377.4
32311.6
1.48915e+06
1.44883e+06
1.34851e+06
1.26052e+06
1.14713e+06
1.06276e+06
967774
885752
801760
723782
647245
574095
502095
431410
362196
294512
227320
160230
92544
31952.4
1.33326e+06
1.3258e+06
1.21677e+06
1.18033e+06
1.08743e+06
1.01799e+06
929106
858968
779777
708096
634323
564532
494266
425955
357874
291306
224838
158455
91398.6
31429.2
1.51183e+06
1.38686e+06
1.25679e+06
1.17271e+06
1.06357e+06
984886
896171
824201
752283
682580
616784
549675
484109
417866
352179
286874
221588
156157
89985.3
30799.3
1.66612e+06
1.41464e+06
1.19051e+06
1.11242e+06
1.01025e+06
938329
860890
791834
726775
663325
598423
534466
469634
408103
344814
282043
217930
153577
88304.9
30040
1.85533e+06
1.39993e+06
1.18102e+06
1.08353e+06
966218
892502
849531
784408
722588
663567
601187
539050
476983
415626
334761
274303
213217
150587
86448.6
29157.2
1.1589e+06
1.07145e+06
949776
938022
880266
858385
813603
761894
703125
647023
591517
533256
473849
413782
344731
266537
206995
146023
83993.7
28067.1
703109
834786
837464
840010
805606
801723
773138
727053
677823
626131
574081
519374
462550
404385
336853
261492
202059
141788
80807.6
26492.9
506296
657018
670579
735311
738333
750000
734999
699593
656848
609013
559380
506923
452950
396433
331014
256687
198283
139087
78982.2
25567.5
472050
634570
685691
727316
723435
723180
707763
679406
640791
596061
547850
498060
444684
389250
324086
251849
195142
136751
77442.4
24774.8
477596
643995
648406
706152
706018
707676
685513
659857
621500
578843
531038
481310
428930
374841
304158
248888
192271
134926
76141.9
24109.5
435404
679153
710985
737011
724531
714907
679132
650008
603667
562733
511214
463567
409296
357253
301228
246325
190185
133382
75058.9
23534.7
823700
825951
789616
790967
748017
732958
688126
653931
605377
561409
509781
460512
407305
354084
299055
244349
188485
132163
74176.5
23073.5
732129
934914
850880
845096
783952
754607
700502
662229
608858
563649
509710
459996
405847
352990
297568
243023
187348
131297
73610.1
22728.9
1.22147e+06
1.15303e+06
899745
899488
814401
774301
715730
671858
614568
566621
511047
460226
405046
352172
296727
242444
186637
130681
73148.4
22541.3
1.4648e+06
1.22756e+06
1.02907e+06
959125
849302
794309
726842
678289
618387
568699
512043
460614
405044
352078
296315
241969
186097
130333
72902.7
22457.1
905183
1.11068e+06
975586
952724
861467
807554
736237
685324
622540
571534
513524
461430
405184
351913
296036
241733
185813
130173
72787.4
22423.9
1.30829e+06
1.1464e+06
1.01804e+06
968972
870462
814211
740388
687352
624423
572211
514126
461508
405242
351861
295946
241604
185686
130095
72732.4
22399.1
1.88492e+06
1.70659e+06
1.46646e+06
1.34957e+06
1.21689e+06
1.11697e+06
1.00996e+06
921617
829544
747520
665463
588717
512831
440362
368889
300319
231871
163155
94285.2
32613.5
1.7661e+06
1.62315e+06
1.43694e+06
1.33173e+06
1.20737e+06
1.11033e+06
1.00395e+06
915848
824579
742802
661818
585587
510899
438684
367347
298717
230761
162471
93999.4
32522.5
1.47419e+06
1.47698e+06
1.33648e+06
1.28428e+06
1.16546e+06
1.08486e+06
987350
904718
815623
736022
656200
581498
507592
436492
365935
297509
229438
161648
93383.7
32301.5
1.36159e+06
1.43357e+06
1.34554e+06
1.26132e+06
1.1476e+06
1.06236e+06
968116
886432
801653
723795
647211
574061
502182
431279
362173
294499
227314
160227
92548.3
31948.9
1.37563e+06
1.31764e+06
1.22007e+06
1.17845e+06
1.08637e+06
1.01734e+06
929329
859122
780444
708813
634409
564916
494449
425977
357876
291315
224837
158455
91397.5
31428.2
1.47666e+06
1.38544e+06
1.25832e+06
1.17333e+06
1.06447e+06
985029
895830
823632
752669
682355
617084
549462
483941
417800
352160
286865
221578
156151
89981.5
30798.4
1.56821e+06
1.39484e+06
1.18561e+06
1.11129e+06
1.01073e+06
937958
860900
793546
726494
663111
598394
534562
469721
408101
344831
281991
217899
153560
88296.8
30037.8
1.6958e+06
1.36431e+06
1.18088e+06
1.0852e+06
966028
893485
849695
784934
721991
664356
601402
539175
477253
415772
334845
274479
213243
150536
86424.5
29150.8
1.08129e+06
1.04548e+06
953791
937564
879704
858959
814226
761363
703254
646357
591413
533368
473897
413880
344798
266531
207083
146142
84007.5
28068.8
670745
846308
831490
837743
805192
801086
773523
726155
677526
625751
573775
519295
462550
404358
336849
261486
202095
141804
80802.1
26495.3
404143
644544
669116
735539
737941
750147
735431
699501
656495
610549
559408
507298
452907
396404
330965
256651
198288
139097
78965.6
25565.8
443586
614817
679033
725394
723120
722787
707893
679221
640356
595783
548232
498364
444640
389111
323883
251846
195171
136757
77429.9
24771.9
468459
622099
649075
706378
706689
708512
685700
659791
621471
579086
531086
481415
428954
374863
304222
248925
192289
134934
76149.2
24109.2
491207
683379
709676
737286
724539
714849
679205
650201
603911
562920
511335
463694
409444
357301
301268
246343
190214
133396
75071.8
23531.4
880114
814263
792011
790558
749012
733068
688604
654214
605815
561529
510016
460578
407324
354146
299080
244405
188538
132178
74184
23077.1
896813
927233
855740
841219
782388
754389
700847
662564
609012
563732
509844
460063
405833
353021
297583
243094
187383
131326
73588.6
22743.7
1.20839e+06
1.17938e+06
890275
896292
812872
773956
715886
671914
614650
566686
511122
460284
405170
352251
296777
242485
186645
130728
73151.4
22562.9
1.50246e+06
1.22252e+06
1.02833e+06
956959
848995
794075
726949
678324
618413
568717
512092
460656
405084
352113
296312
241962
186099
130345
72909.6
22463.6
1.08771e+06
1.12437e+06
984252
951221
862107
807908
736159
685676
622604
571525
513561
461438
405183
351911
296043
241741
185817
130179
72789.8
22424.1
1.39657e+06
1.15906e+06
1.02418e+06
969899
870966
814582
740705
687595
624494
572271
514181
461539
405265
351869
295944
241598
185684
130095
72731.6
22398.2
1.79785e+06
1.69776e+06
1.4709e+06
1.35034e+06
1.21715e+06
1.11708e+06
1.00995e+06
921639
829513
747485
665482
588664
512899
440349
369006
300178
231764
163227
94312.3
32610.1
1.92768e+06
1.64891e+06
1.43994e+06
1.33379e+06
1.20858e+06
1.11051e+06
1.00409e+06
915919
824601
742888
661898
585703
510937
438733
367342
298686
230672
162480
94003.9
32528.1
1.38793e+06
1.50064e+06
1.33521e+06
1.28497e+06
1.16561e+06
1.0855e+06
987498
904769
815562
736011
656138
581502
507514
436387
365901
297463
229422
161659
93388.5
32302.6
1.38664e+06
1.43785e+06
1.34355e+06
1.26104e+06
1.1482e+06
1.06197e+06
968154
886729
801529
723737
647133
573981
502189
431334
362143
294493
227309
160227
92552.9
31946.8
1.25213e+06
1.30592e+06
1.22208e+06
1.17854e+06
1.08513e+06
1.01709e+06
929925
859302
781044
709206
634554
565145
494669
425984
357868
291322
224838
158449
91397
31427.9
1.38377e+06
1.38451e+06
1.25888e+06
1.17411e+06
1.06476e+06
985031
895439
823300
752665
682240
617389
549216
483749
417736
352129
286852
221570
156147
89979.5
30797.4
1.68397e+06
1.39555e+06
1.18749e+06
1.11216e+06
1.01174e+06
938210
861114
794323
726190
662980
597866
534787
469850
408148
344925
281868
217872
153547
88290.7
30036.5
1.76408e+06
1.36578e+06
1.18409e+06
1.08638e+06
966076
894004
849524
785319
721936
663612
601641
539490
477548
415974
334789
274675
213255
150500
86401.2
29145.2
1.20284e+06
1.04839e+06
952267
936126
879450
860113
814440
761721
703119
646386
591592
533502
473989
414004
344880
266493
207160
146211
84000.9
28061.3
670667
845841
830755
838196
805523
800842
773942
726419
677335
625709
573477
519117
462445
404321
336880
261380
202142
141829
80784.2
26484
361283
636924
669828
735776
737349
749348
734730
699095
656405
609664
559489
507797
452900
396343
330907
256514
198263
139079
78929.8
25555.5
438594
612146
678031
724537
723212
721868
707529
678757
639787
595715
548460
498657
444587
388980
323805
251742
195190
136758
77409
24761.6
413976
581551
645711
705969
707083
708916
685731
659645
621520
579275
531070
481423
428885
374821
304150
248945
192296
134932
76149.1
24110.5
567168
663051
708916
738156
724629
714648
679562
650448
604159
563048
511454
463732
409490
357258
301322
246357
190234
133402
75077.6
23530.3
870180
800477
794972
790375
749202
732718
689243
654257
606122
561528
510105
460574
407321
354227
299135
244452
188552
132192
74193.3
23079.3
877644
928848
854476
838623
781461
753912
701378
662836
609151
563740
509908
460091
405830
353027
297628
243137
187398
131326
73606.9
22757.2
1.24662e+06
1.15309e+06
895267
891729
811915
774016
716060
671840
614717
566705
511161
460308
405175
352263
296823
242520
186644
130732
73166
22574.4
1.38096e+06
1.20385e+06
1.02727e+06
955273
848685
794130
727008
678309
618454
568748
512130
460682
405084
352095
296289
241941
186095
130350
72914.8
22467.1
1.00965e+06
1.07675e+06
977562
950134
862169
808473
736651
685751
622795
571664
513661
461480
405208
351931
296051
241764
185821
130182
72791.6
22424.6
1.4042e+06
1.13748e+06
1.02629e+06
971323
871305
814933
740740
687740
624590
572326
514209
461561
405276
351878
295943
241588
185682
130095
72731.1
22397.9
587396
611327
575873
625773
587152
611925
575452
533325
563017
525154
573824
533202
562764
525080
571957
599023
562888
609231
571697
598789
562884
521382
550591
513043
559152
521568
550633
513238
774692
784387
747461
813485
774727
784052
747739
717943
735566
697584
761969
718350
735525
697529
661255
684055
644372
702374
661101
684092
644407
606344
630997
592275
647433
606089
630941
592073
548251
578508
537137
591634
548281
578404
537072
488884
522860
479924
533266
488848
522793
479902
428877
465365
421493
473824
428875
465277
421533
368248
406522
361951
413687
368310
406528
361948
738655
744344
716072
773387
738749
744247
716243
691078
705897
673475
727138
690958
706104
673526
639530
661991
625911
678263
639552
662043
625883
588073
613375
575920
626304
587809
613316
575943
533585
563131
523704
574550
533569
563327
523778
477090
510227
469213
519630
477034
510188
469182
419139
455261
412774
462652
419150
455265
412756
359947
398404
355142
404415
359966
398396
355137
709521
712472
691505
733975
709465
712720
691679
668373
683216
654949
699876
668474
683310
654844
621809
644638
611482
657291
621833
644571
611298
572381
599851
562850
609568
572709
599605
562912
520607
550705
512587
560045
520599
550503
512514
466801
499997
460318
507170
466767
499938
460298
410770
446639
405228
452883
410749
446620
405155
353477
391301
349000
396506
353459
391175
349075
687002
693952
675933
707388
687240
694029
675962
651224
668489
641316
678986
651165
668604
641484
608211
631597
599592
640896
608233
631737
599640
560063
588536
552802
596379
560004
588587
552774
510381
540842
504239
547812
510306
540826
504191
458458
491780
452737
497737
458457
491744
452808
403486
439436
398481
444721
403467
439491
398513
347068
384532
343120
389393
347075
384606
343152
774761
783954
747983
813666
775056
783875
748351
718500
735528
697484
762112
718474
735770
697157
661014
684125
644480
703061
660734
683852
644433
605994
630969
591999
647177
606118
630922
591748
548314
578330
537003
591561
548255
578066
536905
488868
522739
479882
533247
488879
522587
479825
428877
465275
421527
473833
428907
465195
421474
368312
406525
361944
413755
368340
406503
361944
738939
744069
716222
773052
738793
744538
715871
690872
706156
673571
727369
690586
705816
673263
639580
662031
625907
677906
639524
661745
625956
587717
613256
575923
626242
587485
613651
575779
533518
563233
523962
574163
533365
562904
523178
477011
510224
469188
519376
476926
509866
469214
419145
455273
412739
462564
419099
455310
412677
359962
398388
355132
404389
359951
398347
355108
709389
712685
691853
734791
709297
713356
692229
668549
683416
654835
699599
668300
683720
654848
621851
644506
611214
656962
621910
644376
610977
572680
599495
562959
610332
572239
599219
562835
520655
550458
512593
559560
519659
550551
512940
466758
499985
460290
506983
466741
500191
460279
410732
446613
405140
452950
410677
446604
405085
353448
391149
349060
396446
353415
391075
348937
687398
693781
675925
707780
687751
693604
675986
651187
668649
641510
679365
651239
668760
641597
608165
631723
599685
640845
607934
631764
599772
559952
588586
552726
596191
560236
588861
552799
510383
540792
504216
547728
510822
540823
504347
458445
491736
452792
497992
458424
491766
452702
403452
439476
398510
444688
403407
439437
398497
347062
384602
343140
389294
346964
384619
343106
775074
783860
747813
813936
774953
784323
746957
718482
735562
696951
761385
718739
734594
696285
660696
683727
644348
703249
660470
683474
644132
606072
630840
591652
646486
605915
630614
591412
548220
577984
536886
591398
548198
577760
536773
488887
522535
479796
533318
488889
522529
479788
428931
465176
421460
473878
429004
465162
421417
368361
406498
361950
413850
368439
406483
361953
738694
744670
715842
773507
738281
745156
715808
690409
705685
673066
726172
689801
705543
672829
639400
661548
625848
677592
638973
661527
625766
609029
613199
621572
625957
608994
613168
621507
556821
560645
570165
573967
556923
560581
570069
476897
509817
469245
519325
476938
509875
469225
419093
455296
412664
462560
419070
455250
412651
359952
398336
355103
404365
359926
398316
355062
709317
713404
692306
735465
709385
713747
692284
668128
683770
654832
699560
667771
683701
654721
621712
644330
610879
656558
621922
644094
610460
594709
596206
606638
606876
594359
592211
606966
543258
546939
556134
558533
543340
546575
556160
466766
500220
460283
507076
466816
500354
460316
410665
446608
405062
452913
410640
446533
404973
353407
391046
348882
396413
353350
390933
348699
687796
693258
675953
708022
687707
692716
675904
651212
668746
641579
679314
651032
668729
641550
607800
631735
599723
640501
607406
631683
599655
560305
588879
552874
595848
560438
588908
553130
510943
540857
504411
548177
511186
541079
504758
458438
491806
452667
498275
458436
492029
452463
403390
439405
398484
444655
403315
439162
398393
346914
384622
343093
389146
346763
384564
343030
774911
784480
746997
814437
775294
785082
747062
718748
734574
696236
761623
718664
734563
696537
660436
683447
644092
703172
660450
683606
643737
605902
630570
591321
646247
605849
630423
591077
548227
577715
536743
591494
548267
577518
536567
488897
522498
479768
533469
488877
522399
479656
429034
465150
421406
473958
429076
465083
421369
368484
406481
361965
413968
368580
406479
361912
738261
745175
715786
773720
738391
745010
715487
689761
705475
672743
726394
689892
705261
672425
638841
661490
625833
677450
638648
661058
625746
587086
613923
575675
625733
586879
613441
575561
533192
562761
523148
573551
533069
562711
523933
476922
510092
469233
519194
476805
510454
469237
419062
455236
412641
462468
419019
455206
412604
359930
398306
355062
404328
359870
398270
354981
709332
713684
692207
735086
708994
713664
691837
667654
683636
654606
699133
667435
683360
654186
621967
643905
610345
656415
621799
643520
610158
572120
598733
562873
609703
572132
598662
562950
519851
550648
513347
559455
521030
550783
513542
466827
500409
460313
507773
466847
500752
460330
410632
446530
404936
452895
410598
446514
404827
353346
390893
348652
396357
353230
390765
348429
687598
692398
675846
707772
687170
692631
675688
650934
668698
641532
678889
650518
668568
641336
607347
631660
599690
639923
607239
631434
599700
560449
588936
553186
595716
560513
588768
553404
511268
541125
504827
548399
511484
541341
504945
458445
492084
452418
498633
458445
492124
452340
403284
439110
398340
444593
403147
438996
398198
346724
384503
343021
389004
346574
384388
342939
775485
785287
747068
815669
775841
785441
747062
718576
734567
696634
761827
718607
734611
696509
660511
683643
643653
703312
660663
683338
643323
606014
630362
590990
646659
606431
630108
590731
548286
577441
536445
591843
548393
577255
536354
488916
522297
479579
533569
489053
522249
479594
429087
465066
421364
474122
429126
465058
421366
368707
406487
361941
414099
368655
406509
361668
738417
744819
715491
773676
738444
744693
715452
689871
705233
672335
726455
689634
705178
672201
638607
660986
625719
676871
638374
660862
625644
586810
613439
575559
625515
586587
613363
575460
532997
562715
523849
573257
532798
562617
523779
476766
510448
469239
518991
476790
510422
469280
419008
455202
412590
462428
418987
455237
412550
359913
398257
355034
404313
359619
398234
354749
708932
713396
691652
734595
708806
713331
691266
667385
683182
654077
699000
667298
682808
653703
621799
643389
610110
656319
621748
643063
609923
572153
598644
563018
609560
572080
598510
563071
521030
550852
513610
559434
521022
550944
513734
466859
500765
460339
507814
466913
500820
460385
410574
446514
404795
452947
410518
446515
404752
353264
390734
348450
396310
352913
390718
348101
687014
692605
675654
707582
686602
693658
675663
650389
668585
641372
678365
650053
668540
641394
607214
631369
599710
639586
607101
631283
599687
560561
588726
553505
595665
560631
588742
553742
511543
541442
504911
548570
511653
541594
504698
458442
492119
452320
498718
458448
492072
452267
403111
438958
398150
444580
403056
438809
398011
346598
384335
342987
388973
346286
384208
342671
596065
600241
583426
587298
596095
600188
583306
605980
617989
599762
610754
605706
618290
599756
592649
579803
587702
575854
592503
579828
586877
609029
625837
613136
621497
613156
621441
609034
596091
587235
600118
583209
600153
583252
596088
605970
610654
618192
600229
618246
600099
605715
592614
576128
579624
587634
579634
587669
592549
543304
546996
529902
533273
543407
546945
529855
553376
566688
550494
563461
553485
566668
551578
539565
526233
538005
526856
539778
526207
539265
556754
573885
560444
569949
560511
569987
556725
543260
533264
546840
529835
546893
529866
543227
553328
563611
566490
550261
566535
551468
553292
539568
526922
526210
537982
526251
538909
539670
581655
583990
568897
570813
581479
582127
568889
590300
602488
587092
598925
590344
602391
587120
578176
565748
575083
562877
578227
565729
575074
594654
606647
596193
606660
593139
606879
594306
581632
571349
583876
568671
582762
568888
581343
590323
598861
602305
586989
602335
587048
590302
578161
562891
565638
574973
565730
575030
578054
530151
534528
517194
524266
530254
536383
517136
540696
553266
538159
550594
540685
553237
538218
527907
515114
525476
513119
527862
515222
525559
543286
558823
546699
555970
546742
556151
543196
530125
524343
534413
517444
536275
517227
530228
540738
550613
553199
538333
553251
538279
540748
527966
513181
515428
525741
515323
525651
528016
816997
825907
797616
849006
817100
826294
797052
751938
766935
738244
783731
752033
767204
738439
692669
706866
680603
722539
692729
706773
680440
632746
649409
622416
664703
632579
649355
622579
570246
590659
562749
601242
570225
590645
562709
507411
530493
501879
538807
507337
530493
501892
446092
469745
441052
476823
446081
469785
441063
383767
408929
380502
415510
383644
408982
380516
829812
831313
805888
858635
829809
831154
805840
791179
801152
804533
813587
801169
804369
791141
739627
746895
752325
761801
746918
752422
739583
682086
688306
695350
702087
688356
695407
682002
628631
633927
641059
647543
633913
641011
628618
573270
577382
586709
591662
577349
586681
573304
515326
518443
529382
533336
518428
529394
515386
456315
458689
470499
473795
458702
470497
456303
396392
398366
410850
413668
398357
410875
396408
314063
339666
311579
344650
314114
339666
311578
784261
777951
759887
803044
784413
777757
759830
752444
761913
763939
773715
761773
763772
752447
707797
715259
719204
726839
715250
719183
707793
660205
665455
672613
678309
665467
672602
660212
608892
613796
621582
626239
613751
621583
608947
557439
561171
570818
574657
561166
570817
557435
502442
505522
516408
519636
505506
516421
502452
445885
448328
460124
462674
448288
460128
445910
387746
389692
402344
404410
389690
402345
387741
307684
333952
304978
336864
307691
333945
304971
737979
732600
721682
747716
738318
732944
722253
718633
726897
726103
734034
726965
726014
718556
684079
689546
693802
699881
689606
693796
684053
641469
645704
652647
657240
645708
652643
641469
593875
597296
606096
609605
597269
606065
593906
543818
546988
556497
559776
547022
556469
543834
491530
494022
504690
507294
493995
504612
491547
436856
438976
450726
452906
438972
450719
436862
380564
382248
394735
396520
382242
394731
380571
302115
328278
299974
331106
302113
328277
299968
714595
719959
704259
723322
714714
720227
704563
696885
701179
703963
707211
701200
703940
696851
666468
670098
674973
678853
670120
675012
666449
627343
630619
637679
640981
630587
637677
627357
581765
584033
593393
596153
584055
593401
581739
532825
535601
545518
547977
535524
545493
532889
483151
485046
495673
497696
485047
495625
483168
429513
431191
442968
444742
431194
442954
429516
373761
375518
387611
389404
375521
387621
373742
297617
322713
294231
324244
297608
322710
294216
676311
684104
672157
685378
676385
684536
672308
643773
657286
637236
659813
643801
657443
637413
602338
618454
597236
621208
602300
618616
597398
556839
575823
551462
578833
556948
576005
551532
508222
528602
503898
531166
508244
528505
503900
457028
478988
452228
481483
457009
479066
452220
404010
426480
399705
428855
404006
426554
399822
348895
373306
345158
375005
348908
373304
345198
816895
827456
796698
849204
816995
827789
797084
752121
767274
738651
784465
752199
767389
738422
692769
706379
680139
722616
692582
705594
679852
632446
648644
622529
663695
632227
648329
622319
570263
590583
562729
601182
570294
590586
562771
507347
530537
501939
538972
507382
530544
501939
446093
469827
441086
476898
446140
469833
441111
383664
409014
380528
415568
383705
409044
380546
829831
830611
805690
858634
829817
830336
805544
790932
801337
803611
813601
790981
801289
803394
739644
747250
752589
762150
739612
747350
752652
682637
688535
695936
702808
682555
688591
696113
628664
633808
640986
647379
628687
633771
641054
573198
577324
586569
591603
573220
577315
586526
515274
518419
529298
533256
515272
518406
529237
456327
458732
470532
473825
456339
458717
470522
396399
398354
410884
413713
396389
398366
410884
314145
339664
311594
344700
314156
339652
311607
783632
777257
759583
802237
783111
777463
759617
751798
761373
763531
773047
751983
761291
763620
708227
715397
719541
727435
708147
715488
719619
660103
665500
672524
678179
660087
665479
672453
608849
613299
621728
626326
608806
613226
621723
557209
561020
570591
574357
557301
560941
570465
502374
505444
516413
519515
502413
505429
516348
445813
448228
460101
462631
445835
448211
460073
387741
389688
402348
404404
387747
389682
402338
307697
333933
304970
336852
307685
333922
304961
738695
732921
722285
749554
739293
733403
722849
719079
726757
726368
734281
718835
726856
726761
683990
689727
693631
699700
683979
689649
693677
641374
645668
652672
657239
641426
645602
652632
593801
597221
605946
609522