/*--------------------------------*- C++ -*----------------------------------*\
  =========                 |
  \\      /  F ield         | OpenFOAM: The Open Source CFD Toolbox
   \\    /   O peration     | Website:  https://openfoam.org
    \\  /    A nd           | Version:  10
     \\/     M anipulation  |
\*---------------------------------------------------------------------------*/
FoamFile
{
    format      ascii;
    class       surfaceScalarField;
    location    "1";
    object      phi_0;
}
// * * * * * * * * * * * * * * * * * * * * * * * * * * * * * * * * * * * * * //

dimensions      [0 3 -1 0 0 0 0];

internalField   nonuniform List<scalar> 
38556
(
180.641
-1301.97
-405.857
758.419
-701.688
123.91
1353.41
-603.255
8.25918
1444.82
-278.883
187.473
1493.83
-91.7223
42.7188
1516.57
27.4647
-50.2094
1565.07
90.0378
-138.536
1633.54
117.455
-185.927
1698.88
144.19
-209.523
1757.72
165.392
-224.237
1783.72
190.323
-216.323
1742.61
204.326
-163.217
1575.42
252.263
-85.0738
1410.66
252.142
-87.3804
1376.64
232.177
-198.159
1461.59
197.532
-282.478
1546.33
140.984
-225.722
1507.43
111.914
-73.0215
1346.15
103.01
58.2782
49.3852
59.0806
1459.87
-1186.97
2547.32
1275.03
-1068.23
551.382
1277.76
-587.803
-18.1845
1241.22
-315.177
72.8349
1296.07
-167.983
21.4103
1309.7
22.5057
-8.6666
1368.45
103.92
-72.6316
1415
180.516
-109.615
1486.73
200.935
-128.469
1538.1
228.263
-114.24
1559.8
223.809
-55.1913
1511.17
224.059
28.8942
1381.94
217.019
164.48
1269.51
178.062
186.505
1259.09
161.249
81.3529
1315.38
155.035
-13.7983
1341.68
130.653
-15.9657
1289.08
119.011
45.5043
1199.83
109.557
82.7029
54.6576
40.8636
2038.23
-1416.36
-4982.19
1497.04
-529.919
2.87132
1391.36
-627.47
145.349
1442.01
-377.507
11.6807
1394.91
-217.058
96.1805
1341.16
37.1131
39.1419
1309.96
115.07
20.0452
1309.95
180.174
0.350924
1303.09
170.919
36.8775
1274.66
189.23
67.4607
1237.72
155.504
105.251
1194.04
153.167
114.565
1167.12
134.349
109.6
1151.58
130.319
63.2743
1154.71
128.966
29.1519
1163.57
138.065
8.11099
1153.12
129.885
11.2195
1130.04
115.294
26.797
1109.81
97.3268
32.4653
51.1972
12.6824
3924.26
1000.82
588.752
2347.7
453.653
592.992
1704.69
-140.502
156.035
1512.51
-175.059
-10.2638
1351.05
-142.59
86.9865
1246.81
37.6721
103.687
1159.5
104.552
97.8282
1100.58
169.629
69.4583
1096.07
121.978
53.4581
1053.21
156.024
76.0656
1021.11
90.7703
96.8318
977.886
104.851
91.5408
957.859
78.1598
76.2153
945.754
89.862
52.5621
957.863
87.6177
29.2397
983.868
97.0371
15.0235
1011.03
92.2866
10.4386
1033.44
81.7097
11.1697
1053.44
68.2739
9.05213
39.9986
2.53384
93.2938
1238.63
-826.002
291.872
-515.301
770.377
756.151
-711.14
106.358
803.938
-171.939
-50.907
866.478
-180.661
-24.4695
853.379
-25.292
76.0628
972.179
-121.435
107.186
981.628
57.0966
103.083
1014.25
-20.2114
109.572
974.578
105.285
90.4063
967.074
23.8483
74.426
945.078
73.3915
53.4556
949.998
40.2282
33.0112
957.472
65.1141
17.2737
976.391
59.5615
9.13718
995.567
74.5932
3.26832
1016.74
68.5756
2.53476
1034.08
61.8783
2.49814
1047.38
52.6994
2.27355
32.9073
0.824803
1411.67
394.031
1322.18
1332.99
-623.369
186.744
537.804
-453.892
537.938
601.937
-116.736
-119.336
961.86
-176.671
-363.913
858.894
-44.6913
122.366
1001.46
-365.626
101.625
946.08
27.411
85.0657
981.118
-131.488
76.2386
938.238
93.8459
54.3192
932.638
-26.9195
56.3681
914.031
44.4843
47.514
918.002
-2.00053
38.2577
923.124
35.5569
24.4348
940.593
27.2996
14.7935
966.992
42.3124
5.88126
989.36
43.3594
2.84896
1009.32
40.4046
1.51636
1024.69
36.3224
1.00156
23.412
0.288352
1491.99
430.61
-871.786
1040.31
-387.07
215.377
367.586
-335.927
554.759
667.002
-328.064
-88.0875
1251.26
-365.629
-395.299
1086.06
26.9788
93.5278
796.224
-45.3902
148.155
-69.1512
-54.4647
-54.9391
561.517
48.1218
35.0989
59.0098
63.2597
56.6281
608.998
-58.4763
-51.408
-5.63058
-58.0452
-5.40824
614.969
30.4971
-63.4999
42.8853
33.1287
44.8636
693.717
-32.7598
12.465
-23.5085
-33.1843
-28.6797
766.483
-19.9607
2.97185
11.8545
-26.4582
3.3112
831.743
-23.6218
12.5656
-13.1618
-26.7717
-16.2713
885.882
-18.1642
7.90671
9.55405
-20.5998
2.72213
926.526
-19.9063
6.56175
961.602
4.2067
3.02895
989.996
13.4211
1.54484
1007.83
21.483
1.08708
1023.12
20.1287
0.905307
14.5597
0.374437
2368.78
126.025
598.331
2122.7
-444.32
303.324
1508.14
-456.889
735.524
1253.67
-347.542
273.945
1152.14
-316.501
52.4087
252.791
13.7026
-23.9943
257.77
242.672
251.164
89.3964
-1.52099
97.1366
219.328
-4.32394
-7.60289
-141.827
108.593
52.2038
29.1516
-105.105
85.3278
-39.1396
0.440317
-90.8124
121.264
2.21054
-2.16478
-149.162
156.113
-54.5519
14.8413
-168.441
185.043
-37.1275
0.565679
-206.222
211.045
-27.7959
-0.649423
-218.065
221.067
-21.308
0.141429
969.072
-21.1512
10.7866
-230.572
-240.342
-236.196
-246.315
-0.968729
-21.879
-2.33978
981.955
-16.054
7.37749
995.941
-5.73213
5.16734
1010.19
4.02719
3.20372
1020.08
7.95584
2.28127
6.59148
0.918321
823.762
139.363
737.817
1373.54
-578.99
-415.104
1514.1
-607.795
10.3385
1377.75
-340.905
129.712
258.242
-185.144
296.813
198.805
278.459
214.078
247.61
7.50697
16.8274
-10.4048
-65.674
64.9375
16.2783
-5.13697
-52.2918
-10.4904
47.2482
10.5382
4.99578
-41.4823
0.491631
36.7374
7.33423
-3.081
-37.2754
6.60357
37.8717
-3.68722
-3.51265
-48.0663
23.3217
48.8027
-27.0914
3.03334
-52.5815
18.315
51.4042
-23.3741
6.23636
-54.1162
8.36545
54.3467
-8.35506
-0.240957
-57.7139
6.64238
57.3957
-6.51046
0.186288
-60.9401
244.953
-19.4854
1.06305
-61.0671
-62.7975
-62.8767
1003.99
-28.7159
11.6702
-247.765
-249.977
-251.203
-254.05
1006.42
-16.7266
8.56291
1011.27
-8.42924
7.60433
1014.83
-1.94073
6.33583
0.265384
3.09903
2257.67
-755.207
-692.725
2041.54
-461.013
98.1572
1769.09
-116.489
-218.857
1636.16
-66.5208
-141.46
307.297
13.7765
30.6585
357.278
351.187
390.821
-6.07662
288.577
-5.88572
30.6829
-23.6607
-69.0317
69.0076
19.9116
3.77314
-4.75751
-71.0548
67.4185
6.91526
1.4786
-14.2102
-62.9591
63.0062
11.7617
2.40143
-9.9831
-53.7614
49.2116
13.9886
0.544389
24.4301
-59.8602
61.5603
-19.769
-6.36121
23.9519
-61.1247
62.4027
-24.3825
-0.84739
18.4744
-65.8418
64.6558
-20.628
3.33955
5.16945
-62.4292
62.7484
-5.34813
-0.140567
-63.3592
15.5458
257.11
-13.7537
2.43385
-63.7169
-67.028
-67.2323
1023.48
-27.4672
13.6259
-256.537
-257.563
-261.232
-263.027
1018.4
-21.4139
9.77278
1018.21
-16.935
8.70007
1019.63
-10.6525
7.28425
-6.52303
3.57568
1425.6
-1160.14
-3461.82
1375.89
-849.209
437.905
1566.9
-284.93
-22.5747
1600.99
-43.2056
-57.4038
340.259
178.257
-8.78244
344.07
382.287
378.677
-2.24677
322.813
18.5418
1.15135
-6.58126
-73.5689
71.2316
2.75224
6.1664
-15.9204
-70.2967
70.3993
12.8062
3.01161
-12.3188
-73.7422
76.5805
15.139
-5.6585
-15.052
-78.5584
77.2422
10.2648
6.10336
14.7498
-77.2697
66.8294
-14.9368
10.6273
25.6179
-58.5513
63.3033
-25.1183
-5.25157
15.4947
-71.3841
72.0371
-13.5629
-2.58476
5.17922
-66.9168
65.5089
-4.45793
0.686639
-64.6945
11.6135
260.519
-7.41695
0.540705
-64.3932
-68.3724
-67.7964
1027.78
-24.0735
10.1256
-258.46
-257.152
-263.792
-261.892
1022.97
-24.4005
7.79718
1022.79
-24.4161
7.66074
1023.2
-18.0888
7.02734
-12.314
3.53284
2120.21
-779.264
-1717.62
1980.2
-768.449
59.2516
1873.47
-229.156
50.9564
1791.75
-87.0809
125.588
392.611
190.807
137.688
408.076
413.669
427.16
-38.596
378.143
48.0881
4.97688
-4.62619
-92.6108
88.5433
6.15994
2.53375
-6.99719
-78.9292
77.2965
8.19427
0.43564
-7.94168
-77.35
78.9121
3.41537
2.96417
-0.754357
-87.3203
88.7625
-5.14798
4.46014
11.0433
-84.0921
70.977
-10.3051
12.377
15.3259
-60.1826
65.2521
-12.1418
-8.25363
9.11267
-69.5334
68.7552
-7.37176
-0.962796
1.7191
-65.2618
64.044
-1.6903
1.18892
-63.9615
2.67702
250.933
3.63309
-0.315764
-63.2721
-65.4532
-64.241
1018.88
-29.8675
4.48962
-254.615
-250.648
-258.476
-253.832
1020.2
-30.7677
5.04389
1024.78
-35.3568
6.36027
1028.01
-27.1579
5.84276
-18.0798
2.83697
1659.23
1161.46
-1788.12
1327.91
93.333
-530.459
1621.84
-29.925
-493.161
1600.88
-44.1725
-21.9489
1633.57
45.9705
112.147
406.4
-162.637
181.726
-22.5684
28.7686
-32.321
17.0543
403.254
410.747
403.143
-1.40842
396.946
-3.08628
23.114
-3.43298
-1.72874
-4.00306
-9.11321
-375.259
338.3
34.1099
35.7298
-6.25857
-10.1206
-7.3888
-0.346549
-328.327
300.241
-3.8874
26.7662
3.24041
-0.77668
3.08988
2.94548
-263.775
244.643
-4.92174
2.1654
7.93582
2.99516
8.01167
10.8502
-258.335
256.604
-34.4763
-12.9192
13.2995
11.2736
13.703
0.00409692
-253.059
252.949
-4.10588
-3.39641
3.24219
0.940522
3.42507
0.433511
-265.007
261.927
-7.88613
2.80072
3.75602
0.424875
3.55104
0.0793661
-258.029
248.477
-0.0664045
2.1985
3.56566
0.208839
3.56625
1015.3
-6.4905
0.200416
-7.58193
12.0004
-7.57905
11.5287
-253.465
-248.753
-257.662
-257.499
1021.4
-30.3249
-5.63949
1028.58
-33.7072
-4.2475
1037.87
-43.4592
-1.17807
1042.97
-32.8364
0.575319
-22.4292
0.565168
2581.87
1130.5
-207.216
2217.25
442.709
15.2344
1947.69
285.457
-45.8175
1826.07
40.1839
37.2621
1747.53
-45.4211
169.936
1712.59
-250.388
122.69
1711.77
-192.782
228.258
5.92866
-22.3639
4.46131
-22.685
1776.84
-372.424
215.981
-3.98937
49.9594
-3.73426
49.142
1800.58
-307.629
211.694
19.5069
12.9383
22.6066
17.1432
1818.94
-349.677
190.39
12.475
59.8912
15.8501
52.7103
1745.84
-224.304
197.759
28.9152
20.2284
25.9722
24.5271
1583.55
-139.1
195.589
12.2964
43.3386
12.8296
37.3368
1320.13
95.3237
149.812
2.32789
9.58371
-0.123309
6.49247
1164.07
75.1443
50.3321
-2.605
21.2739
-5.94717
17.8653
1104.42
76.6728
-23.5147
1084.3
20.3853
-30.5879
1078.51
-13.9348
-13.9864
1075.65
-38.7786
-1.81989
1070.71
-30.4735
2.58059
-22.114
2.2901
635.514
2866.42
347.727
816.765
438.126
-176.668
1200.45
243.332
-341.562
1235.82
-27.2292
32.0482
1377.5
-217.501
30.3989
1494.33
-329.615
-37.6011
1567.92
-327.634
61.2618
1622.48
-395.049
-31.9398
1643
-307.857
-20.2894
1661.48
-321.122
-47.0346
1592.3
-195.924
40.7976
1435.23
-75.4761
93.4462
1302.6
165.885
62.0652
1233.61
175.05
-30.9137
1192.3
166.393
-48.4058
1157.67
92.9816
-37.9649
1121.76
27.8552
-5.87968
1095.59
-20.0841
7.47117
1079.94
-19.1772
4.3513
-16.5688
2.16834
580.054
1423.7
-1256.74
1201.3
-138.89
-44.2264
1397.31
18.8404
28.4792
1515.1
-97.1968
-47.8235
1467.19
-200.939
31.3521
1444.14
-182.412
-124.156
1305.26
-155.757
-32.999
1264.77
-161.752
-192.803
1272.51
-85.6556
-229.947
1320.11
-88.1419
-280.575
1355.86
-1.15729
-230.525
1366.34
53.1436
-139.093
1378.79
181.036
-27.6042
1371.77
185.179
-3.10698
1341.52
166.873
29.7652
1294.03
103.084
37.3899
1220.49
56.6692
44.7306
1156.7
7.77988
35.9218
1118.21
1.81194
17.5032
-4.62792
7.87773
1788.22
-2041.98
-2143.4
1313.61
-453.824
789.541
1541.22
-187.006
-21.7576
1641.4
-170.373
-27.0016
1550.46
-105.111
-4.89109
1478.34
-64.5092
-45.7871
1237
28.8737
56.7103
1159.83
72.1849
-156.768
1168.32
113.443
-207.582
1216.24
100.321
-236.387
1280.18
119.972
-185.067
1320.63
121.4
-108.71
1344.65
154.529
2.48388
1347.36
126.67
55.8006
1316.69
102.379
95.1659
1261.06
56.8979
101.814
1185.6
45.5135
86.6163
1125.83
16.8647
50.6855
1097.6
10.9524
19.091
1.09771
7.39536
1311.86
-1107.76
61.0688
1192.9
-389.51
54.6435
1450.94
-108.912
-336.135
1635.78
-128.812
-226.398
1749.73
-21.9301
-197.129
1822.03
-18.8054
-118.002
1703.04
86.9547
60.9081
1602.75
156.75
15.7197
1459.1
195.491
61.603
1384.43
156.109
18.8815
1318.24
127.839
58.32
1283.81
85.9502
69.8796
1248.78
85.7966
103.765
1212.23
55.9523
107.266
1168.06
50.1578
96.3988
1130.14
28.4279
66.3879
1107.97
28.2398
39.4393
1094.09
13.3044
17.4422
1086.25
10.6427
8.1538
2.3116
2.95244
-250.107
-1183.7
1363.4
741.179
-160.298
-1220.5
1356.95
6.65062
-731.329
1443.47
-27.008
-188.333
1421.78
-32.8648
32.6329
1419.85
-63.4313
46.5512
1342.37
-17.4964
181.931
1312.5
102.178
84.4469
1211.73
134.516
161.738
1145.16
125.444
97.2364
1087.7
78.8535
106.444
1055.66
46.0756
71.9157
1047.56
33.5706
60.3241
1043.5
22.1402
37.8784
1049.88
21.8748
21.9002
1054.75
13.4151
10.1422
1064.79
12.9837
5.21276
1069.77
6.15962
2.16886
1074.25
5.2977
0.868491
1.08665
0.334689
294.316
638.481
864.335
-730.317
1529.74
-658.753
1565.96
-63.2289
1553.11
-20.0143
1500.39
-10.7177
1356.84
126.056
1278.57
180.451
1177.03
236.054
1115.94
186.533
1064.89
129.903
1038.39
72.5748
1032.87
39.0936
1033.91
21.0964
1044.47
11.3159
1052.01
5.87508
1061.9
3.10087
1066.78
1.28042
1071.43
0.639775
0.255526
1044.43
-391.601
-1340.46
1157.21
-184.201
195.333
1412.03
-402.152
155.586
1524.83
-270.777
345.456
1572.04
-154.44
149.945
1597.47
-46.9393
-28.699
1622.84
-1.01177
-162.893
1672.81
9.90593
-245.8
1730.3
11.234
-278.249
1804.97
-4.28226
-294.625
1872.84
-3.23765
-280.956
1922.86
-14.5422
-198.696
1912.81
-3.42935
-71.5949
1752.69
18.4829
54.2546
1505.98
104.29
-55.7365
1388.4
120.524
-285.423
1390.8
101.648
-329.771
1364.71
71.7003
-118.625
1264.98
73.5232
84.4804
44.2945
77.2343
634.384
-537.237
2100.54
977.795
-381.514
405.285
1142.71
-385.366
-199.89
1187.02
-288.223
45.9759
1213.21
-198.777
39.5547
1188.01
-50.0272
19.6215
1168.59
-20.6541
-33.5677
1120.01
39.0243
-90.1508
1103.2
30.6021
-131.034
1086.34
44.8701
-146.534
1117.38
28.35
-117.811
1129.2
36.581
-34.05
1130.65
43.9354
115.667
1089.17
53.5766
192.889
1075.35
83.2534
116.213
1124.15
104.096
-46.1716
1174.06
101.259
-65.4925
1177.26
92.3088
21.698
1156.95
92.3067
84.2281
55.7509
42.7212
-254.977
-1153.08
-2278.13
235.505
-756.105
-113.02
954.094
-794.63
-163.975
1168.97
-439.276
-52.1393
1275.74
-305.348
95.978
1279.39
-100.273
85.7346
1193.21
-51.5624
137.133
1119.51
-2.20105
115.281
1072.63
-14.9285
129.286
1028.69
27.9957
128.277
1017.92
-0.0468479
144.418
1000.97
27.383
140.715
1009.46
34.1719
110.869
1017.2
61.208
47.899
1042.34
86.3415
0.927502
1074.59
115.291
-35.33
1095.49
113.566
-21.9921
1100.11
102.678
11.8079
1101.86
90.8865
32.1381
51.6388
16.5506
1578.48
47.9768
1383.3
1321.33
-175.714
269.753
1352.05
-336.288
-333.031
1296.12
-233.218
-160.391
1343.09
-230.611
-34.7224
1367.98
-80.9558
59.4857
1337.17
-37.3275
114.397
1243.42
57.734
103.275
1133.01
21.7974
127.142
1033.52
77.186
126.361
985.267
20.6094
124.433
945.122
53.974
105.094
932.724
40.3004
82.4851
926.51
66.6655
53.3185
945.253
73.6113
23.2269
975.317
90.5931
9.65765
1007.65
87.9473
3.72762
1035.08
79.4869
6.93033
1057.99
67.3364
9.68852
40.4313
3.92045
-899.646
644.921
-2061.73
66.2303
-627.419
256.206
689.013
-621.846
-230.867
741.938
-278.045
-59.005
943.718
-274.862
-181.999
941.809
-80.8512
77.8673
1020.37
-184.393
175.696
1026.89
2.04067
152.252
1026.25
-46.0673
178.072
979.202
75.6608
138.984
966.785
-10.0857
117.538
945.341
50.5781
78.2957
951.515
23.1436
43.994
960.222
54.8339
20.3982
980.043
54.2777
8.64966
999.387
73.7735
0.744346
1020.87
69.1197
-0.116315
1039.26
62.5598
1.02998
1053.47
53.1945
2.20944
33.5258
1.13459
406.074
397.25
-1715.13
905.102
-550.012
-389.691
874.816
-322.009
268.387
823.142
-229.164
-116.543
824.437
-235.863
-404.207
781.12
-56.4506
141.282
931.509
-394.814
161.657
878.531
73.4009
66.6841
936.634
-147.472
119.541
902.859
85.8325
77.9221
910.442
-41.5324
80.2325
903.444
34.5244
70.5654
914.133
-7.71996
58.4327
924.239
33.2773
35.8849
944.634
26.587
22.0895
972.51
43.1805
8.59823
995.334
44.4917
4.6532
1015.38
41.53
2.5002
1030.75
37.2397
1.58613
24.0203
0.514751
527.438
518.689
-3305.64
756.415
-460.727
-102.884
895.891
-254.047
347.32
977.293
-344.108
-54.5475
1004.86
-323.323
-335.405
842.079
52.768
147.089
635.976
-78.1135
189.537
-37.7787
-81.1226
-33.0765
475.539
74.8233
-17.2763
62.5665
74.5765
74.246
565.098
-65.7126
-107.256
-18.9167
-64.217
-32.3369
588.835
22.4863
-98.8975
40.7104
7.41516
26.881
693.881
-32.4096
1.72624
-29.1143
-39.6625
-34.6527
766.311
-27.2037
25.1233
1.4744
-32.908
-1.41949
835.57
-27.6476
25.702
-16.8882
-28.7329
-16.8467
890.638
-20.5625
19.9053
3.29499
-20.2437
3.72186
931.827
-20.7534
12.7135
966.981
3.95333
7.10202
995.528
13.8337
3.65553
1013.4
22.2895
2.45127
1028.9
20.819
1.83225
14.9546
0.758128
1014.98
60.4728
-308.48
1174.6
-447.832
130.807
1291.27
-295.999
660.803
1263.37
-268.141
225.882
1104.41
-235.205
123.25
195.878
28.1498
65.5226
210.208
191.274
207.366
98.764
35.2822
100.739
-14.4715
121.071
-29.8674
41.0324
-27.3765
-63.674
87.8948
85.0815
-7.1025
1.13554
-105.877
96.122
-33.3464
-23.7464
15.1935
-93.3485
121.451
-6.62011
-14.1897
-17.3912
-155.867
169.985
-38.5556
9.41883
-9.12779
-183.256
197.567
-46.5308
14.144
-3.65525
-217.565
221.78
-35.9844
7.7766
-2.51589
-226.498
228.196
-25.7059
5.96147
974.082
-21.7031
26.6311
-235.381
-246.781
-235.116
-245.939
-2.34726
-21.3763
-2.03535
986.773
-16.686
15.3256
1000.95
-5.77594
10.5984
1015.5
4.47586
6.46827
1025.81
8.23409
4.55297
6.72815
1.86263
1933.37
-1399.73
373.058
1513.58
-595.402
152.255
1397.88
-303.273
133.313
1184.96
-121.564
196.054
240.597
-54.3324
441.551
189.943
236.659
192.151
-36.8094
225.889
33.8264
45.8409
7.06236
2.73723
-46.4954
39.3713
-0.11698
-2.55854
-23.6414
-31.8178
-18.1906
31.8782
18.6201
23.1514
12.0652
-42.9324
-5.60656
41.8739
11.3979
-16.798
7.96083
-44.0681
6.60535
40.2876
-3.56246
-7.22324
2.60524
-46.8625
10.6226
48.7206
-10.5333
-4.5525
-7.38012
-55.2106
17.2685
55.8642
-16.393
5.85094
-9.45369
-61.489
15.544
61.6213
-17.8548
11.6321
-2.80155
-63.151
8.34872
62.1292
-8.03658
3.51119
-63.5672
-4.10144
249.595
-20.3229
6.82069
-63.3549
-63.4871
-63.2855
1010.61
-29.055
24.3122
-251.531
-254.083
-251.423
-253.841
1012.78
-16.9944
17.6094
1017.33
-8.34459
15.8681
1020.6
-1.85158
13.1577
0.209712
6.44558
1696.62
-1352.88
1066.24
1655.83
-439.047
-17.4074
1468.63
29.4598
-364.39
1255.64
58.6415
-108.674
271.806
147.678
23.1917
307.816
222.215
259.26
-59.9674
-39.3142
279.421
22.9789
68.6883
-24.9184
-11.2536
-69.616
67.2842
11.3169
27.1868
8.33287
-13.9776
-44.742
46.8236
12.6672
-9.10409
-8.87492
-21.5713
-52.2611
52.6162
22.7582
7.33291
1.43004
-11.5334
-58.0852
56.9216
14.9476
-3.68065
20.7134
13.0874
-65.6451
68.186
-13.8656
-22.4761
8.9902
12.9456
-71.1601
71.1232
-10.1889
-11.71
-2.77652
19.8444
-70.2648
70.6405
-19.6836
2.24013
-3.46928
9.05627
-69.4753
68.6488
-9.8187
5.05822
-66.98
-6.45852
16.8914
262.874
-15.1707
9.96719
-67.286
-66.7795
-67.058
1031.14
-28.2981
27.4941
-261.093
-262.605
-260.407
-261.662
1025.62
-21.8979
20.1958
1024.78
-17.2424
18.4384
1025.52
-10.9335
15.6301
-6.76415
7.54876
817.951
-1112.4
-2479.22
1128.59
-504.371
192.593
1233.34
28.1357
-126.006
1232.44
66.3012
-64.1609
307.316
220.595
-30.2216
310.062
273.732
289.854
13.1283
-30.1672
312.378
35.7813
-23.8044
-11.3578
-5.09177
-80.2622
82.41
4.43635
9.86537
-13.9304
-4.71224
-83.2149
83.2887
3.64078
14.928
-1.24386
-19.2817
-76.1509
70.6498
15.5202
10.5064
-17.4125
-16.4938
-70.311
71.9536
15.2241
17.0395
1.11516
7.36431
-78.2016
81.0331
-2.3582
-8.9528
-1.41676
2.25835
-82.7744
81.8011
-3.2108
3.3425
4.32767
16.5889
-80.1069
78.7758
-15.6756
-3.90987
-0.24493
9.41247
-75.8442
74.0513
-8.06584
0.691217
-69.1432
-3.46274
13.2099
267.368
-8.74609
7.42087
-69.0244
-68.831
-68.7917
1035.92
-25.791
22.7987
-263.626
-262.132
-263.138
-262.208
1030.35
-25.4706
16.9425
1029.49
-25.3725
16.6574
1029.32
-18.8225
15.0849
-12.7252
7.44503
1452.81
-1115.42
-74.3846
1404.4
-432.464
35.7548
1516.34
179.34
-212.185
1427.12
168.613
112.501
349.583
287.327
92.4744
367.695
335.149
353.169
-6.98514
-47.1515
346.963
58.9642
-2.20739
-0.401769
-6.08199
-90.1925
90.4866
6.87879
-0.689169
0.014201
-8.26505
-85.4203
82.9335
10.7101
0.0276112
-5.38225
-8.88698
-81.2509
82.389
7.96391
5.1672
-15.2609
-6.2185
-87.2282
89.9313
2.41135
16.3649
-28.5032
3.79146
-95.694
96.4398
-6.49878
30.4647
16.9956
9.8994
-87.4127
83.2487
-8.02822
-14.7028
-4.42019
10.0644
-73.3441
69.8491
-8.37157
6.2223
-0.650167
3.46884
-67.4852
67.4577
-3.07971
0.288496
-67.216
0.90393
3.08395
257.264
3.31746
0.538797
-65.1023
-67.5991
-65.1907
1026.23
-35.4814
14.7161
-259.091
-253.927
-259.79
-253.955
1027.62
-34.2909
12.4764
1031.7
-37.6122
14.5174
1034.33
-28.3691
12.7601
-18.7027
6.06604
946.375
-314.268
-1311.81
1055.26
3.57735
-1075.38
1303.35
114.231
-676.146
1341.58
123.653
-15.2213
1459.54
167.241
114.271
378.439
-74.6153
248.711
-34.6117
20.3992
-30.0494
26.4912
371.55
369.977
364.979
-4.14971
-50.9077
378.366
11.2331
61.3899
-7.00093
-3.85323
-6.63905
-12.5406
-67.0346
-372.063
360.655
40.7247
82.7027
-10.127
-12.3425
-9.97498
-5.60985
-50.9308
-369.394
359.778
13.0361
67.6075
-3.52046
-6.39778
-4.56905
-0.127769
-12.4365
-339.457
314.749
9.41655
21.61
4.59372
-1.68465
3.33604
8.4585
13.858
-309.402
290.016
-19.1818
-10.9968
10.5561
7.39607
9.29599
0.0329165
1.42834
-272.298
261.757
5.60733
0.536419
2.10156
-0.94368
1.77755
-0.211496
-4.22258
-269.158
264.042
-2.50283
5.65032
3.21477
-0.115575
3.30319
0.13961
-2.02799
-260.54
251.705
0.932747
2.50674
3.53633
0.18947
3.55885
1017.52
-9.10203
-2.23462
-6.22493
12.3549
-5.91655
12.6592
-256.008
-254.308
-255.197
-253.343
1024.88
-42.8659
-5.61013
1033.53
-45.3983
-1.79272
1043.66
-50.6025
1.68425
1049.1
-36.2843
3.04774
-23.5884
1.53561
2365.57
-1604.35
1367.93
1835.87
163.345
385.172
1612.23
300.498
-8.44985
1534.93
141.187
97.0283
1567.41
70.205
234.494
1557.01
-121.926
180.403
1583.39
1.46891
342.494
-19.4387
-45.7446
-24.1671
-52.7327
1657.46
-172.686
319.635
-22.4652
25.7507
-28.329
20.0015
1689.91
-78.4259
317.494
-6.52358
-13.0242
-15.4214
-24.8536
1702.75
-130.143
277.821
-9.58356
30.1274
-17.4668
26.7924
1622.56
-27.7932
289.789
5.90102
7.28776
2.04846
0.714805
1478.82
-16.7837
302.41
-0.364882
27.8175
-4.23794
30.4906
1282.3
117.87
230.879
-6.76041
3.33746
-3.9039
4.91427
1174.57
63.0598
72.9081
-7.55189
17.3911
-6.09061
18.3403
1122.12
33.5663
-13.7345
1097.92
-35.6215
-13.626
1087.11
-49.1385
0.558003
1080.8
-54.7842
8.6715
1075.35
-36.5284
8.27545
-23.782
4.81454
1349.41
253.698
1152.52
1027.1
271.347
37.6463
995.089
218.479
-227.535
1053.75
9.39388
105.182
1194.66
-163.89
123.581
1273.39
-208.207
-30.0517
1372.45
-113.683
77.3564
1411.74
-186.768
-57.146
1436.05
-51.2945
-71.7305
1449.49
-95.215
-95.4071
1425.45
30.7396
6.30943
1366.84
77.6531
57.6206
1330.1
169.901
46.7678
1302.32
110.232
-50.2983
1260.98
63.0951
-36.597
1206.59
-8.18331
-11.0114
1149.75
-26.3346
28.1531
1111.72
-40.9318
31.6466
1090.43
-25.6635
14.78
-18.3323
6.5748
1280.37
1508.27
735.408
1082.15
231.416
193.92
1114.72
206.11
8.27526
1153.77
-6.72184
-70.7529
1067.64
-146.707
100.293
1035.77
-81.8297
-218.657
1027.45
12.4457
-150.808
1037.16
-68.9281
-320.357
1087.89
33.5024
-365.467
1115.51
-38.3344
-365.076
1174.19
60.294
-318.765
1241.69
77.9514
-206.89
1327.57
136.741
-80.3195
1381.95
92.5167
-39.7718
1391.47
63.347
19.9873
1342.07
20.811
57.8
1247.47
18.2474
94.7497
1169.91
-4.29485
76.8404
1126.34
-1.97702
37.3905
-5.62103
16.3403
598.564
-1022.87
-1547.47
921.107
81.9941
616.421
1165.78
38.1599
-98.4784
1178.32
21.3178
-67.5795
844.559
80.0644
102.094
796.602
113.033
-192.692
887.936
159.985
-182.163
904.7
82.345
-324.805
1000.65
73.7017
-343.736
1031.46
-3.45863
-302.068
1122.45
22.7983
-238.565
1198.96
18.4752
-125.744
1271.12
59.0153
8.05584
1296.26
37.107
86.065
1277.93
39.6753
137.171
1232.39
21.5805
146.584
1174.64
33.8962
128.721
1127.81
15.5819
77.6343
1101.96
11.3756
31.5858
1.38187
12.0693
1181.22
-1513.37
1174.97
1195.77
-286.078
408.159
1233.21
-63.3816
-272.027
1256.81
-6.24402
-222.442
1130.94
184.652
-175.848
1076.34
201.755
-152.121
1034.76
232.771
29.698
1039.33
165.921
-72.4183
1085.72
121.543
-32.6297
1112.12
40.7647
-51.7438
1139.23
28.7338
25.2756
1150.21
6.36235
71.0111
1151.81
27.6063
133.576
1139.36
17.3841
139.44
1121.85
31.3836
122.203
1105.29
22.6018
81.919
1098.78
27.4464
52.3981
1094.06
14.0923
23.6537
1090.99
11.5097
11.0958
2.75395
3.8886
1062.24
-1789.94
4938.22
1220.64
-151.293
-1513.69
1180.46
-16.1243
-738.403
1173.79
6.15683
-194.062
1142.63
119.163
129.282
1104.16
127.622
159.149
975.462
112.92
430.484
956.289
117.979
151.562
969.334
76.3601
193.876
959.206
47.4755
100.654
990.27
11.0031
93.1108
998.596
3.53569
66.4167
1022.47
9.71034
54.3462
1032.02
10.7063
35.0081
1047.54
16.7962
20.9629
1057.23
11.7268
11.3261
1069.78
12.6779
7.43207
1075.91
6.41804
3.72039
1080.87
5.49756
1.92024
1.21178
0.776897
1076.79
-1273.48
1260.64
-1065.46
1341.91
-756.147
1349.26
-64.4245
1345.4
103.008
1305.24
157.061
1205.47
338.745
1162.07
341.838
1126.35
348.135
1106.18
254.175
1081.45
165.635
1058.37
99.1909
1047.24
59.9311
1044.28
34.7687
1052.32
20.0703
1059.15
10.7708
1068.82
6.10966
1073.75
2.76318
1078.44
1.4561
0.549564
1751.66
-695.796
-466.018
1684.43
-195.037
457.596
1548.22
-214.059
505.858
1593.72
-129.348
429.305
1596.62
-57.8865
204.924
1591.92
-24.2796
0.28091
1574.45
-46.0503
-99.3744
1588.06
-89.8106
-169.595
1621.58
-118.509
-193.263
1674.48
-119.545
-227.976
1733.02
-103.043
-236.455
1827.99
-102.123
-191.544
1929.67
-92.5366
-80.7331
1941.11
-27.9766
70.787
1746.97
66.883
71.5252
1457.76
141.442
-137.654
1272.07
126.498
-270.585
1196.65
81.3577
-124.565
1169.63
63.2619
48.2394
39.7912
50.1221
1112.26
-1219.77
2113.68
1233.23
-228.243
317.524
1124.78
-202.825
-102.675
1148.34
-143.241
36.3058
1221.3
-113.32
22.0283
1230.29
-38.5534
24.9065
1219.32
-81.4812
12.834
1173.45
-105.553
-28.5412
1129.83
-153.538
-52.3854
1080.5
-124.918
-91.8272
1069.78
-107.993
-102.134
1068.12
-61.7227
-72.7925
1088.09
-26.7986
29.959
1093.57
23.5629
135.87
1087.72
85.1404
103.798
1083.98
128.682
-29.6723
1098.44
123.808
-77.257
1110.92
97.603
-7.02481
1121.07
83.7803
53.5569
49.2823
30.3391
240.394
-1317.29
822.766
572.897
-594.961
-78.8058
898.632
-633.334
-59.2011
1037.08
-307.737
-26.0868
1173.47
-245.579
91.8423
1214.05
-75.5358
82.1343
1182.87
-73.8127
160.644
1124.86
-60.9002
128.642
1064.11
-104.584
141.08
1014.77
-73.0819
125.788
1010.56
-81.934
122.561
1001.43
-33.1073
121.237
1008.09
-10.5022
87.9119
1015.54
35.8914
28.1142
1034.76
79.8691
-13.0191
1052.82
120.413
-45.1185
1069.81
120.888
-36.0673
1080.7
103.088
-4.55902
1092.83
85.0633
18.719
48.2008
12.7248
2231.06
54.0749
2322.03
1711.42
-106.649
301.075
1345.96
-195.001
-405.903
1225.58
-161.504
-186.242
1252.48
-203.839
-103.363
1289.83
-64.4694
11.0661
1284.31
-51.6991
97.8048
1207.01
0.119632
119.553
1092.39
-45.9628
183.147
993.723
-14.6124
166.556
955.004
-51.3102
132.529
924.774
-4.1872
106.404
921.151
-0.510462
76.1162
918.728
45.7422
45.8904
941.199
62.2275
18.3971
976.792
90.1605
4.3171
1011.96
88.9556
0.495713
1038.12
79.4245
4.42836
1059.02
66.0007
7.85164
39.7353
3.6354
-569.234
-266.989
-1060.25
204.261
-451.025
-172.913
633.653
-456.592
-398.669
732.159
-285.364
-33.6504
833.866
-287.64
-199.906
855.24
-75.5101
67.5343
959.245
-215.117
235.109
967.293
-33.3761
177.7
984.416
-101.616
216.601
946.14
3.76483
158.883
945.286
-62.8702
129.952
931.191
4.28658
83.9165
943.203
-9.2668
40.7382
955.103
38.9282
15.3126
977.677
43.177
5.12665
999.431
70.3417
-1.19119
1022.2
67.0389
-0.969582
1040.28
61.7061
0.674193
1053.64
52.8668
1.98186
33.4079
1.12859
701.162
559.819
1221.57
866.789
-434.636
-571.707
1060.35
-252.971
-128.795
958.46
-235.954
-64.0629
699.472
-218.04
-214.818
698.066
-39.6659
106.843
933.291
-414.549
125.864
864.095
26.4967
76.0074
906.829
-134.534
109.725
856.024
70.8717
61.6206
871.812
-67.7236
69.2977
876.236
15.0696
55.3588
897.269
-15.2653
43.3984
915.756
27.5044
28.8222
940.983
22.5689
17.4697
970.845
42.0347
7.04333
994.38
44.1098
4.04787
1014.88
41.417
2.29019
1030.54
37.244
1.54447
23.9986
0.535189
911.939
499.933
-6.08549
882.132
-410.743
-96.9699
1101.27
-223.12
98.3277
1099.62
-301.253
12.4005
908.15
-249.032
-112.937
791.702
80.4895
143.382
749.394
-78.0649
94.3353
-52.903
-61.4513
-84.6197
584.054
61.0111
-83.2365
86.8375
29.4237
80.5248
584.62
-47.2819
-119.795
-27.6455
-30.0388
-17.5957
577.986
5.10418
-93.7564
21.8938
15.4399
29.9276
689.374
-48.7374
-7.55798
-40.6422
-44.7341
-35.7142
758.6
-35.5212
35.3266
-1.73768
-29.4128
2.31218
830.887
-28.6379
25.2497
-17.0607
-25.7323
-15.6696
887.328
-20.2835
22.7574
3.53708
-19.6018
4.55978
930.481
-20.389
12.518
966.242
4.43092
8.94527
995.264
14.3897
4.35408
1013.23
22.9059
2.99773
1028.79
21.3382
2.17554
15.1428
0.900401
255.819
-392.184
2844.65
733.913
-313.991
-444.039
1186.67
-215.116
200.045
1196.97
-212.607
126.933
1113.09
-183.523
141.619
210.688
35.7666
73.8213
226.535
237.57
242.93
103.024
29.1705
99.597
-70.0709
138.226
-27.3429
91.8103
59.2642
-100.087
118.881
71.7722
-88.8202
61.5885
-121.115
105.742
-7.82517
-85.6728
11.736
-105.221
136.116
-26.7935
-10.7327
-7.96498
-175.994
188.785
-63.1072
9.54333
-18.4187
-197.61
206.065
-49.9299
24.3722
-13.5019
-220.202
221.376
-33.8955
17.5853
-9.74957
-225.187
227.051
-24.4303
12.0325
972.047
-20.9632
36.4928
-234.656
-244.71
-234.266
-243.67
-1.87152
-20.6521
-1.50927
985.7
-14.8691
20.9729
1000.46
-5.45604
15.6863
1014.99
5.78566
9.0574
1025.53
9.01586
6.3378
7.0877
2.54616
639.897
-1640.95
237.031
771.592
-464.802
171.371
1103.96
-242.111
-172.059
1004.79
-87.6101
170.224
237.231
-20.17
406.433
191.441
245.998
201.886
-47.3877
234.546
50.552
35.2871
-14.9629
0.402811
-48.7728
38.9424
2.8847
21.5058
-9.90827
-32.7239
-15.1122
38.4076
16.2493
3.08748
32.6494
-55.3045
-12.7778
54.1053
16.1651
-34.8376
15.5939
-49.2813
9.0822
48.3536
-4.86804
-18.8803
3.15502
-55.2657
19.6365
55.8023
-20.9232
-2.40495
-8.38436
-56.2147
14.2077
55.0224
-13.7145
9.08338
-12.3145
-59.2815
11.1091
59.6308
-10.2428
11.0988
-4.62154
-61.6904
7.57728
60.9616
-6.94261
4.71563
-63.069
-8.7969
248.738
-19.3153
10.3579
-62.9682
-62.9683
-62.941
1009.39
-25.956
34.467
-251.023
-253.327
-251.054
-253.051
1012.17
-15.022
24.3924
1016.99
-7.05263
23.8833
1019.98
-1.42533
20.6102
0.5517
9.94071
1912.37
-1667.38
3112.6
1650.65
-482.426
261.94
1291.58
-1.94907
-245.477
1051.9
41.6634
1.73081
176.038
169.951
167.181
190.092
171.432
180.224
-81.4008
-74.4687
189.139
71.6256
71.1432
-23.375
-16.006
-54.3996
55.7357
18.1718
19.8731
-0.696778
-5.30797
-55.3977
55.0766
3.54351
2.78238
4.91677
-17.28
-58.5082
61.9696
17.476
-8.57417
14.0315
-10.1559
-67.2644
68.164
13.5088
-18.284
-65.3498
25.1564
23.902
63.0256
-22.9939
-23.7404
-58.8339
16.28
15.9953
-16.6583
-15.7971
59.014
-4.10427
11.5452
-62.4935
63.0152
-12.548
4.58543
-7.67333
6.42858
-64.9037
65.3802
-6.62638