/*--------------------------------*- C++ -*----------------------------------*\
  =========                 |
  \\      /  F ield         | OpenFOAM: The Open Source CFD Toolbox
   \\    /   O peration     | Website:  https://openfoam.org
    \\  /    A nd           | Version:  10
     \\/     M anipulation  |
\*---------------------------------------------------------------------------*/
FoamFile
{
    format      ascii;
    class       volScalarField;
    location    "1";
    object      turbidity;
}
// * * * * * * * * * * * * * * * * * * * * * * * * * * * * * * * * * * * * * //

dimensions      [0 0 0 0 0 0 0];

internalField   nonuniform List<scalar> 
12920
(
-0.0692581
-0.0710209
-0.0984985
-0.123716
-0.139068
-0.136944
-0.124482
-0.112109
-0.103459
-0.0987517
-0.0978725
-0.101947
-0.108148
-0.11113
-0.110345
-0.122316
-0.163377
-0.236571
-0.320267
-0.397869
-0.0259632
-0.0571333
-0.089689
-0.126538
-0.15257
-0.161989
-0.153387
-0.141526
-0.134417
-0.135488
-0.144931
-0.156452
-0.168826
-0.191371
-0.222777
-0.261317
-0.31495
-0.369484
-0.419252
-0.458817
-0.0342698
-0.0494779
-0.0818851
-0.113833
-0.140918
-0.166683
-0.184721
-0.190097
-0.19237
-0.197548
-0.210026
-0.2294
-0.25657
-0.292366
-0.33148
-0.372649
-0.412377
-0.444728
-0.468689
-0.484266
-0.0100838
-0.0469175
-0.100595
-0.143189
-0.174693
-0.197095
-0.217777
-0.232657
-0.248895
-0.26613
-0.293734
-0.324563
-0.359765
-0.392209
-0.421947
-0.446758
-0.46632
-0.480007
-0.488669
-0.493501
-0.0512276
-0.0944636
-0.149867
-0.173044
-0.208515
-0.242769
-0.270306
-0.286632
-0.312778
-0.33477
-0.368249
-0.396328
-0.425072
-0.446858
-0.464652
-0.477314
-0.485993
-0.491343
-0.494345
-0.495837
-0.0182053
-0.0543855
-0.123779
-0.171119
-0.163449
-0.242475
-0.263754
-0.292497
-0.315307
-0.351956
-0.392039
-0.423774
-0.449662
-0.466727
-0.478347
-0.485541
-0.490028
-0.492734
-0.494304
-0.495235
-0.0377721
-0.065254
-0.133523
-0.149354
-0.144719
-0.199125
-0.233378
-0.276619
-0.254542
-0.320771
-0.34729
-0.394427
-0.384769
-0.414436
-0.433114
-0.449296
-0.459243
-0.466236
-0.471934
-0.47682
-0.0328049
-0.0487834
-0.0738092
-0.132213
-0.172176
-0.20893
-0.210319
-0.238127
-0.180551
-0.261086
-0.169219
-0.142693
-0.138142
-0.130065
-0.144979
-0.203602
-0.252236
-0.294163
-0.330109
-0.361691
-0.0164334
-0.0366626
-0.0590264
-0.0995779
-0.158973
-0.189349
-0.2045
-0.198824
-0.163929
-0.112992
-0.103316
-0.075106
-0.0318586
-0.00665054
-0.0135003
-0.0733468
-0.129593
-0.183742
-0.236918
-0.286813
-0.0110872
-0.0278537
-0.0447792
-0.0729436
-0.110493
-0.132416
-0.178406
-0.18103
-0.181321
-0.139113
-0.118298
-0.0906424
-0.0669108
-0.0269744
-0.0186996
-0.0679165
-0.120521
-0.173501
-0.227091
-0.278364
-0.0266583
-0.0431012
-0.0601125
-0.0791147
-0.108767
-0.117893
-0.132645
-0.151574
-0.16133
-0.160721
-0.13351
-0.0907466
-0.0685761
-0.037932
-0.0225937
-0.0693776
-0.122365
-0.174864
-0.22769
-0.278511
-0.0220793
-0.0480935
-0.0680518
-0.0862497
-0.107838
-0.111342
-0.114622
-0.119982
-0.125355
-0.12535
-0.112745
-0.0866363
-0.0564221
-0.0307428
-0.0224172
-0.09841
-0.154879
-0.205399
-0.252423
-0.29661
-0.02823
-0.048129
-0.0551112
-0.0825156
-0.110278
-0.132153
-0.132152
-0.131833
-0.142293
-0.137867
-0.129626
-0.111608
-0.111979
-0.109161
-0.17668
-0.23949
-0.289218
-0.329332
-0.359652
-0.384587
-0.0126479
-0.0305162
-0.0539139
-0.0784597
-0.101598
-0.119242
-0.134613
-0.143837
-0.153435
-0.163918
-0.181065
-0.206384
-0.236006
-0.269461
-0.299736
-0.345474
-0.398186
-0.440553
-0.46622
-0.480147
-0.0324531
-0.0555135
-0.0696929
-0.0959888
-0.112142
-0.116935
-0.12527
-0.12705
-0.133618
-0.14271
-0.164965
-0.197696
-0.232988
-0.253361
-0.284743
-0.336423
-0.395314
-0.439294
-0.466941
-0.48241
-0.0365766
-0.0467467
-0.065144
-0.0835928
-0.100828
-0.106951
-0.117662
-0.111629
-0.10989
-0.114599
-0.137476
-0.178535
-0.227358
-0.266231
-0.304273
-0.347721
-0.392176
-0.432081
-0.461792
-0.479899
-0.0439978
-0.044826
-0.0599701
-0.0782965
-0.0963424
-0.111905
-0.129384
-0.121496
-0.11946
-0.131172
-0.161085
-0.205052
-0.252483
-0.293263
-0.333753
-0.378571
-0.42234
-0.457416
-0.478712
-0.489284
-0.0215985
-0.043298
-0.0524398
-0.0647555
-0.0806046
-0.100519
-0.123641
-0.14486
-0.16455
-0.19112
-0.223677
-0.264762
-0.30823
-0.355924
-0.401739
-0.441605
-0.468223
-0.483785
-0.491358
-0.494728
-0.0249602
-0.047841
-0.0565881
-0.0829512
-0.113777
-0.143196
-0.164396
-0.186382
-0.21464
-0.261212
-0.313364
-0.365312
-0.404822
-0.4369
-0.458764
-0.473929
-0.48348
-0.489422
-0.49295
-0.494906
-0.0646797
-0.0569155
-0.0671386
-0.0873593
-0.107783
-0.133169
-0.165356
-0.203543
-0.247626
-0.303945
-0.363894
-0.414838
-0.449457
-0.470568
-0.482438
-0.489167
-0.492866
-0.494899
-0.495984
-0.496507
-0.0311278
-0.0342499
-0.0430176
-0.0550985
-0.0513454
-0.0409891
-0.0308413
-0.0239375
-0.0199959
-0.0177928
-0.0165635
-0.0162325
-0.0154186
-0.0142351
-0.0135966
-0.0162091
-0.0286472
-0.059824
-0.104961
-0.112332
-0.0177641
-0.017835
-0.0250623
-0.0378757
-0.0401278
-0.033501
-0.0254098
-0.0196854
-0.0181148
-0.0216956
-0.0363342
-0.0594435
-0.0762166
-0.0698287
-0.0467823
-0.0414016
-0.0663547
-0.105019
-0.119252
-0.0916821
-0.0112673
-0.0217203
-0.0298385
-0.0382157
-0.0538698
-0.054588
-0.0510791
-0.0516861
-0.0629401
-0.0714466
-0.0786638
-0.0754097
-0.0633083
-0.0426604
-0.0318559
-0.0339463
-0.0538532
-0.0709204
-0.0678758
-0.0454961
-0.012447
-0.0345614
-0.0439013
-0.0486645
-0.0734205
-0.0865702
-0.0850261
-0.0793685
-0.0844938
-0.0987198
-0.106408
-0.0977964
-0.0782009
-0.0544492
-0.0375643
-0.0330075
-0.0349872
-0.0341614
-0.0264788
-0.0151173
-0.0458068
-0.0721546
-0.0748797
-0.0520811
-0.0605028
-0.0843268
-0.101413
-0.118268
-0.130126
-0.127468
-0.110245
-0.0842588
-0.0572325
-0.0360554
-0.0229489
-0.016849
-0.0146982
-0.0120876
-0.00858522
-0.00492851
-0.0215503
-0.0592903
-0.108661
-0.0629574
-0.0410209
-0.0883844
-0.0783041
-0.0890886
-0.0857703
-0.0967443
-0.099349
-0.0905487
-0.0721829
-0.0495688
-0.031077
-0.0183152
-0.0111428
-0.0068987
-0.00413092
-0.00227277
-0.0192805
-0.0492621
-0.100804
-0.069604
-0.0546811
-0.0801653
-0.0715244
-0.0452751
-0.0256284
-0.0347969
-0.0391773
-0.0346595
-0.0293386
-0.02185
-0.014789
-0.00923208
-0.00575186
-0.00384976
-0.00260691
-0.00165938
-0.0114452
-0.0217594
-0.04279
-0.0606185
-0.0676705
-0.0703454
-0.0768117
-0.0509886
-0.0334718
-0.037084
-0.0630472
-0.0560558
-0.0380342
-0.0240018
-0.0110297
-0.0068863
-0.00492355
-0.00351635
-0.00257407
-0.00167383
-0.0145565
-0.015748
-0.0318532
-0.0580519
-0.0998382
-0.100528
-0.0687648
-0.123984
-0.0231891
-0.0519658
-0.0921009
-0.084669
-0.071638
-0.0526739
-0.0179829
-0.00428471
-0.0038828
-0.00445236
-0.00460794
-0.00365128
-0.00467737
-0.00638103
-0.0136575
-0.0303275
-0.0561435
-0.086523
-0.11459
-0.0795972
-0.0719568
-0.0435872
-0.0507418
-0.0635026
-0.0642964
-0.0466425
-0.0168237
-0.00391708
-0.00378771
-0.00446476
-0.00478273
-0.00393419
-0.00430085
-0.0122301
-0.0147523
-0.0221214
-0.0386582
-0.0499538
-0.0846836
-0.113421
-0.0964274
-0.105849
-0.0876837
-0.10135
-0.0707346
-0.0323442
-0.00796144
-0.00223447
-0.00305004
-0.00410842
-0.00470513
-0.00396432
-0.00670365
-0.0216216
-0.0223123
-0.0300394
-0.0416594
-0.0427176
-0.0491911
-0.0584357
-0.0891253
-0.108509
-0.117582
-0.104094
-0.0562947
-0.0160545
-0.00237671
-0.00378835
-0.00477802
-0.00553374
-0.00539743
-0.00403985
-0.00319277
-0.00756559
-0.0137909
-0.0288558
-0.0480555
-0.0684953
-0.0796713
-0.0967946
-0.111924
-0.112145
-0.0903937
-0.052575
-0.0277722
-0.0156108
-0.0155761
-0.0152786
-0.0136487
-0.0111324
-0.00838945
-0.00553587
-0.00364653
-0.00804629
-0.0170406
-0.0272855
-0.0470247
-0.0535815
-0.072338
-0.0780934
-0.0882723
-0.0958974
-0.108715
-0.117744
-0.102725
-0.0650918
-0.0419074
-0.0376755
-0.0366706
-0.0333387
-0.0279296
-0.0202959
-0.00362574
-0.00991612
-0.0156412
-0.0226484
-0.0254738
-0.024327
-0.0329493
-0.0345771
-0.0418691
-0.0521257
-0.0748628
-0.0896469
-0.0791964
-0.0591689
-0.0535784
-0.0610199
-0.0690609
-0.0684809
-0.0526794
-0.0343834
-0.00265162
-0.0151553
-0.0183689
-0.0172636
-0.0194833
-0.0189936
-0.0224359
-0.0258633
-0.0305703
-0.0338146
-0.0432922
-0.0518979
-0.0577188
-0.0666799
-0.0899607
-0.117223
-0.133949
-0.126333
-0.0953837
-0.0606626
-0.0075285
-0.0170748
-0.0183909
-0.017842
-0.0214636
-0.0208765
-0.0253143
-0.0252163
-0.0300632
-0.0414856
-0.0554964
-0.0740517
-0.100953
-0.138821
-0.175615
-0.197131
-0.185662
-0.142134
-0.0881287
-0.0478164
-0.00962238
-0.0120576
-0.0129656
-0.015331
-0.0211725
-0.0269944
-0.0435097
-0.0502636
-0.0694167
-0.0917765
-0.122532
-0.15209
-0.176863
-0.18973
-0.18131
-0.148549
-0.106828
-0.0650473
-0.0357395
-0.0179701
-0.0095771
-0.0125222
-0.0163553
-0.0269979
-0.044316
-0.0546356
-0.0810031
-0.0988091
-0.130572
-0.140341
-0.144772
-0.126713
-0.106026
-0.0762676
-0.0528727
-0.0319607
-0.0187096
-0.00951923
-0.00453145
-0.0020729
-0.0129593
-0.0190969
-0.0213024
-0.0243321
-0.0335652
-0.0488374
-0.0868217
-0.129173
-0.171494
-0.197092
-0.196012
-0.16179
-0.113229
-0.0698143
-0.0393995
-0.0208205
-0.01063
-0.00519944
-0.00257667
-0.00136775
-0.00842717
-0.0200531
-0.0318467
-0.0388838
-0.0352336
-0.0272223
-0.0214173
-0.0185458
-0.0169721
-0.0155645
-0.0143843
-0.0138127
-0.0137692
-0.0132941
-0.0127271
-0.0129793
-0.0179523
-0.0318841
-0.0459433
-0.0395566
-0.0104154
-0.0108846
-0.0149133
-0.0208199
-0.0242677
-0.0238328
-0.0229905
-0.0213128
-0.0185788
-0.0141832
-0.0111841
-0.0132701
-0.02194
-0.0218704
-0.0153777
-0.0132587
-0.0176604
-0.0267688
-0.0291868
-0.0191831
-0.00923187
-0.0116439
-0.014868
-0.0197471
-0.0278594
-0.0317206
-0.0342605
-0.0352707
-0.0354054
-0.0320865
-0.027157
-0.0200678
-0.0126457
-0.00793466
-0.00674762
-0.00711986
-0.0087007
-0.0107395
-0.00983018
-0.00575367
-0.0158939
-0.0185607
-0.0196808
-0.0230994
-0.0283116
-0.0342161
-0.0376234
-0.0397892
-0.0431699
-0.0417807
-0.0337312
-0.0233737
-0.0135449
-0.00700818
-0.00415305
-0.00347874
-0.00339966
-0.00317906
-0.00230395
-0.00116838
-0.0220343
-0.0293426
-0.0331793
-0.0313142
-0.0279896
-0.0368497
-0.0495609
-0.0585686
-0.0586045
-0.0490152
-0.032484
-0.017799
-0.00809749
-0.00356826
-0.00178952
-0.00118169
-0.000920715
-0.000687643
-0.000425442
-0.000202678
-0.0221518
-0.0309807
-0.0640288
-0.0501604
-0.0356977
-0.0434229
-0.0333492
-0.0295906
-0.0254197
-0.0251647
-0.0234363
-0.0183174
-0.0116593
-0.0060214
-0.00279913
-0.00124362
-0.000584452
-0.0002821
-0.000131155
-5.51511e-05
-0.0110887
-0.03233
-0.067584
-0.0591548
-0.0467834
-0.0450168
-0.0319138
-0.0166822
-0.0104563
-0.00859539
-0.0129021
-0.0076165
-0.00461586
-0.00238063
-0.00113974
-0.000537391
-0.000252273
-0.000118981
-5.47112e-05
-2.35207e-05
-0.00726284
-0.0122786
-0.0268118
-0.0382864
-0.0473719
-0.047007
-0.0414396
-0.0148703
-0.0159813
-0.0282125
-0.0447723
-0.0445243
-0.0255691
-0.01121
-0.0033181
-0.00121761
-0.000456825
-0.000172161
-6.70712e-05
-2.49705e-05
-0.0043568
-0.010184
-0.0258447
-0.0462374
-0.0714726
-0.0610543
-0.0410739
-0.0173801
-0.0133737
-0.0225395
-0.0454066
-0.0643179
-0.0601361
-0.0350232
-0.00732648
-0.000891072
-0.000360879
-0.000205785
-0.000136271
-7.14154e-05
-0.00133916
-0.00353394
-0.0107069
-0.021745
-0.0406841
-0.0631699
-0.0655905
-0.0230336
-0.0100188
-0.0176984
-0.0359094
-0.0375209
-0.0337312
-0.0230218
-0.00489467
-0.000576668
-0.000274299
-0.000191884
-0.000145605
-8.19912e-05
-0.00262482
-0.00518148
-0.0089345
-0.0139723
-0.0249085
-0.042998
-0.066312
-0.0827519
-0.0432277
-0.0416751
-0.0435654
-0.0546217
-0.0296119
-0.0112043
-0.00203999
-0.000257855
-0.000180008
-0.000167044
-0.000143759
-8.44759e-05
-0.00181809
-0.00766804
-0.00961312
-0.0135167
-0.0199697
-0.0225236
-0.0280439
-0.0395114
-0.0543073
-0.0568441
-0.0825383
-0.0792411
-0.0231727
-0.00466728
-0.000653562
-0.000851472
-0.000720759
-0.000541863
-0.000340554
-0.000168724
-0.00288985
-0.00423721
-0.006975
-0.0127496
-0.023339
-0.0406971
-0.0490867
-0.0619988
-0.0728834
-0.0765776
-0.0583156
-0.0284495
-0.0121289
-0.00632937
-0.00713857
-0.00601049
-0.00446524
-0.00295835
-0.00168579
-0.000844977
-0.00649001
-0.00730501
-0.00986778
-0.016067
-0.0299227
-0.0389967
-0.0533938
-0.0622801
-0.0710388
-0.0765288
-0.0775918
-0.0718222
-0.0505324
-0.0308779
-0.0225433
-0.0195903
-0.01586
-0.0114123
-0.00701895
-0.0037998
-0.012024
-0.0101569
-0.0156547
-0.020449
-0.0277386
-0.0322784
-0.0433822
-0.0475278
-0.0546948
-0.0553225
-0.0570731
-0.0501345
-0.0400648
-0.0369552
-0.0390658
-0.0414018
-0.0381487
-0.0292478
-0.0181565
-0.00981433
-0.0184957
-0.0127537
-0.0129379
-0.0144047
-0.018012
-0.0226163
-0.0324398
-0.0303807
-0.033774
-0.0311904
-0.0339769
-0.0388519
-0.045588
-0.0573462
-0.0675136
-0.0743612
-0.0722408
-0.0570148
-0.0358424
-0.0190091
-0.00612847
-0.0110576
-0.0121785
-0.0125148
-0.0166058
-0.0214171
-0.0246316
-0.0234102
-0.0248059
-0.0322945
-0.0459863
-0.0661139
-0.0871749
-0.103741
-0.115006
-0.109016
-0.0845096
-0.051783
-0.0258638
-0.0113594
-0.00857964
-0.0106251
-0.0115279
-0.0140182
-0.0184831
-0.0264938
-0.0321452
-0.0385123
-0.0452144
-0.0505224
-0.0676639
-0.0821448
-0.0936414
-0.0877219
-0.0690114
-0.0445103
-0.0255489
-0.0123433
-0.00538671
-0.0021438
-0.0145816
-0.0126199
-0.0162758
-0.0260558
-0.0373458
-0.0554828
-0.0758542
-0.0795867
-0.0861164
-0.0703322
-0.0545262
-0.0357808
-0.0225633
-0.0131514
-0.00868039
-0.00494896
-0.00270553
-0.00124363
-0.000529656
-0.000205886
-0.0102224
-0.0163396
-0.0204985
-0.0255666
-0.0352355
-0.048952
-0.0752552
-0.104257
-0.129919
-0.136454
-0.118257
-0.0816542
-0.0459678
-0.0220891
-0.00955141
-0.00385849
-0.00148727
-0.000547688
-0.000194415
-6.67514e-05
-0.00167142
-0.0169299
-0.0282476
-0.0290194
-0.0234783
-0.0183742
-0.0168374
-0.0169506
-0.0167253
-0.0156053
-0.0141012
-0.0128272
-0.0121931
-0.0121525
-0.0119668
-0.0112367
-0.0106366
-0.0121903
-0.0144603
-0.0110719
-0.0108342
-0.0146244
-0.0151385
-0.0165996
-0.017634
-0.0184737
-0.0198793
-0.0202891
-0.0186468
-0.0151226
-0.0111403
-0.00806083
-0.00746673
-0.00795624
-0.00745821
-0.0067931
-0.00646697
-0.00669282
-0.00623824
-0.00379213
-0.0162896
-0.0100097
-0.011036
-0.0147819
-0.0200583
-0.0232768
-0.0255523
-0.0253769
-0.0228522
-0.0180812
-0.0129511
-0.00911867
-0.00646402
-0.00492255
-0.0041292
-0.00348394
-0.00289783
-0.00235139
-0.0017182
-0.000917848
-0.00769045
-0.0115681
-0.0135343
-0.0144361
-0.0162405
-0.0185963
-0.0229601
-0.0254991
-0.0248506
-0.0190665
-0.0114402
-0.00634877
-0.00342341
-0.00217773
-0.00165767
-0.00129315
-0.000950456
-0.000649699
-0.000384896
-0.000179117
-0.0160033
-0.0145987
-0.0163279
-0.019787
-0.0208503
-0.0237313
-0.0313938
-0.0319599
-0.0265787
-0.0183378
-0.0096892
-0.00444445
-0.00189485
-0.000993937
-0.000618869
-0.000415174
-0.000263053
-0.000153843
-7.95714e-05
-3.49175e-05
-0.0127619
-0.0189777
-0.0264924
-0.0282119
-0.0251008
-0.0237276
-0.0198974
-0.01629
-0.0108434
-0.00748349
-0.00507843
-0.00319517
-0.00171613
-0.000820957
-0.000381362
-0.000186586
-9.33493e-05
-4.57934e-05
-2.11583e-05
-8.97819e-06
-0.0156943
-0.0256389
-0.0432329
-0.0410197
-0.0337915
-0.0282056
-0.0231606
-0.0159839
-0.00883346
-0.00420112
-0.0040134
-0.00170187
-0.000899654
-0.0003866
-0.000162033
-7.233e-05
-3.34134e-05
-1.54204e-05
-6.87563e-06
-2.9202e-06
-0.00745491
-0.00942616
-0.0192027
-0.0282159
-0.034269
-0.0316604
-0.0325805
-0.0211793
-0.0101569
-0.0102738
-0.0223105
-0.0184059
-0.0081946
-0.00332104
-0.000979194
-0.000334584
-0.000111649
-3.64031e-05
-1.17967e-05
-3.7744e-06
-0.00141997
-0.0105747
-0.0223497
-0.0374136
-0.049564
-0.0405786
-0.0352915
-0.0265048
-0.0163479
-0.017267
-0.035939
-0.0449718
-0.0303884
-0.0110866
-0.00190592
-0.000249966
-7.95168e-05
-2.67003e-05
-9.60455e-06
-3.16915e-06
-0.00292287
-0.00630922
-0.0152246
-0.0248059
-0.0353262
-0.0411147
-0.0395408
-0.0237067
-0.0112564
-0.0168351
-0.0261812
-0.0228007
-0.0138216
-0.00673094
-0.00117637
-0.000148156
-4.91465e-05
-1.83916e-05
-7.80816e-06
-2.88492e-06
-0.00409558
-0.00685489
-0.0127661
-0.0164051
-0.0220765
-0.0309188
-0.042301
-0.0432575
-0.0375544
-0.0310168
-0.0369795
-0.0447274
-0.0161784
-0.00385122
-0.000556206
-7.86547e-05
-3.47181e-05
-1.8185e-05
-9.46114e-06
-3.85465e-06
-0.00224328
-0.00578974
-0.009704
-0.0119108
-0.0157823
-0.0175548
-0.021794
-0.0287691
-0.0289882
-0.0318618
-0.054729
-0.0569501
-0.0120344
-0.00148409
-0.000265525
-0.000308377
-0.000217824
-0.00013315
-6.71659e-05
-2.81509e-05
-0.00128449
-0.00417818
-0.00773266
-0.0115613
-0.0173423
-0.028996
-0.0332617
-0.0398006
-0.0479967
-0.0516672
-0.0307173
-0.0119002
-0.00576715
-0.00311919
-0.00294293
-0.00222923
-0.00150471
-0.000901141
-0.000463644
-0.000212065
-0.00944329
-0.00984988
-0.011435
-0.0159617
-0.0242152
-0.0329945
-0.0424739
-0.0516469
-0.0556854
-0.0542919
-0.0465242
-0.0356249
-0.0217621
-0.0132823
-0.00945077
-0.00773428
-0.005741
-0.0037129
-0.00204073
-0.00099935
-0.0112842
-0.013634
-0.018847
-0.023301
-0.0294851
-0.0345305
-0.0421937
-0.0434651
-0.044616
-0.0371275
-0.0324933
-0.0252419
-0.0201973
-0.0196834
-0.0196481
-0.0189972
-0.0156179
-0.0105977
-0.00592801
-0.00293566
-0.00682713
-0.0121193
-0.0151661
-0.0221363
-0.0258848
-0.0261094
-0.0339157
-0.0294235
-0.0287648
-0.0225227
-0.0212012
-0.0232916
-0.0273311
-0.0324887
-0.0359963
-0.0362054
-0.031641
-0.0221039
-0.01251
-0.00608749
-0.011731
-0.0135788
-0.0136271
-0.0172287
-0.0214089
-0.0258177
-0.0267031
-0.0231159
-0.0193359
-0.0177779
-0.0220582
-0.0304064
-0.0431332
-0.0509874
-0.0528448
-0.0437495
-0.0291427
-0.0155531
-0.00700625
-0.0028402
-0.00806575
-0.0117421
-0.0122355
-0.0168869
-0.023127
-0.0354035
-0.0402652
-0.0380346
-0.0304585
-0.0231823
-0.0209629
-0.023652
-0.0275969
-0.0239118
-0.0168654
-0.00972237
-0.00522181
-0.00240058
-0.00101692
-0.000395793
-0.0223148
-0.0188485
-0.025793
-0.0372527
-0.0426806
-0.0557782
-0.0702779
-0.064141
-0.0571616
-0.0423383
-0.0257311
-0.01296
-0.0060451
-0.00295852
-0.00184662
-0.00103378
-0.000556751
-0.000255382
-0.000108609
-4.22229e-05
-0.0101704
-0.0220311
-0.0251204
-0.0275884
-0.0362726
-0.0446572
-0.0616322
-0.0795609
-0.0932576
-0.0924815
-0.0737726
-0.0455271
-0.0228106
-0.00989663
-0.00391072
-0.00146892
-0.000531251
-0.000186166
-6.31623e-05
-2.08178e-05
-0.00155233
-0.014252
-0.0198603
-0.0171893
-0.0152344
-0.0153551
-0.0161439
-0.0163205
-0.0157399
-0.0146647
-0.0133721
-0.0121495
-0.0112673
-0.0111242
-0.0110899
-0.0102997
-0.00826706
-0.0054268
-0.00345174
-0.00199462
-0.0110749
-0.0134227
-0.0128912
-0.0137894
-0.0156445
-0.0171041
-0.0175294
-0.0167103
-0.0150517
-0.0130011
-0.0107863
-0.00858968
-0.0067089
-0.0057183
-0.0055653
-0.00503335
-0.00365802
-0.00216172
-0.00123882
-0.000609084
-0.0213885
-0.00917669
-0.0100867
-0.0143667
-0.0175513
-0.0187745
-0.0190536
-0.017668
-0.0153726
-0.0127021
-0.0101791
-0.00823915
-0.00664556
-0.00515949
-0.00384086
-0.00271956
-0.00166275
-0.000872576
-0.000423739
-0.000182554
-0.0098591
-0.0121063
-0.0114249
-0.0126325
-0.0144405
-0.0160288
-0.0176869
-0.0173215
-0.0151163
-0.0117267
-0.00833571
-0.00584178
-0.00384279
-0.00253295
-0.00171655
-0.00109739
-0.000609185
-0.000297196
-0.000131314
-5.17888e-05
-0.0106785
-0.0115552
-0.0121256
-0.0149477
-0.0164121
-0.0168223
-0.0190763
-0.0172104
-0.0136024
-0.00976723
-0.00620667
-0.00388757
-0.00237025
-0.00146865
-0.000863105
-0.000479143
-0.000239324
-0.000108386
-4.48751e-05
-1.69765e-05
-0.0235217
-0.0166454
-0.01516
-0.0169751
-0.0183665
-0.0178464
-0.0171805
-0.015001
-0.0115553
-0.00821106
-0.00463055
-0.00241528
-0.00116525
-0.000615182
-0.000316988
-0.000161155
-7.49991e-05
-3.21287e-05
-1.26999e-05
-4.62483e-06
-0.0159539
-0.0219913
-0.0247142
-0.0236886
-0.0223421
-0.0212148
-0.0193086
-0.016105
-0.0098978
-0.00519779
-0.00183626
-0.000767119
-0.000312267
-0.00015443
-7.27781e-05
-3.55571e-05
-1.62143e-05
-6.846e-06
-2.67062e-06
-9.62291e-07
-0.00775597
-0.00765731
-0.0165599
-0.0217679
-0.0226493
-0.0215308
-0.0217673
-0.0172709
-0.00877482
-0.00380681
-0.00617915
-0.00407062
-0.00152558
-0.000627599
-0.000143047
-4.87151e-05
-1.62916e-05
-5.30096e-06
-1.70695e-06
-5.37735e-07
-0.00603591
-0.0119252
-0.0171955
-0.0225845
-0.0249463
-0.0218196
-0.0204848
-0.0179128
-0.0121568
-0.0115971
-0.0248096
-0.0205844
-0.00942529
-0.00308246
-0.000368935
-3.18193e-05
-9.44242e-06
-2.88471e-06
-8.84594e-07
-2.49931e-07
-0.00479324
-0.0102252
-0.015276
-0.0200828
-0.0251964
-0.0230696
-0.0202655
-0.0156707
-0.0090008
-0.0148843
-0.0146831
-0.0130095
-0.00885556
-0.00317571
-0.000335714
-2.29953e-05
-6.72195e-06
-2.05658e-06
-6.545e-07
-1.90136e-07
-0.00191449
-0.00778195
-0.0126347
-0.0154166
-0.0179294
-0.0220033
-0.0259754
-0.0272858
-0.0253483
-0.0185127
-0.0180162
-0.0103732
-0.00201956
-0.000702192
-9.46498e-05
-1.23381e-05
-5.37303e-06
-2.4647e-06
-1.04046e-06
-3.65342e-07
-0.00268932
-0.00713893
-0.0101671
-0.0124895
-0.0152929
-0.0169891
-0.0197283
-0.0191578
-0.0173439
-0.0224626
-0.0401166
-0.0313424
-0.00251399
-0.00028329
-6.29706e-05
-7.07935e-05
-4.54235e-05
-2.51701e-05
-1.17973e-05
-4.67487e-06
-0.00786927
-0.00689633
-0.00846611
-0.0130755
-0.0175595
-0.0249889
-0.0263075
-0.0316387
-0.0362562
-0.0301843
-0.0151637
-0.00679633
-0.00258283
-0.0011246
-0.000791353
-0.000550273
-0.000340393
-0.000188586
-9.13855e-05
-3.97525e-05
-0.00892015
-0.0123393
-0.0137407
-0.0178097
-0.0221435
-0.0274814
-0.0320441
-0.034975
-0.0301206
-0.0245779
-0.0176187
-0.0117709
-0.00677549
-0.00402095
-0.00261804
-0.00192953
-0.00130795
-0.000785577
-0.000406514
-0.000189252
-0.0142252
-0.0132352
-0.0165782
-0.0205948
-0.0222889
-0.0234161
-0.0298518
-0.0239048
-0.0216393
-0.015595
-0.0123538
-0.00909436
-0.00674223
-0.00579972
-0.00526324
-0.00478995
-0.00365792
-0.00230486
-0.00121012
-0.00056745
-0.00970511
-0.0109894
-0.0140189
-0.0177851
-0.0191422
-0.019878
-0.0236189
-0.0179334
-0.0150787
-0.0109221
-0.00904628
-0.00832443
-0.00856527
-0.00930821
-0.0101152
-0.00979679
-0.00804613
-0.00519395
-0.00274642
-0.00126267
-0.0021812
-0.00880774
-0.0137102
-0.0226923
-0.0293102
-0.0336691
-0.0295202
-0.0267437
-0.0178431
-0.0123421
-0.00896085
-0.00837573
-0.0102531
-0.0119926
-0.0119857
-0.00911965
-0.00552163
-0.00271918
-0.00116045
-0.000453175
-0.00774875
-0.00813486
-0.0109958
-0.0264247
-0.0353406
-0.041683
-0.0444893
-0.0419871
-0.0334721
-0.0222795
-0.0119712
-0.00649326
-0.00464808
-0.00348004
-0.00244941
-0.00143201
-0.000793491
-0.000372339
-0.000160546
-6.33522e-05
-0.002139
-0.00917469
-0.0240141
-0.0355587
-0.0434705
-0.0446535
-0.0498181
-0.0520736
-0.0496124
-0.0378537
-0.0227003
-0.0110946
-0.00466257
-0.00187067
-0.00078223
-0.000341651
-0.00015566
-6.74199e-05
-2.81055e-05
-1.1079e-05
-0.0110779
-0.018986
-0.0236806
-0.0260358
-0.0310766
-0.0370116
-0.0475879
-0.0586377
-0.0654936
-0.0597296
-0.0427496
-0.0239722
-0.0112804
-0.00476803
-0.00189325
-0.000732371
-0.000279506
-0.000106781
-4.07828e-05
-1.5642e-05
-0.03245
-0.0306727
-0.03984
-0.0168014
-0.0266915
-0.0308745
-0.0322997
-0.038834
-0.0427715
-0.0520757
-0.029146
-0.0314651
-0.0362904
-0.046733
-0.0419864
-0.0466735
-0.0538982
-0.0353888
-0.0341501
-0.0280343
-0.042859
-0.0534277
-0.06193
-0.0751795
-0.0384275
-0.0502906
-0.0499511
-0.0630782
-0.194945
-0.201449
-0.187058
-0.157271
-0.169951
-0.157232
-0.088539
-0.185389
-0.184369
-0.183706
-0.183212
-0.111672
-0.12481
-0.147373
-0.115097
-0.181829
-0.142343
-0.0660277
-0.0560399
-0.126982
-0.0617229
-0.108391
-0.131001
-0.119959
-0.0713243
-0.104371
-0.0703976
-0.0659922
-0.0831585
-0.117307
-0.0958076
-0.103874
-0.0940773
-0.0706326
-0.0779077
-0.0403144
-0.0904024
-0.0713746
-0.0901737
-0.0779789
-0.0776204
-0.0782353
-0.0116367
-0.0616832
-0.0305087
-0.0735434
-0.0603407
-0.0764375
-0.0602867
0.000270713
-0.0220433
-0.00091681
-0.0557428
-0.0391831
-0.0542018
-0.0367316
-0.183729
-0.139652
-0.15655
-0.153632
-0.113453
-0.130789
-0.137317
-0.18073
-0.159747
-0.164166
-0.11361
-0.153192
-0.136663
-0.139152
-0.152983
-0.166817
-0.165177
-0.143085
-0.0749289
-0.142428
-0.12617
-0.119543
-0.15752
-0.140241
-0.0722526
-0.0583689
-0.117413
-0.0946183
-0.0962016
-0.130478
-0.0944923
-0.0637451
-0.0776178
-0.106169
-0.119657
-0.0750855
-0.0908505
-0.0771633
-0.0789508
-0.0785018
-0.117026
-0.0936856
-0.0358949
-0.0711281
-0.0460432
-0.0768482
-0.0600358
-0.0827888
-0.0547664
-0.00513249
-0.0369468
-0.0139893
-0.0536958
-0.0374564
-0.0463444
-0.0302738
-0.147104
-0.12862
-0.132071
-0.123364
-0.130757
-0.118825
-0.122143
-0.15916
-0.132973
-0.138734
-0.132216
-0.135331
-0.122204
-0.122838
-0.163937
-0.140626
-0.141636
-0.137956
-0.135561
-0.124013
-0.126492
-0.146741
-0.14016
-0.128491
-0.134067
-0.122374
-0.125913
-0.123568
-0.0940204
-0.119064
-0.0926681
-0.127981
-0.128462
-0.122795
-0.113089
-0.0746437
-0.0876859
-0.0665249
-0.12367
-0.0939923
-0.105465
-0.0762044
-0.0462435
-0.0592019
-0.0397536
-0.0821978
-0.0504408
-0.0650086
-0.0325132
-0.0156838
-0.0335627
-0.0150631
-0.0416941
-0.0256599
-0.0242087
-0.0118984
-0.118786
-0.110451
-0.107484
-0.110297
-0.11359
-0.107212
-0.105249
-0.12372
-0.106915
-0.111859
-0.114349
-0.115514
-0.104905
-0.107222
-0.126132
-0.11702
-0.130746
-0.116253
-0.119943
-0.109988
-0.1225
-0.119613
-0.129175
-0.121356
-0.120928
-0.122073
-0.12589
-0.122874
-0.0919779
-0.117049
-0.0955928
-0.121063
-0.113645
-0.116949
-0.0932671
-0.0636138
-0.087564
-0.0776496
-0.106507
-0.0755482
-0.0853571
-0.0614123
-0.0369914
-0.0749273
-0.0638745
-0.0641112
-0.0346486
-0.0554352
-0.0449568
-0.0131418
-0.0588873
-0.058187
-0.0265539
-0.0134901
-0.0422077
-0.0393307
-0.127375
-0.0670537
-0.0759683
-0.0482247
-0.043632
-0.0457322
-0.0215769
-0.0278239
-0.106472
-0.0808173
-0.0280573
-0.0153228
-0.0220574
-0.0132703
-0.0359829
-0.0560331
-0.0317189
-0.0142954
-0.0199103
-0.0112204
-0.0140813
-0.0908409
-0.0449512
-0.0506289
-0.0252497
-0.0450642
-0.0189829
-0.034355
-0.0873498
-0.0545506
-0.0635695
-0.0508184
-0.0662373
-0.0379518
-0.0430399
-0.075349
-0.0643311
-0.0660465
-0.0684204
-0.0664526
-0.0434924
-0.04346
-0.0585394
-0.0657221
-0.0538944
-0.06367
-0.0479892
-0.0436548
-0.0359417
-0.0317785
-0.0481901
-0.0295922
-0.0405972
-0.0199734
-0.0305781
-0.0147292
-0.0719455
-0.107247
-0.12639
-0.0801763
-0.0353975
-0.0905774
-0.0996317
-0.0916836
-0.123459
-0.0922707
-0.0227847
-0.0125078
-0.0923769
-0.0363019
-0.0352771
-0.0865391
-0.0815285
-0.0107437
-0.0141354
-0.0252654
-0.0255919
-0.046837
-0.0813457
-0.0684678
-0.0191124
-0.0345224
-0.0304373
-0.042206
-0.0616819
-0.0734105
-0.0918911
-0.0380986
-0.0427702
-0.0447715
-0.0529528
-0.0649763
-0.0924938
-0.0781995
-0.042515
-0.0398991
-0.054173
-0.0427128
-0.0522778
-0.0686865
-0.0440119
-0.0393496
-0.0330473
-0.0359937
-0.0221451
-0.0296555
-0.0368914
-0.0209834
-0.0284497
-0.0140364
-0.0187539
-0.00920957
-0.110097
-0.0558789
-0.0591291
-0.0728823
-0.0876397
-0.0488189
-0.0519942
-0.102537
-0.0623823
-0.0844412
-0.0879433
-0.0588135
-0.0547158
-0.0650806
-0.0999839
-0.0924187
-0.105566
-0.0456897
-0.0412048
-0.0670035
-0.0647252
-0.085791
-0.106396
-0.109664
-0.045336
-0.0455931
-0.0607748
-0.0648609
-0.102778
-0.113035
-0.108408
-0.0462632
-0.0556568
-0.0722182
-0.0818778
-0.0817834
-0.100746
-0.0698599
-0.0586015
-0.0451207
-0.0768897
-0.0399116
-0.0400021
-0.0581636
-0.025697
-0.0371228
-0.0186994
-0.030421
-0.011117
-0.0164152
-0.0182429
-0.00596085
-0.0151396
-0.00713017
-0.00773643
-0.00263269
-0.0549378
-0.0598406
-0.0731298
-0.0427368
-0.0472955
-0.0452608
-0.047565
-0.0812153
-0.076871
-0.0931387
-0.0499051
-0.0601923
-0.0498844
-0.0629643
-0.105016
-0.0988149
-0.113955
-0.0632323
-0.0674291
-0.0684288
-0.0848599
-0.116154
-0.117628
-0.113076
-0.0686511
-0.0843185
-0.0897441
-0.0932027
-0.112263
-0.106746
-0.0868222
-0.091223
-0.0946248
-0.0903363
-0.0747608
-0.0691082
-0.0801881
-0.0462376
-0.0860027
-0.0420449
-0.065759
-0.0263301
-0.0236165
-0.0351498
-0.0158764
-0.0313272
-0.0103252
-0.0179936
-0.00772053
-0.00472716
-0.0124225
-0.00849559
-0.00690067
-0.00214077
-0.00648062
-0.00558643
-0.0266552
-0.0425014
-0.0201176
-0.0431881
-0.0260148
-0.0442429
-0.0321266
-0.0137506
-0.015799
-0.0109516
-0.0236
-0.0178295
-0.0280052
-0.0147989
-0.0175358
-0.0104926
-0.0131233
-0.0157026
-0.014137
-0.0125305
-0.0128715
-0.0404099
-0.0173309
-0.0320791
-0.0181669
-0.0335448
-0.0161348
-0.0265121
-0.0612621
-0.035583
-0.0391611
-0.0377342
-0.0488639
-0.0290819
-0.0308586
-0.0633295
-0.0391818
-0.0391349
-0.0505554
-0.0444098
-0.029376
-0.0251608
-0.0425422
-0.0390459
-0.0302773
-0.0391929
-0.0208809
-0.0235156
-0.0147614
-0.0159484
-0.0252147
-0.0114936
-0.0157562
-0.00597672
-0.0116016
-0.00455736
-0.0357863
-0.0804684
-0.0914234
-0.0496928
-0.0337028
-0.0584346
-0.0535386
-0.0106191
-0.0845408
-0.0359638
-0.0281793
-0.0137776
-0.0509815
-0.0320981
-0.0133128
-0.0268253
-0.0243372
-0.0115892
-0.0132993
-0.028455
-0.0298417
-0.0239297
-0.0230798
-0.0189507
-0.0171255
-0.0246602
-0.0220888
-0.0186494
-0.0377814
-0.0383263
-0.0371083
-0.0339134
-0.0398776
-0.0362379
-0.0350768
-0.0340482
-0.0514478
-0.0353654
-0.0289235
-0.0199265
-0.0435548
-0.0228668
-0.0273101
-0.0289401
-0.0170177
-0.0183893
-0.0122947
-0.016967
-0.00653034
-0.0106751
-0.0143372
-0.00676241
-0.00982176
-0.00402771
-0.00484839
-0.00182488
-0.0832204
-0.0362934
-0.0402313
-0.0513308
-0.0525092
-0.0317357
-0.0322307
-0.0541574
-0.0437558
-0.0560602
-0.0530553
-0.0462105
-0.0332328
-0.0345144
-0.0377347
-0.0581132
-0.0512264
-0.0440391
-0.0394069
-0.0328587
-0.0269326
-0.0412484
-0.0427754
-0.0509837
-0.0427234
-0.0473089
-0.040974
-0.0463579
-0.0465293
-0.0465757
-0.0447441
-0.0418505
-0.0482451
-0.0456785
-0.0422264
-0.0367044
-0.0702299
-0.0306291
-0.0477564
-0.0249085
-0.0577494
-0.0217319
-0.0141837
-0.0220866
-0.00787265
-0.0186971
-0.0071552
-0.0135242
-0.00406183
-0.00513264
-0.00556796
-0.00197173
-0.00500523
-0.00164553
-0.00295169
-0.00107124
-0.0359507
-0.031454
-0.0399854
-0.0249732
-0.029568
-0.0261319
-0.0300367
-0.0514729
-0.0433829
-0.0566414
-0.0311983
-0.0338684
-0.032577
-0.04197
-0.05561
-0.061496
-0.0763519
-0.0335436
-0.0327678
-0.0451028
-0.0545195
-0.0751784
-0.0809186
-0.0845076
-0.0352754