/*--------------------------------*- C++ -*----------------------------------*\
  =========                 |
  \\      /  F ield         | OpenFOAM: The Open Source CFD Toolbox
   \\    /   O peration     | Website:  https://openfoam.org
    \\  /    A nd           | Version:  10
     \\/     M anipulation  |
\*---------------------------------------------------------------------------*/
FoamFile
{
    format      ascii;
    class       volScalarField;
    location    "5.8";
    object      k;
}
// * * * * * * * * * * * * * * * * * * * * * * * * * * * * * * * * * * * * * //

dimensions      [0 2 -2 0 0 0 0];

internalField   nonuniform List<scalar> 
12920
(
213.232
474.531
670.853
638.203
467.946
358.672
285.452
248.011
216.107
186.989
147.423
115.556
93.3635
81.0319
73.3426
69.1561
68.279
69.2038
68.9225
62.5412
493.815
747.286
495.839
452.605
422.484
354.113
259.566
208.177
163.629
134.752
116.243
110.085
109.822
112.011
114.544
117.064
118.459
120.214
119.487
106.443
93.6532
742.752
870.535
806.313
574.98
417.101
304.542
251.245
199.764
166.814
138.341
123.425
112.008
106.409
101.024
97.3239
92.725
89.684
86.4543
82.4572
1376.84
1344.75
1350.27
1017.17
733.331
599.756
455.09
364.416
257.681
185.916
140.64
118.72
104.747
96.5965
90.3977
86.5955
83.853
82.4542
81.7843
81.7939
2617.94
1723.43
1483.74
907.856
648.874
564.409
438.527
343.823
248.927
190.57
154.598
135.305
121.179
111.616
103.605
98.5474
95.1495
92.2514
90.5797
87.8006
3599.89
2724.25
2544.7
1456.11
816.741
531.123
398.997
308.592
246.935
203.602
181.732
165.932
153.266
137.41
121.68
109.862
102.073
96.1742
91.6532
87.2147
1986.59
1294.29
1652.98
1709.89
1439.74
855.494
548.781
375.406
313.726
272.334
253.767
234.385
209.193
189.739
172.776
152.901
129.17
110.02
97.1678
88.7976
2324.45
1900.63
1919.54
1892.52
1512.86
934.024
480.033
259.392
231.996
201.191
189.39
168.828
127.953
97.2722
188.612
180.101
142.642
107.422
91.1537
85.2157
480.055
2230.22
1929.77
1540.96
969.168
595.124
357.192
152.324
130.742
129.337
125.452
103.818
51.7585
55.5455
128.836
165.396
121.496
97.78
85.4212
81.0645
6019.59
3726.56
1913.39
1062.87
683.844
358.482
199.371
137.391
142.164
131.023
116.224
72.7212
82.1234
73.5067
90.2829
128.794
104.238
89.3204
80.143
79.2324
11792.9
5715.48
1655.49
962.429
673.444
353.848
186.141
118.546
122.251
110.152
109.534
107.506
103.471
76.3326
64.7367
100.514
89.6199
83.6641
83.1871
85.8043
1846.42
2742.25
1637.48
1105.43
922.226
543.774
288.873
111.659
132.065
155.757
147.424
130.711
110.015
44.674
81.924
112.063
99.239
93.312
93.4839
96.2068
2640.69
1573.3
1407.67
1148.93
836.85
633.753
379.256
236.554
255.972
253.117
212.147
168.82
87.0492
65.236
118.442
107.458
100.612
99.4143
100.625
105.895
1756.07
1960.89
1761.08
1282.89
813.498
577.808
446.04
385.548
345.148
279.479
208.843
158.22
134.754
129.497
122.869
117.385
116.047
116.287
117.732
121.333
9918.63
5920.06
2957.22
1512.07
786.084
454.143
350.265
304.52
260.77
217.568
184.429
169.893
165.092
166.1
168.328
168.373
166.619
158.346
153.338
144.259
1880.8
3565.52
2125.97
1277.22
751.12
492.167
346.392
302.234
257.452
235.493
215.07
213.101
209.042
209.617
209.633
209.12
207.53
198.286
187.177
164.598
2081.37
2032.8
1866.74
1296.32
754.243
501.813
368.643
335.502
294.171
277.136
257.372
248.852
238.904
234.969
234.985
235.517
232.527
217.555
201.718
173.606
3473.09
2550.66
2257.26
1678.94
1034.01
786.614
591.441
525.019
447.732
413.375
391.936
371.447
339.856
305.419
280.395
259.487
238.205
207.777
191.21
167.132
2186.43
2155.88
2048
1658.17
1068.93
763.513
537.137
400.817
312.882
276.137
262.098
259.296
258.142
254.563
241.869
211.235
179.332
154.469
136.348
118.993
923.417
1457.62
1394.36
1083.92
739.548
532.098
382.47
328.208
294.637
274.446
237.121
197.365
168.402
151.725
141.011
127.267
116.541
99.3833
92.8869
78.4985
1381.89
1327.85
1758.61
1774.61
1383.6
997.24
750.835
596.39
492.291
410.496
336.08
275.894
229.512
198.315
178.796
169.437
166.638
161.573
155.211
133.228
4562.57
2889.31
1563.85
1587.33
1159.53
1078.13
768.922
623.867
430.478
354.685
306.366
306.128
307.601
314.348
315.18
318.091
320.843
323.247
319.789
301.497
296.935
2601.15
2811.42
2391.95
1433.57
1151.04
816.42
679.4
500.618
430.653
360.456
336.352
308.475
296.243
283.607
277.738
270.257
266.929
260.879
254.189
1358.24
3390.21
3375.24
2522.16
1846.32
1514.79
1095.77
875.417
595.013
461.675
362.777
323.819
290.641
274.094
258.94
252.039
246.041
245.128
244.792
245.444
3528.58
3898.66
3466.85
2144.71
1591.37
1417.03
1049.44
839.437
604.075
495.765
415.722
376.05
338.219
316.357
294.57
284.279
275.64
270.99
267.086
262.257
17578.4
8974.55
5457.33
3081.13
1812.93
1328.36
1018.12
800.509
645.418
546.604
492.205
449.53
416.278
382.259
346.773
318.012
294.978
282.413
271.306
262.592
5446.49
3915.65
4045.71
3962.81
2530.06
1788.19
1245.54
945.657
812.224
707.578
635.537
586.041
536.232
513.331
466.003
415.251
354.382
311.903
282.288
267.886
4293.69
4659.46
3940.69
3684.13
2400.35
1784.14
1347.11
992.414
816.334
698.42
629.598
543.524
447.36
414.503
468.422
436.141
335.187
276.638
255.502
252.242
11829.6
8390.2
3956.67
2788.18
1636.8
1434.19
1189.65
930.416
782.363
683.781
592.609
470.866
341.867
324.142
371.093
331.276
271.646
243.007
234.256
239.908
24679.6
12392
4465.04
2401.83
1498.57
1229.56
1074.98
957.03
814.346
670.652
545.435
425.918
358.068
274.233
278.809
259.945
231.399
223.85
225.705
239.036
28273.3
6303.06
3795.28
2166.09
1407.14
1123.08
919.243
843.071
753.262
645.703
545.273
453.187
396.25
277.223
202.989
215.479
217.776
228.317
243.995
261.897
3962.49
4394.15
3183.64
2480.13
1895.73
1548.95
1134.22
876.529
844.034
778.124
677.969
571.136
438.951
253.003
240.834
250.309
250.915
257.565
271.264
288.765
10315.8
3425.37
3219.11
2681.11
1787.04
1515.35
1139.06
1108.79
997.34
864.542
690.221
509.477
300.622
264.319
289.284
280.952
281.847
287.542
301.581
320.812
8552.68
5604.51
4027.06
2696.52
1765.53
1395.83
1140.02
1031.97
845.254
679.587
507.861
422.085
380.459
370.93
354.986
346.837
347.048
350.007
359.06
368.671
17084.7
12911.2
6059.2
3293.6
1750.01
1159.09
937.645
817.304
681.309
581.227
507.188
486.088
477.337
479.775
482.334
480.45
476.508
461.279
451.548
434.26
8112.69
8987.83
5216.17
2901.29
1430.54
1173.32
870.147
823.132
704.562
662.581
612.909
604.55
589.862
587.434
584.998
578.515
575.597
560.231
539.869
493.115
3701.6
5458.97
4271.07
2911.87
1643.88
1292.75
1028.23
970.101
868.213
823.856
756.179
728.974
700.033
686.493
675.189
662.71
650.002
617.452
590.59
529.429
4845.53
5662.08
4619.56
3604.74
2388.71
2010.34
1568.02
1486.04
1318.34
1290.86
1219.4
1148.28
1025.59
919.74
836.628
755.202
683.635
613.125
580.493
527.395
4399.59
4651.49
4152.39
3497.76
2253.28
1743.37
1165.64
988.084
828.399
817.031
791.632
778.948
748.807
708.668
634.312
555.601
475.109
416.229
384.112
381.788
3255.42
2798.59
2364.97
2016.26
1502.69
1167.82
917.457
782.404
686.156
617.423
550.07
483.653
413.26
352.193
306.969
266.861
249.398
225.126
207.427
162.692
1319.25
2309
2690.07
2459.4
1793.76
1258.4
898.934
682.365
550.325
452.709
374.09
313.493
267.91
234.601
210.948
194.456
181.908
168.971
152.75
131.018
7826.19
5676.16
3496.33
2545.5
1743.35
1515.31
1044.77
893.981
653.628
583.296
498.332
480.59
448.688
444.259
434.861
435.592
434.31
431.292
419.74
411.222
2273.89
4964.77
4858.15
3312.32
2130.84
1598.01
1157.37
933.518
706.162
607.274
513.886
475.836
437.127
422.188
406.847
401.784
395.254
393.334
391.05
392.499
4408.91
6178.3
5076.95
3403.82
2535.64
1927.49
1393.08
1052.59
750.531
608.328
508.049
461.094
422.35
402.962
385.984
378.959
372.828
372.325
372.441
375.34
9561.74
6006.74
4422.96
2868.51
2354.85
1859.3
1382.77
1054.27
798.445
659.69
570.353
516.77
474.371
448.953
425.935
413.833
402.169
395.846
390.445
387.538
22943.3
12766.3
6137.84
3606.76
2451.68
1784.35
1411.46
1071.68
876.125
731.226
656.971
595.443
551.776
512.265
477.284
449.179
426.931
411.937
399.909
393.022
7121.56
6767.15
5250.09
4304.29
2912.46
2164.79
1614.87
1222.4
1033.75
881.746
788.149
727.598
674.06
638.639
577.71
524.824
471.161
435.618
412.285
403.952
2898.67
5390.96
4948.02
4026.63
2810.2
2271.6
1851.01
1376.38
1097.92
915.234
806.005
703.979
637.663
616.618
585.796
502.285
429.966
395.766
384.25
389.311
10669.1
8158.94
4923.87
3254.17
2347.21
2017.17
1788.78
1380.42
1093.44
907.544
757.431
617.075
515.601
495.695
486.706
399.979
360.723
351.247
354.162
375.284
15012.1
9734.83
5248.75
2953.88
2267.47
1866.97
1667.12
1389.08
1107.22
886.958
710.834
554.997
426.333
372.412
372.779
333.59
325.846
331.596
346.311
376.02
16542
8713.12
4713.06
2711.42
2126.43
1730.34
1506.34
1301.26
1091.11
918.368
558.679
400.266
392.251
319.204
281.678
308.37
326.513
355.075
376.721
396.08
5021.4
7043.63
5435.68
3651.97
2585
2075.62
1710.52
1434.24
1242.47
1036.33
845.6
669.564
479.903
366.234
328.464
356.313
373.356
397.829
416.934
430.298
24949
6392.2
4867.04
3465.88
2436.42
2057
1706.95
1611.51
1282.72
1048.91
787.199
568.926
429.966
393.3
420.709
423.231
435.594
452.839
468.009
476.102
8829.31
6947.69
4839.03
3180.68
2265.82
1792.45
1534.8
1307.53
1033.27
831.9
666.91
597.17
556.207
545.734
532.82
530.507
533.492
538.106
542.482
539.507
7164.11
8858.78
5789.21
3463.83
2087.81
1520.11
1322.53
1121.66
932.868
808.553
722.181
698.435
681.474
679.66
675.762
666.662
661.715
647.865
638.92
614.569
12580.5
11129.6
6504.33
3157.45
1952.94
1543.07
1296.36
1160.15
1007.93
941.79
874.755
852.567
826.91
818.1
806.79
790.918
781.528
755.636
735.49
687.495
7701.94
6338.02
5297.36
3511.86
2251.09
1755
1487.49
1377.77
1248.73
1178.71
1085.83
1039.1
989.297
959.208
930.27
895.777
867.84
821.553
793.316
730.275
13715.7
7543.69
5456.54
4138.57
2970.2
2498.61
2034.7
1964.06
1778.67
1712.25
1554.74
1424.33
1275.16
1160.88
1063.96
971.448
900.316
832.904
798.963
732.105
12417.2
7304.24
4898.3
3842.94
2707.08
2273.39
1721.24
1635.77
1446.83
1391.33
1258.74
1156.32
1037.61
939.351
830.288
733.678
652.4
592.091
564.74
559.008
3061.84
3116.03
2229.02
1878.74
1524.32
1252.34
1017.16
877.941
769.689
688.848
609.216
535.417
467.682
408.737
365.068
328.29
297.011
247.601
211.365
166.612
2771.26
3610.72
3382.35
2655.21
1969.79
1349.76
923.907
674.195
531.438
434.477
362.797
307.23
264.953
231.315
205.676
182.722
162.687
146.933
136.643
133.982
39521.7
9819.63
5263.79
3191.86
2265.99
1709.26
1254.47
1056.3
846.627
778.618
683.973
647.025
598.146
584.906
568.74
564.915
558.285
556.627
552.833
559.499
6664.68
8463.91
7369.89
4001.85
2773.17
1839.93
1446.83
1093.67
888.818
755.668
668.389
614.511
577.479
558.188
545.503
540.998
538.445
539.958
542.376
553.683
4509.85
8146.04
7113.72
4175.17
3179.33
2127.87
1628.07
1135.91
894.265
729.114
650.791
592.608
560.083
537.247
523.86
517.12
513.983
515.419
517.546
526.636
26230.4
10052.3
5394.73
3444.66
3016.89
2074.67
1660.77
1179.25
966.811
791.005
716.592
646.035
611.317
580.691
561.912
548.415
538.306
533.905
530.647
533.549
20869.4
9115.31
6242.77
3809.91
3058.19
2059.78
1739.56
1248.83
1063.93
868.213
798.121
717.64
679.173
636.156
606.119
579.033
561.754
550.729
542.466
542.954
16124.6
8979.18
6287.6
4286.34
3423.48
2385.71
1890.02
1401.6
1195.41
993.93
914.12
839.82
793.266
739.695
678.649
628.78
591.97
571.861
560.249
562.668
6060.5
7535.5
6596.16
4305.28
3429.99
2658.99
2153.07
1581.27
1258.27
1043.8
922.723
836.953
784.605
744.507
655.704
584.02
548.261
539.355
540.359
558.623
8634.54
8925.92
6866.63
3870.09
3008.14
2494.95
2199.86
1616.59
1258.38
1030.01
859.914
734.376
662.251
637.121
571.287
495.66
485.82
493.851
512.884
549.24
7440.46
10137
6886.92
3639.07
2959.4
2353.45
2082.97
1646.17
1279.72
1013.87
798.496
615.259
496.125
481.907
467.329
453.771
460.346
485.622
511.753
543.413
13592.8
11318.9
6021.71
3263.03
2775.04
2204.95
1928.67
1613.82
1317.47
1064.53
711.153
493.296
412.817
385.999
403.562
457.696
483.15
516.645
538.225
554.777
26414.6
13851.1
8721.37
4505.44
3214.8
2470.26
2127.34
1790.55
1470.64
1155.33
883.848
670.241
520.338
457.539
446.009
506.107
533.705
562.961
581.066
589.018
25387.1
9765.95
6530.6
3930.93
3109.39
2415.89
2100.94
1827.52
1389.22
1085.55
807.429
629.88
550.786
522.886
578.152
588.752
612.439
630.989
641.021
640.339
10460.9
8590.25
5766.46
3535.83
2843.95
2071.21
1880.35
1450.28
1168.11
934.668
809.139
751.572
724.858
718.415
713.444
715.519
722.511
726.585
726.255
711.956
11049.4
9716.61
6585.76
3551.67
2527.98
1784.92
1675.1
1337.9
1147.49
981.637
914.146
883.641
871.224
865.311
858.329
847.136
843.734
832.951
823.224
790.444
17294.1
15628.3
9085.15
3759.31
2545.95
1821.14
1676.97
1395.88
1275.49
1159.61
1104.49
1061.9
1040.51
1023.44
1009.56
987.936
975.564
946.675
928.075
877.217
14663.5
7967.82
6353.07
3902.11
2848.05
2048.81
1893.44
1650.22
1560.2
1429.94
1350.02
1277.73
1229.23
1185.72
1150.92
1105.85
1075.05
1024.17
996.121
929.683
16335.8
8600.28
6497.19
4264.96
3457.7
2653.14
2422.61
2242.06
2111.18
1959.97
1791.01
1621.18
1481.24
1363.62
1274.84
1186.19
1126.67
1059.24
1020.74
938.701
6278.04
7949.2
5011.42
3607.01
2970.16
2449.47
2129.95
2039.07
1880.44
1763.87
1588.57
1420.23
1267.89
1139.08
1024.54
926.794
856.818
809.246
791.032
762.199
307.299
2460.22
2047.11
1605.74
1375.79
1144.64
966.087
848.394
752.512
669.545
586.888
506.784
443.437
390.55
347.611
298.484
253.967
210.218
189.688
161.237
4721.69
4406.1
3857.4
3069.44
2135.31
1316.18
828.824
572.182
438.199
360.017
299.156
246.049
203.045
170.728
150.729
139.956
135.048
133.772
133.932
139.42
24325.8
12288.3
7146.67
3851.33
3192.9
1729.33
1598.99
1108.53
1118.37
923.876
918.258
808.06
791.404
734.546
733.364
717.512
718.057
714.925
714.422
738.168
14211.4
11750.7
9934.23
4448.53
3628.95
1969.57
1851.06
1189.94
1139.39
879.044
866.758
753.655
752.565
706.001
711.45
696.673
703.553
704.758
710.625
735.169
11609.1
8925.18
8720.16
4869.13
3918.72
2299.16
1967.9
1193.96
1106.01
840.238
832.039
729.004
727.723
684.27
686.222
672.026
676.284
677.483
680.968
700.014
16180.4
9307.46
6157.34
4494.62
3702.78
2312.15
2032.51
1276.14
1192.17
915.977
895.428
777.95
772.497
719.504
717.127
694.11
693.566
689.275
690.042
702.362
16753.8
8940.31
7070.9
4440.12
3902.77
2383.64
2171.03
1406.79
1287.74
993.556
957.662
840.2
823.312
765.76
747.641
717.442
711.527
705.901
702.837
713.756
16805.5
10158.8
7453.55
4705.72
4198.74
2644.11
2271.66
1594.88
1387.48
1108.61
1067.24
948.485
926.424
840.425
795.133
746.673
732.801
725.95
725.622
741.312
9253.11
7908.54
8095.67
4537.19
4461.43
3069.25
2394.14
1726.43
1413.82
1162.63
1070.51
983.027
940.425
860.899
748.428
708.654
699.367
707.984
718.209
749.661
8631.78
9023.53
7768.37
4307.1
3721.4
2927.54
2571.54
1777.09
1416.12
1156.53
998.86
894.687
841.05
784.39
698.576
646.357
650.624
672.455
698.255
737.336
11580.8
10469.1
8148.75
4314.67
3903.71
2746.16
2466.64
1896.74
1471.76
1134.74
878.325
704.712
656.455
657.232
631.144
625.994
638.911
669.549
694.917
725.018
15468.7
13639.4
7395.72
4221.69
3524.76
2594.36
2316.87
1933.93
1551.31
1163.77
832.197
607.333
558.448
591.208
609.954
650.013
666.061
693.572
710.337
725.794
25763.9
21006.3
12968.2
5218.67
4145.57
2812.83
2565.44
2122.04
1666.75
1224.44
893.523
707.702
655.736
641.022
646.348
692.91
715.109
737.955
751.461
756.665
26048.9
13979.7
8654.68
4693.01
4188.51
2729.62
2490.99
1926.64
1499.2
1097.32
886.174
751.918
726.075
706.035
762.986
776.135
793.691
806.703
809.81
804.146
6958.2
9700.26
7093.21
4394.66
3789.1
2425.59
2385.88
1604.53
1373.6
1035.57
985.519
898.352
906.817
890.152
896.331
895.578
903.455
903.003
897.963
874.523
15568.5
8524.18
7720.07
3978.18
3391.79
2133.79
2172.95
1522.17
1403.09
1123.68
1114.39
1049.48
1057.37
1035.04
1030.07
1013.47
1010.57
998.933
986.317
947.016
58265.8
14464.7
8964.85
4339
3457.13
2216.19
2163.47
1589.63
1573.62
1318.63
1325.8
1224.93
1234.29
1191.85
1187.05
1154.87
1143.48
1112.18
1093.99
1040.76
11001
8437.66
7380.29
4509.3
3668.29
2334.56
2361.18
1836.51
1861.26
1583.4
1579.07
1440.55
1428.34
1353.14
1327.14
1266.97
1239.18
1185.58
1161.62
1097.86
11066.9
10493.5
7817.51
4862.56
4238.62
2744.71
2895.27
2330.87
2393.63
2041.16
1970.2
1715.34
1642.64
1500.58
1445.87
1355.31
1312.34
1237.51
1201.57
1118.01
5727.23
8061.95
6062.03
3727.01
3735.55
2487.84
2652.77
2164.51
2222.16
1913.84
1817.92
1548.26
1448.06
1290.24
1226.49
1140.91
1096.84
1031.87
1009.83
959.398
616.812
1475.69
1407.54
1333.92
1199.55
990.544
837.463
732.607
637.407
543.792
458.668
378.407
317.865
268.2
234.681
207.715
190.771
171.653
160.385
142.249
754.254
898.323
619.881
986.756
831.398
1004.87
711.046
589.894
546.694
414.572
780.993
642.131
618.268
451.594
636.675
1004.6
869.672
1032.8
718.194
1112.25
927.428
424.354
825.897
702.279
628.99
478.179
869.432
713.788
170.734
214.991
136.482
871.427
787.135
850.512
811.577
128.72
131.235
136.791
751.235
682.027
790.523
730.495
129.494
137.765
135.933
660.4
608.588
707.578
632.023
127.027
134.174
127.355
593.296
543.583
606.751
535.292
112.341
124.956
95.1675
525.14
446.679
508.968
409.884
64.8896
80.4032
69.926
418.185
312.621
379.674
327.531
48.9341
73.5534
77.9405
286.919
272.272
317.568
272.21
62.4791
72.1903
48.317
275.628
314.327
258.823
257.368
137.73
190.412
133.459
847.018
822.343
785.735
766.011
142.111
131.155
131.164
800.851
729.279
744.972
674.767
134.925
129.47
110.621
703.962
618.648
646.681
560.425
120.249
105.069
95.7223
589.227
510.979
535.612
474.172
79.0724
93.925
93.9492
482.511
390.634
453.618
400.887
76.701
93.9721
94.9103
369.424
334.712
386.397
352.049
82.1553
95.4189
90.902
324.96
268.343
344.302
285.479
45.4765
79.2897
34.5169
246.767
240.425
249.468
180.592
122.298
194.68
99.8701
701.535
699.789
690.983
631.202
122.341
94.4547
116.28
692.006
657.677
629.358
667.896
113.077
126.968
145.015
638.9
571.105
676.03
664.486
108.959
147.324
146.483
552.934
504.271
652.522
605.9
108.862
144.446
134.763
486.352
433.95
588.268
531.513
104.681
131.054
116.469
418.202
379.113
511.239
445.69
92.2202
112.633
72.2001
370.685
295.927
421.781
257.1
33.982
52.2766
35.2475
253.251
180.331
221.21
200.356
134.917
339.259
176.501
852.255
713.889
914.64
809.986
117.924
137.257
127.346
686.276
700.461
803.432
840.277
154.112
145.536
170.139
708.633
696.073
840.041
789.924
151.099
170.832
158.062
682.274
625.786
766.805
673.102
134.879
152.091
128.676
604.964
540.108
640.638
541.611
114.403
120.914
90.9034
516.789
442.028
505.621
371.91
59.9371
76.5551
36.6419
409.283
233.24
310.937
202.524
34.7183
35.0993
36.2665
209.833
203.273
201.204
212.394
995.308
1092.95
988.738
1650.2
1396.01
1561.08
1379.86
815.775
953.139
854.051
1292.98
1091.04
1308.79
1117.33
705.449
820.725
720.644
1033.99
900.797
1059.53
904.212
616.71
688.917
600.438
865.192
760.739
858.718
735.099
501.306
569.244
466.317
726.019
618.249
695.039
581.697
365.942
436.15
372.685
586.41
495.923
548.466
460.216
322.135
356.569
303.182
477.474
455.691
434.293
383.19
355.312
292.463
292.115
456.861
472.975
380.461
384.1
992.581
998.946
922.384
1533.51
1373.21
1438.68
1288.46
849.733
891.004
792.554
1303.49
1109.06
1231.14
1065.76
705.551
757.288
655.29
1050.25
890.745
1013.38
869.802
577.605
626.869
543.989
844.492
719.979
836.97
643.186
450.124
515.025
441.742
679.256
565.398
583.811
453.723
374.665
422.268
376.311
533.011
443.382
422.487
364.101
291.707
365.526
299.889
413.869
351.993
354.423
308.445
272.909
267.733
203.399
348.271
360.656
292.123
264.889
861.318
932.387
817.136
1369.71
1250.19
1418.34
1275.86
779.903
803.86
806.936
1204.64
1067.24
1238.04
1145.43
667.877
804.525
765.127
1020.7
889.22
1110.32
993.237
572.292
746.126
681.917
860.598
665.678
954.027
836.331
473.309
658.989
588.416
605.438
476.308
797.665
686.956
406.254
563.922
486.121
446.69
409.325
650.563
535.257
315.015
453.847
292.225
402.962
339.118
488.597
369.609
202.598
262.53
226.143
313.615
259.377
347.098
296.951
916.015
1234.57
1053.46
1579.33
1371.34
1700.06
1553.67
849.697
1041.88
1017.72
1320.25
1203.54
1530.62
1371.09
799.678
992.286
894.523
1162.36
1030.83
1297.38
1107.81
703.891
863.83
749.568
987.259
859.776
1056.41
886.67
598.971
711.284
597.306
818.526
698.824
832.787
680.478
481.285
557.056
406.833
658.673
527.043
628.525
459.194
272.723
344.876
247.042
474.032
362.155
412.372
350.452
230.604
244.314
242.159
344.47
302.689
343.454
324.822
1491.43
1695.25
1476.66
2099.82
1700.86
2022.27
1703.83
1157.15
1395.54
1179.68
1569.51
1299.84
1595.87
1321.25
946.356
1115.75
947.42
1224.28
1048.79
1244.04
1048.09
794.232
898.757
767.017
1003.03
874.049
991.776
839.998
648.063
724.892
607.941
835.262
730.182
793.184
667.196
532.08
573.439
480.518
703.702
636.956
630.32
537.701
494.645
454.264
408.933
625.106
604.967
516.862
490.655
502.844
407.555
407.368
602.904
584.413
489.963
477.654
1468.42
1563.93
1385.2
1985.93
1694.39
1865.96
1626.02
1171.75
1320.78
1137.26
1589.96
1318.4
1543.88
1314.83
935.864
1080.14
925.692
1241.24
1043.31
1245.35
1061.38
869.796
841.415
876.832
924.215
831.688
876.139
917.803
663.869
668.171
688.025
737.846
641.208
692.836
714.878
456.759
382.565
342.923
601.474
496.898
413.547
359.749
373.445
338.303
308.624
473.104
449.06
353.143
347.816
382.41
298.119
281.471
450.464
452.853
349.875
359.297
1354.55
1565.07
1398.87
1831.75
1615.43
1910.5
1704.44
1143.01
1354.23
1234.24
1542.72
1332.42
1640.15
1446.71
947.074
1189.98
1050.05
1266.26
1085.53
1378.5
1176.1
922.894
834.526
941.013
956.494
885.939
783.135
988.318
673.485
500.411
710.506
436.866
665.764
386.35
720.601
393.916
662.204
537.741
445.144
404.843
666.845
540.142
341.221
491.862
387.835
396.502
365.548
506.231
438.079
274.297
365.933
314.301
357.389
349.263
421.156
384.325
1488.97
1831.09
1669.7
2024.17
1781.67
2130.7
1929.07
1293.36
1637.26
1443.65
1711.39
1499.37
1862.34
1576.79
1086.51
1359.35
1152.27
1423.77
1204.03
1474.84
1228.85
891.78
1095.6
909.552
1135.15
941.812
1157.1
931.456
713.241
851.087
690.092
882.318
721.736
865.404
696.745
529.91
636.213
472.607
672.288
539.104
644.899
521.18
383.915
432.757
378.266
505.367
444.336
497.762
459.357
321.434
370.754
348.118
429.877
393.772
452.198
431.428
1753.63
2119.56
1766.6
2477.64
1887.68
2417.75
1957.27
1335.95
1650.45
1360.02
1736.31
1444.73
1818.97
1490.39
1077.33
1279.7
1076.49
1368.13
1171.54
1402.94
1171.64
898.312
1017.59
859.543
1117.73
986.679
1101.72
922.909
758.93
811.639
684.328
953.88
867.45
873.319
749.628
673.162
647.739
560.381
846.708
798.97
718.191
660.51
641.112
542.766
522.16
789.952
756.804
653.34
641.516
607.918
520.936
502.321
743.512
691.847
636.406
606.056
1757.82
1958.88
1696.78
2367.95
1955.33
2229.56
1923.53
1359.98
1609.65
1367.35
1825
1501.97
1823.72
1543.12
1073.51
1293.87
1096.23
1412.28
1170.69
1453.64
1195.55
850.533
1037.5
785.978
1097.71
906.962
1112.02
876.89
656.375
697.656
506.451
851.675
709.416
799.487
608.891
515.759
464.233
387.522
672.398
608.465
563.593
493.844
480.305
378.463
377.441
603.624
605.239
494.03
521.182
478.456
382.734
392.85
604.809
588.42
529.625
537.346
1692.1
2020.71
1793.77
2216.56
1935.27
2340.99
2070.86
1388.46
1722.67
1505.66
1843.37
1572.89
1977.97
1687.29
1119.92
1429.9
1206.41
1483.17
1217.82
1587.44
1288.59
796.914
1135.81
934.947
1132.78
885.689
1194.03
946.128
533.217
873.333
711.715
807.57
623.095
877.89
715.35
424.518
664.622
545.859
578.804
509.399
674.791
602.654
389.399
517.288
460.945
506.778
522.627
593.219
577.577
383.159
447.072
415.444
527.821
532.204
572.527
558.399
1867.96
2228.24
1999.47
2447.74
2136.84
2525.13
2187.28
1553.78
1918.25
1604.37
2033.73
1716.82
2060.54
1680.05
1230.54
1498.1
1242.05
1610.53
1300.4
1568.25
1271.53
946.51
1165.39
930.162
1202.72
950.996
1177.45
932.59
719.099
864.069
699.919
883.495
725.083
873.986
737.422
548.17
651.586
543.426
685.617
616.573
702.489
641.805
469.842
524.064
490.557
606.947
589.231
633.242
616.462
425.148
484.405
464.287
583.573
567.003
612.441
601.201
1931.82
2519.2
2028.92
2951.77
2192.76
2937.57
2380.67
1490.52
1885.06
1548.58
2034.51
1761.67
2217.32
1851.36
1213.96
1459.3
1214.99
1690.18
1451.45
1752.45
1459.19
1029.32
1140.3
954.411
1384.03
1266.51
1370.34
1163.7
916.048
904.89
784.318
1238.92
1150.02
1112.87
993.402
850.273
755.456
709.716
1123.86
1083.66
969.441
953.219
801.233
705.116
691.92
1072.28
1010.92
950.769
926.081
728.242
685.032
650.532
987.605
922.253
915.67
872.692
2031.55
2326.07
2012.14
2884.34
2398.53
2724.79
2413.18
1564.78
1909.51
1616.84
2245.08
1877.83
2294.2
1952.25
1213.53
1520.49
1236.53
1769.85
1456.48
1833.64
1472.67
934.124
1145.13
902.03
1360.21
1130.95
1355.83
1078.85
738.708
826.288
639.193
1072.86
935.511
1003.4
821.907
656.775
595.871
543.553
908.18
900.621
786.966
789.787
659.229
549.535
585.656
909.794
903.481
818.845
856.304
634.854
592.977
594.011
897.096
858.79
857.857
838.141
2029.19
2455.57
2172.39
2731.01
2441.65
2878.12
2599.47
1648.76
2072.49
1758.32
2328.9
1989.4
2473.7
2091.07
1257.82
1650.17
1322.29
1867.89
1492.1
1956.8
1545.97
908.948
1218.82
956.515
1370.36
1081.3
1416.3
1117.95
649.846
887.431
729.418
1004.67
826.42
1046.8
899.431
554.36
693.187
642.515
792.171
794.335
874.428
879.365
586.091
640.182
634.558
822.484
856.839
892.702
893.112
590.424
630.794
615.87
857.727
836.288
888.713
864.978
2234.58
2633.61
2246.92
3046.22
2653.32
3084.5
2562.85
1780.36
2104.4
1714.56
2507.75
2098.68
2372.52
1980.73
1330.35
1603.03
1289.09
1962.93
1546.62
1859.61
1483.67
960.885
1188.95
948.716
1416.36
1126.22
1356.65
1142.52
742.052
894.335
767.487
1058.75
922.4
1090.76
981.302
659.88
736.649
690.027
900.014
904.53
950.624
933.704
645.618
684.226
671.273
907.701
902.186
927.513
918.704
624.561
667.207
656.631
897.076
872.678
907.774
895.542
819.551
797.645
736.346
783.867
784.4
829.949
767.306
866.986
875.53
818.98
937.521
828.289
921.161
792.607
792.486
699.184
713.752
496.451
764.612
715.435
613.517
903.034
957.222
933.406
985.257
906.585
953.776
931.613
850.895
809.432
882.307
819.876
858.034
795.445
877.572
903.077
970.084
994.114
925.636
960.833
819.037
935.648
827.035
522.009
786.19
823.151
744.766
641.031
864.889
615.288
627.607
557.492
610.025
596.892
650.049
571.977
583.735
637.607
482.592
421.638
582.908
645.646
359.587
516.698
485.999
435.245
344.317
527.428
477.365
333.639
684.895
761.082
732.18
761.24
713.976
739.428
704.433
633.074
627.046
685.935
599.873
669.231
585.473
650.825
601.107
442.516
709.8
552.3
669.536
382.944
639.184
531.319
357.109
521.186
499.603
488.056
353.255
574.555
846.276
728.729
762.468
508.98
822.859
617.546
776.891
967.62
972.597
959.509
1047.47
928.293
1017.47
996.636
914.15
833.95
914.519
895.705
881.01
861.187
945.984
963.744
991.662
948.443
1062.51
823.326
1030.13
997.389
880.715
536.751
829.992
840.456
650.335
805.749
917.365
1000.47
1083.16
1086.27
1049.7
1055.37
1026.58
1026.09
941.944
914.753
900.139
987.975
883.512
970.339
963.259
639.158
449.258
595.08
355.689
630.644
368.963
598.24
764.466
789.321
783.435
846.889
747.072
811.258
799.846
722.256
671.979
742.554
710.893
708.692
681.267
754.84
691.286
462.344
561.454
773.259
411.922
744.035
713.46
650.758
382.236
510.447
619.075
389.224
607.249
663.715
777.127
861.107
840.389
814.56
828.364
809.848
785.087
730.741
714.127
686.823
762.878
685.728
761.123
734.703
312.602
471.159
309.104
767.48
727.258
723.735
693.428
252.049
239.297
224.893
634.362
546.755
629.204
599.751
211.288
216.266
208.698
529.982
518.376
572.292
555.146
196.647
200.334
191.225
488.646
456.751
523.474
496.853
178.635
186.956
179.514
447.938
435.309
478.369
450.477
153.217
162.66
127.548
413.076
370.556
396.462
311.141
102.73
96.4645
86.0877
318.309
278.744
243.241
223.342
71.7954
88.0457
80.8505
272.6
302.026
227.284
281.016
472.693
424.769
347.619
827.167
756.394
748.261
753.178
360.697
259.052
291.064
435.543
383.131
399.315
213.733
333.39
133.034
128.316
301.845
297.081
327.128
121.037
353.182
130.194
123.747
299.001
300.804
351.912
125.534
348.008
129.527
129.394
302.661
302.184
350.483
129.519
322.112
123.602
126.701
295.882
291.943
329.808
125.387
220.538
93.4209
101.216
257.768
233.9
252.516
87.7111
154.784
45.8372
58.1194
141.376
133.662
154.364
58.1243
166.119
59.369
65.4861
157.27
169.835
165.368
65.321
119.907
111.685
100.69
284.915
313.733
250.776
270.48
309.484
348.641
298.123
699.1
736.291
676.456
700.4
353.299
163.3
194.793
340.296
355.017
330.714
159.388
405.677
138.57
140.052
393.927
401.653
401.927
141.193
385.833
141.352
142.88
399.737
392.077
397.182
140.799
311.404
126.692
121.637
355.092
340.514
327.726
115.258
232.836
107.477
95.803
302.718
275.031
257.796
85.7625
207.541
71.8244
75.5255
196.902
194.998
205.477
76.6869
217.369
84.7703
87.7155
208.798
209.001
218.099
89.1686
143.574
62.0174
76.8589
167.429
148.3
170.15
61.5849
86.1368
71.5204
60.9658
208.169
238.216
167.243
180.913
285.377
378.049
303.667
648.594
605.247
669.448
624.942
269.976
151.057
183.932
289.885
295.375
273.815
146.979
312.502
119.002
111.268
326.109
337.128
294.824
112.216
344.945
121.287
122.154
346.512
340.731
345.478
122.549
337.015
108.996
123.261
308.518
304.052
338.013
124.843
324.205
109.584
126.113
294.133
290.253
328.887
125.645
296.165
106.392
119.939
273.872
268.465
303.399
117.978
263.712
101.929
109.522
254.027
249.543
271.74
106.612
118.49
57.9925
70.7356
172.085
132.107
156.472
53.3403
54.2275
71.4507
59.0848
149.875
160.388
160.958
168.197
445.593
574.297
483.956
896.48
841.458
931.324
888.247
395.589
221.977
304.176
407.802
367.366
426.713
242.887
304.896
105.994
124.871
283.406
291.179
295.484
116.291
416.39
142.385
139.613
379.667
397.407
397.668
149.865
424.573
155.656
161.818
412.461
409.291
429.764
161.332
373.991
143.377
149.131
380.989
369.926
387.903
143.824
313.858
125.583
128.684
334.426
319.778
331.715
121.818
216.433
102.018
104.095
278.02
249.567
261.577
91.3095
96.1627
39.8785
39.9835
98.3594
96.7305
93.554
38.5621
67.267
84.231
72.2869
179.997
184.668
187.842
199.691
273.649
387.867
259.558
615
627.076
641.767
657.122
241.409
223.16
220.635
657.342
707.996
685.781
682.642
259.635
219.179
213.176
711.085
701.745
666.835
635.784
234.043
209.436
197.162
666.572
609.693
606.634
543.538
195.334
179.598
150.776
549.386
492.709
477.532
400.584
127.396
116.82