/*--------------------------------*- C++ -*----------------------------------*\
  =========                 |
  \\      /  F ield         | OpenFOAM: The Open Source CFD Toolbox
   \\    /   O peration     | Website:  https://openfoam.org
    \\  /    A nd           | Version:  10
     \\/     M anipulation  |
\*---------------------------------------------------------------------------*/
FoamFile
{
    format      ascii;
    class       volScalarField;
    location    "5.8";
    object      k_0;
}
// * * * * * * * * * * * * * * * * * * * * * * * * * * * * * * * * * * * * * //

dimensions      [0 2 -2 0 0 0 0];

internalField   nonuniform List<scalar> 
12920
(
222.631
483.835
678.759
638.673
464.055
356.674
284.339
247.484
215.856
186.635
146.982
115.221
93.2113
81.0023
73.3652
69.2258
68.3861
69.3076
68.9843
62.4982
555.63
756.474
485.967
452.232
422.982
352.997
258.624
207.548
163.221
134.539
116.21
110.195
109.967
112.187
114.685
117.179
118.557
120.27
119.482
106.251
103.192
760.803
876.011
807.352
574.351
416.388
304.326
251.25
199.768
166.775
138.294
123.413
112.012
106.422
101.035
97.3229
92.7135
89.6675
86.4235
82.4479
1254.78
1337.05
1350.17
1017
733.941
600.347
455.534
364.281
257.267
185.548
140.444
118.636
104.713
96.5871
90.4013
86.6074
83.8717
82.4757
81.81
81.8258
2614.92
1728.87
1486.01
908.583
649.896
565.228
438.729
343.465
248.531
190.32
154.507
135.284
121.175
111.62
103.615
98.5715
95.1771
92.2765
90.6005
87.8229
3636.38
2751.37
2570.1
1448.42
814.569
530.245
398.739
308.298
246.805
203.602
181.84
166.034
153.279
137.337
121.584
109.808
102.053
96.1573
91.6403
87.2205
1806.21
1284.82
1676.05
1725.28
1444.9
854.399
547.847
375.212
313.995
272.708
254.16
234.647
209.293
189.806
172.751
152.732
128.954
109.867
97.0743
88.7735
2106.06
1871.15
1933.69
1907.46
1513
928.435
476.664
259.246
232.275
201.479
189.671
168.873
127.531
97.2408
189.11
180.225
142.135
107.152
91.0572
85.2141
503.459
2231.9
1932.47
1542.72
965.645
591.368
354.483
151.812
130.94
129.523
125.611
103.404
51.1341
55.8135
129.234
165.073
121.215
97.637
85.3494
81.0644
5351.89
3662.09
1903.88
1056.71
682.145
358.03
199.123
137.692
142.227
130.758
115.845
72.5395
82.447
72.8406
90.4762
128.77
104.122
89.2321
80.1066
79.2428
12839.9
5572.93
1618.04
961.875
675.032
354.638
186.157
118.57
122.183
110.068
109.704
107.609
103.55
75.2464
64.6795
100.515
89.6078
83.6847
83.2338
85.8667
1975.89
2740.93
1627.01
1109.29
927.192
546.151
288.619
111.519
133.014
156.019
147.296
130.531
109.755
44.0986
82.1124
112.021
99.2576
93.3743
93.5618
96.2877
2427.69
1581.97
1416.1
1154.05
838.021
633.498
378.176
237.054
256.661
252.972
211.833
167.969
86.2155
65.2455
118.492
107.477
100.656
99.4862
100.715
105.995
1739.19
1960.44
1770.06
1286.71
813.357
577.256
445.773
385.793
345.202
279.16
208.354
157.964
134.763
129.558
122.903
117.429
116.109
116.354
117.815
121.409
9702.11
5861.44
2928.22
1500.92
781.373
452.214
349.908
304.572
260.673
217.448
184.384
169.991
165.27
166.305
168.506
168.52
166.687
158.303
153.305
144.252
1653.3
3521.34
2097.51
1271.34
749.643
491.152
346.195
302.292
257.521
235.618
215.271
213.34
209.281
209.862
209.856
209.31
207.655
198.198
187.007
164.485
2013.94
2043.46
1865.51
1295.34
752.409
500.53
368.422
335.559
294.241
277.25
257.526
249.011
239.063
235.2
235.227
235.715
232.598
217.36
201.465
173.444
3485.11
2568.09
2266.83
1683.02
1033.58
786.083
591.398
524.773
447.483
413.251
392.027
371.3
339.522
305.088
280.199
259.319
237.859
207.421
190.904
166.948
2121.51
2159.35
2061.04
1660.28
1067.33
761.576
535.19
399.231
312.103
276.003
262.325
259.672
258.512
254.828
241.755
210.705
178.856
154.047
135.978
118.805
967.733
1460.44
1401.26
1082.25
737.224
530.066
381.523
328.47
295.205
274.721
236.937
197.066
168.341
151.825
141.062
127.269
116.464
99.2982
92.8192
78.4061
1352.66
1338.46
1792.3
1786.18
1372.97
991.836
747.481
594.696
491.424
409.822
335.455
275.391
229.193
198.193
178.835
169.609
166.807
161.679
155.24
133.053
5004.6
2848.57
1569.05
1587.67
1158.29
1077
765.496
621.432
428.84
353.944
306.403
306.454
307.98
314.644
315.407
318.295
321.013
323.317
319.735
301.255
308.051
2630.47
2828.41
2390.86
1430.7
1149.39
815.361
678.639
500.119
430.385
360.348
336.306
308.456
296.254
283.636
277.768
270.276
266.924
260.825
254.182
1224.38
3347.16
3368.79
2522.19
1847.14
1515.67
1095.93
874.668
593.844
460.884
362.386
323.652
290.571
274.07
258.948
252.078
246.1
245.188
244.846
245.532
3528.03
3855.2
3473.32
2144.97
1591.61
1418.69
1049.33
838.469
603.203
495.316
415.565
376.003
338.184
316.331
294.584
284.331
275.713
271.06
267.128
262.32
18310.5
8916.21
5471.99
3077.03
1809.96
1327.55
1017.68
799.879
645.196
546.626
492.39
449.697
416.323
382.138
346.508
317.831
294.886
282.368
271.262
262.612
5478.23
3938.67
4092.19
3985.06
2523.63
1786.33
1245.21
945.899
812.704
708.19
635.999
586.469
536.682
513.547
465.742
414.71
353.864
311.539
282.087
267.85
4553.75
4655.46
3944.14
3696.56
2386.28
1777.91
1344.02
991.274
816.776
698.921
630.098
543.459
447.199
415.287
468.991
435.616
334.006
276.24
255.378
252.277
11854.8
8360.58
3886.27
2772.38
1633.16
1429.62
1187.82
930.137
782.829
683.998
592.396
469.857
341.14
324.76
371.704
330.706
271.234
242.827
234.212
239.983
26519.1
12390.1
4430.64
2383.55
1497.96
1231.02
1076.57
957.542
814.053
669.838
544.284
425.488
357.767
273.954
279.305
259.744
231.256
223.834
225.734
239.135
26790.2
6204.84
3772.28
2162.15
1408.07
1124.07
919.399
843.621
753.11
645.516
545.417
453.566
396.597
275.654
202.783
215.536
217.889
228.531
244.188
262.015
3626.89
4419.38
3177.17
2486.91
1901.5
1551.9
1132.6
878.202
845.857
778.333
677.704
570.571
436.713
252.663
240.765
250.447
251.087
257.817
271.52
288.937
9769.87
3421.85
3232.86
2693.54
1788.45
1514.61
1138.6
1110.08
997.796
863.78
689.216
506.895
299.487
264.457
289.377
281.109
282.024
287.776
301.887
321.037
8323.46
5565.55
4034.18
2698.74
1764.23
1395.36
1139.85
1032.65
845.031
678.717
507.021
421.794
380.57
371.094
355.088
346.965
347.215
350.204
359.297
368.851
18663.6
13073.4
6027.65
3278.17
1741.32
1155.56
937.085
817.082
680.908
580.968
507.215
486.436
477.809
480.243
482.726
480.755
476.706
461.265
451.532
434.299
8288.9
8965.45
5160.76
2884.5
1423.86
1171
870.124
823.464
704.636
662.877
613.389
605.015
590.335
587.882
585.404
578.846
575.873
560.173
539.636
492.876
3493.79
5429.68
4266.47
2911.98
1640.45
1290.72
1028.46
970.322
868.416
823.874
756.199
729.098
700.283
686.731
675.425
662.856
650.004
617.208
590.234
529.044
4460.23
5655.73
4627.28
3612.06
2389.07
2010.69
1568.73
1486.45
1318.9
1291.44
1219.52
1147.36
1024.35
918.549
835.671
754.195
682.683
612.447
580.03
527.03
4211.3
4625.31
4166
3506.12
2249.96
1737.92
1161.05
985.419
827.793
817.135
792.178
779.401
749.069
708.196
633.262
554.28
473.826
415.345
383.823
381.812
3510.31
2804.83
2377.23
2020.39
1501.27
1166.37
916.726
782.344
686.499
617.707
550.067
483.24
412.668
351.752
306.661
266.765
249.45
225.004
207.103
162.229
1311.57
2349.54
2725.27
2464.79
1784.18
1251.66
894.881
680.615
549.543
452.179
373.653
313.173
267.707
234.496
210.926
194.486
181.929
168.914
152.558
130.922
7780.23
5593.79
3499.2
2535.9
1740.5
1512.14
1042.13
891.769
652.218
582.556
498.076
480.515
448.692
444.312
434.927
435.667
434.333
431.187
419.489
411.098
2162.6
5012.39
4870.74
3305.45
2128.44
1596.13
1156.14
932.381
705.328
606.728
513.565
475.655
437.034
422.159
406.85
401.802
395.266
393.321
391.041
392.545
4496.49
6164.61
5071.14
3408.59
2536.47
1927.79
1392.21
1051.18
749.331
607.621
507.705
460.927
422.278
402.944
385.999
378.999
372.879
372.369
372.484
375.432
9728.67
5913.79
4428.39
2872.03
2355.36
1860.38
1381.77
1053.05
797.61
659.289
570.21
516.723
474.357
448.966
425.968
413.872
402.208
395.866
390.455
387.589
24069
12904.5
6127.09
3601.85
2449.48
1783
1410.39
1070.73
875.791
731.169
657.059
595.525
551.748
512.153
477.124
449.049
426.833
411.842
399.828
393.025
7299.5
6811.28
5277.1
4309.9
2912.82
2164.85
1614.31
1222.3
1033.91
882.117
788.453
727.96
674.338
638.595
577.335
524.334
470.727
435.295
412.106
403.931
2994.97
5401.73
4939.77
4024.01
2804.93
2268.74
1848.22
1374.3
1097.99
915.44
806.256
704.095
638.073
617.35
585.391
501.409
429.336
395.472
384.15
389.377
11190.8
8142.27
4901.4
3243.82
2347.75
2015.94
1787.23
1379.47
1093.41
907.271
756.85
616.234
515.453
496.397
486.675
399.41
360.433
351.145
354.151
375.423
14428
9831.06
5239.06
2944.7
2267.9
1867.97
1669.2
1388.47
1106.16
885.813
709.708
554.231
425.46
372.844
372.893
333.371
325.784
331.621
346.436
376.111
16552.2
8721
4692.1
2711.6
2126.71
1731.2
1507.03
1301.45
1090.43
918.148
557.8
400.556
392.278
318.193
281.46
308.404
326.789
355.289
376.861
396.144
5204.49
7112.49
5431.33
3655.84
2584.97
2076.05
1709.72
1435.61
1242.54
1035.56
844.696
668.278
477.886
365.743
328.301
356.493
373.695
398.086
417.112
430.388
25492.7
6393.83
4870.11
3473.59
2435.01
2056.22
1706.31
1611.56
1281.79
1047.39
785.446
566.73
429.49
393.264
420.874
423.462
435.901
453.107
468.216
476.226
8893.34
6923.01
4839.66
3180.43
2263.66
1792.68
1534.61
1308.01
1032.57
831.137
666.409
597.126
556.412
545.955
533.031
530.738
533.745
538.298
542.613
539.573
7397.22
8841.54
5747.35
3454.37
2082.3
1518.06
1322.32
1121.45
932.522
808.437
722.388
698.86
681.955
680.126
676.138
666.934
661.924
647.913
638.92
614.501
13065.8
11193.6
6466.55
3139.43
1948.23
1542.17
1296.75
1160.66
1008.33
942.281
875.268
853.07
827.391
818.535
807.145
791.189
781.712
755.533
735.285
687.228
7918.31
6351.91
5298.51
3511.39
2248.28
1753.72
1488.26
1378.52
1249.33
1179
1085.95
1039.18
989.388
959.265
930.262
895.67
867.627
821.229
792.932
729.881
13777.4
7527.66
5461.61
4145.04
2970.6
2500.11
2036.64
1966.4
1780.25
1713.15
1554.33
1423.18
1273.91
1159.66
1062.84
970.367
899.435
832.264
798.41
731.612
13160.2
7193.16
4917.04
3848.64
2705.16
2270.72
1719.51
1635.06
1446.57
1390.91
1257.73
1155.15
1036.35
937.789
828.569
732.093
651.073
591.253
564.551
558.971
2998.24
3137.91
2224.37
1883.24
1525.35
1251.98
1017.02
878.231
770.108
689.072
609.144
535.109
467.312
408.453
364.922
328.178
296.616
246.981
210.774
166.297
2912.17
3657.25
3401.02
2649.04
1962.67
1342.6
919.692
672.603
530.826
434.155
362.549
307.037
264.805
231.197
205.565
182.585
162.55
146.841
136.626
134.04
37312.3
9248.06
5250.36
3180.53
2261.69
1705.23
1252.43
1054.75
845.911
778.122
683.684
646.765
598.003
584.866
568.744
564.943
558.323
556.647
552.828
559.632
6327.64
8550.14
7391.65
3992.61
2770.82
1838.1
1445.89
1092.52
888.205
755.212
668.204
614.425
577.538
558.308
545.677
541.191
538.66
540.174
542.584
553.985
4623.83
8254.79
7134.31
4177.59
3180.63
2127.32
1626.9
1134.39
893.49
728.686
650.759
592.645
560.234
537.424
524.077
517.352
514.232
515.659
517.771
526.931
27565
9691.46
5401.38
3445.95
3019.59
2074.6
1659.84
1178.18
966.418
790.855
716.749
646.198
611.553
580.919
562.16
548.646
538.539
534.117
530.838
533.799
20773.6
9078.04
6242.08
3806.14
3057.75
2057.93
1738.88
1247.84
1063.88
868.254
798.382
717.86
679.357
636.267
606.214
579.137
561.887
550.85
542.592
543.158
16837
8961.56
6295.65
4286.63
3425.92
2386.46
1889.75
1401.3
1195.73
994.272
914.615
840.277
793.535
739.633
678.426
628.591
591.905
571.882
560.355
562.901
6113.59
7599.5
6593.83
4294.84
3428.78
2656.47
2149.85
1579.16
1258.08
1043.85
922.942
837.277
784.985
744.587
655.022
583.556
548.142
539.442
540.511
558.981
8934.22
9055.3
6896.49
3865.32
3010.29
2494.07
2197.65
1615.05
1257.77
1029.43
859.405
733.994
662.47
637.438
570.718
495.44
485.883
494.071
513.225
549.596
7287.29
10281.5
6903.21
3636.18
2960.19
2353.3
2083.89
1644.41
1278.12
1012.47
797.275
614.266
495.757
482.202
467.02
453.812
460.554
485.969
512.07
543.688
14032.7
11300.5
5997.12
3260.19
2776.39
2205.3
1928.36
1612.94
1316.14
1062.98
709.831
492.487
412.273
385.626
403.327
457.946
483.605
517.009
538.481
554.994
25682.8
13918.5
8730.19
4496.9
3211.84
2469.11
2126.55
1790.83
1469.32
1153.63
882.249
668.644
519.521
457.153
445.921
506.532
534.251
563.399
581.365
589.255
25132.2
9775.66
6521.01
3930
3106.75
2416.05
2099.64
1826.24
1387.37
1083.51
805.745
628.809
550.685
522.926
578.629
589.349
613.053
631.501
641.379
640.631
10825.7
8583.93
5765.27
3530.36
2842.65
2071.33
1880.38
1450.54
1167.56
934.491
809.34
752.081
725.531
719.075
714.101
716.185
723.153
727.098
726.646
712.166
10114.4
9742.19
6552.21
3540.49
2524.09
1783.72
1675.83
1337.62
1147.71
982.021
914.955
884.549
872.156
866.181
859.104
847.825
844.373
833.418
823.547
790.57
17583.7
16105.2
9055.81
3732.7
2541.54
1820.24
1678.21
1396.98
1276.69
1160.77
1105.65
1063
1041.56
1024.4
1010.4
988.659
976.192
947.058
928.295
877.236
14647.7
7970.79
6368.82
3902.55
2847.01
2048.25
1895.37
1651.74
1561.72
1430.98
1350.9
1278.45
1229.9
1186.28
1151.4
1106.23
1075.35
1024.34
996.156
929.597
16526
8629.5
6509.44
4265.89
3458.9
2655.72
2426.87
2246.22
2114.18
1961.39
1791.34
1620.8
1480.84
1363.19
1274.51
1185.88
1126.52
1059.12
1020.48
938.356
6755.99
7962.48
4997.99
3609.16
2972.42
2449.49
2131.83
2040.62
1881.47
1763.66
1587.6
1418.71
1266.34
1137.51
1023.11
925.619
856.168
809.013
790.969
762.057
282.885
2524.43
2047.14
1607.05
1377.28
1145.13
966.603
849.137
753.011
669.657
586.637
506.457
443.148
390.315
347.274
297.963
253.413
209.821
189.416
161.078
5104.49
4434.54
3878.28
3074.45
2127.66
1308.23
825.076
571.074
437.988
359.948
299.045
245.876
202.868
170.617
150.7
139.994
135.131
133.883
134.053
139.586
24902.3
12272.6
7084.75
3853.43
3169.61
1723.82
1592.02
1104.19
1114.55
920.126
914.9
804.632
788.302
731.692
730.658
714.844
715.424
712.291
711.939
736.197
14265.8
11916.7
9967.96
4445.16
3614.42
1969.08
1844.1
1185.22
1134.94
875.649
863.656
750.92
750.014
703.568
709.094
694.335
701.23
702.425
708.38
733.216
11060.7
8966.83
8773.41
4882.55
3904.79
2302.8
1958.75
1191.79
1101.61
837.695
829.359
726.654
725.415
682.054
684.039
669.847
674.102
675.275
678.816
698.128
15933.8
9368.14
6143.15
4504.51
3692.78
2317.86
2024.42
1274.14
1187.83
913.424
892.591
775.58
770.08
717.215
714.833
691.824
691.28
686.981
687.804
700.405
15914.4
8941.97
7072
4458.21
3890.56
2387.82
2162.68
1403.24
1283.14
990.768
954.632
837.589
820.611
763.135
745.058
714.968
709.088
703.459
700.47
711.681
16682.7
10199.5
7429.1
4720.93
4188.25
2650.41
2264.89
1593.23
1383.01
1105.97
1063.94
945.535
923.165
837.102
792.024
743.874
730.16
723.401
723.164
739.157
9269.46
7910.49
8082.22
4526.91
4450.73
3060.65
2391.94
1724.94
1414.68
1163.42
1071.94
984.26
941.563
861.285
745.04
705.906
696.882
705.554
715.839
747.487
8565.79
9088.06
7743.02
4317.32
3719.04
2925.6
2569.92
1776.65
1416.43
1156.7
999.298
895.368
841.83
784.671
698.834
643.924
648.366
670.259
696.039
735.162
11224.3
10529.7
8156.14
4332.82
3896.45
2743.61
2469.14
1896.12
1470.86
1133.51
877.389
704.317
656.923
657.727
631.695
623.731
636.758
667.28
692.583
722.751
15631.8
13747
7341.29
4228.12
3516.81
2594.42
2318.79
1934.37
1550.27
1162.11
830.834
606.703
558.728
591.699
610.733
647.68
663.792
691.119
707.835
723.419
26720.1
21551.5
13000.8
5214.95
4126.83
2813.35
2568.94
2123.76
1665.75
1222.38
892.016
707.141
656.111
641.488
647.322
690.465
712.689
735.329
748.757
754.091
26457.5
14163
8658.05
4709.95
4173.5
2723.8
2492.29
1925.82
1497.79
1095.97
885.931
752.514
727.193
707.159
760.364
773.497
790.945
803.769
806.87
801.327
6920.8
9751.36
7033.76
4411.96
3765.29
2428.78
2379.82
1599.86
1367.89
1031.89
981.966
895.486
903.84
887.136
893.233
892.41
900.178
899.596
894.552
871.239
14500.2
8456.73
7674.97
3978.42
3371.91
2134.74
2164.36
1515.53
1396.68
1119.31
1110.25
1045.75
1053.58
1031.22
1026.2
1009.58
1006.68
994.935
982.403
943.264
55337.5
13880.6
8853.72
4346.93
3430.83
2221.59
2153.3
1585.96
1567.12
1313.74
1320.64
1220.35
1229.6
1187.25
1182.39
1150.19
1138.84
1107.52
1089.46
1036.43
11230.7
8447.17
7347.51
4528.07
3642.92
2332.06
2349.3
1828.66
1852.4
1575.91
1571.85
1433.89
1421.94
1346.98
1321.18
1261.32
1233.72
1180.34
1156.63
1093.18
11354
10611.4
7751.79
4885.38
4203.95
2738.52
2880.4
2319.83
2382.07
2030.27
1959.78
1705.99
1634.05
1493.04
1438.74
1348.81
1306.19
1231.7
1196.06
1113
5841.19
8066.78
5963.49
3719.94
3710.01
2468.75
2638.32
2151.24
2210.19
1901.87
1806.95
1538.5
1439.36
1282.86
1219.85
1135
1091.38
1026.9
1005.22
955.091
647.163
1486.81
1407.88
1336.39
1201.77
991.656
838.546
733.562
637.892
543.872
458.463
378.112
317.566
267.968
234.539
207.643
190.727
171.612
160.323
142.22
753.146
897.031
619.075
985.426
830.139
1003.8
709.495
589.054
545.958
413.918
779.778
641.12
617.049
450.936
635.706
1004.01
868.991
1031.43
716.645
1110.99
926.105
424.048
825.205
701.45
627.797
477.175
868.129
712.465
169.735
214.234
136.506
871.211
786.829
852.297
812.57
128.683
131.52
136.988
751.379
682.688
791.554
730.852
129.402
137.882
135.852
660.971
609.039
707.742
631.773
126.934
134.09
127.281
593.586
543.737
606.421
534.74
111.926
124.806
94.1646
525.098
445.748
508.083
408.533
63.911
79.6307
70.0204
417.194
311.117
378.706
327.505
49.2528
73.9141
77.8154
286.043
272.667
317.518
271.725
62.9501
71.7164
48.4764
276.249
315.288
258.67
258.058
137.973
190.26
133.464
849.118
823.44
787.298
766.137
142.227
131.101
131.04
801.663
729.397
744.952
674.382
134.715
129.196
110.217
703.871
617.99
646.037
559.739
120.054
104.751
95.6121
588.511
510.109
535.061
474.026
78.4213
93.9318
94.1162
481.332
389.881
453.639
401.258
77.1354
94.1311
95.1131
369.064
334.908
386.819
352.61
81.9178
95.5752
90.6014
324.982
267.479
344.795
283.969
45.5496
78.2635
34.1388
246.165
240.937
247.809
180.168
122.296
194.339
99.8096
702.086
700.197
691.181
632.573
122.299
94.7435
117.048
692.54
657.907
631.413
670.401
112.847
127.646
145.414
638.834
570.854
677.975
665.263
109.118
147.618
146.526
552.859
504.479
653.048
606.033
108.994
144.423
134.665
486.646
434.376
588.336
531.457
104.78
130.94
116.333
418.653
379.656
511.073
445.369
91.5928
112.487
70.8506
371.161
293.945
420.797
254.633
33.6354
51.3805
35.4759
251.364
179.711
220.19
200.208
134.274
339.137
175.29
851.539
713.882
914.041
810.037
118.947
136.257
128.803
688.035
703.38
805.267
843.751
154.533
146.914
170.354
710.887
696.86
842.479
790.233
151.008
170.942
157.709
682.72
625.711
766.568
672.542
134.72
151.775
128.172
604.813
539.814
639.861
540.534
114.239
120.383
90.1133
516.355
441.314
504.142
369.276
58.7405
75.5613
36.3479
407.492
231.419
307.689
202.512
35.0314
35.0928
36.5707
209.447
203.32
201.472
212.601
994.227
1093.69
989.49
1649.5
1394.58
1562.27
1379.81
816.135
953.849
854.197
1292.21
1090.98
1308.6
1116.86
705.747
820.718
720.247
1034.08
900.72
1058.96
903.383
616.646
688.448
599.699
865.03
760.264
857.836
734.069
500.322
568.253
465.171
725.49
617.366
693.923
580.758
364.652
435.267
372.416
585.49
495.286
547.606
459.485
322.524
356.253
302.841
477.18
456.215
433.603
383.345
356.386
292.518
292.982
457.551
473.441
380.904
384.582
993.423
999.732
922.502
1535.95
1373.19
1440.11
1288.37
849.62
890.928
792.088
1303.15
1108.28
1230.88
1064.95
704.767
756.607
654.599
1049.36
889.656
1012.46
869.074
576.626
626.314
543.726
843.429
718.903
836.119
642.463
449.411
514.913
441.982
678.16
564.619
583.198
453.656
374.556
422.588
376.761
532.346
442.575
422.472
364.217
291.004
365.857
298.53
413.018
352.024
354.394
307.69
273.651
266.363
203.034
348.659
361.081
291.492
264.879
861.782
931.677
818.494
1370.81
1250.69
1418.71
1277.16
780.042
805.999
809.164
1205.01
1066.9
1239.75
1146.43
667.589
806.295
765.681
1020.16
888.796
1110.87
992.987
572.319
746.444
681.916
860.127
665.109
953.649
835.849
473.661
658.943
588.257
604.949
476.286
797.167
686.323
406.767
563.648
485.497
446.816
409.727
649.807
533.734
313.246
452.372
290.325
403.005
337.989
486.639
368.687
202.095
261.705
225.987
312.517
258.946
346.38
296.433
916.324
1233.38
1054.04
1578.66
1372.26
1699.82
1555.37
852.071
1044.07
1020.25
1321.76
1204.46
1532.65
1371.36
800.202
993.48
894.452
1162.83
1030.44
1296.8
1106.85
703.692
863.399
748.858
986.728
859.11
1055.17
885.467
598.549
710.426
596.084
817.823
697.888
831.441
678.753
480.149
555.455
404.084
657.589
525.032
626.386
456.943
271.374
341.829
247.029
471.743
361.497
410.582
350.413
230.637
244.559
242.383
344.021
302.375
343.444
324.736
1489.98
1696.17
1476.37
2098.01
1699.14
2022.22
1702.62
1156.92
1395.1
1179.01
1568.17
1299.26
1594.59
1320.01
946.159
1115.01
946.473
1223.84
1048.33
1242.82
1046.91
793.666
897.774
765.929
1002.52
873.395
990.574
838.805
647.218
723.757
607.004
834.697
729.543
792.023
666.236
531.576
572.549
479.737
703.172
636.805
629.39
537.078
495.148
453.587
409.179
625.234
605.304
516.469
490.927
503.284
408.008
407.812
603.333
584.046
490.257
477.525
1468.12
1564.92
1385.04
1987.43
1693.14
1866.61
1625.23
1170.78
1320.4
1136.34
1588.57
1316.93
1542.87
1313.48
934.688
1079.11
925.124
1239.8
1041.93
1244.01
1059.74
868.534
840.309
875.665
923.01
830.474
874.979
916.529
662.787
667.098
686.997
736.679
640.236
691.736
713.733
455.841
382.386
342.913
600.481
496.095
412.748
359.222
373.648
338.187
308.067
472.569
449.343
352.711
347.621
382.83
297.675
281.634
450.818
452.717
349.826
359.249
1354.95
1564.92
1400.12
1831.85
1615.16
1910.37
1705.12
1142.5
1355.76
1234.86
1542.25
1331.38
1640.85
1446.31
946.918
1190.18
1049.55
1265.17
1083.76
1377.76
1174.87
922.025
832.563
939.815
956.028
884.934
779.465
987.219
673.321
499.759
710.224
436.316
665.69
386.122
720.338
394.202
661.256
536.114
444.388
404.409
665.462
538.8
340.205
490.05
387.013
396
364.896
505.136
437.431
274.037
365.215
313.862
356.852
348.959
420.532
383.842
1489.96
1830.58
1671.36
2023.65
1782.34
2130.42
1930.02
1293.9
1639.09
1443.56
1712.08
1498.85
1863.04
1575.56
1085.86
1358.54
1151.17
1422.85
1202.64
1473.16
1227.26
890.921
1094.21
908.197
1133.72
940.344
1155.17
929.654
712.113
849.606
688.276
880.851
720.187
863.515
694.87
527.891
634.008
470.712
670.666
537.671
642.917
520.241
383.324
431.374
378.196
504.296
443.841
497.157
459.26
321.2
370.711
348.098
429.411
393.441
452.111
431.265
1751.82
2119.36
1765
2475.82
1886.34
2418.04
1955.68
1335.21
1648.84
1358.57
1735.15
1444.08
1817.28
1488.79
1076.79
1278.33
1075.23
1367.55
1170.98
1401.39
1170.12
897.685
1016.33
858.352
1117.25
986.286
1100.25
921.735
758.38
810.498
683.402
953.642
867.297
872.261
748.943
673.105
646.861
559.897
846.774
799.214
717.634
660.487
641.386
542.505
522.402
790.294
756.82
653.462
641.731
607.463
521.161
502.189
743.455
691.173
636.534
605.827
1756.17
1958.92
1695.62
2369.51
1953.56
2230.15
1922.24
1358.32
1608.32
1365.8
1823.11
1500.09
1822.21
1541.19
1072.07
1292.34
1094.67
1410.45
1168.94
1451.6
1193.44
849.26
1036.03
784.305
1096.03
905.607
1110.05
875.213
655.358
696.219
505.499
850.451
708.569
797.986
607.96
515.113
463.198
386.968
671.682
608.4
562.789
493.692
480.564
378.054
377.373
603.747
605.556
494.023
521.502
478.344
382.753
392.906
605.065
588.205
529.921
537.371
1691.44
2020.1
1794.08
2216.95
1934.48
2341.99
2071.34
1387.18
1722.95
1504.85
1842.34
1571.15
1978.03
1685.76
1118.43
1428.79
1204.91
1481.24
1215.66
1585.54
1286.21
795.354
1134.31
933.464
1130.79
883.977
1191.69
944.223
532.363
871.903
710.345
806.058
622.166
876.179
714.146
423.969
663.223
544.735
577.992
509.149
673.766
602.321
388.923
516.425
460.393
506.651
522.768
593.051
577.572
383.038
446.55
415.185
527.969
532.158
572.539
558.355
1868.31
2227.54
2000.12
2448.88
2137.43
2526.51
2188.15
1552.85
1918.56
1602.77
2033.87
1715.17
2060.75
1677.98
1228.87
1496.21
1240.34
1608.5
1297.92
1565.92
1269.35
944.881
1163.37
928.329
1200.26
948.985
1175.1
930.795
717.53
862.201
698.229
881.69
723.842
872.343
736.471
547.03
649.88
542.758
684.601
616.322
701.752
641.846
469.426
523.673
490.508
606.863
589.304
633.406
616.744
425.04
484.387
464.301
583.645
567.066
612.73
601.318
1931.26
2520.83
2028.61
2934.59
2181.79
2921.36
2359.61
1490.82
1884.6
1548.03
2022.21
1746.85
2197.16
1831.92
1214.05
1458.69
1214.05
1673.58
1438.63
1733.25
1442.4
1029.6
1139.36
953.637
1370.33
1253.06
1354.36
1149.5
916.486
904.207
783.991
1224.41
1137.47
1099.21
981.259
851.011
755.287
710.098
1110.56
1070.43
957.563
940.361
801.577
705.596
692.388
1058.42
997.819
937.963
913.52
728.097
685.414
650.799
974.444
909.21
903.165
859.557
2031.1
2327.49
2012.34
2866.18
2376.01
2710.74
2389.34
1563.97
1909.45
1615.99
2223.41
1857.04
2270.49
1929.06
1212.31
1519.36
1234.93
1749.78
1438.83
1811.21
1453.17
933.091
1143.54
900.564
1343.55
1116.62
1337.7
1064.02
738.149
824.959
638.39
1059.24
923.756
989.589
811.076
657.098
595.256
543.675
896.866
888.631
776.817
779.352
659.804
549.944
586.276
897.224
891.091
807.203
843.999
635.167
593.562
594.52
884.75
846.268
845.571
825.345
2030.01
2458.81
2174.65
2714.34
2417.76
2860.62
2573.39
1648.11
2074.17
1757.97
2304.94
1965.52
2447.65
2065.17
1256.14
1649.29
1320.4
1844.7
1471.95
1931.64
1524.36
907.429
1216.84
954.84
1351.64
1066.22
1396.06
1101.93
649.042
885.943
728.532
990.674
815.357
1031.88
887.362
554.412
692.538
642.647
781.801
783.651
862.84
866.981
586.589
640.474
634.967
810.574
844.336
879.416
880.04
590.925
631.206
616.426
845.282
823.902
875.67
851.463
2236.97
2636.84
2248.79
3014.13
2625.77
3062.19
2540.59
1779.89
2105.65
1713.64
2480.88
2072.45
2350.54
1955.25
1328.39
1601.79
1287.52
1937.29
1524.99
1836.08
1464.06
959.177
1187.26
947.536
1396.12
1110.1
1338.64
1125.76
741.224
893.329
767.129
1043.72
910.115
1075.75
967.982
660.126
736.546
690.554
888.164
891.452
938.328
920.899
646.085
684.865
671.939
894.596
889.206
915.036
905.957
625.237
667.902
657.344
884.088
859.354
895.228
882.092
818.333
796.557
735.276
782.708
783.255
828.808
766.146
865.909
874.367
817.129
936.213
827.507
920.01
789.056
791.333
698.279
712.762
495.206
763.846
714.115
611.34
901.763
955.954
932.118
983.759
905.359
952.369
930.299
849.636
808.216
881.033
818.571
856.818
794.195
876.3
901.622
968.827
992.967
924.065
959.654
815.693
934.174
825.346
520.6
784.54
821.163
743.094
638.827
863.035
614.391
626.64
556.793
609.121
596.056
649.047
571.152
582.334
636.722
482
420.735
582.036
644.33
358.985
515.433
485.064
434.589
344.047
526.555
476.306
333.435
683.723
759.881
731.04
759.936
712.849
738.177
703.225
632.047
626.076
684.871
598.761
668.185
584.476
649.7
599.44
441.471
708.241
551.137
667.918
382.24
637.671
529.737
356.853
520.148
498.539
486.995
352.992
573.241
845.626
727.567
762.063
507.958
822.388
615.737
776.481
966.75
972.17
958.885
1046.68
927.759
1016.75
995.811
913.333
833.43
913.864
894.813
880.446
860.441
945.121
962.766
990.718
946.642
1061.84
819.595
1029.26
996.124
879.645
535.414
828.22
838.972
648.269
804.915
915.685
999.368
1082.14
1084.97
1048.43
1054.32
1025.54
1024.84
940.911
913.642
898.902
986.66
882.509
969.253
962.026
638.856
448.849
594.788
355.692
630.394
368.756
597.925
763.777
788.82
782.736
845.985
746.567
810.539
798.941
721.602
671.546
741.805
709.864
708.195
680.629
753.885
690.576
461.447
560.614
771.931
411.421
743.338
712.123
650.037
381.889
509.77
618.327
388.923
606.743
662.539
776.255
859.989
839.219
813.281
827.401
808.737
784.044
729.893
712.928
685.713
761.592
684.841
759.976
733.675
311.153
466.97
307.298
765.578
725.994
720.926
692.328
251.902
238.944
225.002
633.995
547.229
629.267
600.119
211.439
216.499
208.956
530.594
519.127
572.83
555.67
196.786
200.528
191.414
489.13
457.575
523.807
497.209
178.778
187.147
179.54
448.498
435.903
478.724
450.357
152.843
162.237
126.718
413.156
369.997
395.299
309.29
102.491
95.9647
86.065
317.676
278.729
242.313
223.48
71.8137
88.2229
81.3636
273.103
302.733
227.828
282.062
469.64
422.765
346.816
823.863
754.909
748.614
753.579
360.152
256.71
288.979
433.151
381.357
397.999
212.481
334.429
132.661
128.226
302.012
297.833
327.812
121.162
353.876
130.147
123.981
299.506
301.727
352.649
125.726
348.434
129.462
129.555
303.064
303.091
350.881
129.637
322.15
123.45
126.773
296.073
292.519
330.003
125.442
219.008
92.8007
100.472
256.979
232.814
250.91
86.9148
155.05
45.6438
57.9608
140.343
133.595
154.201
58.1313
166.363
59.6337
65.4808
158.039
170.668
165.568
65.3115
120.149
111.966
101.002
285.731
313.935
251.475
270.61
309.566
348.212
298.319
700.281
738.386
677.219
702.217
354.314
163.221
194.536
341.285
355.749
331.88
159.481
406.157
138.88
140.271
395.067
402.518
402.664
141.359
385.421
141.319
142.839
399.973
392.043
397.154
140.63
310.643
126.433
121.093
354.571
340.059
326.696
114.806
231.606
106.628
95.0412
301.72
273.245
256.34
85.1153
208.338
71.8466
75.5845
196.876
195.412
205.958
76.9134
217.786
84.9154
87.9779
209.361
209.384
218.671
89.3262
142.51
61.561
76.0244
166.425
147.726
168.774
60.9467
86.4867
71.5272
61.4069
208.742
238.429
167.45
181.257
285.799
379.335
304.328
649.611
605.026
671.108
625.098
270.178
151.123
183.889
290.482
295.664
274.005
147.016
313.627
119.066
111.393
326.531
337.662
295.738
112.428
345.294
121.128
122.216
346.579
340.511
345.972
122.554
337.579
109.033
123.512
308.615
304.29
338.579
125.084
324.651
109.751
126.261
294.59
290.74
329.351
125.774
296.495
106.519
119.989
274.322
268.941
303.753
118.035
263.705
101.951
109.494
254.497
249.839
271.991
106.526
117.044
57.1836
69.6141
169.603
130.245
153.838
52.6112
54.4651
71.5467
59.0993
149.842
160.477
160.908
168.128
446.861
576.369
484.861
900.434
841.553
935.066
888.686
393.968
221.419
304.034
407.974
366.046
426.932
242.476
307.357
106.4
124.483
284.772
293.328
296.922
116.717
418.365
143.164
140.604
382.06
399.271
400.314
150.643
424.814
155.832
162.055
413.304
409.734
430.554
161.453
373.746
143.217
148.928
380.96
369.853
387.694
143.585
313.346
125.35
128.391
334.212
319.477
331.269
121.467
213.123
101.358
103.646
277.385
247.283
260.239
90.2076
96.7154
39.7706
39.678
97.8705
96.928
93.5125
38.5543
67.2298
84.3917
72.2647
180.076
184.57
187.984
199.709
272.934
386.846
258.828
615.031
627.417
641.978
657.226
242.391
223.207
220.784
659.585
710.02
686.409
683.58
259.91
219.413
213.325
712.597
702.416
667.262
635.943
233.635
209.504
196.991
666.021
609.174
606.189
542.935
194.991
179.257
150.112
548.678
491.775
476.388
398.726
126.265