/*--------------------------------*- C++ -*----------------------------------*\
  =========                 |
  \\      /  F ield         | OpenFOAM: The Open Source CFD Toolbox
   \\    /   O peration     | Website:  https://openfoam.org
    \\  /    A nd           | Version:  10
     \\/     M anipulation  |
\*---------------------------------------------------------------------------*/
FoamFile
{
    format      ascii;
    class       volScalarField;
    location    "5.8";
    object      omega_0;
}
// * * * * * * * * * * * * * * * * * * * * * * * * * * * * * * * * * * * * * //

dimensions      [0 0 -1 0 0 0 0];

internalField   nonuniform List<scalar> 
12920
(
68.379
98.9557
116.665
112.568
95.5871
83.8916
74.9584
69.9884
65.3939
60.7836
53.9131
47.7361
42.961
40.0722
38.1482
37.0688
36.8534
37.0995
37.0022
35.1933
110.702
123.057
97.2486
94.686
91.658
83.5535
71.5065
64.0726
56.833
51.6196
48.0028
46.7705
46.7282
47.2027
47.7177
48.228
48.5073
48.8474
48.6746
45.8615
45.8191
123.855
132.163
126.607
106.699
90.8069
77.6667
70.5885
62.9432
57.5037
52.3612
49.4692
47.1325
45.9425
44.7643
43.9316
42.8763
42.1641
41.3915
40.4323
149.653
162.146
163.595
142.077
120.726
109.176
95.099
84.9843
71.3793
60.6061
52.7419
48.4892
45.563
43.7634
42.341
41.4447
40.7865
40.4464
40.2841
40.2893
226.848
185.263
171.668
134.333
113.644
105.969
93.3141
82.5016
70.1579
61.3981
55.3366
51.7897
49.0173
47.0468
45.3304
44.2168
43.4499
42.7825
42.3915
41.7369
266.51
235.205
226.906
169.047
126.88
102.483
88.8994
78.162
69.9452
63.5399
60.0615
57.3928
55.1299
52.1678
49.0801
46.6512
44.9812
43.663
42.6263
41.5896
176.492
159.398
183.514
185.76
169.551
130.059
104.136
86.2294
78.9336
73.5802
71.0383
68.242
64.4387
61.3618
58.5237
55.0008
50.5261
46.6449
43.8545
41.9514
195.794
190.885
196.583
195.249
173.193
135.287
193.82
143.457
135.888
126.56
122.786
115.776
100.447
87.8386
61.3163
59.8028
52.9962
46.0394
42.4717
41.1069
104.017
210.702
195.92
175.092
138.221
216.162
334.593
219.427
204.306
203.145
199.948
180.882
126.698
133.417
101.415
57.1587
48.9735
43.9705
41.1231
40.0949
311.757
266.7
193.728
144.352
116.182
168.415
251.195
209.225
212.474
203.514
191.454
151.561
162.027
151.331
84.8202
50.5296
45.4151
42.0449
39.8476
39.6444
524.731
326.23
177.301
138.107
115.839
167.87
243.003
194.049
196.86
186.794
186.717
184.861
181.329
153.435
71.6009
44.6469
42.1513
40.7418
40.6383
41.28
207.416
233.193
179.027
148.562
135.918
208.427
302.068
187.895
206.139
222.649
216.112
203.398
186.396
117.588
80.7865
47.1209
44.3686
43.0441
43.0913
43.7146
209.403
177.668
168.122
151.597
129.003
112.053
172.893
137.255
142.904
141.641
129.558
115.15
82.3109
71.9492
48.4829
46.1693
44.6857
44.4317
44.7094
45.8676
187.146
196.857
187.715
159.913
126.97
106.943
93.9956
87.4935
82.75
74.3613
64.2046
55.9192
51.6915
50.6957
49.3719
48.2616
47.994
48.0467
48.3515
49.0816
427.134
338.977
239.679
171.823
124.061
94.4702
83.2547
77.7174
71.8823
65.644
60.4575
58.0718
57.2739
57.4581
57.8318
57.8297
57.5012
56.0181
55.129
53.4814
177.237
263.254
202.489
158.4
121.762
98.5643
82.8155
77.4217
71.463
68.3614
65.3583
65.0733
64.454
64.5441
64.5406
64.4518
64.1869
62.6746
60.8668
57.0907
193.219
201.68
192.242
160.076
121.912
99.4453
85.4203
81.559
76.3765
74.1506
71.4694
70.2821
68.8676
68.3223
68.3295
68.3946
67.9231
65.6203
63.165
58.6173
263.625
226.245
212.311
182.73
143.005
124.724
108.24
101.953
94.1501
90.5064
88.1794
85.7873
82.0085
77.7354
74.5125
71.684
68.6262
64.0769
61.4766
57.5064
202.724
207.261
202.873
181.43
145.268
122.674
102.796
88.7857
78.5676
73.9611
72.1562
71.8134
71.6523
71.1238
69.2192
64.5561
59.4729
55.1927
51.8561
48.4998
142.699
170.309
167.05
146.268
120.641
102.274
86.8449
80.7253
76.5732
73.8336
68.5063
62.456
57.7615
54.8852
52.8965
50.2352
48.0391
44.3538
42.885
39.4064
65.6468
65.4788
76.1159
75.5008
65.784
55.9671
48.6038
43.385
39.4577
36.0343
32.5974
29.5352
26.9497
25.0697
23.8233
23.2093
23.0167
22.6562
22.1957
20.533
255.559
132.036
94.1617
83.6751
60.9049
48.8649
41.6174
39.4496
37.0247
34.501
31.1451
28.1769
25.7859
24.7925
24.4455
24.4232
24.3879
24.2466
24.0679
23.7442
109.136
114.83
97.2183
77.3579
61.6154
50.269
43.2416
39.1398
35.5201
31.6933
27.8709
24.9897
23.0466
22.1805
21.5799
21.2815
21.0579
20.9938
21.1068
21.4182
127.351
118.69
93.302
73.4355
60.8875
54.7795
47.6395
42.0534
36.3909
30.9971
26.9526
24.0166
22.3526
21.3508
20.8211
20.4551
20.2453
19.9842
19.9062
19.9952
157.671
113.776
91.3509
74.363
64.2125
56.1497
49.3462
42.0503
36.357
31.1341
27.8562
25.6753
24.761
24.0701
23.6897
23.1158
22.6164
21.9424
21.4942
20.9795
375.641
216.741
139.458
88.1273
65.5709
52.4134
45.0177
39.0266
34.5964
31.0009
29.3594
28.182
28.0134
27.6446
27.3918
26.7064
25.6581
23.9689
22.6243
21.434
215.551
157.086
127.999
107.845
92.0004
66.406
52.4234
42.3538
37.9514
35.3172
34.4594
34.3357
34.4364
35.1667
35.1785
34.4182
31.5758
27.523
24.4536
22.2059
163.602
166.31
116.897
103.539
95.754
71.722
66.81
50.0879
43.3332
39.0196
37.7328
36.9474
36.9232
36.3703
33.2761
33.432
31.3486
25.7216
21.9459
20.8238
359.73
250.669
123.188
92.7393
78.879
71.8429
70.287
54.9114
44.1875
39.9038
37.6307
36.6732
34.7216
28.2596
26.7341
25.4472
24.2376
21.8681
20.6221
20.4533
438.809
238.685
109.575
80.1706
68.0837
62.5199
58.4311
51.649
45.4468
41.98
39.3673
35.153
30.6921
30.0129
26.5744
23.1237
22.0692
21.2487
20.7838
20.6678
360.838
163.747
97.3076
80.6032
71.3843
67.0473
62.2308
52.5743
43.8339
37.9284
36.3552
37.1621
36.1284
35.7673
27.2989
22.4491
21.9745
21.8095
21.6955
21.4253
218.611
154.043
125.454
98.1842
85.5102
83.4544
80.9946
71.3714
47.1337
39.7723
37.6884
36.9095
38.2108
36.2918
22.5411
21.1241
21.9648
22.3967
22.4308
22.2753
251.845
132.863
115.942
93.2634
80.7789
66.0606
66.2154
63.8588
50.0712
44.9344
42.2903
41.6844
38.008
26.6662
21.667
21.9259
22.4612
22.7958
22.8769
23.0438
219.156
122.397
94.6812
75.3776
62.2467
52.9035
48.804
46.6762
42.1767
39.2379
35.1842
31.4021
27.9649
26.0768
25.4559
25.2257
25.2377
25.2315
25.1244
25.0693
434.52
307.083
140.695
89.3677
65.3007
48.9702
42.6327
39.5304
36.5265
33.5016
30.8947
29.3247
28.3583
27.9762
28.009
28.0899
28.2236
28.321
28.3884
28.1016
324.464
192.395
107.759
84.503
70.5167
53.7648
45.0652
39.4282
36.3019
33.7839
32.0322
31.28
30.9054
30.7765
30.7636
30.7148
30.8261
30.8502
30.7835
30.2708
197.323
159.486
108.044
82.1452
64.4294
51.1907
44.5433
41.8398
40.1124
39.131
38.1032
36.8875
35.642
34.5234
33.9452
33.502
33.3561
32.8797
32.5365
31.602
168.965
140.591
107.55
91.954
75.5102
66.3474
60.419
59.1067
57.1802
55.5228
53.7975
51.1102
48.5286
44.799
41.3711
38.1296
35.6197
33.3859
32.5086
31.2209
131.226
130.843
112.632
98.6758
86.3831
75.1508
66.3801
59.1285
53.0624
48.6308
45.1829
42.4872
40.0256
38.018
36.0881
33.8986
31.5037
29.1608
27.7696
27.3203
109.769
94.2312
87.0639
80.1331
68.9618
60.7801
53.8992
49.8153
46.6786
44.2779
41.7735
39.1373
36.1566
33.3851
31.176
29.0871
28.1349
26.7105
25.6125
22.654
65.2048
87.1769
93.5888
88.5228
75.0833
62.8747
53.1825
46.4213
41.7333
37.8595
34.4148
31.5084
29.1349
27.2717
25.8689
24.8433
24.0273
23.1465
21.9875
20.3738
218.571
121.159
86.9277
66.6014
53.618
47.3504
40.4358
37.7457
33.4127
31.0068
27.9153
26.4152
25.1181
24.8832
24.5816
24.5187
24.333
24.0483
23.5683
23.2057
209.077
136.744
96.7924
66.9217
51.5963
42.9327
36.8637
33.3091
29.438
26.8166
24.0661
22.6683
21.4896
21.0549
20.6565
20.5487
20.4479
20.4643
20.5561
20.7883
177.76
130.597
95.7663
66.5527
53.0959
45.1494
38.5534
33.5889
28.7211
25.3188
22.7774
21.3184
20.358
19.8825
19.546
19.4117
19.3126
19.3185
19.3483
19.539
247.207
114.462
80.2753
59.1908
51.8073
44.7615
38.6355
33.2727
28.8953
25.7187
23.7958
22.6368
22.0397
21.6194
21.2458
20.9176
20.5879
20.3136
20.1015
20.0382
377.973
237.311
112.213
67.8812
50.7229
41.1822
36.4553
31.8965
28.8599
26.3739
25.4662
24.7523
24.5819
24.132
23.6614
22.904
22.1551
21.3559
20.742
20.3865
200.404
150.867
107.454
80.7093
62.9226
47.4248
39.8218
33.6569
31.536
29.6301
29.5044
29.5591
29.8099
29.8988
29.1632
27.2306
24.9807
23.0732
21.7405
21.0671
94.1696
127.84
108.422
77.1765
63.3508
49.5823
46.312
38.682
34.1425
32.1042
31.1863
30.978
31.202
31.5115
29.9238
27.5239
24.5075
22.1854
20.9961
20.821
218.822
177.652
110.186
69.3897
54.9803
49.0567
47.1275
40.6301
35.8695
33.3839
31.6415
30.2452
28.1646
26.6908
26.0818
24.3615
22.609
21.4921
21.0042
21.0204
230.318
159.431
93.1445
62.6766
53.5443
47.2422
44.9138
40.7259
36.7894
33.9999
32.3459
31.2099
30.0944
28.4114
24.9035
23.7772
22.6899
21.9917
21.5158
21.1573
201.932
135.153
80.9512
62.7802
55.8673
50.5544
47.2939
41.4971
36.3561
32.7516
79.3156
70.1001
41.0586
32.7846
26.7839
24.3397
23.2134
22.3873
21.7785
21.2614
173.604
152.411
112.191
83.2703
67.4041
61.0668
57.3646
49.0316
39.2286
34.7185
32.8286
31.4639
30.5411
25.7936
22.2539
22.3954
22.1559
21.9787
21.7661
21.596
376.965
132.23
99.212
75.7036
62.8369
51.8658
49.5877
47.5375
39.6447
36.3947
33.3335
31.0381
25.9131
22.1551
21.6306
21.6367
21.79
21.9656
22.0675
22.2228
205.164
118.627
83.5921
61.7379
51.9853
43.7691
40.6769
37.4047
33.6979
30.7134
27.8051
25.6783
24.0832
23.4109
23.1976
23.232
23.4189
23.5737
23.6727
23.7159
192.004
162.128
97.9517
67.4646
50.4758
39.2111
35.965
32.8691
30.2246
28.0474
26.4629
25.7241
25.3062
25.3104
25.4022
25.522
25.7453
25.8856
25.9796
25.8537
391.368
190.681
106.025
62.9259
50.6947
40.7443
36.2823
33.294
30.9103
29.5604
28.3796
28.1062
27.8788
27.9294
27.9535
27.9674
28.0504
28.0339
27.9976
27.702
218.277
166.739
103.507
66.8544
51.3243
42.9212
39.179
37.5077
35.8077
34.7803
33.476
32.7243
31.9805
31.5503
31.2009
30.797
30.5782
30.0887
29.8096
29.0425
261.332
140.388
95.1202
74.7531
61.9571
56.9254
52.8037
51.9442
49.1832
47.4008
44.7112
42.4729
40.0755
37.9108
36.0035
34.1471
32.7623
31.4134
30.7961
29.5523
258.346
137.904
96.7674
78.6315
66.6092
61.0719
54.4452
51.9122
47.286
44.7407
41.4842
39.4793
37.5361
36.2699
35.0464
33.8021
32.5704
30.6339
29.3392
27.9596
96.6648
100.22
83.7875
77.3658
69.573
63.0067
56.7917
52.7916
49.4408
46.7634
43.9578
41.1909
38.4891
35.9851
34.0187
32.2616
30.6554
27.9564
25.8224
22.9474
98.939
108.477
104.164
91.6144
78.8024
65.1221
53.9159
46.1534
41.0222
37.1049
33.9074
31.204
28.9793
27.0783
25.5325
24.0604
22.7008
21.5782
20.8189
20.6267
504.185
159.457
94.944
65.4072
60.7388
50.3177
44.487
39.0887
35.5765
33.8157
32.1008
31.7219
31.2301
31.1978
30.8353
30.5541
30.0107
29.669
29.121
29.1012
165.366
152.914
117.039
67.1452
54.7243
41.9763
38.8933
33.653
31.4385
28.9575
27.6587
26.7562
26.2697
25.8979
25.7023
25.628
25.6204
25.7265
25.8365
26.259
133.749
139.549
110.592
68.2225
55.6333
42.5126
38.7634
32.1318
29.677
26.5935
25.649
24.5505
24.3025
24.0146
24.0035
24.0377
24.1343
24.3849
24.5386
25.002
428.057
157.489
78.124
55.6568
52.2126
41.3113
38.437
32.0246
29.9576
27.005
26.3605
25.312
25.2182
24.9185
24.859
24.7792
24.7777
24.847
24.9202
25.235
357.954
147.087
88.1832
57.0837
50.1939
38.8927
37.4253
32.0757
30.3941
27.6828
27.4696
26.7825
26.8007
26.4529
26.1582
25.769
25.5266
25.4348
25.3674
25.5273
286.698
151.284
94.4463
64.6292
56.2343
42.5259
39.2291
33.3297
32.457
30.2926
30.8121
30.5689
30.8442
30.4751
29.4463
28.161
27.128
26.5754
26.2818
26.4007
162.727
146.09
109.128
65.7623
57.2548
46.0557
42.5984
37.0509
33.9852
32.7659
32.104
32.2551
32.2906
32.3275
31.5738
29.0261
27.4176
26.7797
26.6444
26.8644
154.127
160.007
121.127
63.6893
52.2533
45.8175
43.9703
38.9917
36.0558
34.8264
33.2952
32.1566
31.3086
31.2503
31.1201
30.2134
28.3603
27.5859
27.3081
27.356
127.91
156.673
106.526
60.8598
53.4597
45.7169
43.5592
40.1944
37.5417
35.3537
33.994
33.2308
32.5105
31.6149
31.5065
31.317
29.3674
28.3283
27.6682
27.2729
168.095
143.296
85.8552
57.884
53.5256
46.5483
43.8354
40.4364
37.8019
35.8761
52.2921
46.1339
37.1675
34.4401
33.2849
31.8931
29.583
28.2235
27.4199
26.9603
349.605
205.472
129.615
75.7657
61.0311
52.4124
49
44.1096
39.7366
36.8236
34.3668
31.9875
30.4754
29.8458
30.7695
29.8563
28.2174
27.4817
27.1324
26.9886
309.154
148.023
98.4338
66.1101
58.9071
47.3661
45.4634
43.0864
37.5449
35.1165
31.6047
29.3938
27.4654
27.0972
28.1396
27.3748
27.1323
27.1559
27.237
27.386
232.54
136.568
84.971
57.917
53.1703
41.9213
41.2483
35.5866
33.2715
29.7906
28.5995
27.3785
27.2311
27.1727
27.2703
27.4807
27.9265
28.2203
28.5061
28.6479
205.446
175.73
98.2994
58.2123
48.9148
37.6504
37.7294
33.2842
31.6791
29.1589
28.6861
28.2845
28.4218
28.6663
28.9352
29.2144
29.7023
30.0031
30.3009
30.3318
340.435
271.98
143.942
61.9031
49.6442
38.6314
37.8707
33.9258
33.1543
31.5647
31.3663
31.1134
31.249
31.3836
31.589
31.7475
32.0484
32.1708
32.3491
32.2804
261.033
150.928
101.474
62.1875
52.2884
42.0101
41.4205
38.2178
37.8584
36.2673
35.875
35.2931
35.1254
34.9004
34.7736
34.545
34.48
34.2301
34.1494
33.7547
263.935
139.872
95.0998
67.3902
61.7779
53.6734
52.7608
50.1285
48.6417
46.7214
44.9909
43.4105
41.9834
40.824
39.8623
38.667
37.8316
36.7502
36.1298
35.0158
168.522
141.396
93.3267
68.7645
63.4202
56.775
54.1259
51.7879
49.2055
47.6835
45.6734
44.885
43.9282
43.4599
42.7241
41.5626
40.0644
37.949
36.5513
35.0658
31.1199
91.0544
80.4738
71.4046
66.119
60.2741
55.3834
51.9228
48.8905
46.0971
43.1312
40.0699
37.4821
35.1782
33.1758
30.718
28.3226
25.7759
24.4961
22.5949
131.706
118.968
111.257
98.8821
82.0544
64.2675
51.0727
42.5383
37.2751
33.7897
30.799
27.9221
25.3602
23.259
21.8637
21.077
20.711
20.617
20.631
21.0554
278.812
171.041
114.635
72.8938
82.1359
54.622
58.3358
43.507
48.9649
43.0735
46.6565
43.6976
44.8748
42.7508
42.8709
41.7765
41.6138
41.0927
40.7188
41.4156
199.616
163.718
134.088
69.4355
69.2365
45.5344
51.0984
38.462
42.6147
36.247
38.7306
35.4741
36.809
35.19
35.9545
35.3768
35.8277
35.911
36.1158
37.0456
266.597
149.273
121.654
70.8329
65.6006
45.2043
48.2091
35.8581
39.1335
32.8479
35.4062
32.5508
34.1597
33.037
33.9589
33.7078
34.2234
34.5203
34.7087
35.5659
237.884
139.618
81.2587
66.6845
61.2991
44.2536
47.6576
36.0487
38.9887
33.1708
35.2872
32.6146
34.2112
33.1502
34.1526
33.8751
34.4395
34.6809
34.9234
35.692
258.864
124.284
90.2452
60.9814
61.9288
44.0381
48.1365
36.6104
38.2856
33.3632
35.0374
33.2655
34.5533
34.0035
34.5287
34.4503
34.8679
35.2571
35.3718
36.0478
271.067
147.321
96.8864
64.5361
65.0108
45.7273
47.3852
38.8096
39.1591
35.3818
37.5868
36.0055
37.6699
36.5257
36.5456
35.8215
35.936
36.1342
36.2736
37.0005
238.037
133.877
112.953
61.9569
70.4508
51.8106
47.8334
41.456
40.5123
38.2371
39.5061
39.2789
40.0676
39.2684
38.874
37.0742
36.579
36.8413
36.9247
37.5721
176.028
148.184
111.087
63.8577
61.4655
51.7569
52.3258
45.4563
45.0281
44.1774
43.8339
43.4276
43.2689
42.6606
42.4349
38.9586
37.4413
37.2979
37.3332
37.7029
190.867
150.124
112.392
67.3287
67.285
50.9877
52.2962
51.0574
49.8624
47.3337
45.4957
45.1658
45.5519
44.997
43.9868
39.7697
38.1538
37.7644
37.5322
37.5346
185.111
162.962
98.8484
68.2755
62.9138
50.0938
50.6905
52.0139
50.9694
47.8505
46.4711
45.2804
46.7867
46.5613
44.8532
40.2983
38.2711
37.5831
37.1733
37.0212
240.696
232.771
165.121
77.6961
72.2594
54.4229
55.4698
53.7637
51.0831
47.6036
44.8576
43.8698
44.8614
45.2384
43.8997
38.9992
37.5379
37.0319
36.917
36.9199
285.304
175.395
117.486
72.1026
74.1349
51.3034
52.7259
45.9601
44.2274
39.9252
39.1177
38.2036
39.3112
39.3285
38.0388
36.8596
36.4748
36.6146
36.7254
36.9286
185.614
157.288
98.7939
69.1505
69.0721
47.5059
52.9412
38.9581
40.0976
34.2074
35.8607
34.115
35.7096
35.3998
36.0848
36.286
37.0206
37.4114
37.8491
38.0767
246.672
151.926
112.289
61.9832
63.5199
43.9464
49.5658
37.1033
39.2872
34.2854
36.1137
34.8482
36.1788
36.043
36.6804
37.047
37.8954
38.4745
39.0556
39.3197
610.182
216.468
122.39
69.0084
65.1711
45.6545
48.9453
38.0025
41.5351
36.8056
39.1332
37.3646
38.7998
38.3242
39.1636
39.3123
40.0645
40.5076
41.1716
41.4668
184.124
132.408
104.689
67.5176
64.6335
46.4146
50.9326
41.1987
45.2369
40.6521
43.2079
41.3192
42.5561
41.6362
42.0066
41.6781
41.9921
42.1186
42.6603
42.8983
180.312
157.827
107.07
73.5456
72.9037
54.3876
60.4865
50.6524
54.4696
49.6487
51.3369
48.7422
49.1878
47.6108
47.4352
46.2701
46.1005
45.421
45.3616
44.8694
180.114
155.88
112.332
70.0485
79.32
57.2694
65.3198
54.3603
59.1163
54.5971
57.2681
55.2174
56.023
54.202
53.7352
51.8509
50.8286
48.9431
48.5586
47.8308
46.952
68.9659
66.8021
65.1557
61.7818
56.0976
51.5969
48.2597
44.9922
41.5315
38.1205
34.614
31.7202
29.1397
27.2656
25.6583
24.5926
23.3274
22.5454
21.2366
32.5827
33.885
73.5585
34.2317
33.1552
35.1134
77.3674
31.6217
74.1249
65.0803
33.0648
32.7478
75.9762
59.3374
75.8187
34.0097
33.0612
34.477
78.137
35.3207
34.2369
75.6264
32.841
31.9439
77.3236
64.7523
33.8256
32.2059
231.715
260.372
208.147
93.0368
72.3996
73.6674
63.1138
202.316
204.475
208.605
64.2671
52.2638
59.7868
52.8647
202.847
209.228
207.555
50.1489
46.0144
51.3697
47.9011
200.845
206.212
200.925
45.0236
42.9248
46.8745
44.6593
188.206
198.894
172.009
42.3328
40.9436
44.2263
43.3858
141.411
158.264
149.154
40.9498
40.4578
42.2268
34.6841
125.434
153.497
156.982
39.2402
31.4548
33.0833
31.0527
141.895
150.351
124.287
30.5208
29.1606
30.9012
29.6298
209.41
245.619
205.829
69.2631
61.012
69.0017
59.8801
212.507
203.972
203.85
58.1829
51.9247
57.1148
49.9612
206.601
202.276
186.687
50.7445
47.9546
48.2994
44.0926
195.064
182.058
174.093
47.0807
44.8264
42.7547
39.6086
157.153
172.651
172.95
44.4879
42.2208
39.2313
38.4275
156.859
172.958
173.904
39.8023
34.1745
38.1806
37.5492
160.961
174.285
169.237
33.3227
32.4239
37.4061
37.4361
120.373
156.542
103.567
32.3212
30.5723
37.595
34.9138
197.049
247.953
177.919
73.1619
61.9051
80.8846
70.8744
196.989
173.679
193.364
58.7128
50.5009
66.0334
52.4384
189.028
201.769
215.061
48.5028
43.3866
49.5076
44.1986
186.206
216.609
215.662
41.9455
39.4458
43.1606
41.3949
186.071
214.077
206.651
39.2295
39.1949
41.0983
40.5053
182.417
203.755
192.022
39.1627
38.5635
40.383
40.5143
169.846
188.805
148.54
38.4358
39.4444
41.0153
44.1486
102.835
126.639
106.469
39.6431
34.9592
43.3139
28.9844
205.714
327.903
234.853
95.415
86.7794
100.02
91.1368
195.102
207.075
203.109
81.0048
56.5343
88.8661
67.2885
221.691
216.741
232.47
51.7812
45.1688
60.489
50.309
218.832
232.858
223.328
44.1308
42.3767
49.2426
47.1198
206.658
219.155
201.198
42.0368
41.297
46.5864
45.1722
190.27
194.978
168.297
41.1895
41.5089
45.1283
45.7595
135.187
153.825
106.913
42.2459
44.6761
45.9297
39.5418
105.911
105.513
108.159
42.4531
27.4413
34.2874
25.3692
60.3398
61.0198
55.2984
50.6772
44.7775
47.2383
43.8224
45.9715
52.8363
47.305
42.4351
38.0372
42.4951
39.1252
40.7343
46.0052
42.8897
36.8627
34.5439
38.2103
35.8728
38.1391
41.9725
39.8986
34.0111
32.6664
35.1889
33.4289
36.6826
39.4287
37.9954
32.2168
31.1483
32.9168
31.2015
35.9377
36.6567
31.2919
30.9313
29.384
30.4075
28.0987
29.0223
30.0693
28.5288
28.639
26.5658
27.5893
26.79
27.5135
28.4336
27.5413
26.4058
26.3254
26.5647
24.8461
53.8233
58.6683
53.2832
46.7322
43.5008
47.6862
43.7075
46.5192
51.0546
45.0565
42.1583
38.7409
42.1818
38.0944
42.8174
43.5609
39.7172
37.8777
35.6376
36.9877
34.1342
39.8327
38.4908
36.2656
34.9458
33.2702
33.6515
45.9752
36.827
36.1904
36.1911
32.905
31.6713
47.6752
49.0851
31.2837
36.185
35.9495
31.0942
29.8804
48.8843
44.3122
30.0766
35.6922
34.6202
29.7139
29.0033
41.3128
34.6295
28.6759
34.5514
32.3975
28.5281
25.5166
33.6507
29.2824
55.1675
68.6605
62.8508
49.5818
44.7667
54.3446
49.3466
45.6345
59.0427
47.6956
43.0827
38.5154
47.1327
40.5178
39.2713
45.0245
39.9192
37.2474
34.2105
38.7619
35.1348
36.2577
38.8935
37.144
33.2238
47.0689
34.3328
33.1641
37.0984
36.8592
36.3009
49.8231
52.8778
32.9568
32.2468
36.6485
36.2038
36.4292
52.2661
43.0346
32.0101
31.5848
35.7824
36.9945
38.7291
39.0693
33.283
31.5544
30.1228
32.0635
37.6288
26.38
32.6058
28.8539
28.3015
23.3773
76.3618
85.1865
82.9918
61.9663
55.5617
64.7588
61.0289
51.3366
81.1963
61.3311
52.5481
42.7106
59.1995
48.2068
40.8047
55.3187
45.8328
40.2764
35.9162
44.8686
39.0033
38.0236
44.6847
42.4442
35.0961
33.5407
38.1274
35.99
36.9727
41.8881
40.7238
33.1868
32.2822
35.4
34.1522
37.3568
40.7102
41.0617
32.0869
31.9116
33.9196
32.3856
38.9879
40.9199
33.6714
31.864
29.1117
31.0849
25.2346
25.1292
29.663
23.058
26.8438
22.4415
23.5547
20.7077
42.5661
45.1358
42.1152
43.8524
40.0517
43.1378
40.5272
36.9042
40.9269
37.908
38.7194
36.1464
39.5986
37.31
33.8364
37.0674
34.902
35.424
34.1454
36.6656
34.9859
32.0929
34.2682
32.588
33.8598
32.669
34.4544
32.8872
30.5049
32.0971
30.5526
32.2531
31.1454
32.4422
31.2298
28.7334
29.8951
28.0778
30.8944
29.9592
30.8163
29.8945
26.7562
27.6837
26.9134
29.7774
29.5347
29.7329
29.29
26.6781
26.6324
24.9504
29.5568
29.2884
29.0987
28.1642
41.9514
45.8664
42.1676
43.1693
40.5279
43.453
40.4991
37.6055
40.7765
37.1045
39.5724
37.2102
39.5283
37.0553
34.6575
36.1011
33.6409
36.5634
34.805
36.3672
34.6937
33.2432
33.4193
33.4839
33.5693
33.2048
33.0525
33.1694
36.5157
32.1631
34.365
32.2702
34.949
32.2104
35.6258
30.2722
62.53
48.6216
32.4467
31.5652
54.6574
42.4953
29.0474
44.1304
35.7088
31.3243
30.291
39.8689
35.1085
25.4505
34.2645
29.2289
29.8343
28.3087
33.9283
30.904
42.9978
51.322
46.8516
43.9882
40.8718
46.8216
43.4174
37.4764
44.9513
39.4103
39.9004
37.3587
42.2662
39.0333
33.8356
37.9116
34.7429
36.6437
34.966
38.1132
35.923
45.6794
54.3072
33.5704
39.1334
37.7514
234.607
34.0563
51.9253
79.0774
45.4353
190.055
45.2898
174.621
53.83
46.6365
31.6082
30.769
57.6061
41.43
31.613
30.1112
33.7268
30.5267
28.517
38.466
34.288
29.737
28.622
28.9097
27.0577
23.5327
33.4345
31.09
28.2929
27.7726
51.5513
59.5995
56.3149
49.9516
45.5661
51.3001
47.9991
41.2282
54.5772
45.5724
44.1307
40.027
46.7678
41.4859
35.4674
42.8493
37.9215
38.8756
36.3673
39.8492
36.8513
33.2145
37.1415
34.979
35.7295
34.0441
36.2223
33.7627
31.75
34.3372
32.9137
33.4847
31.7816
32.9784
31.1363
30.8424
32.525
30.3395
31.2364
29.7995
30.4593
28.1017
27.4866
29.0016
24.3103
29.337
27.8516
27.3328
25.7107
22.6599
23.0966
20.9846
27.4633
27.0557
25.4133
24.8665
40.2463
43.5604
41.036
48.8464
43.9394
49.094
46.9275
36.6631
40.1808
38.126
42.7873
41.4654
46.2699
44.986
35.0713
37.5597
36.05
41.4366
41.1472
44.7055
43.3425
33.6684
35.5364
33.9553
40.8181
40.0262
42.7627
41.1992
32.3567
33.5109
32.3564
40.0408
39.8873
40.8644
40.2899
31.4143
32.0196
31.4601
39.6976
39.3854
40.3074
40.7127
31.2318
31.4117
31.2132
39.4025
39.3234
40.8091
40.734
30.7029
31.0907
30.2487
39.1054
38.2958
40.6205
40.1955
41.0535
43.5072
40.9245
48.663
47.1382
47.3567
47.0547
38.1115
40.1244
38.0986
46.6225
45.4562
46.8999
46.2005
35.9121
37.5135
35.88
45.1266
43.3672
45.6256
43.6658
34.1475
35.8669
51.9146
42.754
41.1738
42.9075
43.1242
33.516
52.256
47.4748
40.8703
40.3009
43.1666
42.014
32.6196
45.3117
39.2981
40.3175
41.0223
41.5312
42.0642
31.9134
37.9541
35.3261
41.2002
41.1431
42.4775
42.6743
30.3855
34.6165
32.5897
41.0125
40.4917
42.5091
41.795
41.2164
46.4478
43.565
47.4511
47.3019
50.0367
49.3424
38.4
42.6178
39.9452
47.201
46.522
48.9168
47.334
36.174
39.1636
37.1471
45.9321
43.935
46.7591
44.4294
51.9449
36.5412
35.1746
43.1686
43.1995
43.6452
41.5448
48.7628
34.6871
32.9095
43.1295
41.8845
40.9532
39.4681
38.6891
32.3003
31.0456
41.3511
41.8351
39.2636
40.1042
34.9359
30.8558
30.6056
42.3011
42.7816
40.5764
41.4839
32.8278
30.5968
30.4624
42.6967
42.0229
41.5802
41.3926
45.2944
50.042
47.1681
51.9561
50.3087
52.5673
49.6548
40.709
46.0276
41.2679
49.5699
47.3298
48.2541
44.507
37.4668
39.8515
37.2978
46.656
44.3247
43.7587
41.8837
34.9815
36.6642
34.0541
43.481
41.2346
40.9332
38.4112
32.5474
33.2751
31.5295
40.6475
39.3861
38.0057
37.4211
30.7576
30.8847
28.9288
39.2466
39.8472
37.0939
37.0518
29.922
28.4321
27.6767
40.195
40.9121
37.2473
37.8776
29.7668
27.5777
27.2014
40.9851
40.8961
37.8397
37.7147
46.5733
53.006
51.0378
66.0719
59.0783
68.3222
67.6796
44.7864
50.453
49.4403
58.1844
59.6456
67.0244
66.3755
44.659
49.227
47.7996
60.2299
58.8127
66.2574
66.9306
43.6646
47.1915
45.7627
58.1412
58.6905
67.0557
66.9494
43.6989
45.5114
45.0823
59.1664
58.4337
66.7938
65.3688
43.2278
45.0365
45.1202
58.0556
58.316
64.5166
62.0088
42.9951
45.1096
44.7601
58.4812
57.7629
61.5545
60.482
41.7363
44.5943
43.9421
57.4571
56.1809
60.2942
59.1468
51.4404
50.563
51.6013
67.4806
68.7325
65.0674
69.6056
50.1636
51.6946
51.3002
68.3372
67.6458
69.7518
69.8954
47.9854
50.6696
48.4686
67.7125
69.6191
70.7237
75.0436
45.7709
47.628
46.653
70.0268
69.938
75.9843
76.5436
45.0979
46.5207
45.58
69.7092
68.0176
76.3576
74.0057
45.5118
45.467
46.5529
66.9411
63.2973
72.1486
66.4859
45.1774
46.836
46.5949
62.4471
60.9909
64.9358
62.3647
44.2406
46.3517
45.2729
60.7528
59.225
61.916
59.8574
51.8803
53.4025
53.7216
65.1002
69.747
67.0645
70.4548
51.6255
53.4262
52.0284
69.9608
70.1774
70.1667
69.2088
48.7121
51.4448
48.8731
71.0108
75.2481
69.1199
70.4791
46.71
47.9955
45.8043
76.1788
76.5097
70.6185
69.572
45.4363
45.2565
44.1524
76.2607
74.1143
69.0574
67.4615
46.4322
44.1546
45.0155
72.2423
66.6631
66.5201
63.7416
46.7731
45.403
45.8381
65.1411
62.594
63.075
61.9466
45.4888
45.8008
45.121
62.1335
59.9358
61.6347
59.9342
54.455
55.8891
52.2957
70.4366
70.6711
70.6862
65.2948
51.7226
50.6846
47.4692
69.7994
68.3504
62.5206
61.8398
48.5532
47.0227
44.9961
67.8477
67.6496
62.0044
59.2172
45.3667
43.8361
41.6333
67.3778
66.192
57.2838
57.0804
43.9334
41.4275
41.0547
65.7507
64.5285
57.0377
56.7209
44.5626
40.8002
41.1967
63.8472
62.2349
56.1594
57.2745
45.2653
41.4686
41.9932
61.9681
61.3419
57.353
57.5379
44.7073
41.9054
41.5149
61.0953
59.5874
57.0913
56.0044
33.8369
32.9362
33.8055
32.3978
33.358
32.6459
34.7722
38.8791
33.3333
51.3574
38.4824
34.9813
33.5774
176.116
48.0649
42.3029
67.8085
203.768
39.091
53.3352
223.973
33.5231
33.6443
33.7459
34.0001
33.16
33.3501
34.0074
34.2934
32.6012
33.3681
35.3607
32.7947
35.4085
34.4666
40.0973
39.5804
34.3932
55.9562
33.9491
182.293
36.7809
50.0451
209.666
46.3427
73.8524
56.1029
229.859
42.2034
37.3258
31.9425
35.6805
31.9011
35.5109
32.1234
37.3147
57.8254
44.3502
73.6185
187.832
46.03
55.5426
171.759
59.4411
47.4955
70.6583
90.2536
47.9022
55.0697
114.688
37.3384
32.5269
33.0307
36.1827
32.5176
36.3542
36.9849
38.0363
32.287
32.9459
37.2767
32.4725
37.903
37.3766
60.5867
193.097
48.3779
73.8106
58.1817
177.895
49.9863
61.211
87.5219
48.7008
67.8626
55.9069
120.098
50.0724
53.251
70.4814
44.7562
205.085
42.5726
220.498
54.609
34.3482
33.541
33.5362
34.075
33.7293
33.7022
33.6724
35.3862
34.7838
33.2596
33.2489
34.319
35.8515
33.4516
45.8865
40.3849
58.6306
35.2073
228.021
34.613
39.7526
53.3284
209.834
74.8636
45.8452
225.644
54.3565
44.3625
34.8534
34.5097
35.0049
34.8859
34.1883
34.12
35.287
35.8904
33.633
36.1609
34.573
36.255
33.886
35.937
49.0691
81.6311
44.0777
120.652
44.875
161.538
48.0444
35.5859
34.9061
32.5858
32.9801
34.8212
35.8254
32.6577
35.026
34.2046
32.2737
31.837
34.5585
34.4991
32.2542
51.2426
194.796
75.3228
45.6345
179.76
53.3623
44.8955
48.2152
108.361
74.069
42.1307
157.137
46.5811
43.6734
35.8147
33.2971
36.0346
33.3488
36.1585
32.8968
35.6715
35.1164
31.8968
34.2561
32.7863
34.4424
32.4041
34.9981
156.861
191.688
155.71
108.309
86.1538
116.214
92.7827
141.44
137.601
133.671
69.9687
66.1875
70.531
59.9659
129.619
131.138
128.828
62.8936
57.0935
55.8499
53.214
125.043
126.179
123.285
54.5442
54.0645
50.8475
49.8054
119.157
121.898
119.339
52.7734
50.4541
48.6405
47.8795
110.01
113.294
99.939
49.0855
48.1992
48.0189
48.5066
90.0977
87.0352
82.6164
47.5838
46.244
47.9097
44.9088
75.5045
83.7341
80.5758
45.4499
42.2864
42.2711
31.9541
192.598
182.823
165.749
117.281
108.998
104.311
86.923
150.424
284.637
302.012
179.792
166.968
173.632
259.082
93.3971
205.149
201.71
115.759
106.808
101.509
196.211
80.5819
203.446
198.553
95.8656
93.1395
82.5245
199.902
75.4721
202.864
202.877
86.3198
84.2883
76.4471
202.92
72.0267
197.973
200.617
79.7949
77.6028
73.1665
199.51
71.1376
171.115
177.915
69.8019
69.3003
71.014
165.349
60.1604
120.154
135.438
63.9017
59.262
65.9595
135.816
51.1129
137.872
144.13
48.5707
48.3385
51.6033
143.958
97.7323
94.3684
89.654
33.576
30.3426
32.8728
27.8658
156.741
166.114
153.884
94.5009
79.882
94.58
80.2235
118.408
227.554
248.327
139.413
120.274
138.572
225.03
86.7873
210.132
211.122
92.3962
88.1519
90.7801
211.901
80.7977
211.722
212.859
82.5548
81.5959
81.3308
211.116
77.2542
200.132
195.647
78.8692
77.6466
78.9051
190.556
75.4089
183.242
173.032
75.8274
76.6923
75.4831
163.786
61.6835
151.02
154.925
71.6184
65.1177
65.4929
156.46
58.4198
164.264
167.294
57.2436
56.7724
58.6614
168.481
53.3626
139.271
154.443
54.1568
51.8994
56.1819
138.36
83.0047
75.3453
70.0493
33.224
27.4207
34.7894
25.2018
150.675
173.738
155.46
98.6459
85.7678
100.143
89.2954
121.387
219.036
241.533
137.397
120.24
137.867
216.006
85.0148
194.482
188.171
90.3441
85.3889
90.3491
189.112
75.0144
195.919
196.976
77.1734
75.2999
76.7881
197.193
70.498
186.01
198.142
69.9452
68.7227
71.136
199.392
69.944
186.754
200.277
67.4885
67.3184
70.0297
199.873
68.7503
183.946
195.16
66.6566
66.1311
69.33
193.567
67.558
179.871
186.37
64.7318
64.8768
67.4232
183.773
68.4335
133.783
147.455
66.0123
65.2788
70.4245
128.354
65.8753
75.3776
68.478
34.2165
24.8349
30.9337
23.035
188.427
214.167
196.167
120.23
105.472
123.862
109.523
157.041
264.455
310.44
174.021
156.673
174.653
277.011
109.592
184.023
198.378
118.498
103.128
124.137
192.763
82.2143
213.673
211.914
80.9531
79.6039
84.403
219.153
78.9248
222.465
226.89
77.7778
77.3133
79.5335
226.389
75.9561
213.079
217.235
75.5754
74.9625
76.7623
213.283
72.8225
199.267
201.623
73.2448
72.5627
73.7289
196.051
74.6945
178.733
180.952
71.4815
73.1667
72.5036
168.131
54.7161
112.22
111.829
71.6586
59.5697
66.7526
110.618
73.0019
81.8864
75.6962
28.3813
22.7998
27.7573
23.1211
146.929
174.92
143.012
100.006
89.8657
96.2956
80.6064
138.962
133.036
132.324
80.6082
71.6501
69.8884
64.4417
143.701
131.981
130.097
64.5859
61.485
60.5242
57.3875
136.039
128.925
124.919
59.4412
57.5228
56.1311
55.0301
124.275
119.125
108.861
56.2194
55.2674
53.5597
52.7103
99.6407
95.5384
80.4256
54.8339