/*--------------------------------*- C++ -*----------------------------------*\
  =========                 |
  \\      /  F ield         | OpenFOAM: The Open Source CFD Toolbox
   \\    /   O peration     | Website:  https://openfoam.org
    \\  /    A nd           | Version:  10
     \\/     M anipulation  |
\*---------------------------------------------------------------------------*/
FoamFile
{
    format      ascii;
    class       surfaceScalarField;
    location    "5.8";
    object      phi;
}
// * * * * * * * * * * * * * * * * * * * * * * * * * * * * * * * * * * * * * //

dimensions      [0 3 -1 0 0 0 0];

internalField   nonuniform List<scalar> 
38556
(
1681.4
-1101.77
1516.58
1730.17
-303.81
255.042
1553.22
130.53
46.4143
1491.46
98.0159
-36.2584
1389.97
185.053
-83.5606
1384.76
127.404
-122.198
1339.68
190.867
-145.778
1331.39
144.935
-136.645
1280.08
147.201
-95.893
1251.43
103.278
-74.6314
1204.53
80.7687
-33.8634
1177.08
47.4596
-20.0185
1143.46
26.7483
6.88032
1125.86
0.449657
17.1471
1121.36
-11.6324
16.1288
1129.02
-23.1701
15.5104
1153.85
-27.3189
2.49158
1209.97
-42.6185
-13.4975
1261.4
-26.6318
-24.8019
-4.07075
-9.8025
2611.07
-430.881
2564.02
2144.11
-348.222
511.369
1563.39
18.2126
693.042
1340.91
132.64
187.851
1027.68
257.659
240.623
956.355
207.853
-9.12106
936.177
208.243
2.80197
932.444
155.049
-6.38057
909.981
122.914
46.7498
883.068
79.8438
50.3473
849.197
52.7577
61.8817
825.38
27.9712
43.3054
812.094
16.0058
24.0283
808.893
9.43243
-5.78177
811.469
7.34422
-21.5528
819.063
5.72765
-36.4911
830.836
3.67759
-42.7699
849.227
-0.615996
-60.3929
882.058
10.7061
-70.169
14.5718
-41.3924
1811.5
-223.452
2627.88
1333.38
-2.26021
132.151
1087.39
204.23
59.9777
1059.41
178.089
-17.4697
946.13
307.93
63.0069
909.825
230.532
13.6264
872.742
209.709
35.6176
853.934
161.129
12.7279
829.997
117.325
29.5259
801.459
94.2566
14.1248
768.754
67.276
18.1869
740.679
54.7825
1.26385
725.903
34.3242
-3.5422
722.167
23.0703
-9.90171
725.823
12.1694
-8.48195
734.227
6.59664
-9.27267
747.219
-1.61686
-7.69764
761.243
-6.91514
-7.72551
779.473
-4.11513
-3.40771
-3.46013
5.81728
-1094.81
-1333.26
-2182.4
-56.2922
-226.727
-814.053
702.382
4.61821
-559.063
798.929
117.99
-36.4474
867.079
265.745
-25.9648
859.981
264.372
-26.7421
850.273
218.42
0.99707
820.041
213.433
-22.0729
782.16
148.185
7.02103
734.992
139.854
1.57058
701.021
90.0854
11.1617
675.156
76.7134
3.93457
669.607
33.3879
6.4858
668.468
22.4843
1.72459
674.09
3.82768
2.71933
682.054
-4.80119
3.43433
693.419
-17.956
4.97336
702.46
-18.4527
2.49693
716.845
-18.1041
-0.395989
-18.5601
3.07448
29.8612
157.701
-1799.6
290.268
-218.892
-268.242
574.691
-138.312
-141.493
602.343
17.689
72.6498
759.735
40.1858
68.1671
772.222
225.876
26.0084
806.125
144.055
40.4618
787.569
228.843
3.14638
767.572
151.332
16.8501
739.828
164.541
3.0565
723.056
101.731
5.12672
716.105
87.3815
-3.71704
717.995
26.4539
5.04384
723.584
16.4188
0.476519
732.367
-13.3935
8.43824
739.487
-19.1693
7.2475
745.87
-32.8367
8.49796
750.31
-29.8907
6.99811
758.106
-27.9073
2.00756
-26.3481
1.56712
687.353
83.3492
498.271
781.246
-427.981
115.196
943.465
-108.276
-192.254
857.953
55.9543
47.2461
772.926
47.8008
77.4116
699.404
248.5
50.8984
748.749
52.2993
42.4106
707.818
255.354
14.4196
717.389
130.794
10.9675
707.015
175.416
-0.500807
719.383
89.6951
-0.332028
734.398
84.2068
-11.8404
757.951
15.0106
-12.1093
784.996
-2.98599
-7.64029
803.645
-33.9828
1.9401
807.091
-34.3659
11.7508
803.587
-48.7429
19.4098
793.587
-36.5419
16.6519
783.052
-27.5623
10.1895
-29.6069
5.94732
1276.76
-18.1893
-2994.23
1103.48
-599.931
345.234
1198.97
-293.698
89.9282
1266.89
53.2336
-65.1923
1082.53
124.347
107.814
905.785
386.417
38.8239
791.807
43.981
61.2234
9.78208
45.4364
5.85456
756.835
51.7101
21.8186
83.4077
51.0681
82.3224
761.14
42.3129
4.33587
24.3498
37.681
17.8088
779.648
35.4748
-12.9127
53.2603
31.1367
49.9488
814.18
24.2059
-15.1129
19.1037
17.1648
9.80206
861.573
12.643
-12.7158
20.1788
7.24592
9.46212
922.645
-2.85042
-9.74677
-10.0028
-9.55836
-13.9031
975.296
-16.8314
1.225
-12.0746
-17.7034
-10.2526
993.63
-61.0733
8.75635
978.565
-33.0591
13.7581
929.62
-30.0498
30.2513
871.423
-4.4011
26.0564
830.898
-5.18094
18.1435
-24.3287
8.00915
693.836
410.685
-3828.97
1305.54
-250.591
-961.044
1537.54
24.7325
-550.425
1648.98
206.664
-264.873
1399.27
309.414
64.637
279.943
133.701
55.0902
295.016
273.428
286.868
171.365
129.263
161.015
229.831
80.4095
13.6835
-178.715
175.49
53.5025
1.43302
-188.151
181.569
50.9334
-2.03838
-174.482
183.2
33.2555
-6.49814
-197.632
202.428
27.3292
-7.91948
-208.416
218.578
6.56033
-4.07981
-230.851
238.564
-12.9773
2.41423
-243.837
251.651
-30.9796
6.33442
985.427
-26.0066
-22.8703
-254.222
-228.59
-243.345
-225.617
-16.4507
-18.4779
-10.9201
966.839
-8.41616
-6.0557
894.225
22.6444
19.9202
822.54
39.4138
27.87
793.108
20.5371
3.71336
-24.5828
1.35385
1781.04
1109.64
122.928
1364.36
561.776
-395.689
1164.69
709.698
-485.289
1078.87
511.186
-218.705
197.46
463.428
161.657
165.415
205.724
194.601
217.739
107.963
5.45899
-29.7975
-54.5436
52.2049
27.9048
4.2314
-48.1852
-17.9146
46.252
19.5431
0.304682
-46.1932
-13.6025
46.2826
13.981
-0.467949
-47.3142
-9.66339
47.705
10.196
-0.923448
-51.3132
-6.6567
52.7263
6.52756
-1.28395
-57.0314
-1.07545
58.8086
-0.20659
-0.495169
-59.4771
3.98221
57.4469
-3.30593
1.35395
-51.1415
9.04686
51.2451
-9.50722
0.3568
-52.0545
213.444
-28.5302
-2.81
-52.0932
-52.5296
-51.4333
810.39
28.947
-24.1172
-211.563
-207.333
-205.859
-198.882
785.337
54.8531
-7.15525
774.681
54.5077
-4.43756
784.117
24.732
-13.6319
-32.6641
-5.64041
715.242
-71.4121
-1749.73
930.595
719.565
-373.142
925.766
795.496
-80.9686
902.336
549.584
-14.9673
176.894
441.063
157.118
194.32
188.639
207.729
-99.402
183.163
93.9617
-0.828883
-26.1929
-47.1471
50.9702
22.2621
0.107738
-19.3584
-56.4956
57.9932
18.004
-0.143208
-15.0003
-61.5843
62.4404
14.4057
-0.261558
-12.0958
-63.9557
64.4571
11.6625
-0.06804
-7.70747
-65.4463
66.0342
6.84574
0.273838
-1.12697
-60.8265
57.7498
2.1305
2.07319
-0.816459
-53.8782
53.8754
1.55508
-0.735865
6.63409
-54.1576
54.307
-5.64621
-1.13722
-54.4074
23.567
210.144
-16.3928
-2.31962
-54.1663
-53.2298
-53.1947
790.249
59.9562
-15.084
-205.685
-204.288
-198.076
-198.125
785.608
66.1231
-6.62919
794.732
59.2736
-13.8895
807.639
23.396
-11.5714
-33.5278
-6.59039
2038.92
-364.779
593.336
1097.49
891.226
769.767
828.444
991.192
73.3477
679.857
629.247
68.9239
146.116
356.643
117.174
168.511
156.749
175.728
-97.0137
173.952
67.679
1.49873
-19.4886
-46.9987
50.9328
14.8452
0.709264
-15.4715
-57.1257
58.1971
14.7741
-0.374021
-13.3296
-58.9838
58.7558
13.5858
-0.0281655
-9.61923
-57.6436
57.2581
9.92629
0.0784357
-5.16615
-56.919
57.0599
5.16254
-0.137329
-2.95484
-57.9029
58.2576
3.16402
-0.563816
-2.60288
-59.7513
60.5001
2.9846
-1.13051
3.31879
-61.6429
60.963
-3.282
0.643142
-55.9976
8.0893
211.879
-0.548692
-0.409082
-54.3115
-55.3056
-53.3957
806.794
71.4725
-12.5774
-207.46
-201.075
-202.163
-195.035
808.583
71.8406
-7.50673
814.487
58.6576
-5.28777
812.384
26.6014
-1.10312
-25.8562
-2.9689
1043.78
-1843.78
2986.08
1116.76
741.088
77.161
1069.37
783.147
255.428
1148.72
469.171
80.7278
243.712
344.746
81.2376
274.073
267.06
294.538
-52.2746
260.269
31.8685
3.84917
-7.51514
-66.4655
67.5793
5.06251
1.33877
-8.67995
-60.6433
58.868
9.21006
1.24522
-13.6197
-58.2698
58.5797
13.4738
-0.163992
-11.6765
-59.4032
59.7375
12.1894
-0.847203
-7.22809
-61.2229
61.6548
8.00415
-1.20794
-5.04727
-62.5498
62.7
5.82322
-0.926124
-3.71188
-63.01
63.1586
3.66212
-0.0988752
3.36446
-58.388
54.8574
-2.46629
2.63249
-48.9503
-5.09436
186.603
11.8568
-2.83241
-46.6134
-48.6477
-46.3215
754.578
59.9228
-8.3233
-192.779
-178.57
-188.02
-175.335
772.71
50.8023
2.90631
786.268
35.3193
9.77987
793.93
10.5274
8.41245
-28.8754
-0.143476
10.7501
-384.484
-2416.26
331.177
144.849
275.811
728.394
187.19
198.739
913.953
155.857
127.756
1016.78
130.265
111.651
262.462
-46.0682
25.2976
-17.5815
21.0633
-24.3024
10.7356
265.936
258.872
260.369
-4.21217
259.114
14.7408
8.74036
-5.82987
-4.2325
-5.8593
-14.917
-237.484
226.605
58.902
5.87313
-13.8679
-12.9949
-12.1163
-16.351
-245.681
244.801
59.0208
4.17001
-16.0449
-15.2215
-14.6924
-13.5563
-242.928
237.538
51.5005
1.61959
-11.6576
-12.3606
-10.1562
-9.61744
-249.714
244.856
36.2276
0.457162
-7.29254
-8.53374
-6.38302
-7.34725
-246.62
238.622
29.0602
1.43628
-4.87638
-6.29479
-3.97998
-2.61254
-235.081
210.923
20.233
12.4277
-2.20218
-1.94582
-1.74213
-2.05573
-192.981
174.063
19.2681
7.46968
-1.90694
-1.97599
-1.88181
677.334
40.0156
0.661303
-12.6167
-11.2631
-12.9327
-10.5728
-175.293
-163.432
-170.442
-161.459
702.353
27.651
7.2527
728.261
16.57
8.32334
751.201
1.95518
10.4243
772.434
-17.0852
6.37994
-41.9096
0.448502
227.357
1315.39
-700.193
511.069
172.691
-311.554
663.246
211.182
-176.169
692.308
185.828
-59.034
772.272
109.859
-59.5576
720.425
64.2298
-58.4509
736.115
286.933
-29.3123
-47.6532
-87.5819
-48.9452
-89.1299
752.218
106.092
14.024
-51.3914
-19.8757
-48.9997
-15.9528
770.408
195.3
14.516
-52.2543
-66.202
-48.1909
-61.3587
774.6
88.0382
16.5479
-41.5923
-17.4374
-35.5566
-14.1918
755.175
116.453
22.2824
-31.5601
-31.479
-27.8921
-28.3792
732.688
61.7791
28.2628
-23.0219
-12.6278
-20.2343
-11.6707
719.86
72.3745
21.4039
-20.8643
-20.7909
-20.0231
-19.2719
723.378
28.9262
16.0588
-16.2067
-8.87201
-14.8455
-8.57923
731.53
17.6377
14.2264
750.843
-3.5913
11.9293
775.936
-23.5416
15.0178
798.193
-34.866
14.5649
821.638
-47.8266
7.29574
-58.9183
4.16943
634.561
1556.05
-2402.35
651.077
1124.75
-968.576
1003.85
552.182
-693.774
934.396
392.875
-137.592
755.484
313.906
-25.1341
689.71
148.757
-18.753
714.12
251.882
10.64
681.85
138.369
-0.00740256
700.615
171.69
4.84446
689.911
86.872
11.8704
704.021
91.3132
11.0298
714.338
40.8283
10.6337
736.664
39.2295
10.8198
758.728
12.3536
-5.4918
788.005
-1.89418
-9.74531
815.501
-21.7691
-9.31814
845.362
-45.9942
-7.40848
870.652
-62.1657
2.01005
894.951
-76.3679
4.24229
-76.2096
6.21034
-660.151
-1049.31
2206.99
371.154
707.928
-614.481
987.104
446.226
-509.995
969.984
451.933
-41.9384
820.25
387.462
76.1779
727.273
272.494
-30.7598
680.935
242.426
55.7946
671.585
153.671
-5.95115
697.12
134.48
11.6755
713.307
70.7547
-0.0702768
739.406
54.7742
10.4401
762.771
27.1359
-9.67282
791.297
20.7766
-10.0728
819.358
2.29619
-18.0035
844.711
-6.44898
-20.7988
874.381
-25.8009
-25.6375
911.348
-57.4365
-25.525
942.71
-80.141
-13.3871
969.664
-99.8416
-3.47955
-93.8501
6.75063
-495.72
-780.972
-643.657
23.2726
189.811
-0.875383
731.995
350.99
-613.487
828.974
405.387
-50.433
783.596
393.181
39.6601
735.091
323.055
-2.05668
721.128
254.157
2.23194
725.479
176.419
-27.1004
770.849
101.73
-12.6202
807.574
41.2362
-7.20579
849.76
6.07284
6.51525
880.988
-12.4222
8.33
905.478
-14.4196
10.7063
921.615
-11.9267
-1.914
937.859
-6.36591
-16.3271
965.226
-15.9463
-37.222
999.921
-52.8575
-39.2737
1025.39
-80.6322
-24.9822
1040.89
-107.915
-7.41807
-101.48
4.68419
-234.616
-557.375
-960.495
345.291
177.536
-567.632
877.017
317.055
-497.792
1012.12
384.886
-114.599
1043.42
380.725
-18.8469
1122.57
319.654
-75.7438
1195.08
209.207
-27.562
1299.5
131.084
-59.0922
1362.94
46.4696
-8.17289
1408.23
11.9737
-16.0303
1412.95
-7.68887
9.04549
1395.99
-1.94088
6.47999
1347.94
12.3574
21.2726
1292.74
28.5252
14.7416
1232.41
41.9428
12.027
1180.08
41.5773
-5.19585
1144.26
0.153315
-17.195
1125.96
-47.7186
-14.608
1119.11
-89.7046
-11.3649
-88.451
-5.62833
257.367
283.984
-2417.39
719.45
557.465
-842.012
989.615
353.732
-306.842
1161.1
278.687
-65.2858
1220.35
236.557
84.9217
1303.41
161.443
75.1497
1311.44
75.7634
125.413
1332.98
16.1859
93.3603
1307.1
-28.1602
100.51
1291.21
-38.1586
66.0179
1260.5
-38.3165
61.337
1244.3
-22.5328
36.7876
1233.98
-2.25167
24.931
1226.26
35.0383
1.21357
1204.75
69.153
-5.70166
1177.54
79.4303
-10.6421
1148.9
56.8246
-28.0364
1139.27
21.3108
-59.4031
1149
-31.9214
-67.5047
-60.347
-28.7609
-776.279
3288.47
261.097
-479.91
940.077
-325.248
1157.37
61.3931
1299.57
94.3615
1406.17
54.8438
1438.27
43.6595
1476.7
-22.2495
1468.07
-19.5272
1470.85
-40.9381
1452.15
-19.619
1442.79
-13.1717
1420.37
20.1679
1403.25
52.1608
1397.87
74.5345
1402.02
75.2789
1406.64
52.2062
1410.32
17.6292
1390.52
-12.1194
-30.6674
2572.02
-383.47
-3121.54
2297.78
108.608
420.667
1800.84
175.974
367.389
1646.57
60.3618
57.6466
1512.98
150.753
-100.727
1501.41
72.1897
-182.816
1431.41
130.638
-206.416
1395.34
82.4078
-182.986
1305.66
90.4083
-96.6189
1243.53
51.9138
-64.4159
1174.4
39.0519
-3.78467
1138.33
14.5472
1.50549
1117.65
8.33992
19.2162
1112.78
2.0708
19.9506
1111.9
0.947204
16.0639
1122.61
-4.1641
8.96002
1142.52
-7.70136
-9.7151
1163.86
-6.00354
-28.8326
1154.64
10.9094
-26.4935
16.0601
-10.398
713.587
-320.507
3844.62
903.756
263.887
165.921
1061.5
211.937
499.338
919.378
180.263
210.069
880.732
233.997
196.024
851.671
162.788
-70.658
858.172
163.595
-36.6556
848.746
115.857
-30.4032
831.74
94.7575
59.407
810.822
63.756
59.4226
792.726
46.8265
72.2034
779.943
30.1416
40.4939
773.501
21.7451
17.0655
770.986
14.5298
-15.726
770.929
11.1161
-31.6654
773.269
6.82972
-49.8251
777.981
3.07346
-58.256
785.55
-1.31665
-72.6493
794.713
3.81349
-72.236
4.23894
-35.6647
1166.95
-18.6978
1777.65
856.647
465.801
240.54
867.264
356.64
-95.3421
829.081
234.983
-34.007
792.319
282.637
51.1282
767.367
197.631
3.73599
755.972
173.306
37.301
734.926
138.318
11.3127
717.67
101.935
39.604
691.929
88.4116
15.21
673.794
62.4568
20.6921
656.32
51.929
-3.04992
651.315
28.79
-5.58216
650.741
20.1311
-14.9289
654.712
10.5726
-11.9099
660.603
3.57842
-11.9119
669.761
-4.68795
-9.09428
678.605
-8.96776
-8.91806
692.228
-7.84585
-5.37156
-6.96736
5.78324
-293.237
-653.579
-1805.28
204.079
12.8018
-858.371
547.854
110.299
-656.497
637.729
151.39
-42.7288
705.031
250.389
-61.0187
686.947
228.986
-40.0131
688.68
169.892
2.6786
653.782
178.037
-26.8929
640.235
111.045
11.4585
612.505
117.175
0.537653
608.784
64.8223
12.5173
599.42
63.4472
1.77979
604.272
24.6604
5.76313
606.563
19.0651
0.499995
613.289
2.94976
3.61598
620.031
-2.31669
2.58759
629.562
-13.8851
4.63947
636.709
-14.5873
0.969102
647.553
-16.5837
-2.50183
-17.1733
2.42448
-42.7906
337.795
254.083
245.921
51.8663
-596.017
415.476
-14.4627
-186.287
446.667
95.4207
97.428
624.012
61.1646
80.0467
609.274
233.748
35.9842
659.484
99.0873
61.0558
637.102
198.826
4.73939
636.755
101.626
26.6154
617.908
137.488
1.591
616.838
61.1255
9.89329
616.046
65.6368
-5.11445
621.936
19.8052
4.00925
627.645
14.3668
-0.534378
636.903
-8.0763
10.2068
643.272
-9.19539
7.75726
649.674
-21.7847
9.9949
654.496
-20.2593
7.8485
662.603
-23.8671
1.18339
-24.6326
1.06993
1270.62
388.814
-150.277
1142.95
-27.9571
322.682
825.807
66.1131
44.3177
711.761
153.597
103.116
636.628
105.123
108.585
575.604
286.697
58.9736
642.767
33.5043
40.8299
598.359
238.209
19.444
616.054
76.516
18.3831
604.056
149.435
-0.450256
618.387
45.3497
1.11311
631.55
47.394
-6.76055
650.328
-4.49292
-6.58918
664.483
-4.86745
-2.56079
674.43
-22.7647
6.68139
679.939
-17.2013
14.247
682.303
-27.3769
22.6377
681.077
-19.8635
17.4824
681.189
-23.4079
9.61774
-28.1715
6.10954
1184.81
724.356
-258.926
1027.62
-12.3353
486.797
865.132
53.8949
264.635
822.805
172.52
-41.7873
717.179
176.619
141.944
602.378
403.462
36.8605
601.707
27.2646
62.0654
-3.97806
19.7643
-9.71769
591.579
48.7675
20.7358
77.5685
48.1842
74.8997
613.759
24.4294
-2.34916
8.77231
19.5485
8.27035
637.721
22.2197
-12.9867
43.1516
19.9039
40.2723
672.915
9.74629
-26.5325
4.04261
7.02229
0.763826
712.291
-0.0383798
-12.9979
5.22365
-1.88549
4.99994
755.251
-13.4869
-1.32156
-16.0173
-12.8369
-13.5372
778.802
-15.6691
11.2632
-7.56163
-12.7569
-2.46928
781.457
-29.3602
12.6973
767.216
-4.11557
14.913
742.511
-5.54096
33.1209
720.551
1.85172
26.3006
709.452
-12.272
18.1065
-28.4408
8.5649
1107.11
319.595
-2895.22
1178.72
-24.587
-1020.4
1097.13
139.509
-554.451
1050.01
174.083
-219.314
925.995
273.927
91.3431
197.99
122.993
48.6347
211.077
184.38
196.299
155.308
119.626
148.24
-33.9207
172.648
61.8756
24.6518
-4.39592
-140.808
145.584
45.1377
3.25038
0.678538
-158.973
153.35
34.3735
-4.99923
6.41728
-148.889
157.878
15.1024
-8.28929
8.38665
-172.294
176.23
7.91383
-10.4902
3.53453
-181.252
190.793
-9.49315
-3.62078
-5.35192
-200.03
206.35
-20.1086
5.65345
-8.90603
-209.542
215.982
-22.5658
9.3633
802.049
-8.67213
-17.7672
-216.183
-207.045
-202.671
-197.14
-1.13561
-5.04326
1.37945
768.79
18.0829
5.00461
729.187
30.4131
23.5693
707.983
26.3757
24.5499
703.248
-5.54802
1.72417
-34.6115
2.11346
2234.71
228.56
-2238.62
1627.4
394.201
-207.168
835.028
547.709
-101.118
607.395
322.06
-139.049
138.174
354.56
154.668
139.605
126.386
129.587
-11.9992
169.543
96.1448
7.47823
-5.4994
-26.0062
-46.8392
46.7676
26.9955
4.58162
-2.45911
-41.7876
-13.483
40.8622
14.5203
2.34728
1.09834
-43.2234
-8.76752
43.5717
8.90365
-1.58271
2.46103
-44.5962
-3.546
45.2415
3.42867
-2.98906
2.11765
-48.3681
-1.04194
49.348
0.477371
-2.53302
-0.306058
-50.6903
3.42202
51.1203
-3.87666
0.330651
-2.66746
-50.7452
4.97328
50.5228
-4.71691
2.63346
-0.338156
-49.0959
5.62705
49.4111
-6.02145
0.417359
-49.6988
7.16115
195.788
-9.62662
-7.73546
-48.2494
-48.8537
-47.4578
706.551
39.6197
-20.4506
-190.196
-184.378
-180.805
-176.376
694.873
41.3456
-6.41026
694.583
27.8866
-5.65897
704.192
-15.9193
-12.8691
-43.8409
-6.35307
978.257
-457.568
-578.437
697.758
518.289
-216.731
679.211
531.328
-46.0398
625.418
341.864
19.0204
161.198
319.574
145.887
182.092
153.891
174.455
-2.19753
-87.8278
171.29
79.4589
0.474478
-2.47987
-24.4996
-44.8078
48.6326
20.643
2.51177
-0.912621
-14.9939
-51.9334
52.6008
14.1744
1.06479
0.117662
-9.14717
-53.9424
54.2615
8.64928
0.0610488
-0.337599
-3.56545
-54.7941
54.8228
3.54779
0.326529
-0.876732
-0.705137
-54.2962
53.7895
1.23317
0.855393
-1.96272
0.921477
-51.5287
50.8527
0.199902
1.51739
2.01607
1.9681
-49.6235
49.3832
-1.59728
-2.14659
1.9252
5.3481
-48.6949
48.6331
-5.42106
-1.79043
-48.4668
3.44334
5.76201
187.716
-1.45713
-4.22808
-48.1778
-47.4901
-47.1016
708.776
52.2747
-12.8732
-184.71
-185.182
-176.918
-176.832
709.229
42.8364
-8.57238
716.089
18.097
-10.9604
718.659
-20.9886
-9.07247
-44.5742
-7.30481
36.6633
-738.627
-3418.48
135.714
515.633
673.372
491.927
520.252
-271.789
423.916
376.355
102.444
130.953
229.92
88.3675
148.994
122.32
140.11
-5.86254
-82.2782
160.363
53.6051
5.12525
-3.62316
-16.5975
-45.107
49.3479
11.9927
3.98713
-1.44266
-10.8721
-53.7433
54.5211
9.31848
2.21847
-0.735227
-7.52268
-54.8869
54.7094
7.44953
0.985798
-0.233324
-4.28172
-53.6155
53.1582
4.55631
0.41606
0.631058
-2.4483
-52.5056
52.5857
2.56337
-0.826236
1.86538
-1.51331
-53.2688
53.5428
1.70032
-2.32647
2.62094
0.807872
-54.0252
53.9281
-0.69367
-2.63804
-2.28044
5.35649
-52.5964
52.2709
-5.17097
2.42047
-50.5635
1.18978
-3.71061
194.2
6.49537
-1.11494
-49.0002
-49.4828
-48.0134
727.671
54.967
-9.2665
-190.676
-183.619
-182.631
-176.748
724.376
41.4754
-2.85055
720.428
16.3778
0.378973
711.732
-13.6738
0.278481
-39.1565
-3.80078
544.984
-1094.15
-434.324
581.25
251.57
304.958
888.435
402.773
65.7226
928.722
337.063
79.733
216.48
292.605
62.6112
243.302
199.541
225.341
0.704566
-38.4071
236.248
25.2476
-7.31248
-1.86931
-6.33235
-61.7639
64.2158
4.43401
1.3157
-6.25475
-5.64059
-62.1463
60.6136
6.65925
6.76877
-1.02997
-6.98403
-57.1323
56.4781
7.33457
1.33363
2.18136
-5.63465
-54.9415
54.6285
6.03373
-2.26743
2.67838
-3.06523
-54.0907
53.9429
3.44363
-2.90908
1.52996
-2.02811
-53.3707
53.2174
2.1562
-1.50483
-1.08928
0.948358
-52.25
51.4801
-0.937088
1.84784
-4.41702
2.6709
-47.7792
46.8836
-1.35878
4.00045
-45.769
4.44937
-9.00487
172.813
14.122
-4.76405
-43.7361
-45.0144
-43.096
681.715
41.6662
-1.84788
-177.633
-165.435
-171.544
-160.278
691.329
22.6435
12.1233
696.534
9.70051
11.2522
698.292
-15.133
8.11362
-38.6801
-1.67882
-342.73
17.2889
-1540.71
31.5617
-111.399
264.488
548.662
32.18
52.2314
708.317
149.378
155.786
814.207
155.571
142.795
213.065
-37.3718
36.2847
-15.5049
19.5396
-12.7201
26.2505
212.225
199.079
198.658
-4.71025
-20.92
211.651
26.5646
18.4262
-6.78133
-4.47721
-6.68829
-11.6073
-12.7252
-190.558
181.009
49.964
13.5628
-9.48803
-11.166
-8.99104
-11.4964
-8.11612
-200.595
197.447
43.5141
8.70111
-9.85629
-10.7281
-8.87051
-8.33343
-0.674262
-193.507
186.987
34.6484
-0.538589
-5.71535
-7.64423
-5.22187
-4.78423
0.221076
-197.487
191.93
21.5187
-0.208812
-3.59802
-4.0617
-3.53024
-2.41629
-3.01333
-190.481
179.244
15.4313
6.90984
-1.97152
-2.0566
-1.64711
-1.20838
-18.658
-177.6
165.763
14.2885
20.1752
-0.797187
-1.16648
-0.796554
-1.81326
-9.38384
-163.834
156.772
14.74
8.62781
-1.65183
-1.81782
-1.63917
625.151
27.8819
4.43002
-11.5474
-9.08752
-11.1668
-8.03559
-161.552
-152.287
-156.008
-147.117
644.368
19.7014
9.99962
660.151
6.99558
8.18864
674.779
-7.20563
12.7022
685.659
-25.1628
5.52964
-43.928
-1.06886
-55.7056
1160.12
-3072.44
436.612
454.194
-1369.46
484.29
167.125
-358.792
551.688
137.379
-114.433
621.054
87.9512
-61.3035
533.2
44.8212
-52.7898
557.905
280.135
-29.232
-58.283
-91.6557
-62.6348
-92.3461
562.201
51.1069
24.6953
-35.1409
-5.23547
-25.7082
0.0101193
589.729
159.967
10.6463
-40.8526
-53.452
-38.2263
-51.095
593.709
43.7801
23.3064
-24.3364
-7.28409
-18.8603
-4.03725
598.478
76.657
25.5474
-21.3596
-22.4979
-19.2676
-21.5661
599.208
36.5072
29.128
-13.6201
-7.75241
-10.3559
-6.37397
612.583
40.3986
26.1513
-15.7462
-14.7465
-14.6056
-13.4225
626.805
17.4089
17.0497
-10.8965
-6.5444
-9.49438
-5.68705
641.404
12.5575
14.9514
663.498
-3.78528
13.3227
685.978
-16.8402
16.3734
702.884
-25.2747
15.7273
717.675
-39.7424
7.08505
-51.0982
3.17717
2172.93
1885.63
-2995.82
1328.76
1303.09
-973.3
942.995
419.659
-560.546
814.218
190.167
-61.6033
600.67
202.746
73.6183
537.523
93.3547
-4.13936
591.642
222.111
14.5457
559.243
71.8439
11.6542
587.797
130.374
5.88339
580.946
44.9312
17.5702
601.901
50.9186
15.8137
614.806
24.8909
9.34456
636.697
22.6165
6.71109
654.861
-2.26452
-3.98268
675.535
-10.0445
-7.81771
695.497
-25.3559
-7.70965
718.679
-41.9858
-5.44412
739.759
-49.1717
4.82675
759.049
-59.2471
4.4572
-60.3328
6.24164
144.671
-713.232
4520.68
451.317
404.982
-23.0205
711.449
184.813
-535.28
642.289
250.064
-32.6761
578.399
274.475
68.3394
515.216
158.472
-32.6937
559.344
189.217
44.5598
558.448
76.6799
-9.89109
601.75
75.0841
23.6639
616.173
36.1176
-5.67953
641.386
29.2757
6.8694
661.236
7.184
-11.8154
686.421
-2.91266
-9.72869
706.053
-20.4696
-19.4308
725.409
-29.7611
-20.4387
745.653
-45.4597
-25.7773
769.204
-68.2113
-22.851
791.398
-76.1249
-8.62699
813.86
-83.6735
-1.51591
-72.5184
8.61015
9.73132
-1425.55
-1460.1
466.937
-145.747
92.6472
549.529
112.332
-623.598
602.105
250.213
-103.157
607.852
280.225
28.1633
596.154
216.61
-48.4975
647.145
151.785
-11.3266
662.945
75.1458
-41.3662
708.193
25.2296
-8.0141
732.879
14.0173
-9.79122
763.647
-7.41157
12.4337
782.52
-12.564
9.20581
798.951
-19.066
10.428
807.168
-21.8612
-8.73937
812.85
-32.0841
-19.6863
818.162
-49.5946
-38.3987
829.305
-80.5398
-38.0883
843.194
-92.3314
-22.6649
859.399
-101.517
-5.77939
-82.5882
8.11787
630.481
-1458.5
-2014.14
563.481
-326.445
-319.935
692.088
1.7478
-515.815
787.86
183.616
-143.775
845.853
234.493
-31.1079
911.137
182.16
-106.578
974.285
87.8209
-26.7451
1031.93
33.7644
-75.3536
1058.54
0.250065
-9.80284
1075.95
-3.40741
-16.0193
1068.94
-7.53291
16.178
1055.74
2.1745
4.93605
1033.6
6.79452
17.5597
1011.15
10.0213
5.30164
984.906
5.21954
0.9721
962.127
-14.3957
-17.6161
946.9
-56.9183
-25.5891
939.285
-82.6917
-16.6333
933.671
-99.0209
-8.2465
-78.3154
-3.70339
1220.08
-273.042
-2341.09
1017.22
38.4924
-1004.09
889.226
105.049
-282.144
980.622
173.878
-146.943
1038.09
190.386
71.5562
1111.31
148.87
35.225
1132.74
86.1295
105.677
1149.5
56.1445
54.2155
1132.8
18.8056
98.6582
1120.29
16.7927
58.3246
1099.9
9.85152
64.3384
1089.9
16.4345
32.5346
1081.39
16.111
24.1222
1075.82
23.5282
-6.72183
1066.52
28.9771
-20.1621
1061.89
23.5189
-43.923
1053.63
-8.13232
-68.5638
1037.21
-40.1349
-85.5415
1014.53
-84.2347
-59.61
-64.8199
-22.3907
705.663
3108.23
398.555
-134.31
898.441
-720.084
1079.81
53.9068
1245.91
118.64
1370.61
79.0194
1417.32
83.0797
1462.51
-11.2979
1449.5
12.2934
1441.64
-16.2889
1412.86
19.0104
1394.95
21.1691
1377.62
53.6142
1375.57
77.7425
1387.92
91.1564
1408.92
77.7998
1413.02
39.9685
1381.64
8.88195
1280.59
4.68837
-14.7005
1598.92
769.916
-4574.72
1935.16
35.3862
49.0329
1792.63
114.038
395.88
1749.64
-15.2394
115.879
1575.06
126.701
-52.8514
1507.04
55.2914
-170.082
1380.99
115.949
-196.317
1313.19
53.1851
-168.375
1215.05
60.4847
-58.9589
1155.68
26.1902
-31.2385
1103.63
25.4546
22.8112
1081.18
9.93362
14.0278
1065.93
13.9899
20.4733
1063.55
11.2871
11.0416
1059.93
13.6229
6.05964
1060.44
12.0187
-3.56904
1053.88
14.7494
-17.9046
1034.34
17.6184
-26.9126
984.548
29.2962
-5.99336
18.8627
4.33844
192.151
224.724
3446.18
640.743
103.353
-350.638
819.497
161.539
273.083
740.034
119.461
154.832
778.411
201.141
83.2082
738.482
130.795
-106.233
751.961
138.885
-73.0701
733.399
91.451
-50.1073
732
77.0393
44.2515
722.129
54.8885
40.5954
721.611
45.3611
52.8146
716.817
34.7979
20.4238
714.684
28.665
4.52331
710.594
21.494
-21.8431
706.887
16.5018
-30.8375
704.261
9.15893
-44.3391
702.551
5.49519
-47.2922
699.597
1.72785
-53.8048
695.207
2.85927
-41.409
-0.142966
-17.475
582.968
434.877
-160.654
588.434
337.36
1.06675
697.757
277.137
-320.262
658.19
173.952
-48.9318
658.328
237.817
14.3142
635.855
165.953
-8.94834
647.1
145.226
19.7147
624.741
121.332
3.79079
621.394
88.0593
31.9309
601.153
82.8677
7.4717
595.323
57.5462
14.3368
583.159
50.6027
-6.69052
582.45
28.4706
-4.67831
581.258
20.5731
-12.8164
584.23
10.5508
-8.93062
586.951
4.44143
-9.91606
592.934
-3.19829
-6.38338
597.538
-6.34371
-5.45051
604.971
-6.53475
-3.4102
-6.86662
1.55572
125.788
3.89274
-257.218
350.05
65.7848
-811.058
497.064
103.487
-629.861
538.925
124.918
-35.5558
578.445
211.689
-74.4099
548.833
187.738
-32.186
570.647
116.408
9.68243
535.977
153.208
-24.0984
544.446
73.5125
17.5356
525.262
105.558
-2.96835
534.778
48.1156
12.4317
530.319
57.2496
-0.408058
538.09
21.7145
4.7476
540.299
19.5419
-0.677977
546.729
4.78298
2.95416
551.681
1.14959
0.927961
559.504
-9.86775
3.48537
564.634
-10.8242
0.319858
572.003
-14.014
-2.39179
-14.4186
-1.03601
398.685
96.0596
535.199
362.249
33.3703
-527.167
290.659
2.22379
-13.4342
340.59
88.9163
83.4986
496.796
56.9425
78.5867
477.54
204.549
38.4289
545.838
59.1619
50.0041
524.901
176.028
2.85574
538.669
63.4024
22.9581
525.61
122.87
-2.66184
531.22
44.3895
8.00978
532.628
54.328
-3.60101
539.427
15.9304
2.99453
543.911
16.8946
-2.37155
552.79
-1.86309
7.9741
558.304
-1.41287
4.8059
565.439
-14.2965
7.28851
570.571
-13.5967
5.48919
577.569
-19.7507
-0.0786183
-20.8197
-2.10416
879.789
-363.029
469.814
773.953
-58.2399
520.129
573.362
33.6952
213.438
542.252
104.331
118.812
526.505
90.1959
91.0789
470.157
267.474
52.3957
551.302
-3.26516
22.1122
504.588
222.712
19.4747
526.521
44.1819
15.6706
514.513
134.435
-0.00764156
529.071
31.5971
-0.652411
538.696
41.2347
-3.29228
554.716
-4.08998
-2.58941
563.085
5.72633
0.239128
570.246
-8.8272
6.48381
576.141
-2.91301
9.85281
581.946
-13.4238
15.9591
585.556
-11.9242
12.2006
589.409
-19.3814
5.39507
-23.9808
1.26397
649.332
24.4018
1254.94
531.809
43.6168
502.463
581.377
80.4114
168.351
525.993
134.83
-16.9023
524.238
130.139
103.756
430.572
369.295
28.7054
480.414
11.1311
33.8121
-17.6859
4.10279
-22.4016
476.245
46.7122
13.0344
71.801
46.351
69.7184
505.662
11.4411
-12.2833
3.14343
9.99952
0.114333
527.556
17.0153
-6.21181
36.654
16.3276
35.7697
558.98
2.54952
-21.4548
-3.60733
0.81199
-4.65907
588.117
-2.70745
-6.61786
5.09064
-1.70949
5.04388
617.635
-11.0545
3.10545
-10.5253
-8.77419
-7.68146
626.923
-8.06502
15.2189
1.94662
-4.82688
3.42832
624.806
-5.07791
11.0645
617.21
10.9532
8.64273
611.263
3.39952
22.2454
607.199
1.38937
17.0509
607.417
-13.7366
12.2436
-25.6235
3.32686
2055.72
3.10921
-2066.16
1479.92
106.901
-507.887
950.99
240.358
-185.467
798.226
163.612
-95.333
718.672
226.64
74.3972
150.87
111.868
35.377
163.544
140.338
152.856
139.743
108.017
133.988
-23.1964
134.157
37.3507
13.6902
-2.02237
-108.64
118.365
38.0128
0.996944
5.28364
-133.041
129.405
17.69
-7.89651
7.2323
-125.695
133.336
9.14548
-7.00349
9.87388
-148.211
150.449
-0.25298
-9.30896
2.37031
-153.284
160.912
-11.4454
-1.26022
-5.6325
-168.347
172.46
-14.5648
5.03011
-8.28842
-173.582
177.801
-11.6279
7.63186
643.237
0.466249
-5.73485
-176.377
-174.032
-162.539
-161.376
4.3385
2.18205
6.98977
623.334
25.3937
10.4671
611.607
21.5315
17.1646
610.1
11.8591
15.5874
612.736
-15.768
1.11952
-31.8929
-0.318694
1017.66
347.515
-1713.54
931.489
384.38
-398.472
533.883
544.469
-7.62236
393.937
267.698
-103.189
100.272
302.593
77.9136
106.792
90.3564
97.3175
-9.77893
129.768
86.9644
5.18655
-5.13169
-19.2648
-36.8512
36.8511
20.4051
3.99146
-1.94816
-34.4785
-8.7808
34.6232
9.06927
1.51492
1.78859
-38.6101
-4.55846
38.9734
4.36025
-1.95365
3.23288
-39.4781
-1.31284
40.0768
0.812352
-3.33109
2.44159
-42.2112
1.34326
42.77
-2.0135
-2.33023
-0.472408
-43.0173
3.7187
43.2801
-3.97997
0.470908
-1.94472
-43.5105
3.75476
43.8222
-3.88791
1.76614
-0.0294087
-43.4913
2.9212
43.8203
-3.2175
-0.00335377
-43.6174
7.98376
168.84
-0.226106
-6.4125
-42.4737
-42.3353
-41.2925
607.525
31.0664
-8.6274
-162.724
-160.148
-151.954
-150.195
604.778
21.1094
-3.24088
607.857
8.12417
-5.00335
614.556
-27.7033
-7.63218
-39.5419
-6.50477
-75.4205
-528.825
-2101.62
63.4109
279.211
-250.394
382.115
358.743
-179.018
413.423
240.603
14.8079
131.672
255.671
61.0661
150.98
122.055
140.459
-3.05837
-77.282
144.792
65.4424
1.77827
-3.43199
-19.8907
-39.2627
42.8261
16.5887
3.17061
-1.21691
-10.0076
-45.4941
45.9475
9.53733
1.2337
-0.316627
-4.08794
-46.8955
47.0732
3.94259
0.284297
-0.37503
-1.14029
-47.2351
47.1155
1.42548
0.209472
-46.2694
-0.228482
1.2161
45.869
-0.588678
0.00145403
-44.7135
-0.0269531
1.65841
-0.950034
-0.280404
44.3125