/*--------------------------------*- C++ -*----------------------------------*\
  =========                 |
  \\      /  F ield         | OpenFOAM: The Open Source CFD Toolbox
   \\    /   O peration     | Website:  https://openfoam.org
    \\  /    A nd           | Version:  10
     \\/     M anipulation  |
\*---------------------------------------------------------------------------*/
FoamFile
{
    format      ascii;
    class       volScalarField;
    location    "5.8";
    object      turbidity_0;
}
// * * * * * * * * * * * * * * * * * * * * * * * * * * * * * * * * * * * * * //

dimensions      [0 0 0 0 0 0 0];

internalField   nonuniform List<scalar> 
12920
(
-0.0195235
-0.0477974
-0.0659391
-0.0840119
-0.093276
-0.0985597
-0.104584
-0.116931
-0.139715
-0.172893
-0.218579
-0.268707
-0.315662
-0.353005
-0.379388
-0.395712
-0.403476
-0.404268
-0.409974
-0.424007
-0.0197547
-0.0445226
-0.055542
-0.0774649
-0.112234
-0.149869
-0.180989
-0.217556
-0.257734
-0.306562
-0.353505
-0.388379
-0.40131
-0.389606
-0.370598
-0.354008
-0.346273
-0.345955
-0.364467
-0.41058
-0.0149228
-0.0457902
-0.0742159
-0.101008
-0.130699
-0.167142
-0.203589
-0.240321
-0.278662
-0.322679
-0.371692
-0.418333
-0.456379
-0.483491
-0.50906
-0.534267
-0.561654
-0.587971
-0.612616
-0.642893
-0.0522738
-0.060429
-0.0699761
-0.104685
-0.131085
-0.155597
-0.184322
-0.213709
-0.257221
-0.316296
-0.387001
-0.456988
-0.517054
-0.565187
-0.604588
-0.639473
-0.671607
-0.702896
-0.732065
-0.757384
-0.0453341
-0.0686158
-0.0936834
-0.123134
-0.147435
-0.169988
-0.197573
-0.230968
-0.275436
-0.327694
-0.380552
-0.426967
-0.463277
-0.494331
-0.52229
-0.553454
-0.586579
-0.621607
-0.65457
-0.681746
-0.045871
-0.0487336
-0.062318
-0.104235
-0.150368
-0.192774
-0.232554
-0.266537
-0.304891
-0.338449
-0.36479
-0.383177
-0.396329
-0.411604
-0.430166
-0.458682
-0.495909
-0.542626
-0.587608
-0.622036
-0.0232694
-0.0300379
-0.0459329
-0.063771
-0.0891243
-0.135107
-0.179508
-0.226864
-0.253058
-0.273871
-0.278458
-0.281778
-0.275239
-0.275473
-0.287157
-0.314735
-0.357164
-0.415889
-0.474965
-0.518583
-0.0109667
-0.0207579
-0.0333645
-0.0532875
-0.0844379
-0.129425
-0.148816
-0.177748
-0.196897
-0.193513
-0.193115
-0.175094
-0.151916
-0.131431
-0.13583
-0.17194
-0.221475
-0.284554
-0.345093
-0.3878
-0.00741529
-0.0235787
-0.042975
-0.0751719
-0.114415
-0.13021
-0.144136
-0.155464
-0.152769
-0.141174
-0.12884
-0.111932
-0.0976733
-0.09215
-0.100538
-0.141197
-0.194754
-0.247719
-0.290777
-0.327148
-0.0170517
-0.034488
-0.0614524
-0.0995354
-0.133604
-0.133253
-0.132768
-0.124745
-0.115725
-0.109782
-0.10387
-0.0979513
-0.093391
-0.0891506
-0.0974905
-0.138209
-0.18313
-0.225767
-0.266026
-0.305508
-0.0420686
-0.0543967
-0.0822309
-0.113459
-0.137017
-0.13058
-0.122012
-0.110327
-0.104843
-0.104059
-0.100776
-0.0935879
-0.0863761
-0.0811906
-0.0973671
-0.144618
-0.183967
-0.223734
-0.263932
-0.305606
-0.0283363
-0.0639951
-0.0880455
-0.107692
-0.120221
-0.115598
-0.109824
-0.106428
-0.106845
-0.103211
-0.0948279
-0.0854581
-0.0780856
-0.0822892
-0.117936
-0.158225
-0.195664
-0.233819
-0.275889
-0.3247
-0.0416637
-0.0676289
-0.0872443
-0.101919
-0.118477
-0.140869
-0.139153
-0.130065
-0.125042
-0.122071
-0.118621
-0.116333
-0.126287
-0.152137
-0.223363
-0.260007
-0.29882
-0.343194
-0.392118
-0.436616
-0.0210832
-0.0476383
-0.0624239
-0.0858613
-0.118296
-0.148748
-0.172422
-0.196986
-0.211286
-0.237415
-0.263094
-0.301143
-0.342008
-0.388877
-0.428538
-0.462883
-0.492584
-0.518601
-0.539847
-0.556649
-0.0360174
-0.031362
-0.0501369
-0.083347
-0.131749
-0.183973
-0.216171
-0.248787
-0.272489
-0.302847
-0.329648
-0.356557
-0.378101
-0.391676
-0.400847
-0.411924
-0.427722
-0.448789
-0.471928
-0.496839
-0.0278438
-0.0404376
-0.0589421
-0.0881265
-0.125527
-0.172262
-0.218966
-0.25744
-0.286656
-0.308124
-0.323275
-0.327503
-0.329258
-0.326301
-0.326887
-0.332395
-0.346499
-0.372248
-0.404339
-0.437778
-0.0389436
-0.0474945
-0.0610053
-0.0922889
-0.135094
-0.183438
-0.228548
-0.255263
-0.278205
-0.292764
-0.302349
-0.307434
-0.309628
-0.306363
-0.300336
-0.297831
-0.308482
-0.333534
-0.367676
-0.403138
-0.0404809
-0.0361156
-0.0558728
-0.0820191
-0.116156
-0.141445
-0.162784
-0.170747
-0.177023
-0.182474
-0.191459
-0.205455
-0.223778
-0.244858
-0.266313
-0.285865
-0.306438
-0.331224
-0.360558
-0.393419
-0.0288584
-0.0432914
-0.0611271
-0.0850657
-0.107312
-0.126055
-0.140613
-0.153768
-0.167957
-0.185612
-0.205574
-0.225736
-0.243716
-0.258798
-0.274463
-0.289995
-0.301445
-0.312798
-0.335184
-0.369822
-0.0485519
-0.0615477
-0.0701018
-0.0953703
-0.110458
-0.120976
-0.128531
-0.132985
-0.140661
-0.152438
-0.172631
-0.197484
-0.223398
-0.247691
-0.269636
-0.28946
-0.307569
-0.323613
-0.333757
-0.340087
-0.0204483
-0.02007
-0.0173
-0.014672
-0.0126527
-0.0117022
-0.0121578
-0.0141142
-0.0174777
-0.0221432
-0.0281391
-0.0358359
-0.0463706
-0.0563474
-0.0604191
-0.0593779
-0.0541506
-0.0520718
-0.0545427
-0.060277
-0.0182467
-0.021302
-0.0348969
-0.0422294
-0.0490056
-0.0458631
-0.057235
-0.078332
-0.105698
-0.122995
-0.122769
-0.0987319
-0.0666219
-0.0424711
-0.0324521
-0.030307
-0.0331507
-0.0399583
-0.0524747
-0.0737587
-0.0115832
-0.0163841
-0.024573
-0.0343174
-0.0516375
-0.05683
-0.0667489
-0.0716804
-0.082992
-0.0817448
-0.076372
-0.0605581
-0.0507607
-0.0481386
-0.0521876
-0.0615355
-0.0760833
-0.0946578
-0.119996
-0.147522
-0.0076632
-0.0125521
-0.0162791
-0.0236876
-0.0311487
-0.0356213
-0.0421682
-0.049697
-0.0683559
-0.0787677
-0.0881646
-0.0849927
-0.0860875
-0.0883745
-0.0954898
-0.101192
-0.105406
-0.104788
-0.104364
-0.105556
-0.00807466
-0.0163402
-0.0178975
-0.0344509
-0.0449201
-0.0425376
-0.0532239
-0.0573001
-0.0704972
-0.0721215
-0.075018
-0.0761391
-0.0846602
-0.0929979
-0.101948
-0.10383
-0.101427
-0.09343
-0.0861809
-0.0812466
-0.0236446
-0.0210953
-0.0174144
-0.0212524
-0.0345778
-0.0401535
-0.0471
-0.0499282
-0.0523464
-0.0528916
-0.0565806
-0.0648898
-0.0769529
-0.0918845
-0.108485
-0.12308
-0.13013
-0.123323
-0.112103
-0.100169
-0.008044
-0.0145713
-0.012157
-0.0124046
-0.0242919
-0.0288642
-0.0318253
-0.032499
-0.0305697
-0.0349975
-0.0410986
-0.050692
-0.0628465
-0.0784215
-0.0966044
-0.115567
-0.131168
-0.134848
-0.127734
-0.112826
-0.00264078
-0.00473639
-0.00812061
-0.0164546
-0.0351216
-0.0364592
-0.0441036
-0.0318475
-0.0270831
-0.0312641
-0.0388411
-0.0525644
-0.0696871
-0.0793759
-0.0779596
-0.0847405
-0.0913686
-0.0881619
-0.0747974
-0.0650938
-0.00694147
-0.00568479
-0.00935029
-0.0218498
-0.0426774
-0.0400685
-0.047773
-0.0486261
-0.0291055
-0.0318455
-0.0434574
-0.0689297
-0.0871415
-0.0833207
-0.0693577
-0.0639121
-0.0672369
-0.0662172
-0.0627969
-0.0593299
-0.0195086
-0.0154858
-0.0138979
-0.0250739
-0.0412055
-0.0335087
-0.0360527
-0.0347077
-0.0306867
-0.0462921
-0.0699228
-0.0742666
-0.0617441
-0.0650726
-0.0628853
-0.0537719
-0.0561714
-0.0570873
-0.056073
-0.0533717
-0.0187293
-0.0284866
-0.0224435
-0.0334315
-0.0478381
-0.0452834
-0.0514046
-0.0485822
-0.0426402
-0.0400868
-0.0324633
-0.0295994
-0.0387188
-0.0641325
-0.0749581
-0.057296
-0.0564017
-0.0550875
-0.0522161
-0.0480142
-0.0202634
-0.0269747
-0.0394024
-0.039483
-0.0441192
-0.0445574
-0.0542734
-0.0722789
-0.0466149
-0.0244102
-0.0230805
-0.0309218
-0.0576747
-0.0873115
-0.0677752
-0.0481848
-0.0505486
-0.0514476
-0.0490521
-0.0441559
-0.0122961
-0.0233474
-0.0282122
-0.0312471
-0.0412609
-0.0441711
-0.0522997
-0.0561011
-0.0438477
-0.0380176
-0.0501465
-0.0762276
-0.0988936
-0.0868812
-0.0596551
-0.0601896
-0.0632405
-0.0638873
-0.0593346
-0.0520367
-0.00230125
-0.00481883
-0.00881762
-0.0153869
-0.0271596
-0.0339255
-0.0405929
-0.0452407
-0.0533142
-0.0715635
-0.0931549
-0.10816
-0.112132
-0.111359
-0.114694
-0.118179
-0.117637
-0.110852
-0.0973464
-0.0819914
-0.00396274
-0.00531071
-0.00655633
-0.0125682
-0.0308988
-0.0431989
-0.0474698
-0.0531154
-0.0617496
-0.0701981
-0.0755901
-0.0733792
-0.0691917
-0.0643222
-0.0636841
-0.0659162
-0.0705183
-0.0780496
-0.0841144
-0.0849026
-0.0265554
-0.00783439
-0.0125456
-0.0240419
-0.0509315
-0.052519
-0.0611895
-0.0508815
-0.0513136
-0.0436825
-0.0398696
-0.03546
-0.0339335
-0.0340865
-0.0365837
-0.0409883
-0.0472903
-0.0560072
-0.0673244
-0.079312
-0.010193
-0.00895702
-0.012423
-0.023736
-0.0417733
-0.0411658
-0.0416634
-0.0399799
-0.0425777
-0.0437137
-0.0449968
-0.0408663
-0.0356352
-0.0314605
-0.0321116
-0.035637
-0.0414271
-0.0492154
-0.0595792
-0.0714669
-0.00367965
-0.00531164
-0.0103678
-0.018361
-0.0291138
-0.0302839
-0.031638
-0.0319163
-0.0347195
-0.0367279
-0.040093
-0.0414925
-0.0444291
-0.0441002
-0.0421898
-0.0417412
-0.0449373
-0.050172
-0.0563361
-0.0619933
-0.00716588
-0.00703284
-0.0113888
-0.0197761
-0.0341073
-0.0418716
-0.0513874
-0.0557146
-0.0600632
-0.0586459
-0.0550052
-0.0475375
-0.040136
-0.0350133
-0.0354261
-0.039064
-0.0452709
-0.0522178
-0.0586796
-0.0640258
-0.0882322
-0.0274825
-0.013135
-0.0221473
-0.0286841
-0.0274881
-0.0244084
-0.0194911
-0.0162937
-0.0154612
-0.0178933
-0.0256546
-0.0425697
-0.0651829
-0.086555
-0.102423
-0.10872
-0.104289
-0.0940952
-0.0803519
-0.00310254
-0.012133
-0.0151445
-0.0136606
-0.0106915
-0.00948513
-0.0105163
-0.0130336
-0.0161129
-0.0194537
-0.0224233
-0.024708
-0.0263405
-0.027136
-0.0272196
-0.0270499
-0.0274089
-0.0287414
-0.0312316
-0.0338645
-0.00983052
-0.0130901
-0.0224139
-0.0245222
-0.0238748
-0.0258771
-0.0337778
-0.0444307
-0.0546248
-0.054233
-0.0458599
-0.0327491
-0.0236172
-0.0196617
-0.0190635
-0.0201059
-0.0223782
-0.0257703
-0.0312028
-0.0389914
-0.00992991
-0.00989544
-0.0115384
-0.0184667
-0.0261717
-0.0284914
-0.0333059
-0.0341188
-0.0353443
-0.0302271
-0.0252784
-0.0205668
-0.019057
-0.0196558
-0.0219676
-0.0255016
-0.0302019
-0.0355547
-0.0421601
-0.0481152
-0.00685613
-0.0104577
-0.01184
-0.0136496
-0.0167849
-0.0195695
-0.0238113
-0.0266756
-0.0311194
-0.0300624
-0.0294998
-0.0272445
-0.0273308
-0.0277686
-0.0292694
-0.0304458
-0.0316899
-0.0324553
-0.0337511
-0.0354789
-0.00716853
-0.00928246
-0.010053
-0.0159675
-0.0193701
-0.019618
-0.0246934
-0.0257728
-0.0285585
-0.0278752
-0.0288809
-0.0295841
-0.0317634
-0.0326367
-0.033301
-0.0322792
-0.0310951
-0.0296672
-0.0291444
-0.0294018
-0.0112958
-0.0115776
-0.00758712
-0.0100241
-0.0143006
-0.0169789
-0.0195822
-0.0218659
-0.0244609
-0.0270634
-0.0311686
-0.0348936
-0.0389098
-0.041206
-0.0426951
-0.0420536
-0.0396175
-0.0344312
-0.0301945
-0.0273424
-0.00531551
-0.00748568
-0.00509362
-0.00534493
-0.00963177
-0.0115773
-0.0145936
-0.0181609
-0.0224361
-0.0274242
-0.033996
-0.0401762
-0.0459099
-0.0504003
-0.052796
-0.0524597
-0.049999
-0.0432998
-0.0358172
-0.0294903
-0.000474034
-0.00139664
-0.00264175
-0.0060742
-0.0136313
-0.0136627
-0.0151655
-0.0188959
-0.0228539
-0.0308653
-0.0389541
-0.0493247
-0.0555878
-0.0579824
-0.0457189
-0.0419394
-0.0362329
-0.0282915
-0.0216285
-0.018504
-0.00173884
-0.00288137
-0.00554257
-0.00923155
-0.0148215
-0.0140969
-0.0155463
-0.0184832
-0.0247676
-0.0337122
-0.0452503
-0.0575281
-0.0628468
-0.0531632
-0.0374524
-0.0255717
-0.0231199
-0.02078
-0.0192149
-0.0183286
-0.00371109
-0.00619688
-0.00752705
-0.0109289
-0.0143918
-0.0129341
-0.0144738
-0.0170795
-0.0230648
-0.0318073
-0.0394722
-0.0448818
-0.0478844
-0.044039
-0.027141
-0.0211163
-0.0207581
-0.0199542
-0.0189117
-0.0179874
-0.00917102
-0.0162328
-0.0124494
-0.0158337
-0.0205508
-0.0193868
-0.0210872
-0.0202762
-0.0199951
-0.020999
-0.0250145
-0.0346058
-0.0494246
-0.0561283
-0.0365749
-0.0232832
-0.0216283
-0.0198212
-0.0181713
-0.0170939
-0.00661596
-0.0231417
-0.0257456
-0.0234468
-0.0242894
-0.0237838
-0.0274085
-0.0286015
-0.0186532
-0.0179749
-0.027033
-0.044185
-0.0600065
-0.05008
-0.026367
-0.0181706
-0.0181539
-0.0174694
-0.0167017
-0.0165437
-0.0150804
-0.0144041
-0.0166825
-0.0187306
-0.0231002
-0.0220808
-0.0237619
-0.0226163
-0.022237
-0.0303139
-0.0457518
-0.0574112
-0.050464
-0.0299229
-0.0180104
-0.0179217
-0.018062
-0.0178332
-0.0174667
-0.0177705
-0.00120324
-0.00501942
-0.00804927
-0.0113443
-0.0161945
-0.0174006
-0.0192179
-0.0235177
-0.0310457
-0.0391431
-0.0443138
-0.043593
-0.0392348
-0.0355584
-0.0344058
-0.0332111
-0.031099
-0.0281927
-0.025271
-0.0236451
-0.0028088
-0.00315391
-0.00610685
-0.011169
-0.0195119
-0.020071
-0.0208763
-0.0237077
-0.0283625
-0.030044
-0.0309076
-0.0290509
-0.0275998
-0.0262953
-0.0259264
-0.0259739
-0.02638
-0.0273624
-0.0281542
-0.0286204
-0.0272275
-0.00505766
-0.00794604
-0.0134448
-0.0248276
-0.0197703
-0.0214643
-0.0188399
-0.0198138
-0.0186645
-0.018687
-0.0184463
-0.0188853
-0.0194864
-0.0204992
-0.0217967
-0.0235005
-0.0258272
-0.02881
-0.0318696
-0.00493081
-0.00376924
-0.00607937
-0.0112725
-0.0158197
-0.0146836
-0.0151148
-0.0151792
-0.0162197
-0.0165911
-0.0171807
-0.0171612
-0.0175984
-0.0183147
-0.019451
-0.0207779
-0.0224004
-0.0244809
-0.0274512
-0.0310518
-0.00498843
-0.00392695
-0.00710251
-0.00998932
-0.0124341
-0.012193
-0.0131346
-0.0139189
-0.0154788
-0.0163175
-0.0176978
-0.0186029
-0.0200404
-0.0211313
-0.0224856
-0.0239479
-0.0252248
-0.0260002
-0.0267481
-0.02769
-0.00716559
-0.00521572
-0.007197
-0.00872337
-0.0143274
-0.0165712
-0.0215939
-0.0229252
-0.0243456
-0.0227761
-0.0215118
-0.020451
-0.0210216
-0.0228588
-0.0256842
-0.0286104
-0.0309757
-0.0318659
-0.0315103
-0.0305404
-0.0250357
-0.0112105
-0.00867243
-0.00923399
-0.0111001
-0.010323
-0.0093796
-0.00817563
-0.00772127
-0.0081844
-0.0101569
-0.014276
-0.0213688
-0.0309151
-0.0405739
-0.0474537
-0.0497321
-0.047992
-0.0434346
-0.0370383
-0.00251539
-0.00885646
-0.00846231
-0.00660664
-0.00597407
-0.0074369
-0.0106992
-0.0148726
-0.0187751
-0.0218806
-0.0238028
-0.0245822
-0.024366
-0.0233816
-0.02216
-0.021108
-0.0205477
-0.0204294
-0.0209258
-0.0213655
-0.0172449
-0.00812975
-0.0115381
-0.016133
-0.0159413
-0.0185194
-0.0218818
-0.0247559
-0.0267692
-0.0237025
-0.0200333
-0.0166737
-0.0153277
-0.0149969
-0.0152169
-0.0155503
-0.0159632
-0.0164756
-0.0173228
-0.0185754
-0.00415756
-0.00565256
-0.00826329
-0.014004
-0.0174639
-0.0184645
-0.0194671
-0.0178726
-0.0166673
-0.0140195
-0.0125663
-0.0117796
-0.0118269
-0.0122834
-0.0130352
-0.0139929
-0.0151841
-0.0164606
-0.01806
-0.0194688
-0.00174867
-0.00604704
-0.00996829
-0.0113981
-0.0131917
-0.0147577
-0.0159379
-0.015334
-0.0152197
-0.0137749
-0.0133762
-0.0129738
-0.0133604
-0.0138202
-0.0146424
-0.0154763
-0.0164737
-0.0174275
-0.0185441
-0.0197898
-0.00994571
-0.00781176
-0.00902343
-0.0117282
-0.0131125
-0.0137571
-0.0151697
-0.0146299
-0.014823
-0.0141099
-0.0143224
-0.0143218
-0.0148635
-0.0150857
-0.0155421
-0.015876
-0.0163993
-0.0170001
-0.017746
-0.0186084
-0.00464692
-0.00491387
-0.00574584
-0.00884626
-0.0108449
-0.0125186
-0.0139103
-0.0144438
-0.0153811
-0.0155704
-0.0164201
-0.0166492
-0.0171278
-0.0169718
-0.0168264
-0.0164007
-0.0159696
-0.0154561
-0.0154045
-0.0157848
-0.00509503
-0.00372423
-0.00382765
-0.0057109
-0.00795329
-0.0102856
-0.0137467
-0.0149783
-0.016937
-0.018007
-0.0198178
-0.0209063
-0.0217561
-0.0216594
-0.0203529
-0.0184173
-0.0168253
-0.0150596
-0.0140884
-0.0139815
-0.000653491
-0.00134618
-0.00327912
-0.00698898
-0.0105614
-0.0120808
-0.013947
-0.017208
-0.0184341
-0.0230835
-0.0259343
-0.029322
-0.0295553
-0.0274832
-0.0160145
-0.0139928
-0.0121429
-0.0108076
-0.0105835
-0.0113093
-0.00152146
-0.00303983
-0.00537065
-0.00837526
-0.0118713
-0.0128284
-0.0139724
-0.0186086
-0.0232046
-0.0295736
-0.0355821
-0.0364945
-0.0279911
-0.0192328
-0.0131443
-0.00908136
-0.0088413
-0.00913991
-0.00990576
-0.0110396
-0.00161614
-0.00566008
-0.00723634
-0.00898701
-0.0114169
-0.0129604
-0.0150184
-0.0190195
-0.0243642
-0.0277377
-0.0268696
-0.0238918
-0.0178332
-0.0122599
-0.00964409
-0.00886412
-0.00901495
-0.00953774
-0.010451
-0.0116616
-0.00667697
-0.010879
-0.0102255
-0.0109291
-0.0122726
-0.0127797
-0.0138993
-0.0152044
-0.0170543
-0.0183659
-0.0207112
-0.0265955
-0.0270728
-0.0192309
-0.0115275
-0.00904013
-0.00932533
-0.00999535
-0.0110371
-0.0123603
-0.0180025
-0.0180832
-0.0178627
-0.014874
-0.0141786
-0.0134437
-0.0145171
-0.0139573
-0.0142073
-0.0176241
-0.0238123
-0.0299384
-0.0248786
-0.0144068
-0.00946269
-0.00869411
-0.00951172
-0.0104081
-0.0115082
-0.012849
-0.0122231
-0.0116307
-0.0119186
-0.0122285
-0.0134297
-0.0125571
-0.0129299
-0.0141857
-0.0173
-0.0213244
-0.0235381
-0.0204794
-0.013129
-0.00860837
-0.00840187
-0.00908635
-0.00986827
-0.0107419
-0.0117482
-0.0129986
-0.0020269
-0.00504797
-0.00833154
-0.0103415
-0.0117789
-0.0117359
-0.0123354
-0.0140397
-0.015424
-0.016194
-0.0152664
-0.0137119
-0.0120236
-0.0113853
-0.0115209
-0.0116372
-0.011836
-0.0121654
-0.0127182
-0.0136318
-0.00385661
-0.00390579
-0.00660122
-0.00967039
-0.0122961
-0.0117722
-0.0122086
-0.0128569
-0.0135051
-0.0129219
-0.0123741
-0.011524
-0.0111304
-0.0110912
-0.0114284
-0.0120211
-0.0127973
-0.0137099
-0.0145661
-0.0154326
-0.0169017
-0.00971124
-0.00678511
-0.00906713
-0.0117691
-0.0104766
-0.0113273
-0.0108651
-0.0112284
-0.0109037
-0.010916
-0.0109803
-0.0112865
-0.0118137
-0.012564
-0.013511
-0.0145962
-0.0157925
-0.0170459
-0.0181501
-0.0032813
-0.00324808
-0.00659862
-0.00898795
-0.00949158
-0.00938054
-0.00986365
-0.0101904
-0.0107366
-0.0109824
-0.0113239
-0.0115405
-0.0119848
-0.0126131
-0.0134916
-0.0145612
-0.0158008
-0.0171917
-0.0187234
-0.0201416
-0.00408407
-0.00442853
-0.00693667
-0.00756927
-0.00813547
-0.00852925
-0.00943615
-0.0100148
-0.0109421
-0.011596
-0.0124866
-0.0131086
-0.0138371
-0.0144319
-0.0151187
-0.0157605
-0.0163988
-0.0171132
-0.0181121
-0.0191976
-0.00208226
-0.00413356
-0.00566145
-0.00640021
-0.0086543
-0.00978024
-0.011727
-0.0119146
-0.0126783
-0.0128838
-0.0137564
-0.0147742
-0.0161371
-0.0174868
-0.0187521
-0.0194054
-0.0192849
-0.0184944
-0.0178661
-0.0178043
-0.00254693
-0.00978477
-0.0089591
-0.00700398
-0.00614473
-0.005625
-0.00561124
-0.00576061
-0.00630939
-0.00736854
-0.00918971
-0.0119548
-0.0157348
-0.0200074
-0.0237533
-0.0257829
-0.0258716
-0.0242544
-0.0216864
-0.018844
-0.00315126
-0.0054744
-0.00462361
-0.00449775
-0.0049908
-0.00786935
-0.0129528
-0.0171987
-0.0187135
-0.0183369
-0.0173724
-0.0157228
-0.01419
-0.0130917
-0.012647
-0.0126237
-0.0128004
-0.0129829
-0.0133127
-0.0134948
-0.00779129
-0.00776071
-0.009432
-0.0129835
-0.013079
-0.0146042
-0.0149417
-0.0136741
-0.0132505
-0.0118334
-0.0113484
-0.011121
-0.011536
-0.0123404
-0.0135206
-0.014977
-0.0165768
-0.0182332
-0.019803
-0.0211306
-0.00336835
-0.00596634
-0.00962893
-0.0138506
-0.0138544
-0.0124113
-0.0112354
-0.0100791
-0.00978103
-0.00964531
-0.0101098
-0.0108333
-0.0117981
-0.0128428
-0.0139038
-0.014887
-0.0157601
-0.0165024
-0.0171359
-0.0176469
-0.00222718
-0.00383939
-0.00853958
-0.0120505
-0.011898
-0.0106188
-0.00989885
-0.00948051
-0.00971543
-0.00998945
-0.0106433
-0.0113463
-0.012157
-0.0129479
-0.0137303
-0.0144703
-0.0151802
-0.0158495
-0.0165215
-0.0171834
-0.00550576
-0.00813011
-0.00990055
-0.0106861
-0.0101308
-0.00973928
-0.00952283
-0.00934833
-0.00966797
-0.0100271
-0.0106462
-0.0112857
-0.0119889
-0.0126814
-0.0134068
-0.0141359
-0.0149055
-0.0156954
-0.0165367
-0.0173506
-0.00183273
-0.0045319
-0.00670293
-0.00855053
-0.00895607
-0.00930174
-0.00924057
-0.00935744
-0.00966271
-0.0100747
-0.0106322
-0.0112343
-0.0118692
-0.012531
-0.013246
-0.0140261
-0.0148735
-0.0158091
-0.0167852
-0.0176891
-0.00209493
-0.00378002
-0.0053131
-0.00729739
-0.00839769
-0.00900789
-0.00939225
-0.00944709
-0.00967025
-0.0102078
-0.0106801
-0.0113878
-0.0119117
-0.0124941
-0.0130022
-0.0136577
-0.0144424
-0.0153551
-0.0163021
-0.0171913
-0.000451196
-0.00401237
-0.00635566
-0.00878915
-0.00964272
-0.00988536
-0.0100861
-0.0100052
-0.00983942
-0.0103136
-0.010539
-0.0109403
-0.0110743
-0.0111355
-0.0121056
-0.0128318
-0.0135742
-0.0144293
-0.0152363
-0.015963
-0.000964115
-0.00474324
-0.00679976
-0.00892238
-0.00999615
-0.0107373
-0.0106379
-0.0112358
-0.0110832
-0.010888
-0.00995517
-0.00888222
-0.0086052
-0.00890608
-0.00987068
-0.0118733
-0.0126436
-0.0133798
-0.014075
-0.0147103
-0.00249019
-0.00556171
-0.00728181
-0.00894747
-0.00983258
-0.0108403
-0.0119713
-0.0128269
-0.0120192
-0.00988097
-0.00823957
-0.00724813
-0.00706521
-0.00745537
-0.00920078
-0.0117257
-0.0125138
-0.0132084
-0.0138624
-0.0144478
-0.00842092
-0.0150459
-0.00975084
-0.00902353
-0.00923178
-0.0102329
-0.0112297
-0.0115384
-0.00947548
-0.00803597
-0.00806511
-0.00810445
-0.0073048
-0.00736978
-0.00915522
-0.0119758
-0.0129636
-0.0138284
-0.0146279
-0.0152931
-0.0262442
-0.0399777
-0.0219464
-0.0107039
-0.00893295
-0.00879709
-0.00910417
-0.00916866
-0.00796634
-0.00695114
-0.00670844
-0.00666095
-0.00652504
-0.00697677
-0.00918162
-0.0130667
-0.01432
-0.0154283
-0.0164389
-0.0172226
-0.0154042
-0.0126958
-0.0100766
-0.00875438
-0.00839182
-0.00786117
-0.00779365
-0.00791914
-0.00752442
-0.00716797
-0.00715728
-0.00722842
-0.00783581
-0.00884131
-0.0127455
-0.0142723
-0.0157647
-0.0172218
-0.0186007
-0.0196925
-0.000507422
-0.0036758
-0.00745261
-0.00814863
-0.00788607
-0.00741964
-0.00704915
-0.00720962
-0.00722696
-0.00781757
-0.00831881
-0.00911647
-0.0101498
-0.0114051
-0.0128452
-0.0144636
-0.016201
-0.0179852
-0.0197556
-0.0212426
-0.00229418
-0.00302579
-0.00645159
-0.00786075
-0.00773789
-0.00737294
-0.00693396
-0.00710522
-0.00723444
-0.0076383
-0.00827484
-0.00913596
-0.0102547
-0.0115935
-0.0131277
-0.0148118
-0.0166008
-0.0184197
-0.0202298
-0.0217976
-0.0155594
-0.00549666
-0.00734422
-0.00769602
-0.00745016
-0.00719097
-0.00720614
-0.0072965
-0.00759096
-0.00806653
-0.00876697
-0.0096752
-0.0107614
-0.0120206
-0.0134635
-0.0150645
-0.0168127
-0.0186261
-0.0204392
-0.0220666
-0.000676941
-0.00335645
-0.00696839
-0.00808114
-0.0075036
-0.00744399
-0.00756035
-0.00784584
-0.00829044
-0.00882909
-0.00958937
-0.0104552
-0.0114874
-0.0126319
-0.0139364
-0.0153941
-0.0170328
-0.0188429
-0.0207542
-0.0226633
-0.000925557
-0.00370201
-0.00684967
-0.00756681
-0.00750838
-0.00756414
-0.00793983
-0.00819635
-0.00869233
-0.0090941
-0.00978345
-0.0105263
-0.0114687
-0.0125172
-0.0136998
-0.0149999
-0.0164361
-0.0180121
-0.0197331
-0.0215053
-0.00100709
-0.00329161
-0.00508002
-0.00652169
-0.00719798
-0.00743596
-0.00809684
-0.00854837
-0.00931595
-0.0098061
-0.010366
-0.0108305
-0.0114135
-0.0121761
-0.0132515
-0.0146746
-0.0164153
-0.0183917
-0.0204284
-0.0224456
-0.00352274
-0.00539531
-0.00486551
-0.0052047
-0.00568389
-0.00569952
-0.00570685
-0.00616583
-0.00711394
-0.0084532
-0.00993214
-0.0111871
-0.0120813
-0.0125532
-0.0128987
-0.0134895
-0.0146738
-0.0162687
-0.0186838
-0.0220424
-0.0377795
-0.0244821
-0.0265725
-0.0322013
-0.0339591
-0.0226761
-0.0241756
-0.0437223
-0.027606
-0.0325094
-0.0339572
-0.0327934
-0.0250172
-0.0292454
-0.0235601
-0.0173654
-0.0228121
-0.0200328
-0.022617
-0.0188365
-0.023935
-0.0314707
-0.025573
-0.0367552
-0.024113
-0.030368
-0.0262534
-0.0343933
-0.154163
-0.1385
-0.135744
-0.142919
-0.152109
-0.134851
-0.131808
-0.154001
-0.133505
-0.125909
-0.151116
-0.137212
-0.128487
-0.117381
-0.14469
-0.123757
-0.117787
-0.129195
-0.103681
-0.113764
-0.10361
-0.132038
-0.115714
-0.109543
-0.0960888
-0.0839853
-0.101332
-0.099888
-0.116469
-0.107575
-0.101426
-0.0832337
-0.090246
-0.100621
-0.100966
-0.100475
-0.0994473
-0.0944664
-0.0932402
-0.0976728
-0.0997664
-0.0901626
-0.0925316
-0.0934579
-0.0909222
-0.0976558
-0.0942241
-0.0853978
-0.077174
-0.0935148
-0.0902349
-0.0905401
-0.0926006
-0.0868876
-0.0772829
-0.0793278
-0.127427
-0.125117
-0.114158
-0.126773
-0.121372
-0.119123
-0.108478
-0.117451
-0.111318
-0.10558
-0.117711
-0.107698
-0.105665
-0.101058
-0.111299
-0.104584
-0.103429
-0.105518
-0.102175
-0.101071
-0.103532
-0.105296
-0.103291
-0.102234
-0.101947
-0.102824
-0.103955
-0.0991229
-0.0994054
-0.101482
-0.0979701
-0.103089
-0.100606
-0.0951809
-0.0778302
-0.094362
-0.096522
-0.0919317
-0.0978399
-0.0826162
-0.0710145
-0.0559554
-0.0900883
-0.0903637
-0.0856779
-0.0772506
-0.0715037
-0.0542636
-0.0616433
-0.089127
-0.0842647
-0.0848893
-0.0729903
-0.0789729
-0.0671045
-0.0818661
-0.112733
-0.119544
-0.111208
-0.117993
-0.109145
-0.116934
-0.110181
-0.105581
-0.109723
-0.107387
-0.106935
-0.103387
-0.108787
-0.103737
-0.10421
-0.10695
-0.104964
-0.103234
-0.102104
-0.100263
-0.079925
-0.102074
-0.103705
-0.0978508
-0.0998688
-0.0855543
-0.0719487
-0.0531611
-0.0955352
-0.0954235
-0.0879712
-0.078889
-0.0594232
-0.0490989
-0.043387
-0.0879979
-0.0856313
-0.0796928
-0.0543572
-0.0470816
-0.0435666
-0.0516626
-0.0821431
-0.0781677
-0.0770306
-0.0480384
-0.061927
-0.0572521
-0.0791579
-0.083991
-0.0791937
-0.0921738
-0.0686301
-0.0849246
-0.0860237
-0.100259
-0.106474
-0.112496
-0.108099
-0.107669
-0.104576
-0.109561
-0.106044
-0.106968
-0.107189
-0.107474
-0.104263
-0.101867
-0.105211
-0.104005
-0.104659
-0.107726
-0.106577
-0.0984824
-0.0775193
-0.102713
-0.0917376
-0.0971672
-0.105572
-0.101192
-0.0700627
-0.0554131
-0.0874521
-0.0826607
-0.0877175
-0.0993801
-0.0929995
-0.0529805
-0.0514599
-0.0834617
-0.088529
-0.07956
-0.09089
-0.0865605
-0.05289
-0.063642
-0.0904926
-0.0974662
-0.0787204
-0.0871696
-0.0998694
-0.0691936
-0.0879488
-0.10129
-0.115086
-0.0987455
-0.108694
-0.129113
-0.0939199
-0.104079
-0.118618
-0.112975
-0.0548294
-0.0416583
-0.044517
-0.0281254
-0.0224716
-0.0238296
-0.0205119
-0.0308417
-0.0416161
-0.032531
-0.0219298
-0.0239869
-0.0207573
-0.0240371
-0.0301791
-0.0314856
-0.0352201
-0.0254193
-0.0309239
-0.0257348
-0.032056
-0.0395257
-0.0384226
-0.0535846
-0.033412
-0.0419017
-0.0344363
-0.0417081
-0.0614705
-0.060121
-0.0765246
-0.0450953
-0.0553378
-0.0440812
-0.050604
-0.0851282
-0.0781879
-0.0726035
-0.0588319
-0.0669731
-0.0523751
-0.0553071
-0.0852179
-0.0700001
-0.0675168
-0.0680182
-0.0645239
-0.0554714
-0.0533086
-0.0772088
-0.0681431
-0.0682269
-0.0618033
-0.0544056
-0.0512559
-0.0421497
-0.0372516
-0.0369322
-0.0359332
-0.022934
-0.0205396
-0.0242934
-0.0221053
-0.0298046
-0.0346342
-0.035318
-0.0209384
-0.0245159
-0.022332
-0.0247842
-0.0410071
-0.0380896
-0.048278
-0.0262802
-0.032407
-0.0258565
-0.0282442
-0.0643523
-0.0503049
-0.0487232
-0.0345317
-0.0404282
-0.0286284
-0.0291133
-0.0764397
-0.0467168
-0.0389503
-0.0421543
-0.046528
-0.0294812
-0.032836
-0.0637583
-0.0375318
-0.0391267
-0.0477582
-0.0509661
-0.034922
-0.0438682
-0.0630223
-0.0415568
-0.0553693
-0.051965
-0.053536
-0.0475481
-0.0574725
-0.0686221
-0.0615615
-0.0745572
-0.0525886
-0.0440509
-0.0591912
-0.0556778
-0.0505423
-0.0572482
-0.0688844
-0.0335138
-0.0279435
-0.039569
-0.0349208
-0.043176
-0.068274
-0.0503744
-0.026924
-0.025673
-0.0327478
-0.025592
-0.0413863
-0.0422581
-0.0267323
-0.025575
-0.0249608
-0.0235991
-0.0198861
-0.0344395
-0.0242313
-0.0212982
-0.0246474
-0.0246483
-0.0196388
-0.0224393
-0.0293118
-0.0214674
-0.0249687
-0.0253322
-0.0306735
-0.0245594
-0.0343364
-0.035105
-0.0272891
-0.0405671
-0.0334884
-0.0445422
-0.0386499
-0.0532775
-0.0569668
-0.0484374
-0.0751502
-0.0487881
-0.0593581
-0.0578895
-0.064367
-0.0782465
-0.081316
-0.0866156
-0.0611106
-0.0580245
-0.062733
-0.0520662
-0.0704213
-0.0543826
-0.0687447
-0.044139
-0.0414977
-0.0451475
-0.0441638
-0.0564045
-0.0713073
-0.0636219
-0.0391127
-0.0286804
-0.0421475
-0.0320554
-0.0270775
-0.0553808
-0.0328407
-0.0256768
-0.0208774
-0.0290855
-0.0254454
-0.0224596
-0.0298521
-0.0306485
-0.0206935
-0.0240829
-0.0259658
-0.0324427
-0.0279278
-0.0331763
-0.047714
-0.0264488
-0.0371025
-0.036331
-0.0515848
-0.0483489
-0.0558744
-0.0833499
-0.041787
-0.0571982
-0.0578895
-0.0729024
-0.0831002
-0.0914429
-0.101813
-0.0617331
-0.0644015
-0.0742717
-0.0603476
-0.0849098
-0.097794
-0.0708359
-0.0605941
-0.0466356
-0.0519387
-0.0330362
-0.0173262
-0.0148839
-0.016535
-0.0135372
-0.0169032
-0.0135816
-0.0166393
-0.0228507
-0.0173787
-0.0213945
-0.0190015
-0.0242581
-0.0182049
-0.0241599
-0.0310986
-0.0232546
-0.0300168
-0.0260447
-0.0320339
-0.0263525
-0.0325001
-0.042203
-0.0325121
-0.0398433
-0.034264
-0.0407955
-0.0341486
-0.0371234
-0.054591
-0.0421054
-0.0478716
-0.0425922
-0.0458756
-0.0374077
-0.0362403
-0.0629339
-0.0492658
-0.0506076
-0.0458787
-0.0414962
-0.0350183
-0.0289513
-0.0563596
-0.0500311
-0.0448793
-0.0387295
-0.0298115
-0.0263974
-0.019186
-0.0459561
-0.0419147
-0.0325219
-0.0277156
-0.0249645
-0.0172863
-0.0141135
-0.0162342
-0.0151695
-0.0166888
-0.0135939
-0.0165676
-0.0132046
-0.0150512
-0.0211823
-0.0173123
-0.020041
-0.0180658
-0.0236714
-0.0159655
-0.0190722
-0.0295859
-0.0210891
-0.0237173
-0.0256789
-0.030948
-0.0200466
-0.022112
-0.0310852
-0.033939
-0.0303962
-0.0316138
-0.0319981
-0.0335324
-0.0295915
-0.0357432
-0.0410173
-0.0359541
-0.0383448
-0.0370894
-0.0395842
-0.0347444
-0.0474206
-0.0349975
-0.0441939
-0.0319682
-0.0278558
-0.0308703
-0.0328224
-0.0462944
-0.047491
-0.0540888
-0.0259762
-0.019791
-0.0323965
-0.0279191
-0.0339976
-0.0541366
-0.045938
-0.0178485
-0.0140245
-0.0255035
-0.0185609
-0.0205817
-0.0227313
-0.0240089
-0.0155974
-0.0151699
-0.0169909
-0.0151779
-0.0199485
-0.023056
-0.0182661
-0.0154363
-0.0169276
-0.0147722
-0.0147492
-0.0204092
-0.0169664
-0.0164568
-0.017524
-0.0191987
-0.0151855
-0.017637
-0.019684
-0.0216135
-0.0184466
-0.0202867
-0.0192484
-0.0209914
-0.0184722
-0.0276224
-0.0268059
-0.0239851
-0.0250181
-0.0264308
-0.0270196
-0.0250738
-0.0457089
-0.0413094
-0.0545784
-0.0326069
-0.0362563
-0.0367982
-0.0389435
-0.0561977
-0.0576646
-0.0574147
-0.0360809
-0.0310439
-0.0373268
-0.0274661
-0.0481791
-0.0539313
-0.0416298
-0.0281724
-0.0202046
-0.0240784
-0.0178883
-0.0298203
-0.0276482
-0.0319558
-0.0210894
-0.0175136
-0.0218657
-0.0185167
-0.0208662
-0.0311484
-0.023771
-0.0164834
-0.0152823
-0.0174313
-0.0169167
-0.0170269
-0.0215464
-0.0202085
-0.0156315
-0.0184182
-0.017819
-0.0228494
-0.0239809
-0.0218462
-0.0311977
-0.0198763
-0.0259781
-0.0252442
-0.0331749
-0.0392875
-0.0356767
-0.0508593
-0.0285847
-0.0366409
-0.0356291
-0.0394687
-0.0574904
-0.056019
-0.0643547
-0.038595
-0.0383573
-0.0390732
-0.0314182
-0.0552661
-0.0627066
-0.044267
-0.035722
-0.0240852
-0.0270259
-0.015765
-0.0363288
-0.0363072
-0.0215087
-0.020773
-0.015821
-0.013496
-0.0108179
-0.0171765
-0.0148662