/*--------------------------------*- C++ -*----------------------------------*\
  =========                 |
  \\      /  F ield         | OpenFOAM: The Open Source CFD Toolbox
   \\    /   O peration     | Website:  https://openfoam.org
    \\  /    A nd           | Version:  10
     \\/     M anipulation  |
\*---------------------------------------------------------------------------*/
FoamFile
{
    format      ascii;
    class       volVectorField;
    location    "5.8";
    object      U_0;
}
// * * * * * * * * * * * * * * * * * * * * * * * * * * * * * * * * * * * * * //

dimensions      [0 1 -1 0 0 0 0];

internalField   nonuniform List<vector> 
12920
(
(243.842 -135.309 159.207)
(109.247 -5.93526 11.4912)
(169.127 23.1058 2.65703)
(110.329 6.72166 1.87738)
(139.763 11.7793 0.107228)
(114.091 5.1169 -2.47695)
(131.869 12.5532 -4.25598)
(121.244 11.0459 -4.40684)
(128.213 13.4381 -3.47186)
(120.207 12.0306 -2.69783)
(122.2 11.1783 -1.7443)
(116.152 8.87632 -1.17836)
(117.122 5.64744 -0.0338992)
(112.584 0.992404 0.486182)
(114.108 -1.4852 0.459536)
(113.696 -4.23796 0.612372)
(115.873 -5.3217 0.0211258)
(119.905 -8.44132 -0.456945)
(126.382 -7.01283 -0.680453)
(127.87 -2.87129 0.000870334)
(276.176 41.8439 136.345)
(146.359 -4.30948 24.8285)
(176.523 9.64127 22.6078)
(94.1864 11.6761 7.12387)
(117.167 19.3966 9.07991)
(62.452 14.428 1.12376)
(96.2325 19.4886 0.625112)
(76.6306 12.9467 0.0317195)
(92.9582 11.6489 1.24561)
(81.7205 4.95247 1.51675)
(87.208 1.94335 1.9723)
(80.2055 -1.9585 1.53132)
(82.899 -2.42952 0.898475)
(80.4802 -2.72332 -0.0587877)
(82.8074 -2.25655 -0.591822)
(82.9372 -1.51913 -1.10659)
(84.6846 -0.971764 -1.27484)
(86.4124 -0.616756 -1.95527)
(87.9236 1.67474 -2.47454)
(90.815 2.28676 -1.5395)
(208.839 -77.5697 121.015)
(20.9491 -61.2113 14.9678)
(124.043 -22.8691 4.60473)
(57.4076 -6.67614 0.731109)
(105.951 9.78811 2.4858)
(62.9519 8.58604 0.733613)
(92.2059 8.5373 1.22614)
(70.5 6.67173 0.460906)
(86.0743 4.03899 0.858411)
(74.0502 3.3833 0.452844)
(79.9527 2.18939 0.610477)
(72.1692 2.37056 0.170277)
(74.8665 1.68517 0.0313327)
(71.9151 1.3245 -0.246073)
(74.5328 0.754614 -0.287444)
(74.5845 0.11671 -0.290463)
(76.5876 -0.272896 -0.232449)
(78.2886 -0.822919 -0.251951)
(79.0447 0.0607661 -0.0690033)
(79.5348 0.822587 0.330787)
(-59.1979 -116.034 -154.05)
(-175.143 4.40685 -43.3031)
(96.5209 30.2797 -23.794)
(15.7564 14.9603 -1.55741)
(102.788 28.035 -0.498897)
(53.935 16.5528 -0.604706)
(93.173 14.9054 -0.121805)
(68.4558 9.83612 -0.742462)
(83.8986 6.09783 0.0984408)
(68.7393 4.24506 0.0521345)
(73.9801 1.84724 0.464313)
(65.8253 0.631216 0.23294)
(69.2847 -1.06138 0.202722)
(66.9409 -1.65364 0.0858049)
(69.6758 -2.5784 0.123806)
(69.862 -2.5101 0.147793)
(71.6152 -2.87632 0.1892)
(73.1629 -2.47378 0.0932253)
(73.2313 -1.9608 0.0183929)
(73.5403 -1.7561 0.189259)
(22.1404 -79.8676 -45.8434)
(-114.503 -99.4674 -12.0365)
(99.7533 -68.5443 -0.341594)
(-7.3753 -27.8365 3.51221)
(96.4446 -11.9521 3.22123)
(45.9048 4.58776 0.761601)
(91.1205 3.27618 1.02688)
(66.7117 12.0138 0.0354378)
(83.3175 6.20691 0.558088)
(69.6568 9.73543 0.150726)
(76.4067 3.89554 0.276828)
(70.0553 4.4968 -0.00785013)
(74.5552 0.0562658 0.0636278)
(72.8895 -0.303438 0.0297118)
(76.2421 -2.53204 0.250543)
(76.2492 -2.97944 0.226832)
(77.8175 -4.024 0.269722)
(78.5038 -3.50555 0.193878)
(78.363 -3.07643 0.0745265)
(77.5797 -2.48909 0.138676)
(82.3505 29.4767 11.3064)
(-28.4148 -33.0218 -8.61658)
(136.962 -27.2881 -16.4429)
(46.9533 -18.2688 -0.709067)
(111.767 -21.7917 1.76655)
(42.6227 5.11908 1.51643)
(88.7693 -1.08525 0.912832)
(61.6631 10.169 0.311376)
(77.6291 4.31807 0.256168)
(67.7112 6.92783 -0.00753235)
(74.9179 2.06151 -0.17199)
(72.5866 0.703524 -0.454462)
(77.8683 -3.52155 -0.48497)
(79.3865 -4.51662 -0.414894)
(83.7232 -6.56764 -0.0509623)
(84.2314 -5.87693 0.327205)
(84.4955 -6.25024 0.598062)
(84.2704 -5.08594 0.538949)
(82.1206 -4.16993 0.341393)
(79.826 -3.46425 0.294967)
(208.557 -130.994 -179.329)
(25.4353 -131.035 -5.64281)
(153.283 -61.0135 -4.33802)
(100.897 -17.6075 -4.34186)
(145.334 -12.1381 1.30197)
(82.2971 7.82444 1.34606)
(96.4113 -15.8313 2.37465)
(70.2993 16.1327 0.834467)
(82.6749 0.145334 0.122424)
(75.719 10.3458 -0.334054)
(84.022 0.338469 -0.747029)
(85.1113 2.46619 -0.840363)
(93.0403 -4.69528 -0.54183)
(99.1386 -5.3765 -0.199902)
(103.942 -7.35864 0.19871)
(103.592 -6.41958 0.435428)
(100.58 -7.67393 0.907132)
(94.5781 -5.17057 0.868953)
(88.4781 -3.20694 0.642575)
(84.2341 -3.18493 0.369829)
(154.137 -66.6407 -37.4404)
(84.44 -99.8514 -20.8152)
(184.59 -63.7776 -18.7096)
(155.174 -23.0174 -12.3097)
(181.028 -1.56437 0.982385)
(116.486 34.6987 2.19206)
(117.351 10.9662 0.314599)
(70.7461 1.91002 -0.149294)
(79.2693 7.01441 -0.549071)
(73.8597 0.0593222 -0.780071)
(83.9827 1.05204 -1.16408)
(88.7204 -5.10683 -0.920655)
(98.3409 -10.8279 -0.0720582)
(102.69 -17.6878 0.691224)
(102.986 -12.3631 -0.53909)
(104.466 -6.13598 -0.280387)
(98.902 -2.84396 0.504593)
(90.4271 0.890863 0.986788)
(84.0911 0.151272 0.164467)
(82.3685 -2.30229 0.102914)
(341.393 132.843 165.204)
(86.4026 5.19005 -8.78092)
(170.888 21.787 -24.2942)
(98.3264 23.2522 -11.2272)
(122.393 24.2093 5.11025)
(79.4646 35.0143 0.28224)
(95.4486 31.1206 3.4705)
(80.1806 13.7246 0.0818867)
(78.278 7.90137 -0.312594)
(80.2907 2.95846 -0.49957)
(87.4297 -0.182996 -0.82706)
(97.0222 -9.2732 -0.630107)
(98.3819 -15.3252 0.471915)
(86.4887 -23.7129 0.306379)
(89.2353 -18.8794 0.0684219)
(88.2098 -2.34499 -0.889984)
(85.3936 2.36179 -0.191782)
(83.8208 3.52878 -0.13492)
(82.4397 1.67177 -0.476262)
(83.6651 -3.27691 -0.14265)
(166.136 4.49955 12.9273)
(22.8697 52.4824 -9.46799)
(158.178 74.6427 -0.925966)
(71.2211 40.0927 -0.989781)
(120.433 35.4847 5.44478)
(69.2062 21.0155 -0.593739)
(87.0756 22.835 -0.0414379)
(98.6329 14.7686 -0.235729)
(106.008 9.8641 -0.133379)
(109.345 6.92389 -0.0543267)
(111.625 1.97201 -0.0481655)
(100.508 -4.93717 0.71569)
(92.2402 -4.88506 -0.294471)
(93.2321 -15.2051 -0.552554)
(92.0476 -12.1896 -0.288904)
(86.1406 1.55145 -0.343001)
(85.1107 3.35697 -0.101286)
(85.6192 3.88112 -0.416594)
(86.0178 0.901505 -0.443596)
(86.2 -4.07554 -0.177156)
(366.38 -48.84 66.6927)
(72.3419 66.3572 28.2956)
(163.647 79.2916 9.38828)
(26.3565 46.3398 2.51926)
(108.051 20.1 4.78196)
(57.9218 17.8344 -0.443465)
(87.6772 11.3757 0.357508)
(100.562 8.39852 -0.320188)
(101.878 7.33 -0.0590888)
(99.8517 2.66534 0.0287379)
(99.0815 -1.14811 -0.00324896)
(100.651 -2.94149 -0.167484)
(103.725 -1.96262 -0.418448)
(105.632 -10.9304 0.138676)
(93.1057 -5.99046 -0.110187)
(88.0299 3.26938 -0.313959)
(87.8939 4.62108 -0.236618)
(88.6952 4.2521 -0.285372)
(88.3211 1.28568 -0.093487)
(86.2489 -3.42749 -0.0219292)
(189.886 -56.7247 189.226)
(63.9613 102.078 3.74477)
(157.467 79.4009 8.52925)
(88.112 41.2478 3.35452)
(146.068 13.7229 3.62486)
(99.8312 -2.44323 -0.081214)
(118.743 -8.53148 1.33742)
(103.782 -4.14301 0.130192)
(102.886 5.88421 -0.217664)
(104.717 6.03907 -0.436456)
(107.675 1.6126 -0.3761)
(108.749 0.65505 -0.279192)
(109.494 -0.552717 -0.0792526)
(98.4108 -10.2545 1.07756)
(83.519 -2.49718 -0.438259)
(82.7057 3.89038 -0.240333)
(84.5827 4.52611 0.0637009)
(86.4469 3.76782 0.272408)
(86.4313 1.51211 0.26633)
(86.0315 -2.52629 0.111842)
(30.6851 -177.816 -90.7271)
(-92.3767 46.2116 14.466)
(127.14 37.4862 8.61115)
(47.3248 9.82811 3.75094)
(136.028 11.3809 3.21323)
(97.8623 -27.7251 0.252778)
(124.918 -8.83483 -0.470309)
(101.267 3.43776 -0.221201)
(110.822 12.5384 -0.115645)
(106.092 7.58728 -0.0888211)
(110.415 3.53572 0.0804729)
(107.481 0.917689 0.217225)
(99.9135 -2.52525 1.3976)
(80.7939 -1.70712 0.894271)
(75.9279 0.0250112 0.0142847)
(78.3194 0.653639 0.0897258)
(80.2538 0.189924 0.19272)
(83.3685 -0.480919 0.322291)
(83.9284 -1.71696 0.249659)
(85.6552 -4.00406 0.145956)
(84.655 -49.6463 65.2487)
(-30.7276 -94.0126 17.5153)
(133.864 -52.4385 -2.22921)
(22.0939 -23.6568 -2.02333)
(123.144 -23.375 -2.54852)
(61.4892 -18.0171 -2.93889)
(100.408 20.936 -1.05309)
(77.2205 -2.8007 -0.0128511)
(95.1981 12.5978 0.291301)
(86.2041 -0.74769 0.189638)
(91.4868 4.99971 0.621074)
(83.8593 0.13775 0.755176)
(84.3045 2.7012 0.737935)
(81.6824 -0.724297 0.44643)
(83.406 -0.152475 0.479181)
(83.6481 -1.59306 0.461564)
(86.1166 -2.13651 0.527969)
(88.3928 -2.79422 0.467873)
(89.3102 -3.75263 0.258848)
(91.3784 -5.13928 0.266209)
(162.619 219.499 55.8295)
(-59.1452 38.7622 -29.4211)
(183.76 19.1581 -27.4413)
(72.9259 4.46969 -7.84305)
(129.914 -1.51266 -3.11433)
(65.5163 -9.33346 -1.24728)
(100.625 5.94555 0.107683)
(74.3793 0.413595 0.42513)
(89.9871 6.09169 0.303581)
(78.8285 1.20576 0.468581)
(85.0151 2.52513 0.293848)
(81.5008 0.0198679 0.285299)
(85.4183 0.491804 0.13)
(85.172 -2.25548 -0.0816026)
(88.9576 -3.87583 -0.362005)
(90.4643 -4.9929 -0.369635)
(93.3677 -6.77992 -0.314388)
(96.0927 -7.14077 -0.0201535)
(97.2056 -7.58197 0.128435)
(99.2306 -7.35301 0.30464)
(18.2251 -128.236 87.3529)
(-57.7716 75.0041 -41.5798)
(184.815 23.5927 -21.0899)
(73.5374 20.8538 -4.48561)
(142.103 20.4068 1.09949)
(70.6029 7.836 -0.246514)
(103.908 14.3939 2.25409)
(70.9041 2.9487 0.206021)
(92.6258 7.30068 0.466836)
(79.7367 -0.213771 -0.0376543)
(90.2629 0.710081 0.0271921)
(86.0818 -2.55706 -0.274783)
(91.789 -1.6102 -0.29687)
(91.6635 -3.6748 -0.648808)
(95.4365 -3.0494 -0.737248)
(96.3491 -4.17441 -0.938961)
(100.17 -6.01569 -0.99823)
(103.514 -7.7763 -0.624675)
(105.058 -9.22912 -0.206396)
(107.252 -8.47073 0.260295)
(28.5986 -65.0254 -67.5613)
(-100.89 -2.98076 -10.0063)
(156.118 -5.56305 -16.5026)
(70.0341 9.38741 -2.67298)
(135.331 9.94572 0.954934)
(79.1287 9.242 0.107931)
(107.877 6.47413 0.385589)
(79.2604 4.61129 -0.701305)
(99.4181 1.09226 -0.573382)
(89.9194 0.897021 -0.331687)
(100.907 -0.607615 0.315895)
(98.8127 -0.846834 0.471361)
(103.99 -1.61625 0.488923)
(103.171 -2.58823 0.0319403)
(105.267 -3.47585 -0.534171)
(105.9 -4.93296 -1.36383)
(109.627 -8.42297 -1.45234)
(112.465 -10.4009 -0.966559)
(113.271 -12.1052 -0.305352)
(114.008 -10.7656 0.161095)
(30.0161 -174.647 -125.17)
(-41.8199 -16.1672 -41.8047)
(179.534 22.6889 -20.6394)
(89.1641 29.7902 -4.89655)
(158.322 36.6803 -0.583189)
(117.011 30.7989 -2.08318)
(149.41 22.3496 -0.934924)
(138.131 12.901 -1.94032)
(157.597 3.77719 -0.701607)
(153.135 -2.99382 -0.466827)
(159.599 -8.0322 0.215217)
(154.242 -9.28726 0.163918)
(152.358 -7.4468 0.740046)
(144.15 -4.7939 0.642177)
(139.181 -1.85152 0.540914)
(131.415 -1.33539 0.00334919)
(127.459 -4.52427 -0.414522)
(123.958 -7.40272 -0.433399)
(122.406 -10.5504 -0.383459)
(121.193 -9.91766 -0.174469)
(103.442 -37.1086 -173.316)
(46.2183 3.67169 -29.4107)
(183.946 -0.739972 -12.0637)
(115.423 13.5567 -1.55374)
(171.556 14.9631 2.91426)
(143.716 13.3932 3.15745)
(163.777 4.19349 4.42217)
(148.806 0.469413 3.42736)
(155.543 -3.58627 3.70684)
(144.943 -2.016 2.63896)
(145.484 0.0643188 2.12112)
(138.675 3.73953 1.33281)
(138.581 5.80541 0.826348)
(135.904 7.26107 0.0112138)
(134.717 7.83184 -0.123477)
(130.75 7.61532 0.00875009)
(128.038 2.78247 -0.307832)
(124.599 -3.41925 -1.44617)
(124.658 -8.30253 -2.21294)
(125.256 -8.14301 -0.956605)
(-8.60884 5.17844 114.743)
(-12.0269 45.7817 -57.2211)
(188.486 38.4236 -5.98047)
(113.095 20.5063 -0.0862633)
(181.469 18.3395 0.596085)
(153.904 8.62062 -0.16976)
(176.073 2.17206 -0.452566)
(163.37 -3.18949 -1.72516)
(170.855 -7.4082 -1.79466)
(162.756 -9.74458 -2.20578)
(164.235 -11.0731 -1.66488)
(158.84 -10.795 -1.30836)
(158.472 -8.4667 -0.18921)
(153.399 -1.72865 1.14297)
(152.874 4.8214 2.21642)
(151.555 7.24647 2.18278)
(152.289 7.65448 1.58466)
(151.891 7.00919 0.726686)
(151.549 1.38442 -0.330546)
(146.581 -4.32505 -1.27993)
(372.048 -23.1478 -64.1419)
(188.31 18.5103 2.41941)
(199.628 20.3382 1.98456)
(128.946 0.274102 -3.44424)
(151.216 7.36524 -6.3102)
(127.407 -0.287942 -7.21706)
(142.064 6.25923 -7.49605)
(129.563 4.54021 -6.58267)
(132.75 6.98687 -4.13513)
(120.748 5.0751 -3.18338)
(120.032 3.9821 -0.848728)
(112.258 1.70923 -0.334391)
(113.169 0.672181 0.642339)
(111.215 -0.36602 0.882548)
(112.741 -0.820957 0.824756)
(113.094 -1.64992 0.613695)
(115.17 -2.188 0.15433)
(118.206 -1.69619 -0.689998)
(118.681 1.14536 -1.29619)
(114.128 2.63859 -0.56309)
(117.106 116.568 68.6518)
(-66.6971 45.0635 12.3354)
(144.947 17.9578 21.6055)
(25.3344 9.30729 7.87076)
(101.544 16.6471 10.2035)
(48.1203 8.47915 -1.54451)
(89.4618 13.7748 -0.228104)
(67.437 6.91793 -0.347418)
(85.272 6.78109 2.70148)
(73.4987 1.57203 2.65079)
(80.8871 0.731893 3.12885)
(75.059 -1.36729 1.86668)
(78.8752 -0.813538 0.874241)
(76.7158 -0.894919 -0.502183)
(78.8871 -0.37987 -1.16819)
(78.5488 -0.349683 -1.82413)
(79.7413 -0.196827 -2.15156)
(80.5978 -0.069718 -2.93999)
(80.8353 0.940635 -3.17312)
(80.3165 0.953533 -1.53428)
(149.605 -114.853 105.491)
(-56.3609 0.038272 3.43633)
(110.369 -1.14475 -3.23437)
(25.6019 2.30754 -1.36425)
(91.626 8.01511 2.6171)
(45.1385 5.91798 0.34915)
(81.3615 5.36609 1.81607)
(57.2317 4.87802 0.654686)
(75.2118 3.23212 1.73198)
(61.8673 3.46482 0.769136)
(69.9357 2.25025 1.01258)
(62.853 2.16127 0.0967702)
(67.0864 1.10652 -0.0913397)
(64.4804 0.575227 -0.494104)
(67.4027 -0.168258 -0.452649)
(67.214 -0.763275 -0.485626)
(69.006 -1.18438 -0.377719)
(70.1199 -1.51548 -0.415447)
(70.5219 -0.82678 -0.328107)
(70.6781 -0.106771 0.341861)
(53.3251 -56.0347 -54.7262)
(-91.5072 19.7532 -35.5537)
(80.5737 31.6984 -23.5454)
(-2.61168 14.1973 -1.26371)
(88.8489 24.5506 -1.33464)
(33.385 12.4622 -1.49523)
(78.7761 10.741 0.365225)
(49.2975 7.02361 -0.945456)
(69.285 3.8832 0.820402)
(54.1391 3.01511 0.205153)
(63.7206 0.943318 0.773151)
(57.1704 0.321676 0.217165)
(62.4444 -1.12137 0.235884)
(60.4888 -1.49353 0.0529786)
(63.5418 -2.30065 0.139288)
(63.5805 -2.24142 0.133498)
(65.2797 -2.54481 0.19001)
(66.4957 -2.18465 -0.00211533)
(66.5428 -1.8318 -0.217525)
(66.4809 -1.53048 0.129327)
(-13.3313 -24.0593 -138.412)
(-98.054 -60.4296 -28.6139)
(81.0637 -46.9538 -8.54605)
(-31.2337 -19.6328 4.61022)
(86.9993 -10.9066 2.6584)
(25.9245 2.02949 0.671381)
(78.1195 -1.85293 1.93724)
(49.3555 7.6038 0.0516698)
(70.1626 1.04048 1.01633)
(55.9477 6.12802 0.128228)
(65.4159 0.556027 0.347612)
(59.3397 2.28938 -0.129302)
(64.8732 -1.64332 0.139167)
(63.1021 -1.1034 0.0432108)
(66.54 -2.95417 0.410398)
(66.5085 -2.75187 0.320583)
(68.0621 -3.55927 0.397492)
(68.768 -3.03691 0.270505)
(68.7498 -2.86958 -0.0496534)
(68.1857 -2.41904 0.0896239)
(170.508 -7.99063 -35.8176)
(59.0197 -3.58505 -1.2227)
(131.374 -11.2603 -9.80986)
(30.8719 -7.59315 2.43224)
(98.9997 -12.7125 3.91762)
(26.6133 8.91225 1.60989)
(79.3991 -3.04695 1.31887)
(49.4873 8.21186 0.478688)
(67.683 1.14109 0.393862)
(56.7756 4.74432 -0.147)
(64.8038 -0.496532 -0.262442)
(62.242 -0.677699 -0.529411)
(67.3858 -4.27208 -0.378822)
(67.9752 -4.17552 -0.208079)
(70.7212 -5.10666 0.188664)
(71.1513 -4.15599 0.61842)
(72.0196 -4.5363 0.975065)
(72.3066 -3.65441 0.731673)
(71.4442 -3.53495 0.376786)
(70.2077 -3.16405 0.344497)
(178.065 -36.4729 -89.1266)
(51.2203 -62.291 2.7743)
(137.547 -26.3086 9.51613)
(46.6003 -2.96222 -0.420997)
(109.834 -4.06214 6.90757)
(42.5357 11.5841 1.80476)
(75.4965 -19.9432 3.81483)
(51.8054 14.8016 1.16971)
(67.6543 -4.44563 0.0957365)
(60.5472 7.08398 -0.567531)
(70.1529 -4.17514 -1.07596)
(70.3394 -1.65477 -0.790794)
(77.8903 -7.8484 -0.211938)
(80.4646 -6.00798 0.317294)
(83.0723 -6.59923 0.543842)
(81.8389 -4.81984 0.690076)
(80.036 -5.1738 1.53854)
(77.6695 -3.32282 1.19156)
(75.1922 -3.02683 0.748948)
(73.3639 -3.19554 0.470804)
(215.015 -1.52653 -194.88)
(85.0044 -40.7962 -74.1898)
(162.84 -29.6379 -28.7434)
(85.0937 -7.93526 -9.75942)
(130.526 1.23684 5.25409)
(71.4266 34.462 2.85621)
(90.6246 4.96577 5.57572)
(57.862 1.78989 1.43849)
(67.0315 1.2368 -0.0375644)
(63.3264 -4.11739 -1.28097)
(73.1248 -5.45724 -1.65768)
(77.3166 -12.1684 -0.58956)
(85.5966 -15.6197 0.891527)
(88.3288 -16.3846 1.64291)
(86.1313 -6.94167 -1.17576)
(84.3425 -2.26781 -0.0844187)
(79.2818 -0.74665 1.07646)
(77.0311 0.152757 1.18665)
(74.5974 -1.37778 0.0521611)
(74.0108 -3.13998 0.13774)
(343.404 34.2047 -108.677)
(160.51 -1.6216 -29.1074)
(160.739 8.10526 -11.21)
(36.3346 2.36387 -4.65409)
(88.9259 13.5865 8.99195)
(58.6006 29.089 1.79177)
(84.04 27.442 3.96765)
(69.7191 7.10338 2.18109)
(72.7912 1.12588 -0.303157)
(75.1737 -5.46175 -1.70925)
(81.5233 -9.92875 -1.58675)
(85.0093 -15.9249 0.465168)
(84.9064 -17.065 1.82058)
(82.8714 -17.5602 0.27811)
(82.4445 -10.8803 -1.26557)
(77.2242 -0.381141 -1.23862)
(75.6393 1.32682 -0.248008)
(75.3278 1.2185 -0.275161)
(74.8796 -1.97147 -0.73349)
(75.3213 -4.49064 -0.248783)
(241.987 -45.0164 -38.3048)
(-10.6244 22.1109 -25.8788)
(147.131 53.6362 -5.55855)
(29.8859 19.9869 0.605679)
(105.865 22.2191 7.50596)
(65.9283 15.224 -0.124611)
(82.9188 21.3 1.57516)
(89.2807 9.51294 0.689988)
(91.8765 2.12248 -0.101718)
(93.1848 -3.73136 0.156289)
(92.1614 -7.92247 0.518789)
(87.2314 -8.42986 1.04303)
(84.5909 -9.45049 -1.52447)
(83.5624 -13.8965 -1.21177)
(82.145 -5.8909 -0.632628)
(77.5211 1.14742 -0.722048)
(77.2994 1.21575 -0.39832)
(78.0125 0.330194 -0.666188)
(77.7905 -3.47793 -0.62327)
(76.7109 -5.03984 -0.318281)
(146.127 -111.333 -96.8256)
(-103.638 51.1698 40.9544)
(133.006 36.9544 -5.80077)
(-13.0157 20.0462 4.9936)
(95.5147 7.07293 4.96853)
(54.4016 11.5584 0.639988)
(84.3312 7.96501 2.37438)
(93.4407 2.02325 1.00748)
(94.3212 0.360745 0.4451)
(92.6088 -2.79085 0.390982)
(91.9297 -5.43343 -0.314177)
(92.4957 -5.94046 -1.31254)
(93.0947 -8.14462 -1.71841)
(90.5154 -13.8164 1.6201)
(84.9495 -2.20502 -0.214865)
(80.1154 1.7974 -0.68564)
(79.8545 1.5604 -0.36389)
(79.8158 -0.388243 -0.215977)
(78.3872 -3.05238 -0.147798)
(76.2223 -4.63024 -0.151739)
(176.2 -9.53765 56.3807)
(-37.8959 33.2205 12.5121)
(143.362 23.4189 8.16791)
(66.4496 12.8449 2.99499)
(123.572 -1.52131 2.9086)
(92.5819 -4.43486 -1.99173)
(111.78 -7.90902 0.308006)
(106.181 -5.24531 4.08588)
(98.8554 -0.946362 0.860768)
(95.745 -1.04702 -1.14453)
(94.4709 -3.62255 -1.45475)
(93.0399 -5.13298 -0.875361)
(90.9427 -8.74216 1.06781)
(83.3432 -8.89076 2.75502)
(77.9198 -0.94064 -0.769114)
(75.6527 1.64642 -0.423389)
(76.8869 0.986352 0.253101)
(77.6493 -0.00347208 0.427689)
(77.2197 -2.02189 0.224456)
(76.237 -3.89398 -0.0276063)
(-39.2791 -79.0525 -46.1764)
(-129.614 1.73286 14.1679)
(113.203 13.7023 4.01228)
(23.962 8.96891 4.97745)
(119.017 16.6253 5.36397)
(73.2499 -25.1591 1.1517)
(106.949 -4.07718 2.40665)
(82.3469 1.29189 1.58776)
(92.3738 4.29259 0.69661)
(85.3458 -0.0867438 -0.233105)
(89.3017 -2.22593 0.104847)
(83.7239 -4.53978 0.855846)
(78.572 -4.50548 3.34135)
(72.232 -2.68957 1.56692)
(70.7255 -0.993856 -0.0810732)
(72.9561 -0.76873 0.136056)
(73.9694 -1.58184 0.313662)
(75.9304 -2.07901 0.473289)
(75.9795 -3.18087 0.178442)
(76.3428 -4.55583 0.0134897)
(26.5286 -89.7096 -101.448)
(-26.5695 -105.596 -39.5368)
(112.874 -59.4867 -13.4869)
(5.03617 -20.8677 -4.5756)
(112.744 -20.9667 -3.2193)
(40.6509 -19.0081 -3.05907)
(84.2658 20.675 -1.1219)
(56.7326 -11.1238 0.22239)
(77.9696 7.55255 0.599997)
(66.9356 -7.08514 0.579287)
(74.7909 1.24859 1.21341)
(68.9701 -3.83619 1.09675)
(72.6787 -0.281795 1.03054)
(71.6709 -3.00237 0.56716)
(74.2091 -1.51335 0.687909)
(74.8935 -2.39716 0.598756)
(77.3484 -2.37581 0.684807)
(79.0269 -2.79366 0.611371)
(79.5621 -3.85644 0.223395)
(80.4465 -4.96304 0.211379)
(345.281 290.942 -211.946)
(79.5848 108.113 -51.1638)
(179.528 18.5658 -23.6719)
(63.1453 -6.7373 -1.90767)
(116.773 -6.86811 3.37196)
(46.3018 -13.3347 -0.270061)
(89.648 4.76375 1.03117)
(60.9283 -3.89015 0.656021)
(78.709 2.28989 0.557708)
(67.2527 -2.64858 0.669282)
(74.6597 -0.452757 0.485041)
(71.2663 -2.36766 0.375044)
(75.5328 -1.46943 0.16574)
(75.2145 -3.14422 -0.174511)
(77.9137 -3.60259 -0.414761)
(78.8301 -4.2261 -0.413625)
(80.8973 -5.23467 -0.284135)
(83.073 -5.22786 0.106118)
(83.9898 -5.86209 0.121867)
(85.3774 -5.96012 0.368865)
(136.375 -70.4925 123.24)
(-33.8078 54.1891 -4.16912)
(170.632 0.830998 -19.7362)
(29.5481 3.17153 -0.209259)
(123.574 9.57219 5.87318)
(39.9557 -0.948305 -0.386833)
(92.3686 9.04714 2.9799)
(57.7037 -3.22974 -0.20903)
(83.2698 2.35011 0.767953)
(69.5411 -4.62408 -0.204756)
(80.8894 -2.51803 0.123741)
(75.9526 -5.15929 -0.430531)
(81.5708 -4.14198 -0.378723)
(80.6924 -5.26543 -0.86955)
(83.6772 -4.77349 -0.937505)
(84.0936 -5.59088 -1.15322)
(86.5575 -6.73376 -1.04008)
(88.5126 -7.07376 -0.499243)
(89.7351 -7.52833 -0.157006)
(91.5508 -6.6933 0.470253)
(85.5277 -157.04 -140.727)
(-2.88915 -42.6909 -12.4082)
(141.933 -23.9277 -29.9005)
(44.1656 -2.22177 -4.89477)
(118.299 0.142459 1.45595)
(60.4089 1.01754 -1.45512)
(99.5948 -0.2455 -0.287923)
(72.5456 -0.662579 -1.65668)
(93.6124 -2.9332 -0.816469)
(83.0211 -2.52453 -0.468257)
(93.0151 -3.64429 0.587667)
(89.3035 -3.50983 0.525798)
(93.6792 -4.48388 0.559608)
(91.9717 -5.04451 -0.244606)
(93.4667 -6.05155 -0.815305)
(92.4237 -7.34899 -1.66888)
(93.482 -9.80464 -1.68473)
(94.3063 -10.2415 -1.0461)
(94.9432 -10.5272 -0.352387)
(96.1685 -8.26507 0.416356)
(192.07 -211.134 -64.4375)
(10.2507 -56.4302 -25.5663)
(166.693 4.57442 -25.4282)
(64.2897 13.1358 -8.18234)
(140.845 21.9535 -1.02616)
(94.1515 15.0614 -4.4689)
(130.131 7.52315 -1.35241)
(112.691 0.533765 -3.17223)
(129.241 -4.81234 -0.3921)
(120.534 -6.85732 -0.551176)
(125.525 -7.47371 0.607867)
(119.314 -6.70854 0.302745)
(119.235 -5.48729 0.916503)
(114.354 -4.17637 0.486384)
(112.656 -4.20298 0.315602)
(108.455 -5.54706 -0.46763)
(106.835 -8.61443 -0.928163)
(105.035 -9.83747 -0.744014)
(103.926 -10.8233 -0.547989)
(102.644 -8.58444 -0.0685256)
(231.146 -184.243 -33.6184)
(113.53 -67.4783 -39.5609)
(179.93 -30.4853 -5.1812)
(95.2116 -5.66012 -3.16823)
(155.931 -0.0200424 4.25722)
(122.213 1.04787 2.61406)
(146.908 -4.93091 5.59521)
(129.614 -4.16069 3.38778)
(138.467 -5.11172 4.79714)
(127.119 -1.94437 2.92136)
(129.043 -0.380875 2.82185)
(122.776 1.88395 1.53004)
(123.273 2.42764 1.18563)
(120.312 2.76039 0.0218079)
(120.115 2.28664 -0.295886)
(117.628 0.559948 -0.882004)
(118.005 -4.38644 -1.99901)
(115.491 -7.9191 -3.40082)
(113.329 -9.80611 -3.13354)
(109.665 -7.46586 -1.05715)
(257.545 60.1167 217.421)
(8.3887 30.9911 18.3121)
(189.682 26.3672 -24.2526)
(104.565 19.7927 4.18977)
(174.979 24.1612 6.54926)
(149.518 18.6161 4.05282)
(173.593 13.8309 3.70155)
(161.829 8.66189 -0.0910178)
(169.561 4.07989 0.103726)
(160.384 1.42361 -1.23969)
(160.82 -0.880862 0.0294313)
(154.443 -1.41798 0.235953)
(153.347 -1.53821 1.81038)
(150.129 0.242597 3.07136)
(150.739 2.16852 3.75351)
(151.733 3.03859 3.83195)
(153.524 1.80611 2.59924)
(151.969 -0.76064 0.653142)
(145.598 -7.49758 -0.733066)
(130.291 -5.82494 -1.11155)
(209.836 170.624 -202.093)
(148.141 30.4075 13.6375)
(188.853 6.18417 24.0454)
(141.213 -9.53195 8.14685)
(160.248 4.22878 -2.32939)
(130.96 -0.484167 -7.63877)
(139.471 6.29445 -9.07375)
(121.849 2.38577 -7.94765)
(123.963 3.77708 -3.30656)
(111.324 1.25078 -1.7321)
(111.862 1.14133 0.76938)
(106.207 0.0321147 0.577499)
(107.736 0.14343 0.873396)
(106.284 0.23116 0.619636)
(107.784 0.632218 0.412305)
(107.483 0.883357 0.060512)
(108.188 1.68216 -0.937838)
(107.216 2.71929 -1.65228)
(103.588 5.02853 -0.838878)
(95.2969 3.83562 -0.107922)
(50.6121 109.124 202.604)
(-81.2812 19.3363 -10.1506)
(122.751 15.6797 9.06105)
(-2.49904 5.18277 7.27601)
(94.3928 14.9546 5.20239)
(33.8079 5.26419 -3.78877)
(80.7134 10.9068 -2.33972)
(54.1591 3.16727 -1.65851)
(75.1604 4.04307 2.54171)
(63.2054 0.124428 2.34544)
(73.2759 0.819 2.88773)
(68.1859 -0.386977 1.32341)
(73.0101 0.485785 0.438705)
(70.6658 0.26604 -0.864142)
(72.7537 0.68021 -1.42718)
(71.7568 0.402376 -2.16429)
(72.5678 0.480538 -2.47388)
(72.3689 0.28976 -2.89387)
(71.6289 0.752047 -2.61336)
(69.7813 0.353555 -0.988163)
(80.4027 -39.4343 -3.01076)
(-79.169 -1.55052 5.95105)
(95.5619 -4.84342 -8.20824)
(3.03356 -1.67368 -0.825511)
(79.8044 3.77583 0.931237)
(28.2882 3.49763 0.0954186)
(71.4262 3.38315 1.56589)
(44.2858 3.77067 0.474721)
(65.626 2.36037 1.83896)
(51.4677 3.15231 0.589921)
(61.8131 1.94241 0.928286)
(54.8569 1.99464 -0.125687)
(60.1494 0.873358 -0.150647)
(57.3228 0.419565 -0.568284)
(60.3957 -0.374734 -0.407855)
(59.8121 -0.855323 -0.51436)
(61.4614 -1.22015 -0.34933)
(61.971 -1.36869 -0.392105)
(62.0649 -0.847119 -0.442332)
(61.9546 -0.460241 0.153864)
(76.3237 -20.8284 -43.6342)
(-67.2675 5.30146 -39.7483)
(77.7046 24.172 -29.6937)
(-11.9156 9.0185 -3.14801)
(78.4997 19.6157 -3.35291)
(15.9756 8.38658 -1.71705)
(68.0926 7.18891 0.216409)
(34.7183 4.75281 -1.01088)
(59.5347 2.14393 0.521722)
(43.8002 2.26568 0.0641599)
(56.038 0.43273 0.504728)
(49.5296 0.255583 0.104229)
(55.7804 -1.05023 0.139942)
(53.6036 -1.27343 0.007466)
(56.8482 -2.02465 0.144547)
(56.6281 -1.94402 0.061929)
(58.2791 -2.23704 0.149149)
(59.1353 -1.89648 -0.12776)
(59.1242 -1.641 -0.447391)
(59.0605 -1.31395 -0.00475453)
(76.4167 -1.34169 38.4973)
(-55.886 -45.1241 -66.7293)
(69.5494 -40.687 -3.98381)
(-44.224 -19.2151 3.59891)
(76.5504 -12.4681 1.98243)
(8.73397 -1.12365 1.02464)
(68.0904 -6.30041 1.57673)
(35.6878 4.84459 0.00675995)
(60.525 -2.16292 0.738155)
(45.3778 4.40837 0.0175074)
(56.8385 -1.21324 0.19725)
(50.401 1.44934 -0.136417)
(56.65 -2.29797 0.103349)
(54.481 -1.1466 0.0509355)
(58.0817 -2.82527 0.423537)
(57.8287 -2.36353 0.267076)
(59.5066 -3.08923 0.373205)
(60.1481 -2.56491 0.137919)
(60.2213 -2.51655 -0.29673)
(59.964 -2.07732 -0.0291546)
(143.885 -57.3647 -80.7858)
(23.5682 -24.2344 -10.9321)
(107.296 -18.7181 -0.138735)
(6.58571 -10.4197 4.13021)
(89.3066 -11.3213 4.79452)
(12.5521 7.78026 1.56847)
(71.5663 -6.68141 0.773111)
(38.5911 6.25405 0.597814)
(59.0754 -1.53281 0.183652)
(46.9663 3.28587 -0.111574)
(56.0242 -2.16126 -0.307159)
(52.7415 -1.20165 -0.391188)
(57.9268 -4.40973 -0.235906)
(57.9072 -3.36078 -0.0345981)
(60.18 -4.05691 0.319264)
(60.5464 -3.02617 0.536489)
(61.639 -3.53411 0.862063)
(62.387 -2.79959 0.551142)
(62.0358 -2.9614 0.0188314)
(61.5286 -2.64522 0.149158)
(119.82 -123.423 21.2891)
(-20.1373 -57.1536 1.22694)
(118.886 -29.7831 11.6769)
(4.49944 -9.2539 -2.13358)
(91.1312 -8.07773 5.54357)
(20.1087 9.45449 0.775875)
(63.0793 -24.3547 2.33352)
(38.493 13.9123 0.832512)
(56.9321 -8.00315 -0.595817)
(48.9369 5.45692 -0.601823)
(59.1718 -6.63926 -1.28265)
(58.0234 -2.23986 -0.543493)
(64.9892 -7.56077 0.0697795)
(65.4813 -4.5414 0.629004)
(67.3438 -4.8988 0.575933)
(65.8852 -3.19823 0.519209)
(65.7479 -3.44515 1.18482)
(65.3865 -2.61166 0.879586)
(64.5529 -2.76479 0.379797)
(63.8827 -2.8335 0.274247)
(346.977 -21.6064 -68.1006)
(155.031 -23.7552 -28.8921)
(161.116 -20.7833 -15.2568)
(55.7451 -9.31932 -6.30203)
(109.288 -3.24803 4.11069)
(50.1283 29.9288 1.86181)
(73.3841 -4.24347 4.72519)
(45.8201 1.86419 1.0124)
(56.7437 -4.11598 -0.549991)
(53.4421 -6.47841 -1.4185)
(63.0208 -9.01315 -1.54593)
(65.3594 -13.1582 -0.263903)
(72.3741 -13.9214 0.908122)
(73.429 -12.2166 1.29163)
(70.2116 -4.01598 -0.229145)
(68.262 -0.956315 0.442476)
(66.1528 -0.773154 0.904439)
(66.3441 -0.622014 0.757134)
(65.401 -1.9812 -0.209656)
(65.3532 -3.02851 0.0364088)
(167.571 7.6 -36.1529)
(68.6373 4.41675 0.423437)
(129.111 19.0459 -1.46038)
(6.8961 -0.919498 -3.38525)
(73.8088 8.80043 4.47518)
(41.882 25.0253 1.2521)
(66.5994 17.47 3.64622)
(58.1821 0.10682 1.77858)
(64.7442 -4.52807 -0.990903)
(66.2456 -10.5614 -2.06997)
(71.0994 -13.7028 -1.46634)
(72.048 -16.1364 0.422207)
(73.3607 -15.1627 1.23047)
(73.5315 -12.9888 0.0349755)
(71.969 -6.84345 -1.20813)
(66.7497 -0.259651 -0.437951)
(66.2301 0.16711 -0.116582)
(66.4402 -0.504725 -0.304172)
(66.2386 -3.29091 -0.754219)
(66.2562 -4.11429 -0.27818)
(134.65 -37.6155 -99.1997)
(-97.5492 17.6255 -5.71215)
(116.369 38.5869 -8.82185)
(-0.640976 9.37056 1.04971)
(92.9322 13.5363 4.40438)
(53.7709 10.0567 -0.00540141)
(72.6853 15.7132 2.09204)
(77.8042 3.09425 0.666871)
(79.6955 -3.74631 -0.00887686)
(79.8707 -8.42402 -0.0493946)
(78.3756 -10.4309 -0.040053)
(75.9309 -9.73126 -0.139261)
(74.1677 -10.0734 -1.29436)
(73.3975 -9.6019 -0.674887)
(71.9538 -2.91781 -0.664111)
(68.1487 0.0773058 -0.2567)
(68.2234 -0.877034 -0.197874)
(68.8116 -1.93474 -0.401511)
(68.1728 -4.45815 -0.59542)
(67.125 -4.55351 -0.311877)
(13.359 -87.494 -173.267)
(-89.9078 6.29986 14.681)
(100.801 12.3301 -20.9543)
(-34.0743 5.29236 7.01777)
(81.7386 -0.103147 2.22461)
(40.7632 6.16202 1.03421)
(72.0439 3.48697 3.15621)
(81.585 -1.93728 1.73656)
(83.5509 -4.1996 0.684432)
(81.614 -4.83481 -0.217801)
(83.7213 -8.59323 -2.75308)
(82.6421 -7.71529 -1.94253)
(79.9132 -10.9789 -0.853125)
(78.784 -9.16309 1.11112)
(74.7234 -1.07138 -0.365045)
(70.4436 -0.173651 -0.136966)
(69.9884 -1.34694 0.107818)
(69.6213 -2.6357 0.0889986)
(68.2519 -4.0769 -0.229246)
(66.6686 -4.39834 -0.19309)
(152.185 78.7203 -3.26526)
(21.5037 10.6876 14.5426)
(136.553 4.98842 2.70586)
(48.8936 1.21985 2.8556)
(105.313 -7.61878 2.36882)
(67.425 -10.6854 -2.03528)
(89.3099 -12.4297 1.07801)
(87.6956 -5.9936 3.85326)
(86.5242 -3.92446 1.25033)
(83.2877 -4.54141 -1.02591)
(80.9129 -6.42787 -1.44086)
(78.1356 -8.07305 -0.46234)
(74.8681 -9.82246 2.07606)
(73.0929 -5.59125 1.09241)
(70.6082 -1.15656 -0.566484)
(67.3376 -0.283641 0.0996015)
(68.1328 -1.28377 0.551553)
(68.1849 -1.82783 0.463282)
(67.6521 -3.1116 0.00128338)
(66.8625 -3.86074 -0.141859)
(36.0346 49.3447 -204.274)
(-140.47 3.98463 0.538375)
(100.968 18.8502 -4.79095)
(1.1239 13.7183 4.06263)
(103.945 18.0914 4.9352)
(51.4404 -27.3946 0.705356)
(87.2092 -2.07841 1.88554)
(62.6968 -1.87517 1.64879)
(76.7559 0.12034 0.60408)
(68.8271 -3.59961 -0.14776)
(73.0331 -4.95236 0.329527)
(66.0778 -6.17797 1.73607)
(66.5342 -4.52804 2.51431)
(64.7287 -3.13007 1.0583)
(63.7633 -1.69425 0.155491)
(65.6829 -1.7606 0.322892)
(65.9488 -2.41417 0.382665)
(67.1533 -2.67826 0.452248)
(66.8937 -3.47283 -0.0619652)
(67.0322 -4.21398 -0.0996275)
(132.66 -77.0017 -71.0761)
(-13.685 -76.9598 -59.3148)
(112.771 -49.7401 -14.1851)
(-8.49585 -16.8022 -4.64848)
(104.438 -19.4042 -2.39358)