/*--------------------------------*- C++ -*----------------------------------*\
  =========                 |
  \\      /  F ield         | OpenFOAM: The Open Source CFD Toolbox
   \\    /   O peration     | Website:  https://openfoam.org
    \\  /    A nd           | Version:  10
     \\/     M anipulation  |
\*---------------------------------------------------------------------------*/
FoamFile
{
    format      ascii;
    class       volScalarField;
    location    "5.4";
    object      nut;
}
// * * * * * * * * * * * * * * * * * * * * * * * * * * * * * * * * * * * * * //

dimensions      [0 2 -1 0 0 0 0];

internalField   nonuniform List<scalar> 
12920
(
0.892518
1.63862
0.860107
3.0086
1.29003
1.57355
0.976389
0.951232
0.727752
0.682617
0.564748
0.525387
0.469732
0.426591
0.363145
0.319048
0.281939
0.256299
0.235646
0.208953
3.03164
7.09312
2.31816
4.6715
2.26828
3.83602
1.52096
1.74019
1.17981
1.31102
1.04645
1.04703
0.839368
0.737835
0.590068
0.53921
0.501614
0.488693
0.48294
0.479847
0.811765
10.6953
7.09669
7.73229
3.49452
3.97107
1.8142
1.98137
1.19492
1.24693
0.900066
0.886027
0.716311
0.68364
0.604879
0.590959
0.565668
0.562442
0.556971
0.543519
0.0833067
6.77142
7.17781
7.93592
3.95433
3.55059
1.71821
1.82502
1.14922
1.1881
0.861734
0.849116
0.709129
0.706028
0.650542
0.64775
0.618614
0.601279
0.58524
0.557066
0.327787
8.45932
6.77193
7.61929
3.72474
4.24148
2.04228
2.01705
1.3028
1.28775
0.984459
0.951431
0.803592
0.784405
0.714386
0.690322
0.643063
0.612412
0.593384
0.562559
13.917
11.8146
6.25359
7.24954
3.55568
4.01294
2.24792
2.07933
1.44397
1.2917
1.02015
0.963686
0.842941
0.806411
0.731047
0.683891
0.633537
0.60447
0.590261
0.561837
3.37923
10.0184
7.31555
8.47355
4.52185
4.2148
3.14937
2.79094
1.97104
1.54224
1.19077
1.0669
0.902333
0.824405
0.707706
0.646699
0.606971
0.584491
0.57182
0.548597
11.6213
11.5894
8.81241
9.49777
4.66967
4.1074
1.09208
0.759341
0.609952
0.430798
0.289798
0.302924
0.276754
0.241495
0.783833
0.712799
0.648409
0.589387
0.554758
0.528122
11.4424
12.6707
7.55182
8.24268
3.87717
1.21585
0.442899
0.155683
0.0663446
0.0836796
0.100168
0.128473
0.104188
0.0707664
0.237886
0.673038
0.572607
0.526006
0.507334
0.500925
9.5669
11.8705
5.86038
7.11507
3.48467
1.08095
0.214792
0.111316
0.0971271
0.117191
0.146944
0.142086
0.109846
0.0675332
0.234278
0.579166
0.529116
0.517992
0.520216
0.516429
6.41568
8.45481
3.7509
5.29968
4.01776
1.45457
0.336296
0.236814
0.105504
0.087388
0.107725
0.109219
0.0933902
0.0599782
0.214694
0.720204
0.656449
0.628241
0.61975
0.581863
3.97569
8.19076
2.97025
4.76397
3.27263
1.31815
0.337934
0.190062
0.0808768
0.103371
0.107874
0.094205
0.0788973
0.0708373
0.289087
0.801566
0.748469
0.718147
0.699914
0.640066
3.07921
4.76977
3.02916
4.73519
2.92056
3.04551
0.722874
0.461984
0.331149
0.388068
0.357467
0.336515
0.284595
0.25793
0.841241
0.80155
0.795857
0.782729
0.763074
0.69092
3.43823
9.8679
5.47731
7.91327
2.90728
3.19246
1.70309
1.68116
1.25048
1.23186
1.03192
0.972451
0.886516
0.874316
0.848227
0.843938
0.836853
0.83069
0.808829
0.715063
0.218116
5.50968
4.15991
6.90401
2.53139
3.93623
1.6908
2.03111
1.49666
1.54238
1.27115
1.15806
1.01745
0.961402
0.911905
0.885625
0.867868
0.858117
0.827886
0.708482
0.291086
5.83545
2.69809
6.44241
2.91594
4.44228
2.27719
2.70374
2.04379
2.04719
1.64776
1.45108
1.18301
1.04331
0.933099
0.874517
0.837361
0.82299
0.790083
0.673346
0.0415884
3.9472
2.96726
6.34418
2.97502
4.14293
2.52469
2.9467
2.26471
2.23404
1.77649
1.50612
1.20622
1.06677
0.961036
0.891091
0.835325
0.799454
0.771109
0.677302
0.067385
3.78834
3.51407
4.6367
2.7986
2.76065
2.16271
2.32087
1.94282
1.76539
1.38394
1.1757
1.02369
0.968021
0.918085
0.873106
0.826833
0.789157
0.768869
0.703438
2.473
7.19909
4.09831
5.35876
3.13069
3.61696
2.60282
2.3403
1.54325
1.16133
0.82676
0.699554
0.640021
0.632039
0.618843
0.589724
0.566887
0.530437
0.520277
0.506209
6.30877
9.23308
3.39053
3.50044
1.96687
2.17571
1.70916
1.54732
1.19652
0.941542
0.677296
0.544066
0.452919
0.408829
0.355476
0.314131
0.264437
0.224917
0.192516
0.172142
4.51161
3.73744
4.99998
14.1081
9.02367
12.8687
7.40072
7.40215
5.16616
4.97087
4.05214
3.77435
3.07445
2.49205
2.03812
1.902
1.78979
1.77639
1.75894
1.67648
4.63401
17.4483
17.3768
17.288
19.7235
18.4592
17.7414
17.3419
16.2778
15.8671
14.9116
14.626
13.8458
13.442
12.7146
12.3913
11.8331
11.4614
11.2828
11.7003
10.3457
47.3882
45.988
30.1088
17.5059
18.4446
17.3175
18.0721
17.1388
16.3992
15.262
14.7935
13.7041
13.1451
12.4332
12.3654
12.4783
12.7916
13.045
13.2752
8.27799
24.6128
34.0683
33.6788
17.9147
17.0754
17.0878
17.2486
16.9475
15.6046
14.8797
14.2462
13.699
13.5827
13.4565
13.6096
13.6315
13.6745
13.6102
13.512
3.99676
29.0788
32.2356
29.1304
23.9568
23.0934
20.9461
18.8232
16.5827
16.0036
15.1011
15.261
14.706
14.7439
14.3249
14.2071
13.8725
13.7533
13.6237
13.4597
26.6922
47.1058
40.9793
33.8234
32.0141
26.2118
24.7196
20.3816
17.0709
14.875
14.0383
14.296
14.1292
14.318
13.9207
13.6832
13.3444
13.4483
13.4449
13.368
10.7236
40.0178
44.4807
40.6515
33.1393
30.1744
26.7538
23.2089
17.1338
13.9043
13.6198
14.3484
14.1782
14.1175
13.2528
12.9983
12.7771
13.1178
13.3425
13.4939
13.9126
45.6035
51.11
41.5046
29.0272
26.5281
20.4774
17.9902
15.5195
11.6836
10.8523
12.779
12.2993
11.6015
13.9142
13.5145
13.2821
13.2393
13.2584
13.3721
54.874
49.4317
41.8797
33.3814
21.9038
19.746
16.7839
12.4955
9.19246
12.2237
12.2596
13.419
11.4825
10.2941
12.0211
12.2436
11.9919
12.207
12.5521
13.0627
22.6967
46.4049
42.1699
31.4314
27.886
20.4829
14.248
13.3275
11.5486
14.8649
15.9004
14.3921
11.5136
10.0781
10.4339
10.7863
11.1464
11.9858
12.4719
13.0166
24.0296
31.6641
33.9545
34.2913
34.4574
27.3812
20.904
17.9451
9.53045
12.029
12.9757
10.9586
8.82027
7.65295
9.98459
12.6384
12.9271
13.1856
13.3815
13.3401
11.3015
35.4866
31.9402
33.293
30.5962
25.5002
18.8578
13.3785
8.48296
13.268
14.1382
12.8293
11.4613
11.2168
12.5776
14.2568
14.3292
14.3903
14.2899
13.9927
8.30592
33.9697
38.4784
37.1818
29.0094
22.6903
15.3539
11.5286
12.9232
15.2086
15.2862
14.3844
13.4242
12.8921
15.3591
15.5064
15.6465
15.569
15.3083
14.6341
28.6413
30.4639
43.965
37.926
28.7438
23.1616
17.6967
17.1951
17.3884
16.7591
15.986
15.3538
15.1505
15.6275
16.1503
16.6225
16.6901
16.4009
15.9648
14.8598
1.25227
29.016
41.8118
31.8216
31.0428
25.3195
22.3533
22.1188
20.8771
20.79
19.5708
18.6891
17.5712
17.2793
17.2805
17.4397
17.3517
16.9977
16.3712
14.8438
0.572799
13.818
24.0549
28.9158
33.1358
30.9255
28.0188
26.9577
24.9045
24.0316
22.4511
21.4725
19.9508
18.7974
17.8712
17.3857
17.1654
17.0111
16.2725
14.389
1.02994
15.6636
24.0657
27.6577
32.6492
31.0805
29.2012
27.7736
25.13
23.9441
22.1462
21.1545
19.7358
18.9042
18.1882
17.6525
17.1833
16.7559
16.1817
14.6278
2.13062
16.6501
22.3573
26.9906
25.7731
26.1996
25.4725
26.8589
23.8852
21.2877
18.7568
18.1626
17.6738
17.8175
18.1144
17.8669
17.5767
16.8964
16.4371
15.2095
30.1084
33.8181
37.9832
32.5974
30.0405
30.0806
27.5923
24.1132
18.1453
14.1851
12.1875
12.5006
13.5403
14.8264
15.1157
14.7779
14.3537
13.9413
13.8673
13.5428
1.9275
36.6145
21.0477
23.458
12.7396
13.605
9.71244
8.77266
6.31695
4.48014
3.23059
2.95118
2.58906
2.31108
2.03624
1.82371
1.6462
1.50084
1.44895
1.37409
4.45111
18.5503
10.2401
21.7182
14.21
18.1626
9.84527
9.30259
6.28369
5.79056
4.56026
3.98658
3.17306
2.70911
2.35937
2.32265
2.30043
2.34678
2.36321
2.26886
5.74523
23.2687
33.6583
33.7121
32.119
29.3947
26.3191
24.3352
21.4951
20.5732
18.9039
18.6315
18.0825
18.2941
18.6073
18.9713
19.0663
18.9528
18.94
19.1107
27.1639
49.5539
61.3084
45.3295
35.4441
33.1489
30.6743
28.1885
26.0437
24.3808
22.9718
22.1768
21.3262
21.0469
20.7258
20.8567
20.9397
21.0906
21.1595
21.1532
4.09778
41.9072
50.3194
52.9698
36.939
33.3936
31.6475
28.7712
27.2384
25.1533
23.9661
22.9733
22.3002
22.0376
21.8061
21.7564
21.5787
21.4824
21.3477
21.1673
16.4202
47.8832
54.1497
52.4403
45.1461
38.8753
34.6358
30.5061
28.098
26.5738
25.15
24.3828
23.3869
22.9536
22.3475
22.0015
21.58
21.38
21.1539
20.925
61.9475
70.2557
66.7755
58.4917
50.4999
41.2619
37.4033
31.7279
28.3631
26.2779
24.9355
24.3092
23.3905
22.8884
22.139
21.6527
21.2577
21.1421
21.0064
20.7358
38.7977
61.8659
68.0119
60.0911
49.5256
44.9226
38.1738
32.4918
26.9296
25.2924
24.514
24.1957
23.08
22.4727
21.4485
21.059
20.7886
20.8419
20.8772
20.7558
32.0702
61.1244
69.4637
56.9591
42.7675
38.9133
34.0471
29.732
24.593
21.1934
22.2742
22.3839
21.0917
19.9962
19.7943
19.6897
19.7841
20.1221
20.4385
20.5696
25.8379
67.6289
59.9599
47.6102
36.5744
33.838
30.1363
24.3414
21.408
21.9897
22.0841
21.7004
18.9614
17.8788
17.4978
16.3905
17.117
18.3688
19.2565
20.0018
27.1319
65.0427
60.5192
50.0418
42.8117
34.6903
28.1329
24.6724
22.6463
24.7118
23.4509
20.5099
17.0783
15.5267
13.8361
14.5984
16.4355
18.1427
19.0966
19.7892
9.43145
50.3695
52.8516
52.4795
48.4869
41.9104
33.7912
26.54
19.479
14.4572
6.75685
5.95575
7.47514
10.0227
14.2389
17.2335
18.517
19.5555
20.0156
20.0793
34.7159
56.0157
52.6096
51.7802
45.8551
40.2702
31.5176
22.9614
20.1078
23.5208
21.8592
19.2081
17.6723
17.6814
18.5235
20.2103
20.891
21.2383
21.2183
20.7888
38.0417
48.366
55.55
53.4855
44.5595
38.4459
30.0669
24.6883
26.0305
25.8618
24.5122
23.0364
22.0905
21.6281
23.4168
23.5723
23.5286
23.1519
22.6548
21.5819
42.9356
47.76
58.9327
54.2215
46.2176
40.2937
33.7333
32.1652
30.5013
29.2419
27.9907
27.2316
26.7673
26.6284
26.3552
25.9272
25.2806
24.2892
23.4251
21.8913
8.79499
48.5237
58.0943
52.5617
49.9387
42.6696
37.8467
35.7527
33.7342
32.7371
31.2403
30.3053
29.2753
28.5967
27.886
27.1143
26.0869
24.9113
23.6654
21.8724
16.8527
19.8032
45.4234
49.1728
52.2104
47.8189
43.2225
40.2954
37.2829
35.7015
33.9789
32.8594
31.3337
29.9273
28.5504
27.3425
26.1707
24.945
23.536
21.389
13.2303
30.6126
45.0369
48.7139
51.7263
48.1893
43.8941
40.2201
36.4392
34.7439
33.294
32.5382
31.4381
30.3212
28.994
27.5545
26.2063
24.7667
23.5592
21.2329
10.4501
37.462
40.386
43.7587
42.3342
43.6325
41.5456
39.3506
34.2225
31.6204
30.2867
30.2309
29.9552
29.3602
28.3939
27.0224
25.7542
24.2695
23.2901
21.2737
15.9563
55.0028
52.1403
46.7526
44.5717
43.3864
37.6495
30.9495
23.7071
20.1758
19.2378
20.7393
22.6059
23.6685
23.5189
22.3761
21.5279
20.5596
20.1039
19.1444
15.7831
31.1969
26.5175
29.4694
16.3605
16.9169
11.339
9.63146
6.61836
4.9574
3.90906
3.52309
3.05884
2.79853
2.513
2.28777
2.11207
1.93577
1.87291
1.70877
10.6528
22.9822
17.1006
24.2484
16.471
19.6914
11.1157
9.42783
6.36076
5.24785
4.05826
3.38357
2.89508
2.73814
2.61214
2.68527
2.68916
2.75342
2.75087
2.60694
25.2
53.5173
53.4092
42.5297
36.8658
32.6376
27.524
24.6639
21.0936
20.2852
19.2371
19.7731
20.0427
20.6929
21.1129
21.5145
21.4943
21.387
21.323
21.1287
47.3515
67.5023
69.3127
55.6525
47.1451
40.1932
35.3864
31.0474
28.3973
26.5785
25.319
24.6972
24.154
24.034
23.8588
23.859
23.7254
23.6711
23.5771
23.3784
15.8891
62.3524
74.3804
64.1888
50.5435
42.3666
37.7698
33.2585
31.1318
28.5873
27.3034
26.1132
25.3754
24.891
24.4864
24.2074
23.9393
23.7234
23.5431
23.2692
75.7455
72.3938
73.9301
67.5299
56.0404
46.2714
41.1517
35.8043
33.7081
30.9943
29.1605
27.7009
26.396
25.6162
24.8538
24.3356
23.8656
23.573
23.2852
22.9912
71.2039
82.0127
81.1005
71.9999
58.652
47.8053
43.1265
38.1319
35.0953
32.0506
30.0941
28.4495
26.9228
25.857
24.9351
24.2554
23.801
23.4674
23.1676
22.7651
73.2048
80.788
79.8261
71.4181
58.4836
51.3954
44.1228
38.508
34.49
32.3625
29.7794
28.3456
26.3263
25.2536
24.1682
23.6972
23.4414
23.2919
23.1242
22.7948
82.8129
79.4058
78.6068
64.2265
51.5985
47.0132
42.4881
37.6752
32.8685
30.5201
29.0852
26.2672
24.0952
22.2405
20.3145
21.126
21.8144
22.4126
22.6606
22.6455
29.0611
80.0894
70.7402
55.6149
45.6003
42.9246
36.9319
33.7318
30.5377
28.905
26.918
23.4166
20.3678
18.6777
16.9029
17.3957
19.1984
20.7749
21.6297
22.1381
25.3781
77.316
70.5583
60.5204
49.9479
42.259
37.0024
32.1167
29.3705
27.6599
24.2909
20.1197
16.6626
15.0666
13.9485
16.0976
18.5262
20.3488
21.2681
21.7564
19.6939
53.1254
67.0459
64.0649
55.0911
47.1806
39.4912
32.3451
28.0123
26.286
12.2477
9.69941
10.5567
12.7327
14.8655
17.7986
19.855
21.2082
21.7493
21.8648
68.0138
73.5078
68.238
63.7197
54.0159
46.9116
39.2621
32.0173
28.6927
26.2893
22.7788
19.9829
18.4633
18.2538
18.2458
20.736
22.2519
22.8837
22.9509
22.4876
66.9251
65.0414
67.8165
64.1482
54.444
47.5039
40.4184
35.2838
32.1859
28.8996
26.6801
25.0586
24.179
23.6228
24.7616
25.399
25.4792
24.9829
24.4024
23.354
45.2342
63.7079
67.658
64.5495
56.8373
49.3751
42.6716
39.9464
36.5869
35.1209
33.2304
32.3076
31.2621
30.3917
29.4958
28.5195
27.4544
26.2063
25.1509
23.7822
33.4149
62.74
67.9026
65.0037
58.6213
50.5904
45.1435
41.9366
39.7405
38.2143
36.6289
35.3719
34.0831
32.7088
31.2726
29.7712
28.2466
26.738
25.349
23.7982
33.9271
52.4878
63.4631
63.223
61.5651
55.0162
49.0483
45.3261
42.1502
40.425
38.6532
37.2459
35.6052
33.7435
31.8991
30.1094
28.4083
26.7722
25.1954
23.4608
43.7004
43.0595
57.6465
62.2672
61.6023
55.6204
49.4764
44.6107
41.1616
39.4966
38.2747
37.1924
35.8533
33.9908
32.0687
30.1056
28.2803
26.5347
24.9891
23.1396
31.7387
51.0381
55.3058
58.378
56.2076
53.6935
48.3096
42.9263
38.3769
36.6034
35.8942
35.4499
34.6312
32.9076
31.0277
29.0617
27.332
25.6988
24.4473
22.6722
16.791
60.6335
63.6662
57.9012
53.969
47.711
38.1266
30.7985
25.8971
24.4972
25.1065
24.9337
26.673
26.3089
25.315
23.7694
22.6198
21.465
20.9515
19.8298
14.2479
35.5957
28.8209
31.6639
17.745
16.0967
10.6384
8.20713
6.04002
4.88298
4.09754
3.69333
3.30684
3.07893
2.76165
2.4994
2.30173
2.07616
1.95866
1.7925
13.7545
22.9091
10.7546
13.2458
6.78028
7.12263
3.72178
3.19122
1.95477
1.69285
1.24415
1.25148
1.11179
1.16448
1.09316
1.10514
1.07403
1.05759
1.03821
0.952023
29.0446
70.932
38.907
42.9823
18.9688
26.0595
10.3959
10.5916
6.97645
7.26438
6.04054
6.56229
6.10577
6.52651
6.29195
6.41599
6.2983
6.30996
6.23639
6.14276
67.6565
83.4343
49.3836
53.7227
23.0046
37.796
13.3289
14.9112
9.21331
9.8917
7.73098
8.10371
7.15601
7.37216
6.89263
6.9481
6.74746
6.72923
6.62777
6.50406
62.3396
92.7743
51.4275
61.6327
23.4083
28.1805
13.3669
14.8877
9.65485
10.3017
7.94863
8.22208
7.16274
7.2944
6.79302
6.82188
6.61071
6.57104
6.46669
6.33176
70.3421
86.3126
60.0803
71.2827
27.0149
36.67
15.7661
17.5469
11.2706
11.4707
8.74767
8.61982
7.46235
7.39788
6.86114
6.80586
6.58082
6.49679
6.3638
6.19952
16.5362
63.3741
54.4073
62.684
25.1829
31.5286
16.3971
17.7314
12.1546
11.4717
9.11301
8.54082
7.54741
7.27959
6.87373
6.73356
6.56175
6.44032
6.30249
6.08179
73.7902
93.4107
62.9154
75.2288
28.2969
32.5793
19.1952
20.3932
13.4267
12.3868
9.42762
8.67619
7.54542
7.25316
6.81153
6.73578
6.60961
6.52282
6.39438
6.12942
81.8175
89.1276
42.988
63.3417
23.0483
28.7833
43.3478
39.4561
34.8116
31.3308
26.839
23.3381
20.9782
19.6326
6.51951
6.46552
6.48712
6.46493
6.4154
6.19753
65.5684
84.4632
41.6178
54.8395
21.0176
43.9271
40.1221
34.5061
30.275
26.1457
21.9303
18.3258
16.6854
15.8583
15.6296
6.02624
6.09755
6.21816
6.27048
6.15689
70.4409
84.2207
55.2926
59.8394
21.498
41.4225
36.4677
29.671
25.6405
21.7577
17.5483
14.2432
13.549
13.6946
14.1806
5.75531
5.8181
5.97249
6.04377
5.97208
48.5127
63.7437
44.5582
46.8516
23.7877
45.4185
37.173
29.3915
24.4514
20.7141
15.9816
12.306
11.7792
13.1784
14.4877
5.82944
5.87493
5.95315
5.97225
5.84153
92.135
83.009
47.6586
69.6191
22.5073
45.4502
37.9017
30.0251
24.436
19.964
16.9203
15.1943
15.2486
15.4363
16.2013
6.2852
6.28739
6.22308
6.12458
5.86037
112.316
79.4699
37.9635
50.5211
21.4636
21.9617
40.624
34.4556
28.8329
25.0121
22.9497
21.6492
21.074
20.6295
7.21829
7.05927
6.92796
6.66697
6.44702
6.01449
93.9942
74.2
38.3484
62.4771
21.8826
26.7627
15.2153
15.1723
11.2575
11.0218
9.64674
9.44856
8.81576
8.53437
8.06615
7.72476
7.35541
6.94726
6.59465
6.07539
19.9734
39.4516
29.9171
47.7735
19.7663
29.548
13.766
15.6181
11.6356
12.1016
10.7386
10.6441
9.84904
9.36311
8.70864
8.15319
7.61614
7.06495
6.60832
6.04262
65.1521
66.4982
34.3286
70.2727
21.2807
30.0181
14.7941
16.3192
12.371
12.8758
11.3008
11.2204
10.2982
9.72902
8.9589
8.3127
7.6763
7.02952
6.47373
5.88668
32.7149
52.6168
31.1178
48.8571
21.1275
27.3741
15.067
16.7818
12.6855
13.4101
11.8078
11.6881
10.6716
9.98972
9.14902
8.44694
7.76891
7.05809
6.45004
5.79737
72.7155
63.141
33.5667
57.7256
23.4318
24.8111
15.7659
15.0954
12.2832
12.4582
11.3492
11.1538
10.3078
9.57174
8.78371
8.10832
7.50996
6.89463
6.3862
5.75277
45.0328
42.9974
30.4274
40.6763
20.7293
20.2974
11.4397
10.3208
8.34285
8.78938
8.25676
8.47653
8.00158
7.49203
6.88153
6.34666
5.97079
5.62302
5.43379
5.04955
31.4136
22.2317
11.4666
14.606
6.08797
6.12499
3.28235
3.03571
2.15745
1.95348
1.55388
1.44433
1.27419
1.15889
1.00907
0.90007
0.812598
0.748403
0.731383
0.692989
23.9548
17.3642
6.57317
27.7458
25.6149
25.6384
7.27208
21.4001
5.75827
6.50868
24.7473
21.8008
6.45776
7.38356
7.72285
23.0975
21.329
25.0433
8.3988
26.4716
22.9012
5.04293
20.2046
17.4442
7.4461
6.77492
21.5245
18.67
0.204348
0.254098
0.106887
10.1173
9.76528
8.04173
8.42335
0.081898
0.0943746
0.0897648
9.28008
6.79765
8.44503
8.62559
0.0743119
0.0899438
0.111083
6.45241
8.66373
8.85974
11.2318
0.0960557
0.125896
0.145077
9.53405
9.67229
12.2106
12.7856
0.126068
0.145376
0.144017
9.72362
10.4816
12.4998
11.8497
0.118513
0.142533
0.119127
10.5509
9.40683
11.4271
9.85726
0.0761621
0.108238
0.0750072
8.86788
7.74581
9.22921
7.95899
0.0529461
0.0681771
0.0557683
7.62815
8.46139
7.87182
8.71656
0.113652
0.278369
0.220562
9.23663
9.98335
13.3972
14.8489
0.106104
0.22321
0.143335
10.1103
9.23276
14.7156
9.94569
0.101906
0.107295
0.087651
8.79288
10.3513
8.06235
8.30683
0.144244
0.0923438
0.114356
11.5666
12.863
9.4017
11.4222
0.144355
0.120327
0.123752
12.7704
12.0203
11.3951
10.5806
0.119811
0.121617
0.104913
11.5481
9.85797
10.1365
8.62023
0.0740366
0.0996573
0.0664624
9.18601
7.80596
8.05183
6.49469
0.0574701
0.0607736
0.0497412
7.73383
8.57981
6.41273
6.97185
0.243147
0.38633
0.233601
14.7069
15.1757
14.6675
14.0932
0.140252
0.217086
0.0951143
14.8066
9.29448
12.7956
6.32109
0.0828144
0.0805194
0.0892453
7.45248
8.00126
5.85316
8.6787
0.10453
0.0945558
0.100842
9.09684
10.7769
9.57611
10.7067
0.110651
0.100357
0.0938484
10.693
9.85901
10.651
9.94689
0.0981558
0.0906751
0.0812698
9.44862
8.09965
9.63259
8.69908
0.0649333
0.0781253
0.0674711
7.58648
6.27874
8.41434
8.01844
0.0484685
0.0664201
0.0601021
6.23358
6.96171
8.0821
9.2339
0.214203
0.304654
0.143373
13.058
12.2954
10.4849
9.44719
0.0849798
0.122582
0.0890229
10.8184
5.96554
8.64352
6.85936
0.0991436
0.0875613
0.101041
6.24398
9.34546
7.33157
10.2709
0.108227
0.109088
0.119312
10.0895
11.0249
10.8097
11.5605
0.0990018
0.120333
0.114383
11.0066
10.3913
11.5674
11.1451
0.0823797
0.109326
0.095681
10.0756
9.21914
10.9448
10.2001
0.0712155
0.091286
0.0840407
8.97892
8.71788
10.0156
9.51706
0.063425
0.081795
0.0626849
8.75376
9.62167
9.41233
9.56745
13.4048
12.8862
11.7436
26.3797
22.9702
23.5361
21.5777
9.53003
11.6077
11.439
21.5706
18.6677
20.9446
20.0127
11.5311
11.733
14.455
18.525
19.5669
20.329
22.4975
12.1411
15.4269
15.7607
19.6762
19.3657
22.8855
22.3079
13.3659
15.4928
14.7705
19.7865
20.4654
22.0484
20.8676
12.0655
14.3171
12.3689
20.1101
18.1229
20.1459
17.5637
10.3743
11.6438
10.3801
17.5206
16.6109
16.8267
15.6625
10.8112
10.3238
10.6099
16.5129
16.7373
15.523
15.0794
13.4077
19.1512
18.3684
24.7711
22.7161
29.6283
26.1796
11.9394
17.8091
12.1418
22.0532
20.0528
24.6898
18.6193
13.6
10.2653
10.9951
19.9396
22.1236
17.4728
19.5315
16.0455
12.3886
14.0874
22.7927
22.6034
20.0166
12.158
14.9316
13.7598
12.3944
22.22
20.5097
10.8656
9.67841
12.284
11.8694
10.1678
19.688
17.0025
9.94032
10.0972
10.1432
9.52448
8.05326
16.2516
14.9689
9.91319
9.73194
10.345
7.96207
8.19899
14.7776
14.3584
9.91052
11.0274
18.8483
20.9714
17.3295
31.2014
26.5839
30.8796
24.3845
11.3756
15.4573
8.39996
24.6379
17.735
21.6888
15.7983
10.6486
7.95701
11.5531
16.6457
19.053
16.0935
20.0409
13.3759
12.6596
13.8588
20.5822
12.2294
20.9271
20.2814
11.481
13.6894
12.5829
10.7724
8.58625
19.3852
16.9205
9.3811
12.1462
10.8914
8.37907
8.20914
16.2502
14.8158
7.66811
10.5562
10.21
8.24534
9.04811
14.6281
14.8949
8.22335
10.3116
11.1345
9.55672
11.4356
15.1569
16.1271
15.2321
15.7313
12.2311
28.6166
22.7405
25.812
21.3082
8.16106
11.2507
9.34564
20.3702
16.0398
19.7978
18.9115
12.3477
10.1358
13.6347
16.94
20.8101
19.9708
22.5682
14.2403
14.2102
14.8431
21.4628
21.1792
22.7428
22.2877
13.2324
14.7687
14.1201
20.6323
18.7959
21.9467
20.7946
11.742
13.8626
12.987
18.2243
16.861
20.458
19.452
11.1758
12.7594
12.2224
16.6088
16.4749
19.2114
18.6858
11.5387
12.113
11.8219
16.5568
16.8075
18.5861
18.4661
25.7996
27.1052
24.5619
33.909
33.2365
35.3613
31.7718
21.6473
23.8285
22.7691
31.9216
29.3513
30.836
29.2074
21.9753
23.0185
24.5873
28.8409
28.0897
29.0082
28.3244
21.6703
24.7027
23.8585
27.7944
26.7901
27.8571
26.0562
22.2102
23.5319
22.0201
26.5512
24.6734
25.3753
22.7495
19.5623
21.2032
18.5284
23.7566
21.3509
21.7318
18.9896
18.0251
17.8214
16.6357
20.7459
19.4937
18.3495
17.0224
17.7753
16.4399
15.6949
19.1961
18.5896
16.7202
15.7527
25.4459
32.3982
28.2331
35.3561
31.9221
37.5853
32.9858
22.6942
26.6297
21.0425
30.9332
28.8559
31.4104
27.5531
24.3334
20.1748
22.1762
28.5836
28.13
27.0741
27.1239
25.3853
24.7145
24.2874
26.2201
24.2375
25.994
25.9306
21.4494
22.8797
21.8584
24.2869
21.14
23.5864
22.2767
17.797
7.67536
9.15938
20.7775
18.0145
8.28655
9.6218
15.7722
9.2638
9.82056
17.3529
15.9933
9.99362
11.3228
14.8803
10.1843
11.6295
15.686
14.9399
11.8441
13.1924
28.5644
33.4154
26.5498
38.5984
33.2247
38.5769
32.5416
20.2617
23.9489
18.8464
31.417
27.2797
30.5865
27.2423
21.6546
19.3057
22.5
26.8403
26.8532
27.1277
26.8625
13.708
9.14798
22.2917
15.8857
18.2027
2.49625
23.3999
6.1269
6.14416
10.0573
0.996952
8.9579
0.979428
6.79685
7.05358
16.7804
15.5666
6.94752
8.59911
18.0873
17.0786
9.25771
15.4829
15.9462
9.27501
11.5087
17.0426
17.3719
12.1531
16.2296
17.0373
12.2438
13.8527
17.5321
17.8731
25.2806
28.6219
24.3981
37.8377
32.2162
30.6624
32.9335
19.2519
22.808
22.2882
30.3799
27.6627
31.5011
30.1755
23.1481
23.123
24.8081
27.6237
27.0434
29.9326
28.3975
22.5618
24.7694
23.8896
26.5399
24.085
27.7687
25.8557
19.7944
23.4697
22.2041
23.1709
20.9045
25.2878
23.8196
17.8875
21.8545
20.8856
20.3371
19.09
23.489
22.6564
17.6001
20.6478
20.1673
18.9133
18.7783
22.4629
22.0292
17.7815
20.0674
19.8551
18.7963
18.6112
21.9334
21.6721
35.0074
37.187
33.2487
40.6044
36.589
38.8493
33.2029
31.1534
32.2399
30.2786
35.5015
32.778
31.9243
28.9609
29.295
29.8695
28.5045
31.5861
28.6745
28.0591
25.419
27.4439
27.8991
25.7533
27.8573
25.1024
24.5169
21.4438
24.4053
24.9408
22.0267
23.806
20.4984
20.369
17.2951
21.0106
20.9806
18.2338
19.6426
17.9344
16.4329
14.9282
18.9899
17.6072
16.279
17.4347
16.578
14.7318
14.4238
18.0836
16.0019
15.2127
16.3742
15.9994
14.3525
14.05
33.1835
38.6206
33.8094
37.8962
32.5821
38.3818
32.4436
29.8136
32.2719
28.7027
31.2394
28.1431
30.8847
27.1761
28.2242
28.1471
27.4133
27.2444
24.9003
26.2737
24.0311
25.2421
26.2557
13.655
24.0066
20.955
23.1022
18.8435
21.1623
12.2366
10.646
19.8839
16.847
17.418
14.1057
17.3132
10.6634
10.7055
15.9057
14.1302
13.2641
11.6293
15.3337
10.8992
11.8799
13.9685
13.831
11.652
12.5325
14.4963
12.2822
13.3069
13.8099
13.6848
12.7935
13.262
34.0415
39.6497
33.7986
38.7861
32.6828
39.2967
33.1629
28.5722
32.028
28.7623
31.0867
27.2019
31.5622
27.4354
27.2073
28.3079
26.9443
26.2423
23.8349
26.1357
23.1667
13.7878
26.3207
22.8667
22.9435
18.5289
22.3148
19.5438
9.87171
21.5967
18.8331
17.0934
13.873
18.6408
16.3932
10.1402
18.2271
17.0003
13.0841
11.6578
15.7637
14.756
12.1834
16.888
17.0237
11.7601
12.8009
14.8223
15.1873
13.9087
17.1187
17.3674
13.0963
13.5625
15.2463
15.2402
33.6973
33.3284
34.8414
39.4158
33.3991
38.0519
35.2849
29.1201
33.46
31.4494
31.7798
27.5484
33.7031
29.5989
26.986
30.8226
28.3453
26.232
22.8961
28.0853
24.3956
23.6732
27.6016
25.4839
22.0575
19.539
23.5712
21.5685
20.5576
24.8906
23.3831
18.7872
16.9595
20.9962
19.8174
18.6513
23.0726
22.2733
16.4559
15.7925
19.5938
19.1602
18.2691
22.0886
21.6494
15.8237
15.9363
19.0469
18.797
18.0618
21.554
21.3339
15.9417
15.7011
18.712
18.5396
35.5839
37.2896
31.6561
7.50155
7.16313
7.62045
6.26691
31.6098
30.4034
27.3918
6.40573
5.98532
6.08151
5.68857
27.0793
26.4404
23.4008
5.56874
5.28819
5.55891
4.47948
23.1701
22.3638
19.1256
4.90271
4.74868
4.21031
3.70855
19.0442
18.1001
15.5614
4.57809
4.49184
3.60904
3.55901
17.0783
14.9961
14.3043
4.32056
4.38044
3.68214
4.7152
16.0415
14.2543
14.1699
4.32714
4.33114
4.69213
4.62174
15.6026
14.1301
13.9311
4.25496
4.11902
4.59307
4.35718
30.9628
36.6828
30.673
6.43931
6.11954
6.91842
5.87678
26.5962
29.197
25.597
5.969
5.60798
5.73332
5.18062
22.743
24.5203
21.8435
5.27485
4.19415
4.73405
3.76245
18.5857
20.8818
17.3995
3.92721
3.39616
3.52289
2.98054
14.9121
16.2068
13.2085
3.2809
3.1728
2.8455
2.58127
13.5089
12.373
11.3866
3.28554
4.3834
2.64384
3.71032
13.6884
11.6565
12.7143
4.70455
4.61692
4.32162
4.55957
13.639
12.9407
13.3222
4.58818
4.47617
4.52161
4.22282
30.8947
37.7265
31.4463
6.08939
5.82249
6.73285
5.6865
25.5899
29.8671
25.6978
5.68948
5.12498
5.51136
5.10493
21.6348
24.3772
20.9456
4.68103
3.71619
4.80154
3.82438
17.1773
20.0313
17.4425
3.48181
2.96833
3.60953
3.22057
13.0871
16.6598
14.7697
2.8379
2.57027
3.14416
3.02271
11.452
14.3081
14.1356
2.62993
3.67369
3.12686
4.09121
12.936
14.3586
14.8132
4.276
4.51303
4.4352
4.35257
13.5619
14.8624
14.8648
4.48041
4.32107
4.3339
4.08509
31.6649
39.8829
33.4361
5.9073
5.62213
7.02895
5.53635
25.7378
31.7515
27.641
5.44297
5.00416
5.42696
4.41519
20.903
26.1781
22.7882
4.95162
3.98597
4.6445
4.2933
17.5664
22.0043
20.2862
3.77283
3.44244
4.30432
3.96721
15.4648
19.7951
18.7962
3.38611
3.31962
4.14235
3.9609
15.126
18.5965
18.2967
3.4331
4.3839
4.05329
3.89648
15.434
18.1997
18.005
4.36129
4.29903
4.03191
3.89918
15.2672
17.9114
17.8443
4.28622
4.17687
3.99251
3.6099
24.2722
24.401
22.6447
24.921
23.4885
25.5095
23.217
21.8193
23.5753
14.6405
21.4466
22.2799
25.04
4.13892
17.6843
17.5708
8.87366
1.32829
19.5535
15.8786
1.7256
26.1951
27.2527
27.1704
27.5332
26.833
27.0336
26.6535
24.9064
25.4896
26.4354
24.0563
26.2057
23.7043
25.3409
22.4844
21.9383
26.9023
14.9826
26.1349
4.12317
24.7158
18.1518
1.61185
18.7558
9.19321
16.2427
2.07196
21.0201
20.5749
22.1978
19.628
21.8916
20.3856
22.783
19.7798
14.4593
16.5531
5.27282
1.17776
15.8739
15.0419
1.13878
13.7997
15.0723
5.39077
4.33594
15.2079
14.1517
2.12294
21.6885
24.7311
23.8176
22.9078
23.9065
22.6288
21.8545
20.7005
22.0304
22.8296
19.7875
22.9972
19.8188
20.7876
14.5736
1.41766
17.4473
5.99158
15.3
1.39068
16.3989
13.8377
4.34315
15.1174
6.28842
14.1105
1.96472
15.4982
9.55114
9.64026
11.6503
1.18584
14.1619
1.61156
7.80958
22.4191
22.8065
23.0437
24.8073
21.7577
24.4909
24.3628
19.7474
18.0712
22.3893
22.0219
20.0926
17.3868
23.3074
14.1428
18.4279
12.0352
25.717
3.14395
24.6175
20.2536
9.74264
1.52743
10.1975
12.5488
2.03889
8.03013
15.1491
23.2815
25.9565
26.3311
25.617
25.6762
25.2323
24.4523
20.2588
22.5425
19.3538
24.3054
17.7834
23.9419
21.7943
5.81705
5.58488
7.62283
2.90257
8.09385
1.12196
5.59356
14.2315
16.3069
19.1345
20.6925
14.922
15.563
19.5477
13.3305
13.0849
18.2368
17.8207
13.8828
12.5952
18.6246
6.44906
1.30302
6.82837
10.994
1.29248
7.0803
9.97188
6.19267
3.24474
6.3202
8.82878
1.53267
6.12447
9.19154
14.6706
21.1356
17.4848
20.391
15.9531
19.9815
16.1464
13.8022
18.2498
14.4049
19.4422
13.0941
19.0417
15.1576
0.918787
1.10827
0.857133
7.83097
9.08446
7.64512
8.24156
0.686098
0.703809
0.58193
9.42757
9.29874
8.0937
7.40967
0.523191
0.455907
0.374005
9.23099
8.25065
6.10904
5.64827
0.351131
0.332366
0.305976
6.95151
5.68605
5.94377
5.9703
0.289033
0.300035
0.327706
5.55137
6.09294
6.16116
6.86608
0.303866
0.35847
0.351801
6.79746
6.78302
7.48337
7.35886
0.248418
0.297564
0.24596
6.40127
6.30146
6.54871
6.14132
0.203836
0.233182
0.1786
5.68611
6.79904
5.57682
7.6293
1.06228
1.23874
0.783026
7.71721
8.24618
6.80912
7.08289
2.5125
0.368723
0.379445
2.69974
2.7342
2.56087
0.27019
2.04193
0.123854
0.129847
2.46821
2.35927
2.37858
0.104003
2.67508
0.0640103
0.0763461
1.92162
2.12971
2.25495
0.0798459
4.53784
0.0888018
0.123077
3.63844
3.81535
4.35229
0.128077
4.30692
0.109486
0.119161
3.62667
3.60452
4.34842
0.120952
3.88349
0.129697
0.133519
3.6959
3.54304
4.07981
0.133978
3.04953
0.0957319
0.105535
2.85624
2.55065
3.28037
0.0947085
2.43903
0.0685541
0.0668903
2.08223
1.96192
2.41138
0.0641871
0.23116
0.248545
0.194871
6.6637
8.43934
6.90376
8.47085
0.721168
1.2168
0.827991
7.29564
8.16701
8.12552
10.0879
2.6233
0.156165
0.229376
1.96513
2.28814
2.08018
0.161079
4.54837
0.111458
0.150186
3.33551
3.52408
4.4648
0.150812
2.93177
0.0940256
0.100181
3.18524
3.14327
3.15222
0.0914515
4.02637
0.129952
0.104777
4.01456
4.31256
3.69657
0.117807
4.3944
0.14672
0.140314
4.57111
4.49813
4.41344
0.141569
3.97401
0.136405
0.136683
4.24878
4.04835
4.16727
0.130839
3.13236
0.0969892
0.108755
3.46226
3.14047
3.4446
0.0962618
2.48041
0.065695
0.0658771
2.4652
2.56224
2.36926
0.064415
0.177742
0.210939
0.164296
6.37174
7.83306
5.87545
7.41993
1.11172
1.60611
1.17763
9.97846
12.1689
10.3364
12.5269
4.05247
0.271702
0.375418
3.06558
3.96097
3.15046
0.293949
5.34341
0.223025
0.235725
5.7706
5.6592
5.72369
0.216672
2.32403
0.0855622
0.0930909
2.68574
2.50064
2.29339
0.079949
3.28068
0.0950565
0.0856767
3.16009
3.40322
3.01939
0.0929223
3.47587
0.110029
0.100105
3.67189
3.72141
3.47177
0.100339
3.34179
0.106693
0.0976421
3.613
3.49818
3.4004
0.0959966
2.83175
0.0847557
0.0872089
3.10117
2.86025
3.0262
0.0803259
2.47257
0.0589556
0.0603935
2.19977
2.36043
2.36016
0.059766
0.18
0.255233
0.221756
6.16539
8.00992
7.02197
8.51568
1.0518
1.2298
0.847442
9.33016
10.9741
8.34496
9.59159
3.07552
0.271409
0.347819
2.93212
3.44546
2.75339
0.258995
2.24786
0.148296
0.159236
3.84957
2.80822
2.95891
0.125213
2.83022
0.0850289
0.0861873
2.1622
2.62555
2.38191
0.0923848
3.64722
0.105931
0.111926
3.30681
3.45132
3.49157
0.114158
3.88042
0.10675
0.119031
3.68432
3.68914
3.87253