/*--------------------------------*- C++ -*----------------------------------*\
  =========                 |
  \\      /  F ield         | OpenFOAM: The Open Source CFD Toolbox
   \\    /   O peration     | Website:  https://openfoam.org
    \\  /    A nd           | Version:  10
     \\/     M anipulation  |
\*---------------------------------------------------------------------------*/
FoamFile
{
    format      ascii;
    class       volScalarField;
    location    "5.4";
    object      p;
}
// * * * * * * * * * * * * * * * * * * * * * * * * * * * * * * * * * * * * * //

dimensions      [0 2 -2 0 0 0 0];

internalField   nonuniform List<scalar> 
12920
(
2.63414e+06
2.44474e+06
2.13118e+06
2.00824e+06
1.82076e+06
1.69447e+06
1.55359e+06
1.43483e+06
1.3103e+06
1.19614e+06
1.07777e+06
965679
850822
739997
628148
518578
407473
299410
190172
79507.9
2.50236e+06
2.33401e+06
2.0912e+06
1.9707e+06
1.80551e+06
1.68496e+06
1.54836e+06
1.43174e+06
1.30847e+06
1.19505e+06
1.07722e+06
964920
850333
739655
627653
518121
407094
299048
190025
79125.4
2.03325e+06
2.19855e+06
2.00318e+06
1.92426e+06
1.77789e+06
1.66495e+06
1.53609e+06
1.42315e+06
1.30261e+06
1.19109e+06
1.07454e+06
963563
849416
738587
626801
517390
406565
298600
189589
78801.1
2.19846e+06
2.14646e+06
1.97429e+06
1.88494e+06
1.75388e+06
1.64379e+06
1.52629e+06
1.4147e+06
1.29824e+06
1.18729e+06
1.07209e+06
961901
848839
738481
626807
517084
406049
298009
189184
78583.2
1.98706e+06
2.06624e+06
1.91955e+06
1.85422e+06
1.72434e+06
1.62637e+06
1.51219e+06
1.40528e+06
1.2907e+06
1.18223e+06
1.06779e+06
958416
845648
736158
625027
515667
405019
297271
188703
78480.7
2.18679e+06
2.08424e+06
1.94858e+06
1.85067e+06
1.72259e+06
1.62456e+06
1.51058e+06
1.40232e+06
1.28873e+06
1.1783e+06
1.06502e+06
954658
842767
733096
622582
513673
403712
296362
188299
78422.6
1.83375e+06
2.01796e+06
1.90009e+06
1.83311e+06
1.71232e+06
1.61683e+06
1.50191e+06
1.39961e+06
1.28366e+06
1.17478e+06
1.06014e+06
950565
838664
729465
619261
511180
402078
295289
187836
78454.8
2.03445e+06
2.07655e+06
1.92201e+06
1.84943e+06
1.72066e+06
1.62318e+06
1.52922e+06
1.42452e+06
1.31049e+06
1.1984e+06
1.08474e+06
974500
862826
753813
615826
508545
400472
294260
187391
78430.1
2.23911e+06
2.11474e+06
1.9432e+06
1.84808e+06
1.72072e+06
1.64597e+06
1.54466e+06
1.43306e+06
1.3202e+06
1.20716e+06
1.09425e+06
983833
874361
765503
640083
505449
399160
293423
186931
78390.8
2.38365e+06
2.09995e+06
1.90473e+06
1.83471e+06
1.70344e+06
1.63725e+06
1.54092e+06
1.42509e+06
1.31308e+06
1.20122e+06
1.09013e+06
981150
872016
762566
638678
504544
398125
292668
186477
78356.1
2.23742e+06
2.12458e+06
1.96321e+06
1.85736e+06
1.7072e+06
1.63266e+06
1.53257e+06
1.41601e+06
1.30551e+06
1.19553e+06
1.08622e+06
977422
869162
760128
637007
503380
397218
292044
186185
78423.5
2.03457e+06
2.09822e+06
1.85793e+06
1.81897e+06
1.6844e+06
1.61929e+06
1.52287e+06
1.40833e+06
1.29908e+06
1.1905e+06
1.08332e+06
975229
866881
758388
634525
502216
396678
291659
186028
78552.4
2.16474e+06
2.09975e+06
1.9304e+06
1.8349e+06
1.68972e+06
1.59222e+06
1.49607e+06
1.3887e+06
1.27786e+06
1.17145e+06
1.06502e+06
958022
850170
743108
609279
503041
396730
291622
186065
78766.9
2.22561e+06
2.01008e+06
1.85656e+06
1.79036e+06
1.66453e+06
1.58033e+06
1.46125e+06
1.36199e+06
1.24858e+06
1.14712e+06
1.03889e+06
933660
825756
718362
610175
503922
397126
291884
186240
79039.4
2.20734e+06
2.01128e+06
1.88333e+06
1.79524e+06
1.66493e+06
1.57826e+06
1.45879e+06
1.36085e+06
1.25069e+06
1.14682e+06
1.03838e+06
932491
824661
718027
610666
504256
397432
292097
186465
79287
1.6381e+06
1.77717e+06
1.75397e+06
1.74568e+06
1.63754e+06
1.56953e+06
1.4532e+06
1.36077e+06
1.24933e+06
1.14663e+06
1.03708e+06
932201
824177
718003
610825
504654
397802
292429
186758
79655
1.82719e+06
1.85241e+06
1.80947e+06
1.76479e+06
1.65722e+06
1.57953e+06
1.45942e+06
1.36506e+06
1.25132e+06
1.1474e+06
1.03726e+06
932177
824102
718031
610968
504897
398006
292665
187150
80058.1
1.78915e+06
1.89485e+06
1.8059e+06
1.78568e+06
1.66293e+06
1.58337e+06
1.46314e+06
1.36568e+06
1.25196e+06
1.14853e+06
1.03778e+06
932629
824328
718280
611313
505295
398340
292996
187431
80367.6
2.17878e+06
2.1672e+06
1.98482e+06
1.86095e+06
1.69914e+06
1.59949e+06
1.46933e+06
1.36874e+06
1.25293e+06
1.14866e+06
1.03837e+06
933222
824736
718583
611521
505439
398534
293201
187749
80725.2
2.79401e+06
2.38513e+06
2.00247e+06
1.87363e+06
1.70305e+06
1.60318e+06
1.47112e+06
1.36905e+06
1.25315e+06
1.14859e+06
1.03869e+06
933260
825133
719021
611834
505723
398725
293398
188008
81148.7
2.63346e+06
2.48123e+06
2.12824e+06
2.01072e+06
1.82091e+06
1.69421e+06
1.55338e+06
1.43466e+06
1.31025e+06
1.19612e+06
1.07779e+06
965684
850771
740068
628177
518535
407452
299375
190154
79369.8
2.36494e+06
2.325e+06
2.08747e+06
1.97065e+06
1.80508e+06
1.68487e+06
1.54834e+06
1.43172e+06
1.30842e+06
1.195e+06
1.07722e+06
964928
850264
739596
627677
518091
407044
299033
189996
78962.1
2.04214e+06
2.18294e+06
2.00736e+06
1.92454e+06
1.77815e+06
1.66514e+06
1.53614e+06
1.42318e+06
1.30263e+06
1.19104e+06
1.07453e+06
963598
849585
738630
626809
517370
406647
298571
189578
78597.5
2.1111e+06
2.13627e+06
1.97465e+06
1.88589e+06
1.75408e+06
1.64404e+06
1.52613e+06
1.41472e+06
1.29819e+06
1.18724e+06
1.0721e+06
961775
848735
738458
626874
517176
406043
297986
189196
78335.8
2.01648e+06
2.07612e+06
1.91953e+06
1.85254e+06
1.72374e+06
1.62608e+06
1.51214e+06
1.40524e+06
1.29064e+06
1.18207e+06
1.06775e+06
958235
845603
736103
625022
515721
405039
297248
188722
78209.6
2.19846e+06
2.0828e+06
1.94494e+06
1.8492e+06
1.7222e+06
1.62443e+06
1.51036e+06
1.40209e+06
1.28873e+06
1.17825e+06
1.06503e+06
954601
842810
733067
622593
513718
403729
296336
188319
78172.9
1.90471e+06
2.01225e+06
1.90137e+06
1.83347e+06
1.71345e+06
1.61712e+06
1.50255e+06
1.39958e+06
1.28364e+06
1.17465e+06
1.06027e+06
950736
838649
729524
619296
511184
402095
295272
187857
78204.9
2.03268e+06
2.07487e+06
1.92527e+06
1.85218e+06
1.72228e+06
1.62387e+06
1.52929e+06
1.42461e+06
1.3106e+06
1.19856e+06
1.08485e+06
974319
862971
753816
615787
508394
400476
294257
187398
78175.2
2.22369e+06
2.11671e+06
1.94094e+06
1.8478e+06
1.71943e+06
1.6459e+06
1.54465e+06
1.43314e+06
1.32037e+06
1.20744e+06
1.09448e+06
984042
874383
765170
639700
505446
399179
293410
186911
78119.9
2.25953e+06
2.09854e+06
1.90116e+06
1.83288e+06
1.70238e+06
1.63723e+06
1.54138e+06
1.42533e+06
1.31297e+06
1.20119e+06
1.09015e+06
980920
871817
762429
638438
504510
398137
292640
186451
78105.4
2.2913e+06
2.14032e+06
1.96189e+06
1.85515e+06
1.70625e+06
1.63236e+06
1.53266e+06
1.41634e+06
1.30547e+06
1.19521e+06
1.08616e+06
977416
869092
760118
636747
503243
397217
292033
186169
78169.6
2.1064e+06
2.07328e+06
1.85672e+06
1.81596e+06
1.68259e+06
1.6181e+06
1.52228e+06
1.40816e+06
1.29897e+06
1.19047e+06
1.0833e+06
975293
866948
758441
634223
502138
396704
291648
186004
78277.8
2.23158e+06
2.10968e+06
1.93306e+06
1.83405e+06
1.68937e+06
1.5917e+06
1.49429e+06
1.3876e+06
1.27741e+06
1.17119e+06
1.06479e+06
957799
850068
743104
609140
503094
396733
291600
186031
78475.8
2.26791e+06
2.02697e+06
1.86318e+06
1.7912e+06
1.6645e+06
1.58011e+06
1.4612e+06
1.36184e+06
1.2485e+06
1.14692e+06
1.03877e+06
933521
825624
718201
610099
503881
397094
291847
186198
78753.7
1.98126e+06
1.99794e+06
1.88152e+06
1.79349e+06
1.66531e+06
1.57709e+06
1.45882e+06
1.36081e+06
1.25075e+06
1.14671e+06
1.03837e+06
932294
824550
717984
610637
504246
397397
292017
186413
79019.3
1.57364e+06
1.7614e+06
1.75754e+06
1.74512e+06
1.63674e+06
1.56851e+06
1.45272e+06
1.36062e+06
1.24966e+06
1.14658e+06
1.0371e+06
932138
824112
717979
610817
504649
397739
292310
186715
79380.7
1.86606e+06
1.8502e+06
1.80895e+06
1.76668e+06
1.65799e+06
1.5794e+06
1.4595e+06
1.36408e+06
1.25088e+06
1.14749e+06
1.03732e+06
932125
824071
717986
610931
504872
397992
292605
187085
79717.7
1.70337e+06
1.88623e+06
1.80368e+06
1.78618e+06
1.66249e+06
1.58337e+06
1.46305e+06
1.36547e+06
1.25156e+06
1.1482e+06
1.03773e+06
932538
824305
718266
611272
505267
398316
292934
187380
80090.8
2.34227e+06
2.19939e+06
1.98239e+06
1.86106e+06
1.69825e+06
1.59907e+06
1.46925e+06
1.36863e+06
1.25278e+06
1.14843e+06
1.03827e+06
933169
824725
718557
611514
505422
398508
293127
187673
80427
2.83263e+06
2.37401e+06
2.00656e+06
1.87253e+06
1.70301e+06
1.60312e+06
1.47109e+06
1.36899e+06
1.25305e+06
1.14875e+06
1.03868e+06
933257
825183
719025
611847
505725
398725
293364
187951
80897.4
2.6165e+06
2.47858e+06
2.13045e+06
2.00914e+06
1.82119e+06
1.69384e+06
1.55303e+06
1.4344e+06
1.31016e+06
1.19608e+06
1.07775e+06
965718
850893
740111
628190
518475
407402
299317
190105
79215.2
2.33768e+06
2.31821e+06
2.10051e+06
1.97154e+06
1.80579e+06
1.6848e+06
1.5485e+06
1.43181e+06
1.30847e+06
1.19498e+06
1.0773e+06
964919
850341
739672
627673
518061
407089
298986
189930
78719.7
2.04258e+06
2.19597e+06
2.01804e+06
1.92521e+06
1.77909e+06
1.66517e+06
1.53628e+06
1.42307e+06
1.30264e+06
1.19097e+06
1.07459e+06
963673
849687
738739
626942
517433
406648
298542
189555
78310.1
2.06794e+06
2.13001e+06
1.98014e+06
1.88746e+06
1.75472e+06
1.64427e+06
1.52601e+06
1.41464e+06
1.29808e+06
1.18714e+06
1.07206e+06
961642
848644
738382
626840
517210
406076
297969
189201
78062.8
1.96536e+06
2.04266e+06
1.91819e+06
1.84854e+06
1.72366e+06
1.62587e+06
1.51213e+06
1.405e+06
1.29059e+06
1.18177e+06
1.06769e+06
958027
845537
736028
624997
515736
405080
297224
188735
77931.3
2.15963e+06
2.08606e+06
1.94804e+06
1.84932e+06
1.72279e+06
1.62439e+06
1.51029e+06
1.4018e+06
1.28868e+06
1.17802e+06
1.06499e+06
954480
842833
733022
622603
513744
403764
296325
188331
77891.5
1.83796e+06
2.00412e+06
1.90053e+06
1.8343e+06
1.71451e+06
1.61738e+06
1.50319e+06
1.39988e+06
1.28398e+06
1.17471e+06
1.06046e+06
950990
838733
729618
619356
511216
402128
295252
187858
77916.1
2.17743e+06
2.08316e+06
1.93362e+06
1.85455e+06
1.72349e+06
1.62465e+06
1.53024e+06
1.42496e+06
1.3109e+06
1.19855e+06
1.08476e+06
974205
863086
753801
615705
508356
400497
294238
187392
77882
2.23746e+06
2.12022e+06
1.93547e+06
1.84629e+06
1.71881e+06
1.6466e+06
1.545e+06
1.4336e+06
1.3206e+06
1.20765e+06
1.09487e+06
984296
874469
765074
639572
505357
399200
293362
186912
77813.4
2.16687e+06
2.09143e+06
1.89616e+06
1.83004e+06
1.70216e+06
1.6379e+06
1.54234e+06
1.42557e+06
1.31278e+06
1.20106e+06
1.08988e+06
980614
871545
762345
638120
504349
398119
292600
186471
77816.1
2.1832e+06
2.13944e+06
1.95751e+06
1.85232e+06
1.70632e+06
1.63235e+06
1.53327e+06
1.41675e+06
1.30536e+06
1.19172e+06
1.08602e+06
977527
869139
760218
636415
503069
397211
292010
186161
77850.6
1.99362e+06
2.06739e+06
1.85195e+06
1.81339e+06
1.6815e+06
1.61791e+06
1.52213e+06
1.40833e+06
1.29856e+06
1.19036e+06
1.08345e+06
975524
867187
758488
633953
502005
396727
291629
185982
77924.6
2.36694e+06
2.14581e+06
1.93158e+06
1.83209e+06
1.6881e+06
1.5914e+06
1.49295e+06
1.38661e+06
1.27689e+06
1.17087e+06
1.06449e+06
957601
849986
742960
608871
503096
396739
291570
185998
78097.6
2.30572e+06
2.0183e+06
1.86455e+06
1.7911e+06
1.66427e+06
1.57934e+06
1.46111e+06
1.36096e+06
1.24819e+06
1.14648e+06
1.0385e+06
933250
825357
718071
610027
503828
397074
291802
186159
78373.8
2.12084e+06
1.99336e+06
1.88083e+06
1.79179e+06
1.66606e+06
1.57646e+06
1.45827e+06
1.36037e+06
1.25058e+06
1.14649e+06
1.03832e+06
932171
824498
717845
610511
504209
397373
291964
186374
78647.5
1.64625e+06
1.7951e+06
1.7612e+06
1.74709e+06
1.63767e+06
1.56775e+06
1.45233e+06
1.36038e+06
1.24976e+06
1.14651e+06
1.03717e+06
932028
824041
717911
610762
504612
397680
292240
186685
79023.6
1.81524e+06
1.85787e+06
1.81331e+06
1.7698e+06
1.65858e+06
1.57796e+06
1.45952e+06
1.36344e+06
1.25065e+06
1.14744e+06
1.03741e+06
932065
824000
717938
610897
504835
397945
292516
187024
79344.8
1.64248e+06
1.89025e+06
1.80833e+06
1.78859e+06
1.66289e+06
1.58331e+06
1.46225e+06
1.36498e+06
1.25138e+06
1.14801e+06
1.03773e+06
932484
824229
718225
611215
505215
398275
292856
187337
79705.6
2.53388e+06
2.23777e+06
1.99174e+06
1.86158e+06
1.69806e+06
1.59879e+06
1.46939e+06
1.36853e+06
1.2527e+06
1.14861e+06
1.0383e+06
933127
824677
718546
611480
505397
398476
293048
187604
80040.1
2.75921e+06
2.36392e+06
2.01908e+06
1.8738e+06
1.70316e+06
1.60329e+06
1.47106e+06
1.36907e+06
1.25307e+06
1.14881e+06
1.03865e+06
933239
825154
719014
611850
505750
398730
293326
187848
80599.2
2.60763e+06
2.49091e+06
2.1354e+06
2.0079e+06
1.82103e+06
1.69336e+06
1.55252e+06
1.43396e+06
1.31003e+06
1.19606e+06
1.07789e+06
965769
851014
740192
628145
518409
407340
299216
190050
79027.1
2.4884e+06
2.32883e+06
2.10229e+06
1.97198e+06
1.80554e+06
1.68467e+06
1.54862e+06
1.43194e+06
1.30856e+06
1.19492e+06
1.07728e+06
965032
850461
739645
627641
518033
407126
298925
189875
78457.2
2.19861e+06
2.19198e+06
2.02502e+06
1.92546e+06
1.77908e+06
1.66507e+06
1.53645e+06
1.42295e+06
1.30263e+06
1.19088e+06
1.07464e+06
963634
849740
738901
627112
517512
406673
298502
189552
78144.7
2.02715e+06
2.11189e+06
1.97834e+06
1.88618e+06
1.75454e+06
1.64442e+06
1.5259e+06
1.41454e+06
1.29794e+06
1.18703e+06
1.072e+06
961517
848554
738265
626758
517211
406176
297949
189230
77950.8
2.0052e+06
2.03715e+06
1.92006e+06
1.84727e+06
1.72328e+06
1.62571e+06
1.51196e+06
1.40461e+06
1.29053e+06
1.18144e+06
1.06763e+06
957842
845477
735948
624971
515726
405141
297199
188776
77844
2.105e+06
2.07432e+06
1.94772e+06
1.84905e+06
1.72293e+06
1.62423e+06
1.51015e+06
1.40199e+06
1.28863e+06
1.17772e+06
1.06493e+06
954286
842826
732977
622602
513738
403815
296310
188380
77787.5
1.78887e+06
1.98449e+06
1.90357e+06
1.8354e+06
1.715e+06
1.61744e+06
1.50364e+06
1.39984e+06
1.2842e+06
1.17506e+06
1.06062e+06
951287
838838
729709
619401
511258
402195
295239
187891
77783.4
2.32739e+06
2.11466e+06
1.9421e+06
1.85604e+06
1.72368e+06
1.62483e+06
1.53134e+06
1.42517e+06
1.31102e+06
1.19836e+06
1.08471e+06
974179
863097
753768
615595
508460
400586
294222
187416
77751.9
2.18888e+06
2.13583e+06
1.93096e+06
1.84542e+06
1.7183e+06
1.64601e+06
1.54541e+06
1.43397e+06
1.3206e+06
1.20777e+06
1.09511e+06
984492
874608
765178
639574
505212
399195
293300
186968
77721
2.01476e+06
2.08118e+06
1.89199e+06
1.82891e+06
1.70218e+06
1.63854e+06
1.54295e+06
1.42564e+06
1.31251e+06
1.20087e+06
1.08992e+06
980491
871619
762371
637968
504217
398090
292554
186572
77676.2
2.13294e+06
2.15003e+06
1.95407e+06
1.85033e+06
1.70666e+06
1.63228e+06
1.53382e+06
1.41711e+06
1.30506e+06
1.19471e+06
1.08622e+06
977499
869303
760188
636167
502958
397196
291962
186244
77651.8
1.93533e+06
2.08117e+06
1.84635e+06
1.81075e+06
1.68117e+06
1.6175e+06
1.52218e+06
1.40838e+06
1.29827e+06
1.19024e+06
1.08341e+06
975516
867212
758332
633691
501899
396735
291576
186025
77659.4
2.38242e+06
2.16511e+06
1.9295e+06
1.8283e+06
1.68664e+06
1.59091e+06
1.49282e+06
1.38563e+06
1.27655e+06
1.17064e+06
1.06427e+06
957478
849826
742544
608751
503084
396746
291512
186015
77770.9
2.2803e+06
2.03001e+06
1.87231e+06
1.79106e+06
1.66521e+06
1.57876e+06
1.46105e+06
1.36035e+06
1.24785e+06
1.1459e+06
1.03809e+06
932876
825137
718013
610019
503766
397051
291739
186163
78003.6
2.22177e+06
2.00563e+06
1.88517e+06
1.79119e+06
1.66629e+06
1.57577e+06
1.45836e+06
1.35987e+06
1.25018e+06
1.14613e+06
1.03793e+06
932048
824404
717684
610361
504161
397357
291908
186389
78260.8
1.84237e+06
1.7979e+06
1.75678e+06
1.74651e+06
1.63971e+06
1.56716e+06
1.45268e+06
1.36009e+06
1.24941e+06
1.14629e+06
1.03703e+06
931724
823790
717769
610667
504547
397647
292185
186689
78663
1.93592e+06
1.85965e+06
1.81978e+06
1.77102e+06
1.65879e+06
1.57618e+06
1.45956e+06
1.36284e+06
1.25028e+06
1.14705e+06
1.03718e+06
931821
823877
717840
610845
504774
397907
292433
187001
79000.8
1.64071e+06
1.89871e+06
1.80857e+06
1.78929e+06
1.66301e+06
1.58245e+06
1.46178e+06
1.36446e+06
1.25111e+06
1.14776e+06
1.03749e+06
932312
824137
718166
611146
505145
398228
292770
187316
79341.3
2.62306e+06
2.25877e+06
1.99781e+06
1.86199e+06
1.69834e+06
1.59803e+06
1.46927e+06
1.36835e+06
1.25275e+06
1.1486e+06
1.03813e+06
932991
824603
718520
611428
505361
398448
292981
187557
79646.4
2.66252e+06
2.34623e+06
2.02594e+06
1.87369e+06
1.7033e+06
1.60344e+06
1.47099e+06
1.36908e+06
1.25307e+06
1.14885e+06
1.0385e+06
933162
825074
718992
611851
505749
398724
293246
187723
80204.2
2.68352e+06
2.50534e+06
2.13964e+06
2.00533e+06
1.8213e+06
1.69321e+06
1.55237e+06
1.4338e+06
1.31004e+06
1.19606e+06
1.07797e+06
965812
851052
740204
628079
518348
407321
299160
190035
78845.8
2.38741e+06
2.3278e+06
2.10488e+06
1.97195e+06
1.80579e+06
1.68438e+06
1.54877e+06
1.43194e+06
1.30854e+06
1.1949e+06
1.0773e+06
965154
850613
739715
627710
518078
407145
298864
189883
78188.2
2.11591e+06
2.19001e+06
2.02556e+06
1.92438e+06
1.7791e+06
1.66506e+06
1.53661e+06
1.42287e+06
1.30271e+06
1.19078e+06
1.07462e+06
963547
849727
738996
627156
517553
406709
298435
189618
77902.5
1.92941e+06
2.10607e+06
1.97858e+06
1.88587e+06
1.75449e+06
1.64485e+06
1.52585e+06
1.41457e+06
1.29794e+06
1.18697e+06
1.07208e+06
961429
848484
738148
626703
517203
406259
297924
189369
77779.4
1.85969e+06
2.02326e+06
1.91396e+06
1.84468e+06
1.723e+06
1.62576e+06
1.51209e+06
1.40454e+06
1.29052e+06
1.18125e+06
1.06761e+06
957744
845465
735890
624953
515744
405222
297154
188955
77689.7
2.23432e+06
2.08734e+06
1.94897e+06
1.84979e+06
1.72343e+06
1.62407e+06
1.50996e+06
1.40198e+06
1.28858e+06
1.1776e+06
1.06492e+06
954203
842818
732970
622607
513739
403868
296270
188529
77615.3
1.8911e+06
1.98997e+06
1.90404e+06
1.83625e+06
1.71505e+06
1.61723e+06
1.50381e+06
1.39965e+06
1.28431e+06
1.1752e+06
1.06074e+06
951410
838920
729718
619431
511270
402262
295207
188018
77584.4
2.44914e+06
2.12667e+06
1.94256e+06
1.85556e+06
1.72295e+06
1.62458e+06
1.53195e+06
1.42503e+06
1.31091e+06
1.19806e+06
1.08486e+06
974089
863106
753676
615441
508463
400638
294181
187556
77541.4
2.13476e+06
2.14893e+06
1.92195e+06
1.84394e+06
1.71811e+06
1.64498e+06
1.54619e+06
1.43406e+06
1.3204e+06
1.20767e+06
1.09528e+06
984670
874793
765206
639444
505172
399198
293224
187122
77504.6
2.10058e+06
2.08166e+06
1.89102e+06
1.82934e+06
1.70276e+06
1.63846e+06
1.54273e+06
1.42554e+06
1.3123e+06
1.20069e+06
1.09011e+06
980719
871853
762391
637814
504089
398074
292493
186738
77443
2.08169e+06
2.14169e+06
1.94542e+06
1.84659e+06
1.70694e+06
1.63151e+06
1.53378e+06
1.41718e+06
1.30485e+06
1.19443e+06
1.08586e+06
977670
869446
760123
635951
502781
397184
291901
186430
77395
1.89076e+06
2.07054e+06
1.84422e+06
1.80889e+06
1.68222e+06
1.61662e+06
1.52219e+06
1.40852e+06
1.29815e+06
1.19026e+06
1.08323e+06
975474
867132
758196
633348
501728
396716
291514
186194
77377.1
2.3632e+06
2.1883e+06
1.92351e+06
1.82597e+06
1.6854e+06
1.5905e+06
1.49339e+06
1.38526e+06
1.27646e+06
1.17053e+06
1.06415e+06
957412
849708
742226
608662
503131
396742
291449
186160
77458.3
2.17199e+06
2.02562e+06
1.87176e+06
1.79023e+06
1.66586e+06
1.57848e+06
1.46075e+06
1.36009e+06
1.2474e+06
1.14537e+06
1.03803e+06
932553
824998
717919
610008
503773
397025
291690
186300
77661.9
2.19662e+06
2.00321e+06
1.88697e+06
1.79032e+06
1.66544e+06
1.5752e+06
1.45919e+06
1.35956e+06
1.24955e+06
1.14565e+06
1.03756e+06
931836
824272
717661
610320
504094
397353
291865
186519
77886.7
1.786e+06
1.80987e+06
1.75834e+06
1.74688e+06
1.64174e+06
1.5673e+06
1.45377e+06
1.35991e+06
1.24848e+06
1.14605e+06
1.03652e+06
931483
823660
717668
610626
504491
397644
292146
186752
78256.1
2.05205e+06
1.87115e+06
1.82333e+06
1.77122e+06
1.65859e+06
1.57537e+06
1.45933e+06
1.36243e+06
1.24972e+06
1.14658e+06
1.03683e+06
931489
823694
717719
610801
504732
397914
292377
187022
78571.5
1.85855e+06
1.94359e+06
1.8092e+06
1.79204e+06
1.66375e+06
1.58142e+06
1.46158e+06
1.36389e+06
1.25079e+06
1.14753e+06
1.03742e+06
932203
824057
718096
611094
505096
398215
292722
187349
78928.3
2.58394e+06
2.25685e+06
2.0012e+06
1.86292e+06
1.69886e+06
1.59744e+06
1.4692e+06
1.36809e+06
1.25279e+06
1.14844e+06
1.03804e+06
932830
824570
718488
611394
505338
398446
292928
187627
79205.2
2.73966e+06
2.35253e+06
2.03127e+06
1.87264e+06
1.7036e+06
1.60347e+06
1.47102e+06
1.36906e+06
1.25309e+06
1.14883e+06
1.03841e+06
933142
825002
718932
611818
505727
398711
293195
187667
79767.6
1.11758e+06
1.19236e+06
1.11368e+06
1.20092e+06
1.11755e+06
1.192e+06
1.11354e+06
1.00788e+06
1.08675e+06
1.00851e+06
1.08984e+06
1.00782e+06
1.08659e+06
1.00847e+06
1.11268e+06
1.19163e+06
1.11121e+06
1.19155e+06
1.11255e+06
1.19147e+06
1.11121e+06
1.00773e+06
1.08429e+06
1.00324e+06
1.0859e+06
1.00794e+06
1.08431e+06
1.00325e+06
1.46274e+06
1.5434e+06
1.45533e+06
1.54485e+06
1.46279e+06
1.54395e+06
1.45551e+06
1.34981e+06
1.42691e+06
1.34289e+06
1.43312e+06
1.35004e+06
1.4271e+06
1.34293e+06
1.23679e+06
1.31494e+06
1.2308e+06
1.32032e+06
1.2369e+06
1.31495e+06
1.23078e+06
1.12335e+06
1.20267e+06
1.11913e+06
1.20733e+06
1.12336e+06
1.2027e+06
1.11918e+06
1.01197e+06
1.09124e+06
1.00941e+06
1.09438e+06
1.01221e+06
1.0913e+06
1.00932e+06
902577
982141
900322
983964
902674
981993
900157
793542
872890
790832
874373
793440
872729
790740
683696
763325
680771
765263
683436
763222
680544
1.45363e+06
1.53347e+06
1.44664e+06
1.54126e+06
1.45388e+06
1.53402e+06
1.44692e+06
1.34084e+06
1.41833e+06
1.33477e+06
1.42528e+06
1.34082e+06
1.41849e+06
1.33469e+06
1.22913e+06
1.30738e+06
1.22442e+06
1.31301e+06
1.22909e+06
1.30728e+06
1.22445e+06
1.1178e+06
1.19687e+06
1.11429e+06
1.20121e+06
1.1178e+06
1.19672e+06
1.1141e+06
1.00842e+06
1.08704e+06
1.0054e+06
1.09016e+06
1.00826e+06
1.08689e+06
1.00539e+06
899337
978221
896935
980992
899190
978137
896841
790002
869787
787963
871877
789928
869689
787983
680000
760672
678622
762480
679813
760624
678511
1.44455e+06
1.52535e+06
1.43886e+06
1.53263e+06
1.44486e+06
1.52534e+06
1.43821e+06
1.33276e+06
1.41038e+06
1.32792e+06
1.41623e+06
1.33277e+06
1.40993e+06
1.32783e+06
1.22312e+06
1.30071e+06
1.21878e+06
1.30548e+06
1.22305e+06
1.30069e+06
1.21882e+06
1.11337e+06
1.19163e+06
1.111e+06
1.19531e+06
1.11331e+06
1.1917e+06
1.11096e+06
1.00457e+06
1.08411e+06
1.00289e+06
1.08618e+06
1.00464e+06
1.08403e+06
1.00293e+06
896272
975701
894497
977423
896236
975773
894534
787451
867396
786065
869122
787414
867427
786023
678027
758823
677027
760088
677915
758796
676854
1.43686e+06
1.51438e+06
1.43232e+06
1.5225e+06
1.43638e+06
1.51353e+06
1.432e+06
1.32635e+06
1.40545e+06
1.32206e+06
1.40817e+06
1.32631e+06
1.40452e+06
1.32201e+06
1.21746e+06
1.29376e+06
1.21403e+06
1.29906e+06
1.21755e+06
1.29381e+06
1.21394e+06
1.11022e+06
1.18676e+06
1.10774e+06
1.1905e+06
1.11025e+06
1.18665e+06
1.10769e+06
1.00245e+06
1.08041e+06
1.00116e+06
1.08329e+06
1.00247e+06
1.08036e+06
1.0011e+06
894043
973680
892729
975257
894079
973583
892955
785638
865051
784813
866921
785646
865231
785065
676622
757320
677399
758401
676522
757540
677258
1.46278e+06
1.54405e+06
1.45557e+06
1.54517e+06
1.46307e+06
1.54471e+06
1.45576e+06
1.35016e+06
1.42715e+06
1.34296e+06
1.43346e+06
1.3505e+06
1.42729e+06
1.34293e+06
1.23693e+06
1.31493e+06
1.23079e+06
1.32054e+06
1.23696e+06
1.31478e+06
1.23076e+06
1.12354e+06
1.2027e+06
1.11921e+06
1.20757e+06
1.12403e+06
1.20268e+06
1.11921e+06
1.01231e+06
1.09133e+06
1.00926e+06
1.09477e+06
1.01256e+06
1.09129e+06
1.00902e+06
902731
981925
900080
984232
902849
981640
899828
793384
872654
790682
874447
793348
872387
790474
683333
763150
680556
765072
683035
762996
680463
1.45394e+06
1.5343e+06
1.44706e+06
1.54219e+06
1.45413e+06
1.5353e+06
1.44749e+06
1.34083e+06
1.4186e+06
1.33469e+06
1.42552e+06
1.34083e+06
1.4189e+06
1.33474e+06
1.22908e+06
1.30724e+06
1.22441e+06
1.31285e+06
1.22901e+06
1.30714e+06
1.22411e+06
1.1178e+06
1.1966e+06
1.11398e+06
1.2011e+06
1.11768e+06
1.19597e+06
1.1135e+06
1.00819e+06
1.08679e+06
1.00541e+06
1.08999e+06
1.00794e+06
1.08639e+06
1.00533e+06
899125
978086
896811
980678
898906
977863
896769
789880
869671
787959
871601
789736
869631
787961
679788
760625
678499
762336
679587
760644
678319
1.44498e+06
1.52535e+06
1.43816e+06
1.53323e+06
1.44534e+06
1.52601e+06
1.4382e+06
1.33279e+06
1.4099e+06
1.32781e+06
1.41667e+06
1.33286e+06
1.41017e+06
1.32769e+06
1.22296e+06
1.30064e+06
1.21882e+06
1.3054e+06
1.2227e+06
1.30035e+06
1.21872e+06
1.11329e+06
1.19169e+06
1.11095e+06
1.1949e+06
1.11329e+06
1.19162e+06
1.11109e+06
1.00468e+06
1.08402e+06
1.00296e+06
1.08634e+06
1.00488e+06
1.08416e+06
1.00316e+06
896226
975810
894565
977431
896209
975989
894744
787420
867455
786041
869100
787516
867637
786186
677891
758811
676838
760203
677661
758918
676554
1.4363e+06
1.51292e+06
1.43178e+06
1.52228e+06
1.43625e+06
1.51252e+06
1.43129e+06
1.32626e+06
1.40413e+06
1.32198e+06
1.40827e+06
1.32609e+06
1.40338e+06
1.32173e+06
1.21754e+06
1.29377e+06
1.21392e+06
1.29864e+06
1.21741e+06
1.29332e+06
1.21385e+06
1.11026e+06
1.18665e+06
1.10769e+06
1.19038e+06
1.11032e+06
1.18661e+06
1.10765e+06
1.00251e+06
1.08031e+06
1.00106e+06
1.08339e+06
1.00268e+06
1.08015e+06
1.00085e+06
894108
973524
893019
975472
894313
973272
892985
785673
865313
785116
867129
785821
865239
785021
676495
757534
677287
758511
676174
757275
676910
1.46315e+06
1.54475e+06
1.45581e+06
1.54551e+06
1.46337e+06
1.54497e+06
1.45595e+06
1.35065e+06
1.42733e+06
1.34289e+06
1.43388e+06
1.35086e+06
1.42745e+06
1.3428e+06
1.23698e+06
1.3147e+06
1.23072e+06
1.32063e+06
1.23682e+06
1.31451e+06
1.23055e+06
1.1242e+06
1.20265e+06
1.11917e+06
1.20774e+06
1.1245e+06
1.20253e+06
1.11915e+06
1.01264e+06
1.09125e+06
1.00897e+06
1.09506e+06
1.01285e+06
1.0912e+06
1.00891e+06
902892
981573
899742
984447
903034
981501
899670
793380
872316
790460
874568
793590
872308
790526
683074
762996
680475
765162
683076
763037
680414
1.45419e+06
1.53549e+06
1.44761e+06
1.54294e+06
1.45431e+06
1.53621e+06
1.44791e+06
1.34077e+06
1.41898e+06
1.33475e+06
1.42564e+06
1.34068e+06
1.41925e+06
1.33473e+06
1.22897e+06
1.30712e+06
1.22402e+06
1.31258e+06
1.2288e+06
1.30695e+06
1.22376e+06
1.17141e+06
1.17321e+06
1.19934e+06
1.20102e+06
1.17155e+06
1.17316e+06
1.19931e+06
1.0611e+06
1.06241e+06
1.08852e+06
1.08978e+06
1.06125e+06
1.06232e+06
1.08829e+06
898826
977896
896764
980509
898793
977878
896823
789731
869629
787980
871564
789776
869723
788029
679585
760657
678319
762361
679466
760664
678062
1.44544e+06
1.52599e+06
1.43828e+06
1.53384e+06
1.44572e+06
1.52625e+06
1.43845e+06
1.33287e+06
1.41029e+06
1.32762e+06
1.41702e+06
1.33281e+06
1.41046e+06
1.32743e+06
1.22268e+06
1.30024e+06
1.21867e+06
1.30513e+06
1.2224e+06
1.30001e+06
1.21842e+06
1.16861e+06
1.1654e+06
1.19451e+06
1.19083e+06
1.16764e+06
1.16176e+06
1.19507e+06
1.05914e+06
1.05928e+06
1.08564e+06
1.08604e+06
1.05837e+06
1.05992e+06
1.0865e+06
896234
976061
894831
977570
896369
976116
894955
787545
867708
786216
869274
787573
867798
786149
677648
758904
676526
760204
677384
758806
676276
1.43629e+06
1.51212e+06
1.43115e+06
1.52229e+06
1.43637e+06
1.512e+06
1.43077e+06
1.32599e+06
1.40323e+06
1.32164e+06
1.40836e+06
1.32581e+06
1.4027e+06
1.3213e+06
1.21736e+06
1.29313e+06
1.21382e+06
1.29834e+06
1.21719e+06
1.29292e+06
1.21379e+06
1.11038e+06
1.18659e+06
1.10762e+06
1.19027e+06
1.11039e+06
1.18655e+06
1.10753e+06
1.00273e+06
1.0801e+06
1.00079e+06
1.08347e+06
1.00271e+06
1.07995e+06
1.00062e+06
894386
973189
892958
975539
894488
972929
892828
785839
865154
784970
867234
785744
864917
784788
676141
757194
676844
758371
675864
756929
676531
1.46338e+06
1.54484e+06
1.45599e+06
1.54612e+06
1.4633e+06
1.54467e+06
1.45604e+06
1.35092e+06
1.42748e+06
1.34276e+06
1.43406e+06
1.35086e+06
1.4275e+06
1.34266e+06
1.23679e+06
1.31445e+06
1.23049e+06
1.3204e+06
1.23664e+06
1.3143e+06
1.23031e+06
1.12458e+06
1.2025e+06
1.11918e+06
1.20769e+06
1.12474e+06
1.20238e+06
1.1193e+06
1.01291e+06
1.09123e+06
1.00892e+06
1.09524e+06
1.01309e+06
1.09134e+06
1.009e+06
903095
981506
899723
984628
903319
981604
899995
793632
872364
790553
874756
793730
872581
790641
683191
763057
680492
765206
683134
763103
680292
1.45432e+06
1.53625e+06
1.44796e+06
1.54292e+06
1.45431e+06
1.53648e+06
1.44792e+06
1.34064e+06
1.41932e+06
1.3347e+06
1.42557e+06
1.34051e+06
1.4193e+06
1.3346e+06
1.22873e+06
1.30688e+06
1.22375e+06
1.31234e+06
1.22853e+06
1.30671e+06
1.22355e+06
1.11763e+06
1.19583e+06
1.11329e+06
1.20073e+06
1.11775e+06
1.19586e+06
1.11358e+06
1.00784e+06
1.08617e+06
1.00526e+06
1.0901e+06
1.00796e+06
1.08648e+06
1.00541e+06
898854
977877
896871
980645
899089
978152
897056
789795
869763
788035
871796
789848
869906
788050
679530
760658
678106
762393
679310
760644
677834
1.44578e+06
1.52617e+06
1.43848e+06
1.53395e+06
1.4458e+06
1.52641e+06
1.4386e+06
1.33278e+06
1.41048e+06
1.32741e+06
1.41718e+06
1.33269e+06
1.4106e+06
1.32733e+06
1.22226e+06
1.29994e+06
1.21831e+06
1.30489e+06
1.22199e+06
1.29979e+06
1.21816e+06
1.11316e+06
1.19135e+06
1.11108e+06
1.19439e+06
1.11292e+06
1.1912e+06
1.11086e+06
1.00493e+06
1.08419e+06
1.00319e+06
1.0859e+06
1.00482e+06
1.08397e+06
1.00314e+06
896413
976092
894957
977607
896554
976083
894961
787568
867789
786117
869405
787547
867768
786045
677422
758770
676286
760139
677155
758689
676046
1.4364e+06
1.51175e+06
1.43066e+06
1.52229e+06
1.43655e+06
1.51215e+06
1.43048e+06
1.32577e+06
1.40253e+06
1.32121e+06
1.4085e+06
1.32569e+06
1.40216e+06
1.32093e+06
1.21714e+06
1.29292e+06
1.21379e+06
1.29814e+06
1.21712e+06
1.29291e+06
1.21384e+06
1.11034e+06
1.18655e+06
1.1075e+06
1.19026e+06
1.11023e+06
1.18652e+06
1.10737e+06
1.00266e+06
1.0799e+06
1.00057e+06
1.08326e+06
1.00258e+06
1.0798e+06
1.00046e+06
894483
972876
892793
975476
894432
972758
892715
785708
864856
784736
867147
785615
864727
784635
675861
756855
676536
758227
675636
756676
676327
1.46328e+06
1.54454e+06
1.45605e+06
1.54674e+06
1.46323e+06
1.5449e+06
1.45616e+06
1.35084e+06
1.4275e+06
1.34263e+06
1.43374e+06
1.35079e+06
1.42757e+06
1.34265e+06
1.23663e+06
1.31426e+06
1.23026e+06
1.32042e+06
1.23673e+06
1.31425e+06
1.23022e+06
1.12479e+06
1.20235e+06
1.11932e+06
1.20755e+06
1.12499e+06
1.20231e+06
1.11931e+06
1.01314e+06
1.09137e+06
1.00904e+06
1.09528e+06
1.01335e+06
1.09143e+06
1.00917e+06
903407
981671
900076
984664
903757
981815
900213
793743
872642
790666
874788
793859
872716
790702
683235
763107
680335
765082