/*--------------------------------*- C++ -*----------------------------------*\
  =========                 |
  \\      /  F ield         | OpenFOAM: The Open Source CFD Toolbox
   \\    /   O peration     | Website:  https://openfoam.org
    \\  /    A nd           | Version:  10
     \\/     M anipulation  |
\*---------------------------------------------------------------------------*/
FoamFile
{
    format      ascii;
    class       volScalarField;
    location    "5.4";
    object      turbidity_0;
}
// * * * * * * * * * * * * * * * * * * * * * * * * * * * * * * * * * * * * * //

dimensions      [0 0 0 0 0 0 0];

internalField   nonuniform List<scalar> 
12920
(
-0.0403026
-0.0586116
-0.0725389
-0.0959211
-0.129122
-0.173427
-0.203892
-0.221771
-0.230856
-0.236445
-0.2417
-0.247437
-0.256958
-0.269881
-0.287207
-0.307781
-0.32937
-0.355085
-0.393472
-0.439039
-0.0230384
-0.0613294
-0.109632
-0.168917
-0.196994
-0.228746
-0.251183
-0.255709
-0.246592
-0.235739
-0.232786
-0.240217
-0.264566
-0.300281
-0.34755
-0.393002
-0.439018
-0.487938
-0.54003
-0.5867
-0.0152888
-0.0454336
-0.0631673
-0.0887893
-0.124548
-0.179037
-0.238656
-0.280105
-0.313204
-0.332487
-0.357007
-0.377731
-0.403921
-0.432007
-0.468158
-0.511138
-0.559162
-0.603501
-0.64062
-0.670333
-0.00874624
-0.0340965
-0.0548232
-0.0795939
-0.112265
-0.176281
-0.252222
-0.318318
-0.35982
-0.398672
-0.432267
-0.465132
-0.497611
-0.530111
-0.56393
-0.595647
-0.621776
-0.641634
-0.654787
-0.665139
-0.0152148
-0.0523512
-0.0818567
-0.111423
-0.144128
-0.184125
-0.225583
-0.26802
-0.299245
-0.337102
-0.370272
-0.407747
-0.44077
-0.473056
-0.501927
-0.528904
-0.552031
-0.570736
-0.582022
-0.589459
-0.0372658
-0.0618984
-0.0885711
-0.128958
-0.155589
-0.193622
-0.207827
-0.240014
-0.255566
-0.287872
-0.318625
-0.363881
-0.402381
-0.439165
-0.469429
-0.49466
-0.509974
-0.516785
-0.514711
-0.512734
-0.0402621
-0.055373
-0.0641999
-0.0851102
-0.105079
-0.131701
-0.140998
-0.162471
-0.171773
-0.190686
-0.217362
-0.267167
-0.320853
-0.375543
-0.416488
-0.440856
-0.44003
-0.430947
-0.420991
-0.419757
-0.0285621
-0.045813
-0.0522571
-0.0647916
-0.0809286
-0.0994187
-0.101009
-0.100784
-0.10427
-0.102516
-0.10755
-0.128659
-0.174761
-0.232682
-0.258813
-0.273941
-0.279191
-0.29156
-0.310768
-0.336229
-0.0283653
-0.0511514
-0.0641286
-0.0809366
-0.100568
-0.0997511
-0.0975155
-0.0935461
-0.0976654
-0.0998057
-0.0934207
-0.0984463
-0.120352
-0.158713
-0.193991
-0.189832
-0.214338
-0.245527
-0.284647
-0.327988
-0.044431
-0.0653762
-0.0731634
-0.0910127
-0.112293
-0.109007
-0.10567
-0.107047
-0.107262
-0.117232
-0.112581
-0.105123
-0.106775
-0.121318
-0.147918
-0.167541
-0.203583
-0.247472
-0.299493
-0.353854
-0.0363193
-0.0555189
-0.0611514
-0.0710828
-0.0823115
-0.0835559
-0.0852282
-0.0847014
-0.0953609
-0.114795
-0.118868
-0.118005
-0.115055
-0.117583
-0.13114
-0.157758
-0.205194
-0.259064
-0.319336
-0.380596
-0.0491274
-0.0401242
-0.0514136
-0.0679163
-0.0864853
-0.0855043
-0.0826469
-0.0817285
-0.113231
-0.134321
-0.128302
-0.118064
-0.115779
-0.117479
-0.116638
-0.163942
-0.221841
-0.279548
-0.341278
-0.402639
-0.0479419
-0.0404642
-0.0509834
-0.0698389
-0.0941347
-0.119005
-0.115817
-0.125586
-0.162305
-0.185143
-0.174821
-0.15455
-0.139441
-0.132497
-0.217376
-0.265666
-0.306994
-0.345661
-0.389789
-0.436118
-0.0728225
-0.0649059
-0.0595155
-0.0895209
-0.116184
-0.147888
-0.171637
-0.21503
-0.253808
-0.289452
-0.316523
-0.342926
-0.365477
-0.388184
-0.407741
-0.420355
-0.422598
-0.425501
-0.438779
-0.464268
-0.0338665
-0.0624168
-0.0759374
-0.116929
-0.141014
-0.166684
-0.188498
-0.204351
-0.222
-0.23465
-0.258217
-0.28384
-0.313937
-0.344234
-0.371936
-0.393278
-0.405676
-0.413597
-0.429893
-0.457291
-0.0253466
-0.0734198
-0.0913508
-0.113984
-0.131386
-0.141283
-0.153375
-0.155463
-0.165039
-0.176993
-0.2008
-0.232115
-0.270042
-0.306926
-0.341845
-0.373119
-0.399681
-0.421562
-0.44444
-0.471472
-0.0119249
-0.0484285
-0.083376
-0.108668
-0.123727
-0.133135
-0.137357
-0.137034
-0.142337
-0.150686
-0.171082
-0.200698
-0.237939
-0.27594
-0.313359
-0.347967
-0.378469
-0.405509
-0.431276
-0.459165
-0.0117006
-0.0288386
-0.0440285
-0.0627541
-0.0790424
-0.0992437
-0.117632
-0.131297
-0.143784
-0.157402
-0.178701
-0.204979
-0.234968
-0.268331
-0.302469
-0.334965
-0.364359
-0.390422
-0.41346
-0.434285
-0.0341862
-0.0471698
-0.055413
-0.067929
-0.0794294
-0.0924132
-0.109536
-0.127778
-0.154052
-0.183899
-0.216578
-0.245606
-0.272905
-0.299567
-0.327014
-0.355603
-0.38641
-0.41847
-0.450968
-0.478884
-0.0698779
-0.0346536
-0.0527791
-0.0820299
-0.0977531
-0.109267
-0.121433
-0.135643
-0.152916
-0.173748
-0.197139
-0.219503
-0.233385
-0.244546
-0.260873
-0.285191
-0.322142
-0.363614
-0.405095
-0.441352
-0.0440251
-0.0285794
-0.0330343
-0.02817
-0.0286351
-0.0308703
-0.0335326
-0.0371144
-0.0390587
-0.0393197
-0.0425686
-0.0493459
-0.0606498
-0.0720604
-0.0740413
-0.0616583
-0.0527564
-0.0540921
-0.0646394
-0.0809265
-0.00642048
-0.0395703
-0.0795125
-0.0788861
-0.0514767
-0.0517437
-0.0367099
-0.0252117
-0.0220203
-0.0223807
-0.0251868
-0.0295663
-0.0376259
-0.04848
-0.0651182
-0.0893749
-0.121178
-0.148408
-0.168175
-0.17404
-0.0204086
-0.022346
-0.0288367
-0.0413544
-0.0653252
-0.0587318
-0.054376
-0.0359047
-0.033081
-0.0346894
-0.041814
-0.0510216
-0.0677515
-0.0883398
-0.111813
-0.127999
-0.13694
-0.138512
-0.13677
-0.134009
-0.0159553
-0.0242107
-0.0278182
-0.0388675
-0.0663356
-0.0725637
-0.0698636
-0.0583268
-0.0587832
-0.0662846
-0.0746306
-0.0821847
-0.0885698
-0.090679
-0.0904863
-0.0877167
-0.0862775
-0.0890214
-0.095709
-0.104992
-0.018417
-0.018708
-0.0323759
-0.0372978
-0.0452118
-0.0425003
-0.0488973
-0.0552891
-0.067651
-0.0709454
-0.0743827
-0.07053
-0.0692815
-0.0655464
-0.064192
-0.0627628
-0.0641491
-0.0662273
-0.070095
-0.0759913
-0.00437323
-0.0180854
-0.0237528
-0.0286094
-0.0261949
-0.0368078
-0.0435289
-0.0606017
-0.0748859
-0.0887296
-0.0917787
-0.085676
-0.0776959
-0.0692202
-0.0675946
-0.0677781
-0.068
-0.0635457
-0.060425
-0.0597629
-0.00344509
-0.00993631
-0.0118431
-0.0151852
-0.019264
-0.0255679
-0.0341027
-0.0484804
-0.0676912
-0.0874838
-0.0968041
-0.0966299
-0.0938466
-0.0909849
-0.0926439
-0.0883318
-0.0799107
-0.0676363
-0.057688
-0.0530692
-0.00744006
-0.00823484
-0.0130387
-0.0199045
-0.0312928
-0.0369543
-0.0420743
-0.0554051
-0.0656678
-0.0772319
-0.0859254
-0.0900139
-0.0941956
-0.0928299
-0.057113
-0.0506908
-0.0478234
-0.0464318
-0.0458247
-0.0462109
-0.00676218
-0.0136184
-0.0185444
-0.025632
-0.0474714
-0.0500514
-0.0555595
-0.0762796
-0.0888052
-0.0867925
-0.0795298
-0.0729345
-0.0876588
-0.103738
-0.0792086
-0.0614817
-0.0578431
-0.053422
-0.0496189
-0.0475118
-0.0100805
-0.0161425
-0.0137446
-0.0230312
-0.0334202
-0.0426152
-0.0626372
-0.0791841
-0.0880621
-0.0830148
-0.0599559
-0.0537952
-0.0793435
-0.105268
-0.0842273
-0.0550094
-0.0490562
-0.0444864
-0.0418688
-0.0413452
-0.0187813
-0.01539
-0.011823
-0.0124813
-0.0158955
-0.0203373
-0.0281828
-0.0411667
-0.0747736
-0.093005
-0.0739462
-0.0606452
-0.0756914
-0.0956233
-0.0707292
-0.0433864
-0.0391875
-0.0374162
-0.0386598
-0.0422962
-0.015503
-0.0123262
-0.0161954
-0.0172661
-0.0234261
-0.0261897
-0.0355375
-0.0613789
-0.100426
-0.0914754
-0.061041
-0.0673048
-0.0810994
-0.0781863
-0.0517908
-0.0344966
-0.0325389
-0.0342624
-0.0397437
-0.0475965
-0.0184863
-0.00914073
-0.0119289
-0.0158677
-0.0266384
-0.0465926
-0.0606449
-0.0938277
-0.0988897
-0.061021
-0.0396013
-0.0396193
-0.0462028
-0.0498724
-0.0340087
-0.0289055
-0.028797
-0.0334119
-0.0424612
-0.0533861
-0.0213305
-0.0127756
-0.0109506
-0.0186823
-0.0346409
-0.0571272
-0.0782614
-0.0888341
-0.0865849
-0.0860951
-0.0868377
-0.0870079
-0.08143
-0.0679141
-0.0518432
-0.0382147
-0.0342738
-0.0386494
-0.0500015
-0.0634475
-0.0146211
-0.0131605
-0.0144035
-0.0275659
-0.0338669
-0.0431443
-0.0552086
-0.052996
-0.0584633
-0.0620581
-0.0706946
-0.0779853
-0.0830798
-0.0789351
-0.0675852
-0.0543138
-0.0474157
-0.0503854
-0.0636844
-0.0803991
-0.0110028
-0.0145369
-0.0191849
-0.0198638
-0.0200579
-0.0200514
-0.0253306
-0.0260698
-0.0313522
-0.037312
-0.0463891
-0.0555994
-0.0655612
-0.0734335
-0.0773946
-0.075812
-0.0724416
-0.0730411
-0.0869876
-0.106378
-0.00785381
-0.0211271
-0.0232414
-0.0218825
-0.013811
-0.0134325
-0.0153571
-0.0186072
-0.0244795
-0.031166
-0.0394796
-0.0473909
-0.0561257
-0.0632756
-0.0690212
-0.072947
-0.0782098
-0.086003
-0.10126
-0.119323
-0.00664669
-0.00990499
-0.015229
-0.0146331
-0.0185928
-0.0213681
-0.0245841
-0.0252214
-0.0313026
-0.0399937
-0.0488224
-0.0543571
-0.0577048
-0.054095
-0.0466537
-0.0412277
-0.0398445
-0.044952
-0.0565546
-0.0753171
-0.0118972
-0.0141508
-0.00940516
-0.011174
-0.0140941
-0.0175671
-0.0238926
-0.0339362
-0.048404
-0.0606426
-0.0676255
-0.0639595
-0.057518
-0.0532659
-0.0555172
-0.0623868
-0.0684757
-0.0722434
-0.0723408
-0.0710487
-0.0123033
-0.00512514
-0.00560462
-0.0107672
-0.0223289
-0.0333349
-0.0456718
-0.0588365
-0.0746679
-0.0870918
-0.0857461
-0.0659547
-0.0452121
-0.0330445
-0.0295623
-0.0316283
-0.0363952
-0.041589
-0.0466598
-0.0509428
-0.0244063
-0.0184136
-0.024632
-0.0277692
-0.0293656
-0.0261382
-0.0228588
-0.0212442
-0.0218172
-0.0238938
-0.0276664
-0.0319251
-0.0359792
-0.03707
-0.0345007
-0.0298188
-0.0281105
-0.0296069
-0.0332666
-0.0376951
-0.00118714
-0.0130122
-0.0380635
-0.0340385
-0.0214939
-0.0189228
-0.0152881
-0.0143947
-0.0152614
-0.0166664
-0.018918
-0.021118
-0.0241621
-0.027284
-0.0320795
-0.0381879
-0.045126
-0.0495434
-0.0514002
-0.0484615
-0.0220595
-0.0200269
-0.0197608
-0.0229312
-0.0295387
-0.0217032
-0.0175727
-0.0143638
-0.014799
-0.0158993
-0.0184068
-0.0214022
-0.026265
-0.0313914
-0.0369555
-0.0395892
-0.0404663
-0.0396446
-0.0385211
-0.0370778
-0.00549313
-0.0126492
-0.0157587
-0.0205371
-0.0332146
-0.0277901
-0.023202
-0.021198
-0.0219955
-0.0235175
-0.0251178
-0.0265109
-0.0280432
-0.0291138
-0.0304264
-0.0318785
-0.0339019
-0.0361813
-0.0384864
-0.0404993
-0.00651329
-0.0135859
-0.0165911
-0.0160106
-0.0176864
-0.0184413
-0.0222099
-0.0240789
-0.0272514
-0.0266677
-0.0265895
-0.0253919
-0.0251958
-0.0252719
-0.026118
-0.027402
-0.0290427
-0.0308973
-0.0328558
-0.0349879
-0.00467184
-0.0114506
-0.0117836
-0.012732
-0.0153356
-0.0206657
-0.0254909
-0.0310243
-0.035039
-0.0351177
-0.0324592
-0.0279083
-0.0248299
-0.0230079
-0.0226821
-0.0226965
-0.0227618
-0.0227788
-0.0235403
-0.0250685
-0.00707943
-0.00755662
-0.00853024
-0.0113824
-0.0161748
-0.0198331
-0.0273935
-0.0343307
-0.0418874
-0.0453106
-0.0426597
-0.0363771
-0.0312497
-0.0274453
-0.0256181
-0.0230767
-0.0209951
-0.0191654
-0.0187014
-0.0196712
-0.00276891
-0.00514746
-0.0106859
-0.019187
-0.0303408
-0.0317987
-0.034917
-0.0430653
-0.0497497
-0.0540958
-0.0490269
-0.0399246
-0.0325896
-0.0253697
-0.0152454
-0.0143144
-0.0141712
-0.0145679
-0.0154174
-0.0168099
-0.00319305
-0.00879406
-0.0149337
-0.0255352
-0.0412641
-0.0430922
-0.0442408
-0.0590227
-0.0655652
-0.0556161
-0.0423764
-0.0360413
-0.0345136
-0.0274818
-0.0214854
-0.0186357
-0.0175644
-0.0166523
-0.016415
-0.0169601
-0.00281642
-0.0071205
-0.0100981
-0.0165993
-0.0285715
-0.0395078
-0.0514874
-0.0594633
-0.0589093
-0.0367622
-0.0237138
-0.0264991
-0.0317913
-0.0316535
-0.0271555
-0.0177207
-0.0164055
-0.0156906
-0.0158106
-0.0165555
-0.0060112
-0.00785459
-0.0083458
-0.010115
-0.0156051
-0.0214378
-0.0308297
-0.0450317
-0.0577036
-0.045578
-0.031325
-0.029297
-0.0340465
-0.0340111
-0.0223356
-0.0145039
-0.0144308
-0.0153797
-0.0169165
-0.0185574
-0.00944029
-0.00956362
-0.0105922
-0.0116546
-0.0187588
-0.0247741
-0.0350511
-0.0554844
-0.056911
-0.0279745
-0.0230795
-0.0275948
-0.0286271
-0.0248244
-0.0172063
-0.0134798
-0.0149175
-0.0170698
-0.0195639
-0.021905
-0.0175774
-0.00792164
-0.00849201
-0.0108537
-0.0180674
-0.0281755
-0.0383676
-0.0504335
-0.031468
-0.0150779
-0.0120023
-0.0129836
-0.0140736
-0.013873
-0.0120127
-0.0133868
-0.0157725
-0.0187048
-0.021876
-0.0245915
-0.00696347
-0.00623048
-0.00784269
-0.0121718
-0.0190141
-0.0282329
-0.0362835
-0.0349889
-0.0286301
-0.026651
-0.0244858
-0.0225638
-0.0194886
-0.0162968
-0.0147554
-0.0154655
-0.0181124
-0.0216383
-0.0254224
-0.0279718
-0.0135201
-0.0113358
-0.0108619
-0.0142583
-0.0173994
-0.0210385
-0.0265428
-0.0257252
-0.0269884
-0.027543
-0.0282195
-0.0275037
-0.0258539
-0.022789
-0.0204042
-0.020271
-0.0227887
-0.0269319
-0.0318228
-0.034453
-0.0171892
-0.0132283
-0.0117559
-0.0112789
-0.0120325
-0.0130123
-0.0164301
-0.0174072
-0.0196713
-0.0211192
-0.0229978
-0.0241749
-0.025619
-0.0263485
-0.0268356
-0.0278427
-0.0304477
-0.0349027
-0.0414401
-0.0451168
-0.014291
-0.0126722
-0.00957443
-0.00980261
-0.00959447
-0.0110758
-0.0135937
-0.0154862
-0.0175345
-0.0184082
-0.0192113
-0.0199721
-0.0219408
-0.0242338
-0.0272173
-0.0308373
-0.0355074
-0.0410631
-0.0483575
-0.0526424
-0.00522729
-0.0064771
-0.00752463
-0.00861371
-0.0117904
-0.0139503
-0.0167079
-0.0195354
-0.0228349
-0.0235627
-0.0226897
-0.0208774
-0.0200983
-0.01964
-0.0207029
-0.0237747
-0.0284407
-0.0340316
-0.0403849
-0.0459625
-0.00320371
-0.00741166
-0.00775156
-0.00901975
-0.0111337
-0.0142941
-0.020292
-0.0267051
-0.0330771
-0.0342934
-0.0313617
-0.0260435
-0.0230377
-0.022796
-0.024844
-0.0274545
-0.0293529
-0.0302189
-0.0307404
-0.0316303
-0.00607553
-0.00580721
-0.00536517
-0.00554564
-0.0095665
-0.0164894
-0.0263235
-0.0368409
-0.0472754
-0.0514574
-0.0450012
-0.0317435
-0.0227764
-0.0198597
-0.020577
-0.0224702
-0.0242929
-0.0255001
-0.0262546
-0.0268514
-0.0195886
-0.0150526
-0.0180901
-0.0251472
-0.0340018
-0.0343512
-0.027757
-0.0214095
-0.0185843
-0.0183067
-0.019533
-0.0202168
-0.0205353
-0.019493
-0.0184452
-0.0177764
-0.0181427
-0.0190131
-0.0201848
-0.0213134
-0.0124683
-0.023611
-0.0298207
-0.0222587
-0.0187476
-0.0146374
-0.0130918
-0.0125707
-0.0131345
-0.0137138
-0.0143961
-0.014461
-0.0145237
-0.0145205
-0.0152652
-0.0157404
-0.016408
-0.0166172
-0.0168831
-0.0168409
-0.0319352
-0.0281571
-0.0187157
-0.0160083
-0.0145928
-0.0119091
-0.0105021
-0.0100234
-0.0102591
-0.0106876
-0.0113713
-0.0120685
-0.0132067
-0.0141712
-0.0153425
-0.0159483
-0.0166743
-0.01737
-0.018443
-0.0196598
-0.00776443
-0.0131168
-0.0141589
-0.014808
-0.0161679
-0.0130933
-0.01173
-0.0114785
-0.0117015
-0.0121868
-0.0127806
-0.0134402
-0.0143738
-0.0152644
-0.0164361
-0.0176123
-0.0189306
-0.0201386
-0.0213624
-0.0225814
-0.0166093
-0.0174886
-0.0135316
-0.012248
-0.0121809
-0.012027
-0.0129123
-0.0129139
-0.0133047
-0.0131317
-0.0133438
-0.0136658
-0.0143891
-0.0153209
-0.0164077
-0.01752
-0.0185493
-0.019481
-0.020312
-0.0211943
-0.00436412
-0.0100531
-0.0100769
-0.0110037
-0.0123081
-0.0138474
-0.015109
-0.0156944
-0.015568
-0.0148889
-0.0138803
-0.0133024
-0.013162
-0.0135852
-0.0141053
-0.0147802
-0.0154166
-0.0161183
-0.0168783
-0.0177305
-0.00733354
-0.0089814
-0.00926091
-0.0109879
-0.0139876
-0.0153761
-0.0175805
-0.0186093
-0.0190676
-0.0188212
-0.0163131
-0.0141546
-0.0127121
-0.0122397
-0.0122173
-0.0124534
-0.0130123
-0.0138507
-0.0149158
-0.0161014
-0.0101406
-0.00973731
-0.0124563
-0.0172777
-0.0225198
-0.0215249
-0.022879
-0.0248472
-0.0248095
-0.0232994
-0.0183338
-0.0139775
-0.0113563
-0.00976214
-0.00886601
-0.00953902
-0.0106015
-0.0120011
-0.0135916
-0.0152571
-0.00415574
-0.0109041
-0.0148758
-0.0217498
-0.0282941
-0.0261853
-0.0268948
-0.0350603
-0.0304364
-0.0198904
-0.0155302
-0.0126746
-0.0101309
-0.00838506
-0.00768967
-0.0092311
-0.0103915
-0.0118057
-0.013456
-0.0152091
-0.00405321
-0.0113535
-0.0120527
-0.0169765
-0.023455
-0.0269062
-0.0295187
-0.0293598
-0.0214953
-0.0118244
-0.0103354
-0.0112636
-0.0111545
-0.0102524
-0.00847064
-0.00974364
-0.011056
-0.0125233
-0.014134
-0.0157262
-0.00177408
-0.0051407
-0.00644363
-0.00955089
-0.0156778
-0.0196989
-0.0223202
-0.0248077
-0.0250237
-0.016575
-0.0133059
-0.0142537
-0.0125287
-0.00975172
-0.00785694
-0.0103253
-0.0119328
-0.0135683
-0.0151562
-0.0166072
-0.00739529
-0.00580825
-0.00694337
-0.00944476
-0.0153826
-0.0177391
-0.020644
-0.0251834
-0.0159333
-0.0105005
-0.0109615
-0.0110914
-0.00965039
-0.00837639
-0.00829134
-0.0110368
-0.0125899
-0.014156
-0.0156914
-0.0171843
-0.00934387
-0.00618092
-0.0071677
-0.00946694
-0.0136088
-0.0153966
-0.0191784
-0.0154492
-0.00844117
-0.00631688
-0.00642496
-0.00688479
-0.00739984
-0.00800982
-0.00996751
-0.0112095
-0.0125306
-0.0138961
-0.015337
-0.0169572
-0.00699596
-0.00596989
-0.00709099
-0.0098992
-0.0119347
-0.0134879
-0.0133213
-0.0117081
-0.00915012
-0.00890611
-0.00857003
-0.00869188
-0.00894137
-0.00954891
-0.010479
-0.011587
-0.0127449
-0.0138337
-0.0149889
-0.016395
-0.0147511
-0.0110796
-0.00949384
-0.0104745
-0.0105666
-0.0115105
-0.0116727
-0.0113302
-0.0109226
-0.0106986
-0.0105429
-0.0105273
-0.0107943
-0.0112915
-0.0121201
-0.0131639
-0.0142046
-0.0150511
-0.0158728
-0.0166138
-0.0134474
-0.0094077
-0.00763227
-0.0081032
-0.00876684
-0.00961641
-0.0104774
-0.0106594
-0.0108605
-0.0109687
-0.0113176
-0.0118807
-0.0128575
-0.0138764
-0.0149705
-0.0160832
-0.0170707
-0.0178634
-0.0189123
-0.018998
-0.0150821
-0.0124521
-0.00778331
-0.00748921
-0.00842564
-0.00952887
-0.0102662
-0.0104637
-0.0106214
-0.0107814
-0.0114331
-0.0125563
-0.0142346
-0.0159784
-0.0177115
-0.0192348
-0.0204198
-0.0212239
-0.0222881
-0.0218983
-0.0144244
-0.00762082
-0.0073419
-0.00836298
-0.0101304
-0.0110614
-0.0124005
-0.0127682
-0.0129125
-0.0124098
-0.0124157
-0.0130391
-0.0144532
-0.0161968
-0.0180253
-0.0195509
-0.0206048
-0.0211923
-0.0218208
-0.0220241
-0.00204905
-0.00391947
-0.00647099
-0.00793106
-0.00971186
-0.012105
-0.0155384
-0.0175791
-0.0184659
-0.016905
-0.0154596
-0.0147385
-0.0153343
-0.0161781
-0.0167994
-0.0170428
-0.0172226
-0.0176984
-0.0187468
-0.020503
-0.00307433
-0.00455977
-0.00543669
-0.00542934
-0.00740972
-0.0116036
-0.0181402
-0.0236945
-0.0275584
-0.0255039
-0.0202949
-0.0152387
-0.013514
-0.0136705
-0.0142953
-0.0149453
-0.015769
-0.0171254
-0.0193883
-0.0228753
-0.0167622
-0.0121464
-0.0127887
-0.0165344
-0.0228123
-0.0217845
-0.0176222
-0.013921
-0.0121294
-0.0114146
-0.0116791
-0.0120019
-0.0125667
-0.0125786
-0.0125542
-0.0123924
-0.0123561
-0.0123526
-0.0126746
-0.0131779
-0.00663883
-0.0152297
-0.0199658
-0.0160702
-0.0138601
-0.0110175
-0.0102987
-0.0096263
-0.00973151
-0.0100065
-0.0107635
-0.0117706
-0.0131114
-0.0146553
-0.0163315
-0.0180794
-0.0197534
-0.0213595
-0.0227156
-0.023811
-0.0163143
-0.0193005
-0.0164165
-0.0123123
-0.00982521
-0.00869381
-0.00835941
-0.0085847
-0.00921996
-0.01003
-0.0110717
-0.0121804
-0.0133434
-0.0144474
-0.0154291
-0.0162748
-0.0169457
-0.0174949
-0.0179293
-0.0183038
-0.0173945
-0.0145579
-0.0124154
-0.0107422
-0.00930067
-0.008668
-0.00872239
-0.00925703
-0.00993944
-0.0107225
-0.0115566
-0.0124067
-0.0132351
-0.0140246
-0.0147596
-0.0154555
-0.016128
-0.0167762
-0.0174438
-0.01807
-0.00698411
-0.0126072
-0.0101043
-0.00926859
-0.00846219
-0.00840602
-0.00871953
-0.00932475
-0.00991257
-0.0106223
-0.0113303
-0.0120947
-0.0128453
-0.0136096
-0.0143887
-0.015177
-0.0160189
-0.0168766
-0.0177938
-0.0186159
-0.0015772
-0.00589817
-0.00824397
-0.00879588
-0.00864657
-0.00883299
-0.00884182
-0.00949353
-0.00980112
-0.0105009
-0.0110707
-0.0118208
-0.0125768
-0.0134221
-0.0143086
-0.0152688
-0.01629
-0.0173651
-0.0184348
-0.0193499
-0.00631982
-0.00871695
-0.00846506
-0.00876777
-0.00912208
-0.00920054
-0.00902538
-0.00969758
-0.00979118
-0.0105248
-0.0107983
-0.0114515
-0.0121801
-0.0130523
-0.0139223
-0.0149288
-0.0159681
-0.0170939
-0.0181457
-0.0190556
-0.0128954
-0.00908988
-0.00910815
-0.00960361
-0.0097619
-0.00991517
-0.00973427
-0.0103067
-0.00976538
-0.0100033
-0.00982015
-0.0101058
-0.0107717
-0.0114055
-0.0132819
-0.014155
-0.0150318
-0.0159555
-0.0168264
-0.0175962
-0.0113286
-0.0102202
-0.0103925
-0.0104857
-0.0098604
-0.0107441
-0.0101122
-0.0104014
-0.00907335
-0.00820709
-0.00817078
-0.00820475
-0.00884017
-0.00957491
-0.0110642
-0.0130832
-0.0138347
-0.0146018
-0.0153385
-0.0160015
-0.00791644
-0.00884884
-0.0099545
-0.0108674
-0.0104943
-0.0105421
-0.0103291
-0.00886709
-0.00727853
-0.00671774
-0.00658689
-0.00680275
-0.00780026
-0.00914322
-0.011238
-0.0129385
-0.0135578
-0.0141877
-0.0148515
-0.0154682
-0.0063888
-0.00623017
-0.00682888
-0.00901311
-0.00983032
-0.00948868
-0.00884057
-0.00854396
-0.00781338
-0.00701418
-0.0067864
-0.00681545
-0.00780753
-0.00917058
-0.0114383
-0.0134976
-0.0142133
-0.0148743
-0.0155947
-0.0162309
-0.0054704
-0.00498707
-0.00643738
-0.00779004
-0.00818909
-0.00769868
-0.00722613
-0.00649053
-0.00600441
-0.00607293
-0.0061775
-0.00662647
-0.00783399
-0.00941208
-0.0120634
-0.0150762
-0.0159572
-0.0167527
-0.0175686
-0.0181643
-0.018487
-0.00693746
-0.00646123
-0.00710012
-0.00736218
-0.00681821
-0.00670358
-0.00591767
-0.0059726
-0.00659005
-0.00746173
-0.00850473
-0.00984873
-0.0113858
-0.0152993
-0.0166949
-0.0180236
-0.0192834
-0.0204467
-0.0212819
-0.0139587
-0.00971459
-0.00665572
-0.00698177
-0.00661047
-0.00645193
-0.00605402
-0.00646632
-0.00704116
-0.00793918
-0.0090666
-0.0103731
-0.0119302
-0.0136479
-0.0154793
-0.0173447
-0.0191786
-0.0209482
-0.0225708
-0.0238832
-0.00806494
-0.012805
-0.00865812
-0.00729362
-0.00636134
-0.00640172
-0.00623899
-0.00667343
-0.00726194
-0.00809817
-0.0091542
-0.0104596
-0.0119977
-0.0137642
-0.0156961
-0.0177198
-0.0197268
-0.0216363
-0.0233101
-0.024665
-0.0158067
-0.00815922
-0.00649956
-0.00659047
-0.0065789
-0.00671058
-0.00688118
-0.00740814
-0.00802834
-0.00888524
-0.00988099
-0.0110924
-0.0125186
-0.0141756
-0.0160435
-0.0180566
-0.0201065
-0.0220705
-0.0237322
-0.0250477
-0.0111357
-0.00901623
-0.00585298
-0.00645433
-0.00688157
-0.00713774
-0.00755528
-0.00820443
-0.00903153
-0.00993165
-0.0109281
-0.0120057
-0.013267
-0.0147156
-0.0164134
-0.0183437
-0.0204687
-0.0226958
-0.0248404
-0.0266999
-0.0206546
-0.00607447
-0.00623376
-0.00702136
-0.00769062
-0.00765447
-0.00810208
-0.00853942
-0.00936941
-0.0103056
-0.0113744
-0.0124339
-0.0135478
-0.0147174
-0.0160382
-0.0175756
-0.0193487
-0.0213534
-0.0234845
-0.0255242
-0.00296117
-0.00478602
-0.00577755
-0.00687249
-0.00801403
-0.00887223
-0.00969501
-0.00977987
-0.0100141
-0.0102911
-0.0111483
-0.0122628
-0.013675
-0.0152176
-0.0169225
-0.0187841
-0.0207596
-0.0228321
-0.0248688
-0.0268166
-0.00480011
-0.00378278
-0.00328951
-0.00380198
-0.00605681
-0.00847127
-0.0115403
-0.0119323
-0.0121035
-0.0104706
-0.00979331
-0.00975859
-0.010763
-0.0125281
-0.0150681
-0.0183947
-0.0224387
-0.0270921
-0.0320898
-0.0372678
-0.0251138
-0.0450591
-0.029518
-0.0172248
-0.0137841
-0.0219054
-0.0171351
-0.0249202
-0.0266201
-0.0250883
-0.0136176
-0.0141788
-0.0166156
-0.0168275
-0.0341655
-0.0346562
-0.028446
-0.0222109
-0.0175498
-0.015972
-0.0152271
-0.0286724
-0.028546
-0.0312077
-0.0170906
-0.0175901
-0.0154795
-0.0162783
-0.0941284
-0.0988183
-0.101722
-0.0949128
-0.092924
-0.095474
-0.097692
-0.0956391
-0.104274
-0.109507
-0.0927022
-0.0940382
-0.0997755
-0.10602
-0.100909
-0.110838
-0.116255
-0.0953285
-0.0968809
-0.107684
-0.108161
-0.0941281
-0.116838
-0.110237
-0.0957394
-0.092641
-0.10392
-0.0899922
-0.0957616
-0.107188
-0.101728
-0.0928339
-0.0971491
-0.086961
-0.0810556
-0.113112
-0.101439
-0.104518
-0.101065
-0.120993
-0.0813716
-0.096487
-0.147429
-0.106703
-0.118712
-0.130446
-0.156846
-0.105835
-0.13414
-0.18904
-0.125284
-0.146709
-0.164193
-0.172124
-0.141077
-0.147574
-0.106481
-0.103653
-0.0976334
-0.100093
-0.100762
-0.0886314
-0.0720873
-0.106225
-0.095914
-0.0938842
-0.100904
-0.101094
-0.0700404
-0.0795836
-0.114939
-0.0972795
-0.110624
-0.102653
-0.108274
-0.0854661
-0.103347
-0.115265
-0.113506
-0.119062
-0.105881
-0.0888816
-0.107307
-0.101663
-0.10613
-0.119694
-0.117566
-0.0839391
-0.0749977
-0.0951485
-0.0792861
-0.10556
-0.116239
-0.113008
-0.0751127
-0.0901329
-0.0777978
-0.0873879
-0.115817
-0.112529
-0.114792
-0.0995334
-0.128029
-0.0943732
-0.117098
-0.138976
-0.117201
-0.124973
-0.134938
-0.141713
-0.122653
-0.126861
-0.0850656
-0.0772897
-0.0769365
-0.0694409
-0.0612862
-0.0637392
-0.0643524
-0.0892016
-0.0780271
-0.096281
-0.0615964
-0.0770733
-0.0687089
-0.088736
-0.112206
-0.106404
-0.126093
-0.0841197
-0.104511
-0.0980749
-0.120051
-0.11824
-0.128183
-0.125498
-0.1089
-0.108896
-0.122601
-0.120282
-0.1187
-0.123323
-0.118073
-0.10505
-0.091834
-0.118487
-0.114997
-0.115599
-0.117202
-0.116744
-0.0896617
-0.094773
-0.114814
-0.117239
-0.116012
-0.117008
-0.118412
-0.0999609
-0.117704
-0.118824
-0.122149
-0.123072
-0.11904
-0.119884
-0.121839
-0.122696
-0.121408
-0.111394
-0.0802259
-0.0884773
-0.0906699
-0.0758947
-0.0760536
-0.0851706
-0.0889407
-0.103606
-0.0940754
-0.120919
-0.078844
-0.0975772
-0.0929074
-0.121898
-0.132271
-0.133711
-0.160889
-0.106989
-0.127062
-0.134753
-0.152675
-0.131087
-0.164546
-0.156981
-0.128186
-0.120158
-0.149282
-0.116583
-0.119989
-0.150592
-0.130897
-0.116563
-0.112319
-0.10703
-0.0938652
-0.115704
-0.125506
-0.114294
-0.112869
-0.11583
-0.0937088
-0.0957097
-0.117053
-0.111665
-0.106401
-0.116858
-0.116936
-0.0959393
-0.0957988
-0.116743
-0.10494
-0.100343
-0.115089
-0.104546
-0.0961262
-0.100127
-0.0718384
-0.0684903
-0.0821365
-0.0514707
-0.0610347
-0.0618732
-0.0711078
-0.0864023
-0.0861364
-0.0933861
-0.0642015
-0.0712838
-0.0732129
-0.0739458
-0.0888455
-0.0943256
-0.0881585
-0.0723119
-0.0683558
-0.0719181
-0.0580913
-0.0810465
-0.0828316
-0.0685267
-0.0657054
-0.0580271
-0.0522887
-0.0397951
-0.0736351
-0.06484
-0.0572678
-0.0552232
-0.0507658
-0.0374789
-0.0366716
-0.0814123
-0.0577341
-0.0735762
-0.0512996
-0.0550882
-0.0383755
-0.0445198
-0.102471
-0.0825029
-0.104856
-0.0554679
-0.0517145
-0.0457313
-0.0446799
-0.0929039
-0.107768
-0.103943
-0.0488221
-0.0399662
-0.0435213
-0.0409902
-0.0761542
-0.0455881
-0.0497669
-0.0581452
-0.0678135
-0.0429582
-0.0465044
-0.0852951
-0.0518118
-0.0664004
-0.0692152
-0.0702098
-0.04929
-0.0606669
-0.0882451
-0.0745795
-0.0908718
-0.0693124
-0.0575343
-0.0633567
-0.0612616
-0.0645742
-0.0908043
-0.0728263
-0.0511621
-0.0360554
-0.0576704
-0.0424176
-0.0527779
-0.0659112
-0.0540853
-0.0335231
-0.0331315
-0.0384304
-0.033767
-0.070369
-0.053997
-0.0661634
-0.0349887
-0.0418593
-0.034654
-0.040715
-0.102202
-0.0737361
-0.0951174
-0.0434372
-0.0439679
-0.0428768
-0.0455734
-0.102766
-0.0981328
-0.0956488
-0.0433256
-0.0416457
-0.0450725
-0.0415903
-0.0370069
-0.0258967
-0.0392918
-0.0292949
-0.0408069
-0.0301343
-0.0482548
-0.0647213
-0.0480975
-0.0830328
-0.0458358
-0.0612049
-0.0547925
-0.0701797
-0.0928196
-0.0926807
-0.100941
-0.0641838
-0.0607696
-0.0699593
-0.0509871
-0.0798926
-0.0960003
-0.0771815
-0.0572146
-0.0462435
-0.0444409
-0.0362338
-0.0614436
-0.0738489
-0.0743077
-0.0432882
-0.0381791
-0.0362816
-0.0394206
-0.0695375
-0.0766244
-0.0852862
-0.0384483
-0.0424137
-0.0407185
-0.0432677
-0.0933507
-0.0880344
-0.0903451
-0.0439162
-0.0456031
-0.0433881
-0.0408165
-0.0915597
-0.0880798
-0.0744658
-0.0448902
-0.0403628
-0.0392189
-0.0344834
-0.0513303
-0.0457714
-0.0688801
-0.0389666
-0.0547
-0.0437386
-0.0604448
-0.0922629
-0.0780999
-0.109412
-0.0603529
-0.072018
-0.0661511
-0.0676617
-0.0999919
-0.115017
-0.0882334
-0.0691228
-0.0442903
-0.0600928
-0.0336503
-0.0649641
-0.0705617
-0.0381862
-0.0374427
-0.0299088
-0.0282424
-0.0209122
-0.0636616
-0.0347615
-0.0348407
-0.0302797
-0.0343688
-0.0206021
-0.0226007
-0.0784676
-0.0366626
-0.0438336
-0.0358669
-0.0384689
-0.0235574
-0.0257194
-0.0810071
-0.046412
-0.0519473
-0.0385352
-0.0363663
-0.0261631
-0.0266971
-0.0658159
-0.053271
-0.0550873
-0.0351942
-0.0319594
-0.0266284
-0.025762
-0.0554967
-0.0546356
-0.0628594
-0.0409833
-0.0442681
-0.0468571
-0.0448874
-0.0651625
-0.0646292
-0.0637991
-0.0446403
-0.0427075
-0.043223
-0.0348537
-0.0592604
-0.0606066
-0.0438289
-0.0406456
-0.0311089
-0.031031
-0.0204282
-0.0455172
-0.0384533
-0.028298
-0.0285237
-0.0240966
-0.0180793
-0.0148511
-0.0366215
-0.0267336
-0.0271582
-0.0226952
-0.0202037
-0.0146469
-0.0147617
-0.0352418
-0.0285509
-0.0322071
-0.0194671
-0.0171362
-0.0147751
-0.0141972
-0.0295751
-0.0326047
-0.031342
-0.0160422
-0.0130739
-0.0139074
-0.0130396
-0.0229651
-0.03076
-0.0300877
-0.012218
-0.0106739
-0.0128283
-0.0123976
-0.058139
-0.0400342
-0.0442009
-0.0441257
-0.0419409
-0.0348586
-0.0340189
-0.0607075
-0.0466192
-0.055461
-0.0403173
-0.0334857
-0.0342209
-0.0344108
-0.0430265
-0.0570265
-0.0515047
-0.03016
-0.0197198
-0.0333153
-0.0247615
-0.0256431
-0.0315272
-0.0395535
-0.0283528
-0.033208
-0.0245594
-0.0303513
-0.0188915
-0.0233152
-0.023022
-0.0196163
-0.022349
-0.0195323
-0.0191542
-0.0309955
-0.0261511
-0.0311662
-0.0144019
-0.0145326
-0.0171618
-0.0175063
-0.0319055
-0.0326942
-0.0344175
-0.0144283
-0.0138411
-0.0172099
-0.0152256
-0.0311738
-0.0340019
-0.030901
-0.013602
-0.0128329
-0.0143894
-0.0121687
-0.0410041
-0.0312976
-0.0459407
-0.0290377
-0.0327269
-0.0295195
-0.0341065
-0.056384
-0.0518979
-0.062254
-0.0333421
-0.0338134
-0.0345531
-0.030399
-0.0512091
-0.0595427
-0.0399108
-0.0326709
-0.0248189
-0.026633
-0.0173182
-0.0324083
-0.0418534
-0.0448666
-0.0362098
-0.0412256
-0.0340781
-0.0354298
-0.0271668
-0.0294175
-0.033958
-0.0283776
-0.0327688
-0.027723
-0.0274773
-0.0329141
-0.032206
-0.0335094
-0.0179419
-0.0177671
-0.0163208
-0.0152048
-0.0348317
-0.0331516
-0.029555
-0.0172083
-0.0146473
-0.0145405
-0.0123755
-0.0295373
-0.0278887
-0.0234961
-0.0137401
-0.011566
-0.0117516
-0.0105061
-0.0495421
-0.0355756
-0.053045
-0.0322465
-0.0347354
-0.0319924
-0.0331446
-0.0619992
-0.057886
-0.0512725
-0.0347347
-0.0274498
-0.0308778
-0.0184017
-0.0332945
-0.0432559
-0.0202031
-0.0229444
-0.0140269
-0.0148535
-0.00956094
-0.0226042
-0.0159044
-0.0120775
-0.0131168
-0.0132468
-0.00907912
-0.00901377
-0.0264947
-0.0123158
-0.0141815
-0.0136282
-0.014458
-0.00917562
-0.00960979
-0.0289198
-0.0148789
-0.0167577
-0.0144855
-0.0135949
-0.00965717
-0.00966168
-0.0259258
-0.017216
-0.0175329
-0.0131012
-0.0115408
-0.00964354
-0.00956113
-0.0219229
-0.0173472
-0.015919
-0.0111131
-0.0103105
-0.00956652
-0.00976955
-0.0341808
-0.0312852
-0.0330996
-0.0213237
-0.0170966
-0.0209211
-0.015195
-0.0324833