/*--------------------------------*- C++ -*----------------------------------*\
  =========                 |
  \\      /  F ield         | OpenFOAM: The Open Source CFD Toolbox
   \\    /   O peration     | Website:  https://openfoam.org
    \\  /    A nd           | Version:  10
     \\/     M anipulation  |
\*---------------------------------------------------------------------------*/
FoamFile
{
    format      ascii;
    class       volVectorField;
    location    "5.4";
    object      U;
}
// * * * * * * * * * * * * * * * * * * * * * * * * * * * * * * * * * * * * * //

dimensions      [0 1 -1 0 0 0 0];

internalField   nonuniform List<vector> 
12920
(
(93.789 -188.719 59.7753)
(-13.3116 -77.1964 -18.0839)
(158.913 -42.6983 13.8521)
(56.3178 17.5062 -7.70179)
(141.044 18.6601 -5.62779)
(105.098 8.21838 -1.54)
(138.099 1.55362 -0.516861)
(127.452 -5.72671 0.404429)
(146.769 -7.58125 0.410493)
(145.747 -9.99899 0.263985)
(159.576 -10.0958 0.0123474)
(162.643 -10.0582 -0.328524)
(171.033 -7.07965 -0.0163619)
(169.971 -3.89941 0.579944)
(165.466 5.80363 0.873232)
(151.162 8.86841 -0.00104782)
(146.899 7.33282 -0.728276)
(143.806 5.78128 -1.05773)
(144.247 3.13676 -0.752505)
(147.989 0.6391 -0.300773)
(54.1452 -30.2551 16.4569)
(-16.5912 39.6215 -15.7849)
(142.423 2.4292 16.5925)
(5.31627 3.96586 10.3873)
(119.94 -13.0823 5.58525)
(61.3196 -14.4987 3.5217)
(114.564 -16.3722 1.5564)
(84.2715 -13.495 0.129525)
(111.102 -10.94 -1.054)
(96.6475 -8.18386 -1.75544)
(113.35 -4.72294 -2.37117)
(108.191 -1.60992 -2.61011)
(119.034 1.45891 -2.56286)
(118.472 4.33313 -2.54021)
(126.042 5.91427 -1.19476)
(126.414 5.51326 -0.0827106)
(129.065 2.72103 0.701719)
(128.247 0.204792 1.08078)
(128.305 -2.81949 1.34249)
(128.839 -3.66767 0.96946)
(216.837 -77.7965 122.102)
(-107.682 -37.8523 9.50327)
(149.345 -53.374 -17.482)
(89.9711 -30.382 -5.18948)
(142.548 -39.9118 2.60712)
(90.1425 -19.5483 1.43936)
(115.31 -22.0818 2.17565)
(83.477 -8.01634 0.0670418)
(106.294 -8.92902 -0.277882)
(91.5252 -3.09883 -0.694119)
(107.19 -3.58033 -0.569501)
(101.168 0.0655339 -0.451288)
(110.984 0.681795 -0.105408)
(108.813 3.26519 0.15596)
(114.669 4.04549 0.547685)
(113.881 4.13144 0.704917)
(116.446 1.86025 0.756287)
(116.104 0.409853 0.613919)
(116.655 -2.01853 0.418754)
(118.818 -3.83829 0.288091)
(439.502 115.981 81.0547)
(90.9806 109.723 34.0393)
(176.2 25.4364 -14.6858)
(147.979 7.00788 -8.81278)
(167.759 -6.26495 1.97175)
(107.551 -5.1807 3.4933)
(117.933 -13.4277 3.46838)
(77.9628 -8.26894 0.540034)
(102.95 -12.4096 -0.00604786)
(84.3894 -7.16385 0.150968)
(102.011 -8.33228 0.137542)
(93.7249 -3.78999 0.233409)
(103.613 -3.90902 0.207799)
(100.415 -1.48565 0.213286)
(106.181 -1.97966 0.222672)
(105.778 -1.60636 0.168666)
(109.086 -3.10631 0.101049)
(110.482 -3.52057 0.0366005)
(112.45 -5.38408 0.039447)
(116.453 -6.20584 0.0926537)
(158.133 52.5843 89.6141)
(-43.0079 23.9912 22.8922)
(137.441 8.18828 8.56806)
(64.2058 -3.35031 3.95101)
(129.479 -6.86785 4.25646)
(83.9543 1.77288 0.991753)
(114.264 -9.56407 0.474741)
(89.8391 -0.478955 -0.0331375)
(111.314 -14.2107 0.225552)
(99.0652 -5.95589 0.416629)
(112.624 -12.1868 0.50969)
(106.488 -4.78514 0.260737)
(113.589 -6.43433 0.182362)
(110.222 -1.47654 0.0296721)
(114.14 -2.38024 0.0321522)
(112.78 -1.10288 -0.0501573)
(114.61 -2.7026 -0.0142803)
(114.769 -3.28587 0.012552)
(115.718 -5.83955 0.0281659)
(118.896 -7.00498 0.0685213)
(245.052 165.31 -97.1037)
(94.6389 45.2867 -0.218952)
(182.638 -18.4006 5.89432)
(84.3332 -13.8845 4.80538)
(138.203 -19.4474 1.12293)
(82.4061 -2.13326 0.114184)
(122.858 -15.1197 -1.21121)
(101.669 -9.11051 -0.136646)
(118.849 -18.876 -0.460192)
(108.822 -14.0389 0.753729)
(118.312 -16.6564 0.917236)
(112.596 -8.61057 1.06637)
(116.367 -7.89554 0.751159)
(113.288 -3.37996 0.372631)
(114.495 -4.17102 0.217195)
(112.965 -2.92026 0.121203)
(113.654 -4.39952 0.159251)
(114.307 -4.74315 0.0687104)
(115.376 -7.1986 0.0719526)
(119.639 -8.31665 0.0971939)
(143.123 113.899 -128.704)
(-29.1942 46.5647 -19.1236)
(148.122 28.3269 -14.7696)
(91.8123 8.57817 -5.89281)
(148.907 6.01267 -4.1753)
(121.619 8.05447 -2.50013)
(147.655 -17.7403 -2.70504)
(141.641 -1.13016 -0.728292)
(154.346 -19.5652 -0.146498)
(144.911 -13.2609 1.73517)
(143.285 -22.0036 2.33176)
(132.786 -10.7219 1.68835)
(130.737 -11.2502 0.878227)
(123.257 -2.99927 0.48474)
(122.134 -3.17067 0.564144)
(117.837 -1.94834 0.483091)
(117.343 -4.32901 0.4417)
(118.429 -5.31055 0.251307)
(120.282 -9.15597 0.12235)
(124.917 -10.2509 0.0867778)
(109.85 -65.5993 -17.0967)
(-23.6014 45.3007 -13.8663)
(154.944 7.43893 -14.565)
(119.234 0.843763 -10.6959)
(178.84 -8.016 -5.87133)
(173.953 5.92859 -4.29433)
(189.365 -4.54913 -3.21076)
(179.404 -24.5893 -1.23775)
(186.929 -17.7714 -0.564589)
(178.397 -27.5485 0.971272)
(167.989 -23.0711 1.28062)
(138.784 -22.4669 1.409)
(129.967 -12.0312 0.645181)
(118.265 -8.64356 0.577435)
(111.964 -1.92151 0.0907686)
(112.635 -1.58812 -0.160336)
(115.637 -6.8296 -0.155069)
(120.539 -8.92334 -0.0999966)
(122.676 -11.9251 0.0273237)
(126.545 -11.8554 0.0668439)
(126.378 -71.2624 -26.9955)
(52.8636 52.7152 -7.69654)
(159.126 31.5295 -5.23412)
(121.077 12.8842 -1.54564)
(155.002 -7.02569 4.46441)
(139.538 -9.25148 -0.829248)
(165.523 3.2718 1.59314)
(147.359 -30.1211 1.77597)
(136.876 -35.0119 0.633538)
(142.956 -32.3033 -0.156255)
(148.67 -10.5111 -0.0594681)
(139.973 -9.23982 0.206784)
(130.297 -6.65652 0.355671)
(121.498 -3.83216 0.200007)
(114.931 -5.38365 0.220928)
(118.302 -5.85192 -0.171381)
(121.194 -10.7884 -0.157196)
(123.21 -11.6753 -0.137217)
(123.831 -12.9402 -0.0491101)
(126.02 -12.7634 0.0371348)
(119.787 83.1978 40.0579)
(28.866 39.4151 10.4209)
(164.134 4.14364 7.1646)
(95.4597 -12.7236 6.20167)
(149.789 -16.259 4.48071)
(118.331 -13.4005 -1.50919)
(119.148 -9.34556 1.22963)
(112.634 -12.8292 -0.551877)
(118.918 -37.4293 -0.250494)
(120.771 -26.6273 -0.259185)
(126.148 -2.65474 -0.650752)
(129.5 5.23552 -0.282498)
(128.423 6.47258 -0.174291)
(121.512 7.80227 0.387728)
(117.911 2.3468 -0.398445)
(122.795 -8.23233 -0.0575561)
(121.891 -10.8417 0.00273411)
(120.987 -10.5444 -0.11157)
(120.405 -11.8746 -0.156824)
(122.902 -12.2181 -0.120596)
(148.122 141.573 30.5798)
(111.056 20.3838 3.25946)
(187.344 17.3916 -2.60896)
(128.659 -12.3461 -2.98274)
(171.046 -10.2933 -3.2106)
(141.888 -6.66576 -2.82762)
(152.149 -3.47033 -0.516023)
(157.601 -5.95264 -1.69491)
(139.593 -34.0655 0.434115)
(128.284 -18.7662 -0.0913638)
(122.336 -2.68945 0.13416)
(125.484 5.77083 -0.143716)
(128.769 8.2471 -0.115523)
(125.852 10.7546 0.27769)
(126.394 0.938914 -0.310575)
(122.242 -6.70314 0.0806219)
(119.598 -8.79412 0.034734)
(119.007 -9.39987 -0.300007)
(119.159 -11.491 -0.339909)
(122.838 -12.478 -0.21707)
(274.493 179.314 -151.124)
(-69.8322 12.0781 10.545)
(213.09 6.81165 -12.3225)
(141.043 -7.74964 -2.31997)
(189.909 8.47567 2.69988)
(144.438 -0.54119 -0.480365)
(164.222 2.58184 -0.363796)
(160.145 7.69229 1.40929)
(136.248 -26.6819 -0.399361)
(120.876 -11.9728 0.17472)
(119.458 -5.20516 -0.0475448)
(122.427 3.00111 0.0337376)
(123.26 7.50567 0.0868374)
(125.843 9.37693 0.146121)
(126.628 0.895672 0.254625)
(121.597 -4.55846 0.313664)
(120.743 -7.18182 -0.11801)
(120.994 -7.98998 -0.497414)
(121.962 -11.1365 -0.559934)
(126.112 -12.4913 -0.364418)
(183.931 -176.011 -0.211147)
(139.678 -42.0679 8.08644)
(227.335 -41.5516 2.41866)
(154.685 -17.4848 -2.98805)
(193.269 16.046 0.222292)
(149.198 -10.7764 0.830016)
(163.277 8.51283 0.34981)
(135.709 2.78128 1.03401)
(123.649 -3.56593 1.05653)
(103.223 -7.32473 0.39201)
(107.913 -3.06635 -0.151004)
(108.564 0.297091 -0.0931069)
(116.904 2.46464 0.108386)
(119.792 1.62099 0.327895)
(120.909 -4.04086 0.548787)
(121.709 -4.97441 0.150029)
(122.404 -7.00891 -0.341752)
(124.389 -7.46494 -0.622151)
(126.013 -10.913 -0.584988)
(129.927 -12.3043 -0.420575)
(204.552 -321.837 180.871)
(80.508 -68.7151 18.0622)
(209.172 -17.0464 -6.99474)
(108.673 5.27408 -2.87096)
(178.228 27.7867 1.26653)
(123.971 5.55658 2.03144)
(147.117 34.3002 3.02523)
(115.905 -3.06717 2.40623)
(125.612 10.9049 1.2715)
(113.492 -7.40383 0.722912)
(120.135 -2.4744 0.868126)
(117.753 -8.71983 1.01419)
(122.193 -5.90303 1.13163)
(122.405 -7.51056 0.833957)
(125.413 -6.4197 0.570771)
(126.026 -6.86956 0.147732)
(127.92 -7.32027 -0.25468)
(129.35 -7.73483 -0.497983)
(131.415 -10.8379 -0.635407)
(133.968 -11.5972 -0.497187)
(329.36 0.19048 -189.841)
(140.6 39.6903 -15.8305)
(221.867 30.8599 -7.15888)
(74.1753 13.7186 1.58344)
(172.732 22.9487 0.248541)
(87.4631 -1.35299 1.51862)
(144.809 10.2952 0.459773)
(113.069 -5.70744 0.174573)
(133.757 -4.78375 -0.38508)
(126.49 -11.7978 -0.734076)
(135.119 -11.0064 -0.420602)
(134.296 -13.6841 -0.028718)
(138.226 -12.2459 0.452568)
(137.959 -11.7581 0.612759)
(139.339 -9.94061 0.532398)
(138.696 -8.75686 0.248639)
(138.523 -8.27178 0.0020387)
(138.12 -7.95178 -0.338478)
(138.565 -9.32721 -0.553084)
(139.174 -9.65337 -0.515443)
(56.8884 114.212 -37.3415)
(-30.2909 22.5179 -13.8208)
(191.366 36.6344 -3.39749)
(49.9429 13.265 2.02374)
(167.493 20.4072 0.0117239)
(98.5921 8.13301 -0.590775)
(146.617 12.9313 -1.01022)
(121.819 0.828874 -2.05822)
(141.846 1.98008 -2.20436)
(134.276 -6.36497 -2.70565)
(144.435 -6.94944 -2.19747)
(142.933 -12.3686 -1.47952)
(147.85 -11.8064 -0.482622)
(147.094 -12.394 0.0617568)
(148.643 -9.87041 0.412957)
(147.268 -7.75962 0.422058)
(147.268 -5.96272 0.365727)
(146.444 -5.31925 0.0803279)
(146.856 -6.15874 0.000337093)
(146.077 -6.71778 -0.131153)
(282.864 156.918 49.245)
(110.43 23.7001 2.71537)
(193.97 -6.22554 4.12151)
(78.585 18.072 1.97534)
(172.972 4.6882 -0.294411)
(108.777 11.6224 0.754657)
(154.952 5.83974 -0.703781)
(130.604 4.56972 -1.87597)
(152.851 0.233858 -2.42975)
(146.922 -3.45337 -3.23887)
(158.487 -6.89122 -2.80375)
(157.707 -11.7262 -2.05867)
(162.024 -14.2457 -0.274145)
(158.122 -14.4278 0.360515)
(156.966 -12.6522 0.664303)
(153.519 -10.4449 0.516133)
(153.412 -8.85039 0.419472)
(152.848 -7.35411 0.326543)
(153.477 -6.25243 0.274951)
(153.68 -5.34608 0.0449853)
(256.789 246.694 52.023)
(240.185 89.1736 -28.7223)
(277.912 5.04722 2.38853)
(203.786 -8.84351 2.1705)
(232.016 -4.74848 3.30486)
(190.194 5.5345 1.25335)
(199.197 5.84394 1.25755)
(177.387 7.63953 -0.60663)
(184.085 5.35088 -0.993989)
(176.521 2.97971 -1.52076)
(181.408 -2.27359 -0.540365)
(176.66 -7.95193 0.167092)
(174.861 -10.3335 1.13084)
(166.094 -10.5224 1.05812)
(162.374 -9.02029 0.636042)
(156.747 -7.94675 0.307122)
(155.492 -7.18867 0.0569152)
(153.824 -6.71601 0.0508055)
(154.104 -5.66939 -0.0681046)
(155.915 -3.93755 -0.231651)
(349.958 115.62 52.5469)
(174.999 33.4051 28.5871)
(237.848 8.13792 9.47261)
(145.204 3.56449 -1.53073)
(199.4 19.5547 -5.11819)
(158.913 20.9209 -4.35926)
(184.149 20.4991 -2.88676)
(164.817 16.8845 -2.45037)
(173.659 11.3055 -0.588128)
(160.4 4.79561 -0.140254)
(164.217 -2.57977 0.513676)
(161.463 -7.75293 0.36136)
(163.212 -8.24227 0.367327)
(159.837 -7.93759 0.398828)
(158.78 -6.79779 0.506925)
(155.181 -6.27645 0.736038)
(153.17 -5.78881 0.833346)
(150.019 -5.92395 0.833603)
(148.407 -4.90776 0.529892)
(147.59 -2.76326 0.128079)
(-31.5209 30.3881 -96.0175)
(-62.5589 50.4453 -31.6646)
(205.187 2.09131 -18.9588)
(122.999 4.02577 1.45741)
(197.403 14.7557 2.50483)
(170.993 23.218 3.37597)
(203.163 24.5381 3.8868)
(197.711 25.5967 3.79804)
(210.282 20.7479 4.27222)
(204.08 16.4158 3.82071)
(201.464 -1.123 2.84135)
(181.719 -9.32779 0.394824)
(177.71 -9.43286 -1.43636)
(170.95 -8.62999 -1.93748)
(169.544 -6.62202 -1.88848)
(166.484 -6.38562 -1.85842)
(163.98 -5.33383 -0.655623)
(158.582 -5.22333 -0.299055)
(154.219 -2.17865 -0.0592714)
(154.314 0.239453 -0.116574)
(320.238 -434.483 332.96)
(-197.525 -47.1277 8.44076)
(186.849 -77.7691 -5.32209)
(75.0846 -13.9894 -10.8693)
(151.642 -0.0250157 -7.01586)
(116.609 2.0404 -0.628432)
(141.131 1.58566 0.879865)
(127.918 -3.33685 1.60955)
(144.891 -4.3794 1.34922)
(142.057 -5.56952 0.689216)
(153.685 -4.45056 0.21292)
(153.161 -3.3019 -0.34647)
(157.948 0.291184 -0.0338839)
(152.372 4.49654 0.944814)
(147.801 8.42849 2.31011)
(136.889 6.17105 1.1948)
(134.552 2.43951 0.144251)
(132.101 0.135018 -0.385173)
(132.844 -2.03779 0.00518209)
(136.948 -2.62223 0.345548)
(243.384 -164.641 -26.5423)
(-48.8133 16.342 -35.7783)
(123.587 -18.0933 -13.0774)
(-9.87699 2.89233 6.28805)
(111.106 -7.65377 1.66748)
(54.3592 -9.46399 4.39655)
(109.691 -10.6025 1.34365)
(81.9885 -9.18638 -0.3718)
(108.487 -7.35128 -2.33745)
(94.1271 -5.38969 -3.41688)
(109.735 -2.87854 -4.25107)
(102.94 -0.919072 -4.658)
(112.35 1.12963 -4.32764)
(108.995 2.65295 -3.55037)
(114.256 3.17032 -0.934852)
(113.239 1.83448 0.312052)
(115.691 -0.392575 1.13079)
(115.601 -1.84821 1.2874)
(116.586 -3.16401 1.49531)
(118.543 -3.20123 1.01099)
(56.2152 -84.1076 7.06058)
(-97.4578 -30.5554 -35.2037)
(122.716 -59.7667 -41.4002)
(19.8723 -29.6782 -6.42244)
(116.78 -40.2429 2.60379)
(58.9526 -14.5308 1.61098)
(102.933 -18.5109 2.7286)
(71.6177 -6.12753 -0.2804)
(98.1975 -8.72557 -0.601959)
(82.5254 -3.56549 -1.29645)
(99.1032 -4.6243 -0.992805)
(91.871 -1.21211 -0.87322)
(101.857 -0.947286 -0.228751)
(98.8297 1.54031 0.184663)
(104.879 1.93097 0.892906)
(103.98 1.92038 1.00028)
(106.767 0.266216 1.03118)
(106.862 -0.501283 0.758997)
(107.862 -1.97228 0.589509)
(110.261 -2.84167 0.333696)
(223.933 219.386 -72.9705)
(123.434 17.7459 6.32135)
(185.079 -22.4155 -23.9901)
(97.3558 -19.2462 -10.5849)
(130.905 -20.0185 4.07976)
(71.3707 -7.38981 3.7524)
(105.5 -14.4637 3.6244)
(70.0313 -8.02281 0.629453)
(96.9381 -12.7614 -0.0437569)
(78.5001 -7.31772 0.322637)
(96.0218 -8.72163 0.215494)
(87.2227 -4.13902 0.300403)
(97.094 -4.34457 0.259245)
(93.3593 -1.73051 0.269731)
(99.0623 -2.18937 0.376389)
(98.2528 -1.57812 0.270309)
(101.277 -2.76813 0.218647)
(102.336 -2.88232 0.0857652)
(104.077 -4.1294 0.127235)
(107.559 -4.34236 0.119506)
(105.876 99.9433 70.4708)
(-80.307 -38.7686 13.445)
(129.43 -12.8684 -9.83523)
(34.0614 -13.6966 -0.237033)
(115.803 -10.0595 2.01438)
(62.6191 1.46098 0.218246)
(102.69 -13.4142 0.201765)
(76.2141 -2.13744 0.0453029)
(100.765 -16.025 0.508871)
(87.1505 -5.67767 0.886214)
(101.931 -12.0345 1.04393)
(94.7483 -3.96733 0.563693)
(102.419 -6.26144 0.381988)
(98.5197 -1.39617 0.105426)
(102.779 -2.85344 0.137268)
(101.384 -1.60031 -0.00889936)
(103.544 -3.24662 0.095204)
(104.214 -3.29861 0.00456079)
(105.592 -4.94711 0.0986545)
(108.726 -5.08984 0.0765005)
(184.373 25.2613 -40.1806)
(42.3134 6.90023 2.26045)
(151.376 -29.8827 -13.9132)
(66.5274 -14.0928 -1.00385)
(126.071 -16.8677 -2.58171)
(69.0287 -0.894504 -0.914356)
(112.569 -20.2046 -2.85798)
(87.4608 -10.2805 0.46891)
(105.744 -20.042 -0.254216)
(94.6463 -12.1139 1.86107)
(105.297 -14.8238 1.67231)
(99.6926 -6.89373 1.76441)
(104.295 -7.40633 1.16591)
(101.249 -3.18529 0.595347)
(103.028 -4.60998 0.382458)
(101.945 -3.41228 0.21995)
(103.306 -5.03389 0.258863)
(104.515 -4.83601 0.0431485)
(105.914 -6.30918 0.139358)
(109.575 -6.15547 0.121386)
(219.635 155.526 52.1216)
(52.2234 61.7663 -9.06423)
(144.886 32.5972 -18.6847)
(73.4562 9.41407 -6.7352)
(131.516 5.31104 -5.09164)
(95.3766 6.82546 -3.02909)
(119.545 -26.3264 -4.74699)
(105.964 -1.10109 -0.274111)
(120.896 -24.5668 0.438312)
(112.162 -10.1527 3.78853)
(118.01 -18.5413 3.80763)
(110.342 -5.2803 2.52213)
(111.767 -8.1074 1.4523)
(106.464 -1.29948 0.862213)
(107.547 -3.48006 0.895174)
(106.032 -2.91305 0.608565)
(107.235 -5.27411 0.623856)
(108.903 -5.66081 0.2837)
(110.561 -7.76844 0.22666)
(114.063 -7.39066 0.137834)
(67.926 -37.2124 31.7373)
(-21.774 25.4018 -30.25)
(139.706 -5.35984 -25.1172)
(69.3993 -15.1334 -10.8391)
(142.246 -21.788 -3.93675)
(119.762 4.48918 -2.75359)
(143.013 -11.9366 -2.63481)
(131.75 -27.9904 1.15821)
(147.798 -21.5191 1.58172)
(140.396 -28.9761 4.62684)
(133.056 -19.5188 4.98)
(116.32 -16.0903 2.66464)
(112.787 -10.3439 0.875993)
(106.147 -9.12108 0.529293)
(104.756 -4.02484 -0.203013)
(106.349 -3.75585 -0.274329)
(108.673 -7.58257 -0.155371)
(111.486 -7.90705 -0.0788555)
(112.886 -9.23886 0.125883)
(116.097 -8.3392 0.107146)
(116.846 -75.2283 -35.294)
(24.4324 11.2007 -15.3544)
(142.304 -11.4939 -13.1531)
(65.5665 -24.598 -0.631032)
(123.207 -33.695 4.62238)
(112.829 -20.8662 -1.97428)
(142.693 -6.42481 1.12402)
(138.334 -28.9807 5.42994)
(140.392 -28.814 7.22459)
(138.04 -24.1158 0.450197)
(129.563 -9.39393 0.929071)
(118.041 -7.60425 1.305)
(112.515 -5.96091 0.669395)
(108.482 -5.71929 0.621366)
(108.632 -9.50719 0.295763)
(111.589 -7.73585 -0.351096)
(112.58 -10.1103 -0.205193)
(113.561 -9.9696 -0.149883)
(113.876 -10.1982 -0.0348191)
(116.366 -9.14791 0.0120505)
(124.347 24.535 69.0874)
(3.28583 -17.2224 -3.93805)
(148.399 -20.6242 -11.7106)
(73.8482 -25.395 1.25865)
(132.773 -25.6035 0.604195)
(108.578 -20.6385 -0.852724)
(120.48 -13.684 0.751093)
(115.777 -15.5967 0.0609362)
(115.798 -28.2324 0.731863)
(116.739 -18.195 -0.728196)
(116.069 -2.11078 -1.76361)
(114.703 3.36792 -0.592579)
(112.651 3.79397 -0.0537873)
(111.697 2.41457 0.389763)
(114.186 -4.24434 -0.539077)
(114.104 -8.90682 -0.177142)
(112.914 -10.0017 0.0238696)
(112.193 -9.162 -0.111017)
(111.661 -9.74226 -0.106155)
(113.937 -8.94596 -0.182538)
(150.34 161.659 85.2548)
(130.82 23.5844 -6.93656)
(190.296 15.5953 -11.5818)
(122.547 -15.1204 -6.25041)
(150.605 -15.0909 -5.99931)
(131.725 -14.7873 -5.69502)
(141.603 -12.6617 -4.22694)
(138.842 -16.6503 -4.74166)
(134.305 -30.892 3.29924)
(120.94 -14.0409 2.70661)
(116.515 -1.60445 0.733423)
(117.621 3.54569 -0.390375)
(118.146 4.81645 -0.0473608)
(119.311 2.75153 0.0112055)
(117.964 -4.69231 -0.0929051)
(112.207 -8.10563 -0.0215943)
(110.923 -8.69919 -0.122761)
(110.307 -8.74237 -0.432148)
(110.231 -9.71162 -0.3473)
(113.079 -9.32336 -0.270751)
(-4.60017 106.197 -112.262)
(-35.5512 -16.7074 30.1935)
(173.322 3.60841 -6.01036)
(95.6337 -10.3606 -2.15803)
(152.309 1.28175 1.77887)
(131.712 -8.46565 -2.50772)
(150.182 -13.3991 -2.81468)
(141.641 -12.5537 2.78345)
(128.637 -22.3373 6.98265)
(112.641 -7.97415 1.45144)
(111.734 -1.38349 -0.218809)
(112.777 2.53414 -0.0529648)
(114.757 3.41299 0.259532)
(117.208 1.2006 0.421756)
(115.082 -4.72631 0.977476)
(111.711 -6.40051 0.0438151)
(111.193 -7.88787 -0.38993)
(110.91 -8.12775 -0.670505)
(111.174 -10.0152 -0.556377)
(114.059 -9.60164 -0.430085)
(158.141 -130.283 103.729)
(80.8573 -84.8796 -3.39749)
(205.447 -36.0386 -0.894462)
(112.401 -15.8304 -4.98334)
(166.704 8.07462 -0.0647016)
(115.474 -29.1199 1.66521)
(140.542 -3.19965 2.85989)
(108.505 -5.76487 7.5535)
(108.905 -5.32093 4.47141)
(96.6558 -5.68939 1.06504)
(103.079 -2.6717 -0.0556301)
(102.873 -1.70734 0.259543)
(109.366 -1.65769 0.729314)
(110.944 -3.48127 1.11289)
(112.22 -6.37558 0.429106)
(112.48 -6.45314 -0.036004)
(112.487 -7.82006 -0.506647)
(113.046 -8.35215 -0.790754)
(113.479 -10.4887 -0.569698)
(116.131 -9.98506 -0.507153)
(328.234 -307.737 -87.2148)
(95.255 -76.6499 -18.061)
(193.492 -27.0574 -11.4725)
(73.6106 -7.31094 -1.72161)
(161.715 13.2534 1.1882)
(96.025 -7.3372 2.78023)
(128.191 29.5089 4.11381)
(96.6452 -10.9245 3.30946)
(112.003 8.09373 1.74449)
(101.329 -9.51118 1.02781)
(109.987 -2.75383 1.32565)
(107.964 -8.73859 1.47027)
(113.081 -5.8239 1.58487)
(113.147 -7.58039 1.16422)
(115.807 -6.70265 0.744133)
(115.628 -7.17049 0.138949)
(116.805 -7.96682 -0.384137)
(116.621 -8.65994 -0.628267)
(117.093 -10.6256 -0.617612)
(118.681 -9.82511 -0.593562)
(378.5 87.4801 272.976)
(132.049 33.8214 4.36383)
(195.791 19.0998 -4.3244)
(60.4499 3.29722 2.29374)
(158.715 12.9177 -1.52919)
(71.587 -6.0537 2.56188)
(132.936 9.59538 0.250907)
(98.2351 -5.94638 0.525034)
(119.98 -3.1288 -0.455254)
(110.03 -9.99111 -0.817239)
(118.865 -8.59861 -0.0265244)
(117.116 -10.7284 0.185875)
(121.719 -9.19487 0.865639)
(121.913 -9.48661 0.853043)
(123.908 -8.31194 0.736379)
(123.232 -7.8607 0.299715)
(123.364 -8.21535 -0.10326)
(122.393 -8.29427 -0.526872)
(121.868 -9.97982 -0.50962)
(121.991 -8.96779 -0.614094)
(161.126 -33.6496 146.587)
(14.6714 23.6313 -32.0183)
(176.173 28.2775 14.3063)
(43.9779 5.79939 1.3201)
(156.618 12.9431 -0.369885)
(83.2817 2.36946 -0.76738)
(134.743 8.68983 -1.40439)
(106.397 -3.76993 -2.7084)
(127.709 -1.87944 -2.53596)
(117.427 -9.82608 -3.02101)
(127.365 -9.10157 -1.95684)
(124.409 -12.0487 -1.24154)
(129.469 -10.3623 0.00433613)
(129.011 -10.2347 0.460789)
(131.208 -7.86834 0.743171)
(130.372 -6.98935 0.570993)
(130.457 -6.4216 0.418882)
(129.249 -6.39265 -0.0294012)
(128.567 -7.77451 0.167094)
(127.111 -7.07837 -0.19821)
(205.41 90.3012 33.4287)
(72.4722 39.027 -1.47629)
(190.987 13.8997 16.3021)
(80.5336 19.4326 6.0855)
(163.915 1.99911 0.529486)
(97.3014 4.89445 1.12625)
(144.268 -2.45374 -1.48322)
(115.299 -4.67213 -3.03772)
(137.407 -9.36495 -3.34062)
(127.046 -12.4521 -4.0015)
(136.576 -14.8441 -2.62771)
(133.42 -15.5515 -1.74573)
(137.616 -14.4032 -0.0411712)
(135.975 -12.7807 0.658936)
(137.425 -9.87829 0.995856)
(135.754 -7.88209 0.777972)
(135.795 -6.49652 0.570439)
(134.742 -5.80859 0.351441)
(134.483 -5.36419 0.467505)
(132.952 -4.44559 -0.0545671)
(167.227 142.209 -13.2682)
(61.163 12.24 21.3541)
(203.247 8.30123 34.441)
(147.65 3.58028 10.6685)
(201.493 4.66523 8.94687)
(159.287 8.18059 3.16052)
(175.536 2.48274 3.32787)
(151.538 -0.404582 -0.638417)
(159.09 -6.10817 -0.751933)
(147.607 -10.7351 -1.74203)
(151.89 -15.0799 -0.301904)
(146.897 -16.2726 0.150532)
(148.047 -13.7185 1.12062)
(143.45 -11.3783 1.05905)
(142.425 -7.6958 0.854206)
(138.612 -6.2376 0.491495)
(137.642 -5.07413 0.113061)
(135.85 -4.61485 0.048043)
(135.561 -3.38746 0.0156056)
(135.324 -2.16941 -0.373836)
(200.815 -109.669 5.72851)
(74.0314 -32.0558 31.0967)
(210.961 -18.6504 4.55971)
(127.405 -3.81055 1.78486)
(187.213 15.0044 -3.62987)
(144.264 17.0505 -4.33043)
(171.119 14.3961 -2.89304)
(149.442 7.89077 -4.03351)
(160.337 -0.401144 -1.98423)
(148.559 -7.22286 -2.85481)
(154.019 -12.4157 -0.362969)
(148.993 -12.6124 -0.0951096)
(149.267 -10.0251 0.341391)
(143.733 -7.71966 0.331913)
(142.229 -5.05066 0.57674)
(138.097 -4.18978 0.653201)
(136.544 -3.52449 0.682477)
(133.99 -3.43729 0.583737)
(132.637 -2.07103 0.349676)
(132.626 -0.970663 -0.263278)
(95.1379 82.3704 115.388)
(15.4598 56.3995 -28.2189)
(188.315 7.44278 -40.2128)
(127.935 -11.1836 -8.83226)
(195.647 -6.90334 1.52286)
(169.723 4.70085 5.50745)
(200.983 8.8052 8.32872)
(195.677 11.4201 7.28445)
(208.233 7.65088 7.78908)
(201.336 3.15136 6.93036)
(194.554 -11.1467 5.40426)
(172.245 -12.2734 1.66805)
(164.303 -8.35483 -0.95787)
(151.413 -4.9813 -1.7089)
(148.703 -1.73913 -1.51711)
(142.404 -0.122982 -1.28258)
(141.146 0.765906 -0.423437)
(139.374 1.35764 -0.175584)
(138.849 2.17616 0.24825)
(142.134 2.11232 0.236936)
(12.4211 -322.347 -8.75733)
(-192.035 -89.8358 25.2807)
(174.047 -94.9235 -36.2782)
(84.7126 -22.0439 -14.7512)
(153.522 -1.85123 -8.7328)
(119.73 3.45866 -0.134499)
(141.548 3.97793 1.92323)
(127.15 -0.060386 1.81978)
(142.721 -0.0433321 1.07912)
(137.218 -0.0399436 -0.0370492)
(145.757 2.42433 -0.518854)
(139.55 3.98845 -1.12832)
(140.158 7.90464 0.337697)
(129.141 9.14816 1.23868)
(128.007 7.28605 2.77142)
(122.098 3.99707 1.67006)
(122.837 0.676657 0.789299)
(121.968 -0.994573 0.235342)
(123.351 -2.40776 0.438091)
(128.075 -2.47346 0.737112)
(448.299 135.918 -25.4258)
(152.209 51.0866 18.0744)
(135.804 -21.7287 15.764)
(8.75146 2.98121 12.4122)
(105.298 -2.63996 3.26567)
(51.4325 -4.46221 5.54039)
(106.495 -5.63879 1.32385)
(78.453 -5.36259 -0.698903)
(105.603 -4.02151 -3.04361)
(89.614 -2.67576 -4.39655)
(105.167 -0.823659 -5.15548)
(95.9517 0.26111 -5.31279)
(104.116 1.48473 -4.02495)
(98.7018 1.80175 -2.43784)
(103.608 1.40502 -0.0188105)
(102.158 0.125786 0.596684)
(104.797 -1.3394 0.985738)
(105.011 -2.02139 0.950196)
(106.393 -2.71646 1.13058)
(109.009 -2.45333 0.738311)
(217.394 -96.3617 -46.7236)
(1.81027 -36.6317 -27.3173)
(117.177 -57.8516 -34.9609)
(4.57203 -31.4087 -4.63242)
(103.274 -37.0875 0.0945086)
(43.8156 -10.3968 2.20169)
(95.0521 -15.4305 1.99264)
(63.6223 -4.36889 -0.440319)
(92.3179 -7.87133 -0.787575)
(75.4328 -3.00876 -1.44971)
(92.5935 -4.47373 -1.06309)
(83.9556 -1.14694 -0.945842)
(94.0498 -1.18556 -0.168128)
(90.0875 0.993994 0.220529)
(96.2236 0.838313 0.897114)
(95.0583 0.946862 0.855351)
(98.0012 -0.258987 0.86154)
(98.256 -0.614288 0.600041)
(99.5288 -1.64846 0.473063)
(102.078 -2.07358 0.312281)
(441.575 -195.592 126.124)
(218.427 -51.5604 27.889)
(204.251 -29.8026 -8.64682)
(80.7507 -20.0739 -2.74725)
(115.067 -20.037 4.20501)
(57.1986 -6.11558 3.44573)
(97.4714 -13.8318 2.57811)
(63.44 -6.90725 0.773831)
(91.2547 -12.0976 -0.022112)
(72.4278 -6.48313 0.327927)
(90.1367 -8.32292 0.161046)
(80.6216 -3.79692 0.228465)
(90.6493 -4.2863 0.251577)
(86.3987 -1.63008 0.265552)
(92.1604 -2.18568 0.39343)
(91.0023 -1.3969 0.252244)
(94.005 -2.40782 0.263607)
(94.8319 -2.26716 0.0861449)
(96.467 -3.17182 0.118451)
(99.6395 -3.07414 0.173125)
(185.817 63.4294 17.2832)
(-0.0575141 8.80833 -7.83562)
(124.025 -0.617425 -14.7998)
(31.704 -9.15851 -2.35753)
(106.08 -9.02349 0.237781)
(50.0367 0.956767 0.135491)
(94.0786 -15.1412 0.075547)
(65.9125 -1.82067 0.286606)
(92.1493 -15.7663 0.619522)
(77.4159 -4.28979 0.908946)
(93.2049 -11.2432 1.00743)
(85.3448 -2.96612 0.529553)
(93.7487 -5.99481 0.37205)
(89.5814 -1.15947 0.115785)
(94.2394 -3.00297 0.172463)
(92.7915 -1.564 0.0253817)
(95.2087 -3.12105 0.11299)
(95.8944 -2.75146 0.00426988)
(97.3172 -3.93518 0.0960878)
(100.282 -3.64754 0.14101)
(233.484 36.8641 -89.8387)
(120.251 9.43472 -35.9115)
(157.358 -18.9012 -21.0794)
(70.7809 -11.6771 -2.07045)
(117.874 -15.6012 -2.58746)
(59.315 -1.27339 -0.755035)
(102.398 -22.8754 -2.9448)
(74.3586 -8.76743 0.671522)
(94.3026 -19.3093 0.0357478)
(82.5418 -9.02578 2.05393)
(94.4003 -12.8379 1.58446)
(88.9282 -5.1664 1.589)
(94.5687 -6.85548 0.979364)
(91.7321 -2.77483 0.519787)
(94.1095 -4.60657 0.323026)
(93.3198 -3.21845 0.179124)
(95.0579 -4.72804 0.229205)
(96.3064 -4.10383 0.0251452)
(97.6419 -5.05332 0.145814)
(100.975 -4.44847 0.191979)
(204.541 184.145 36.7205)
(36.4233 70.3143 -10.004)
(138.642 33.4086 -16.2739)
(61.8885 6.9076 -5.58655)
(120.59 3.14002 -4.01926)
(76.6349 4.30085 -2.47171)
(100.145 -31.8734 -4.78779)
(81.1517 2.29084 0.282346)
(98.1281 -24.6119 0.27664)
(89.431 -4.4318 3.77825)
(100.225 -15.4006 3.12226)
(94.5394 -2.0335 2.24822)
(98.7779 -7.19064 1.19833)
(94.9329 -0.665722 0.735226)
(97.4678 -3.78082 0.752167)
(96.8742 -3.03961 0.453814)
(98.6246 -5.15837 0.585673)
(100.113 -4.95888 0.251403)
(101.464 -6.10075 0.238507)
(104.569 -5.24331 0.230915)
(144.923 -130.668 -24.5798)
(26.0153 -1.35253 -46.5033)
(136.548 -13.4808 -19.0264)
(48.6398 -18.7313 -8.0984)
(127.629 -22.4923 -3.58176)
(92.5449 8.33816 -2.48468)
(114.291 -18.8918 -2.34095)
(93.8545 -25.0275 1.00616)
(111.667 -23.152 1.91258)
(103.443 -23.6382 5.28373)
(107.153 -16.1604 4.51252)
(100.167 -12.7866 2.34094)
(100.7 -10.3599 0.822919)
(96.8224 -9.34907 0.448181)
(97.636 -4.87252 -0.00915991)
(99.1144 -4.16796 -0.0478609)
(100.652 -6.66713 -0.0334164)
(102.477 -6.23472 0.0534531)
(103.505 -6.872 0.168347)
(106.512 -5.72844 0.210861)
(176.218 20.1305 -17.5789)
(37.988 -0.0277235 -17.6524)
(126.399 -23.3501 -10.0707)
(39.8966 -31.16 0.649515)
(106.58 -35.8577 1.30314)
(89.5655 -14.6701 -1.54549)
(114.827 -7.96208 0.874029)
(109.146 -28.0825 5.07303)
(117.027 -24.8567 6.17504)
(113.285 -18.1203 1.15432)
(108.593 -8.66547 1.90936)
(102.858 -7.48278 1.39855)
(101.455 -6.83521 0.533609)
(100.241 -7.53239 0.234829)
(102.181 -11.6456 -0.159176)
(103.207 -7.44133 0.142927)
(103.328 -8.52794 0.0148898)
(104.102 -7.82436 0.00228384)
(104.462 -7.73267 0.0390989)
(107.063 -6.35009 0.0920577)
(191.872 -55.8438 139.661)
(68.6032 -36.6774 5.19979)
(147.945 -22.7414 -10.8559)
(65.8716 -26.8647 0.179198)
(118.889 -27.3736 -1.99977)
(89.2058 -20.3343 -1.85273)
(106.192 -13.5465 0.341629)
(105.092 -18.1935 0.642271)
(106.57 -20.2677 1.72)
(107.558 -11.234 -0.597265)
(105.854 -1.6939 -1.36878)
(104.268 1.17402 -0.542956)
(103.82 0.552616 -0.287503)
(105.378 -1.70895 -0.284687)
(106.862 -6.98197 -0.318535)
(104.346 -8.16389 0.484673)
(103.458 -8.46251 0.297843)
(103.252 -7.38267 0.0314828)
(103.05 -7.58023 -0.0157859)
(105.476 -6.34209 -0.0469354)
(229.7 9.29073 80.1881)
(164.049 10.29 -18.5253)
(188.27 14.9337 -16.8899)
(106.485 -16.9347 -7.51868)
(132.294 -17.3938 -6.70818)
(106.892 -19.1732 -6.08433)
(117.254 -19.8857 -4.44464)
(114.599 -23.5427 -3.25023)
(112.744 -23.2869 4.49333)
(109.752 -5.86609 -0.0972198)
(111.516 -2.83288 -1.27166)
(110.826 1.09339 -0.705123)
(110.525 1.04196 -0.339195)
(111.17 -2.42305 -0.25603)
(108.23 -7.08411 0.359201)
(103.103 -7.89648 0.624636)
(102.216 -7.81104 0.0266035)
(101.801 -7.37097 -0.286131)
(101.709 -7.75389 -0.223844)
(104.465 -6.81805 -0.106253)
(52.214 178.78 80.977)
(-62.464 -7.0384 -8.22704)
(161.394 9.50008 -9.74753)
(70.3599 -11.857 -4.26928)
(132.694 -3.79153 -1.00388)
(103.356 -19.9632 -3.88481)
(123.924 -26.1557 -2.27734)
(113.205 -23.2572 3.6462)
(107.896 -15.8217 7.09326)
(104.294 -5.17971 1.62845)
(104.201 -0.861121 -0.306685)
(104.871 0.777722 -0.0104044)
(106.765 -0.0953554 0.300578)
(108.421 -2.91167 0.620775)
(105.972 -6.62034 1.18052)
(102.95 -6.53471 0.370285)
(102.281 -7.46309 -0.225818)
(101.893 -7.12575 -0.486212)
(102.001 -8.23959 -0.343886)
(104.702 -7.13054 -0.211635)
(231.091 142.408 96.3803)
(45.8272 -23.9087 1.81846)
(196.567 -24.0995 -5.72139)
(86.8529 -14.9822 -3.84902)
(150.205 2.21446 -0.822238)
(89.5322 -37.8319 1.44521)
(117.47 -7.26229 3.4816)
(86.7773 -9.6109 7.6953)
(98.2325 -4.37093 4.02108)
(90.4805 -4.39931 1.02169)
(97.5788 -2.54014 0.139056)
(96.968 -2.90948 0.561638)
(102.622 -3.5654 1.01658)
(103.41 -5.23598 1.26507)
(103.676 -6.73195 0.583242)
(103.463 -6.58084 -0.0119747)
(103.149 -7.53083 -0.374603)
(103.263 -7.68223 -0.623208)
(103.354 -8.84023 -0.366135)
(105.871 -7.62518 -0.278982)
(103.984 -308.61 -69.9199)
(28.4068 -39.5786 34.9211)
(161.307 -32.8349 -6.41498)
(51.4883 -15.363 -1.34398)