/*--------------------------------*- C++ -*----------------------------------*\
  =========                 |
  \\      /  F ield         | OpenFOAM: The Open Source CFD Toolbox
   \\    /   O peration     | Website:  https://openfoam.org
    \\  /    A nd           | Version:  10
     \\/     M anipulation  |
\*---------------------------------------------------------------------------*/
FoamFile
{
    format      ascii;
    class       volVectorField;
    location    "5.4";
    object      U_0;
}
// * * * * * * * * * * * * * * * * * * * * * * * * * * * * * * * * * * * * * //

dimensions      [0 1 -1 0 0 0 0];

internalField   nonuniform List<vector> 
12920
(
(75.9988 -236.524 79.5222)
(-44.2456 -84.7653 -11.6986)
(135.717 -44.1007 13.1805)
(39.0431 16.657 -7.60589)
(125.31 18.2677 -5.56887)
(89.523 7.87384 -1.50889)
(123.355 1.51687 -0.526935)
(112.193 -5.71191 0.400626)
(131.759 -7.42414 0.407134)
(130.137 -9.8669 0.261295)
(143.97 -9.91288 0.00786223)
(146.566 -9.9012 -0.327743)
(154.733 -6.88922 -0.0144479)
(153.347 -3.62462 0.61009)
(148.466 6.09578 0.874984)
(134.005 8.94538 -0.0306154)
(129.887 7.33313 -0.74438)
(126.857 5.75902 -1.06468)
(126.959 3.08942 -0.744221)
(127.298 0.595184 -0.317816)
(44.4671 -70.049 -12.9733)
(-37.5903 24.114 -18.2748)
(124.662 -4.36684 16.3925)
(-10.7847 0.0802978 10.3448)
(105.777 -14.4055 5.47609)
(46.1149 -15.0807 3.48246)
(100.249 -16.3072 1.52355)
(68.7764 -13.1624 0.104066)
(96.0693 -10.5027 -1.07722)
(80.7321 -7.70963 -1.76684)
(97.56 -4.23457 -2.37674)
(91.8328 -1.15266 -2.6094)
(102.716 1.89464 -2.56726)
(101.851 4.66867 -2.54221)
(109.38 6.16417 -1.15255)
(109.493 5.65801 -0.0699753)
(112.162 2.76257 0.712971)
(111.304 0.217698 1.08584)
(110.955 -2.82045 1.34054)
(108.12 -3.69682 0.938522)
(226.188 -89.8812 111.6)
(-104.989 -49.2599 6.28027)
(138.332 -58.7964 -16.5475)
(78.8856 -32.7771 -4.92068)
(129.744 -40.8023 2.8402)
(75.5628 -19.5022 1.46443)
(101.161 -21.4623 2.20174)
(68.1875 -7.11668 0.0260312)
(91.2919 -8.07196 -0.276531)
(75.6568 -2.21929 -0.714947)
(91.3887 -2.83097 -0.567039)
(84.7918 0.834125 -0.445704)
(94.567 1.35779 -0.0748804)
(92.078 3.85338 0.167757)
(97.9343 4.49761 0.557657)
(96.9139 4.45143 0.706532)
(99.5103 2.03073 0.770055)
(99.1163 0.513302 0.607277)
(99.2631 -1.98925 0.417668)
(98.0904 -3.84929 0.251271)
(433.892 126.368 92.9409)
(75.265 103.601 31.3835)
(167.151 22.214 -15.6757)
(137.935 6.3993 -8.44082)
(155.489 -6.33435 2.34665)
(93.2027 -4.37777 3.55433)
(104.006 -12.3264 3.44005)
(62.4992 -6.93085 0.505314)
(87.9492 -11.1693 -0.0143751)
(68.3029 -5.89172 0.144813)
(86.1023 -7.29084 0.144907)
(77.2192 -2.80163 0.220922)
(87.0823 -3.12448 0.197298)
(83.5208 -0.768891 0.210931)
(89.2854 -1.42331 0.235918)
(88.6718 -1.17972 0.181165)
(92.0509 -2.83072 0.0987714)
(93.4225 -3.34487 0.0336629)
(95.0063 -5.30064 0.0463679)
(95.6804 -6.18157 0.0476031)
(164.829 65.6935 103.045)
(-37.9778 26.3354 23.8827)
(132.427 13.5735 8.39775)
(54.5319 0.387057 3.58787)
(117.883 -3.78408 4.16287)
(70.6187 4.96093 0.893175)
(100.67 -7.15575 0.487395)
(74.6857 1.91869 -0.044733)
(96.2237 -12.4626 0.22585)
(82.9686 -4.22025 0.384901)
(96.5106 -10.9009 0.505296)
(89.833 -3.57615 0.222591)
(96.8943 -5.57504 0.180855)
(93.2553 -0.688404 0.0214562)
(97.1267 -1.81138 0.034086)
(95.5562 -0.625188 -0.039766)
(97.4486 -2.37911 -0.00808274)
(97.6027 -3.05511 0.0109223)
(98.192 -5.73469 0.0372464)
(98.0293 -6.95781 0.0208985)
(247.195 181.745 -105.72)
(80.7357 50.4805 2.14942)
(174.09 -12.0547 5.57332)
(70.0633 -8.00545 4.55358)
(125.508 -14.2517 1.00218)
(67.8488 2.63856 0.0736992)
(108.631 -11.6924 -1.27352)
(85.8668 -5.77064 -0.150114)
(103.104 -16.4629 -0.456573)
(92.239 -11.8489 0.774119)
(101.771 -15.0188 0.921118)
(95.6097 -7.14058 1.05377)
(99.3701 -6.80518 0.75052)
(96.0993 -2.49373 0.364308)
(97.2919 -3.56202 0.217085)
(95.6203 -2.39951 0.128517)
(96.3668 -4.02342 0.163556)
(97.0382 -4.47019 0.0657204)
(97.7566 -7.05193 0.0804373)
(98.6511 -8.24525 0.0512849)
(138.513 97.5573 -128.138)
(-22.9977 56.0088 -18.9776)
(140.78 35.7069 -14.3222)
(79.9553 16.0055 -5.67298)
(136.115 12.4283 -3.96382)
(107.006 13.7601 -2.42075)
(132.953 -13.6665 -2.59144)
(125.78 3.02421 -0.69483)
(138.062 -16.8586 -0.141058)
(127.855 -10.7444 1.75214)
(126.106 -20.1952 2.36064)
(115.388 -8.94753 1.68638)
(113.367 -10.0051 0.848572)
(105.741 -1.83464 0.476583)
(104.693 -2.473 0.573455)
(100.347 -1.37907 0.480808)
(99.9357 -3.92108 0.44276)
(101.056 -5.01114 0.247705)
(102.566 -8.9941 0.128578)
(103.789 -10.1675 0.0401816)
(118.443 -22.0312 -9.77571)
(-24.2484 64.7279 -12.6352)
(144.583 20.4889 -14.0136)
(105.747 10.681 -10.2765)
(164.712 -0.0291403 -5.57017)
(158.335 12.6607 -4.09091)
(173.146 3.01799 -3.11678)
(163.03 -18.1207 -1.21687)
(170.124 -12.0795 -0.567284)
(160.884 -22.5892 0.997652)
(150.313 -18.7455 1.30585)
(120.927 -18.1249 1.36837)
(112.258 -8.1611 0.663007)
(100.695 -4.9544 0.56013)
(94.1076 -1.1992 0.0718984)
(95.0886 -0.993933 -0.190773)
(98.2044 -6.3968 -0.153265)
(103.073 -8.5805 -0.0970361)
(104.817 -11.7088 0.0340989)
(105.251 -11.7613 0.0204615)
(120.991 -22.0423 -21.7775)
(35.9853 71.5223 -6.63112)
(142.887 42.1653 -5.37793)
(104.267 21.4267 -1.46316)
(138.439 -0.271897 4.42829)
(121.811 -0.226196 -0.861956)
(148.292 11.1245 1.76946)
(129.802 -24.3834 1.79374)
(119.606 -29.5765 0.602836)
(125.636 -27.087 -0.168189)
(130.892 -5.84621 -0.0582227)
(122.197 -5.25088 0.234306)
(112.436 -2.86324 0.341848)
(103.542 -0.319472 0.17287)
(96.964 -2.0632 0.127038)
(100.475 -5.25844 -0.18296)
(103.609 -10.2284 -0.153461)
(105.542 -11.2652 -0.136235)
(105.8 -12.6945 -0.0477396)
(104.558 -12.661 -0.00964392)
(85.8216 110.037 27.3192)
(-8.29143 57.4654 10.15)
(144.941 17.8867 6.69076)
(77.4982 -1.75549 5.94874)
(132.556 -8.40603 4.26096)
(100.155 -7.15288 -1.45913)
(99.1277 -3.87049 1.21433)
(93.9889 -8.55246 -0.514151)
(100.687 -33.9767 -0.265818)
(102.383 -22.9233 -0.268144)
(108.114 0.358175 -0.638329)
(111.371 7.46521 -0.306829)
(110.206 8.22072 -0.188569)
(103.029 9.27916 0.379533)
(99.9076 3.51513 -0.430739)
(104.786 -7.3993 -0.0716829)
(104.033 -10.1971 0.00508556)
(103.116 -10.075 -0.116941)
(102.183 -11.6147 -0.16082)
(101.242 -12.1083 -0.165065)
(128.464 155.952 43.7692)
(82.8964 33.1493 5.66223)
(164.158 25.4438 -2.97743)
(104.592 -4.00086 -3.33384)
(149.849 -2.94551 -3.26919)
(121.168 0.610228 -2.80271)
(131.044 2.65967 -0.484238)
(138.353 -1.58227 -1.62079)
(120.293 -30.6951 0.334496)
(109.145 -15.0537 -0.11698)
(103.658 0.426013 0.121272)
(107.018 8.20878 -0.146073)
(110.223 10.2138 -0.13892)
(107.148 12.3319 0.254856)
(108.026 2.01244 -0.357629)
(103.955 -5.80012 0.0472738)
(101.491 -8.08568 0.0319407)
(100.927 -8.91003 -0.303795)
(100.765 -11.2137 -0.340517)
(100.956 -12.3629 -0.260272)
(231.349 197.749 -161.528)
(-94.4622 20.7144 6.62645)
(189.151 15.4586 -12.8682)
(121.93 -0.135391 -2.63473)
(169.944 15.7355 2.57662)
(124.095 5.06675 -0.571979)
(142.967 8.32799 -0.210285)
(139.594 11.9957 1.52966)
(116.462 -23.0543 -0.421005)
(101.482 -8.45353 0.191423)
(100.425 -2.29932 -0.0523486)
(103.359 5.502 0.0326529)
(104.323 9.52788 0.0895237)
(106.97 10.9928 0.142509)
(108.047 2.1236 0.182968)
(102.992 -3.39565 0.279378)
(102.447 -6.43928 -0.125234)
(102.706 -7.46796 -0.501802)
(103.394 -10.863 -0.56095)
(103.988 -12.3701 -0.409921)
(172.153 -144.318 -0.310828)
(109.549 -34.5452 8.86561)
(202.084 -30.676 2.55543)
(128.273 -9.53636 -3.32502)
(170.409 23.4156 0.272433)
(126.039 -5.27685 0.766083)
(141.297 14.3951 0.2606)
(114.202 6.98019 0.917778)
(103.05 0.251448 0.99858)
(83.242 -4.14267 0.350988)
(88.3568 -0.261213 -0.178069)
(89.1438 2.60071 -0.110072)
(97.7492 4.53054 0.107548)
(100.702 3.3944 0.33179)
(101.772 -2.54147 0.507026)
(102.949 -3.82064 0.1463)
(103.8 -6.20186 -0.349212)
(105.881 -6.92244 -0.627589)
(107.24 -10.6328 -0.587128)
(107.561 -12.1786 -0.468785)
(179.269 -334.836 173.976)
(40.482 -56.1616 16.4393)
(187.566 -8.40797 -6.23686)
(84.2228 11.6558 -2.6668)
(156.883 33.7597 1.38968)
(101.12 9.987 2.00164)
(125.477 38.855 3.05842)
(94.1734 0.289649 2.32134)
(104.899 14.3714 1.23457)
(93.1123 -4.71626 0.678467)
(100.196 0.0870818 0.859477)
(97.9725 -6.64929 0.994802)
(102.609 -4.04492 1.11008)
(102.899 -6.04942 0.797411)
(106.161 -5.06098 0.541427)
(106.929 -5.81445 0.130503)
(109.033 -6.54823 -0.268619)
(110.597 -7.2191 -0.507773)
(112.434 -10.5624 -0.642434)
(111.35 -11.4768 -0.544735)
(250.055 -42.1523 -179.125)
(97.6511 36.0322 -15.6979)
(195.843 32.5111 -7.36858)
(44.299 17.4675 1.55495)
(149.744 27.1777 0.333236)
(62.9681 2.38895 1.3536)
(122.964 14.0345 0.431965)
(90.9645 -2.55273 0.134583)
(112.81 -1.74362 -0.394379)
(105.646 -9.36045 -0.770822)
(114.814 -8.87558 -0.421363)
(114.156 -11.9321 -0.0589989)
(118.379 -10.7326 0.443113)
(118.27 -10.4512 0.608768)
(119.844 -8.77651 0.521864)
(119.331 -7.83748 0.240534)
(119.376 -7.57307 -0.0111554)
(119.15 -7.46509 -0.356542)
(119.396 -9.06338 -0.565818)
(116.327 -9.53521 -0.559931)
(47.6397 105.045 -41.8882)
(-41.4845 17.4575 -16.2633)
(177.707 37.7325 -2.55787)
(27.7178 15.893 2.05998)
(146.721 24.5268 -0.154778)
(75.2846 11.917 -0.773748)
(124.669 16.418 -1.0993)
(99.6621 3.7999 -2.13103)
(120.5 4.58572 -2.18475)
(113.084 -4.29424 -2.72298)
(123.859 -5.18577 -2.17266)
(122.562 -10.9351 -1.47307)
(127.799 -10.5113 -0.470626)
(127.221 -11.3074 0.0701927)
(128.98 -8.86976 0.421384)
(127.72 -6.94836 0.421537)
(127.93 -5.34704 0.347848)
(127.295 -4.8897 0.054826)
(127.533 -5.90575 -0.00783171)
(123.004 -6.60759 -0.180075)
(269.815 165.151 51.079)
(89.761 33.7503 1.0277)
(175.16 -0.208826 3.83092)
(52.8835 24.4829 2.28207)
(150.948 9.0629 -0.209801)
(84.0356 15.4504 0.736339)
(132.293 8.88501 -0.725374)
(107.84 7.1347 -2.0492)
(131.083 2.33443 -2.48956)
(125.349 -1.66466 -3.26408)
(137.603 -5.47718 -2.77086)
(137.092 -10.5446 -2.04006)
(141.696 -13.2295 -0.254295)
(137.957 -13.5282 0.369891)
(137.05 -11.8643 0.660505)
(133.797 -9.78746 0.509567)
(133.935 -8.34653 0.41549)
(133.56 -6.98034 0.313297)
(134.008 -6.00598 0.262128)
(130.441 -5.22186 -0.0156259)
(255.949 276.248 42.1665)
(225.077 103.464 -32.8331)
(257.089 16.1521 2.42022)
(179.518 -1.43033 2.29386)
(208.145 -0.207115 3.25624)
(165.586 8.94008 1.17075)
(175.616 8.23307 1.24181)
(154.225 9.53176 -0.690778)
(161.871 6.83486 -1.05801)
(154.694 4.23657 -1.58091)
(160.202 -1.28533 -0.511165)
(155.746 -7.12487 0.183043)
(154.256 -9.55372 1.14317)
(145.686 -9.83185 1.04999)
(142.281 -8.43047 0.618582)
(136.865 -7.47524 0.294007)
(135.871 -6.82577 0.0484212)
(134.428 -6.45035 0.0373405)
(134.551 -5.4601 -0.0820415)
(132.557 -3.82144 -0.281859)
(348.298 155.897 82.4292)
(136.545 60.314 33.0858)
(205.218 20.2397 7.66845)
(110.556 9.73293 -1.97503)
(172.084 23.566 -5.40746)
(132.309 23.345 -4.45331)
(159.91 22.0877 -2.86052)
(141.175 17.9883 -2.45028)
(151.06 12.1068 -0.539322)
(138.179 5.37485 -0.155306)
(142.759 -2.13 0.510663)
(140.433 -7.22143 0.351011)
(142.566 -7.72613 0.367613)
(139.425 -7.46918 0.398575)
(138.652 -6.42375 0.512046)
(135.204 -5.98051 0.742327)
(133.425 -5.5683 0.831795)
(130.476 -5.75437 0.817621)
(128.685 -4.75744 0.510309)
(124.043 -2.65818 0.072832)
(-58.4369 52.8333 -89.3109)
(-122.051 62.5051 -33.6794)
(161.851 1.33328 -17.5076)
(89.6233 4.83443 1.90267)
(170.354 15.5032 2.55823)
(144.836 24.0583 3.39994)
(179.061 25.064 3.91495)
(174.4 26.0015 3.80696)
(187.898 20.9104 4.28415)
(182 16.3558 3.84014)
(179.549 -1.41403 2.78618)
(160.257 -9.29295 0.323676)
(156.787 -9.23859 -1.46002)
(150.437 -8.42829 -1.94364)
(149.326 -6.46287 -1.88451)
(146.45 -6.26515 -1.84018)
(144.142 -5.24172 -0.633372)
(138.92 -5.12535 -0.295891)
(134.417 -2.06594 -0.0660152)
(130.675 0.306549 -0.15896)
(295.794 -455.375 305.711)
(-232.516 -55.2376 8.33901)
(159.829 -79.9745 -6.12229)
(57.8631 -14.9023 -10.9422)
(135.897 -0.245237 -6.86018)
(101.041 1.94584 -0.593302)
(126.268 1.68678 0.83644)
(112.592 -3.26526 1.57018)
(129.824 -4.20002 1.33078)
(126.384 -5.40289 0.668705)
(137.986 -4.23296 0.203625)
(136.982 -3.13183 -0.352064)
(141.618 0.510656 -0.0104118)
(135.607 4.76067 1.00738)
(130.889 8.53699 2.33213)
(119.787 6.14448 1.14909)
(117.577 2.40702 0.114875)
(115.164 0.107243 -0.402346)
(115.549 -2.04884 0.00517148)
(116.279 -2.64734 0.302337)
(251.06 -207.751 -64.5877)
(-64.4051 -0.978459 -40.8411)
(106.351 -24.0152 -11.302)
(-25.4335 -0.946521 6.57419)
(96.9201 -8.80693 1.6615)
(39.2172 -10.0036 4.41979)
(95.4091 -10.5036 1.31463)
(66.5481 -8.8696 -0.387187)
(93.471 -6.92099 -2.36988)
(78.2234 -4.93684 -3.4457)
(93.9372 -2.41037 -4.25941)
(86.5533 -0.486216 -4.67145)
(96.0129 1.53968 -4.32197)
(92.3213 2.96785 -3.53368)
(97.5713 3.39085 -0.883046)
(96.3235 1.96261 0.330368)
(98.8071 -0.324136 1.14806)
(98.6884 -1.80569 1.28208)
(99.2633 -3.13894 1.48792)
(97.8645 -3.2277 0.937581)
(60.5672 -95.6507 4.2365)
(-96.9953 -41.1798 -37.635)
(111.554 -65.1218 -39.1759)
(7.61278 -32.0166 -5.90479)
(104.182 -41.0396 2.9746)
(44.4264 -14.4658 1.61453)
(88.9493 -17.9207 2.78306)
(56.3566 -5.26329 -0.371679)
(83.2247 -7.89514 -0.599509)
(66.6498 -2.70442 -1.33744)
(83.3143 -3.88502 -0.972168)
(75.4928 -0.459829 -0.856288)
(85.4398 -0.282087 -0.176271)
(82.0794 2.1228 0.214659)
(88.1438 2.37685 0.927649)
(87.0238 2.24512 1.01244)
(89.8436 0.459967 1.04759)
(89.8878 -0.379414 0.749532)
(90.4778 -1.92068 0.589903)
(89.5595 -2.85173 0.243018)
(221.85 207.593 -91.5202)
(120.732 9.00337 5.97661)
(176.088 -25.5569 -23.7998)
(85.6668 -19.6996 -9.87339)
(118.633 -19.9132 4.56822)
(57.1869 -6.44825 3.79215)
(91.9105 -13.3135 3.56395)
(54.6895 -6.6774 0.591221)
(81.9633 -11.5358 -0.0680404)
(62.4315 -6.0597 0.308629)
(80.1157 -7.69112 0.216543)
(70.7122 -3.17124 0.269841)
(80.5727 -3.57432 0.237969)
(76.4744 -1.01903 0.257903)
(82.1767 -1.63375 0.390908)
(81.142 -1.14327 0.290314)
(84.2332 -2.48746 0.223305)
(85.2842 -2.69623 0.0811934)
(86.6242 -4.03178 0.141467)
(86.8106 -4.31711 0.0263156)
(107.688 93.0554 61.5552)
(-75.7076 -36.8129 8.4134)
(123.454 -7.62297 -10.2408)
(24.0436 -10.0794 -1.14383)
(104.381 -6.94461 1.97114)
(49.2669 4.66983 0.0945022)
(89.1981 -11.0478 0.232251)
(61.0441 0.267592 0.000649265)
(85.6962 -14.2664 0.505595)
(71.0509 -3.91707 0.796877)
(85.8308 -10.752 1.03231)
(78.0897 -2.75733 0.486642)
(85.7405 -5.40716 0.378824)
(81.552 -0.615602 0.0870612)
(85.7772 -2.29752 0.13757)
(84.166 -1.12704 0.00356303)
(86.3891 -2.91569 0.11141)
(87.062 -3.0586 0.00199052)
(88.0611 -4.81772 0.118253)
(87.886 -5.033 -0.0200593)
(176.45 32.5473 -55.1853)
(26.7424 13.9891 5.21858)
(142.425 -22.8615 -13.9893)
(52.8202 -7.88167 -1.05827)
(113.543 -11.5249 -2.60238)
(54.5034 3.88668 -0.937913)
(98.3891 -16.831 -2.94106)
(71.6444 -6.90351 0.448152)
(90.0397 -17.6171 -0.268559)
(78.076 -9.88632 1.86117)
(88.7725 -13.1814 1.66304)
(82.7315 -5.42381 1.73515)
(87.321 -6.35284 1.16259)
(84.0653 -2.31217 0.578428)
(85.8398 -4.01155 0.385055)
(84.6125 -2.90206 0.231721)
(86.0331 -4.65765 0.270674)
(87.2587 -4.55745 0.0417079)
(88.2773 -6.13468 0.158235)
(88.6116 -6.072 0.0261977)
(222.153 159.592 57.3687)
(54.5734 71.6994 -10.3458)
(137.38 40.2592 -18.3468)
(61.1432 17.1194 -6.31645)
(118.625 11.8706 -4.74323)
(80.5298 12.6022 -2.92244)
(104.725 -22.2798 -4.58074)
(89.8868 3.17188 -0.193926)
(104.6 -21.8698 0.480544)
(95.1542 -7.49447 3.82055)
(101.005 -16.7045 3.85743)
(93.0311 -3.49689 2.53685)
(94.4612 -6.89619 1.41303)
(89.03 -0.176672 0.853225)
(90.1818 -2.82704 0.915546)
(88.589 -2.36755 0.607939)
(89.8645 -4.86112 0.631522)
(91.544 -5.351 0.278289)
(92.8221 -7.5681 0.241217)
(92.9675 -7.29309 0.0406554)
(64.9351 -8.99585 58.9059)
(-27.472 45.1808 -26.5344)
(128.538 7.33559 -23.3294)
(54.8987 -5.52396 -10.0226)
(127.781 -13.9411 -3.47918)
(103.513 11.5081 -2.51142)
(126.789 -4.51798 -2.39259)
(115.27 -21.4393 1.18869)
(130.918 -15.9572 1.62882)
(122.829 -23.755 4.66747)
(115.596 -15.1533 4.97198)
(98.672 -11.7349 2.53294)
(95.2249 -6.56563 0.918503)
(88.6633 -5.49443 0.482521)
(86.9432 -3.34237 -0.240477)
(88.8282 -3.17376 -0.312358)
(91.2188 -7.10104 -0.149472)
(94.0077 -7.53362 -0.0768928)
(95.0113 -9.00813 0.138277)
(94.8471 -8.23154 0.0090264)
(111.519 -47.4614 -38.209)
(5.39797 28.793 -13.8366)
(125.745 -1.7642 -14.4017)
(47.9687 -16.4615 -0.736929)
(106.993 -26.9829 4.45743)
(95.229 -11.5167 -2.13036)
(125.466 1.23957 1.39571)
(121.263 -23.0029 5.45265)
(123.199 -23.5203 7.24645)
(120.508 -19.053 0.322333)
(111.856 -4.87421 1.08975)
(100.511 -3.59394 1.32444)
(94.9081 -2.25161 0.657414)
(90.8002 -2.33912 0.543049)
(90.8349 -6.24368 0.0690283)
(93.7642 -7.09854 -0.387991)
(94.9828 -9.51804 -0.198974)
(95.9047 -9.54245 -0.154578)
(95.8438 -9.94653 -0.0254283)
(94.9442 -9.0286 -0.0885858)
(107.174 40.6049 36.7941)
(-27.1343 1.17949 -6.69703)
(129 -6.46377 -13.3875)
(55.9167 -14.3645 0.679918)
(115.89 -17.7588 0.381701)
(90.2845 -14.2578 -0.859532)
(101.276 -8.17879 1.03213)
(97.3903 -11.1874 0.0684389)
(97.7917 -24.728 0.687155)
(98.6677 -14.7828 -0.854706)
(98.1736 0.688871 -1.79545)
(96.8181 5.55382 -0.684485)
(94.6232 5.55869 -0.111379)
(93.6097 3.79477 0.311648)
(96.2032 -3.04777 -0.715384)
(96.1069 -8.03699 -0.225148)
(95.0802 -9.34561 0.0243511)
(94.3469 -8.68084 -0.121095)
(93.4398 -9.46647 -0.0996037)
(92.3087 -8.81577 -0.281479)
(122.465 179.376 65.821)
(97.1136 33.9054 -5.75864)
(165.606 23.899 -12.6328)
(98.48 -6.93622 -7.0047)
(129.496 -7.91205 -6.08179)
(111.127 -7.73862 -5.65464)
(121.405 -6.72047 -3.95525)
(119.61 -12.4704 -4.62844)
(115.479 -27.2535 3.32534)
(102.129 -10.3819 2.45438)
(98.1272 1.45232 0.716532)
(99.2545 5.94597 -0.39891)
(99.7912 6.76758 -0.0825573)
(100.862 4.24741 0.0298941)
(99.6114 -3.5719 -0.238858)
(93.9494 -7.17565 -0.0927479)
(92.8533 -7.97175 -0.128052)
(92.2434 -8.23819 -0.437606)
(91.8303 -9.41367 -0.345717)
(91.2441 -9.18987 -0.373794)
(-17.8533 117.458 -129.011)
(-61.369 -7.08083 22.8241)
(150.114 12.6686 -7.07282)
(76.4719 -2.59132 -3.10055)
(132.736 8.37713 1.48006)
(111.514 -3.14194 -2.7822)
(129.01 -8.13766 -2.8331)
(121.558 -8.13101 2.95454)
(108.771 -18.5589 6.71539)
(93.5504 -4.59724 1.36838)
(92.9261 1.49678 -0.237678)
(93.9787 4.93751 -0.0243322)
(96.0751 5.34025 0.291572)
(98.5324 2.75441 0.450379)
(96.516 -3.48795 0.822867)
(93.1285 -5.21574 -0.022615)
(92.9214 -7.11942 -0.393711)
(92.6281 -7.59018 -0.67566)
(92.5845 -9.716 -0.558713)
(91.9935 -9.46084 -0.541527)
(135.414 -97.5377 130.232)
(47.1009 -78.1791 -0.200844)
(180.363 -23.5789 -1.17855)
(85.5374 -7.8511 -5.72387)
(144.096 15.1567 -0.20506)
(92.2938 -23.9447 1.58722)
(118.995 2.77125 2.55967)
(87.1889 -1.49183 7.34311)
(88.6392 -1.41075 4.23898)
(76.8423 -2.50116 0.92482)
(83.6167 0.0454819 -0.13431)
(83.5203 0.562454 0.222761)
(90.2373 0.326594 0.730626)
(91.8573 -1.73468 1.10762)
(93.0949 -4.85533 0.325901)
(93.7335 -5.26714 -0.0379253)
(93.8831 -7.02161 -0.516644)
(94.5276 -7.8042 -0.800305)
(94.677 -10.1821 -0.575533)
(93.8215 -9.83723 -0.626303)
(318.743 -315.637 -96.5771)
(50.4516 -63.3018 -16.5705)
(171.029 -18.8514 -10.0195)
(48.4334 -1.17832 -1.49847)
(140.526 19.115 1.24182)
(73.1117 -2.9268 2.54305)
(106.65 34.1411 4.16031)
(74.9511 -7.51237 3.06434)
(91.3848 11.6494 1.641)
(81.001 -6.79307 0.892272)
(90.0945 -0.156674 1.27997)
(88.2045 -6.68311 1.40014)
(93.518 -3.9818 1.50963)
(93.6549 -6.11668 1.09777)
(96.5867 -5.33859 0.696477)
(96.5629 -6.12875 0.105291)
(97.9221 -7.20981 -0.405326)
(97.852 -8.14826 -0.644937)
(98.0807 -10.3311 -0.630473)
(96.1102 -9.67861 -0.712644)
(345.091 63.094 269.944)
(104.174 27.0924 -5.70361)
(170.139 20.4837 -5.29459)
(31.2611 7.0262 1.96374)
(135.701 17.1003 -1.36775)
(47.1008 -2.24957 2.32215)
(111.185 13.3749 0.0830892)
(76.117 -2.74564 0.367615)
(99.0279 -0.0330327 -0.521483)
(89.1469 -7.52181 -0.920084)
(98.5472 -6.44404 -0.0590809)
(96.9648 -8.95452 0.107531)
(101.883 -7.68051 0.844237)
(102.231 -8.18517 0.817198)
(104.469 -7.1683 0.701856)
(103.921 -6.9506 0.281059)
(104.271 -7.53991 -0.123177)
(103.422 -7.82963 -0.558862)
(102.658 -9.71506 -0.525595)
(99.1685 -8.82641 -0.729085)
(166.247 -33.2745 160.891)
(7.23686 19.9855 -29.8017)
(163.374 29.3187 16.3709)
(21.5938 8.66691 1.52721)
(135.73 17.0813 -0.343284)
(59.9607 6.23492 -1.08659)
(112.856 12.1973 -1.59433)
(84.2451 -0.850288 -2.86448)
(106.38 0.71204 -2.51593)
(96.1933 -7.73095 -3.07008)
(106.769 -7.30045 -1.91472)
(104.01 -10.5398 -1.26519)
(109.422 -9.03863 0.00232914)
(109.16 -9.1325 0.449889)
(111.601 -6.89811 0.736854)
(110.868 -6.21017 0.558272)
(111.168 -5.83113 0.390227)
(110.098 -5.98401 -0.0743812)
(109.186 -7.53117 0.158325)
(104.046 -6.95133 -0.315479)
(193.962 118.701 27.0813)
(50.0493 50.1757 -0.892173)
(173.346 19.8257 17.1872)
(55.1441 25.6398 6.94646)
(141.621 6.30924 0.730136)
(72.4859 8.68013 0.821052)
(121.553 0.555777 -1.55179)
(92.4287 -2.15724 -3.35461)
(115.642 -7.34109 -3.43379)
(105.389 -10.7015 -4.0627)
(115.632 -13.3995 -2.57238)
(112.75 -14.3037 -1.75803)
(117.342 -13.3284 -0.0327549)
(115.914 -11.8519 0.653655)
(117.599 -9.07117 0.987608)
(116.071 -7.23407 0.762707)
(116.329 -6.00253 0.554255)
(115.45 -5.44909 0.31998)
(114.98 -5.13151 0.446126)
(109.707 -4.32307 -0.187278)
(164.529 172.321 -37.5683)
(49.7499 34.6608 21.6847)
(184.265 20.8692 35.6034)
(124.492 11.2865 10.7863)
(178.082 9.03965 8.9485)
(134.885 11.3759 2.97086)
(152.111 4.70622 3.23439)
(128.366 1.39915 -0.849868)
(136.857 -4.71771 -0.830407)
(125.718 -9.5794 -1.85226)
(130.669 -14.0817 -0.274588)
(126.012 -15.346 0.132037)
(127.554 -12.8647 1.12583)
(123.165 -10.6206 1.04562)
(122.405 -7.07887 0.83028)
(118.77 -5.75718 0.467218)
(118.034 -4.70588 0.0930168)
(116.435 -4.33816 0.0178358)
(115.95 -3.18921 -0.00475363)
(111.951 -2.0578 -0.497231)
(177.326 -49.5203 59.6494)
(29.7767 -1.55015 43.5638)
(177.177 -5.23554 4.11139)
(93.6646 2.58038 1.59473)
(160.053 19.0401 -4.05103)
(117.801 19.4796 -4.57798)
(146.973 15.9318 -2.8584)
(125.795 8.92882 -4.10353)
(137.776 0.338423 -1.97287)
(126.397 -6.62811 -2.89124)
(132.621 -11.8525 -0.336288)
(127.915 -12.032 -0.113855)
(128.578 -9.43714 0.342413)
(123.299 -7.20182 0.331272)
(122.088 -4.65168 0.576831)
(118.138 -3.88694 0.651047)
(116.824 -3.29432 0.672126)
(114.468 -3.25701 0.552771)
(112.916 -1.92352 0.317626)
(109.116 -0.874839 -0.391135)
(54.8562 104.488 111.279)
(-46.409 64.7544 -31.8403)
(145.625 6.56387 -36.1995)
(94.8089 -11.2144 -7.76481)
(168.579 -6.40515 1.8192)
(143.622 5.51501 5.62575)
(176.867 9.29646 8.42363)
(172.347 11.7893 7.28727)
(185.8 7.76325 7.81049)
(179.072 3.00829 6.93535)
(172.596 -11.2004 5.33796)
(150.645 -12.0602 1.55161)
(143.263 -8.06885 -1.00187)
(130.811 -4.73247 -1.71908)
(128.427 -1.54825 -1.50738)
(122.345 0.0156775 -1.26078)
(121.361 0.86604 -0.406595)
(119.805 1.43925 -0.178263)
(119.103 2.2339 0.22755)
(118.582 2.15449 0.144102)
(-31.8496 -316.996 -35.4515)
(-215.667 -101.102 22.3286)
(148.795 -96.2324 -36.0975)
(68.0719 -22.501 -15.1595)
(137.898 -1.84481 -8.61908)
(104.162 3.49207 -0.0734732)
(126.653 4.13668 1.84931)
(111.81 0.0571011 1.71952)
(127.623 0.17279 1.03388)
(121.473 0.161639 -0.0718195)
(129.962 2.68646 -0.513504)
(123.231 4.17907 -1.12771)
(123.701 8.1254 0.416762)
(112.303 9.26797 1.30099)
(111.19 7.32236 2.78315)
(105.11 3.96607 1.6264)
(105.914 0.666992 0.755893)
(105.061 -1.00037 0.204426)
(106.071 -2.40954 0.431767)
(107.422 -2.49809 0.683824)
(463.573 98.4736 -17.4779)
(133.32 29.2455 19.1067)
(118.217 -27.4465 18.7406)
(-7.56718 -0.432992 12.7833)
(91.0004 -3.65508 3.29647)
(36.3337 -4.96565 5.58776)
(92.2237 -5.50127 1.31314)
(63.0134 -5.05743 -0.700643)
(90.5884 -3.58839 -3.06451)
(73.6952 -2.23129 -4.45119)
(89.3668 -0.355177 -5.17959)
(79.5323 0.682688 -5.32018)
(87.7469 1.87466 -3.98378)
(81.9955 2.09046 -2.40442)
(86.9171 1.61256 0.0203911)
(85.2491 0.268106 0.603337)
(87.9325 -1.24525 1.00803)
(88.109 -1.95927 0.933172)
(89.0779 -2.68095 1.12136)
(88.3633 -2.48651 0.643794)
(214.121 -108.285 -23.4303)
(0.778657 -45.4407 -28.8232)
(105.826 -63.6801 -32.7988)
(-8.4012 -33.8897 -4.21617)
(90.5463 -37.8226 0.312612)
(29.2858 -10.3404 2.14915)
(81.109 -14.8674 2.04154)
(48.3685 -3.53886 -0.535829)
(77.3689 -7.05988 -0.790964)
(59.5567 -2.15651 -1.49191)
(76.8142 -3.74508 -1.02439)
(67.5646 -0.403347 -0.933572)
(77.631 -0.533575 -0.123284)
(73.3317 1.56007 0.267802)
(79.4897 1.2746 0.953934)
(78.1001 1.27806 0.880951)
(81.0819 -0.0516692 0.870797)
(81.2961 -0.47992 0.589363)
(82.1502 -1.58379 0.480816)
(81.4184 -2.08238 0.228414)
(422.754 -201.614 98.4372)
(214.358 -56.5063 20.5819)
(194.437 -32.2445 -8.44978)
(68.2655 -20.6987 -2.54553)
(102.728 -19.9655 4.43078)
(43.1497 -5.17141 3.49228)
(83.9499 -12.6809 2.52999)
(48.1588 -5.55949 0.737578)
(76.2902 -10.8805 -0.061181)
(56.3748 -5.24635 0.316797)
(74.2319 -7.30947 0.14374)
(64.1117 -2.85353 0.197382)
(74.1362 -3.52814 0.23001)
(69.5206 -0.93013 0.241216)
(75.2869 -1.64022 0.387056)
(73.8975 -0.962942 0.263825)
(76.9612 -2.11858 0.290307)
(77.7882 -2.0731 0.0798176)
(79.0106 -3.06617 0.141998)
(78.9234 -3.04288 0.105841)
(201.434 75.2359 23.3678)
(6.85672 12.7601 -16.0367)
(120.453 4.45331 -14.3789)
(21.7945 -5.65109 -3.09964)
(94.8484 -5.93871 0.265713)
(36.6707 4.1252 0.0484987)
(80.6037 -12.7719 0.063575)
(50.7285 0.592256 0.200765)
(77.0809 -13.9973 0.620335)
(61.3163 -2.52954 0.805535)
(77.1254 -9.96706 0.99444)
(68.6912 -1.7603 0.462093)
(77.0907 -5.14665 0.368437)
(72.617 -0.383116 0.0947662)
(77.249 -2.451 0.168652)
(75.5834 -1.09046 0.0237952)
(78.0611 -2.78375 0.136929)
(78.7527 -2.50246 0.00200743)
(79.7832 -3.79658 0.12655)
(79.475 -3.58555 0.0780123)
(229.928 51.861 -103.281)
(109.78 18.8027 -34.6138)
(147.515 -11.5844 -19.9381)
(57.0071 -5.26246 -1.75508)
(105.224 -10.2437 -2.52652)
(44.779 3.50281 -0.781493)
(88.196 -19.4939 -3.00484)
(58.5226 -5.32634 0.714284)
(78.6198 -16.8607 0.0128366)
(65.9904 -6.75236 2.01213)
(77.9057 -11.1965 1.56235)
(71.9874 -3.69155 1.54183)
(77.6182 -5.82169 0.967547)
(74.5619 -1.90586 0.499843)
(76.9383 -4.00962 0.325501)
(76.0004 -2.7066 0.181514)
(77.7955 -4.34734 0.249398)
(79.0595 -3.81921 0.0271415)
(79.9926 -4.87137 0.176863)
(80.0467 -4.35914 0.126816)
(203.585 205.037 26.0177)
(39.01 80.4672 -13.1733)
(131.454 41.421 -15.4784)
(49.5205 14.7309 -5.0784)
(107.636 9.72861 -3.76406)
(61.6275 10.1268 -2.41451)
(85.2505 -27.8296 -4.68452)
(64.9491 6.65319 0.358513)
(81.8242 -21.8916 0.352961)
(72.454 -1.69733 3.84956)
(83.3084 -13.6101 3.17031)
(77.2634 -0.273255 2.27717)
(81.5114 -6.0006 1.19826)
(77.5351 0.429126 0.735756)
(80.1295 -3.14996 0.770653)
(79.4519 -2.49886 0.46153)
(81.2655 -4.73791 0.605446)
(82.7601 -4.63714 0.246763)
(83.7072 -5.89191 0.261889)
(83.4977 -5.13895 0.158511)
(139.963 -98.3975 31.8383)
(9.82835 19.2424 -39.1264)
(124.165 -1.05899 -15.8558)
(33.3577 -9.18443 -7.50452)
(113.082 -14.6918 -3.3812)
(76.0395 15.4535 -2.32737)
(98.0493 -11.6735 -2.14217)
(77.29 -17.9941 1.05308)
(94.8429 -17.7039 1.95955)
(85.9356 -18.256 5.28348)
(89.8845 -11.8389 4.41848)
(82.7065 -8.49447 2.26753)
(83.2626 -6.64159 0.802889)
(79.3558 -5.76582 0.390385)
(79.8523 -4.20765 -0.0621651)
(81.6092 -3.58855 -0.0475025)
(83.1925 -6.16289 -0.0144173)
(84.9999 -5.84895 0.053201)
(85.6137 -6.63375 0.189669)
(85.2849 -5.61664 0.138351)
(159.562 21.3997 -30.0383)
(19.2219 14.2627 -14.7506)
(109.053 -14.6595 -11.7617)
(22.5667 -23.2331 0.399964)
(90.5026 -29.1164 1.13058)
(71.9803 -5.17267 -1.59185)
(97.6105 -0.758247 1.06143)
(92.2697 -21.9997 5.16676)
(99.9417 -19.6098 6.09019)
(95.8388 -13.1138 1.09285)
(91.1431 -4.29621 1.99863)
(85.5637 -3.49828 1.41775)
(84.0692 -3.21734 0.548406)
(82.7314 -4.23134 0.212908)
(84.4203 -8.39104 -0.248161)
(85.3812 -6.77844 0.0814102)
(85.7478 -7.92625 0.0156962)
(86.4766 -7.38514 -0.0101403)
(86.4176 -7.47177 0.0687651)
(85.6606 -6.22556 0.0238059)
(187.124 -43.5829 105.35)
(47.3876 -17.8872 -0.593814)
(129.099 -8.05605 -12.8858)
(48.28 -15.892 -0.316267)
(102.151 -19.5024 -2.05959)
(71.0393 -13.8059 -1.67422)
(87.2925 -8.00105 0.615392)
(86.9867 -13.6828 0.702685)
(88.761 -16.6334 1.585)
(89.702 -8.04794 -0.754029)
(88.0853 0.894861 -1.49658)
(86.531 3.3551 -0.589858)
(86.0029 2.32446 -0.325876)
(87.4156 -0.311831 -0.314621)
(88.8618 -5.7679 -0.43746)
(86.3744 -7.27432 0.420983)
(85.646 -7.79974 0.289878)
(85.4316 -6.89505 0.0191227)
(84.8292 -7.29975 0.0233546)
(83.879 -6.20478 -0.127531)
(223.639 31.6406 59.8588)
(135.682 23.0652 -20.0542)
(162.594 23.6202 -18.5703)
(82.5076 -8.75138 -8.30768)
(111.336 -10.3007 -6.6711)
(86.322 -12.213 -6.0939)
(97.2719 -14.0701 -4.17297)
(95.4801 -19.3592 -3.1043)
(94.1804 -19.3599 4.4466)
(91.4636 -2.9407 0.859007)
(93.0501 0.553668 -0.934932)
(92.2812 3.59217 -0.323996)
(92.1525 2.99675 -0.270222)
(92.7172 -0.892605 -0.252875)
(89.9024 -5.93374 0.218667)
(84.886 -6.94604 0.557723)
(84.175 -7.07142 0.0166718)
(83.7566 -6.85933 -0.296739)
(83.2989 -7.45083 -0.198373)
(82.6576 -6.67944 -0.204406)
(51.0544 202.307 35.4713)
(-80.4423 4.23712 -10.0885)
(138.827 18.6566 -11.3614)
(51.2713 -4.11734 -5.18075)
(113.308 3.11786 -1.15721)
(83.0519 -14.9824 -4.13024)
(103.165 -21.2909 -2.3033)
(93.3443 -19.0178 3.84376)
(88.6914 -11.8706 6.92434)
(85.5147 -1.87725 1.48206)
(85.5738 1.93178 -0.286124)
(86.2293 3.10319 0.033678)
(88.2138 1.77903 0.364571)
(89.8088 -1.38245 0.584775)
(87.4738 -5.38258 1.05488)
(84.395 -5.33402 0.315256)
(84.0339 -6.68044 -0.23028)
(83.6271 -6.57844 -0.500233)
(83.3978 -7.93064 -0.332098)
(82.6668 -6.9809 -0.330485)
(222.129 191.209 105.405)
(3.14097 -20.7535 6.31254)
(170 -12.2277 -7.17314)
(59.9994 -7.05709 -5.00934)
(127.846 9.15432 -1.1566)
(66.3584 -32.7789 1.41952)
(96.0313 -1.24431 3.57598)
(65.7314 -5.35718 7.44058)
(78.2521 -0.450158 3.77816)
(70.7922 -1.23375 0.873991)
(78.2015 0.132298 0.055037)
(77.6703 -0.653545 0.541136)
(83.5147 -1.60284 0.994811)
(84.3262 -3.51067 1.14595)
(84.5758 -5.18888 0.494203)
(84.7457 -5.3851 -0.0242537)
(84.5476 -6.72911 -0.381922)
(84.7513 -7.12584 -0.640161)
(84.5346 -8.52418 -0.361939)
(83.5924 -7.46549 -0.415597)
(80.747 -309.878 -72.1304)
(-11.1149 -34.9733 36.6063)
(139.167 -25.6008 -5.44103)