/*--------------------------------*- C++ -*----------------------------------*\
  =========                 |
  \\      /  F ield         | OpenFOAM: The Open Source CFD Toolbox
   \\    /   O peration     | Website:  https://openfoam.org
    \\  /    A nd           | Version:  10
     \\/     M anipulation  |
\*---------------------------------------------------------------------------*/
FoamFile
{
    format      ascii;
    class       volScalarField;
    location    "1.2";
    object      omega_0;
}
// * * * * * * * * * * * * * * * * * * * * * * * * * * * * * * * * * * * * * //

dimensions      [0 0 -1 0 0 0 0];

internalField   nonuniform List<scalar> 
12920
(
174.641
118.246
119.663
108.335
96.3271
85.8565
74.8372
65.5597
58.8908
56.9054
56.4705
56.8004
56.6097
55.6756
53.6396
47.2259
36.1791
29.0948
22.6318
13.5035
40.2572
115.826
151.719
147.222
123.35
104.687
86.3338
70.3732
57.325
49.4978
45.5974
43.2304
42.0731
42.3871
42.3582
39.5471
29.8023
21.3665
15.5089
8.94551
193.229
248.619
182.259
157.112
126.938
112.08
91.2494
76.7774
61.391
47.6096
38.0527
33.3159
30.9236
28.6006
24.7099
18.9381
13.6032
9.40743
6.41641
3.23873
209.563
252.856
182.126
150.554
116.915
94.0224
70.3398
62.8872
53.6877
43.0419
31.5553
22.9579
16.8107
12.4291
8.84463
5.96336
4.13491
2.74231
1.77811
0.823643
242.387
231.48
158.673
106.139
100.145
74.5776
49.3207
37.4311
28.9834
25.1396
16.6927
10.8875
6.42118
3.91532
2.29915
1.38613
0.925232
0.609596
0.402662
0.2231
339.011
288.975
244.789
137.801
110.699
85.8096
61.5611
35.147
17.194
11.2691
6.13174
3.67974
1.74895
0.885856
0.445799
0.279716
0.21792
0.181392
0.163499
0.15355
225.679
249.68
191.635
130.841
114.829
91.6247
76.9237
40.7075
12.0472
4.46476
2.62402
1.89701
1.6224
0.783615
0.445516
0.219568
0.166117
0.15566
0.152666
0.151343
172.8
250.86
205.8
164.457
138.516
110.295
160.577
97.3942
20.6154
3.98528
9.96508
16.651
12.5701
6.63867
2.50487
0.854653
0.322416
0.191105
0.161259
0.15095
58.7576
192.987
234.411
216.437
174.762
242.353
283.655
146.857
63.9287
12.8059
24.0011
53.7067
53.0016
51.1596
16.1882
2.62521
0.859239
0.297677
0.161952
0.141893
461.592
375.852
306.987
265.654
219.168
316.656
391.397
233.115
99.2829
26.3662
24.0199
52.1895
62.1354
74.1149
27.5625
4.47416
1.62848
0.553676
0.217204
0.144587
225.648
226.016
229.831
222.119
192.203
284.684
325.537
176.209
114.18
90.4268
43.3178
34.0244
57.0859
83.9352
22.2005
2.85195
1.04857
0.390192
0.186039
0.1421
222.395
184.108
179.299
176.257
159.511
240.082
312.153
192.676
147.491
90.4509
74.2718
68.4486
59.3899
93.7446
22.7622
2.04746
0.700587
0.294783
0.17866
0.149258
395.369
261.706
222.174
190.111
149.596
116.494
166.111
122.604
103.288
92.329
73.318
52.265
51.8997
27.7209
16.8405
8.50866
3.68053
1.53283
0.612135
0.260928
300.073
271.946
231.591
181.272
141.392
110.766
89.9195
73.6386
61.8134
53.6376
49.0919
46.4065
44.6657
42.5598
36.9579
24.7717
13.5142
6.43668
2.75426
1.03465
111.457
218.71
202.719
134.972
103.413
82.9789
73.1838
64.3385
58.1367
50.1823
48.042
45.6025
41.7658
36.2616
29.7501
20.8065
12.5572
6.76145
3.25074
1.34477
254.163
255.979
171.868
116.422
96.3027
85.0919
75.8737
64.8856
54.438
39.6315
31.7756
25.7449
24.3393
23.793
23.3306
20.0048
14.2306
9.57697
5.82778
2.74028
285.885
290.286
214.894
176.54
147.715
115.415
88.374
66.559
49.4301
32.994
22.1615
16.4221
15.4713
15.8893
17.0909
16.8366
14.0857
9.4135
5.45079
2.42324
168.426
260.659
258.168
243.52
200.329
156.354
116.185
87.842
71.4553
58.7954
46.2319
34.0765
24.5953
18.3912
14.9335
11.8999
8.62615
5.01217
2.4141
0.944428
174.61
234.186
233.954
197.282
137.385
104.501
80.8744
63.8206
54.0914
46.5862
38.0882
27.7615
18.7225
11.6341
7.12174
4.19781
2.33321
1.13017
0.520012
0.238129
86.0176
195.065
189.094
140.169
102.727
83.4754
70.32
58.5799
46.7518
35.3244
25.2179
16.1819
9.39585
4.94654
2.43501
1.13202
0.532306
0.26741
0.177389
0.155007
64.4327
66.2464
69.3264
57.7898
50.0745
45.2783
41.5962
38.8111
36.2053
34.3517
32.8301
31.2019
29.3924
27.1341
25.9679
25.4434
24.0203
20.7775
16.0328
8.95935
201.973
162.232
126.147
89.5713
70.7736
58.1506
49.0215
39.0532
32.1104
30.7339
30.7346
31.7847
31.6863
32.7046
34.3601
33.0631
24.3622
15.6913
11.7318
6.64889
393.908
221.794
93.1735
78.0519
62.6295
55.7808
48.4755
41.9933
35.0924
30.5085
27.0947
26.1081
23.987
22.4303
19.0167
14.2274
10.4402
7.80764
6.04414
4.56609
257.703
148.765
89.574
73.2251
59.7118
52.0926
41.3219
36.9379
34.3794
31.0736
24.4782
18.1103
12.5049
9.08079
6.95847
5.78167
5.30248
4.96207
4.7742
4.69643
192.291
140.176
90.4009
63.503
48.7226
40.85
33.3299
27.0433
22.9854
20.8622
15.4906
11.2752
8.20748
6.56003
5.78044
5.38983
5.16209
5.02861
4.99478
5.01537
311.171
245.734
157.403
79.7034
55.5641
44.3827
39.5646
25.5332
18.3966
14.2904
11.5886
8.70449
6.94316
5.80836
5.34852
5.21336
5.20831
5.18535
5.19602
5.16789
200.216
149.96
97.6052
68.9792
61.9658
51.1646
50.7876
30.7842
21.9143
14.185
12.4785
9.89019
9.77045
8.60712
7.39546
6.55517
6.02423
5.61913
5.42345
5.22385
335.486
151.83
105.609
84.0278
77.4517
70.6483
65.9917
72.3204
31.0169
19.6554
14.9747
16.1091
15.9484
15.8938
10.721
7.98328
6.85515
6.15355
5.73772
5.35534
335.277
202.333
126.795
106.148
101.038
106.977
103.483
71.9
39.6295
41.3775
32.7332
32.5393
27.7834
27.4579
21.2948
8.66002
5.98472
5.31489
5.05767
5.00612
211.719
241.17
198.847
184.229
152.522
152.014
133.661
124.538
53.8857
40.6416
39.4342
41.1935
35.946
42.0139
24.9845
11.8323
6.91127
5.40459
4.9434
4.89577
279.124
204.666
169.29
160.754
140.166
140.984
129.097
78.5274
63.4248
64.8772
33.9272
33.6973
35.4656
32.0015
19.7721
11.315
7.33671
5.60823
4.98435
4.88916
213.938
172.141
125.167
109.832
104.23
115.415
114.039
72.3655
49.8526
38.1758
31.8809
31.7301
52.5565
40.2633
16.1787
8.53159
6.80983
5.82351
5.31019
5.10251
263.414
132.302
112.803
90.3433
69.3553
55.5543
58.2904
57.0524
50.5935
43.3017
42.298
42.2012
36.0951
23.2394
16.0696
9.38531
6.97113
6.01956
5.58916
5.27152
128.965
145.395
120.844
92.6193
71.6413
58.2196
53.1951
50.6749
47.6753
45.0076
42.5921
41.1731
40.2641
39.0351
35.7371
23.8345
12.3648
7.48817
5.70624
5.04899
264.332
176.799
116.975
84.1263
63.061
52.3986
50.3424
46.0123
44.3973
42.0058
41.5617
40.9864
40.3315
37.6584
29.1831
20.1122
14.3079
9.96184
6.67523
5.08349
339.212
165.639
87.3674
80.1415
64.9245
54.9961
48.0402
39.8667
36.9289
31.0932
29.0133
24.786
23.1262
20.7743
20.1058
19.3511
17.536
12.8949
7.46448
4.72151
660.385
207.009
105.159
100.892
84.9136
74.5
50.7056
38.9483
29.447
24.3604
20.6687
17.7111
16.4171
16.7936
18.2023
18.1697
16.2774
10.3101
5.60925
4.13992
190.058
169.872
132.711
120.186
111.006
97.2905
67.2286
55.9428
44.9599
40.7404
32.0456
27.2763
21.5
17.3209
14.2627
10.9098
7.33593
4.90917
4.19174
4.34982
193.425
145.263
137.793
123.15
81.0812
60.2949
50.3083
49.7815
45.2191
40.0828
30.4209
20.7955
12.6959
8.01611
6.08603
5.24462
4.93285
4.86103
4.8899
4.95759
21.3616
69.9918
84.3693
77.1796
58.142
45.7032
37.3553
29.5668
21.6151
14.8645
9.6714
5.68831
3.07659
1.52726
0.711499
0.323116
0.152745
0.0841377
0.0625597
0.0578003
77.4043
79.6107
77.4433
62.6885
55.4734
50.809
46.94
43.0302
39.643
37.2599
34.7369
31.8536
29.0479
25.8914
23.224
22.3067
22.3247
21.9335
19.8101
11.6293
312.328
212.488
111.849
70.7047
55.3487
47.1916
40.9836
37.22
34.112
33.1273
31.1813
29.5193
26.0334
21.0477
18.6389
18.3093
17.0281
15.4229
12.1009
5.87955
758.469
424.386
120.349
61.4613
52.6877
46.1193
41.2156
37.5086
33.1574
29.8099
24.9578
20.1332
16.7655
14.6433
12.1588
9.92908
8.65376
7.49724
5.89158
4.76468
311.917
166.704
91.4428
60.263
48.5373
42.4269
36.2737
34.7326
31.9262
29.7171
23.4137
16.5527
11.4944
8.96866
7.43429
6.46594
5.94648
5.52643
5.26925
5.13496
329.327
149.711
79.4639
53.9417
44.4647
35.058
32.3037
27.356
23.8841
20.4884
15.8244
12.1609
9.50284
7.85836
6.8107
6.11685
5.71381
5.4227
5.32475
5.20474
252.514
129.957
95.151
59.1391
49.2933
35.2432
35.0867
27.3341
23.5211
19.2842
14.3896
10.8317
8.76132
7.32266
6.47645
5.94289
5.65786
5.4406
5.36502
5.22698
191.077
158.454
96.6895
63.1264
55.4553
42.5477
42.7807
32.2311
29.3006
19.9815
13.6318
10.6665
10.115
8.95367
7.94735
6.97147
6.23321
5.7282
5.50193
5.26333
185.832
168.72
100.988
73.0773
63.0422
54.3767
51.3584
45.3497
38.5084
21.4214
20.4707
18.016
13.2477
13.0339
10.3753
9.07851
7.80589
6.72138
6.03764
5.477
208.982
157.981
109.033
84.0247
70.7329
71.807
69.7375
64.577
37.4586
41.0582
35.7465
34.0502
24.7223
27.7713
19.244
9.30127
8.76918
8.26271
7.45707
6.03952
203.659
156.228
119.806
108.111
87.7826
89.1635
92.2791
108
39.1066
46.0649
40.7328
45.8019
36.9476
30.54
21.1444
11.301
9.38518
8.52367
7.62829
6.02508
174.8
154.274
120.211
104.107
83.5491
82.3623
73.6572
61.8352
53.5246
41.4954
41.3204
51.1235
39.2967
32.1027
19.35
12.96
10.2506
8.97704
8.00499
6.28228
296.679
178.151
105.449
84.1718
69.3589
70.6685
65.8028
48.1033
37.9831
32.5577
33.2294
31.5524
35.6961
34.7579
16.5375
10.2333
9.39204
8.40604
7.56283
6.15052
358.5
155.665
102.276
76.3702
57.2802
47.0809
45.9598
45.1411
41.8159
36.7679
34.232
34.2291
34.7387
21.5873
12.6788
8.94632
7.19437
6.2432
5.77568
5.36898
106.245
123.382
107.379
76.6455
58.3942
48.9989
44.403
43.2326
41.4925
40.0599
38.907
39.1281
38.937
38.0192
32.9168
19.0384
10.7443
7.42463
6.1638
5.43989
130.723
129.459
88.7902
62.9537
51.8958
43.7508
43.067
41.4599
40.2524
38.8832
37.5
35.9802
34.614
30.9206
23.134
17.032
13.3685
10.104
7.70991
5.92309
301.873
171.484
72.7694
59.5701
51.1978
40.7362
39.3576
36.1331
35.4071
32.9601
30.9407
26.1826
22.8518
18.8594
16.8211
16.0824
15.4319
13.2774
9.64383
6.49373
316.023
150.477
89.9002
78.2302
56.2218
41.5688
34.2256
28.2348
28.1442
26.0541
23.8784
18.4048
14.5799
12.0715
11.9486
12.241
11.5158
8.51754
6.28801
5.28948
270.706
215.285
129.115
92.1982
71.2954
59.3646
40.4127
31.6258
24.1969
19.5124
15.4705
13.0424
11.5318
10.4352
8.98213
7.34522
6.11437
5.42673
5.20354
5.112
139.539
128.155
111.109
90.9412
58.2485
49.092
40.1456
34.3078
28.1101
20.7621
14.272
9.32392
7.32912
6.37824
6.11662
5.80133
5.55972
5.32082
5.19754
5.06562
74.1189
86.6089
89.2951
81.1353
61.0625
45.4959
35.6222
27.22
20.0977
13.6051
8.50807
4.98643
2.75771
1.40625
0.663212
0.300164
0.139302
0.0781911
0.0606954
0.0574487
98.5541
95.5691
89.4312
67.6447
57.5304
51.7618
47.4011
43.3216
40.6708
39.2932
37.1687
34.7653
31.8227
27.9728
24.1631
22.1085
21.9315
21.7612
20.5719
13.5219
189.242
151.466
98.652
62.3496
55.4553
47.033
45.4006
43.2835
42.962
42.6669
42.7804
42.1519
40.8302
37.1235
30.0817
26.3648
26.232
26.5138
24.1794
14.3998
273.816
201.755
81.0894
58.0946
55.4706
45.1801
44.5458
40.9994
39.6414
38.4239
37.3487
34.0719
30.5696
26.1257
22.1107
21.3792
22.3578
22.472
19.2481
11.5772
389.795
139.072
80.8099
58.0412
51.8136
42.7749
41.5923
39.2008
36.8112
34.2876
29.2215
23.7287
18.8405
15.4826
13.4619
13.0278
12.9687
12.0287
10.1723
8.21491
191.448
124.479
79.3375
55.0881
49.5253
37.8986
39.2764
32.7218
31.5946
27.9135
24.2929
19.1436
14.5244
11.6558
10.2388
9.71619
9.32968
8.46465
7.83714
7.36758
323.176
119.439
84.7424
57.2707
52.8602
37.9411
43.2363
35.9848
34.7248
31.5742
24.5168
18.0013
12.7971
9.65889
8.08904
7.36038
7.02065
6.81456
6.72039
6.75068
271.881
194.083
108.435
63.6078
57.9561
43.0493
45.3224
38.0184
36.1139
31.349
19.5979
12.9875
13.0753
11.7598
11.4065
9.85659
8.33481
7.40572
7.0087
6.88951
293.163
199.758
101.58
68.0062
60.7087
49.6523
47.276
48.0898
40.6113
30.1643
20.7265
17.5251
14.5273
14.4981
25.2834
23.7382
20.9215
18.4487
15.8972
12.0884
200.857
144.508
107.289
73.3433
59.6374
54.393
51.8688
47.1175
43.1866
46.2846
40.8056
34.4154
17.3492
14.2344
22.9337
29.9925
27.7621
26.6512
25.1587
20.78
267.802
133.752
98.4726
75.6751
62.7989
60.1822
55.8483
52.3232
48.5973
49.7071
51.7799
45.4688
46.121
45.5339
34.9535
32.1238
28.9258
27.6318
26.119
21.8213
293.316
148.48
109.139
77.3601
61.162
55.984
48.3601
44.9702
41.9127
40.9769
41.4793
51.2551
42.9833
48.6249
45.3883
33.9108
29.4683
27.9086
26.4467
22.2942
201.483
140.893
97.7814
68.4827
56.7313
51.846
48.6117
42.4955
42.0705
40.9623
46.4862
46.7807
43.3926
46.6638
36.4333
31.2978
28.4522
26.8767
25.4483
21.4369
209.176
127.117
105.592
72.9513
57.4999
47.0383
45.71
46.3343
44.4293
42.1083
40.8728
42.7038
37.3714
20.7713
20.5096
19.3344
17.7666
15.4749
14.1703
11.417
122.22
128.123
108.759
70.2315
57.9123
48.0788
46.696
45.0983
44.2606
43.2087
41.0842
38.3759
33.1056
27.8407
19.1167
12.1618
9.46943
8.37537
8.00595
7.62704
188.474
134.23
88.1335
59.8702
53.5021
43.3145
45.4056
43.3204
42.355
39.8689
36.6896
30.5089
24.5971
18.6471
14.4897
12.488
10.8578
9.62861
8.86251
8.02228
549.128
173.937
68.6209
55.4469
51.9428
40.4647
42.8943
40.0284
40.7876
38.2714
35.7201
30.4107
26.3293
21.8397
17.4849
13.937
11.9935
10.879
9.94253
8.56284
306.627
130.014
84.1989
64.0833
49.6151
37.6095
39.137
34.5399
37.0003
33.4283
33.3746
30.572
25.6102
17.6026
11.8978
9.45903
8.93822
8.35294
8.03492
7.74144
349.373
182.008
114.523
78.7189
59.5831
42.9634
34.7739
27.4353
25.279
19.6604
18.4909
16.9097
14.9804
11.5923
9.69978
8.56381
8.01859
7.72044
7.68048
7.6181
214.085
118.312
96.079
72.7814
50.79
37.2255
33.7456
29.6558
22.1426
15.2993
10.6806
8.45998
8.45386
8.89699
9.36608
9.24962
8.61262
7.92088
7.62601
7.48639
98.6256
98.5625
93.2361
76.9511
56.968
40.5958
30.9692
23.9391
18.1551
12.7176
8.33309
5.08034
2.86478
1.4544
0.674924
0.306272
0.159175
0.103886
0.0857577
0.0703152
169.371
128.099
101.472
73.4816
58.8135
50.0134
44.7489
41.5795
40.6547
40.4471
40.2027
39.043
36.5761
32.4763
29.7029
28.0773
26.1296
24.1797
20.3797
12.4294
264.873
163.205
123.519
74.5297
78.9665
53.3768
65.5968
51.0333
60.0358
53.6321
59.8221
58.3079
61.7265
60.2018
59.2469
56.8619
58.9162
58.641
55.0428
54.3603
217.514
156.437
85.3647
81.277
69.3571
51.6493
60.2883
46.4575
56.2625
49.8064
56.4433
54.3648
57.2232
55.2526
55.2985
54.3571
55.6909
56.5342
58.5583
59.8496
223.596
156.156
95.9119
72.0791
68.6911
50.9187
59.56
45.4729
53.5987
46.2894
50.2894
47.7489
49.5489
48.4432
47.8399
46.6783
47.9828
50.7144
53.5701
56.4246
241.478
135.307
92.1391
69.4836
65.3983
54.6432
59.7839
41.4357
51.3494
42.5241
47.1155
43.4714
45.5437
44.9322
47.1721
48.155
50.4039
52.033
54.0587
56.5651
180.786
142.483
93.6569
69.5152
70.0438
55.8626
67.6865
44.4111
50.2789
44.0412
43.8909
41.3205
41.4207
42.034
43.2464
45.8444
47.8977
50.4527
51.8458
54.3879
358.668
215.802
127.007
69.3019
73.8551
51.5123
71.6268
46.6615
50.3864
39.9752
36.3966
33.5491
37.118
37.3662
40.8764
42.921
46.9247
49.8557
51.6508
54.4269
302.699
222.312
125.527
72.9472
76.1489
54.2217
57.3954
55.9903
52.124
44.5076
42.7069
39.9678
45.4088
47.132
46.9364
45.1816
45.4125
47.4746
49.0474
52.4361
145.422
145.307
123.472
73.1284
70.6008
55.5147
59.901
59.0762
61.6809
55.4055
53.0092
51.4582
52.6031
53.4968
53.5707
46.3613
44.561
45.0806
46.0744
49.076
181.209
144.147
107.315
74.6566
67.7915
54.2423
55.3759
62.9577
68.9352
65.5382
63.2016
54.2292
55.4828
54.9676
53.6466
47.3013
45.0914
45.4324
46.0878
48.8169
284.358
132.374
113.88
70.813
69.8719
54.9245
53.8728
64.5912
69.9091
71.1456
64.6136
66.2343
66.0613
60.6343
54.9188
47.729
45.4513
45.7451
46.4455
49.1349
196.419
147.638
107.917
70.3737
65.074
54.554
57.9524
62.4949
65.7483
65.8649
68.033
68.8697
69.0185
64.594
56.0698
47.6749
46.1239
46.6639
47.7176
50.6341
379.589
142.226
118.949
71.9741
71.2923
54.352
57.3731
56.9161
60.4171
60.4617
61.8436
59.775
57.019
56.6994
54.1249
51.7801
51.996
53.041
54.3292
56.4317
160.323
162.879
126.379
70.1633
70.7633
53.8076
62.1702
52.3938
60.1455
53.9575
58.5721
52.014
53.1245
49.4562
50.211
54.1134
57.0575
57.3734
57.78
58.9038
198.643
149.561
102.586
73.6884
72.0665
51.5892
64.682
50.0406
58.8708
50.6048
55.906
50.6922
53.1102
52.4616
55.2257
56.0839
56.3844
56.2801
56.5922
58.3798
309.24
177.133
82.9063
88.7564
72.8081
52.3381
62.3542
48.1252
57.1057
48.8744
55.6829
51.8869
55.7447
54.3289
56.7238
56.9978
57.7915
56.8349
56.7222
58.9436
507.85
159.813
93.4753
84.1875
72.1851
54.3018
60.2338
44.5179
54.2658
45.8025
53.6378
50.1398
53.8675
52.0612
53.5588
52.455
52.5842
52.9941
55.503
59.3556
383.804
152.028
119.364
76.3275
73.0679
51.6773
59.4245
47.0193
52.9658
44.7144
49.5189
46.5775
51.4205
50.7165
53.1086
52.7772
54.7023
56.033
58.5704
60.7784
320.565
133.919
103.307
73.6017
73.6154
50.2583
55.0783
40.2367
43.9352
34.1043
34.6794
30.0688
37.2837
40.5704
49.0442
51.1789
55.8699
57.2111
59.2067
60.6636
76.1183
93.8096
87.9906
73.1183
49.8273
33.3392
24.3042
18.4988
14.201
10.4169
7.11176
4.32345
2.36267
1.15141
0.560205
0.37911
0.426026
0.566396
0.812672
0.754856
40.4302
41.3032
46.8253
46.7688
48.4225
40.6304
38.2795
46.5514
45.1195
49.5284
49.2878
50.7532
38.6691
49.3802
41.7033
37.1623
37.7986
41.6167
34.5505
35.0114
36.0594
46.4424
35.4607
33.0505
34.8811
47.3055
37.9051
45.0488
141.469
345.29
196.911
115.659
90.6831
137.318
131.053
104.005
213.746
114.17
70.4314
58.0103
129.139
57.1592
12.777
81.0566
23.9361
46.4664
41.1351
51.2969
41.5167
20.562
28.11
25.9528
36.5959
21.4524
41.7412
42.9968
52.3581
25.0356
55.9036
22.7002
34.4472
44.2654
43.0109
52.3037
55.2926
52.0543
33.6379
28.5628
40.7983
33.9592
56.2272
59.5202
69.8811
27.1321
26.2818
34.2176
39.3512
17.9434
70.2114
54.5827
26.2955
22.4672
38.9224
25.8342
214.303
361.004
212.45
149.538
131.522
150.696
106.949
143.646
187.845
139.609
131.422
70.8889
103.759
78.5161
31.4517
116.44
91.9659
60.954
43.9862
64.7167
61.6572
24.0039
84.5807
37.0572
42.1636
40.3308
59.1498
38.2928
52.624
28.2801
40.481
42.382
44.296
31.2077
33.9196
51.8601
42.4378
45.6924
41.7606
34.8824
34.3825
37.3685
73.8896
58.6983
83.5927
34.1765
36.7495
39.364
37.9693
58.2393
83.3647
57.7651
36.8262
25.4202
33.963
25.3104
199.893
320.976
200.968
143.916
93.5551
141.329
90.9326
131.398
183.482
151.116
86.6994
73.2209
75.9202
57.1218
92.755
132.279
89.6985
65.5132
56.2938
55.4402
50.9408
59.4565
82.6728
79.2724
56.5536
46.7439
46.3994
36.1943
31.9795
79.6735
67.7873
33.6533
28.6513
36.3081
30.4856
45.2067
65.4764
62.8438
30.7429
33.1294
29.4173
48.2578
84.015
61.9232
89.1345
37.1058
39.1937
53.5085
51.1319
58.8194
90.3621
57.3523
34.1729
26.0536
43.8196
30.1598
210.613
314.059
220.259
125.645
94.4994
109.551
87.6562
164.706
206.075
166.241
80.1399
57.6629
81.6098
63.1419
102.482
158.375
134.867
54.4968
45.2226
57.8343
44.5002
74.4634
131.241
120.125
41.8439
33.6144
43.1142
37.2879
67.9572
117.09
84.0692
32.2934
31.3399
37.2278
48.9802
58.7235
76.3811
82.0953
33.1816
58.3608
58.3415
46.8423
92.0976
78.7452
57.519
53.276
42.1415
40.7554
32.0313
57.8861
52.2494
24.9561
41.262
31.2782
28.6321
17.2712
86.2848
120.308
121.614
79.0015
66.824
95.3776
105.12
56.1078
123.824
54.2404
70.2732
33.6045
102.393
48.6291
42.4485
48.9173
40.3708
35.3711
41.7314
40.9632
43.7278
32.3974
40.5951
41.0323
41.1246
34.8522
42.5379
38.8082
34.0735
41.3187
40.6892
34.9985
34.6465
39.2256
43.3778
28.306
39.8914
35.4279
33.2597
25.7047
41.9796
34.4444
28.1647
36.2043
41.114
23.7589
25.8636
33.2295
29.6915
20.7668
40.6004
27.5829
27.4899
27.3828
27.5149
27.0559
120.471
132.631
95.8599
103.348
106.392
91.2244
79.1862
64.5859
93.7612
79.6415
119.972
47.9674
81.72
67.6109
43.1897
68.5472
67.3995
42.0924
43.6733
60.3737
39.6501
38.9471
64.0426
37.9453
44.3119
38.2354
37.5182
42.9804
42.0753
34.3589
34.4603
38.3731
44.6068
40.5295
42.5876
35.5759
36.2914
36.6448
44.3408
38.5489
47.7271
47.5896
42.2625
35.1837
31.0889
37.2494
32.4829
42.5025
36.5973
27.9477
30.5142
24.8782
30.9234
26.4624
34.6677
22.3663
84.3961
132.021
83.1053
87.1106
65.9242
89.5905
57.9007
69.7419
69.3179
52.4774
65.957
61.5775
51.8977
43.5558
62.6098
50.807
45.9588
58.0086
53.9349
42.9498
39.1191
43.7693
41.7298
37.973
43.6495
39.5836
37.672
39.6326
32.2378
40.3297
30.6997
39.9464
43.2767
38.0929
28.7216
35.4764
28.3874
39.3563
47.6186
44.3372
29.4546
29.1015
33.6836
47.6991
46.5151
39.165
32.973
32.0305
35.1556
25.4617
40.2516
29.3235
32.2053
22.2331
34.6386
29.4749
85.6814
93.201
80.1469
76.8636
58.0546
64.8363
57.3078
52.7325
75.3682
57.7982
52.4374
42.0139
54.8611
44.5805
41.4714
52.8582
41.3299
40.3413
35.125
41.6886
35.4103
31.7983
40.0449
34.4508
33.2364
33.2453
34.532
30.4299
31.1753
34.2266
39.3474
34.0406
28.6414
30.1921
32.0046
53.9852
47.274
46.3
28.5287
36.0089
33.5054
37.9972
44.1492
39.9345
31.3212
39.8586
37.0363
38.1358
34.8785
30.6563
28.8327
17.6069
35.6373
31.2319
32.9053
17.4358
61.6216
84.0311
91.5315
54.4426
48.2117
56.9241
54.6471
35.007
86.1862
40.1009
49.4756
42.7895
49.6318
46.485
41.3321
39.7816
44.5017
41.2903
44.4898
47.6418
46.1254
34.9237
42.4035
40.99
44.7104
38.5963
47.3952
48.1552
35.5409
41.676
44.6585
39.2895
36.3174
48.9032
45.9515
27.201
42.3415
34.325
34.5793
24.199
41.2086
39.8995
25.5627
32.8628
31.2171
19.2821
13.4728
41.0956
41.2173
27.2919
29.6656
25.1096
13.4793
11.6134
37.4802
13.9068
99.3634
79.3869
73.3242
62.9368
66.2308
57.0354
54.8725
39.9465
76.8889
59.5356
62.1654
47.0987
56.0877
43.254
48.4658
55.0626
40.6409
49.2524
46.4041
42.9602
42.1215
43.9103
42.1693
49.2079
45.1796
45.439
43.2871
50.8243
41.4806
42.5353
38.3497
43.4784
38.9724
45.333
40.5911
38.6443
52.5799
47.5197
45.8053
42.2345
50.9841
44.346
31.3361
42.6873
36.1055
42.6293
44.2471
41.8832
40.1123
24.4836
32.8132
22.1215
43.5873
19.5209
42.4406
43.6346
61.1309
73.6223
52.0925
52.2648
47.5895
50.186
42.2572
56.3129
47.6551
41.166
47.7138
41.869
40.4072
37.5306
49.0012
40.7183
37.736
41.1728
41.6498
36.9386
35.038
44.4037
40.3704
48.5341
42.6326
44.6913
52.238
45.5682
35.9068
42.149
37.8786
37.3432
40.7651
36.2273
35.5914
44.3368
37.1379
30.6273
49.314
42.4255
44.6602
38.5184
33.2104
30.9533
32.9741
39.4879
37.707
35.8342
35.4454
21.3614
33.5458
29.0929
40.8481
42.8986
38.4911
32.7355
52.4103
58.5991
53.2745
50.0315
43.8493
50.1781
47.0357
39.4199
51.1869
42.3246
41.6098
38.1979
45.9173
41.6366
33.7184
40.0721
34.8901
37.7788
35.6669
40.5791
37.9152
33.3064
34.04
30.2777
35.3734
37.272
37.3689
37.0672
30.6798
29.9472
30.9496
40.6405
44.7488
37.3173
37.1592
32.1189
32.2396
35.9104
44.0858
37.687
36.9879
38.2166
34.9105
36.721
36.2486
36.5129
37.1062
40.6433
39.65
30.731
34.3503
17.1306
38.8193
32.0385
36.328
14.6728
46.702
51.792
48.128
55.1144
53.5218
51.7118
52.9995
43.6218
45.3505
47.1432
53.4541
54.9038
54.2512
59.5766
46.4263
47.5809
48.7737
55.6206
54.1505
60.7574
60.1355
40.3312
50.0193
50.1149
52.2055
48.859
58.6648
56.9315
36.8962
50.6697
45.5752
48.8872
46.9481
56.4736
49.2912
20.6717
41.4899
42.4011
46.8
48.112
48.2456
49.5641
14.8641
43.6349
42.5566
48.3673
49.5849
49.8824
50.2942
11.314
39.5088
23.4568
49.6231
50.4702
50.4883
51.2326
56.2038
51.9107
49.8904
51.4467
53.6842
49.9132
54.4348
47.5992
50.0579
43.846
55.3807
60.3285
57.0375
60.8813
48.3243
43.6572
42.5414
61.2456
61.1142
61.0606
62.4578
50.9407
42.5072
45.0247
60.146
59.3713
62.102
60.2277
50.4329
45.5149
53.4392
59.2025
51.2104
60.0601
59.1128
45.076
52.8485
46.404
50.0262
51.9426
59.5888
59.5144
46.9354
44.9502
48.0881
52.222
51.1409
59.9541
58.5174
30.9734
49.1533
45.568
50.8985
51.2294
56.3635
52.3366
44.9274
47.2726
42.1409
49.1382
54.3125
50.4741
54.1576
42.4972
41.1421
40.7582
56.7865
60.9046
55.6142
59.8253
41.4195
40.5802
38.3052
60.9427
62.5434
60.4056
60.3006
40.0435
38.0915
41.4879
62.4181
60.7119
60.1525
59.6326
51.3106
45.2094
48.026
59.6377
59.8905
59.7657
61.7699
44.8827
47.5625
42.8246
60.6551
60.3301
61.6409
61.7476
46.3023
41.712
44.1296
60.882
60.1169
63.1801
63.7534
45.6046
47.4117
41.3186
57.9294
52.8788
62.0049
54.266
43.928
49.5901
47.3234
53.0887
55.0704
55.0661
55.7447
41.9585
46.5241
43.4567
55.8369
58.4421
55.6005
55.0522
40.9118
42.5611
40.8227
58.9576
59.151
55.3568
56.2646
44.7861
40.768
41.3767
59.165
59.8677
56.3805
57.0778
47.5254
41.5401
41.4851
60.4944
61.9452
57.4088
58.4689
43.4405
41.5427
43.7907
61.4745
62.5876
58.8257
58.0625
44.9005
45.3511
41.095
63.7356
63.7945
57.255
54.7584
38.9967
37.153
15.911
62.2735
54.4962
54.2535
52.4196
59.304
56.244
59.9349
82.0622
79.7353
78.4666
86.7904
61.1876
61.8471
67.3747
80.9837
88.0265
89.8143
95.9611
57.81
68.0987
65.2727
87.0639
75.3721
95.0358
89.1769
52.9358
63.2097
61.0182
73.7963
72.6236
87.6508
83.2081
51.6169
60.0981
53.6755
72.678
71.2233
81.1564
76.1903
52.2739
53.0277
53.7862
71.0916
70.7414
75.1355
72.7372
53.4153
54.0088
54.4995
70.9989
70.8597
72.3914
72.3411
53.7539
54.6979
54.639
71.0159
70.0814
72.4592
71.4467
60.5858
54.0064
61.7778
76.0579
88.6192
75.678
91.3228
68.3321
64.6287
69.448
91.7816
97.6964
94.0707
99.9851
67.1087
69.9783
71.114
97.4392
95.2488
102.232
111.149
64.1752
70.4097
66.4328
94.4916
90.3859
113.312
109.76
54.8661
64.887
62.7544
86.7301
78.4499
103.596
89.7255
55.3889
63.9121
64.3006
76.9495
73.6422
87.0883
81.1593
54.9813
64.2059
60.8189
72.9704
72.6091
79.2333
75.4151
54.7164
58.9729
55.6372
72.6966
71.4249
74.8094
72.3211
61.8283
55.4626
60.9864
76.2561
91.3355
78.0934
89.3383
69.488
62.8115
67.005
93.6586
99.3474
90.5103
92.9744
71.5286
67.4608
67.1994
101.636
112.591
93.6038
98.2448
66.6411
66.9645
66.7628
115.246
110.632
99.8499
102.184
64.799
67.2118
69.4221
105.54
94.7022
102.323
99.3627
66.1345
69.0903
68.428
91.894
84.2989
96.5364
87.2373
62.7329
68.9044
66.5463
81.9729
77.1548
85.2511
80.8722
56.2019
64.3016
57.7215
76.1895
72.9667
79.7165
75.2875
61.4796
59.9228
60.7184
78.9094
88.7584
81.3223
82.7945
65.2392
60.3599
60.5113
89.1951
90.6208
80.9691
84.5158
65.8581
61.3866
62.6579
90.8261
93.6926
86.3959
86.2549
67.1029
62.6449
64.0059
94.8359
98.7969
84.9065
90.4988
69.5223
64.8319
65.4967
99.6879
97.3297
91.0044
87.1077
68.7404
65.0088
62.798
94.663
86.7185
84.5395
83.073
66.7062
62.3669
60.1991
85.1512
81.0996
82.244
79.8179
57.963
59.6266
58.0406
80.0621
76.1376
79.1173
77.5119
41.1521
40.737
38.5825
42.9967
40.4611
43.0131
40.5683
48.8904
46.3185
48.0525
48.9595
49.4645
53.3317
47.0413
40.8523
38.5969
49.7105
59.5717
44.644
37.3994
59.9381
43.4782
45.0935
47.9243
45.2668
45.2948
46.3734
45.7655
43.4365
45.7049
48.1925
46.9871
45.549
43.4998
46.7756
41.6608
44.7775
42.5447
38.4676
48.0702
47.9994
42.3002
38.9668
70.7648
43.2743
38.1998
38.6809
67.8166
42.9856
45.7268
45.3248
47.5248
48.3926
42.166
47.7654
50.7075
37.5743
36.1772
46.5218
61.2034
36.1496
36.7957
65.3347
43.5859
45.7186
46.4246
53.1294
37.9722
51.6336
47.9086
44.9459
46.4457
50.7777
47.4472
48.1408
43.7526
48.9653
49.9271
49.9585
52.1768
53.6474
50.1974
52.6208
53.4156
40.9755
73.7293
43.5685
40.2477
39.0472
79.2086
44.6009
48.8815
54.5603
53.4741
44.6835
53.4443
60.511
49.5118
40.4806
41.4235
37.1439
42.3393
38.9346
48.7255
36.5238
42.1662
44.5655
37.7069
36.4072
44.1983
42.6697
36.9532
40.2483
38.9203
38.5161
36.0654
42.3481
36.4072
37.1337
42.9957
42.3077
39.451
40.5199
51.4923
42.7065
39.7522
40.6846
45.6334
35.1962
33.7328
48.6256
34.9755
37.1875
40.3059
35.3359
38.7563
35.2789
40.6441
35.8378
38.5189
38.5812
34.9959
35.911
35.5889
35.258
35.795
37.2019
36.7532
42.7374
44.1325
49.3469
44.5741
36.5516
39.4189
35.0129
34.8193
32.1179
33.8923
34.4222
34.4613
33.2404
39.2736
39.9893
30.9537
40.6035
35.4351
42.234
35.5761
32.3853
45.726
36.1186
33.5762
48.1762
32.5043
36.1628
34.1143
51.0476
40.5476
45.568
50.0485
40.102
42.2084
36.2263
34.7869
36.4831
42.5919
34.8137
36.3817
39.7257
40.5813
42.6726
45.0357
44.8418
42.256
41.6024
43.4899
127.426
149.013
120.745
89.4935
77.0859
101.476
83.7282
55.6375
103.042
64.9293
77.0133
51.8312
71.837
56.8957
8.13771
28.3156
7.85137
27.0654
14.6768
31.7548
21.2484
4.81251
4.65271
6.92838
8.36536
5.9936
15.5443
12.9906
17.0852
14.1906
24.275
10.3372
16.3934
19.0225
26.8389
14.8703
26.8049
26.7615
16.8428
16.5973
27.0815
24.7645
10.4947
26.0452
23.3569
16.4145
17.3816
23.2761
23.3896
3.56595
17.942
12.6946
17.0558
15.1882
24.188
25.4577
185.507
266.296
223.337
148.63
128.423
160.492
149.033
170.462
209.951
278.482
172.472
156.262
179.42
223.855
65.9588
145.066
156.948
74.6522
64.6321
80.9543
150.748
36.8981
30.1895
66.1205
57.7245
31.4609
60.9267
33.0945
29.8488
13.9726
21.5118
16.4254
17.2456
31.6461
21.9149
35.148
34.8538
23.6886
33.5829
40.2709
30.2111
35.3912
36.2281
53.6687
56.9274
38.9025
39.8889
36.3431
55.7512
41.0978
55.6378
54.0938
40.3251
40.1987
41.0083
57.6219
49.8458
38.409
61.9009
45.9775
48.6694
48.3151
59.6031
8.15438
24.1303
13.884
25.966
17.8041
26.7589
23.4511
253.078
314.191
242.546
202.231
170.084
203.294
171.13
230.631
323.881
389.955
239.892
235.793
237.437
326.55
164.498
240.585
222.792
205.074
150.935
216.693
239.204
67.0068
66.5222
119.79
69.4463
53.7825
70.9269
88.3941
31.8412
27.343
34.7828
32.6522
35.3164
36.7193
28.8765
32.4665
32.72
21.6604
34.8871
38.5916
29.7986
25.9478
48.728
48.2787
49.5206
45.2029
46.5264
46.9961
47.5998
84.1978
69.4643
62.2951
66.693
76.0498
75.4097
73.169
62.0107
72.9667
77.2505
77.4715
62.5172
79.6996
74.9865
16.6608
26.1263
16.5387
26.0337
24.0623
24.1649
23.2051
218.441
276.71
213.397
181.447
157.48
180.473
154.479
174.501
270.27
324.138
205.405
177.185
201.619
268.857
113.525
161.665
175.758
143.455
129.972
120.14
159.862
85.905
101.725
115.599
79.6118
70.8171
91.7548
103.393
48.6767
86.4301
87.8564
54.5042
50.8637
53.8433
85.9727
33.245
32.8202
70.5261
32.8997
30.3069
36.9376
54.0853
28.2149
35.1424
36.2594
34.9513
33.0932
29.0435
36.8965
73.0027
70.109
58.2549
56.6753
75.5616
58.2565
67.7744
46.7033
81.8428
84.3367
55.3896
46.8894
54.9252
82.5461
12.3099
22.4543
10.2887
20.1324
21.0191
17.3686
13.0724
198.887
230.79
194.763
152.054
135.74
144.627
120.736
169.038
267.564
312.966
191.134
174.931
187.428
270.792
99.2154
182.612
197.288
108.373
95.4641
111.426
184.512
74.3274
131.206
154.061
82.6147
79.5967
79.8926
140.664
58.3764
82.2539
113.65
63.0007
58.3225
61.9683
96.4031
46.406
73.4019
71.3349
46.6689
40.9973
47.0288
69.7926
67.634
67.6015
71.7624
51.4655
63.3546
68.4538
64.5601
47.2382
67.9075
59.6526
54.9481
50.4732
51.2145
65.3283
41.5983
92.3135
92.3637
45.0861
44.6029
41.2063
90.7977
9.71377
15.9708
8.39004
15.5242
10.8246
12.2137
7.87388
137.448
168.362
132.783
97.0851
81.6689
87.7605
73.3902
112.667
111.602
104.733
71.9015
66.7575
67.322
66.1242
96.2948
97.5264
89.4501
63.077
57.1315
64.8384
61.3469
87.1204
80.8943