/*--------------------------------*- C++ -*----------------------------------*\
  =========                 |
  \\      /  F ield         | OpenFOAM: The Open Source CFD Toolbox
   \\    /   O peration     | Website:  https://openfoam.org
    \\  /    A nd           | Version:  10
     \\/     M anipulation  |
\*---------------------------------------------------------------------------*/
FoamFile
{
    format      ascii;
    class       volScalarField;
    location    "1.2";
    object      p;
}
// * * * * * * * * * * * * * * * * * * * * * * * * * * * * * * * * * * * * * //

dimensions      [0 2 -2 0 0 0 0];

internalField   nonuniform List<scalar> 
12920
(
-1.60642e+06
-1.44006e+06
-1.2772e+06
-1.10367e+06
-993315
-841663
-751672
-645531
-571521
-492031
-431017
-369648
-319134
-270164
-227802
-187143
-149935
-114254
-78191.6
-37719.7
-1.9825e+06
-1.51629e+06
-1.33192e+06
-1.11015e+06
-984229
-834706
-740353
-636622
-562347
-484959
-424815
-364706
-315001
-267176
-225258
-184959
-148088
-113245
-77880.3
-37349
-1.79889e+06
-1.41872e+06
-1.20981e+06
-1.03893e+06
-937767
-800307
-715898
-615458
-545976
-470627
-412804
-354378
-306342
-259442
-218574
-179485
-144226
-110645
-76723.9
-36838.3
-1.79742e+06
-1.38222e+06
-1.21382e+06
-997849
-892969
-763509
-678621
-587281
-520742
-451496
-395343
-339951
-293274
-249098
-210029
-172880
-139234
-107498
-75101
-36056.5
-1.32071e+06
-1.16221e+06
-1.04006e+06
-891057
-820540
-707302
-634404
-550012
-490917
-426358
-373799
-320615
-276554
-234642
-198365
-163496
-132484
-102823
-72700.7
-35293.9
-1.35837e+06
-1.06575e+06
-963155
-815758
-741919
-646427
-580197
-509121
-453583
-396933
-344758
-296937
-254463
-217230
-183822
-152955
-124733
-97965
-70027.9
-34429.3
-1.12348e+06
-956187
-819423
-718339
-659802
-576899
-527968
-464305
-418930
-363881
-312736
-267185
-231479
-198145
-169290
-141170
-116103
-92037.4
-67017
-33457.4
-730717
-750208
-701514
-612348
-570092
-499153
-485275
-435838
-396645
-344935
-297990
-256023
-223170
-192923
-154768
-129857
-107144
-86065.6
-63637
-32541.4
-666449
-589107
-576977
-504781
-477850
-449404
-428013
-385783
-352802
-313273
-275216
-239414
-208140
-180060
-149250
-118093
-98347.4
-79971.5
-60534.5
-31535.1
-427759
-348920
-400018
-361576
-369060
-359969
-349317
-322285
-294745
-268324
-241087
-211724
-185499
-161020
-133873
-106258
-89429.4
-74104.8
-57123.2
-30468.3
-530636
-280324
-334927
-284380
-287858
-279405
-271360
-256000
-238388
-220415
-201768
-181761
-161175
-141221
-118300
-94579.7
-80847.8
-68400.7
-53975.3
-29455.9
125132
-11676.4
-103593
-119566
-173664
-182689
-197805
-191727
-182788
-173208
-162072
-148849
-135579
-120656
-101968
-83235.9
-72583.8
-62833
-50874.8
-28456.5
107964
40659.6
-107188
-66177.4
-111470
-99901.5
-125496
-123777
-123354
-121650
-118819
-113771
-106325
-98219.4
-83524
-73569.6
-65598
-58089.1
-48058.6
-27578.1
175584
101774
920.403
18029.4
-29933.6
-26251.9
-55050.8
-54849.4
-68735.2
-71372.6
-78962.8
-78931
-80156.3
-75518.6
-70637.2
-64096.8
-58604.9
-53423
-45345.7
-26815.5
178944
199165
83693.7
88975.2
39341.9
38795.9
1572.5
-6688.94
-29117.7
-38771.9
-51259.2
-56237.7
-61320.2
-61197.1
-60077.6
-56124.2
-52950.9
-49387
-43076.2
-26244.9
434669
305866
155142
168154
94604
90862.4
40939.3
31236.6
1777.35
-11191.6
-28187.2
-36849.4
-45439.6
-47837.3
-49824.1
-48439.3
-47511.8
-45653.8
-40916.8
-25748.9
453075
447557
227289
241542
148852
130724
79603.2
65686.4
30576.5
14202
-7385.84
-18368.1
-29846.9
-35555.3
-40586.1
-41746.8
-42738.4
-42412.8
-39245.8
-25254.7
780212
510492
256232
264451
171983
151478
101763
84185.3
48308.3
29442.5
5446.37
-7334.96
-20683.5
-27730.5
-34160.7
-36519.8
-38785.1
-39932.1
-38125.3
-24758.4
314718
412460
239179
261134
188585
168323
116558
96100.5
58941.6
39410.3
14401.7
779.179
-13826
-21878.5
-29511.1
-32849.8
-36176.4
-38389
-37477.3
-24352.4
28011.2
311068
200838
247224
184277
169189
121007
99788.2
63652.3
43507.6
18647.1
4426.75
-10551.7
-19167.8
-27259.8
-31156.1
-34885.1
-37559.3
-37074.2
-24209.7
-1.68114e+06
-1.44648e+06
-1.27217e+06
-1.10374e+06
-992751
-841319
-751521
-645417
-571464
-492068
-431077
-369743
-319219
-270182
-227807
-187210
-150117
-114325
-78083.1
-37825.9
-2.00305e+06
-1.51484e+06
-1.33215e+06
-1.10962e+06
-984266
-834622
-740298
-636582
-562494
-484994
-424788
-364787
-315034
-267208
-225359
-185086
-148216
-113551
-77986.8
-37324.6
-1.83155e+06
-1.4064e+06
-1.21079e+06
-1.04093e+06
-937655
-799697
-715512
-615140
-545686
-470303
-412553
-354289
-306329
-259504
-218481
-179484
-144179
-110678
-76776.3
-36770
-1.7365e+06
-1.37707e+06
-1.21093e+06
-997516
-893497
-762993
-678110
-586812
-520419
-451390
-395280
-339861
-293218
-249063
-210047
-172818
-139183
-107508
-75105.8
-36042.4
-1.2898e+06
-1.14908e+06
-1.038e+06
-891579
-821598
-707174
-633613
-549753
-490754
-426255
-373716
-320523
-276347
-234489
-198245
-163397
-132461
-102818
-72697.7
-35300.2
-1.32788e+06
-1.07708e+06
-954604
-812770
-743316
-646255
-579759
-508412
-453312
-396778
-344885
-296858
-254572
-217110
-183918
-152906
-124720
-97957.3
-70018.6
-34436.3
-1.08985e+06
-960303
-822492
-718087
-660053
-577487
-528079
-464932
-418215
-363316
-313057
-267118
-231359
-198112
-169114
-141149
-116031
-92014.3
-66998.9
-33459.9
-909434
-775037
-702734
-612356
-569896
-499514
-485864
-435995
-395876
-345404
-298524
-256865
-223152
-192545
-154510
-129738
-107063
-85987.4
-63605.5
-32528
-634035
-577612
-578815
-504863
-477725
-451158
-428616
-385609
-352371
-313802
-276442
-240159
-208124
-180002
-149109
-117876
-98192.5
-79911.2
-60465.5
-31514
-426635
-359634
-401486
-359627
-370094
-361247
-350063
-321170
-294838
-268494
-241060
-212385
-185599
-160954
-133793
-106035
-89287.2
-74019.3
-57072.1
-30448.3
-458250
-280400
-336195
-285627
-290092
-280700
-271642
-255864
-238312
-220650
-201751
-181975
-161114
-141249
-118186
-94410.7
-80709.2
-68323.6
-53939.2
-29439
36695.7
-38305.1
-109451
-125333
-175368
-184938
-197955
-191431
-182630
-173128
-162124
-149100
-135590
-120740
-101906
-83115
-72524.2
-62833.7
-50862
-28445.9
7664.92
12863.1
-110632
-64072.2
-110595
-98699.4
-125366
-123287
-123044
-121559
-118822
-114088
-106231
-98198.5
-83407.9
-73516
-65541.2
-58107.8
-48082.2
-27591
67288.4
98789.8
726.616
17065.4
-30005.2
-25866.4
-54928.5
-54515.7
-69040.9
-71129.9
-79080.7
-78767.6
-79866.8
-75704.5
-70737.2
-64054.3
-58622.6
-53470.8
-45385.7
-26866.2
111722
187215
75959.3
86970
39627.9
39328.4
928.296
-5654.27
-28602.6
-38413
-51210.1
-56185.8
-61337.6
-61232
-59871.5
-56122.8
-53000.5
-49404
-43068.2
-26275.3
294165
292694
144050
165542
95590.7
92667.9
42170.5
32195.1
2272.53
-11029.6
-28355.1
-37009.3
-45380.1
-47709.6
-49820
-48439.6
-47540.6
-45663
-40952
-25734.9
475710
467646
223642
242097
148418
131818
80650.8
67934.3
31374.4
15060.5
-6832.46
-18217.2
-29932.2
-35631.9
-40632.6
-41764.5
-42728.9
-42461.8
-39302
-25214.1
629263
485697
247501
265843
170927
152272
102326
85570
48477.2
29653.1
5392.97
-7276.62
-20689.3
-27755.7
-34177.1
-36530.7
-38783.9
-39950.6
-38152.4
-24727
315665
404624
232875
264360
187865
169463
116990
97211
59086.2
39587.8
14412.3
812.571
-13836
-21843
-29499.7
-32856.7
-36158.9
-38383.8
-37478.7
-24355.7
-91820.9
297845
196555
250770
184134
170172
121275
100289
63635.7
43577.7
18665.7
4433.78
-10535.6
-19157.9
-27251.8
-31147.7
-34889.8
-37567.9
-37070.4
-24221.1
-1.75399e+06
-1.46172e+06
-1.2719e+06
-1.10404e+06
-992299
-840882
-751263
-645203
-571342
-491969
-430966
-369622
-319112
-270109
-227867
-187211
-150132
-114207
-78206.4
-37875.4
-1.81013e+06
-1.49006e+06
-1.32987e+06
-1.1074e+06
-984577
-834225
-740075
-636348
-562415
-484952
-424726
-364633
-314890
-266935
-225027
-184836
-148309
-113535
-78089.5
-37277.8
-1.94117e+06
-1.36918e+06
-1.20747e+06
-1.04269e+06
-937237
-798949
-714617
-614639
-545475
-470313
-412591
-354189
-306164
-259317
-218551
-179474
-144141
-110730
-76845
-36701.3
-1.7945e+06
-1.35864e+06
-1.20803e+06
-998662
-894721
-762360
-677279
-586192
-519936
-450498
-394956
-339531
-293051
-248981
-209909
-172789
-139108
-107510
-75117.1
-36023
-1.23261e+06
-1.13155e+06
-1.03784e+06
-892142
-823366
-706514
-632567
-549323
-490556
-426194
-373507
-320418
-276215
-234250
-198153
-163248
-132440
-102817
-72697.8
-35303.4
-1.18806e+06
-1.05829e+06
-937063
-811148
-744193
-646019
-578890
-507614
-453149
-396671
-344919
-296851
-254596
-216986
-183943
-152858
-124695
-97949.3
-70009.4
-34438.1
-1.19172e+06
-972074
-826644
-718399
-660408
-579492
-527926
-463288
-418023
-363923
-313837
-267365
-231232
-198035
-168907
-141113
-115883
-91959.8
-66977.1
-33453.8
-935307
-787540
-700717
-612264
-569419
-499386
-485935
-433901
-394069
-345769
-299207
-257828
-223169
-192404
-154120
-129431
-106855
-85793.3
-63552.5
-32468.4
-693642
-611690
-582930
-505081
-476495
-449204
-428718
-385474
-351608
-314450
-277643
-241201
-208019
-179769
-148900
-117482
-97921.4
-79748.9
-60253.3
-31357.6
-501582
-366712
-402211
-357351
-369616
-358904
-349284
-320841
-294757
-268754
-241725
-213443
-185595
-160700
-133521
-105648
-89023.1
-73807.8
-56900.3
-30271.6
-440962
-281334
-340360
-286132
-290256
-280039
-272697
-255276
-237934
-220692
-201595
-182340
-161262
-141108
-117968
-94044.5
-80452.8
-68121.4
-53788.4
-29272.8
109776
-29066.2
-112498
-126450
-175435
-184559
-197001
-190667
-182165
-173008
-162246
-149577
-135383
-120541
-101786
-82829.1
-72364.2
-62745.2
-50772.1
-28331.2
92237.4
63885.1
-108672
-58357.9
-108912
-96957.2
-124698
-122267
-122553
-121452
-119053
-114099
-106764
-98188.8
-83290.4
-73378.1
-65392.9
-57997.5
-48055.6
-27569.9
-191049
92666.6
-5337.26
16785.1
-29538.6
-25270.7
-54617.6
-53980
-68689.3
-71221.3
-78999.3
-78791.9
-79664.2
-75722.3
-70679.9
-64082
-58616.7
-53387.9
-45430.1
-26863.7
-47157.5
175081
68070.4
85539.6
40498.8
40199.5
1406.98
-4909.78
-28119.3
-37760.8
-50887.6
-55996.3
-61021.7
-60932.8
-59644.7
-56079.8
-52966.3
-49444.9
-43156.9
-26250
200564
282979
137505
161386
92504.3
93599.3
43881.8
34909.5
3269.91
-9676.53
-27953
-36577.7
-45348.6
-47559.2
-49748.4
-48327.5
-47497.8
-45722
-41050.8
-25670.5
642465
452087
223740
238947
146592
132127
83088.1
70837.8
32482.4
16063.3
-6233.9
-17748.4
-29758.6
-35477.2
-40506.1
-41731.9
-42663.9
-42520.7
-39430.3
-25125.8
728816
479391
246562
267881
171120
154207
103628
88077.8
49104.3
30305.8
5376.72
-7152.96
-20680.3
-27713.1
-34179.2
-36538.9
-38773.9
-39983.3
-38216.7
-24686.1
233576
385776
233922
271270
187189
171761
118428
99128.9
59475
39975.2
14494.4
877.281
-13836.6
-21845.8
-29503.4
-32860.4
-36132.8
-38380.2
-37487.2
-24362.9
77291.3
327847
192132
259449
183916
171837
121896
101074
63753.5
43703.8
18597.6
4429.51
-10543.4
-19168.9
-27245.6
-31134.5
-34896.2
-37582.4
-37079.4
-24225.5
-1.58703e+06
-1.43845e+06
-1.26217e+06
-1.10299e+06
-991323
-840233
-750937
-644862
-571228
-491868
-430933
-369539
-319071
-270026
-227743
-187089
-150092
-114292
-78194.1
-38056.8
-1.89882e+06
-1.48334e+06
-1.3338e+06
-1.10567e+06
-985282
-833753
-739812
-635958
-562284
-484862
-424642
-364519
-314829
-266847
-224921
-184737
-148419
-113631
-78161.9
-37290.7
-1.7316e+06
-1.37346e+06
-1.21461e+06
-1.04387e+06
-937035
-797506
-713524
-614033
-545161
-470149
-412534
-354072
-306061
-259230
-218527
-179430
-144111
-110755
-76880.8
-36689.7
-1.88326e+06
-1.33014e+06
-1.19971e+06
-1.00001e+06
-896610
-761209
-676443
-585372
-519421
-450208
-394670
-339450
-292876
-248862
-209784
-172717
-139043
-107521
-75131.3
-36013.5
-1.16042e+06
-1.10886e+06
-1.0319e+06
-892141
-825480
-705709
-631450
-549037
-490341
-426062
-373332
-319933
-276066
-234371
-198132
-163133
-132426
-102819
-72700.4
-35301.8
-1.08574e+06
-1.03107e+06
-929774
-809324
-745696
-645986
-578086
-507590
-453017
-395977
-344907
-296849
-254537
-216669
-183851
-152959
-124674
-97947.1
-70007.2
-34438.9
-1.27515e+06
-981820
-830830
-719925
-660727
-581160
-527445
-460777
-417152
-364306
-314434
-267618
-230873
-197536
-168619
-140932
-115661
-91902.7
-66968.5
-33448.4
-1.0525e+06
-815217
-705750
-611914
-569702
-499616
-485724
-431646
-392539
-346520
-301469
-258072
-223144
-192460
-153406
-128980
-106516
-85514.8
-63522.8
-32382.4
-709687
-619237
-585606
-506188
-476809
-448552
-430215
-385405
-351415
-315075
-279309
-241906
-208059
-179678
-148565
-116804
-97502.2
-79345.9
-59958.4
-31065.1
-411183
-371979
-409787
-361355
-372605
-357842
-348302
-320622
-294723
-268853
-242581
-214913
-185338
-160265
-133064
-104996
-88679.8
-73397.9
-56655.3
-29923.2
-264481
-272365
-340749
-284191
-289123
-277559
-271416
-254243
-237579
-220922
-201896
-183024
-161324
-140875
-117653
-93464
-80082.1
-67672
-53588.3
-28952.7
104595
-28181.5
-119723
-128930
-175269
-182020
-194690
-189750
-181815
-172896
-162589
-150059
-135208
-120353
-101660
-82413.8
-72083.6
-62360
-50680.8
-28122.8
91393.8
55775.7
-113776
-56692.3
-107433
-95825.8
-124344
-120787
-121866
-121373
-119623
-114468
-107115
-98104.3
-82935.5
-73180.6
-65241.6
-57876.4
-48044.9
-27518.2
34927.2
111551
-8807.7
16151.6
-28741.5
-25165.6
-53955.8
-52845.1
-68054.3
-71005.7
-78971.1
-78837.6
-79460.5
-75675.8
-70615.9
-64010.1
-58500
-53358
-45485
-26868.1
-69904.9
175318
52419.5
81306.1
41604.3
40529.8
2586.45
-3251.44
-27320.5
-36609
-50211.1
-55623.5
-60733.9
-60732.4
-59626
-56052
-53011.9
-49471.4
-43245.4
-26179.8
147518
299589
135531
156739
88487
91689.4
45576.4
37195.6
4637.55
-7756.9
-27330.1
-36126.7
-45208.7
-47409.6
-49635.9
-48234.4
-47438.9
-45742.1
-41180.9
-25549.8
672869
445631
225713
236958
142545
131802
83502.9
73372.3
34381.2
17315.5
-6007.86
-17370.4
-29628.7
-35405.3
-40476.3
-41652.2
-42608.4
-42526.4
-39545.5
-25011.3
605205
455332
246371
266426
170516
154851
106257
91302.4
49948
30692.7
5774.19
-7067.71
-20639.1
-27675.3
-34127.8
-36497.9
-38743.7
-39988.3
-38245.6
-24655.5
217844
355351
226214
270701
185702
173412
122069
100987
59876.8
40149.8
14535.4
881.811
-13801.5
-21824.9
-29483.4
-32855.4
-36135.9
-38391
-37510.4
-24369.6
111246
315385
187003
266464
183595
173569
122601
101833
63949.7
43838.5
18678.2
4451.4
-10524.3
-19178.8
-27248.4
-31143.1
-34907.8
-37601.9
-37090.4
-24235.5
-1.49691e+06
-1.43771e+06
-1.25922e+06
-1.10248e+06
-990846
-839946
-750743
-644740
-571032
-491774
-430925
-369466
-319027
-269996
-227733
-187005
-150089
-114242
-78309.4
-38053.4
-1.92188e+06
-1.47365e+06
-1.32667e+06
-1.10501e+06
-985843
-833208
-739562
-635612
-562350
-484765
-424528
-364367
-314712
-266716
-224807
-184645
-148311
-113618
-78197.3
-37245.3
-1.73099e+06
-1.37108e+06
-1.21455e+06
-1.04475e+06
-937661
-795598
-713101
-612980
-544873
-469918
-412416
-353882
-305929
-259112
-218478
-179367
-144085
-110755
-76912.8
-36694.6
-1.73108e+06
-1.32261e+06
-1.19099e+06
-1.00174e+06
-898355
-759737
-675787
-584653
-518996
-449641
-394427
-339317
-292761
-248808
-209747
-172659
-138996
-107518
-75138.4
-36006.4
-1.24784e+06
-1.09151e+06
-1.03278e+06
-892500
-826654
-706049
-630562
-549228
-490262
-426250
-373185
-319876
-275976
-234368
-198140
-163209
-132409
-102820
-72706
-35297.3
-1.02659e+06
-1.01859e+06
-923769
-807600
-747644
-647363
-577542
-507158
-452855
-395508
-344443
-296459
-254345
-216697
-183752
-152991
-124667
-97944.9
-70007.9
-34436.5
-1.1529e+06
-971733
-834705
-720600
-660746
-580791
-526924
-459489
-416409
-364542
-314637
-267944
-230681
-196969
-168425
-140679
-115418
-91869.4
-66971.3
-33440
-1.03339e+06
-822769
-709157
-611018
-570252
-499870
-485627
-428848
-392002
-347226
-303510
-258763
-223300
-192036
-152456
-128619
-106264
-85246.4
-63515.8
-32289.8
-781961
-635199
-587457
-507282
-478670
-447967
-430074
-384715
-351389
-315585
-280292
-242211
-207627
-179002
-148153
-115851
-97078.1
-79053.3
-59877.7
-30743.2
-646017
-399074
-410845
-364610
-373522
-357852
-346835
-320196
-294807
-268948
-243719
-216415
-185126
-159921
-132656
-104047
-88314
-73024.5
-56709
-29578.7
-308251
-275356
-336106
-281981
-288373
-275287
-269387
-253401
-237306
-220927
-202761
-184113
-161306
-140713
-117278
-92498.6
-79672.7
-67246.6
-53627.9
-28603.3
108953
-12713.7
-122970
-126528
-174086
-180381
-192171
-189136
-181542
-172804
-163027
-150410
-135320
-120510
-101714
-81715.7
-71862.1
-62036.9
-50770.3
-27841
110467
100397
-115951
-57679.5
-104900
-94902.9
-123810
-118808
-121179
-121164
-120289
-114597
-107076
-97679.3
-82496.1
-72962
-65090.8
-57754
-48048.2
-27451.6
53193.7
117364
-15045.9
15343.5
-27032.5
-25205.5
-53125.3
-50809.1
-67288.7
-70861.2
-78972.1
-79019.6
-79417.5
-75512.9
-70583.1
-63970.3
-58487.2
-53322.6
-45508.1
-26875.6
57449.7
177479
51290.6
80130.8
40851.7
40099.3
4022.32
-1443.61
-26381.5
-35399.4
-49544.1
-55273.2
-60618.8
-60629.9
-59585
-56055.6
-52952.8
-49456.6
-43297.3
-26138.2
97138.9
276803
133225
154160
85818
91054.8
44814.9
38315.1
6109.17
-5189.5
-26808.9
-35549
-45113.9
-47255.5
-49582.5
-48217.1
-47394.9
-45727.5
-41256.6
-25460.1
800160
454721
227043
235334
140916
132104
82628.7
73667.5
36879.7
18076.9
-5575.76
-17257.5
-29507.6
-35420.2
-40459.2
-41651.5
-42575.9
-42519
-39590.9
-24937
674512
436377
257566
266322
171078
154301
105694
94123.6
50683.3
31006.8
5969.11
-7014.18
-20603.7
-27654.1
-34113.4
-36468.4
-38694
-39986.8
-38280.7
-24632
88254.1
348067
230806
268613
184350
174459
124073
101926
60225.6
40329.3
14711
963.635
-13731.3
-21804.2
-29453.9
-32842
-36161.3
-38427.6
-37543.3
-24383
88114.8
309136
188643
268946
182882
175001
123058
102241
64077.7
43918.2
18737.5
4465.72
-10523.7
-19182.3
-27258
-31152.9
-34918.9
-37617
-37099.6
-24242.6
-248489
-231297
-217966
-268839
-248980
-231394
-218378
-220539
-212696
-195785
-242390
-221664
-213096
-195975
-206438
-184595
-175301
-220774
-206608
-184529
-175491
-187912
-172044
-161627
-201707
-188273
-172361
-162169
-396285
-371835
-346366
-428411
-396118
-371810
-345238
-360937
-338413
-316153
-385741
-360740
-336753
-316058
-326428
-309145
-287972
-352574
-326367
-309136
-287820
-283936
-280324
-257721
-313478
-284990
-280308
-257700
-248486
-250715
-226355
-276064
-248917
-250408
-226989
-215755
-218894
-198116
-239914
-215825
-219345
-198223
-187077
-191337
-172028
-208140
-187009
-191388
-171992
-160736
-165815
-148088
-180049
-160669
-165739
-148081
-329183
-292156
-276532
-349525
-328675
-292136
-276217
-301292
-272403
-257459
-321479
-301322
-272369
-257275
-275215
-252453
-237553
-294818
-275207
-252334
-237676
-247815
-232491
-216934
-268438
-247774
-232620
-216973
-218741
-211703
-195418
-241007
-219532
-211709
-195461
-191958
-189678
-172950
-212147
-192059
-189897
-172905
-167023
-167405
-151530
-185569
-167018
-167362
-151557
-143993
-146296
-131513
-160965
-143919
-146332
-131478
-260088
-217647
-209926
-271081
-260369
-217278
-209643
-242780
-207377
-199286
-255910
-242690
-207166
-199162
-224953
-196453
-187928
-238364
-225018
-196341
-187860
-206549
-184904
-175332
-220530
-206611
-184839
-175337
-186993
-171900
-160872
-201767
-186987
-171934
-161055
-166437
-156871
-145725
-181931
-166400
-157266
-145810
-146224
-141847
-129996
-161156
-146270
-141902
-130077
-127040
-125807
-114016
-141265
-127027
-125922
-114021
-193723
-149390
-146285
-197574
-193507
-148856
-146082
-185084
-145743
-143568
-191559
-184992
-145515
-143377
-175709
-142926
-140001
-182697
-175635
-142722
-139927
-165034
-138802
-134977
-173145
-165024
-138711
-134952
-152236
-133147
-127430
-162097
-152476
-133270
-127649
-139020
-125549
-119127
-148899
-139073
-125751
-119045
-124551
-116653
-108502
-135599
-124630
-116577
-108550
-109363
-105711
-96700.7
-120752
-109323
-105706
-96595.2
-396012
-372067
-345008
-428232
-395997
-371733
-345378
-360552
-336371
-316025
-385636
-360001
-337187
-315994
-326073
-309133
-287814
-351729
-325633
-309055
-287910
-285349
-280363
-257756
-314325
-286086
-280540
-258224
-249163
-250429
-227245
-277423
-250087
-250921
-228044
-215859
-219600
-198275
-240944
-215965
-220453
-198396
-186935
-191399
-171966
-208075
-186864
-191385
-171774
-160609
-165719
-148039
-179872
-160430
-165499
-147948
-328574
-292713
-276456
-349450
-328754
-292335
-277021
-301302
-272286
-257170
-320987
-301257
-271975
-256861
-275220
-252253
-237780
-294820
-275277
-252101
-237629
-247859
-232686
-217039
-268721
-248310
-232473
-217630
-219776
-211778
-195544
-241522
-220229
-212342
-195772
-192121
-189992
-172945
-213147
-192288
-190304
-173090
-166992
-167385
-151554
-185619
-166831
-167477
-151454
-143866
-146298
-131439
-160799
-143763
-146151
-131225
-260414
-217715
-209534
-271914
-259885
-216985
-209153
-242617
-207077
-199074
-255500
-242363
-206567
-198709
-225064
-196282
-187818
-238022
-225033
-196018
-187662
-206621
-184795
-175337
-220829
-206495
-184653
-175298
-187027
-171947
-161154
-201660
-187361
-171995
-161513
-166378
-157366
-145839
-182310
-166495
-157695
-145836
-146263
-141896
-130052
-161232
-146156
-141813
-129894
-126999
-125912
-114026
-141156
-126866
-125804
-113898
-193429
-148363
-145981
-197182
-192949
-146707
-145365
-184913
-145389
-143251
-190897
-184477
-144750
-142768
-175608
-142591
-139879
-182319
-175490
-142136
-139706
-165031
-138665
-134951
-173045
-165067
-138499
-134914
-152554
-133311
-127771
-162201
-152807
-133374
-128086
-139098
-125712
-118931
-149469
-139122
-125733
-118336
-124626
-116510
-108519
-135455
-124480
-116290
-108075
-109316
-105703
-96586
-120597
-109214
-105652
-96600.2
-395944
-371524
-345737
-429937
-395765
-370442
-345652
-359854
-337242
-315948
-385429
-359715
-337372
-315869
-325482
-309063
-287873
-351497
-325239
-309067
-287827
-286392
-280555
-258412
-314918
-287645
-280574
-258984
-250452
-251138
-228363
-278762
-251621
-252017
-229552
-215995
-220778
-198415
-241794
-216113
-221866
-198391
-186790
-191352
-171676
-208002
-186657
-191159
-171328
-160273
-165411
-147838
-179653
-159943
-165129
-147495
-328698
-292822
-276905
-348417
-328254
-292002
-276175
-301172
-271759
-256798
-320666
-301049
-270979
-256551
-275297
-252069
-237467
-294680
-275511
-251834
-237392
-250660
-262011
-256537
-268780
-250685
-262056
-256515
-226175
-234801
-232240
-241911
-225879
-235033
-232477
-192327
-190303
-173173
-214505
-192383
-190659
-173410
-166737
-167509
-151394
-185428
-166373
-167559
-151139
-143653
-146098
-131110
-160378
-143318
-145881
-130925
-259715
-216964
-208937
-271721
-258981
-215559
-208164
-242245
-206345
-198567
-254499
-241878
-205650
-198187
-224956
-195907
-187590
-237664
-224943
-195605
-187451
-204294
-215826
-208367
-220028
-204326
-213345
-208309
-187463
-196716
-191584
-199537
-187358
-194901
-191688
-166559
-157832
-145777
-182662
-166770
-158160
-145892
-146111
-141772
-129851
-161321
-145890
-141745
-129699
-126810
-125742
-113835
-140932
-126641
-125570
-113734
-192734
-146564
-145178
-195236
-191984
-145501
-144535
-184278
-144483
-142534
-189954
-183903
-143606
-141901
-175416
-141941
-139624
-181903
-175259
-141424
-139449
-165095
-138438
-134901
-172907
-165205
-138276
-134887
-152902
-133403
-128162
-162468
-153336
-133446
-128278
-139076
-125768
-118359
-150054
-138895
-125937
-118050
-124405
-116248
-107877
-135213
-124219
-116065
-107914
-109161
-105668
-96600
-120381
-109077
-105879
-96456.9
-395637
-370264
-345580
-430085
-395210
-369320
-345252
-359690
-337409
-315894
-384867
-359022
-337345
-315940
-325214
-309106
-287846
-351332
-325534
-309249
-287949
-288114
-280611
-259187
-315501
-289364
-280773
-259857
-252019
-252124
-230004
-280293
-253012
-253182
-231290
-216052
-222253
-198351
-242226
-215790
-223356
-198276
-186600
-191066
-171193
-207879
-186495
-190888
-170879
-159759
-165034
-147339
-179302
-159321
-164821
-147010
-328088
-291718
-275888
-347130
-327521
-290135
-275065
-301044
-270720
-256484
-320318
-301040
-270066
-256310
-275540
-251778
-237529
-294788
-275540
-251644
-237731
-249133
-232737
-218176
-268898
-249758
-232931
-217974
-222118
-212879
-196511
-243424
-223477
-212863
-197664
-192377
-191114
-173481
-216131
-192392
-192142
-173642
-166227
-167553
-151048
-185100
-165869
-167477
-150829
-143138
-145805
-130801
-159971
-142832
-145601
-130674
-258704
-215187
-207926
-269809
-257932
-213571
-207336
-241774
-205450
-198079
-253591
-241507
-204965
-197805
-225040
-195517
-187434
-237391
-225067
-195288
-187360
-206864
-184539
-175636
-220948
-207392
-184585
-176134
-188077
-172531
-162326
-202470
-188888
-173121
-162592
-166833
-158332
-145945
-183830
-167004
-158715
-146093
-145816
-141757
-129659
-161310
-145697
-141837
-129647
-126510
-125532
-113663
-140746
-126374
-125585
-113857
-191748
-145346
-144336
-192679
-191164
-144313
-143876
-183773
-143251
-141598
-189258
-183473
-142263
-140890
-175221
-141199
-139385
-181598
-175101
-140662
-139411
-165272
-138190
-134837
-172840
-165511
-137963
-134702
-153520
-133406
-128244
-162970
-153710
-133643
-127900
-138930
-126009
-117988
-150302
-139043
-125894
-118125
-124181
-116051
-108130
-135281
-124164
-116131
-108647
-109025
-105890
-96304
-120437
-109258
-105908
-96389.1
-395112
-369173
-345093
-429914
-395492
-368810
-344413
-358873
-337230
-315951
-383899
-358799
-336642
-315873
-325709
-309270
-288009
-351315
-326179
-309296
-288215
-289733
-280859
-260065
-315615
-290155
-281179
-260384
-252925
-253509
-231562
-280289
-253248
-253825
-231276
-215891
-223466
-198453
-242329
-216340
-223131
-198455
-186429
-190948
-170811
-207715
-186692
-191047
-170697
-159079
-164769
-146852
-178811
-159192
-164585
-146811
-327368
-289776
-274839
-346072
-326716
-289200
-274432
-301051
-269870
-256235
-319650
-300979
-269245
-256000
-275552
-251597
-237724
-294763
-275647
-251410
-237624
-250042
-232908
-218077
-269162
-250386
-232892
-218784
-223859
-213029
-198024
-244195
-223801
-213994
-198658
-192554
-192501
-173685
-216146
-192675
-193108
-173664
-165794
-167439
-150776
-185357
-165732
-167394
-150672
-142649
-145559
-130506
-159794
-142590
-145524
-130539
-257718
-213242
-207198
-268461
-257391
-212700
-207028
-241421
-204837
-197733
-252909
-241139
-204646
-197602
-225096
-195218
-187314
-237027
-224946
-195058
-187070
-207561
-184582
-176210
-220843
-208262
-184416
-176270
-189193
-173203
-162720
-203821
-189801
-173326
-163072
-167064
-158840
-146150
-184584
-167164
-159139
-146285
-145667
-141881
-129682
-161330
-145558
-142030
-129770
-126222
-125631
-113838
-140624
-126251
-125730
-114079
-191023
-144177
-143783
-191143
-190844
-143900
-143874
-183392
-141840
-140618
-188961
-183315
-141288
-140354
-175049
-140458
-139418
-181461
-174916
-140087
-139743
-165545
-137813
-134559
-172622
-165536
-137504
-134741
-153823
-133730
-127903
-163194
-154088
-133698
-129029
-139088
-125900
-118134
-150662
-139252
-126165
-118816
-124196
-116216
-108900
-135450
-124365
-116424
-109374
-109258
-105826
-96416.2
-120697
-109552
-105391
-96854.7
-244790
-255237
-238522
-248651
-244673
-255347
-238694
-239360
-244579
-227622
-231029
-239360
-244443
-228974
-234211
-228445
-223147
-220256
-234076
-228607
-225441
-250702
-268815
-262174
-256744
-262120
-256595
-250809
-244867
-248812
-255568
-238912
-255455
-238825
-244923
-239444
-230995
-244660
-227789
-244432
-228921
-239597
-234269
-220217
-228782
-223516
-228692
-225417
-234332
-219484
-227695
-212481
-220868
-219331
-227945
-212764
-216907
-222665
-207306
-214920
-216737
-222847
-209529
-210503
-204459
-201900
-195707
-210459
-204354
-203758
-226418
-242126
-235508
-232809
-235125
-232662
-226513
-219732
-221243
-228651
-213450
-228261
-213083
-219999
-217050
-214894
-223126
-207622
-222994
-209456
-217067
-210577
-195805
-204900
-202005
-204498
-203844
-210897
-200167
-211145
-195854
-204319
-200147
-208843
-195954
-192836
-196458
-181610
-184548
-192899
-196400
-181576
-189215
-185646
-178504
-175334
-189211
-185703
-178487
-204387
-220188
-215904
-208447
-213440
-208366
-204430
-200240
-204332
-211283
-196338
-208855
-196140
-200347
-192843
-184524
-196386
-181573
-196392
-181575
-192907
-189296
-175381
-185931
-178510
-185757
-178480
-189416
-183100
-192130
-178737
-187982
-183003
-190967
-178751
-178296
-181919
-168739
-172127
-178175
-182002
-168834
-174493
-170310
-165212
-161770
-174293
-170544
-165329
-187752
-199650
-196897
-192264
-194940
-191942
-188094
-183512
-188271
-192477
-179089
-190945
-178927
-183809
-178474
-172229
-182353
-169105
-182104
-168951
-178804
-174696
-161920
-170979
-165694
-170797
-165490
-175029
-460829
-454782
-427380
-485357
-461006
-454955
-427307
-416101
-406300
-386190
-435948
-416010
-406196
-386266
-373305
-370862
-350296
-396422
-373013
-370833
-350072
-323131
-323822
-300586
-345253
-323287
-324016
-301032
-279311
-283054
-263892
-298367
-279292
-283036
-264013
-239061
-245383
-227769
-256344
-239154
-245499
-227787
-207692
-213039
-197816
-223171
-207681
-213020
-197801
-178280
-183867
-170169
-192698
-178293
-183870
-170098
-435314
-413858
-395023
-450283
-436184
-414075
-394631
-398893
-417615
-409601
-428129
-417583
-409608
-398957
-360812
-376917
-369419
-385832
-377128
-369596
-360684
-330713
-344709
-338443
-352729
-344659
-338426
-330758
-293776
-304151
-303366
-313142
-304304
-303327
-293771
-258871
-266523
-267745
-275397
-266514
-267794
-258787
-225005
-231370
-232929
-239531
-231447
-233058
-224932
-195626
-201091
-202800
-208149
-201094
-202809
-195625
-168951
-173630
-175461
-180084
-173641
-175482
-168937
-137808
-141568
-130780
-149214
-137768
-141568
-130713
-352329
-320999
-310315
-360651
-351945
-319571
-309630
-323570
-342938
-331105
-349530
-342736
-331222
-323400
-299235
-314786
-306247
-322351
-314892
-306367
-299153
-274764
-288350
-280744
-294744
-288363
-280778
-274730
-250212
-261350
-256437
-268328
-261377
-256459
-250189
-225081
-234313
-231520
-241027
-234205
-231483
-225164
-198124
-205014
-204833
-211703
-205035
-205041
-198196
-173611
-179274
-179527
-185498
-179270
-179518
-173604
-150685
-155330
-156190
-160990
-155314
-156174
-150678
-123864
-126132
-116964
-133875
-123819
-126091
-116910
-272817
-236858
-231856
-278503
-273346
-236613
-232137
-250432
-267698
-256222
-271621
-267413
-256375
-251029
-235877
-251786
-239536
-255988
-251797
-239549
-235895
-220369
-234027
-224200