/*--------------------------------*- C++ -*----------------------------------*\
  =========                 |
  \\      /  F ield         | OpenFOAM: The Open Source CFD Toolbox
   \\    /   O peration     | Website:  https://openfoam.org
    \\  /    A nd           | Version:  10
     \\/     M anipulation  |
\*---------------------------------------------------------------------------*/
FoamFile
{
    format      ascii;
    class       surfaceScalarField;
    location    "1.2";
    object      phi;
}
// * * * * * * * * * * * * * * * * * * * * * * * * * * * * * * * * * * * * * //

dimensions      [0 3 -1 0 0 0 0];

internalField   nonuniform List<scalar> 
38556
(
-47.7849
1113
-1399.27
-228.147
261.628
-81.2663
353.913
-348.816
-233.244
398.285
-283.041
238.669
535.827
-370.129
232.587
627.055
-265.865
174.636
708.763
-207.744
126.037
787.403
-113.623
34.9829
843.138
-29.3736
-26.361
902.662
25.6422
-85.1659
952.724
61.1105
-111.173
1016.95
92.7198
-156.941
1090.47
106.076
-179.603
1163.81
122.118
-195.457
1172.7
139.083
-147.967
1052.56
142.822
-22.6916
841.308
173.07
38.187
737.684
179.835
-76.2111
753.549
185.988
-201.853
132.086
-148.056
1808.12
774.374
-160.032
1511.43
114.096
444.226
704.469
-222.979
681.125
635.668
-382.355
168.114
569.017
-392.039
88.5615
611.317
-340.04
31.8751
615.539
-264.346
52.3806
647.913
-145.928
-0.0695458
688.417
-43.8479
-26.0298
735.714
49.9128
-71.5684
796.034
91.8566
-91.0656
871.932
130.051
-113.229
966.713
132.773
-121.478
1034.35
132.188
-77.7113
1017.97
115.478
39.9928
882.801
111.355
166.633
714.915
133.249
207.708
661.231
138.762
94.7565
675.674
161.808
9.73742
119.505
3.07398
-1195.28
-565.224
2072.35
-269.908
-132.445
-678.833
537.779
-345.655
-685.01
486.943
-276.333
-55.1857
535.554
-393.744
-46.9064
577.215
-296.722
-84.9797
622.352
-310.146
0.663545
658.182
-148.646
-33.1122
684.522
-67.8147
-2.37359
710.302
48.8887
-24.7557
743.925
72.8261
-14.5928
770.364
105.237
-1.62422
778.292
87.5461
37.2983
753.203
81.6746
75.6023
677.799
67.6398
123.242
603.715
69.3379
116.101
563.403
93.4974
80.0638
549.544
107.005
45.6157
539.173
132.781
39.3987
101.878
26.9758
-2365.72
-1448.5
-1136.13
-866.596
-614.488
-1017.08
238.773
-975.196
-475.829
529.061
-487.8
-78.821
627.287
-511.014
19.0452
640.952
-312.278
1.89033
633.822
-357.193
54.1779
620.818
-130.172
-5.46976
607.249
-88.3361
34.0899
571.81
61.6205
22.7073
549.658
48.4652
46.5124
516.334
83.567
54.9936
478.365
43.253
82.2621
426.569
45.5353
87.9349
378.083
35.2307
80.8961
346.369
39.4861
61.5656
339.037
54.0078
46.8215
345.011
67.4899
33.5408
367.11
87.2208
23.4614
68.9915
16.5114
-959.447
-1343.14
-56.1722
300.518
-1008.77
-865.686
225.196
-906.16
6.28582
132.621
-512.949
117.725
329.335
-595.49
-112.238
237.55
-300.253
79.7597
342.941
-519.202
56.6172
341.624
-185.037
56.1824
402.514
-230.611
81.3847
382.168
17.611
64.3565
388.051
-27.91
70.4913
363.92
35.3787
72.32
347.417
-3.01091
62.766
327.471
13.888
51.5941
324.914
2.15037
35.6376
326.692
14.3678
23.3399
336.716
29.8035
14.1804
352.837
42.0357
9.33363
375.439
57.0713
7.5473
49.2691
5.30632
2081.85
-1451.85
-5263.36
2433.6
-609.213
-751.312
1356.98
-489.197
659.66
731.526
-278.133
390.638
560.246
-482.153
57.943
428.882
-235.513
66.6253
449.604
-644.321
104.397
357.935
-195.052
101.683
384.354
-347.197
90.1671
323.645
25.9866
52.3334
325.721
-94.6266
64.6402
306.43
0.758562
53.912
305.329
-56.1718
54.2616
295.862
-16.2585
39.6133
297.365
-33.0364
33.6836
303.198
-12.7511
21.2858
312.693
7.58744
12.7217
328.654
18.1289
7.94576
349.421
33.1169
3.18748
31.7051
1.74037
833.827
219.072
397.818
946.261
-60.1794
-661.467
795.974
-12.3496
-326.561
649.76
-71.588
-60.3305
637.19
-387.659
-81.9247
528.893
-177.889
50.6732
382.61
-119.609
72.517
-165.495
-118.7
-166.752
192.472
-76.2455
136
2.00034
-72.034
5.3665
99.552
-78.5288
53.8083
-77.2701
-78.8358
-73.4513
37.5906
32.9508
-46.5166
31.253
35.9199
34.3411
77.3993
-35.5443
33.063
-58.8732
-24.9319
-48.149
124.616
-29.8794
30.6533
-13.6661
-20.9159
-12.6506
177.836
-26.5213
31.0153
-34.2225
-33.5162
-46.1473
219.461
-17.6672
23.135
-11.3448
-27.5209
-24.4851
263.428
-95.3788
18.3756
298.037
-59.818
12.457
326.388
-26.5951
5.83151
346.094
-4.5727
2.99604
366.293
11.0704
1.84748
17.0046
0.840157
917.667
1585.6
1365.57
906.379
341.901
-390.793
1041.46
109.7
-257.134
1016.85
25.6798
-72.6538
968.642
-288.35
-51.1008
212.9
-36.6014
66.6112
208.455
210.286
217.458
-5.74879
-47.3118
-35.2943
166.996
-88.987
15.2809
-118.902
104.642
-84.3049
22.3199
-66.2013
12.3893
-47.6861
22.9693
17.6339
3.17798
20.3031
-8.16422
-17.1933
19.0629
-46.5929
9.17906
-20.4469
31.1084
-58.6015
18.0606
-45.2304
47.7875
-48.4992
19.4208
-50.035
57.5555
-29.5275
4.3398
337.456
-32.9471
39.709
-69.2821
-79.2428
-81.6965
-91.4224
-31.0547
-48.1022
-38.7963
347.985
-89.7763
19.4296
350.158
-41.8254
13.0573
359.945
-22.995
8.63491
368.553
-4.26996
6.7331
3.76087
3.48533
2819.89
1092.95
108.242
1858.86
808.388
494.546
1484.28
641.04
-156.757
1519.01
451.274
-460.322
292.219
93.2458
-213.01
341.848
352.631
363.723
274.095
-45.4046
26.9264
18.7656
-66.3006
54.9757
-15.5389
8.09823
-32.7816
16.5156
36.6575
-13.4354
-6.95615
-28.956
-0.463004
20.2443
4.57402
4.60069
-6.01256
-0.517609
7.20999
0.467759
-1.14758
-12.4618
11.6826
11.3587
-10.0367
-0.542858
-11.4543
16.9444
14.4584
-14.6414
-5.30727
-19.641
18.4092
20.4085
-18.752
-0.424794
-17.9279
12.2724
16.6393
-17.0645
6.08073
-18.4586
91.973
-42.3275
5.11472
-19.2423
-24.5945
-25.412
387.356
-96.6539
30.4214
-93.6587
-97.4658
-105.069
-114.707
381.982
-50.6731
14.2226
382.101
-32.5478
9.43357
383.478
-15.7702
10.1233
-6.12034
6.39438
1874.21
611.886
-1710.21
2202.65
319.255
160.697
2403.73
553.446
-113.487
2584.91
580.324
-310.225
493.436
332.884
181.883
500.902
582.17
586.877
52.9064
421.062
-33.6797
53.1465
17.0171
-92.3635
83.8485
-18.1865
9.68451
-2.46865
-43.1487
42.3671
11.0557
-7.80539
-12.0936
-48.2213
40.1873
14.7845
5.34309
-7.55608
-25.8947
22.3351
10.902
0.213669
-1.61766
-18.0563
14.8443
5.63102
-0.801284
7.8369
-14.8732
17.1011
-4.89786
-5.16693
17.6438
-17.6749
18.6203
-18.4171
-0.172102
20.5129
-22.5843
24.7311
-22.2902
-0.369514
-27.1792
52.6122
111.82
-55.0827
9.75035
-28.4991
-31.4854
-31.9366
432.582
-76.8656
25.202
-107.515
-110.56
-127.752
-131.745
409.146
-41.1479
13.9111
399.246
-31.8845
9.23621
393.742
-20.8018
10.5356
-13.6872
6.95036
636.003
-1626.24
580.121
1497.66
-1184.87
642.469
1887.27
-351.758
515.59
2216.39
-85.062
336.265
498.745
90.5434
427.181
445.94
548.203
538.666
-2.13802
418.881
18.914
63.0876
14.3354
-74.8533
65.264
-8.94281
4.19664
-13.6145
-52.1431
47.6784
9.12701
8.95221
-23.4464
-50.85
50.5931
21.3654
2.33785
-11.2683
-48.8694
48.0405
13.4912
-1.39411
-10.8783
-41.891
37.5798
10.1467
5.04278
-6.79699
-22.864
26.4165
8.52437
-5.27992
19.426
-27.0894
21.0537
-18.2128
4.8225
21.2689
-23.6706
28.1131
-17.8419
-7.86942
-31.2322
47.9788
117.832
-41.7729
5.87922
-31.4794
-33.5637
-33.6413
430.53
-46.7227
-2.77714
-109.781
-106.562
-126.864
-114.689
411.958
-26.2142
3.63903
404.442
-29.8712
5.50201
400.375
-25.5054
8.77031
-20.0249
6.14233
2261.26
-2177.97
-1363.67
1653.05
-586.243
9.59184
1442.23
-160.654
19.7127
1447.65
-142.782
52.297
332.781
38.1963
195.047
287.96
349.2
335.013
2.12461
320.824
-30.5833
40.4151
-5.35535
-73.8651
67.6275
4.17388
7.41907
-8.98586
-62.8871
61.2999
10.794
-0.220927
-11.8611
-54.5889
50.7132
13.077
2.65975
-13.4813
-43.9508
43.054
12.0358
2.34226
-12.8994
-42.2372
42.8479
12.0747
0.21411
2.40633
-44.2069
43.3481
-6.02033
4.47283
14.0264
-24.2608
20.5781
-15.4785
5.13475
12.5883
-22.0632
25.7163
-10.133
-6.10838
-29.1333
34.6042
107.939
-21.8404
1.81232
-28.0543
-33.0331
-32.2948
396.682
-41.6796
5.5487
-98.9476
-99.1055
-104.527
-104.694
400.483
-31.5144
1.4994
402.871
-34.0305
1.77159
406.466
-34.7678
5.66677
-27.7388
4.48546
1287.93
-2702.97
-2792.68
589.169
55.8295
56.6885
941.941
-196.435
-316.991
906.435
49.8425
-157.118
892.736
121.279
-69.3837
214.759
-31.0992
-83.1312
32.7607
52.4099
25.6381
50.3433
209.975
214.506
206.574
0.742905
205.378
17.3371
-1.1082
-5.18942
1.57362
-3.97512
-13.9188
-193.826
205.089
44.1309
2.85939
-15.9266
-12.9043
-15.5035
-18.6165
-227.48
243.278
45.8743
14.5226
-19.1042
-18.9513
-19.5227
-13.1119
-244.953
247.035
36.4102
14.3354
-12.716
-13.7725
-13.2271
-5.64894
-237.492
202.431
15.4539
40.8341
-4.02709
-6.44279
-5.10818
6.8766
-154.894
131.352
-8.07589
2.27477
8.58331
5.82331
8.05983
12.956
-127.05
120.139
-24.207
-16.3618
11.074
12.3831
11.0676
4.40964
-109.123
103.911
-11.32
-0.848098
3.38139
5.54165
4.04672
467.736
-52.9213
70.804
12.9182
10.1724
12.2921
10.2376
-110.803
-127.516
-121.513
-171.408
432.073
-44.1606
38.1448
411.872
-22.8058
11.492
410.453
-32.5328
-0.0790615
414.901
-38.0714
-1.14427
-31.8752
-0.929523
1045.07
-52.2271
-1857.56
1119.63
758.434
-777.162
1173.62
388.362
-638.786
1067.24
311.191
-154.974
894.896
283.409
10.2177
838.089
22.2172
3.49041
827.213
127.742
97.4464
-32.7094
-71.129
-34.7283
-75.7455
871.398
-110.669
134.842
-19.1276
-7.03524
-25.5082
-16.6864
895.848
-85.8741
178.341
-16.2215
-34.6305
-25.1437
-40.9216
943.067
-216.821
187.849
-6.64744
1.45908
-11.7297
-1.32989
978.982
-206.38
180.942
0.769594
-7.17514
0.358636
-4.43037
1015.74
-252.863
140.363
11.0435
24.0513
15.6793
24.9646
1022.32
-216.231
134.808
21.9491
14.7548
20.5737
17.5676
993.085
-187.385
133.344
16.8996
23.6576
19.0184
23.7019
852.163
-28.2361
116.237
664.787
57.7501
85.4656
543.111
73.4452
25.4252
489.797
26.3815
-5.60036
470.479
-15.1243
-3.62927
-23.2881
-1.1004
2531.75
901.252
3622.02
1367.25
1006.13
916.81
857.107
848.1
50.3996
699.992
393.301
75.0037
605.292
243.739
134.37
618.526
-47.3329
56.3164
688.387
-56.0471
113.927
714.386
-199.883
63.2154
730.409
-177.533
75.6362
740.508
-244.001
17.081
755.942
-203.974
-17.839
779.609
-215.373
-61.1576
793.115
-170.669
-59.0684
769.407
-131.375
-32.3026
696.907
43.4263
0.837796
615.686
144.976
-6.00486
556.158
153.698
-20.7242
513.127
101.989
-32.5768
483.744
26.3138
-12.0553
-7.65959
-0.717223
-1100.42
773.912
3684.1
39.6156
675.232
-809.135
455.474
684.47
-252.228
391.429
251.055
206.292
508.042
-19.1416
146.268
577.576
-116.435
-0.431818
595.594
-146.341
72.2758
584.243
-135.348
-53.1845
533.849
-65.5911
-61.5479
510.914
-77.4078
-143.658
535
-39.2783
-188.782
574.085
-36.4453
-218.013
612.317
1.00685
-209.908
640.496
25.2816
-184.835
672.224
106.953
-95.2548
688.951
151.141
-22.8929
684.84
152.254
5.55526
653.097
117.913
15.8186
586.88
59.2022
33.3292
11.7434
24.175
-900.567
85.1463
3263.37
29.1686
726.229
-980.733
736.891
409.584
-432.836
823.957
268.303
-104.314
830.447
-20.5655
-5.06592
809.116
-56.7241
-38.3797
682.038
-115.69
96.4263
616.821
-10.9818
-59.1484
529.759
37.3417
-15.8712
502.194
64.0143
-113.857
525.435
88.3558
-150.875
565.182
90.2825
-166.474
617.45
91.7488
-143.01
658.6
87.2505
-103.119
686.849
116.287
-37.5836
694.211
117.587
26.1931
681.614
104.564
60.2869
644.229
72.0064
83.2913
572.486
51.2221
79.723
17.5088
40.6767
612.51
737.143
3882.01
511.108
511.463
316.167
1089.78
117.358
-286.448
1476.32
184.485
-302.722
1418.46
53.5352
-16.2421
1299.78
48.2759
13.679
1028.57
26.9914
128.536
961.994
66.5503
-10.9589
919.795
84.6624
-5.1219
892.76
109.07
-18.0215
823.64
132.335
25.1402
770.273
126.196
17.4531
715.1
102.126
44.7955
676.165
74.5584
51.6278
650.778
72.5243
69.149
626.31
61.0435
81.0119
584.318
55.5387
91.0168
541.596
38.1479
76.5809
507.645
34.906
50.2669
14.8077
21.6298
1372.38
219.669
1276.11
1483.45
325.063
75.3253
986.049
153.491
461.272
933.901
102.958
133.674
759.423
14.6223
213.392
742.765
39.8145
25.119
690.715
12.2893
66.7518
719.169
15.873
22.2236
712.343
8.08607
83.4017
708.624
42.8727
69.9173
660.686
74.7513
105.522
609.08
85.1831
92.6189
545.312
64.7813
101.114
496.189
44.3106
79.371
466.639
34.3606
67.7136
450.262
25.3984
52.0216
445.31
24.2026
36.2884
445.369
17.2189
20.8693
452.413
16.1682
11.6946
7.05783
4.20069
1780.19
1802.86
1410.01
695.245
784.309
779.19
763.041
124.227
709.632
68.0302
783.853
-34.4063
783.7
12.4424
793.046
6.5275
720.341
80.7913
655.125
108.089
568.618
161.259
505.789
148.011
458.29
112.28
428.922
73.6787
419.077
44.2056
418.905
25.5708
427.488
15.6197
435.965
8.74117
446.783
5.3508
2.11128
528.886
2534.91
-1790.57
15.2154
-2.54262
434.947
288.911
-271.865
-235.074
314.473
-128.958
342.064
498.376
-231.168
279.852
599.526
-155.097
228.583
696.285
-131.173
160.45
779.971
-86.4427
37.74
833.926
-43.6409
-36.6754
888.225
-20.1033
-119.361
929.233
0.0637218
-152.245
975.167
-0.388732
-202.487
1016.21
1.75285
-222.396
1087.67
-8.79439
-258.13
1168.07
-5.20823
-223.154
1195.88
-6.062
-44.4368
1114.11
11.4209
108.528
945.883
39.9754
52.0454
768.791
112.514
-137.275
72.9331
-140.743
206.914
-23.3222
24.2304
543.541
-252.222
357.278
377.437
-208.96
784.323
415.641
-220.368
221.321
390.629
-277.022
159.427
453.928
-222.841
36.3202
511.634
-179.779
43.2807
547.534
-107.083
-15.3287
566.065
-59.9281
-28.2741
563.82
-14.4347
-74.9912
561.628
-7.51112
-81.2994
557.714
1.01233
-110.716
572.464
-9.34777
-125.128
613.439
-11.697
-115.784
651.145
0.153621
-3.07442
619.087
4.74596
187.883
541.455
38.3202
258.44
502.421
60.946
112.82
519.911
110.214
-5.45248
78.856
-14.1127
-58.7275
-1683.25
3627.24
-27.491
-187.048
-775.244
174.797
-338.2
-758.058
124.569
-259.068
33.7414
314.902
-419.059
-95.202
344.934
-263.235
-74.6178
470.82
-302.485
-2.51768
518.037
-157.671
-29.7403
547.648
-120.542
28.6287
534.055
-39.9941
14.3972
515.218
-43.5988
40.3311
492.894
-18.6566
40.369
481.006
-34.1523
73.9909
463.848
-27.6793
108.742
445.936
-18.9159
160.224
427.039
-0.490629
140.234
420.38
38.1683
86.8749
433.898
64.4944
28.55
457.615
107.581
18.3134
84.3417
14.6489
-1298.5
-1189.67
637.391
-499.632
-475.187
-1527.81
-52.0874
-847.095
-414.479
174.403
-499.25
-65.1293
330.551
-549.82
-6.34243
376.592
-304.699
-2.68723
494.351
-405.912
39.8465
527.624
-179.869
-16.5445
564.286
-163.195
40.0807
535.459
-10.2132
21.7542
496.436
-25.493
67.4293
440.815
19.795
72.1624
396.369
-6.62796
99.1837
353.722
5.89952
97.0034
324.51
5.42752
85.7645
303.98
17.0928
64.5127
304.702
38.2312
46.036
321.016
54.0226
27.6989
355.41
79.423
17.2255
64.5908
13.2606
230.796
-435.807
1358.15
183.512
-559.221
-734.369
144.267
-729.801
-71.7636
127.177
-480.108
115.673
180.398
-576.359
-138.92
144.791
-274.824
85.4922
311.717
-574.576
58.3549
325.574
-200.365
62.822
406.176
-268.803
106.391
393.852
-16.131
82.598
393.474
-63.4174
108.793
362.641
14.3927
108.556
343.209
-23.9257
99.4953
323.341
0.469369
76.8926
321.499
-9.5284
52.4353
324.775
5.571
31.5853
335.974
24.6512
16.5619
352.327
39.3977
7.60509
377.208
56.8571
5.23266
49.5756
4.0033
461.406
-1021.15
-4884.13
566.373
-634.051
-781.449
524.376
-558.956
530.811
362.17
-301.689
374.426
339.706
-484.391
-11.5608
245.566
-215.413
101.353
346.421
-685.677
114.643
263.446
-110.915
95.2079
331.409
-356.867
110.268
284.189
36.7368
46.6852
296.929
-104.401
92.8835
288.724
-4.94101
81.4514
295.026
-63.9799
88.013
292.23
-23.9801
66.8584
297.287
-36.6551
55.754
305.967
-15.1883
33.3646
317.986
7.53441
17.82
335.887
18.973
10.4694
356.821
34.6905
4.4199
33.0197
2.36882
1333.22
1427.5
1195.38
941.421
-333.123
-570.599
679.935
-150.411
-473.62
562.364
-157.458
-86.9919
521.938
-395.198
-130.692
393.475
-131.359
95.0833
195.539
-116.528
148.691
-168.491
-116.143
-162.753
55.5331
-29.867
124.502
26.654
10.2014
33.5997
48.6204
-87.984
52.0673
-85.9171
-85.0554
-89.257
-1.73275
30.4685
-79.5069
34.3812
25.6996
29.5306
75.2068
-25.4542
-0.434203
-44.9021
-26.9812
-50.5058
121.362
-18.6936
37.4777
-9.18597
-20.568
-9.47308
180.876
-31.9355
58.8678
-46.0615
-29.7431
-43.6067
224.308
-28.1407
57.9661
-24.6805
-26.4915
-22.9301
269.121
-104.244
41.1521
303.011
-62.3021
25.6809
332
-27.4646
11.841
352.121
-4.39377
6.24176
372.595
12.0074
4.05635
17.8686
1.8011
341.466
2266.57
-74.3361
562.01
163.414
-1107.87
811.792
65.1761
-722.503
757.374
-32.8876
-142.807
737.533
-329.838
-96.6199
167.191
-41.0062
108.805
175.085
156.727
160.666
-15.8887
-36.7772
-2.01587
-32.8934
129.235
-83.5622
37.8838
-43.0683
-67.6271
48.6329
-36.4478
68.6432
-44.4927
-37.5588
4.3685
-48.5734
38.2723
28.2547
27.5681
-3.65224
9.47623
-31.1783
-5.03496
-10.262
12.612
-19.8914
-2.87784
-18.8596
-14.642
29.453
-30.5337
15.8888
-26.1629
-50.4674
60.028
-45.9135
30.5803
-16.3966
-64.8348
74.3661
-49.3804
28.105
351.987
-48.1349
92.0639
-82.9062
-93.0444
-82.4796
-89.2932
-38.267
-41.0377
-33.424
357.524
-92.624
44.2152
356.457
-43.7645
30.4237
365.809
-23.9151
18.8046
374.37
-4.05302
14.2323
4.0691
7.19205
1762.06
1480.97
-880.875
1233.65
489.782
696.589
1152.7
259.348
-269.977
1036.1
25.9876
-402.594
244.017
-223.887
-195.591
246.504
210.461
211.743
-30.3124
269.344
-53.3429
17.3226
-20.2848
17.3769
-74.4363
71.1787
-15.2712
21.4366
5.86084
-45.9765
15.1003
41.0563
-15.6688
-0.372127
-21.8986
-24.2095
-1.77989
17.471
4.98065
25.4363
3.73808
-8.81243
-1.57057
10.3196
5.44049
-9.11514
1.74296
-12.7118
2.25903
12.6533
-0.980323
-2.96311
12.1368
-16.4107
12.8448
17.8476
-14.8646
-11.554
8.03338
-21.1672
13.722
22.1664
-14.5653
-8.18935
-4.02671
-23.7202
15.6718
24.8253
-16.9781
4.22796
-26.2849
-19.5077
107.711
-62.968
34.9629
-28.0884
-26.0111
-27.9492
395.184
-99.0456
65.2445
-103.868
-113.308
-100.268
-106.141
389.929
-52.207
27.9195
389.693
-33.6244
19.3795
390.48
-16.1003
21.3832
-6.22821
13.3918
866.527
548.066
1050.66
1286.43
59.7909
170.787
1292.67
178.635
-39.0188
1320.21
-46.1821
-265.595
331.144
-98.5328
170.37
329.801
272.194
273.231
-53.2769
63.6731
345.575
-53.7478
28.921
-26.8613
20.2807
-91.3103
92.9156
-20.5605
25.5357
-18.7655
9.44409
-92.1911
81.3902
-7.94476
28.0671
-22.6707
-10.2117
-40.0742
35.9167
9.31109
27.7289
-4.25769
-13.2388
-22.9271
24.0903
12.5831
3.75023
8.5666
-10.0767
-29.6461
31.311
12.9901
-13.1449
21.4609
5.82553
-30.0704
28.8367
-1.15228
-24.9004
2.2752
9.57709
-28.1601
27.4449
-7.3304
-3.80672
5.17356
14.468
-26.5187
27.9705
-9.77618
-11.3172
-34.3779
-8.43853
69.4868
136.715
-67.1631
5.66034
-34.8379
-33.2838
-33.7611
445.175
-81.9579
61.9467
-126.412
-131.913
-116.82
-123.862
419.358
-43.0262
30.5471
408.316
-33.0952
19.7487
401.48
-21.4641
22.7359
-14.15
14.7372
207.307
109.081
-127.772
666.168
-251.692
495.091
1130.64
-175.551
405.301
1345.14
-195.388
270.975
353.805
13.9201
337.341
361.449
303.632
303.64
-84.2054
39.9948
361.235
-12.5991
49.3794
-20.3596
15.5417
-87.881
83.5124
-9.70653
18.8931
-17.1686
-1.65352
-63.4839
60.987
3.99227
17.3268
-12.4742
-17.6347
-59.645
58.4346
16.5773
14.742
2.61688
-5.16375
-47.3154
41.1869
6.86859
1.80682
-16.7723
-15.9724
-34.869
35.5368
15.53
16.5469
7.01997
-7.62902
-38.9554
41.0693
8.62659
-10.1314
-4.9497
7.47036
-38.322
40.4154
-9.54271
4.92861
7.58276
8.49633
-38.7778
37.8339
-9.69776
-5.4374
-35.8051
2.11
58.2542
141.244
-49.7787
-11.1512
-34.841
-35.1828
-34.8492
453.264
-51.542
15.4939
-131.149
-120.192
-126.91
-123.701
425.093
-27.4678
16.2519
414.156
-31.1416
14.485
408.245
-26.8905
20.1081
-21.0962
13.3868
2066.2
1631.61
-2029.14
1514.93
417.66
-108.486
1084.54
99.1431
175.41
934.074
5.17184
2.19909
235.883
139.255
166.1
221.432
192.844
187.528
-73.0609
0.69722
253.616
6.63201
47.9985
-20.7373
-4.43577
-72.3633
72.9855
5.79008
18.7608
-5.37152
-11.143
-61.5167
58.1749
13.2745
6.58186
-3.68082
-14.0996
-54.6953
54.1059
15.4568
2.91298
-3.87444
-10.6007
-51.6769
51.0102
11.8532
3.28865
-1.39085
-9.04447
-48.5027
47.7162
8.87879
2.34305
-13.6949
-5.00773
-47.1207
48.959
2.41894
14.4454
-17.0361
13.7881
-44.7864
41.5193
-15.0487
21.5638
13.1974
8.80498
-41.63
41.4042
-9.66463
-12.112
-33.5
-6.00298
39.2353
114.007
-23.2642
8.05926
-32.8698
-33.1748
-32.4895
407.922
-44.8819
12.255
-105.628
-104.154
-107.846
-103.66
409.853
-33.7011
5.80121
411.106
-37.3156
6.69284
413.977
-38.332
14.2379
-29.9689
10.1959
-335.45
-367.492
418.668
234.01
143.347
-238.459
645.604
-194.227
-435.215
668.551
41.4746
-216.368
693.44
121.489
-76.5067
177.111
-32.3901
-78.7827
1.13257
34.5882
-7.87463
21.5733
169.028
166.554
159.369
-3.22179
4.83449
177.548
29.7046
-9.21377
-8.38634
-4.25558
-9.89873
-17.4925
-5.21105
-170.602
182.578
62.8164
5.32303
-19.3202
-18.293
-19.799
-19.479
-23.5674
-204.02
221.253
57.6195
26.5681
-19.5983
-19.4186
-19.357
-14.119
-23.6774
-222.593
226.539
46.2288
28.8661
-13.6234
-14.0238
-13.5974
-8.4985
-57.1425
-233.474
237.174
26.7334
60.8492
-8.1572
-8.82413
-8.66112
-1.21644
-19.257
-228.798
206.505
10.6061
34.586
0.0633806
-1.71278
-0.77603
9.64053
23.618
-178.101
149.815
-10.8543
-21.7333
9.99499
8.37012
9.24951
4.79037
-0.902117
-125.033
115.577
-5.71323
0.397043
3.43142
4.31003
3.14303
461.509
-7.9
119.381
11.8827
9.71105
12.2701
10.2797
-118.316
-162.856
-115.503
-149.656
429.743
-25.917
50.9465
414.19
-19.9231
13.2669
415.242
-40.0385
1.59173
420.977
-47.5372
2.32577
-37.9839
1.31244
1574.51
-731.566
320.803
1262.91
443.484
-765.693
960.682
206.948
-737.737
840.098
200.756
-193.672
702.583
230.612
38.6096
653.911
3.05175
16.7197
692.867
190.814
139.095
-44.4835
-86.4461
-48.6668
-91.8219
783.93
-18.0897
185.742
-35.743
-24.1412
-39.1987
-24.7898
852.066
49.6257
244.782
-37.6961
-52.6566
-38.9237
-54.9257
928.617
-53.7689
251.631
-24.6485
-16.3482
-27.1501
-18.4171
971.534
-9.10516
231.925
-16.4584
-22.1776
-19.9864
-26.1729
1005.51
-55.7763
181.097
-4.76655
1.458
-10.3255
-5.29387
1004.11
-12.645
171.341
-1.05561
-6.52635
-4.63884
-10.2732
956.189
-15.0943
169.101
1.9704
13.2459
-0.395231
12.4383
814.893
63.0156
186.617
655.054
79.1497
140.238
554.338
64.9015
41.317
503.203
2.78407
2.71223
481.423
-38.3864
8.99931
-35.5358
5.54163
962.599
1323.27
3725.32
913.648
780.156
629.089
610.711
657.705
-97.4195
499.344
252.602
134.525
489.901
186.602
187.823
504.817
-33.4706
77.9234
601.497
61.2478
146.814
632.181
-87.3691
101.811
663.976
5.91793
87.549
679.156
-70.826
18.9579
693.66
-4.05988
-37.3879
707.393
-39.3756
-91.2918
716.971
12.4488
-93.7406
715.798
25.168
-71.3917
695.563
115.367
-31.2788
669.353
133.551
-34.1958
631.572
103.412
-21.4542
577.759
35.436
-11.4154
525.061
-16.7657
19.022
-24.5491
16.2713
-740.354
688.577
4028.65
-41.7097
393.294
-1120.92
142.643
456.429
-235.305
186.1
123.032
292.405
333.304
-50.1005
235.766
329.148
-16.6145
-13.1322
388.622
3.6616
70.3877
380.711
-11.7253
-120.918
407.811
50.3935
-133.123
415.553
1.7167
-223.943
453.863
23.9781
-255.13
480.926
-14.9492
-269.503
519.47
15.7415
-251.744
551.967
36.5984
-228.762
617.528
99.7281
-145.177
696.399
102.464
-70.676
733.072
77.5834
-5.28885
710.332
43.1211
30.874
628.49
21.078
77.3266
0.147652
55.3836
1063.77
199.26
-900.024
-29.8467
475.701
30.4723
523.782
152.11
-682.146
410.281
78.8907
53.3283
365.375
-132.979
122.719
310.407
5.55959
-5.58524
295.421
18.7349
96.3389
266.082
101.013
-142.548
330.189
108.935
-138.52
346.314
85.2512
-213.516
403.661
54.6286
-238.873
435.111
19.2266
-232.101
488.831
12.7444
-193.733
545.88
14.3426
-137.912
619.631
46.3635
-57.9693
664.489
46.4112
37.3868
668.543
42.2119
91.6042
637.615
30.2052
127.135
572.057
36.0361
130.323
14.8763
67.952
-268.096
469.295
3189.74
124.774
279.557
119.442
627.683
-72.8764
-564.372
762.456
10.0024
-368.606
676.1
-86.6594
23.7942
640.473
34.1889
20.6771
521.263
85.62
180.862
474.856
153.037
-16.5762
445.464
157.323
-24.1185
451.605
134.503
-73.4142
482.535
90.7596
-41.9207
509.914
46.4513
-37.1505
533.807
24.6491
8.99714
545.778
9.73311
44.2661
551.838
18.0009
91.4513
546.368
17.6317
115.262
530.422
26.283
122.892
512.689
23.3857
101.134
497.314
29.9544
71.7239
14.5775
30.8934
548.906
-14.2697
322.754
707.23
-64.4642
261.022
662.352
-93.9374
527.211
688.137
-11.9315
129.824
546.22
-21.9902
290.64
524.629
61.4602
19.4391
470.016
65.4817
141.502
474.554
102.071
68.6529
464.884
84.5308
165.863
454.425
87.4108
127.468
439.752
59.6063
151.348
422.76
41.3289
114.733
419.629
20.6217
108.272
416.184
9.71
82.8399
421.611
10.9712
69.3153
426.829
11.8276
52.6076
435.857
16.4819
37.0623
444.025
13.6819
22.4052
456.219
14.752
14.7032
6.82793
5.98849
1278.02
872.77
1136.33
772.476
548.33
1273.25
576.822
83.8035
542.424
80.4384
594.17
-24.6922
590.523
81.571
602.966
96.1548
568.841
199.447
538.84
225.501
501.878
257.826
474.77
216.449
451.484
156.187
434.604
100.269
428.092
61.6878
428.072
37.4187
435.81
24.3638
443.803
14.4297
454.39
9.5162
3.76205
-1332.43
1370.62
-3209.57
-321.58
-304.643
-271.257
106.633
-266.089
-397.198
244.809
-64.5687
268.457
478.119
-141.116
187.659
589.881
-74.1953
191.017
683.557
-68.8522
135.625
753.651
-54.0075
21.6535
780.181
-41.9164
-21.2892
802.322
-53.316
-88.1855
814.095
-70.3974
-93.6203
835.675
-92.3559
-131.711
855.223
-97.7728
-144.171
880.649
-100.126
-183.43
942.906
-106.415
-178.996
1055.73
-104.553
-52.706
1112.4
-39.1637
91.024
1041.63
27.1756
95.6353
820.343
117.082
-33.0689
75.5904
-62.4199
176.643
276.656
1292.39
293.337
-622.367
558.309
199.779
-275.161
886.954
257.531
-123.886
222.885
298.893
-197.384
174.332
366.57
-131.12
25.5685
442.747
-115.424
13.675
480.334
-74.9191
-32.0036
511.163
-76.6014
-24.4178
511.109
-78.0324
-50.2208
505.382
-113.952
-32.0177
486.668
-126.912
-57.4457
470.697
-139.881
-67.0497
459.067
-126.258
-78.0216
468.953
-103.185
-16.1914
485.404
-59.9442
126.824
489.539
11.7361
203.405
481.443
60.6732
87.4186
477.117
123.676
-7.72101
84.6128
-16.9583
2331.15
-1316.82
-4148.02
808.983
-421.742
546.298
93.5439
-292.59
-25.1899
46.0864
-217.941
175.254
203.501
-376.261
-73.7397
227.875
-198.832
-31.2799
380.451
-264.891
-5.62733
427.15
-132.875
-18.4834
482.646
-134.2
30.7318
478.289
-76.1691
16.8902
458.179
-105.72
52.209
418.122
-89.9689
43.4832
389.661
-103.826
66.3966
369.923
-84.573
86.7955
367.26
-67.1615
126.863
373.003
-32.6175
107.164
382.924
29.0443
59.6451
393.628
64.3054
14.2143
418.021
111.759
5.83699
84.0336
4.59673
-260.864
-1309.05
-1215.24
-235.881
-445.418
-1529.12
-109.827
-705.203
-127.92
64.2323
-442.175
-14.9542
193.204
-510.417
-1.15824
249.134
-259.021
1.57215
403.44
-396.219
16.8692
438.935
-171.097
-13.8161
496.664
-187.54
35.6912
479.48
-63.0117
25.7803
446.154
-87.0965
82.132
387.556
-45.0296
85.8211
349.023
-67.3926
101.283
318.056
-39.6232
83.0215
302.283
-33.2033
67.5788
289.632
-4.31879
48.8653
297.055
30.6094
37.048
316.864
51.6123
20.583
353.222
80.1218
12.5045
64.3564
8.93936
261.697
-929.495
1844.7
111.931
-520.545
-509.475
85.8951
-705.419
-45.5123
100.098
-439.589
98.8851
89.0913
-533.032
-105.299
86.4075
-240.335
69.49
278.273
-567.981
38.2511
289.731
-184.665
64.9314
369.979
-269.861
108.464
349.493
-47.1414
87.2138
353.043
-114.182
132.329
327.844
-32.3278
121.053
319.461
-71.4055
111.891
307.769
-37.6747
86.6362
311.03
-36.4198
52.3903
319.725
-9.61736
28.1891
335.168
18.9173
12.8115
352.542
36.1464
5.69691
378.082
55.5899
4.2246
48.8657
3.11017
289.699
-1594.45
-2720.84
319.315
-832.75
-498.86
342.18
-537.214
339.742
298.797
-300.427
278.646
223.109
-454.678
-14.227
165.068
-178.326
97.3847
314.556
-674.145
71.3202
249.329
-85.5995
61.3692
314.66
-310.999
86.0751
247.322
33.6625
33.2198
249.611
-126.891
103.303
243.724
-23.7774
78.7881
261.126
-82.6493
81.8555
269.252
-37.6822
58.7399
284.322
-44.8329
49.0963
299.934
-22.0247
30.1607
315.525
5.78185
15.3639
335.4
17.6967
9.0447
356.541
34.3925
4.47598
32.8958
2.36467
1697.5
-1479.5
1310.1
1143.22
-660.884
-188.188
676
-198.035
-345.575
521.687
-194.449
-38.6575
419.684
-377.511
-105.855
289.843
-47.9839
94.5823
178.684
-113.182
135.506
-161.16
-114.112
-161.347
92.4626
14.1993
39.8577
39.8431
-1.48733
32.7118
94.6526
-59.6307
2.39778
-78.4952
-48.9331
-76.4602
23.374
24.7899
-85.3505
27.6241
25.4155
32.9551
78.1468
-31.2096
-8.74542
-57.9455
-29.3666
-54.8312
118.463
-27.9438
53.6426
-14.6622
-25.147
-12.5059
176.8
-30.3624
54.9536
-40.9768
-28.3355
-37.3973
216.627
-23.6191
62.0332
-21.6673
-19.6668
-16.6223
263.872
-92.7306
41.8044
300.107
-61.4447
28.8658
330.932
-27.0976
13.8957
351.594
-4.19153
7.46767
372.289
12.6786
5.07542
18.1683
2.23353
2955.58
113.846
2472.78
1332.53
88.4109
-234.12
821.749
61.6523
-471.411
653.892
-91.2746
-78.1242
570.396
-320.354
-70.2813
123.774
-8.37807
112.167
125.281
114.071
114.223
18.3272
2.16874
29.583
-54.099
84.1743
-75.3242
55.8411
-80.0692
-23.7135
26.7567
9.85808
81.3671
-13.342
-43.8663
23.5542
-23.8283
-2.14824
32.2808
9.82583
4.12575
12.797
-34.2395
-2.05292
-23.0543
28.1369
-34.2471
0.00789428
-22.0247
-26.8663
40.1608
-46.0947
26.8812
-34.493
-55.8444
61.4204
-34.9675
33.5221
-36.6154
-64.143
73.1272
-32.798
36.8102
336.873
-27.2802
85.108
-80.2627
-82.5978
-76.6155
-79.174
-28.7828
-22.2279
-25.7072
349.575
-80.5966
50.6651
354.439
-41.9835
40.4457
365.213
-22.9461
26.7848
373.711
-3.10842
21.5219
4.26585
10.7555
745.017
1474.3
-1504.83
927.047
200.345
402.624
835.432
139.957
-256.666
686.315
-116.815
-227.937
149.145
-235.823
-126.946
144.051
125.45
114.494
-19.0707
168.93
-29.0951
20.0026
-26.0055
11.5502
-49.2145
45.4278
-6.66639
24.9085
-20.9384
-30.061
5.58764
23.6442
-6.49065
28.2582
-18.4477
-19.4174
-5.66458
21.2514
9.96208
12.3161
21.1112
-17.341
-3.64597
16.1916
4.83905
-21.155
13.3104
-17.077
5.98543
16.8525
-2.61503
-16.4563
7.73657
-15.0167
14.5106
14.5522
-15.2555
-6.5272
7.08682
-14.7183
11.0702
15.3058
-13.841
-4.9035
-6.66084
-16.6305
9.79324
17.9855
-11.1716
6.68423
-21.4648
-45.3231
92.0418
-31.3589
41.5104
-21.8876
-20.4541
-20.344
381.112
-77.3534
57.7236
-94.138
-97.1414
-91.9835
-93.5715
384.995
-46.7094
28.7626
388.161
-31.1881
24.4551
390.103
-14.5128
30.8464
-5.52271
19.1985
-74.1916
1333.13
-428.922
610.274
-127.818
-185.516
727.207
87.6619
-103.657
645.162
-175.899
-124.466
164.377
-105.849
109.782
162.906
124.614
123.88
-33.9924
49.4173
177.095
-48.2142
20.0714
-26.3959
6.76088
-51.537
54.333
-7.89091
24.7299
-45.0767
-1.03972
-50.5108
40.5379
6.79103
49.2983
-33.12
-16.9491
-24.0358
25.1005
18.5451
30.4593
9.13641
-2.99055
-33.0412
35.2504
4.94715
-13.3023
-34.506
21.3731
-4.80409
34.2497
5.9686
-22.2814
-27.9161
27.0774
11.2113
-8.90466
-25.8009
24.3329
10.0856
17.6286
-20.8678
21.1828