/*--------------------------------*- C++ -*----------------------------------*\
  =========                 |
  \\      /  F ield         | OpenFOAM: The Open Source CFD Toolbox
   \\    /   O peration     | Website:  https://openfoam.org
    \\  /    A nd           | Version:  10
     \\/     M anipulation  |
\*---------------------------------------------------------------------------*/
FoamFile
{
    format      ascii;
    class       volScalarField;
    location    "1.2";
    object      turbidity;
}
// * * * * * * * * * * * * * * * * * * * * * * * * * * * * * * * * * * * * * //

dimensions      [0 0 0 0 0 0 0];

internalField   nonuniform List<scalar> 
12920
(
-0.0892218
-0.0989978
-0.101157
-0.125707
-0.14929
-0.17608
-0.19909
-0.210212
-0.203967
-0.186091
-0.168455
-0.151105
-0.13906
-0.134044
-0.141186
-0.160657
-0.170144
-0.157465
-0.153987
-0.192357
-0.0149075
-0.0347362
-0.0622503
-0.0910311
-0.120079
-0.156543
-0.193016
-0.215623
-0.216142
-0.199915
-0.184615
-0.172808
-0.170691
-0.181366
-0.197684
-0.214012
-0.230366
-0.250747
-0.283499
-0.340727
-0.0329399
-0.0553471
-0.0628206
-0.0823324
-0.114227
-0.144726
-0.187319
-0.216149
-0.23899
-0.244082
-0.246635
-0.247717
-0.252583
-0.264296
-0.284129
-0.312445
-0.344285
-0.380607
-0.420277
-0.471562
-0.0411407
-0.0372152
-0.0757019
-0.103231
-0.136766
-0.17655
-0.223989
-0.255449
-0.280519
-0.293891
-0.306906
-0.321371
-0.345148
-0.376347
-0.412649
-0.448184
-0.477066
-0.503534
-0.527112
-0.553368
-0.0671654
-0.0653154
-0.13042
-0.198539
-0.192244
-0.248255
-0.287909
-0.326092
-0.350852
-0.36137
-0.383693
-0.407412
-0.443937
-0.477383
-0.508131
-0.531909
-0.549193
-0.562995
-0.57375
-0.583343
-0.0373548
-0.0597965
-0.0913434
-0.157925
-0.162899
-0.207022
-0.243919
-0.304252
-0.34164
-0.383194
-0.41982
-0.457034
-0.491354
-0.522985
-0.546391
-0.563756
-0.575023
-0.582428
-0.587371
-0.590871
-0.0557351
-0.0631127
-0.0908398
-0.131099
-0.143703
-0.184869
-0.205088
-0.277418
-0.300917
-0.352239
-0.366106
-0.416337
-0.40302
-0.43516
-0.457751
-0.497073
-0.530762
-0.55197
-0.563568
-0.569952
-0.0320865
-0.0545425
-0.0697745
-0.0872329
-0.1047
-0.133674
-0.142229
-0.182134
-0.220386
-0.300546
-0.182778
-0.127766
-0.134926
-0.125046
-0.140102
-0.201457
-0.266966
-0.325375
-0.376489
-0.414986
-0.0116325
-0.0255907
-0.0428499
-0.0568885
-0.0769195
-0.0827998
-0.0992907
-0.156913
-0.196683
-0.138745
-0.105243
-0.0850771
-0.0923963
-0.0696481
-0.0517202
-0.0946198
-0.143264
-0.19535
-0.249105
-0.301554
-0.0270372
-0.0369337
-0.0436534
-0.0506018
-0.061052
-0.0632879
-0.0686371
-0.110666
-0.174854
-0.160335
-0.11471
-0.0883205
-0.0996856
-0.0881106
-0.0705832
-0.0941484
-0.136146
-0.184303
-0.2355
-0.287491
-0.0201419
-0.0332525
-0.0443999
-0.0543539
-0.0658715
-0.0684364
-0.077866
-0.0988525
-0.148237
-0.163506
-0.157095
-0.123672
-0.115137
-0.0963292
-0.0678894
-0.0901207
-0.135652
-0.186299
-0.238065
-0.289422
-0.0176446
-0.0284424
-0.0478369
-0.0628982
-0.0766858
-0.0769094
-0.0821712
-0.0964218
-0.112699
-0.135259
-0.146263
-0.133186
-0.10674
-0.0884272
-0.0662536
-0.115862
-0.169596
-0.225738
-0.278357
-0.325055
-0.0216156
-0.0294846
-0.0468772
-0.0637842
-0.0879911
-0.12016
-0.125558
-0.122777
-0.120215
-0.122236
-0.129769
-0.141688
-0.146339
-0.138334
-0.189278
-0.240144
-0.295887
-0.351828
-0.400527
-0.438562
-0.0137084
-0.026152
-0.0416447
-0.0665796
-0.0966939
-0.129726
-0.152417
-0.174896
-0.189894
-0.201089
-0.209233
-0.217091
-0.23058
-0.251578
-0.28057
-0.321525
-0.37168
-0.423728
-0.477914
-0.522785
-0.0114305
-0.0425864
-0.0649165
-0.103375
-0.138786
-0.167116
-0.183939
-0.19191
-0.195332
-0.19159
-0.187505
-0.186197
-0.201948
-0.235389
-0.279155
-0.315196
-0.351073
-0.398521
-0.461658
-0.515734
-0.0756761
-0.050618
-0.0783394
-0.120712
-0.145871
-0.160308
-0.174118
-0.175046
-0.171126
-0.154236
-0.142844
-0.141283
-0.153702
-0.184727
-0.242007
-0.301858
-0.353921
-0.404073
-0.454882
-0.502592
-0.0437387
-0.0613094
-0.0854344
-0.107114
-0.12275
-0.139486
-0.158962
-0.171156
-0.177323
-0.162614
-0.155003
-0.162478
-0.185598
-0.224789
-0.277362
-0.328985
-0.377162
-0.427372
-0.479473
-0.526609
-0.0209708
-0.0565838
-0.0586768
-0.0687667
-0.0867902
-0.108331
-0.130212
-0.148816
-0.168923
-0.189163
-0.210479
-0.235611
-0.265917
-0.303809
-0.346181
-0.394135
-0.445059
-0.496071
-0.537794
-0.56651
-0.022896
-0.049684
-0.076326
-0.0985486
-0.117732
-0.142687
-0.171914
-0.20083
-0.223924
-0.244891
-0.269862
-0.308311
-0.358375
-0.414291
-0.463526
-0.505747
-0.537638
-0.561086
-0.57598
-0.58517
-0.0171065
-0.0603347
-0.080569
-0.090545
-0.108835
-0.1324
-0.160725
-0.191341
-0.225322
-0.265657
-0.313199
-0.372262
-0.436354
-0.493181
-0.533889
-0.560061
-0.575583
-0.584795
-0.590046
-0.593026
-0.0183993
-0.0441955
-0.0367814
-0.0674539
-0.0824378
-0.08867
-0.0850313
-0.0674643
-0.0515399
-0.0397721
-0.0316249
-0.0257716
-0.0218047
-0.0194662
-0.0182146
-0.0184138
-0.018966
-0.0175358
-0.0209459
-0.035291
-0.0229921
-0.0265367
-0.0290862
-0.0331892
-0.0502402
-0.0578109
-0.0647607
-0.051144
-0.0385336
-0.0292512
-0.0251664
-0.0258938
-0.0335285
-0.0523516
-0.0871664
-0.114655
-0.112271
-0.0823818
-0.071169
-0.0950633
-0.0330135
-0.017418
-0.0180735
-0.029163
-0.0459015
-0.0522216
-0.0688583
-0.0682554
-0.0670783
-0.0624996
-0.068118
-0.0817374
-0.105057
-0.12319
-0.131631
-0.121065
-0.101874
-0.0878162
-0.0959613
-0.10498
-0.0127503
-0.00787957
-0.0299014
-0.0468324
-0.0594098
-0.0723061
-0.0978453
-0.102841
-0.115133
-0.115018
-0.125206
-0.139601
-0.15708
-0.16029
-0.146918
-0.12087
-0.0964842
-0.0813865
-0.0765332
-0.0673672
-0.0137537
-0.018689
-0.0620317
-0.0838684
-0.0606787
-0.0895587
-0.112001
-0.134657
-0.152494
-0.166072
-0.176392
-0.177861
-0.16606
-0.139631
-0.105887
-0.0744871
-0.0533091
-0.0412668
-0.0354264
-0.0274993
-0.0149468
-0.0432213
-0.0742728
-0.0884707
-0.0616962
-0.0850962
-0.105822
-0.133536
-0.122627
-0.144024
-0.149144
-0.158412
-0.150097
-0.132558
-0.106658
-0.0773573
-0.0510016
-0.0326475
-0.0204741
-0.0128539
-0.0117311
-0.0163427
-0.0275575
-0.0488867
-0.0537454
-0.0749214
-0.0911964
-0.112593
-0.0594865
-0.049807
-0.0645234
-0.0688417
-0.0645158
-0.0571902
-0.0466575
-0.0350569
-0.0242939
-0.0160645
-0.0107686
-0.00695411
-0.0524003
-0.0163909
-0.0162481
-0.0228942
-0.0382585
-0.0622789
-0.0797217
-0.138635
-0.0976099
-0.0433744
-0.0822726
-0.0859169
-0.080954
-0.0685628
-0.0450412
-0.0304297
-0.0216619
-0.0157004
-0.0120224
-0.00842481
-0.031821
-0.0173774
-0.0142723
-0.0202436
-0.0353195
-0.0507989
-0.0749489
-0.103968
-0.155721
-0.0317714
-0.0482338
-0.0327978
-0.0453161
-0.0600583
-0.05904
-0.0286748
-0.0177081
-0.012689
-0.0121892
-0.0111533
-0.00691566
-0.0121586
-0.0165092
-0.021479
-0.0329653
-0.040134
-0.0529064
-0.0678638
-0.13884
-0.0562505
-0.0200806
-0.0218813
-0.0418925
-0.0556278
-0.0578274
-0.0267213
-0.0169507
-0.0121676
-0.0121455
-0.0116006
-0.00881695
-0.0158226
-0.0230104
-0.028045
-0.0385974
-0.0453489
-0.0581866
-0.0780032
-0.103565
-0.11748
-0.105206
-0.0497137
-0.0953225
-0.10106
-0.0597977
-0.0170894
-0.00986693
-0.00805521
-0.00992189
-0.0104729
-0.0021035
-0.00595008
-0.012435
-0.0168725
-0.0336126
-0.0456983
-0.0612575
-0.0694279
-0.0787296
-0.0974044
-0.104987
-0.124129
-0.11827
-0.102985
-0.0502897
-0.0125936
-0.00791903
-0.00789209
-0.0104037
-0.0108888
-0.00199022
-0.0036978
-0.00495209
-0.00787656
-0.0166452
-0.0291106
-0.0398698
-0.0607507
-0.074124
-0.0835183
-0.10023
-0.108257
-0.0967222
-0.0693524
-0.063637
-0.0429437
-0.0272449
-0.0201473
-0.0169131
-0.0138238
-0.00250327
-0.00407152
-0.00586701
-0.00846954
-0.0153646
-0.0285209
-0.052437
-0.0745506
-0.0949705
-0.107019
-0.116631
-0.122409
-0.132701
-0.144514
-0.150523
-0.131865
-0.0877051
-0.0571735
-0.0446493
-0.0375609
-0.01817
-0.015476
-0.013017
-0.0306581
-0.0443636
-0.0456028
-0.0577982
-0.0551097
-0.0569037
-0.0487963
-0.0481476
-0.0525406
-0.0639257
-0.0777954
-0.0877627
-0.0808767
-0.070459
-0.0669571
-0.069373
-0.0669054
-0.0471537
-0.0169019
-0.0184306
-0.0536339
-0.0522924
-0.0354807
-0.0344033
-0.0288397
-0.0310684
-0.0330252
-0.0356762
-0.0378695
-0.0426405
-0.0499919
-0.0603411
-0.0685983
-0.0852171
-0.112097
-0.13749
-0.138477
-0.0742902
-0.0263717
-0.0204085
-0.031868
-0.0374901
-0.0305638
-0.0373266
-0.0292433
-0.0279255
-0.0290631
-0.0333018
-0.0429802
-0.0550653
-0.0698179
-0.0898949
-0.124548
-0.168879
-0.209183
-0.221198
-0.188151
-0.0187367
-0.0118341
-0.0137436
-0.0207277
-0.032481
-0.0377959
-0.0373493
-0.0328399
-0.0406939
-0.0525519
-0.0748413
-0.100371
-0.133139
-0.164352
-0.193409
-0.219416
-0.231349
-0.215589
-0.173711
-0.117433
-0.0100976
-0.0162968
-0.0279355
-0.0372378
-0.0393165
-0.034484
-0.049613
-0.0644088
-0.0920524
-0.117989
-0.151615
-0.176258
-0.19073
-0.186435
-0.170907
-0.14288
-0.111768
-0.0778808
-0.0500774
-0.0273714
-0.00778639
-0.0268133
-0.0359333
-0.0259008
-0.0222968
-0.0249984
-0.0381008
-0.0613628
-0.104985
-0.154747
-0.20577
-0.239812
-0.243764
-0.212868
-0.162723
-0.112276
-0.0726203
-0.0438401
-0.0251829
-0.0132893
-0.0127657
-0.0267943
-0.0194985
-0.0400553
-0.0478474
-0.0501733
-0.0464178
-0.0383214
-0.0319433
-0.0267763
-0.0230716
-0.0202165
-0.0180702
-0.0169517
-0.0177196
-0.0188378
-0.0172693
-0.0157291
-0.0159376
-0.020805
-0.0182787
-0.0173039
-0.0170808
-0.0203482
-0.0276607
-0.0274353
-0.0285719
-0.0262735
-0.0257054
-0.0253288
-0.0254648
-0.0244932
-0.0236867
-0.025825
-0.0384138
-0.0533912
-0.0484127
-0.0301155
-0.0232487
-0.0277422
-0.0325051
-0.0204032
-0.013607
-0.0169823
-0.02295
-0.024655
-0.0322717
-0.034586
-0.0391633
-0.0407979
-0.0445105
-0.0471987
-0.0509236
-0.0520615
-0.0485765
-0.0354801
-0.0230597
-0.0156018
-0.0164986
-0.0182881
-0.00419682
-0.0047163
-0.0124998
-0.0234697
-0.0303281
-0.0323928
-0.0436461
-0.0447269
-0.0533114
-0.0557542
-0.0621097
-0.0643993
-0.0631831
-0.0528169
-0.0378486
-0.0234678
-0.014538
-0.0100428
-0.00904183
-0.00775874
-0.00827468
-0.00820588
-0.0217036
-0.0390672
-0.036711
-0.0444122
-0.0554372
-0.0633299
-0.0728156
-0.0821724
-0.0843121
-0.0779121
-0.0603503
-0.0394631
-0.0217997
-0.0107854
-0.00562339
-0.00344786
-0.00269951
-0.00194325
-0.00749468
-0.0232718
-0.0394035
-0.0469874
-0.041986
-0.0518504
-0.0586864
-0.0588691
-0.0490216
-0.0522218
-0.0525957
-0.0524554
-0.0447765
-0.0332378
-0.0214978
-0.0117222
-0.00560485
-0.00263513
-0.00130581
-0.000668246
-0.00684514
-0.00936896
-0.0179232
-0.0330244
-0.0383832
-0.0505908
-0.058193
-0.0469865
-0.0208725
-0.0168492
-0.0212274
-0.0224203
-0.0216174
-0.0151725
-0.00944062
-0.00495388
-0.00238105
-0.00113502
-0.000563166
-0.000273329
-0.0082456
-0.0123876
-0.0129262
-0.0164935
-0.028998
-0.042881
-0.0547079
-0.0705358
-0.0259028
-0.0184566
-0.0335041
-0.0485529
-0.0554036
-0.0487999
-0.0256243
-0.0128972
-0.00610005
-0.00274297
-0.00123445
-0.000533389
-0.00753736
-0.00861553
-0.00996512
-0.0159065
-0.0311017
-0.0450564
-0.0647836
-0.0823103
-0.050974
-0.0191396
-0.0196658
-0.0259689
-0.0389371
-0.0448863
-0.039743
-0.0132464
-0.00608505
-0.00273262
-0.00143999
-0.000807811
-0.00450646
-0.00773517
-0.0126373
-0.0149484
-0.024164
-0.0295842
-0.0412255
-0.0657009
-0.102149
-0.0337133
-0.0169683
-0.0215653
-0.0387587
-0.0395176
-0.0261373
-0.00997531
-0.0048491
-0.00224296
-0.00129346
-0.000809918
-0.00220993
-0.00628507
-0.0103985
-0.0142023
-0.0234939
-0.0282156
-0.0399007
-0.0615157
-0.0838663
-0.0597757
-0.0274601
-0.0309655
-0.0460598
-0.0610292
-0.0273587
-0.00636878
-0.00267803
-0.00124448
-0.000869026
-0.000648879
-0.00216085
-0.00461812
-0.00746259
-0.00960431
-0.0202893
-0.0262913
-0.0365104
-0.0455255
-0.0624781
-0.06888
-0.0626579
-0.0675897
-0.100208
-0.0960792
-0.0296002
-0.00460718
-0.00245991
-0.00180051
-0.0015388
-0.0011485
-0.00191835
-0.00155199
-0.00320213
-0.00605493
-0.0117549
-0.0189669
-0.0243969
-0.0336955
-0.0426708
-0.0516869
-0.0672501
-0.0782875
-0.067983
-0.0398276
-0.0276283
-0.0170485
-0.0113228
-0.00855087
-0.00643757
-0.00437222
-0.000346597
-0.00162677
-0.00425462
-0.00737203
-0.0116383
-0.0200657
-0.0330504
-0.0494055
-0.0651417
-0.0770167
-0.0851568
-0.0903921
-0.0947693
-0.0980803
-0.0917375
-0.0677932
-0.0414993
-0.0277621
-0.0208173
-0.0149622
-0.00420184
-0.0073491
-0.0116193
-0.0214654
-0.025048
-0.0279651
-0.0370425
-0.0416563
-0.0500096
-0.0557878
-0.0620514
-0.0643454
-0.0660954
-0.0619976
-0.0541845
-0.0456387
-0.0430451
-0.0438458
-0.0418185
-0.0339229
-0.0277843
-0.0168698
-0.0162327
-0.0309816
-0.0262713
-0.0232597
-0.0293308
-0.0323131
-0.0380005
-0.0381088
-0.0398424
-0.0379917
-0.038995
-0.0419258
-0.0470371
-0.0571445
-0.0680806
-0.0778652
-0.0808
-0.0693474
-0.00834292
-0.0130034
-0.0139124
-0.0201983
-0.0218494
-0.0224293
-0.0270835
-0.0279749
-0.029233
-0.0287866
-0.0302099
-0.0365924
-0.0484935
-0.0668297
-0.0879436
-0.107759
-0.125457
-0.133036
-0.119513
-0.0839612
-0.0170585
-0.0109538
-0.0106211
-0.0144432
-0.0196605
-0.0222297
-0.025946
-0.0314965
-0.0374998
-0.0456056
-0.0528076
-0.06028
-0.0758256
-0.0948987
-0.113511
-0.11997
-0.111113
-0.0856632
-0.056309
-0.0306137
-0.00460893
-0.0134623
-0.019921
-0.0222699
-0.0248602
-0.0329019
-0.0466436
-0.0632856
-0.0844611
-0.0965315
-0.104736
-0.0981768
-0.0845359
-0.0649339
-0.0468554
-0.0312828
-0.0204987
-0.0125929
-0.00747683
-0.00368323
-0.00939705
-0.0213147
-0.0219309
-0.0180552
-0.0192271
-0.0257546
-0.0383112
-0.0582644
-0.0900922
-0.127353
-0.160028
-0.169936
-0.150344
-0.110406
-0.0689536
-0.0379767
-0.019181
-0.00906054
-0.00406823
-0.00172009
-0.00790043
-0.0151743
-0.0136174
-0.0237934
-0.0289798
-0.0315367
-0.0302575
-0.0262504
-0.0229682
-0.0204462
-0.0187994
-0.0172038
-0.0154636
-0.0137751
-0.0129575
-0.0130678
-0.0129716
-0.0125519
-0.0120266
-0.0117834
-0.00740635
-0.011773
-0.013489
-0.017192
-0.0193149
-0.0191758
-0.0195801
-0.0197148
-0.0207863
-0.021218
-0.020879
-0.0188132
-0.0158636
-0.0130548
-0.0134223
-0.0181185
-0.0173744
-0.0121029
-0.00962881
-0.00869577
-0.00539929
-0.0112569
-0.0117854
-0.0142283
-0.0160596
-0.0181328
-0.0219802
-0.0241317
-0.0270734
-0.0275242
-0.0276363
-0.0251412
-0.0219451
-0.0184601
-0.0149721
-0.0101308
-0.00700379
-0.00565333
-0.00508134
-0.00424245
-0.00500064
-0.00662171
-0.0117332
-0.0154255
-0.0181014
-0.0186841
-0.0240011
-0.0248808
-0.0300797
-0.0314237
-0.0330611
-0.0297352
-0.0232162
-0.0151064
-0.00868057
-0.0048092
-0.00314647
-0.00244182
-0.00208571
-0.0015191
-0.00372253
-0.00933887
-0.0157812
-0.0233375
-0.0238128
-0.0264821
-0.0321269
-0.0360929
-0.0399771
-0.0430787
-0.0398766
-0.0321392
-0.0205123
-0.0108495
-0.00483991
-0.00214519
-0.00117877
-0.000803434
-0.000609668
-0.000395479
-0.00641091
-0.0123485
-0.0212295
-0.0303465
-0.0289844
-0.0321007
-0.0348392
-0.0295949
-0.024112
-0.0218512
-0.019133
-0.0153012
-0.0107778
-0.00656695
-0.00352188
-0.00163371
-0.000736977
-0.000360958
-0.000198156
-0.000106163
-0.00632365
-0.00832575
-0.0152008
-0.0258606
-0.0301947
-0.036286
-0.0390372
-0.0278613
-0.0170147
-0.0112717
-0.0092198
-0.00717649
-0.00640569
-0.00382761
-0.00219951
-0.000980592
-0.000387631
-0.000158092
-7.2646e-05
-3.43034e-05
-0.0109876
-0.0100841
-0.0109419
-0.0161783
-0.0275868
-0.0333004
-0.0407295
-0.0407338
-0.0235823
-0.0101813
-0.0201358
-0.033911
-0.0318284
-0.0244236
-0.0103997
-0.00469112
-0.00199368
-0.000792471
-0.00030368
-0.000112045
-0.00399794
-0.00536608
-0.00848285
-0.0170998
-0.0332538
-0.042524
-0.051222
-0.0593442
-0.0345652
-0.0172739
-0.0185149
-0.027667
-0.0356569
-0.0369156
-0.0189632
-0.00447325
-0.00185546
-0.000736253
-0.000303679
-0.000122649
-0.00352551
-0.00522583
-0.00949088
-0.0157569
-0.0267177
-0.0345198
-0.0489359
-0.062479
-0.0430636
-0.0252198
-0.0154393
-0.0208432
-0.0336146
-0.0252461
-0.0103738
-0.00297753
-0.00128435
-0.00051768
-0.000225163
-9.83883e-05
-0.00136981
-0.00264657
-0.00497022
-0.0112816
-0.0207704
-0.0271335
-0.0406678
-0.0600859
-0.0639031
-0.0565422
-0.0391541
-0.0289868
-0.0446078
-0.0491713
-0.0144129
-0.00231517
-0.000882025
-0.000345067
-0.000162181
-8.12404e-05
-0.000779029
-0.00279349
-0.00513113
-0.00943905
-0.0167702
-0.0203713
-0.0264926
-0.0411563
-0.0477319
-0.0497327
-0.0430926
-0.0399937
-0.0679476
-0.0710449
-0.0138806
-0.00190088
-0.00103438
-0.000698902
-0.000491864
-0.000300577
-0.000377309
-0.000792913
-0.00271952
-0.00670806
-0.0122573
-0.018315
-0.0207195
-0.0247268
-0.0302809
-0.036761
-0.0486308
-0.0550779
-0.0394452
-0.0182329
-0.01209
-0.0076522
-0.00501068
-0.00357393
-0.00248345
-0.00153587
-0.000347403
-0.00141631
-0.00469442
-0.00899358
-0.0129548
-0.0203601
-0.0276621
-0.039909
-0.0500854
-0.0588757
-0.0633055
-0.0642343
-0.061881
-0.0579254
-0.04731
-0.0302094
-0.0175125
-0.0115975
-0.00829919
-0.00548892
-0.0024058
-0.00482833
-0.0117753
-0.0185021
-0.0213995
-0.0272012
-0.0326872
-0.038824
-0.0464082
-0.0497768
-0.0513836
-0.0471531
-0.0422765
-0.0340167
-0.0269464
-0.0231603
-0.0222389
-0.021668
-0.0191134
-0.0139514
-0.0486085
-0.0170576
-0.0173859
-0.0228581
-0.0229794
-0.025985
-0.0314619
-0.032906
-0.0368873
-0.0350507
-0.0342398
-0.029106
-0.0264782
-0.02619
-0.029327
-0.0346668
-0.0389193
-0.0410371
-0.0389942
-0.0298539
-0.0145551
-0.0121858
-0.0141342
-0.0180767
-0.0207017
-0.026166
-0.0303594
-0.0317257
-0.0310722
-0.0280836
-0.024382
-0.0222863
-0.0246722
-0.0318946
-0.0436237
-0.0554601
-0.0636827
-0.0618876
-0.0492325
-0.0303159
-0.0141423
-0.00573496
-0.00873018
-0.0145015
-0.0198632
-0.0274007
-0.0345169
-0.0430605
-0.0468834
-0.0455421
-0.0390196
-0.03134
-0.0272413
-0.0300387
-0.0380377
-0.0394885
-0.0337244
-0.0229891
-0.0135018
-0.00670705
-0.00678188
-0.0116738
-0.0172253
-0.0225603
-0.0310054
-0.0445412
-0.0553742
-0.0647142
-0.0738043
-0.0755445
-0.0706695
-0.0568034
-0.0386143
-0.0226427
-0.0121005
-0.00642129
-0.00380106
-0.00230143
-0.00138206
-0.000687415
-0.00965612
-0.0156608
-0.0160382
-0.0172273
-0.0216768
-0.0287744
-0.0389597
-0.0540141
-0.0766255
-0.101371
-0.118932
-0.117097
-0.0949504
-0.0633004
-0.0357186
-0.0178319
-0.00819782
-0.00357667
-0.00150134
-0.000609716
-0.0162322
-0.0124916
-0.0118502
-0.0148185
-0.0175728
-0.0194039
-0.0187682
-0.0172173
-0.0164403
-0.0158922
-0.0150805
-0.0139791
-0.012715
-0.0114496
-0.0104807
-0.0101637
-0.0104449
-0.0105444
-0.00992327
-0.00825567
-0.0108608
-0.0116824
-0.0132112
-0.0152585
-0.0161563
-0.0165419
-0.0169939
-0.0170791
-0.0166578
-0.0154266
-0.0137038
-0.0117094
-0.00972637
-0.00807718
-0.00728157
-0.0074753
-0.00737844
-0.00672372
-0.00588621
-0.00422737
-0.00467297
-0.00972465
-0.0120221
-0.0139461
-0.0155589
-0.0172846
-0.0185217
-0.0187106
-0.0183881
-0.0166486
-0.0148277
-0.0122061
-0.00984777
-0.00790821
-0.0064324
-0.00513946
-0.00430269
-0.00367686
-0.0029516
-0.00190731
-0.000516874
-0.0040451
-0.00988562
-0.0129929
-0.0145825
-0.0158182
-0.0176474
-0.0180501
-0.0188793
-0.0177351
-0.0162369
-0.0130082
-0.00928356
-0.00608635
-0.00389404
-0.00263729
-0.00201081
-0.00157973
-0.00116723
-0.000690866
-0.00211376
-0.00695568
-0.0130127
-0.0159629
-0.0170622
-0.0181793
-0.0201103
-0.0213708
-0.0210326
-0.0199256
-0.0166548
-0.0124072
-0.00770132
-0.00443361
-0.00250001
-0.00153824
-0.00103392
-0.000692401
-0.000444007
-0.000244484
-0.00146964
-0.0105519
-0.016337
-0.0200725
-0.0198946
-0.0203011
-0.0205514
-0.01822
-0.015042
-0.0130466
-0.00965379
-0.0067353
-0.00402549
-0.00228394
-0.00122662
-0.000682091
-0.000410657
-0.000246411
-0.000142881
-7.3526e-05
-0.0078044
-0.0101948
-0.0155926
-0.0215613
-0.0229759
-0.0239199
-0.0233007
-0.0182014
-0.0125356
-0.00903113
-0.0046794
-0.00261267
-0.00145904
-0.000794551
-0.00044006
-0.000221464
-0.000115795
-6.32196e-05
-3.49379e-05
-1.74397e-05
-0.00600864
-0.00838194
-0.0112579
-0.0178476
-0.0231562
-0.0241145
-0.0271739
-0.024572
-0.0159078
-0.00713258
-0.00750753
-0.00986124
-0.00677945
-0.0044711
-0.00158978
-0.000663842
-0.000274714
-0.000106363
-4.11608e-05
-1.53275e-05
-0.00207232
-0.00703697
-0.0119601
-0.0195648
-0.0263959
-0.0293385
-0.0303816
-0.0362975
-0.020957
-0.00989981
-0.0125939
-0.0216138
-0.0177368
-0.0109674
-0.00310254
-0.000506425
-0.00017853
-6.40113e-05
-2.75206e-05
-1.05843e-05
-0.00126679
-0.00589387
-0.0118196
-0.0187301
-0.0242027
-0.0296262
-0.0367983
-0.0378345
-0.0211768
-0.0123178
-0.0103426
-0.00777389
-0.00791788
-0.00601265
-0.00187763
-0.000320658
-0.000121847
-4.41885e-05
-1.98151e-05
-7.99007e-06
-0.00140094
-0.00306924
-0.00775483
-0.014094
-0.0190669
-0.0236994
-0.0302529
-0.0334155
-0.0326815
-0.0305344
-0.0204939
-0.0222297
-0.0331868
-0.00654004
-0.00052866
-0.000168156
-6.93555e-05
-3.00562e-05
-1.64999e-05
-7.93634e-06
-0.000640534
-0.00212051
-0.00601369
-0.0116983
-0.0158521
-0.0180933
-0.020533
-0.0241017
-0.0237978
-0.0213717
-0.022481
-0.0337221
-0.0429262
-0.0220479
-0.00064617
-0.000320702
-0.000203779
-0.000141197
-9.69418e-05
-5.369e-05
-0.00136711
-0.00220231
-0.00568983
-0.0105887
-0.0150576
-0.0209137
-0.021499
-0.0242359
-0.0280498
-0.0323757
-0.0357225
-0.0286826
-0.0139878
-0.00579334
-0.00338756
-0.00213854
-0.00134381
-0.000904281
-0.000585661
-0.000336972
-0.00112688
-0.00211941
-0.00624905
-0.0131578
-0.0174975
-0.0232555
-0.0272451
-0.0337659
-0.0370588
-0.0389244
-0.0353811
-0.0319367
-0.0268493
-0.0217993
-0.0154394
-0.00895974
-0.00491501
-0.00304272
-0.0020171
-0.00124569
-0.00291995
-0.0105861
-0.0153591
-0.0192555
-0.0215723
-0.0251024
-0.0284998
-0.028893
-0.0311123
-0.0267449
-0.0244956
-0.0192562
-0.0162021
-0.0121002
-0.00894945
-0.00691839
-0.00614261
-0.00569473
-0.00479043
-0.00328654
-0.0159954
-0.0153772
-0.0180132
-0.0207726
-0.0226599
-0.023742
-0.025893
-0.0251739
-0.0239449
-0.0198236
-0.0166277
-0.012939
-0.0108587
-0.00957766
-0.00935687
-0.0099722
-0.0107504
-0.0112477
-0.0104857
-0.00755221
-0.0302239
-0.0135536
-0.0175957
-0.022175
-0.0275074
-0.0324321
-0.0341399
-0.0365362
-0.0334952
-0.0302016
-0.0228638
-0.0164598
-0.0118286
-0.0102537
-0.0113645
-0.0136729
-0.0157949
-0.0146468
-0.0107227
-0.00603724
-0.009071
-0.00845619
-0.0139281
-0.0212969
-0.0278217
-0.0359436
-0.0424367
-0.0471341
-0.0493301
-0.0478741
-0.0405106
-0.0292645
-0.0177498
-0.0102286
-0.00718255
-0.00607224
-0.00486716
-0.00320253
-0.00187648
-0.000934033
-0.00766523
-0.0114768
-0.019257
-0.0279286
-0.0349949
-0.0396971
-0.045838
-0.0514013
-0.0574561
-0.0611004
-0.0586465
-0.0475958
-0.0317671
-0.0177469
-0.00857097
-0.0038256
-0.00167341
-0.000757844
-0.000362312
-0.000166209
-0.00650288
-0.0133652
-0.0144623
-0.017398
-0.022789
-0.0284245
-0.0358515
-0.0459108
-0.0598836
-0.0735727
-0.0802147
-0.0732095
-0.0548907
-0.0340138
-0.0181188
-0.00871098
-0.00392757
-0.0017056
-0.000720825
-0.000299993
-0.0187445
-0.0523599
-0.0269226
-0.0272351
-0.0168378
-0.0458426
-0.0327366
-0.0184819
-0.0236606
-0.0228484
-0.0159068
-0.0189439
-0.0302933
-0.0274205
-0.0318596
-0.0781681
-0.0660877
-0.0548638
-0.0416349
-0.0649825
-0.0562063
-0.0291311
-0.0601263
-0.0522651
-0.0387276
-0.0318898
-0.0525645
-0.0403064
-0.143556
-0.0826035
-0.127338
-0.0884163
-0.110033
-0.0779039
-0.0824792
-0.194643
-0.138648
-0.177547
-0.119427
-0.179118
-0.0880239
-0.144036
-0.13843
-0.185912
-0.160874
-0.177612
-0.0721184
-0.162899
-0.0759484
-0.111208
-0.138922
-0.108653
-0.0933812
-0.111967
-0.0447724
-0.0277441
-0.0849895
-0.104894
-0.0801255
-0.0878651
-0.0405705
-0.0294282
-0.0245907
-0.0927104
-0.0840773
-0.0985434
-0.0397235
-0.0487906
-0.0265986
-0.0416518
-0.0796874
-0.0972343
-0.089656
-0.0523549
-0.065496
-0.0458596
-0.0555397
-0.0357456
-0.0861846
-0.0649562
-0.0712803
-0.0761168
-0.0601923
-0.0782068
-0.096181
-0.0719059
-0.0845327
-0.066265
-0.0714969
-0.0682198
-0.0774909
-0.160279
-0.099187
-0.14459
-0.0737963
-0.117505
-0.0796984
-0.098499
-0.172493
-0.156325
-0.170627
-0.143916
-0.112977
-0.107629
-0.125977
-0.123551
-0.170437
-0.159966
-0.0729456
-0.0300463
-0.132942
-0.121595
-0.0848849
-0.152337
-0.112948
-0.0298918
-0.0245926
-0.111334
-0.057909
-0.102049
-0.108531
-0.116692
-0.0259448
-0.0434923
-0.0494015
-0.0841871
-0.0915738
-0.110217
-0.100032
-0.0493007
-0.0621568
-0.100425
-0.112196
-0.0696717
-0.0960233
-0.0729732
-0.0669703
-0.0803219
-0.109324
-0.0929096
-0.0903204
-0.079104
-0.0933396
-0.072642
-0.0846228
-0.0730274
-0.0861942
-0.137409
-0.0974276
-0.111333
-0.08805
-0.102676
-0.0911699
-0.103245
-0.16303
-0.117982
-0.138556
-0.11061
-0.123808
-0.107675
-0.121304
-0.160958
-0.143219
-0.14975
-0.12658
-0.133305
-0.124604
-0.128723
-0.128996
-0.15055
-0.148767
-0.130496
-0.0886316
-0.129826
-0.136114
-0.124284
-0.144761
-0.122389
-0.0775014
-0.106687
-0.137812
-0.13126
-0.100178
-0.110816
-0.0923884
-0.118694
-0.119987
-0.125141
-0.112973
-0.0722315
-0.0885563
-0.065995
-0.113743
-0.0919494
-0.108601
-0.085697
-0.0926022
-0.0937715
-0.0988988
-0.0783395
-0.0870265
-0.0886465
-0.0940146
-0.107845
-0.100357
-0.104979
-0.0914834
-0.102745
-0.0960008
-0.102884
-0.130006
-0.106652
-0.111699
-0.10632
-0.117338
-0.105009
-0.110153
-0.144931
-0.113271
-0.116355
-0.120458
-0.126752
-0.111475
-0.114434
-0.139611
-0.116436
-0.123266
-0.128461
-0.134414
-0.115249
-0.118831
-0.114286
-0.128969
-0.134855
-0.134144
-0.123872
-0.120516
-0.119224
-0.0924345
-0.133437
-0.113799
-0.118825
-0.105992
-0.115438
-0.0948498
-0.0657443
-0.105914
-0.0953503
-0.102396
-0.0824765
-0.0855681
-0.0701834
-0.100118
-0.0640239
-0.0765141
-0.0679205
-0.0861683
-0.0574112
-0.0736363
-0.164482
-0.0816216
-0.137712
-0.0883048
-0.109003
-0.0808486
-0.124395
-0.0335419
-0.154865
-0.0582301
-0.0756026
-0.0219271
-0.117065
-0.0371746
-0.04919
-0.0351933
-0.0202593
-0.0200054
-0.0209843
-0.0281578
-0.0182292
-0.0319871
-0.0202183
-0.0202649
-0.0210928
-0.0231815
-0.016888
-0.0184442
-0.0422793
-0.0228095
-0.0367604
-0.0262313
-0.0367528
-0.0215744
-0.0351697
-0.0549149
-0.0407318
-0.0480562
-0.0390509
-0.0427372
-0.0382343
-0.0394698
-0.0681217
-0.0507462
-0.0641559
-0.0444398
-0.0500896
-0.0375088
-0.0368352
-0.0648475
-0.0537914
-0.0684667
-0.0425719
-0.0556539
-0.0427874
-0.0536919
-0.114373
-0.0720298
-0.092582
-0.0639055
-0.116528
-0.0604422
-0.085116
-0.0920334
-0.101153
-0.118484
-0.119888
-0.0552674
-0.087684
-0.0773914
-0.0214559
-0.123526
-0.0919803
-0.0374526
-0.0189273
-0.0712123
-0.0292056
-0.0196172
-0.078176
-0.0359679
-0.0171002
-0.0180963
-0.0229995
-0.0209425
-0.0368139
-0.0318087
-0.0566929
-0.0210067
-0.0349324
-0.0235062
-0.0355119
-0.0525833
-0.0723544
-0.0908626
-0.038964
-0.0440767
-0.0412591
-0.0575527
-0.064522
-0.0916176
-0.0817116
-0.0423358
-0.0348046
-0.0588408
-0.0444668
-0.0735067
-0.0604946
-0.0701467
-0.0464618
-0.0554738
-0.0476624
-0.0500135
-0.0956985
-0.0707681
-0.0819102
-0.0616343
-0.0838481
-0.052963
-0.0675497
-0.115489
-0.0892142
-0.108225
-0.0885442
-0.0821003
-0.0723373
-0.0824624
-0.112075
-0.111369
-0.110444
-0.0752715
-0.0394755
-0.0828593
-0.0728489
-0.0581334
-0.11013
-0.119305
-0.0310306
-0.0259496
-0.0675815
-0.0624989
-0.0786369
-0.12356
-0.128296
-0.0282956
-0.0409883
-0.0661898
-0.0992666
-0.104303
-0.124577
-0.114408
-0.0485507
-0.0659177
-0.10582
-0.106043
-0.0839161
-0.10934
-0.0819427
-0.0668259
-0.0496751
-0.100176
-0.065809
-0.0698654
-0.0535778
-0.0657769
-0.0461971
-0.047659
-0.0422927
-0.0443091
-0.0733839
-0.0674626
-0.0714229
-0.0492032
-0.0600227
-0.0444673
-0.0468594
-0.0940805
-0.0726417
-0.0761537
-0.0638212
-0.0716539
-0.0480153
-0.0512182
-0.102612
-0.0775107
-0.0844554
-0.0725194
-0.0703851
-0.0523208
-0.0576003
-0.119906
-0.0898237
-0.108931
-0.0690408
-0.0732712
-0.0607556
-0.0773656
-0.122925
-0.112544
-0.107868
-0.0796791
-0.105505
-0.0834595
-0.0910222
-0.106388
-0.101818
-0.0795511
-0.107521
-0.104189
-0.0884792
-0.0701991
-0.0783788
-0.071211
-0.0504811
-0.100101
-0.0653091
-0.0621109
-0.0373634
-0.0816252
-0.0591793
-0.0748825
-0.0572939
-0.0658741
-0.0616167
-0.0713117
-0.0763456
-0.0800272
-0.10823
-0.0648023
-0.0420629
-0.068923
-0.0570066
-0.0212208
-0.0951774
-0.0342275
-0.0351285
-0.0223593
-0.0477159
-0.0286876
-0.0192783
-0.0275404
-0.0180774
-0.0183228
-0.0171315
-0.0248695
-0.0157073
-0.0228527
-0.0166146
-0.0186528
-0.0186413
-0.0241362
-0.0148482
-0.0186798
-0.0363193
-0.0219687
-0.0349379
-0.0268734
-0.0342749
-0.0217784
-0.0312647
-0.0435265
-0.0376367
-0.0374824
-0.0366225
-0.0412305
-0.0325584
-0.0288343
-0.0480272
-0.0347861
-0.0323308
-0.0419455
-0.0372234
-0.0257577
-0.0210471
-0.0570529
-0.039277
-0.05397
-0.0461905
-0.0631146
-0.0413654
-0.0591377
-0.105249
-0.0612397
-0.0807447
-0.0652221
-0.0575048
-0.0636206
-0.065823
-0.0466729
-0.0803159
-0.0616959
-0.0509155
-0.0315469
-0.0646029
-0.0518558
-0.0282462
-0.0262871
-0.0437015
-0.0306635
-0.0311744
-0.0252193
-0.0351732
-0.0176319
-0.0163189
-0.0180675
-0.0167293
-0.0170955
-0.0163293
-0.0183243
-0.0351396
-0.02527
-0.0360673
-0.021968
-0.0338072
-0.0277885
-0.0371906
-0.0421149
-0.0407515
-0.0541211
-0.0362157
-0.0344913
-0.0414545
-0.049965
-0.0298338
-0.0541581
-0.0377731
-0.0308445
-0.0190447
-0.0474155
-0.0287419
-0.0545499
-0.0400814
-0.0473745
-0.0388026
-0.0575592
-0.034286
-0.0476107
-0.0808809
-0.0519576
-0.0674694
-0.0623489
-0.0689606
-0.052273
-0.0612148
-0.0720245
-0.0716452
-0.0787314
-0.0704474
-0.0635128
-0.063109
-0.065854
-0.0615572
-0.0499634
-0.0761895
-0.0544664
-0.0660788
-0.0484123
-0.0711911
-0.0377688
-0.0261012
-0.0364739
-0.0356399
-0.0323054
-0.0346668
-0.0398026
-0.0403378
-0.0544213
-0.0861878
-0.0308909
-0.0390149
-0.0396103
-0.0591972
-0.060979
-0.0951712
-0.0995063
-0.0438125
-0.054673
-0.0678307
-0.0781395
-0.0419811
-0.0939814
-0.0588565
-0.0526783
-0.030814
-0.0746276
-0.0390827
-0.0423689
-0.0305125
-0.0352381
-0.0285323
-0.0396787
-0.0233468
-0.0261245
-0.0588014
-0.0359999
-0.0399471
-0.0444009
-0.0534047
-0.0278281
-0.0317988
-0.0686127
-0.0412819
-0.0449398
-0.0547134
-0.0567935
-0.032391
-0.0347726
-0.0649002
-0.0463471
-0.0527355
-0.0567508
-0.053179
-0.0359756
-0.0413435
-0.0625717
-0.055923
-0.0704987
-0.0508379
-0.0438777
-0.0437832
-0.0545615
-0.0960177
-0.0761235
-0.0838453
-0.0456225
-0.0687085
-0.0590964
-0.0664358
-0.0999661
-0.081206
-0.0651366
-0.0752509
-0.0815107
-0.0645873
-0.0497992
-0.0597516
-0.0573114
-0.0308336
-0.0782538
-0.0409493
-0.0414131