/*--------------------------------*- C++ -*----------------------------------*\
  =========                 |
  \\      /  F ield         | OpenFOAM: The Open Source CFD Toolbox
   \\    /   O peration     | Website:  https://openfoam.org
    \\  /    A nd           | Version:  10
     \\/     M anipulation  |
\*---------------------------------------------------------------------------*/
FoamFile
{
    format      ascii;
    class       volVectorField;
    location    "1.2";
    object      U;
}
// * * * * * * * * * * * * * * * * * * * * * * * * * * * * * * * * * * * * * //

dimensions      [0 1 -1 0 0 0 0];

internalField   nonuniform List<vector> 
12920
(
(135.226 -32.7042 -81.5177)
(-134.976 -38.5397 -18.5574)
(105.149 -81.4617 -5.94932)
(-3.07048 -33.7503 6.54552)
(94.6662 -44.6603 7.34076)
(42.4896 -26.0229 5.16963)
(90.9883 -21.599 3.58066)
(71.0499 -12.279 0.973386)
(95.033 -6.43511 -0.805838)
(87.9667 -1.38295 -2.30885)
(100.355 1.09675 -2.84809)
(100.546 3.81554 -4.45255)
(109.641 4.50331 -5.44668)
(116.28 6.46043 -5.34986)
(122.232 10.1946 -3.54197)
(118.213 12.5358 -1.41653)
(97.1838 17.8921 -1.69062)
(75.4787 20.0173 -7.00296)
(76.3389 20.2008 -8.21601)
(79.929 14.8923 -5.14404)
(304.999 181.301 -84.5844)
(155.723 74.3975 1.72227)
(139.202 -6.18854 22.98)
(42.7259 -28.0293 4.63633)
(93.517 -30.5303 1.74042)
(47.7117 -27.9591 0.822266)
(84.1508 -18.4917 1.65099)
(57.8231 -9.49648 0.0576749)
(80.8184 1.48936 -1.12895)
(70.4304 7.42007 -2.49483)
(84.4971 12.1059 -3.20079)
(84.7382 15.5134 -4.44858)
(96.3715 17.3883 -4.93432)
(104.45 18.336 -3.16868)
(108.097 17.9315 0.222583)
(101.256 16.3055 3.16715)
(80.097 17.0488 4.77104)
(67.0378 16.0953 1.75406)
(69.2841 17.0486 0.00259556)
(71.3661 11.6105 0.162977)
(11.5665 -22.3499 -76.11)
(-158.876 -32.6227 -25.333)
(126.505 -11.0419 -14.6056)
(10.3827 -30.6737 -2.0555)
(96.2108 -37.9736 -0.40704)
(37.4106 -33.0543 -2.80794)
(85.9635 -30.9295 -0.0776403)
(57.4869 -16.4929 -1.33676)
(82.1419 -8.4801 -1.01286)
(68.2659 4.564 -1.85241)
(81.1596 8.0188 -1.79336)
(77.3122 12.2333 -1.22849)
(83.0472 10.5942 0.0676617)
(79.7589 9.60263 1.37211)
(76.1996 6.44603 3.41901)
(64.8002 7.07018 3.23532)
(60.3159 10.4037 2.25175)
(56.2805 12.2618 1.70641)
(57.312 15.6138 1.66226)
(55.6908 12.4062 1.15914)
(-146.188 -81.7052 12.29)
(-238.032 18.1957 -20.6603)
(68.0195 -57.8927 -9.67553)
(11.1617 -24.4908 -2.40698)
(98.195 -38.1852 1.36506)
(51.3936 -23.142 0.482201)
(86.469 -25.8643 2.27547)
(56.8941 -10.2711 0.2629)
(75.72 -2.89852 1.19835)
(57.6958 7.14032 0.628145)
(64.2582 8.86626 1.39564)
(54.4469 10.8588 2.14121)
(54.9437 8.85286 2.98255)
(46.8987 8.15465 3.32684)
(43.1883 8.28675 2.9905)
(37.0695 7.72932 2.2521)
(36.0205 9.14618 1.73211)
(35.017 9.63378 1.32388)
(36.9754 11.2159 1.00508)
(40.8778 8.12321 0.669818)
(-95.0083 -88.8893 -20.6553)
(-56.4822 -94.224 -27.3687)
(130.472 -93.9469 6.17419)
(-68.7668 -52.9767 4.97821)
(97.0073 -53.2791 -3.23763)
(-10.0101 -31.0979 2.68514)
(64.9723 -40.2441 2.15188)
(18.0648 -12.0853 2.21684)
(56.8435 -12.7692 2.9498)
(34.5454 7.72324 2.62557)
(48.7045 2.70569 2.66512)
(37.1272 8.38573 2.8188)
(41.0471 1.55663 2.31461)
(33.944 2.72452 1.80488)
(35.5842 0.115354 1.15284)
(33.6179 1.53403 0.74425)
(35.0753 2.77739 0.480678)
(35.258 4.78502 0.39703)
(37.929 6.67581 0.343606)
(41.4508 5.79719 0.222833)
(264.892 -175.462 -190.143)
(221.703 -107.742 -39.5871)
(261.378 -94.7427 20.0566)
(38.2188 -46.1768 16.6846)
(112.114 -56.21 3.6154)
(18.4872 -22.3894 1.40214)
(75.7257 -55.4875 3.14953)
(26.4166 -21.0331 3.47317)
(52.2362 -28.4057 2.75286)
(33.3582 -2.81222 2.13472)
(38.8068 -6.94503 1.86607)
(33.0424 1.09135 1.41852)
(33.6941 -1.13049 1.20819)
(31.7497 1.2788 0.894138)
(31.2129 1.02954 0.723132)
(31.8187 2.18053 0.48559)
(31.9549 4.14457 0.357046)
(33.1299 4.26921 0.246496)
(34.8507 5.13154 0.106055)
(38.9082 4.13593 0.0531923)
(145.766 -101.423 51.1697)
(68.4162 -15.6239 -16.3873)
(145.377 11.0387 -6.84802)
(31.5829 -1.88777 -0.482499)
(106.127 -29.7466 -1.43029)
(39.3952 -17.9586 1.05596)
(71.1128 -67.9231 0.838214)
(16.6947 -13.6895 3.21755)
(25.5875 -37.1289 1.6873)
(-2.81637 9.48704 -0.522714)
(7.92673 -9.12012 1.69638)
(7.24327 1.76703 1.42684)
(18.7322 -8.36248 0.637471)
(19.6347 -3.58567 0.184106)
(26.7155 -6.62606 0.264587)
(29.1278 -4.28383 0.187801)
(33.2447 -2.0435 0.0969907)
(34.4063 0.00269378 0.0481238)
(36.6991 1.8537 0.0358727)
(40.3545 2.31241 0.0169934)
(136.637 168.724 68.8158)
(36.5844 14.2515 5.11191)
(158.743 -6.08539 4.06262)
(74.2297 -7.4431 0.0166632)
(133.09 -36.2424 -0.530512)
(78.3598 -10.5055 1.2306)
(90.9388 -30.082 0.83034)
(50.1442 -33.7969 2.33247)
(18.6086 -24.8027 1.46658)
(-5.18728 18.9611 0.351315)
(7.06724 -13.746 0.874985)
(8.20412 -16.4179 2.02202)
(20.8001 -9.94585 1.94979)
(22.2571 -6.44504 -0.254629)
(33.7186 -10.6582 0.0832742)
(36.669 -6.46568 0.20902)
(35.4211 -2.80078 0.197607)
(36.5106 -0.860498 0.171854)
(37.0714 0.596706 0.144712)
(40.1652 1.1005 0.0724467)
(400.863 120.303 75.0362)
(176.12 54.132 36.4431)
(185.368 33.2216 -1.7128)
(134.936 15.6587 -18.6596)
(168.153 -14.2762 -10.3236)
(102.639 -7.73517 3.74169)
(105.254 -21.3014 5.53253)
(58.0025 -22.009 -2.67789)
(43.3913 7.17903 1.41241)
(10.7442 0.91207 -0.471527)
(22.228 -16.1042 -0.105064)
(22.3746 -24.3953 -1.39112)
(33.948 -29.118 1.29148)
(28.4656 -20.6318 2.59544)
(37.7078 -12.8772 -0.557023)
(40.1615 -9.8059 0.126845)
(39.4481 -4.64791 0.229697)
(38.4371 -3.37166 0.227136)
(39.0879 -1.40211 0.27667)
(41.0584 -0.403768 0.180389)
(242.024 177.503 -97.5046)
(156.43 156.372 -5.30199)
(258.437 129.432 -10.8153)
(243.741 99.1972 -16.3341)
(266.531 39.8995 2.26572)
(171.512 -13.0489 8.94219)
(142.99 -26.0719 8.05513)
(67.6542 12.2098 -4.89072)
(74.0279 23.5281 1.47664)
(40.8317 18.6912 -0.162029)
(28.2449 8.36252 -0.116395)
(28.1426 -8.9195 -0.9339)
(30.7221 -26.4725 -0.298021)
(39.4009 -32.5542 -0.812173)
(47.9766 -21.8816 1.427)
(45.901 -7.76618 -0.0458674)
(42.3947 -4.34906 0.142864)
(40.4688 -2.49247 0.209697)
(40.1563 -1.51533 0.293454)
(41.7763 -0.838957 0.198538)
(104.151 -110.438 44.083)
(47.4539 -104.352 32.7725)
(200.453 -32.135 20.6906)
(197.254 13.5739 11.0372)
(236.709 29.7135 14.9259)
(188.776 8.79612 10.2151)
(109.973 -14.0822 4.89901)
(79.2756 22.2303 3.9061)
(83.1163 40.9633 0.284743)
(79.564 22.7226 -0.0108593)
(66.7047 19.7948 1.18564)
(39.1156 17.2332 -1.43747)
(37.8696 -28.2966 1.75151)
(43.5957 -29.2627 -3.17048)
(51.2381 -16.2848 1.13794)
(45.0045 -6.01549 -0.22425)
(42.4152 -2.95614 -0.0220094)
(40.6079 -3.23861 0.143498)
(40.6812 -2.34887 0.266934)
(42.3482 -1.83404 0.197141)
(298.179 -103.984 -129.468)
(136.073 -89.0749 -16.5387)
(188.153 -8.14048 -11.3232)
(112.846 -17.8089 0.768199)
(165.545 -3.66571 6.18096)
(123.981 -6.21293 3.27801)
(112.116 12.0453 5.61948)
(100.072 18.7487 0.211989)
(85.1121 22.6104 1.1597)
(70.3333 23.0178 0.954804)
(68.7986 24.2077 0.0839798)
(72.3211 -7.34933 1.2707)
(36.0485 -21.1366 1.94039)
(39.6435 -17.2307 -2.22581)
(47.0469 -10.5357 -0.106864)
(39.6242 -2.17987 0.150105)
(40.5487 -1.66509 0.0843082)
(39.7968 -2.12555 0.131431)
(40.8431 -2.40965 0.18381)
(43.221 -2.06734 0.14821)
(320.776 -398.973 -340.074)
(-63.4786 -40.1381 -6.80557)
(168.007 -23.8543 -15.934)
(48.2965 -4.56898 -5.91259)
(117.2 7.72045 -2.93792)
(70.9682 -6.20401 -3.2204)
(90.3169 8.4795 -0.597812)
(79.1386 24.7953 0.0305387)
(96.715 32.9501 1.33019)
(98.7569 21.5745 1.38376)
(91.6638 9.40727 4.41731)
(54.2549 -7.94513 -1.67166)
(50.7305 -12.0823 -2.23637)
(41.4708 -5.47649 -0.561602)
(49.6346 -3.83919 1.02805)
(45.0997 -5.58302 0.901007)
(41.8279 -4.22271 0.368349)
(40.6092 -4.23805 -0.0115706)
(41.3247 -4.24338 -0.101264)
(44.2251 -3.39648 -0.0625107)
(166.637 -113.886 -90.4703)
(41.4512 47.7639 -22.9822)
(171.81 0.423607 -18.3126)
(84.3243 16.7383 -5.63499)
(118.551 21.2358 -0.835829)
(69.7939 4.07595 -0.629385)
(90.6191 30.8396 2.20425)
(79.077 -1.59541 3.45471)
(91.3201 6.33033 4.45667)
(88.651 -10.6299 5.16247)
(97.4324 -9.28924 4.94504)
(98.7084 -17.3878 4.02127)
(103.291 -13.2033 3.96052)
(101.864 -12.6364 4.08127)
(96.7635 -5.39895 3.14556)
(74.2815 -2.40245 1.61254)
(58.8377 0.117164 0.224509)
(49.5344 -1.74782 -0.586368)
(48.1349 -3.0223 -0.526553)
(48.5446 -2.89292 -0.252439)
(429.997 87.195 147.003)
(99.9612 123.088 34.233)
(149.977 84.3669 0.831188)
(39.9557 52.5971 -1.13944)
(92.4896 44.5215 2.11057)
(36.0122 3.39924 1.24451)
(79.9088 1.83456 2.63928)
(60.6919 -16.6601 1.59753)
(77.3391 -19.3746 2.44048)
(68.5509 -27.8821 0.840023)
(76.8744 -27.2912 0.284563)
(73.835 -29.3154 -0.748842)
(80.4557 -26.528 -0.480607)
(77.8621 -22.5382 0.340071)
(75.3755 1.1971 0.880216)
(64.2074 14.9765 -0.354822)
(58.7732 15.3162 -1.70213)
(52.0066 7.49786 -2.13997)
(50.0307 0.185679 -1.31108)
(49.149 -1.76296 -0.426872)
(-118.077 172.64 86.5411)
(-118.253 97.9071 -33.0277)
(114.875 102.691 -12.0022)
(-12.2574 42.4837 4.94103)
(78.1592 12.7956 4.23656)
(29.8707 -8.45006 0.831558)
(74.5642 -9.38676 2.47997)
(48.061 -18.1604 -0.510194)
(62.6632 -11.9281 -0.234365)
(43.8242 -16.3997 -3.20552)
(55.1327 -9.82963 -4.93765)
(50.9109 -10.6449 -6.44981)
(61.7528 -5.19509 -6.4636)
(60.1954 -1.59612 -5.52695)
(66.7224 9.04808 -2.32976)
(67.5387 15.4852 -0.14239)
(69.6042 16.4723 -0.184302)
(66.5725 13.5537 -0.263929)
(63.1947 5.42106 -0.111777)
(56.6145 0.233571 0.105635)
(-20.0934 -38.9128 114.222)
(-158.633 67.99 -48.9644)
(137.764 58.0198 -10.2862)
(32.7255 25.7911 -5.50821)
(107.14 -11.7704 -3.33276)
(63.88 -9.69038 -2.32235)
(86.1468 -13.7053 2.09414)
(52.7537 -3.63787 -0.433041)
(63.0659 1.49533 2.3595)
(42.1392 3.94435 -1.31736)
(54.1025 4.41688 -3.2016)
(49.8082 4.66293 -4.51403)
(60.8065 6.14037 -3.83563)
(61.7629 8.21124 -2.59247)
(68.4485 14.2197 -0.399527)
(68.4324 16.0723 1.11335)
(69.5236 14.9014 1.55223)
(65.7932 10.657 2.077)
(61.9022 6.7182 1.66198)
(54.8149 2.16846 0.921837)
(140.312 76.3259 3.832)
(-44.9284 97.7336 15.3586)
(141.368 35.8972 -8.60419)
(105.813 34.5875 -11.0333)
(159.717 9.88756 -3.25267)
(126.73 0.576511 -0.588876)
(118.843 -6.50168 3.18385)
(87.3779 2.03407 -1.22923)
(96.2141 6.90613 -0.91673)
(85.9933 10.2847 -0.0231307)
(87.0681 14.7756 2.06078)
(75.9687 14.6616 1.61688)
(74.9365 13.2645 1.94559)
(66.9075 10.2732 1.41812)
(66.6128 10.0796 1.46087)
(62.9456 8.39006 1.68472)
(61.3152 6.79643 2.25318)
(54.3805 4.24849 1.81633)
(52.568 3.74032 1.02542)
(50.9467 1.4424 0.412241)
(203.902 9.60996 77.6927)
(87.9654 -9.07935 0.751605)
(151.846 -20.0798 6.75413)
(69.304 1.89722 2.69533)
(95.042 2.81875 5.03282)
(58.6177 11.4176 1.08405)
(77.8949 13.1402 1.75255)
(60.5067 12.982 0.809895)
(75.2845 11.5669 2.27005)
(65.5514 13.2915 2.20995)
(70.8867 13.4415 2.95898)
(59.6635 12.2533 2.70165)
(59.0546 8.55746 2.96072)
(48.8713 5.77605 2.29351)
(48.6695 5.2925 1.88202)
(44.0874 4.48478 1.38566)
(45.0671 4.78181 0.92104)
(42.8739 3.66493 0.46743)
(44.6872 3.35691 0.200995)
(47.557 1.61166 0.0371008)
(331.319 10.499 4.86663)
(88.6602 68.3342 -10.8013)
(131.218 44.6211 5.5783)
(46.7334 15.0906 3.42087)
(84.0472 -1.1589 2.1493)
(60.1114 -4.14235 -0.689075)
(84.8084 -10.7018 -0.261025)
(71.335 -9.86254 -1.09873)
(79.3271 -9.96317 0.711431)
(62.7818 -4.0303 1.841)
(63.1629 2.34854 4.51629)
(48.925 5.48612 4.50965)
(49.3708 5.04959 3.42859)
(41.1311 3.58227 2.18595)
(42.9727 1.96596 1.23037)
(40.2022 0.867071 0.638613)
(42.6727 0.287551 0.338046)
(41.6614 -0.0451143 0.162606)
(43.9517 -0.0200191 0.0858135)
(47.0988 -0.186802 0.0277485)
(242.118 235.108 -75.6494)
(-75.7589 -16.7217 11.6369)
(101.619 -61.8527 -10.5749)
(-14.5434 -20.7189 12.5361)
(90.4793 -35.2118 11.7047)
(38.7623 -18.7273 9.08489)
(89.1714 -17.1909 6.61767)
(70.2587 -11.1844 1.93712)
(94.3038 -8.11657 -1.30637)
(86.7613 -5.47233 -4.59023)
(98.6346 -4.65752 -6.17367)
(97.4455 -4.94925 -8.23623)
(104.347 -4.9436 -9.04022)
(106.653 -6.53446 -10.3503)
(116.606 -7.91627 -8.29416)
(123.009 -7.30814 -0.413688)
(121.104 -4.45429 4.66102)
(106.249 0.961859 0.828992)
(87.4504 12.0256 -7.79249)
(71.8713 8.49585 -6.77212)
(144.283 201.854 25.0288)
(6.54983 3.81059 28.6688)
(99.8546 -8.21785 32.8227)
(13.7615 -7.90605 9.2808)
(78.0999 -12.3793 5.4972)
(26.2511 -13.1476 1.91385)
(74.0505 -7.74139 2.60751)
(46.6731 -5.24613 0.0208059)
(71.7293 0.452543 -1.14232)
(54.7464 2.10844 -3.31099)
(65.6485 5.03137 -4.13306)
(56.2274 5.11433 -4.73191)
(61.7616 5.58103 -4.89912)
(59.7196 5.20306 -3.18679)
(68.3309 7.16252 2.81344)
(67.4496 6.23063 10.0123)
(61.0328 7.02197 11.8231)
(51.1866 7.07159 5.61829)
(53.2285 10.4525 0.71474)
(55.946 6.21461 0.099015)
(184.28 -171.619 272.117)
(-95.6145 -27.7568 -23.8378)
(109.015 -7.71441 -42.4964)
(-47.8081 -21.8086 -3.4231)
(82.5823 -33.578 -3.7721)
(4.93327 -24.6831 -3.58192)
(71.8783 -24.8274 0.0718629)
(40.5496 -13.2194 -1.20785)
(70.9671 -10.9461 0.78293)
(51.736 -3.76958 0.0876028)
(62.3058 -5.7322 0.778342)
(50.0047 -4.2776 1.18289)
(54.5988 -6.82034 2.87752)
(48.2885 -6.7345 4.59147)
(49.5108 -6.67178 6.50746)
(44.7047 -4.63698 6.06091)
(44.8617 1.43404 4.20425)
(42.9059 5.81756 1.95302)
(47.3745 11.932 1.46998)
(49.1267 9.68326 1.0726)
(-43.5351 -165.833 -56.7159)
(-142.512 4.11736 -59.0857)
(45.4314 -59.0098 -26.8859)
(-37.2936 -28.9643 -3.56273)
(75.7299 -47.8478 -0.257775)
(12.8998 -24.9197 -0.0805321)
(71.8079 -30.4475 2.25981)
(43.1305 -15.2379 -0.651218)
(70.7015 -10.3298 1.67837)
(53.9545 -1.69584 1.23123)
(60.6781 -0.659819 2.33553)
(47.2897 1.67934 2.39107)
(46.8823 1.0903 3.59249)
(38.3708 2.02874 3.75515)
(36.9428 3.8961 3.50653)
(32.4475 4.77064 2.77876)
(32.0246 6.97895 2.05562)
(32.0272 7.53858 1.36327)
(35.088 9.86848 0.873765)
(40.3634 7.31502 0.661903)
(115.665 25.5876 73.4774)
(-53.3951 -51.481 -33.6739)
(95.4633 -69.6945 -4.68226)
(-52.7412 -51.7258 3.63054)
(79.767 -51.4346 -6.64187)
(-24.8543 -27.9581 3.76094)
(60.7985 -45.1752 2.92535)
(15.5292 -16.2586 2.53331)
(56.1044 -19.508 3.73285)
(35.9526 0.600956 2.60353)
(49.62 -3.10175 2.99285)
(37.306 3.80534 3.06385)
(40.6579 -1.79225 2.84904)
(33.4582 0.118382 2.422)
(35.234 -1.96456 1.77342)
(33.2725 -0.243937 1.17837)
(35.02 1.72706 0.680492)
(35.1635 4.16908 0.360653)
(37.919 6.46056 0.266034)
(41.8165 5.71625 0.198542)
(167.001 -140.708 -286.499)
(-24.9173 -64.9089 -34.4899)
(145.187 -79.6497 34.5711)
(-21.4356 -39.5451 15.9274)
(96.8204 -54.4432 0.0518662)
(-11.3514 -20.7125 4.04955)
(68.0491 -61.6583 5.43209)
(12.9533 -19.5348 5.09219)
(46.1034 -29.0233 4.66984)
(28.6045 -2.99079 2.09875)
(35.3921 -7.46987 3.29388)
(30.6693 0.762919 2.94725)
(32.3491 -1.78349 3.14054)
(31.0685 0.527494 2.39213)
(31.0668 0.558902 1.95377)
(31.9948 1.90414 1.22885)
(32.329 4.10911 0.661297)
(33.8344 4.34825 0.398328)
(35.6183 5.30386 0.158404)
(39.6609 4.27819 0.0821776)
(226.7 -34.9404 -17.0572)
(85.787 -58.311 -38.4037)
(130.527 -19.1908 -20.2573)
(23.1362 -12.5864 -3.37406)
(96.2859 -31.7867 -5.47907)
(25.1428 -16.2828 2.60329)
(58.2217 -70.084 4.85173)
(-10.8539 1.52832 7.30309)
(17.7677 -38.2783 3.19334)
(-10.4318 12.7564 -2.7569)
(7.42701 -10.2641 0.868382)
(6.34711 0.977552 1.05655)
(18.8726 -9.17289 1.99671)
(20.0887 -4.09842 1.7682)
(27.3248 -7.0859 1.37428)
(29.6297 -4.36014 0.86862)
(33.7632 -2.00796 0.415803)
(35.0028 0.104556 0.210276)
(37.3258 2.00139 0.129444)
(41.0195 2.4339 0.0492792)
(112.763 345.4 -47.6433)
(-16.0612 -2.26489 -54.4546)
(140.508 -8.25112 -27.5917)
(44.3492 -10.8684 -6.23342)
(111.273 -35.7797 -3.84583)
(52.991 -1.72213 3.85609)
(75.9871 -27.3596 5.51719)
(23.7694 -11.4299 9.16815)
(12.8785 -29.8481 8.84687)
(-8.87845 15.3926 -5.82607)
(3.07704 -7.14055 -0.10931)
(6.08764 -7.57028 2.11797)
(24.2669 -12.7625 4.19226)
(28.1861 -13.4054 3.48768)
(35.375 -11.8895 3.3059)
(37.9081 -6.83287 1.42802)
(36.1022 -2.98844 0.914998)
(37.0973 -0.92131 0.576923)
(37.6529 0.652233 0.428367)
(40.7776 1.16067 0.21532)
(285.86 164.924 -68.6139)
(74.4821 41.8828 12.9606)
(163.708 25.0588 -11.1893)
(91.5525 6.88298 -18.2548)
(115.139 -21.7487 -7.237)
(98.5055 -15.2078 4.52216)
(123.527 -19.6284 14.0562)
(71.0838 -25.8587 -2.20378)
(35.7082 8.75536 16.147)
(16.8199 6.03369 -4.0134)
(22.3199 -0.46221 -2.19221)
(29.2791 -21.5621 -8.17245)
(36.4424 -20.4954 -5.11348)
(40.2963 -24.2933 2.58867)
(44.5433 -21.2638 4.17648)
(40.9338 -9.9727 2.46216)
(40.2318 -4.80605 1.00722)
(39.2297 -3.48128 0.579973)
(39.837 -1.4273 0.578397)
(41.7319 -0.391676 0.342169)
(126.753 168.545 -60.7632)
(69.3949 94.6491 12.4563)
(170.145 54.0256 0.828409)
(109.439 9.19427 -8.35022)
(147.409 -13.3633 11.4094)
(132.655 -20.4822 7.65619)
(150.057 -29.3078 17.3637)
(145.128 -9.81038 15.3289)
(62.0578 19.0048 16.3797)
(38.45 24.8469 2.91343)
(51.3099 21.535 -7.06747)
(49.1504 -4.51179 -15.2608)
(46.4113 -11.6417 -2.03083)
(44.9534 -17.6352 -4.92189)
(57.2896 -27.3285 1.16087)
(47.3204 -8.07242 2.21314)
(43.4739 -4.50023 1.04622)
(41.4314 -2.58684 0.567763)
(41.0194 -1.55883 0.566749)
(42.4946 -0.871554 0.355483)
(88.4273 -92.0046 -8.31886)
(-41.4776 -84.893 17.16)
(137.228 -27.9918 20.6409)
(107.897 -20.2834 15.0435)
(152.062 -3.20592 17.4367)
(143.416 -6.14487 11.0077)
(141.12 -15.4537 12.8469)
(99.585 6.96845 11.2537)
(96.3312 32.1701 8.83349)
(72.4655 10.2988 -1.52407)
(58.5759 29.0829 11.3966)
(66.1845 16.957 -5.38735)
(64.3709 -10.7739 2.95731)
(62.4798 -13.2246 -3.92437)
(58.597 -20.3269 -1.33595)
(48.0093 -6.71002 0.0795087)
(43.9594 -3.15405 0.359993)
(41.6806 -3.37628 0.30878)
(41.5606 -2.43525 0.445612)
(43.077 -1.89495 0.292798)
(281.315 189.132 -17.2349)
(133.196 53.0127 -1.90746)
(165.228 21.0204 9.91656)
(62.1989 -4.25623 0.62126)
(116.14 13.0972 8.37115)
(89.7992 5.19714 10.5742)
(118.762 13.1819 12.8887)
(96.0156 23.0185 4.28761)
(87.9516 26.9362 2.3636)
(82.9069 20.7713 2.38572)
(77.8527 16.5234 1.05658)
(77.2087 7.31009 9.06431)
(69.2759 -21.0794 12.4355)
(67.9419 -13.1615 -8.40238)
(48.4534 -11.911 1.24478)
(40.8641 -2.36606 0.322158)
(41.5503 -1.70678 0.033816)
(40.6636 -2.23634 0.00916182)
(41.6411 -2.59519 0.270927)
(43.958 -2.21959 0.211676)
(33.6925 91.3544 72.9908)
(-102.488 14.2032 0.502044)
(130.403 -13.6696 -13.0572)
(21.2505 2.67746 -5.64579)
(97.5382 12.3822 -1.97632)
(50.2772 -4.10254 -2.94329)
(78.1039 15.1635 -1.56818)
(70.5515 32.4008 0.892705)
(87.3812 34.014 4.17995)
(89.214 23.6733 4.30538)
(95.4126 14.9418 9.57137)
(89.2411 4.55774 4.33214)
(66.3455 -7.64042 -4.45304)
(46.2185 -2.98451 -0.10012)
(48.8952 -3.40944 4.76744)
(44.5902 -5.96942 2.19498)
(41.87 -4.56178 0.572134)
(41.002 -4.7537 0.00733825)
(41.8966 -4.77365 0.00728859)
(44.8998 -3.69098 -0.0115066)
(257.439 -179.076 -68.7964)
(82.8945 11.8402 -33.1917)
(152.767 -15.4699 -31.4986)
(59.1405 7.00839 -6.96031)
(99.986 16.4249 2.04265)
(49.2917 1.56954 1.08127)
(75.0995 34.7282 5.74649)
(67.7292 3.48264 7.56785)
(85.1997 15.7021 9.52232)
(86.1843 0.796049 9.96692)
(96.8961 4.68998 9.3454)
(97.8473 -2.37294 7.23272)
(102.119 1.22678 6.94327)
(99.2222 -1.30309 6.39237)
(92.0963 2.52702 6.09905)
(71.5217 1.34649 5.34696)
(59.67 1.01415 1.90463)
(50.9252 -2.68637 0.119928)
(49.4245 -4.37706 0.221519)
(49.4751 -3.83392 0.166579)
(195.508 42.4502 129.13)
(28.3115 86.8841 35.8718)
(129.035 60.5412 0.808197)
(10.5068 38.4525 6.48875)
(83.4603 37.7163 9.23174)
(21.0721 2.32911 3.66298)
(72.6678 12.0426 6.38811)
(51.0277 -4.42034 4.231)
(70.5112 -2.89238 4.0155)
(62.1451 -7.63852 0.813211)
(70.9757 -4.56788 -1.6694)
(67.3229 -4.98542 -4.13221)
(72.5645 -2.1516 -4.28522)
(70.5673 -0.439317 -2.95066)
(72.0558 11.534 -0.494784)
(67.2169 15.539 -0.0405848)
(66.4461 12.6834 0.0339973)
(59.379 3.30982 -0.425798)
(55.5892 -3.00659 0.374725)
(51.9698 -3.25762 0.383339)
(-35.5959 284.813 153.246)
(-106.653 85.8996 -37.7504)
(80.7125 86.6817 -15.19)
(-54.5711 26.7148 10.3565)
(69.208 7.30002 8.7522)
(-1.09292 -4.93019 0.128733)
(58.5897 2.28218 4.47971)
(21.8021 -7.51115 -3.35989)
(49.1075 5.36978 -4.28858)
(32.1816 -2.14196 -8.20331)
(47.8845 4.98868 -10.2175)
(41.993 0.0715668 -11.0124)
(52.2659 5.50327 -10.1985)
(51.2078 6.93188 -9.14397)
(58.0682 13.2616 -5.2675)
(65.2968 12.6312 -1.73198)
(73.296 9.01407 0.585947)
(72.4876 4.36308 1.56646)
(68.712 -0.0401106 2.79261)
(59.5245 -1.61287 1.87058)
(336.626 -107.028 112.631)
(-167.957 28.3497 -16.4879)
(129.916 29.732 -27.9036)
(-14.2497 13.9927 -2.1884)
(76.5973 -12.7782 2.45882)
(-0.533781 4.18858 -0.302376)
(55.4907 1.14194 6.80642)
(4.23135 7.9589 -3.39561)
(42.9343 8.02156 -2.97907)
(22.3065 4.07919 -7.16073)
(43.174 1.11724 -8.47278)
(36.4087 -1.89051 -8.79248)
(48.3973 -1.1093 -7.75557)
(48.5937 2.11013 -5.81194)
(59.2158 8.50713 -2.73095)
(64.2536 9.14216 0.944823)
(67.7721 7.40885 3.27469)
(64.9151 4.84278 4.59733)
(61.4582 4.52589 4.72106)
(55.1901 1.69251 2.38676)
(20.634 144.79 238.113)
(-97.7439 70.775 -0.0713431)
(111.737 8.38185 -21.577)
(34.8719 6.38485 -12.9736)
(90.8285 -10.6455 1.5096)
(47.7397 -2.10514 1.72107)
(69.2869 3.24652 7.56626)
(36.0742 14.1 1.06294)
(51.9053 16.0493 0.785861)
(36.0862 14.4649 -1.25356)
(49.8744 10.8382 -0.0396422)
(45.3665 6.1606 -0.125619)
(53.9513 3.86992 1.68359)
(51.8095 1.17507 2.6977)
(55.7861 1.66469 4.06315)
(54.0503 0.997125 4.80439)
(54.334 1.75135 5.05851)
(50.6546 1.6767 4.32811)
(50.5223 2.89512 2.99758)
(50.8915 1.38233 1.33927)
(136.827 -78.671 26.559)
(-19.3019 -19.974 6.2488)
(118.418 -24.6673 26.0757)
(37.2833 -5.40004 8.60636)
(78.0374 -3.0617 11.6499)
(33.6494 10.9032 1.3768)
(60.9898 16.1802 3.90374)
(33.639 18.9463 1.53908)
(54.2598 17.3522 4.51508)
(37.4906 14.3369 3.5075)
(48.9391 9.0013 5.53909)
(37.7179 4.50843 4.78204)
(44.1656 2.03694 5.17367)
(38.7599 1.25337 4.13927)
(42.8746 2.58352 3.56817)
(40.8864 3.05005 2.79191)
(43.6025 3.94244 1.98683)
(42.4483 3.27624 1.20111)
(44.8427 3.21377 0.733814)
(48.1786 1.61313 0.298185)
(278.282 37.4671 92.4987)
(53.4551 2.57192 53.0503)
(106.138 -0.564211 56.0053)
(22.8528 2.26068 7.53293)
(71.024 -2.16221 3.28982)
(40.1948 0.786149 -1.53631)
(68.0035 -2.66717 1.50746)
(49.8988 1.93417 1.92557)
(63.4119 0.462299 5.74867)
(48.7104 3.86928 6.89295)
(54.3903 3.71887 8.44823)
(44.4518 4.39191 7.37719)
(47.7108 2.61614 5.58458)
(41.4278 0.979221 3.73298)
(43.796 -0.100612 2.31408)
(41.1743 -0.452229 1.41075)
(43.521 -0.440515 0.905368)
(42.4688 -0.379105 0.528035)
(44.7175 -0.163723 0.345687)
(47.8851 -0.23342 0.13796)
(-74.8865 102.863 -52.0671)
(-124.732 -51.7103 19.5202)
(72.4364 -57.3272 -11.7036)
(-24.9866 -13.8184 14.1514)
(87.5273 -27.3006 10.7512)
(37.4797 -11.92 9.48173)
(88.4782 -12.0553 6.3717)
(68.3399 -7.38441 1.27169)
(90.909 -5.60168 -1.5896)
(79.2946 -4.6171 -4.89139)
(88.8835 -5.56292 -5.92533)
(84.0684 -6.99935 -7.83784)
(89.7213 -7.62649 -8.6489)
(88.8783 -9.43107 -10.2439)
(92.8113 -13.7616 -9.60169)
(101.677 -17.8297 -3.09475)
(114.345 -10.3306 4.1154)
(112.765 -1.49223 3.50983)
(100.04 10.8103 -3.31871)
(69.6621 7.77819 -4.43484)
(122.093 189.979 79.1409)
(-24.7554 -18.2322 15.9488)
(87.8498 -9.84037 35.4451)
(-11.5264 1.91832 10.3011)
(70.7945 -2.52645 7.33773)
(14.5941 -3.49833 1.52245)
(68.047 -0.655821 1.10083)
(38.5069 -2.64644 -1.00051)
(66.2946 -1.76025 -1.1706)
(48.9712 -5.13528 -2.64618)
(60.8023 -7.55116 -2.36529)
(49.6928 -10.6877 -3.97953)
(53.9493 -11.2447 -4.99912)
(47.0075 -10.1544 -5.86511)
(49.9681 -7.108 -2.96734)
(49.1335 -2.73199 5.27996)
(52.3539 2.75838 8.93609)
(49.4767 6.94267 3.59496)
(50.6461 12.5809 -1.18837)
(49.8953 7.49631 -1.15553)
(546.298 -151.525 -11.3253)
(48.979 -71.2152 -6.55325)
(98.4613 -17.0351 -13.7241)
(-55.4501 -15.956 5.00333)
(75.029 -28.2096 -4.40791)
(-11.2383 -16.724 -2.03244)
(64.6552 -19.2331 -0.318969)
(29.0017 -9.82261 -0.953561)
(64.1933 -11.8028 1.44001)
(45.2342 -8.46308 0.999836)
(57.5514 -13.4728 2.365)
(43.2077 -12.9383 2.11697)
(46.2991 -15.3051 3.12143)
(38.0921 -13.6739 4.24888)
(40.6607 -12.3607 6.25822)
(37.667 -8.27245 5.19815)
(40.9951 0.294622 2.79444)
(39.1826 5.88081 0.339835)
(42.9451 12.4951 -0.0396138)
(45.5165 9.55936 0.172385)
(104.908 -99.3683 117.605)
(-96.3111 -3.40611 -54.4929)
(41.5871 -40.0974 -5.92885)
(-49.0962 -24.5973 -3.10504)
(65.3432 -45.2003 -0.974603)
(-5.37526 -20.2279 0.102991)
(64.2416 -28.7378 1.31856)
(31.935 -13.8633 -0.468571)
(63.9928 -11.924 1.72947)
(47.0874 -4.90484 1.1657)
(56.1185 -5.38784 3.26649)
(41.6457 -3.15267 3.55547)
(41.7194 -3.5645 4.42613)
(33.8671 -1.87589 4.01916)
(34.2292 0.0795611 3.40487)
(30.5863 2.46202 2.3938)
(30.97 6.25847 1.68326)
(31.4951 7.45657 0.875474)
(34.7773 10.1574 0.506359)
(40.2352 7.35626 0.418965)
(94.9839 -48.699 81.235)
(-56.7588 -38.4249 -13.4501)
(75.9426 -63.4066 -0.281209)
(-47.7057 -45.5624 4.32766)
(68.6727 -46.4343 -5.77005)
(-34.9354 -23.8616 3.3594)
(58.3673 -44.8561 2.43985)
(10.722 -16.002 2.99474)
(53.5494 -22.6666 5.02188)
(31.0069 -4.72326 3.97017)
(45.6214 -10.397 5.8002)
(33.0194 -3.49187 5.7141)
(37.89 -8.32388 5.13873)
(31.4079 -4.89816 3.90461)
(34.0654 -5.85268 2.4748)
(32.3416 -2.84627 1.43656)
(34.9048 0.867884 0.668929)
(35.1222 3.75915 0.257107)
(38.0047 6.31033 0.158921)
(41.9092 5.61801 0.12401)
(113.86 -187.913 -66.4706)
(-35.4832 -71.0951 -19.9351)
(103.869 -74.9983 14.9441)
(-22.0005 -36.7644 13.3555)
(85.4312 -50.7106 -1.48676)
(-24.5039 -18.365 4.14144)
(64.3425 -60.7275 4.26764)
(10.0221 -16.8625 3.03463)
(45.9004 -26.0505 4.25215)
(25.3828 -2.24311 1.49143)
(30.9892 -9.42493 4.24021)
(25.3189 -1.46236 3.5342)
(28.3894 -3.91944 3.97891)
(28.117 -0.844811 3.08758)
(29.2295 -0.600387 2.54119)
(31.1985 1.30095 1.47142)
(31.8937 3.74347 0.772193)
(33.7812 4.09905 0.451187)
(35.5784 5.2016 0.207366)
(39.6377 4.2353 0.108344)
(281.058 -167.141 21.2233)
(128.722 -98.1546 -14.2355)
(130.423 -25.1632 -18.7149)
(23.1282 -15.1294 -2.86277)
(87.4965 -29.8118 -5.50631)
(11.9944 -11.993 3.50126)
(50.9495 -68.8716 7.11822)
(-6.97604 4.81775 3.94576)
(26.9522 -32.2383 1.04958)
(-6.7225 11.1289 -3.95824)
(8.74654 -12.5148 -1.11637)
(6.05055 -1.02615 1.87524)
(18.7248 -10.1862 2.87168)
(19.3036 -4.53246 2.95574)
(26.5403 -7.24162 2.1196)
(29.2482 -4.5881 1.27643)
(33.5773 -2.04489 0.635181)
(34.9373 0.0907258 0.341907)
(37.2797 2.0474 0.222114)
(40.9975 2.45224 0.103856)
(499.586 -82.0817 48.3097)
(142.051 -16.1015 -42.2527)
(148.982 -8.37738 -28.9607)
(36.8825 -13.0237 -5.33898)
(98.5753 -34.528 -4.12528)
(31.3748 7.09657 5.105)
(60.6733 -26.1004 9.39227)
(5.32326 10.2476 13.8411)
(21.4113 -15.8525 1.23065)
(-7.17937 12.7468 -6.24973)
(12.41 -9.56319 0.705521)
(12.8846 -14.2659 4.14644)
(25.7478 -11.4023 5.50881)
(27.9418 -10.4527 6.14267)
(33.6031 -9.45867 4.30654)
(36.5766 -6.36408 2.34937)
(35.7938 -2.87163 1.70996)
(37.0016 -0.846359 1.0925)
(37.5826 0.75029 0.784377)
(40.7214 1.22 0.416181)
(116.755 140.366 -33.938)
(49.1236 42.0649 29.6313)
(137.085 24.9114 -12.4953)
(51.5662 -0.809233 -13.7998)
(85.4903 -21.3589 -8.10238)
(56.2141 -4.97941 4.01901)
(82.2636 -8.6025 16.3833)
(45.5051 -10.9153 16.0977)
(34.1644 16.252 9.98734)
(28.4282 9.0843 -13.908)
(30.0527 -3.53516 -9.81808)
(25.6765 -22.9724 -4.75314)
(25.5536 -17.8905 -3.83668)
(29.0187 -15.5435 4.53823)
(36.9025 -10.2389 7.57422)
(38.8692 -8.09232 2.99441)
(39.4157 -4.58433 1.37521)
(39.021 -3.41084 1.06975)
(39.7586 -1.38654 1.30888)
(41.7248 -0.377677 0.874107)
(34.8622 198.813 87.6587)
(-31.8232 35.0675 0.661246)
(134.915 24.9276 -3.13116)
(30.0632 -9.13794 -12.0146)
(92.4947 -16.2889 3.05254)
(60.3533 -15.5905 4.85032)
(86.4101 -8.74938 16.7846)
(76.4222 6.42981 30.5841)
(40.5875 31.7931 20.5067)
(57.472 6.33459 -7.74739)
(56.7807 11.1528 -14.2881)
(43.2693 -14.4281 -17.3271)
(35.2821 -25.0015 -7.36396)
(38.0943 -34.0059 -10.087)
(41.9801 -14.6951 0.761576)
(43.6629 -5.7496 2.96447)
(42.1219 -3.70267 1.54474)
(40.9537 -2.20572 1.09132)
(40.7709 -1.35095 1.34405)
(42.461 -0.765647 0.950701)
(94.2217 42.672 -33.9641)
(-98.908 -59.3579 18.8228)
(105.558 -16.0183 9.03458)
(36.8043 -19.2973 5.8551)
(95.7043 -1.76446 8.93189)
(71.8651 -7.68658 5.20581)
(75.5866 -6.4839 11.4821)
(73.6797 28.6821 11.0795)
(76.7723 33.1549 13.7392)
(49.8861 28.2872 14.2383)
(62.0368 21.8844 -0.781569)
(72.1041 -0.0698714 -12.5911)
(67.9452 -13.7969 2.25471)
(54.934 -25.7272 -2.42991)
(53.9909 -18.8789 -2.83231)
(45.6626 -6.14154 1.35946)
(42.9804 -3.15427 1.05733)
(41.331 -3.38179 0.892612)
(41.4352 -2.44512 1.25881)
(43.099 -1.88744 0.912885)
(290.131 218.057 -122.551)
(-1.42223 30.0269 -12.2118)
(152.425 17.9411 4.94578)
(7.8609 7.57002 -0.113855)
(82.6215 28.2951 5.28863)
(34.6575 15.2991 5.03025)
(66.871 20.5742 10.4154)
(70.5847 29.1072 3.844)
(71.4439 30.8671 -0.369602)
(73.2395 24.8001 0.458532)
(70.5749 26.3723 5.51713)
(76.3962 18.0333 8.70931)
(84.3013 -10.8799 17.0188)
(84.0885 -9.41256 -1.63896)
(48.5039 -11.8324 0.763109)
(40.3882 -2.50397 0.78169)
(41.3011 -2.02711 0.499971)
(40.6162 -2.47952 0.504691)
(41.6812 -2.70829 0.94901)
(44.0226 -2.28836 0.714564)
(261.041 191.219 -32.5984)
(-71.8082 45.3773 -10.4924)
(132.296 -10.8131 -18.4971)
(-1.14811 10.664 -7.33262)
(82.6619 16.0453 -2.79333)
(32.0006 -5.72392 -2.55437)
(62.6396 19.758 -0.323966)
(53.3323 32.6856 1.10218)
(73.601 29.5226 4.05897)
(75.9945 22.2694 4.94733)
(85.743 16.8773 9.15607)
(87.6693 6.32333 7.09439)
(67.1538 -1.84391 -1.45136)
(43.2152 -0.0969332 0.565086)
(43.6492 -3.44475 4.9707)
(42.7004 -5.64458 2.01403)
(41.4755 -5.22282 0.597642)
(40.7312 -5.29725 0.155018)
(41.6735 -5.00454 0.191984)
(44.781 -3.75253 0.13954)
(215.828 -20.4812 43.5011)
(48.9647 33.0917 -28.9962)
(129.135 -19.4231 -31.439)
(28.1452 4.55206 -7.95563)
(82.5359 15.9761 1.72702)
(28.4045 0.530367 0.586143)
(59.3289 39.784 5.7067)
(51.1235 6.04643 7.76255)
(70.838 24.6305 10.3917)
(72.3355 12.1429 10.2628)
(82.8705 19.319 9.48728)
(81.3865 11.7856 7.27741)
(82.9599 14.4754 6.93426)
(78.1473 8.37085 7.19329)
(69.5562 8.27637 8.81259)
(59.4375 1.04818 5.94214)
(53.6608 -1.35542 1.52775)
(47.9028 -4.47719 0.160001)
(47.4694 -5.19632 0.464799)
(48.5598 -4.13711 0.294688)
(142.096 56.4649 128.884)
(13.7803 60.9374 16.9004)
(97.3101 52.2021 -10.868)
(-26.265 30.8188 4.4907)
(76.3813 35.9177 6.8135)
(6.64077 5.1109 3.29243)
(65.1438 26.0605 6.3338)
(42.2465 11.4017 4.39594)