/*--------------------------------*- C++ -*----------------------------------*\
  =========                 |
  \\      /  F ield         | OpenFOAM: The Open Source CFD Toolbox
   \\    /   O peration     | Website:  https://openfoam.org
    \\  /    A nd           | Version:  10
     \\/     M anipulation  |
\*---------------------------------------------------------------------------*/
FoamFile
{
    format      ascii;
    class       volVectorField;
    location    "1.2";
    object      U_0;
}
// * * * * * * * * * * * * * * * * * * * * * * * * * * * * * * * * * * * * * //

dimensions      [0 1 -1 0 0 0 0];

internalField   nonuniform List<vector> 
12920
(
(138.778 -65.7367 -84.5523)
(-113.874 -44.5454 -19.2755)
(126.406 -87.2451 -4.90835)
(13.4603 -34.664 6.61752)
(112.363 -44.5035 7.47324)
(58.1997 -25.5757 5.20259)
(104.916 -20.8869 3.58591)
(83.3924 -11.6551 0.949217)
(106.313 -5.78507 -0.814031)
(98.1596 -0.878414 -2.33783)
(109.734 1.53591 -2.87126)
(109.16 4.15704 -4.48874)
(117.719 4.79707 -5.47323)
(123.82 6.71234 -5.32651)
(129.18 10.4111 -3.52246)
(124.627 12.7479 -1.39388)
(103.01 18.0984 -1.78189)
(81.5724 20.1108 -7.07274)
(82.9634 20.221 -8.20588)
(88.367 14.8505 -5.11883)
(342.84 172.536 -81.7576)
(193.787 71.4634 5.29094)
(164.532 -3.8385 22.854)
(65.3438 -24.727 4.46683)
(112.516 -27.2412 1.69313)
(63.8881 -25.5278 0.812947)
(98.1564 -16.2177 1.67224)
(70.0031 -7.57322 0.0353405)
(91.9514 3.19605 -1.14855)
(80.4264 8.80157 -2.5255)
(93.7459 13.3147 -3.2119)
(93.2326 16.4912 -4.47529)
(104.35 18.2356 -4.93024)
(111.852 19.0278 -3.12617)
(114.92 18.5129 0.242032)
(107.501 16.7612 3.20655)
(85.9449 17.3888 4.74908)
(73.1053 16.2807 1.69273)
(75.8712 17.105 -0.00817779)
(79.7095 11.5779 0.176642)
(31.9787 -13.8476 -87.4716)
(-127.58 -26.8911 -24.1326)
(150.869 -4.78388 -14.3889)
(26.6413 -24.4222 -2.30768)
(112.802 -32.51 -0.307561)
(51.9226 -28.819 -2.74251)
(99.2411 -27.1744 0.0367255)
(69.2059 -13.3267 -1.28705)
(92.8735 -5.77872 -0.934657)
(77.9434 6.79218 -1.82367)
(90.1257 9.88586 -1.75097)
(85.5145 13.7993 -1.21037)
(90.654 11.8987 0.101787)
(86.8018 10.6651 1.40192)
(82.7715 7.36649 3.44577)
(70.9951 7.83341 3.21942)
(66.2599 10.9532 2.24528)
(62.2407 12.597 1.69226)
(63.7429 15.7865 1.65163)
(63.9222 12.4317 1.1607)
(-134.578 -66.0161 20.0536)
(-205.451 32.3915 -20.2377)
(94.4232 -49.1832 -9.09753)
(34.325 -15.5193 -2.31215)
(115.274 -31.1736 1.41826)
(66.0255 -17.4287 0.543084)
(99.3401 -20.8426 2.40075)
(67.9292 -6.07187 0.334418)
(85.8382 0.673624 1.26898)
(66.7981 10.0259 0.628555)
(72.8008 11.3111 1.41631)
(62.2963 12.971 2.16546)
(62.2299 10.6812 2.99774)
(53.6857 9.68623 3.33264)
(49.6088 9.5439 2.98497)
(43.1685 8.72133 2.25301)
(41.8022 9.86011 1.73392)
(40.8028 10.0956 1.31622)
(43.2992 11.4522 0.998708)
(49.0363 8.19339 0.667764)
(-94.7328 -65.5673 -21.5682)
(-44.9774 -76.1619 -26.1264)
(148.78 -78.631 6.36452)
(-54.757 -41.8063 4.83653)
(110.161 -43.9567 -3.42479)
(2.25134 -23.8845 2.71395)
(76.5314 -34.1309 2.26015)
(28.2477 -7.04607 2.2232)
(66.2915 -8.45423 2.95111)
(43.1483 11.3825 2.65174)
(56.9323 5.95363 2.71396)
(44.7338 11.1496 2.83975)
(48.0868 4.02418 2.36154)
(40.4792 4.79268 1.82466)
(41.7445 1.80212 1.17204)
(39.4297 2.81545 0.75953)
(40.5887 3.6982 0.480442)
(40.8044 5.37578 0.395631)
(44.0493 6.98843 0.34167)
(49.4124 5.90488 0.220486)
(266.714 -159.906 -155.204)
(257.597 -93.3256 -35.4389)
(282.776 -80.62 23.2946)
(49.5886 -34.6407 17.3549)
(125.33 -46.7233 3.25723)
(29.0297 -14.1381 1.38761)
(86.2623 -49.0123 3.24229)
(35.54 -15.3956 3.53319)
(61.0636 -23.8365 2.78497)
(41.5576 1.39005 2.194)
(46.6065 -3.04212 1.83389)
(40.2293 4.52527 1.43592)
(40.3595 1.79717 1.18835)
(37.8302 3.69232 0.912879)
(36.9038 2.97823 0.713393)
(37.1677 3.68764 0.496186)
(37.0686 5.21894 0.35898)
(38.3541 4.95351 0.24592)
(40.7243 5.49136 0.106358)
(46.6463 4.26452 0.0520448)
(149.377 -48.0786 49.2411)
(87.9784 9.48359 -16.9181)
(163.887 30.3582 -7.24407)
(40.9161 11.0843 -0.424383)
(116.992 -19.4931 -1.43191)
(48.3193 -8.68993 1.01005)
(80.1333 -60.7671 0.847695)
(24.7568 -7.35065 3.1581)
(33.5938 -32.2852 1.76044)
(5.25451 14.072 -0.471678)
(15.4551 -5.11837 1.63046)
(13.9562 5.34893 1.42953)
(24.7915 -5.54376 0.630421)
(25.2295 -1.27462 0.1849)
(31.9974 -4.78091 0.277661)
(34.0931 -2.77092 0.187052)
(37.9527 -0.863396 0.107404)
(39.2531 0.815478 0.0504062)
(42.2677 2.28924 0.0381086)
(47.822 2.45953 0.0166879)
(122.271 213.826 57.9442)
(35.2519 37.3491 1.42962)
(169.399 8.72595 4.57446)
(81.7059 5.94544 0.0398824)
(142.217 -25.64 -0.39152)
(85.6774 -0.593358 1.24437)
(96.8269 -23.8067 0.784248)
(57.2244 -27.6764 2.35459)
(25.1922 -20.5007 1.47745)
(2.67025 22.7269 0.241619)
(14.077 -11.1001 0.763664)
(14.8401 -14.2674 1.95838)
(26.3524 -8.21514 1.92443)
(27.6082 -5.10805 -0.209431)
(38.5706 -8.81792 0.114653)
(41.3372 -5.0255 0.221524)
(39.839 -1.64311 0.204813)
(40.9916 -0.0343395 0.181358)
(42.2832 1.0641 0.148307)
(47.3257 1.26447 0.0737554)
(423.721 143.64 87.8977)
(172.829 76.2412 37.3527)
(191.37 51.9839 -3.34158)
(141.67 31.4537 -19.1969)
(175.692 -2.57019 -9.87798)
(107.303 0.36768 3.65826)
(109.537 -13.4006 5.47477)
(64.6472 -14.6601 -2.64192)
(48.8202 13.5754 1.44899)
(17.5904 5.05392 -0.388358)
(28.1647 -13.2375 -0.208593)
(28.3866 -22.1747 -1.40625)
(39.2617 -27.3406 1.30693)
(33.311 -18.8107 2.57158)
(42.3122 -11.6724 -0.566776)
(44.4131 -8.30438 0.156737)
(43.5381 -3.52439 0.252996)
(42.5888 -2.6013 0.23264)
(43.9916 -0.93901 0.284531)
(47.8957 -0.224796 0.180406)
(246.457 178.855 -99.9973)
(157.997 174.323 -4.77286)
(262.566 142.922 -11.3891)
(247.646 111.211 -15.9851)
(269.541 49.4714 2.60068)
(172.385 -2.86102 8.7223)
(145.313 -15.5981 8.22334)
(72.6765 20.6374 -5.09941)
(78.0925 31.0064 1.52174)
(45.7894 24.5739 -0.185855)
(33.0492 13.0846 -0.0863187)
(33.204 -5.51806 -0.900253)
(35.6144 -23.5597 -0.298567)
(44.1418 -30.1268 -0.810503)
(52.1675 -19.819 1.42888)
(49.7864 -6.25949 -0.0151413)
(46.1003 -3.24517 0.165851)
(44.2832 -1.76822 0.223458)
(44.7704 -1.0886 0.301526)
(48.3057 -0.67325 0.198933)
(121.838 -73.1765 70.68)
(65.6279 -85.3128 34.4186)
(205.996 -11.9242 20.6723)
(202.768 29.3363 11.2674)
(241.392 42.289 14.9391)
(189.641 18.1466 10.1896)
(111.474 -5.09139 4.77125)
(82.622 31.0292 3.89436)
(86.8845 47.6536 0.318065)
(83.3186 28.4235 -0.0114941)
(70.6544 24.6294 1.20386)
(43.4655 21.1416 -1.50176)
(41.6409 -25.2993 1.69211)
(47.9025 -26.9359 -3.15007)
(55.0388 -14.163 1.16359)
(48.5346 -4.59323 -0.203271)
(45.7628 -1.89969 0.00457146)
(44.094 -2.53548 0.157583)
(45.0248 -1.94151 0.27224)
(48.6022 -1.67915 0.196832)
(286.658 -50.7297 -137.536)
(115.941 -66.6746 -16.5163)
(182.745 8.49725 -12.1368)
(106.787 -3.83483 0.101301)
(164.452 7.61613 6.09819)
(121.819 5.23332 3.10718)
(111.436 21.7848 5.61933)
(102.432 26.3382 0.228225)
(87.4774 29.2989 1.15474)
(73.0998 28.7471 0.971427)
(71.8819 28.9268 0.0934976)
(75.6852 -3.80023 1.34419)
(39.3032 -18.1176 1.89608)
(43.3338 -14.7413 -2.22223)
(50.3896 -8.64055 -0.0707903)
(42.7587 -0.855037 0.165664)
(43.5834 -0.707267 0.0933907)
(42.9666 -1.48227 0.126872)
(44.9209 -2.02435 0.183846)
(49.1973 -1.92048 0.147528)
(316.261 -403.641 -376.205)
(-84.9049 -26.7628 -6.22654)
(163.333 -18.8045 -16.6814)
(48.4043 3.66718 -5.63534)
(117.312 16.5699 -2.87598)
(71.7487 2.22371 -3.02111)
(89.9352 16.1959 -0.586502)
(80.5406 31.8331 0.0981368)
(98.5084 38.5757 1.39871)
(100.818 26.3997 1.4329)
(93.4842 13.3905 4.45774)
(56.5172 -4.58554 -1.80304)
(53.2907 -9.2147 -2.21578)
(44.2079 -3.27669 -0.540477)
(52.3987 -2.31259 1.03254)
(47.9047 -4.339 0.893963)
(44.4999 -3.32098 0.370364)
(43.5265 -3.64427 -0.019708)
(45.1728 -3.87869 -0.108758)
(49.9503 -3.25851 -0.066726)
(160.696 -112.99 -104.073)
(28.9183 59.9028 -22.3209)
(169.436 12.3853 -18.09)
(81.786 26.3776 -5.67207)
(117.222 30.4075 -0.836349)
(68.8347 12.1953 -0.572011)
(90.4347 37.4877 2.25317)
(79.7295 4.30959 3.46142)
(92.1874 11.318 4.41002)
(89.8368 -6.48606 5.1437)
(98.8882 -5.86186 4.86241)
(100.438 -14.6192 4.01209)
(105.336 -10.9993 3.98526)
(104.183 -10.7806 4.05124)
(99.0768 -3.83614 3.14761)
(76.4566 -1.28252 1.59368)
(61.0803 0.909152 0.192504)
(52.1286 -1.21219 -0.609498)
(51.7276 -2.70321 -0.535731)
(54.0139 -2.78071 -0.264017)
(392.836 76.2218 126.077)
(88.3429 135.69 29.5782)
(144.223 91.8986 -1.14992)
(36.2955 60.3508 -1.57034)
(91.1421 51.1933 2.13254)
(34.5863 9.77478 1.31738)
(78.8528 7.27804 2.49383)
(60.372 -11.7993 1.69529)
(77.1865 -15.3248 2.45514)
(68.8541 -24.5731 0.883815)
(77.6683 -24.4848 0.290884)
(75.0488 -27.0335 -0.73823)
(82.0758 -24.6058 -0.458114)
(79.7847 -20.8887 0.367915)
(77.3902 2.74873 0.869918)
(66.2899 15.9678 -0.388854)
(60.8881 15.9321 -1.73156)
(54.4298 7.88032 -2.14547)
(53.4214 0.419207 -1.30593)
(54.4191 -1.6825 -0.432206)
(-140.836 190.315 67.8085)
(-138.901 112.483 -36.7854)
(106.952 109.68 -13.9377)
(-15.3716 50.5381 4.62107)
(75.4771 18.5791 4.36272)
(28.1093 -3.39194 1.0503)
(72.7109 -4.94563 2.53125)
(47.1655 -14.0708 -0.37663)
(61.8423 -8.47663 -0.137965)
(43.6251 -13.3571 -3.19805)
(55.4379 -7.17899 -4.93361)
(51.6747 -8.37662 -6.4516)
(63.0251 -3.25067 -6.42459)
(61.7992 -0.0239573 -5.47487)
(68.5744 10.3065 -2.29962)
(69.5045 16.3499 -0.130852)
(71.593 17.054 -0.187751)
(68.8339 13.8773 -0.267481)
(66.3799 5.56442 -0.120966)
(61.6849 0.277347 0.103831)
(-16.7903 -13.2031 129.257)
(-168.382 82.9852 -46.175)
(125.179 62.2337 -10.5565)
(29.8983 30.342 -5.47449)
(103.129 -7.99296 -3.296)
(60.8591 -6.48819 -2.09199)
(83.8899 -10.3172 2.22965)
(51.2326 -0.421515 -0.0291029)
(61.7221 4.33954 2.46888)
(41.5111 6.46663 -1.20905)
(54.0265 6.51912 -3.1634)
(50.2249 6.53403 -4.50342)
(61.6281 7.74123 -3.84635)
(62.8974 9.49734 -2.59324)
(69.892 15.228 -0.374942)
(70.0813 16.7851 1.11981)
(71.2754 15.3804 1.56193)
(67.8464 10.9 2.06937)
(64.9227 6.82203 1.64152)
(59.7586 2.19616 0.919849)
(88.3975 87.8014 -2.0985)
(-81.7854 94.6082 11.582)
(125.714 35.9251 -9.92247)
(103.775 35.2699 -10.8195)
(156.496 11.3055 -3.24374)
(123.896 2.19135 -0.311145)
(116.391 -4.5297 3.29167)
(85.6449 3.83993 -1.12196)
(94.7995 8.60173 -0.926122)
(85.1323 11.8203 0.00159997)
(86.6661 16.09 2.0723)
(76.0691 15.7639 1.62013)
(75.4501 14.1834 1.94515)
(67.7765 11.0537 1.40307)
(67.8346 10.7287 1.45821)
(64.3806 8.87959 1.68489)
(62.8356 7.15035 2.24974)
(56.2462 4.43484 1.79911)
(55.5065 3.8071 1.01051)
(55.8398 1.47009 0.411146)
(214.969 -46.2204 74.42)
(86.0885 -26.6399 -1.91975)
(144.26 -24.2907 5.41149)
(67.3736 0.792328 3.26814)
(91.7786 3.39433 4.91548)
(55.7545 12.406 1.23146)
(75.3807 14.235 1.77247)
(58.6698 13.7986 0.971233)
(73.7558 12.408 2.30048)
(64.5436 14.1137 2.2307)
(70.3329 14.1934 2.95679)
(59.5983 12.8917 2.69699)
(59.3983 9.11406 2.94955)
(49.5887 6.25335 2.28605)
(49.7495 5.70134 1.87654)
(45.4074 4.79772 1.37494)
(46.4892 5.00756 0.91885)
(44.6647 3.77668 0.46352)
(47.6161 3.39051 0.196737)
(52.429 1.63083 0.0353743)
(350.299 -5.00787 -4.12037)
(97.9316 61.9745 -14.6565)
(130.306 41.2185 4.88493)
(47.7933 13.6064 3.97504)
(81.9081 -1.83863 2.06328)
(58.1606 -4.3432 -0.576536)
(82.7188 -10.6077 -0.251698)
(69.6256 -9.69755 -1.05415)
(77.8013 -9.70325 0.700168)
(61.6973 -3.71655 1.86769)
(62.5581 2.62443 4.52946)
(48.8345 5.71758 4.50395)
(49.7124 5.23225 3.41772)
(41.838 3.72401 2.1763)
(44.0307 2.08726 1.22486)
(41.4909 0.956958 0.637113)
(44.0587 0.357006 0.335409)
(43.4096 -0.00337309 0.159985)
(46.8501 -0.00180606 0.0856386)
(51.9452 -0.180481 0.0253729)
(258.959 233.409 -99.1171)
(-54.8649 -25.2451 8.188)
(123.894 -68.1278 -9.54188)
(1.56331 -21.5859 12.6373)
(108.177 -35.0665 11.887)
(54.4682 -18.3092 9.16529)
(103.105 -16.5196 6.6516)
(82.615 -10.6216 1.90027)
(105.595 -7.52887 -1.31261)
(96.9609 -5.02249 -4.62521)
(108.018 -4.2596 -6.17538)
(106.065 -4.65132 -8.26093)
(112.381 -4.6947 -9.052)
(114.169 -6.366 -10.3364)
(123.783 -7.75898 -8.18966)
(129.669 -7.14545 -0.305033)
(127.374 -4.30736 4.65026)
(112.149 1.18622 0.687478)
(93.7833 12.0979 -7.86851)
(80.1437 8.49843 -6.79789)
(162.22 180.551 60.5729)
(45.9776 3.58996 33.3668)
(126.402 -5.33069 33.0134)
(36.3762 -4.33122 9.41037)
(97.0179 -8.98502 5.38681)
(42.4381 -10.6739 1.89561)
(88.0839 -5.48035 2.6397)
(58.8604 -3.37892 0.000873802)
(82.8392 2.1235 -1.13104)
(64.6721 3.45999 -3.33605)
(74.8068 6.2148 -4.11839)
(64.6055 6.07705 -4.72639)
(69.5551 6.40586 -4.8695)
(67.0095 5.88204 -3.11281)
(75.2191 7.75196 2.96883)
(73.8407 6.66877 10.0869)
(67.0507 7.35101 11.759)
(57.2517 7.27496 5.50784)
(59.7896 10.5209 0.655817)
(64.3117 6.21763 0.103601)
(220.828 -165.786 256.308)
(-64.6262 -19.8636 -20.1334)
(133.198 -0.746649 -43.2542)
(-31.7807 -15.2984 -3.9266)
(99.1915 -27.9971 -3.51605)
(19.3469 -20.3521 -3.41289)
(85.1102 -21.017 0.373602)
(52.2501 -10.0636 -1.07721)
(81.6862 -8.30494 0.918735)
(61.349 -1.63416 0.123522)
(71.1897 -3.94014 0.831112)
(58.1428 -2.74526 1.21588)
(62.1815 -5.52147 2.93519)
(55.361 -5.64618 4.63286)
(56.153 -5.74898 6.52979)
(50.9839 -3.8676 6.0434)
(50.8495 2.01704 4.19052)
(48.8948 6.20046 1.91358)
(53.8493 12.1175 1.43994)
(57.4053 9.72585 1.08127)
(-23.7094 -151.723 -70.1985)
(-111.805 17.6732 -58.0544)
(71.8433 -50.8041 -26.7576)
(-15.1005 -20.1046 -3.59686)
(92.4112 -41.0704 -0.360139)
(27.4255 -19.3192 0.0367815)
(84.651 -25.473 2.51317)
(54.2071 -11.1176 -0.493446)
(80.8592 -6.8392 1.83914)
(63.0894 1.14518 1.32919)
(69.2499 1.76532 2.39896)
(55.1444 3.78686 2.4164)
(54.1744 2.9442 3.63444)
(45.193 3.5834 3.76173)
(43.3976 5.162 3.50851)
(38.5682 5.77833 2.76301)
(37.8189 7.69792 2.06523)
(37.8258 8.01068 1.35111)
(41.4353 10.1143 0.862565)
(48.5302 7.39109 0.662609)
(123.034 38.9352 68.5537)
(-35.9136 -34.4904 -32.6174)
(114.786 -53.9888 -5.35896)
(-37.9085 -40.4848 3.53294)
(92.9258 -42.2463 -7.07585)
(-12.3436 -20.7988 3.88183)
(72.3391 -39.039 3.14984)
(25.7146 -11.2709 2.56192)
(65.5836 -15.2346 3.73787)
(44.5999 4.27347 2.63035)
(57.8555 0.135826 3.08667)
(44.9143 6.57705 3.088)
(47.7005 0.669329 2.92016)
(39.9862 2.1956 2.47158)
(41.3947 -0.279637 1.81128)
(39.0768 1.04032 1.21527)
(40.5295 2.6512 0.677213)
(40.713 4.76523 0.356002)
(44.0424 6.77761 0.262892)
(49.7808 5.82377 0.19486)
(189.502 -121.114 -271.396)
(-2.73455 -51.3243 -31.1085)
(166.091 -65.961 41.5085)
(-8.15986 -28.6433 16.8175)
(109.713 -44.934 -0.350832)
(-0.655395 -12.5716 4.0974)
(78.6282 -55.2623 5.61997)
(22.0768 -13.9286 5.25364)
(54.9403 -24.4306 4.71982)
(36.7943 1.21104 2.18687)
(43.1786 -3.61239 3.22977)
(37.865 4.18864 2.98139)
(39.0191 1.12141 3.09452)
(37.1573 2.9318 2.41749)
(36.7543 2.50377 1.9302)
(37.3504 3.40622 1.24926)
(37.4403 5.18809 0.665952)
(39.0588 5.03495 0.396384)
(41.491 5.66472 0.159038)
(47.3979 4.40688 0.0803741)
(217.792 -12.859 -22.4272)
(100.775 -34.6322 -40.4659)
(148.469 -0.72637 -21.67)
(32.7567 0.320782 -3.35484)
(107.1 -21.302 -5.54522)
(34.0917 -6.9966 2.37111)
(67.2298 -62.972 4.91918)
(-2.70185 7.78656 7.47065)
(25.815 -33.3842 3.27791)
(-2.40053 17.2133 -2.80372)
(14.9239 -6.27698 0.678556)
(13.0879 4.48895 1.04337)
(24.9291 -6.35163 1.98206)
(25.6867 -1.78206 1.75157)
(32.6047 -5.22198 1.39072)
(34.5933 -2.84512 0.863666)
(38.4729 -0.825142 0.445309)
(39.8463 0.921453 0.218386)
(42.8936 2.43806 0.133501)
(48.4858 2.58184 0.0491102)
(112.927 390.375 -74.7576)
(-12.4949 21.6899 -60.149)
(152.087 6.90152 -26.5662)
(51.4802 2.44446 -5.77241)
(120.398 -25.044 -3.51697)
(60.335 8.22958 3.99602)
(81.9516 -21.2276 5.45357)
(30.5898 -4.94646 9.42496)
(19.6688 -25.5087 9.02077)
(-1.11633 19.103 -5.97295)
(10.1573 -4.45642 -0.162881)
(12.7706 -5.54033 1.80642)
(29.9025 -11.1181 4.16978)
(33.5208 -12.0378 3.53641)
(40.2253 -10.034 3.35867)
(42.5606 -5.3807 1.46828)
(40.5165 -1.82448 0.943702)
(41.5767 -0.0929993 0.610538)
(42.8616 1.12227 0.437273)
(47.9357 1.3249 0.223741)
(300.496 183.083 -68.9145)
(70.0665 64.3511 11.6173)
(170.194 43.4743 -12.9141)
(97.7079 22.5203 -18.7133)
(122.443 -10.074 -6.69286)
(103.106 -7.04395 4.94466)
(128.248 -12.2178 14.1598)
(76.9519 -18.2993 -2.41056)
(41.0561 15.0087 16.3855)
(23.5911 10.2561 -4.29459)
(28.5615 2.54545 -2.65244)
(35.2506 -19.2931 -8.41613)
(41.8532 -18.6086 -5.03903)
(45.299 -22.7882 2.72137)
(49.0824 -19.9789 4.22912)
(45.1852 -8.46186 2.52186)
(44.3122 -3.67609 1.06098)
(43.3754 -2.70856 0.606465)
(44.7384 -0.962205 0.616996)
(48.5651 -0.212801 0.361415)
(123.118 173.493 -66.8514)
(71.2193 109.801 10.2222)
(172.311 66.6776 0.531305)
(111.039 21.2399 -7.7752)
(150.474 -2.6844 11.7186)
(134.231 -9.80467 8.11127)
(153.035 -19.6976 17.523)
(149.014 -1.06028 14.7633)
(66.3098 26.2947 16.5169)
(43.4052 30.7663 2.72757)
(56.3486 26.2443 -7.12589)
(54.0952 -1.14984 -15.3677)
(51.2048 -8.73007 -2.0464)
(49.6545 -15.4981 -4.93154)
(61.5454 -25.3687 1.29787)
(51.1966 -6.56049 2.28918)
(47.1693 -3.39414 1.09983)
(45.2401 -1.85837 0.617296)
(45.6284 -1.13356 0.608598)
(49.0193 -0.705744 0.382101)
(102.485 -64.7268 18.8116)
(-31.488 -65.3179 18.0452)
(140.333 -8.70153 20.2671)
(112.185 -5.44697 15.1715)
(156.599 9.22681 17.5201)
(145.197 3.24714 10.5041)
(142.195 -7.03833 12.6793)
(102.856 16.129 11.2214)
(100.044 38.6597 8.9804)
(75.7826 16.2736 -1.44298)
(62.5964 33.9965 11.4236)
(70.4655 20.5858 -5.48487)
(68.7238 -7.67405 2.95789)
(66.4475 -11.1052 -3.98029)
(62.5271 -18.267 -1.29749)
(51.5235 -5.28365 0.159966)
(47.2946 -2.09988 0.427879)
(45.1566 -2.68027 0.359548)
(45.8964 -2.0307 0.479503)
(49.3281 -1.7403 0.315258)
(278.523 231.936 8.34201)
(119.707 69.3796 -2.05512)
(160.432 34.8293 9.13509)
(56.1669 9.55804 -0.645267)
(114.975 24.6273 8.31879)
(87.713 16.8784 10.1182)
(118.406 22.7011 12.7716)
(98.1582 30.6749 4.27293)
(90.5465 33.4866 2.41725)
(85.6668 26.2642 2.37846)
(80.843 21.2602 1.07577)
(80.779 10.8959 9.05334)
(72.6214 -18.2676 12.2825)
(71.4141 -10.6015 -8.50983)
(51.7591 -10.044 1.34803)
(43.9959 -1.05049 0.378248)
(44.5743 -0.754975 0.0653153)
(43.8284 -1.60134 0.0175061)
(45.7203 -2.2147 0.287564)
(49.9344 -2.0743 0.224763)
(28.5891 94.3733 74.383)
(-109.505 20.9658 5.22247)
(126.74 -8.62083 -13.0231)
(22.008 11.0138 -4.70666)
(97.5666 21.1832 -1.77463)
(51.0457 4.26904 -2.55384)
(77.683 22.7119 -1.42632)
(71.9963 39.2934 1.16463)
(89.2199 39.6467 4.39399)
(91.2104 28.585 4.43922)
(97.6965 19.0866 9.62807)
(91.4933 7.82729 4.2086)
(68.7079 -4.82027 -4.48377)
(48.9709 -0.833007 -0.0516983)
(51.6399 -1.90536 4.76863)
(47.4071 -4.73392 2.18492)
(44.5461 -3.67271 0.593013)
(43.9148 -4.16666 0.0209184)
(45.7478 -4.41177 0.00463354)
(50.6305 -3.55681 -0.0158321)
(248.077 -158.165 -114.428)
(76.7841 24.0016 -35.7631)
(150.018 -3.91919 -32.7314)
(56.8651 16.3487 -7.08769)
(98.8779 25.5683 2.11168)
(48.4688 9.6862 1.20742)
(74.8961 41.3486 5.85947)
(68.3878 9.46078 7.65879)
(86.0909 20.7131 9.59172)
(87.3711 5.01403 9.96197)
(98.3459 8.1598 9.29595)
(99.5831 0.410131 7.21875)
(104.105 3.45988 7.00236)
(101.478 0.493283 6.3694)
(94.3752 4.03469 6.13647)
(73.7439 2.40672 5.30185)
(61.9284 1.77211 1.82387)
(53.5229 -2.16381 0.107718)
(53.0144 -4.05786 0.202471)
(54.9502 -3.7199 0.148757)
(181.751 34.8485 86.4332)
(23.4487 98.2001 29.5726)
(124.939 67.6718 -1.84621)
(7.62617 46.2359 5.82163)
(82.3865 44.5525 9.38207)
(19.59 8.87 3.84066)
(71.6208 17.5933 6.29641)
(50.7014 0.543345 4.4109)
(70.2841 1.27228 4.03496)
(62.3778 -4.25324 0.898973)
(71.6724 -1.68062 -1.66931)
(68.4459 -2.67209 -4.13584)
(74.1034 -0.203376 -4.2544)
(72.4536 1.18904 -2.90585)
(74.1183 12.8904 -0.47349)
(69.3763 16.4698 -0.0763014)
(68.5955 13.2591 0.0126861)
(61.7841 3.66438 -0.452673)
(58.9499 -2.76797 0.35256)
(57.2282 -3.16616 0.370241)
(-31.4445 305.753 111.203)
(-114.243 103.591 -42.9267)
(73.5984 94.1716 -18.2887)
(-56.6838 35.1666 9.31478)
(66.5211 13.2506 8.59783)
(-2.95175 0.268868 0.469895)
(56.5576 6.87036 4.64362)
(20.8764 -3.27291 -2.86091)
(48.2182 8.88406 -4.13552)
(31.9412 0.934544 -8.04324)
(48.1575 7.65844 -10.1893)
(42.7263 2.33983 -10.9884)
(53.5085 7.45118 -10.1844)
(52.7766 8.49976 -9.09496)
(59.941 14.4482 -5.23919)
(67.3316 13.4304 -1.67802)
(75.3041 9.53493 0.612285)
(74.7598 4.69568 1.55461)
(71.8782 0.139336 2.75741)
(64.5789 -1.54758 1.86118)
(322.122 -74.4853 129.122)
(-188.214 43.0844 -16.0251)
(116.765 34.1159 -28.1391)
(-17.3224 19.0441 -2.368)
(72.154 -8.80131 2.29464)
(-3.57263 7.49647 -0.0537038)
(53.2507 4.64971 7.04943)
(2.74036 11.1356 -2.61192)
(41.5108 10.7776 -2.82305)
(21.7027 6.55406 -6.94385)
(43.0505 3.18036 -8.39545)
(36.7707 -0.0422962 -8.69956)
(49.1805 0.472617 -7.72924)
(49.7403 3.3862 -5.76778)
(60.7264 9.50287 -2.64203)
(65.9422 9.82325 0.986661)
(69.5094 7.88627 3.3009)
(66.9588 5.11799 4.58012)
(64.4894 4.65959 4.66742)
(60.1366 1.7276 2.3778)
(6.39678 137.732 234.069)
(-122.713 65.8767 -5.71132)
(96.909 8.02179 -22.6731)
(32.4222 6.95726 -12.1699)
(86.6171 -9.10998 1.64145)
(45.0764 -0.154679 2.18427)
(66.9932 5.36521 7.77681)
(34.4233 15.8262 1.50778)
(50.34 17.6959 0.815532)
(35.1975 15.9155 -1.17894)
(49.4892 12.0403 -0.065733)
(45.5567 7.22027 -0.128422)
(54.522 4.7736 1.67299)
(52.7214 1.95634 2.6963)
(57.0332 2.31159 4.07015)
(55.5031 1.5036 4.8023)
(55.8759 2.13006 5.05061)
(52.541 1.89165 4.29808)
(53.48 2.98579 2.95819)
(55.7994 1.41182 1.33331)
(140.139 -128.256 10.9034)
(-21.7433 -36.3813 1.78502)
(111.333 -28.8294 25.6191)
(36.3282 -6.54887 10.3899)
(74.6843 -2.48697 11.4533)
(30.9132 11.9098 1.81268)
(58.4372 17.3055 4.04817)
(31.748 19.7659 1.95248)
(52.6263 18.195 4.57912)
(36.4281 15.0991 3.57209)
(48.378 9.70639 5.53536)
(37.6845 5.132 4.7637)
(44.5712 2.59553 5.14668)
(39.5333 1.75336 4.11551)
(43.9932 3.01005 3.55147)
(42.2383 3.37868 2.77309)
(45.0441 4.17642 1.9874)
(44.2477 3.39587 1.19508)
(47.779 3.25372 0.724273)
(53.0529 1.63134 0.292611)
(312.582 5.12587 97.8445)
(74.8043 -8.3376 55.8021)
(106.354 -4.22284 54.6565)
(24.4019 1.10272 9.09883)
(68.6627 -2.64836 3.06863)
(38.2202 0.634163 -1.20407)
(65.8187 -2.53167 1.58396)
(48.1594 2.08426 2.0803)
(61.8622 0.690097 5.75207)
(47.6708 4.11312 6.9236)
(53.8196 3.95965 8.45401)
(44.4096 4.59465 7.36286)
(48.0822 2.78543 5.56615)
(42.1567 1.11885 3.71204)
(44.8617 0.0263021 2.30548)
(42.4639 -0.353402 1.41102)
(44.9052 -0.368096 0.900326)
(44.2171 -0.335365 0.521337)
(47.6159 -0.143199 0.342239)
(52.7323 -0.227221 0.133997)
(-61.2048 103.054 -35.8669)
(-95.0433 -54.6909 20.2156)
(95.6159 -63.4971 -10.0838)
(-8.40334 -14.6711 14.4463)
(105.225 -27.1835 10.9509)
(53.2337 -11.5357 9.61495)
(102.408 -11.4065 6.4206)
(80.6913 -6.83185 1.24639)
(102.189 -5.0221 -1.59356)
(89.4745 -4.19056 -4.90382)
(98.2513 -5.19334 -5.90356)
(92.6744 -6.71677 -7.83391)
(97.7256 -7.37121 -8.6378)
(96.3397 -9.27397 -10.2474)
(99.8941 -13.6853 -9.54969)
(108.555 -17.6823 -2.96613)
(120.789 -10.0848 4.16165)
(118.995 -1.29722 3.45241)
(106.335 10.9259 -3.43733)
(77.7686 7.7766 -4.49594)
(147.793 179.882 89.0866)
(2.39875 -14.3708 18.8334)
(113.387 -6.70355 34.8726)
(11.0391 5.45074 10.7156)
(89.627 0.940208 7.12883)
(30.8317 -0.990852 1.50409)
(82.0935 1.64018 1.1272)
(50.7233 -0.794486 -0.977458)
(77.4308 -0.143002 -1.10487)
(58.9316 -3.86701 -2.63376)
(69.9859 -6.45647 -2.32739)
(58.0834 -9.78106 -3.95804)
(61.7449 -10.4389 -4.97842)
(54.266 -9.46515 -5.81913)
(56.839 -6.48018 -2.84818)
(55.6499 -2.21947 5.38763)
(58.5366 3.1471 8.8708)
(55.6105 7.20405 3.4894)
(57.1616 12.6604 -1.24145)
(58.229 7.50182 -1.15509)
(524.996 -146.344 -23.6684)
(83.3476 -64.5086 -4.49334)
(121.456 -9.74871 -15.8935)
(-39.0363 -9.53134 4.95031)
(91.7822 -22.6817 -4.14558)
(3.21767 -12.3459 -1.7319)
(77.8424 -15.3759 0.0536886)
(40.6507 -6.65903 -0.807283)
(74.8949 -9.18833 1.56397)
(54.8687 -6.35067 1.03212)
(66.4567 -11.7184 2.40272)
(51.3511 -11.4385 2.1622)
(53.8914 -14.0136 3.18054)
(45.1903 -12.5942 4.30471)
(47.3613 -11.4381 6.27034)
(44.0262 -7.49473 5.18716)
(47.0221 0.92167 2.7778)
(45.18 6.28076 0.303208)
(49.4209 12.6794 -0.0610807)
(53.8121 9.59709 0.180027)
(130.311 -59.8833 96.0919)
(-52.2711 9.23176 -49.8982)
(67.779 -31.4803 -4.55391)
(-27.0277 -15.6581 -3.24103)
(82.0196 -38.6003 -1.36445)
(9.27287 -14.6581 0.283869)
(77.0654 -23.7929 1.58549)
(42.9844 -9.78711 -0.280279)
(74.1599 -8.47149 1.91122)
(56.236 -2.08198 1.29304)
(64.6739 -2.95414 3.37136)
(49.5049 -1.05319 3.58739)
(49.0261 -1.70623 4.49463)
(40.7052 -0.312005 4.04164)
(40.6975 1.36415 3.42486)
(36.7152 3.4944 2.36879)
(36.7789 6.9835 1.69573)
(37.2981 7.93983 0.864348)
(41.1305 10.4082 0.496511)
(48.4071 7.42851 0.419993)
(103.991 -3.89128 95.9298)
(-40.3554 -19.8594 -10.1631)
(95.1791 -46.2762 -0.292266)
(-32.6403 -34.1161 4.47283)
(81.8456 -37.2273 -6.37045)
(-22.1722 -16.7552 3.64539)
(69.8542 -38.7424 2.69655)
(20.8507 -11.0288 3.02871)
(63.0045 -18.4517 5.05612)
(39.6647 -1.10161 3.99765)
(53.8567 -7.21102 5.87029)
(40.6286 -0.725893 5.75072)
(44.9551 -5.88072 5.16745)
(37.9439 -2.81092 3.89491)
(40.2317 -4.16862 2.48082)
(38.1466 -1.53375 1.46323)
(40.4067 1.79654 0.662321)
(40.6742 4.35982 0.25085)
(44.1285 6.62879 0.154977)
(49.8748 5.72476 0.121475)
(114.17 -179.407 -20.9866)
(-22.1694 -58.4343 -12.1934)
(124.118 -61.4598 20.2356)
(-8.83271 -26.0872 14.1924)
(98.0565 -41.1177 -1.89249)
(-13.5396 -10.4135 4.15814)
(74.9595 -54.3534 4.46396)
(19.1401 -11.1917 3.19669)
(54.6893 -21.4757 4.30205)
(33.5398 1.89335 1.6313)
(38.7697 -5.64556 4.16879)
(32.5274 1.94791 3.55896)
(35.0672 -1.02471 3.92831)
(34.2194 1.54422 3.11459)
(34.9259 1.34375 2.52131)
(36.566 2.79425 1.46406)
(37.0035 4.8318 0.77598)
(39.0049 4.79013 0.446981)
(41.4511 5.56453 0.206269)
(47.3747 4.36497 0.1063)
(285.795 -156.017 12.1839)
(144.915 -75.1771 -17.2426)
(148.172 -7.87868 -20.4949)
(33.2572 -2.31324 -3.06132)
(98.243 -19.1898 -5.58616)
(21.0354 -2.65394 3.19896)
(60.2219 -61.7704 7.23161)
(1.28324 11.0672 4.45272)
(34.8886 -27.3702 1.18215)
(1.20358 15.5662 -4.12899)
(16.2661 -8.58735 -1.31485)
(12.8329 2.41496 1.81316)
(24.7781 -7.36286 2.88324)
(24.9087 -2.21387 2.97346)
(31.8272 -5.35846 2.14326)
(34.2176 -3.06405 1.28613)
(38.291 -0.853341 0.680529)
(39.7738 0.918395 0.35203)
(42.8451 2.48639 0.222636)
(48.4628 2.60347 0.102823)
(473.132 -28.0308 11.8827)
(144.966 9.20403 -50.3369)
(160.226 6.94947 -28.9768)
(43.6989 0.169029 -4.74798)
(107.677 -23.7074 -3.8713)
(38.7046 17.1687 5.26882)
(66.6652 -19.9562 9.51899)
(12.6847 16.3264 14.3182)
(28.0479 -11.3328 1.65586)
(0.59474 16.3581 -6.42276)
(19.4679 -6.98837 0.233823)
(19.5702 -12.2638 3.90322)
(31.4768 -9.7539 5.46189)
(33.3081 -9.08287 6.10739)
(38.4628 -7.63059 4.41504)
(41.2327 -4.89727 2.42548)
(40.2072 -1.70245 1.76699)
(41.4742 -0.0116354 1.14585)
(42.7844 1.23205 0.78766)
(47.8739 1.39182 0.430656)
(115.001 167.612 -55.0542)
(52.8618 66.7763 23.1263)
(145.667 43.1047 -14.6388)
(57.9739 14.7272 -14.302)
(92.9232 -9.45381 -7.76202)
(60.4785 3.66135 4.55225)
(87.3638 -1.12141 16.1117)
(51.3055 -3.43116 16.1417)
(40.0178 22.257 9.81305)
(34.8577 13.4635 -14.168)
(36.2017 -0.563032 -10.041)
(31.6986 -20.7638 -4.94739)
(31.0525 -15.9245 -3.7104)
(34.0723 -14.0092 4.74736)
(41.511 -9.05295 7.6063)
(43.1511 -6.60216 3.11146)
(43.4948 -3.45605 1.47034)
(43.1679 -2.63347 1.15941)
(44.66 -0.911013 1.37567)
(48.5376 -0.191336 0.922112)
(37.7023 203.497 83.5263)
(-25.8684 52.3609 -2.95616)
(137.687 38.1381 -4.49184)
(31.0898 3.35999 -12.6445)
(95.7254 -4.97404 2.9748)
(62.2744 -4.24765 5.22717)
(89.3728 1.36001 17.159)
(80.1879 15.2014 30.7921)
(45.2244 38.9974 20.4613)
(62.3359 12.2968 -8.14105)
(61.7538 15.8325 -14.5207)
(48.2845 -10.8581 -17.5339)
(40.1596 -22.2825 -7.3152)
(42.6697 -31.5092 -9.99482)
(46.2084 -12.6872 1.03004)
(47.5726 -4.27078 3.09002)
(45.8265 -2.60295 1.62299)
(44.7638 -1.47376 1.20178)
(45.3761 -0.927122 1.42461)
(48.9621 -0.599206 1.01939)
(108.15 79.2083 6.38844)
(-88.3699 -37.134 22.1066)
(107.983 3.01304 8.54367)
(41.3444 -4.61483 6.20075)
(100.425 10.7838 9.39804)
(73.8187 2.23191 5.46538)
(77.7512 2.62117 11.3096)
(77.1414 37.443 11.3534)
(80.5091 39.7443 13.8748)
(53.6756 34.2538 13.7402)
(66.1799 27.361 0.580267)
(76.2345 3.7318 -12.7811)
(72.145 -10.7027 2.2961)
(58.7848 -23.5363 -2.48049)
(57.8932 -16.7299 -2.72467)
(49.1856 -4.72415 1.49293)
(46.3192 -2.10782 1.15508)
(44.8048 -2.69554 1.01083)
(45.7683 -2.04805 1.32138)
(49.3298 -1.73807 0.969511)
(295.583 263.614 -118.423)
(-28.5066 49.7258 -4.78619)
(147.868 32.6273 3.70245)
(1.40546 22.0843 -0.89264)
(81.4494 39.9063 5.41195)
(32.5121 26.9769 5.1309)
(67.0039 29.675 10.624)
(72.9657 36.6882 3.88421)
(74.0295 37.3594 -0.306978)
(76.002 30.3155 0.459181)
(73.5865 31.154 5.5536)
(79.8052 21.7452 8.69705)
(87.8208 -8.04047 16.8473)
(87.3924 -6.94561 -1.76495)
(51.8215 -9.97213 0.864153)
(43.5199 -1.20694 0.878983)
(44.3157 -1.08317 0.565875)
(43.7796 -1.84936 0.588393)
(45.7618 -2.33597 0.975901)
(49.9874 -2.15201 0.745657)
(264.019 158.965 -10.609)
(-89.373 48.6896 -1.44198)
(125.891 -6.57226 -19.2952)
(-0.738813 19.0203 -6.64632)
(82.422 24.7263 -2.54488)
(32.7307 2.57338 -2.2403)
(62.1942 27.074 -0.266091)
(54.8513 39.4311 1.45711)
(75.4012 35.2064 4.30721)
(77.9368 27.1996 5.07713)
(88.0792 21.0786 9.15395)
(90.0994 9.68481 6.98192)
(69.4728 1.00309 -1.53765)
(46.0628 2.08167 0.652623)
(46.453 -1.9647 4.99469)
(45.5466 -4.43948 2.03099)
(44.1583 -4.36057 0.634369)
(43.6363 -4.70861 0.193954)
(45.5171 -4.64955 0.194462)
(50.5102 -3.62445 0.143108)
(226.893 -37.7205 26.2511)
(62.5738 39.3554 -29.8143)
(126.966 -9.03919 -33.4506)
(26.47 13.3214 -8.19849)
(81.5455 25.0786 1.93994)
(27.6581 8.62997 0.652085)
(59.0977 46.4335 5.88201)
(51.8024 12.042 8.01295)
(71.6844 29.6748 10.6461)
(73.4754 16.444 10.3309)
(84.2591 22.8463 9.53876)
(83.0458 14.592 7.27011)
(84.8705 16.7185 7.00815)
(80.2766 10.1278 7.23509)
(71.8364 9.695 8.83696)
(61.7905 2.05053 5.85155)
(55.9829 -0.622403 1.45765)
(50.5266 -3.96278 0.167965)
(51.0573 -4.88498 0.443778)
(54.048 -4.0206 0.285102)
(157.132 80.6902 89.1294)
(23.1807 71.6503 12.1245)
(93.599 59.6022 -15.3026)
(-28.4449 38.4882 3.39989)
(75.5569 42.7231 7.10016)
(5.1588 11.7775 3.45088)
(64.119 31.7661 6.54967)
(41.9372 16.5947 4.72492)
(64.242 22.2293 3.53916)